/*--------------------------------*- C++ -*----------------------------------*\
| =========                 |                                                 |
| \\      /  F ield         | OpenFOAM: The Open Source CFD Toolbox           |
|  \\    /   O peration     | Version:  v2012                                 |
|   \\  /    A nd           | Website:  www.openfoam.com                      |
|    \\/     M anipulation  |                                                 |
\*---------------------------------------------------------------------------*/
FoamFile
{
    version     2.0;
    format      ascii;
    class       volVectorField;
    location    "800";
    object      cellDisplacement;
}
// * * * * * * * * * * * * * * * * * * * * * * * * * * * * * * * * * * * * * //

dimensions      [0 1 0 0 0 0 0];


internalField   nonuniform List<vector> 
13851
(
(0.0220436 0.0208779 0)
(0.0203574 -0.0407645 0)
(0.0202239 -0.0391412 0)
(0.0260741 -0.149209 0)
(0.000704205 -0.00524686 0)
(0.0213024 -0.0620507 0)
(0.0170118 0.0600198 0)
(0.00155029 -0.00555651 0)
(0.0213636 0.0584663 0)
(0.00505323 -0.11761 0)
(0.0240602 -0.100175 0)
(0.00652747 -0.0680887 0)
(0.00792856 -0.140389 0)
(0.0217093 0.0433098 0)
(0.0211265 0.014438 0)
(0.0199774 0.101015 0)
(0.0250319 -0.103122 0)
(0.0165301 -0.0538854 0)
(0.0232386 -0.027045 0)
(0.0220761 0.0190561 0)
(0.0217691 -0.00251043 0)
(0.0203955 -0.132372 0)
(0.0263722 -0.166803 0)
(0.000293642 -0.00240349 0)
(0.0242804 -0.0717893 0)
(0.0196141 0.0900803 0)
(0.021107 0.0662375 0)
(0.0227905 -0.00559096 0)
(0.0205565 0.0939106 0)
(0.0124525 -0.0492409 0)
(0.025416 -0.120275 0)
(0.0171026 0.057099 0)
(0.0218231 0.0295993 0)
(0.0220946 0.0261493 0)
(0.0234394 -0.09584 0)
(0.0204057 0.100475 0)
(0.000257352 -0.00211401 0)
(0.0252013 -0.113769 0)
(0.0241965 -0.0664344 0)
(0.0144834 -0.123375 0)
(0.022677 0.000556766 0)
(0.0205584 0.0937466 0)
(0.0254334 -0.120824 0)
(0.0258153 -0.167377 0)
(0.0207299 0.0861708 0)
(0.0135471 -0.0902301 0)
(0.00248294 0.00400856 0)
(0.0204884 0.0826443 0)
(0.0196943 -0.107009 0)
(0.00762062 -0.140397 0)
(0.0237068 -0.0447343 0)
(0.00583945 -0.145547 0)
(0.0200158 0.0991891 0)
(0.0186834 0.0674115 0)
(0.0213133 0.0607456 0)
(0.0143959 -0.124698 0)
(0.0218725 0.0280493 0)
(0.022698 -0.000351549 0)
(0.0206948 0.0835572 0)
(0.0223691 0.0141936 0)
(0.00626808 -0.0658184 0)
(0.0211124 0.0655584 0)
(0.00297402 -0.0950165 0)
(0.0198098 -0.10864 0)
(0.0243586 -0.175591 0)
(0.0244235 -0.176273 0)
(0.0223858 0.0134534 0)
(0.0119812 -0.178443 0)
(0.0164039 -0.110369 0)
(0.0258812 -0.140742 0)
(0.0252147 -0.111255 0)
(0.0220531 -0.00403902 0)
(0.0108231 -0.128686 0)
(0.0223332 0.015794 0)
(0.0194867 0.053456 0)
(0.0186112 -0.133899 0)
(0.0250419 -0.103568 0)
(0.0105235 -0.0228332 0)
(0.0242475 -0.0705151 0)
(0.0107355 -0.0957569 0)
(0.0166133 -0.109967 0)
(0.0246422 -0.0918523 0)
(0.0233966 -0.0979049 0)
(0.0217937 0.0395945 0)
(0.0223135 0.0166574 0)
(0.0253441 -0.117045 0)
(0.0206104 -0.131536 0)
(0.0205677 0.0936209 0)
(0.00656893 -0.119356 0)
(0.0254482 -0.121715 0)
(0.00557053 -0.146312 0)
(0.0173182 0.055446 0)
(0.0239924 -0.0573195 0)
(0.0253731 -0.118275 0)
(0.0238015 -0.0489536 0)
(0.0255726 -0.166887 0)
(0.0130091 -0.101309 0)
(0.0202824 0.0908836 0)
(0.0231943 -0.0221456 0)
(0.0250987 -0.126815 0)
(0.0203539 0.089163 0)
(0.0132483 -0.175293 0)
(0.0153135 -0.175381 0)
(0.0106767 -0.134581 0)
(0.0141248 -0.0844154 0)
(0.0224543 -0.0244894 0)
(0.0139273 -0.0847307 0)
(0.0252375 -0.112291 0)
(0.017409 0.0525475 0)
(0.0163354 -0.0534439 0)
(0.0210443 -0.147741 0)
(0.0137759 -0.0901173 0)
(0.0238127 -0.0569525 0)
(0.0235404 -0.066072 0)
(0.0214327 0.0459348 0)
(0.0186532 0.0655677 0)
(0.00925594 -0.042089 0)
(0.00188764 -0.00648515 0)
(0.0260943 -0.150056 0)
(0.0258919 -0.141334 0)
(0.0253596 -0.161052 0)
(0.0150024 -0.0512834 0)
(0.0158951 -0.116282 0)
(0.0222166 0.0209036 0)
(0.0228624 -0.0110222 0)
(0.0152418 -0.179436 0)
(0.013 -0.099636 0)
(0.0240494 -0.127139 0)
(0.0222846 0.0178555 0)
(0.0215441 0.0132948 0)
(0.020294 -0.13458 0)
(0.0224513 -0.0889416 0)
(0.025189 -0.113773 0)
(0.0220591 0.0277308 0)
(0.0240868 -0.0981366 0)
(0.0239286 -0.054553 0)
(0.0114594 -0.178193 0)
(0.0253141 -0.115691 0)
(0.0118032 -0.173316 0)
(0.0212853 0.0216546 0)
(0.0246599 -0.0933234 0)
(0.0120708 -0.14996 0)
(0.00652395 -0.121016 0)
(0.0207081 -0.177737 0)
(0.0238928 -0.0543906 0)
(0.0175703 -0.140119 0)
(0.0102039 -0.0209669 0)
(0.0254059 -0.119742 0)
(0.0209495 0.0767183 0)
(0.0241464 -0.127121 0)
(0.0204072 0.0870701 0)
(0.0238345 -0.058593 0)
(0.0235804 -0.0656963 0)
(0.0231373 -0.0234978 0)
(0.00806349 -0.147716 0)
(0.00515545 -0.133569 0)
(0.00564836 -0.0560222 0)
(0.0242177 -0.0673444 0)
(0.0212461 0.0192786 0)
(0.0182289 0.0246569 0)
(0.000663707 -0.00548189 0)
(0.0204921 0.096719 0)
(0.0223791 -0.0226694 0)
(0.0205431 0.0804491 0)
(0.0216801 0.0445894 0)
(0.0212235 0.0645664 0)
(0.0212495 0.0634036 0)
(0.0237321 -0.045849 0)
(0.0209287 -0.146471 0)
(0.0231054 -0.0187541 0)
(0.00584927 -0.0631364 0)
(0.00899363 -0.0402441 0)
(0.0228452 -0.0333414 0)
(0.000610402 -0.00474893 0)
(0.0237854 -0.0482621 0)
(0.0216348 0.0437042 0)
(0.0208027 0.0735166 0)
(0.00910071 -0.0390944 0)
(0.0192606 0.0588564 0)
(0.0207484 0.0750003 0)
(0.0228275 -0.00977857 0)
(0.0257436 -0.16635 0)
(0.0209418 -0.143311 0)
(0.0214514 0.0154014 0)
(0.0250732 -0.104948 0)
(0.0209225 0.0779023 0)
(0.0217665 0.0323202 0)
(0.0107258 -0.17001 0)
(0.00851358 -0.144649 0)
(0.0132332 -0.0672109 0)
(0.0238881 -0.0544094 0)
(0.0213171 0.016207 0)
(0.0217169 0.0429811 0)
(0.0213145 -0.0585171 0)
(0.0175504 -0.138476 0)
(0.0201492 0.0951198 0)
(0.0217212 0.0335913 0)
(0.0172276 -0.0176138 0)
(0.0179371 -0.0685566 0)
(0.0140737 -0.178131 0)
(0.0247394 -0.0973182 0)
(0.0233967 -0.0311245 0)
(0.0228204 -0.00574326 0)
(0.0210206 0.0172338 0)
(0.0262036 -0.176568 0)
(0.0233858 -0.0306286 0)
(0.00636326 -0.16186 0)
(0.0207646 0.0394077 0)
(0.0214509 0.0546166 0)
(0.0212212 -0.0753836 0)
(0.0198499 0.104909 0)
(0.0157256 -0.11577 0)
(0.0247195 -0.0957433 0)
(0.00211492 -0.0235219 0)
(0.0234398 -0.0907772 0)
(0.0192443 -0.135107 0)
(0.00749927 -0.138857 0)
(0.0222627 0.0147694 0)
(0.0178243 -0.0442929 0)
(0.0215853 -0.18101 0)
(0.00884941 -0.037178 0)
(0.0221854 0.0144488 0)
(0.0218154 0.038639 0)
(0.0238656 -0.0517843 0)
(0.0121128 -0.168892 0)
(0.0207356 0.0416516 0)
(0.00111603 -0.0122234 0)
(0.0201325 -0.177614 0)
(0.00858002 -0.0895847 0)
(0.0233892 -0.0923012 0)
(0.0261081 -0.151467 0)
(0.0110597 -0.169461 0)
(0.021159 -0.0724546 0)
(0.00196952 -0.0883171 0)
(0.0227925 -0.00450391 0)
(0.0125772 -0.0477167 0)
(0.0263232 -0.166602 0)
(0.0228829 -0.00848987 0)
(0.0250356 -0.126374 0)
(0.000623315 -0.00517797 0)
(0.0257515 -0.144255 0)
(0.0222573 0.019125 0)
(0.020701 0.0873764 0)
(0.0198818 0.103187 0)
(0.0217666 -0.0240933 0)
(0.0210953 -0.178377 0)
(0.0222543 0.0146847 0)
(0.0191801 0.0618944 0)
(0.0254987 -0.165905 0)
(0.0217758 -0.143014 0)
(0.0209439 0.0769786 0)
(0.0228091 -0.0126981 0)
(0.00167359 -0.008018 0)
(0.0206681 -0.0216145 0)
(0.0202299 0.0931861 0)
(0.0204655 0.097923 0)
(0.0201432 0.112255 0)
(0.0130051 -0.0659769 0)
(0.0146878 -0.179691 0)
(0.00692458 -0.117942 0)
(0.0218026 0.0337694 0)
(0.0229524 -0.0152472 0)
(0.0207469 -0.0208721 0)
(0.0223274 -0.0189076 0)
(0.0228554 -0.014272 0)
(0.0112827 -0.118667 0)
(0.0138886 -0.175491 0)
(0.0205757 0.076476 0)
(0.0225895 0.00305425 0)
(0.00569619 -0.0902342 0)
(0.0071979 -0.138627 0)
(0.0117864 -0.169457 0)
(0.0215419 0.0505273 0)
(0.026016 -0.146529 0)
(0.0217992 0.00202022 0)
(0.0152569 -0.0517716 0)
(0.0227729 -0.00715476 0)
(0.0230453 -0.0193854 0)
(0.0215237 0.0404406 0)
(0.0222499 -0.0167728 0)
(0.0215644 0.0495642 0)
(0.0229356 -0.0107515 0)
(0.0211778 -0.0358915 0)
(0.020882 0.015272 0)
(0.0254094 -0.123206 0)
(0.0143164 -0.0791547 0)
(0.00552352 -0.053143 0)
(0.0215814 0.0386988 0)
(0.0240046 -0.11003 0)
(0.0129737 -0.0464278 0)
(0.0021283 -0.0227783 0)
(0.0086715 -0.0917098 0)
(0.000977031 -0.00658012 0)
(0.0214424 -0.00941708 0)
(0.00575651 -0.0559324 0)
(0.0213929 0.0571663 0)
(0.0218101 -0.00168223 0)
(0.0144678 -0.111415 0)
(0.0204282 0.0995464 0)
(0.0221971 0.021765 0)
(0.00723008 -0.145383 0)
(0.0221466 0.0165319 0)
(0.0234484 -0.0333499 0)
(0.0122801 -0.150879 0)
(0.00695905 -0.146282 0)
(0.0219101 -0.00363992 0)
(0.0219213 0.033962 0)
(0.0248956 -0.0977124 0)
(0.0227066 -0.0223664 0)
(0.00090246 -0.00666189 0)
(0.0230713 -0.0172957 0)
(0.00611403 -0.0655975 0)
(0.0228218 -0.0250658 0)
(0.0234721 -0.0343992 0)
(0.0225035 0.00679952 0)
(0.0181304 0.0236651 0)
(0.0254255 -0.124481 0)
(0.0252083 -0.115848 0)
(0.0251051 -0.10648 0)
(0.0239223 -0.0629743 0)
(0.0111427 -0.176346 0)
(0.0239333 -0.0547896 0)
(0.0222452 0.019629 0)
(0.02283 -0.00740252 0)
(0.0181245 -0.0690199 0)
(0.0253502 -0.117158 0)
(0.0205957 0.0923688 0)
(0.0215118 -0.180441 0)
(0.0217499 -0.180251 0)
(0.00672414 -0.162237 0)
(0.0228554 -0.0303732 0)
(0.0171605 -0.163723 0)
(0.0205408 0.094791 0)
(0.0144341 -0.176247 0)
(0.00270937 -0.015077 0)
(0.00284047 0.00381582 0)
(0.0216272 -0.112925 0)
(0.0251232 -0.107242 0)
(0.0216317 -0.180964 0)
(0.014222 -0.0771282 0)
(0.0238379 -0.0505531 0)
(0.0165644 -0.165282 0)
(0.022521 -0.0912759 0)
(0.0181992 0.0274085 0)
(0.0218999 0.0349061 0)
(0.0227329 -0.00563429 0)
(0.0201034 0.0971892 0)
(0.0189762 -0.13544 0)
(0.0210075 -0.072228 0)
(0.0201123 0.113213 0)
(0.00886933 -0.145108 0)
(0.0230961 -0.0214045 0)
(0.0210724 -0.0336011 0)
(0.0219817 -0.00656092 0)
(0.0164905 -0.166152 0)
(0.00687343 -0.119604 0)
(0.0145265 -0.109851 0)
(0.0244832 -0.0911999 0)
(0.0251115 -0.125018 0)
(0.0227071 -0.00817101 0)
(0.0252227 -0.115767 0)
(0.0201417 0.111886 0)
(0.017782 -0.140324 0)
(0.0228518 -0.00711209 0)
(0.0219166 0.0300864 0)
(0.01333 -0.0234874 0)
(0.0224724 0.00828676 0)
(0.0221184 0.0121423 0)
(0.0232231 -0.0234158 0)
(0.021483 -0.112072 0)
(0.0191955 0.102758 0)
(0.0206872 0.0832944 0)
(0.0248056 -0.0958089 0)
(0.0245325 -0.0953321 0)
(0.0206516 0.0899215 0)
(0.0190201 -0.0852335 0)
(0.0216711 0.0423763 0)
(0.0254601 -0.12197 0)
(0.0218469 -0.0409471 0)
(0.0209418 0.0770747 0)
(0.0221233 -0.0440372 0)
(0.0229512 -0.0115157 0)
(0.0208599 0.013731 0)
(0.0185261 0.0893805 0)
(0.0229465 -0.0188564 0)
(0.0250887 -0.117708 0)
(0.0054862 -0.133754 0)
(0.0211754 -0.0448807 0)
(0.0240851 -0.110833 0)
(0.0194121 0.056564 0)
(0.0136459 -0.0976319 0)
(0.0217731 0.00436916 0)
(0.0220971 0.0258127 0)
(0.0109007 -0.127559 0)
(0.0208863 0.0355495 0)
(0.0261949 -0.154475 0)
(0.0205441 -0.0721238 0)
(0.0260779 -0.16031 0)
(0.0196452 0.0711337 0)
(0.0248677 -0.0965654 0)
(0.021356 -0.0763882 0)
(0.0195671 0.0894016 0)
(0.0260435 -0.176634 0)
(0.0229193 -0.0135053 0)
(0.0225407 -0.0304575 0)
(0.0201631 0.111388 0)
(0.0222776 0.0182399 0)
(0.0257351 -0.145235 0)
(0.0111668 -0.119771 0)
(0.0244376 -0.0897082 0)
(0.0223078 -0.053006 0)
(0.0192856 0.0998178 0)
(0.0149872 -0.0585348 0)
(0.025279 -0.11402 0)
(0.0223396 0.0151591 0)
(0.0245774 -0.0852891 0)
(0.0209284 -0.0693333 0)
(0.0229184 -0.0170875 0)
(0.0212838 0.0583482 0)
(0.0260373 -0.147492 0)
(0.0105226 -0.00222783 0)
(0.025343 -0.116834 0)
(0.0250305 -0.113044 0)
(0.0264716 -0.169861 0)
(0.0219756 -0.142613 0)
(0.023278 -0.027123 0)
(0.0077618 -0.131159 0)
(0.000538192 -0.00415231 0)
(0.0212873 0.0618919 0)
(0.0213706 0.0547241 0)
(0.00523302 -0.119818 0)
(0.0204016 -0.0433798 0)
(0.0209639 0.034373 0)
(0.00918239 -0.0471798 0)
(0.0223417 0.0149983 0)
(0.0228199 -0.0278014 0)
(0.0221401 0.0104646 0)
(0.0197027 0.0131311 0)
(0.0190147 -0.0826687 0)
(0.00439396 -0.145942 0)
(0.0248389 -0.0975621 0)
(0.0141986 -0.111917 0)
(0.00413935 -0.144975 0)
(0.0204644 0.0963166 0)
(0.0221206 0.0247306 0)
(0.0200573 -0.135089 0)
(0.0207308 0.0807362 0)
(0.00272246 -0.0933711 0)
(0.00561405 -0.052985 0)
(0.0206999 -0.0721057 0)
(0.0227545 -0.00984145 0)
(0.0192972 0.0785573 0)
(0.0138565 -0.100534 0)
(0.0194775 -0.0623996 0)
(0.0252908 -0.159973 0)
(0.0195245 -0.0295993 0)
(0.0250456 -0.104572 0)
(0.00631289 -0.0636977 0)
(0.0191642 0.0408446 0)
(0.0207673 0.0845139 0)
(0.0191057 -0.166702 0)
(0.00311401 -0.00106124 0)
(0.0053881 -0.0623885 0)
(0.0197232 0.0102602 0)
(0.0175055 -0.0126516 0)
(0.0258483 -0.152072 0)
(0.0204277 0.0983091 0)
(0.0217698 -0.0216233 0)
(0.0259577 -0.180632 0)
(0.0207652 -0.069194 0)
(0.00723701 -0.0847967 0)
(0.0219977 0.0305059 0)
(0.0207362 0.081122 0)
(0.0151956 -0.171635 0)
(0.0118474 -0.12916 0)
(0.0222111 0.0211364 0)
(0.0124297 -0.172792 0)
(0.0262937 -0.170314 0)
(0.0104296 -0.134825 0)
(0.022453 -0.0830008 0)
(0.0245288 -0.0938283 0)
(0.0200302 0.0447309 0)
(0.0222474 0.0195185 0)
(0.0212534 0.0598667 0)
(0.0246013 -0.0866225 0)
(0.0152301 -0.153291 0)
(0.0238956 -0.0611113 0)
(0.0117322 -0.118397 0)
(0.0205275 0.0952066 0)
(0.0197037 0.0685956 0)
(0.0216733 0.0356514 0)
(0.0222252 -0.0506649 0)
(0.0188622 -0.133852 0)
(0.0191753 -0.165873 0)
(0.0228111 -0.0305545 0)
(0.000788818 -0.00593945 0)
(0.0258194 -0.137836 0)
(0.0220205 0.0295124 0)
(0.0250748 -0.105961 0)
(0.0264915 -0.167561 0)
(0.0204645 0.0966302 0)
(0.0245467 -0.0817645 0)
(0.0230086 -0.0174968 0)
(0.0128428 -0.167617 0)
(0.00255336 -0.043734 0)
(0.0261373 -0.160729 0)
(0.00476006 -0.117087 0)
(0.013455 -0.0965933 0)
(0.0140528 -0.168653 0)
(0.0237255 -0.0456299 0)
(0.0199276 -0.0265522 0)
(0.0110221 -0.151328 0)
(0.0244503 -0.159048 0)
(0.0230203 -0.0547062 0)
(0.00306151 -0.120591 0)
(0.0241723 -0.0660693 0)
(0.0125938 -0.101657 0)
(0.0221886 0.022067 0)
(0.0258022 -0.150884 0)
(0.0109854 -0.0965823 0)
(0.0190758 -0.00494815 0)
(0.0248846 -0.105015 0)
(0.0225541 0.00470557 0)
(0.0128894 -0.0484848 0)
(0.0250774 -0.107388 0)
(0.0261608 -0.15967 0)
(0.0134104 0.00681385 0)
(0.0246975 -0.0885226 0)
(0.0231927 -0.0252364 0)
(0.0222897 0.00995467 0)
(0.0149203 -0.15351 0)
(0.0205084 0.0943387 0)
(0.0227032 -0.000503562 0)
(0.0136388 0.00610721 0)
(0.0238353 -0.0544553 0)
(0.0161206 -0.113271 0)
(0.0128143 -0.10225 0)
(0.0200743 0.111797 0)
(0.0229835 -0.0129465 0)
(0.0226258 -0.0519234 0)
(0.0191784 0.0800735 0)
(0.00429258 -0.118079 0)
(0.0200166 0.0727221 0)
(0.0222536 0.0192062 0)
(0.0240923 -0.0617986 0)
(0.0149548 -0.00590909 0)
(0.0248459 -0.0949342 0)
(0.0136663 -0.0997412 0)
(0.0163371 -0.112659 0)
(0.0225293 -0.0280753 0)
(0.018549 0.0553971 0)
(0.0105315 7.69266e-06 0)
(0.0184279 -0.135261 0)
(0.0246369 -0.0858594 0)
(0.0250518 -0.117109 0)
(0.024669 -0.0872474 0)
(0.0198035 -0.0278522 0)
(0.00720076 -0.118157 0)
(0.0214771 0.053365 0)
(0.00337894 -0.0553796 0)
(0.0243572 -0.0852652 0)
(0.0197553 0.0245027 0)
(0.0197115 0.0477993 0)
(0.0218902 -0.0306881 0)
(0.0206723 0.0884388 0)
(0.022962 -0.0119142 0)
(0.0211877 -0.0521501 0)
(0.0254619 -0.122063 0)
(0.0181341 0.0181499 0)
(0.0231511 -0.0443974 0)
(0.0205932 0.0921953 0)
(0.0213143 0.0606977 0)
(0.0154014 -0.120204 0)
(0.0115839 -0.119362 0)
(0.0160195 -0.175132 0)
(0.0246121 -0.0847413 0)
(0.0203084 0.0964352 0)
(0.0199259 0.0742226 0)
(0.026319 -0.169097 0)
(0.0184975 0.0579368 0)
(0.0207282 0.0162689 0)
(0.0260888 -0.151028 0)
(0.0242585 -0.0698529 0)
(0.0250444 -0.161925 0)
(0.0221574 0.0234548 0)
(0.0213731 0.0517991 0)
(0.0202782 0.105888 0)
(0.018579 -0.0870591 0)
(0.0206559 0.0853567 0)
(0.0232828 -0.0275595 0)
(0.00650897 -0.0803546 0)
(0.0240193 -0.0584598 0)
(0.0236946 -0.0445876 0)
(0.0210692 -0.144635 0)
(0.0213825 0.0191685 0)
(0.0135793 -0.125906 0)
(0.0257108 -0.180587 0)
(0.0245134 -0.134664 0)
(0.0261177 -0.154452 0)
(0.0141758 -0.113493 0)
(0.000707361 -0.00559145 0)
(0.00939247 -0.167333 0)
(0.0230279 -0.0571428 0)
(0.0061724 -0.0613498 0)
(0.0237448 -0.0464674 0)
(0.000855299 -0.006731 0)
(0.0213989 0.050322 0)
(0.0144175 -0.155137 0)
(0.0193879 0.0985187 0)
(0.0107421 -0.13338 0)
(0.00312632 -0.122458 0)
(0.023489 -0.138115 0)
(0.0248181 -0.0937138 0)
(0.0226559 -0.0363263 0)
(0.023898 -0.053199 0)
(0.0225086 -0.0857 0)
(0.00970402 -0.0510293 0)
(0.0145457 -0.0304338 0)
(0.022923 -0.035962 0)
(0.0194232 -0.0650713 0)
(0.0237126 -0.059493 0)
(0.0202995 -0.0304039 0)
(0.0146655 -0.171542 0)
(0.0206004 0.0872675 0)
(0.00320232 -0.0562257 0)
(0.0199878 0.119133 0)
(0.00151686 -0.0165675 0)
(0.0194931 0.105087 0)
(0.0254949 -0.123527 0)
(0.0210336 0.0728487 0)
(0.00638333 -0.170506 0)
(0.0261194 -0.15559 0)
(0.0243223 -0.160185 0)
(0.0253572 -0.136239 0)
(0.0236629 -0.0431534 0)
(0.015605 -0.00888378 0)
(0.0241945 -0.066945 0)
(0.0170778 -0.164682 0)
(0.0219393 -0.0409616 0)
(0.0264644 -0.166456 0)
(0.0239232 -0.0563889 0)
(0.0135677 -0.0252143 0)
(0.0237195 -0.0609918 0)
(0.017055 -0.0150951 0)
(0.0202748 0.106152 0)
(0.0239643 -0.0560498 0)
(0.01705 -0.109205 0)
(0.0131091 -0.178423 0)
(0.0225306 0.00667727 0)
(0.00116929 -0.0161362 0)
(0.0015853 -0.0217488 0)
(0.0195613 0.0923787 0)
(0.0200126 0.118041 0)
(0.0205507 0.0920496 0)
(0.00666472 -0.146012 0)
(0.0230477 -0.0234251 0)
(0.0193853 -0.0302718 0)
(0.0034795 -0.125384 0)
(0.0205153 0.0909212 0)
(0.0230148 -0.0215001 0)
(0.0250107 -0.122037 0)
(0.00953459 -0.00145869 0)
(0.0206328 0.0743003 0)
(0.0201106 -0.170874 0)
(0.0194025 0.0902473 0)
(0.00665202 -0.155365 0)
(0.0172844 -0.138367 0)
(0.0244305 -0.135879 0)
(0.00964273 -0.16675 0)
(0.020531 0.0796311 0)
(0.0219608 -0.00135601 0)
(0.0221006 -0.00709329 0)
(0.024864 -0.162215 0)
(0.0262111 -0.170723 0)
(0.0232794 -0.0290348 0)
(0.0214875 0.0525131 0)
(0.0250411 -0.106015 0)
(0.0204156 0.0860059 0)
(0.0217401 0.0419459 0)
(0.0220679 -0.155637 0)
(0.0201115 0.110631 0)
(0.0222484 0.0121555 0)
(0.016127 -0.0609659 0)
(0.0206871 0.0152128 0)
(0.02328 -0.0295253 0)
(0.0211922 -0.122178 0)
(0.0105765 -0.093629 0)
(0.0104623 -0.0899711 0)
(0.0196604 0.100767 0)
(0.0206242 0.0911388 0)
(0.0193092 0.039091 0)
(0.0229104 -0.00969171 0)
(0.00987708 -0.0531471 0)
(0.0205898 0.0906297 0)
(0.0245824 -0.169449 0)
(0.0235039 -0.0358099 0)
(0.0237819 -0.0642775 0)
(0.0214464 -0.074815 0)
(0.020199 -0.0353588 0)
(0.0235276 -0.0368576 0)
(0.0249798 -0.11989 0)
(0.0219355 -0.154673 0)
(0.0213348 0.056433 0)
(0.0188168 -0.0808105 0)
(0.0260563 -0.157122 0)
(0.0196067 0.10293 0)
(0.0214675 0.0475354 0)
(0.0223728 -0.064881 0)
(0.0250072 -0.108851 0)
(0.00795262 -0.130298 0)
(0.0017206 -0.0191703 0)
(0.00643753 -0.160941 0)
(0.00375818 -0.126868 0)
(0.0206583 0.089371 0)
(0.00112284 -0.00767073 0)
(0.0204767 0.0920561 0)
(0.0215024 0.0522816 0)
(0.0238322 -0.065754 0)
(0.0240306 -0.0590799 0)
(0.0231684 -0.0210108 0)
(0.021504 0.0464719 0)
(0.0253746 -0.134765 0)
(0.00721774 -0.170262 0)
(0.0012767 -0.061369 0)
(0.00710654 -0.137 0)
(0.0102193 -0.0256713 0)
(0.0143881 -0.0316012 0)
(0.00082023 -0.00639755 0)
(0.0230471 -0.0386902 0)
(0.0237122 -0.0527842 0)
(0.0204228 -0.171302 0)
(0.0227527 -0.00404983 0)
(0.0183181 -0.127168 0)
(0.0214196 0.0560055 0)
(0.00018389 -0.00446939 0)
(0.0260785 -0.149511 0)
(0.0232978 -0.102744 0)
(0.000377133 -0.00943029 0)
(0.00199365 -0.0821522 0)
(0.0210996 0.069963 0)
(0.0214015 -0.0648194 0)
(0.021095 0.0688602 0)
(0.0236248 -0.0415134 0)
(0.0212295 0.0217138 0)
(0.0220899 0.00585984 0)
(0.0130998 0.0109612 0)
(0.0221255 0.024816 0)
(0.01668 -0.151611 0)
(0.0200549 -0.0291475 0)
(0.0205707 0.0887651 0)
(0.00154078 -0.0612307 0)
(0.0116808 -0.150179 0)
(0.0156934 -0.0286975 0)
(0.0199166 0.0632109 0)
(0.0208152 0.0826724 0)
(0.0221685 -0.0850576 0)
(0.0223163 -0.0586729 0)
(0.0250778 -0.114759 0)
(0.0241166 -0.0628528 0)
(0.0100091 -0.170228 0)
(0.0182904 -0.154333 0)
(0.0204557 0.0981583 0)
(0.00987665 -0.0246576 0)
(0.0204163 0.0999167 0)
(0.00153735 -0.0128371 0)
(0.0195234 -0.0259661 0)
(0.0241662 -0.0669077 0)
(0.0209519 0.0547354 0)
(0.0214781 0.0436619 0)
(0.0243232 -0.0964838 0)
(0.022638 -0.0337875 0)
(0.00129543 -0.039534 0)
(0.00018948 -0.00413867 0)
(0.0231945 -0.0445018 0)
(0.0187118 -0.0853859 0)
(0.00110996 -0.0345783 0)
(0.0189905 0.0501688 0)
(0.0252536 -0.12524 0)
(0.00586516 -0.0420837 0)
(0.0253763 -0.139952 0)
(0.0260416 -0.158745 0)
(0.0209356 0.0754601 0)
(0.0242725 -0.0943264 0)
(0.025645 -0.130576 0)
(0.0118976 -0.173869 0)
(0.00148947 -0.0639314 0)
(0.0246044 -0.0997893 0)
(0.00990964 -0.055881 0)
(0.0211463 -0.0412399 0)
(0.0214637 0.0534759 0)
(0.0200745 0.114776 0)
(0.0242293 -0.0684703 0)
(0.0204582 0.0979296 0)
(0.0174349 -0.105846 0)
(0.0169538 -0.107852 0)
(0.0231972 -0.167657 0)
(0.0168065 -0.139401 0)
(0.0143276 -0.0696576 0)
(0.0264009 -0.168151 0)
(0.0217614 0.0358192 0)
(0.0210585 0.071947 0)
(0.0194547 0.107034 0)
(0.0210109 0.0535829 0)
(0.0043361 -0.129854 0)
(0.0125783 -0.0514754 0)
(0.0257943 -0.143443 0)
(0.0222209 0.00709343 0)
(0.0196732 -0.0252636 0)
(0.000588986 -0.0262222 0)
(0.0213727 0.0479735 0)
(0.0240923 -0.0697383 0)
(0.022942 -0.0110895 0)
(0.00769184 -0.147246 0)
(0.00354547 -0.0315842 0)
(0.0208381 0.0816597 0)
(0.00634331 -0.154771 0)
(0.0220161 -0.0375598 0)
(0.00880979 -0.0453134 0)
(0.0236634 -0.042901 0)
(0.0011563 -0.00560083 0)
(0.0254363 -0.120946 0)
(0.00440779 -0.101915 0)
(0.0250145 -0.128305 0)
(0.0217958 -0.00951056 0)
(0.0229032 -0.169454 0)
(0.0223983 -0.0623001 0)
(0.010546 -0.128854 0)
(0.0204673 -0.0486224 0)
(0.00446576 -0.0332544 0)
(0.0203765 0.095777 0)
(0.00820302 -0.154108 0)
(0.0201525 0.11184 0)
(0.0190032 -0.0772052 0)
(0.0219138 0.0331993 0)
(0.0218731 0.0359855 0)
(0.0223166 -0.0706573 0)
(0.0035201 -0.0247099 0)
(0.0262534 -0.157122 0)
(0.0205433 0.0933546 0)
(0.0212987 -0.051373 0)
(0.0208553 0.0580756 0)
(0.00681632 -0.136657 0)
(0.0203113 0.104893 0)
(0.0163244 -0.0614378 0)
(0.0233225 -0.0315223 0)
(0.00674413 -0.0875589 0)
(0.00467347 -0.0344208 0)
(0.0210747 0.0695426 0)
(0.021878 -0.0277742 0)
(0.00567541 -0.0652573 0)
(0.0188081 0.0663715 0)
(0.0225669 0.005433 0)
(0.0260427 -0.179323 0)
(0.0225618 0.00534751 0)
(0.0128311 -0.0670459 0)
(0.0217135 0.0431111 0)
(0.00591304 -0.0931956 0)
(0.00557882 -0.0401258 0)
(0.00833978 -0.146877 0)
(0.00337895 0.00442419 0)
(0.00206353 -0.0312164 0)
(0.0228392 -0.00684114 0)
(0.0216324 0.0461311 0)
(0.0179619 -0.0466177 0)
(0.00107517 -0.00847997 0)
(0.0226126 -0.0486978 0)
(0.0138088 -0.0885351 0)
(0.0262453 -0.156905 0)
(0.0245956 -0.0980253 0)
(0.0217366 0.0421074 0)
(0.0239687 -0.0563597 0)
(0.0204861 -0.0514291 0)
(0.020586 0.077397 0)
(0.00677713 -0.0827384 0)
(0.0218252 -0.00604178 0)
(0.0243688 -0.169191 0)
(0.0153884 -0.00695011 0)
(0.00151849 -0.0127834 0)
(0.0256917 -0.140898 0)
(0.0239387 -0.0549375 0)
(0.0220246 0.00765119 0)
(0.0250451 -0.103697 0)
(0.0213 0.0340908 0)
(0.00309186 -0.0932151 0)
(0.0228771 -0.0615572 0)
(0.0208287 0.0599293 0)
(0.0246357 -0.085666 0)
(0.0213751 -0.0101263 0)
(0.020969 0.0732856 0)
(0.0222713 0.00572702 0)
(0.00236313 -0.0249338 0)
(0.0260444 -0.150184 0)
(0.0260325 -0.149171 0)
(0.0207651 0.084887 0)
(0.0239276 -0.0563023 0)
(0.0199909 0.114975 0)
(0.0154865 -0.152238 0)
(0.0216699 -0.178116 0)
(0.0036882 -0.14534 0)
(0.0220553 0.0261331 0)
(0.0210648 -0.120775 0)
(0.00222285 -0.0124317 0)
(0.0226662 0.000790042 0)
(0.0179571 -0.128947 0)
(0.00323808 -0.0227225 0)
(0.0155613 -0.118894 0)
(0.0177494 -0.128815 0)
(0.0236859 -0.0438771 0)
(0.0231872 -0.0254719 0)
(0.0113734 -0.0721454 0)
(0.0228802 -0.0587544 0)
(0.0218515 0.0370428 0)
(0.0190884 -0.112899 0)
(0.0250995 -0.106101 0)
(0.0107774 -0.156868 0)
(0.021247 0.0429976 0)
(0.0231092 -0.0184778 0)
(0.0058383 -0.0585805 0)
(0.0203164 0.0969255 0)
(0.0217871 -0.12452 0)
(0.0224239 -0.071113 0)
(0.0261202 -0.179794 0)
(0.0181298 -0.127036 0)
(0.0245504 -0.0879106 0)
(0.0194404 0.0913513 0)
(0.0225754 0.00503381 0)
(0.0167453 0.00569597 0)
(0.0203934 0.101262 0)
(0.0218479 -0.0443424 0)
(0.0221567 0.0235471 0)
(0.0242752 -0.0697924 0)
(0.0203914 0.101356 0)
(0.0210702 0.0277931 0)
(0.00980548 -0.131682 0)
(0.0174498 -0.108001 0)
(0.00113894 -0.0167309 0)
(0.0184722 0.0882286 0)
(0.00293595 -0.0839563 0)
(0.0222829 0.0179477 0)
(0.0206919 -0.143767 0)
(0.0140752 -0.16599 0)
(0.00958814 -0.16994 0)
(0.0154828 -0.151221 0)
(0.0126063 -0.0657641 0)
(0.0176894 0.0668836 0)
(0.0214174 -0.118281 0)
(0.0191255 -0.00821083 0)
(0.0207583 -0.132742 0)
(0.0235101 -0.0363327 0)
(0.020275 0.0995007 0)
(0.0215415 -0.0311159 0)
(0.0237598 -0.130388 0)
(0.0226958 -0.000548789 0)
(0.0114399 -0.151327 0)
(0.0250652 -0.104702 0)
(0.009562 -0.0254112 0)
(0.0214036 -0.14858 0)
(0.00788438 -0.154793 0)
(0.0156667 -0.0895131 0)
(0.0232288 -0.142466 0)
(0.00733319 -0.087054 0)
(0.0113297 -0.0704242 0)
(0.0121244 -0.17611 0)
(0.00499189 -0.134799 0)
(0.0252122 -0.123808 0)
(0.0192451 -0.0655264 0)
(0.0240709 -0.0607569 0)
(0.022715 -0.00276493 0)
(0.0225398 0.00232437 0)
(0.0238332 -0.0548693 0)
(0.0173164 -0.0427883 0)
(0.0240573 -0.0602422 0)
(0.0224192 0.00581276 0)
(0.0023001 -0.0251003 0)
(0.0213613 -0.12105 0)
(0.0108747 -0.1503 0)
(0.0250436 -0.103786 0)
(0.00988664 -0.157745 0)
(0.0147127 -0.17512 0)
(0.0224228 0.0104399 0)
(0.0261718 -0.153412 0)
(0.0245471 -0.127989 0)
(0.0176189 -0.0762503 0)
(0.0207059 0.0870486 0)
(0.0223924 0.0116243 0)
(0.0200317 0.113729 0)
(0.0216905 -0.126153 0)
(0.00988493 -0.0506052 0)
(0.0147052 -0.000880512 0)
(0.0226424 -0.0197928 0)
(0.00884165 -0.131473 0)
(0.0226775 0.000633345 0)
(0.024406 -0.087057 0)
(0.00285081 -0.0485962 0)
(0.0219676 0.0277528 0)
(0.0251611 -0.120205 0)
(0.0155152 -0.0289065 0)
(0.0234823 -0.03514 0)
(0.0254044 -0.119541 0)
(0.021703 0.0379561 0)
(0.0191372 -0.0785979 0)
(0.020636 0.0900686 0)
(0.0229731 -0.0359759 0)
(0.00725929 -0.0619625 0)
(0.0210585 0.0719487 0)
(0.0183178 -0.153173 0)
(0.015345 -0.0392909 0)
(0.0119087 -0.103786 0)
(0.0194159 0.0525223 0)
(0.0187373 0.0836556 0)
(0.021457 0.054323 0)
(0.0254672 -0.122641 0)
(0.0199091 0.0583664 0)
(0.021311 0.0607089 0)
(0.0200657 0.0399431 0)
(0.00808197 -0.124576 0)
(0.0137143 -0.178916 0)
(0.0102077 -0.0893021 0)
(0.0255553 -0.132224 0)
(0.015188 -0.00816965 0)
(0.00436662 -0.0334206 0)
(0.018032 -0.141596 0)
(0.0186611 -0.0822656 0)
(0.0216733 0.0447692 0)
(0.020336 0.103802 0)
(0.0209208 0.0720855 0)
(0.023018 -0.0143901 0)
(0.0244325 -0.0772901 0)
(0.0131293 -0.16821 0)
(0.0116459 -0.1281 0)
(0.0192037 -0.06817 0)
(0.0245928 -0.0894394 0)
(0.0149342 -0.00275374 0)
(0.00150782 -0.00269008 0)
(0.0233974 -0.103474 0)
(0.0242014 -0.0682999 0)
(0.0198193 0.115081 0)
(0.00261613 -0.000464969 0)
(0.0229988 -0.126977 0)
(0.0223489 -0.0565591 0)
(0.0224989 0.000885804 0)
(0.0254059 -0.119592 0)
(0.0133261 0.00992267 0)
(0.0102218 0.00193783 0)
(0.0182201 0.0197954 0)
(0.0246798 -0.0902493 0)
(0.0188252 0.0526437 0)
(0.0223186 0.0163488 0)
(0.0170546 -0.139737 0)
(0.0032636 -0.0292675 0)
(0.0154092 -0.0370963 0)
(0.0122646 -0.102848 0)
(0.0193597 -0.133213 0)
(0.0215985 0.042292 0)
(0.0202453 0.107234 0)
(0.0211214 0.0690386 0)
(0.00768324 -0.170632 0)
(0.00715606 -0.0874003 0)
(0.0260121 -0.155636 0)
(0.0174887 -0.00965712 0)
(0.0233136 -0.028575 0)
(0.022705 -0.000590496 0)
(0.0137259 -0.169341 0)
(0.0248721 -0.096091 0)
(0.0206239 0.0909022 0)
(0.0256413 -0.130278 0)
(0.0197153 0.0775996 0)
(0.0212597 -0.00702576 0)
(0.0217202 0.0428074 0)
(0.021636 -0.0309742 0)
(0.019759 -0.162223 0)
(0.0234274 -0.167164 0)
(0.0254012 -0.138388 0)
(0.0185146 -0.0917983 0)
(0.0262295 -0.178684 0)
(0.00801751 -0.126075 0)
(0.0213171 0.0598022 0)
(0.0246508 -0.0886926 0)
(0.00961662 -0.0271204 0)
(0.0147539 -0.154784 0)
(0.02338 -0.142046 0)
(0.0248629 -0.103171 0)
(0.0215923 -0.0158036 0)
(0.00315591 -0.026653 0)
(0.0198883 0.0227092 0)
(0.00695656 -0.159452 0)
(0.0194276 0.018171 0)
(0.0256449 -0.177437 0)
(0.00289956 -0.0667255 0)
(0.0205785 0.0919926 0)
(0.0207589 0.0851635 0)
(0.00824091 -0.127448 0)
(0.0211863 -0.00765256 0)
(0.018842 0.0806666 0)
(0.00641658 -0.0778507 0)
(0.0200486 0.115984 0)
(0.020623 0.0912026 0)
(0.0239961 -0.0575485 0)
(0.0201902 0.110158 0)
(0.00774689 -0.0840262 0)
(0.0198889 -0.126405 0)
(0.0213452 -0.108031 0)
(0.00934279 -0.146701 0)
(0.0207744 0.0780841 0)
(0.0215452 -0.0120258 0)
(0.000686148 -0.0251929 0)
(0.0206584 0.0558749 0)
(0.00940732 -0.166131 0)
(0.0218649 0.0355467 0)
(0.0217561 -0.00633329 0)
(0.0218698 0.0362369 0)
(0.00648684 -0.159019 0)
(0.0189787 -0.118303 0)
(0.0151892 -0.175948 0)
(0.0224899 -0.00444246 0)
(0.0227545 -0.0226853 0)
(0.0107016 -0.118605 0)
(0.0205706 0.0935054 0)
(0.0223593 0.014623 0)
(0.0264538 -0.170886 0)
(0.0245615 -0.0824247 0)
(0.0213493 0.0584803 0)
(0.0212829 0.061964 0)
(0.0221267 0.0248714 0)
(0.0102423 -0.118216 0)
(0.00725122 -0.116585 0)
(0.0167438 -0.0306675 0)
(0.0203611 0.0941279 0)
(0.0194135 0.0751132 0)
(0.0228565 -0.0275514 0)
(0.0256651 -0.131044 0)
(0.0166209 0.0043834 0)
(0.00639124 -0.0151444 0)
(0.00459325 -0.11887 0)
(0.0197822 0.113197 0)
(0.010278 -0.0188504 0)
(0.0204778 -0.00903992 0)
(0.0180202 -0.139213 0)
(0.020692 0.0864691 0)
(0.0128258 -0.152067 0)
(0.00981878 -0.0565437 0)
(0.00571092 -0.0881121 0)
(0.013374 -0.115474 0)
(0.0011515 -0.00914777 0)
(0.0179241 -0.167674 0)
(0.0208225 0.075903 0)
(0.0198659 -0.161195 0)
(0.0223853 0.0129569 0)
(0.00687438 -0.110958 0)
(0.0124836 -0.10338 0)
(0.0222193 0.0207297 0)
(0.0218801 0.0356432 0)
(0.0206769 0.0887995 0)
(0.020711 0.0851383 0)
(0.0181235 -0.174008 0)
(0.0205091 0.093943 0)
(0.00939978 -0.047228 0)
(0.0236975 -0.156811 0)
(0.0188864 -0.120164 0)
(0.00445848 -0.0997467 0)
(0.0183668 0.0288559 0)
(0.025382 -0.118562 0)
(0.0190945 -0.0281582 0)
(0.0224476 -0.00202366 0)
(0.0255771 -0.132271 0)
(0.0173827 -0.016789 0)
(0.0154978 -0.0884414 0)
(0.0106143 -0.166302 0)
(0.0215644 0.044046 0)
(0.00088318 -0.00917857 0)
(0.0206588 0.0878623 0)
(0.0165868 -0.0285111 0)
(0.0203521 0.0936109 0)
(0.00222974 -0.084051 0)
(0.0179401 -0.0500726 0)
(0.0212935 -0.0476641 0)
(0.0225122 -0.174905 0)
(0.00812634 -0.141377 0)
(0.0211495 0.0647085 0)
(0.0252652 -0.113499 0)
(0.0197617 0.112658 0)
(0.0219922 0.0306598 0)
(0.0074527 -0.130746 0)
(0.0246638 -0.0869077 0)
(0.0220528 0.02598 0)
(0.00660469 -0.102738 0)
(0.0247287 -0.0922721 0)
(0.00897704 -0.146432 0)
(0.0107915 -0.17563 0)
(0.00824739 -0.1455 0)
(0.0154728 0.0279381 0)
(0.00743031 -0.0539985 0)