/*--------------------------------*- C++ -*----------------------------------*\
| =========                 |                                                 |
| \\      /  F ield         | OpenFOAM: The Open Source CFD Toolbox           |
|  \\    /   O peration     | Version:  v2012                                 |
|   \\  /    A nd           | Website:  www.openfoam.com                      |
|    \\/     M anipulation  |                                                 |
\*---------------------------------------------------------------------------*/
FoamFile
{
    version     2.0;
    format      ascii;
    class       surfaceScalarField;
    location    "750";
    object      phi;
}
// * * * * * * * * * * * * * * * * * * * * * * * * * * * * * * * * * * * * * //

dimensions      [0 3 -1 0 0 0 0];
oriented        oriented;


internalField   nonuniform List<scalar> 
20642
(
-0.00933089
0.0124335
-0.00310269
0.287336
-0.0583024
-0.229033
-0.116415
0.0929982
0.023417
-0.360326
0.146831
0.213497
0.365695
0.0433085
-0.409002
-0.0451194
0.332456
-0.229512
0.0178883
0.211625
-0.0152229
0.227478
-0.212255
-0.257999
0.232776
0.0252239
0.00192519
0.00105056
-0.244422
0.2292
0.227395
0.140078
-0.367471
0.605505
-0.6055
0.257359
-0.0110786
-0.24628
0.2897
0.045683
-0.335381
-0.0115389
0.00220796
0.57895
-0.583979
0.00503259
0.0638184
-0.270376
0.206558
-0.0437437
-0.0756206
0.119365
-0.00076065
0.0140925
-0.0133318
-0.0925947
-0.182514
0.27511
0.628703
-0.376883
-0.251818
0.203994
-0.154168
-0.0498254
0.34767
0.281036
-0.0602986
-0.18544
0.24574
0.0767989
-0.264265
0.187467
0.0357239
-0.20238
0.166657
0.00192744
0.105034
-0.284014
0.178981
-0.691621
0.393758
0.297863
0.000896038
0.00103063
0.0138986
-0.108578
0.0946798
0.05039
0.254828
-0.305216
0.00106044
0.0149116
-0.0159719
-0.65083
0.46924
0.181593
0.362534
-0.135056
0.25976
-0.363822
0.104064
0.620761
-0.100227
-0.520526
-0.0186617
-0.210849
0.222145
0.00762938
-0.229773
-0.768648
0.601934
0.166716
0.398927
0.133091
-0.532017
-0.140777
0.260939
-0.120161
0.127203
-0.117926
-0.00927575
0.00621278
0.12099
0.180488
-0.0900294
-0.0904588
0.215412
-0.308005
0.000990056
-0.0202627
0.0192725
0.362087
-0.27796
-0.0841269
-0.40584
-0.244988
0.351846
-0.124449
-0.157803
0.0603875
0.0974157
0.0033546
-0.000594403
-0.00278009
-0.306914
-0.097961
0.404877
0.0206843
0.357991
-0.378673
-0.0938551
-0.0639475
0.000898474
0.176521
0.0274735
-0.14831
0.547238
0.0707288
0.10976
-0.0289375
0.0578052
-0.0288677
0.543883
-0.491054
-0.0528279
0.476604
-0.620545
0.143941
-0.270044
0.209747
-0.0603211
0.0517658
0.00855547
0.113565
0.465551
-0.579116
-0.282398
0.0926964
0.189702
0.159862
0.202672
-0.180603
-0.00166395
0.0078356
-0.00617165
-0.0961639
0.0583114
0.0378528
0.0109126
-0.00985216
-0.262852
-0.14657
0.409425
0.378495
-0.526803
0.0872294
-0.269743
-0.0644749
-0.178008
0.242485
0.412338
-0.0969295
-0.315407
-0.157294
0.535791
-0.266991
0.202518
0.242661
-0.19227
-0.371585
0.442749
-0.0711624
-0.599624
0.572333
0.0272948
-0.429232
0.166382
0.020508
0.0505314
-0.0710393
-0.234072
-0.301881
0.53596
-0.0156872
-0.204998
0.220686
-0.105436
0.119335
-0.643557
0.610423
0.0331426
-0.038359
0.260505
0.478112
0.10084
-0.574502
0.402071
0.172434
0.121895
0.273481
0.0886069
-0.606248
0.206506
0.399745
-0.414378
0.280581
0.133799
-0.177363
-0.00107564
-0.186476
0.187552
0.5844
-0.584348
-4.62975e-05
-0.138286
-0.505266
-0.147045
-0.10062
0.247665
0.527896
-0.533049
0.005154
0.544221
-0.0163242
0.00905819
-0.380641
0.51522
-0.587749
0.0725345
-0.0151688
0.427509
-0.0636085
0.0554455
0.0081631
0.0233241
-0.0317455
0.00842139
0.405436
0.138448
0.525742
-0.392649
0.17897
-0.143246
0.538813
0.0722476
-0.00428996
0.0192016
-0.117597
-0.166416
-0.0457101
-0.0146108
0.390167
-0.176281
-0.213885
0.0962152
-0.139958
0.416711
0.15993
-0.576639
0.117461
-0.0888897
-0.0285707
-0.476681
0.281098
0.195583
-0.0936752
-0.505944
0.163931
-0.564094
0.400165
0.266217
-0.17352
-0.128403
0.145914
-0.0175114
-0.00360865
-0.0013657
0.00497439
0.0433994
-0.0228912
0.0836758
-0.276687
0.193013
0.2605
-0.17327
-0.414995
0.5486
-0.133601
-0.105279
-0.0231232
-0.0655558
0.167956
-0.102399
0.19007
-0.0683499
-0.12172
-0.00944224
-0.0140995
0.0235418
0.177087
0.213081
-0.0820178
0.133238
-0.0512194
0.0316232
0.147347
0.0201704
-0.0616214
0.041451
0.00150524
-0.000451607
-0.0010536
0.0628898
-0.250239
0.18735
0.62077
0.268304
0.0369304
-0.305234
-0.546308
0.389016
-0.0443557
-0.0192526
-0.539515
0.251645
0.287874
-0.155223
-0.237212
0.392437
-0.375048
0.564783
-0.189733
-0.0556371
-0.0405266
-0.109303
0.0230698
-0.0166793
-0.00639061
-0.462091
0.15518
-0.188759
-0.0403588
0.229119
0.571582
-0.699018
0.127437
0.252281
-0.407502
-0.158479
0.157403
-0.14157
-0.324636
0.466208
0.537424
-0.0221991
0.0117014
-0.0192692
0.00756778
-0.610332
0.602973
0.00736131
0.56494
-0.148227
-0.179869
-0.327964
0.507838
0.066343
-0.0531076
-0.0132353
0.07372
-0.311168
0.237449
0.335149
0.0507928
-0.0329549
-0.017838
0.0343983
-0.202417
0.168019
0.00333755
-0.0214886
-0.0122804
0.0337689
-0.378464
-0.231445
0.60991
0.245065
-0.182174
0.0519174
0.311953
-0.363868
0.028006
-0.0283557
0.000349759
-0.0747241
-0.0470062
-0.022592
0.0695982
0.19241
-0.109643
-0.0827672
0.599434
-0.106657
-0.492775
-0.145674
-0.21465
-0.158459
0.0336027
0.124856
-0.205714
0.14016
-0.223738
0.29746
-0.170676
-0.0893412
0.260018
0.39959
0.248763
0.103085
0.150642
-0.0802674
-0.0703741
0.10279
0.0146716
0.154612
0.035459
-0.109307
0.358072
0.0593384
0.0913035
-0.402218
-0.289403
0.214008
-0.229695
0.130415
0.0619957
0.126512
-0.120299
0.0251576
-0.121893
0.096736
-0.011594
-8.40075e-05
0.0116781
-0.257726
-0.34852
0.0060256
-0.00171372
-0.00431186
-0.278751
0.117256
0.161497
0.0183994
-0.0278416
0.499585
-0.0303416
0.347561
-0.489129
0.285587
-0.231468
-0.0541179
0.00734886
-0.00741882
6.9962e-05
0.00113061
0.000374642
-0.0931564
-0.227097
0.320255
0.198196
-0.0427948
-0.155401
-0.257128
0.302514
-0.0453853
-0.227117
-0.382375
-0.0980709
0.302118
0.140634
-0.420334
-0.12076
0.541098
-0.0376707
0.331093
-0.293422
0.280402
-0.318072
0.00280696
0.0454708
-0.127488
-0.173439
-0.0418078
0.0437593
-0.0019514
0.636518
-0.252665
-0.383844
0.71288
-0.406757
-0.30612
0.337583
0.375298
-0.0306355
-0.00290813
-0.113526
0.116435
-0.147283
0.0545513
0.0927323
0.37402
0.182833
-0.556849
0.562688
-0.0860837
-0.134497
0.16612
0.00543121
0.124885
0.317222
-0.442105
-0.368117
0.493004
-0.312735
-0.455912
0.716849
-0.379264
0.305702
0.411149
-0.00390362
0.0148163
-0.0246268
0.0278676
-0.00324082
0.093157
0.29372
-0.386875
0.489059
0.0833979
-0.572456
-0.106808
0.155464
-0.0486552
-0.0115967
0.00200272
0.00959401
0.0125143
-0.509453
0.496941
0.533328
-0.159304
0.173179
0.0250165
0.0575549
-0.0403432
-0.0172116
-0.0831753
-0.0390452
-0.00276252
-0.156963
0.123081
0.0338826
-0.344366
-0.195146
-0.0425054
0.0302248
-0.165604
0.058796
-0.252077
0.13448
-0.00366687
0.126994
-0.123326
0.226261
-0.319416
-0.0218199
-0.478813
0.224859
0.253955
0.0461401
0.104753
-0.150892
-0.0316764
-0.142065
0.173742
-0.00731801
-0.341003
0.348324
0.601936
-0.186366
-0.320218
-0.120702
0.440921
0.366195
-0.549899
0.183706
-0.00238254
0.00716024
-0.00477768
0.091063
-0.23104
0.139977
0.169968
-0.558724
0.388758
-0.657141
0.289027
-0.460961
0.136326
-0.277223
-0.379916
-0.197714
0.063065
0.542445
-0.0307308
-0.158692
0.189423
0.573243
-0.403273
0.00106291
0.000338859
0.0297456
-0.00642147
0.0856745
-0.409008
0.323337
0.303092
0.126347
-0.429438
-0.17037
0.120799
0.0495712
-0.729272
0.298714
0.430559
0.263437
-0.0912504
-0.172186
0.00624273
-0.00862523
-0.33724
-0.39203
0.0071716
-0.00883556
0.56413
-0.197933
-0.00349653
0.0698396
0.602063
-0.0026281
-0.296002
0.385962
-0.0899585
0.285305
-0.292621
-0.325649
0.518509
-0.192856
0.119354
-0.0183299
-0.101023
0.545568
-0.585155
0.0395936
0.190647
-0.156249
-0.281909
0.100755
0.181155
-0.527458
0.152411
-0.202521
0.205633
-0.00311238
0.000249931
-0.43493
0.447447
0.156285
-0.00750209
-0.148782
-0.329236
0.45736
-0.128122
-0.358439
0.163737
0.194703
0.48658
-0.120884
-0.0840658
-0.182923
-0.58697
0.211456
0.375516
0.0496119
0.495963
0.150129
0.0077377
-0.157867
-0.514879
0.18979
0.325091
-0.139145
0.185286
-0.253411
0.169346
-0.366963
-0.17139
0.538357
0.0212204
-0.00951895
0.00841421
-0.00106535
-0.416325
0.549673
-0.133345
-0.64134
0.180544
0.460797
-0.181351
-0.307743
0.433387
-0.125643
0.093543
0.0236725
-0.117215
0.00984519
-0.0291871
0.019342
-0.0630014
0.0159952
0.516426
-0.597749
0.0813231
-0.204595
0.136245
-0.124504
0.427598
-0.0196575
0.0701892
0.145727
-0.453469
-0.0682948
-0.0481199
-0.208112
-0.397384
-0.0583917
0.348093
-0.0292008
0.511774
-0.167475
-0.344297
-0.249233
0.190931
0.00599195
0.12052
-0.484267
0.565083
-0.0808124
0.00445177
0.0235543
-0.363509
-0.252503
0.616019
0.138556
0.0345231
-0.63661
0.447488
0.189123
0.00893572
-0.0096963
-0.39219
0.555572
-0.163378
0.00711595
0.151178
-0.158293
-0.0132251
-0.243902
0.663224
-0.146798
0.186008
-0.670272
0.136675
-0.113867
-0.022808
-0.0410509
-0.0168017
0.0578526
-0.490592
0.201346
0.289249
0.18976
0.322016
-0.0202903
0.0160004
-0.0337444
0.0552742
-0.0215298
0.109798
-0.0644152
-0.0453826
-0.0166558
0.274015
-0.693164
0.355925
0.106983
0.292313
-0.399294
0.0540852
-0.0383509
-0.0157342
-0.111397
-0.0931976
-0.325517
-0.367645
0.157346
-0.195137
-0.187949
0.383088
-0.0250905
0.22145
-0.196358
-0.132029
0.0353705
-0.13846
0.10309
0.0178656
0.146811
-0.164676
0.053249
0.210189
-0.158795
0.164726
-0.00593034
0.0138978
0.00199902
-0.0158967
0.107761
-0.522754
-0.271779
-0.218811
0.309622
-0.266313
0.119162
-0.101244
-0.0179177
0.60983
-0.0553293
-0.554499
0.000839515
-0.152168
-0.00662598
-0.354904
0.0164837
0.298183
-0.277497
0.171737
-0.0178582
-0.153878
-0.46261
-0.178729
-0.348409
0.260483
0.0879266
0.524969
-0.390053
-0.134914
-0.0879448
-0.0996411
0.270351
-0.283576
0.370642
-0.284965
-0.0944252
0.0735952
0.0208302
-0.429775
0.616393
-0.186617
0.0353379
0.0154548
-0.0883685
0.125432
0.399538
-0.0749281
-0.484683
0.220975
0.26371
0.277893
0.239016
-0.516909
0.135069
-0.547482
0.412415
0.0164594
-0.00236687
-0.157198
0.435092
-0.0124539
0.234585
-0.22213
0.0153462
-0.149843
0.241435
-0.234539
-0.00689576
0.110052
-0.346313
0.236263
-0.0758702
0.0266643
0.0492058
0.0257179
0.0754026
0.232889
0.0623338
-0.295222
0.0235207
0.0958333
-0.299938
-0.0947852
0.394726
0.19852
0.0429153
-0.0146166
0.107615
-0.501789
-0.203515
0.0190107
0.184505
-0.10032
-0.15309
-0.12254
-0.44152
0.564064
0.119631
0.336924
-0.45655
0.224366
-0.582064
0.357702
-0.0459934
-0.156424
0.452544
-0.120797
-0.331745
-0.566583
0.424608
0.141977
0.355666
-0.479695
0.124032
-0.131783
-0.0410821
0.172866
-0.3225
0.132239
0.190262
-0.744834
0.316167
0.428668
-0.680662
0.302197
0.113775
-0.0202314
-0.0130115
0.184749
-0.491343
0.165698
-0.278483
0.266031
0.0823277
-0.0803272
-0.00200045
-0.19199
0.217989
-0.0259983
-0.419373
0.532938
0.0533688
-0.128989
0.0524543
-0.0721116
0.263228
-0.503197
0.239971
0.3247
-0.692314
0.367616
-0.0810023
-0.20114
0.282143
-0.346512
0.466149
-0.420132
-0.247845
-0.357238
-0.335075
0.503554
-0.240324
-0.0360858
0.0262671
0.00981861
0.0946399
-0.394576
-0.0431856
0.212261
-0.169075
-0.00183951
0.00217838
-0.0278724
0.184158
-0.545169
0.124839
0.403984
-0.151701
-0.0217522
-0.054118
0.206041
0.0795466
-0.00427104
0.000662375
-0.694877
0.257727
0.437151
0.534412
-0.208947
-0.325463
-0.585039
0.155265
0.649086
-0.343382
0.327836
-0.0680747
-0.484122
0.201386
0.282738
-0.0190319
0.10136
-0.420721
0.539131
-0.118409
0.0131993
0.190312
0.344103
-0.00387124
-0.139126
0.142998
-0.394088
0.563595
-0.169506
-0.102708
0.404828
-0.117383
-0.0395794
0.0701949
0.0396029
0.166859
-0.361994
-0.16913
0.142898
0.0262326
0.340851
0.211281
-0.552129
-0.631251
0.201207
0.430051
0.477913
-0.122244
-0.288354
-0.196327
0.420797
-0.550066
0.129273
0.442284
-0.624942
0.182666
0.00712087
-0.0515296
0.56731
-0.146508
-0.16837
-0.03415
-0.027848
-0.0839056
0.111754
0.367127
0.211868
-0.578992
0.14813
0.0368135
-0.184942
0.132648
-0.00212784
0.0442703
-0.00262777
-0.0416426
-0.225266
0.196146
0.0291211
0.0217012
-0.21886
-0.221952
0.440813
-0.465602
0.246743
-0.263145
-0.132198
0.148617
-0.542704
0.336315
0.0194553
0.0804918
-0.099947
-0.410611
-0.163889
0.298353
-0.396312
-0.21303
0.219309
-0.182148
-0.03716
-0.0924983
0.256043
-0.163544
-0.0903944
-0.0172379
0.107633
0.141094
-0.0279935
-0.1131
0.0890387
0.351717
-0.440755
0.430126
-0.303777
-0.0693588
-0.201016
0.00321374
-0.174985
0.171772
0.105599
0.346946
-0.179312
0.168233
0.0729631
-0.162208
0.0892457
-0.103093
-0.178814
0.0164464
-0.0546159
0.0381695
-0.486569
0.146718
-0.143504
0.137809
-0.104206
0.136169
0.330173
-0.466336
-0.0144298
0.0106752
0.00375457
-0.272667
-0.358578
0.387241
0.261847
0.0393746
-0.171157
-0.297526
-0.39735
0.506463
0.130063
0.167329
-0.0171996
0.00709661
0.00866653
-0.114812
-0.0220044
0.136816
0.304855
-0.484719
0.288675
-0.0857141
-0.20296
0.11997
0.36101
-0.480979
0.122478
-0.0929744
-0.0295036
-0.114547
0.134721
-0.0201743
0.252746
-0.403784
0.15104
-0.104097
0.157086
0.324154
-0.481235
0.0109516
0.147951
-0.158902
0.443381
-0.345912
-0.0974688
-0.540192
0.400409
0.139786
0.0777747
0.532059
0.464139
-0.116575
0.368685
-0.491222
0.462266
-0.429185
-0.0330802
-0.207422
0.169503
0.0379197
0.588082
0.0252024
0.115892
-0.345708
0.481882
0.384642
0.0382165
-0.422855
0.159949
-0.260268
0.002537
0.0203759
-0.0229128
-0.498666
-0.0188642
0.517533
0.276931
-0.19954
-0.0773897
-0.170011
-0.379885
0.157607
-0.161478
0.0589023
-0.187637
0.128735
-0.169383
-0.0877169
0.2571
-0.141319
-0.193038
-0.174793
-0.165167
0.339962
0.196859
-0.0104206
0.0288201
-0.0231183
-0.0129675
0.00175835
-0.00359785
-0.42718
0.559865
-0.132681
-0.35465
0.479334
-0.124681
-0.342253
0.431293
0.42132
-0.13849
-0.282827
0.0597809
-0.0196012
-0.0401796
0.637318
-0.338602
-0.27677
0.372758
-0.095988
-0.0739554
-0.204795
0.00838481
-0.0395336
0.0311489
-0.19187
0.090264
0.00229864
8.37177e-05
-0.00238246
0.420055
0.147259
0.155525
-0.0934691
-0.0620558
0.518147
0.0662579
0.14678
-0.572495
0.425716
-0.0169236
0.0253085
-0.728566
0.431041
-0.0696821
-0.0188414
0.0885236
0.622118
-0.567155
-0.0549624
0.50144
-0.134309
0.123265
0.0235086
-0.113903
0.00626741
0.456
0.420308
-0.504788
0.0844825
0.0199678
0.0964979
-0.116465
0.153418
-0.00528808
0.439532
-0.335098
0.00118109
-0.056818
-0.0242567
0.0129312
0.0113256
-0.00783571
0.052106
-0.514288
0.0156255
0.00781046
-0.00574834
-0.00206215
0.592867
-0.484415
-0.108451
-0.0406012
-0.0210203
-0.442954
0.333651
0.533175
-0.386393
0.600099
-0.172961
-0.427137
0.314919
0.229303
-0.0981299
0.171094
-0.255138
0.165798
-0.412397
-0.207886
-0.376458
-0.768553
0.29336
0.475199
0.0685651
-0.0673837
-0.427791
0.433727
-0.0059325
0.00815346
0.115264
-0.123417
-0.110792
0.409148
0.51472
-0.0944101
-0.487893
-0.122438
0.0223703
-0.112399
-0.0671548
-0.0145468
0.0817016
-0.00709904
0.00939759
0.133379
-0.137045
-0.159504
-0.0479168
-0.0100143
0.095434
-0.0854195
-0.0033708
-0.00822589
0.535696
-0.400624
-0.0868775
-0.00538038
0.092258
-0.452637
-0.315911
-0.0931087
-0.0270765
0.120185
0.129195
0.292127
-0.0296699
-0.0647551
-0.133867
0.502556
-0.175976
-0.253207
-0.371365
0.134154
0.101208
-0.163408
0.187533
-0.0241245
-0.0573769
0.0424558
0.0149212
-0.6178
0.0872899
0.530513
0.153707
-0.184437
0.11194
0.329704
-0.441642
0.484046
-0.169125
-0.00297832
0.0168762
-0.227515
0.19822
0.0292956
-0.063564
-0.34963
0.413196
-0.0966945
0.132065
0.166367
0.553739
-0.413238
-0.140499
-0.0143846
0.585968
0.0163616
-0.0193398
-0.0807015
-0.347085
0.137143
0.369744
0.267575
-0.40852
0.344958
0.0955268
0.0236355
-0.389893
-0.309124
0.137741
-0.0363174
-0.101423
-0.57475
0.545296
0.0294584
-0.594938
0.448945
0.145998
0.0172039
-0.0972817
0.407928
-0.00132893
-0.000418165
0.00173253
0.00933178
-0.0790137
-0.23378
0.315245
-0.0814649
0.103589
0.0342202
0.545138
-0.125079
0.29873
-0.253046
-0.0157141
0.0182512
0.0276758
0.049823
-0.0774987
-0.282569
0.201568
-0.171228
-0.192594
-0.3836
0.207625
-0.207506
-0.36724
0.561158
-0.307814
-0.253341
0.507454
-0.42613
0.0453342
-0.1637
0.118366
0.185239
0.0397823
-0.22502
-0.0310899
0.0475362
0.0322579
-0.195665
-0.324967
0.232435
0.0925324
-0.131841
0.0172944
-0.26482
-0.250059
0.0202701
0.154021
-0.17429
-0.0321856
-0.0897074
0.00917431
-0.380462
0.522265
-0.319739
-0.202525
-0.078965
0.586419
-0.223758
-0.371175
-0.434071
0.340398
0.499064
0.103911
0.453581
-0.33361
0.408629
-0.597267
0.188645
0.003266
0.00454444
0.190061
-0.0478817
-0.142179
-0.629111
0.452456
0.17666
0.122325
-0.116333
-0.226254
-0.391543
0.0286427
-0.0187974
0.173369
0.390763
0.146293
0.40231
-0.00634798
0.0134446
-0.182031
0.0737444
0.108287
0.317437
-0.460722
-0.215931
-0.125147
0.341079
-0.597799
0.170585
0.427215
-0.549319
0.408451
0.140871
0.183093
0.0959999
-0.279092
0.17567
-0.00401846
-0.171651
-0.367645
0.502289
-0.13464
-0.00111538
0.00273734
-0.00162197
-0.094415
0.22216
-0.127744
-0.334566
0.448123
-0.113556
0.452448
-0.135011
0.217522
0.304744
-0.0191661
-0.00509056
0.0899998
0.198676
-0.648253
0.266807
0.38145
-0.296578
-0.00339864
0.0096414
-0.0994653
0.238408
-0.121151
-0.0022474
-0.00202365
-0.399602
0.108131
0.291471
-0.560117
0.167932
0.134189
-0.550511
0.237817
0.0900204
0.0142233
-0.494167
0.147871
0.346296
0.0288424
-0.11006
0.293154
0.199026
0.0779053
0.0282866
-0.433531
0.309028
-0.103515
-0.034945
0.159176
0.0308864
0.397763
-0.11718
0.280143
-0.0374808
-0.364038
-0.28421
0.21262
-0.036949
0.309425
0.0798693
-0.339103
0.130116
0.208988
0.12675
0.342362
-0.46911
0.00292059
-0.000581827
-0.00233876
0.511839
0.0652115
-0.577051
-0.280112
-0.11949
-0.378976
0.20775
0.0674253
0.231663
-0.299087
0.0598233
0.164167
-0.223989
-0.049865
0.077541
0.490066
0.0822713
0.0155479
-0.131985
0.116437
-0.0804641
0.0133095
0.260202
0.278189
-0.53839
-0.140346
-0.293871
0.43422
-0.175365
0.518152
-0.109515
0.0990206
0.27215
-0.371168
-0.414564
0.204981
0.209584
0.389346
-0.104176
-0.285169
0.142876
-0.0910264
0.113397
0.0342268
-0.394313
0.5542
-0.159883
-0.0235153
0.0847548
-0.0612393
0.0671648
0.165612
0.213422
0.00588832
-0.12888
0.392304
-0.285318
0.0720489
0.0834765
-0.0154587
-0.171017
0.393781
0.1295
-0.523278
-0.122466
-0.0595652
-0.124997
0.171925
-0.046927
0.168515
-0.00933885
0.547298
-0.393962
-0.153333
0.406203
-0.526958
0.345725
0.215435
0.000416782
-0.103813
0.358643
-0.591074
0.370777
0.220299
0.176135
-0.0375782
-0.526957
0.159315
-0.560813
0.412749
0.148067
0.00471952
-0.0985743
0.175189
-0.279868
0.389788
-0.109919
0.0385821
-0.230572
0.204547
-0.229637
0.0488967
-0.298453
-0.11611
-0.303556
0.206627
0.0236157
-0.102629
0.0790135
0.394274
0.138902
-0.570939
0.171102
0.399837
-0.371647
-0.298622
0.519929
-0.525291
0.00536519
0.244935
-0.350827
0.105893
-0.308668
0.192399
0.116269
0.0685051
-0.237887
0.39002
0.15728
0.598671
-0.180281
-0.418389
-0.346209
-0.134278
0.480489
-0.403922
-0.0390317
-0.14439
-0.16598
-0.0592852
-0.378881
0.132098
-0.0051037
-0.354393
-0.0521773
0.0729702
-0.0207929
0.0926175
-0.372485
-0.472504
0.10086
-0.00410848
-0.0250785
0.289971
-0.101918
-0.188051
0.00544654
0.100399
0.175111
-0.343931
-0.0192077
0.363139
0.13009
0.306817
-0.436905
0.543835
-0.408308
-0.135524
-0.424311
0.283967
0.00811429
-0.0227699
0.0146557
-0.17809
0.208909
-0.0308181
0.084798
-0.318577
0.186671
0.0313184
-0.301987
0.40101
0.0259457
0.14257
0.676555
-0.187497
-0.394821
0.488127
-0.0933049
-0.472784
0.123723
0.349061
0.486778
-0.40338
-0.0162384
0.273771
-0.103754
-0.170016
-0.0112022
-0.332728
0.122251
-0.0260355
-0.0956497
-0.31495
0.4106
0.287913
-0.508303
0.220392
0.320149
-0.512096
0.19195
0.1636
-0.145734
0.150829
-0.29665
0.413212
-0.116559
0.0825927
0.224829
-0.307421
-0.354531
0.497387
-0.142853
0.0239672
0.484416
-0.1965
-0.0627762
-0.183477
0.246254
0.276848
0.120916
0.0107839
-0.00144334
-0.00934055
-0.00614335
-0.424183
0.245997
0.178186
0.013742
-0.129616
-0.0395142
-0.000755053
0.110211
0.323176
-0.409576
0.561818
-0.152238
0.534313
-0.432257
-0.102055
-0.105745
0.385955
-0.280208
-0.0785324
-0.242343
0.320877
0.461946
0.0345309
-0.508208
0.358637
0.149574
-0.200572
-0.121928
0.10823
0.0209381
-0.0803734
0.0594354
0.227227
-0.331039
-0.0349531
-0.158403
0.193356
-0.1538
-0.0269413
0.180741
-0.547175
0.405266
0.141912
-0.185226
0.192856
0.263241
0.0267308
0.543361
-0.178759
-0.3646
-0.0136191
-0.179737
0.193358
0.168288
0.448106
-0.00839371
0.0221036
0.153603
-0.108269
-0.581479
0.156388
0.425092
0.153507
0.396169
0.235134
0.236292
-0.52762
0.360148
-0.465988
0.119782
-0.0192781
-0.3953
0.556891
-0.161587
-0.0594954
0.360567
-0.49443
-0.20494
0.492348
-0.287409
-0.41256
0.140759
0.271803
0.109336
0.329717
-0.43905
-0.0779209
-0.371968
-0.119085
0.15856
-0.553855
0.345549
-0.0674221
0.29501
0.0288907
-0.323899
0.0133496
-0.553587
0.407049
0.146541
0.18817
0.205962
-0.649605
0.443644
-0.343069
-0.122917
-0.0102653
0.0122644
0.479278
-0.159125
-0.149994
0.296826
-0.0128521
0.135178
-0.0133679
0.641676
-0.435714
-0.436835
0.316375
0.120461
0.103117
-0.0795008
0.544873
-0.396769
-0.148102
0.0964837
0.294868
-0.39135
0.124806
0.0733927
-0.163525
-0.311136
0.474663
-0.0878028
0.107771
0.292366
-0.355675
0.0633107
-0.00726427
-0.00716549
0.282317
0.103646
0.107929
0.0229964
-0.130926
-0.342215
-0.460657
-0.108321
0.568979
-0.559723
0.402525
-0.0992289
0.541521
0.658296
-0.146456
0.0233078
-0.0337283
-0.0964557
0.332431
-0.235973
-0.610064
0.238513
0.371556
0.305691
-0.41279
0.1071
0.154821
0.126192
0.408122
-0.104797
0.310188
-0.0772974
0.014071
-0.21205
0.168865
-0.119271
-0.0121961
0.131467
0.111327
0.241925
-0.042898
-0.00566095
0.0130216
-0.00736062
-0.383358
0.124378
0.258982
-0.113892
-0.250731
0.418848
-0.168115
-0.00444363
0.00170338
0.00274027
-0.426892
0.205776
0.118694
-0.324469
-0.207429
-0.442175
-0.202545
-0.342102
0.544649
-0.617047
0.409619
0.588714
-0.173963
-0.414749
0.554625
-0.428685
-0.125938
0.130572
0.298704
-0.429273
-0.171221
-0.0391014
0.210323
0.533986
-0.140202
0.241241
-0.337695
-0.0226583
-0.11305
0.135709
-0.027829
0.0491934
-0.0213645
-0.0618933
0.00971599
0.125454
-0.138305
-0.215666
-0.376217
-0.183505
0.479222
-0.335968
-0.14325
-0.0256712
-0.0769575
0.35005
0.093331
-0.0013431
0.1433
-0.411867
0.268568
0.14732
-0.00867667
0.517777
-0.509094
-0.299383
0.41756
-0.118174
-0.27721
0.420512
-0.418696
-0.166343
-0.372335
-0.138317
0.510656
-0.146347
0.166618
-0.244759
-0.3653
0.0128027
-0.0134364
0.000633607
0.451418
-0.369288
0.524677
-0.155385
-0.0201812
0.0282956
-0.426662
0.175934
-0.272643
-0.309419
-0.103735
0.509173
-0.00380318
0.0201649
-0.0425012
0.18922
-0.202296
0.577543
-0.375246
-0.143917
-0.456334
-0.154406
0.610742
0.532372
-0.0277625
0.0779908
-0.0502282
0.121484
-0.0161446
-0.21092
0.227065
0.193211
-0.343204
-0.365395
0.354194
-0.204314
0.576581
-0.43502
-0.141559
-0.0564701
-0.174997
0.32478
-0.420429
0.0606949
-0.235486
0.010515
-0.0138858
0.286056
-0.425978
0.139923
-0.433092
0.332871
0.374641
-0.278156
-0.518474
0.360859
0.157617
-0.14386
0.0146572
-0.117377
0.10272
0.0319151
0.144558
0.229062
-0.0438229
-0.0112161
0.00781751
0.0168629
-0.00406026
-0.11087
0.435651
-0.101532
0.116189
-0.408427
-0.150295
0.00251124
0.0052158
-0.00772704
-0.441468
-0.122624
0.0620369
0.023065
-0.0851018
-0.131112
0.0140053
-0.217519
-0.286633
0.312807
-0.026172
-0.12498
0.0823391
0.0426412
0.0181501
-0.068189
0.0500391
-0.631309
0.213121
0.418189
0.173323
-0.400229
-0.448758
-0.307547
-0.200658
0.179199
0.385285
-0.108434
-0.0796763
0.372044
-0.136731
-0.0285933
0.165325
-0.00926735
0.000215934
0.00905142
0.135114
0.204443
-0.0108554
0.00262953
0.525884
0.0962349
-0.176676
0.457868
-0.281191
-0.332674
0.0300589
-0.0385413
0.00848251
0.216808
-0.295339
0.0204721
0.572396
-0.146012
0.163901
-0.26394
-0.14239
0.406332
-0.393897
0.264588
0.124758
0.0461653
0.188545
-0.234709
0.303994
-0.409736
-0.0639323
-0.428688
-0.20262
0.404057
0.133217
-0.537273
-0.122733
-0.128181
0.414238
-0.00593751
0.00170698
0.00423053
-0.336656
0.120726
-0.110083
0.337312
-0.406418
0.547245
-0.140826
0.0121805
-0.361722
0.600739
0.137489
-0.294959
0.0938206
-0.199274
-0.1206
0.319875
0.222334
-0.0291216
0.443686
0.197992
0.051218
0.458931
-0.33218
-0.483034
0.143249
0.339787
0.0246451
-0.139129
0.114485
-0.438197
-0.00331973
0.52567
-0.265468
-0.0934665
-0.0419666
0.135434
0.0808277
-0.108675
-0.0248007
-0.107183
-0.133782
0.0359557
0.0978264
-0.172205
-0.321962
0.0854402
-0.104472
0.0173656
0.00600218
-0.0233677
0.530111
0.090667
-0.0792304
0.242035
-0.418709
-0.0209412
0.168893
0.128351
0.0271138
0.429134
-0.305411
-0.0703778
0.234916
-0.164537
-0.389128
-0.183365
0.246703
-0.175293
-0.0714085
-0.192727
-0.245303
-0.101009
-0.034268
0.0609322
-0.15379
-0.0307111
0.184502
0.042526
-0.167523
-0.0729283
0.0524731
0.0204552
0.0858612
-0.0176517
0.117014
-0.0993616
-0.216148
-0.412272
0.112891
0.346591
0.101081
-0.447671
0.541544
-0.137486
-0.584493
0.450227
0.134267
-0.395952
0.538894
-0.142939
-0.225937
-0.046219
0.0643691
-0.593587
0.428558
0.165034
0.0883242
0.244108
-0.154738
-0.249558
-0.113941
-0.233204
0.347148
0.172284
-0.0254732
-0.142536
0.0355661
0.10697
-0.293273
0.11451
-0.541687
-0.222026
0.159251
0.0662349
-0.472652
-0.296185
0.251066
0.00928289
-0.0149438
-0.108316
-0.223572
0.331889
0.150405
0.318808
-0.469211
0.157027
-0.0202106
-0.417703
0.330207
-0.241881
0.024011
-0.00664543
-0.00342627
0.387645
-0.106564
-0.28108
0.185303
-0.159965
-0.0253368
0.312342
-0.0955348
-0.216807
-0.00301773
0.000770329
-0.02229
0.22051
-0.239428
0.14693
-0.0186872
0.0769988
0.534601
-0.0557003
-0.109903
-0.0356648
-0.103506
-0.40107
0.311384
-0.337446
0.254342
0.0831036
0.506857
-0.00330143
-0.0950508
-0.01186
0.52568
-0.513814
0.245482
-0.359421
-0.338665
0.0563542
0.271775
-0.143768
0.170041
-0.0262729
0.580336
-0.17833
-0.402003
0.118689
-0.0567458
0.24836
0.0618296
0.0910182
0.0314599
0.18148
-0.451267
0.128189
0.32308
0.0133773
0.228751
0.13131
-0.36006
-0.0878054
0.321957
-0.234149
-0.503054
0.323872
0.179186
0.00232442
0.00372147
-0.00604586
-0.0245389
0.157918
-0.013171
0.191088
-0.267585
0.0764977
0.0270676
-0.0377931
0.141413
0.0305123
-0.154113
-0.25882
-0.165362
0.185149
-0.0314408
0.390934
-0.563894
0.40451
-0.295171
-0.12734
-0.0228125
0.150152
-0.230902
-0.17855
-0.175646
-0.0886173
-0.201185
0.247352
-0.320004
0.120731
-0.119873
0.144519
-0.0231576
0.131087
-0.473428
0.145468
-0.126771
0.156393
-0.0296209
-0.102906
-0.262489
0.295559
0.117655
-0.351086
0.491106
-0.140015
0.177175
0.387609
0.0677753
-0.047171
-0.0206042
0.0950243
-0.105038
0.573415
-0.425923
-0.147489
0.161359
-0.608005
0.175279
0.432727
0.110495
-0.425445
-0.000168221
0.359824
-0.439498
-0.158529
-0.338826
0.497361
0.0212073
0.485651
-0.283339
0.0350015
-0.502419
0.467426
0.322517
-0.0846981
0.0483828
0.0193926
0.121072
0.170674
-0.234435
0.0637622
0.409431
0.132115
-0.427461
-0.0102808
0.135735
-0.0120132
0.0420721
0.0416248
-0.0145573
-0.130878
-0.496419
0.546038
0.340269
-0.498792
-0.0994593
0.340702
0.017573
-0.430867
-0.150612
0.0184852
-0.0765266
0.0191318
0.12787
-0.147002
-0.0976188
0.263418
-0.58851
0.169834
0.418676
0.300865
-0.108464
-0.0214283
0.449621
-0.385161
-0.064458
-0.19295
0.223616
-0.030666
-0.41323
0.551147
-0.415372
-0.135772
-0.373022
0.226453
0.00493968
0.0176378
-0.0225774
-0.187845
0.146764
-0.130146
0.539578
-0.120948
0.15453
-0.0335813
-0.395809
-0.0217919
0.142591
-0.46526
0.212602
0.404171
0.168206
-0.572371
-0.0697956
-0.398498
0.0813205
0.368302
0.262982
0.124664
-0.0957446
-0.0264865
0.122231
-0.178181
0.246627
-0.0684452
-0.098647
-0.206567
0.479092
0.00532662
0.12814
0.423577
0.117525
-0.548079
0.246096
-0.214557
0.0433365
0.16631
0.013658
-0.179967
0.00245171
-0.00356709
-0.218539
0.192985
-0.206603
-0.148916
0.170393
-0.0214759
-0.0275009
0.168914
0.163817
0.396051
0.156983
0.0990613
0.132015
-0.0392824
-0.0971068
0.0680986
0.0290084
0.0230484
0.00669721
-0.123604
0.363602
-0.239997
0.27775
-0.489574
0.211826
-0.0021192
-0.627197
0.288376
-0.48429
0.122568
0.194838
0.0866021
-0.281439
0.0270356
-0.355474
0.136005
0.219471
-0.425984
0.0703165
0.0276038
-0.09792
0.213641
-0.153817
0.101785
-0.356297
0.254513
-0.184053
0.420346
-0.00837931
0.10913
-0.10075
0.0691627
-0.0886691
0.0195066
-0.00791369
-0.00294168
0.351205
-0.48548
0.109339
-0.42799
0.318653
-0.0769627
0.452483
0.112459
-0.481202
-0.0219943
-0.144804
0.176539
-0.0317348
0.11584
0.332283
-0.271325
0.0928619
0.178464
-0.204921
0.154935
0.0499873
-0.322444
0.223799
0.0472322
-0.0640337
0.133659
0.365155
-0.498809
-0.127771
0.381059
-0.253287
-0.135914
-0.18409
-0.221069
0.498822
-0.0249833
-0.0721233
0.116085
-0.479595
0.363514
0.552854
-0.17105
0.0343184
0.110243
-0.13368
0.0234367
-0.107173
0.134483
-0.0273095
-0.0238528
0.0946927
-0.0708396
-0.156814
-0.27803
0.434849
0.115402
0.0798695
-0.195271
-0.349529
0.522965
0.0688067
0.305836
-0.536572
0.527902
-0.196536
0.363397
0.0773679
-0.102351
0.0330349
0.32679
0.130458
-0.179112
0.438025
-0.091433
-0.55415
0.397414
0.156737
0.140045
-0.447374
-0.12659
0.573965
-0.165049
-0.00272805
0.00448643
0.44442
-0.583951
0.139532
0.317233
0.110025
-0.132683
-0.548425
-0.119996
-0.0957955
-0.109125
-0.0676267
0.18303
0.287299
0.120846
-0.408142
-0.498555
-0.156526
-0.365239
0.521769
0.406863
0.144288
-0.510865
0.374025
0.13684
-0.228759
-0.133974
0.47465
-0.340675
0.322126
0.215302
0.0474895
-0.50382
-0.405578
-0.103315
0.508894
-0.096466
0.279613
-0.183146
-0.186549
0.00875832
0.0350011
0.023591
-0.167358
0.138225
-0.361961
0.534453
-0.172489
0.544486
-0.439306
-0.105178
0.143922
0.0261204
-0.532657
0.144884
0.387774
0.125617
-0.29802
-0.272917
-0.251473
-0.266904
-0.376974
0.165607
-0.367494
0.249351
0.118144
-0.0734649
0.0589181
0.435582
0.144757
0.579677
-0.135255
0.252802
-0.0676412
-0.18516
-0.588034
0.162387
0.425647
0.615678
-0.189118
-0.426557
-0.0153505
0.309096
0.108466
-0.320938
0.023742
-0.168546
-0.149131
-9.71438e-05
0.167804
-0.0669237
0.231091
0.172911
-0.149169
-0.145272
-0.387384
-0.451342
0.516226
-0.064882