/*--------------------------------*- C++ -*----------------------------------*\
| =========                 |                                                 |
| \\      /  F ield         | OpenFOAM: The Open Source CFD Toolbox           |
|  \\    /   O peration     | Version:  v2012                                 |
|   \\  /    A nd           | Website:  www.openfoam.com                      |
|    \\/     M anipulation  |                                                 |
\*---------------------------------------------------------------------------*/
FoamFile
{
    version     2.0;
    format      ascii;
    class       surfaceVectorField;
    location    "750";
    object      Uf_0;
}
// * * * * * * * * * * * * * * * * * * * * * * * * * * * * * * * * * * * * * //

dimensions      [0 1 -1 0 0 0 0];


internalField   nonuniform List<vector> 
20642
(
(0.226507 0.0238221 -2.95459e-21)
(0.235794 0.0251774 3.76365e-20)
(0.246107 0.0301698 3.35985e-20)
(0.990065 0.0379788 1.12597e-21)
(0.989209 0.0383153 -4.31234e-22)
(0.990047 0.0392666 6.76618e-23)
(1.08168 0.201949 -1.01995e-20)
(1.07884 0.200659 0)
(1.08141 0.204262 -2.03045e-20)
(1.04618 0.0372175 -2.21636e-21)
(1.04558 0.0384093 -1.83645e-21)
(1.04475 0.0369552 5.5111e-23)
(0.995103 0.0188822 7.62734e-22)
(0.994862 0.0190723 -1.085e-21)
(0.99515 0.0193038 -1.40298e-22)
(0.99119 0.0375257 -4.27232e-23)
(0.990334 0.0365725 2.09899e-22)
(1.06709 0.0750988 2.55899e-20)
(1.06559 0.0732849 -8.42767e-21)
(1.06506 0.0753728 -2.98138e-21)
(0.975593 0.0453368 3.82282e-22)
(0.973825 0.0440358 -1.82489e-22)
(0.97358 0.0466976 -1.63171e-22)
(1.09571 0.056946 -3.88898e-21)
(1.09407 0.057883 -3.29401e-20)
(1.09602 0.0592513 -1.38396e-20)
(0.00943215 -0.0418228 1.32826e-20)
(0.0189663 -0.0455259 4.22297e-21)
(0.976964 0.0470621 -7.07007e-22)
(0.977444 0.0445473 -1.22763e-22)
(1.02752 0.0290978 -1.74224e-21)
(1.02766 0.0301321 8.95389e-21)
(1.02859 0.0295456 1.17453e-21)
(1.01454 0.00055408 0)
(1.01504 0.000429371 0)
(0.933213 0.0546951 0)
(0.885678 0.0564236 -2.21701e-21)
(0.939617 0.0596733 4.29164e-21)
(0.997166 0.0315038 2.67992e-22)
(0.996568 0.0318006 3.72774e-21)
(0.997189 0.0324161 -3.80671e-22)
(0.215036 0.0208008 -2.2302e-20)
(0.200515 0.0152761 -1.45347e-20)
(0.989426 -0.000288346 -1.69177e-22)
(0.989316 -0.000293971 6.71101e-22)
(0.990357 -0.000166509 9.15209e-23)
(0.978188 0.0487073 -5.1648e-22)
(0.979562 0.0501724 4.36108e-22)
(0.980015 0.0477239 -4.06025e-24)
(1.06659 0.172827 8.46329e-21)
(1.06655 0.17493 0)
(1.06439 0.17377 -1.2313e-20)
(0.240029 0.0191893 -3.78111e-21)
(0.27268 0.0267386 -1.55397e-20)
(0.267302 0.0281179 2.8351e-21)
(1.00303 0.0637542 0)
(1.00215 0.0650867 0)
(1.00165 0.063425 -1.54587e-21)
(1.00008 0.0174186 2.37426e-22)
(1.00043 0.0175449 9.05076e-22)
(1.00022 0.0179579 8.26569e-22)
(1.06942 0.121247 -2.74134e-20)
(1.07163 0.120771 -6.00338e-21)
(1.07038 0.123545 -2.93739e-21)
(0.999723 0.0171632 -2.64726e-21)
(0.99994 0.0168153 -7.71006e-22)
(1.03523 0.0502877 -1.94716e-20)
(1.03582 0.051518 -8.60819e-21)
(1.03444 0.0508925 3.82899e-21)
(0.997241 0.0621807 -1.45117e-21)
(0.998678 0.0625361 -4.6775e-21)
(0.998164 0.0608591 -1.69505e-22)
(0.94966 0.104085 1.52735e-23)
(0.972362 0.105705 -1.0545e-22)
(0.974733 0.103448 -2.14313e-22)
(0.00871783 -0.0351434 -2.22547e-20)
(0.986391 0.0560001 0)
(0.987814 0.0570563 0)
(0.987903 0.0548829 0)
(1.02582 -0.0189019 -7.15784e-24)
(1.02643 -0.0190175 1.8209e-22)
(1.02604 -0.0184074 2.42714e-25)
(0.00893512 -0.0263776 -5.2747e-21)
(0.0176775 -0.032406 -5.51245e-21)
(1.0995 0.148791 2.21625e-20)
(1.10132 0.150574 1.16533e-20)
(1.0983 0.15045 -9.36338e-21)
(1.03554 0.0402166 -1.4521e-21)
(1.03477 0.039153 9.00335e-21)
(1.03602 0.0392826 2.75938e-21)
(0.271382 0.0485371 1.96786e-21)
(0.291182 0.0550512 1.40984e-20)
(0.286018 0.0548348 -1.21306e-20)
(0.991076 0.00672065 1.0976e-22)
(0.99093 0.00649163 2.38298e-22)
(0.990871 0.00672757 3.57303e-22)
(0.973293 0.0418385 -7.96908e-22)
(0.971452 0.0431523 -1.2309e-21)
(1.01169 0.0441693 6.78169e-23)
(1.01225 0.0452763 -7.5906e-21)
(1.01102 0.0451778 -3.84649e-21)
(0.994129 0.000226119 -6.63201e-22)
(0.994087 0.000398431 -1.63626e-21)
(0.994376 0.000160559 -6.06436e-22)
(1.06854 0.0768059 1.2053e-20)
(1.06891 0.074641 -9.22919e-23)
(1.01013 0.0818151 -3.01501e-21)
(1.00946 0.0834969 -3.79451e-21)
(1.01154 0.0832223 -1.96323e-21)
(0.996982 -0.000265937 -9.60225e-23)
(0.997313 -0.00013643 1.62669e-21)
(0.997325 -0.000630793 -1.61613e-22)
(0.985062 -0.000408216 6.76347e-23)
(0.984791 -0.000189193 -6.24826e-22)
(0.985105 -5.79077e-05 -2.21671e-23)
(1.08777 0.0465832 -2.84534e-20)
(1.08545 0.0472932 1.82503e-20)
(1.08611 0.0448657 7.51563e-21)
(1.08083 0.175728 -1.15988e-20)
(1.0829 0.175884 -1.95708e-20)
(1.08122 0.178014 -9.92157e-21)
(1.08028 0.172994 2.25989e-20)
(1.07818 0.17512 1.05062e-20)
(0.998088 0.161341 0)
(0.999662 0.160748 0)
(1.00007 0.164736 0)
(1.00411 0.0624637 0)
(1.00484 0.0640727 0)
(0.203716 0.0396984 0)
(0.263006 0.0485208 -4.83843e-21)
(0.265235 0.052885 0)
(0.959725 0.0112936 5.9185e-21)
(0.95322 0.0129608 2.22556e-21)
(0.975894 0.0139958 5.50777e-22)
(0.99121 0.00674553 1.86123e-22)
(0.991164 0.00695596 1.71772e-22)
(1.02655 0.0288175 -5.33641e-21)
(1.0273 0.0282512 -1.81336e-20)
(1.02326 0.154893 1.14434e-20)
(1.02056 0.155463 7.65547e-21)
(1.02137 0.152462 0)
(0.064925 0.00787565 3.26899e-21)
(0.0940236 0.0133022 -2.61823e-20)
(0.0597948 0.00760549 -1.39691e-20)
(1.01314 0.0262491 -1.47691e-21)
(1.01312 0.0254759 -5.58062e-21)
(1.01242 0.0256871 7.59762e-21)
(1.01472 0.0283109 -7.59685e-21)
(1.01461 0.0275058 4.41822e-21)
(1.01542 0.0279316 3.49571e-21)
(1.02524 0.154447 -3.4597e-21)
(1.02446 0.1574 5.35669e-21)
(0.088348 -0.000899538 -5.93975e-21)
(1.06707 0.121205 5.93501e-21)
(1.06869 0.118562 4.11826e-21)
(0.985347 -0.00063804 2.08145e-22)
(0.985047 -0.000805125 -3.28249e-23)
(0.997506 0.161824 0)
(0.995553 0.158288 0)
(0.435441 0.114262 3.82729e-21)
(0.39951 0.110851 -6.75598e-22)
(0.381953 0.108803 3.51585e-21)
(0.990987 0.0095631 5.47788e-22)
(0.991154 0.00917923 -7.57402e-22)
(0.990887 0.0091674 8.12309e-22)
(1.01208 -0.000808604 -8.25666e-22)
(1.01238 -0.000803297 6.83672e-25)
(1.01457 -0.00112577 -9.47619e-24)
(1.03612 0.0494566 -7.07985e-21)
(1.03467 0.0490229 9.82749e-21)
(0.692888 0.144305 4.62078e-21)
(0.695853 0.144726 6.18604e-21)
(0.657085 0.140316 -1.23231e-20)
(1.01847 -0.0115584 -2.07079e-22)
(1.03115 -0.0110263 0)
(1.02918 -0.0147749 -2.54046e-22)
(0.985037 0.0549303 6.78241e-22)
(0.983707 0.0538542 6.5995e-22)
(0.985285 0.0527902 -1.1656e-23)
(0.974847 0.0404414 4.83285e-23)
(0.972917 0.0393088 0)
(0.976464 0.0498422 8.06505e-23)
(0.177289 0.0251187 1.15785e-20)
(0.165211 0.0207638 5.88694e-21)
(0.158358 0.0199976 1.0755e-20)
(0.839262 0.171596 0)
(0.860651 0.173227 8.1713e-21)
(0.805397 0.164562 1.07889e-20)
(0.258376 0.0438134 -6.50381e-21)
(0.253619 0.0439329 7.3269e-21)
(1.04508 0.0197312 -2.39423e-21)
(1.04625 0.0204298 0)
(1.04475 0.0206393 0)
(0.985626 -0.000809433 0)
(0.985641 -0.000446756 -4.6927e-22)
(1.00125 0.0664805 0)
(1.00274 0.0667468 1.95879e-21)
(1.02631 0.0513295 -7.33536e-22)
(1.02665 0.052678 -2.98386e-21)
(1.02524 0.0515778 -5.17243e-22)
(0.996718 0.0194799 1.02185e-21)
(0.996625 0.019715 8.21121e-22)
(0.996893 0.0198714 -4.63206e-22)
(0.985902 -0.000985225 0)
(0.985634 -0.00121865 -4.29215e-22)
(1.02746 0.0508094 1.51213e-20)
(1.02593 0.0500433 2.81824e-21)
(1.0352 0.0407514 5.33364e-21)
(1.03624 0.0410305 -4.31112e-21)
(1.00566 0.0274642 -2.16282e-21)
(1.00518 0.0267288 -1.57216e-21)
(1.00584 0.026678 2.09993e-21)
(0.988571 -0.000197978 7.49287e-23)
(0.988598 -0.000201241 2.31336e-22)
(0.989546 -0.00013018 -5.70367e-24)
(1.04547 0.018758 8.48617e-22)
(1.04395 0.0189098 1.10039e-20)
(0.766545 0.164914 -1.36629e-20)
(0.81916 0.172031 8.7632e-22)
(0.806536 0.171816 -1.78765e-20)
(1.0102 0.00463271 5.18841e-21)
(1.01029 0.00523532 -6.75112e-21)
(1.00961 0.0049189 -5.01773e-21)
(0.969206 0.0626367 0)
(0.967806 0.0648638 0)
(0.967021 0.0618555 -2.86398e-22)
(1.10118 0.14637 1.30481e-20)
(1.09756 0.146728 -7.82441e-22)
(1.00984 0.00259664 -4.69219e-21)
(1.00926 0.00257914 -1.72019e-22)
(1.00893 0.00189948 -3.90267e-21)
(1.01099 0.0800036 5.01404e-21)
(1.00894 0.0802002 -2.0572e-21)
(0.989517 -0.000280132 3.92579e-22)
(0.989627 -0.000407391 2.96553e-22)
(0.990988 -0.000764957 5.04394e-23)
(0.991013 -0.000762296 -2.36261e-22)
(0.991365 -0.000896937 -1.01794e-22)
(1.08905 0.0486747 -1.82215e-20)
(0.969999 0.0106245 -8.76301e-22)
(0.919571 0.0129473 -9.49156e-22)
(0.990208 0.0050062 2.23079e-22)
(0.989985 0.00499292 -1.46875e-21)
(0.990051 0.00475006 -8.07997e-22)
(1.01192 0.0323003 -5.70462e-21)
(1.01134 0.0314731 -1.20745e-21)
(1.01112 0.0323579 -2.26837e-21)
(0.984901 0.0572366 1.11008e-22)
(0.975084 0.0947679 -2.06986e-21)
(0.969204 0.0950236 -1.81776e-21)
(0.968773 0.0925208 7.87909e-23)
(0.988633 8.46077e-05 6.71355e-22)
(0.988698 8.28914e-05 1.36155e-22)
(0.989172 1.91492e-05 1.05787e-21)
(1.01017 0.00307735 0)
(1.01027 0.00251405 0)
(0.978978 0.0964276 -1.13448e-22)
(0.980645 0.0947086 -1.00208e-22)
(0.978751 0.0939285 3.14713e-22)
(1.00339 -0.000638673 -3.50416e-24)
(1.00298 -0.000662506 4.33486e-23)
(1.00161 -0.000327244 -1.92839e-23)
(1.0039 -0.000693666 1.91198e-22)
(1.00493 -0.00116062 -2.81674e-23)
(1.00554 0.0280791 -1.62288e-21)
(1.00613 0.0280257 4.92286e-21)
(0.989967 0.000366294 -6.80733e-22)
(0.989983 0.000375706 1.04605e-21)
(0.989452 0.000277587 5.308e-22)
(0.99687 0.0191083 0)
(0.996526 0.0189703 1.31853e-21)
(0.704573 0.167925 1.23604e-21)
(0.704352 0.167376 -8.52265e-21)
(0.657583 0.164492 -2.82312e-20)
(0.386979 0.0659284 5.06321e-22)
(0.375816 0.0615256 1.82936e-20)
(0.362237 0.0559535 2.07451e-20)
(0.990608 0.00985818 -3.3594e-22)
(0.991167 0.00999751 6.37107e-22)
(0.984462 -0.000313132 1.43918e-23)
(0.984529 4.5896e-05 -2.69578e-22)
(0.920928 0.0994604 4.81251e-22)
(0.913303 0.100428 3.17819e-21)
(1.02559 0.00113913 -5.49427e-23)
(1.0258 0.00132726 2.63449e-23)
(0.314228 0.0621796 1.89823e-20)
(0.299049 0.0560588 6.87716e-21)
(0.989147 0.0579903 1.74628e-21)
(0.987762 0.0592199 0)
(0.682408 0.144194 -2.13938e-20)
(0.733235 0.151892 4.96383e-21)
(1.02196 0.0527728 0)
(1.02246 0.0541245 0)
(1.02305 0.0525435 4.8256e-22)
(1.06669 0.170134 8.44535e-21)
(1.0689 0.171567 -9.14526e-22)
(0.994741 -0.00099858 2.25441e-22)
(0.995239 -0.00129252 -1.00675e-22)
(0.994586 -0.00108355 -7.35605e-23)
(1.06836 0.193628 -8.47024e-22)
(1.06999 0.194855 -1.69673e-21)
(1.07082 0.192511 2.42338e-22)
(1.04503 0.0123832 1.63326e-20)
(1.04496 0.0134136 4.73375e-21)
(1.04389 0.0124832 8.12522e-21)
(0.988728 -0.00022627 0)
(0.988509 -0.00019884 0)
(0.986392 -0.000613947 1.42153e-21)
(0.986637 -0.000454305 2.12307e-22)
(0.986652 -0.000794571 3.95047e-22)
(0.982403 0.0526359 -8.47056e-23)
(0.982168 0.0549298 9.98851e-23)
(1.04957 0.158603 6.47751e-21)
(1.04725 0.157699 9.3164e-22)
(1.04957 0.155812 -1.17762e-20)
(0.0902252 0.0172264 0)
(0.109254 0.0228233 -1.27272e-20)
(0.0970748 0.0176878 0)
(0.736203 0.161792 -9.42729e-21)
(0.7251 0.162237 4.80322e-21)
(1.03687 0.0487239 -5.03646e-21)
(1.03764 0.0479505 0)
(1.03636 0.0475028 4.48648e-21)
(0.999741 0.0660889 1.72405e-21)
(1.00035 0.0678628 0)
(0.994114 0.00835364 -5.72926e-22)
(0.993911 0.00808286 2.16282e-21)
(0.994128 0.00808108 1.23342e-21)
(1.05181 0.15887 1.43108e-20)
(1.05002 0.160547 1.21849e-20)
(1.09797 0.0925681 0)
(1.09667 0.094355 -1.71049e-21)
(1.09935 0.0943242 0)
(0.983136 0.129698 -2.55499e-23)
(0.985957 0.130045 3.62165e-21)
(0.983084 0.131855 1.28516e-21)
(0.376058 0.106417 8.77697e-21)
(0.34081 0.0991774 1.84422e-20)
(0.351761 0.100419 8.15403e-22)
(1.0207 0.05319 0)
(1.02119 0.0514997 0)
(1.09636 0.159481 2.48605e-20)
(1.09363 0.160487 -1.19765e-20)
(1.09628 0.162358 -8.68294e-21)
(0.878111 0.0948926 -3.02407e-22)
(0.928472 0.097762 2.44664e-22)
(0.377658 0.103839 -2.96866e-21)
(0.424283 0.108916 -4.98851e-22)
(0.436556 0.108527 -1.12879e-23)
(0.0219649 0.0138969 1.97414e-21)
(0.0162938 0.0137387 2.02447e-21)
(0.0357176 0.0192627 1.44688e-20)
(0.994416 0.0611588 1.31978e-21)
(0.995908 0.0617376 2.5297e-21)
(0.995342 0.0598911 1.25256e-21)
(0.993907 0.000237647 0)
(0.881855 0.0289933 -7.93208e-23)
(0.930721 0.0229254 2.10247e-22)
(0.895337 0.028014 0)
(0.98615 -0.000789221 4.74786e-22)
(0.98618 -0.00115953 0)
(0.691825 0.167853 -4.99501e-21)
(0.750728 0.17537 7.16189e-21)
(1.00209 0.0128946 -3.21614e-21)
(1.0018 0.0124094 0)
(1.00169 0.0128572 -1.61601e-21)
(1.04093 0.0184912 1.32781e-21)
(1.04183 0.0193056 1.21321e-21)
(1.04065 0.0195027 -5.51728e-21)
(0.982264 0.000606133 0)
(0.982028 0.000137029 -1.40041e-22)
(0.982608 0.000161898 0)
(0.864117 0.17616 0)
(0.811163 0.168733 6.88663e-21)
(0.873603 0.0460002 -9.9142e-22)
(0.268118 0.0473289 -3.94977e-21)
(0.281429 0.048199 0)
(0.226065 0.0328255 0)
(1.01385 0.0269273 5.27975e-22)
(1.01309 0.0271483 -1.73768e-21)
(1.01174 0.0784955 -1.65713e-21)
(1.01238 0.0769173 -9.55098e-21)
(1.01054 0.0768989 -4.19474e-21)
(1.00582 -0.000790438 2.27204e-25)
(1.00579 -0.000872561 0)
(1.00773 -0.00125313 4.77297e-24)
(1.04003 0.0177543 0)
(1.0411 0.0174969 -1.83145e-20)
(0.977632 0.0967925 -1.8477e-21)
(0.976219 0.0950159 1.79054e-21)
(0.997002 0.0157403 0)
(0.996905 0.0160173 0)
(0.996744 0.0156282 -2.7552e-21)
(0.989906 0.000339239 -2.29519e-21)
(0.990312 0.000437996 -1.89218e-21)
(0.319835 0.0969008 -1.76697e-20)
(0.308488 0.0938982 -1.41314e-20)
(0.289783 0.0889608 8.72496e-22)
(0.995117 -0.000611323 0)
(0.995416 -0.000604084 1.31166e-22)
(0.995243 -0.000305467 0)
(0.994833 -0.000901671 -1.37962e-23)
(0.99412 -0.000739067 1.99809e-22)
(1.00692 0.00958817 8.02093e-21)
(1.00705 0.010185 5.86409e-21)
(1.0064 0.009794 -1.06017e-21)
(0.651479 0.137943 -8.46145e-21)
(0.660137 0.139114 -3.59019e-21)
(0.614968 0.128731 0)
(1.00314 0.043917 0)
(1.0042 0.0442201 1.76301e-21)
(1.00361 0.042914 -2.08064e-21)
(0.861976 0.0303438 6.99981e-22)
(0.46795 0.109437 -6.36662e-21)
(0.458509 0.106825 7.77594e-22)
(0.494977 0.112449 -4.28569e-21)
(0.973525 0.0965741 1.49688e-21)
(0.976312 0.09723 1.04773e-21)
(0.975881 0.0949798 9.2871e-24)
(0.069033 0.00661347 2.62017e-20)
(0.31738 0.087212 -9.15217e-22)
(0.359846 0.0945742 2.25851e-21)
(0.325884 0.092474 3.78317e-21)
(1.02129 -0.00524624 0)
(1.02144 -0.00579783 0)
(1.02188 -0.00542401 -3.38684e-25)
(0.992891 0.0603082 1.00854e-21)
(0.993377 0.0624375 -1.44226e-21)
(0.999427 0.0172147 -3.6062e-21)
(0.999114 0.0172166 1.06949e-21)
(0.999505 0.0176992 -2.29032e-21)
(0.40745 0.106007 1.27925e-20)
(0.407625 0.107555 -3.04499e-21)
(0.374059 0.0987768 -1.00638e-20)
(1.09557 0.0546885 4.24428e-20)
(0.532115 0.124098 1.01038e-21)
(0.481325 0.119236 -1.72914e-21)
(0.507716 0.122063 -7.57996e-21)
(1.02165 0.127033 1.29153e-22)
(1.0235 0.12683 -1.95639e-21)
(1.0224 0.129288 4.12357e-21)
(1.00004 -0.000708819 4.29977e-22)
(1.00083 -0.0010283 5.16312e-23)
(0.999444 -0.000658953 5.66442e-23)
(1.04752 0.0377158 1.3443e-20)
(1.04682 0.0363567 -6.2428e-21)
(1.0184 0.156321 1.80866e-21)
(1.0161 0.157276 2.0855e-21)
(1.01644 0.154243 -2.68645e-22)
(1.09915 0.0903653 -2.1007e-20)
(1.09656 0.0904498 3.10072e-21)
(1.00258 0.0449591 0)
(1.00215 0.0435102 0)
(1.08373 0.0477104 8.6678e-21)
(1.08222 0.046084 -1.72103e-21)
(1.08143 0.0482786 8.32587e-21)
(0.99933 0.0167772 4.79995e-22)
(1.02578 0.0285041 6.4948e-21)
(1.02591 0.0293363 -1.05393e-21)
(1.02268 0.175286 0)
(1.02498 0.174598 -3.73365e-21)
(1.02352 0.177653 0)
(1.06631 0.192846 1.03806e-20)
(1.06964 0.195669 1.6118e-20)
(0.982746 0.127039 -9.90333e-22)
(0.979473 0.128821 -1.76197e-21)
(1.02553 0.0276069 -5.16114e-22)
(1.02484 0.0281532 4.51639e-21)
(1.02087 0.176253 0)
(1.0205 0.173179 -2.06104e-21)
(1.02548 -0.0193503 3.58151e-24)
(1.02508 -0.0186676 6.46586e-23)
(0.970944 0.0610518 0)
(0.971407 0.0638255 5.92875e-22)
(1.02009 0.124906 3.66381e-21)
(1.0191 0.127516 0)
(1.07984 0.170513 2.24527e-20)
(1.08241 0.170833 1.10156e-20)
(1.0336 0.171253 5.90075e-21)
(1.0355 0.170092 -7.51134e-22)
(1.03325 0.168762 1.27897e-21)
(0.24156 0.026005 7.2974e-21)
(0.259642 0.0318085 -7.51471e-21)
(0.246676 0.0260348 -1.54355e-20)
(0.990318 0.00525963 -5.8374e-22)
(0.990354 0.00502857 1.29691e-23)
(0.111189 0.0195156 -1.16724e-20)
(0.123296 0.0245822 -3.00463e-23)
(0.103658 0.0185615 -7.15544e-22)
(1.0374 0.0677204 -3.03431e-21)
(1.03615 0.0684441 -8.89534e-21)
(1.03614 0.0666766 4.21599e-21)
(0.413812 0.114173 0)
(0.402546 0.112661 1.80622e-20)
(0.99073 0.00628012 -1.15348e-22)
(0.990927 0.00627188 -1.41648e-21)
(0.997101 0.0154383 0)
(0.997284 0.0158528 -2.53219e-21)
(1.00666 0.0614632 1.77406e-21)
(1.00754 0.0628593 -3.44152e-21)
(1.00803 0.0612683 -3.83247e-21)
(0.174261 0.0201814 1.01991e-20)
(0.17001 0.0206725 -2.03215e-20)
(0.189251 0.0255096 -2.60425e-20)
(0.0253787 0.0129633 1.39513e-20)
(0.00448563 0.00784812 -5.09734e-20)
(1.00951 0.0394831 -1.55055e-21)
(1.00917 0.0403503 -3.24764e-21)
(1.00857 0.0393203 -1.56732e-21)
(0.970573 0.110537 -1.49128e-23)
(0.974391 0.110681 -3.35896e-21)
(0.970408 0.11258 -5.64731e-21)
(0.993275 0.0502299 -1.47612e-22)
(0.993025 0.0486671 1.83123e-21)
(0.994371 0.0494532 -1.20263e-21)
(1.01291 0.0799582 7.0443e-21)
(0.986148 -0.000418399 -8.3852e-23)
(1.02016 0.158356 -8.1825e-21)
(1.0048 0.0259681 5.65627e-22)
(1.00457 0.026665 -4.16234e-21)
(0.993626 0.00578224 1.29446e-21)
(0.993598 0.005524 -3.16101e-21)
(0.993402 0.00555734 -1.04766e-21)
(0.993988 0.0187425 1.1246e-21)
(0.994181 0.0184908 8.06843e-22)
(0.994232 0.0189187 -1.16371e-21)
(0.993705 0.01859 -3.56606e-22)
(0.993721 0.0190059 1.33861e-21)
(0.31124 0.0569121 1.3577e-20)
(1.09648 0.157294 0)
(1.09869 0.158582 0)
(0.996338 0.0635392 0)
(0.53824 0.111289 -9.38305e-21)
(0.540585 0.111561 0)
(0.575182 0.119788 0)
(0.999009 0.000968163 1.5962e-21)
(0.998486 0.000711802 -2.5225e-21)
(1.00003 0.00120748 2.21538e-21)
(0.990329 -0.00447263 -1.35707e-23)
(0.990122 -0.00440689 3.67647e-22)
(0.990295 -0.00419399 -3.20494e-22)
(0.990355 -0.00474545 -7.69185e-22)
(0.990524 -0.00455337 1.92752e-22)
(0.309184 0.0819051 -1.06949e-21)
(1.02792 0.173773 -1.0669e-20)
(1.03149 0.172385 -6.94817e-21)
(1.02865 0.171407 9.73071e-23)
(1.02032 0.177799 1.44332e-23)
(1.02069 0.179114 -5.11048e-21)
(1.01704 0.175514 5.04498e-21)
(1.02296 0.00440761 0)
(1.02322 0.00494476 9.82675e-21)
(1.02357 0.00442872 0)
(1.01189 -0.000716114 -7.16683e-25)
(1.0085 -0.000468023 -7.8496e-25)
(0.817094 0.0901489 1.47728e-21)
(0.82679 0.0894548 -5.94128e-21)
(0.117829 0.0201175 1.347e-20)
(0.990625 -0.00367731 -8.03557e-22)
(0.990565 -0.00386203 1.60974e-22)
(0.990415 -0.00366526 2.24842e-22)
(0.99064 -0.00346082 -7.77736e-22)
(0.990812 -0.00366813 -7.92835e-22)
(0.99665 -0.000299079 3.77411e-22)
(0.997142 -0.000222305 6.03851e-23)
(0.99039 -0.00503169 -3.6328e-22)
(0.990164 -0.0049771 1.90666e-22)
(0.990427 -0.00535624 4.14715e-23)
(0.990599 -0.00513258 4.15327e-23)
(0.242052 0.037578 -2.04914e-20)
(0.256431 0.0416764 3.15775e-21)
(0.343034 0.0654967 1.16495e-20)
(0.345869 0.0687031 -6.6612e-21)
(0.372775 0.0723535 -8.38733e-21)
(1.00275 0.0216749 3.39041e-21)
(1.00277 0.0211411 1.53997e-21)
(1.00314 0.0216916 1.6159e-21)
(1.02238 -0.00898663 1.26223e-22)
(1.02242 -0.00955148 8.99651e-24)
(1.0218 -0.00913365 3.53157e-24)
(1.03646 0.141085 2.32971e-21)
(1.03441 0.139531 4.97161e-22)
(1.03663 0.138792 2.18176e-22)
(0.221594 0.0404998 6.15194e-21)
(0.210895 0.0354339 1.76361e-20)
(0.228296 0.0412759 9.50081e-21)
(0.992952 -0.000645562 3.34986e-22)
(0.992521 -0.000441175 1.86191e-23)
(0.992761 -0.000450148 0)
(1.02239 0.00446178 -5.64793e-21)
(1.02268 0.00396645 0)
(0.97173 0.108313 1.73619e-21)
(0.940901 0.108914 1.97415e-21)
(0.683338 0.167173 -7.14575e-21)
(0.671584 0.165701 1.95067e-21)
(0.728904 0.173925 -1.67825e-20)
(1.02766 0.175541 -1.25128e-20)
(0.538338 0.111787 -7.08298e-21)
(0.506087 0.102557 -7.11265e-21)
(1.01366 0.13765 3.6606e-21)
(1.01201 0.135715 5.0351e-21)
(1.01112 0.138135 8.28952e-22)
(1.00242 0.0129084 -3.38395e-21)
(1.00232 0.0133322 3.28604e-22)
(0.394015 0.0970534 -8.78324e-21)
(0.401427 0.100473 -2.6078e-21)
(1.03824 0.142944 -7.0049e-21)
(1.03573 0.143699 -3.39534e-21)
(0.990325 0.0588222 2.61634e-21)
(0.990247 0.0568355 5.27304e-22)
(1.07162 0.151968 -1.37201e-20)
(1.07011 0.15359 0)
(1.07263 0.154358 2.22771e-20)
(1.00979 0.0386055 -2.7442e-21)
(1.01042 0.0395458 1.59887e-21)
(0.346377 0.0627483 1.71173e-20)
(1.04497 0.0143308 -5.14823e-21)
(1.04404 0.0143838 0)
(1.04495 0.0152988 0)
(1.02418 0.0977049 6.16847e-21)
(1.02285 0.0984054 -9.20491e-22)
(1.02472 0.099203 7.59913e-21)
(1.02522 0.125749 -2.92913e-21)
(1.02734 0.124265 0)
(1.0248 0.12333 5.83674e-22)
(1.00196 0.0216024 3.43381e-21)
(1.00239 0.0216145 2.08277e-21)
(1.00196 0.0211124 -3.21159e-21)
(0.997447 -0.000127902 1.92795e-22)
(1.03742 0.0499778 6.72173e-21)
(0.99501 0.0172697 5.66657e-22)
(0.995163 0.0170991 3.55348e-21)
(0.994947 0.0169082 5.73177e-22)
(0.989122 0.00526052 5.42217e-22)
(0.989293 0.00551749 5.32909e-22)
(0.989053 0.00553503 7.79776e-23)
(0.144258 0.034385 0)
(0.133883 0.0295624 7.10078e-22)
(0.126525 0.028749 -1.2595e-20)
(0.772827 0.0279974 1.50796e-21)
(0.812991 0.0291649 -9.44413e-21)
(0.833803 0.024722 4.49756e-21)
(0.986898 0.000843136 -2.78783e-22)
(0.98713 0.000979829 5.30529e-22)
(0.987106 0.000659735 5.46394e-22)
(0.990535 -0.00320626 9.32959e-22)
(0.990696 -0.00323681 2.81125e-22)
(0.997063 0.0164321 0)
(0.996796 0.0162984 -1.49688e-21)
(0.990383 -0.00318285 -3.0466e-22)
(0.990469 -0.00299893 6.11936e-22)
(1.04611 0.0142561 -1.15242e-20)
(1.01857 0.000893049 0)
(1.01365 0.000518827 0)
(1.05106 0.101628 1.51095e-22)
(1.05125 0.103858 -2.41142e-21)
(1.04913 0.102973 -1.49276e-21)
(0.986659 0.000731238 -1.40103e-21)
(0.98669 0.00107134 -1.5156e-22)
(0.0101224 0.0177377 9.07655e-21)
(0.0275107 0.0234297 9.79415e-21)
(0.396385 0.0696298 -1.80032e-20)
(0.413017 0.0751997 -1.0757e-22)
(1.02057 0.0229265 0)
(1.02111 0.0223577 0)
(1.02008 0.0221165 0)
(0.995698 0.0172173 6.38028e-22)
(0.995574 0.0174592 0)
(0.995797 0.0176455 6.33582e-22)
(0.99802 0.162701 2.62144e-21)
(0.995789 0.159466 -1.99715e-23)
(0.995875 0.1634 -3.89909e-21)
(0.993639 -0.00820876 3.32444e-22)
(0.993778 -0.00863872 5.91006e-23)
(0.993966 -0.00824904 -5.96584e-24)
(0.983113 0.0921995 -6.44498e-22)
(0.982455 0.093781 -6.0793e-22)
(0.984558 0.0935045 4.85254e-22)
(0.162778 0.0405628 0)
(0.155107 0.0393425 0)
(0.993505 -0.00782481 4.63358e-23)
(0.993313 -0.00820891 4.25409e-23)
(0.194715 0.0304281 3.52259e-22)
(0.187462 0.0296066 0)
(0.988964 0.00499033 0)
(0.989185 0.00499235 0)
(0.700811 0.147012 -1.42249e-20)
(0.652706 0.138174 8.33077e-22)
(1.00039 -0.000694954 1.70721e-23)
(0.999187 -0.000354478 -4.93065e-23)
(0.998235 0.0309329 -7.08788e-22)
(0.998165 0.0301139 0)
(0.998766 0.0305243 1.43073e-21)
(1.00158 0.0216104 -2.19987e-21)
(1.00196 0.0221311 2.81734e-21)
(1.00038 0.0119391 4.48111e-21)
(1.00006 0.0115402 -1.25987e-21)
(1.00039 0.0115417 -3.98618e-21)
(1.05042 0.179759 8.11634e-22)
(1.05168 0.177993 1.56638e-20)
(1.05247 0.180514 4.43271e-21)
(0.992387 0.000482297 -5.79928e-22)
(0.992623 0.000468901 -1.86049e-21)
(0.991947 0.000214433 -2.10982e-21)
(0.970814 0.0958218 6.575e-24)
(0.971101 0.0980527 8.60283e-22)
(1.02908 0.0740414 4.76624e-21)
(1.02763 0.0747196 3.68555e-21)
(1.02798 0.0727955 9.5477e-21)
(0.982516 0.00090834 0)
(0.981992 0.000989241 0)
(0.975811 0.114759 0)
(0.975057 0.111782 -1.58252e-21)
(0.973574 0.112327 0)
(-0.00128375 0.0127646 -5.67141e-22)
(0.993245 -0.000840397 1.0874e-23)
(0.993513 -0.000847139 4.68076e-22)
(1.05369 0.12571 4.35274e-21)
(1.05447 0.127877 -3.20495e-21)
(1.05614 0.126163 3.9433e-21)
(0.995089 0.0179926 -2.01733e-22)
(0.995049 0.0176354 -3.0645e-22)
(0.995271 0.0178771 2.01065e-21)
(1.01972 0.0534974 5.10985e-21)
(1.01854 0.0536515 -9.8024e-22)
(1.01907 0.0521684 8.06617e-21)
(0.995097 0.0184714 2.4423e-22)
(0.995346 0.0187032 1.50795e-21)
(1.02842 0.0504066 1.14269e-20)
(1.0287 0.0517177 5.1165e-21)
(0.989814 0.00499983 -1.17226e-21)
(0.989607 0.00499086 -1.07312e-21)
(0.989668 0.00473622 1.1367e-21)
(0.99293 0.000673959 2.13627e-21)
(0.992048 0.000434954 4.4347e-21)
(1.01208 0.150658 4.55001e-21)
(1.01208 0.153564 -3.87127e-21)
(1.01441 0.1523 1.0997e-20)
(0.98949 0.0152831 1.1687e-21)
(0.988857 0.0154082 5.38908e-22)
(0.989013 0.0145938 -1.31835e-22)
(1.02589 0.0967239 -1.25728e-20)
(1.02381 0.0960237 7.22807e-21)
(1.02945 0.0499711 -1.51434e-20)
(1.02811 0.0492865 3.33298e-21)
(1.02194 0.00442105 -5.1651e-21)
(1.02171 0.00392178 8.274e-21)
(1.02141 0.00435228 -8.9868e-21)
(0.331419 0.0983243 -6.24978e-21)
(0.35392 0.103598 -2.96903e-20)
(0.173179 0.0180225 3.41868e-20)
(0.151273 0.0154483 9.11622e-21)
(0.99337 0.00732904 -1.94315e-21)
(0.993179 0.00708117 -9.02383e-22)
(0.993372 0.00707255 -2.86608e-22)
(1.00385 -0.0219329 -1.25867e-23)
(1.00547 -0.0212108 -1.35891e-21)
(1.00258 -0.0215556 1.69755e-23)
(1.02045 0.0546832 8.0294e-21)
(0.988491 0.016559 0)
(0.989078 0.0160434 2.05327e-22)
(0.98997 0.0166437 0)
(1.10567 0.188863 0)
(1.10593 0.191975 0)
(1.10848 0.189915 3.36373e-20)
(0.407324 0.0739245 1.88232e-21)
(0.385562 0.0668584 -7.03875e-21)
(0.382542 0.0642838 1.16001e-20)
(0.549915 0.126601 4.34642e-21)
(0.578639 0.128098 6.3264e-21)
(1.03157 -0.00826014 5.21298e-23)
(1.03232 -0.00881671 0)
(1.02191 -0.00657752 -3.01774e-22)
(0.989675 0.130711 1.82083e-21)
(0.989228 0.127857 -3.9156e-22)
(0.99582 0.0169922 1.28918e-21)
(0.995597 0.016824 -1.846e-21)
(0.865256 0.180225 7.95414e-21)
(0.830294 0.173755 1.81219e-20)
(0.991195 0.0155146 1.60165e-22)
(0.988364 0.0169933 0)
(1.08589 0.203861 -9.02816e-21)
(1.07891 0.200397 1.53906e-20)
(1.01909 0.000928363 7.93651e-21)
(1.01373 0.000305864 0)
(0.997703 0.0312556 -1.27369e-21)
(0.997128 0.0307026 -3.12287e-21)
(0.975136 0.107132 -1.42522e-21)
(0.998177 0.0169014 1.79476e-21)
(0.998473 0.0169854 1.65173e-21)
(0.998355 0.0173312 -1.21369e-21)
(0.988304 0.0393543 -1.78729e-22)
(0.988228 0.0380071 -1.19941e-21)
(1.07936 0.167961 1.08417e-20)
(1.07734 0.170054 -2.39961e-21)
(0.990215 -0.000353616 1.48015e-24)
(0.990481 -0.000294821 -8.24991e-23)
(0.991027 -0.00020779 3.77321e-22)
(0.436795 0.11339 -7.3926e-22)
(0.402147 0.104484 0)
(1.01006 0.00352369 -1.28471e-21)
(1.01008 0.0041515 8.40905e-21)
(1.00956 0.00380101 2.67374e-21)
(1.12263 0.108857 -2.91292e-21)
(1.12465 0.111074 -2.02101e-20)
(0.996331 -0.0146763 0)
(0.996924 -0.0148007 1.65554e-23)
(0.996538 -0.0153294 0)
(0.187431 0.0119762 6.12933e-21)
(0.187407 0.0129465 -3.45722e-21)
(0.994781 0.00369385 -1.45448e-21)
(0.994556 0.00352874 1.14317e-21)
(0.994737 0.00342389 -1.10186e-22)
(1.02731 0.0961052 -1.02909e-20)
(1.02705 0.0943802 -6.44658e-22)
(1.02876 0.0953424 -1.10796e-21)
(0.992293 0.0509792 -9.95309e-22)
(0.993813 0.0516639 3.09075e-21)
(1.0315 -0.00918855 5.07753e-23)
(1.03648 -0.0097244 -1.71247e-21)
(0.990474 -0.000607229 8.75655e-23)
(0.990086 -0.000488011 -1.50999e-22)
(1.07475 0.154894 1.20546e-20)
(1.07713 0.155631 -8.11174e-21)
(1.07646 0.153094 -9.16533e-21)
(0.751132 0.174089 6.35476e-21)
(0.802181 0.182054 -3.34305e-20)
(0.761477 0.174899 -2.0711e-20)
(1.0133 0.0319794 2.60937e-21)
(1.01255 0.0321815 -1.07769e-21)
(1.01279 0.0310906 8.55922e-21)
(0.997887 0.0167907 1.90323e-21)
(0.998028 0.0164582 0)
(0.329767 0.0679128 -2.8095e-23)
(0.337626 0.0689892 0)
(0.727006 0.173552 -7.56074e-21)
(0.741247 0.174214 3.14788e-20)
(0.782087 0.18043 -1.60458e-20)
(0.760239 0.159135 -1.08784e-20)
(0.787163 0.162108 3.4553e-21)
(0.732131 0.156656 -1.00534e-20)
(0.950083 0.0531149 0)
(0.932723 0.0505887 0)
(0.993358 -0.00743595 1.79545e-22)
(0.993701 -0.0074436 0)
(1.00436 0.0229566 0)
(1.0044 0.02235 1.70955e-21)
(1.00482 0.0229339 0)
(0.660956 0.164841 -1.72297e-20)
(0.649962 0.163739 3.89237e-21)
(0.706784 0.171901 7.55636e-22)
(0.991594 0.131257 2.44217e-21)
(0.98984 0.133271 0)
(0.992992 -0.00744808 -3.15947e-22)
(0.993143 -0.00703658 1.5493e-22)
(0.994853 0.018167 -1.55172e-21)
(1.01973 0.0274448 2.2831e-21)
(1.01993 0.0283259 -6.41064e-21)
(1.01914 0.0277141 3.73068e-22)
(0.991415 0.0739371 1.06853e-21)
(0.989571 0.0738447 1.26241e-21)
(0.990475 0.0758119 -3.26016e-22)
(1.02758 0.0977095 -3.64003e-21)
(1.03696 0.163766 1.80018e-20)
(1.03907 0.162605 -6.62338e-21)
(1.03698 0.16115 -8.86946e-23)
(1.00155 0.125641 0)
(1.00256 0.123434 2.3977e-21)
(1.00423 0.125523 3.47635e-21)
(0.984331 0.0904491 -9.05647e-22)
(0.98194 0.0905012 -1.37419e-22)
(1.11497 0.110369 1.34486e-20)
(1.11269 0.111355 1.22196e-20)
(1.11462 0.113152 1.43785e-20)
(0.297418 0.0479949 0)
(0.279046 0.0415016 -1.90802e-20)
(0.290375 0.0471937 -7.98277e-21)
(0.994111 0.00859377 -5.20937e-22)
(0.994304 0.00859492 -5.76266e-22)
(1.01384 0.0328712 -3.53122e-21)
(1.01404 0.0317844 0)
(0.994626 0.0189477 -7.35096e-22)
(0.994652 0.0193415 -3.3619e-22)
(1.05299 0.186788 -6.89499e-21)
(1.05524 0.186918 0)
(1.0526 0.188809 0)
(0.992071 -0.00040634 -8.62162e-23)
(0.992679 -0.000206408 -2.42096e-22)
(0.991798 -0.000406218 -7.53004e-23)
(0.218264 0.0193276 2.63921e-20)
(1.11727 0.109732 -1.21473e-20)
(1.11496 0.10815 -1.92938e-21)
(0.894012 0.00595297 -2.89221e-21)
(0.881508 -0.00213293 7.01013e-22)
(1.01414 0.0286088 -6.12577e-21)
(1.01493 0.0290232 5.39361e-22)
(0.994802 0.128605 5.64952e-22)
(0.993879 0.130849 1.63652e-22)
(0.996635 0.130597 -4.77439e-21)
(1.00453 -0.0226556 0)
(1.00322 -0.0227591 0)
(0.976289 0.0109523 0)
(0.985208 0.0112352 0)
(0.945915 0.0120389 -8.76967e-22)
(0.984349 -0.00195331 -3.79423e-22)
(0.984352 -0.00152969 0)
(0.984693 -0.00177723 0)
(1.02347 0.180104 -1.70916e-21)
(1.00131 0.165895 0)
(0.990643 0.0506904 -2.39252e-22)
(0.991174 0.0524681 -2.92471e-21)
(1.02005 0.0233893 -7.7436e-21)
(1.02107 0.0237115 -4.11624e-21)
(0.992197 0.191019 3.76188e-21)
(0.998357 0.191523 0)
(0.960224 0.187177 -1.42603e-20)
(0.996586 -0.0172549 1.64045e-22)
(0.997282 -0.0173546 -4.56345e-23)
(0.997012 -0.0166551 -5.58192e-23)
(0.476913 0.113017 2.72393e-21)
(0.439184 0.106458 7.93868e-21)
(1.03369 0.173604 -2.00206e-21)
(0.983944 -0.00212783 -3.8052e-22)
(0.984368 -0.00236946 -1.72312e-22)