/*--------------------------------*- C++ -*----------------------------------*\
| =========                 |                                                 |
| \\      /  F ield         | OpenFOAM: The Open Source CFD Toolbox           |
|  \\    /   O peration     | Version:  v2012                                 |
|   \\  /    A nd           | Website:  www.openfoam.com                      |
|    \\/     M anipulation  |                                                 |
\*---------------------------------------------------------------------------*/
FoamFile
{
    version     2.0;
    format      ascii;
    class       volVectorField;
    location    "500";
    object      U_0;
}
// * * * * * * * * * * * * * * * * * * * * * * * * * * * * * * * * * * * * * //

dimensions      [0 1 -1 0 0 0 0];


internalField   nonuniform List<vector> 
13851
(
(1.05696 -0.016218 2.40709e-22)
(0.651529 0.0679511 -1.19636e-21)
(1.04425 -0.00674726 0)
(1.05449 -0.0180401 -6.78749e-23)
(1.06195 -0.00717191 0)
(1.06612 -0.0741144 0)
(1.03158 0.00691068 2.81783e-21)
(1.05059 0.00205224 0)
(1.0015 -0.00850786 -1.51422e-22)
(1.03201 0.0162175 -5.53397e-22)
(0.97325 0.0930933 1.37063e-22)
(0.268794 -0.00253883 -3.17825e-21)
(0.803386 -0.0337154 -9.62845e-21)
(0.148566 0.0440676 0)
(1.0233 0.000693589 0)
(1.05223 0.010096 0)
(1.04958 0.00666305 6.12951e-21)
(1.06579 0.00530587 1.30837e-22)
(0.928034 -0.0323593 1.05361e-20)
(1.00208 -0.00847502 1.51386e-22)
(1.05297 -0.0175911 5.97387e-23)
(1.0466 -0.00717639 -8.4112e-21)
(1.00696 0.000476002 0)
(1.00048 -0.000522442 6.26171e-23)
(1.00532 0.000174413 -5.73e-23)
(1.04967 0.00235989 6.15162e-21)
(1.04906 0.00821783 -2.09346e-20)
(0.000299007 -0.110761 0)
(1.0562 -0.0149872 2.90844e-22)
(1.05438 0.00427211 0)
(1.06064 -0.0806787 -6.76022e-22)
(1.04991 0.00659946 2.7695e-22)
(1.04366 -0.00508043 2.3733e-21)
(0.960864 -0.0819096 -1.37364e-21)
(1.00105 -0.000711352 -5.48596e-23)
(1.07457 0.0114321 2.46966e-21)
(1.07383 0.0152205 -2.63983e-20)
(1.00706 -0.0351671 -8.42623e-21)
(1.02912 0.0163426 1.82109e-21)
(0.959228 -0.079773 2.22003e-21)
(1.03466 -0.00773646 0)
(1.02069 -0.00119219 0)
(0.0128175 0.0149394 2.66523e-20)
(0.988944 0.0988956 0)
(0.98915 0.0967235 0)
(0.0454578 -0.0129273 -2.52551e-20)
(0.994864 0.0873586 -4.75193e-23)
(1.0333 -0.0287507 -4.00374e-21)
(1.04956 0.00823254 6.32886e-21)
(0.953727 -0.0275805 7.76697e-22)
(1.06738 0.000936439 1.49499e-20)
(1.07555 -0.00445641 -2.66357e-20)
(-0.0212533 -0.0532234 2.46579e-20)
(1.02363 0.000313033 3.53019e-21)
(1.02213 -0.000727205 -8.37951e-22)
(1.02123 -0.00166925 4.94379e-23)
(0.998956 0.000406861 -2.31334e-22)
(-0.0496831 -0.0768843 5.27785e-20)
(1.05401 0.00379643 -1.17156e-21)
(1.03406 0.0062961 0)
(0.987286 -0.037779 0)
(0.377099 -0.0982141 4.09157e-21)
(1.09202 0.0157172 8.06633e-22)
(1.06537 -0.00845179 -1.54706e-20)
(0.789438 -0.0103754 -4.00671e-21)
(1.06279 -0.0216267 -1.27617e-23)
(1.04831 0.0133062 0)
(0.997369 0.0804093 -1.55983e-22)
(1.05701 0.00540678 7.34221e-22)
(1.06651 0.00456817 -1.90225e-22)
(0.361544 -0.0217344 -7.79541e-22)
(0.981643 0.00590622 1.618e-20)
(0.739965 0.0793815 -1.86017e-21)
(1.02334 0.000276779 -3.15678e-21)
(1.02218 -0.00156774 1.44862e-21)
(1.00095 -0.0134171 4.29232e-22)
(1.04778 -0.00610675 0)
(0.38167 -0.0307993 5.54314e-20)
(1.05766 0.000354265 -7.11453e-21)
(0.366469 -0.0223537 -5.77956e-21)
(1.03847 0.00634994 0)
(1.00633 -0.0540119 -1.9064e-22)
(1.02943 0.00151188 -4.66461e-21)
(0.0479468 -0.00556944 0)
(1.09056 0.0188692 1.00243e-21)
(0.282558 -0.00434595 1.55687e-21)
(1.05602 -0.0615925 4.05725e-22)
(0.44177 -0.0113609 9.21461e-22)
(1.05036 0.00699295 0)
(1.00734 0.0165272 0)
(1.07456 0.0108223 0)
(1.02792 -0.0419207 0)
(1.00226 0.0796628 7.86579e-23)
(1.05241 0.00638109 1.49614e-20)
(1.05022 0.00707394 -1.05985e-21)
(0.997751 8.33135e-05 -7.36413e-24)
(1.06319 -0.00727316 0)
(0.513314 -0.0413376 -1.85558e-20)
(0.949906 -0.0286007 2.09075e-22)
(0.997743 5.29296e-05 -2.738e-23)
(-0.049921 -0.0442815 1.23237e-20)
(1.06114 0.00128786 -1.17769e-21)
(1.04927 -0.00591915 2.63958e-21)
(1.04895 0.0111865 0)
(1.00868 -0.00021583 8.86953e-24)
(1.04459 -0.0605192 0)
(1.06309 0.00118179 -1.1172e-20)
(1.01726 -0.00253244 0)
(0.883726 -0.00221033 1.83084e-20)
(1.07288 -0.074274 -1.35294e-21)
(0.998171 -0.000183201 -9.52739e-24)
(1.00711 0.0170654 0)
(1.02805 -0.0413288 1.97544e-23)
(0.999588 -8.78175e-05 -3.02754e-23)
(0.998359 -0.000277429 3.521e-23)
(0.71824 0.0932095 -1.38905e-21)
(0.536905 -0.0426624 0)
(1.0167 -0.000457308 -1.3409e-22)
(1.01087 -0.000934403 1.47866e-23)
(1.02028 -0.000741194 0)
(0.00786531 0.0202591 1.00516e-22)
(1.04863 0.0108408 -2.99525e-21)
(0.771111 -0.037361 4.76859e-21)
(0.855602 -0.138541 -5.18185e-21)
(1.05072 -0.0414783 0)
(1.03721 0.0284814 -1.41514e-22)
(1.05528 -0.0561531 -1.00707e-21)
(1.05935 0.000625111 -3.05684e-22)
(1.05126 -0.0186212 1.46064e-22)
(1.0662 -0.0174622 0)
(1.03393 -0.00747941 1.0657e-21)
(1.01024 -0.00648561 0)
(0.380939 -0.0238357 7.25497e-22)
(1.02899 0.00158635 4.45462e-21)
(0.709251 0.0726944 -4.26427e-21)
(1.01067 -0.00250743 -3.48384e-22)
(1.0165 -0.000391024 -1.06011e-22)
(0.983716 0.00544579 -2.03997e-20)
(0.0150648 -0.073452 0)
(0.518338 0.0367263 0)
(-0.0796056 -0.0545495 -2.15104e-20)
(1.02178 -0.000702653 0)
(1.00213 -0.0285135 -3.857e-22)
(1.03152 0.00492516 2.90462e-23)
(1.04748 0.00575794 5.62339e-21)
(0.989182 0.0971645 0)
(1.03012 -0.0360448 1.97573e-22)
(1.06474 -0.0188946 -5.94924e-21)
(1.03113 0.0066374 6.8643e-21)
(0.987021 0.0972321 1.03002e-22)
(1.06772 0.00769867 0)
(1.0205 -0.00101323 3.52837e-22)
(0.174374 0.0480267 -3.09932e-21)
(0.999058 0.000418745 -2.63074e-22)
(1.04544 0.00693592 -7.5454e-21)
(1.04742 0.00555008 0)
(1.01995 -0.0140091 1.40886e-22)
(1.05039 0.0035022 -3.57224e-21)
(1.07533 -0.00542847 3.95568e-20)
(1.06676 0.000544644 -1.41966e-20)
(1.02051 -0.0104213 0)
(1.05376 0.00745066 5.6628e-21)
(-0.0453273 -0.0746564 -3.0076e-20)
(1.00961 -0.00629803 0)
(1.05692 0.00862902 1.19304e-21)
(1.02606 0.00211263 0)
(1.03148 -0.0382262 -1.86595e-22)
(1.05752 0.00543701 0)
(1.05017 -0.0180264 -1.43984e-22)
(0.398687 -0.0461588 4.3772e-20)
(0.366876 -0.0309603 -4.47871e-20)
(0.999061 -0.000938364 4.85155e-22)
(1.02078 -0.0139819 -5.12984e-22)
(0.442593 0.0288412 -8.34867e-22)
(1.00938 -0.00574084 -3.09856e-22)
(1.01666 -0.0102005 3.06838e-21)
(1.05867 0.000721957 0)
(1.00731 -0.0289804 4.66639e-22)
(0.9054 -0.0332374 0)
(1.01835 -0.00369243 -5.41128e-25)
(1.05034 0.00669093 3.68546e-21)
(0.954715 0.00383292 -3.35804e-23)
(1.0281 0.00171984 7.60751e-21)
(1.0472 -0.00912537 1.46124e-20)
(1.01307 -0.00164028 -4.83978e-25)
(1.00216 0.000542906 2.51573e-22)
(1.06397 -0.0201108 2.32842e-22)
(1.02194 -0.000978677 0)
(1.06142 -0.0107644 1.06874e-20)
(1.05311 0.0326911 2.76855e-22)
(0.999365 0.0863588 1.09722e-22)
(-0.0285101 -0.0568797 1.10167e-20)
(1.00771 0.0187428 0)
(1.05593 0.00461905 -1.23889e-20)
(0.397319 -0.0956684 -1.18639e-20)
(1.04502 0.00671467 0)
(1.00191 -0.0271162 -1.76642e-22)
(0.94647 -0.0779018 5.19799e-22)
(1.00631 -0.0282287 -1.84912e-22)
(1.00147 -0.0140903 -8.36209e-23)
(1.03554 0.028923 9.10531e-23)
(0.161567 -0.0578854 0)
(1.01026 -0.000434926 -1.09918e-21)
(1.03009 -0.0011658 0)
(1.04781 0.0244031 0)
(1.02853 0.00189319 -2.5057e-21)
(0.214435 -0.103421 -2.64428e-21)
(1.04968 0.00667836 0)
(0.446771 -0.0279035 -4.76044e-20)
(1.01896 -0.00672736 -2.92206e-23)
(0.646508 -0.0245023 3.26464e-20)
(1.04806 -0.00596549 1.86623e-21)
(0.938096 -0.0932454 -3.0835e-21)
(1.0165 -0.00380365 4.44567e-23)
(1.02988 0.00241199 -1.26737e-22)
(0.965146 0.0820373 2.65066e-22)
(1.08219 0.0192953 0)
(0.010856 -0.0107199 -2.62971e-20)
(1.02439 0.00123195 -2.13715e-21)
(0.45672 -0.0282303 2.91363e-20)
(1.05001 0.00672456 4.33186e-21)
(1.03905 0.00654781 0)
(0.613838 -0.0329633 0)
(1.07218 -0.0103844 2.21975e-20)
(0.595487 -0.0221435 3.0388e-21)
(1.00269 0.000320958 0)
(1.05333 0.00559001 0)
(1.00715 -0.000126857 0)
(-0.0474371 -0.0332595 1.69895e-20)
(1.01666 -0.00432913 -2.35947e-23)
(1.04945 0.00325705 -1.02158e-20)
(0.788894 0.0140693 6.36314e-21)
(0.999124 -0.000785006 -5.58698e-24)
(1.00799 0.0182689 0)
(1.06611 0.00271231 0)
(1.06626 0.0143782 3.9933e-22)
(0.253143 -0.100753 -2.95386e-21)
(0.715615 -0.0119615 9.95458e-22)
(1.03167 0.00392914 6.76906e-23)
(1.03033 -0.000966401 0)
(1.05413 -0.078147 1.86148e-22)
(0.908768 -0.0300235 4.668e-22)
(1.02617 -0.0172061 -5.06106e-24)
(1.0468 0.0265682 0)
(1.0109 -0.000376631 0)
(0.542569 -0.0250646 2.88195e-20)
(1.06106 0.0006818 0)
(0.951487 -0.0865878 -1.20382e-21)
(1.04807 0.00541369 -3.13722e-21)
(1.05103 0.00710258 0)
(1.01684 -0.036689 2.05272e-22)
(0.897499 -0.0369443 -7.20129e-23)
(1.04097 0.00399946 0)
(1.04807 0.00559583 0)
(1.06376 0.00402668 -1.85245e-20)
(0.955823 0.0300302 5.37866e-22)
(1.05941 0.0306633 0)
(0.96 0.00286483 1.55887e-20)
(0.298758 -0.0273615 -2.68737e-20)
(1.02537 0.0031252 0)
(1.03 0.00334195 -2.27556e-22)
(1.06605 0.00230441 -2.56962e-22)
(1.05078 -0.159724 -4.91887e-21)
(1.02916 0.0169673 1.99682e-22)
(0.807021 -0.0452108 0)
(1.04498 0.00661304 -1.21517e-20)
(1.04044 0.00405275 5.23281e-23)
(1.05226 0.0064466 0)
(0.644028 -0.0319625 1.98911e-20)
(1.00952 0.040851 0)
(1.01617 -0.036609 0)
(1.04547 0.00683881 1.98222e-22)
(1.07936 -0.113883 1.0065e-21)
(1.05729 0.00109836 0)
(1.05268 0.0100941 3.35539e-21)
(1.01048 -0.00703988 2.96351e-22)
(1.00214 -0.0561549 -2.94284e-22)
(1.00552 0.0552516 1.39729e-22)
(0.637184 -0.0171538 0)
(0.976746 0.0927316 2.82097e-23)
(1.02552 -0.01811 1.30829e-25)
(1.01738 -0.00643385 0)
(1.00875 -0.000298369 -1.08475e-23)
(1.06318 0.00428041 6.11963e-21)
(1.03439 -0.170913 0)
(0.959114 0.0191129 -1.04233e-21)
(1.00247 -0.0115941 0)
(1.02245 0.00192732 -1.09021e-21)
(1.06768 -0.117964 0)
(1.01172 -0.0556557 0)
(1.06473 -0.0209081 8.08033e-21)
(1.05293 0.00369217 1.53374e-21)
(1.03459 0.00627888 4.28039e-22)
(1.05735 0.00425357 -7.93032e-22)
(1.01241 -0.0552362 0)
(0.833229 -0.0420665 0)
(1.05552 0.00841362 2.16728e-21)
(0.290675 0.00679276 0)
(1.01121 -0.00781864 5.1381e-22)
(0.556652 -0.0250939 -3.27995e-20)
(1.05348 0.00753931 -5.96714e-21)
(1.04955 0.00664673 9.41609e-21)
(0.639326 -0.0191061 0)
(1.04132 -0.00233897 -4.5731e-21)
(1.048 -0.0630085 9.61562e-23)
(0.566395 -0.0297389 0)
(1.00259 -0.0109985 0)
(1.06106 0.00443761 0)
(1.05224 0.00627967 -1.87168e-20)
(1.05237 0.00318837 -3.05012e-21)
(0.038707 -0.0855592 -5.41459e-21)
(1.05582 0.00868615 -2.82512e-21)
(1.04078 0.00335381 6.48052e-21)
(0.581503 -0.0356965 -8.9814e-21)
(1.02221 -0.000281536 5.73752e-23)
(1.05113 0.00722066 0)
(1.03365 0.0314878 -4.15145e-23)
(0.673991 -0.0158223 0)
(1.07187 0.00857622 2.4911e-20)
(1.02463 0.00139343 -2.24657e-21)
(1.06253 0.00222309 5.73177e-21)
(1.02392 0.00170358 -4.27243e-21)
(0.353157 -0.0297219 0)
(1.01751 -0.0386149 -4.68482e-22)
(1.0059 0.000570685 -2.09956e-22)
(1.02243 -0.0192281 4.0556e-22)
(1.07191 0.00804989 0)
(1.05301 0.00593765 7.35565e-21)
(1.04508 0.00735166 1.15897e-20)
(1.02214 0.00182406 0)
(1.04065 -0.00231266 2.18996e-21)
(1.0406 0.00306925 -2.554e-21)
(0.983001 0.0978362 0)
(0.457844 0.0778552 -4.34199e-21)
(0.41896 -0.062035 0)
(1.07486 0.0027782 6.93203e-22)
(0.675482 -0.0169931 -2.02652e-20)
(0.563363 -0.076013 0)
(1.0235 0.000691622 3.61001e-21)
(1.05589 0.00423714 3.13239e-21)
(1.0629 -0.0226989 -1.63591e-20)
(1.02965 -0.0430939 2.94427e-22)
(1.06793 0.0185962 2.39394e-21)
(1.07361 -0.00211031 0)
(0.89679 -0.0364763 -1.18986e-20)
(1.02403 -0.0355608 0)
(0.920608 -0.1688 6.52121e-22)
(0.56233 -0.0281509 0)
(1.02305 0.000587548 0)
(0.979354 0.028024 1.04238e-21)
(0.972908 0.0300093 -1.29673e-21)
(0.769366 -0.0533376 0)
(1.04499 0.00739195 -7.87519e-21)
(1.07185 0.0191028 3.10051e-21)
(-0.0537236 -0.0386516 0)
(1.02142 -0.0145777 0)
(0.899928 -0.177385 1.00273e-21)
(1.02181 -0.0193467 3.85424e-22)
(1.02361 0.00159034 5.99121e-21)
(1.0118 -0.000559213 2.22793e-23)
(1.01743 -0.00297386 2.84913e-23)
(1.0191 -0.0121162 -2.94784e-22)
(0.589533 -0.0273724 0)
(0.856127 0.0127309 0)
(1.03364 -0.000427457 0)
(1.06058 0.00484454 0)
(1.02485 -0.000517824 -6.57184e-23)
(0.294751 0.0173119 6.15547e-22)
(1.05422 0.0136815 0)
(0.830198 0.0559612 0)
(0.42214 -0.0507946 -3.65042e-20)
(1.03414 -0.000606475 6.57892e-22)
(1.08387 0.0213222 0)
(1.05192 0.00611237 9.01031e-21)
(0.875576 0.0446638 9.06781e-22)
(1.03189 -0.00797263 -1.40232e-21)
(1.01695 -0.000329515 1.34225e-22)
(1.02219 -0.0388775 0)
(0.041257 -0.0266444 4.07563e-22)
(1.02199 -0.00133435 0)
(0.0734747 -0.0924474 7.99377e-21)
(1.02897 -0.042968 -2.51236e-22)
(1.07467 -0.00214073 -1.61311e-20)
(0.327325 -0.0432283 0)
(0.914844 0.0412073 -2.78847e-22)
(0.914165 0.035043 0)
(1.01233 -0.0347173 2.47634e-22)
(1.01351 -0.00655908 -8.37431e-22)
(1.02189 0.000187141 0)
(1.07316 0.00132719 7.7962e-23)
(1.06278 0.00269151 -1.39603e-20)
(0.263813 0.0598518 0)
(1.05795 0.00594982 -9.49456e-21)
(0.627397 -0.0210484 1.89284e-20)
(0.567799 -0.0297747 0)
(1.0249 0.000122884 1.43345e-22)
(1.02565 0.00335657 -3.24636e-21)
(0.397112 -0.0570697 2.28949e-21)
(0.382748 -0.0219678 1.1389e-20)
(0.815204 0.0190128 -4.13555e-21)
(0.555345 -0.0408251 -3.80908e-21)
(1.02166 -0.0395283 0)
(1.05223 0.00591924 -9.82401e-21)
(0.998644 0.000210215 0)
(0.61107 -0.0712465 -6.50022e-21)
(0.999233 -0.0037622 3.80018e-22)
(1.05202 0.00957822 -2.86218e-21)
(1.01213 -0.0340854 1.98564e-22)
(1.03127 0.00543212 2.33236e-21)
(1.00754 -0.000199884 -1.06504e-24)
(1.00198 -0.0103368 -4.45186e-23)
(1.02602 0.00144618 -8.78843e-23)
(1.06577 -0.00732124 1.80106e-20)
(1.06451 0.0151597 2.85424e-23)
(0.389082 -0.0275555 0)
(1.06891 0.00353949 0)
(1.06316 0.00176961 -6.32009e-21)
(1.07217 -0.0417091 0)
(0.885762 -0.029915 8.88889e-23)
(1.05184 0.00772774 0)
(0.729306 -0.0561306 0)
(1.04917 0.00656362 -9.5706e-23)
(0.970565 0.0835379 -2.56707e-22)
(1.01633 -0.000578276 0)
(1.00206 -0.00975044 4.2705e-23)
(1.00119 0.000303915 -3.20997e-22)
(0.882292 -0.0500968 -9.68356e-21)
(0.89607 -0.116373 0)
(1.07009 -0.0121444 1.78383e-20)
(1.07279 -0.0386096 2.89992e-22)
(0.359167 -0.0310982 0)
(0.962343 -0.0824714 0)
(1.0519 -0.0599587 -1.89156e-22)
(1.01956 -0.000800982 0)
(1.06653 0.0030839 -2.00685e-20)
(1.03117 -0.00769229 1.37837e-21)
(0.873621 -0.0356951 -8.58127e-23)
(1.00983 -0.000136785 6.12189e-23)
(0.595488 -0.0562545 -3.46525e-21)
(0.854306 -0.0628137 3.39915e-21)
(1.04274 -0.00106408 3.12824e-22)
(0.431189 -0.0292216 0)
(1.00539 -0.029035 -1.84606e-22)
(1.01914 0.0560723 -3.47443e-22)
(0.866707 -0.0781188 -4.99736e-21)
(0.282686 0.0193555 4.0038e-20)
(1.01361 -0.00189526 0)
(1.05273 0.0054527 0)
(1.05832 0.000157672 0)
(1.00291 0.0421238 1.59175e-22)
(0.99954 -0.00276526 -8.43074e-23)
(1.0411 0.00271452 -2.41474e-21)
(1.06729 0.00756682 0)
(1.07455 -0.00414632 -1.34936e-20)
(1.07228 0.00761624 8.5183e-22)
(0.663183 0.10935 1.51255e-21)
(1.00312 0.00048557 -2.18203e-22)
(1.02335 -0.0201593 4.53672e-23)
(0.00406385 0.00905081 0)
(1.05782 0.00904844 5.15048e-22)
(1.01678 -0.00599074 0)
(0.416627 -0.00800234 -3.44393e-21)
(1.01302 -0.00638927 2.77671e-22)
(1.05626 -0.0174471 0)
(1.00092 -0.00515355 -1.79587e-24)
(1.06154 0.0139971 -8.05756e-23)
(1.04933 0.00233894 0)
(1.01822 -0.00631409 0)
(1.00432 -0.0283921 0)
(0.600131 -0.0370642 0)
(1.02992 0.00161389 0)
(1.05854 0.00516611 -1.66464e-20)
(1.01123 -0.00282488 3.08737e-22)
(1.0416 -0.0428736 1.10445e-25)
(0.978832 0.0733054 -3.3032e-22)
(0.999972 -0.000107437 0)
(1.03231 -0.0115929 1.11398e-21)
(0.999615 -0.000164997 -6.39618e-24)
(0.999238 -0.000147216 5.41615e-23)
(1.01292 -0.00337171 5.65857e-23)
(1.03991 0.00430789 -1.04952e-20)
(1.05776 -0.0668776 -1.08823e-21)
(1.02768 0.00178401 -5.09863e-21)
(0.999181 0.000372781 0)
(-0.0954996 -0.0390553 -3.92526e-21)
(0.4208 -0.029063 -1.28346e-20)
(1.02899 0.00228408 2.98961e-21)
(1.04041 -0.0440181 -1.2046e-23)
(1.05167 0.00774095 4.34976e-21)
(0.91844 -0.0361391 0)
(0.0382013 -0.0048872 0)
(1.02407 -0.0199629 -3.13161e-22)
(0.853101 0.000196661 -6.5078e-22)
(1.03256 -0.00760792 9.81229e-22)
(1.05807 -0.00887335 -2.4718e-21)
(1.03288 0.00552875 1.39126e-21)
(-0.0564684 -0.0179852 1.83974e-20)
(1.01571 -0.00062358 -4.57768e-23)
(-0.018209 -0.043578 -2.99072e-20)
(1.06426 0.0286954 -1.6972e-22)
(1.02105 -0.000785222 -6.05967e-23)
(1.0382 -0.0434045 0)
(0.456464 -0.0393449 0)
(1.04876 0.00362666 1.12921e-20)
(1.0034 0.0660937 -4.80845e-22)
(1.01237 -0.00119781 -6.13993e-22)
(0.949438 -0.125956 4.93095e-22)
(1.02136 -0.000560613 1.90443e-21)
(1.00684 -0.00526127 0)
(1.01021 -0.00800591 -3.84621e-22)
(1.0301 0.00608211 7.14323e-21)
(0.404731 -0.0230454 1.05e-20)
(1.06529 0.00062745 0)
(1.0756 0.00195977 0)
(0.959242 -0.0214275 1.8041e-20)
(1.08434 0.0173267 0)
(1.02163 -0.0109187 0)
(0.663599 -0.0531729 -7.60369e-21)
(0.893361 -0.111689 -4.26027e-21)
(1.05044 0.00665327 4.25072e-21)
(1.05367 0.00725092 1.51108e-22)
(0.926389 -0.0311553 0)
(0.908172 -0.149396 9.3767e-22)
(0.682939 -0.022454 0)
(1.0226 0.000256038 0)
(-0.0622894 -0.0206855 2.3027e-20)
(0.0631283 -0.0110273 2.34909e-20)
(0.0940676 -0.0456015 4.57295e-20)
(1.05656 0.00894392 1.95353e-22)
(1.0371 -0.0442412 0)
(0.851259 -0.0309491 8.07979e-21)
(1.0096 0.0585386 9.69312e-23)
(0.989035 0.018773 -4.42147e-22)
(0.948266 -0.0819868 -7.41904e-22)
(0.496373 -0.0690168 1.30217e-21)
(1.0512 0.0035415 3.6472e-21)
(0.48325 -0.0738284 0)
(0.894702 -0.00689638 -4.97465e-22)
(1.01598 -0.000689367 -4.25376e-23)
(1.01479 0.0532433 -2.16324e-22)
(1.06597 0.000960686 0)
(0.393942 -0.028574 0)
(1.04867 0.00551606 3.18615e-21)
(1.02746 -0.000269621 -9.25541e-22)
(1.01939 -0.0134085 -2.77414e-22)
(1.03266 -0.00398183 -8.79642e-22)
(1.06213 -0.00951194 -1.25097e-20)
(1.06423 0.0131109 -1.59166e-23)
(0.468171 -0.0164864 0)
(0.629234 0.103835 1.21564e-21)
(1.00549 -0.00229594 0)
(0.00800202 0.0115835 1.17221e-21)
(0.430255 -0.0311736 -5.26888e-22)
(1.0345 -0.0667339 0)
(0.886398 -0.105629 -1.69566e-21)
(1.05802 0.00510106 1.38814e-20)
(1.01575 -0.00502908 1.22505e-23)
(1.00149 -0.00915383 2.08732e-22)
(1.02853 -0.0484365 2.13988e-22)
(0.640093 -0.0521839 8.53447e-21)
(1.04587 0.00701878 9.8466e-21)
(1.06973 0.00705817 1.37795e-20)
(1.07665 0.00917246 5.36014e-21)
(1.02082 -0.00207306 1.43001e-22)
(1.07556 -0.0481202 -2.00881e-22)
(0.986538 -0.131914 -3.82925e-21)
(0.854931 -0.0427064 -1.36393e-21)
(1.07226 -0.00480685 1.9153e-20)
(0.411886 -0.0231985 -2.13296e-20)
(0.902142 -0.00519272 1.83466e-20)
(1.03329 -0.00785726 0)
(1.03126 0.00570853 -2.46132e-21)
(0.529148 0.0148586 -3.58871e-21)
(0.556016 -0.0305583 -1.97378e-22)
(1.07368 0.00690631 1.96791e-20)
(1.05813 0.00630669 -1.57602e-20)
(1.0979 0.0165236 -1.61739e-21)
(1.01816 -0.00319467 0)
(1.02691 -0.00330123 1.18385e-21)
(0.574959 -0.0622532 0)
(1.01989 -0.00196969 -4.56814e-23)
(1.0487 0.00531711 -3.12186e-21)
(1.01778 -0.00390395 -3.22583e-23)
(1.0147 -0.0043156 0)
(0.871761 -0.010467 0)
(1.06404 -0.00847492 1.38733e-20)
(1.06913 -0.0362665 0)
(1.01956 -0.00232731 -9.1934e-23)
(0.115338 -0.09945 -7.56049e-21)
(0.941651 -0.0757093 1.80558e-22)
(1.01263 -0.00782766 2.56105e-22)
(1.0006 0.000833236 -4.52596e-22)
(1.02833 0.017774 -1.36883e-23)
(1.02268 0.000283353 -3.51692e-21)
(0.0193527 -0.0363735 2.74412e-20)
(0.950435 -0.0863654 -9.06252e-22)
(0.941328 -0.0918946 0)
(0.0568262 -0.0509331 -5.21248e-22)
(0.919209 -0.116271 4.53382e-22)
(1.05735 0.00664278 0)
(0.373239 -0.0285464 0)
(0.427786 -0.027688 4.80383e-21)
(1.0246 -0.0364463 1.11832e-22)
(1.05697 0.00501691 -1.24826e-20)
(1.01557 -0.0053321 5.73459e-24)
(1.03585 0.0317566 -3.74058e-22)
(1.05107 0.00867442 0)
(0.636898 -0.0388228 2.69904e-20)
(0.975638 -0.182899 -6.15666e-22)
(1.06966 0.00663316 0)
(1.0515 0.00613458 0)
(1.0016 -0.00734909 3.66932e-23)
(1.0536 0.0108373 2.73854e-21)
(0.995565 -0.0257671 -2.69737e-22)
(0.991886 0.064446 5.0046e-22)
(1.06614 -0.00140984 -1.66295e-20)
(1.02731 0.00162377 0)
(1.07428 0.00463041 -2.24365e-22)
(0.999767 -0.00285083 1.25728e-23)
(1.05222 0.00677459 0)
(1.06979 -0.0136814 -2.15368e-20)
(1.03348 0.00604949 5.3532e-21)
(1.03053 -0.00802189 -5.03389e-22)
(1.05348 0.0135765 2.76355e-21)
(1.03523 0.00418305 3.07777e-21)
(1.06142 -0.00829528 7.35214e-22)
(0.91373 -0.0455156 0)
(1.07138 -0.00972384 -3.41178e-21)
(1.05464 0.0115534 0)
(1.07376 0.00761297 -1.95026e-20)
(1.00165 -0.00690416 -3.73107e-23)
(0.937075 0.0244052 0)
(1.01761 -0.0377595 0)
(0.0138287 -0.0405626 -1.21745e-20)
(1.04723 -0.00537023 -5.54171e-22)
(0.997637 -1.84342e-05 9.97769e-23)
(0.906736 0.000441068 1.93355e-20)
(1.05582 0.000337596 0)
(0.294385 -0.0363865 3.44608e-20)
(0.545277 -0.0277292 0)
(-0.0254729 -0.00849048 -5.36751e-20)
(0.416981 -0.0112997 4.14089e-21)
(0.999525 -0.0038851 -3.82242e-22)
(0.959856 0.00436379 0)
(1.0264 -0.0194953 -3.65872e-23)
(1.01423 -0.00512944 6.70436e-22)
(1.01546 -0.000716028 0)
(1.015 -0.00477688 7.04469e-22)
(1.02813 -0.0289423 1.87246e-24)
(1.07072 0.0033238 0)
(1.06125 0.0132942 -1.83032e-22)
(1.01877 -0.00218407 0)
(0.505445 -0.0827451 -3.855e-22)
(1.05694 0.0307496 0)
(0.483792 -0.0841373 -2.65025e-22)
(1.01635 -0.0129973 -4.0721e-22)
(1.01443 -0.000908754 2.64482e-23)
(1.0095 0.00082506 -2.12245e-22)
(1.06131 -0.022692 1.24971e-20)
(0.387926 -0.0964438 1.1797e-20)
(1.06458 0.00570563 0)
(1.05239 0.00670997 -4.27035e-21)
(1.02764 -0.0201196 3.54776e-23)
(0.998693 0.000292551 0)
(1.00487 -0.00145914 3.76511e-23)
(1.02009 -0.0157888 -5.16485e-22)
(1.07479 0.00225885 -6.79422e-21)
(0.383296 0.0108583 1.13478e-20)
(1.03476 0.00402446 0)
(1.01844 -0.00247081 -6.97587e-23)
(1.03002 0.00636757 -4.97266e-21)
(1.02033 -0.0152979 2.32184e-22)
(0.696253 -0.0415414 -4.61942e-21)
(-0.0350635 -0.0699179 -2.09183e-20)
(1.05312 0.010789 -3.54253e-21)
(0.490808 -0.0450261 0)
(0.952934 -0.14385 1.05698e-21)
(1.02987 -0.0077253 -2.37936e-21)
(1.07509 0.00119203 2.65674e-20)
(0.207931 0.00726295 -4.7936e-20)
(1.05744 0.00465134 0)
(0.26048 -0.0168544 2.17352e-21)
(1.03845 0.00609054 -6.42114e-21)
(1.06565 0.00338716 1.60239e-22)
(1.06416 0.0055106 -9.13864e-22)
(1.06757 0.00218775 2.76464e-22)
(0.941685 -0.0876338 9.36063e-22)
(1.02855 0.0021184 -8.25221e-21)
(0.868562 -0.077534 6.58699e-21)
(1.00938 -0.000169731 0)
(1.05777 0.00945543 -9.09749e-21)
(0.450767 -0.0291569 3.29869e-20)
(0.997282 -0.0129406 2.16091e-22)
(1.05391 -0.0022837 3.16528e-21)
(1.10037 0.012557 2.04443e-21)
(1.007 -0.00579843 8.77006e-23)
(1.05009 0.00664809 3.55718e-21)
(1.06192 -0.138613 -2.62741e-22)
(0.386423 0.0513355 1.1677e-21)
(1.06531 -0.00174626 -9.647e-22)
(0.838475 -0.0436779 0)
(0.911003 0.0491926 2.90666e-22)
(1.01705 -0.00361101 -2.64907e-23)
(1.0159 -0.0123053 0)
(-0.119263 -0.0459501 4.93338e-21)
(1.07582 0.0091086 6.29486e-21)
(1.06579 0.0150736 0)
(0.559 -0.0278661 0)
(0.997138 -0.00266649 0)
(1.01785 0.000184127 0)
(1.01616 -0.000534795 9.9478e-23)
(0.917556 -0.0875363 1.82598e-21)
(1.0172 0.00518092 0)
(1.05424 0.00704275 2.21371e-21)
(1.04409 -0.0123618 -4.93922e-22)
(0.97241 0.0722269 0)
(1.04908 0.00757809 0)
(1.01011 0.000891986 1.08058e-22)
(0.0254984 0.00508115 -4.2923e-20)
(0.878932 0.0473046 1.10881e-21)
(0.470758 -0.032228 -2.24603e-23)
(1.02195 -0.00076118 -6.21205e-24)
(1.03436 0.00414632 -2.86938e-21)
(0.377791 -0.0301139 -2.36326e-20)
(-0.0146839 -0.0983891 0)
(1.07378 0.0101258 0)
(0.995754 -0.0243153 0)
(0.810331 -0.0112669 -3.87869e-20)
(1.02904 0.00181655 0)
(0.965733 0.0766766 9.81494e-23)
(1.0354 -0.0214505 3.47709e-21)
(1.04117 -0.00231481 -1.00657e-21)
(1.0504 0.00677047 0)
(-0.00270905 -0.00665132 -2.65684e-20)
(1.01393 -0.035357 -2.89878e-22)
(0.986996 -0.0233496 0)
(1.07965 0.0150278 -3.17998e-23)
(0.997788 -4.68629e-05 -2.89859e-22)
(1.00695 -0.000216614 1.69554e-21)
(1.04998 0.00272105 3.39061e-21)
(1.00121 -0.00642366 1.91762e-22)
(0.0236173 0.00495749 -3.42616e-20)
(1.05119 0.00737047 6.55729e-21)
(1.0732 -0.00415966 1.01619e-20)
(1.06974 -0.0337356 -2.27089e-22)
(0.989758 0.0599524 -2.2933e-22)
(1.00209 -0.00790704 0)
(1.07248 -0.149296 2.03507e-21)
(1.00652 -0.00100123 0)
(1.01332 -0.0354419 -2.15142e-22)
(1.01487 -0.00061728 8.1635e-23)
(1.02861 -0.00769596 0)
(1.01914 -0.00160675 0)
(0.552312 -0.0306418 -1.66529e-21)
(1.01962 -0.0127453 0)
(1.01797 0.000274181 -3.70695e-23)
(1.04139 -0.0512025 5.02737e-23)
(1.03185 0.00600268 2.5077e-21)
(0.399114 -0.0300866 -2.30166e-20)
(1.00838 2.14762e-05 1.33294e-22)
(0.999415 -0.0270954 2.231e-22)
(1.06754 0.00400856 1.00998e-20)
(0.645598 -0.042367 4.66423e-21)
(0.846067 0.0413706 -8.03111e-22)
(1.00354 -0.00168697 3.65197e-23)
(1.07982 -0.0976219 -1.14478e-21)
(0.506412 -0.0485843 -1.16216e-20)
(1.04044 0.00428356 6.62837e-21)
(0.63622 -0.0285883 -1.93775e-20)
(1.05731 0.00934574 1.69487e-20)
(1.00087 -0.0055672 -8.81146e-23)
(0.974579 -0.0327764 5.03468e-22)
(0.0174829 0.0119903 2.92403e-20)
(1.07194 -0.0899711 -1.33874e-21)
(1.05188 0.00743326 0)
(1.00567 -0.00198808 -1.08667e-22)
(1.01766 -0.00231151 0)
(0.876804 -0.0970182 1.58874e-21)
(1.03698 -0.00247738 -4.11137e-21)
(1.06418 0.0179152 -1.10039e-22)
(1.05536 0.00790029 -3.75996e-21)
(0.972539 -0.0319962 4.82123e-22)
(1.02342 0.000396182 -2.43297e-22)
(0.998171 -0.0262164 -4.81767e-24)
(1.06877 0.00817786 0)
(0.913138 -0.0941291 -3.73866e-22)
(1.05995 -0.0105064 -4.38564e-22)
(0.993184 -0.171679 0)
(1.03386 0.00397543 0)
(1.05938 -0.00920205 1.09978e-20)
(1.06936 0.00118546 0)
(0.696562 -0.0147086 0)
(1.05462 0.00681817 -1.72629e-21)
(0.14317 -0.0917617 -3.02624e-21)
(0.975799 -0.0213951 0)
(1.03184 0.00630843 0)
(0.137277 -0.0214105 0)
(1.00787 0.0265873 0)
(0.484991 -0.0770776 0)
(0.437052 0.0642408 -1.14982e-21)
(0.543506 -0.0352352 0)
(0.863504 -0.00841273 -1.89566e-22)
(1.04964 0.00956447 -7.82229e-21)
(1.00126 -0.00599889 0)
(1.07349 -0.000500139 -7.97487e-23)
(-0.0584067 -0.0717778 -3.18949e-20)
(0.0769577 -0.0102574 0)
(1.0182 -0.0193392 -1.86067e-22)
(0.999952 0.000297589 0)
(1.06638 0.00205624 1.79302e-20)
(1.01676 -0.0550457 -1.25874e-22)
(1.02031 0.000732704 0)
(-0.0216306 -0.0733911 2.64223e-20)
(0.997424 -0.00241378 0)
(1.03297 0.000491338 6.59874e-21)
(0.0100523 0.00615216 0)
(0.378446 -0.0304585 -6.25976e-22)
(0.905309 0.0507992 9.4283e-23)
(1.01401 -0.00543279 -4.03478e-22)
(1.0233 0.00167631 -4.09189e-21)
(-0.0190409 -0.0920544 1.58071e-20)
(1.07869 0.00145264 9.48575e-22)
(1.07309 0.00663162 -1.72291e-20)
(1.02605 -0.0330996 1.13438e-22)
(0.451682 -0.0597691 0)
(0.881545 -0.0419563 1.99253e-21)
(0.431832 -0.0899165 8.7642e-21)
(1.06239 0.000995521 1.09954e-20)
(1.06011 0.00471328 0)
(1.04118 0.00297241 -6.19878e-23)
(1.03238 0.00561177 0)
(0.848915 0.104737 6.62616e-22)
(1.06412 0.00721356 -1.68005e-20)
(0.378205 -0.0223848 0)
(1.02052 -0.0397914 6.88149e-23)
(1.05744 0.00588882 1.19754e-20)
(0.0328052 0.00196715 6.77461e-20)
(0.474256 -0.0757583 0)
(0.412963 -0.0307491 2.07459e-20)
(1.02986 0.00318571 0)
(1.05679 0.00740445 0)
(1.0121 -0.00763651 4.12921e-22)
(1.05407 0.0115629 -2.93833e-21)
(1.0538 -0.00303279 -4.48296e-22)
(0.241651 -0.0161737 5.27759e-22)
(1.01334 0.000108717 -2.86633e-21)
(0.476219 -0.0245101 0)
(1.01975 0.000955762 -4.81199e-23)
(1.0671 0.00380798 2.91664e-21)
(1.02851 -0.00490862 -2.57761e-21)
(0.992694 -0.0282035 -5.54001e-21)
(1.05796 0.00651816 1.70723e-20)
(1.05637 0.00724097 0)
(0.495023 -0.0423192 1.82373e-20)
(1.06164 0.00526968 1.09572e-20)
(1.06235 0.0143396 1.46916e-22)
(0.999796 -0.000436863 4.26324e-23)
(1.0672 0.00306496 1.83235e-20)
(0.978507 0.00728803 0)
(1.08643 0.025337 2.41574e-21)
(1.04941 0.00520143 2.68563e-21)
(0.364209 -0.0314672 2.64417e-20)
(1.0285 0.0157797 1.25714e-22)
(0.597358 0.0808696 8.6098e-22)
(0.845238 -0.00391221 6.99949e-22)
(1.03848 0.00178802 0)
(0.626069 -0.0239502 -1.78473e-20)
(0.0040169 -0.0340774 1.34218e-20)
(0.409265 -0.0303681 1.77498e-20)
(0.863638 -0.00242382 4.02959e-22)
(1.01954 -0.0390635 0)
(1.02056 -0.0181373 4.1583e-22)
(0.459902 -0.0321337 -3.13214e-20)
(1.01995 0.000135661 1.60188e-21)
(0.72841 0.101904 0)
(0.447736 -0.027394 1.73482e-20)
(1.01738 -0.0125315 -4.35894e-24)
(1.04448 0.00938554 8.8555e-21)
(0.913815 -0.0465044 9.30502e-21)
(0.936265 -0.0818599 -1.08655e-21)
(0.152186 -0.0725826 5.11494e-21)
(1.03529 0.0028643 0)
(0.999427 0.000493279 3.04287e-22)
(0.812824 0.0477305 -2.09029e-21)
(0.44744 -0.0287149 0)
(1.07253 -0.00602318 -2.55105e-20)
(1.05159 0.00713821 1.84346e-21)
(1.02609 -0.0311885 2.09693e-23)
(0.84321 -0.00966977 9.73514e-22)
(-0.014359 -0.000758847 0)
(1.0698 0.000621797 0)
(1.01815 0.000471834 5.20004e-23)
(1.04906 0.00909453 6.44254e-21)
(1.0079 -0.00568167 1.15668e-22)
(1.01348 -0.000693974 1.48112e-21)
(0.948755 0.031219 -1.02863e-22)
(0.998311 0.000171066 0)
(0.603584 -0.0649187 -5.06629e-23)
(0.85833 -0.0224932 8.3008e-23)
(1.03346 0.000356885 -5.58952e-21)
(1.00333 -0.029181 4.31498e-22)
(1.02087 -0.0187486 -3.6675e-22)
(1.04981 0.00311607 -3.7873e-21)
(0.369893 -0.0265001 -2.459e-20)
(0.448801 -0.0420473 -5.18289e-21)
(1.05287 0.0055504 0)
(0.140853 -0.0950034 3.88269e-21)
(1.02827 -0.00456219 2.049e-21)
(1.05241 0.00559498 -6.70916e-21)
(1.01948 -0.0177484 -4.23853e-22)
(1.00845 -0.0058885 -1.14964e-22)
(1.03913 -0.00102427 4.82139e-21)
(1.03332 6.75591e-05 1.26834e-21)
(0.40172 -0.0271795 2.01251e-20)
(1.02944 0.00226351 -8.30787e-22)
(1.06416 0.0050126 8.15905e-21)
(1.03032 0.00313643 0)
(1.05164 0.00745332 0)
(0.934108 0.0308106 1.03551e-22)
(-0.00831565 -0.107374 1.47708e-20)
(1.01125 -0.00109777 3.81737e-22)
(0.488001 0.0156907 3.66792e-21)
(1.06483 0.0189415 -1.02318e-22)
(0.973229 -0.0146821 2.25449e-20)
(1.051 0.00705104 -5.23685e-21)
(1.05183 0.00531786 6.90754e-21)
(0.364889 -0.0230305 1.38851e-20)
(1.05224 0.00687455 0)
(1.06567 0.0135675 -5.44027e-22)
(0.248611 -0.00786864 7.70331e-22)
(0.925998 -0.0223198 -5.32625e-21)
(-0.0207523 -0.0190339 0)
(1.05244 0.00239918 9.63007e-21)
(0.985893 0.0981877 -2.06126e-22)
(1.04604 -0.0055371 0)
(1.06103 0.00544309 -2.64768e-20)
(1.0618 0.00140868 0)
(0.138724 -0.0795299 2.22531e-22)
(1.003 -0.00131827 -2.83446e-23)
(0.247802 -0.0202488 2.28619e-22)
(1.01517 -0.0121359 0)
(1.01709 -0.0131242 0)
(0.206356 0.0507299 2.54941e-21)