/*--------------------------------*- C++ -*----------------------------------*\
| =========                 |                                                 |
| \\      /  F ield         | OpenFOAM: The Open Source CFD Toolbox           |
|  \\    /   O peration     | Version:  v2012                                 |
|   \\  /    A nd           | Website:  www.openfoam.com                      |
|    \\/     M anipulation  |                                                 |
\*---------------------------------------------------------------------------*/
FoamFile
{
    version     2.0;
    format      ascii;
    class       surfaceVectorField;
    location    "150";
    object      ddtCorrDdt0(Uf);
}
// * * * * * * * * * * * * * * * * * * * * * * * * * * * * * * * * * * * * * //

dimensions      [0 1 -2 0 0 0 0];


internalField   nonuniform List<vector> 
20673
(
(-0.00242567 -0.00211552 -6.69376e-19)
(-0.00249238 -0.00209534 7.63728e-18)
(-0.0024275 -0.00204713 8.39985e-18)
(-0.000919434 -0.000843128 1.60965e-18)
(-0.000888464 -0.000836539 -1.49095e-19)
(-0.000913276 -0.000876769 3.19391e-19)
(0.00943692 -0.00157439 1.93193e-17)
(0.0095653 -0.00161574 6.89501e-18)
(0.0097501 -0.00159831 8.41491e-18)
(-0.00163547 0.00131284 3.13869e-18)
(-0.0016475 0.00124869 2.62666e-18)
(-0.00158642 0.0012719 -2.78909e-18)
(-1.92588e-05 -0.000406806 2.70109e-19)
(-1.60054e-05 -0.000407023 2.99472e-18)
(-1.80852e-05 -0.000434262 1.10104e-18)
(-2.36555e-05 -0.00394246 2.23625e-17)
(-3.83179e-05 -0.00401098 4.83467e-17)
(-9.46088e-05 -0.00396094 2.74828e-17)
(0.0099064 -0.00142968 -1.01323e-18)
(0.00981506 -0.00144487 1.42059e-17)
(0.00998175 -0.00146958 -4.08986e-18)
(0.00947072 -0.00159329 9.05029e-18)
(0.0092105 -0.00157806 -1.58047e-18)
(0.00926331 -0.00157832 -4.44352e-18)
(0.00772095 -0.000674419 -5.66448e-19)
(0.00780102 -0.00083024 -1.20846e-17)
(0.0071911 -0.00103418 1.31796e-17)
(-0.00291999 -0.00256935 -1.16634e-17)
(-0.0030004 -0.00259603 -4.76181e-18)
(-0.00294295 -0.00264914 5.57336e-18)
(0.00688693 0.000889242 1.31317e-18)
(0.00822093 0.00123292 -6.83362e-19)
(0.0122897 0.00180379 -1.23492e-17)
(-0.00503015 0.00237101 -6.05727e-18)
(-0.00515894 0.00239523 -2.22924e-17)
(-0.0050511 0.00226016 -6.34395e-18)
(-0.00168476 0.00133067 -3.00805e-18)
(0.0063543 -0.000546693 -1.04851e-17)
(0.00788366 -0.000687714 -7.33781e-18)
(0.00614834 -0.000578594 1.08875e-17)
(-0.000858125 -0.00190085 4.97349e-18)
(-0.00082143 -0.00191343 1.57584e-17)
(-0.000822247 -0.00185927 5.94784e-18)
(-0.00102668 -0.00174373 1.40721e-18)
(-0.000983038 -0.00173004 5.76795e-19)
(-0.00101018 -0.00168892 -1.43022e-18)
(-0.000869248 -0.00100415 4.40471e-20)
(-0.000888107 -0.000988035 -3.25064e-19)
(-0.000856151 -0.000974154 -1.14075e-20)
(-0.00394259 -0.000700202 4.36039e-18)
(-0.00392831 -0.000749393 1.59097e-17)
(-0.00399068 -0.000717033 9.07329e-18)
(-0.00501275 0.00250883 9.88937e-18)
(-0.00489087 0.00236954 1.3868e-17)
(-5.67575e-05 -0.000143188 3.27113e-19)
(-5.54662e-05 -0.000135554 -3.35316e-19)
(-4.97815e-05 -0.000131786 3.06306e-19)
(-1.62784e-06 -4.47478e-05 -7.5717e-19)
(-2.39804e-06 -5.9163e-05 1.67121e-18)
(-1.57963e-06 -4.34969e-05 4.2861e-18)
(0.00997375 -0.00138826 1.0327e-17)
(0.00988391 -0.00138174 4.08223e-18)
(-7.35003e-05 -0.000258832 -1.60571e-19)
(-8.11807e-05 -0.00027468 1.71187e-19)
(-8.05449e-05 -0.000264765 -1.04149e-19)
(0.00973639 -0.00163965 1.26144e-17)
(0.0097679 -0.00161103 -3.03291e-18)
(-0.000163681 -0.000636425 1.7117e-18)
(-0.000161266 -0.000645688 4.75618e-18)
(-0.000174474 -0.000653729 -1.20467e-19)
(0.0107021 -0.0012128 1.76111e-17)
(0.0107088 -0.00117665 -8.13987e-18)
(0.0106295 -0.001199 5.37786e-18)
(-2.77707e-05 -0.00266706 -7.30353e-18)
(-2.88029e-05 -0.00270275 3.22145e-18)
(-1.36247e-05 -0.00268301 -4.25303e-18)
(-0.000233645 -0.00290059 -1.15091e-17)
(-0.000254244 -0.00293639 -9.22681e-18)
(-0.000226585 -0.00295387 1.08797e-17)
(-0.000418845 -0.00416336 -2.61364e-19)
(-0.000467679 -0.00424463 6.35077e-18)
(-0.00038775 -0.00429459 1.16461e-17)
(-0.00408674 -0.00225373 1.50466e-17)
(-0.00412624 -0.00218979 -6.65821e-18)
(-0.0041928 -0.00225379 -1.31913e-17)
(-0.00273844 -0.00200317 -1.87817e-18)
(-0.00267638 -0.00202689 -2.82169e-18)
(-0.00267649 -0.00196316 7.26376e-19)
(-0.00192795 -0.00157058 -6.52343e-19)
(-0.00188034 -0.00158035 1.15143e-17)
(-0.00188718 -0.00152879 6.56588e-18)
(-0.000193249 -0.00248343 4.81411e-20)
(-0.000196559 -0.00252048 5.32549e-18)
(-0.000166353 -0.00249997 3.1503e-17)
(7.25958e-05 -0.00191496 1.90961e-17)
(8.83886e-05 -0.00188601 -2.28478e-17)
(6.50415e-05 -0.00187839 -2.68366e-17)
(-0.000117075 -0.000693631 -9.00867e-19)
(-0.000122022 -0.000717897 -7.40333e-19)
(-0.000129118 -0.000702278 -1.20939e-18)
(0.0165729 -0.000499079 5.38382e-18)
(0.0165835 -0.000571993 -2.97773e-18)
(0.0160958 -0.000733527 -1.68416e-17)
(-6.70332e-05 -0.000250868 2.70607e-20)
(-6.83867e-05 -0.000242918 3.416e-19)
(0.00755529 -0.000988281 -9.30538e-18)
(0.00757992 -0.000939075 1.52233e-17)
(0.00765235 -0.000962693 -8.06621e-18)
(-0.00203628 0.00154472 9.16775e-19)
(-0.00209658 0.00159199 -1.84154e-17)
(0.0127627 -0.000447507 2.41303e-18)
(0.0128899 -0.000445132 -1.0398e-17)
(0.0127894 -0.00042385 2.94547e-17)
(-0.000202643 -1.94362e-05 1.65568e-19)
(-0.000210281 -1.85983e-05 -8.82945e-20)
(-0.000200051 -1.17295e-05 1.38954e-18)
(-4.26711e-07 -2.76197e-05 -1.04283e-18)
(-2.4021e-07 -1.33949e-05 1.94153e-18)
(5.91841e-10 -1.38773e-05 2.87109e-19)
(-0.000355581 8.86575e-05 2.78406e-18)
(-0.000357418 7.71714e-05 -2.60801e-18)
(-0.000344596 8.10937e-05 -2.41025e-18)
(-0.000301842 -0.00322888 4.19156e-18)
(-0.000335159 -0.0032403 -1.62168e-18)
(-0.000309002 -0.00329903 -8.70575e-17)
(-0.00113661 -0.000311552 1.06014e-18)
(-0.00116719 -0.00032519 -2.86043e-18)
(-0.00116838 -0.00029852 -1.38901e-18)
(-1.66674e-05 -0.00207797 -1.59504e-17)
(2.08189e-05 -0.00208153 2.22588e-17)
(1.23386e-06 -0.0020389 -5.29572e-18)
(-0.0039697 -0.000641457 -3.07413e-17)
(-0.00389577 -0.000671888 6.67848e-18)
(-0.00454524 -0.00029508 -1.10679e-17)
(-0.00448393 -0.000295077 7.04874e-18)
(-0.0045268 -0.000244423 5.03965e-18)
(-0.000518531 -0.00488336 4.06169e-17)
(-0.00046642 -0.00479913 -1.23529e-17)
(-0.00040607 -0.00468545 3.92027e-17)
(-8.60853e-05 -1.87145e-05 -4.67638e-19)
(-9.35121e-05 -1.70503e-05 -2.62632e-19)
(-9.22618e-05 -2.61585e-05 5.64373e-19)
(-0.00265248 9.92318e-06 2.40123e-18)
(-0.00267653 -2.80249e-05 1.19929e-17)
(-0.00270859 2.17641e-05 3.33793e-18)
(-5.21121e-05 -0.00120837 -1.65729e-20)
(-4.76284e-05 -0.00121963 -4.33721e-18)
(-5.52755e-05 -0.00123697 3.45853e-18)
(-0.000411093 -0.00484359 -5.4023e-17)
(-0.000425309 -0.00531836 7.94357e-17)
(5.55875e-05 -0.00194301 4.00961e-17)
(8.2284e-05 -0.00195073 1.3085e-17)
(-0.000883083 -0.00103533 1.09893e-19)
(-0.000846662 -0.00101514 -1.97209e-19)
(-0.00248192 -0.000599877 7.2424e-18)
(-0.00245757 -0.000648974 1.21852e-17)
(-0.00251942 -0.000643658 1.57166e-17)
(0.00534192 0.00146069 -6.43422e-18)
(-0.00183848 0.000665337 4.84907e-19)
(-0.000400664 -0.000893514 -3.28785e-19)
(-0.000380712 -0.000870321 -4.55681e-19)
(-0.000402141 -0.000871223 -4.55835e-18)
(-0.00207616 -0.000719913 -4.44039e-18)
(-0.00211264 -0.000743529 1.77538e-18)
(-0.00206932 -0.000756131 -3.08898e-19)
(-0.00110487 -0.00032405 1.93617e-18)
(-0.00110304 -0.000297241 -3.10345e-18)
(0.0135827 0.00045157 -6.09184e-18)
(0.0109137 -7.97267e-06 1.80602e-17)
(0.0119005 0.000157892 3.06042e-17)
(-0.000935413 -0.000823204 1.87956e-19)
(-0.000953938 -0.000858113 -4.02631e-19)
(0.00638739 -0.000440645 1.58098e-17)
(-5.84607e-05 -0.000150055 3.40589e-19)
(-6.40276e-05 -0.000153812 1.81174e-19)
(-0.000229556 -0.00406439 -7.10237e-17)
(-0.000188121 -0.00380713 -1.78941e-17)
(0.0176645 0.00465428 1.75802e-17)
(0.0182141 0.00482937 -3.38673e-18)
(0.0171641 0.00466022 -6.47522e-18)
(1.46408e-05 -0.000425626 -2.04455e-19)
(1.39951e-05 -0.000449436 5.50335e-19)
(3.09555e-05 -0.000731138 -2.80827e-18)
(3.24304e-05 -0.000708593 1.97569e-18)
(-0.00827244 -0.00148899 3.42536e-18)
(-0.00715514 -0.000285296 2.32822e-17)
(0.000830097 -0.000462467 2.94171e-17)
(-0.0019474 -0.0021689 -5.53196e-18)
(-0.00201791 -0.0021774 -1.19128e-19)
(-0.0019664 -0.00224542 -8.63166e-18)
(-1.68988e-05 -0.000382003 -2.62763e-18)
(-2.16454e-05 -0.000403826 -9.18302e-21)
(0.0083231 -0.000711369 -1.11279e-19)
(0.00801869 -0.000757095 -1.86534e-17)
(0.00488986 -0.000747918 1.55427e-17)
(0.00494573 -0.00076796 -1.2982e-17)
(0.00488651 -0.000762538 1.7987e-17)
(-0.00016918 -0.000624977 -2.3406e-18)
(-0.00015504 -0.000613499 -4.23442e-18)
(-0.000476435 -0.00478044 -5.1906e-17)
(-0.000421846 -0.00457922 -1.8973e-17)
(-0.000505992 -0.00471215 -7.47572e-20)
(-0.00527304 0.00356322 1.22168e-17)
(-0.00511132 0.00356391 4.8372e-18)
(-0.00516047 0.00341346 8.45662e-18)
(0.0056611 -0.000696221 1.68305e-18)
(0.00564299 -0.000714916 5.0591e-17)
(0.0056993 -0.000718941 2.15562e-17)
(-0.0015968 -0.000277654 -3.32329e-19)
(-0.00163897 -0.000289635 -1.09272e-19)
(-0.00160692 -0.000323037 -1.48158e-18)
(0.0113874 -0.000889802 1.64161e-18)
(0.0113262 -0.000894998 -1.48377e-17)
(0.0113491 -0.000903378 1.8587e-17)
(-5.1164e-06 -8.60434e-05 2.98499e-20)
(-6.26366e-06 -0.000102139 8.29682e-19)
(-6.1826e-06 -0.000100215 -1.20095e-18)
(-1.35042e-05 -0.000110869 -9.62989e-19)
(-1.44314e-05 -0.000120621 3.94225e-19)
(-1.23928e-05 -0.000106749 -5.22109e-19)
(1.21734e-05 -0.00040322 2.26619e-18)
(-0.000110054 -0.00395146 -5.17785e-17)
(-4.18087e-05 -0.00389082 4.99751e-17)
(-2.07834e-05 -0.00393609 2.00808e-17)
(0.00754967 -0.001054 1.23291e-17)
(0.00746795 -0.00103362 3.19637e-17)
(0.00294811 -0.00108955 -1.74412e-17)
(0.00244569 -0.00109372 8.23442e-18)
(0.0026474 -0.00110672 -5.70133e-17)
(-0.00155218 -0.000270476 -2.29923e-18)
(-0.00158344 -0.000238528 1.99303e-18)
(-2.54193e-05 -0.000140927 -4.79137e-19)
(-2.58433e-05 -0.000136305 2.28575e-19)
(-2.11072e-05 -0.000126815 7.83528e-20)
(0.0161326 0.00447372 9.15057e-18)
(0.0116528 0.00192208 -5.80288e-18)
(-0.00261652 5.30447e-05 1.52746e-19)
(-0.00258785 -1.50053e-07 -1.63262e-17)
(-0.000354122 9.78321e-05 2.17097e-18)
(-0.000367369 9.43642e-05 7.33658e-18)
(0.00561077 -0.00080799 -1.77091e-17)
(0.00556498 -0.000785767 -1.94209e-18)
(0.00563269 -0.000796812 -1.14412e-17)
(-0.00360746 -0.00256584 6.08231e-18)
(-0.00351688 -0.00255401 1.26053e-17)
(-0.00353313 -0.00262231 2.91377e-18)
(-0.000751229 -0.000437278 -8.34658e-19)
(-0.000750595 -0.000414323 2.64802e-19)
(-0.000726719 -0.000422216 4.99348e-19)
(-0.000520634 -0.00144726 -7.39283e-18)
(-0.000521607 -0.00148046 2.23268e-18)
(-0.000546116 -0.00146939 1.5554e-18)
(0.0119589 0.00282412 -5.54444e-17)
(0.0176054 0.00577628 -2.71105e-17)
(-3.36741e-05 -0.00395558 1.72078e-17)
(5.08372e-06 -0.00387187 2.69658e-18)
(4.2098e-05 -0.00396732 -3.9683e-17)
(-0.00500239 0.000355438 8.85778e-18)
(-0.00491166 0.000379208 3.75328e-17)
(-0.00414768 0.000508799 6.79606e-18)
(-0.00433278 -0.000356199 1.9868e-17)
(-0.00436257 -0.000397292 -2.87787e-17)
(-0.00430504 -0.000404528 -2.04687e-17)
(0.000416943 0.00359343 -3.89652e-18)
(0.00697903 0.00428281 6.47136e-18)
(0.00416007 0.00418983 -7.98051e-18)
(-0.000102801 -0.00333434 2.53639e-17)
(-9.84765e-05 -0.00328213 6.12669e-17)
(-0.000117358 -0.00331135 -4.5967e-17)
(-0.000272082 -0.000101358 -2.22139e-19)
(-0.00028148 -0.000101216 6.39887e-19)
(-0.000280992 -0.00011002 3.32308e-18)
(0.000104169 -0.00239838 8.79355e-18)
(6.53743e-05 -0.00239186 1.53254e-17)
(8.61864e-05 -0.00234871 1.02288e-17)
(-0.000245248 -0.00325402 2.43103e-17)
(-0.000263629 -0.0031777 2.21339e-18)
(-0.00182219 -8.88987e-05 5.30145e-18)
(-0.00186343 -7.9269e-05 -8.9457e-18)
(-0.001829 -4.02153e-05 2.41818e-18)
(-0.000448758 -0.00021303 1.06309e-18)
(-0.000444285 -0.000199589 1.8779e-18)
(-0.000462256 -0.000207055 -1.07989e-18)
(0.00799969 -0.000835084 1.84261e-17)
(0.00792647 -0.000812634 -2.51323e-17)
(0.00861914 -0.000773345 -4.1717e-18)
(-0.000715296 -0.00412632 3.78459e-18)
(-0.000576723 -0.00417715 2.13405e-17)
(-0.00074532 -0.0042713 -5.29276e-19)
(-0.00459794 -0.000295259 2.1286e-17)
(-0.00456122 -0.0003379 2.88169e-18)
(-0.000909435 -0.000968221 -3.55563e-19)
(-0.000927241 -0.00100147 -2.38565e-19)
(-0.00267326 -0.00216305 2.06441e-18)
(-0.00261176 -0.00218754 -7.52753e-18)
(-0.00267665 -0.00223394 7.52907e-18)
(0.00394155 -0.00074243 1.65016e-17)
(0.00377287 -0.000748235 -3.64767e-18)
(0.0038666 -0.000743648 3.31493e-17)
(0.0126226 -0.000461043 -4.26778e-18)
(0.0127281 -0.000447689 1.60671e-17)
(-0.0057202 0.00252309 5.97327e-18)
(-0.00572917 0.00264017 1.45923e-17)
(-0.0058357 0.00253854 8.04718e-18)
(0.00799727 -0.000830904 2.31392e-17)
(0.00747541 -0.000866041 3.59686e-17)
(-1.2395e-05 -0.00145809 -1.13987e-17)
(-2.69351e-05 -0.00148917 9.01646e-19)
(4.17059e-06 -0.00149146 -4.86202e-18)
(0.00015645 -0.00491294 -3.91095e-17)
(0.000454862 -0.00475836 4.4017e-17)
(0.000252406 -0.00490226 -8.20532e-17)
(-0.000174143 -0.000452634 -4.5668e-19)
(-0.000187449 -0.000468356 -1.78417e-18)
(-0.000177432 -0.000469925 -8.72103e-19)
(-0.000223519 -0.00447907 -8.94813e-18)
(-0.000227227 -0.00437239 -1.32047e-17)
(-0.000278512 -0.00441383 -6.0556e-18)
(0.0107167 -0.000729666 -1.41676e-18)
(0.0107868 -0.000765663 -1.86904e-18)
(0.010589 -0.000792213 6.84218e-19)
(-3.28789e-06 -0.00192812 -1.43713e-17)
(-2.28436e-05 -0.00196024 3.32042e-18)
(-3.3763e-05 -0.00191605 6.98429e-18)
(-1.82471e-06 -4.13549e-05 9.17351e-19)
(-1.38726e-06 -4.22342e-05 -5.15661e-18)
(-0.00804929 -0.00122735 -2.00584e-17)
(-0.00885748 -0.0012565 -4.63737e-18)
(0.00975866 -0.000712574 9.77346e-18)
(0.00968421 -0.000769452 -1.4293e-18)
(0.00960064 -0.00077593 1.307e-17)
(-0.000213496 -0.00286857 4.65444e-18)
(-0.00024195 -0.00285774 -1.38756e-18)
(-0.000127035 -1.6816e-05 -4.76576e-19)
(-0.00013235 -2.33124e-05 -6.13103e-19)
(-0.000134544 -1.44521e-05 -4.80161e-19)
(-0.00049413 -0.00141841 -4.48399e-18)
(-0.00052304 -0.00140638 -4.55812e-18)
(-0.00105801 -0.000427044 1.7149e-18)
(-0.00108523 -0.000443273 -5.99593e-19)
(-0.00105867 -0.000453563 -6.34079e-19)
(-0.000119778 -1.7124e-05 2.00198e-19)
(-0.000116789 -9.44454e-06 5.0427e-20)
(-0.000314359 2.08432e-05 3.53641e-19)
(-0.000309964 2.60319e-05 -2.85081e-18)
(-0.000306801 1.88643e-05 1.37181e-19)
(6.54454e-06 -0.00404933 1.18605e-17)
(0.00977549 -0.00100162 -5.69417e-18)
(0.00972923 -0.000986147 -1.24462e-17)
(0.00986302 -0.000946472 -6.66668e-18)
(3.76615e-06 -0.00143457 -1.32841e-17)
(-1.59623e-05 -0.00142606 6.60441e-18)
(-0.00119475 -0.000337178 -9.36991e-19)
(-0.00116599 -0.000351519 -3.6622e-18)
(-1.34123e-06 -4.54054e-05 -2.24095e-18)
(-9.61221e-07 -3.01673e-05 -2.02698e-18)
(0.0199815 0.00139311 -8.32058e-18)
(0.0201047 0.0016189 7.08725e-18)
(0.0197895 0.0013752 -3.71148e-18)
(0.0100503 -0.00167199 3.11374e-18)
(0.00970171 -0.00165457 -5.25975e-18)
(-0.00241974 -0.0021772 -2.05872e-18)
(-0.00236222 -0.00212723 -6.71881e-18)
(-9.49976e-05 -0.00339585 -1.69291e-18)
(-0.000112803 -0.00334292 6.94815e-18)
(6.47932e-06 -0.000449607 -3.5278e-18)
(1.19324e-05 -0.000474594 -1.74502e-18)
(2.91011e-05 -0.00193739 7.40846e-19)
(1.71387e-05 -0.00189839 -1.6954e-17)
(0.0169718 -0.000393026 3.50509e-18)
(0.0168843 -0.000316323 1.55875e-18)
(0.016675 -0.000177037 1.6031e-17)
(-0.000657051 -0.000126687 1.14272e-18)
(-0.000663095 -0.000143365 7.97024e-19)
(-0.000638675 -0.000137607 -6.10931e-19)
(-0.000161829 -0.00131483 -3.13521e-18)
(-0.000173863 -0.00134455 -1.46707e-17)
(-0.0001477 -0.00133041 -1.30978e-17)
(-0.000221502 -0.00331316 -6.21302e-19)
(-0.000200194 -0.00334813 1.66461e-17)
(-0.000242744 -0.00335528 3.21206e-17)
(2.45824e-05 -0.000732693 -3.82316e-18)
(3.16456e-05 -0.000752563 1.48919e-18)
(0.0104023 -0.000630276 2.30595e-17)
(0.00958103 -0.000647271 -1.38103e-17)
(0.010362 -0.000640928 -6.10589e-18)
(-0.000562895 -0.00440409 -4.64608e-19)
(-0.000578991 -0.00434743 -1.68395e-19)
(-0.000531172 -0.00427948 -4.56114e-18)
(-7.06712e-05 -0.0011951 -2.3153e-18)
(-5.0755e-05 -0.00117757 -3.49074e-18)
(-0.000591295 -8.66308e-05 2.02819e-19)
(-0.000600926 -0.000102229 9.00602e-19)
(-0.000577657 -9.78359e-05 2.21198e-19)
(-0.00185432 -0.00167899 -7.09778e-18)
(-0.00179856 -0.00168368 6.32693e-18)
(-0.00183943 -0.0017407 3.16775e-18)
(-0.00446168 0.000453463 2.18995e-18)
(-0.00452569 0.00043943 1.85232e-18)
(-0.00444591 0.000390639 -2.96376e-18)
(0.000158584 -0.00487549 3.21736e-18)
(8.59426e-05 -0.0050281 1.48661e-17)
(-0.00551686 0.000940327 -2.0174e-17)
(-0.00555295 0.000852816 -2.24674e-18)
(-0.00561634 0.000958307 2.22322e-17)
(-0.00156319 -0.00262954 8.63211e-19)
(-0.0015875 -0.00259466 -3.49806e-20)
(-0.00162094 -0.00259828 -1.27927e-18)
(-0.00223651 -0.00112575 1.01825e-18)
(-0.00219066 -0.00115896 1.08936e-18)
(-0.0021773 -0.00110222 -8.0299e-18)
(0.00261975 0.000111463 9.17335e-18)
(0.00217278 0.000273725 1.68245e-17)
(0.00156248 0.000100714 4.78285e-17)
(-0.00188485 -0.00216775 9.36277e-18)
(-0.00191587 -0.0021154 3.91903e-18)
(0.0164787 -0.000689388 -1.81668e-17)
(0.0172187 -0.000458946 9.99723e-18)
(0.0173055 -0.000475554 -1.11982e-17)
(0.00548526 -0.000684977 -2.75869e-17)
(0.00558942 -0.0006882 -1.62527e-17)
(0.0203958 0.00161195 1.95665e-17)
(0.0196331 0.00128077 -2.18119e-17)
(-0.000295116 -0.00170812 5.75382e-19)
(-0.000302734 -0.00174457 -8.00085e-18)
(-0.000273283 -0.00172729 1.21546e-18)
(0.000179318 -0.00265683 -1.20096e-17)
(0.000166721 -0.00266209 -2.5708e-17)
(0.000169133 -0.00270122 -1.13201e-17)
(-6.63091e-06 -8.98057e-05 4.22255e-19)
(-6.73412e-06 -8.50787e-05 4.99664e-19)
(-4.0394e-06 -7.33039e-05 2.91663e-19)
(-0.00494962 0.000199812 -3.88239e-17)
(-0.00528193 0.000246647 -2.76997e-18)
(-0.0057034 0.00238047 -1.4358e-17)
(-0.00558442 0.00247805 -2.16184e-17)
(-0.00404925 0.00286349 -1.56008e-17)
(-0.00226203 0.00313799 -6.32142e-18)
(-0.00181644 -0.000129397 1.78052e-18)
(-0.00178275 -9.49761e-05 1.91072e-18)
(-0.00439734 2.49612e-06 1.14965e-17)
(-0.00441767 5.32984e-05 1.60875e-17)
(-0.00446526 8.10836e-06 3.20556e-17)
(-0.000931175 -0.000261962 -7.87154e-18)
(-0.000958832 -0.000271347 9.63868e-19)
(-0.000934111 -0.000289484 -5.34164e-18)
(0.000139557 -0.00242099 -3.0773e-17)
(9.16295e-05 -0.00244762 -5.78377e-18)
(-0.00188194 -0.00262825 -4.66401e-18)
(-0.00154852 -0.00259228 7.35349e-19)
(-0.00180729 -0.00232426 -1.42948e-18)
(0.00299353 -0.000762061 6.42373e-17)
(0.00290663 -0.000757646 2.1014e-18)
(0.003083 -0.000749334 1.29734e-17)
(-0.00585717 0.00300618 1.32854e-18)
(-0.00593834 0.00299096 2.72756e-17)
(-0.00589188 0.00286299 2.41258e-18)
(-0.00093639 -0.00116711 -1.68136e-19)
(-0.000946448 -0.00117442 2.42679e-20)
(-0.000941358 -0.00116609 3.00226e-20)
(0.0114504 -0.000768648 -1.14707e-17)
(0.0113873 -0.000747011 1.90992e-18)
(0.012616 -0.000635927 -3.67522e-18)
(-0.00153957 -0.00277102 -1.10737e-19)
(-0.00152225 -0.00281562 3.98651e-20)
(-0.00159091 -0.002818 -2.11902e-18)
(0.00986735 -0.00101668 1.63988e-18)
(0.0097207 -0.00107449 1.8787e-17)
(-0.000194649 -0.00460281 -1.82745e-17)
(-0.000301329 -0.00459255 2.46674e-17)
(0.010545 -0.000716906 -9.74416e-19)
(0.0115847 -0.000559669 1.9723e-17)
(-0.000556472 -0.000586676 7.6293e-21)
(-0.00057928 -0.000596944 1.40492e-19)
(-0.000565811 -0.000609541 -2.27661e-21)
(-0.00368499 -0.00259058 -5.44741e-18)
(-0.00367802 -0.00251915 1.2997e-17)
(-0.0028098 -0.00204379 -1.27759e-17)
(-0.00280886 -0.00198096 1.03418e-17)
(-0.000672586 -0.000114144 -7.73528e-19)
(-0.00064807 -0.000109766 2.41612e-18)
(-2.63923e-05 -0.000146557 -8.6472e-19)
(-3.07284e-05 -0.000155902 -4.19241e-19)
(-0.000731256 -0.00224044 -1.4616e-17)
(-0.000691326 -0.00223549 -4.8243e-18)
(-0.000716489 -0.00220166 -6.72159e-18)
(0.0107863 -0.00123077 1.99054e-18)
(0.0107088 -0.00125738 9.47562e-19)
(-0.00388795 -0.00314344 6.88156e-20)
(-0.00409052 -0.00294354 -2.88022e-18)
(-0.00431146 -0.0031128 -7.37417e-18)
(0.00311994 8.73995e-05 9.82927e-18)
(0.00465194 0.000451437 -5.60903e-17)
(-0.00319915 -0.000863856 -7.47451e-18)
(-0.00316634 -0.00091131 6.31798e-18)
(-0.00323874 -0.000906818 -1.9589e-18)
(-0.00685439 0.00230805 4.24882e-18)
(-0.0067869 0.00230285 1.48875e-17)
(-0.00580049 0.0024306 1.84517e-17)
(0.0172417 -0.000179498 6.80737e-18)
(0.0174093 -0.000307604 -3.8544e-19)
(0.0175105 -0.000277882 2.09392e-17)
(0.00359516 -0.0010964 6.89106e-18)
(0.00334431 -0.00109035 3.34185e-18)
(-0.00396745 -0.00346502 2.02112e-18)
(-0.00406584 -0.00322718 -1.92668e-17)
(-0.0042224 -0.00342215 -1.99609e-17)
(-7.02053e-05 -0.000318222 2.07011e-18)
(-6.2944e-05 -0.000299134 2.22462e-18)
(-6.17604e-05 -0.000305855 6.10837e-19)
(1.97879e-05 -0.00335503 3.36003e-17)
(-3.77015e-05 -0.00335988 -1.87865e-17)
(-2.93124e-06 -0.00342927 -5.17272e-17)
(-1.62365e-05 -0.00262611 -2.62353e-17)
(-5.35099e-05 -0.00263577 -1.41708e-17)
(-0.00022868 -6.58924e-06 1.85722e-18)
(-0.000222212 -6.52757e-06 -3.81762e-19)
(-0.000750587 -0.000455606 3.90914e-19)
(-0.00077548 -0.0004489 -1.47578e-18)
(-0.000842614 -0.00414003 -3.27524e-20)
(-0.000863994 -0.00393781 1.86433e-19)
(-0.00107036 -0.00405255 -1.43122e-18)
(0.00657273 -0.00048864 1.69742e-17)
(0.00772979 0.000882167 -3.24319e-17)
(0.0126182 0.00359733 1.55026e-17)
(-0.00253058 0.000728411 9.91208e-18)
(-0.00258881 0.000754761 -1.18386e-17)
(-0.00258386 0.000689392 6.92496e-18)
(-8.14239e-05 -2.26083e-05 -2.16595e-19)
(-8.08223e-05 -1.39957e-05 2.7094e-19)
(-0.00438108 0.000212008 -5.71329e-19)
(-0.00430578 0.000214422 -1.22994e-17)
(-0.00435274 0.00014126 3.35637e-19)
(-0.00448878 0.000528225 -8.52698e-18)
(-0.00440445 0.000482121 -2.72897e-17)
(0.00490042 -0.000729314 2.00304e-17)
(0.0048381 -0.000727741 6.81448e-18)
(0.0185748 0.0011304 1.55193e-17)
(0.0185217 0.00111281 1.41378e-17)
(0.0186623 0.00135315 2.46756e-17)
(-0.00010969 -0.000673086 -2.26309e-18)
(-0.000105891 -0.000691333 1.80942e-18)
(-0.000397426 -0.000915671 1.4742e-18)
(-0.000419615 -0.000915717 2.04757e-18)
(-0.00430318 -0.000314009 2.97719e-17)
(-0.00436324 -0.000305579 1.32951e-17)
(0.0102495 -0.00144636 -1.50512e-17)
(0.0103829 -0.00146434 -2.01236e-17)
(0.0102739 -0.00149182 1.12185e-17)
(-0.00015881 -0.00127686 6.61729e-18)
(-0.00018441 -0.00130395 1.33615e-17)
(0.00973803 -0.00145485 9.79097e-18)
(0.00964566 -0.00147349 -1.59941e-17)
(0.0098066 -0.00149794 -1.29332e-17)
(0.0047187 -0.000691394 -7.67404e-18)
(0.00479447 -0.000709714 2.62246e-18)
(0.00479211 -0.000686648 1.37914e-17)
(-0.00645492 0.0023514 4.10334e-18)
(-0.00678103 0.00229011 -8.48224e-18)
(-0.000437633 -0.000216758 -1.91424e-18)
(-0.000454313 -0.000224128 -1.89954e-18)
(-0.000262044 -0.00382121 8.6145e-18)
(-0.000292244 -0.00385679 2.829e-17)
(-0.000283044 -0.00393791 -1.12114e-18)
(-0.00419961 -0.000183706 3.95891e-18)
(-0.00423691 -0.000227491 -1.63448e-17)
(-0.00417061 -0.000238459 -8.00002e-18)
(0.00357845 -0.000704214 -2.26385e-17)
(0.00369028 -0.000705832 1.64852e-17)
(0.00365271 -0.000704163 -1.44777e-17)
(-0.000275782 -0.000521715 -1.73256e-18)
(-0.000287519 -0.000520677 -1.43671e-18)
(-0.000286882 -0.00053991 -2.51536e-18)
(0.0155747 0.00105701 -4.46165e-18)
(0.015128 0.000947131 -1.03827e-17)
(-0.000531748 -0.000576107 2.42215e-20)
(-0.0005445 -0.000566058 7.64255e-20)
(-0.00427806 -0.0018732 -6.60348e-18)
(-0.00424242 -0.00181111 1.90744e-17)
(-0.00419943 -0.00187618 -1.36141e-17)
(-0.000198046 -2.48964e-05 -8.06297e-19)
(-0.000195997 -1.79387e-05 -3.26519e-19)
(0.00691663 -0.000976536 8.22586e-19)
(0.00694042 -0.000930344 1.29458e-17)
(0.00699926 -0.000955587 -8.47142e-18)
(0.00785649 -0.000805914 -4.02363e-18)
(0.00777114 -0.000793702 1.77527e-18)
(0.00842242 -0.000763172 1.98144e-17)
(-0.00103898 -0.00178386 2.30275e-18)
(-0.00106857 -0.00175176 -8.39651e-19)
(-0.00220696 -0.00493661 -8.30809e-20)
(0.00214771 -0.00303026 2.89288e-17)
(-0.00255825 -0.00530969 1.46131e-18)
(-0.00229478 -0.00114594 -7.77647e-18)
(-0.00227471 -0.00108943 4.51538e-18)
(-0.000422361 -0.000219618 1.26213e-18)
(-0.000419138 -0.000206519 -8.59042e-19)
(0.0166743 -0.000297421 -1.21433e-17)
(0.0164721 -0.000447625 1.06463e-17)
(-0.00580495 0.0031345 -1.75681e-17)
(-0.00572335 0.00300555 -7.47941e-18)
(-0.00316442 -0.000818241 -1.33188e-17)
(-0.00323025 -0.000816926 -1.92457e-18)
(0.00995906 -0.00164814 -1.03544e-17)
(0.00973043 -0.00164147 -1.53948e-17)
(0.0101302 -0.00165241 -9.57355e-18)
(0.00463528 -0.000698365 -1.88239e-17)
(0.00438065 -0.000675877 -1.21426e-17)
(-0.000270962 -4.82988e-05 7.13172e-19)
(-0.000277833 -4.71804e-05 2.35352e-19)
(-0.000271989 -4.11787e-05 -5.6881e-19)
(-0.00197306 -0.00155771 -2.24311e-18)
(-0.00196415 -0.00161141 1.88166e-19)
(0.0056077 -0.000830689 1.03002e-17)
(0.00567828 -0.000835701 -7.37728e-18)
(0.00178626 -0.00093164 -2.19345e-17)
(0.00147289 -0.000904233 3.26202e-17)
(0.00171523 -0.00089063 2.71466e-17)
(-6.75239e-06 -9.22318e-05 2.64349e-18)
(-9.18726e-06 -0.000105309 -3.74769e-19)
(-0.000193663 -0.000214354 -7.4343e-20)
(-0.000205324 -0.000216765 1.48725e-19)
(-0.000202575 -0.00022537 -1.49142e-19)
(0.0129437 -0.000382633 -2.82206e-17)
(0.0128254 -0.000380425 -2.7839e-17)
(-0.00413956 -1.66015e-05 -1.35901e-17)
(-0.00449021 -0.000117316 -7.91849e-18)
(-0.00759256 -0.00100861 8.56887e-18)
(-1.4838e-06 -3.3963e-06 1.40295e-19)
(-6.77879e-07 -2.60359e-06 3.07404e-19)
(-1.44164e-06 -4.27073e-06 -2.21808e-19)
(0.016245 8.50875e-05 -2.30022e-18)
(0.0160983 0.000173997 2.31649e-17)
(0.0157716 0.000316195 1.45045e-17)
(-0.00454294 -0.000893206 2.0096e-18)
(-0.00455182 -0.000848532 -7.08655e-18)
(-0.00450039 -0.00087099 -4.57035e-18)
(0.000186777 -0.00262441 -1.91412e-18)
(0.00020692 -0.00265584 -3.6612e-17)
(-0.00240647 -0.00187455 -3.72167e-19)
(-0.00244792 -0.00193265 -3.21556e-18)
(-0.00246759 -0.00186199 1.11122e-17)
(-7.00373e-06 -9.97538e-05 5.41193e-19)
(-7.20197e-06 -8.40999e-05 8.73344e-20)
(-0.00132754 -0.00286824 -3.03351e-19)
(-0.00130607 -0.00277733 6.2596e-18)
(-0.00124187 -0.00283337 -5.43864e-18)
(0.0050422 -0.000710011 5.55006e-18)
(0.00509863 -0.000712234 2.81215e-17)
(0.00485938 -0.000672718 4.51836e-18)
(-0.00100756 0.000424343 8.06856e-19)
(-0.00100606 0.000457806 4.94468e-18)
(-0.00104458 0.000443774 -4.23717e-18)
(-0.00378604 -0.0028594 -6.26374e-19)
(-0.00369027 -0.00285569 1.88249e-17)
(-0.00374715 -0.00278229 8.67947e-18)
(-0.000125516 -0.00345276 4.81721e-17)
(-0.000149285 -0.00343697 2.58552e-17)
(-0.000159716 -0.00351374 3.31829e-17)
(-0.00102977 -0.00040955 6.28231e-19)
(-0.00105581 -0.000397526 2.93975e-18)
(-0.000363472 -0.000848858 -4.07841e-20)
(-0.000361832 -0.000870901 7.44168e-19)
(-0.00508452 0.00115329 -1.02547e-18)
(-0.00517916 0.00108237 -1.42373e-18)
(-0.00519519 0.00120824 -1.05721e-18)
(0.0126172 -0.000394508 -1.91302e-17)
(0.0127139 -0.000425066 1.41609e-18)
(0.0126995 -0.000397077 -3.96648e-18)
(-0.00548195 0.00102188 -1.41673e-17)
(-0.00542326 0.000920246 -2.19972e-17)
(-0.000763598 -0.00225622 -5.29551e-18)
(-0.000739227 -0.00229374 4.63323e-18)
(-0.000897967 -0.00188893 -4.6311e-18)
(-0.000883045 -0.00193826 -3.78888e-18)
(-1.41161e-06 -7.4517e-06 3.00466e-19)
(-1.32804e-06 -6.45554e-06 1.82422e-19)
(-4.9988e-07 -4.37151e-06 3.03878e-20)
(0.00981126 -0.000652547 -1.18939e-18)
(0.0099061 -0.000658826 6.37366e-18)
(0.0105311 -6.42354e-05 -2.36722e-17)
(0.0119882 2.05595e-05 -7.17004e-18)
(0.0120149 6.63948e-05 9.11927e-18)
(0.0152202 0.0004127 -7.7432e-18)
(0.0154099 0.000221801 1.46286e-18)
(0.0151273 0.000125155 6.72845e-18)
(-0.000410179 -0.000222048 1.37002e-18)
(-0.000426123 -0.000230112 -6.99901e-19)
(0.00439035 -0.000688854 3.41272e-17)
(0.00444783 -0.000706991 2.34256e-17)
(0.00438935 -0.000691704 -2.95646e-17)
(0.00750373 -0.000700562 -1.6336e-18)
(0.00760164 -0.000694633 -2.92631e-18)
(0.00740829 -0.000647924 2.35351e-17)
(0.0154054 -0.000828274 -2.14466e-19)
(0.0156809 -0.000825854 5.96694e-19)
(0.0114328 -0.00083717 9.2334e-18)
(0.0114731 -0.000875403 -3.47865e-18)
(-0.00541385 0.00351319 -4.07409e-18)
(-0.00537804 0.00367834 3.83736e-18)
(-1.32688e-05 -0.00011848 -2.8373e-19)
(-0.000158021 -1.75468e-05 5.15095e-20)
(-0.000150189 -1.89794e-05 1.02987e-18)
(-0.00015855 -2.6716e-05 2.7478e-19)
(-0.00398931 -0.000597723 4.68374e-18)
(-0.0039507 -0.000562695 2.78723e-17)
(-0.00401515 -0.000546609 2.94095e-17)
(0.00644049 -0.000853768 -9.45884e-18)
(0.00649627 -0.000824843 7.48978e-19)
(0.00642785 -0.000833718 2.40964e-18)
(-0.00497699 -0.000615249 1.45058e-18)
(-0.00486588 -0.00064771 3.69833e-18)
(-0.00516194 -0.000753085 -1.38828e-17)
(-0.00203127 -0.000693427 3.14668e-18)
(-0.0020822 -0.000671852 -1.20272e-18)
(0.0186464 0.0011287 6.13535e-18)
(0.0187313 0.000941441 -4.32646e-18)
(-0.00365294 0.00264354 1.06987e-18)
(-0.00356136 0.00262809 1.78683e-17)
(-0.000295959 1.64001e-05 7.55352e-19)
(-0.000300276 1.79421e-05 -2.21245e-18)
(-0.000295809 2.1848e-05 -2.8918e-19)
(0.0171049 0.000355652 -2.84788e-17)
(0.0173518 0.000123634 -2.59627e-17)
(0.0160842 0.000369324 -1.59131e-17)
(-6.63428e-05 -0.000135754 -1.45046e-19)
(-6.49595e-05 -0.000128911 -2.74109e-19)
(-5.91579e-05 -0.000126036 -3.52985e-19)
(0.0114038 -0.000840029 1.64576e-17)
(0.0105295 -0.000883259 -1.46961e-17)
(-0.00246574 0.000690565 -4.23836e-18)
(-0.00246767 0.000754739 2.56139e-18)
(-1.61604e-06 -2.62979e-06 -1.03412e-19)
(-2.49052e-06 -4.1557e-06 1.74608e-20)
(-0.00117891 -0.00191445 3.26113e-18)
(-0.00117006 -0.00197558 2.10889e-18)
(-0.00112794 -0.00191997 1.90051e-19)
(-0.00156227 -0.00266971 -2.31098e-19)
(-0.00152437 -0.00262915 4.63246e-19)
(0.000161569 -0.00270247 -1.31616e-18)
(0.000143693 -0.00265577 -9.75387e-18)
(0.0163301 -0.000206765 -1.26964e-17)
(0.0164049 -8.32862e-06 2.11991e-18)
(-0.00128856 -0.00227181 4.70364e-19)
(-0.00130777 -0.00233296 -6.57514e-19)
(-0.00123913 -0.00230162 5.92939e-19)
(-0.00118394 0.000222951 6.60167e-18)
(-0.00121458 0.0001987 -3.98017e-19)
(-0.00117414 0.000193813 6.54811e-19)
(0.0212868 0.00260278 4.93005e-18)
(0.0212078 0.00254368 -3.51619e-17)
(0.0220851 0.00254895 1.11956e-17)
(0.0101978 -0.00162579 1.72797e-18)
(0.00978158 -0.00164829 -1.31183e-17)
(0.00937614 -0.000205219 -1.46668e-17)
(0.00949798 -0.000187782 -5.28055e-18)