/*--------------------------------*- C++ -*----------------------------------*\
| =========                 |                                                 |
| \\      /  F ield         | OpenFOAM: The Open Source CFD Toolbox           |
|  \\    /   O peration     | Version:  v2012                                 |
|   \\  /    A nd           | Website:  www.openfoam.com                      |
|    \\/     M anipulation  |                                                 |
\*---------------------------------------------------------------------------*/
FoamFile
{
    version     2.0;
    format      ascii;
    class       surfaceScalarField;
    location    "150";
    object      meshPhiCN_0;
}
// * * * * * * * * * * * * * * * * * * * * * * * * * * * * * * * * * * * * * //

dimensions      [0 3 -1 0 0 0 0];
oriented        oriented;


internalField   nonuniform List<scalar> 
20673
(
0.00064559
0.000166749
-0.000807878
-0.000775033
-0.000454006
0.00124706
-0.000193423
0.000123753
6.95728e-05
-0.00072323
0.000127442
0.000587785
-0.00184697
0.00195967
-0.00010309
-0.000497071
0.000522536
-2.55998e-05
-0.000198934
3.73184e-06
0.000194512
9.55414e-05
-0.000118064
2.2655e-05
-6.34155e-05
6.6295e-05
-2.90961e-06
-0.000586777
-5.76497e-06
0.000598806
0.000254721
-7.75261e-05
-0.000177038
0.00028582
-0.00042407
0.000137552
-0.000394058
-9.19877e-05
7.47427e-05
1.71239e-05
-0.00104099
0.00154992
-0.000502393
0.000415684
0.000927099
-0.00133275
0.0016561
-0.000707589
-0.000931712
-0.00034513
0.000147595
0.000199198
-0.000207377
0.000492591
0.000857664
-0.000979474
0.00015235
0.000322042
-3.3712e-05
-0.000287582
-4.20702e-05
-0.00015701
7.56915e-05
0.00114967
-0.00120072
-7.81482e-06
0.000103346
-0.00189768
0.0018978
1.72282e-05
0.000243038
-0.000196259
-4.69394e-05
-0.000375723
-0.000539168
0.000914639
0.000212032
-0.000669922
0.000456866
0.00035293
-0.000584116
0.000231479
0.000156586
-0.000478341
0.00032396
0.000217286
0.000523801
-0.000729499
0.000374949
0.000576939
-0.00094255
-0.00081836
-0.000233025
0.00105118
-0.000345697
0.0013503
-0.00100441
0.000902112
0.00102459
-0.0019174
4.71796e-05
0.000136038
-0.000183296
0.00115262
-0.00105237
8.98634e-05
-2.57773e-05
-6.41316e-05
0.000654074
-0.000643226
0.000252359
-0.00022107
-3.15848e-05
0.000130186
6.04502e-05
-0.000123962
-3.93646e-06
0.000104922
-0.000104927
-6.99735e-05
0.000189253
-0.000112399
0.000814088
-0.000695674
-0.000119438
-0.000503346
0.000931794
-0.000413473
-0.00138046
0.00126453
0.0001161
-7.88223e-05
-0.000262698
8.56872e-05
4.65788e-05
-0.000132607
0.000422656
-0.000384647
-3.80302e-05
1.29752e-05
-0.000159192
0.000201602
-0.000250886
0.000232949
2.40395e-05
-0.00120104
0.00184951
-0.000646123
0.000470465
-4.78018e-05
-0.00128157
0.000935915
0.00112796
0.000544048
-0.000477544
-2.40109e-06
0.000486195
4.82647e-05
0.00020706
0.00159731
0.000572833
-0.00215161
-0.000836065
0.000506932
0.000344073
0.000354593
-0.00083606
-0.000308589
0.000348761
-3.99045e-05
-0.00154997
0.000795982
-2.79701e-05
0.00108074
-0.000193541
-0.000572691
7.55279e-05
-5.12505e-05
-0.000371264
0.000423164
0.000134994
-0.00189948
-0.00184606
-0.000179375
9.55382e-05
-8.23287e-05
-1.29995e-05
-0.000573336
-0.000293344
0.000872713
3.59101e-05
-0.00187474
-1.56878e-06
-6.19197e-05
5.23634e-05
-8.05048e-05
2.80767e-05
-0.00208638
0.000206342
0.000386008
6.40105e-06
-0.000392475
-0.000592722
0.000212845
0.000378256
5.17031e-05
-2.65831e-06
-4.90642e-05
-0.000746823
0.000459101
0.0002909
-0.00027634
-1.84698e-05
0.000294131
6.01679e-05
0.000619032
-0.000677614
0.000883633
-0.000244945
-0.000626461
-0.00157185
0.000503015
-0.000535841
3.22308e-05
8.96641e-06
8.07371e-05
-0.000327943
0.000364763
-3.61551e-05
-0.00031602
-0.000428999
0.000854853
-0.000883968
4.80066e-05
0.000287023
-0.000337731
-0.000243914
-5.80381e-06
-0.00016993
9.80902e-05
-3.47742e-06
4.89558e-05
-4.55644e-05
0.000102868
-0.000664416
0.000564084
0.00138515
-0.000655289
-0.000705067
-0.000550362
0.0015917
-0.00103448
-0.000126479
0.000413963
-0.00042494
-0.000124792
0.00054939
3.46078e-05
9.00817e-05
-0.000125169
-0.000161259
0.000118427
4.32005e-05
0.000469008
-0.00036021
-0.000109871
0.000401379
0.00040996
-0.000812766
-0.000374475
-0.000333014
0.000746191
0.000641535
-0.00116083
0.000519105
0.000549236
0.00026384
2.78208e-05
0.00030223
-0.000320771
0.00081892
-0.000978052
0.00018774
-4.40449e-05
8.88421e-05
-4.48573e-05
-0.000608027
0.000623193
-1.45687e-05
-3.30956e-05
0.000119225
-0.00170346
0.00101435
-0.000532272
-0.000177574
0.000713016
-0.00016925
0.000203223
-3.39377e-05
0.000298548
-4.64433e-05
0.000448513
-0.000118126
-0.000332004
-8.41721e-05
4.01209e-05
0.000344805
-0.00137539
0.00103114
0.000457228
-0.000302464
-0.000154704
-0.00123906
-0.000556539
0.00182163
2.64661e-05
0.000404243
-0.000430898
-8.01526e-05
-7.53227e-05
0.000155506
0.00136518
-0.000327517
-0.00103762
-0.00029539
0.000287594
7.82612e-05
1.65915e-05
-0.000133137
4.39027e-05
8.91136e-05
0.000877344
-0.000666108
-7.47954e-05
0.000204927
-7.74525e-05
0.0010977
-0.00164003
-0.00097847
0.000587446
0.000407503
9.52628e-05
-0.000108186
0.000223483
-9.24695e-05
-0.000121822
9.74211e-05
0.000102942
2.29587e-05
-0.000125985
0.00162738
-0.00128194
0.000666197
0.000280616
0.000307689
1.28165e-05
0.000112988
-0.00021134
9.8126e-05
0.000102639
-0.000110462
0.000801042
-0.000149608
-0.000212016
0.000613016
-0.00189375
5.65152e-07
0.00107084
0.000294267
-7.06405e-05
-0.000135656
0.000206138
-0.000431411
0.000829225
-0.00038023
-0.00173383
-0.000133379
0.00187172
6.33347e-05
0.000575481
-0.000640394
-0.00179387
-5.27547e-05
-8.13739e-05
2.85169e-05
5.28034e-05
0.000318136
-0.000595636
0.000278302
-0.00196404
0.000765267
-0.000402838
0.000708422
-0.000289422
-0.00075323
-0.000230393
0.000993445
-3.17473e-05
-9.96556e-05
0.000131292
0.000209989
0.00024733
0.000272755
-1.62129e-05
-0.000257016
0.00101058
-0.000898669
-0.000107524
0.000143198
0.000661157
-0.000794846
-0.000507092
0.000165325
0.000342054
0.00047161
-0.00103764
-0.000113035
0.000103074
9.95964e-06
8.36943e-06
4.34173e-05
-9.42786e-05
0.00020701
-0.00119297
-0.000251403
0.00144705
0.000714759
-0.00105223
0.000337428
0.000603887
-0.000719788
0.000116362
-0.000108835
0.000143327
2.26982e-05
0.000424183
0.000388421
7.9667e-05
0.000345511
-0.000309412
0.000124544
-0.000124403
-3.55638e-07
-0.00103447
0.000666016
0.000387786
0.00108562
-0.000443784
0.000329167
0.000594577
-0.000917637
1.68902e-05
0.000153233
-0.000170124
0.000197952
-0.000436989
0.000237379
-0.00163691
0.000780958
0.000870543
-7.20277e-05
5.75389e-05
1.44994e-05
-0.000864426
0.000853717
1.4583e-05
-6.13244e-05
0.000164434
0.000408116
-0.000381502
-6.8761e-05
-1.25677e-05
-0.00132186
-0.000111087
0.00145769
0.000561318
-0.000456493
0.000801628
-0.000573965
0.00030778
-0.000721986
0.00105834
-0.000184491
-0.0001839
0.001108
-0.000920955
9.65237e-05
0.000146445
-0.000380843
6.38942e-05
0.000317864
-0.000132093
-0.000374019
-0.000372183
-1.68773e-06
0.00037398
0.000323138
-6.42876e-05
-0.000259758
0.00016589
-0.000153838
-1.18437e-05
-0.000315887
-1.12727e-05
4.06976e-05
-0.000397583
0.000357795
0.000240934
-0.00151585
0.00130079
0.000681653
-0.000669152
-1.2995e-05
0.00050031
-0.000876409
1.00535e-05
5.21002e-05
0.00086791
0.000539706
0.000548655
2.24006e-05
-0.000570043
-1.44989e-05
-0.000336444
0.000351697
0.000173079
-0.000272871
9.84109e-05
0.000155586
-0.000100088
-0.000167443
3.94086e-05
0.000126042
-0.000141587
0.000109654
-2.73634e-05
7.97181e-05
0.000140057
-4.78229e-05
-9.22825e-05
-0.000921999
0.0018322
0.00183284
-0.000218431
-0.000113622
-4.74434e-05
-0.000240875
9.03853e-05
0.000150325
0.000253995
-0.00198272
-0.000164117
-1.58843e-05
0.000179524
8.73007e-05
-5.93076e-05
-2.80064e-05
0.000367156
-4.51582e-05
-0.000187058
0.0010335
0.000447579
-0.000617901
0.000168772
-0.000164812
9.21205e-05
7.36544e-05
0.000181869
-0.000134968
-4.69501e-05
0.000178955
-0.00132114
0.0011621
-0.000329327
2.11108e-05
0.000533965
-0.00182708
0.000385708
-0.000302999
-8.11705e-05
0.000240045
-5.50332e-05
7.75145e-05
-2.57459e-05
-5.18576e-05
-4.80561e-05
9.43582e-05
-4.63138e-05
0.00131278
-0.000888246
0.000216414
0.000407269
-0.000622026
0.0007177
-0.00056403
0.000982829
-0.00113701
0.000173614
-0.000126522
-0.000251549
0.000448136
-0.000363014
-9.15871e-06
0.000107668
-0.000160636
5.28468e-05
4.6669e-05
4.05827e-05
0.000262085
0.000154348
-0.00037367
-0.0004946
0.000877612
5.26582e-05
-5.61632e-05
-0.000312772
0.00029581
1.62854e-05
0.000653994
-3.99275e-05
-0.000618086
-0.000636893
0.00128928
6.31778e-06
0.000245358
0.000118255
-2.49156e-05
-9.34953e-05
-4.05408e-05
3.12707e-06
4.19531e-05
-0.00014171
-0.000142648
0.000283813
0.000241035
-1.8453e-05
-0.000221827
-0.000144048
0.000859258
-0.000459758
0.000775867
-0.000312166
-0.000101182
-0.0006108
0.000389638
-0.00103932
0.0006546
2.30608e-05
-6.33135e-05
4.01649e-05
0.000285803
-0.000212613
-7.91039e-05
0.00052301
5.21834e-06
-0.000526102
0.000713644
-0.000653316
-6.14016e-05
-0.00061169
-0.000349743
-0.00133778
0.00192695
0.00030632
-8.74407e-05
-0.00022121
0.000311157
-0.000228352
-8.28354e-05
2.59757e-05
0.000245485
-0.000922607
0.000741282
-0.00129576
0.000261433
7.526e-05
-8.04672e-05
7.53397e-06
-5.30282e-05
-8.0075e-05
0.000180684
-0.000181983
1.22988e-06
0.000287183
2.13965e-06
-0.00028954
-5.38507e-05
0.00106454
8.44628e-05
-0.000104451
1.97548e-05
8.53933e-05
-2.63761e-05
-5.92325e-05
-2.80815e-05
-8.47933e-05
-4.89205e-05
-0.000227639
-0.000138432
-0.000456606
0.000789593
-0.000192547
4.46851e-05
0.000219008
0.000254347
-0.000207621
-4.50394e-05
3.10512e-05
-5.94846e-05
2.83117e-05
-0.000147572
9.73319e-05
5.13696e-05
-0.00039693
-0.000430713
5.20179e-05
8.80626e-05
-0.000249044
0.000627781
-8.30299e-05
0.000146228
-4.88762e-05
-7.64258e-05
-0.000137948
0.000214588
0.00082664
-0.000926844
0.000128833
-6.23725e-05
-9.64691e-06
0.000250147
-7.9305e-05
-2.96837e-05
-1.48141e-06
-0.00148962
0.000673644
0.000824196
0.000660891
0.000354339
-0.000557581
-0.000494425
-0.000214475
7.26327e-05
-0.0012207
0.000341951
0.000884858
-0.000266494
0.00022261
4.70694e-05
-0.000229087
-6.7563e-06
0.000235912
0.000146204
-3.85629e-05
4.08969e-05
0.000140179
0.00147632
-0.00127487
-0.000103314
7.79175e-05
2.49746e-05
0.00127893
-0.0014646
0.00018179
-0.00023336
-3.00216e-05
0.000758009
-0.00196983
-0.000173501
0.000492203
0.000306641
-0.000146908
-0.000112082
0.000318561
6.8563e-05
0.000439879
-0.000896786
-0.000508114
-0.000504815
-4.35528e-05
-0.000125599
0.00102046
-0.00134632
0.000341544
-4.25068e-06
0.000229653
-0.00022542
-0.0007361
-0.000124404
-0.000454011
-0.00020819
-0.000513705
0.000656928
-0.000142378
-0.00196102
0.000639685
-0.000209276
5.85126e-05
0.000150686
-8.09811e-05
-3.18261e-05
0.000112762
0.00112196
-0.0016564
-0.000143616
-1.6309e-05
0.000219405
0.000183485
-0.000260106
-0.000998519
0.00173687
-0.000712454
-4.87451e-05
-3.18942e-05
-0.000778675
0.000289351
5.21997e-05
2.5179e-05
0.000456954
0.000115692
-0.000581459
8.14586e-05
-0.000541627
0.000461472
-0.00018193
5.9984e-05
0.000121764
-0.000363967
0.000388412
-2.45863e-05
-0.00169971
0.000509557
-0.000271157
0.000177057
0.000124754
0.000349387
-0.000475711
-0.000495952
-0.000985381
0.000112084
6.20039e-06
-0.000486737
-4.3028e-05
0.000531103
-0.00182308
0.000972105
0.000864031
0.000136096
-5.44201e-05
-8.17559e-05
0.000220952
0.000460402
4.44026e-05
4.08298e-05
0.000681805
0.000755268
-0.00143656
0.000190248
-0.000180685
-9.74662e-06
-0.000541676
0.000890827
-0.000340326
0.000251718
-8.43205e-06
-0.000243273
0.000629039
-0.0005055
-0.000920015
0.000435965
0.000485828
-0.000295717
-0.000621763
-0.000101373
-9.22519e-05
0.000104565
0.00072228
-0.00082172
-0.00060175
0.000936338
-0.000185866
1.65503e-05
-0.0017777
0.000259076
0.00152726
0.00072919
-0.00148526
0.000767296
8.31736e-05
-8.69248e-06
0.000635158
-8.51983e-05
-0.00121549
0.00185404
-0.000620314
0.000134066
3.38238e-05
0.000498768
-0.000145978
5.18355e-05
0.000646028
-0.000651645
7.86281e-05
-0.000158629
0.000120151
-0.000188486
6.73537e-05
0.00097402
-0.000117289
-0.000628186
-0.000754491
0.00141567
0.00127779
-9.25884e-06
0.000271805
-0.000658063
-0.000225041
-3.86433e-06
6.55645e-05
-6.71434e-05
1.60298e-06
-0.000474699
0.000599545
-0.000123901
-7.94272e-06
-0.000201351
-0.00132296
0.00212994
-0.000787746
0.00051773
6.36233e-06
-0.000228874
-9.54684e-05
0.000324394
-8.65469e-05
0.000135775
-4.89715e-05
-0.000160947
6.06379e-05
-2.96628e-05
4.07226e-05
-0.000744451
0.00044826
0.000328755
-3.69721e-05
0.000323674
-0.00125259
0.000401721
0.000882856
-0.000335281
6.17627e-06
0.000860822
-0.000484117
-0.00037641
1.23638e-05
0.000259684
-1.69673e-05
-0.00056748
0.000393502
0.00016714
0.00061102
0.000244906
-0.000848141
-0.000166472
5.37553e-05
0.000460889
0.000101821
-0.000233929
7.59456e-05
0.000160161
-3.91253e-05
0.000327581
-0.000289604
5.82007e-05
0.000193449
6.52856e-05
0.000116508
0.000958429
-0.000564944
-0.000677153
9.37436e-05
-0.000988377
0.000399852
-0.000140051
-0.000172022
-8.64728e-05
0.000205865
-0.000119442
0.00228447
-0.00101176
-0.00125392
-0.000231615
-3.97234e-05
0.00209148
-0.000360165
-0.00171703
0.000134282
-0.000172479
3.81658e-05
0.00053291
-8.38311e-05
-0.00063254
0.000742812
0.000592035
-0.00100315
0.000421275
-0.000142653
0.000303837
-0.000161279
0.00112726
-0.000523648
0.000199223
0.000111742
-0.000309298
0.000421387
-0.000111775
0.000100408
5.723e-05
-0.000157751
-0.000648524
0.00051081
0.00013648
-0.00100308
-0.000807097
-6.89109e-05
0.00051529
-0.000300248
0.000209127
-0.00139568
0.00121693
2.81322e-05
0.00013226
-0.00189937
-0.00202649
0.00025899
0.00177759
0.000389652
-0.000231215
0.000102764
-1.98229e-05
-0.00155938
-0.000628031
0.00220166
-0.000123289
-0.00110457
-0.000248814
2.42595e-05
0.000495514
-0.000434338
-2.40579e-05
0.000214043
0.000338847
-0.000242983
-9.59716e-05
0.000428364
-0.000346365
-8.20096e-05
0.000377697
-0.000336203
0.000274013
-0.000154015
-0.000120044
0.000153847
-0.000108115
-4.57624e-05
-0.000134013
4.70865e-05
0.000545142
-0.00184833
7.77891e-05
-0.000242125
0.000164251
0.000220958
0.0004285
-0.000624465
-0.000263981
0.000897068
0.00142591
-0.00116264
-3.1685e-06
-0.000119215
-0.000121928
0.00021874
0.000119795
-0.000538698
-0.000792972
0.00133907
-0.000211767
0.00014838
6.40542e-05
-0.000986013
0.00166897
-3.23914e-05
-0.000624822
-0.000198131
-3.44387e-05
-0.00147423
0.000219893
0.00126741
0.000334963
-6.53194e-05
-0.00027017
-0.00109044
-0.00059509
0.000181289
0.000162562
-8.33461e-05
3.45538e-05
8.60248e-05
-0.00014719
-6.55952e-05
0.000151957
0.00049466
-0.000573944
8.09297e-05
0.000111784
0.000316588
3.30857e-05
0.000102979
-0.000124709
1.8768e-06
0.000122725
3.87779e-05
1.40481e-05
-5.28302e-05
-0.00019272
7.70077e-05
0.00013639
0.000191917
-0.000149863
-4.14717e-05
-0.00010567
-0.00135554
-0.000587726
-0.0012755
0.00187702
6.45794e-05
9.84251e-05
-0.00016296
0.000177898
-9.50007e-05
2.05765e-05
5.36147e-05
-0.000425391
0.000377796
4.97999e-05
3.77588e-05
9.88795e-05
-0.000136925
5.95519e-05
-2.12553e-05
-3.8279e-05
-0.000964855
0.00119769
-0.000115078
2.09898e-05
9.0348e-05
-0.000395487
0.000385699
1.01119e-05
-0.000449881
0.000507177
-5.62614e-05
-0.000184314
0.000123119
6.10771e-05
0.000462844
0.00122655
0.00107569
-3.49376e-05
9.58834e-05
-0.000395539
0.000872961
-0.000260416
-0.000448657
-0.000120597
0.000264565
-0.000143973
2.83855e-05
-0.000502259
-0.000465866
-0.000748384
-0.000350261
5.35871e-05
0.00031168
-0.000555214
8.34681e-05
2.21163e-05
-0.00013109
6.98944e-06
-0.000131689
-0.000273397
-0.000321902
0.000289169
-0.000189269
-0.000177271
0.000106259
-7.98447e-05
-3.80235e-05
0.000286429
0.000227466
-0.000513695
-0.000240425
0.000128291
0.000112338
0.000316563
-3.92159e-05
-0.000278875
0.000149249
0.000134392
-0.000284189
-6.98768e-05
-0.000110066
0.000410852
-0.000303894
-9.47971e-05
1.35717e-05
8.13146e-05
0.000102715
-4.32245e-06
-6.47566e-05
-0.000152145
0.000184727
-3.25079e-05
-1.11564e-05
-0.00024639
0.000258469
0.000196984
-0.000218268
1.88374e-05
0.000588904
-0.000977215
0.000175199
-0.000667397
0.000493036
2.51609e-05
3.43915e-05
-6.60153e-05
-1.81847e-05
-0.00155242
0.000578568
3.06833e-05
-9.55844e-05
-9.95691e-05
0.000229559
-0.00012997
5.73398e-05
9.64224e-05
-5.90321e-06
-6.41359e-05
-5.82207e-05
-0.000126115
0.000237493
-0.000111762
-0.000125734
-3.4526e-05
0.000408506
-0.000372482
0.00184157
-0.000982149
-0.000831178
6.44863e-05
-9.40772e-05
2.96052e-05
-6.34607e-05
8.09032e-05
-1.80831e-05
-0.0010583
0.000315445
-3.79606e-05
-0.000753602
0.000803153
0.000114681
0.000159272
-1.44519e-05
-0.000364844
-0.000218971
-8.19516e-05
0.00030148
9.33576e-05
1.1075e-05
-5.0593e-05
-2.57776e-05
7.63196e-05
0.000403844
4.65942e-05
-0.000264735
0.000218135
0.000185809
1.35569e-05
0.000264279
0.000101177
-4.05929e-06
-0.000125413
0.000129292
0.000160462
-0.00014066
-2.07992e-05
-0.00127101
0.000673362
-0.000981025
-0.000537312
0.00153148
0.000430538
0.00019116
-5.66879e-05
-9.19539e-05
-2.878e-05
0.000684133
-0.00140393
6.02072e-05
0.000342325
-0.000358715
-0.000320158
0.000424029
0.000111644
-2.70421e-05
-8.98484e-05
0.000154499
2.60813e-05
0.000245134
0.000160186
-0.000405067
-2.44804e-05
-0.000108308
-0.000624925
0.000281166
-0.000173016
-3.85791e-05
7.85379e-05
-0.000124662
4.60837e-05
0.000189758
0.000327727
-0.000515528
0.000864283
-0.000188019
-0.000353401
-0.00165786
0.00169258
-0.00174878
5.56313e-05
0.000229885
-0.000302358
-1.28859e-05
0.00070095
-0.000850424
0.000166119
-0.00162517
0.00168396
-5.54997e-05
0.0002976
0.000327093
-1.19022e-05
-0.00010868
-7.31776e-05
0.00224224
-0.000997442
0.00130667
-0.000538446
-0.000755528
-0.00101361
7.10144e-05
0.000952572
-6.93908e-06
-8.98145e-05
-0.000551926
6.67083e-05
0.00030943
-0.000138181
0.000215373
0.000115993
2.07508e-05
-0.000136588
8.99216e-05
-0.000137736
-0.000594582
0.000142409
-0.000558322
-0.00109879
0.001678
6.89135e-05
-4.59335e-05
7.63626e-05
-0.000521409
0.00126038
-2.50761e-05
-0.000198376
0.000223919
2.32856e-05
-0.000175371
-0.000847075
0.000640479
0.000209548
-0.000221712
8.6263e-05
0.000175711
-0.000442685
-6.08674e-06
-0.000398069
9.48256e-05
0.00030506
-0.000209883
0.00037717
-0.000167127
-1.51338e-05
0.000131092
-0.001261
0.000416266
0.000846184
-0.000100444
0.000138149
-0.000588616
0.00120676
-0.000100384
0.000141316
-0.000360267
0.000113925
5.81018e-07
-0.000114759
-0.00162227
0.00055152
0.000552767
-9.35086e-05
-0.00045161
-0.000176971
0.000337801
3.28425e-05
2.77387e-05
6.67852e-07
-8.4092e-05
-4.56364e-05
0.000164836
0.000560381
-6.48823e-05
0.00145705
-0.00052089
0.000348397
0.000533909
-0.000872151
0.0014783
0.000778144
0.00086559
-0.00082699
-3.73399e-05
0.000611806
-0.00181088
-9.24192e-05
-7.1633e-05
0.000500702
-1.22081e-05
0.00012598
-0.000307958
9.19394e-05
0.00135459
-0.000532544
-0.000809528
0.000144779
-0.00012357
-7.39528e-05
1.08606e-05
-0.00139526
0.000864224
0.000538949
0.000826081
-0.00207907
0.001257
0.000459082
-0.000161694
-0.000297735
-2.58389e-05
0.00010328
-7.78845e-05
6.78309e-05
-5.80047e-05
-9.88408e-06
-0.000376259
0.000417175
-4.00811e-05
9.81246e-05
0.000139408
-5.44384e-05
0.00013319
0.000640608
-4.54709e-05
-0.000123294
-0.000664815
7.46409e-06
0.000662164
-0.000108659
0.000144771
-3.54763e-05
0.000386817
-0.00120568
-0.000448976
-2.66766e-05
-0.0002131
0.000282706
-6.99415e-05
-7.64414e-05
-0.000164621
-0.00035717
5.29426e-05
0.000300634
-0.000163724
6.33933e-05
-0.000290668
-0.000318983
0.000620254
5.1495e-05
-1.2679e-05
0.000591733
6.6842e-05
0.000899908
-0.000185262
-4.06276e-05
-6.33596e-05
-8.74226e-05
6.07611e-05
-0.000526815
0.000564788
-3.88284e-05
-0.000576847
0.000297585
-0.00105617
-0.000564044
1.90766e-06
-0.00162388
-0.000565866
0.000314327
1.31133e-06
9.9485e-05
0.000287465
-0.000501427
0.000859249
6.48825e-05
0.000223606
-7.34439e-05
0.0012227
0.000640393
-0.000211325
0.000428827
-0.000355333
0.000453068
0.000350707
7.29083e-05
-0.000424426
0.00194879
-0.000936502
-0.000988699
0.000187815
-0.000116904
-7.08897e-05
0.00063575
4.37877e-05
-0.000352812
0.00059486
-0.000595581
-0.000159648
-0.000684124
0.000187858
0.000369249
0.000523283
-9.3023e-05
-0.000382895
5.07246e-05
-0.000321412
0.000267502
0.00100091
-0.000397088
0.000827334
-0.000650464
-0.000174244
-0.000258296
-0.00112199
-0.000278334
-1.60706e-05
0.000294468
0.000289372
-0.000328513
0.000126593
-2.33286e-06
-0.000571134
0.000666364
-0.000239598
0.00015327
8.77608e-05
-8.66686e-05
-0.0004408
0.000142691
4.14584e-05
-0.000184939
9.06166e-05
0.00019169
-0.000800665
-0.000436981
0.00123861
0.00141237
-0.000695393
0.000544871
-0.000368419
-0.000180694
0.000685718
-0.000169208
0.000108389
-0.000112692
0.000687852
-6.30465e-05
0.000393568
-0.000405618
0.00039166
1.07838e-05
0.000117202
-0.000194684
-3.28522e-05
-0.000467638
0.000501312
8.53127e-05
-5.58812e-05
-2.94486e-05
-0.000647535
0.000762481
-0.000111738
-0.00166198
0.000696209
3.36039e-05
-5.42632e-05
2.06585e-05
8.60309e-05
-8.55012e-05
-0.000601634
-0.00110329
0.0017241
-0.000247737
0.000223599
-6.72259e-05
8.33343e-05
-1.68356e-05
-0.000370823
-4.36569e-06
-8.48749e-05
-6.19062e-05
0.000111519
-8.78766e-05
-8.32499e-06
0.000766059
-0.000792263
-7.21154e-06
-0.000532938
-0.000231848
-0.000343886
0.000287709
-0.000208998
0.000251468
5.47326e-05
-0.000220881
0.000281968
1.20521e-05
-0.000168158
0.000157693
-3.71195e-05
-0.000240573
-6.11426e-05
0.000297692
0.000625327
-0.000584216
-5.09044e-05
4.63036e-05
0.000416974
-0.000416481
4.81028e-05
-0.0001291
0.000361385
-5.54236e-05
0.000865299
-0.00139611
-0.000163491
0.000180376
-0.00145812
0.000572952
0.000894502
-7.16726e-06
-8.12003e-05
0.000924487
-0.000255301
0.000635755
-0.000869276
0.000429689
0.000381157
-0.000898029
0.000521649
0.0017992
-0.00101757
0.000197622
-0.000531605
0.000335634
0.000341013
2.22124e-05
-0.000305484
0.000216155
0.000498693
-0.000712031
0.000138952
9.82822e-05
5.28341e-06
-0.0004003
-0.000438545
0.000261445
0.000176287
0.000105678
-2.71552e-05
-1.67386e-05
0.000132987
0.0009751
-0.000431545
-0.000160444
-0.000310305
-0.000322681
0.000637521
-8.74709e-05
7.49947e-05
1.23755e-05
-8.89385e-05
2.33972e-05
6.5581e-05
-0.000110445
0.000259663
-0.00144728
0.00218118
-0.000721261
-3.01774e-05
-0.00021832
0.000513244
5.08354e-05
3.07307e-05
0.000319209
-0.00029831
2.07289e-05
-0.000202949
0.000170656
3.30979e-05
-0.00015646
0.000295262
-0.000138725
9.18799e-06
-0.000707516
0.000704358
0.00028031
0.000344309
-0.000252601
3.9491e-05
0.000213755
0.000573733
-0.000550413
0.000185885
-0.000296034
-0.000352013
-0.000169098
0.000520653
0.000109365
0.000236562
-0.00034524
1.50949e-05
0.00037208
-0.000391346
-0.000159206
4.89448e-05
-0.0011728
0.000683601
0.00023899
-0.000195282
-4.16691e-05
8.40052e-05
0.000453576
-0.000730608
0.000204069
0.000771619
-0.000992384
-0.00121615
0.00202592
-0.000787452
-0.00011423
-0.000101534
-3.93608e-05
0.000141372
0.000171737
-0.000205717
3.55092e-05
0.00012818
0.000160721
-0.00190681
0.000468722
-0.00176866
0.000129976
0.00165039
0.000346964
1.29232e-05
-0.000192102
-0.00116236
0.00136505
0.000142595
-0.00028304
0.000135422
0.00105963
-0.000818266
-0.000230343
-1.55555e-06
-0.000420581
0.000465261
-4.28285e-07
6.4913e-05
-0.000233124
-0.000277522
0.000508793
8.18136e-05
-0.000553335
0.000685268
2.80065e-05
-0.000672049
-0.000337156
0.000390535
-4.95072e-05
-0.000931965
5.25716e-05
0.000879247
-0.000126867
0.000414918
-0.000546589
-0.00108942
0.00163637
-0.000272785
0.000209881
6.32564e-05
7.42322e-05
-0.000607742
0.00053838
9.59333e-07
-0.000335495
-0.000326579
-0.000206564
6.67335e-05
0.000139774
0.000368945
-0.000250986
-0.000112926
-0.000153178
0.000314678
-0.000162253
0.00012668
-0.000397094
4.06403e-05
0.000991719
-7.83397e-05
-0.000137222
0.00021552
2.33014e-05
-0.000358557
4.30971e-05
8.04401e-05
-0.000123576
0.00101899
5.01996e-05
-0.000337105
0.000108287
-0.000860912
0.000134703
0.000729552
-0.000443421
0.000522194
0.000225199
-0.000107212
0.000362032
-0.000457315
0.000102269
1.76934e-05
-1.96945e-05
-0.000441174
8.37816e-05
0.00168985
-0.00177095
-0.000727833
0.00179408
-0.00105581
0.000261748
-0.00021495
-4.64906e-05
-0.000638337
0.00143169
-0.00131906
0.00119319
0.000129175
0.000655075
-0.000476088
-0.000173041
0.00125571
-0.000741566
-0.000476073
6.70559e-05
5.0559e-05
-9.53293e-05
-0.000472015
-0.00112213
-1.65575e-05
-7.09652e-05
0.000366281
0.00049972
-0.000860364
3.20855e-05
-0.000276325
-0.000135564
0.000263929
-2.80906e-05
6.0815e-05
0.000534006
-0.0008206
0.00184322
-0.00100593
-0.00115667
-0.000449764
-6.24544e-05
-0.000209851
7.91253e-05
-6.82135e-05
-1.17968e-05
-0.000182651
0.000160932
2.17963e-05
-0.000606788
-0.000652743
-0.000334072
0.000345738
0.00048699
-0.000185405
-4.44577e-05
0.000131241
-0.000398272
0.00028587
0.000810164
-0.000134196
0.000122664
1.19565e-05
0.00133757
-0.000581659
6.58603e-05
-0.000120381
0.000652514
-0.00125185
0.000614765
0.00158145
-0.000602788
-0.000973302
-8.97256e-05
-5.07849e-05
0.000140484
0.00206953
3.55161e-05
0.000196537
-0.000208983
0.00112949
0.000611391
-0.00172137
-0.000313556
0.00027646
7.8479e-05
-0.000738987
0.000563995
0.000353722
-0.00091189
0.000343124
0.000359924
-0.000697714
-7.35402e-05
6.60599e-05
-0.000243987
7.6398e-05
0.00016747
0.000533153
0.000935027
0.000167282
5.01187e-06
-0.000170047
-0.000226922
0.000415893
-0.000190103
0.000132997
0.000110834
-9.14155e-06
0.000125248
-5.39551e-05
-7.13978e-05
0.000186301
-1.42813e-05
-0.000200277
0.000510276
-0.000128864
-0.000390392
-0.000278595
0.00018503
8.17295e-05
0.000101458
-0.000342013
0.000525557
-0.000173225
-0.00036961
0.000144651
-0.00062817
0.0005128
0.000119334
-0.000377506
1.49425e-05
0.000359278
-1.71178e-05
0.000217253
-0.000200555
0.00208846
-0.0013954
-0.000691523
-0.00180505
0.000857705
0.000972525
0.000128265
0.000487647
0.000250911
-0.000465202
0.00021354
-0.000254813
5.23875e-05
0.000191043
0.000409916
-0.000337757
-4.79396e-05
-5.93177e-05
1.86409e-05
4.06341e-05
6.43221e-05
-3.58733e-05
-4.36346e-05
-0.000313085
0.000494727
0.000147636
3.68485e-05
-0.000183317
0.000423601
-0.000115983
-0.000302608
-0.000470703
0.000879209
-0.000388263
0.000312041
0.000952712
-7.7942e-05
-0.000333905
0.000552425
-0.00137589
4.36198e-05
0.00134223
0.000455332
-0.00119116
-5.22302e-05
-3.68193e-05
-0.000234653
0.000249891
-1.30574e-05
0.00017843
-1.25882e-06
-0.000177247
-2.94838e-05
0.00108071
-0.000114362
8.24831e-05
1.56796e-05
-0.000180773
0.000163554
0.000366388
-0.000686688
-8.14232e-05
-0.000162189
0.000243586
0.000402221
1.85605e-05
-0.000420957
-0.000848075
-0.00093058
-0.000224509
-2.66642e-05
-0.000217754
0.000385129
0.000224218
-0.000558093
6.98604e-05
0.000646496
-8.43961e-05
-2.00828e-05
-9.16324e-05
0.00022661
-7.66073e-08
0.000380495
-0.000158679
0.000299061
-0.000490246
0.000188556
0.000372889
-0.000405908
-0.000273238
-0.000531196
-0.000209623
-2.09711e-06
0.00022453
0.000685965
0.000434456
-0.00112071
0.000783236
-0.000816768
5.2586e-05
0.000170431
-0.000685341
-0.000427849
0.00114091
-0.000165317
0.00125632
-0.00120244
-4.97515e-05
-0.000292215
-6.06421e-05
0.000110956
-0.000182119
-6.91378e-05
0.000251188
-0.000185944
0.000127774
5.79323e-05
-0.00130115
0.000501356
0.000164861
-4.55991e-05
-0.000181241
-1.01394e-05
0.000191247
-0.00124843
-0.000695651
-0.00013956
8.50904e-05
0.000162206
0.00018681
-7.40765e-06
-0.000173897
0.000262947
-0.000203292
-5.97168e-05
-2.12685e-05
-3.81254e-05
0.000220656
-0.000430146
-4.70597e-05
-0.000192757
0.00104229
-0.00156617
-0.000232065
0.000208828
-0.000194318
-0.000189904
0.000103301
0.000249847
-5.89444e-05
-0.00125037
0.0006179
0.000892982
-0.00169619
-4.45609e-05
8.50592e-05
0.000182857
-0.000265634
0.000750456
0.00044703
-0.00119656
0.000118154
-5.02291e-05
-6.79522e-05
-0.000599335
-0.000628655
-7.14328e-05
0.00156863
-0.00149326
-0.000358583
0.000230615
0.000128014
0.000524316
3.25375e-05
-0.000555212
0.000944049
0.001144
-0.00102522
-0.000689372
0.000465743
0.000229724
0.000769774
-0.000358737
-0.000397367
-7.92082e-05
-0.000359681
-0.000398616
-0.000626301
0.000956642
0.000606249
-0.00155924
-0.000200364
0.000497477
-0.000173885
-7.01316e-05
7.49282e-05
-0.000164631
0.000422178
-1.80671e-05
0.000107108
0.00039552
0.000371576
-0.00038461
-0.000353012
-4.32669e-05
-0.000256143
0.000241785
1.44036e-05
4.22242e-05
-0.000216733
-0.000269324
0.000484854
0.000780648
0.000105267
0.00026957
0.0011899
-0.00052378
0.000146239
-0.000135654
0.00112437
-0.000147823
-3.25948e-05
6.56419e-05
-0.00107014
-0.000416597
0.000428996
0.000102105
0.000238279
-0.00034193
0.000112364
-4.73594e-05
-6.56953e-05
-0.000470362
0.000461802
-5.83578e-05
2.41079e-05
0.000104044
-0.000128366
-0.000565789
-0.000449141
-0.0014175
0.00187348
-3.66212e-05
-4.62444e-06
4.11991e-05
0.000441631
-0.000929587
0.000890036
-0.001607
0.000741794
0.00030448
-0.0010468
-0.000333515
-1.52905e-05
3.81036e-05
0.00108166
0.000889926
-3.24281e-05
-0.000133519
0.000165695
7.67677e-05
8.64709e-05
2.48128e-05
-7.60149e-05
5.17889e-05
9.5542e-05
3.76992e-05
-0.000129814
0.000175367
-3.96484e-05
-0.000136052
0.00113173
-0.000975289
-6.51631e-05
-0.000102202
0.000166636
0.00137901
-0.00182215
-0.00173031
0.000743316
0.00101674
0.00207583
-0.00124546
0.000154699
-0.000275348
-0.00013845
-4.41775e-05
0.000319079
-0.000344275
3.29615e-05
-0.000211143
0.000204328
0.0017429
-0.000594124
1.09655e-05
-0.00125608
0.000515954
-0.00048376
-2.50517e-05
0.00184218
-0.00175556
0.00049809
-0.00169391
-0.000204263
-0.000182389
-1.11332e-05
0.000425369
0.000643425
-0.000557426
-8.40703e-05
-8.85269e-05
0.000180745
-9.20672e-05
0.000479422
-0.00107133
2.40102e-05
-0.000619405
0.000598385
0.000289024
0.0010778
-3.63001e-05
-5.78323e-05
-7.28548e-05
9.68765e-05
8.96552e-05
0.000113485
0.000191775
-4.31631e-05
0.000431022
-2.8992e-05
-0.00027106
-0.000279905
0.000137184
-0.000550844
-6.7066e-05
-0.000408613
0.000411569
-0.000655562
-0.000129691
0.000790585
0.000118883
0.000120561
-0.000220029
0.000331919
-0.000333846
1.68072e-06
0.000257882
-0.000395749
0.000137074
-8.35185e-05
-2.9738e-05
0.000113224
0.000456404
-0.00034089
-6.6067e-05
0.000136074