/*--------------------------------*- C++ -*----------------------------------*\
| =========                 |                                                 |
| \\      /  F ield         | OpenFOAM: The Open Source CFD Toolbox           |
|  \\    /   O peration     | Version:  v2012                                 |
|   \\  /    A nd           | Website:  www.openfoam.com                      |
|    \\/     M anipulation  |                                                 |
\*---------------------------------------------------------------------------*/
FoamFile
{
    version     2.0;
    format      ascii;
    class       volVectorField;
    location    "150";
    object      U;
}
// * * * * * * * * * * * * * * * * * * * * * * * * * * * * * * * * * * * * * //

dimensions      [0 1 -1 0 0 0 0];


internalField   nonuniform List<vector> 
13917
(
(1.0999 0.171055 -1.51913e-21)
(1.02747 0.0602999 -3.76805e-21)
(0.0647949 -0.0218899 0)
(1.10061 0.000219937 2.77364e-20)
(0.996007 0.00652253 -1.34037e-20)
(0.354857 0.0633819 -3.37098e-19)
(0.0345576 -0.0194333 2.67794e-20)
(0.0674626 -0.022705 -1.96829e-20)
(0.00576001 -0.0137889 8.70414e-20)
(1.13745 0.210542 0)
(1.19808 -0.0105101 1.35391e-19)
(1.18434 -0.0140069 -3.23382e-21)
(1.10212 -0.000640014 -1.97867e-20)
(-0.231786 0.00633772 -1.44358e-19)
(0.968186 0.117207 0)
(0.993918 0.113572 -7.72064e-22)
(1.02004 0.0659202 0)
(1.1846 0.0847733 0)
(1.18246 -0.0147262 0)
(1.00205 0.00659374 0)
(0.999984 0.00145937 -2.45455e-22)
(0.024156 -0.0186174 3.72919e-21)
(1.00147 0.0110068 0)
(0.0927936 -0.0250251 -6.36112e-20)
(0.995155 0.0222218 0)
(0.0380818 -0.0195607 2.6355e-20)
(0.776447 0.0481056 -9.99552e-20)
(0.747311 0.136271 -2.49614e-21)
(0.702441 0.579404 -4.49052e-20)
(1.20656 0.170866 1.32645e-20)
(1.11768 0.164739 -6.36923e-20)
(1.06773 0.127173 2.83846e-20)
(0.829766 0.0846847 -4.07055e-20)
(0.906393 0.0147851 -2.23693e-20)
(0.991152 0.0190914 7.8065e-22)
(0.540674 -0.0398207 -9.22799e-20)
(1.00133 0.0103525 0)
(-0.141606 -0.00415125 0)
(1.11587 -0.00294786 -5.23825e-20)
(-0.109708 0.00329805 1.67547e-21)
(1.01236 0.00124883 3.30069e-21)
(0.999984 0.00061353 -5.6564e-21)
(1.03253 0.00530842 -2.78464e-21)
(0.689851 0.217512 1.00001e-19)
(1.0554 0.0427677 0)
(0.887126 0.0292916 5.28999e-20)
(1.18309 0.0819107 3.25703e-21)
(1.20485 0.0539726 0)
(0.105569 0.149791 -2.67698e-19)
(1.00484 0.0011273 -1.41757e-22)
(1.12498 0.0506958 0)
(0.963268 0.0205273 0)
(0.0774949 0.130773 3.85287e-19)
(0.901631 0.0161864 -2.55823e-20)
(1.01851 0.0670382 3.97116e-22)
(1.11324 0.0782922 0)
(1.22243 -0.00505718 -9.32504e-20)
(0.99653 0.0414985 0)
(1.09307 0.0799563 1.80769e-20)
(1.05338 0.0416568 0)
(0.175883 0.0319215 -1.38227e-20)
(1.02943 0.0607073 2.80472e-21)
(-0.16855 0.00747134 3.72196e-20)
(1.0022 0.00715598 0)
(0.381637 0.0755509 2.42699e-19)
(0.712529 0.265298 5.16785e-20)
(0.995055 0.00260487 -1.63951e-20)
(0.987102 0.00446268 -2.4361e-20)
(1.25848 0.0330871 6.69549e-20)
(1.06204 0.178064 -1.86684e-20)
(0.996437 0.00654588 1.86839e-20)
(0.0266391 -0.0161574 -8.59048e-20)
(-0.204599 -0.00153861 -1.68968e-20)
(0.995778 0.0216205 0)
(0.107129 0.22108 1.40099e-19)
(1.184 -0.030273 2.51599e-20)
(-0.228474 0.00144502 -3.93062e-20)
(1.07642 0.0513855 0)
(0.0421608 -0.0181541 0)
(0.999915 0.0029513 0)
(1.00016 0.004338 -2.10695e-22)
(0.995652 0.00246655 -1.46352e-20)
(0.398901 0.138491 1.41559e-19)
(-0.126598 -0.00563891 -4.36414e-20)
(-0.135933 0.011219 0)
(1.07541 0.0495143 1.93441e-20)
(1.00053 0.00557701 -6.40037e-21)
(0.899794 0.357633 8.44402e-20)
(1.1229 0.049838 0)
(1.03333 0.00543697 -3.53647e-21)
(-0.178599 -0.00299386 -5.94909e-20)
(1.17756 0.201182 1.9161e-20)
(1.03243 0.0366308 7.12815e-21)
(0.972201 0.0704125 -1.0936e-20)
(0.863163 0.348599 0)
(0.382947 0.00291146 -1.30317e-19)
(1.22336 0.0165455 4.45782e-20)
(1.19942 0.0630772 -7.36949e-20)
(1.18301 -0.0359495 0)
(0.599117 0.140008 0)
(1.01636 0.00904193 5.18063e-21)
(0.839685 0.0150286 1.84038e-21)
(0.680459 0.201794 5.47225e-20)
(1.08978 0.0457002 1.67345e-20)
(1.02378 0.0194045 1.19041e-20)
(0.0364413 -0.0145788 -9.59251e-21)
(0.782787 0.52448 -1.84258e-20)
(1.20801 0.0543085 4.55242e-20)
(1.0223 0.0669263 0)
(1.11416 0.179732 0)
(-0.20746 -0.000427254 1.31711e-19)
(-0.102948 0.00194186 3.20093e-20)
(1.19395 -0.0194875 0)
(0.0206274 -0.0142402 -3.8535e-20)
(0.945221 0.020752 2.05782e-20)
(0.0805336 -0.0988153 -2.60829e-19)
(1.00181 0.0198514 1.929e-21)
(0.199627 0.106491 0)
(-0.150941 0.00216344 0)
(0.902848 0.0291199 -5.09271e-20)
(0.999985 0.0012015 -3.00129e-21)
(1.2588 0.0353102 -1.21663e-19)
(-0.1582 0.00065881 6.14232e-20)
(0.756528 0.129648 -1.12027e-19)
(1.00729 0.00103712 9.46645e-22)
(0.973818 0.0674058 -2.00271e-20)
(1.0479 0.0459846 0)
(1.00674 0.00083025 -1.39594e-21)
(1.02782 0.00341162 0)
(0.35858 0.0172014 1.66982e-19)
(-0.101535 -0.0050044 4.69081e-20)
(0.947764 0.0196098 -1.59746e-20)
(1.05561 0.0442003 0)
(0.999982 0.00116188 0)
(0.665263 0.036344 6.19869e-20)
(0.099448 -0.0253121 9.35591e-20)
(1.09611 0.175164 2.41161e-20)
(0.575537 0.140772 0)
(0.994726 0.00317798 1.73541e-20)
(0.903885 0.0246813 -1.19359e-20)
(0.651309 -0.0366238 7.41204e-20)
(1.03643 0.0226872 -4.70347e-21)
(0.960051 0.0341899 4.31524e-20)
(0.642477 0.212686 -1.1479e-19)
(0.986434 0.00494567 1.93258e-20)
(0.119754 -0.0184023 -3.09911e-20)
(0.769588 0.588869 9.87564e-22)
(0.965307 0.0208221 -1.75419e-20)
(1.03474 0.019313 -7.71285e-21)
(1.06018 0.13595 9.59535e-22)
(1.18876 0.0294227 -1.09515e-19)
(0.0909314 -0.132842 -1.91862e-19)
(1.20482 0.00339894 7.63977e-20)
(1.01678 0.216653 0)
(1.09382 0.103286 2.9581e-21)
(-0.0983088 0.0277292 1.91016e-19)
(1.0575 0.173947 2.26485e-20)
(0.442563 -0.029605 -2.52242e-20)
(-0.242324 0.00181652 -2.07606e-20)
(0.672584 0.0356991 6.411e-20)
(0.936149 0.0596298 -3.11087e-20)
(0.779139 -0.0124675 0)
(1.00006 0.00301119 -5.39746e-21)
(1.2228 0.0158246 1.37309e-20)
(1.19334 -0.01821 3.10586e-20)
(1.20614 -0.0299616 0)
(1.08804 0.0465184 -1.65408e-20)
(1.19456 0.0439487 0)
(1.04626 0.0358736 -1.0288e-20)
(0.832861 0.0106971 -6.21172e-20)
(1.03784 0.212319 0)
(-0.269988 0.00420986 4.77262e-20)
(1.19453 -0.0246444 0)
(1.01651 0.0771194 1.4453e-22)
(0.189893 -0.0226668 0)
(1.00319 0.236435 2.6283e-22)
(-0.0900223 -0.00679211 1.97815e-20)
(0.162387 0.109282 0)
(0.145567 -0.0196495 4.74655e-20)
(1.01751 0.0389691 0)
(1.18384 0.197841 0)
(1.12355 0.164966 2.89388e-20)
(1.03733 0.0221623 4.64184e-21)
(1.00054 0.00608753 3.76274e-21)
(0.929146 0.135651 -2.36193e-21)
(0.062555 -0.0216456 2.50729e-20)
(1.24536 0.223836 -1.3706e-21)
(-0.0688205 0.0284067 -7.16834e-20)
(1.14778 0.095215 -2.18203e-20)
(1.20336 -0.0219967 4.36883e-21)
(0.650609 -0.0293615 4.66838e-20)
(-0.108577 0.0134991 -1.66618e-19)
(1.23526 0.257788 -1.0918e-19)
(0.999985 0.010958 -3.47948e-21)
(0.556943 0.0738044 1.6608e-19)
(0.787054 0.0501475 5.81401e-20)
(1.0113 0.000499613 4.5392e-21)
(1.03263 0.0380529 4.68196e-21)
(0.84499 0.464137 1.45672e-20)
(1.0716 0.470635 0)
(1.12444 0.024222 7.45704e-21)
(1.00441 0.00100152 1.0999e-21)
(1.18875 0.0391664 2.38826e-20)
(1.18703 0.0280101 8.94714e-20)
(-0.220268 -0.000433064 -5.56957e-20)
(0.698907 0.0154068 0)
(0.991474 0.0179767 7.19558e-21)
(0.99574 0.0428857 0)
(1.19808 0.0600396 -8.66832e-21)
(0.071505 -0.0230565 -2.35191e-20)
(0.962429 0.0344529 -4.23861e-20)
(0.0272426 -0.019342 4.12071e-20)
(-0.247325 0.00130248 3.96278e-20)
(1.20294 -0.0209084 2.50264e-20)
(1.02317 0.0197114 -4.56921e-21)
(0.478673 0.413053 1.46362e-19)
(1.19001 0.05685 5.69731e-20)
(-0.264398 0.000825343 0)
(1.00476 0.0260814 -1.39243e-22)
(0.278943 0.048241 -4.78885e-20)
(1.01701 0.0375789 4.79769e-22)
(1.20724 0.147979 5.63245e-20)
(1.01204 0.00154232 1.76354e-21)
(-0.144232 -0.0052476 -1.99362e-20)
(0.0291228 -0.0138723 3.12778e-20)
(0.994663 0.117737 -6.47935e-21)
(1.14969 0.523977 0)
(1.09768 0.103131 0)
(1.02214 0.0189056 -7.32e-21)
(0.575101 -0.0383362 8.29069e-20)
(1.19271 -0.0253672 0)
(1.14748 0.0920641 0)
(0.103653 -0.0247265 2.59282e-20)
(-0.257691 0.00254619 -7.82073e-20)
(1.01806 0.0048908 -4.32325e-21)
(1.07123 0.129291 -3.35576e-20)
(-0.162595 -0.00397101 0)
(-0.154797 0.0105384 0)
(1.00002 0.0033859 6.30005e-21)
(1.00863 0.0132131 -6.93094e-22)
(-0.0852486 0.00210168 0)
(1.22178 0.0184712 -1.0543e-19)
(1.00005 0.000176406 0)
(0.696349 -0.0379551 0)
(1.22147 0.0928448 -8.98554e-20)
(0.789211 -0.0174854 3.5972e-20)
(1.10091 0.155269 -1.09966e-20)
(1.00009 0.0032717 -6.34714e-22)
(0.965696 0.236334 0)
(-0.248391 0.00262676 8.3568e-20)
(1.06727 0.0136901 0)
(1.19452 0.216643 0)
(0.559733 0.184541 7.64346e-20)
(1.04773 0.0441945 0)
(0.995812 0.0393814 -1.16985e-20)
(1.19422 0.00472317 0)
(-0.0683983 -0.000848316 -4.28344e-20)
(1.20262 0.00348188 -2.92739e-22)
(0.929705 0.14075 2.90703e-21)
(0.97159 0.120442 -9.5575e-22)
(1.00005 0.000309143 -4.17526e-23)
(-0.173996 0.00213827 3.60123e-20)
(0.145291 -0.00547632 0)
(0.596151 -0.0404027 0)
(1.02142 0.0192025 7.95117e-21)
(-0.222156 -0.000304257 0)
(-0.211612 0.00327946 3.67437e-20)
(0.379467 -0.0303371 -8.70568e-23)
(0.0324004 -0.0170642 -3.33284e-21)
(1.18621 -0.031205 0)
(1.0001 0.00405591 5.74709e-21)
(1.00897 0.00127324 0)
(1.1849 0.0763879 -9.29004e-20)
(-0.176721 -0.00143339 9.31573e-22)
(1.23273 0.056313 0)
(1.09195 0.0770033 -1.80212e-20)
(0.631521 0.0120466 -3.19882e-20)
(1.1578 -0.018371 -3.39142e-20)
(1.0277 0.00232308 0)
(0.389096 0.0296762 -1.20647e-20)
(1.00262 0.00651003 -1.14906e-21)
(0.167908 -0.0227333 -6.94254e-20)
(1.12174 0.0237572 1.87854e-20)
(1.00009 0.000179274 1.11716e-22)
(0.997216 0.137418 -3.4391e-21)
(1.01047 0.217958 -5.08136e-22)
(0.779029 -0.000103147 0)
(0.655074 -0.0367897 0)
(0.990983 0.175787 2.675e-21)
(1.0681 0.024345 3.39836e-20)
(1.06603 0.0943956 2.03004e-19)
(0.107374 -0.0256423 -2.88999e-20)
(0.096787 -0.00738098 -5.16341e-20)
(1.00436 0.025333 -4.08422e-21)
(0.353378 -0.0274855 2.69257e-20)
(0.998272 0.00201375 1.6118e-20)
(1.06859 0.0230135 1.33715e-20)
(1.0019 0.0189088 0)
(0.779707 0.627249 0)
(1.00218 0.0011645 1.71483e-24)
(1.2116 0.149456 6.3336e-20)
(1.09605 0.153822 -1.84541e-20)
(1.04591 0.0344473 6.35045e-21)
(1.19016 0.0368621 6.11567e-21)
(1.0475 0.0836399 -6.28315e-21)
(0.114229 0.0728954 -2.16497e-19)
(1.00315 0.231222 -2.50256e-21)
(1.1727 0.197073 -5.33892e-20)
(1.04513 0.025567 0)
(0.996555 0.0380898 1.70128e-20)
(-0.216181 0.000491558 1.80494e-20)
(-0.172691 0.00308709 -8.99422e-20)
(1.00217 0.0207028 -6.77725e-21)
(1.01027 0.00135805 -3.42112e-21)
(0.436301 0.0386355 -2.16182e-20)
(1.02198 0.0376044 2.00728e-21)
(-0.193324 -0.00233946 3.10504e-20)
(1.04366 0.0251904 5.55726e-21)
(-0.135062 -0.00548324 0)
(1.08309 0.00432413 -2.02441e-20)
(1.1753 0.381057 -4.80664e-20)
(1.1521 0.0467881 2.62177e-20)
(0.11296 0.291096 2.78919e-19)
(0.940177 0.0592938 1.18788e-20)
(0.761414 0.0507401 0)
(0.49746 0.309323 0)
(1.00079 0.135365 3.40944e-21)
(1.22161 0.0203024 4.01148e-20)
(0.918945 0.54535 2.92158e-22)
(0.997079 0.0597377 0)
(-0.123598 -0.00369945 1.12706e-19)
(0.565633 0.0530129 -2.73468e-19)
(-0.205341 0.00248239 0)
(0.917717 0.0338151 -7.13056e-20)
(-0.139141 0.00345273 1.78195e-21)
(1.07875 0.129015 -2.38386e-20)
(-0.142288 0.00430998 0)
(0.515491 0.28895 8.18482e-20)
(0.896288 0.378593 1.655e-20)
(0.912682 0.374681 -1.4891e-20)
(0.0409636 -0.0208964 0)
(0.999728 0.00376776 -1.152e-21)
(1.04364 0.216844 6.3023e-21)
(-0.188923 -0.00045803 -1.17711e-19)
(0.982112 0.0420173 0)
(1.00292 0.094712 0)
(-0.204924 0.00316465 -6.52321e-20)
(0.830834 0.497133 -1.1311e-20)
(1.02262 0.0739727 1.45396e-23)
(0.717337 -0.0274405 -4.25118e-20)
(0.674626 0.551199 4.6418e-20)
(1.01338 0.00771046 0)
(-0.164757 0.00300218 0)
(0.608978 -0.0353889 9.56523e-20)
(1.0028 0.00703322 0)
(1.0134 0.019236 2.42855e-21)
(0.998463 0.00171591 -1.11755e-20)
(1.03546 0.0188841 -8.87547e-21)
(1.1209 0.0995724 -1.92492e-19)
(0.164417 -0.0203116 -3.46165e-20)
(0.38643 -0.267448 0)
(-0.197864 0.00018416 -1.3686e-19)
(0.99853 0.02114 0)
(1.20098 0.217647 0)
(-0.181198 0.0100079 -7.17516e-21)
(1.1719 0.041849 4.22824e-20)
(0.0182738 -0.0183949 -3.05842e-20)
(-0.160707 -0.00324756 4.95067e-20)
(0.014441 -0.0136714 -4.35023e-20)
(1.01985 0.00893383 -3.84606e-21)
(0.637831 -0.0447273 0)
(1.01514 0.0188039 9.67272e-22)
(0.368522 0.0608752 1.92093e-22)
(1.05192 0.042309 1.16034e-20)
(0.0892527 0.338879 -1.82092e-19)
(1.22271 0.0959525 7.52726e-20)
(1.11288 0.00973963 -1.79339e-20)
(0.999572 0.00457517 1.06823e-20)
(1.19474 0.059814 8.04916e-21)
(1.18914 0.200609 0)
(1.20746 0.0804273 0)
(0.318725 1.07082 0)
(-0.165135 0.00343206 0)
(-0.279072 0.00208785 0)
(0.97 0.245105 0)
(1.13161 0.206556 -1.00176e-21)
(1.00817 0.0125446 8.03222e-22)
(-0.140912 0.0112412 -9.69778e-20)
(0.0186502 -0.0179283 -2.98624e-20)
(1.00133 0.0467332 9.02958e-21)
(0.867065 0.0627316 1.69042e-19)
(0.995763 0.0164973 0)
(1.1167 0.0667455 0)
(1.08264 0.00525317 1.07158e-20)
(0.999795 0.00319107 -7.28357e-21)
(1.04125 0.0862568 -5.83614e-21)
(0.057227 -0.0179232 6.86172e-21)
(1.039 0.0862079 9.37253e-21)
(-0.0546337 -0.00305089 -3.36581e-20)
(-0.0955317 0.0331917 2.46366e-20)
(1.22294 -0.0108979 6.54163e-21)
(0.432363 0.288857 -1.26054e-19)
(0.99911 0.0593649 0)
(0.481206 0.371539 -1.46519e-19)
(0.456843 0.313635 0)
(1.00311 0.0142783 4.13243e-21)
(0.796609 0.495547 -1.50524e-20)
(0.983634 0.0416183 0)
(0.99452 0.0192886 1.00917e-20)
(1.20352 0.174322 -1.72399e-20)
(1.00009 0.000463647 9.61219e-22)
(0.993885 0.0217203 -6.08224e-21)
(1.0155 0.0185386 -1.60297e-22)
(1.24393 0.120431 0)
(0.999961 0.00234914 2.24879e-22)
(-0.130765 0.00215426 0)
(0.105769 -0.0237813 0)
(-0.130964 0.0130002 0)
(1.2308 0.262369 5.58844e-20)
(-0.0560889 -0.00555164 3.57347e-20)
(-0.261229 0.000693593 -3.94396e-20)
(1.17 0.0404923 0)
(0.998886 0.0202134 0)
(1.25211 0.107904 1.77442e-20)
(1.11438 -0.00138015 4.7138e-20)
(1.07554 0.136645 -2.37874e-20)
(1.00003 0.0117464 -1.11883e-20)
(0.130192 -0.0199647 0)
(0.0465228 -0.0212754 -2.53391e-23)
(0.132088 -0.0260443 0)
(0.981674 0.110815 -1.234e-20)
(1.2298 0.0858734 -5.83969e-20)
(0.921275 0.0306593 3.81282e-20)
(1.11837 -0.00269521 6.18686e-20)
(1.20616 0.0776375 0)
(1.02399 0.0853872 -4.17027e-22)
(0.607585 -0.0445041 5.96414e-22)
(1.02374 0.065594 -2.28201e-21)
(1.00216 0.00137303 -6.65126e-23)
(-0.176616 -0.00359367 -2.89216e-20)
(-0.0936409 -0.00603065 -7.40123e-20)
(-0.0829278 -0.00729825 9.03137e-20)
(1.16344 0.274778 -5.22699e-20)
(-0.132876 0.00896975 0)
(-0.10764 -0.00547876 0)
(-0.177081 -0.00297185 0)
(-0.219252 0.00125638 1.98177e-19)
(1.02637 0.00355693 4.47519e-21)
(1.19178 0.0684506 -4.31674e-21)
(1.02648 0.0854012 0)
(0.993094 0.0436713 -3.83471e-21)
(0.776045 0.0257462 -1.17156e-19)
(1.18605 0.0790998 7.12005e-20)
(1.03058 7.86417e-05 -9.25893e-21)
(1.18765 0.119148 -6.8495e-20)
(1.16715 0.0464207 -4.26123e-20)
(-0.219184 0.00480647 -3.52969e-20)
(1.00336 0.0148668 0)
(1.22732 0.0359664 0)
(-0.0527651 0.0078397 -6.80164e-22)
(1.1986 0.399576 -3.02602e-20)
(-0.12334 0.000247802 0)
(0.999956 0.0020638 -7.66844e-21)
(0.999992 0.0472676 -5.92785e-21)
(1.01735 0.000731045 5.59908e-21)
(1.05133 0.17718 0)
(1.01978 0.00831267 8.1719e-21)
(0.0909682 -0.0238852 -6.18839e-21)
(0.397633 -0.22773 0)
(0.994556 0.170488 -2.28666e-21)
(-0.116071 0.0147115 0)
(1.11352 0.0753598 3.69991e-21)
(1.22133 0.0131393 -1.57488e-20)
(-0.157582 -0.00357998 0)
(0.789993 0.591249 4.19233e-21)
(1.22368 -0.0114552 0)
(0.615568 -0.0375891 -9.09572e-20)
(1.22859 0.0341115 0)
(1.17897 0.134279 -2.93789e-20)
(1.24955 0.0894891 1.17942e-19)
(1.16811 0.00818527 -4.31363e-20)
(1.12203 -0.0274379 6.75249e-20)
(0.370464 0.118068 -1.422e-19)
(1.17073 -0.00512939 3.84221e-22)
(1.21307 0.046308 8.84227e-22)
(1.02262 0.00124695 4.39022e-22)
(0.730923 0.0340843 3.50258e-20)
(1.12755 0.0556376 -3.30887e-20)
(1.04866 0.00979132 -1.27717e-20)
(1.04709 0.172483 -7.4859e-21)
(1.0805 0.050196 -1.03848e-20)
(-0.216057 0.00239209 -1.59691e-20)
(0.0300301 -0.0143612 1.41394e-19)
(1.02102 0.0360941 -1.32085e-21)
(1.02754 0.00188238 0)
(0.101459 -0.0253932 0)
(-0.273646 0.00202746 -2.648e-20)
(1.00008 0.00035148 -8.9373e-22)
(-0.139683 0.00232691 5.91616e-20)
(1.09191 0.0232663 3.06479e-20)
(1.2236 0.242636 0)
(1.02012 0.0385856 -2.01425e-21)
(-0.231632 0.000881573 -4.54692e-20)
(0.543554 -0.0135655 -1.12213e-19)
(1.06407 0.13414 1.76341e-20)
(1.04987 0.05924 -9.94191e-21)
(-0.0406799 -0.00750175 6.14179e-20)
(1.24312 0.222906 4.71138e-20)
(-0.218814 0.00431935 1.13085e-19)
(1.00006 0.00041858 0)
(-0.243582 0.00115675 7.9392e-20)
(0.135191 0.0715809 0)
(0.421433 0.0372457 1.59269e-19)
(1.04868 0.010639 -1.09592e-20)
(-0.152954 0.0108536 0)
(-0.00588378 -0.00858145 -2.5523e-23)
(1.17254 0.0357298 5.22513e-21)
(1.01419 0.019388 9.35798e-22)
(1.01262 0.0654624 0)
(1.18208 -0.0335384 0)
(1.00034 0.0497682 0)
(1.03119 0.00012863 9.48783e-21)
(1.01273 0.0181718 -2.01382e-21)
(1.00712 0.00356907 -9.23263e-22)
(1.00759 0.0037514 -3.88102e-23)
(-0.237369 0.000103196 0)
(0.809866 0.0310228 0)
(1.17063 0.0369069 1.92168e-20)
(1.24607 0.212665 -4.92355e-20)
(1.00905 0.000997508 4.64207e-24)
(1.0157 0.00855122 -6.65258e-21)
(1.22752 0.0829115 7.5165e-21)
(-0.0724828 -0.00760679 0)
(1.13213 0.101922 0)
(1.04792 0.0364983 0)
(0.994941 0.0198592 -8.67321e-21)
(0.991753 0.00440984 0)
(0.372328 0.0293992 -4.38876e-20)
(-0.0857095 0.0148845 2.08663e-19)
(1.00071 0.00525886 0)
(0.992066 0.00764894 -6.2762e-21)
(0.641665 -0.0422433 -1.70848e-20)
(1.16744 0.0102288 3.72875e-20)
(1.15221 0.0449332 6.00651e-22)
(0.998777 0.0452544 -5.47998e-21)
(1.03534 0.0890008 -8.6267e-21)
(1.04813 0.129045 -5.59677e-21)
(1.21135 0.0440987 5.06312e-20)
(0.915788 0.519527 -1.0965e-20)
(1.25046 0.220901 5.58538e-20)
(1.25192 0.104476 0)
(1.22467 0.0646299 0)
(0.658256 0.010531 1.5733e-20)
(1.17411 0.190629 4.06953e-20)
(1.00331 0.0245298 4.58268e-21)
(-0.239038 0.00158232 -1.53691e-19)
(0.992103 0.0037134 5.2689e-21)
(1.00341 0.0981953 0)
(1.11022 0.0211135 -1.03739e-20)
(0.742376 0.0327479 -3.53371e-20)
(0.971381 0.32325 -2.43125e-22)
(1.01464 0.00196649 0)
(1.19883 0.389541 -2.91489e-20)
(1.21629 0.167562 0)
(-0.119347 -0.0350301 2.62866e-19)
(1.22463 0.0670703 -1.25979e-19)
(0.87756 0.155874 4.65055e-20)
(1.1703 0.0467829 4.62429e-20)
(0.999429 0.00502036 -1.13478e-20)
(0.0635394 -0.00812428 -2.03484e-22)
(1.1873 0.377158 8.31422e-20)
(-0.0279879 -0.0147824 -3.89264e-20)
(1.02304 0.0626822 1.16243e-21)
(1.12481 0.0865876 2.31202e-20)
(1.25265 0.210488 0)
(-0.155095 -0.00404813 -8.0462e-20)
(-0.204897 0.00519045 9.33609e-20)
(1.20263 0.063219 0)
(1.17123 0.277873 -3.44292e-20)
(0.989787 0.112007 8.0265e-21)
(1.07081 0.088211 1.96942e-21)
(0.997529 0.0459044 0)
(0.873387 0.254882 0)
(0.658703 0.194953 -5.41728e-20)
(0.971551 0.00536136 -3.10951e-20)
(1.1885 0.0541403 5.9192e-20)
(0.559511 0.159285 -8.68576e-20)
(-0.0213487 -0.0155996 3.64933e-20)
(-0.215733 0.00546985 0)
(1.0375 0.101789 0)
(1.22106 0.0122443 0)
(0.597797 -0.0144355 1.01595e-19)
(1.00127 0.147315 0)
(0.966256 0.0364652 1.92206e-20)
(0.174048 0.53979 -8.68687e-20)
(0.12337 -0.013554 7.1636e-20)
(0.0914619 -0.0193244 -7.10531e-20)
(1.24779 0.198878 -2.39631e-20)
(1.02758 0.00382388 1.15262e-21)
(-0.157532 0.00168428 -6.25358e-20)
(1.18204 -0.0312884 -3.52488e-20)
(1.01455 0.00147051 0)
(1.11016 0.120434 4.14764e-20)
(1.20538 0.0255079 0)
(0.839208 0.0865939 -1.25055e-20)
(1.20482 0.165645 0)
(0.0363163 -0.0184893 6.23622e-20)
(1.24874 0.0877931 -1.11145e-19)
(1.16019 0.00899602 1.39023e-20)
(0.0633176 -0.00564941 8.28776e-20)
(1.08119 0.0587175 3.78534e-20)
(-0.231319 0.00149862 -1.46279e-19)
(1.00001 0.00302355 0)
(1.00072 0.00568144 1.55668e-22)
(0.329724 -0.0285623 -6.18117e-20)
(0.107829 -0.0135 -8.1817e-20)
(0.36945 0.247506 -3.15561e-20)
(1.0825 0.0571854 1.65182e-20)
(1.01825 0.0748929 -1.2859e-21)
(0.992544 0.00799294 1.76577e-20)
(1.1596 -0.0174255 5.84883e-20)
(0.0809823 0.188582 0)
(1.19951 -0.0297075 0)
(1.07356 0.0894637 2.18461e-21)
(1.21025 -0.0104042 0)
(1.19339 0.0569844 6.2853e-20)
(1.01993 0.0395894 -8.60076e-22)
(1.13434 0.531785 0)
(1.19989 -0.0305885 -4.15411e-20)
(0.564983 -0.0465416 -3.23391e-20)
(1.00702 0.0282089 3.69991e-21)
(1.24761 0.0819199 2.19142e-20)
(1.07872 0.0517462 -1.54257e-21)
(-0.0682013 0.0426041 -1.18254e-20)
(1.14397 0.208833 0)
(0.982607 0.317477 1.56371e-21)
(1.12519 0.0891663 0)
(1.01125 0.00434903 -1.10957e-22)
(1.04399 0.013349 6.11468e-21)
(1.04958 0.047113 5.43348e-21)
(0.941872 0.3829 0)
(0.885383 0.0345264 -4.5014e-20)
(1.29489 0.157306 1.37588e-19)
(0.436223 0.798616 0)
(1.19311 0.0463425 -7.81967e-21)
(1.01268 0.00758984 0)
(1.24666 0.094927 -6.08042e-22)
(0.366085 0.277617 2.12011e-19)
(0.507917 -0.0365834 0)
(1.06579 0.0141552 -5.93848e-21)
(0.894804 0.0479855 -4.11544e-20)
(1.01197 0.0179644 9.36601e-22)
(1.13635 0.0052082 -5.27302e-21)
(1.09621 0.0802753 0)
(-0.015071 -0.00714481 -7.39421e-20)
(0.999877 0.00323782 0)
(1.14657 0.52544 0)
(1.13543 0.0100069 -3.86723e-20)
(1.19433 -0.011072 -4.41874e-21)
(1.17147 0.211256 2.1725e-20)
(-0.208561 -0.000654164 3.59612e-20)
(1.00522 0.31806 0)
(1.01221 0.0633057 0)
(-0.191506 -0.000965586 6.46985e-20)
(-0.287991 0.00366536 -4.48821e-20)
(1.00956 0.0492518 0)
(1.10915 0.019434 0)
(0.560917 -0.0104542 5.36096e-20)
(1.24721 0.200828 8.63914e-20)
(1.22997 0.0543893 -3.34198e-20)
(1.00021 0.000511962 0)
(1.05166 0.0595545 -3.52786e-21)
(1.16511 0.371749 8.38092e-20)
(1.11459 0.00874526 0)
(1.20507 0.0835085 0)
(1.19195 0.00592629 5.61856e-20)
(1.04518 0.0133319 -1.81247e-20)
(1.18667 0.0234662 0)
(0.0687304 -0.022809 0)
(1.06578 0.011595 -1.20901e-20)
(1.09398 0.00447508 1.09616e-20)
(1.00633 0.00376238 5.74815e-22)
(-0.175472 0.00484191 2.9687e-20)
(0.999955 0.00143482 -7.44334e-21)
(0.982327 0.106438 -5.22456e-22)
(-0.266507 0.00267271 7.68143e-23)
(0.993443 0.0895953 7.59487e-21)
(0.137229 -0.0124539 0)
(1.09161 0.106058 0)
(0.823603 0.090455 1.73512e-20)
(1.00681 0.00396245 7.52093e-22)
(1.009 0.252287 1.53894e-21)
(1.00152 0.0179325 -1.8889e-21)
(1.17368 0.14121 -6.81565e-20)
(1.01078 0.00262597 2.84045e-21)
(1.06432 0.306466 0)
(1.09086 0.0241995 0)
(0.0816012 0.0772762 -1.6619e-19)
(0.414515 0.675515 1.57628e-19)
(-0.0732599 -0.00908926 0)
(1.01647 0.000696828 -5.62256e-21)
(0.99966 0.00409291 -2.21959e-21)
(1.16974 0.186573 -7.46753e-20)
(1.1325 0.170837 0)
(-0.182519 0.000848652 6.96542e-20)
(-0.0352285 -0.0119175 2.51773e-20)
(1.18388 0.0882324 -7.53684e-20)
(0.992562 0.0181245 0)
(1.27678 0.122684 -2.74968e-20)
(0.338084 0.223164 -1.53766e-19)
(0.592513 -0.0461579 6.27807e-20)
(1.26093 0.15178 -5.13435e-20)
(1.18244 0.0703702 9.17778e-22)
(0.0573093 -0.019381 2.46693e-20)
(1.08763 0.177516 2.57799e-20)
(1.15595 -0.0170747 0)
(1.24095 0.116721 -4.81651e-20)
(0.828812 0.442369 0)
(1.18095 0.0894312 5.67686e-20)
(0.300481 0.297317 0)
(1.17827 0.0957406 -2.54907e-20)
(1.10179 0.00987171 0)
(1.20807 0.0251493 0)
(1.0051 0.137714 0)
(1.05393 0.0131864 8.17511e-21)
(1.13519 0.00645347 -9.36558e-21)
(1.11721 0.175094 0)
(1.05579 0.133334 1.36485e-20)
(1.00017 0.0179163 0)
(1.00971 0.000815301 2.74373e-21)
(1.19357 0.0512901 7.61695e-21)
(1.09677 0.0345214 0)
(1.207 0.0861532 1.72826e-20)
(0.993304 0.0175557 -1.89513e-22)
(0.995189 0.0138646 8.6258e-21)
(0.99996 0.00114885 1.22765e-20)
(1.03019 0.0883912 3.47868e-21)
(1.03788 0.00386411 2.08785e-20)
(1.05657 0.116781 6.70004e-21)
(1.00558 0.00395879 0)
(-0.23489 0.00117902 -2.26631e-20)
(1.18124 -0.0181387 4.16022e-20)
(0.472602 -0.273141 1.42152e-19)
(1.0179 0.00830143 4.86089e-23)
(1.0001 0.00224209 -2.34641e-21)
(0.791197 0.161239 1.25284e-20)
(1.18305 0.133411 5.4964e-22)
(0.950753 0.0150738 -2.57431e-20)
(0.285344 0.0184196 -8.81124e-20)
(1.12368 0.254244 3.35719e-20)
(0.50233 0.0825894 4.73345e-20)
(1.13649 0.00873006 4.97468e-20)
(1.2366 0.0873838 3.54572e-20)
(1.07758 0.0351949 3.72062e-20)
(0.999882 0.00145043 -5.29645e-21)
(1.00797 0.00336079 2.12119e-21)
(1.04511 0.0845067 3.12387e-21)
(-0.271592 0.00216221 0)
(1.00007 0.00190024 0)
(0.518694 0.00113238 1.71956e-20)
(1.05766 0.119868 -3.69169e-21)
(-0.18083 0.011735 0)
(0.952143 0.254851 8.31261e-21)
(1.13124 0.25355 0)
(1.21244 -0.0109418 0)
(1.03191 0.0116101 0)
(1 5.92959e-05 7.10953e-22)
(1.18295 -0.0173393 -5.26447e-20)
(0.987377 0.00970898 -2.21754e-20)
(0.985377 0.0583947 -5.81423e-21)
(0.380314 0.0222181 -2.11292e-20)
(1.01761 0.0795915 0)
(0.998517 0.00241643 1.46128e-21)
(1.10768 0.0964609 -3.80731e-23)
(1.00885 0.0113489 0)
(1.02564 0.00171631 -1.42501e-22)
(1.06419 0.129454 7.93672e-21)
(0.880918 -0.00929548 3.36896e-20)
(-0.197812 0.00243621 -1.24525e-19)
(1.08692 0.155783 -1.88139e-20)
(1.06611 0.0107966 2.91575e-20)
(1.01331 0.00151391 -3.21435e-21)
(-0.138664 -0.00569192 2.50322e-20)
(0.92716 0.389043 0)
(1.0046 0.0581162 0)
(1.02443 0.0619939 9.37206e-22)
(0.35096 0.0230099 9.08324e-20)
(0.574764 -0.0103482 -1.05886e-19)
(-0.280273 0.00115985 0)
(0.88547 0.156922 7.22586e-20)
(1.1026 0.0114425 0)
(1.01745 0.00505549 1.20642e-22)
(1.02599 0.00201567 0)
(1.17262 -0.00393282 1.14181e-21)
(1.09174 0.158083 2.08656e-20)
(0.806453 -0.0221866 0)
(0.913645 0.0339017 7.37355e-20)
(-0.137018 -0.00183039 -9.28431e-20)
(1.03784 0.0636309 7.87652e-21)
(0.962737 0.0770825 8.31631e-21)
(-0.28153 0.00307037 -1.43261e-19)
(0.995506 0.0157847 0)
(1.12985 0.0542591 3.80035e-20)
(1.00814 0.0444265 0)
(1.00278 0.00178403 -2.82323e-22)
(1.10831 0.178624 2.82016e-20)
(0.76874 0.00577513 0)
(1.06947 0.0502596 0)
(0.117056 -0.0131403 0)
(-0.0924271 0.000719449 0)
(1.17705 0.207998 -1.92025e-20)
(1.00375 0.0253877 5.27699e-21)
(1.04053 0.00697779 -5.38297e-21)
(1.20003 -0.0240917 2.97117e-21)
(0.559138 0.00449786 8.802e-20)
(1.00009 0.000575205 6.76858e-23)
(0.718232 0.0113045 0)
(1.03959 0.00707576 5.04482e-21)
(1.11478 0.169021 1.28673e-21)
(1.05881 0.00343566 0)
(1.0551 0.0161681 -7.66029e-21)
(0.916331 0.0422616 -1.39828e-20)
(1.0599 0.0313962 2.95113e-21)
(0.317984 -0.0395245 0)
(1.12824 0.142926 3.899e-20)
(0.999954 0.00108481 -2.4828e-22)
(1.03153 0.00681415 0)
(0.979985 0.00901555 2.64576e-20)
(1.01365 0.0294642 0)
(1.09249 0.00571897 1.00494e-20)
(0.263351 0.675973 0)
(1.06271 0.013921 2.27797e-20)
(1.04733 0.0206414 -6.46162e-21)
(-0.0190567 -0.0151141 4.4271e-20)
(0.0814252 -0.0173592 7.92287e-20)
(1.16309 0.00827124 -1.76894e-20)
(1.12655 0.170634 -3.22993e-20)
(1.20345 0.0717724 4.43069e-20)
(1.10908 0.0576588 1.38916e-20)
(1.03604 0.0243747 0)
(0.883214 0.0270291 2.16446e-20)
(-0.225731 -0.000161382 -7.48668e-20)
(1.07371 0.308998 0)
(0.998264 0.00818819 0)
(1.04826 0.0578674 1.01246e-20)
(-0.0238393 -0.0120247 -4.69899e-20)
(1.15586 0.0707212 0)
(-0.171932 4.52831e-05 0)
(0.999967 0.00140107 -4.3053e-21)
(0.948262 0.0161411 3.66131e-20)
(-0.186119 0.00375848 3.17984e-20)
(1.15114 0.060426 6.3035e-20)
(1.07298 0.0492183 -3.1819e-20)
(-0.260508 0.00231614 0)
(0.211686 0.246631 0)
(1.01401 0.0287508 2.62945e-22)
(1.23774 0.116269 -7.86032e-20)
(1.00843 0.00354629 -2.57366e-21)
(1.05811 0.0309682 5.23468e-21)
(1.01846 0.00876125 1.08442e-20)
(-0.208914 -0.0010604 3.57775e-20)
(1.03726 0.00352543 -8.40591e-21)
(1.06822 0.00211654 1.37611e-20)
(1.03696 0.0238824 -9.07441e-21)
(0.278022 -0.0377484 2.74329e-22)
(1.11237 0.00154036 -2.46406e-20)
(1.22882 0.237845 0)
(0.699446 -0.0807486 0)
(1.05682 0.0136066 0)
(0.839038 0.0424064 1.40552e-20)
(1.00074 0.0049863 -1.5405e-21)
(-0.191459 0.000399549 0)
(1.00768 0.0149668 -2.92262e-22)
(1.06411 0.0133577 -2.29525e-20)
(0.998573 0.00296419 -1.15321e-20)
(1.20239 -0.0236271 -4.13824e-21)
(0.998381 0.00292321 1.37165e-20)
(1.24865 0.083761 2.25816e-20)
(-0.0945585 0.00173589 -7.63642e-23)
(0.119911 -0.0257924 0)
(0.899838 0.0484447 -2.75973e-21)
(0.629371 -0.0349839 0)
(-0.249276 0.00161411 2.26439e-20)
(0.997901 0.0383263 0)
(-0.169799 0.00233735 6.53485e-20)
(0.107115 0.0282987 -7.52804e-20)
(-0.237135 0.00197752 2.28434e-20)
(-0.0615638 -0.00516765 7.25675e-20)
(-0.0269972 -0.0147657 0)
(0.044992 0.108064 -2.40293e-19)
(1.24307 0.0947748 -4.39804e-20)
(1.01459 0.0669563 -8.89834e-22)
(0.0287419 -0.0174555 -5.95781e-20)
(1.14919 0.0622466 -7.42195e-20)
(0.00419253 -0.0163642 3.22676e-20)
(1.04738 0.0110195 -3.00593e-21)
(1.03374 0.0362255 8.98245e-21)
(1.0063 0.0595073 0)
(1.0008 0.00539402 0)
(1.11781 0.054537 -3.42902e-20)
(0.884013 0.110253 -8.21682e-21)
(-0.16556 0.000220641 -3.61505e-20)
(1.03361 0.0348552 0)
(0.993481 0.00859224 1.19973e-20)
(-0.199938 0.00757568 0)
(0.939695 0.480014 0)
(0.980118 0.00761246 -1.48602e-20)
(0.808398 -0.0387198 -4.72148e-20)
(1.11564 0.10142 0)
(1.06556 0.0408259 0)
(0.472585 0.711703 -5.49187e-20)
(0.802014 -0.0335985 4.82216e-20)
(0.948882 0.0679407 1.04525e-20)
(1.11222 0.00277056 2.48316e-20)
(-0.108124 0.00266975 -5.45391e-20)
(-0.273817 0.00392657 1.22761e-19)
(0.220859 0.0722115 0)
(1.05773 0.00398938 0)
(1.23911 0.228434 4.77283e-20)
(1.21434 0.163101 1.65728e-20)
(-0.213038 0.00445426 -2.29891e-20)
(0.00957779 -0.0132499 1.49019e-21)
(1.191 -0.0282347 -1.03624e-19)
(1.02159 0.0388709 7.56752e-22)
(1.07876 0.0365699 -3.90075e-20)
(1.03596 0.0637243 0)
(1.03163 0.000518896 -9.29352e-21)
(1.03336 0.0903131 2.06042e-22)
(1.02629 0.00312509 5.37426e-23)
(1.05119 0.127742 0)
(1.08319 0.176271 1.82473e-20)
(-0.10643 0.0149156 -7.95394e-20)
(1.23289 0.0344833 -5.92177e-20)
(1.06863 0.0031812 0)
(1.23399 0.0848113 0)
(-0.170499 -0.002871 -1.54933e-20)
(1.10601 0.17251 3.71699e-21)
(0.971018 0.0359819 2.91713e-23)
(-0.229423 0.00362179 -4.03569e-20)
(1.04413 0.033552 0)
(0.986348 0.0559423 -1.25984e-20)
(0.810373 0.0792266 -7.76403e-20)
(-0.0826896 0.0189341 3.94047e-20)
(0.998295 0.00144691 0)
(1.00649 0.0286287 -8.39061e-22)
(0.0193459 -0.0185948 1.34118e-19)
(0.704256 -0.0327906 0)
(0.622255 -0.0148136 -2.75699e-20)
(1.22843 0.0609043 -6.28649e-20)
(0.560091 -0.0395614 0)
(1.01113 0.0275141 -8.22688e-22)
(1.25108 0.0981208 0)
(0.970038 0.0382485 -8.52547e-21)
(1.0051 0.0154941 -1.65916e-21)
(0.967685 0.0338413 0)
(0.0716641 -0.0224408 2.28156e-20)
(-0.268064 0.00121753 6.50489e-21)
(1.0498 0.018676 1.63154e-20)
(1.03238 0.00696849 0)
(1.00811 0.0462394 0)