/*--------------------------------*- C++ -*----------------------------------*\
| =========                 |                                                 |
| \\      /  F ield         | OpenFOAM: The Open Source CFD Toolbox           |
|  \\    /   O peration     | Version:  v2012                                 |
|   \\  /    A nd           | Website:  www.openfoam.com                      |
|    \\/     M anipulation  |                                                 |
\*---------------------------------------------------------------------------*/
FoamFile
{
    version     2.0;
    format      ascii;
    class       surfaceVectorField;
    location    "150";
    object      Uf;
}
// * * * * * * * * * * * * * * * * * * * * * * * * * * * * * * * * * * * * * //

dimensions      [0 1 -1 0 0 0 0];


internalField   nonuniform List<vector> 
20673
(
(1.09817 0.17332 1.17023e-20)
(1.10306 0.171834 1.22445e-21)
(1.09867 0.168045 1.38064e-22)
(1.0282 0.0604299 2.54609e-22)
(1.0267 0.0593052 -1.73737e-21)
(1.02685 0.0618758 9.33715e-22)
(0.0513897 -0.0208412 0)
(0.0667122 -0.0223252 0)
(0.0784481 -0.0228492 1.47106e-20)
(1.1015 -0.000308216 8.41385e-23)
(1.10096 0.00135806 1.13908e-20)
(1.09958 0.000178497 9.74376e-21)
(0.99623 0.00651354 1.81317e-21)
(0.996047 0.00607642 5.07711e-23)
(0.995716 0.00688881 -9.84623e-22)
(0.367931 0.0662921 -1.04373e-19)
(0.356707 0.0395701 -8.51658e-20)
(0.339557 0.0672917 -1.49913e-19)
(0.0282396 -0.0184128 1.42245e-20)
(0.0258579 -0.0188344 -4.3664e-21)
(0.0480122 -0.0206974 -1.28487e-20)
(0.078235 -0.023436 -3.80094e-20)
(0.0570063 -0.0221223 -1.43071e-21)
(0.0651306 -0.022136 7.41243e-22)
(0.0160253 -0.0151169 9.25978e-22)
(0.00470302 -0.0139043 2.80633e-20)
(-0.0092329 -0.0127085 6.66789e-20)
(1.13418 0.20844 -5.52734e-22)
(1.1404 0.209748 0)
(1.13674 0.215007 0)
(1.20805 -0.00741471 3.85313e-20)
(1.19735 -0.0107509 6.28192e-20)
(1.15274 -0.0150533 1.9785e-20)
(1.18374 -0.0141071 -1.72296e-21)
(1.1856 -0.0150306 -1.45021e-21)
(1.18461 -0.0126311 2.49358e-21)
(1.10321 -0.000140959 1.68679e-20)
(-0.197699 0.00604937 -5.12529e-20)
(-0.218576 0.0047636 -1.05448e-19)
(-0.197298 0.00456369 -2.04867e-20)
(0.969831 0.118802 -4.97877e-22)
(0.965394 0.117827 -1.0611e-20)
(0.968925 0.113916 0)
(0.994033 0.115886 -3.79578e-21)
(0.991729 0.11273 3.69292e-21)
(0.995916 0.1118 -3.43596e-21)
(1.01927 0.0665615 2.04579e-22)
(1.02106 0.0663827 0)
(1.01972 0.0645955 -4.7119e-23)
(1.18416 0.0837117 1.53119e-21)
(1.18388 0.0865179 -3.83511e-20)
(1.18704 0.0843395 -2.39972e-20)
(1.18307 -0.0162173 -2.86399e-20)
(1.18147 -0.0137724 0)
(1.00213 0.00689173 0)
(1.00215 0.00658559 0)
(1.00189 0.00634431 -8.54917e-22)
(0.999985 0.0013156 -1.24486e-22)
(0.999974 0.00176469 -3.9928e-21)
(0.999988 0.00132141 -1.29383e-22)
(0.0278179 -0.0186376 1.79044e-21)
(0.0110147 -0.0180145 -1.07654e-21)
(1.00136 0.0106785 0)
(1.00146 0.0113138 0)
(1.00161 0.0111033 1.00411e-22)
(0.0959189 -0.0252352 1.40678e-20)
(0.101356 -0.0257316 -4.91416e-20)
(0.995445 0.0219337 0)
(0.994914 0.021731 0)
(0.995219 0.0227617 -2.17289e-21)
(0.0497871 -0.0203778 2.5742e-20)
(0.0325255 -0.0184437 1.08695e-20)
(0.0308571 -0.0191496 -2.31332e-20)
(0.78205 0.0489143 -2.38808e-20)
(0.77279 0.054362 -1.50028e-20)
(0.774518 0.0423834 -1.0229e-19)
(0.751098 0.133433 -4.90825e-20)
(0.749086 0.146067 -2.06595e-20)
(0.740611 0.136408 7.2098e-20)
(0.687431 0.564488 3.15975e-21)
(0.716974 0.57645 -2.18795e-20)
(0.694317 0.607752 -2.02936e-20)
(1.20457 0.172747 -3.38201e-21)
(1.20562 0.168223 6.83644e-21)
(1.20986 0.170889 3.85824e-20)
(1.12037 0.1649 -1.92475e-20)
(1.11631 0.166981 -3.01985e-20)
(1.11635 0.16203 -4.7476e-20)
(1.06946 0.128355 -4.77316e-21)
(1.066 0.128342 1.7988e-20)
(1.06769 0.124859 1.39388e-20)
(0.834608 0.0854658 -2.67529e-20)
(0.826636 0.0880107 -7.50916e-21)
(0.828354 0.0784093 3.35836e-20)
(0.904015 0.0155331 -2.40347e-20)
(0.906874 0.012385 -4.43257e-20)
(0.908111 0.0163458 1.61527e-20)
(0.991282 0.0184732 4.23733e-21)
(0.990715 0.0193962 2.87994e-21)
(0.991496 0.0195546 -7.72119e-23)
(0.5599 -0.0385548 -7.87069e-22)
(0.552301 -0.0398464 -4.07718e-20)
(0.496583 -0.0393318 -6.26044e-20)
(1.00117 0.0102061 5.47855e-22)
(1.00134 0.0100623 1.91768e-22)
(-0.134746 -0.00477875 -1.99916e-20)
(-0.148706 -0.00351092 9.48609e-21)
(-0.142901 -0.00393644 -2.83767e-20)
(1.11497 -0.00198871 -3.0238e-22)
(1.11713 -0.00265583 3.33964e-21)
(-0.106798 0.00276795 1.50957e-20)
(-0.122578 0.00421169 -5.91072e-20)
(-0.105163 0.00395421 6.02705e-20)
(1.0122 0.00141653 2.45699e-21)
(1.01279 0.0014021 -4.3966e-22)
(1.01169 0.000820794 3.40924e-21)
(0.999995 0.000914303 -4.29599e-21)
(1 0.000428193 1.23962e-21)
(0.999998 0.000464607 -2.67206e-21)
(1.03297 0.0053833 -3.20111e-21)
(1.03236 0.00558501 -7.56808e-21)
(1.03228 0.00503197 -1.42757e-21)
(0.684171 0.207462 7.57501e-20)
(0.699963 0.21581 -5.04508e-20)
(0.682714 0.229208 3.87804e-20)
(1.05439 0.0421861 0)
(1.05551 0.0434882 0)
(1.05617 0.0423588 9.31905e-21)
(0.886259 0.0322142 -6.5765e-23)
(0.884897 0.0275188 3.36791e-20)
(0.890368 0.0286486 3.93701e-20)
(1.18497 0.0802604 4.21828e-20)
(1.18121 0.0823547 -2.36711e-20)
(1.20655 0.0542278 2.43898e-20)
(1.20392 0.0556375 0)
(1.20419 0.0526451 0)
(0.0926186 0.136551 8.58825e-20)
(0.0919772 0.171164 -1.1994e-19)
(0.120764 0.149682 -6.9004e-20)
(1.00456 0.00105892 4.58594e-22)
(1.00498 0.000965384 -1.00014e-21)
(1.0049 0.0014898 8.26358e-22)
(1.12414 0.0506514 0)
(1.12492 0.0523089 0)
(1.12644 0.0504945 -1.50756e-20)
(0.964212 0.0206488 -7.96477e-21)
(0.962958 0.0193168 0)
(0.962541 0.0216342 0)
(0.0858728 0.107088 2.20589e-19)
(0.0533701 0.141443 1.68851e-19)
(0.900825 0.0187756 2.2653e-20)
(0.899737 0.0142563 1.20956e-21)
(1.01883 0.0684368 -6.99042e-22)
(1.01733 0.0664128 6.39017e-22)
(1.1132 0.0767515 1.80337e-21)
(1.11146 0.0788138 0)
(1.11468 0.0794982 0)
(1.21562 -0.00599087 -7.8423e-20)
(1.22623 -0.00235787 -5.13263e-20)
(0.996128 0.0422151 0)
(0.996128 0.0403733 -6.19151e-21)
(0.997362 0.0416384 2.38219e-21)
(1.09248 0.0783817 -3.14606e-22)
(1.09472 0.0803281 7.77404e-21)
(1.0917 0.0811425 8.50823e-21)
(1.05264 0.0419865 5.88048e-21)
(1.05314 0.0408599 0)
(0.223759 0.0400856 -2.97306e-20)
(0.13361 0.0264763 -5.00053e-20)
(0.163418 0.0298655 1.00532e-19)
(1.02989 0.059813 -2.26716e-22)
(1.02979 0.0623437 1.21906e-21)
(-0.198945 0.00767726 1.52948e-20)
(1.00213 0.00716799 0)
(1.00239 0.00742958 0)
(0.375477 0.101107 2.00146e-20)
(0.399169 0.0704249 7.39675e-20)
(0.825753 0.314574 7.61582e-20)
(0.770823 0.286267 -3.31487e-20)
(0.52283 0.190252 -3.80667e-20)
(0.995379 0.00253536 -1.55134e-20)
(0.99489 0.0029206 1.64356e-21)
(0.986782 0.0047816 -2.71907e-23)
(0.987592 0.00449145 -6.66972e-21)
(1.25941 0.0335119 -2.29163e-20)
(1.25842 0.0317846 9.56283e-20)
(1.25302 0.0324257 -3.77142e-20)
(1.05965 0.176386 -1.13164e-21)
(1.06523 0.177479 2.17286e-21)
(1.06047 0.182826 -8.09578e-21)
(0.996682 0.00618485 1.2414e-20)
(0.996397 0.00695197 3.32635e-21)
(0.042275 -0.0173622 -4.35054e-20)
(0.0271725 -0.0159586 -3.67997e-20)
(-0.212654 -0.000843477 -3.67761e-20)
(-0.199187 -0.00197025 6.31384e-21)
(-0.202309 -0.00166347 -4.32883e-20)
(0.996184 0.0220663 4.41543e-21)
(0.995828 0.0208479 -4.35687e-21)
(0.092838 0.205257 6.67598e-20)
(0.126552 0.221976 1.37832e-19)
(0.0950751 0.242636 -1.04452e-19)
(1.18518 -0.0307971 1.16408e-20)
(1.18312 -0.0307242 -3.41562e-21)
(1.18384 -0.0289199 2.68772e-20)
(-0.234963 0.00206184 -3.00539e-20)
(-0.218834 0.000207913 4.02365e-20)
(-0.229998 0.00261419 -1.62835e-20)
(1.07593 0.0504671 9.51431e-21)
(1.07761 0.0516258 -8.21851e-22)
(1.07562 0.0524775 1.68104e-20)
(0.036236 -0.0170026 -1.83053e-21)
(0.0347189 -0.0177779 -3.29014e-20)
(0.0541785 -0.0193368 -2.67772e-20)
(0.999947 0.00264545 1.14306e-22)
(0.999893 0.00309981 0)
(0.999913 0.00314076 0)
(1.00013 0.00418936 2.83341e-21)
(1.00014 0.00461086 -9.05161e-23)
(1.00016 0.00408775 -3.07928e-21)
(0.995822 0.00265738 -7.13828e-21)
(0.384211 0.126929 -1.03642e-20)
(0.393752 0.156632 7.00032e-20)
(0.415157 0.133177 7.30281e-20)
(-0.119295 -0.00637708 3.04917e-21)
(-0.124786 -0.00597444 -4.2856e-20)
(-0.122337 0.0125196 -8.31004e-20)
(-0.14523 0.0106253 0)
(-0.139735 0.0108138 0)
(1.07413 0.0493578 -7.61319e-21)
(1.07608 0.0486448 9.25964e-21)
(1.00054 0.00583467 -8.68463e-22)
(1.00061 0.00572377 -1.00284e-21)
(1.00045 0.00527134 -3.38609e-21)
(0.866785 0.346255 3.7619e-20)
(1.02705 0.421163 -4.03285e-20)
(1.12288 0.0486865 -1.72778e-20)
(1.12146 0.0506724 -5.47867e-21)
(1.03351 0.00528449 9.63089e-21)
(1.03358 0.00582645 -5.89659e-21)
(-0.171299 -0.00341514 -3.23296e-20)
(-0.185874 -0.0025921 1.9216e-20)
(-0.180171 -0.00279124 -1.15675e-20)
(1.18115 0.199295 8.86399e-21)
(1.17515 0.199733 -1.55427e-20)
(1.17718 0.20448 -1.57711e-22)
(1.03254 0.0373886 5.76893e-21)
(1.03313 0.0364222 8.10579e-21)
(1.03171 0.0361374 -5.18183e-22)
(0.972911 0.0690066 -1.52584e-20)
(0.970643 0.070391 -4.77332e-21)
(0.97328 0.0719732 8.26034e-21)
(0.996229 0.405301 0)
(0.769246 0.321013 0)
(0.37101 0.0126428 4.20581e-20)
(0.399715 0.00541634 -1.21397e-19)
(0.377285 -0.0217118 -5.69844e-20)
(1.22331 0.0164671 2.98815e-20)
(1.22354 0.0176952 1.92917e-20)
(1.22051 0.0151113 1.93783e-20)
(1.19874 0.0615732 -4.17171e-20)
(1.20109 0.0631913 -3.54168e-20)
(1.19844 0.0644817 -3.31034e-20)
(1.19507 -0.0333632 0)
(1.15565 -0.0371983 -5.01136e-20)
(1.1734 -0.0366527 0)
(0.585626 0.140167 0)
(0.605829 0.126231 -4.43237e-21)
(0.606737 0.152479 -4.59833e-20)
(1.01597 0.00877928 -1.21282e-21)
(1.01666 0.00899367 4.08849e-21)
(1.01635 0.0095507 5.60426e-21)
(0.836133 0.0124686 -3.44572e-20)
(0.839341 0.0198594 2.86492e-20)
(0.843683 0.0131068 -8.37632e-21)
(0.668351 0.200202 2.54968e-21)
(0.686525 0.19212 2.30022e-20)
(1.08881 0.0461585 -1.4641e-22)
(1.09076 0.0464579 1.84451e-20)
(1.0897 0.0442898 -3.56599e-21)
(1.02343 0.0195304 4.09875e-21)
(1.02354 0.0187203 4.43148e-21)
(1.02432 0.0195911 2.56816e-21)
(0.027691 -0.0142687 -2.50976e-20)
(0.0245087 -0.0141292 -2.78791e-20)
(0.0560676 -0.0144793 -6.06299e-22)
(0.790038 0.509602 -1.68e-20)
(0.762279 0.52536 3.31761e-20)
(0.798848 0.535143 -3.10563e-21)
(1.20904 0.053264 -1.54909e-20)
(1.20855 0.0562363 2.1129e-20)
(1.02303 0.0661653 -1.17861e-21)
(1.02279 0.0683568 2.29392e-22)
(1.11565 0.177432 0)
(1.11124 0.1792 1.39223e-20)
(1.11568 0.182694 -2.16419e-20)
(-0.198748 -0.000375927 1.42523e-20)
(-0.215499 -0.000423304 7.09851e-21)
(-0.209048 -0.000253435 8.09345e-20)
(-0.0945688 0.00120207 3.26531e-20)
(-0.110501 0.00266341 3.12012e-20)
(1.19374 -0.0189962 1.37175e-20)
(1.19333 -0.0204117 -5.13012e-21)
(1.19504 -0.0197351 -1.38958e-20)
(0.0270097 -0.0138827 5.83976e-20)
(0.00158687 -0.0139775 -1.76003e-21)
(0.946402 0.0202524 4.33828e-21)
(0.944937 0.022492 8.69643e-21)
(0.94422 0.0196736 -9.16785e-21)
(0.0862332 -0.115698 -2.2432e-19)
(0.0967586 -0.0865946 -5.08401e-20)
(0.0595782 -0.0911573 -2.68827e-20)
(1.00186 0.0193841 9.94793e-22)
(1.00202 0.0203132 -2.81125e-21)
(1.00154 0.0198518 9.23566e-22)
(0.180331 0.107939 0)
(0.209968 0.0889932 0)
(0.211026 0.123729 0)
(-0.157107 0.00314134 0)
(-0.152787 0.00332666 2.01855e-20)
(-0.141903 0.00056161 2.85162e-20)
(0.903293 0.0268826 -3.17727e-20)
(0.900341 0.0302754 -5.09008e-20)
(0.905046 0.030694 -2.25324e-20)
(1.00001 0.00138486 -1.58392e-21)
(0.999991 0.00137182 1.19735e-22)
(1.26008 0.0364971 -1.43515e-20)
(1.24455 0.0347232 -2.34976e-20)
(-0.166533 0.00150235 4.80314e-20)
(-0.152613 2.58115e-05 -1.88482e-20)
(-0.156079 0.000474527 3.12207e-20)
(0.753609 0.121471 -3.29157e-21)
(0.764797 0.130685 -4.96986e-20)
(1.00699 0.000966265 -1.51305e-22)
(1.00732 0.0013978 4.55191e-22)
(1.00747 0.000837157 9.55413e-22)
(0.972928 0.0658767 6.80844e-21)
(0.975413 0.0674781 -9.29015e-21)
(1.04782 0.0451324 0)
(1.04874 0.0465636 2.74898e-21)
(1.04714 0.0463171 -4.01723e-21)
(1.00654 0.000976173 4.58565e-22)
(1.00635 0.000492445 -6.16894e-22)
(1.02768 0.00363335 6.3761e-22)
(1.02816 0.00338128 3.73092e-21)
(1.02758 0.00311744 0)
(0.343081 0.0140639 7.36714e-20)
(-0.0967601 -0.00627533 3.48175e-20)
(-0.102382 -0.0049368 1.58777e-20)
(-0.109879 -0.00369644 3.72397e-20)
(0.947996 0.0176449 1.26404e-20)
(0.949038 0.0204588 -4.29933e-21)
(1.05656 0.0446927 -4.69112e-21)
(1.05476 0.0445956 0)
(0.999971 0.00128878 -3.55497e-21)
(1 0.000873345 0)
(0.668768 0.0360108 6.3059e-20)
(0.709626 0.0406051 -3.60257e-22)
(0.614801 0.0318783 9.88093e-21)
(0.116446 -0.0268844 2.61045e-20)
(0.0907673 -0.0244526 4.7996e-20)
(1.09735 0.178313 -1.47346e-20)
(1.09335 0.1742 -1.08062e-20)
(0.568975 0.150861 -4.50653e-20)
(0.570355 0.123246 0)
(0.994856 0.00342307 1.40216e-20)
(0.994357 0.00325729 1.37519e-20)
(0.90189 0.0228338 3.11636e-20)
(0.906232 0.0239222 -2.98401e-20)
(0.63133 -0.0372507 -1.72891e-20)
(0.635384 -0.0360537 -1.42558e-20)
(0.700029 -0.0340793 6.11634e-20)
(1.03691 0.0224347 -1.97169e-22)
(1.03668 0.0232501 -6.83541e-21)
(1.03572 0.0223199 -6.84449e-21)
(0.961282 0.0342085 3.41424e-21)
(0.959035 0.035188 1.72463e-20)
(0.959802 0.0322669 4.17762e-20)
(0.651525 0.203572 -8.36581e-20)
(0.631088 0.209094 3.85006e-20)
(0.648799 0.226414 -5.55056e-20)
(0.986561 0.00557987 1.99587e-20)
(0.985931 0.00516192 6.37608e-21)
(0.131808 -0.0193319 7.59403e-21)
(0.0981213 -0.017572 3.12173e-20)
(0.130613 -0.0186583 -3.45684e-20)
(0.773859 0.610361 4.59859e-22)
(0.78222 0.583058 3.55132e-21)
(0.74954 0.581911 4.54964e-22)
(0.965627 0.0222852 -2.85588e-21)
(0.9662 0.019845 3.18941e-22)
(1.03512 0.0190863 -8.32545e-21)
(1.03506 0.0199043 -3.62802e-21)
(1.03411 0.0190039 7.78525e-22)
(1.062 0.134956 9.38858e-21)
(1.05789 0.134618 7.47921e-21)
(1.06 0.139389 -2.77218e-22)
(1.18814 0.0289261 -1.56919e-20)
(1.19056 0.0284688 -4.91084e-20)
(1.18858 0.0310695 -7.5069e-21)
(0.110326 -0.13767 -2.77906e-21)
(0.0707189 -0.145804 -1.81911e-19)
(1.20372 0.0037429 3.67479e-20)
(1.20561 0.00457024 3.47022e-20)
(1.20527 0.00233256 3.02002e-21)
(1.01329 0.216947 -2.68959e-22)
(1.0172 0.212259 -1.29393e-21)
(1.02117 0.217444 0)
(1.0958 0.103232 1.38887e-21)
(1.09279 0.104731 1.4702e-21)
(1.09278 0.101133 1.37834e-20)
(-0.084907 0.0267353 6.31314e-20)
(-0.0950615 0.0293439 1.1043e-19)
(-0.115903 0.0256073 -2.17975e-20)
(1.05423 0.17583 9.93626e-21)
(1.05806 0.171406 2.89761e-22)
(0.409714 -0.030192 -1.22421e-20)
(0.453762 -0.0284052 -3.86034e-20)
(0.468414 -0.0290994 -3.98507e-20)
(-0.253452 0.00223963 1.78761e-22)
(-0.237752 0.00126701 -9.30404e-21)
(0.718118 0.043152 3.14028e-20)
(0.620601 0.0312126 -1.12624e-20)
(0.938109 0.059431 -1.07358e-20)
(0.935134 0.0612294 -7.06508e-21)
(0.935073 0.0572766 -2.21752e-20)
(0.785012 -0.0146337 1.89815e-20)
(0.779072 -0.00628086 0)
(0.773539 -0.0172668 -6.14703e-20)
(1.00003 0.00322963 6.8621e-22)
(1.00006 0.00311101 -3.02715e-21)
(0.999999 0.00265177 -2.69225e-21)
(1.22199 0.0143731 -2.23522e-21)
(1.22124 0.0170314 -1.57894e-20)
(1.19421 -0.017195 -9.03703e-21)
(1.19215 -0.0178618 3.11095e-20)
(1.20314 -0.0292376 0)
(1.2034 -0.0294413 3.49784e-20)
(1.08796 0.0477834 -5.51215e-21)
(1.08694 0.0457521 3.1935e-21)
(1.19383 0.0451625 -3.96181e-21)
(1.1936 0.0428008 -2.0139e-20)
(1.19643 0.0438509 1.95872e-20)
(1.0461 0.0352056 -2.38392e-21)
(1.04713 0.0362771 -4.64076e-21)
(1.04555 0.0362759 -2.88641e-21)
(0.833132 0.00613586 -2.68428e-20)
(0.828342 0.0133088 -2.92138e-20)
(1.03991 0.214957 3.12649e-21)
(1.03276 0.213166 0)
(1.03876 0.207941 -5.40268e-21)
(-0.268228 0.0034425 2.41856e-20)
(-0.277908 0.00423167 1.98118e-20)
(-0.260949 0.00342417 -7.46718e-22)
(1.19364 -0.0249995 0)
(1.19544 -0.0253324 -2.1159e-20)
(1.19455 -0.0235489 6.93052e-21)
(1.01732 0.0761573 -5.9026e-22)
(1.01711 0.0783996 6.85163e-23)
(1.01503 0.0766106 6.81528e-23)
(0.178007 -0.0225646 -3.66707e-20)
(0.174302 -0.0221872 0)
(0.216632 -0.0221974 -1.44571e-20)
(1.00311 0.234074 -6.55449e-22)
(0.999422 0.238661 2.14254e-22)
(1.00744 0.239684 1.11957e-22)
(-0.0917484 -0.00640745 -2.92436e-20)
(-0.0823406 -0.00755681 -1.52982e-20)
(0.149537 0.0919104 0)
(0.150873 0.128837 6.43379e-20)
(0.137579 -0.0198027 2.29137e-20)
(0.173377 -0.019484 1.34886e-20)
(1.01728 0.0383369 2.19267e-22)
(1.01818 0.0393629 -3.94598e-22)
(1.01704 0.0394616 1.22046e-22)
(1.18674 0.199668 0)
(1.18455 0.194953 0)
(1.12509 0.167842 -2.47818e-21)
(1.12501 0.162927 1.60522e-20)
(1.03803 0.0224865 2.26272e-21)
(1.037 0.0215848 -1.36007e-22)
(1.00051 0.00598008 2.88953e-21)
(1.00064 0.00645125 1.74801e-21)
(0.929412 0.138495 5.65837e-22)
(0.925624 0.13395 -1.36106e-20)
(0.93201 0.133821 -1.23223e-21)
(0.0704268 -0.0225653 7.41685e-21)
(0.0684181 -0.0223053 2.63608e-20)
(1.24423 0.223328 2.34258e-20)
(1.24834 0.222161 2.99066e-20)
(1.24732 0.228098 7.96072e-20)
(-0.0749852 0.0274215 -3.25962e-20)
(-0.0329991 0.03531 -7.42232e-20)
(1.14759 0.0936618 -1.12821e-20)
(1.14599 0.0961674 2.95442e-20)
(1.14953 0.0960132 -1.03261e-20)
(1.20336 -0.0217003 1.25088e-20)
(1.20266 -0.0227895 2.51927e-22)
(1.20794 -0.0223887 -3.16502e-20)
(0.682002 -0.0287401 4.72233e-21)
(0.633355 -0.0287413 2.69384e-20)
(0.633769 -0.0300898 -3.1002e-20)
(-0.0969894 0.0140487 2.60105e-20)
(-0.103467 0.013616 -6.26953e-20)
(1.23297 0.260152 -2.39392e-20)
(1.23454 0.25458 -1.11421e-20)
(1.23739 0.258151 -5.33595e-20)
(1.00002 0.0113767 -7.63782e-21)
(1.00008 0.0107924 -3.52094e-21)
(0.999891 0.0106803 3.58535e-21)
(0.561004 0.0616791 -7.04919e-20)
(0.565816 0.0817106 8.54332e-20)
(0.541475 0.0755905 7.52613e-20)
(0.790624 0.045708 3.32404e-20)
(0.789467 0.0569021 1.68153e-20)
(1.01453 0.000636915 5.11012e-21)
(1.01393 0.000623159 -1.04552e-21)
(1.03186 0.0381873 2.78241e-22)
(1.03339 0.0386123 -2.4594e-22)
(0.838243 0.480372 -2.34749e-21)
(0.834485 0.453505 7.28343e-21)
(0.86046 0.463756 1.49247e-20)
(1.10884 0.495886 0)
(1.0941 0.469849 0)
(0.917377 0.390807 -7.51592e-20)
(1.12319 0.024035 1.27352e-20)
(1.12533 0.0235624 3.83312e-21)
(1.12479 0.0256071 4.64956e-21)
(1.0043 0.00126647 5.6441e-22)
(1.00428 0.00078978 -2.725e-22)
(1.18958 0.0378567 1.41566e-20)
(1.1868 0.0386983 1.10909e-20)
(1.18964 0.0407489 -9.748e-21)
(1.188 0.0264413 4.94215e-20)
(1.18563 0.0288264 4.25522e-20)
(-0.222881 -0.000338673 -6.5212e-20)
(-0.225595 -0.00013892 4.65154e-20)
(0.665324 0.0138844 -1.60358e-20)
(0.678878 0.0129089 7.84177e-21)
(0.74821 0.0197398 -5.61492e-20)
(0.991782 0.0178241 -2.17248e-23)
(0.991262 0.0177172 3.59333e-21)
(0.994916 0.0425284 0)
(0.996104 0.0437357 4.43874e-21)
(1.19648 0.0599354 -6.75343e-22)
(1.19901 0.0585357 3.00505e-20)
(0.0582704 -0.0220263 -1.11497e-20)
(0.0833517 -0.0238948 -3.24333e-21)
(0.0754514 -0.02342 4.24625e-20)
(0.963265 0.0329525 -6.43548e-21)
(0.962965 0.0356659 -3.10649e-20)
(0.022367 -0.0188011 2.62431e-21)
(0.01806 -0.0185994 -3.267e-20)
(0.0414124 -0.0203794 1.21361e-20)
(-0.253804 0.00131974 -2.65206e-20)
(-0.239047 0.00105057 9.56782e-20)
(-0.251705 0.00131534 -6.85111e-21)
(1.2031 -0.0203807 -9.60999e-21)
(1.20432 -0.0202101 2.6533e-20)
(1.0227 0.0193261 -5.85986e-21)
(1.02333 0.0201742 -1.06854e-21)
(0.478877 0.391231 -5.6483e-21)
(0.496899 0.425642 3.08763e-20)
(0.446251 0.425696 6.21735e-20)
(1.18926 0.055505 5.80705e-20)
(1.19176 0.0569088 6.00088e-20)
(1.18896 0.0582729 -3.23664e-21)
(-0.272831 0.00114317 0)
(-0.254297 -0.000123328 2.09759e-20)
(-0.265517 0.00187971 -7.30987e-20)
(1.00458 0.0257321 -1.98161e-21)
(1.00509 0.0263371 6.00062e-23)
(1.00461 0.0268448 -6.1677e-23)
(0.32635 0.0558042 -2.28712e-20)
(0.297584 0.0526849 3.84112e-20)
(1.01629 0.0371405 1.25062e-22)
(1.01743 0.0371727 -3.40301e-22)
(1.2095 0.148897 5.99677e-20)
(1.20697 0.145674 2.94052e-20)
(1.20532 0.149408 2.91809e-20)
(1.01194 0.00183853 8.54322e-22)
(1.01166 0.00127534 -8.78797e-23)
(-0.139387 -0.00548718 -9.55222e-21)
(-0.152914 -0.00504788 3.84124e-20)
(-0.143719 -0.00498903 -1.32215e-20)
(0.0216804 -0.0137869 -6.86194e-21)
(0.0185169 -0.0135824 1.52222e-20)
(0.0488052 -0.0136618 2.08475e-20)
(0.993157 0.11954 -3.05106e-21)
(0.997239 0.11864 2.08526e-21)
(1.13867 0.528256 0)
(1.14702 0.52614 0)
(1.15161 0.514147 0)
(1.09899 0.104958 -6.51871e-21)
(1.09827 0.101439 1.05956e-21)
(1.02168 0.019024 1.81394e-22)
(1.0219 0.0182529 -3.71078e-21)
(0.609279 -0.0395916 4.85543e-20)
(0.554047 -0.0382792 6.52208e-20)
(1.19271 -0.0264014 3.41508e-20)
(1.19189 -0.0247024 0)
(1.14585 0.0913107 0)
(1.149 0.0912002 -1.80632e-20)
(0.106375 -0.0253708 -4.12123e-21)
(0.0857676 -0.0238195 1.26299e-20)
(0.116623 -0.0254484 2.57084e-20)
(-0.256865 0.00320388 -3.74688e-20)
(-0.265955 0.00269096 -5.39126e-20)
(1.01773 0.00497259 -2.07926e-21)
(1.01835 0.00508618 1.12876e-22)
(1.01803 0.00440147 -1.05905e-21)
(1.07292 0.128046 -1.89856e-21)
(1.07138 0.13189 -4.77165e-21)
(-0.160495 -0.00423187 6.10848e-20)
(-0.155162 -0.00442083 0)
(-0.147885 0.011025 -4.75914e-20)
(-0.164036 0.00963394 9.50575e-20)
(-0.149424 0.0109282 0)
(1.00002 0.00320092 3.17591e-21)
(1.00001 0.0037361 4.78458e-21)
(1.00837 0.0128574 1.69961e-23)
(1.00896 0.0132662 -1.00256e-21)
(1.00862 0.0135251 -3.13482e-22)
(-0.0881889 0.00197704 2.70495e-20)
(-0.0757714 0.00117059 -1.26005e-20)
(1.22164 0.0194745 -2.68282e-20)
(1.22048 0.0178498 5.92683e-21)
(1.22851 0.0184075 -6.97262e-21)
(1.00008 0.00017675 6.13309e-23)
(1.00003 0.000134911 -9.3744e-24)
(1.00007 0.000221857 -4.57333e-22)
(0.672982 -0.0380178 0)
(0.677699 -0.0381273 0)
(0.735221 -0.0386556 3.42135e-20)
(1.22235 0.0945861 -3.19019e-21)
(1.22285 0.0911395 -4.29685e-20)
(1.21925 0.0925769 -1.2444e-20)
(0.794295 -0.0144125 5.27772e-20)
(0.790083 -0.0241376 1.13286e-20)
(1.09847 0.154738 -1.4458e-20)
(1.10102 0.159252 -2.06885e-20)
(1.10294 0.154148 1.70986e-20)
(1.00005 0.0036661 2.53367e-21)
(1.00008 0.00308626 4.84244e-22)
(0.967239 0.241364 0)
(0.969576 0.231668 1.46589e-21)
(0.95931 0.234787 8.16038e-21)
(-0.24397 0.00209456 -2.68641e-20)
(-0.243734 0.00274694 9.26311e-20)
(-0.260833 0.0036631 3.87039e-20)
(1.0665 0.0139482 -2.99419e-21)
(1.06723 0.0130878 7.74344e-21)
(1.06817 0.0141652 0)
(1.19778 0.217695 0)
(1.19172 0.219291 -2.91274e-20)
(1.19411 0.212538 -8.42878e-21)
(0.558413 0.168269 -1.45862e-20)
(0.572822 0.189239 8.06124e-20)
(0.543284 0.193786 8.67328e-20)
(1.0469 0.0436884 -1.90912e-21)
(1.04845 0.0438304 0)
(0.996194 0.0387308 2.24687e-21)
(0.9951 0.0392131 -5.87421e-21)
(1.19314 0.00547974 2.62269e-20)
(1.1957 0.00569526 1.74152e-21)
(1.19449 0.0034442 -1.86291e-20)
(-0.0622939 -0.00169109 -3.8773e-20)
(-0.0729657 -0.000167353 -2.01225e-20)
(-0.0736775 -0.000328405 -1.39929e-20)
(1.20165 0.00264234 2.37123e-20)
(1.20195 0.00522088 -3.62913e-20)
(0.932206 0.143471 1.40347e-21)
(0.926323 0.144187 1.26337e-21)
(0.974055 0.119066 -7.58273e-21)
(0.970989 0.12307 -4.00299e-22)
(1.00007 0.000383405 4.95817e-22)
(1.00007 0.000333271 -5.00822e-22)
(1.00002 0.0002244 -1.9893e-23)
(-0.180321 0.00245581 -5.59121e-21)
(-0.176946 0.0024187 -8.67922e-22)
(0.117399 -0.00567411 -2.96896e-20)
(0.16034 -0.00616957 0)
(0.159981 -0.00516395 1.34181e-20)
(0.615593 -0.0429842 0)
(0.595369 -0.0407301 1.62267e-22)
(0.563279 -0.0381429 0)
(1.02087 0.0188286 3.61529e-21)
(1.02154 0.0197196 5.87662e-21)
(-0.230594 1.95647e-05 0)
(-0.215122 -0.000655079 1.88819e-20)
(-0.220169 -0.000138994 0)
(-0.207484 0.00218734 1.65542e-20)
(-0.205859 0.00268628 -6.44435e-21)
(-0.222807 0.00389642 1.80411e-20)
(0.354325 -0.030886 -3.82812e-23)
(0.370775 -0.0303999 -2.67995e-22)
(0.035232 -0.0169974 3.76944e-21)
(0.0202697 -0.0163486 -1.67069e-20)
(1.18701 -0.030416 -1.82441e-20)
(1.18646 -0.0321412 6.54644e-21)
(1.00007 0.00427173 2.7722e-21)
(1.009 0.00111285 2.44422e-24)
(1.0085 0.00118215 -1.23105e-21)
(1.00907 0.00173061 -3.82167e-22)
(1.18552 0.0778449 -4.69753e-21)
(1.18303 0.0763152 -4.68729e-20)
(1.18616 0.0750015 -2.81475e-20)
(-0.169389 -0.00212541 2.31756e-20)
(-0.180764 -0.00103617 6.2154e-21)
(-0.182637 -0.000695145 4.47835e-22)
(1.23145 0.0554342 -1.7084e-20)
(1.23223 0.0579218 0)
(1.23667 0.055508 0)
(1.09017 0.0766087 -8.46164e-21)
(1.093 0.0758747 -3.83827e-21)
(0.648787 0.014167 -1.61538e-20)
(0.581422 0.00794037 3.65903e-20)
(1.15878 -0.0178502 1.51918e-20)
(1.15692 -0.0177603 -1.78154e-20)
(1.02761 0.00209538 0)
(1.02751 0.00257027 0)
(1.028 0.00236527 0)
(0.406668 0.0362405 -1.6465e-20)
(0.399676 0.0314547 -5.67417e-21)
(0.329347 0.0219624 3.51324e-21)
(1.00271 0.00677048 -5.62937e-22)
(1.00271 0.00647346 6.6633e-22)
(1.00244 0.00627523 -1.31461e-21)
(0.177182 -0.0228002 3.89356e-20)
(0.142761 -0.0221994 -5.0224e-20)
(1.12081 0.0248052 9.11798e-21)
(1.12127 0.0227904 -1.67424e-21)
(1.00008 0.000136968 5.91505e-22)
(1.00013 0.000216601 5.80302e-24)
(0.998836 0.135817 -1.15102e-21)
(0.997162 0.140796 -1.5258e-21)
(0.99452 0.135641 -3.90263e-21)
(1.01068 0.22275 4.86048e-22)
(1.00672 0.216511 -7.82618e-22)
(0.773484 0.00340123 0)
(0.783749 0.00407909 -3.83135e-20)
(0.616873 -0.0369475 -1.2424e-20)
(0.663393 -0.038766 -1.75439e-20)
(0.992702 0.172886 9.10218e-22)
(0.992354 0.179466 1.99622e-21)
(0.986463 0.174377 1.92418e-21)
(1.0683 0.0236927 2.39436e-20)
(1.06895 0.0251143 1.52932e-20)
(1.06728 0.0244103 1.29353e-20)
(1.09368 0.0969265 2.67012e-21)
(1.09928 0.10233 6.70519e-20)
(1.00091 0.0842088 8.86675e-20)
(0.123792 -0.0263048 3.64988e-21)
(0.0942805 -0.0251073 -1.15874e-20)
(0.0804818 -0.00810955 -2.62629e-20)
(0.0843319 -0.00762953 -1.10853e-20)
(1.00402 0.0253679 1.09909e-21)
(1.00442 0.0248689 -2.13499e-21)
(0.340637 -0.0281845 -2.12746e-20)
(0.386556 -0.0261117 2.70556e-20)
(0.331451 -0.0274356 2.077e-20)
(0.998384 0.00189447 3.56582e-21)
(0.998269 0.00221385 9.40655e-21)
(0.998061 0.00211463 4.18868e-21)
(1.06805 0.0223288 5.48726e-21)
(1.0697 0.0229343 -3.9727e-21)
(1.00169 0.0183966 -9.87001e-22)
(1.00216 0.018853 0)
(0.801308 0.640835 0)
(0.756029 0.64415 0)
(1.00217 0.00129187 -3.88256e-24)
(1.00236 0.00112813 -2.15946e-24)
(1.00202 0.00101141 7.05594e-25)
(1.21184 0.151788 9.15787e-21)
(1.21346 0.148149 2.84823e-20)
(1.09398 0.15618 3.16973e-21)
(1.09547 0.151174 -9.15445e-21)
(1.04497 0.0339647 2.98329e-21)
(1.04656 0.0340144 -3.86346e-22)
(1.19187 0.0371207 3.32947e-21)
(1.1891 0.0360646 -5.53203e-21)
(1.046 0.0839774 -1.10031e-21)
(1.04747 0.0820411 -4.68665e-22)
(1.04888 0.0847016 -2.94835e-21)
(0.119228 0.0725281 -1.39099e-19)
(0.106716 0.0577686 -8.14803e-20)
(0.105401 0.0887267 -4.03832e-20)
(1.00748 0.229217 -1.08803e-21)
(0.999911 0.228514 1.14849e-21)
(1.17353 0.19364 -2.68189e-21)
(1.16901 0.198536 -2.58104e-20)
(1.04442 0.0254385 2.56087e-21)
(1.04537 0.0265533 -8.73464e-21)
(1.04568 0.0253276 0)
(0.997234 0.0382234 8.45825e-21)
(0.996236 0.0372082 7.05555e-21)
(-0.207858 0.000591101 -5.24802e-20)
(-0.22072 0.000640242 7.84219e-21)
(-0.222794 0.000613001 -1.56889e-20)
(-0.174377 0.00403454 -3.05983e-20)
(-0.179152 0.00364908 -2.84358e-20)
(-0.163326 0.00156328 -4.39426e-20)
(1.00204 0.0212581 -2.12886e-21)
(1.00242 0.0207976 -2.85849e-21)
(1.01002 0.00104551 1.92271e-22)
(1.01065 0.00139871 -1.05659e-21)
(1.01004 0.00180908 3.82929e-22)
(0.404966 0.034574 -3.29851e-20)
(0.497719 0.0453948 -4.08198e-20)
(1.02146 0.0368768 7.5806e-22)
(1.02177 0.0382496 1.27405e-21)
(1.02288 0.0377426 3.57089e-21)
(-0.185138 -0.00292786 1.66504e-21)
(-0.195478 -0.00216809 4.65062e-20)
(1.04337 0.0246065 5.44552e-21)
(1.04314 0.0257128 1.31314e-20)
(-0.13561 -0.00555423 -5.4605e-20)
(-0.126523 -0.00595294 3.38076e-20)
(1.08284 0.00481214 -4.34227e-21)
(1.08246 0.00351781 -1.00619e-20)
(1.08401 0.00412067 -2.38182e-20)
(1.18172 0.37897 2.32778e-20)
(1.17032 0.376461 1.65725e-20)
(1.17362 0.388689 -7.18962e-21)
(1.15219 0.0457242 1.14896e-20)
(1.15069 0.0477274 1.99962e-20)
(1.15369 0.0479754 -4.63756e-20)
(0.100431 0.315381 4.15322e-20)
(0.0984193 0.276482 -3.2211e-20)
(0.132469 0.292495 1.42704e-19)
(0.941448 0.0606933 1.10612e-20)
(0.941055 0.0569444 -6.55345e-21)
(0.808428 0.0566025 7.5215e-20)
(0.738614 0.0491908 0)
(0.503527 0.300601 3.45633e-20)
(0.477472 0.310361 0)
(0.503838 0.332612 2.40687e-20)
(1.00317 0.136668 1.5057e-21)
(1.00095 0.132544 1.81989e-21)
(1.22533 0.0213364 3.97548e-20)
(1.22011 0.0204832 1.8287e-20)
(0.917741 0.532153 -6.02886e-21)
(0.933555 0.550785 1.37765e-22)
(0.905034 0.553896 1.01008e-21)
(0.998111 0.059561 0)
(0.996384 0.058856 0)
(0.996846 0.0611809 0)
(-0.116072 -0.00460289 5.96359e-20)
(-0.13047 -0.00288683 9.49705e-21)
(-0.12551 -0.00347564 4.00817e-20)
(0.576291 0.0506534 -1.04297e-19)
(0.556025 0.0416068 -1.22371e-19)
(-0.195466 0.00174176 0)
(-0.207272 0.00196923 6.90317e-20)
(0.91931 0.0323263 -2.03243e-20)
(0.915574 0.0337374 1.34219e-20)
(0.918423 0.0365734 -1.3699e-20)
(-0.1352 0.00283226 9.46738e-22)
(-0.152438 0.00450307 -3.97872e-20)
(-0.13404 0.00351512 -4.83252e-20)
(1.07673 0.127937 3.38536e-21)
(1.0788 0.132196 -1.09851e-20)
(1.08072 0.128555 -3.53351e-22)
(-0.154447 0.00410636 0)
(-0.137988 0.00455317 -1.96385e-20)
(-0.133211 0.00417746 1.51049e-20)
(0.510662 0.270023 -5.05109e-21)
(0.534786 0.293501 -1.15781e-20)
(0.903774 0.375985 3.17139e-21)
(0.887764 0.372473 8.04656e-21)
(0.895377 0.390578 -6.98297e-22)
(0.921191 0.382784 -6.66319e-21)
(0.914343 0.363838 -7.40485e-21)
(0.0395575 -0.0207132 -4.34045e-21)
(0.0282981 -0.0201142 3.58063e-20)
(0.999762 0.00349241 -4.0838e-21)
(0.999699 0.00391926 -1.66195e-21)
(0.999729 0.00394893 -4.56242e-21)
(1.04711 0.215033 2.81994e-21)
(1.04312 0.221449 -4.91015e-21)
(-0.180265 -0.000652438 -7.22148e-20)
(-0.186611 -0.0004732 2.2925e-20)
(0.982864 0.0417581 0)
(0.981879 0.0428951 -7.98905e-21)
(0.981484 0.0408766 9.45515e-21)
(1.00323 0.0965186 0)
(1.00429 0.0938089 0)
(1.00114 0.0940121 0)
(-0.200455 0.00249753 4.30031e-20)
(-0.196953 0.00303992 -1.39928e-20)
(0.815131 0.49738 -1.17502e-20)
(0.845922 0.506969 -3.59925e-21)
(1.02202 0.0727227 4.1395e-23)
(1.02185 0.0747296 3.81674e-22)
(1.02417 0.0744161 3.77299e-22)
(0.734724 -0.0269101 3.01649e-20)
(0.732693 -0.0271125 -2.09371e-20)
(0.653993 0.558307 2.28632e-20)
(0.680187 0.532147 5.01998e-20)
(1.01298 0.00765306 0)
(1.01362 0.00807847 0)
(1.01352 0.00735717 0)
(-0.160814 0.00228221 -3.37827e-20)
(-0.178093 0.00391753 0)
(0.620584 -0.0352584 4.3793e-20)
(0.568134 -0.0361256 5.64281e-20)
(0.636328 -0.034685 -1.12007e-20)
(1.0027 0.00706069 8.07438e-22)