/*--------------------------------*- C++ -*----------------------------------*\
| =========                 |                                                 |
| \\      /  F ield         | OpenFOAM: The Open Source CFD Toolbox           |
|  \\    /   O peration     | Version:  v2012                                 |
|   \\  /    A nd           | Website:  www.openfoam.com                      |
|    \\/     M anipulation  |                                                 |
\*---------------------------------------------------------------------------*/
FoamFile
{
    version     2.0;
    format      ascii;
    class       volVectorField;
    location    "400";
    object      cellDisplacement;
}
// * * * * * * * * * * * * * * * * * * * * * * * * * * * * * * * * * * * * * //

dimensions      [0 1 0 0 0 0 0];


internalField   nonuniform List<vector> 
13917
(
(0.0267648 0.142569 0)
(0.0193376 0.128796 0)
(0.0243086 -0.0576922 0)
(0.0191205 -0.061512 0)
(0.0038304 0.102718 0)
(0.00726323 0.205945 0)
(0.023966 -0.0710367 0)
(0.0245683 -0.0476389 0)
(0.0260843 0.0109741 0)
(0.0279859 0.143542 0)
(0.0241936 -0.0556801 0)
(0.0226553 -0.0864024 0)
(0.0191158 -0.0643512 0)
(0.0249229 -0.0342612 0)
(0.0196619 0.179107 0)
(0.0207905 0.170375 0)
(0.019125 0.139562 0)
(0.0262596 0.0492141 0)
(0.0225442 -0.0882459 0)
(0.00545111 0.0472754 0)
(0.00121329 0.0185626 0)
(0.0239296 -0.0724841 0)
(0.00723841 0.0759084 0)
(0.0245598 -0.0478949 0)
(0.00943828 0.130457 0)
(0.0235089 -0.0887017 0)
(0.00760666 0.200487 0)
(0.0152939 0.201336 0)
(0.0288602 0.203146 0)
(0.0280043 0.107213 0)
(0.0269914 0.133028 0)
(0.024817 0.13975 0)
(0.011923 0.197788 0)
(0.00406375 0.189907 0)
(0.00794862 0.137178 0)
(0.0239728 -0.0684173 0)
(0.0069002 0.0730153 0)
(0.0249244 -0.0341871 0)
(0.0198006 -0.0720356 0)
(0.0225863 -0.1248 0)
(0.0015145 0.0080246 0)
(0.000538195 0.00741833 0)
(0.00898693 0.0061524 0)
(0.0193077 0.202706 0)
(0.020163 0.0731528 0)
(0.00619087 0.192772 0)
(0.0261724 0.0467965 0)
(0.0256717 0.0137316 0)
(0.0112728 0.206159 0)
(0.00141347 0.00975545 0)
(0.0239867 0.0281534 0)
(0.00612472 0.171442 0)
(0.0101034 0.206194 0)
(0.0042752 0.190702 0)
(0.019098 0.141724 0)
(0.0247555 0.0724077 0)
(0.0242399 -0.0535451 0)
(0.0137491 0.146718 0)
(0.024178 0.0887246 0)
(0.0199284 0.0737595 0)
(0.0291144 0.12955 0)
(0.019519 0.127175 0)
(0.0248914 -0.0354819 0)
(0.00577417 0.0503285 0)
(0.00851125 0.20584 0)
(0.0302231 0.17654 0)
(0.00192468 0.106958 0)
(0.00241471 0.140134 0)
(0.0255538 -0.00466393 0)
(0.0260119 0.159116 0)
(0.00389932 0.0997966 0)
(0.0260649 0.010263 0)
(0.0265006 0.0268826 0)
(0.00940471 0.128237 0)
(0.0142692 0.206081 0)
(0.02184 -0.112965 0)
(0.0259808 0.00673013 0)
(0.0221097 0.0655882 0)
(0.0230721 -0.105559 0)
(0.00232497 0.0343949 0)
(0.00338131 0.0403787 0)
(0.00186628 0.102502 0)
(0.0118367 0.205691 0)
(0.0249378 -0.0336586 0)
(0.0294627 0.141906 0)
(0.0219262 0.0630655 0)
(0.00438722 0.0466356 0)
(0.0302294 0.178092 0)
(0.0238621 0.0273583 0)
(0.00938175 0.00523222 0)
(0.0260253 0.00846723 0)
(0.0282301 0.128531 0)
(0.0175345 0.0917957 0)
(0.015529 0.172898 0)
(0.0302681 0.179463 0)
(0.00395172 0.205953 0)
(0.024866 -0.0274474 0)
(0.0258471 0.0237851 0)
(0.0226323 -0.106824 0)
(0.0134234 0.204233 0)
(0.00810933 0.0405533 0)
(0.00410605 0.197196 0)
(0.0182235 0.20288 0)
(0.0223928 0.043175 0)
(0.0132943 0.063777 0)
(0.0263236 0.0203173 0)
(0.028685 0.201641 0)
(0.0257194 0.0142163 0)
(0.0194086 0.138287 0)
(0.0271895 0.140264 0)
(0.0279032 0.0812493 0)
(0.0226163 -0.123634 0)
(0.0227808 -0.091593 0)
(0.0262812 0.0186406 0)
(0.00558879 0.180197 0)
(0.000110233 0.206448 0)
(0.0101496 0.107889 0)
(0.00955916 0.206154 0)
(0.0238445 -0.0760459 0)
(0.00635062 0.190529 0)
(0.00103879 0.0143753 0)
(0.0255968 -0.00270099 0)
(0.0241844 -0.0628658 0)
(0.0146837 0.201057 0)
(0.00133187 0.00847873 0)
(0.0152744 0.171835 0)
(0.0198722 0.0880066 0)
(0.00107043 0.00691039 0)
(0.00539851 0.00799772 0)
(0.00530584 0.205992 0)
(0.0240244 -0.0690472 0)
(0.00538203 0.179164 0)
(0.0203206 0.0757659 0)
(0.000969481 0.0152916 0)
(0.0274819 0.0668459 0)
(0.0245159 -0.0495614 0)
(0.0267684 0.145432 0)
(0.0130815 0.204505 0)
(0.00218831 0.109246 0)
(0.00560808 0.190363 0)
(0.0240756 -0.0639059 0)
(0.0157922 0.0545356 0)
(0.00882875 0.17446 0)
(0.0184496 0.203515 0)
(0.00268449 0.141654 0)
(0.0260497 0.00986797 0)
(0.0293357 0.202172 0)
(0.00629886 0.17015 0)
(0.0148219 0.0476221 0)
(0.0248137 0.147366 0)
(0.0246116 -0.0186252 0)
(-0.00130007 0.206483 0)
(0.0240346 -0.0518179 0)
(0.0258246 0.176877 0)
(0.0249799 0.109423 0)
(0.0302913 0.174586 0)
(0.0258075 0.159552 0)
(0.0250504 -0.0278962 0)
(0.0260035 0.00761101 0)
(0.0275363 0.0689918 0)
(0.0118907 0.184317 0)
(0.00133841 0.200463 0)
(0.00242275 0.0304755 0)
(0.0248064 -0.0290445 0)
(0.0228274 -0.0891298 0)
(0.0226657 -0.104914 0)
(0.0223691 0.0462731 0)
(0.0252085 0.000947363 0)
(0.018785 0.0718442 0)
(0.00359584 0.197681 0)
(0.0262134 0.171879 0)
(0.0283194 0.097354 0)
(0.0225906 -0.0992002 0)
(0.0197187 0.148562 0)
(0.0257168 -0.00287198 0)
(0.0260953 0.18143 0)
(0.024004 -0.06983 0)
(0.00955324 0.206182 0)
(0.0260058 0.00822542 0)
(0.0161928 0.116399 0)
(0.0282323 0.125392 0)
(0.0271063 0.130938 0)
(0.0158089 0.0519318 0)
(0.00463989 0.0498396 0)
(0.0193941 0.188078 0)
(0.0235109 -0.0885207 0)
(0.0287379 0.122849 0)
(0.030263 0.173781 0)
(0.0260264 0.0717671 0)
(0.0231731 -0.0880002 0)
(0.0246007 -0.0442488 0)
(0.0294813 0.142754 0)
(0.0290092 0.135811 0)
(0.00675911 0.0842 0)
(0.00861762 0.204807 0)
(0.00788564 0.200045 0)
(0.000532222 0.00214262 0)
(0.0177155 0.0941281 0)
(0.028372 0.199701 0)
(0.0302922 0.182262 0)
(0.0224458 -0.0185391 0)
(0.00132185 0.00923177 0)
(0.0249348 -0.00568428 0)
(0.0245196 -0.0208153 0)
(0.0264894 0.0264444 0)
(0.0267776 0.0394846 0)
(0.00763866 0.135574 0)
(0.0138803 0.148603 0)
(0.0257466 0.0204625 0)
(0.023861 -0.0749657 0)
(0.00903484 0.173225 0)
(0.0240573 -0.0675259 0)
(0.0265135 0.0273799 0)
(0.0232206 -0.0858913 0)
(0.0133164 0.0656813 0)
(0.0243593 0.204989 0)
(0.0255372 0.0169872 0)
(0.0276523 0.0715044 0)
(0.0122477 0.115663 0)
(0.0291279 0.13045 0)
(0.0159366 0.114719 0)
(0.0276773 0.0941802 0)
(0.0017976 0.00975869 0)
(0.0252098 -0.0231241 0)
(0.0264071 0.0235454 0)
(0.0211242 0.170759 0)
(0.0302241 0.184533 0)
(0.0251009 0.107005 0)
(0.0129707 0.0654247 0)
(0.0239294 -0.0698171 0)
(0.0224841 -0.101241 0)
(0.0259382 0.0687563 0)
(0.0243754 -0.0549885 0)
(0.0265393 0.0283779 0)
(0.00516241 0.0219097 0)
(0.0250041 0.138896 0)
(0.0260387 0.00899608 0)
(0.0297637 0.153526 0)
(0.0026845 0.0345585 0)
(0.00940892 0.0672555 0)
(0.0222857 -0.13644 0)
(0.0250406 -0.0223035 0)
(0.000228164 0.00182661 0)
(0.0236963 -0.0775425 0)
(0.0267667 0.0514866 0)
(0.000766067 0.200054 0)
(0.0264731 0.13649 0)
(0.00265615 0.032604 0)
(0.0252488 0.186895 0)
(0.0263216 0.0199393 0)
(0.0180028 -0.00925305 0)
(0.0285049 0.130074 0)
(0.0157544 0.204588 0)
(0.0197079 0.0852368 0)
(0.0133251 0.146283 0)
(0.0238027 -0.0535037 0)
(0.0224194 -0.131242 0)
(0.0239944 -0.0520255 0)
(0.0198513 0.188221 0)
(0.0200954 0.178369 0)
(0.000384958 0.00312299 0)
(0.0241751 -0.0632291 0)
(0.0273112 0.0589186 0)
(0.023269 -0.0937861 0)
(0.012992 0.0672419 0)
(0.0269446 0.0440783 0)
(0.0250506 -0.0293068 0)
(0.0250349 -0.0286804 0)
(0.0230362 -0.107 0)
(0.0218912 -0.11376 0)
(0.00317991 0.0389339 0)
(0.00160322 0.0097168 0)
(0.0260333 0.0402806 0)
(0.025463 -0.0133172 0)
(0.026044 0.0179479 0)
(0.0240216 0.0861629 0)
(0.0268237 0.041089 0)
(0.0210751 -0.101153 0)
(0.00413758 0.00547475 0)
(0.0282012 0.0942381 0)
(0.00549924 0.0454362 0)
(0.025666 -0.00489539 0)
(0.022306 -0.0186247 0)
(0.000228474 0.00182429 0)
(0.0223008 0.172779 0)
(0.025781 0.178428 0)
(0.00272918 0.200482 0)
(0.0237449 -0.07608 0)
(0.0237943 0.178645 0)
(0.0193777 0.0186953 0)
(0.0276274 0.0738437 0)
(0.0244252 -0.0530474 0)
(0.0273058 0.0586029 0)
(0.0119776 0.114606 0)
(0.025281 -0.0192853 0)
(0.00172512 0.0737148 0)
(0.0192704 0.0147493 0)
(0.00991563 0.104844 0)
(0.0296547 0.202265 0)
(0.00133415 0.0100044 0)
(0.0277259 0.0943219 0)
(0.0263287 0.137757 0)
(0.018571 0.0691008 0)
(0.0248947 -0.00837199 0)
(0.0221916 0.12882 0)
(0.00784679 0.206245 0)
(0.0259231 0.180708 0)
(0.0281445 0.128304 0)
(0.0173664 0.0503639 0)
(0.0131775 0.144367 0)
(0.0279993 0.08497 0)
(0.0243657 -0.0558457 0)
(0.0104691 0.109295 0)
(0.0017831 0.0102989 0)
(0.0282398 0.0959113 0)
(0.0165362 0.107818 0)
(0.0264662 0.0255517 0)
(0.017135 0.0510219 0)
(0.02523 -0.0223337 0)
(0.0182101 -0.0457848 0)
(0.029696 0.169543 0)
(0.0244917 0.0105309 0)
(0.0171534 0.206004 0)
(0.0120274 0.183237 0)
(0.0275778 0.070889 0)
(0.0213044 0.204939 0)
(0.0223591 0.171206 0)
(0.0251027 -0.0198116 0)
(0.0295603 0.198179 0)
(0.0163669 0.155682 0)
(0.0244076 -0.0542081 0)
(0.00714809 0.204781 0)
(0.0250771 -0.0282825 0)
(0.00739382 0.187904 0)
(0.0232561 -0.0988445 0)
(0.0252502 0.135014 0)
(0.0286347 0.109709 0)
(0.0205147 0.20481 0)
(0.0275346 0.196565 0)
(0.0275712 0.195657 0)
(0.0242926 -0.0583856 0)
(0.00282777 0.0457548 0)
(0.0264554 0.171157 0)
(0.0279219 0.0819895 0)
(0.0121419 0.161293 0)
(0.020061 0.162757 0)
(0.0249239 -0.0342228 0)
(0.0286244 0.200254 0)
(0.019949 0.142411 0)
(0.024596 -0.0441167 0)
(0.0283784 0.203413 0)
(0.00694193 0.0379493 0)
(0.0238706 -0.0750375 0)
(0.0242344 -0.0582417 0)
(0.0058233 0.0483087 0)
(0.0120093 0.0800651 0)
(0.0015218 0.0701948 0)
(0.0148394 0.0453405 0)
(0.0275711 0.0718566 0)
(0.02591 0.00455373 0)
(-0.00914513 0.206239 0)
(0.028008 0.0853205 0)
(0.00978916 0.120313 0)
(0.0285493 0.12931 0)
(0.0303848 0.177409 0)
(0.02473 -0.000564532 0)
(0.0240165 -0.0691329 0)
(0.0254681 -0.0131167 0)
(0.0263634 0.021821 0)
(0.00839828 0.0359903 0)
(0.0232315 -0.0946934 0)
(0.0121392 0.0760913 0)
(0.0290822 0.128942 0)
(0.0198682 0.0766142 0)
(0.0185201 0.205973 0)
(0.0268469 0.0542751 0)
(0.0207971 -0.0442757 0)
(0.0033397 0.0548577 0)
(0.0256959 0.0203341 0)
(0.0282986 0.12547 0)
(0.0263817 0.0414476 0)
(0.0301405 0.205327 0)
(0.0286249 0.109283 0)
(0.0276718 0.0722618 0)
(0.0256171 0.186902 0)
(0.0278764 0.143896 0)
(0.00909835 0.0654323 0)
(0.0297447 0.152861 0)
(0.0237777 -0.0783735 0)
(0.0151478 0.144895 0)
(0.0275692 0.0708914 0)
(0.00782123 0.120955 0)
(0.0269357 0.0470087 0)
(0.0183103 -0.0424392 0)
(0.00243803 0.0397859 0)
(0.0219624 0.135215 0)
(0.0224102 -0.13092 0)
(0.0218272 0.13694 0)
(0.0224176 -0.131287 0)
(0.0305943 0.186496 0)
(0.0238626 -0.0661419 0)
(0.0195176 0.205329 0)
(0.0164955 0.153955 0)
(0.0232455 0.204999 0)
(0.0207672 0.205175 0)
(0.0088213 0.084643 0)
(0.0284287 0.201166 0)
(0.0122021 0.159809 0)
(0.00842992 0.128763 0)
(0.0280411 0.109878 0)
(0.000553061 0.00450372 0)
(0.00914134 0.133414 0)
(0.0120477 0.0742119 0)
(0.0275748 0.0725319 0)
(0.00189078 0.0280697 0)
(0.0232878 -0.0976182 0)
(0.0226371 -0.121782 0)
(0.0306485 0.187749 0)
(0.0290386 0.137993 0)
(0.0228974 -0.112686 0)
(0.0273856 0.0611682 0)
(0.0246293 -0.00252435 0)
(0.00962136 0.117601 0)
(0.0271935 0.0611423 0)
(0.0198496 -0.0687076 0)
(0.025343 0.139925 0)
(0.00709178 0.087735 0)
(0.0259508 0.00605881 0)
(0.0238476 -0.0755788 0)
(0.0226333 -0.121657 0)
(0.0199502 0.174329 0)
(0.0266743 0.0449118 0)
(0.00690426 0.187147 0)
(0.0199599 -0.072416 0)
(0.0263057 0.0390311 0)
(0.0208286 0.147061 0)
(0.0231132 -0.0992417 0)
(0.0194147 0.13602 0)
(0.00160682 0.0120853 0)
(0.0264781 0.0260225 0)
(0.0239561 -0.0716906 0)
(0.0239306 -0.072665 0)
(0.0288975 0.153695 0)
(0.0306678 0.188408 0)
(0.0244195 -0.0537361 0)
(0.0273983 0.0616945 0)
(0.0256419 -0.00639428 0)
(0.00526115 0.0103489 0)
(0.0259019 0.0304163 0)
(0.0209359 0.145174 0)
(0.0136892 0.151932 0)
(0.026889 0.0440525 0)
(0.0261217 0.0429807 0)
(0.00176034 -0.00219832 0)
(0.0270463 0.0791031 0)
(0.0247946 0.00629637 0)
(0.0255202 -0.0111077 0)
(0.00912139 0.0867099 0)
(0.0254546 -0.00442966 0)
(0.0307231 0.192379 0)
(0.0298346 0.169287 0)
(0.0234366 -0.0918461 0)
(0.00165554 0.0253879 0)
(0.0150412 0.14652 0)
(0.000965269 0.0037266 0)
(0.0256951 0.162124 0)
(0.0079744 0.0336564 0)
(0.0233657 -0.0939823 0)
(-0.00773012 0.20617 0)
(0.0237296 0.177243 0)
(0.0299187 0.159797 0)
(0.0246622 0.0686329 0)
(0.0247253 -0.0323945 0)
(0.0274058 0.0620014 0)
(0.0293054 0.201637 0)
(0.0238034 -0.0677992 0)
(0.0241232 -0.0623644 0)
(0.025408 -0.00664815 0)
(0.027262 0.0930333 0)
(0.0268587 0.0475927 0)
(0.0231142 -0.0536311 0)
(0.0235087 -0.080224 0)
(0.0105476 0.205816 0)
(0.0225219 -0.0757077 0)
(0.0255519 0.00499552 0)
(0.00181861 0.00521288 0)
(0.0272792 0.0591131 0)
(0.0242474 0.0334875 0)
(0.0149644 -0.00222048 0)
(0.0254713 0.162529 0)
(0.0222552 0.059591 0)
(0.0255649 -0.0093765 0)
(0.0262426 0.017163 0)
(0.0162425 0.106833 0)
(0.00337857 0.00456099 0)
(0.0237159 -0.0804411 0)
(0.0274054 0.0619321 0)
(0.000437391 0.00353089 0)
(0.0234327 -0.092001 0)
(0.0208118 -0.00449926 0)
(0.0288575 0.133049 0)
(0.0164369 0.111873 0)
(0.0267181 0.0353021 0)
(0.0258371 0.00264344 0)
(0.0248833 0.144664 0)
(0.0210086 0.104571 0)
(0.0229073 -0.11227 0)
(0.0287105 0.123185 0)
(0.0300524 0.164513 0)
(0.000490355 0.00401703 0)
(0.0264351 0.0243383 0)
(0.00783525 0.206236 0)
(0.0283359 0.0996438 0)
(0.0151388 0.000539812 0)
(0.0294895 0.142877 0)
(0.0272845 0.0575438 0)
(0.0244867 -0.00969724 0)
(0.0121575 0.0792559 0)
(0.0184437 0.145808 0)
(0.0215625 -0.119295 0)
(0.0269227 0.0460916 0)
(0.00220444 -0.00316732 0)
(0.0116282 0.0779641 0)
(0.00364448 0.0236884 0)
(0.00383364 0.0245745 0)
(0.0269303 0.0435212 0)
(0.0269454 0.0463458 0)
(0.0245011 -0.00733466 0)
(0.0286319 0.118443 0)
(0.00117568 0.00703886 0)
(0.00775661 0.0393792 0)
(0.0266 0.0425606 0)
(0.0267849 0.038024 0)
(0.0259262 0.085884 0)
(0.0190187 0.0714475 0)
(0.00873383 0.128835 0)
(0.00259361 0.125036 0)
(0.0282919 0.0977722 0)
(0.0294457 0.141477 0)
(0.00433579 0.0429561 0)
(0.00394824 0.12499 0)
(0.0231483 -0.0975976 0)
(0.023185 -0.0503285 0)
(0.0243873 0.00668925 0)
(0.0146332 0.146816 0)
(0.0217179 0.141002 0)
(0.0241306 0.150705 0)
(0.0254718 0.0024873 0)
(0.0293486 0.197878 0)
(0.0287036 0.120773 0)
(0.0271537 0.0590069 0)
(0.0261567 0.0252119 0)
(0.0267236 0.0372685 0)
(0.028075 0.125033 0)
(0.0115986 0.115304 0)
(0.0263583 0.0213599 0)
(0.00232249 0.123355 0)
(0.020318 0.163466 0)
(0.0215968 -0.019567 0)
(0.0272283 0.0571816 0)
(0.0274012 0.189934 0)
(0.00242676 0.0118305 0)
(0.0297784 0.167583 0)
(0.0280041 0.103372 0)
(0.0309469 0.200252 0)
(0.026219 0.027803 0)
(0.019093 0.194575 0)
(0.0248726 0.00652542 0)
(0.00354955 0.0591326 0)
(0.0272656 0.0569644 0)
(0.0297062 0.167577 0)
(0.0244851 -0.0510861 0)
(0.0191409 0.134871 0)
(0.0253334 0.0744382 0)
(0.0286046 0.116569 0)
(0.025513 -0.0113743 0)
(0.0269546 0.0444668 0)
(0.0258915 0.0238431 0)
(0.0289765 0.153091 0)
(0.02043 0.171625 0)
(0.0235934 0.113958 0)
(0.0145593 0.148444 0)
(0.0239948 0.196047 0)
(0.0177491 0.203297 0)
(0.00242488 0.163995 0)
(0.0254317 0.013784 0)
(0.0142066 0.204646 0)
(0.0245255 -0.0495074 0)
(0.0300214 0.163321 0)
(0.0225337 0.145731 0)
(0.0246593 -0.0343108 0)
(0.0258017 0.00143731 0)
(0.0229832 0.172503 0)
(0.00974506 0.171405 0)
(0.0250451 0.205767 0)
(0.0266699 0.0339454 0)
(0.0257985 6.51572e-05 0)
(0.0284905 0.112656 0)
(0.0058579 0.00958751 0)
(0.0239112 -0.0734611 0)
(0.0216828 -0.115572 0)
(0.00182216 0.00888987 0)
(0.0259036 0.112543 0)
(0.0248052 -0.0214778 0)
(0.012243 0.197161 0)
(0.027932 0.105158 0)
(0.0231648 -0.102005 0)
(0.0268047 0.0459384 0)
(0.0228819 -0.0524818 0)
(0.0272211 0.055236 0)
(0.0227516 0.0721008 0)
(0.0256714 -0.00525511 0)
(0.00244013 0.0322427 0)
(0.00459928 0.0458763 0)
(0.0252318 -0.0212495 0)
(0.0266264 0.0322215 0)
(0.0169725 0.205641 0)
(0.022727 0.0684456 0)
(0.0196801 0.146445 0)
(0.00413321 0.123243 0)
(0.0212425 -0.0991673 0)
(0.0129218 0.20612 0)
(0.0226129 -0.105301 0)
(0.0237652 0.112861 0)
(0.0237926 -0.0672612 0)
(0.0255931 0.0170447 0)
(0.0165581 0.11403 0)
(0.0302203 0.186322 0)
(0.0225101 -0.107741 0)
(0.0226392 -0.116051 0)
(0.0130221 0.114922 0)
(0.0266811 0.041175 0)
(0.0222522 0.0640279 0)
(0.0306004 0.187397 0)
(0.0280294 0.140948 0)
(0.0274438 0.188624 0)
(0.0254285 0.0770546 0)
(0.00436915 0.0247093 0)
(0.0149064 0.0158594 0)
(0.0200923 0.0876896 0)
(0.0280043 0.193974 0)
(0.00697742 0.192997 0)
(0.0279194 0.0872831 0)
(0.0297992 0.205315 0)
(0.0252573 0.00385493 0)
(0.00677767 0.0379677 0)
(0.0269613 0.0525225 0)
(0.0184634 0.205618 0)
(0.0241696 -0.0611911 0)
(0.0179162 -0.00641632 0)
(0.00893197 0.191771 0)
(0.0114662 0.0785977 0)
(0.0216049 -0.0590679 0)
(0.0243147 0.0872922 0)
(0.0272424 0.0558849 0)
(0.00250733 0.0382198 0)
(0.0302965 0.183875 0)
(0.0219176 -0.0492742 0)
(0.0241116 -0.0586048 0)
(0.0283111 0.134274 0)
(0.0266248 0.0316954 0)
(0.0277428 0.186214 0)
(0.0182008 0.144857 0)
(0.0256176 -0.00733376 0)
(0.0269883 0.0457697 0)
(0.0164621 0.137863 0)
(0.021421 -0.0225046 0)
(0.0260532 0.0110401 0)
(0.0284814 0.11354 0)
(0.0259788 0.0159202 0)
(0.00062927 0.00504341 0)
(0.021144 0.102886 0)
(0.0296149 0.169726 0)
(0.0207911 -0.047277 0)
(0.0264408 0.044881 0)
(0.0237743 -0.0527079 0)
(0.0150972 0.0140963 0)
(0.0243326 -0.027392 0)
(0.0243633 -0.0555615 0)
(0.017576 -0.0137744 0)
(0.0190846 -0.0499647 0)
(0.00378597 0.0253183 0)
(0.0243245 -0.057441 0)
(0.00119013 0.0194809 0)
(0.0196522 0.173559 0)
(0.0283589 0.0988843 0)
(0.0190162 0.16627 0)
(0.0265756 0.0303132 0)
(0.025004 0.113117 0)
(0.0125125 0.198178 0)
(0.00396732 0.0261724 0)
(0.0265597 0.181469 0)
(0.00957151 0.103366 0)
(0.0273361 0.0991725 0)
(0.00290359 0.0164982 0)
(0.0283197 0.177433 0)
(0.0208578 -0.00110424 0)
(0.0306961 0.192887 0)
(0.0285689 0.205209 0)
(0.0268321 0.0398553 0)
(0.000976548 0.0040837 0)
(0.00299271 0.0498602 0)
(0.0279879 0.124626 0)
(0.0273406 0.130333 0)
(0.0247777 -0.0398774 0)
(0.026473 0.0259815 0)
(0.0263333 0.0529248 0)
(0.00783154 0.132234 0)
(0.0275206 0.0706807 0)
(0.0156115 0.205766 0)
(0.0226844 -0.114115 0)
(0.0279254 0.0881933 0)
(0.0258296 0.0336869 0)
(0.0228659 -0.113411 0)
(0.0266101 0.149783 0)
(0.0210372 -0.0993773 0)
(0.0273203 0.0682261 0)
(0.0279414 0.199944 0)
(0.0263342 0.0550346 0)
(0.0185381 0.205785 0)
(0.0264533 0.0616061 0)
(0.020162 -0.0404967 0)
(0.0248394 -0.0214694 0)
(0.0227155 0.170224 0)
(0.0164075 0.00266477 0)
(0.0216479 -0.0561289 0)
(0.0271648 0.137335 0)
(0.0245909 0.148358 0)
(0.00921798 0.10784 0)
(0.00127028 0.00740721 0)
(0.0254234 0.0101825 0)
(0.0219788 0.0164989 0)
(0.0265142 0.0469672 0)
(0.0077677 0.129869 0)
(0.00679039 0.118636 0)
(0.00094884 0.0160369 0)
(0.0214338 0.144645 0)
(0.010551 -0.00866818 0)
(0.024032 0.141204 0)
(0.00391459 0.0269229 0)
(0.0267529 0.0366518 0)
(0.0223091 -0.0943673 0)
(-0.0104104 0.205859 0)
(0.00777949 0.0356607 0)
(0.00197217 0.0212653 0)
(0.0175235 0.199773 0)
(0.0272822 0.0911956 0)
(0.00448821 0.177842 0)
(0.028077 0.0891294 0)
(0.0283655 0.158176 0)
(0.0290886 0.129668 0)
(0.0218551 -0.0524418 0)
(0.0267507 0.0461729 0)
(0.021027 0.0340357 0)
(0.00127255 0.0166599 0)
(0.00350015 0.0220531 0)
(0.0221203 0.1313 0)
(0.0288513 0.117963 0)
(0.00172097 0.0182769 0)
(0.0266631 0.0345549 0)
(0.0241984 0.142353 0)
(0.0303528 0.176187 0)
(0.0255308 0.189469 0)
(0.0284283 0.156225 0)
(0.0240581 -0.0600862 0)
(0.0119611 0.0281642 0)
(7.16332e-05 0.000575937 0)
(0.0224325 -0.0923283 0)
(0.00440032 0.140397 0)
(0.0150724 0.163496 0)
(0.0279465 0.0842497 0)
(0.0199936 0.148985 0)
(0.00193041 0.0698745 0)
(0.0251961 0.0947721 0)
(0.00864337 0.0593261 0)
(0.00287771 0.00593258 0)
(0.0247413 0.142636 0)
(0.000668141 0.193416 0)
(0.0247709 -0.0401405 0)
(0.0261497 0.142397 0)
(0.0174722 -0.0170056 0)
(0.00185749 0.00958607 0)
(0.0255209 -0.0110595 0)
(0.0279616 0.195019 0)
(0.0169055 0.14857 0)
(0.0191652 0.132643 0)
(0.0280419 0.0879095 0)
(0.0259449 0.00690428 0)
(0.0279357 0.0824861 0)
(0.0194162 0.19384 0)
(0.0203535 -0.0372205 0)
(0.00526867 0.0231364 0)
(0.00340613 0.00668783 0)
(0.0226626 -0.0732683 0)
(0.026312 0.141207 0)
(0.024789 -0.0364093 0)
(0.00723092 0.18868 0)
(0.0244374 -0.0530609 0)
(0.0204083 0.121228 0)
(0.0156903 0.177259 0)
(0.0280408 0.0865611 0)
(0.00749168 0.120456 0)
(0.0242532 0.030353 0)
(0.0157007 0.135272 0)
(0.00198944 0.0147197 0)
(0.0270636 0.142012 0)
(0.00334052 0.200903 0)
(0.0216473 0.0705543 0)
(0.0265377 0.0287896 0)
(0.022694 -0.120616 0)
(0.0283078 0.131391 0)
(0.0118709 0.116232 0)
(0.0124536 -0.00130119 0)
(0.0230165 -0.0923044 0)
(0.0267163 0.0367191 0)
(0.00066938 0.00551004 0)
(0.0265813 0.0319294 0)
(0.0122174 0.000465544 0)
(0.0270187 0.136103 0)
(0.0154616 -0.0332517 0)
(0.017047 0.0105081 0)
(0.0269669 0.0475365 0)
(0.0194678 0.0454224 0)
(0.0222613 -0.132474 0)
(0.026755 0.117679 0)
(0.000910738 0.0165486 0)
(0.00952516 0.012753 0)
(0.00369384 0.154306 0)
(0.0142497 0.10574 0)
(0.0191216 -0.0462166 0)
(0.0278716 0.205574 0)
(0.0175767 -0.0041562 0)
(0.0168128 0.0333418 0)
(0.0256866 -0.00449293 0)
(0.0260442 0.00957119 0)
(0.0229517 -0.0532306 0)
(0.0272459 0.132197 0)
(0.0261232 0.0328653 0)
(0.0237939 0.0477411 0)
(0.0160635 0.0594745 0)
(0.00553689 0.193184 0)
(0.0264445 0.0247057 0)
(0.0284648 0.176397 0)
(0.00498605 0.0874387 0)
(0.0207978 0.10417 0)
(0.0264366 0.0245917 0)
(0.0254447 0.0415114 0)
(0.0280686 0.0876948 0)
(0.00115603 0.0203052 0)
(0.00470907 0.17894 0)
(0.0243951 -0.054712 0)
(0.0249969 0.0299387 0)
(0.0217751 0.0651303 0)
(0.0292522 0.1335 0)
(0.0157429 0.205978 0)
(0.014173 0.103598 0)
(0.027295 0.0681894 0)
(0.00373588 0.023215 0)
(0.0192872 0.0464598 0)
(0.00821937 0.0373983 0)
(0.0269113 0.042794 0)
(0.0101506 -0.00904658 0)
(0.0164783 -0.0434805 0)
(0.016089 0.0568982 0)
(0.0222606 -0.133226 0)
(0.0199712 -0.0627764 0)
(0.0288262 0.130632 0)
(-0.00362686 0.202978 0)
(0.0168444 0.0007097 0)
(0.00739627 0.197248 0)
(0.00419836 0.0404162 0)
(0.0280575 0.0872436 0)
(0.00994686 0.0761493 0)
(0.0176445 -0.00721491 0)
(0.00223143 0.0694433 0)
(0.0230882 -0.0906781 0)
(0.00219392 0.0724964 0)
(0.0267343 0.0428203 0)
(0.0224502 -0.130067 0)
(0.0242736 -0.058861 0)
(0.00911299 0.19108 0)
(0.0242921 -0.0559746 0)
(0.0284403 0.102042 0)
(0.0134023 0.142817 0)
(0.0239373 -0.0724509 0)
(0.0291424 0.130424 0)
(0.0284104 0.100889 0)
(0.0229935 -0.108972 0)
(0.0256443 -0.00614596 0)
(0.0309246 0.201299 0)
(0.0269375 0.052243 0)
(0.018743 0.144785 0)
(0.0231242 -0.103616 0)
(0.0250219 0.0330291 0)
(0.0238158 -0.0769425 0)
(0.0149935 0.0034843 0)
(0.0176256 0.0892072 0)
(0.0172467 0.147897 0)
(0.00443265 0.0430457 0)
(0.0239128 0.0371302 0)
(0.0157775 0.193454 0)
(0.0244833 -0.0512902 0)
(0.0174336 0.0866941 0)
(0.00448436 0.119587 0)
(0.0302178 0.17094 0)
(0.0291593 0.196314 0)
(0.00329169 0.153997 0)
(-0.0014861 0.199203 0)
(0.0255517 0.0944365 0)
(0.0207162 0.0581506 0)
(0.0290721 0.205003 0)
(-0.00069261 0.199469 0)
(0.0137068 0.181182 0)
(0.0201022 -0.05945 0)
(0.0226933 -0.120651 0)
(0.0280641 0.0874626 0)
(0.00789669 0.206181 0)
(0.0153961 -0.0306395 0)
(0.0287523 0.125697 0)
(0.0279388 0.101504 0)
(0.0291559 0.129802 0)
(0.0264416 0.0248453 0)
(0.0222787 -0.106655 0)
(0.0166385 0.110169 0)
(0.021207 0.0357391 0)
(0.0202682 0.123129 0)
(0.00345109 -0.00528084 0)
(0.021705 0.143077 0)
(0.00461077 0.00882881 0)
(0.0241854 0.148442 0)
(0.0264896 0.151183 0)
(0.029841 0.15682 0)
(0.0255019 -0.00444221 0)
(0.0166832 -0.0405895 0)
(0.0266841 0.0441241 0)
(0.0273224 0.0587566 0)
(0.0269107 0.140834 0)
(0.00999926 0.168236 0)
(0.0258076 2.53335e-05 0)
(0.0183133 0.0698124 0)
(0.0148479 0.1623 0)
(0.0110412 0.19892 0)
(0.0299264 0.160339 0)
(0.00137718 0.0729484 0)
(0.0130087 0.116839 0)
(0.0241437 -0.0642062 0)
(0.0243121 -0.0548138 0)
(0.0256918 -0.00271919 0)
(0.0261034 0.0217487 0)
(0.0240175 -0.066619 0)
(0.0135766 0.106422 0)
(0.027034 0.0541048 0)
(0.0103702 0.169333 0)
(0.00963075 0.0837755 0)
(0.00934584 0.170281 0)
(0.0234108 -0.0923399 0)
(0.0279135 0.081627 0)
(0.0167978 0.0243869 0)
(0.00989257 0.0118924 0)
(0.0159229 0.136898 0)
(0.0260036 0.00902894 0)
(0.0212396 0.144008 0)
(0.0252639 0.0676263 0)
(0.0042612 0.137798 0)
(0.0196705 0.14162 0)
(0.0270701 0.0559921 0)
(0.0169489 -0.00209786 0)
(0.0273456 0.0967977 0)
(0.0296066 0.186262 0)
(0.0238557 -0.0755608 0)
(0.0194787 0.0855676 0)
(0.0281645 0.180624 0)
(0.0226555 0.147432 0)
(0.0266979 0.0345239 0)
(0.0272898 0.0574839 0)
(0.00910015 0.130975 0)
(0.0279241 0.082051 0)
(0.026164 0.0328566 0)
(0.0142597 0.206002 0)
(0.0019177 0.0735861 0)
(0.0224476 -0.129598 0)
(0.000666167 0.0348029 0)
(0.0247147 0.0753944 0)
(0.0269373 0.149285 0)
(0.026161 0.0242773 0)
(0.0237594 -0.0788409 0)
(0.0228043 -0.110628 0)
(0.022557 -0.113157 0)
(0.0267634 0.0375438 0)
(0.00406047 0.0220324 0)
(0.0264341 0.0273679 0)
(0.0169008 0.00699159 0)
(0.0227467 0.168713 0)
(0.0242278 -0.0609699 0)
(0.0140675 0.152303 0)
(0.000638358 0.0304884 0)
(0.0218377 0.12175 0)
(0.0206832 0.0661896 0)
(0.029808 0.155441 0)
(0.0107484 0.0258876 0)
(0.00745972 0.0791667 0)
(0.0244359 -0.0248818 0)
(0.0272106 0.119746 0)
(0.0252629 0.0105603 0)
(0.01394 0.205781 0)
(0.0222577 -0.117149 0)
(0.0290511 0.125703 0)
(0.0214305 -0.115551 0)
(0.0253805 0.0417948 0)
(0.0208479 -0.10156 0)
(0.025651 -0.00604164 0)
(0.0231126 -0.0498174 0)
(0.0296384 0.151515 0)
(0.023472 -0.0901703 0)
(0.0225836 -0.00674428 0)
(0.0168299 -0.00862016 0)
(0.0224632 -0.129464 0)
(0.0227645 -0.111505 0)
(0.00689436 0.170051 0)
(0.0268091 0.0501412 0)
(0.0259747 0.0838512 0)
(0.0191587 -0.0206421 0)
(0.0239631 0.0348498 0)
(0.0208554 0.0662894 0)
(0.0269352 0.146563 0)
(0.000160954 0.00134493 0)
(0.0257277 0.0304355 0)
(0.0179379 0.203839 0)
(0.0119445 0.076465 0)
(0.0271503 0.0853115 0)
(0.0175551 0.034818 0)
(0.0262952 0.191195 0)
(0.00342477 0.0192711 0)
(0.00503988 0.190941 0)
(0.0259967 0.0334572 0)
(0.0221478 0.0176863 0)
(0.0197477 0.024108 0)
(0.0169129 0.0278449 0)
(0.0267413 0.205413 0)
(0.0282961 0.142848 0)
(0.0264545 0.0256507 0)
(0.00949267 0.135102 0)
(0.0195909 0.119224 0)
(0.0253665 0.00696897 0)
(0.015381 0.135697 0)
(0.0274533 0.0823479 0)
(0.0283649 0.144856 0)
(0.0192277 -0.0174345 0)
(0.0267163 0.0485799 0)
(0.0173025 0.0330152 0)
(0.0288173 0.11829 0)
(0.00706471 0.168675 0)
(0.0227126 -0.0557312 0)
(0.0249567 -0.0329523 0)
(0.0263191 0.0230322 0)
(0.0135393 0.110605 0)
(0.0207108 0.159479 0)
(0.0224746 -0.129128 0)
(0.00955571 0.0819791 0)
(0.0114855 0.0817528 0)
(0.0291293 0.12879 0)
(0.0269229 0.0432494 0)
(0.00720175 0.186246 0)
(0.0223104 -0.119753 0)
(0.00547519 0.0466794 0)
(0.0196361 0.0203758 0)
(0.0234659 -0.0901769 0)
(0.0220532 0.126767 0)
(0.012071 0.0306111 0)
(0.0256613 -0.00315845 0)
(0.0175803 0.0271329 0)
(0.0253478 -0.0162616 0)
(0.00378196 0.0448393 0)
(0.0117562 0.0314664 0)
(0.01678 0.150498 0)
(0.0223621 -0.114979 0)
(0.0234066 -0.0929949 0)
(0.0117948 0.158815 0)
(0.0158337 0.157904 0)
(0.0133362 0.105616 0)
(0.0201614 0.176742 0)
(0.00178488 0.0131074 0)
(0.0190598 0.205695 0)
(0.0269784 0.0788226 0)
(0.000578299 0.00479286 0)
(0.0258582 0.00250854 0)
(0.0257325 0.188178 0)
(0.0264712 0.0285416 0)
(0.0243831 -0.0551368 0)
(0.023268 0.205828 0)
(0.0164961 0.0231266 0)
(0.0100933 0.166658 0)
(0.0160636 0.140577 0)
(0.0288976 0.202631 0)
(0.0195146 0.180507 0)
(0.0234841 -0.0899929 0)
(0.0282517 0.0947352 0)
(0.0126293 0.182659 0)
(0.0241826 -0.0627402 0)
(0.0142825 0.206066 0)
(0.0255778 0.0237322 0)
(0.0222962 -0.118884 0)
(0.027512 0.185714 0)
(0.0136101 0.205672 0)
(0.0238152 -0.0766521 0)
(0.0266108 0.191105 0)
(0.029657 0.157481 0)
(0.0249042 -0.034951 0)
(0.02305 -0.0741199 0)
(0.0203536 0.173451 0)
(0.0255762 -0.00893494 0)
(0.0164505 0.201184 0)
(0.0152007 0.00598561 0)
(0.0225434 0.0429173 0)
(0.0296448 0.151131 0)
(0.0256918 0.172998 0)
(0.0161507 0.104255 0)
(0.0268061 0.181085 0)
(0.0274909 0.0821168 0)
(0.0266024 0.147165 0)
(0.0252589 -0.021236 0)
(0.0216882 0.15253 0)
(0.0267701 0.0379145 0)
(0.0215573 -0.0876374 0)
(0.0223735 -0.124455 0)
(0.0269376 0.0538182 0)
(0.0288584 0.13008 0)
(0.025418 0.0932796 0)
(0.0171015 0.0350584 0)
(0.0199531 0.144659 0)
(0.0242629 -0.0593795 0)
(0.0106293 0.103731 0)
(0.0137277 0.182307 0)
(0.00223495 0.00676202 0)
(0.021914 0.139435 0)
(0.0178718 0.0817278 0)
(0.0214855 0.191002 0)
(0.0234391 -0.082066 0)
(0.0186683 0.205889 0)
(0.0213582 0.196481 0)
(-0.00295296 0.202659 0)
(0.0226844 -0.119595 0)
(0.0293632 0.196666 0)
(0.0180366 0.0734255 0)
(0.0259007 0.00507145 0)
(0.0231196 -0.103404 0)
(0.0142552 0.0432642 0)
(0.0116668 0.0812754 0)
(0.025635 0.085848 0)
(0.0288866 0.119334 0)
(0.00090156 0.0296318 0)
(0.0267319 0.0584209 0)
(0.029854 0.193574 0)
(0.0271579 0.164272 0)
(0.00867224 0.153718 0)
(0.0203493 -0.0268866 0)
(0.0177564 0.0218817 0)
(0.0268735 0.0530455 0)
(0.0256504 0.176029 0)
(0.00408736 0.0277393 0)
(0.0307092 0.194609 0)
(0.022955 -0.110028 0)
(0.0251856 0.185462 0)
(0.0266259 0.0334996 0)
(0.0229949 -0.0768723 0)
(0.0301306 0.175495 0)
(0.0190843 0.164524 0)
(0.0239381 0.0489115 0)
(0.0234318 -0.0910564 0)
(0.02643 0.0257783 0)
(0.0223908 -0.104599 0)
(0.02776 0.20521 0)
(0.0250607 0.135725 0)
(0.000922975 0.0119204 0)
(0.0188415 0.0228554 0)
(0.0195042 0.12452 0)
(0.00840494 0.143505 0)
(0.00914587 0.175559 0)
(0.026976 0.177756 0)
(0.0133002 0.112889 0)
(0.0243146 -0.0482494 0)
(0.00889977 0.0619389 0)
(0.0253317 0.0958952 0)
(0.0165758 0.00609696 0)
(0.0283711 0.153617 0)
(0.0237023 -0.0698225 0)
(0.0296202 0.157285 0)
(0.0132277 0.140852 0)
(0.0288195 0.12766 0)
(0.0189436 0.0267786 0)
(0.0237842 -0.077467 0)
(0.00811456 0.12383 0)
(0.00327827 0.189664 0)
(0.00525144 0.0888272 0)
(0.0248517 -0.0334923 0)
(0.0266532 0.0327913 0)
(0.0226849 -0.106266 0)
(0.0135696 0.112706 0)
(0.0255751 -0.00144233 0)
(0.017132 0.132321 0)
(0.0253837 0.137174 0)
(0.0266369 0.0321671 0)
(0.0191415 0.0515694 0)
(0.00882693 0.170639 0)
(0.0271087 0.119284 0)
(0.0258575 0.109389 0)
(0.0241001 -0.065916 0)
(0.0133151 0.114867 0)
(0.0222627 0.179862 0)
(0.0192689 -0.0505328 0)
(0.00900839 0.104758 0)
(0.0158467 0.19418 0)
(0.0193789 0.14638 0)
(0.00676364 0.0266003 0)
(0.0131882 0.180768 0)
(0.0262874 0.0186137 0)
(0.0236841 0.122466 0)
(0.0247888 -0.036759 0)
(0.0258473 0.00198971 0)