/*--------------------------------*- C++ -*----------------------------------*\
| =========                 |                                                 |
| \\      /  F ield         | OpenFOAM: The Open Source CFD Toolbox           |
|  \\    /   O peration     | Version:  v2012                                 |
|   \\  /    A nd           | Website:  www.openfoam.com                      |
|    \\/     M anipulation  |                                                 |
\*---------------------------------------------------------------------------*/
FoamFile
{
    version     2.0;
    format      ascii;
    class       surfaceVectorField;
    location    "250";
    object      ddtCorrDdt0(Uf);
}
// * * * * * * * * * * * * * * * * * * * * * * * * * * * * * * * * * * * * * //

dimensions      [0 1 -2 0 0 0 0];


internalField   nonuniform List<vector> 
20580
(
(0.013867 0.0238797 -5.21953e-19)
(0.0132512 0.0245207 8.02414e-18)
(0.0133574 0.0236391 -4.4307e-18)
(0.00030686 -0.00433536 -1.41522e-18)
(0.000276445 -0.00449945 1.19627e-19)
(0.000469011 -0.00443501 -9.91226e-19)
(0.000325599 -0.00412996 7.66354e-19)
(0.000181562 -0.00423057 6.49933e-20)
(-0.0732351 0.109145 -2.81183e-18)
(-0.0189497 0.139987 1.29627e-17)
(-0.0275386 0.138258 -5.82492e-18)
(-0.000240084 8.80189e-05 1.68107e-18)
(-0.000203096 8.14601e-05 -3.1198e-18)
(-0.000195185 4.7914e-05 -5.66993e-19)
(0.000358828 -0.00705589 -2.38603e-18)
(7.98116e-05 -0.00735767 -2.51433e-19)
(-3.71276e-06 -0.00693264 1.49375e-18)
(-0.00140833 -0.00111398 -4.23001e-19)
(-0.00158458 -0.00109599 6.97862e-19)
(-0.00044707 -0.000102686 -1.87993e-18)
(-0.000487518 -9.51158e-05 1.1968e-18)
(-0.000544513 -5.6993e-05 -1.52216e-18)
(0.00145516 0.0103843 -3.60836e-18)
(0.00162126 0.0104001 3.18968e-18)
(0.000776181 0.0102783 -1.52998e-18)
(-0.000676818 0.0036428 -1.53377e-18)
(-0.000618471 0.00366499 4.04327e-19)
(-0.000662843 0.00361839 2.566e-18)
(-0.0110065 -0.0424069 -8.59837e-18)
(-0.0112101 -0.0394881 3.74633e-17)
(-0.0136186 -0.0413408 2.55232e-18)
(-0.000537099 0.00183515 -1.34713e-18)
(-0.000583241 0.00183861 -2.85261e-18)
(-0.000586325 0.00189742 -6.31795e-19)
(-0.00162056 0.00400952 4.57406e-18)
(-0.00171523 0.00397591 1.29454e-17)
(-0.00169101 0.0039207 6.72033e-18)
(-0.00503753 0.000336276 -1.01948e-17)
(-0.00165201 -0.00138676 -3.99769e-18)
(-0.0112716 0.0017969 -1.94639e-17)
(0.00525617 0.00311146 2.92377e-19)
(0.00580079 0.00324012 1.59604e-19)
(0.00556165 0.0026112 -2.04446e-19)
(-0.00124586 0.0289348 4.58309e-19)
(-0.00198355 0.0293993 3.37847e-18)
(-0.000796541 0.0296953 2.26571e-18)
(0.142619 -0.0155246 8.94613e-17)
(0.159779 -0.0116269 8.35551e-17)
(0.144422 -0.0141064 5.2056e-17)
(-0.000975566 -0.00242143 -1.09546e-19)
(-0.000938974 -0.00245983 1.45562e-18)
(-0.00101517 -0.00249543 -1.85861e-18)
(0.0770669 0.0424917 -1.69381e-18)
(0.0835176 0.0394784 2.95019e-18)
(0.0840165 0.047632 -9.20924e-19)
(0.0160308 0.0232681 -3.18189e-18)
(0.0138611 0.0217189 3.12905e-18)
(0.00988401 0.00139534 -7.82249e-21)
(0.00962171 0.000670625 1.51456e-18)
(0.0090587 0.00139338 -4.52337e-19)
(-0.00933 -0.00421639 3.35174e-19)
(-0.00932729 -0.00375902 5.42658e-20)
(-0.00889526 -0.00400138 2.46091e-19)
(0.101401 -0.0636267 2.8707e-17)
(0.0928048 -0.0595525 -6.35192e-18)
(0.0940547 -0.0653942 4.66394e-20)
(1.65932e-06 -7.2208e-06 -1.59492e-20)
(2.52477e-06 -7.97608e-06 2.96816e-18)
(2.02949e-06 -6.40749e-06 -6.03589e-19)
(-0.137773 -0.147721 7.4869e-18)
(-0.129012 -0.140148 -3.48588e-17)
(-0.126848 -0.139122 -4.0367e-17)
(-0.0051873 0.0168728 -1.59054e-19)
(-0.00546674 0.0175172 -4.42578e-19)
(-0.00468826 0.0173952 6.91261e-19)
(0.00621871 0.0222328 -3.30001e-18)
(0.00619385 0.0219881 -6.58448e-19)
(0.00645451 0.0221857 1.21686e-18)
(0.0200309 0.0781784 -2.69599e-18)
(0.0160906 0.074244 5.07726e-18)
(0.0157012 0.0803828 -6.21314e-18)
(0.000864721 0.0250542 3.96042e-18)
(0.00743332 0.023598 -1.06456e-18)
(0.00719044 0.0230477 1.86847e-18)
(-0.000784715 -0.00132872 1.14221e-18)
(-0.000835347 -0.00132404 -4.64059e-20)
(-0.000790905 -0.00127927 -5.45821e-19)
(0.0810175 -0.106358 -1.40259e-17)
(0.0944758 -0.103553 1.05097e-17)
(0.079198 -0.0983051 -9.70757e-18)
(-0.00138127 -0.000961378 5.71167e-19)
(-0.00127577 -0.00111087 5.23508e-20)
(0.0108569 0.0221235 -1.01239e-18)
(0.0103824 0.0219327 1.94336e-18)
(0.0111301 0.0214528 9.91801e-18)
(-0.0164903 0.023413 -2.90824e-17)
(-0.0176832 0.0250161 -1.58712e-18)
(-0.0159167 0.0254801 -8.15148e-18)
(-0.0057852 -0.0243143 -4.5803e-18)
(-0.00442285 -0.0245441 -1.24801e-17)
(-0.00581044 -0.0257735 -7.5838e-18)
(0.0117516 0.0273431 -1.04539e-18)
(0.00257816 0.030301 9.7909e-19)
(0.0130526 0.0299063 -2.14748e-18)
(3.3242e-07 -4.54762e-06 -1.36474e-18)
(1.71415e-06 -8.59609e-06 -7.82934e-18)
(-0.0305606 -0.0913253 2.34073e-17)
(-0.0255906 -0.0896635 2.25228e-17)
(-0.026621 -0.0905323 2.46956e-17)
(-0.0491353 -0.0622859 2.21156e-17)
(-0.0568551 -0.0666881 -6.17615e-17)
(-0.0570906 -0.0695515 -2.83965e-17)
(-0.00327053 2.0868e-06 -2.48153e-18)
(-0.00319285 -3.51252e-05 -4.20344e-18)
(-0.00330178 -0.000176657 5.67051e-18)
(-0.0706 0.104359 -6.50141e-18)
(-0.0518824 0.106468 -2.29002e-17)
(-0.0635374 0.0973708 -1.25471e-17)
(-0.00236218 0.0251346 2.76432e-18)
(-0.00255408 0.026186 2.33103e-18)
(0.35006 -0.0459897 1.04721e-17)
(0.328153 -0.0445096 -4.80715e-18)
(-0.0283853 0.0353652 6.06189e-19)
(-0.0289275 0.0350511 8.65528e-18)
(-0.028682 0.0368891 -8.5107e-18)
(0.00523478 0.0204112 4.94185e-18)
(0.00499315 0.0196311 7.40211e-18)
(0.000785341 0.0208466 9.23369e-18)
(-0.00194629 -0.000858662 -4.22003e-18)
(-0.00195337 -0.000716574 -3.21219e-18)
(-0.00191312 -0.000754831 -2.03072e-18)
(0.000591445 -9.57926e-05 -1.75361e-18)
(0.000637307 -8.23615e-05 -3.48485e-18)
(0.00243579 0.0242291 -1.86953e-19)
(0.00254888 0.0247285 1.85323e-18)
(0.00199609 0.0244176 4.11123e-18)
(-0.00454429 -0.00467678 6.55726e-19)
(-0.0043655 -0.00439542 9.9083e-19)
(-0.00425009 -0.00466425 -3.01833e-19)
(-0.00154118 0.00402111 -4.48535e-18)
(-0.00153663 0.00406836 -1.06616e-17)
(-0.149807 -0.0148749 9.93063e-19)
(-0.160886 -0.0150047 2.19156e-17)
(-0.147012 -0.00161838 1.79947e-17)
(-0.00101441 0.0045354 -8.12296e-18)
(-0.00102656 0.00450131 -1.25582e-17)
(-0.00113842 0.00448821 1.12769e-17)
(-0.00054296 0.0284371 1.62187e-18)
(-0.00160151 0.028201 1.40961e-18)
(-0.00314476 0.00303072 4.08955e-19)
(-0.00312614 0.00339624 2.48187e-20)
(-0.00350458 0.0031996 1.57142e-18)
(0.0405473 -0.00106679 -8.59182e-18)
(0.0263346 0.00160958 -6.55456e-19)
(0.0379632 -0.00136846 9.50402e-18)
(-0.00334691 1.02573e-06 -1.14152e-18)
(-0.00324751 0.00013929 -5.04495e-18)
(0.010602 0.0232346 -1.00736e-17)
(0.011705 0.0225181 -4.21915e-18)
(-0.0793288 0.110053 -1.64848e-17)
(-0.0883922 0.0980481 -5.34705e-19)
(0.00829842 0.0256807 8.07204e-18)
(0.00896834 0.0258103 1.31943e-18)
(0.00888588 0.0251378 6.7183e-18)
(-0.0878525 0.00894171 7.76484e-18)
(-0.0802997 0.00883061 -2.11114e-18)
(-0.0818326 0.0137265 1.05329e-17)
(-0.000491027 0.00181697 4.9355e-18)
(-0.000490241 0.00176422 3.69884e-19)
(0.00626637 0.0224221 -2.41748e-18)
(0.00605808 0.0222833 -8.73415e-18)
(-0.000160746 0.00344668 2.47702e-18)
(-0.000201335 0.00343172 1.81871e-18)
(-0.000200122 0.00357129 -6.70017e-18)
(-0.00476867 -0.00458276 5.70018e-20)
(-0.00472843 -0.00484678 -3.6478e-19)
(-0.0151989 0.0326971 -5.8975e-18)
(-0.0167736 0.0326193 3.19636e-18)
(-0.0158824 0.0314032 -1.0628e-17)
(-0.0138169 0.0327102 -5.32446e-18)
(-0.0146662 0.0342047 3.24031e-18)
(-0.0929499 0.00714154 1.57733e-17)
(-0.082598 0.00312218 2.04159e-17)
(-0.00242639 0.0197696 -1.47811e-18)
(-0.00280946 0.0202821 9.58323e-18)
(-0.0031945 -0.00199152 8.92348e-19)
(-0.00320222 -0.00187282 9.46959e-19)
(-0.00310749 -0.0019382 -2.06589e-19)
(0.306583 0.252173 5.37275e-18)
(0.273774 0.190867 -2.75799e-17)
(0.359824 0.217333 1.44486e-17)
(0.104361 -0.06271 5.99222e-18)
(0.116084 -0.058613 -5.60252e-17)
(0.10262 -0.0581909 -7.25321e-17)
(0.0127765 0.00270092 6.76276e-19)
(0.0131808 0.00201607 -2.2082e-18)
(0.0137425 0.00280434 -1.62272e-18)
(-0.00230136 0.00257127 2.69128e-18)
(-0.00226138 0.00267212 1.71286e-18)
(-0.00235742 0.00257059 7.58092e-18)
(-0.074996 0.0079701 1.41902e-18)
(-0.0722058 0.00253881 -2.25616e-17)
(-0.00132498 0.00440353 -3.13117e-19)
(-0.0011231 0.00404179 -2.51537e-19)
(-0.000913276 0.00441322 5.46717e-19)
(-0.00684576 -0.00209448 -3.25598e-19)
(-0.00673829 -0.00185433 -4.05647e-19)
(-0.00656086 -0.00207536 -3.94843e-18)
(0.138935 -0.0209166 -3.41313e-18)
(0.124516 -0.0223051 -1.4172e-17)
(-0.000109819 -0.00105947 -9.32227e-19)
(-0.000168062 -0.00107546 -1.43758e-19)
(-0.000119878 -0.00112135 -2.33642e-18)
(-0.145784 -0.156261 5.18598e-19)
(-0.149428 -0.155803 1.7798e-17)
(-0.00167213 0.0013891 -4.44846e-18)
(-0.00161034 0.0014144 -3.53148e-18)
(-0.00163542 0.00148426 1.23513e-19)
(-0.00316949 -0.00210014 5.09665e-19)
(-0.00327662 -0.00204958 -7.06809e-19)
(-0.108843 -0.139885 -1.15669e-17)
(-0.117249 -0.138943 -1.06244e-16)
(-0.121556 -0.129809 3.84616e-18)
(-0.00615391 -0.0230209 2.54153e-18)
(-0.00743402 -0.0240506 1.5309e-18)
(-0.0138575 0.00143017 -8.56927e-18)
(-0.0129499 0.00232068 1.48871e-17)
(-0.0151662 0.00284356 -1.0679e-18)
(-0.0696814 0.00689454 2.1957e-17)
(-0.0691389 0.0121388 4.14998e-17)
(0.103602 -0.0913352 -1.35018e-17)
(0.101218 -0.0834982 3.28071e-17)
(0.0899531 -0.0874014 2.14745e-17)
(-0.00976226 -0.00442387 2.68766e-20)
(-0.00922989 -0.00466745 4.37169e-19)
(0.118404 0.00198706 3.73219e-18)
(0.152021 -0.000585051 -3.11706e-18)
(0.10689 0.00390903 1.63058e-18)
(-0.00100373 0.00344826 2.21618e-18)
(-0.00105302 0.00340127 -7.18316e-20)
(-0.000980672 0.00341076 -2.08797e-18)
(0.0718821 -0.108727 -1.55635e-17)
(0.0850866 -0.115876 -3.15316e-17)
(-0.00099404 0.00458057 -6.24521e-18)
(-0.000894035 0.00456194 5.63396e-18)
(-0.00133896 -0.000842507 6.65834e-21)
(-0.00148991 -0.000805507 -3.18409e-19)
(-0.0407238 -0.000285416 1.11244e-17)
(-0.0485348 0.000197901 3.50747e-17)
(0.107058 -0.0994597 -1.784e-17)
(0.119196 -0.0949511 -2.5696e-17)
(-0.148349 -0.0953511 7.59401e-18)
(-0.133743 -0.0856869 -1.30105e-18)
(-0.143565 -0.0811837 -3.09027e-17)
(-0.0287053 0.0355448 8.97144e-18)
(-0.029593 0.0352997 -3.55696e-18)
(-0.0286957 0.035532 -3.61268e-19)
(-0.00213275 0.000144027 7.08291e-19)
(-0.00212423 0.00026549 2.13362e-18)
(-0.00219451 0.000112633 -4.96887e-18)
(0.00184586 0.0264512 3.46074e-18)
(0.00128708 0.0270165 -2.08357e-18)
(0.00096926 0.026302 1.40714e-18)
(-0.381799 -0.000882181 2.37044e-18)
(-0.370715 0.0210462 1.53084e-17)
(-0.387417 -0.00358826 5.37448e-17)
(-0.0859837 -0.0370939 1.96166e-17)
(-0.0929577 -0.0398777 -1.71133e-17)
(-0.0922244 -0.0322524 3.84413e-17)
(0.00236273 0.0260687 7.39119e-19)
(0.00267196 0.0267505 4.27179e-18)
(-0.00504263 0.0155845 5.65273e-18)
(-0.00452442 0.0154037 -3.01084e-17)
(-0.00496264 0.0149221 1.05406e-17)
(-0.00663494 0.0164386 6.65944e-18)
(-0.00606125 0.0159571 -7.18654e-18)
(-0.00598315 0.0169115 -4.22385e-18)
(-0.0023952 0.00289668 -3.70013e-18)
(-0.00243634 0.00282014 2.95373e-18)
(-0.00249859 0.002805 1.29978e-17)
(-0.00180228 -0.00132294 4.05956e-18)
(-0.00182832 -0.00141474 -1.81369e-18)
(-0.00175996 -0.00141658 3.74528e-19)
(0.0149206 -0.00397846 2.89589e-19)
(0.0147684 -0.00449994 1.53003e-18)
(0.0155914 -0.00427894 3.22172e-18)
(-0.00177049 -0.00122658 -4.72968e-20)
(-0.0018371 -0.00120125 -2.57981e-18)
(0.105491 -0.0664361 6.22139e-18)
(0.0947445 -0.0656847 3.6622e-17)
(-0.00119832 -0.000878833 -4.16091e-20)
(-0.00128282 -0.000716526 -3.04497e-19)
(-0.00096693 -0.00234207 4.70611e-19)
(-0.000881385 -0.00239492 6.10633e-19)
(-0.0142369 -0.00109563 1.64443e-18)
(-0.0150316 -0.00106744 -1.65593e-18)
(-0.0145457 -0.000436023 -1.9732e-18)
(-0.00190593 -0.00102526 1.39876e-18)
(-0.00199319 -0.00101732 2.78557e-18)
(0.0718202 -0.0524892 -1.35719e-17)
(0.0752185 -0.0447141 1.37096e-17)
(0.0799857 -0.055377 -1.77796e-17)
(0.0190983 -0.0306348 -3.48644e-18)
(0.018143 -0.0287701 -1.03971e-17)
(0.0170394 -0.0307402 3.80153e-18)
(0.00742576 0.0209947 -1.94621e-18)
(0.00710022 0.0209371 3.95592e-18)
(0.00710442 0.0213783 2.77319e-18)
(-0.00313903 0.00262845 3.8879e-19)
(-0.00280343 0.00279568 -5.81817e-19)
(-0.000795277 -0.000743919 4.81951e-19)
(-0.000833167 -0.00073678 1.4952e-18)
(-0.000806038 -0.000789225 -4.8807e-19)
(-0.000400853 -0.000100568 6.78407e-19)
(-0.000377171 -0.000148937 -7.87521e-19)
(-0.097762 0.087843 -8.41058e-18)
(-0.102643 0.0678173 -1.93974e-17)
(0.258272 0.294242 2.01662e-17)
(0.265421 0.276376 1.42345e-17)
(-0.0376716 0.0338003 -5.50891e-18)
(-0.0354894 0.0332581 -1.7958e-18)
(-0.0375886 0.0362556 4.04156e-19)
(-0.000868956 -0.00198212 -1.21584e-18)
(-0.000883173 -0.00191597 -6.35504e-19)
(-0.000813243 -0.00192852 -4.57542e-19)
(-0.00330386 -0.00138347 5.38457e-19)
(-0.00333741 -0.00147673 7.04413e-18)
(-0.00340655 -0.00137545 -1.035e-18)
(-0.0409559 0.0155668 4.82848e-18)
(-0.0394399 0.0181579 -6.65665e-18)
(-0.0441456 0.0175953 -5.20221e-18)
(0.0436286 0.0441843 -1.7814e-18)
(0.0472287 0.0455187 2.44994e-18)
(0.0434123 0.0482859 8.99247e-18)
(-0.00268871 0.0246574 2.33789e-17)
(-0.00299651 0.02406 3.04975e-18)
(-0.00338243 0.0248273 -9.87891e-18)
(-0.00213242 -5.33727e-06 5.41562e-19)
(-0.00207839 0.000176638 -5.11598e-19)
(-0.031803 -0.0217302 5.63589e-18)
(-0.0300984 -0.0219305 1.73833e-17)
(-0.0310815 -0.0205197 2.55562e-18)
(-0.0317157 0.0350034 -2.55939e-19)
(-0.0368317 0.0346313 4.02466e-18)
(-0.0343719 0.0382026 1.13662e-17)
(0.00847586 0.00534208 4.35011e-19)
(0.00899223 0.00593143 2.83708e-19)
(0.00904726 0.00495798 3.01654e-19)
(-0.00924035 -0.00334778 5.15518e-20)
(-0.00976418 -0.00351432 9.49736e-19)
(-0.00311514 -0.0137851 5.08229e-18)
(-0.00213923 -0.0137335 -6.83406e-20)
(-0.00277666 -0.0129983 -4.83493e-18)
(-0.0357002 -0.0915131 8.0605e-18)
(-0.0365856 -0.0936619 -2.90921e-17)
(-0.0148867 0.0221714 9.41975e-18)
(-0.0165241 0.0213661 -2.00279e-17)
(-0.0110163 -0.045424 -1.62125e-17)
(-0.00850973 -0.0435945 7.26949e-18)
(-0.104891 -0.0817514 -4.08613e-17)
(-0.105287 -0.0751219 -3.41505e-17)
(-0.094546 -0.0702973 4.18869e-17)
(-0.00230312 0.0191721 -6.31178e-18)
(0.0993069 -0.0781789 -1.04012e-17)
(0.111646 -0.0807181 1.14169e-17)
(-0.00456044 0.0122378 2.16525e-18)
(-0.00434913 0.0126805 8.1237e-18)
(-0.0040815 0.0122411 6.78342e-18)
(0.00737197 0.00629568 -2.75285e-20)
(0.00680364 0.00601338 -2.13815e-20)
(0.00684787 0.00676623 -3.60276e-19)
(-0.116594 -0.128335 2.36065e-17)
(-0.0716889 -0.134934 6.12349e-19)
(-0.0037757 0.00293305 -3.09467e-18)
(-0.00360114 0.0030042 1.43446e-18)
(-0.00370256 0.00280891 -1.14278e-18)
(-0.000972262 0.00348492 4.2358e-18)
(-0.0010397 0.00347656 2.23967e-18)
(-0.00806074 0.0246994 -3.51229e-18)
(-0.00788999 0.0266259 1.18677e-17)
(-0.00918641 0.0257393 -7.21546e-18)
(-0.170421 -0.198867 2.50264e-17)
(-0.177816 -0.196662 -1.97503e-17)
(-0.177783 -0.199104 3.60008e-17)
(-0.00639092 -0.000802985 -1.51806e-18)
(-0.00668158 -0.000736197 3.64859e-18)
(-0.00651217 -0.000493155 -1.00047e-18)
(-6.17441e-05 -0.00104482 2.07819e-18)
(-9.36176e-05 -0.00101549 1.66004e-18)
(0.111303 -0.1084 1.09836e-17)
(0.0189101 0.0126447 -4.38171e-18)
(0.0151279 0.0124262 7.11193e-18)
(0.0272392 0.0105547 -5.29493e-18)
(-0.0344476 -0.0213056 -8.01786e-18)
(-0.0328716 -0.0235903 -7.06381e-18)
(0.00234342 0.0256023 1.25579e-18)
(0.0029032 0.025837 -6.75068e-18)
(0.0693303 -0.0560973 -1.17717e-17)
(0.0683935 -0.0513386 -6.08771e-18)
(0.0199226 -0.0318851 -5.02501e-18)
(0.0206171 -0.0305927 -6.09921e-18)
(0.0670828 0.0392399 -2.26553e-18)
(0.0710718 0.0365945 2.23154e-19)
(0.0678535 0.0342403 1.98731e-18)
(-0.00181852 0.00417504 2.23252e-18)
(-0.00193037 0.00408749 5.74223e-18)
(-0.00193283 0.00415596 8.33328e-18)
(-0.00080086 0.00410255 4.7797e-18)
(-0.000727682 0.00414757 -1.90147e-18)
(-0.000718287 0.00408044 -1.21136e-18)
(-0.000385479 0.00143717 -6.00622e-19)
(-0.000389882 0.00148499 7.59274e-19)
(-0.000335811 0.00136536 -7.41069e-18)
(-0.0419728 -0.0584563 4.17524e-17)
(-0.041287 -0.0551776 5.2873e-17)
(0.00688481 0.00489914 3.28044e-20)
(0.00672179 0.00552272 -1.69387e-20)
(0.00648133 0.00501775 -2.66739e-19)
(-0.000303397 -0.00098202 7.17133e-19)
(-0.000344831 -0.00090398 4.00445e-19)
(-0.000262856 -0.000959357 -3.97185e-19)
(2.739e-06 -1.15438e-05 2.13131e-18)
(3.12269e-06 -1.08172e-05 -4.79427e-19)
(3.48347e-06 -5.72813e-06 1.89173e-18)
(0.00950655 0.0255777 -5.85353e-19)
(0.00855879 0.0243588 -6.06401e-18)
(0.00163674 0.0270929 -6.4897e-18)
(0.0141111 -0.00265805 2.3121e-18)
(0.0132211 -0.00438854 -3.58213e-18)
(0.00244468 0.0236538 -3.09902e-18)
(0.00285966 0.0239536 2.49339e-18)
(-0.00742469 0.00333755 5.28874e-18)
(0.00346539 -0.000924602 4.75514e-18)
(0.00696034 0.0105115 3.03235e-18)
(0.00420333 0.010741 -9.39686e-19)
(0.00710533 0.0105786 3.06842e-19)
(0.00656277 0.010463 -5.55345e-18)
(0.00888423 0.0105107 -8.75594e-19)
(-0.137561 -0.0123642 -3.16468e-17)
(-0.147085 -0.0258985 -2.94518e-17)
(-0.0138183 -0.00167649 2.15063e-19)
(-0.0134599 -0.0010466 5.69985e-18)
(0.0764949 0.174101 2.26058e-18)
(0.0809564 0.173216 -8.50874e-18)
(0.061224 0.175659 1.18635e-17)
(-0.000446538 0.00177632 1.49636e-18)
(-0.000403894 0.00172324 -4.16323e-20)
(-0.00039782 0.001672 3.84318e-18)
(-0.000749977 -0.000756867 -3.01807e-18)
(-0.000780173 -0.000704479 -4.24482e-18)
(0.021777 -0.00708387 -3.52145e-20)
(0.0219481 -0.00857933 1.99016e-18)
(0.0204924 -0.00795924 -7.19135e-18)
(-7.74468e-05 4.96706e-05 4.54637e-19)
(-6.47037e-05 6.37051e-05 -5.78351e-19)
(-5.1112e-05 3.79596e-05 2.56709e-18)
(-0.156895 -0.10237 1.98332e-17)
(-0.150076 -0.103582 -3.36689e-17)
(0.00364734 0.0241517 -2.12959e-18)
(0.00416774 0.02408 1.04568e-18)
(0.00384699 0.0236941 -2.81732e-18)
(0.00464249 0.0234903 -2.25692e-18)
(0.00483851 0.0232362 -2.92278e-18)
(0.00509157 0.0236496 -1.15038e-18)
(-0.000710073 -0.000762471 -9.09217e-19)
(-0.000724676 -0.000801216 3.88098e-18)
(-0.00206607 0.00433258 2.0326e-19)
(-0.00171801 0.00443348 -5.713e-19)
(-0.00185424 0.00405455 -1.17382e-19)
(0.00438119 0.0238557 -5.69872e-19)
(0.00411423 0.023377 -7.27066e-18)
(0.0395048 0.0446482 -9.18884e-18)
(0.0418022 0.0406856 -6.68401e-18)
(-0.0283982 0.0356238 -1.7446e-18)
(-0.0135396 -0.00224966 -4.30965e-18)
(-0.0128978 -0.00216556 3.46118e-18)
(-0.0131323 -0.00271415 4.77315e-19)
(0.00785219 0.00586705 1.20439e-19)
(0.00790181 0.00496904 3.16759e-20)
(0.153289 -0.0098975 3.46352e-17)
(0.158753 -0.0128549 1.54551e-17)
(0.0141541 0.0140096 -1.67158e-18)
(0.0226364 0.012707 -4.08819e-18)
(0.00993789 0.0216415 9.4667e-19)
(0.00974687 0.022358 -4.00535e-18)
(-0.00401759 0.00897446 -6.25189e-18)
(-0.00370119 0.00906399 -3.63081e-18)
(-0.00406172 0.00935202 -2.20183e-17)
(-0.00203879 0.00388632 4.27092e-18)
(-0.00192808 0.00397379 -7.24669e-18)
(-0.00193965 0.00392736 -1.43068e-17)
(-0.00127149 -0.00136218 1.68723e-18)
(-0.00132128 -0.00138542 -4.26883e-19)
(-0.00126506 -0.00142643 1.01568e-18)
(-0.160016 -0.192378 3.11627e-18)
(-0.143304 -0.184663 1.96707e-17)
(0.00740343 0.00466938 -1.39949e-20)
(0.00687706 0.00423729 8.69271e-20)
(0.000132763 -0.00138782 9.88633e-18)
(0.0117735 -0.00274736 2.85471e-17)
(0.000518349 -0.00669088 -1.72891e-18)
(0.000690033 -0.0070576 1.05285e-18)
(-0.00611715 -0.000814872 1.33846e-18)
(-0.00624772 -0.00103313 -2.51484e-18)
(0.000775549 0.0274647 -4.04457e-18)
(0.00011076 0.0279945 -5.3279e-19)
(-0.000199036 0.0272673 -1.24233e-18)
(0.0095164 0.0213733 2.89508e-19)
(0.0102637 0.0209153 -5.41154e-18)
(-0.000212868 -0.0021826 6.36515e-19)
(-0.000227853 -0.00224165 4.72708e-19)
(-0.000255862 -0.00228511 -5.36074e-19)
(-0.0015036 -0.0031624 2.63533e-18)
(-0.00151553 -0.00301693 -2.94518e-19)
(-0.00140956 -0.00311114 -1.12659e-18)
(-0.00328615 0.0205051 4.00085e-17)
(-0.00407666 0.0202751 3.13762e-18)
(-0.00387796 0.0211568 -4.35913e-18)
(-0.114473 -0.12805 -5.25e-18)
(-0.112992 -0.121941 -8.77354e-17)
(-0.0834861 -0.131532 2.31222e-17)
(-0.28342 -0.0974738 -7.33145e-18)
(-0.273073 -0.110099 -1.42303e-18)
(-0.27193 -0.0962672 -4.26867e-19)
(-0.106836 0.123495 -3.42459e-18)
(-0.121606 0.12711 -8.35695e-18)
(-0.0883628 0.132628 -1.46763e-17)
(0.00473058 0.00296334 2.41061e-19)
(0.00492367 0.00356886 -5.30481e-20)
(-0.0199187 0.0525946 -1.60323e-18)
(-0.0128751 0.052717 -5.13211e-18)
(-0.0183164 0.0483678 3.25343e-19)
(-0.290304 -0.0967118 -5.92151e-18)
(-0.290844 -0.0827398 7.48161e-18)
(-0.00155273 0.00558836 1.29229e-18)
(-0.00147518 0.00547268 -2.31159e-18)
(-0.00131221 0.00559903 -1.94875e-18)
(0.00368116 0.0085704 5.94736e-20)
(0.00417065 0.00824112 -5.23429e-19)
(0.00365559 0.00812948 -2.85934e-18)
(0.000806698 0.0103102 4.29453e-18)
(0.00239017 0.0103985 -6.40838e-18)
(0.000142136 0.0102074 -4.17638e-18)
(-0.00125504 -0.00734689 4.12276e-19)
(-0.00138634 -0.00765371 1.14888e-18)
(-0.00158859 -0.00733915 5.7122e-19)
(-0.00271882 0.0299385 1.11732e-19)
(-0.00344211 0.0306045 -5.59174e-18)
(-0.00216439 0.0307468 -2.07227e-18)
(-0.00327338 -0.00125605 -4.60512e-19)
(-0.00319219 -0.00138968 -3.70263e-18)
(-0.122585 -0.123262 4.02848e-17)
(-1.10095e-05 3.76699e-05 -1.39707e-20)
(-1.78373e-05 7.32951e-05 -1.78295e-19)
(-1.89212e-05 8.40983e-05 3.15824e-19)
(-0.00296619 -0.0248608 3.16319e-18)
(-0.0014899 -0.0253122 1.04774e-17)
(-0.00300643 -0.0264636 1.79175e-17)
(-0.00763107 -0.0022637 -1.06854e-18)
(-0.00769723 -0.00247695 3.79676e-19)
(-0.00799814 -0.00229138 1.33981e-18)
(-0.00145005 0.00403367 1.39723e-19)
(-0.00153106 0.00395128 4.33044e-18)
(0.0140777 0.0318424 -3.64359e-18)
(0.0127886 0.0323316 -2.05086e-18)
(0.0139233 0.0333567 3.15385e-18)
(-0.000781765 -0.00301109 -5.13474e-19)
(-0.000757383 -0.00292423 3.32765e-19)
(-0.0006872 -0.00294123 4.81472e-19)
(-0.00228192 0.0348927 -5.05182e-18)
(-0.00291186 0.0373501 1.25115e-17)
(-0.000693271 -0.000720572 -2.15297e-18)
(-0.000662266 -0.000765043 -3.32932e-18)
(0.0167369 0.0240224 -1.5286e-18)
(0.0175743 0.0241702 3.63347e-18)
(0.0172953 0.0232104 -1.94191e-18)
(-0.0158062 -0.000106578 7.71695e-18)
(-0.000862236 -0.00236416 6.30273e-18)
(-0.125118 -0.0841737 -4.5577e-18)
(-0.112773 -0.0793267 -7.82754e-18)
(-0.126513 -0.0937096 1.48251e-17)
(-0.00449293 0.00902229 -9.06286e-18)
(-0.00469623 0.00858478 -1.94253e-17)
(-0.00508069 0.00896275 7.27868e-18)
(0.00329374 0.00891096 9.99371e-19)
(0.00373587 0.00895003 2.09844e-18)
(-5.28914e-06 -1.32082e-06 -1.05215e-17)
(-3.47053e-06 -6.09191e-06 -3.48974e-18)
(-3.21328e-06 -3.75868e-06 -5.22112e-18)
(-0.00869784 0.0242229 -1.6038e-17)
(-0.00829743 0.0234276 6.53435e-17)
(-0.00115156 0.00195691 -2.37335e-18)
(-0.0010892 0.00195867 -5.14803e-18)
(-0.00114304 0.00189103 1.70431e-19)
(-0.00307836 -0.0236369 -3.5117e-18)
(0.122941 0.0878597 -1.10019e-17)
(0.0939988 0.102405 5.30191e-18)
(0.0983938 0.0264387 -9.68038e-18)
(-0.00437664 0.00904822 -2.40678e-18)
(-0.0041276 0.00856203 1.50694e-17)
(-0.00114974 -0.00696731 -4.17559e-19)
(-0.000916467 -0.00721652 -2.01855e-18)
(-6.13044e-05 0.00300081 1.0087e-18)
(-7.50234e-05 0.00319164 -1.99633e-18)
(-0.121417 0.115823 -1.42636e-17)
(-0.0977149 0.118477 8.76269e-18)
(-0.000759573 -0.00137349 -4.78786e-19)
(-0.000722001 -0.0013207 2.87198e-18)
(0.104246 -0.0665387 3.07553e-18)
(0.0959223 -0.0494604 2.89748e-17)
(-0.132372 0.129646 2.36361e-18)
(-0.148356 0.12889 2.21848e-17)
(-0.113525 0.138483 1.24651e-17)
(-0.0796934 -0.0338876 -1.39862e-17)
(-0.0799142 -0.0408679 3.61546e-17)
(2.90184e-06 -1.30145e-05 -1.9233e-18)
(1.2698e-06 -1.19534e-05 2.14671e-18)
(0.0238914 0.0207704 5.73081e-18)
(0.0730822 0.00366387 1.36882e-17)
(0.100043 -0.00695372 -8.06574e-19)
(-0.0645789 0.00608764 9.69943e-20)
(-0.0597973 0.00589502 -1.43266e-17)
(-0.0590121 0.0101061 7.57589e-19)
(0.0112579 0.0198616 -1.37466e-17)
(0.00519733 0.0212301 -3.89886e-18)
(-0.00311891 0.0292126 5.07301e-18)
(0.00644939 -0.00395297 -7.38631e-20)
(0.00645307 -0.00463336 -1.53367e-18)
(0.00591215 -0.00409505 -1.02529e-18)
(-0.00781539 0.0268874 -2.26997e-17)
(-0.00700762 0.02731 -2.42989e-17)
(-0.00800353 0.0279736 -1.83749e-17)
(0.0142604 0.030414 -3.10582e-18)
(0.0154126 0.0311171 -3.42845e-18)
(-0.00229767 0.0047045 3.61033e-20)
(-0.00250441 0.00427968 7.34905e-19)
(-0.0306172 0.0358023 -1.80803e-18)
(-0.0301053 0.0342159 -3.85264e-18)
(-0.0167105 -0.00360376 5.20782e-20)
(-0.0161413 -0.00286424 2.48471e-19)
(-0.0157788 -0.00375663 -4.55648e-19)
(0.069552 0.00295313 -5.68007e-18)
(0.0804539 0.000143885 -2.46928e-18)
(0.0863328 0.00108574 2.02556e-18)
(0.0392931 0.0209106 -5.47791e-20)
(0.0366578 0.0223232 -7.03681e-20)
(0.0370277 0.0188726 5.88741e-19)
(-0.000773496 -1.01623e-05 -3.9263e-19)
(-0.000723331 -3.30865e-05 -2.66836e-19)
(-0.000719422 -3.17536e-05 -6.56616e-19)
(0.00188167 -0.00330163 9.12355e-19)
(0.0016726 -0.0032032 8.23426e-20)
(0.00170952 -0.00352065 -1.65949e-19)
(0.00170597 0.0277089 -4.47919e-18)
(0.0128595 0.0257594 -4.85419e-19)
(0.0222825 0.0216245 7.43798e-18)
(0.175452 -0.0110252 2.37685e-18)
(0.166838 -0.00418793 6.4194e-19)
(0.182097 -0.00897948 1.21062e-18)
(-0.00128051 -0.00130219 2.71893e-18)
(-0.00122147 -0.00134854 5.63608e-20)
(-0.00256144 0.0252671 3.73027e-17)
(-0.00106531 0.00334165 8.70138e-19)
(-0.0011007 0.00328875 2.36334e-19)
(-0.00102954 0.00331635 2.30588e-18)
(0.00790174 0.0247048 9.58113e-19)
(0.00829187 0.0251572 5.89247e-19)
(0.008527 0.0244938 5.20787e-19)
(0.0510711 0.0441439 -6.22737e-19)
(0.055427 0.0436809 -7.81509e-19)
(0.0512402 0.0402241 1.81693e-19)
(0.00208825 -0.00345213 -6.70824e-20)
(0.0020256 -0.00314398 6.41235e-19)
(0.0140597 -0.00189045 2.10051e-18)
(0.0148108 -0.0019192 9.51516e-19)
(0.042086 0.0200802 -4.67756e-19)
(0.0412991 0.0238177 -1.44888e-19)
(-0.00216212 0.00212894 -5.36921e-18)
(-0.00224857 0.00200478 -7.84575e-18)
(-0.00214017 0.00207424 -3.13555e-19)
(-0.00556676 0.0157389 1.10886e-17)
(-0.00505443 0.0162724 1.75266e-17)
(0.00277548 0.022016 5.72104e-18)
(0.00260719 0.022605 9.80646e-19)
(0.00233208 0.0221372 1.94003e-18)
(0.00463854 0.0577324 2.14197e-18)
(0.00591541 0.0612818 -4.21166e-18)
(0.00891738 0.0571483 5.57495e-18)
(-0.000616201 0.00304285 9.55809e-19)
(-0.000573522 0.00296961 -3.08071e-19)
(-0.000558123 0.0030129 2.55108e-18)
(-0.00137476 0.00403896 -2.17995e-18)
(-0.00136401 0.00409645 2.8758e-19)
(-0.00455302 0.00938328 -1.03267e-17)
(0.00301164 0.0123098 -2.68936e-18)
(0.00401363 0.0121481 1.41431e-18)
(0.00251183 0.0134068 -3.81728e-18)
(-0.0547586 0.0970207 -2.64543e-18)
(-0.0618222 0.0433017 3.74609e-17)
(-0.000379692 0.0873767 4.85873e-17)
(0.0107108 0.00336771 -2.47641e-20)
(0.01032 0.00288038 -6.13815e-19)
(0.0111045 0.00279774 -1.4119e-18)
(-0.000848825 -0.0020381 -3.87636e-19)
(-0.000920927 -0.00203346 -3.93362e-19)
(0.0365275 0.0425922 -3.22404e-18)
(0.0356367 0.0460588 5.16791e-18)
(0.063194 0.0411179 -3.63093e-19)
(0.0590239 0.0426128 2.89008e-19)
(0.0597031 0.0380529 4.70371e-19)
(0.0088342 0.0203248 3.34641e-18)
(0.00830097 0.0202097 -3.19938e-18)
(0.00867854 0.0197826 3.692e-18)
(0.0131162 -0.000679622 -2.24574e-18)
(0.01287 -0.00243961 -4.74354e-18)
(0.0020756 0.0123764 -8.31449e-18)
(0.00246852 0.0113319 5.35539e-19)
(-0.303391 0.0368927 1.89662e-17)
(-0.292632 0.0348742 -7.08945e-18)
(-0.317078 0.0259537 2.17475e-17)
(0.00208477 -0.00488358 1.17075e-18)
(0.00202856 -0.00520618 6.89643e-19)
(0.00233381 -0.00500489 -7.66864e-19)
(0.0040568 0.00193107 -1.40501e-19)
(0.00440428 0.00211503 3.57795e-19)
(0.00390859 0.00238241 2.87902e-19)
(-0.0244804 -0.0697431 -6.07104e-18)
(-0.0223817 -0.0744867 3.67672e-17)
(-0.0177634 -0.0725893 -2.03439e-17)
(-0.00161196 -0.001574 -8.82903e-19)
(-0.00165604 -0.00164501 -2.13621e-18)
(-0.00167383 -0.00152664 3.45601e-19)
(-0.000376779 0.00137701 -3.13224e-18)
(-0.0003678 0.00132491 1.61003e-18)
(-0.000320702 0.0012668 2.05747e-18)
(0.00926777 0.0205074 3.84813e-18)
(0.00867027 0.0209219 1.60532e-18)
(-0.0204242 -0.0341321 -2.22973e-17)
(-0.0177099 -0.033461 -1.8072e-18)
(-0.019466 -0.0316785 -1.02808e-17)
(-0.000733255 -0.00141814 -1.63542e-18)
(-0.000704278 -0.00145905 -3.60527e-19)
(-0.000679595 -0.00140648 -9.81574e-19)
(-1.68354e-05 7.66184e-05 3.31404e-19)
(-1.71234e-05 7.13755e-05 9.53395e-19)
(-1.1959e-05 3.22298e-05 1.52658e-18)
(-0.00120647 0.00196282 -2.99652e-18)
(-0.00115015 0.00202597 1.25826e-18)
(-0.000519968 7.80057e-05 -2.73791e-18)
(-0.000548883 7.34492e-05 1.17288e-18)
(-0.000491176 4.67364e-05 -4.55913e-18)
(0.00544883 -0.00176864 -4.92799e-19)
(0.00586622 -0.00186703 6.14119e-19)
(0.00570516 -0.0012916 3.0308e-19)
(-0.000437163 0.00147027 -7.03184e-18)
(0.00119559 0.0103534 8.51889e-18)
(0.00342025 0.0104189 -2.40618e-18)
(0.0105624 0.00145448 -9.38204e-19)
(0.00994203 0.0020901 -4.15115e-19)
(-0.00271801 -0.000624575 4.64189e-19)
(-0.00267834 -0.000487884 -1.60765e-19)
(-0.0027531 -0.000610222 1.23085e-18)
(0.025228 0.024616 -5.58209e-18)
(-0.0388694 0.0139183 2.34279e-17)
(-0.0426585 0.0130655 1.39722e-17)
(-0.00150086 0.00429806 1.38556e-18)
(-0.00161037 0.00421906 -6.07557e-18)
(-0.00151424 0.00426426 -2.95698e-18)
(0.0154616 0.0247073 -1.03605e-18)
(-0.266134 -0.0259023 4.25728e-18)
(-0.281857 -0.0128346 -4.62388e-18)
(-0.276949 -0.0229174 9.43456e-18)
(-0.00384838 0.00301102 -3.68599e-18)
(-0.00392117 0.0028533 3.44907e-19)
(-0.00136464 0.00436061 1.4936e-18)
(-0.00147653 0.00436128 3.50511e-18)
(0.0111526 0.00126998 1.5217e-18)
(0.0110621 0.00205799 8.69058e-20)
(-0.0225668 -0.000652533 -9.16093e-19)
(-0.0250262 -0.000875611 2.98591e-18)
(-0.0251506 0.0014965 1.42201e-17)
(-0.00275164 -0.0673809 1.77107e-17)
(0.00512033 -0.0642739 1.08152e-16)
(0.00145906 -0.066965 5.21578e-18)
(0.023146 -0.000921637 3.57358e-18)
(0.0244838 -0.00133066 -1.88e-18)
(0.0234558 -0.00226222 -2.06816e-19)
(-0.000284638 8.61651e-05 -8.05437e-19)
(-0.000270365 0.000124935 -2.44078e-19)
(0.0697719 0.172335 -1.03005e-18)
(0.0828394 0.166947 1.59163e-17)
(-0.000495695 0.00187478 -1.7658e-18)
(0.0259285 -0.00156971 -8.38379e-19)
(0.0265666 -0.00321801 -9.06505e-19)
(0.0281973 -0.00177634 1.87318e-18)
(-0.250604 -0.0261291 -7.66924e-18)
(-0.264545 -0.0410653 -8.79341e-18)
(0.00276994 0.052235 -4.80201e-18)