/*--------------------------------*- C++ -*----------------------------------*\
| =========                 |                                                 |
| \\      /  F ield         | OpenFOAM: The Open Source CFD Toolbox           |
|  \\    /   O peration     | Version:  v2012                                 |
|   \\  /    A nd           | Website:  www.openfoam.com                      |
|    \\/     M anipulation  |                                                 |
\*---------------------------------------------------------------------------*/
FoamFile
{
    version     2.0;
    format      ascii;
    class       volScalarField;
    location    "250";
    object      k_0;
}
// * * * * * * * * * * * * * * * * * * * * * * * * * * * * * * * * * * * * * //

dimensions      [0 2 -2 0 0 0 0];


internalField   nonuniform List<scalar> 
13851
(
0.000247933
0.000154857
0.000154654
0.012351
0.000148429
0.000158351
0.000154558
0.000148007
0.00139447
0.000148723
0.000183212
0.000148624
0.000149289
0.00487158
0.000172155
0.000254993
0.0351911
0.000148314
0.000365691
0.000248116
0.00017675
0.000156904
0.0415158
0.000149733
0.0882978
0.000194925
0.000367574
0.000519271
0.00110723
0.000146764
0.0865493
0.000154534
0.000245585
0.000997189
0.000173024
0.000969644
0.00014981
0.100224
0.109405
0.00014882
0.00256454
0.000829524
0.0139475
0.000237994
0.000819764
0.0001479
0.000145036
0.000246021
0.000152814
0.000149268
0.0332457
0.000149457
0.000254069
0.000162408
0.00451796
0.000148841
0.000248069
0.00296162
0.000377545
0.0076954
0.00014866
0.000354114
0.000148789
0.000153122
0.000185491
0.000186579
0.00774892
0.00016709
0.000148954
0.0116274
0.0916667
0.000183138
0.000148935
0.00740622
0.000165237
0.000152843
0.0478982
0.000145746
0.0793939
0.000148215
0.000149028
0.0204377
0.000172303
0.00490446
0.0072499
0.0912712
0.000157346
0.00487858
0.000148746
0.0829667
0.000149525
0.00015469
0.0180752
0.0813398
0.0745325
0.000209459
0.000148153
0.000255731
0.0198414
0.000232024
0.000259903
0.000162399
0.000163626
0.000149087
0.000147827
0.000181327
0.000147833
0.0949657
0.000154658
0.000148177
0.000160479
0.000147892
0.000273848
0.00018784
0.000243208
0.000161521
0.000146616
0.000147375
0.0131446
0.0127932
0.000196645
0.000147562
0.00014887
0.00388117
0.000329412
0.000173485
0.000148132
0.000174951
0.001632
0.000180725
0.000156843
0.00016552
0.0934086
0.000985401
0.000184743
0.0833231
0.000166689
0.0908784
0.000160622
0.000180447
0.0160209
0.000150396
0.000148761
0.000172444
0.043604
0.000152253
0.000145662
0.0797844
0.00236761
0.000175739
0.000258493
0.000268514
0.000190977
0.000328059
0.000149699
0.000148954
0.000148686
0.106285
0.000177498
0.000153619
0.000149582
0.00106914
0.000180761
0.000246169
0.00474753
0.000980906
0.000989333
0.0375446
0.000160349
0.00176262
0.000148734
0.000146624
0.000188532
0.000148819
0.0749614
0.000371892
0.000267387
0.000146519
0.000164918
0.000263787
0.000325185
0.000230777
0.000159926
0.000180358
0.0197364
0.00235775
0.000246137
0.00015774
0.000149539
0.00014733
0.0338368
0.000177448
0.00536011
0.000158542
0.000151942
0.000254935
0.000242276
0.000149339
0.000149427
0.000167901
0.0162864
0.0345434
0.00383199
0.000172031
0.000390624
0.0333625
0.000152323
0.000179616
0.00146991
0.000157245
0.000255176
0.000148823
0.0213308
0.000149517
0.000174064
0.000154218
0.000149201
0.000315696
0.000149437
0.000505065
0.000146483
0.000248554
0.00514948
0.0796918
0.000157331
0.000179948
0.000149733
0.000170655
0.000148374
0.00017345
0.0342799
0.000157168
0.000157214
0.000148801
0.00371577
0.000146724
0.0291037
0.00467534
0.000223633
0.000149644
0.0101859
0.00686077
0.000796454
0.000253319
0.000168643
0.000176446
0.000298313
0.000165013
0.000208555
0.000162067
0.00488818
0.000253405
0.000147548
0.000158132
0.000257822
0.00114419
0.00438897
0.000147277
0.000173843
0.000148731
0.000288549
0.000327429
0.000158742
0.000181344
0.00025536
0.000148698
0.000162883
0.000229176
0.000480483
0.000148798
0.000149189
0.000157325
0.00099845
0.0123783
0.000180288
0.000147694
0.000326285
0.000327747
0.000232268
0.000180898
0.00104764
0.0149925
0.000159614
0.000168314
0.0869118
0.000147787
0.000148668
0.000235617
0.000177936
0.000146743
0.000149499
0.000148358
0.000147903
0.000168226
0.000148646
0.00136687
0.000178355
0.000148408
0.00117214
0.00423186
0.000149514
0.000249573
0.0260039
0.00015059
0.000149563
0.000179812
0.00538856
0.138213
0.00019302
0.000148352
0.00149582
0.000148701
0.000197009
0.0288537
0.00047292
0.000153324
0.0816282
0.0798926
0.107536
0.000267701
0.000162978
0.088685
0.00263052
0.000518441
0.00014966
0.046073
0.00580679
0.000217038
0.000211825
0.000152338
0.00019221
0.000158124
0.00474653
0.000164206
0.000147153
0.000144505
0.000159847
0.101348
0.00036975
0.000147722
0.0750227
0.000158184
0.000165853
0.0001538
0.00535744
0.000326228
0.000256222
0.000153727
0.000156298
0.00116371
0.000149551
0.000330809
0.000159445
0.000179702
0.000158767
0.000148747
0.000148378
0.000264161
0.000203362
0.000253909
0.0867198
0.00105466
0.000152389
0.0045946
0.000318409
0.00014641
0.000474743
0.000213347
0.0210961
0.000159102
0.000198142
0.000359114
0.105708
0.000247179
0.00427774
0.000150927
0.000379181
0.0128542
0.000165184
0.0040168
0.000168393
0.00502748
0.000167798
0.000171924
0.000252586
0.00159091
0.000148983
0.000158884
0.000179641
0.000165428
0.000148047
0.0001806
0.000739004
0.000148909
0.000179709
0.0183365
0.00015453
0.00948068
0.000177313
0.138782
0.000158139
0.000192119
0.000321068
0.000331085
0.000180567
0.00505024
0.00705073
0.00295114
0.000148726
0.000263644
0.000168743
0.000197253
0.000147642
0.0180159
0.000806268
0.101635
0.000156208
0.000255199
0.000357545
0.0125232
0.000145165
0.0315372
0.006664
0.0321126
0.000162813
0.000941684
0.000148983
0.000148743
0.00476593
0.000359887
0.000148739
0.000154958
0.000180654
0.000146919
0.000740179
0.000192664
0.000211785
0.000157369
0.00015097
0.000149455
0.101629
0.000148403
0.000149393
0.000580942
0.000737443
0.000156135
0.00034066
0.000148793
0.000148619
0.000155194
0.000254919
0.000176667
0.000148109
0.000151683
0.0001967
0.000152955
0.134421
0.000148578
0.000159218
0.000825048
0.000161201
0.000144824
0.000148823
0.000157296
0.000149894
0.00178845
0.000653157
0.00016898
0.000563575
0.000155314
0.000148611
0.00140416
0.000355438
0.000160414
0.000148913
0.00291238
0.000159889
0.00248686
0.000149111
0.000166067
0.000261865
0.000168224
0.00209264
0.000359029
0.0984663
0.000152479
0.00027237
0.000148667
0.00117468
0.000177338
0.000242154
0.000168287
0.000153338
0.000161222
0.000188886
0.000148503
0.00532208
0.00155749
0.133154
0.0117945
0.000652003
0.0686514
0.000331324
0.00015666
0.000149315
0.0178597
0.00014872
0.000148048
0.000157955
0.0702559
0.000154432
0.000150404
0.000176713
0.00017933
0.000148673
0.105077
0.000148196
0.00137724
0.0011417
0.000148217
0.000153238
0.0106517
0.000480852
0.000146796
0.116072
0.0367817
0.000146485
0.119696
0.000360316
0.000248579
0.000152425
0.000571686
0.0112921
0.00014671
0.000489997
0.000148896
0.000148198
0.000571022
0.00538498
0.000173513
0.000175605
0.000148711
0.000187321
0.00148698
0.0985426
0.000147593
0.0512757
0.000148105
0.000148965
0.000180957
0.000158605
0.00014513
0.000152837
0.12118
0.00118599
0.116158
0.000153801
0.000148724
0.000947228
0.000149128
0.00026371
0.000159689
0.000165622
0.000168532
0.000743427
0.0153062
0.000158241
0.0273871
0.000152867
0.000191302
0.000842314
0.00378047
0.000148862
0.000148701
0.000163955
0.116596
0.000329412
0.000186348
0.0145114
0.000158662
0.000166599
0.043019
0.113421
0.000188234
0.00138434
0.000282372
0.000734018
0.000150321
0.000378892
0.000658204
0.000148712
0.0181352
0.0611033
0.000160384
0.000180377
0.000148831
0.000492506
0.000180711
0.0679287
0.000148432
0.000149016
0.000155417
0.000178614
0.000148613
0.0701297
0.000148973
0.000279383
0.000152494
0.000198352
0.000149065
0.000148699
0.000169089
0.0514755
0.000180271
0.0786213
0.000166164
0.000147012
0.000147137
0.000188626
0.000151652
0.000215183
0.000155377
0.000160102
0.000376413
0.000149139
0.00530932
0.000149657
0.000217479
0.0270573
0.000902668
0.000157033
0.0611498
0.000176016
0.000190234
0.0587892
0.00014805
0.110794
0.00015834
0.000166536
0.0144369
0.0222214
0.000146556
0.000212277
0.000149223
0.000968015
0.0409615
0.000149332
0.000167811
0.000783244
0.000149723
0.000149644
0.000195449
0.00547403
0.000490065
0.000149573
0.000252366
0.000152489
0.000148735
0.000380793
0.000254414
0.000215456
0.000144951
0.000229272
0.00016442
0.00018886
0.000150563
0.000151604
0.000178739
0.000155242
0.000237674
0.000182715
0.000182769
0.000183475
0.000434598
0.000365456
0.000681258
0.113121
0.000252048
0.00426592
0.000164297
0.00059209
0.000250996
0.000148111
0.000165802
0.000334973
0.000158605
0.000148196
0.00014812
0.000217301
0.00478578
0.000159632
0.0056366
0.000147048
0.000503925
0.000181807
0.0265434
0.000211708
0.000158382
0.000154652
0.0291291
0.000216875
0.000163939
0.00036107
0.000150558
0.0189117
0.000217715
0.000279959
0.000167574
0.0443314
0.000148972
0.000149595
0.00015185
0.000148762
0.000893366
0.000147898
0.00037157
0.000986643
0.000212677
0.0957265
0.0195714
0.000285855
0.000415664
0.000156918
0.000149131
0.000149124
0.000145805
0.000147145
0.000148837
0.000192221
0.000266112
0.000165257
0.00050186
0.000151642
0.00146708
0.000149953
0.0126259
0.000170429
0.000149878
0.000148864
0.000926224
0.000158654
0.000490859
0.050551
0.00017888
0.000195067
0.000146345
0.00105127
0.000153445
0.000154554
0.000377964
0.000149153
0.000150364
0.000147843
0.000177594
0.00448752
0.000163291
0.000168112
0.0102508
0.0953063
0.000157217
0.000156475
0.000776084
0.000145766
0.000775412
0.000149283
0.000153028
0.0692542
0.000203534
0.000241816
0.000199431
0.000180619
0.000149469
0.000149953
0.000194686
0.000150493
0.000149531
0.000159857
0.00351088
0.000147854
0.000232004
0.00595161
0.000469576
0.000199597
0.0514304
0.000160794
0.000149096
0.000240817
0.000147162
0.000158968
0.000648059
0.00117776
0.113173
0.000717284
0.000149556
0.000149234
0.000170626
0.000151246
0.000147607
0.0376476
0.000290503
0.00392091
0.000218408
0.000205054
0.000148832
0.000146825
0.0712602
0.000212244
0.000153683
0.000149668
0.000241425
0.000288421
0.00582472
0.000149663
0.000148929
0.00523157
0.000150505
0.000168508
0.000146927
0.06444
0.000148849
0.0344991
0.000148781
0.00021659
0.00017441
0.000170073
0.000167968
0.000148939
0.000154998
0.000148068
0.000368739
0.000150493
0.00351459
0.000150804
0.000514651
0.00121568
0.000165851
0.000147921
0.0221993
0.000657928
0.00015904
0.000203476
0.000149115
0.00517133
0.000148218
0.000336462
0.000148682
0.000148048
0.000475606
0.00016884
0.000148787
0.000163148
0.00263622
0.000448041
0.000811994
0.000147274
0.00388394
0.00014878
0.000147887
0.000149702
0.000144223
0.000149503
0.00123877
0.000678998
0.000149496
0.000148947
0.000174062
0.000147896
0.024633
0.000251106
0.00443188
0.0926831
0.000154906
0.000237064
0.000148683
0.000176696
0.000178251
0.000147924
0.000149344
0.0368824
0.0417106
0.000193932
0.0209798
0.000190747
0.0001488
0.000174698
0.000204326
0.0431269
0.000166755
0.000417936
0.000214025
0.000149438
0.065532
0.0529713
0.00359036
0.0336031
0.000572867
0.000152429
0.000176112
0.000149385
0.000420183
0.0001579
0.000147178
0.000933905
0.000151354
0.000147923
0.000148854
0.000151036
0.0652266
0.000330546
0.000147493
0.000175339
0.00515158
0.000152006
0.0199657
0.000151508
0.000201167
0.00953464
0.000148675
0.000342652
0.000161169
0.000167185
0.000473949
0.000151401
0.0160058
0.00019143
0.00218637
0.000149764
0.00379255
0.000164748
0.00548168
0.0406597
0.0049369
0.000178778
0.000149018
0.00014959
0.000149729
0.000170066
0.00014886
0.00204585
0.000159178
0.000156672
0.000157052
0.000152327
0.000147231
0.000157098
0.000159454
0.000153225
0.000158119
0.0408497
0.000367606
0.000163606
0.000171484
0.000935858
0.000150463
0.106517
0.000145836
0.000161775
0.000150529
0.000148211
0.000167998
0.000148597
0.000147439
0.000163065
0.000148981
0.00201135
0.000151204
0.0173027
0.000450204
0.000303957
0.000372324
0.00014891
0.0938173
0.000265725
0.000149453
0.000159152
0.000150213
0.113159
0.000151491
0.000163111
0.000476981
0.017247
0.000184278
0.000149171
0.000755243
0.000457301
0.000596056
0.000161084
0.000146937
0.000147491
0.000193349
0.00014901
0.0109658
0.000267482
0.00014925
0.000314659
0.00387657
0.000147772
0.0334861
0.0348131
0.000287517
0.000151066
0.000742489
0.000192222
0.000148191
0.00458817
0.000156339
0.000147653
0.000148314
0.00016398
0.000170794
0.00116559
0.084003
0.000173836
0.00101092
0.000166721
0.000148831
0.000169303
0.000148128
0.071754
0.000147781
0.00014822
0.000153101
0.000150379
0.00108535
0.00494898
0.000320713
0.0163517
0.129342
0.000157232
0.000148889
0.000151215
0.0202178
0.000147673
0.000148287
0.000171376
0.0793583
0.000362486
0.000145378
0.000166727
0.000168267
0.000250553
0.0148596
0.000146492
0.00014503
0.00015317
0.0996633
0.000159626
0.00163567
0.000151556
0.000149006
0.000147693
0.00014826
0.00015421
0.000285288
0.000723783
0.000962744
0.000157126
0.00014863
0.0131382
0.000149938
0.001218
0.0102511
0.000158569
0.0623278
0.000884517
0.0465054
0.000184061
0.000166337
0.00315128
0.000164931
0.000160773
0.000171061
0.00023449
0.000150335
0.000487969
0.000148861
0.00062076
0.103512
0.000145875
0.000152598
0.000168359
0.0203421
0.000168443
0.00014886
0.000160127
0.000151529
0.000156879
0.000246399
0.00014903
0.000680592
0.00446625
0.0001489
0.000165019
0.000170548
0.000148725
0.00133297
0.00590511
0.0916289
0.00302892
0.00014849
0.000154653
0.000158277
0.000149684
0.000322075
0.000168792
0.000149688
0.000190013
0.000154982
0.000561627
0.000174594
0.00538841
0.000151349
0.000151977
0.000164194
0.000213144
0.000197249
0.000148712
0.00602607
0.00540539
0.033121
0.0776179
0.000648451
0.00103008
0.00568896
0.000148708
0.000148707
0.000148551
0.00032386
0.000176091
0.000196514
0.0108764
0.000149532
0.000145467
0.00014872
0.000319476
0.000145575
0.00015864
0.000152602
0.00052978
0.000150948
0.000147209
0.000148809
0.000148483
0.000148998
0.000160322
0.000317925
0.000160822
0.000680556
0.000148678
0.000148265
0.00149269
0.00100452
0.00502418
0.000469778
0.000164388
0.000499048
0.000146885
0.000171264
0.000151973
0.000148795
0.000154365
0.0482017
0.000151903
0.000214291
0.0750139
0.000149559
0.000148156
0.000155181
0.000287188
0.000149793
0.000520884
0.000148453
0.000312198
0.000148845
0.000149475
0.00015918
0.000172566
0.000149313
0.000376665
0.0915171
0.000304076
0.000923584
0.000148972
0.0520852
0.000394872
0.00014869
0.105026
0.000149678
0.00016206
0.000149552
0.00014955
0.000147785
0.000148698
0.000149934
0.000155991
0.000193349
0.000149379
0.000148767
0.000166136
0.000146344
0.134896
0.000148831
0.000166839
0.000165848
0.00827141
0.000467246
0.000148963
0.000288435
0.000146863
0.000160976
0.000176494
0.000463749
0.000180473
0.000149797
0.000225756
0.000168636
0.000204588
0.000420987
0.000161408
0.000249381
0.000186408
0.000193923
0.00015085
0.000147656
0.000470607
0.0188103
0.000154994
0.000148186
0.0182519
0.00014711
0.000176295
0.000148106
0.000182913
0.103978
0.000144731
0.00473245
0.000158102
0.000149058
0.000265011
0.000147155
0.000161756
0.00294463
0.00017429
0.000473588
0.000147766
0.00014974
0.000162437
0.00014945
0.000149618
0.000159769
0.000163461
0.000193684
0.000185447
0.000149131
0.000166775
0.000147549
0.000148647
0.000149373
0.000148696
0.0597499
0.000147874
0.000151598
0.000336435
0.000147056
0.000148094
0.000987274
0.000149637
0.0191372
0.000152294
0.000830187
0.000321789
0.000164853
0.0766087
0.00018474
0.000292943
0.00014999
0.000287297
0.000158898
0.00014755
0.000147936
0.000151559
0.000165287
0.000148454
0.000173745
0.000147568
0.000152003
0.0163238
0.0345039
0.00125281
0.000154267
0.000163629
0.0156306
0.0227322
0.00014909
0.000158161
0.000305291
0.000149229
0.000170949
0.0751412
0.000925283
0.000158887
0.000176081
0.000150716
0.00564674
0.000149889
0.000161742
0.000664139
0.000149327
0.000148146
0.134688
0.000174173
0.000328734
0.000930051
0.000217402
0.000149951
0.000147592
0.000149593
0.0727253
0.000568894
0.000628338
0.000179003
0.000148814
0.0292874
0.000148822
0.000274275
0.000155554
0.000152674
0.000176882
0.000148671
0.049186
0.125312
0.000146412
0.000193923
0.000177528
0.0742406
0.000175834
0.000185893
0.000325735
0.0001662
0.000367018
0.000188334
0.000148825
0.000168115
0.000169017
0.00058725
0.000148482
0.000408081
0.000177227
0.000188313
0.000149798
0.135272
0.000157817
0.000152183
0.000147666
0.000167936
0.000167573
0.000167299
0.00014876
0.000150435
0.000175123
0.0170635
0.000180804
0.000148999
0.000150494
0.000167681
0.000307884
0.000149084
0.000189479
0.0804094
0.000169206
0.000811103
0.000169924
0.0210894
0.0129605
0.000148726
0.0920752
0.00014955
0.000155126
0.000165518
0.000169161
0.000216291
0.000177945
0.000166896
0.000168731
0.000165236
0.000153304
0.000145496
0.000170686
0.00015673
0.000157481
0.00045532
0.000157197
0.000159672
0.000148138
0.0041478
0.000186966
0.000149144
0.000155374
0.000151699
0.00555819
0.000263476
0.000165499
0.000791833
0.00040849
0.0307788
0.000214225
0.000349269
0.000147653
0.000186006
0.000148096
0.000155694
0.0884769
0.00152758
0.00178955
0.0372857
0.000148852
0.00557229
0.000147622
0.000202887
0.000154755
0.000495356
0.00119357
0.00015614
0.000148039
0.0017293
0.000162221
0.000148517
0.0868938
0.000148676
0.000152311
0.00015673
0.000149539
0.000164516
0.000151806
0.000148871
0.000164149
0.0370997
0.000174447
0.00018107
0.000148516
0.0225218
0.00120929
0.000147953
0.000345446
0.000154657
0.000157363
0.000635406
0.000147941
0.000150449
0.000156768
0.0296244
0.000148533
0.000149143
0.000173736
0.000601294
0.000147842
0.00015998
0.000162443
0.000449778
0.000175492
0.000173145
0.000310753
0.000148683
0.000173688
0.000145971
0.00842078
0.000163294
0.000148703
0.000157739
0.000207419
0.000148919
0.000149104
0.000254028
0.000679062
0.000149892
0.00679994
0.00014918
0.000145896
0.000191496
0.000148451
0.000147879
0.0452281
0.000149804
0.000174757
0.000261965
0.11785
0.000441471
0.000147563
0.000152802
0.000156671
0.000148507
0.00014902
0.000148835
0.000444139
0.000149236
0.000369088
0.000230894
0.000148056
0.000146485
0.000164053
0.000230887
0.000342568
0.000167742
0.000182883
0.000152907
0.00131814
0.000181171
0.000160529
0.000174064
0.000174657
0.000209454
0.0229075
0.000168916
0.00348289
0.000517531
0.029979
0.000155252
0.000148286
0.000169837
0.000159471
0.000147425
0.000149961
0.000182425
0.000149583
0.000149582
0.00014861
0.000144986
0.00015299
0.000148643
0.044041
0.000148021
0.113136
0.000148559
0.000176512
0.000150463
0.00023326
0.000176835
0.000149034
0.000681439
0.000152708
0.000149447
0.000173653
0.00014744
0.000159122
0.000148315
0.000690793
0.000153748
0.000175617
0.000171458
0.000671751
0.000158437
0.000372524
0.000454608
0.00017153
0.000148855
0.000151578
0.000178985
0.000190898
0.0454373
0.00014682
0.0118575
0.000148778
0.000170078
0.135818
0.000166747
0.000497083
0.000155556
0.000166972
0.00015429
0.12402
0.000164126
0.000148848
0.000170307
0.000250077
0.000152458
0.000148693
0.000148868
0.105589
0.000149647
0.000157697
0.00105716
0.000155617
0.000148722
0.000174184
0.000155107
0.000584171
0.00014547
0.000148829
0.000147289
0.00015498
0.000149885
0.000148928
0.000190777
0.00130744
0.000148605
0.000148772
0.000603855
0.000149722
0.00811101
0.000153424
0.136216
0.000147734
0.000153379
0.000146863
0.0031889
0.000886415
0.000159628
0.000170422
0.000155761
0.000148285
0.000148821
0.000687348
0.00014881
0.000202554
0.000146982
0.000172555
0.000149196
0.00067086
0.000147117
0.000176908
0.000148214
0.000219838
0.00284833
0.000147229
0.000167418
0.098791
0.000193403
0.000497565
0.000474255
0.000130526
0.000151804
0.000168875
0.000214374
0.000492671
0.000149682
0.000168795
0.000156752
0.000148346
0.00356655
0.0153181
0.00019433
0.000263886
0.00444417
0.000163646
0.000906467
0.00014735
0.000147151
0.000209562
0.127442
0.000303441
0.000267943
0.000445738
0.000146915
0.132691
0.00316429
0.128493
0.000149287
0.0600058
0.0649452
0.00276911
0.000412739
0.00290351
0.000204761
0.000164087
0.000272501
0.000154615
0.000148441
0.0862863
0.000211632
0.000145338
0.00768537
0.000149188
0.000158842
0.000176123
0.000155688
0.00580573
0.000160676
0.0159411
0.000175821
0.000155093
0.000485
0.0241675
0.00025191
0.000149921
0.000154624
0.000195797
0.000170251
0.000146992
0.000178044
0.000168423
0.000246932
0.000148577
0.000284656
0.000153671
0.000170377
0.000593617
0.00037164
0.000151359
0.000197899
0.0772279
0.000149331
0.000150726
0.129752
0.0124022
0.000154579
0.000155379
0.000148758
0.000178652
0.000156319
0.00079784
0.000215125
0.000150142
0.000149437
0.000166899
0.000159923
0.000400725
0.0391309
0.000147793
0.000148546
0.000159679
0.00014923
0.000154399
0.000151033
0.000151057
0.000154683
0.000148317
0.000154284
0.000149475
0.000178448
0.000492589
0.000149734
0.000731201
0.0359157
0.000145975
0.00018638
0.000207503
0.000186698
0.000150525
0.000211022
0.000159497
0.000169366
0.000163276
0.000152166
0.000149337
0.0462647
0.000157873
0.000477627
0.000150511
0.000148772
0.000148404
0.000176613
0.000148539
0.00018153
0.000188468
0.000286008
0.000147867
0.000376783
0.10032
0.0052346
0.00014684
0.000239902
0.000227883
0.102085
0.0572672
0.000150326
0.00014938
0.000221074
0.00043706
0.000447004
0.000174742
0.000350084
0.000149498
0.000147696
0.00016565
0.000149239
0.000149252
0.000268226
0.000149744
0.000170246
0.000147676
0.00627249
0.000741159
0.000558163
0.000582832
0.0060012
0.000149317
0.000148954
0.0364443
0.000147011
0.000147357
0.000145917
0.000195108
0.00110606
0.0489507
0.000156379
0.000149175
0.000151819
0.000163861
0.00490957
0.000148163
0.000475541
0.00640059
0.000149191
0.000149121
0.00356868
0.000199792
0.000152571
0.000148678
0.00082004
0.0148299
0.000148468
0.000291965
0.000149656
0.0042522
0.000438831
0.000153139
0.0369182
0.0133663
0.000643695
0.000147538
0.000149602
0.00014959
0.000149899
0.00100537
0.000148073
0.000215508
0.000349973
0.0387009
0.000150845
0.000177755
0.000399748
0.000178763
0.0239035
0.114783
0.000145202
0.000156998
0.0001573
0.000251188
0.000797345
0.000144848
0.00431353
0.000161282
0.000175503
0.000150561
0.00014762
0.00282493
0.000170921
0.0253718
0.000149239
0.000177859
0.00015057
0.000234645
0.000154468
0.00130446
0.000466345
0.000226864
0.000212472
0.000148543
0.000152945
0.000206385
0.000186004
0.000943871
0.0696823
0.00014891
0.000484287
0.000171417
0.0916447
0.000156733
0.000173363
0.000172592
0.000148918
0.000690982
0.0001487
0.00016705
0.00342455
0.00384938
0.0706959
0.00131258
0.00015843
0.000180835
0.00014672
0.00807267
0.000157524
0.0302857
0.000146598
0.000625674
0.000144766
0.000148317
0.00016651
0.000158801
0.000160243
0.000148445
0.0031072
0.000175255
0.000148103
0.000167534
0.00332343
0.000185531
0.000148926
0.12265
0.00015419
0.000166741
0.000163823
0.000145728
0.000185842
0.000148313
0.095112
0.000176056
0.000157311
0.000148694
0.0169284
0.000173615
0.000146589
0.000612542
0.000703098
0.000323865
0.000146287
0.000440695
0.000148938
0.000225447
0.000159384
0.00018942
0.0129594
0.0033064
0.00015989
0.00119247
0.000171935
0.000158029
0.000147221
0.000678857
0.000186302
0.000216069
0.000165968
0.000149585
0.000561229
0.000196847
0.0222182
0.000331988
0.0726263
0.00307044
0.0872172
0.0680101
0.000158366
0.00015897
0.000148831
0.000148837
0.000144996
0.000274041
0.000159191
0.000160197
0.120901
0.000148288
0.000147172
0.000172932
0.000251337
0.000160555
0.000147458
0.0382083
0.000154444
0.000177817
0.000149228
0.0447132
0.000157376
0.00105387
0.000167725
0.000168892
0.000174194
0.000148816
0.0146738
0.000392364
0.000189719
0.000148744
0.000147362
0.00491753
0.096307
0.00113443
0.000147764
0.000190234
0.000414236
0.00014875
0.000148125
0.000148787
0.00110841
0.000172893
0.00016417
0.000157334
0.000157373
0.00063422
0.00018785
0.000327157
0.000156868
0.000167054
0.000144958
0.000193582
0.000176637
0.000148795
0.000680738
0.117551
0.00302612
0.000675791
0.0577561
0.138343
0.0336395
0.0001514
0.000147688
0.000874
0.0364358
0.0304685
0.000148847
0.00017429
0.000148783
0.000148573
0.000475218
0.00407462
0.000190846
0.000148359
0.00036698
0.000212925
0.000179896
0.00469305
0.0806348
0.000349414
0.000147388
0.00141319
0.000431775
0.0131306
0.000164148
0.00017601
0.000149425
0.000147528
0.00017184
0.000176623
0.000154187
0.000173283
0.000160526
0.000154601
0.000321043
0.00363992
0.000159557
0.000174604
0.00564194
0.000304749
0.000148797
0.000195381
0.000247559
0.00384287
0.00017255
0.000149089
0.000163153
0.00015848
0.000158924
0.000145725
0.00015922
0.000164182
0.000178022
0.000229384
0.000149492
0.000151655
0.00312619
0.000724034
0.0389123
0.00039929
0.000224419
0.000144598
0.000148706
0.000164379
0.000146601
0.103122
0.000148771
0.000149802
0.000146239
0.000684937
0.0348149
0.000149956
0.000190093
0.000159951
0.000162192
0.000163826
0.000160061
0.000174218
0.000169035
0.00902272
0.000157944
0.0193279
0.000169188
0.0580339
0.000162581
0.000147499
0.000147136
0.000213073
0.000254808
0.000146933
0.000163811
0.000163027
0.000181271
0.000573354
0.0342862
0.000552432
0.000149801
0.000907169
0.000159152
0.000165752
0.000148683
0.000188194
0.000152615
0.00350368
0.000330032
0.000167435
0.000148804
0.00070524
0.000155875
0.00417961
0.0232352
0.000326231
0.000153721
0.000239678
0.00058894
0.000498548
0.0021444
0.000183588
0.000148273
0.000169213
0.000147736
0.135012
0.000154123
0.000165011
0.000368446
0.0844894
0.0001481
0.000148411
0.0937254
0.000172606
0.136818
0.000159046
0.000148674
0.00017478
0.000305222
0.000163028
0.000463159
0.00016563
0.000452205
0.000156054
0.000149584
0.000148285
0.00361482
0.000150529
0.000190673
0.000148906
0.000148522
0.00137765
0.000157474
0.000148936
0.00014846
0.000165959
0.000432954
0.000174962
0.000172369
0.000155342
0.000185563
0.000148853
0.000228198
0.000164646
0.000176523
0.00016763
0.000157816
0.000178129
0.000163594
0.00014762
0.000193195
0.0385973
0.0031195
0.000148984
0.03627
0.00391128
0.000148551
0.000150608
0.000243577
0.00522968
0.000156391
0.00362916
0.00405177
0.00014888
0.000204476
0.00014496
0.000157771
0.000187016
0.0940644
0.000213113
0.000347379
0.000387093
0.000672966
0.00306406
0.000152766
0.0027988
0.000148741
0.000443456
0.00469322
0.000148836
0.000148438
0.00300273
0.000149273
0.000148824
0.000363478
0.000786854
0.000306963
0.000157348
0.00611295
0.000148581
0.000714353
0.00347228
0.000149197
0.000387273
0.0977882
0.0403573
0.00293337
0.00314577
0.00305614
0.000147575
0.000151509
0.000188119
0.000191546
0.000148818
0.000308153
0.000148706
0.00285869
0.000352744
0.000164861
0.000336089
0.00261714
0.000348688
0.00031903
0.000165955
0.0399976
0.0328506
0.000156202
0.000145309
0.000444502
0.000162142
0.000146932
0.134283
0.000148667
0.000450728
0.000149353
0.00190039
0.000156323
0.000148633
0.0133215
0.00015608
0.000160946
0.00331755
0.0195116
0.00543116
0.000159129
0.000175063
0.000151599
0.000171404
0.000239342
0.000173057
0.000149352
0.000309069
0.000189118
0.000162562
0.00341105
0.000174649
0.000163064
0.000193181
0.000196662
0.00017651
0.000148612
0.000285951
0.000147158
0.000237795
0.000377276
0.0080988
0.000147343
0.000171319
0.010112
0.000152387
0.000185599
0.000162396
0.000173987
0.00106449
0.000188957
0.000151883
0.0531917
0.00014738
0.000693851
0.000148839
0.000151692
0.000235729
0.000968941
0.00016284
0.00019099
0.000238986
0.000163771
0.000149342
0.00017954
0.000175848
0.113441
0.000155312
0.01215
0.000252823
0.00016312
0.000163108
0.000184288
0.000168284
0.000168442
0.000188825
0.000163384
0.00015459
0.000149107
0.0576617
0.000148891
0.000161911
0.000145007
0.000222637
0.000162582
0.000188561
0.00403657
0.00015127
0.000306397
0.000144313
0.0001494
0.000149188
0.000149323
0.000157266
0.00014801
0.000205049
0.0159544
0.0001881
0.000178199
0.000155703
0.000148645
0.000368281
0.000148813
0.000547765
0.000569615
0.0475727
0.000251466
0.000165179
0.000158523
0.000149125
0.000158255
0.000171288
0.000171324
0.0128266
0.000187592
0.124418
0.000254539
0.000149342
0.000147058
0.00307163
0.000148383
0.000163265
0.000166846
0.00289802
0.000152574
0.00128116
0.000149083
0.000156689
0.000148785
0.000150344
0.000179303
0.00022047
0.000149364
0.000164392
0.000159766
0.000178903
0.00018646
0.000234667
0.000208392
0.00217107
0.000243971
0.000156168
0.00015151
0.000185741
0.00103926
0.0121343
0.000770716
0.000164867
0.000664221
0.000219201
0.000151145
0.00014827
0.000189254
0.000148945
0.000163555
0.0279387
0.000148534
0.000147467
0.0506097
0.000507454
0.000178253
0.0609098
0.000149283
0.00447477
0.000171264
0.0507474
0.000157564
0.000148762
0.000729172
0.000165557
0.000148973
0.000174769
0.000149651
0.000215526
0.000162035
0.000164825
0.128118
0.000160036
0.000639057
0.000148095
0.107479
0.000149327
0.000157981
0.000150038
0.000174587
0.000148874
0.000167225
0.000702977
0.000230021
0.00018035
0.000162118
0.000169127
0.000148047
0.000149987
0.00015181
0.000422264
0.000156433
0.00258988
0.00512691
0.000217419
0.000149377
0.000231329
0.000464328
0.000253836
0.000156
0.015588
0.000148625
0.000144565
0.000148523
0.100676
0.000148854
0.000148916
0.000749173
0.000148576
0.000268333
0.000173388
0.000147399
0.00104625
0.000158158
0.00220322
0.000148205
0.000447776
0.000151147
0.000167794
0.0381065
0.00019223
0.000148365
0.000158215
0.000572384
0.000163488
0.000236678
0.000165282
0.000157781
0.000205873
0.00015876
0.000149765
0.0195001
0.000162795
0.000158894
0.000255578
0.000148628
0.000147703
0.000149189
0.000161036
0.000149327
0.000155475
0.000665067
0.0165993
0.000172429
0.0152631
0.000188661
0.000164229
0.0888215
0.108873
0.000150059
0.0332189
0.117093
0.0032672
0.0877262
0.000164992
0.000562001
0.000802733
0.0478925
0.0904982
0.00515158
0.000163602
0.000170691
0.000158044
0.000156765
0.000149535
0.00152369
0.000149889
0.0178584
0.000176413
0.000207771
0.000144873
0.000197145
0.000164417
0.000152169
0.000149953
0.000148673
0.000175596
0.000153177
0.000149647
0.000171657
0.1093
0.000154547
0.000220678
0.000146994
0.000175379
0.000170294
0.000149405
0.000156814
0.000147998