/*--------------------------------*- C++ -*----------------------------------*\
| =========                 |                                                 |
| \\      /  F ield         | OpenFOAM: The Open Source CFD Toolbox           |
|  \\    /   O peration     | Version:  v2012                                 |
|   \\  /    A nd           | Website:  www.openfoam.com                      |
|    \\/     M anipulation  |                                                 |
\*---------------------------------------------------------------------------*/
FoamFile
{
    version     2.0;
    format      ascii;
    class       volScalarField;
    location    "450";
    object      ddt0(k);
}
// * * * * * * * * * * * * * * * * * * * * * * * * * * * * * * * * * * * * * //

dimensions      [0 2 -3 0 0 0 0];


internalField   nonuniform List<scalar> 
13851
(
-1.91523e-05
-3.86487e-07
-1.77071e-07
0.0010283
-3.45405e-07
-3.91129e-07
8.61652e-07
-5.33929e-07
0.0015885
-1.08526e-07
8.68977e-07
-2.34023e-07
-1.9967e-07
-0.00191087
-2.20286e-06
-7.31845e-05
0.00955263
-4.5e-07
-7.66209e-05
-2.03005e-05
-2.89926e-06
-5.18545e-07
0.0158559
-5.98826e-08
-7.36737e-06
-5.48074e-06
0.0143973
-0.0304144
0.015811
-4.44211e-07
0.0145976
9.02891e-07
-2.30508e-05
-0.0133826
-3.68081e-07
0.0195165
-1.15906e-08
-0.000105447
0.0100843
-8.02351e-07
-0.0213802
0.0176951
0.00280145
7.34202e-07
0.0154187
-7.65229e-07
1.60536e-07
-6.31005e-05
-6.0897e-07
-1.09642e-07
-0.00557194
-1.02858e-07
-7.86708e-05
4.57201e-07
0.000457214
-7.98322e-07
-2.10619e-05
-0.0201895
0.0262916
-0.00602026
-2.33489e-07
0.0147251
-5.76272e-08
-6.76055e-07
-2.70589e-07
1.8934e-07
-0.0050595
1.70581e-06
-5.0329e-07
0.0014989
0.0137967
-4.63605e-06
-4.43347e-07
-0.00546615
-6.46178e-07
-4.34389e-07
0.0106577
-3.30535e-07
-8.74412e-06
-4.12689e-07
-4.89274e-07
1.03474e-05
-5.07005e-07
-0.00269155
-0.00610345
0.0153768
-5.88908e-07
0.00476277
-1.73134e-07
0.0138886
-5.55796e-08
8.52105e-07
-0.00173008
0.0131411
-0.0120012
2.88714e-06
-7.1092e-07
-9.19948e-05
-0.00609198
2.67012e-06
-9.67328e-05
-7.08428e-07
3.36951e-07
-4.27521e-07
-6.30173e-07
-3.86142e-06
-6.85147e-07
0.014624
7.96094e-07
-4.99799e-07
-5.3273e-07
-7.45158e-07
5.26641e-06
-2.42216e-06
-2.67512e-05
3.64903e-07
-4.46973e-07
-5.27515e-07
0.000821715
0.000285889
-5.85537e-07
-4.77671e-07
-6.43052e-07
-0.00809353
-9.39551e-05
1.25291e-06
-7.70562e-07
-3.74904e-07
-0.0130851
-4.06345e-06
-5.30995e-07
-1.04405e-06
0.000163532
-0.0122877
9.78239e-07
0.0020006
1.58433e-06
0.0135148
1.00728e-06
-3.68308e-06
1.0599e-05
-5.45269e-07
-1.62558e-07
1.23756e-06
0.000382091
-3.9864e-07
-3.18036e-07
0.0123012
0.00615435
-5.2088e-07
-0.000132425
5.45953e-06
-2.3351e-06
1.28631e-05
-2.49252e-07
-4.81048e-08
-2.04373e-07
0.0159516
-3.14015e-06
4.92449e-07
-8.16561e-08
0.0179574
-4.08547e-06
-5.02811e-05
-0.00164814
0.00319077
0.0033958
-0.00764284
-5.3501e-07
-0.0293009
-2.0402e-07
-4.73321e-07
-4.71177e-06
-2.94249e-07
-0.0102891
-0.00107085
0.000180775
-4.798e-07
-2.48366e-07
8.11875e-05
-1.74844e-05
1.28033e-06
-4.51536e-07
-3.93267e-06
0.00500045
0.00652643
-2.2694e-05
7.55703e-08
-2.52351e-07
-5.10905e-07
0.000104529
-3.30962e-06
-0.00185321
-4.07678e-07
-4.05203e-07
-8.25154e-05
-2.24459e-05
5.948e-08
-4.99174e-07
1.64291e-06
1.12206e-05
-0.0216855
-0.0215341
-2.22427e-06
7.22892e-05
-0.0202625
-1.09714e-07
-3.43708e-06
0.000253747
-5.75331e-07
-5.85365e-05
-6.45165e-07
1.15939e-05
4.94808e-09
-4.88262e-07
-4.71265e-07
-1.10322e-07
-0.00212549
-3.16117e-07
-4.36551e-05
-4.49193e-07
-8.03787e-06
-0.00253456
-0.00422172
1.19888e-07
-3.5438e-06
-1.46605e-09
3.06192e-07
-3.22722e-07
-3.46184e-07
-0.00381914
2.39411e-08
-5.59235e-07
-2.06615e-08
-0.0202611
-4.41996e-07
-0.0697837
-0.0218372
2.15638e-06
-3.42279e-08
-5.53096e-05
-0.00561234
0.016973
-4.62274e-05
-1.41483e-06
1.52099e-06
-0.000624222
-9.48802e-08
2.89143e-06
-5.77876e-07
0.00197834
-1.11874e-05
-4.5871e-07
-3.23395e-07
-9.1363e-05
0.0169863
0.00719247
-4.98578e-07
2.52911e-06
-1.59301e-07
-0.000758518
-5.12667e-05
-3.32218e-07
-4.21358e-06
-1.12691e-05
-4.7676e-07
1.09633e-06
-3.04129e-05
-0.0272791
-1.59199e-07
-7.66641e-08
5.84033e-08
-0.00269616
0.000121663
-3.74014e-06
-4.39621e-07
-0.000285755
1.05576e-05
-2.16947e-05
-3.97465e-06
-0.00272863
-0.00609781
-3.65048e-07
-1.73575e-06
-0.000294766
-6.34416e-07
-2.0383e-07
-2.05654e-05
5.88663e-07
-4.37929e-07
-5.36857e-08
-3.66927e-07
-4.28277e-07
-1.44913e-06
-2.11331e-07
0.00104223
-3.37934e-06
-8.42895e-07
0.0177579
-0.00737618
-1.88292e-07
-2.25602e-05
-0.00468906
-4.99336e-07
-1.28324e-07
-3.81431e-06
-0.00335483
-0.00305044
-6.12837e-06
-3.65617e-07
-0.0296978
-2.04552e-07
-6.39719e-06
-0.00669766
-0.0255167
4.3817e-07
2.82185e-06
2.32721e-05
0.012239
5.57268e-06
1.17227e-06
0.00885863
-0.00989188
-0.0307019
-5.18643e-07
0.00831394
0.00214415
1.65737e-05
1.18412e-05
-1.92698e-07
-5.28749e-06
-1.41026e-07
0.00507824
-1.42071e-06
-4.68382e-07
1.03108e-07
-6.63126e-07
0.0134651
1.47018e-05
-6.03165e-07
-0.00743375
-9.73669e-08
-9.63989e-07
5.00318e-07
-0.00279801
-0.000172248
-8.00129e-05
-4.30365e-07
-5.75811e-07
0.0250894
-2.72357e-07
1.35358e-05
-4.87194e-07
-3.82384e-06
-4.76408e-08
-1.70934e-07
-8.32239e-07
6.2629e-06
3.50401e-06
-1.25573e-05
0.00010777
0.0255626
-3.69067e-07
-0.0205934
-0.0090551
-3.04094e-07
-0.0256964
-1.1647e-05
-0.00779847
-6.29965e-07
-3.35407e-06
0.0261877
5.16389e-05
5.88387e-06
0.00425813
-6.16284e-07
-0.00265135
0.00177197
-9.71638e-07
0.00350547
-1.51241e-06
-0.023869
-1.8858e-06
6.30879e-07
-1.03715e-05
6.52899e-06
-6.23967e-08
-4.70355e-07
5.6927e-07
-2.57367e-07
-7.96738e-07
-3.72991e-06
-0.0160128
-4.50747e-07
-3.58081e-06
-1.9257e-05
-4.91545e-07
-3.9515e-05
-1.52533e-06
-0.00394578
-7.01029e-07
-2.90572e-06
1.66378e-05
-0.000121884
-3.33202e-06
0.00539968
-0.00487766
2.90377e-05
-4.84668e-07
5.81685e-06
-1.51703e-06
-4.81452e-06
-4.72883e-07
0.00383356
-0.0213605
9.36771e-06
-5.45194e-07
-1.07726e-05
0.0100377
1.0274e-05
-9.20733e-08
0.0064399
9.33889e-06
0.0092673
-7.16237e-07
-0.0473046
-1.88986e-07
-2.99206e-07
0.000102225
0.00747765
-1.14754e-07
-3.64115e-07
-3.71877e-06
-4.72328e-07
-0.0218911
-5.70187e-06
-1.104e-05
7.74357e-08
-7.0562e-07
3.54125e-08
6.18958e-05
-8.50513e-07
4.92337e-08
0.0299413
-0.0168568
-5.06714e-07
0.0250655
-6.62524e-09
-2.27187e-07
-5.78798e-07
-1.21922e-05
-7.02927e-07
-7.76843e-07
-2.58678e-07
1.43973e-06
-5.06928e-08
0.0011892
-2.53226e-07
1.10702e-08
0.0149846
-2.30732e-07
-2.20918e-07
-1.82776e-07
2.39978e-07
2.02241e-07
5.77611e-05
0.0294271
-1.69977e-06
0.000150371
-5.18634e-07
-2.6331e-07
-0.00877679
0.0249704
3.10465e-07
-5.78158e-07
-0.00894523
5.21467e-07
0.000742477
-3.99198e-07
-8.98423e-07
5.83706e-06
-1.24884e-06
-0.0109258
0.0111537
1.59016e-05
-3.27986e-07
5.82032e-06
-5.72124e-07
0.0149653
-1.39595e-06
-2.25767e-05
-1.52012e-06
-4.01027e-07
-2.22375e-07
-5.00866e-06
-3.2753e-07
0.00083111
-0.00841234
0.00157159
-0.00068928
0.0291478
0.0154133
-7.73241e-05
-3.65214e-08
6.64387e-09
0.00106937
-8.51433e-08
-7.45554e-07
1.31082e-07
-0.0135319
-1.9427e-07
-4.75749e-07
-5.19313e-07
-2.47868e-06
1.09688e-08
-0.00288523
-6.23935e-07
-0.0124796
5.97822e-05
-4.2069e-07
7.47642e-08
9.46577e-06
-0.0274368
-4.40389e-07
-2.58171e-05
0.0166179
2.81515e-08
0.00282371
-8.16724e-05
-2.07896e-05
-3.41602e-07
0.0290517
-0.00749226
2.65088e-08
7.65655e-06
-5.28114e-07
-6.40747e-07
0.0386544
-0.0243805
-2.16238e-06
-7.11079e-07
-6.37096e-08
-4.58265e-06
-0.013348
0.0232305
-1.28814e-08
0.0113612
-8.14127e-07
-4.90651e-07
-3.61862e-06
3.46429e-07
-5.43744e-08
-4.3577e-07
0.00241866
5.94392e-06
0.00440624
-1.39556e-07
-1.88758e-07
-0.00116724
-3.48392e-08
6.42078e-06
-1.01387e-07
-9.31163e-07
-1.42919e-06
0.019921
-0.00782934
-6.14711e-07
0.00444548
2.93941e-07
-4.71468e-06
0.0176782
0.00129948
-7.35091e-07
-5.23915e-07
1.57404e-06
0.0044838
0.0231498
-4.24608e-06
0.022285
4.7902e-07
-1.56168e-06
0.00209812
0.000936649
7.53221e-07
-0.01136
0.0018999
0.0242584
-5.29296e-07
0.0272038
-0.0274022
-2.07761e-07
-0.00370488
-0.00701603
-5.99246e-07
-4.20038e-06
-7.69305e-07
-2.38158e-05
-4.07208e-07
0.0119634
-7.91589e-07
-2.18453e-07
-4.32575e-08
-2.19714e-06
-2.59056e-07
-0.0139119
-2.21107e-07
0.000910879
-2.99752e-07
-4.92816e-06
-4.8087e-07
8.92167e-09
-9.39902e-07
0.0115667
-3.056e-06
-0.00375572
-1.13637e-06
-4.56674e-07
-2.71653e-07
-4.85883e-06
-2.68538e-07
-1.97044e-06
-2.23686e-07
2.5455e-07
0.0287847
3.60677e-08
0.00608899
-3.1903e-10
-1.88067e-05
0.00583527
0.00882213
-4.95467e-07
0.00739686
-6.26145e-07
5.80821e-06
-0.00581742
-2.3991e-08
-0.00196243
-1.89276e-07
-1.08219e-06
-0.00063346
-2.84966e-05
-2.93746e-07
-1.73717e-06
4.72376e-08
0.0223803
-0.00759941
-4.76614e-07
1.51005e-06
-0.0263082
3.04901e-09
-1.69983e-09
-4.44946e-06
0.00487022
0.0290874
-1.19188e-07
-8.30259e-06
-1.18775e-07
-3.14445e-08
0.0304131
-8.45604e-06
2.78034e-06
-6.89528e-08
-3.03369e-05
-9.00001e-08
-2.37421e-06
-1.6946e-07
-4.28036e-07
-7.25117e-07
-7.34424e-08
-3.45795e-05
-4.39861e-06
-4.54185e-06
-2.49876e-07
-0.000138015
5.3552e-06
-0.000302591
0.000120723
-7.00655e-05
-0.00221088
-6.39291e-07
0.0381452
-1.03149e-05
-4.7089e-07
-1.15821e-06
-3.3342e-06
-7.52168e-07
-3.93475e-07
-3.45791e-07
-2.30628e-05
0.00338165
7.97934e-08
-0.0207535
-4.8829e-07
0.0274485
2.47993e-07
-0.00429383
-6.70147e-07
-5.76804e-07
-1.49362e-07
-0.00630629
2.87583e-06
-6.64478e-07
0.00824951
-5.87314e-07
0.000702861
-2.05725e-05
0.00105481
-9.46622e-07
1.19022e-05
-1.90197e-07
7.39684e-09
-1.59449e-07
-3.15684e-08
0.0156882
-4.27201e-07
0.0310869
-0.00179608
1.92174e-07
0.019669
-0.00765922
0.00119436
5.53386e-06
2.55225e-08
9.29395e-08
-7.38577e-08
-3.45758e-07
-3.18963e-07
-2.45561e-07
-5.2634e-06
3.33112e-06
-9.15065e-08
-0.0301813
-3.19293e-07
0.000820109
7.62127e-08
0.000877467
-3.76053e-07
5.41428e-08
5.6335e-09
0.00711008
-5.15693e-07
0.0124539
-0.0073732
-3.67628e-06
-8.34346e-06
1.27298e-07
-0.0131595
-3.01278e-07
-1.91272e-07
0.0297013
6.90516e-08
-4.94824e-07
-1.26768e-07
-1.83075e-06
0.00312672
-8.19934e-07
-1.30851e-06
8.44556e-06
0.0238895
8.50996e-08
-2.83847e-07
0.0210619
-3.40402e-07
0.0211756
-1.52909e-07
-2.32235e-08
-3.64715e-06
-1.33089e-05
-2.52387e-05
2.61025e-06
-3.21679e-06
3.80092e-08
8.17648e-08
-4.80988e-06
-5.44736e-07
6.94972e-08
3.38675e-08
6.58244e-06
-3.49245e-07
5.59074e-06
-0.000390361
0.0181986
2.43036e-06
0.00924904
8.92182e-07
7.08981e-08
4.78726e-06
-4.60892e-07
-4.46671e-07
0.000491758
0.0270944
-0.00277486
0.0226224
-4.71554e-07
-4.78412e-07
-5.14405e-07
-4.51891e-07
-5.10748e-07
0.0107044
-0.000992932
0.00306776
-1.96931e-05
-1.2496e-05
-5.07675e-08
-4.44752e-07
-0.000394869
-1.03745e-05
-1.58206e-07
4.83514e-08
-2.56228e-05
6.75408e-06
-0.0217994
-2.25264e-07
-1.52325e-07
0.00186487
-1.46976e-07
-1.57893e-06
-4.55414e-07
-0.0164553
-3.75865e-07
0.00667827
-2.82006e-08
1.13729e-06
-2.74927e-06
-3.40992e-07
-1.14378e-06
-3.97048e-07
-3.26496e-07
-3.22787e-07
0.0325801
-3.15517e-07
0.00931786
-7.47915e-07
-0.0113008
-0.00740436
-9.43317e-07
-4.14623e-07
-7.24854e-05
0.0265356
-4.78578e-07
-1.27958e-05
-7.70758e-08
0.00450646
-5.24188e-07
4.47059e-06
-2.08339e-07
-3.1998e-07
0.0136123
-1.34166e-06
-1.87825e-07
3.1711e-07
-0.0166339
1.83855e-05
-0.0264229
-5.21585e-07
-0.00198548
-1.57901e-07
-3.41606e-07
-2.68713e-07
8.84862e-08
-2.42931e-08
-0.0302978
-0.00406485
-4.94236e-07
-2.27714e-07
-2.38443e-06
-7.37866e-07
0.000137563
5.31095e-06
-0.00222449
0.0145676
-3.23404e-07
-3.64692e-05
-2.11496e-07
-2.99584e-06
9.23442e-08
2.93593e-08
-9.7432e-08
6.95015e-05
-0.0083578
-8.27612e-06
0.00468621
-6.72614e-06
-9.14052e-08
-1.88411e-06
-1.36931e-05
0.0124928
-1.25825e-06
0.0175437
-1.06834e-05
-7.22021e-08
0.0221675
0.024725
0.00490161
5.40002e-05
0.0390116
-3.33816e-07
1.27777e-06
4.14776e-08
-0.0142539
-6.77423e-07
-4.66e-07
-0.0280108
-3.60689e-07
-3.724e-07
-7.2026e-07
-4.14443e-07
-0.0161669
-4.2668e-05
-5.23921e-07
-2.09045e-06
-0.00280688
-5.25086e-07
0.00407281
-4.02585e-07
-1.03722e-05
-0.0244052
-2.5828e-07
0.0274674
-7.35453e-07
-1.03955e-06
1.45798e-05
-3.49148e-07
1.07195e-05
-2.61305e-06
-0.0181849
2.68938e-07
0.00691413
-7.81407e-07
-0.00637354
0.00711015
0.00512732
-3.40401e-06
-3.42477e-07
-4.57689e-07
-6.02128e-09
5.25909e-07
-4.17271e-08
-0.0118124
-4.04706e-07
-3.27232e-08
6.58909e-08
-3.90382e-07
-5.14995e-07
9.10262e-07
-7.37687e-07
7.43055e-08
-5.60179e-07
-0.0149672
0.0320141
-1.34473e-06
-8.751e-07
-0.0284528
-5.11501e-07
0.0120993
-3.6216e-07
-6.4967e-07
-3.01486e-07
-4.97177e-07
-7.46617e-07
-2.8555e-07
-5.45204e-07
2.37397e-06
-4.59228e-08
7.22421e-06
-3.76993e-07
-0.00299436
-0.0315334
-0.000158989
6.35876e-06
-2.61764e-07
0.0202067
-4.73468e-06
-4.50484e-08
-6.86048e-07
-4.77177e-07
0.00973289
-3.54038e-07
5.12812e-07
-0.0246336
-0.000223156
-2.25507e-07
-5.16108e-07
0.0182619
-0.0236862
0.0388972
-6.92241e-07
-4.60668e-07
2.11891e-08
-6.1752e-06
-2.53555e-07
-0.00635641
6.07248e-06
1.24446e-08
-0.00592813
8.40057e-06
-1.85128e-07
-0.0157576
0.00603642
-0.000609842
-7.30914e-07
0.0202027
-5.23617e-06
-2.85898e-07
0.00192364
-2.46348e-07
-4.18847e-07
-5.20633e-07
-3.14523e-07
2.01237e-07
-0.000319576
0.0163069
-1.78625e-06
0.00215949
-1.09795e-06
-2.15249e-07
-8.61996e-07
-3.37125e-07
8.78559e-05
-3.05909e-08
-3.10565e-07
-3.4668e-07
-6.1974e-07
-0.00441145
0.00551747
0.0187806
-0.0074997
-0.0178113
2.70692e-09
-5.55691e-07
-3.81855e-07
9.77853e-06
1.23724e-08
-8.26987e-07
-4.18883e-07
-5.93011e-06
0.00717834
-1.76164e-07
-8.30636e-07
-1.38437e-06
-1.34845e-05
0.00236709
2.62459e-08
-1.78543e-08
4.1914e-07
5.47736e-06
1.73809e-07
-0.014266
-4.24113e-07
-1.51777e-07
-3.49295e-07
-5.66323e-07
-4.54424e-07
0.000174884
0.0259304
0.00618517
5.29087e-08
-2.41018e-07
0.000318344
2.60466e-07
-0.048239
-0.00967621
3.9253e-09
0.0122502
0.0158925
0.00473974
-2.60514e-06
-1.27666e-06
-0.00241377
-1.25431e-06
-3.24151e-07
-1.23212e-07
6.12043e-06
-5.0046e-07
3.41908e-05
-2.0122e-07
0.00494704
4.34608e-06
-3.6906e-07
-3.30343e-07
-9.26987e-07
1.0166e-05
-1.75201e-06
-2.01191e-07
-2.79329e-07
-2.16335e-07
1.51885e-07
-5.22056e-06
5.59286e-08
0.0249232
0.00317644
-2.13892e-07
-1.17771e-06
-1.77785e-08
-1.99463e-07
0.0261393
-0.00101765
0.015007
0.012478
-2.97777e-07
-5.15755e-07
-7.94182e-07
-3.22574e-07
0.0225672
-1.85599e-06
-2.43678e-09
-6.40563e-06
-1.10426e-07
-0.00990602
-2.74699e-06
-0.00333743
-1.86456e-07
-4.88201e-07
-1.08384e-06
-9.91147e-06
-6.84989e-06
-4.07074e-07
0.000946404
-0.0087686
0.0101831
0.015111
0.00396762
0.00244852
-0.0057537
-3.37625e-07
-2.11292e-07
-2.19606e-07
0.0216419
-1.21719e-06
-6.2508e-06
0.00280097
2.25349e-07
-3.82653e-07
-6.95996e-08
0.000554736
-3.08435e-07
-2.75348e-07
-3.97644e-07
0.0239157
-5.30481e-07
-4.65319e-07
-1.40316e-07
-7.86877e-07
-2.08207e-07
-8.65969e-08
0.0189632
-3.57795e-07
-0.02344
-1.87666e-07
-6.01661e-07
-0.0122373
-0.00846786
0.00278067
0.0243612
7.99905e-07
0.0299493
-4.62415e-07
-5.687e-07
-4.67167e-07
-6.54189e-08
5.07805e-07
0.00921226
-7.06644e-08
-1.01393e-05
-2.4407e-05
1.40373e-07
-5.73547e-07
-7.49552e-08
0.000363399
4.07714e-08
0.0246963
-1.08024e-07
0.0105935
4.91791e-09
-5.18227e-07
-4.89769e-07
2.26992e-07
-1.98157e-07
0.0126741
0.0153159
-4.76778e-05
-0.011449
-1.63679e-07
0.0127983
-0.0141069
-1.73677e-07
3.9574e-05
-2.88728e-07
-6.16762e-07
-2.5457e-07
4.12454e-07
-3.55656e-07
3.39587e-08
-4.78183e-07
1.20743e-08
-6.98529e-06
-5.26125e-07
-2.0533e-09
1.62442e-06
-1.76008e-07
-0.000989759
-1.74311e-08
-1.13656e-06
-8.24976e-07
-0.00746824
-0.0334299
6.37788e-09
1.87212e-05
-4.47231e-07
5.29407e-07
-5.95867e-07
0.0257534
-3.68124e-06
3.01071e-08
-2.94231e-05
-4.78321e-07
-1.08127e-05
-0.0304522
-2.70571e-07
2.69e-06
-4.69303e-06
-7.63058e-06
-4.91164e-07
-4.65471e-07
0.0154118
-5.2153e-05
-7.00954e-07
-2.81479e-07
0.00303187
-4.92493e-07
-2.99488e-06
-3.09373e-07
-3.43835e-07
9.40756e-05
1.56644e-07
0.00157796
-6.17471e-07
-1.38644e-07
-5.3459e-05
-4.57883e-07
5.12027e-08
0.014341
-2.44887e-06
0.015829
-3.78797e-07
-7.82576e-09
-7.16128e-07
7.3512e-09
2.39997e-08
-6.60273e-08
-4.26361e-07
-6.42368e-06
1.69625e-07
-5.05371e-07
-8.38251e-07
-5.02193e-07
-2.58584e-07
1.06893e-08
-1.66216e-07
0.000206418
-1.20608e-07
-4.74114e-07
0.0232104
-4.85233e-07
-3.03348e-07
-0.00494351
3.02965e-08
-0.00263614
-7.71638e-09
0.000887997
-0.00059442
4.13362e-07
-0.000293853
4.3274e-07
-8.78265e-06
-3.38919e-07
7.51036e-06
-7.10257e-07
-4.8746e-07
-7.82294e-07
-3.27906e-07
-1.21768e-06
-7.68533e-07
-1.99489e-07
-4.03336e-07
-5.51855e-07
0.00290887
-0.0063361
-0.000143738
4.71081e-07
1.42815e-06
-0.010443
-0.00263935
5.3488e-09
-2.45865e-07
4.17376e-05
-2.68378e-07
-8.06718e-07
0.000161488
0.0074985
-1.09791e-08
-2.71637e-06
-4.50756e-07
6.97388e-06
9.08356e-08
-3.27559e-07
-0.0389484
-5.9053e-07
-5.70464e-07
0.000998706
-1.21724e-06
0.0196931
-0.0125012
-2.41779e-05
-4.78018e-07
-4.05778e-07
-5.2142e-07
0.0137796
-0.0197323
-0.0252331
3.52886e-09
-3.71287e-08
-0.0122752
-9.50863e-08
6.57276e-06
2.44444e-08
3.93634e-07
-3.09772e-06
-2.10787e-07
-0.00750091
-0.012145
3.50878e-07
-6.72187e-06
-1.17338e-06
1.35497e-05
-1.5884e-06
-3.42779e-06
0.0216417
-9.78325e-07
0.0298468
-4.91229e-06
-3.64045e-08
-1.29944e-06
-1.24141e-07
0.027425
-3.10409e-07
0.019
-1.70445e-06
-2.64036e-06
3.75197e-08
-0.0140084
-2.45521e-07
-3.8455e-07
-5.6788e-07
-7.14759e-07
-6.87925e-07
-3.23245e-07
-3.22259e-07
-4.96852e-07
-2.97935e-07
-0.00229673
5.7059e-07
2.81162e-08
-2.45917e-07
-1.41914e-06
-1.89032e-07
-2.39158e-08
8.30689e-07
0.000733018
-9.5436e-07
0.00982612
3.10267e-07
-0.00559609
1.01049e-05
-3.43415e-07
1.22375e-05
-1.16607e-07
-5.47516e-07
-1.05346e-06
-1.82274e-06
-4.62646e-06
-2.57386e-06
-8.17568e-07
-8.5734e-07
-9.22229e-07
-3.3778e-07
-2.71595e-07
-3.12292e-08
-2.17944e-07
-1.10965e-07
-0.0322359
-6.74765e-07
-5.32476e-07
-3.80303e-07
0.00572512
9.4644e-07
-4.42882e-07
-2.28833e-07
-1.41197e-07
-0.00362099
7.20997e-06
-1.02853e-06
0.0167781
-0.0326128
2.87339e-05
-8.3415e-06
0.0300407
-4.92459e-07
-1.99518e-06
-8.18418e-07
1.21725e-08
0.000166809
0.0269103
8.60311e-06
5.17974e-05
1.66545e-09
-0.00315712
-4.90031e-07
-1.3836e-05
-2.99535e-07
0.0345152
-0.0295385
7.94351e-07
-3.53985e-07
8.84053e-06
-5.83295e-07
-2.80087e-07
0.0150014
1.92279e-08
-4.40941e-07
-1.76147e-07
-1.83368e-07
-8.60975e-07
-1.73232e-07
-7.69053e-08
-5.63398e-07
1.37453e-05
-2.59098e-06
6.3656e-07
-3.21632e-07
-0.00747949
0.0286983
-3.83351e-07
0.0166928
-2.69435e-07
7.30702e-08
-0.018346
-3.47224e-07
-5.94696e-07
-1.20551e-07
-0.0142936
-2.68185e-07
-1.40257e-07
-2.09666e-06
0.0388384
-3.68576e-07
-3.59444e-07
-7.64321e-07
-0.0304388
-1.16994e-06
-1.73217e-06
-0.00775865
9.7396e-09
2.01543e-06
-3.99561e-07
-0.00558761
-7.17857e-07
-6.17702e-08
5.24688e-07
3.00029e-06
-1.80473e-07
-2.82664e-07
-1.26839e-05
0.02955
2.54675e-07
-0.00442958
-1.03348e-07
-3.8651e-07
-5.16925e-06
-3.18474e-07
-1.13332e-07
-0.0143177
5.28972e-08
-2.70836e-06
-5.90949e-05
0.00657082
-0.0297071
3.56778e-08
-1.65007e-07
7.89637e-09
-2.48836e-07
-2.72699e-07
-1.40134e-07
0.037249
-1.73715e-08
0.017976
-2.35612e-05
-5.72575e-07
-2.46893e-07
-9.26475e-07
-2.33576e-05
0.019304
-6.31037e-07
1.76176e-07
-3.87005e-07
0.00182206
-3.1813e-07
7.86707e-07
-2.54883e-06
-6.91787e-07
-5.13472e-06
0.00230055
1.16911e-07
0.0101907
-0.0123443
-0.00105956
-2.57923e-07
-7.74283e-07
-9.46248e-07
-3.19474e-07
-4.01057e-07
1.92581e-07
-5.99619e-08
-6.40979e-08
-4.5532e-07
-2.58458e-07
-3.82431e-08
2.72117e-07
-3.87039e-07
0.00995662
-3.76274e-07
-3.38085e-05
-2.30083e-07
-3.95767e-07
-5.04504e-07
-2.20916e-05
-7.04911e-07
-3.09355e-07
-0.0033155
-1.72796e-07
-2.57984e-08
-2.44e-06
-4.73205e-07
-2.86412e-07
-3.94645e-07
0.027617
-5.016e-07
-2.75824e-06
-1.09892e-06
-0.0019502
-3.41443e-07
0.0185441
-0.0332976
-8.78299e-07
-2.85033e-07
-1.96729e-07
-1.27947e-07
-4.56404e-06
0.00531114
-4.68691e-07
-0.00102652
-7.48011e-07
4.60728e-07
0.00130679
-6.12767e-07
0.0375113
-5.1728e-07
-1.28669e-06
-3.75656e-07
-0.0345371
-7.81923e-07
-2.38683e-07
-9.36499e-07
-7.15972e-06
-6.16745e-07
-1.69137e-07
-2.06403e-07
0.0183314
2.08459e-09
-3.54679e-07
-0.0103344
-2.57302e-07
-4.1881e-07
-7.2708e-07
-6.2e-07
-0.00484729
-3.66899e-07
-2.32976e-07
-4.4391e-07
-1.04054e-07
-4.716e-07
-3.42884e-07
-6.69718e-06
-0.00830093
-4.4731e-07
-1.69209e-08
-0.024405
3.3416e-07
0.00133076
8.87507e-07
-0.0227513
-5.83425e-07
-3.00141e-07
-4.41986e-07
0.00799344
-0.0104443
-4.8984e-07
-4.09684e-07
-2.22317e-09
-8.19545e-07
-3.25049e-09
0.0276315
-2.4171e-07
-1.33196e-05
-6.65122e-07
6.84822e-08
4.02668e-08
-0.0247987
-4.81534e-07
-2.43376e-06
-4.85869e-07
1.14929e-05
2.32226e-05
-4.90586e-07
-6.52251e-07
-0.0413976
-7.78913e-06
0.0238494
0.037127
4.35949e-06
-1.87678e-07
-1.68579e-06
-8.48371e-06
-0.0283373
3.60116e-07
-1.06783e-07
-3.2154e-08
-7.37719e-07
0.00831641
-0.00153351
-6.81455e-06
-8.77143e-06
1.02615e-05
-6.24346e-07
0.000613929
-3.06255e-07
-4.89894e-07
3.83274e-06
-0.00256666
2.5049e-06
6.72895e-06
-0.0215777
-4.93474e-07
-0.0138307
0.00449788
0.00308043
-1.17024e-07
0.023091
0.0122493
3.34832e-05
3.46755e-05
-0.00301766
-1.37359e-05
-7.71027e-07
4.80079e-06
-7.20481e-08
-8.07674e-07
1.64006e-05
-1.17453e-05
-2.45049e-07
-0.00709546
-4.41977e-08
-3.42363e-07
-3.15278e-06
-6.3271e-08
1.50382e-06
-1.21807e-07
9.49483e-06
-1.40623e-06
-3.26299e-08
-0.0131809
-0.0252904
-1.22053e-05
1.05742e-09
-1.07657e-07
-5.19339e-06
-7.21507e-07
-4.51121e-07
-1.81381e-06
-2.69425e-07
5.81659e-06
-7.01194e-07
2.32637e-06
-3.33413e-07
-9.04872e-07
0.0250832
0.0324634
-1.15265e-07
-7.10584e-08
0.0143248
-5.40307e-07
-4.29868e-07
0.00824611
1.04662e-05
-7.16002e-07
-4.88044e-07
-1.94626e-07
-5.35315e-07
1.49851e-07
0.0195856
-3.34897e-06
-4.71202e-07
-1.08854e-07
1.76355e-06
-4.84433e-07
-0.018039
-0.00783477
-7.44944e-07
-2.61287e-07
-7.56379e-07
-9.9426e-08
-4.80562e-07
-4.08429e-07
-7.74381e-07
-1.54726e-07
-5.39122e-07
-3.42182e-07
-9.4864e-08
-2.69677e-06
-0.0288865
-4.30573e-09
-0.0229942
0.00796604
-3.99117e-07
2.31329e-07
9.84746e-07
6.27704e-07
-6.16694e-07
-1.24193e-05
-4.13932e-07
-2.89947e-07
-1.11541e-06
-5.68255e-07
-1.10423e-07
0.0191367
8.04771e-07
0.0183957
-5.74097e-07
-1.18023e-07
-3.25494e-07
-6.17815e-07
-4.58795e-07
-4.20128e-06
-6.04006e-06
3.85156e-05
-4.0613e-07
-0.0184901
8.06289e-05
-0.00954221
-4.33775e-07
6.07808e-06
6.16767e-06
7.62243e-05
-5.79508e-06
-4.6162e-08
-5.64129e-07
3.23242e-06
-0.0193243
0.0183775
-2.83092e-06
0.0176814
-1.17131e-07
-4.11514e-07
-8.23161e-07
-3.77714e-08
5.98653e-08
5.9314e-06
1.50387e-08
4.07635e-08
-5.63606e-07
-0.0247874
-0.0181265
-0.0109683
0.0245266
-0.009124
-1.24908e-07
-1.74545e-08
-0.0148004
-4.58147e-07
-5.01365e-07
-3.82268e-07
-2.14179e-07
-0.0153183
0.0153101
-4.26835e-08
1.44002e-07
-4.9861e-07
-7.59445e-07
-0.00205015
-3.09148e-07
0.0355638
-0.0272186
-5.14919e-08
7.81711e-08
0.00179364
-1.06436e-05
4.61137e-07
-1.67939e-07
-0.0273543
-0.0136218
-4.77152e-07
-0.00134055
1.15884e-08
-0.00869084
-0.000129364
7.93683e-07
-0.00322219
0.00368506
-0.0268094
-5.2746e-07
3.39999e-07
-3.34281e-08
1.40714e-08
-0.00940723
-7.29467e-07
2.19531e-06
0.0319698
-0.00661896
-3.84628e-07
3.79864e-07
-0.0301044
-2.18708e-06
-0.0144871
0.00688076
-3.17152e-07
-3.03529e-07
-2.94208e-07
-3.26511e-05
0.0110745
-3.84707e-08
0.00378702
-5.51457e-07
-2.65512e-06
-5.72313e-07
-3.72293e-07
9.01132e-06
-9.2737e-07
2.75938e-05
-5.2286e-08
1.7479e-07
-5.98911e-07
-2.05851e-05
-1.98254e-07
-0.00735187
-0.01225
4.14094e-06
-1.7471e-05
-6.55036e-07
-4.47155e-07
-1.12685e-05
3.49867e-08
-0.000330645
-0.0192021
-1.87433e-07
0.0314975
6.55798e-07
0.0121898
9.20829e-07
-1.09615e-06
-1.74828e-06
-5.20005e-07
-0.026248
-2.15785e-07
-1.38427e-06
0.0120684
-0.023931
2.93839e-05
-0.0156894
-3.37177e-07
-3.9208e-06
-3.67316e-07
-0.02613
-3.49968e-07
-6.51616e-05
-3.16658e-07
-0.00490855
1.28444e-07
-3.25708e-07
-1.35431e-06
-4.34679e-08
-3.39594e-07
-8.02322e-07
0.00439802
-1.94196e-06
-8.00315e-07
-7.22898e-07
0.00657867
3.45152e-05
-1.54813e-07
3.96742e-05
-5.03807e-07
-1.23725e-06
-3.25617e-07
-4.23756e-07
-9.64681e-07
-3.44928e-07
-9.60931e-05
-3.87486e-07
4.58686e-07
-2.14329e-07
8.64336e-06
-2.35028e-06
-2.92325e-07
-0.0173087
-0.0110415
-0.000327604
3.37171e-07
-0.0284675
-5.36787e-09
2.83236e-06
-9.6274e-08
1.5344e-07
0.000113955
0.00240731
-1.92995e-07
-0.0149394
-2.97273e-07
-3.3305e-07
-5.27474e-07
-0.0149004
-2.52495e-07
-3.51019e-06
6.33384e-07
-6.87309e-08
0.0383407
2.16898e-06
1.15787e-05
0.0239675
-0.00629136
0.00505128
7.95634e-05
0.0164837
-2.19657e-07
-3.32143e-08
-1.04581e-07
-5.12869e-07
-8.61265e-08
-8.31422e-05
-3.72957e-07
-1.25122e-07
-0.000960176
-5.41732e-07
-4.25037e-07
-1.68322e-06
-8.67059e-06
-4.69283e-07
-5.16555e-07
-0.0217361
-5.5536e-07
-1.81876e-06
-7.65686e-07
0.00900534
-7.24682e-08
-0.0294152
-3.01577e-07
-1.63198e-06
3.02859e-08
-1.05157e-07
-2.07195e-05
-0.0290666
-1.55797e-06
-7.93792e-07
-4.30051e-07
-0.00016806
0.0156867
0.0192446
-3.0401e-07
-1.0171e-06
-0.0230229
-4.66405e-07
-2.94212e-07
-6.0227e-07
-0.0141124
8.94762e-07
-5.93486e-07
8.32886e-07
2.9994e-08
0.00270695
6.4415e-07
-0.000577329
4.64532e-07
-1.2079e-06
-2.71678e-09
1.38819e-07
1.56223e-07
-2.29094e-07
0.0310622
0.00496092
-0.0160005
0.0308018
0.00903846
-0.000715226
-0.0135555
-1.85059e-07
-4.9108e-08
-0.0318165
-0.0106512
0.000100842
-7.73512e-07
-2.69625e-06
-2.2407e-08
-4.91465e-07
0.0384724
-0.0250271
-6.67087e-06
-3.55881e-07
0.00192376
-1.04879e-05
-2.89236e-06
-0.00368417
1.49454e-05
0.013698
-4.27426e-07
-0.00795437
0.0378374
8.44435e-06
-6.12522e-07
-2.86342e-06
-3.38433e-08
-5.05316e-07
-1.637e-06
-2.21576e-06
-4.61203e-07
-2.53643e-06
-5.66031e-07
-2.90861e-07
0.00852829
0.00128379
-2.64714e-07
-2.29566e-06
-0.00990562
0.00602259
-1.84071e-08
5.35085e-06
3.1901e-06
0.0066301
-1.14528e-06
-4.86475e-07
-7.83348e-07
-6.54489e-07
-1.99394e-07
-4.03574e-07
4.90011e-08
-1.0591e-06
-2.6229e-06
3.56298e-06
-6.91942e-08
-5.5094e-07
0.00375942
0.0225348
-0.0228007
-0.0321897
-3.10934e-05
8.58945e-08
-3.21416e-08
-9.1262e-07
-3.60138e-07
-0.0360284
-1.08517e-07
3.74779e-08
-4.03305e-07
0.0306673
0.035283
-4.36986e-07
-6.78254e-06
-7.31678e-07
-5.27256e-07
-8.63929e-07
1.4681e-07
-2.79771e-06
-8.96074e-07
0.00138125
-3.29822e-07
-0.0119764
-6.41803e-07
-0.0185997
-7.80655e-07
-4.23966e-07
-5.17823e-07
-1.18011e-05
-1.415e-05
-4.47337e-07
-5.82401e-07
-8.46587e-07
-2.72788e-07
0.0267302
-0.00400088
-0.0015131
5.08603e-08
-8.85548e-05
-4.84646e-07
-4.89526e-07
-1.83061e-07
-6.3663e-07
-3.54857e-07
0.0103963
2.16826e-05
-7.73065e-07
-1.01966e-07
0.0242978
3.54001e-09
-0.000553421
-0.0108085
0.00727517
-4.25675e-07
-7.6282e-06
0.00181467
-0.0025796
-0.00357705
-1.18988e-06
-4.81592e-07
-4.6492e-07
-1.30952e-07
8.75992e-05
-3.21228e-07
-9.73131e-07
0.00299136
0.00192577
-5.05141e-07
-7.77706e-07
0.0149969
-1.20876e-06
0.000513283
2.09079e-07
-1.73666e-07
-1.77479e-06
-0.00315364
-3.74542e-07
0.0268707
-5.20684e-07
-0.0126318
-7.1518e-07
3.05292e-08
-8.35626e-07
7.42174e-06
-3.56739e-07
3.32626e-07
-6.61015e-08
-5.07115e-07
6.42607e-06
2.27573e-07
-5.12036e-07
-2.91449e-07
-6.2899e-07
-0.0262434
-2.23796e-06
-1.59383e-06
-1.08253e-07
-2.73141e-06
-6.81987e-07
1.97078e-06
-9.29801e-07
-2.9276e-06
-6.9221e-07
7.14434e-07
-5.37184e-07
1.32518e-07
-3.61049e-07
-7.28622e-06
0.011927
0.0147429
-3.24937e-07
-6.28991e-05
0.000334551
-6.28929e-07
-2.48524e-07
7.34956e-06
-0.00541077
1.94209e-08
0.0019212
9.58767e-06
6.99772e-08
-1.21423e-05
-1.12099e-07
-3.57071e-07
-3.58941e-06
-0.000310104
5.73525e-06
0.00383559
-0.0242455
0.0320712
-0.00973554
4.21632e-07
-0.00107071
-1.16822e-07
0.0383657
-0.0115519
-1.10095e-07
-2.90846e-07
0.0115051
-2.25663e-08
-9.80748e-08
-0.00979629
0.00614783
-1.11569e-05
1.16141e-07
-0.0102816
-3.08274e-07
0.0237684
0.000464009
-1.16922e-07
0.00280463
6.69617e-05
-0.0130097
0.00781058
0.00152508
0.00911707
-5.22489e-07
-2.47592e-07
-4.29424e-06
-6.61816e-06
-8.43516e-08
0.00212874
-1.20066e-07
0.00266772
-0.000766258
-1.6744e-08
0.0142051
0.00419946
0.0023574
0.0226028
1.80455e-06
0.00981395
1.26308e-05
7.89122e-09
-2.86324e-07
0.0357859
-4.80683e-07
-4.72799e-07
-0.0260996
-4.79141e-07
0.0319404
-4.98516e-08
-0.0192344
1.32348e-07
-3.52377e-07
0.00200465
-2e-08
-1.26076e-07
0.00972102
-0.0228569
-4.18924e-05
8.90836e-08
-1.13874e-07
-4.42844e-07
-1.29586e-06
-1.37146e-05
-2.30317e-06
8.52373e-08
4.3177e-05
-5.37253e-06
-7.03465e-07
0.00584379
-2.69839e-06
-5.56401e-07
3.49454e-06
-5.47004e-06
-2.62699e-06
-3.77969e-07
7.75105e-06
-5.08118e-07
-1.51497e-05
0.0325624
-0.00999766
-4.499e-07
-1.37659e-06
0.00168092
-8.92146e-09
-7.6237e-07
-5.91004e-08
-1.5793e-06
-0.0315214
-5.6146e-06
-2.5075e-07
0.00407143
-3.95617e-07
0.0260937
-1.54513e-07
-2.6778e-07
-1.72351e-05
0.0209807
-6.99421e-07
-1.34938e-06
-1.09946e-06
-7.08932e-07
-5.02876e-07
-5.01889e-07
-1.82658e-06
0.00492294
-2.78647e-08
0.204937
-1.43495e-05
-4.34361e-07
-8.50764e-07
-2.85601e-07
-7.41697e-07
-6.81337e-07
-5.69708e-06
-5.97409e-07
-6.6863e-07
1.47423e-07
0.000221843
-3.57197e-07
-7.87909e-07
-2.66578e-07
-1.88944e-05
-8.13831e-07
-6.20288e-06
-0.00415321
-1.1387e-07
-1.7936e-06
3.39062e-08
-1.51679e-07
-8.06393e-08
9.18199e-08
3.4349e-07
-3.22769e-07
-1.35556e-05
-0.00623322
-6.00384e-06
-3.47213e-06
1.05944e-07
-5.05872e-07
0.0250365
-6.60653e-07
0.00181455
-0.0175011
0.0088436
-3.98737e-05
-5.68118e-07
1.30762e-07
-2.44122e-08
-1.70544e-07
6.76531e-07
-6.37641e-07
-0.0149286
-5.60757e-06
0.00375078
-0.000102925
-8.42209e-08
-4.41544e-07
0.0135256
-7.5855e-07
-9.28995e-07
1.79179e-06
9.28111e-06
1.20367e-07
-0.0115589
7.34439e-08
-6.33956e-07
-5.35434e-09
-5.78794e-07
-1.12601e-06
-2.16558e-05
-4.79732e-07
-6.53086e-07
2.32393e-08
-3.35661e-06
-5.1627e-06
1.11826e-06
3.69456e-06
6.1502e-06
-4.21056e-05
8.62404e-07
-5.38921e-07
-4.41599e-06
0.0239303
-0.018036
0.019271
-1.25613e-06
-0.0328606
-2.55225e-05
-2.74276e-07
-3.44768e-07
-2.72108e-06
-6.1814e-08
6.8398e-08
0.00680768
-4.31848e-07
-4.4414e-07
1.21796e-05
0.0376757
-1.82293e-06
4.30701e-05
-9.44155e-08
0.000122329