/*--------------------------------*- C++ -*----------------------------------*\
| =========                 |                                                 |
| \\      /  F ield         | OpenFOAM: The Open Source CFD Toolbox           |
|  \\    /   O peration     | Version:  v2012                                 |
|   \\  /    A nd           | Website:  www.openfoam.com                      |
|    \\/     M anipulation  |                                                 |
\*---------------------------------------------------------------------------*/
FoamFile
{
    version     2.0;
    format      ascii;
    class       volScalarField;
    location    "450";
    object      k_0;
}
// * * * * * * * * * * * * * * * * * * * * * * * * * * * * * * * * * * * * * //

dimensions      [0 2 -2 0 0 0 0];


internalField   nonuniform List<scalar> 
13851
(
0.000215031
0.000155698
0.000155508
0.0272403
0.000148436
0.00015784
0.000157455
0.000146972
0.0718834
0.000148347
0.00017292
0.000148366
0.000148964
0.0363027
0.000174002
0.000343787
0.0234097
0.00014919
0.000217657
0.000211508
0.000175013
0.000156168
0.0159333
0.000149735
0.00027413
0.000220668
0.0546096
0.0491744
0.0587474
0.000146871
0.0656517
0.000157429
0.000221429
0.0917586
0.000167794
0.0546407
0.000149811
0.000328071
0.0424351
0.000149329
0.0739701
0.0619011
0.0106552
0.000205209
0.0702976
0.000147749
0.000145896
0.000294508
0.000153171
0.000148921
0.013375
0.000149221
0.000334538
0.000172165
0.0344757
0.000149289
0.000220423
0.0711273
0.0441486
0.0313818
0.000148424
0.047904
0.00014861
0.000153461
0.000179669
0.000180062
0.023758
0.000166398
0.00014984
0.0415027
0.0549015
0.000178976
0.000148344
0.0276566
0.000173455
0.000153379
0.0290595
0.000146239
0.000271645
0.000147456
0.000149921
0.000201417
0.000167421
0.0379743
0.0339227
0.0628467
0.000156356
0.0261587
0.000148219
0.066577
0.00014936
0.000157651
0.00260394
0.0584576
0.0262207
0.000191954
0.000147705
0.000318382
0.019016
0.000187111
0.000321095
0.000162388
0.000163303
0.000148702
0.000147929
0.000174595
0.000147884
0.0592182
0.000157606
0.00014901
0.000159921
0.000147831
0.000183921
0.000172569
0.000239539
0.000170538
0.000146475
0.000146662
0.0236457
0.0470812
0.000184404
0.000148104
0.000149733
0.0599464
0.000245521
0.000172399
0.000147705
0.000170409
0.0796274
0.00018101
0.000156071
0.000161605
0.000301392
0.0908185
0.000173048
0.0237673
0.000166094
0.0598243
0.000160376
0.000182194
0.000200546
0.000150856
0.000148262
0.00017109
0.000212453
0.000152989
0.000146166
0.0607281
0.0543251
0.000170986
0.000310193
0.000183301
0.000173133
0.000204681
0.000149557
0.00014867
0.000148548
0.0399725
0.000179299
0.000155267
0.000149585
0.0568266
0.00017446
0.000289514
0.0367724
0.0792645
0.0817085
0.0153478
0.000159579
0.0558687
0.000148542
0.000146453
0.000175671
0.000148832
0.0283051
0.0572538
0.000326541
0.000146406
0.000173935
0.000321049
0.000220992
0.000205342
0.000159001
0.000180827
0.00976009
0.0552386
0.000223136
0.000157652
0.000149358
0.000147301
0.000266146
0.000179033
0.0273882
0.000158133
0.000152752
0.000326807
0.000224113
0.00015042
0.000150358
0.000167157
0.000200967
0.0434652
0.0675244
0.000174113
0.000468559
0.0420721
0.000152494
0.000185718
0.0737275
0.000156841
0.000347257
0.000149647
0.000201444
0.000149559
0.000168156
0.000154365
0.000148822
0.00109664
0.000150566
0.000492283
0.000146376
0.000207652
0.02993
0.0253713
0.000157416
0.000186349
0.000149755
0.000169737
0.00014787
0.000167972
0.0460666
0.000157397
0.000156806
0.000148749
0.0668419
0.000146871
0.00771574
0.0646489
0.000184463
0.000149646
0.000281528
0.0350783
0.0709547
0.000344563
0.000166573
0.000173965
0.000501545
0.000174562
0.000191216
0.000161254
0.0277333
0.000192361
0.000146802
0.000158971
0.000330366
0.0544057
0.0254443
0.000147218
0.000172852
0.000148176
0.00117526
0.000214763
0.000159753
0.000175411
0.000192715
0.00014796
0.000162888
0.000259649
0.0537836
0.00014838
0.000148808
0.000157598
0.0877844
0.0172787
0.000178341
0.000148304
0.000279191
0.00020672
0.000223468
0.000175396
0.0848615
0.0211661
0.000159606
0.000170587
0.000251092
0.000147946
0.000148548
0.000223711
0.000171155
0.000146992
0.000149539
0.000147823
0.000147844
0.000167545
0.000148494
0.0746294
0.000176213
0.000148704
0.0533714
0.0565621
0.000149282
0.000211464
0.0161425
0.000151133
0.000149389
0.000176788
0.0333598
0.00903447
0.000179432
0.000148347
0.0566676
0.000148478
0.000179672
0.0192136
0.0571508
0.000154933
0.000251262
0.000230995
0.057425
0.000183059
0.000162997
0.0279652
0.0679115
0.0442733
0.000150623
0.0359169
0.00947573
0.000207902
0.00020459
0.000152553
0.000177298
0.000158176
0.0274643
0.00016365
0.000146882
0.000145183
0.000157985
0.0566683
0.000385904
0.000147864
0.0249762
0.000158213
0.000161874
0.000155638
0.026626
0.000245928
0.000337664
0.000154022
0.00015622
0.0428087
0.000149384
0.000212546
0.000159546
0.00017665
0.000158661
0.000148199
0.0001487
0.000185147
0.000188988
0.000194788
0.00028269
0.0445892
0.000153103
0.0639933
0.0121886
0.000147185
0.0613516
0.000196449
0.0228309
0.000157555
0.000231534
0.0378198
0.000254107
0.000184563
0.029911
0.000151705
0.0622135
0.0115229
0.000163119
0.0342921
0.000164703
0.0643474
0.000170014
0.000188568
0.000190193
0.000196581
0.00014866
0.000158726
0.000172091
0.000174117
0.0001479
0.000179353
0.0986121
0.000148331
0.00018484
0.0157798
0.000154891
0.000260874
0.000190736
0.00609802
0.000157434
0.000216063
0.000286416
0.000227807
0.000173581
0.0223233
0.0280191
0.00024013
0.000148009
0.000184352
0.000164473
0.00023014
0.000148079
0.011256
0.0934425
0.000255632
0.000156185
0.000190818
0.0501868
0.0183015
0.00014598
0.0281434
0.000199946
0.0229118
0.000161789
0.0172197
0.000148447
0.000148755
0.028699
0.0518678
0.000148358
0.000155714
0.000185236
0.000146621
0.0931572
0.000178117
0.000195517
0.000159803
0.000151749
0.000149334
0.00025226
0.000148581
0.000149266
0.0611027
0.0982469
0.000155626
0.0297995
0.000148653
0.000148489
0.000155406
0.000194796
0.000191634
0.000148057
0.000152633
0.000183825
0.000154081
0.00436312
0.000148336
0.000164151
0.0723398
0.000160958
0.000145618
0.000148677
0.000159489
0.000150976
0.000247842
0.0609678
0.000166838
0.000737885
0.000155554
0.000148169
0.0817399
0.0373844
0.0001603
0.000148546
0.0654392
0.000159881
0.00015277
0.000148699
0.000161963
0.000184929
0.000175123
0.0730893
0.0526432
0.000238546
0.000153239
0.000183582
0.000147994
0.0564769
0.000190271
0.000223841
0.000164249
0.000153731
0.000160893
0.00017654
0.000148511
0.0205805
0.0785369
0.00480113
0.00742939
0.0623731
0.0247046
0.000219124
0.000157016
0.000149376
0.000308812
0.000148367
0.000147835
0.000158114
0.0309216
0.000155493
0.000150796
0.000171767
0.000170754
0.000148541
0.000377417
0.000147606
0.0839958
0.00024541
0.000147446
0.000154536
0.000200146
0.058239
0.000146992
0.000332207
0.00333792
0.00014763
0.0493459
0.00021157
0.000204421
0.000153185
0.0628687
0.0290224
0.000147876
0.000198561
0.00014978
0.000147651
0.0346725
0.0636617
0.000167484
0.000191052
0.000148412
0.000203503
0.0826288
0.0321664
0.000148672
0.0245154
0.000147981
0.00014986
0.000173831
0.000164918
0.000145951
0.000153382
0.0488313
0.000194904
0.0490791
0.00015484
0.000148152
0.0885704
0.000149156
0.000184039
0.000163203
0.000172988
0.000165708
0.0727211
0.0257222
0.000158105
0.0272057
0.000154286
0.000175026
0.0640893
0.0433527
0.000149623
0.000148025
0.000163426
0.0484205
0.00779489
0.000203272
0.00104419
0.000165262
0.00016928
0.0525799
8.84444e-05
0.000178485
0.0823133
0.00316918
0.0517073
0.000151104
0.0451156
0.00607842
0.000148327
0.00286306
0.0405561
0.000159575
0.000181955
0.000149009
0.000492123
0.000173204
0.0236735
0.000148602
0.000149025
0.000155672
0.000170218
0.000148411
0.0290369
0.000148986
0.0011763
0.000153206
0.000230349
0.000148667
0.000148561
0.000166917
0.0249863
0.000172557
0.0228179
0.000162049
0.000146694
0.000147945
0.000175599
0.000152579
0.000175907
0.000156294
0.000160083
0.0394118
0.000149165
0.0203547
0.000149685
0.000270904
0.0305749
0.0797096
0.000156951
0.00910292
0.000171339
0.000194089
0.040661
0.000149092
0.000347932
0.000158341
0.000163711
0.00965439
0.000233846
0.000147351
0.00017562
0.000150311
0.0499827
0.00722738
0.000150232
0.00016702
0.0869189
0.000149759
0.000149685
0.00022325
0.0180586
0.0617782
0.00014942
0.000187844
0.000153624
0.000148585
0.0380455
0.00018925
0.000186057
0.000145712
0.000258384
0.000163627
0.000211017
0.000150618
0.000152495
0.000172259
0.000155488
0.000274517
0.000179058
0.000178063
0.000175809
0.000250652
0.000210657
0.099219
0.000319778
0.000309291
0.0484293
0.000163202
0.0387631
0.000208791
0.000148809
0.000168388
0.000205243
0.000157146
0.000147467
0.00014744
0.000267537
0.026118
0.000164359
0.0613497
0.000146727
0.06544
0.00017618
0.0150501
0.000175464
0.000157593
0.000155569
0.0177425
0.000185961
0.000162871
0.0549412
0.000151396
0.000321263
0.000270545
0.00185756
0.000163202
0.000208767
0.000148417
0.000149631
0.000152082
0.000148589
0.0656036
0.000147835
0.0320496
0.0857457
0.00017569
0.0306829
0.021604
0.00233919
0.00019607
0.000157012
0.000149137
0.000148722
0.000146218
0.000147886
0.000148846
0.000176126
0.000182895
0.000164387
0.0472999
0.000152335
0.071505
0.00014996
0.0316923
0.00016641
0.000149893
0.000148818
0.0806566
0.000158064
0.084961
0.0410708
0.000181198
0.000187599
0.000147453
0.0892784
0.000154042
0.000155565
0.0396173
0.000149162
0.000150792
0.000148859
0.000189264
0.0293706
0.000160278
0.000163882
0.000200631
0.0294448
0.00015742
0.000156695
0.0595521
0.000146151
0.0572287
0.000149293
0.00015416
0.000272967
0.000214487
0.000233581
0.000176833
0.000173101
0.000149504
0.000149958
0.000175683
0.000151279
0.000149556
0.000165925
0.000199197
0.000147688
0.000191726
0.000256619
0.0764397
0.000176505
0.0685975
0.0001605
0.000149101
0.000184454
0.000146804
0.000158932
0.0987432
0.0415467
0.0012113
0.061386
0.000150415
0.000150103
0.000168316
0.000152202
0.000147781
0.0157885
0.00257961
0.0367644
0.000274822
0.000215221
0.000148612
0.000146909
0.000306236
0.000193781
0.000154796
0.000149677
0.000238437
0.000186088
0.0615727
0.000149508
0.000148934
0.02467
0.000150549
0.000165175
0.000146622
0.0336141
0.000147434
0.033394
0.000148429
0.000182453
0.000172129
0.000168032
0.000163656
0.000148329
0.000155635
0.000147974
0.0253726
0.000150657
0.0291945
0.00015165
0.0912892
0.0846467
0.000162104
0.000147839
0.0175986
0.0669726
0.000158597
0.000216719
0.000148721
0.0219272
0.000148951
0.000202655
0.000148233
0.00014795
0.081919
0.000166308
0.000148597
0.000172742
0.0726203
0.000444725
0.0861078
0.000147168
0.0523592
0.000148337
0.000147743
0.000149548
0.000144696
0.000149569
0.0742189
0.100634
0.000150611
0.000148959
0.00016807
0.000147865
0.0225394
0.000184904
0.04174
0.0300567
0.000155536
0.000273006
0.000148273
0.00017424
0.000173666
0.000148985
0.000149353
0.00029329
0.00850985
0.00018753
0.0126624
0.00019434
0.000148615
0.000167854
0.000218254
0.0160575
0.0001665
0.0685591
0.000193895
0.000149477
0.0481574
0.0513605
0.0356552
0.000278657
0.0290846
0.000153186
0.000173652
0.00014929
0.0657624
0.000156754
0.000146898
0.0821118
0.000152126
0.000147847
0.000149679
0.000151862
0.0317912
0.000207502
0.000147036
0.000168439
0.0348412
0.000152515
0.0120124
0.000151932
0.000206339
0.0577949
0.00014851
0.0138751
0.000159265
0.000162819
0.000452128
0.000152095
0.000200424
0.000216121
0.0763423
0.000150681
0.0304257
0.000162529
0.0496168
0.00220072
0.0253152
0.00018243
0.000148446
0.000150496
0.000149759
0.00018588
0.000148732
0.0749585
0.000158403
0.000156923
0.000157262
0.000153089
0.000147095
0.000163473
0.000157713
0.000154504
0.000157048
0.0425552
0.0193843
0.000162781
0.000168574
0.0806595
0.000150901
0.0565174
0.000146157
0.000160819
0.000150662
0.00014878
0.000166073
0.00014813
0.000147005
0.000163011
0.000148727
0.000199343
0.000152167
0.00172753
0.035489
0.000264181
0.000196083
0.000149977
0.0280744
0.00020865
0.000149499
0.000157537
0.000150523
0.0559886
0.000151904
0.000162792
0.0642697
0.0133193
0.000174614
0.000150004
0.0732586
0.0611544
0.0332194
0.000159152
0.000146664
0.000148591
0.000179705
0.00014843
0.0242218
0.000184926
0.000149301
0.00698981
0.000200003
0.000148729
0.0433633
0.0304142
0.00165626
0.000151916
0.0707023
0.000176188
0.000147945
0.0296719
0.00015638
0.000148465
0.000147538
0.000171644
0.000185839
0.0790398
0.0688064
0.000183969
0.0819353
0.000172709
0.000148221
0.000168317
0.000147479
0.000304127
0.000148816
0.000148154
0.000153652
0.00015119
0.0856346
0.0253351
0.0224018
0.0242491
0.00425217
0.000157476
0.000148415
0.000152153
0.000201411
0.000148729
0.000148356
0.000167114
0.000274361
0.00203042
0.000146462
0.000164886
0.000164005
0.000199243
0.0123842
0.000147627
0.000145829
0.000154702
0.000240934
0.000165924
0.0809826
0.000152454
0.000149018
0.000148528
0.000147558
0.000154341
0.00157764
0.0507978
0.0783325
0.000157196
0.000148174
0.000322569
0.000150992
0.019264
0.0377997
0.000158379
0.0290461
0.0633141
0.0629947
0.000200614
0.000166406
0.0590941
0.000163468
0.00016038
0.000168603
0.000194094
0.000151084
0.000447813
0.000148257
0.0958026
0.000250515
0.00014617
0.000153368
0.000166323
0.000201492
0.000167036
0.000148865
0.000163443
0.000151739
0.000159521
0.00022433
0.00014901
0.0692638
0.0289541
0.000148299
0.000165491
0.00018505
0.000148374
0.0399091
0.0128185
0.0276176
0.034846
0.00014805
0.00015457
0.000157031
0.000149624
0.019684
0.000167777
0.000149706
0.000201157
0.000155147
0.0960716
0.000172859
0.0294024
0.000151572
0.000152573
0.000163941
0.000189296
0.000179799
0.000147927
0.0140389
0.0522423
0.0109591
0.03048
0.0968294
0.0792067
0.0469968
0.000147913
0.000148128
0.000149643
0.0082145
0.000190511
0.000178703
0.0217449
0.000150443
0.000145809
0.000148411
0.000530193
0.000146136
0.000160083
0.000153248
0.0715701
0.000151609
0.000146822
0.000148411
0.000148315
0.000149007
0.000160229
0.018651
0.000160447
0.0902444
0.000148124
0.000147609
0.0811001
0.0890709
0.025508
0.0686544
0.00016377
0.0606938
0.000146611
0.000168304
0.000152535
0.000148443
0.000156537
0.0385436
0.000153075
0.000190327
0.000325798
0.00015066
0.000148686
0.000155517
0.00326416
0.000149807
0.070102
0.000149555
0.00309095
0.000148775
0.000150577
0.000158895
0.000170544
0.00014899
0.059635
0.0586358
0.000412211
0.0929141
0.000148451
0.020417
0.058704
0.000148173
0.000250309
0.000149603
0.000161969
0.000149349
0.000150196
0.000147512
0.000148587
0.000150881
0.000156064
0.000190642
0.000150228
0.00014864
0.000165824
0.000147258
5.81911e-07
0.000148793
0.000163853
0.000173674
0.0375968
0.0344492
0.000148887
0.00277654
0.000146574
0.000170156
0.000171229
0.0647985
0.000183815
0.000149808
0.000259401
0.000167789
0.000208762
0.0184189
0.00016095
0.000181416
0.00020175
0.00019592
0.000151494
0.000148137
0.0790459
0.0152069
0.000154791
0.000147915
0.013755
0.000146783
0.000172226
0.0001475
0.000174149
0.000287055
0.000145331
0.0233628
0.000157836
0.000149073
0.00029645
0.0001469
0.000161519
0.0360899
0.000168615
0.0794952
0.00014747
0.00014976
0.000162416
0.000149513
0.000149629
0.00016351
0.000161925
0.000189134
0.000175279
0.00014887
0.000164904
0.000147936
0.000148221
0.000149434
0.000148204
0.000291288
0.000148919
0.000152011
0.0288392
0.000146746
0.000147834
0.0895275
0.000149658
0.00288576
0.000153436
0.0922786
0.000378955
0.000164338
0.000324555
0.000172458
0.000272926
0.000151048
0.000187303
0.000157468
0.000148032
0.000147749
0.000151983
0.000164091
0.000148201
0.000169765
0.000147101
0.000152496
0.0113127
0.0119233
0.000254646
0.000156299
0.000163129
0.0318017
0.0407199
0.0001491
0.000159815
0.000290315
0.000150323
0.000166003
0.000321578
0.077996
0.000161855
0.000181475
0.000151651
0.00020009
0.000149908
0.000161065
0.0262022
0.000149283
0.000147161
0.000106026
0.00016784
0.0289256
0.0937395
0.000264533
0.000150153
0.000147128
0.00015071
0.034269
0.00405991
0.0852909
0.000170649
0.000148584
0.0295331
0.00014866
0.000183776
0.000155659
0.000154102
0.000173285
0.000148192
0.0412216
0.00435413
0.000147263
0.000184096
0.000191421
0.000312705
0.000168651
0.00020409
0.0248416
0.000173144
0.0132941
0.000203175
0.000148664
0.000174649
0.000168083
0.0659622
0.000148024
0.0646186
0.000169299
0.000210144
0.000149813
0.00530346
0.000158872
0.000152995
0.000147824
0.000165208
0.000164563
0.000165806
0.000148833
0.000151423
0.000170386
0.00165285
0.00017171
0.000148966
0.000150573
0.000175148
0.000194916
0.000149091
0.000176369
0.000242419
0.000166915
0.0831784
0.000185269
0.0180888
0.000199866
0.000147935
0.000229232
0.000149551
0.000154933
0.000169829
0.000167418
0.000176916
0.00018845
0.000165254
0.000166309
0.00016156
0.00015381
0.00014607
0.000169115
0.000157864
0.000157661
0.0378157
0.00015635
0.000159245
0.000147425
0.0307112
0.000175247
0.000148859
0.000156225
0.000151775
0.0328889
0.000183759
0.000169928
0.068614
0.0275647
0.000230495
0.000182403
0.0136382
0.000147101
0.000184571
0.000148406
0.000155887
0.00028139
0.0381837
0.000200605
0.000301846
0.00014872
0.0274615
0.000147081
0.000220045
0.000154983
0.049449
0.0761384
0.000161129
0.000147987
0.000199374
0.000162333
0.000147953
0.0432157
0.000148554
0.0001531
0.00015796
0.000149314
0.000160951
0.000151937
0.000148567
0.00016247
0.000207905
0.000173671
0.000171681
0.000147929
0.0212749
0.0374645
0.000147845
0.0416028
0.000154918
0.000157663
0.0952276
0.000147819
0.000151105
0.000157053
0.0329878
0.000148002
0.000149163
0.00016758
0.0278313
0.00014772
0.000159747
0.000161405
0.0419266
0.000168559
0.000167004
0.00770528
0.000148569
0.000171982
0.000146121
0.0280773
0.00016012
0.000148408
0.000162844
0.000175605
0.000148925
0.000150217
0.000199346
0.0543944
0.000150943
0.031383
0.000149217
0.000146122
0.000178301
0.000148013
0.000148926
0.0397615
0.00014983
0.000171368
0.00030321
0.0537499
0.0392661
0.000148646
0.000152921
0.000156885
0.000148346
0.000148428
0.000148479
0.0363839
0.000149288
0.0051463
0.000235145
0.000147142
0.000147399
0.000161047
0.000235118
0.0376587
0.000166015
0.000171797
0.000153441
0.0744907
0.000173395
0.000170251
0.000178641
0.000170247
0.000176588
0.027049
0.000182603
0.0312441
0.0901749
0.0306296
0.000156217
0.000148741
0.000164971
0.000159606
0.000148249
0.000150976
0.000175377
0.000149611
0.0001504
0.000148137
0.000145765
0.000154348
0.000149666
0.029217
0.000147963
0.000307051
0.0001484
0.000171678
0.000151222
0.000227312
0.000171498
0.000148477
0.100352
0.000152854
0.000149512
0.000175502
0.000147803
0.000158982
0.000149216
0.0517918
0.000153959
0.000169384
0.000170523
0.100013
0.000157882
0.00508592
0.0306027
0.000168473
0.000149932
0.0001526
0.000173453
0.000174966
0.00179395
0.000147107
0.0476965
0.000149482
0.000169198
0.00260258
0.000163484
0.0379496
0.000155281
0.00016436
0.000154609
0.00783799
0.000160757
0.000148858
0.000167777
0.000184474
0.000152837
0.000148158
0.00014887
0.039993
0.000149694
0.000157295
0.0890631
0.000155766
0.000147948
0.000169974
0.000154916
0.0984405
0.000145836
0.000148191
0.000146883
0.000155186
0.000150921
0.000149966
0.000194674
0.0833435
0.000147792
0.000148669
0.0847283
0.00015057
0.0239204
0.000155323
0.00951105
0.000147915
0.000153964
0.000146575
0.0367676
0.0942085
0.000159266
0.000168242
0.000155918
0.000148305
0.000148724
0.0538767
0.00014882
0.000222768
0.000147655
0.000188431
0.00014924
0.0880067
0.000146756
0.000185728
0.000147014
0.000205194
0.000246001
0.000147551
0.000165589
0.0284496
0.000196034
0.0716306
0.0396189
0.000193132
0.000152071
0.000164906
0.000182045
0.0561159
0.000150348
0.000182069
0.00015701
0.000148874
0.0304631
0.0550675
0.000190673
0.000204357
0.000198949
0.000161683
0.0888238
0.000148167
0.000147435
0.000175715
0.000438598
0.000192485
0.000183245
0.0626274
0.000146648
0.00444631
0.0460863
0.00129328
0.000149307
0.0120306
0.0688456
0.000245899
0.000416377
0.0617782
0.000220447
0.000160677
0.0001843
0.000154723
0.000148447
0.000229749
0.00019806
0.000145975
0.039691
0.000149233
0.000158654
0.000174872
0.000155933
0.000243065
0.000160544
0.0161789
0.000187085
0.000155251
0.0865132
0.0500881
0.000196834
0.0001499
0.000154894
0.000176687
0.000167653
0.000146662
0.00016976
0.000166813
0.000181323
0.00014812
0.000189678
0.000154051
0.00016768
0.07003
0.0130536
0.000151451
0.000179676
0.0371843
0.00014924
0.000151657
0.00869025
0.000200337
0.000154403
0.000155594
0.00014844
0.000172204
0.000158597
0.0597618
0.000176219
0.000150432
0.000149449
0.000166291
0.000158946
0.0535896
0.0137725
0.000147649
0.000148024
0.00015787
0.000149266
0.000154723
0.000151891
0.000151869
0.000155117
0.000147585
0.000154625
0.000149279
0.000187726
0.0510643
0.000149753
0.0917249
0.018696
0.000146144
0.000180137
0.000181203
0.000175678
0.000151204
0.000200431
0.000159333
0.000168432
0.000162533
0.000152628
0.000149348
0.00626142
0.000165375
0.0770886
0.000151098
0.000148381
0.000147928
0.00017124
0.000147719
0.000176344
0.000199333
0.000270702
0.000147228
0.0441471
0.0002743
0.0545104
0.00014659
0.000182358
0.000215303
0.000265043
0.000224802
0.000150338
0.000150346
0.00018536
0.0643153
0.0730291
0.000172128
0.0438505
0.0001495
0.000148345
0.000163978
0.000149289
0.000149152
0.000184608
0.000149768
0.000169391
0.000147867
0.062443
0.0973462
0.094942
0.0710028
0.0500129
0.000149015
0.000148873
0.0394583
0.000147316
0.00014768
0.000146162
0.000178724
0.0893247
0.00413963
0.000156585
0.000150088
0.000152375
0.000162601
0.0347347
0.000148086
0.0452424
0.0622405
0.000149231
0.000149126
0.0472623
0.000218061
0.000153981
0.000148145
0.0842018
0.0393497
0.000149439
0.00199639
0.000149689
0.0587651
0.000233828
0.000154744
0.0350726
0.0246418
0.0828089
0.000147653
0.000150323
0.000149644
0.000149904
0.0905015
0.000147755
0.000189501
0.0194529
0.00339218
0.000151698
0.00017107
0.0318972
0.000170257
0.0405956
0.0513444
0.000145669
0.000158007
0.000158061
0.000345604
0.0836222
0.0001456
0.0295394
0.000160547
0.000180123
0.000151187
0.000147422
0.000196563
0.000165788
0.0249566
0.000149286
0.000170426
0.000151403
0.000221309
0.000155426
0.0815866
0.0827548
0.00019234
0.000255619
0.000148012
0.000153501
0.000198966
0.000179895
0.0866364
0.0375576
0.000148916
0.0566925
0.000169953
0.0347436
0.000162634
0.000167408
0.000166534
0.000149741
0.0855708
0.000148275
0.000165486
0.0303172
0.0676735
0.000231946
0.0848954
0.000157861
0.000176179
0.000147352
0.0599217
0.00015697
0.000220189
0.000147313
0.0999534
0.000145391
0.000147786
0.000164663
0.000158887
0.00015995
0.000148523
0.0492565
0.00018583
0.000147792
0.000164322
0.0390756
0.000220354
0.00014841
0.0502746
0.000154236
0.000172475
0.000171116
0.000145927
0.000171915
0.000147744
0.00030963
0.000171213
0.000162424
0.000148129
0.000201233
0.000167908
0.000147334
0.0946098
0.00140787
0.000283882
0.000147041
0.0451223
0.000148838
0.000183899
0.000162287
0.000176953
0.000247825
0.0487389
0.000159876
0.086651
0.000168427
0.000158003
0.000147014
0.098791
0.000175821
0.000176402
0.000165722
0.000149594
0.0398858
0.000175432
0.000201618
0.0229792
0.0405395
0.0492892
0.00030624
0.0227441
0.000158207
0.000159028
0.000148489
0.000149671
0.000145755
0.000452604
0.000158438
0.000159957
0.0471839
0.000147502
0.000146802
0.000183514
0.000186058
0.000160835
0.000146675
0.0423921
0.000154676
0.000190146
0.000149818
0.0331764
0.00015754
0.0773934
0.000166054
0.000165307
0.000169414
0.000148437
0.0143532
0.028448
0.000172872
0.000148938
0.000147147
0.029277
0.0620538
0.051953
0.000148556
0.000172972
0.0490975
0.000149744
0.000147851
0.000149638
0.0882004
0.000170935
0.000162439
0.000163705
0.000159325
0.0974443
0.000175817
0.000355772
0.000161388
0.000164886
0.00014574
0.000178263
0.000170166
0.000148153
0.0464458
0.0503727
0.0692378
0.0524443
0.0639754
0.000345746
0.0408699
0.000151573
0.000148747
0.0674759
0.0236764
0.000211957
0.00014905
0.000170504
0.000148629
0.000147765
0.0274875
0.0672801
0.000186337
0.000147806
0.0555157
0.000191601
0.000171774
0.0474864
0.000224763
0.046057
0.000147187
0.08027
0.0314698
0.000201015
0.000170613
0.000170686
0.000149276
0.000147038
0.00016586
0.000169224
0.000154275
0.000178253
0.000160745
0.000154847
0.00247174
0.046859
0.00015938
0.000181667
0.0526123
0.00182974
0.000148712
0.00019208
0.000217789
0.0322052
0.000166496
0.000149935
0.000161724
0.000157171
0.000158609
0.000145941
0.000159356
0.000167236
0.000184383
0.000191496
0.000149502
0.000152231
0.0493664
0.0636238
0.0435312
0.0241666
0.000262576
0.000145172
0.000148546
0.000161694
0.000147168
0.0323649
0.000148403
0.000149826
0.000146461
0.0444654
0.00556231
0.000150123
0.000192573
0.000158127
0.000161568
0.000160946
0.000160123
0.000172856
0.000164313
0.0295429
0.000158747
0.0330122
0.000165083
0.0364106
0.000159856
0.00014734
0.000146926
0.000198111
0.000196932
0.000146612
0.00016282
0.000160181
0.000171015
0.0672765
0.0319928
0.0960194
0.000149825
0.000247694
0.000158805
0.00016353
0.000148114
0.000172731
0.000153261
0.0289544
0.000268276
0.000165165
0.000148398
0.0605105
0.000156156
0.0446073
0.0276803
0.00200046
0.000154036
0.000183682
0.0967795
0.000600691
0.0677273
0.00017139
0.000148867
0.000165303
0.000148665
8.04487e-05
0.000154372
0.000161326
0.0588293
0.0288355
0.000148609
0.000148199
0.0467481
0.000166698
0.00353228
0.000159154
0.000148143
0.000167922
0.00253834
0.000162616
0.0639172
0.000163263
0.00245
0.000155712
0.000149641
0.000148187
0.000196512
0.000150712
0.000177506
0.000148625
0.00014925
0.000194661
0.000159578
0.000149726
0.000148043
0.000162848
0.00829558
0.000182728
0.000166305
0.000155697
0.000172056
0.000148649
0.000183851
0.000161817
0.000170866
0.000166782
0.000164994
0.000172297
0.000163183
0.000148513
0.000192311
0.0680113
0.0331831
0.000150032
0.000321742
0.0450567
0.000147937
0.000150653
0.000213416
0.0493891
0.000156587
0.0445171
0.000199995
0.000149853
0.000211985
0.000145697
0.000158087
0.00017314
0.000255975
0.000195253
0.001267
0.0389961
0.0464681
0.0645979
0.000154181
0.0602655
0.000148283
0.0244389
0.0567375
0.000148509
0.00014843
0.0357143
0.000149027
0.000148443
0.0479611
0.0901072
0.00020779
0.000159825
0.050686
0.000148592
0.0648704
0.0518749
0.000149216
0.0662137
0.000286581
0.0272696
0.0444233
0.0535485
0.0372274
0.000147069
0.000151788
0.000174695
0.000187748
0.00014842
0.000771793
0.000148195
0.0547073
0.048044
0.000164138
0.0372025
0.0552322
0.0463888
0.0146899
0.000165622
0.0260083
0.00020792
0.00015783
0.000145915
0.0422077
0.000161237
0.000147201
0.00798289
0.000147867
0.0534896
0.000149124
0.0792437
0.000158572
0.000147789
0.00153099
0.000156324
0.000160772
0.0322581
0.0367114
0.000279331
0.000162964
0.00019144
0.000152363
0.000181349
0.000200391
0.000179818
0.000149374
0.000286884
0.000178653
0.000161313
0.0387533
0.000169901
0.00016217
0.000188889
0.000176874
0.000184668
0.000147759
0.000187605
0.000146975
0.00020584
0.0315984
0.0440948
0.000146919
0.000165708
0.0364047
0.000153557
0.000172103
0.000169918
0.000167355
0.0701014
0.000181078
0.000152123
0.00314817
0.000146971
0.0573042
0.000148721
0.000152704
0.000212426
0.0523072
0.000160986
0.00018826
0.000202611
0.000168374
0.000150247
0.000175753
0.000168618
0.0450667
0.000155613
0.00154363
0.000201883
0.00016918
0.000161134
0.0001749
0.000164229
0.000167563
0.000182355
0.000162493
0.000154626
0.000150061
0.000306525
0.000148205
0.000159684
0.000145842
0.000226012
0.000160399
0.000185026
0.0550293
0.000151311
0.000198181
0.000144861
0.000149143
0.000149233
0.00014935
0.0001614
0.000147372
0.000213254
0.0203915
0.000187797
0.000174344
0.00015768
0.000149402
0.0089002
0.000148564
0.0951078
0.0916181
0.0418443
0.00029002
0.00016263
0.000162126
0.000149149
0.000158328
0.000170177
0.000166776
0.0433887
0.000190649
0.049893
0.000300319
0.000149362
0.000146706
0.0340691
0.000148093
0.000162956
0.000166093
0.000199173
0.000153866
0.0849441
0.000149088
0.000155966
0.000148656
0.000150886
0.000175841
0.000241057
0.000150182
0.000171247
0.000159857
0.000177293
0.000194311
0.000202592
0.000191578
0.000195801
0.000307853
0.000161318
0.000152106
0.000196781
0.0473545
0.0439343
0.0688052
0.000168065
0.0332878
0.000252697
0.000152213
0.000147739
0.000210124
0.000148867
0.00017202
0.0335913
0.000147686
0.000148008
0.000209155
0.0207674
0.000189386
0.000236153
0.000148992
0.0344492
0.000166564
0.0393202
0.000157437
0.000148785
0.0679212
0.000165239
0.000148372
0.000170421
0.000149696
0.00018316
0.000159456
0.000164428
0.00742382
0.000159739
0.0919641
0.000147363
0.0612865
0.000148992
0.000157211
0.000150982
0.000168228
0.000148874
0.000165766
0.0583748
0.000266967
0.000172406
0.000160659
0.000168123
0.000148492
0.000147838
0.000152948
0.0787117
0.000157744
0.0742188
0.0431446
0.000182483
0.000149438
0.000183845
0.000191255
0.000187657
0.000160767
0.0336452
0.000148054
0.000145178
0.000147863
0.000241532
0.000149646
0.000148256
0.0664393
0.000147728
0.000183159
0.000170942
0.000148494
0.0864389
0.000165351
0.0766873
0.000148759
0.0668128
0.000151841
0.000166954
0.0388724
0.000183166
0.000147539
0.00016271
0.09763
0.000171581
0.00018419
0.00016362
0.000156686
0.000181133
0.000158296
0.000150575
0.00813508
0.000159907
0.00016497
0.000354875
0.000147838
0.000147685
0.000149202
0.000170681
0.000148999
0.000155621
0.0922037
0.014704
0.000170892
0.0127466
0.000209123
0.000177169
0.0303285
0.060351
0.000150111
0.0197235
0.000324266
0.0462227
0.000230465
0.000161344
0.0970113
0.0764787
0.0379311
0.000229681
0.0509259
0.000162867
0.000169048
0.000158089
0.000160396
0.000149697
0.000249815
0.000149904
0.0249955
0.000173188
0.000190754
0.000145467
0.000197669
0.000163575
0.00015229
0.000149954
0.000148686
0.00017279
0.000154527
0.000150715
0.000184267
0.043488
0.000155352
0.000184296
0.00014666
0.000172838
0.000168877
0.00014916
0.000156436
0.000147393
0.0815822
0.0922719
0.000202847
0.000262023
0.000161154
0.00018665
0.000148792
0.000182784
0.000148745
0.000150492
0.000149564
0.0997005
0.000146994
0.000192128
0.000228557
0.000157463
0.000164842
0.000147846
0.0461314
0.000186347
0.0427526
0.0434803
0.000184038
0.00020172
0.0398358
0.000198603
0.0251753
0.0255919
0.000173135
0.000159435
0.000224914
0.0520097
0.000148207
0.0252091
0.000181779
0.0953589