/*--------------------------------*- C++ -*----------------------------------*\
| =========                 |                                                 |
| \\      /  F ield         | OpenFOAM: The Open Source CFD Toolbox           |
|  \\    /   O peration     | Version:  v2012                                 |
|   \\  /    A nd           | Website:  www.openfoam.com                      |
|    \\/     M anipulation  |                                                 |
\*---------------------------------------------------------------------------*/
FoamFile
{
    version     2.0;
    format      ascii;
    class       volScalarField;
    location    "450";
    object      omega_0;
}
// * * * * * * * * * * * * * * * * * * * * * * * * * * * * * * * * * * * * * //

dimensions      [0 0 -1 0 0 0 0];


internalField   nonuniform List<scalar> 
13851
(
0.178831
0.0246297
0.0245079
7.33688
0.0220827
0.026258
0.0252374
0.0218031
4.01608
0.0220386
0.0516431
0.0220748
0.0221
6.8003
0.0440606
0.348113
6.58725
0.0219852
0.297812
0.170444
0.0461035
0.0258028
24.7929
0.0222638
0.500589
0.131557
3.40056
4.506
3.7751
0.021778
12.4229
0.025251
0.195348
4.18042
0.038671
3.71955
0.0222741
0.775585
6.91777
0.022122
4.39255
3.73992
25.0437
0.589861
3.78665
0.0218966
0.0216068
0.30672
0.0234848
0.0220949
6.74418
0.0221565
0.345087
0.0392388
6.73049
0.0221166
0.191887
4.43669
3.19458
8.15992
0.0220828
3.37772
0.0220976
0.0236255
0.218929
0.232296
11.1045
0.0688039
0.0221875
8.09911
10.3687
0.054166
0.0220027
9.55013
0.0417562
0.0237828
5.964
0.0216908
0.485784
0.0219341
0.0222051
0.204023
0.0383556
6.78869
7.76026
12.208
0.025912
5.90425
0.0220212
12.614
0.0221978
0.0254233
12.884
10.7772
4.19311
0.346494
0.0219128
0.345273
8.26163
0.145425
0.348175
0.0430994
0.0469252
0.0220544
0.0218924
0.0469782
0.0218928
11.4663
0.025414
0.0219563
0.030351
0.0218975
0.0961831
0.0480313
0.231437
0.0371901
0.0217765
0.0217744
7.3898
9.35514
0.209823
0.021842
0.0221786
4.75861
0.329264
0.127314
0.0219126
0.0499798
4.26878
0.0563848
0.0257164
0.0300362
0.645289
4.17791
0.0516116
4.27971
0.065645
11.5512
0.036022
0.0580036
0.199659
0.0226715
0.0220215
0.108971
0.535339
0.0235638
0.0216843
11.2655
3.98238
0.052318
0.35244
0.0931998
0.0496762
0.200047
0.0222608
0.0220494
0.0220995
6.46311
0.0524924
0.0241769
0.0222431
3.7475
0.046473
0.306846
6.97719
3.9744
3.9765
6.00163
0.0298692
4.47226
0.0220989
0.021779
0.0508203
0.0221396
4.21889
3.64564
0.545805
0.0217679
0.0421223
0.463507
0.265605
0.546178
0.0290175
0.056055
24.3975
3.96809
0.196839
0.0295053
0.0221969
0.0218324
0.469243
0.0522322
11.1917
0.0264457
0.0234377
0.345107
0.197366
0.0222135
0.0222568
0.0730173
0.206159
4.44833
4.44656
0.0442835
3.003
4.57554
0.0237251
0.0630844
4.0408
0.0255691
0.350621
0.0221538
0.207079
0.0222365
0.0391272
0.0244278
0.0220742
1.29128
0.0222772
3.97514
0.0217651
0.157872
9.53312
4.22256
0.0291144
0.0644423
0.0222649
0.0939681
0.0220019
0.0388156
12.3358
0.0292827
0.0255607
0.0221197
4.47568
0.0217733
15.339
4.49021
0.126653
0.0222514
0.804554
7.34498
3.74597
0.343818
0.0347861
0.145626
0.661328
0.0426794
0.320445
0.0319053
6.97738
0.111839
0.0218277
0.0269334
0.347401
3.74747
4.5181
0.0218276
0.133729
0.0220179
1.29956
0.249314
0.0275758
0.0480324
0.117588
0.0219603
0.0452852
0.242555
4.26908
0.0220748
0.0220729
0.0293228
4.07118
9.00303
0.0521527
0.0218629
0.384292
0.215436
0.187374
0.0478742
4.07192
9.03785
0.027543
0.0392527
1.20692
0.0218844
0.0220992
0.188452
0.0474538
0.0217738
0.0222337
0.0219933
0.0219986
0.0357196
0.0220921
4.02132
0.0483985
0.0220033
3.76473
4.92064
0.0221788
0.170845
7.49939
0.0228094
0.0222094
0.0495223
8.05018
8.36022
0.058165
0.0220726
4.44667
0.0220904
0.0600156
6.57709
4.18016
0.0240241
1.09027
0.497429
11.466
0.0918278
0.0466493
4.60133
4.47179
4.60993
0.0223334
7.29062
24.0553
0.819374
0.74603
0.0237898
0.0543153
0.0296169
5.47968
0.0490052
0.0218665
0.0215436
0.0269261
11.0177
3.34952
0.0218746
4.18811
0.0298525
0.030426
0.0243985
10.1332
0.316298
0.347853
0.0241925
0.0251037
3.49662
0.0222061
0.239694
0.0274947
0.0494564
0.0302385
0.0220167
0.022002
0.101267
0.15715
0.119787
0.615218
3.49819
0.023636
4.52368
3.20463
0.0217412
4.14096
0.102633
7.17553
0.026566
0.14954
3.15625
0.51174
0.100103
5.4925
0.0227295
3.67541
19.2432
0.0309355
5.24727
0.0328162
4.43471
0.0384424
0.0625575
0.10784
0.199084
0.0220469
0.0268742
0.0505913
0.0423548
0.0219151
0.0538126
4.12665
0.0219999
0.0620144
8.13543
0.0242374
2.23302
0.0692125
6.46322
0.026032
0.121572
2.23834
0.281431
0.0453113
5.18198
9.49223
0.68478
0.0219654
0.0974692
0.0326945
0.148438
0.0218543
25.2197
4.16979
0.496628
0.0250767
0.110525
3.45478
8.73063
0.0216251
8.00742
0.221894
26.7729
0.032714
5.37442
0.022023
0.0221273
8.33663
3.50066
0.0220362
0.0246462
0.0627942
0.0218093
4.15355
0.0557917
0.100064
0.0273959
0.0227457
0.0221854
0.499601
0.021994
0.022165
3.34032
4.11968
0.0253864
3.11443
0.0221045
0.0220913
0.0245652
0.122389
0.0692238
0.0219283
0.0230303
0.194827
0.0236654
6.65108
0.0220704
0.0309986
3.79922
0.0352413
0.0216063
0.0221173
0.0271755
0.0223783
0.754565
3.36461
0.0350758
9.70615
0.0246377
0.0220467
4.18408
3.16623
0.0351867
0.0220239
4.52743
0.0347128
4.66907
0.0220572
0.0303193
0.101022
0.0443765
4.3498
3.45092
0.465958
0.0239019
0.094473
0.0219584
3.77325
0.0682061
0.196016
0.032368
0.0240075
0.0351265
0.0524822
0.0220946
8.69048
4.21487
6.66644
7.53021
3.37892
4.68676
0.258923
0.0282048
0.02221
3.99908
0.0220428
0.021911
0.0302076
4.23279
0.0244973
0.0226783
0.0821457
0.0419063
0.0220515
2.41956
0.0219133
4.22044
0.720225
0.02193
0.0238753
0.209847
4.21105
0.0217788
0.919081
9.02786
0.0217239
9.66232
0.255381
0.150647
0.0238748
3.35395
7.94589
0.02174
0.173626
0.0221812
0.0219145
2.99781
4.42976
0.0363629
0.0687394
0.0220451
0.0979109
4.24004
5.40702
0.0218448
5.23793
0.0219219
0.0221961
0.0457949
0.0314038
0.021619
0.0237931
9.44051
0.183978
9.13311
0.0240716
0.0220132
4.05814
0.0221803
0.0957968
0.0304034
0.0413873
0.0338557
3.65205
7.67309
0.0263742
8.41162
0.0236972
0.0511464
3.73932
5.10522
0.0221706
0.0219633
0.0474809
8.95774
2.46602
0.0970779
10.0638
0.0317459
0.0373208
16.1388
2.36405
0.145649
4.22043
1.85126
3.54895
0.0225228
3.1875
3.63401
0.0220699
9.18372
6.01765
0.0298386
0.0577495
0.0220829
7.34618
0.0654308
17.4183
0.0219942
0.0221661
0.0266418
0.0409394
0.0220808
4.21764
0.0221605
1.49438
0.0239866
0.149361
0.0220467
0.0220513
0.0430674
5.24052
0.0437796
4.20137
0.0304858
0.0218187
0.0217985
0.0510615
0.023019
0.063199
0.0249767
0.0346375
3.12814
0.022182
5.14142
0.0222548
0.226264
7.74583
3.91431
0.0286147
15.6569
0.079692
0.228892
5.72445
0.0219136
3.93152
0.0298466
0.0315424
7.3239
0.385354
0.021753
0.0621367
0.0221903
3.61221
6.28269
0.022278
0.072899
4.18005
0.0222649
0.0222539
0.136298
6.07369
3.32339
0.0222209
0.100788
0.0234259
0.0220492
3.09355
0.106335
0.131538
0.0216069
0.242595
0.0453639
0.109919
0.022667
0.0232976
0.0629881
0.0264542
0.273384
0.0542285
0.0526319
0.119674
2.59523
0.252405
3.93035
0.822386
0.3385
5.20134
0.0384701
3.0716
0.161519
0.0219394
0.036273
0.209265
0.026402
0.0219375
0.0219352
0.224532
6.63159
0.0312151
4.56621
0.0218226
3.3733
0.141203
7.40752
0.0619039
0.0261476
0.0245212
6.61916
0.129498
0.0369319
3.49576
0.0226013
2.51006
0.227359
1.614
0.0314146
0.278957
0.0220182
0.0222468
0.0235008
0.0220465
3.78047
0.0219983
3.02651
4.05838
0.0629038
5.12096
7.64878
2.005
0.236842
0.0286934
0.0221802
0.0220572
0.0216975
0.0217982
0.0221415
0.052785
0.0922637
0.0490651
4.48239
0.0231652
4.03901
0.0222939
7.54345
0.0367683
0.0222844
0.022133
3.95234
0.0264323
3.61048
5.66678
0.0559646
0.0740472
0.0217052
4.19595
0.0244272
0.0245082
3.11758
0.0221837
0.0226794
0.0218961
0.0671763
6.14779
0.0285978
0.03207
0.228178
5.20727
0.0292527
0.0267339
3.64964
0.0216942
3.64891
0.0222025
0.0236978
0.475739
0.13619
0.220666
0.0646968
0.0448663
0.0222294
0.0222938
0.0529612
0.0225783
0.0222367
0.0325603
0.239309
0.0219794
0.21648
2.1828
3.49465
0.0635181
13.4101
0.0364441
0.0221755
0.101438
0.0218337
0.0269964
3.8998
3.46864
3.34174
3.59787
0.0223496
0.0222463
0.0666464
0.0231476
0.0218545
23.8657
1.87453
5.23061
0.231182
0.137515
0.0220466
0.0217833
1.42752
0.0956647
0.0240706
0.0222542
0.228842
0.104913
4.53249
0.0222459
0.0221519
8.21831
0.0226422
0.0332871
0.0218136
4.24182
0.0218784
7.28253
0.0220716
0.116556
0.0420351
0.0669821
0.0318433
0.0220027
0.0246169
0.0220196
2.91917
0.0226736
4.0617
0.022677
3.91662
4.13902
0.0302301
0.0220011
7.35986
3.43891
0.0268032
0.138713
0.0220579
5.80178
0.0219615
0.194017
0.0220556
0.0220162
3.57593
0.034495
0.0221065
0.0397316
4.41424
5.38975
4.1918
0.0218296
4.83371
0.0220677
0.0219873
0.0222593
0.0215045
0.0222362
4.22506
3.971
0.0222862
0.0221566
0.0371149
0.0218985
7.20044
0.102145
6.05395
4.88905
0.0245567
0.273058
0.022062
0.0452913
0.112883
0.0218961
0.0222107
0.882511
5.97216
0.0728208
17.0722
0.0850142
0.0221006
0.0373299
0.143845
4.75814
0.0343938
3.42696
0.0970696
0.0222253
18.1145
17.7528
4.78621
0.429458
2.9016
0.0238483
0.14096
0.0221694
3.88182
0.0260404
0.0218681
4.20538
0.0230642
0.0220024
0.0221725
0.0229294
4.23463
0.219648
0.0218592
0.0380285
7.80711
0.0231889
16.6452
0.0232847
0.117398
4.4442
0.0220945
2.66058
0.0285681
0.0310688
6.17461
0.0230403
0.193226
0.120899
4.35628
0.022285
4.40484
0.0303351
5.38905
3.83246
5.26767
0.0576101
0.0220188
0.0223618
0.0222646
0.0577031
0.022122
4.32787
0.0282207
0.0279813
0.0290166
0.0237858
0.0218259
0.0297321
0.0268192
0.0238698
0.0265694
4.68885
2.79326
0.0305371
0.0454417
4.20389
0.0227288
11.0627
0.0217024
0.0320557
0.0226779
0.0219729
0.0415053
0.0220415
0.0218544
0.0469166
0.0220571
0.238047
0.0228474
8.55935
4.51309
0.329616
0.158817
0.0221216
4.95111
0.17697
0.022228
0.0267238
0.0225757
11.3987
0.0232685
0.0447953
4.10095
8.85284
0.067993
0.0221838
3.69737
4.08961
2.98182
0.0284726
0.0218108
0.0218275
0.0583948
0.0220195
9.29607
0.0993054
0.0222
3.05603
0.235329
0.0218781
4.72179
7.39199
1.59192
0.0227899
3.65212
0.0526907
0.0220153
6.91426
0.0265364
0.0218606
0.0219208
0.0391426
0.0581565
4.03641
13.333
0.0576612
3.99579
0.0412057
0.0220048
0.0838952
0.0219419
0.870578
0.0218642
0.0220448
0.0240315
0.0225411
4.10737
4.99961
3.07287
7.7805
6.04968
0.0291051
0.022007
0.022849
0.201861
0.021845
0.0218574
0.0381565
0.48449
1.45311
0.02167
0.0363379
0.0321889
0.130952
18.6151
0.0217183
0.0216061
0.0239169
0.471546
0.0326133
4.26524
0.0232834
0.0221635
0.0218631
0.0219168
0.0243839
1.70733
3.50005
3.97741
0.0289751
0.0220473
2.52976
0.0223815
5.40317
6.46174
0.0304053
5.40454
3.77905
12.1668
0.0896786
0.0342361
4.48084
0.0312079
0.0331274
0.0681246
0.229352
0.0225334
5.31297
0.0220076
3.81575
0.488402
0.0217059
0.0239895
0.0425677
0.215211
0.0351994
0.0221429
0.0305615
0.0232421
0.0271252
1.16507
0.0221622
3.48534
6.15454
0.0220097
0.0331755
0.0575514
0.0220762
3.46461
16.12
4.75368
3.87372
0.0220298
0.0244889
0.026072
0.0222739
3.00347
0.0360913
0.022258
0.0971358
0.0258978
3.94541
0.0429183
9.50546
0.0231542
0.0232269
0.0502837
0.0850681
0.0601031
0.0219638
16.2946
5.25797
27.0909
5.1971
3.85182
3.98375
5.67926
0.0219681
0.0220141
0.02204
2.35702
0.0684366
0.0581216
8.88095
0.0222145
0.0216731
0.0220424
0.666324
0.0216754
0.0277832
0.0237183
3.44288
0.0230153
0.021841
0.0220799
0.0219737
0.0221632
0.0340355
2.94125
0.0332131
4.13384
0.0220239
0.0219176
4.24231
4.14139
6.91439
3.4019
0.0478612
3.3156
0.0218058
0.0567901
0.0232328
0.0220765
0.0249178
7.2426
0.023164
0.0887249
1.02638
0.0222858
0.0219599
0.0264384
1.98274
0.0222725
3.42811
0.0220226
1.99503
0.0221262
0.0222832
0.0270014
0.094352
0.0221074
3.43847
11.3018
0.498933
4.16894
0.022025
4.70755
3.88427
0.0220402
0.497556
0.0222673
0.0417775
0.0221986
0.0221345
0.021954
0.0220499
0.022487
0.0272525
0.0787463
0.0222458
0.0220999
0.0628905
0.0217323
1.80026
0.0221277
0.031785
0.0420147
6.79337
4.72338
0.0221456
1.91567
0.0218086
0.0368553
0.0607157
3.35055
0.0604566
0.0222728
0.237862
0.075435
0.124796
4.37123
0.0349204
0.086733
0.0948628
0.0900063
0.0229784
0.0218538
3.53007
7.69998
0.0244461
0.0220109
17.4811
0.0218252
0.0423638
0.0219464
0.0675463
0.596959
0.021546
8.29842
0.0262299
0.0221711
0.424
0.0218696
0.040106
3.82896
0.0377272
3.53123
0.0219482
0.0222656
0.0441647
0.0222289
0.022248
0.0305316
0.0297796
0.0759451
0.0699292
0.0220826
0.0363952
0.0218405
0.022055
0.022218
0.0220442
0.855867
0.0218963
0.0233236
3.10478
0.0218211
0.0219995
4.11869
0.0222515
10.6991
0.0233498
4.01669
0.521444
0.0513037
1.43504
0.0491535
2.03785
0.0224265
0.111599
0.0264243
0.0218424
0.0218975
0.0233085
0.0318584
0.0219607
0.0466792
0.0218921
0.0231846
19.6421
6.89262
3.75044
0.0247997
0.0466648
6.46502
9.84003
0.0221735
0.0275132
1.97638
0.0222084
0.0356859
0.839814
3.93904
0.0291955
0.0551718
0.0228442
0.239627
0.0222862
0.0349233
5.21861
0.0221675
0.0218114
1.88965
0.0378917
3.20526
4.17417
0.223599
0.0224337
0.0218964
0.0223207
5.67605
3.7233
4.11717
0.0450577
0.0220447
5.55629
0.0221092
0.0945493
0.0267588
0.0236242
0.04388
0.0220493
5.41429
6.16112
0.0216677
0.066195
0.0694472
0.883271
0.0387301
0.0976774
3.12224
0.0415495
2.60565
0.0986602
0.0221111
0.0439113
0.081767
3.399
0.0220254
3.38785
0.0399176
0.108593
0.0222733
6.37129
0.0268354
0.0236921
0.0218643
0.03563
0.0346147
0.0537049
0.0221308
0.0227529
0.0492775
11.5738
0.0476269
0.0221566
0.0226449
0.044438
0.150244
0.0221722
0.0696153
1.18632
0.0434648
3.88284
0.0573531
8.24279
0.187555
0.0219681
0.432787
0.0222386
0.0247832
0.0377057
0.0357599
0.0634853
0.0662869
0.0401387
0.0412182
0.0297189
0.0241289
0.0216694
0.0816296
0.0260527
0.0286388
4.56376
0.0257235
0.0296968
0.0219306
4.95213
0.0644851
0.0220827
0.0249503
0.0233123
8.11017
0.0941361
0.0378041
3.74407
4.39639
0.548834
0.070584
2.69447
0.0218789
0.320056
0.0218582
0.0270241
1.07024
3.47337
0.186444
0.932872
0.0221205
9.70262
0.0218758
0.145885
0.0251157
3.17919
4.22401
0.0277848
0.0220219
0.178066
0.0432186
0.022009
7.06171
0.0220747
0.0237714
0.0260789
0.0221893
0.0293576
0.0233735
0.0220395
0.0328162
0.269232
0.0439285
0.0474537
0.0220039
7.23386
3.41472
0.0220017
3.32541
0.0250601
0.0291802
4.07191
0.0219979
0.0227593
0.0278563
5.25315
0.02202
0.0221835
0.0365836
2.89271
0.0219845
0.0315478
0.0329143
4.44673
0.0391421
0.0359535
3.12691
0.0220802
0.120015
0.0217165
8.82318
0.0287367
0.0220481
0.0295026
0.0616138
0.0221509
0.0221839
0.135678
3.40594
0.0223681
8.27492
0.0221893
0.0217085
0.0555087
0.022025
0.0218958
5.94051
0.0222749
0.0410379
0.392678
11.2632
4.4201
0.0218272
0.0240476
0.0281341
0.0220715
0.0220185
0.0220898
2.99843
0.0221977
2.0197
0.208403
0.0218042
0.0217438
0.0291813
0.208296
3.26297
0.0532484
0.0471418
0.0238235
4.00177
0.0653916
0.0367364
0.0504482
0.0582261
0.0612373
23.1901
0.0532856
4.00152
3.9276
8.34502
0.0249594
0.0219909
0.0340407
0.0341335
0.0218269
0.0223766
0.120399
0.0222446
0.0223393
0.0220424
0.0216091
0.0237848
0.0220644
6.71652
0.0220187
0.616873
0.0220791
0.0789976
0.0225697
0.19416
0.0702911
0.0220246
3.96776
0.0240278
0.0222286
0.0460017
0.0218298
0.0303469
0.0219863
3.45078
0.0241015
0.0388119
0.105315
3.9418
0.0278972
1.99866
4.63252
0.0453915
0.022119
0.0230104
0.10095
0.0505164
3.81527
0.0217794
9.75118
0.0221367
0.0886828
5.8467
0.0329142
3.02084
0.0250371
0.0322785
0.0247697
6.73744
0.0294606
0.0221425
0.0444808
0.0915852
0.0233321
0.022029
0.0221435
6.41577
0.0222546
0.0272163
4.1698
0.0259249
0.0219642
0.0497175
0.0247371
3.90964
0.0216732
0.0220012
0.0218551
0.026174
0.0224075
0.0221371
0.0856407
4.15757
0.0219492
0.0221053
4.09776
0.022248
7.86962
0.0240422
7.88989
0.0218732
0.0243416
0.0218071
4.16324
4.15512
0.0297862
0.0675815
0.0270677
0.0219566
0.0221175
3.45049
0.0221373
0.149567
0.0217818
0.0629695
0.0221919
4.13348
0.021831
0.0615543
0.0218246
0.436145
0.686038
0.021811
0.0413112
7.32512
0.0897338
3.44401
3.04231
0.18721
0.0234493
0.0330973
0.0708672
4.28865
0.0221721
0.0529431
0.0281544
0.0220125
4.16343
12.1539
0.0796962
0.158884
0.176946
0.0314647
4.03005
0.0218197
0.021805
0.0624355
2.79473
0.137381
0.0918634
4.0351
0.0218075
6.06231
4.2747
4.99944
0.0222035
3.91976
13.3652
0.716006
4.16241
4.4023
0.146807
0.029003
0.0976702
0.025662
0.0219808
0.432107
0.104859
0.0216547
6.61765
0.0221905
0.0288495
0.0460381
0.0267004
0.407496
0.0345614
8.65765
0.0628928
0.0262289
3.9169
4.34059
0.124686
0.0223751
0.0258827
0.0550279
0.0547915
0.0218242
0.0404745
0.0596026
0.0845747
0.0219627
0.123748
0.0242855
0.0443748
3.44678
2.63853
0.0230976
0.109308
6.07495
0.0221598
0.0228523
7.79569
0.205976
0.0241756
0.0246805
0.0220855
0.0634238
0.0264269
3.70789
0.0625668
0.0225398
0.0222237
0.066557
0.028734
3.9739
5.94101
0.0218818
0.022023
0.0269542
0.022196
0.0241729
0.0229525
0.0227804
0.0258352
0.0219206
0.0247907
0.0221783
0.0655928
4.36254
0.0222649
4.15204
7.65799
0.0217165
0.236884
0.104899
0.0690508
0.0227925
0.110409
0.0273522
0.0789619
0.0302664
0.0232225
0.0222098
3.86806
0.0313695
3.4989
0.0227641
0.0220311
0.0220117
0.0613577
0.0219436
0.0493702
0.0925419
1.62513
0.021903
3.99056
0.568073
5.08326
0.0217999
0.0871815
1.02456
0.543361
0.367797
0.0225571
0.0223392
0.119252
3.98269
3.45894
0.0420069
3.31969
0.0222316
0.021864
0.0378265
0.0221981
0.0221333
0.0974389
0.0222665
0.0900259
0.0218624
4.38735
4.13578
3.94898
3.45084
5.40697
0.0221135
0.0221435
5.91891
0.0217942
0.0218213
0.0217105
0.0999343
4.21116
3.73829
0.0275139
0.0221218
0.0231407
0.0357011
7.57383
0.0220354
3.11858
4.3626
0.0221907
0.022178
4.62364
0.136981
0.0235494
0.0220318
4.1934
5.54628
0.0220204
1.75198
0.022255
4.83154
2.67868
0.0237765
10.8409
8.48248
4.13746
0.0218467
0.0221725
0.0222475
0.0222866
4.15255
0.0219103
0.206161
2.84856
5.76231
0.0226944
0.0471057
4.30803
0.0413609
5.64861
10.0125
0.0216484
0.0261425
0.0262354
0.34213
3.8439
0.0215957
5.72868
0.0312559
0.0534231
0.0227947
0.0219428
0.163939
0.0351942
7.25713
0.0221978
0.0446577
0.0226017
0.18366
0.0244541
4.15125
3.89772
0.222542
0.2035
0.0219533
0.0238788
0.104487
0.217416
4.04235
6.60621
0.0221499
3.26344
0.0917807
5.27938
0.0288923
0.0373562
0.0354684
0.022118
4.14977
0.022062
0.0333704
3.91112
4.40354
0.524207
4.24087
0.0277386
0.0490484
0.0217673
4.39317
0.02686
0.795454
0.0217572
3.94161
0.021555
0.0219898
0.0324633
0.0312762
0.0319776
0.0219891
4.17129
0.0613551
0.0219136
0.0340864
4.26876
0.535825
0.022022
10.6387
0.0242574
0.0410554
0.0384999
0.0216985
0.0469222
0.0219818
0.869867
0.0734919
0.029149
0.022018
0.218852
0.0367877
0.0217564
4.04462
2.60684
0.387157
0.0216515
4.3419
0.0221391
0.107008
0.029512
0.100904
0.461816
4.45413
0.034679
4.22179
0.0436323
0.0281503
0.0218277
4.07279
0.0978042
0.0643408
0.0622419
0.0222438
3.08379
0.0595526
0.211724
2.98171
6.32702
4.12579
0.676829
4.49853
0.0285495
0.0314948
0.0220907
0.0221062
0.0216157
0.579907
0.0284631
0.0325308
8.68985
0.0219204
0.0218488
0.0570959
0.0956395
0.0285413
0.0217858
4.39728
0.0241825
0.0686051
0.0222523
6.85359
0.0286539
4.21425
0.0538775
0.0334854
0.0444528
0.022083
10.7223
4.2399
0.0493508
0.0220593
0.0219048
8.25816
12.2272
3.71822
0.0218743
0.0503699
4.10985
0.022084
0.0220018
0.0221407
4.20949
0.0991713
0.0324983
0.0299206
0.0270842
3.85999
0.0711292
0.502261
0.0282322
0.032806
0.0216013
0.10501
0.0449069
0.021999
3.34981
9.85504
4.48019
3.35797
12.3856
3.48815
5.64081
0.0231802
0.0218621
4.26771
5.4749
0.569777
0.0220873
0.0399395
0.0220489
0.021946
2.85965
4.38467
0.070018
0.0219912
3.59571
0.0911257
0.0428112
5.54328
0.367473
3.39016
0.0219103
4.18039
2.9325
0.224028
0.0381197
0.0403529
0.0221719
0.0218649
0.0346251
0.0392602
0.0243204
0.0502216
0.0285414
0.024952
1.61581
4.78245
0.0311178
0.0553057
5.19637
1.5031
0.0221136
0.480947
0.900387
4.55988
0.035851
0.0221699
0.0295625
0.0262584
0.0297162
0.0216974
0.0333285
0.0348048
0.0600102
0.188043
0.022231
0.0230323
4.24524
3.59884
4.3156
4.32297
0.239489
0.0215368
0.0220483
0.0296109
0.0217584
7.49641
0.0220338
0.0222745
0.0217343
3.34598
15.8258
0.0224333
0.0812334
0.0273256
0.0343004
0.0289965
0.0353032
0.0429524
0.0332711
7.23825
0.0267717
5.82714
0.0346669
4.25553
0.0281913
0.0219317
0.0218214
0.106781
0.129965
0.0218178
0.0379991
0.0284042
0.0451941
3.40676
10.5769
3.83679
0.0222743
0.483074
0.0292448
0.033723
0.0220188
0.0493702
0.0237474
3.99357
2.02028
0.036338
0.0220734
3.54934
0.0274241
5.40682
6.14205
1.6058
0.0242318
0.0860697
3.82789
1.11075
4.24636
0.0455102
0.0219755
0.0351629
0.0218737
2.0563
0.0245621
0.0298982
3.58373
4.46598
0.0219395
0.0219584
7.90485
0.036277
5.91204
0.0328648
0.0220328
0.0374611
1.85849
0.0433426
3.33545
0.0331221
2.21337
0.0249389
0.0222473
0.0219499
0.178755
0.022687
0.107992
0.0220455
0.0220493
0.17626
0.0272551
0.0221235
0.022029
0.0321984
3.66945
0.0564928
0.0350602
0.0264335
0.0462709
0.022034
0.119763
0.0297966
0.0408401
0.0686976
0.031201
0.0757378
0.0445303
0.021853
0.0821387
14.1347
3.82273
0.0221427
1.22766
5.16303
0.0219492
0.0226722
0.777991
5.42538
0.0280023
4.81852
0.183613
0.0220663
0.13066
0.0216133
0.0262913
0.0475221
1.20132
0.479584
1.15921
4.13373
3.30232
4.58212
0.0236297
4.34044
0.0220288
2.8236
4.93683
0.0220943
0.0220832
3.89674
0.0221119
0.0220806
3.79696
3.91831
0.206225
0.0273872
5.30962
0.0221042
3.55397
4.5917
0.0221909
3.60646
0.606859
5.05754
4.03169
4.36221
4.02554
0.0218693
0.0232394
0.0495526
0.0728692
0.0220749
1.02957
0.0220319
4.20216
3.62996
0.0483821
3.35359
4.07991
3.5725
2.84926
0.0611571
7.19608
0.276431
0.0259504
0.0216532
3.07456
0.0335794
0.0217887
7.41767
0.0219557
3.21766
0.0221343
4.32277
0.0264325
0.0219606
16.6651
0.027519
0.0350602
4.02562
5.91169
1.31972
0.0300628
0.0687184
0.0234185
0.0530177
0.130163
0.051743
0.0222113
1.58894
0.0555719
0.0314487
4.38773
0.0392549
0.03572
0.151826
0.0555664
0.060273
0.0219563
0.113149
0.0218219
0.145212
3.01331
5.83384
0.0218624
0.0346902
7.50947
0.0233876
0.0475186
0.036955
0.0367669
4.23799
0.0595152
0.0234768
9.95707
0.0218735
3.50238
0.022123
0.0230488
0.159872
3.6625
0.0305885
0.40803
0.525628
0.0358532
0.02224
0.155062
0.038629
7.53113
0.0266521
7.655
0.14238
0.0364747
0.0291137
0.0884519
0.0334496
0.0731593
0.061712
0.0368665
0.024216
0.0221196
0.922068
0.0219911
0.0279829
0.0216268
0.180109
0.0285193
0.0666861
4.89222
0.0230455
0.168339
0.0215292
0.0221442
0.0221907
0.0222084
0.0284262
0.0219274
0.135326
9.00177
0.0712477
0.0458156
0.0257931
0.022084
2.35489
0.0220203
3.79443
4.01687
7.71987
0.315557
0.0322704
0.0291946
0.0221792
0.0295801
0.0958288
0.0370335
5.28158
0.0760724
11.4373
0.339338
0.022211
0.0218333
3.85474
0.0219473
0.0306696
0.0647333
0.177586
0.023514
4.20845
0.0221735
0.0254229
0.0220514
0.0226833
0.160449
0.202475
0.0222633
0.0388506
0.0346209
0.0499553
0.0819931
0.45428
0.319457
0.184188
0.314069
0.0278651
0.0229781
0.0856563
3.56006
5.13451
3.69923
0.0357071
5.19236
0.215855
0.0228304
0.0219833
0.109324
0.0221426
0.0393988
7.54332
0.0219453
0.0218318
0.269746
2.74288
0.0677814
0.553895
0.0221069
6.81176
0.0364823
4.27069
0.0293214
0.0220422
3.60176
0.0598683
0.0220145
0.0651202
0.0222552
0.1241
0.0278975
0.054753
6.89716
0.033273
4.09121
0.0219153
12.4492
0.0221109
0.025887
0.0225488
0.0388217
0.0221439
0.0533626
3.54821
0.92478
0.0439165
0.0305445
0.0757802
0.0219322
0.0218937
0.0231349
3.66147
0.0259595
4.36753
6.08201
0.10702
0.0222185
0.102636
0.15193
0.102028
0.0274852
6.12874
0.0219603
0.0215447
0.0219444
0.471663
0.0221101
0.0219944
3.64967
0.021956
0.0917001
0.0966766
0.0218164
4.09075
0.0314921
4.35615
0.0219576
4.00332
0.0228557
0.070856
14.6225
0.0642191
0.0219275
0.0296014
3.87346
0.0388139
0.102076
0.031407
0.0258665
0.11366
0.0285183
0.0222473
24.6095
0.0283256
0.0316153
0.348883
0.0219515
0.0218728
0.0221895
0.0371438
0.0221124
0.025743
4.11472
14.294
0.100482
9.89492
0.107795
0.0450597
4.71467
12.1473
0.0224426
6.82357
0.638381
4.34932
0.465454
0.0296201
3.87499
3.80453
21.1069
0.449744
4.55411
0.0417832
0.0806792
0.029223
0.027586
0.0221681
1.03813
0.0222858
7.21069
0.119065
0.299296
0.0216147
0.0964433
0.0445048
0.0236136
0.0222933
0.022119
0.118196
0.0238587
0.0222976
0.0572976
7.28779
0.0244281
0.115867
0.0218221
0.122125
0.0805292
0.0221497
0.0263624
0.0219318
4.2936
4.06866
0.163564
1.7178
0.0319829
0.0772523
0.0221309
0.0563218
0.0220626
0.0223538
0.0222362
3.94204
0.0217886
0.0695275
0.596598
0.0272845
0.0325035
0.0219827
8.25417
0.1061
19.432
5.73111
0.0953638
0.192126
4.72677
0.173436
2.91678
9.02722
0.119309
0.0343069
0.370488
4.32015
0.0220369
7.78188
0.120863
4.15461
0.0216309
0.0751764
7.65595
0.022274
7.24501
0.0254723
6.36779
0.0220913
0.022105
0.049039
0.21056
0.0286943
0.0473022
0.0218219
0.0221732
4.02068
4.16463
13.8315
0.0890594
0.0222269
0.0224433
0.0221343
0.0345943
1.08161
4.04904
3.887
0.367621
0.0301284
0.0219482
0.0219798
7.83327
9.27983
0.167464
0.0264139
0.0245994
0.0805222
8.80394
8.17786
0.0215343
0.0219403
4.07242
0.0230405
0.222895
0.027863
0.0220767
0.0311502
0.0452401
6.17767
4.28872
0.0222027
0.0218332
0.0246001
1.87154
5.73293
0.0222668
0.0917225
5.04394
0.0215459
2.74859
3.60458
18.3789
0.0221089
8.98846
4.58667
0.0367295
0.289399
0.0255251
0.314248
0.185467
0.0260951
0.0219256
9.83935
0.383654
0.0218457
0.153997
0.0804962
0.0309455
0.189774
4.57707
4.15559
4.28046
0.0310559
0.0235773
0.0233199
4.29729
5.18858
5.10605
7.76227
6.09771
0.0217483
0.0572396
0.0220663
0.0221143
0.0247973
0.0219539
0.0220519
0.0221948
3.81189
10.4598
4.58576
0.0540267
0.117078
0.0364047
0.0218667
0.0219845
5.88389
0.0221366
5.19464
3.69873
0.0221801
0.0219227
3.92387
0.0226264
0.47392
0.0256024
0.0217522
0.0217457
5.76066
0.0216981
7.13021
5.51052
0.0215941
0.0426038
0.0219437
0.023108
0.0219155
0.0928068
3.62781
0.0219585
4.31975
0.421657
0.0239948
0.0219155
0.0227059
0.0235389
0.0222295
0.264752
5.72398
8.02188
0.0583459
13.1719
0.022274
0.0267501
0.0222265
0.1375
0.023457
3.94103
0.0218525
4.12845
3.94963
6.04342
0.368891
0.0218489
0.037359
0.0219444
5.48383
0.0219557
0.0277534
0.0259364
0.0257276
0.0221991
0.0222518
0.0319884
4.27083
0.022182
0.0228618
0.0241577
0.0324795
1.29491
0.0221901
7.45923
3.50079
0.0238996
4.14428
7.43012
3.09997
4.74839
0.0215594
0.0231424
3.38053
3.97606
0.0891602
3.45727
3.85061
0.031207
0.0430443
0.0334267
4.28995
0.0220251
0.0219612
4.15083
0.115861
7.59864
0.0254436
0.0217202
0.0220352
7.29705
0.091275
0.0236485
0.183007
0.0218667
0.099861
0.0299653
0.0305353
0.0220343
0.0221908
0.0219057
0.0249705
1.24311
4.28072
0.021603
0.0219398
4.25059
0.0221085
0.0593369
0.0260174
0.0256728
0.0533412
0.0222863
4.25291
0.0316531
0.0253118
16.2891
0.0996549
0.0232976
0.0422422
0.0220133
0.0225544
14.2572
0.288217
3.92107
0.0223455
0.0221538
0.0476047
0.027175
0.022019
0.0527303
9.25374
0.0254581
0.0361528
0.0252368
0.167423
0.0221143
0.021748
7.86035
4.09562
4.07018
0.0219523
0.166416
0.0216338
0.0220099
0.135424
4.0507
0.0769881
0.0274873
0.155126
0.0229598
0.0323737
0.0506258
0.758612
0.0223484
0.0216597
0.0225625
0.0238428
0.0303033
0.0219421
1.06681
12.1781
0.0221581
0.0315806
0.022408
0.0216938
4.23062
4.22401
10.9842
0.13384
0.0223857
0.0801123
4.35375
0.0617771
0.227093
0.0332345
0.0293706
4.84317
2.44296
0.529684
0.0217619
0.0301008
0.0221057
0.0289384
7.1787
0.0216434
0.037788
0.0254895
0.0291863
0.0231261
0.0218417
0.0218682
3.97347
0.0459495
0.0329577
0.0701532
0.0335383
0.612967
0.0305273
0.47661
0.0219104
10.5802
6.31851
6.53865
0.0222649
0.0320409
0.0220839
0.0219711
13.7252
0.0437623
11.6709
0.0219777
0.0439659
0.343739
4.13818
0.027906
0.021686
6.55102
0.022286
0.0222847
0.0226647
0.0220241
13.0916
0.021839
0.0218771
0.0346368
0.0272106
0.126506
0.107117
0.0328035
4.15533
0.0220463
0.119375
0.0218338
11.8804
0.0322354
0.42976
0.0826499
2.16771
0.159896
9.12065
0.0232411
4.81355
0.0319392
7.44153
0.150331
0.0279888
0.14358
0.0221703
14.5243
0.0232684
0.0343297
0.0270932
4.46702
0.310106
10.0545
0.0305698
0.0219981
5.96869
0.168185
0.100218
0.0846649
3.34051
8.75281
0.0367603
0.172219
0.0381344
0.0218832
0.0427858
0.190854
0.062051
28.0307
0.0967431
0.0217671
0.0220051
0.111335
0.0220852
4.14272
0.0652987
0.0220835
3.40025
0.41175
2.93491
0.0887298
0.0220648
0.0288603
0.0257292
5.64126
3.54876
0.0258111
7.40501
0.0219042
0.0313795
0.519542
0.021987
0.0354351
0.0219145
0.0257965
0.0222517
0.151975
4.13479
0.0299872
0.0288977
0.0217407
0.103668
0.0219199
0.0218306
0.0325328
0.0219084
0.145009
6.74829
0.684069
4.30276
0.0217962
12.8868
0.0221909
0.0367802
0.10116
0.0221276
2.08734
0.0618084
0.0220614
0.0216794
0.0366113
0.0356832
0.157417
2.10364
0.0258813
0.0239122
4.75413
0.0786943
0.173536
0.529784
9.80244
3.33554
12.1363
0.543717
0.0221437
0.0221138
0.0420445
0.0222566
0.0437003
0.0533884
6.93565
11.5747
8.11592
0.0217331
0.021809
0.095916
3.63083
11.0879
0.511462
3.44977
0.0550362
0.0324428
0.524829
3.92562
0.0288165
4.55074
0.0328721
0.0301641
6.23454
0.0558369
0.0220398
3.86766
0.710288
0.025662
0.104931
0.0231792
3.10161
4.20468
4.27915
0.0219998
0.021695
0.137324
0.0220027
0.0219807
0.0220073
0.0217405
0.0220135
0.022021
10.8464
0.0273014
0.045087
8.08176
0.0218865
0.0220302
0.0307921
0.0282245
0.0275431
0.0220396
0.0561772
0.0295368
0.0264619
0.0814683
5.47985
0.0220513
0.0417754
0.0220646
0.0220258
0.0216009
0.0220783
4.37528
0.0219308
0.022011
0.0220929
0.0399332
4.56513
7.75718
10.2905
0.465395
0.0434448
4.89687
5.03726
0.021941
0.0412176
4.26551
2.39166
0.0221085
0.0324007
0.0597829
0.0376174
0.0220544
0.063559
0.057826
0.0436946
0.021651
0.0443482
2.60491
0.0216014
0.450561
4.30006
0.0412048
0.660224
0.0329301
0.0220868
0.0261399
0.0219959
0.196866
9.05646
0.0217172
0.0417285
0.0219538
0.0219782
0.0222162
0.0222864
0.0357249
0.022173
0.0992499
0.103344
0.0254864
0.0244915
0.0392527
0.0220395
0.0435768
0.040819
0.0224392
0.022098
0.0221409
4.32512
0.0219967
0.160909
0.0621131
0.0222557
0.0220247
0.0217997
5.73059
0.0251167
0.0419554
0.0440346
8.56122
0.0280887
4.47142
0.409108
0.0422364
0.0219556
0.132067
0.0343979
6.3096
0.0591432
12.3308
0.0216769
0.0433708
0.0429734
4.33204
0.0219861
0.0512955
8.36673
0.0218702
2.46885
13.8597
3.59757
0.0219574
0.0218263
4.34572
0.0220416
6.89699
0.0979996
9.34369
5.80749