/*--------------------------------*- C++ -*----------------------------------*\
| =========                 |                                                 |
| \\      /  F ield         | OpenFOAM: The Open Source CFD Toolbox           |
|  \\    /   O peration     | Version:  v2012                                 |
|   \\  /    A nd           | Website:  www.openfoam.com                      |
|    \\/     M anipulation  |                                                 |
\*---------------------------------------------------------------------------*/
FoamFile
{
    version     2.0;
    format      ascii;
    class       volScalarField;
    location    "50";
    object      k;
}
// * * * * * * * * * * * * * * * * * * * * * * * * * * * * * * * * * * * * * //

dimensions      [0 2 -2 0 0 0 0];


internalField   nonuniform List<scalar> 
13917
(
0.00848148
0.000172861
0.000224015
0.000149504
0.000176808
0.000171439
0.000158892
0.00542321
0.000157015
0.00454691
0.00110448
0.000146893
0.000163424
0.00393282
0.000160349
0.00777494
0.000166289
0.000199114
0.000200289
0.00776812
0.00016917
0.000148273
0.000175328
0.000148294
0.000152442
0.000172291
0.000196952
0.00376906
0.000188619
0.00013904
0.00205341
0.000187364
0.000149522
0.0128525
0.000157176
0.0117139
0.000154584
0.000173772
0.000158979
0.000171392
0.000149973
0.000152293
0.000154219
0.000199954
0.000199438
0.000221037
0.000166953
0.00922067
0.0139301
0.000157452
0.000146638
0.00019438
0.00595526
0.00014658
0.000147015
0.000194471
0.000695272
0.000175216
0.000151366
0.000221768
0.0409405
0.000265516
0.000142
0.00015197
0.000338307
0.000141332
0.000199654
0.0117326
0.000364323
0.00873749
0.000279874
0.0123518
0.000146669
0.000149993
0.000170171
0.000153603
0.000158989
0.000149221
0.000153076
0.000149792
0.000149388
0.000168396
0.000146529
0.000290518
0.000142054
0.0112432
0.000186303
0.000145918
0.000171212
0.000163928
0.000147704
0.000154568
0.0121195
0.000150365
0.000149346
0.000198955
0.000306109
0.000166297
0.000145043
0.000217205
0.000144298
0.000144023
0.00014953
0.000148264
0.000158031
0.000295305
0.0111158
0.000260321
0.000154798
0.000414275
0.000144689
0.0128719
0.000188653
0.00868188
0.000221431
0.000154497
0.000198584
0.000146997
0.00021594
0.000145869
0.000164955
0.000147806
0.00021619
0.000192455
0.0100341
0.000279288
0.000151542
0.000172358
0.00014899
0.000193137
0.00016597
0.000218844
0.00500959
0.000154428
0.00019156
0.000324752
0.0467846
0.011482
0.000175616
0.000173306
0.00229232
0.000148417
0.000296346
0.000143993
0.000145944
0.000168706
0.00027103
0.00985384
0.00814663
0.000146826
0.00016875
0.000143123
0.000145727
0.000145957
0.000294805
0.000151946
0.000147994
0.00768267
0.000151067
0.00014877
0.000142138
0.00530459
0.000157983
0.00196742
0.0138191
0.000232622
0.00569424
0.0151902
0.000140463
0.000178799
0.000149176
0.00499219
0.000156937
0.0283946
0.000181336
0.000146016
0.000149509
0.000196885
0.000165192
0.000158747
0.000153989
0.000148719
0.000146626
0.000213712
0.000216662
0.000220399
0.000146429
0.000214099
0.000139231
0.00550545
0.000181548
0.000197261
0.000203566
0.00847158
0.000150672
0.00999813
0.000157399
0.00199629
0.000156051
0.000151343
0.000164197
0.00862577
0.0106704
0.000153659
0.000222845
0.000171295
0.000169087
0.000148498
0.000196573
0.00014943
0.0001435
0.000142812
0.000141441
0.00889027
0.000190775
0.000174529
0.00752229
0.000157577
0.000142273
0.000142195
0.0149097
0.00020766
0.000216154
0.000143358
0.000142754
0.000807801
0.00918506
0.000141885
0.000141785
0.000150217
0.00014252
0.000142435
0.0116091
0.0111245
0.000148439
0.000140134
0.000184356
0.0119882
0.000156735
0.000143348
0.000178032
0.000295386
0.000211121
0.00818954
0.000186746
0.000143978
0.0152231
0.000185673
0.000183208
0.000189266
0.000153166
0.0105496
0.000146005
0.000171819
0.000180208
0.000149151
0.000149977
0.000151925
0.000164206
0.000155051
0.0126022
0.00535809
0.000148955
0.000141633
0.00015245
0.000141612
0.000146053
0.000163717
0.000168564
0.000149726
0.0143891
0.0111508
0.000144844
0.000157412
0.000232305
0.000142584
0.000208262
0.013909
0.00014253
0.00997791
0.000153484
0.00457551
0.000146033
0.000158908
0.000149556
0.00014424
0.000207773
0.00016491
0.000253534
0.000160833
0.0052601
0.000174283
0.000200038
0.011772
0.000150686
0.000178171
0.000166055
0.000155144
0.000171272
0.000152928
0.00015121
0.000157501
0.000195528
0.00506234
0.000171037
0.000152558
0.000143246
0.00561139
0.00784121
0.000148336
0.000178621
0.000155208
0.00767435
0.000206444
0.0115248
0.0223722
0.000140457
0.00020084
0.000156367
0.000286605
0.0109869
0.000223434
0.000162394
0.000160415
0.000196176
0.000150411
0.000176679
0.000196773
0.000162643
0.00462505
0.000142454
0.000173876
0.000146587
0.00583724
0.000140136
0.000169416
0.000172615
0.000140096
0.000160339
0.000189598
0.000295492
0.000148897
0.00015058
0.012936
0.00029538
0.00440604
0.0029909
0.000142382
0.000147899
0.000294672
0.00020184
0.000142307
0.000169827
0.000146489
0.000190143
0.000170036
0.00019692
0.000187526
0.000207879
0.000173329
0.0113569
0.000149364
0.000148919
0.000206944
0.000214578
0.000159421
0.00804765
0.000173195
0.00192226
0.000147299
0.000194663
0.000180277
0.00560416
0.0001522
0.000217066
0.000232307
0.000176175
0.000145061
0.000256682
0.000150069
0.0148358
0.000206113
0.000152164
0.00786216
0.000151469
0.000359363
0.000142477
0.00810475
0.000398043
0.00015345
0.00135613
0.0002026
0.000152227
0.0105869
0.000227094
0.000152341
0.000208354
0.000147223
0.000208289
0.000222319
0.000142662
0.000158124
0.000152465
0.000143762
0.00014087
0.000149394
0.0466071
0.000223471
0.000148035
0.000150864
0.000147463
0.000176651
0.0130531
0.00014353
0.000140444
0.00020558
0.000194024
0.000144516
0.000153069
0.0144632
0.000226451
0.000141473
0.000202215
0.000275508
0.000144811
0.000143038
0.000165674
0.000140751
0.000143572
0.000148826
0.000143142
0.000144635
0.0139553
0.00014744
0.000173213
0.0153602
0.000177693
0.000143891
0.000145542
0.0091378
0.000164406
0.00920052
0.000145473
0.000143317
0.000150889
0.000142795
0.000154264
0.000152518
0.0131443
0.000172036
0.000296966
0.000143275
0.000168181
0.000176788
0.000149208
0.00018624
0.00558106
0.00014624
0.000665659
0.000144408
0.000144373
0.000147223
0.000151499
0.000142565
0.000150854
0.00666439
0.0327054
0.000142272
0.000166872
0.000204714
0.000147604
0.00017995
0.000190352
0.0116059
0.000159289
0.000297288
0.000918787
0.000772105
0.000152557
0.0001408
0.000178588
0.000152713
0.000188762
0.000149438
0.000146252
0.000149354
0.000157597
0.000167637
0.00021201
0.000180399
0.000164528
0.000158987
0.000202253
0.000180031
0.000148041
0.0045044
0.000168365
0.000160779
0.0159471
0.000142127
0.000180901
0.000200448
0.000140171
0.0144077
0.000145342
0.000142773
0.000177604
0.00014552
0.000154397
0.000194225
0.00879353
0.00262439
0.000142077
0.000150264
0.000163364
0.000206383
0.00203112
0.00014753
0.000146818
0.000141894
0.000179089
0.00619692
0.000150595
0.000158123
0.000150959
0.00014338
0.000133779
0.000160946
0.000151965
0.000180778
0.000140164
0.000147513
0.000152124
0.0118179
0.000140088
0.000153718
0.000155545
0.000167206
0.000183834
0.000201821
0.000180766
0.00021867
0.000151489
0.000216861
0.00147006
0.0131767
0.0169781
0.000147646
0.000147174
0.000168231
0.000143997
0.000307334
0.000142853
0.0134663
0.000157344
0.000133155
0.000213351
0.000154247
0.0155454
0.000142271
0.000186151
0.000163209
0.0001617
0.000308947
0.000144472
0.000223201
0.000142838
0.000153662
0.000147409
0.000210985
0.000154302
0.000141339
0.000200559
0.000179217
0.016214
0.00028342
0.00333933
0.0121237
0.000140044
0.00920037
0.000141777
0.0446374
0.00925663
0.000165007
0.000188553
0.000143756
0.000167937
0.000153485
0.000144489
0.000162383
0.000162269
0.000271093
0.000142458
0.000184652
0.000146029
0.000141505
0.000151082
0.000207581
0.000362985
0.0119826
0.000187665
0.000160729
0.00024072
0.0124901
0.000143128
0.000569549
0.000160777
0.000199249
0.000143967
0.000250308
0.000143192
0.000103308
0.000146167
0.0157812
0.000168856
0.00120876
0.000152143
0.000167606
0.00015592
0.00014452
0.0117068
0.000242056
0.000160567
0.000199208
0.000143239
0.000159131
0.000143478
0.0123609
0.000142475
0.000165335
0.00014285
0.00015821
0.000214362
0.000143516
0.000198104
0.000171775
0.000140149
0.0447802
0.00018549
0.00014719
0.00621898
0.000222075
0.00363003
0.000201014
0.00014197
0.000161555
0.0113895
0.000228811
0.000163943
0.000154559
1.44816e-05
0.000167083
0.000147857
0.00014062
0.00018505
0.000155958
0.0167892
0.000169345
0.0149887
0.00313678
0.00502307
0.000168032
0.000203045
0.0107634
0.000151575
0.00136421
0.000140461
0.00014022
0.000152369
0.000150203
0.000165716
0.000153931
0.00912732
0.000168142
0.000144022
0.000194932
0.000151243
0.0114529
0.000153106
0.000149213
0.0118649
0.000182777
0.010871
0.000147187
0.000156936
0.000149793
0.000149098
0.000160968
0.000144582
0.0101004
0.000163211
0.0105098
0.0106971
0.00124919
0.00337495
0.00015031
0.000156499
0.00015727
0.0142321
0.00278236
0.000157979
0.00987544
0.00753482
0.000140319
0.000148854
0.000154374
0.000296787
0.01273
0.000169059
0.000148943
0.000153717
0.000200223
0.000155626
0.000196834
0.000168302
0.000149004
0.000149869
0.000158322
0.000160778
0.000159682
0.00023081
0.00015599
0.000168645
0.00985926
0.000139953
0.00909895
0.000153903
0.000165172
0.000157157
0.000226669
0.000164157
0.000184486
0.000138056
0.000142552
0.000144175
0.000155995
0.000160519
0.000143343
0.000146012
0.000188779
0.000175654
0.000207177
0.000198174
0.000141647
0.000234386
0.000156928
0.000157654
0.00020085
0.000148332
0.000186126
0.000278175
0.000141142
0.000182857
0.0001837
0.000167946
0.000145781
0.000142901
0.000147959
0.00819241
0.000149312
0.000154546
0.000173374
0.000144882
0.000145067
0.000193297
0.000267018
0.000173145
0.000533111
0.000186035
0.000294222
0.000146055
0.000160204
0.00022939
0.000165327
0.000353535
0.000160374
0.000151953
0.000146975
0.000156935
0.000203264
0.000145802
0.000226937
0.000151478
0.00803389
0.000153915
0.000159173
0.000146634
0.000189251
0.000158889
0.00477408
0.000130625
0.000168318
0.0115733
0.000150154
0.0118765
0.000152987
0.00544652
0.000154803
0.000146882
0.000144039
0.00436943
0.000160614
0.00618637
0.00403919
0.000143278
0.000168195
0.000140254
0.000215997
0.00262541
0.00014012
0.0141236
0.000153877
0.00537209
0.000197431
0.00144349
0.000139367
0.000152757
0.000189076
0.000141996
0.00014639
0.000151735
0.00014715
0.000173465
0.000139378
0.000289437
0.000149017
0.00818562
0.011918
0.0109019
0.000296652
0.000449204
0.00781419
0.00595421
0.000139778
0.000157984
0.000145175
0.000150136
0.000141951
0.00016086
0.000143028
0.013627
0.000146626
0.00024274
0.000149029
0.00016422
0.00018747
0.000149077
0.00017367
0.000150146
0.000164442
0.000157688
0.000150018
0.00289192
0.000186334
0.0002002
0.000148487
0.000144381
0.000149722
0.000151763
0.0147282
0.000140017
0.000230063
0.000142888
0.00131416
0.000160089
0.000143541
0.000185419
0.000279221
0.000140237
0.00939253
0.000180166
0.000154484
0.000189667
0.000142219
0.000225338
0.000155609
0.000151204
0.0104202
0.000158923
0.000149776
0.000194316
0.00982218
0.000159648
0.00460985
0.00024621
0.000153463
0.000154208
0.000147382
0.000264381
0.000144163
0.0002026
0.000146209
0.0140381
0.000159579
0.0111581
0.000150548
0.000142977
0.000489836
0.000157877
0.000139704
0.000212258
0.000151744
0.000141024
0.0132061
0.000153404
0.000158029
0.000185067
0.000152046
0.000271176
0.000171416
0.000190172
0.000198666
0.000153565
0.0131146
0.000149878
0.000183938
0.000143606
0.0144658
0.00119587
0.000147662
0.000155792
0.000159507
0.000147527
0.000152617
0.000145188
0.000149631
0.000143956
0.000161473
0.00014144
0.000151276
0.000188706
0.0130552
0.00649015
0.000192405
0.000149608
0.000493227
0.000142602
0.000229591
0.00449324
0.00569883
0.000142348
0.000139959
0.000146223
0.000146253
0.000142275
0.000150884
0.000142862
0.000168794
0.000141051
0.00713384
0.0113244
0.000142204
0.00318405
0.000143676
0.00014918
0.000243773
0.0123467
0.000183148
0.000147418
0.0124024
0.000153622
0.000150566
0.000237515
0.000159199
0.00029141
0.000150076
0.00824012
0.000143866
0.000148843
0.000164545
0.00115709
0.000151255
0.0132705
0.000383173
0.000162957
0.000155224
0.000144377
0.000142546
0.000195998
0.000167369
0.000155601
0.0148478
0.0073709
0.000531386
0.000197443
0.000149042
0.0158301
0.000148005
0.0233525
0.0001796
0.000158276
0.000150743
0.0202514
0.00409675
0.00026118
0.000167932
0.00922306
0.000152723
0.000143027
0.000168464
0.000148683
0.000146003
0.000242551
0.0100392
0.000148537
0.000159696
0.0120185
0.000142759
0.000142268
0.0132254
0.0105322
0.000149792
0.00014189
0.000158335
0.000145346
0.000150374
0.00019282
0.000156903
0.000144979
0.0089291
0.000168761
0.000164424
0.00358249
0.000318656
0.0141425
0.000147437
0.000148762
0.000242394
0.00966215
0.0003142
0.000187438
0.00016643
0.000148456
0.00015016
0.000159445
0.00652754
0.000172649
0.000151449
0.000179848
0.000143861
0.000142034
0.000188308
0.000202755
0.000184063
0.000230856
0.011998
0.00849197
0.011184
0.000175206
0.000227882
0.00014225
0.00017835
0.000184316
0.00507179
0.000155249
0.00016179
0.000156541
0.0148905
0.00015213
0.0123612
0.000166763
0.000184404
0.0162796
0.000151939
0.000198846
0.000152797
0.000146487
0.000271598
0.000170451
0.000144783
0.000140952
0.000150852
0.000283048
0.000141181
0.000151861
0.00015342
0.000149862
0.000145285
0.000186626
0.000188339
0.000151188
0.000148111
0.000306482
0.000238755
0.000166854
0.011052
0.000147544
0.000143971
0.0016692
0.000154772
0.000152375
0.00998832
0.0148148
0.000176429
0.000178276
0.000158476
0.00863219
0.000240548
0.000166173
0.000276667
0.000150018
0.000185814
0.0127441
0.00021792
0.00542588
0.00236908
0.000144475
0.000147288
0.000163316
0.000145465
0.00014781
0.000232045
0.000157894
0.000173304
0.000139407
0.000182999
0.0101548
0.000152225
0.000178677
0.000200092
0.000143989
0.000190762
0.000157349
0.000151319
0.000143369
0.01632
0.000186999
0.0103098
0.000159462
0.0276026
0.000184492
0.000157077
0.0106956
0.000167005
0.000180433
0.000143755
0.000220912
0.000143407
0.00015687
0.000171641
0.000156611
0.000148615
0.00018088
0.00850375
0.000142254
0.000204001
0.00792011
0.000146435
0.000142463
0.000167972
0.000263559
0.000226199
0.00014575
0.000163272
0.000183328
0.00261228
0.0105218
0.000145649
0.000140939
0.000144426
0.000144423
0.000169769
0.000153985
0.000265507
0.000151501
0.000154801
0.000180806
0.000186591
0.000191885
0.0096308
0.0278968
0.00014742
0.000147683
0.00014052
0.000150948
0.000188527
0.000674764
0.000206117
0.000188187
0.000163775
0.000178191
0.00015324
0.000187294
0.000156456
0.000199303
0.000150947
0.000234594
0.000191583
0.000143666
0.000147051
0.0122598
0.000175583
0.000190726
0.0138938
0.000192601
0.00014962
0.000228723
0.000165432
0.000142649
0.00116773
0.0107695
0.000151159
0.000175367
0.000196705
0.000166818
0.000149449
0.000139656
0.000142586
0.000143581
0.000143289
0.000161919
0.000177556
0.0119503
0.000167181
0.000157039
0.000164466
0.000183881
0.000147803
0.000167922
0.000214532
0.000224921
0.0111636
0.000151354
0.000140408
0.0150708
0.000141875
0.000293471
0.000151367
0.000173603
0.000147704
0.000142331
0.000232488
0.000157648
0.000150974
0.000144297
0.0216887
0.000231766
0.0124947
0.000150666
0.00014695
0.00291804
0.000148382
0.000145004
0.000195669
0.00905978
0.000158481
0.000165873
0.000149233
0.000277918
0.000142615
0.000158009
0.000148598
0.000140562
0.00022439
0.000142619
0.000143228
0.000248633
0.000183143
0.0123561
0.000222094
0.00014226
0.00016274
0.000145047
0.000149266
0.000155305
0.000151665
0.000145969
0.000220123
0.000145568
0.000183186
0.000247553
0.000178957
0.000145523
0.000163894
0.000149001
0.0173571
0.000144415
0.0108547
0.000187376
0.000154314
0.000179339
0.0001658
0.000163055
0.000145396
0.000227618
0.000142544
0.000143693
0.000209298
0.000166909
0.000174157
0.000147295
0.000154718
0.000150628
0.000227417
0.000143687
0.00849535
0.000173944
0.000149577
0.000143036
0.000141232
0.000173573
0.000197093
0.00125575
0.000388676
0.000140855
0.00017864
0.000185697
0.0001538
0.000999796
0.000139457
0.000143973
0.000155432
0.000200038
0.000141419
0.0129682
0.000146361
0.000148447
0.000196686
0.000222315
0.00879915
0.000219466
0.000156768
0.000201314
0.00019768
0.000144898
0.00130665
0.000143746
0.000145594
0.00224735
0.000140372
0.0120492
0.000211834
0.000142716
0.000144076
0.000145092
0.00223271
0.000149213
0.000140002
0.000189467
0.000142292
0.000144637
0.000160187
0.000144993
0.000175552
0.000146512
0.00015553
0.000139377
0.000209401
0.000470328
0.000139563
0.000139705
0.000149553
0.000142932
0.000153903
0.000150105
0.000151818
0.000146743
0.000144579
0.00015048
0.000144804
0.000220142
0.000141507
0.00018924
0.000147857
0.000182102
0.000145012
0.000145796
0.000144344
0.000144875
0.000169165
0.000159504
0.000156182
0.0155315
0.000241167
0.00953047
0.0100586
0.000190207
0.000295128
0.00014727
0.000144591
0.000268382
0.0204051
0.000150717
0.0125275
0.000142485
0.000203696
0.00622094
0.000153587
0.000189004
0.0109058
0.0140765
0.00015382
0.000176715
0.000142394
0.000549554
0.000154572
0.00958995
0.00801962
0.000146541
0.000261258
0.000249925
0.000167849
0.000192305
0.000142463
0.000152144
0.000140861
0.000140671
0.0144919
0.000144879
0.000164911
0.000147829
0.000260286
0.000194548
0.00014573
0.000145755
0.000249497
0.000148897
0.000144029
0.000149003
0.000141298
0.000256554
0.0001659
0.000160732
0.0159313
0.000143316
0.000192479
0.00014657
0.000140914
0.00017756
0.000678882
0.000144314
0.00015968
0.000145164
0.000153182
0.000153722
0.000145171
0.000186597
0.000150893
0.000142219
0.0001423
0.000192537
0.000140779
0.0147342
0.00662883
0.0118717
0.000148444
0.000147003
0.00014267
0.00588453
0.000147236
0.000291767
0.00015515
0.000346904
0.000151946
0.000163795
0.000229941
0.0001462
0.00016428
0.0140312
0.000197736
0.0127674
0.000157627
0.000140426
0.00932941
0.00014614
0.0134846
0.000146894
0.00015743
0.0170427
0.000152967
0.000176787
0.0102837
0.00016262
0.000185591
0.000145368
0.000270024
0.000143918
0.013085
0.000142657
0.00982511
0.000144057
0.000145089
0.000154183
0.00833288
0.000147438
0.000238223
0.000184469
0.0144361
0.000142964
0.000162326
0.00247951
0.00772511
0.000175349
0.000183404
0.000144992
0.000195867
0.00027983
0.00015408
0.000248632
0.000143419
0.000201756
0.00819147
0.000148495
0.010594
0.000143046
0.000215853
0.000252489
0.000153414
0.000156342
0.00898058
0.0119057
0.00014413
0.000151118
0.000141803
0.000146027
0.000228773
0.000179754
0.000232792
0.000150673
0.000159124
0.0115235
0.000187045
0.00297524
0.00025983
0.000142035
0.000143587
0.000217169
0.0161312
0.00303001
0.00747454
0.000220722
0.000171436
0.000743362
0.00100188
0.0128651
0.00701459
0.000140861
0.000186297
0.000172953
0.000181524
0.000144465
0.000157684
0.000178821
0.000235604
0.00940275
0.000154829
0.0104715
0.0153659
0.000179318
0.000143839
0.000143884
0.00239991
0.000148054
0.00659387
0.000159951
0.000159214
0.000204339
0.000168867
0.000139481
0.000167351
0.000162188
0.000144642
0.000321413
0.000169438
0.00207391
0.000148108
0.0133713
0.0002305
0.000218268
0.000144876
0.000157876
0.000163619
0.000662119
0.000189668
0.000186646
0.000228112
0.000298831
0.000139946
0.000156749
0.000161725
0.000199388
0.00913593
0.000143422
0.000139215
0.000150835
0.000220998
0.00310454
0.000149311
0.000176828
0.000203823
0.000140911
0.000173222
0.000154093
0.00134735
0.000162189
0.00288524
0.000294454
0.000160432
0.000155004
0.000245165
0.000142457
0.000183436
0.0111164
0.000164435
0.000207071
0.000164628
0.000182797
0.0140539
0.000143768
0.000145177
0.00506795
0.000256635
0.000140374
0.000205803
0.000183013
0.000191193
0.000189293
0.000254004
0.00609026
0.000191336
0.0111822
0.000158437
0.000187038
0.000141518
0.00014691
0.000145127
0.000142113
0.000231093
0.000246476
0.000144787
0.000178557
0.000214469
0.000142336
0.00681234
0.00117696
0.000138948
0.000146971
0.000141876
0.000150361
0.000175208
0.000143899
0.0193505
0.000161948
0.000182332
0.000156723
0.000180969
0.000934076
0.000162155
0.00942755
0.000144668
0.000150816
0.000144277
0.000147385
0.000924759
0.000197204
0.000161725
0.035769
0.000150876
0.000148631
0.000165184
0.000143094
0.000149584
0.00018893
0.000156231
0.0114565
0.0122864
0.0351978
0.000145641
0.0452568
0.000142966
0.000235259
0.000139294
0.000205256
0.0203466
0.000145814
0.000220183
0.0120601
0.000166401
0.00015288
0.000147417
0.000159877
0.00380351
0.000140946
0.000147285
0.000159383
0.000173877
0.000218382
0.000153964
0.000156649
0.000141821
0.000163694
0.000246757
0.00016589
0.000156621
0.000199453
0.00133255
0.00728902
0.00339337
0.00016035
0.000150057
0.0111997
0.000144706
0.000184779
0.000145937
0.000244955
0.000170106
0.000150419
0.000194751
0.00465332
0.000143588
0.000144299
0.00013948
0.000210182
0.0071305
0.000191196
0.000144158
0.000153552
0.00014119
0.0165225
0.000142948
0.000262688
0.000182386
0.000150442
0.000210203
0.00016359
0.000206778
0.000148809
0.000145022
0.000162363
0.000177133
0.00019786
0.000146748
0.000147968
0.000168289
0.0123449
0.000147118
0.000151257
0.00015309
0.000152073
0.000177125
0.000155011
0.000148692
0.000152496
0.0117728
0.000152808
0.0132191
0.000186124
0.000141817
0.00686094
0.000147668
0.000190205
0.00017515
0.00015222
0.000145219
0.000141501
0.000143822
0.00502131
0.000177171
0.017622
0.0111868
0.000142767
0.000171366
0.000171088
0.000242849
0.000143893
0.000984227
0.000127474
0.000293594
0.000145357
0.000151504
0.000148476
0.00345877
0.00115842
0.000158912
0.000144857
0.000162894
0.0192252
0.000146241
0.00015174
0.000151564
0.000202942
0.000233526
0.000139168
0.00855631
0.000164933
0.00014376
0.000433844
0.000182076
0.00414471
0.00278334
0.000165663
0.000157602
0.000152067
0.000158491
0.000148726
0.00020697
0.000179861
0.000151937
0.000154767
0.000227922
0.0146161
0.000140609
0.00018845
0.0442774
0.000366827
0.000153324
0.000145217
0.000222283
0.000280203
0.00126287
0.000145281
0.0389083
0.000187091
0.000142289
0.0116584
0.000159081
0.00014728
0.000219336
0.000147346
0.000607349
0.000146438
0.000140948
0.000148694
0.000139521
0.00010756
0.000144441
0.000142487
0.000187726
0.000155926
0.000154724
0.000204315
0.000145581
0.000144186
0.00015145
0.000150173
0.000141482
0.00014143
0.000233706
0.00335994
0.000174118
0.00907462
0.000379995
0.007948
0.0279434
0.000805146
0.000143295
0.000162578
0.000144036
0.000146243
0.000148197
0.0001605
0.000218913
0.00018378
0.000172912
0.000142216
0.000143621
0.000182252
0.000147101
0.000147762
0.000145757
0.0181245
0.000163358
0.00788486
0.000145512
0.000198972
0.00014826
0.000150507
0.000150115
0.000173983
0.00014276
0.000187503
0.0127135
0.000174089
0.0143093
0.0105389
0.000178591
0.000159086
0.0116922
0.000189578
0.000146188
0.000147323
0.000141698
0.0112738
0.000140796
0.000683056
0.000277478
0.000185275
0.00291769
0.00318943
0.000185495
0.000485839
0.000145006
0.000140503
0.00016677
0.000283867
0.000144257
0.000145393
0.00213872
0.000140955
0.000208047
0.000155147
0.000142326
0.000156547
0.000144812
0.000183297
0.0121531
0.0119141
0.000155312
0.000148969
0.000189859
0.000150451
0.000182968
0.000141918
0.000206518
0.000195362
0.000147717
0.000147054
0.00014205
0.000194489
0.00175596
0.000219134
0.00026112
0.000161851
0.000291298
0.000189168
0.000201293
0.000225745
0.000143071
0.010982
0.000149718
0.0185218
0.00023146
0.0111635
0.000164301
0.000169979
0.000176794
0.000243496
0.000148002
0.0103104
0.000145352
0.000144788
0.000157399
0.000148923
0.000163368
0.0002355
0.000249534
0.020681
0.000156908
0.00017328
0.000150605
0.000151771
0.000146199
0.000193611
0.000192965
0.0264802
0.000173065
0.000145286
0.000141644
0.000149727
0.000226029
0.000154251
0.000151482
0.0001556
0.000203064
0.000164225
0.000178354
0.00018923
0.0102008
0.000161366
0.00016538
0.000143934
0.000157528
0.000224518
0.000211738
0.00018046
0.000143099
0.000754508
0.000164811
0.000144958
0.000175281
0.0125569
0.00271339
0.000166971
0.000141072
0.0135432
0.000147997
0.000140959
0.000145736
0.00221944
0.000249909
0.000179188
0.000167075
0.000208366
0.000165698
0.000183949
0.000178898
0.00279471
0.000162797
0.00116759
0.000148152
0.000207469
0.000173782
0.000212735
0.000165549
0.000145771
0.0119997
0.000145943
0.000149856
0.015406
0.000289102
0.000232099
0.00022616
0.000154848
0.000150772
0.00026956
0.000144724
0.000142333
0.000145214
0.00017318
0.000143785
0.000160987
0.000165035
0.000463885
0.000252004
0.000149292
0.0105155
0.000164034
0.0133681
0.0140899
0.000145022
0.000146816
0.000156644
0.000267737
0.00021911
0.000182177
0.0127505
0.0108012
0.000455221
0.000180146
0.000278174
0.0105763
0.00119064
0.000239507
0.00014626
0.000147048
0.000145338
0.000150041
0.000143216
0.000165784
0.0122626
0.000164565
0.000201079
0.0116555
0.000270528
0.0325214
0.00610768
0.000165861
0.00127598
0.000194672
0.000189489
0.000139039
0.000147984
0.000186499
0.0123379
0.00015209
0.00178637
0.0093059
0.000144428
0.000145555
0.000155956
0.000190683
0.000148408
0.000184113
0.0111299
0.000140203
0.000143637
0.000143611
0.000149443
0.000197366
0.0126955
0.000170962
0.000293918
0.000188741
0.00014241
0.000179717
0.00019572
0.000161807
0.000233825
0.000245569
0.0228645
0.000139922
0.0123455
0.000147318
0.000272618
0.0132129
0.000199329
0.000295767
0.000148267
0.000152508
0.000153544
0.000152736
0.000244161
0.000181398
0.00014659
0.000158738
0.00166836
0.0136615
0.000176286
0.000167604
0.0095839
0.00591757
0.000146685
0.000160088
0.000190156
0.000143172
0.00014373
0.016189
0.00014233
0.000229961
0.000184835
0.000247016
0.000142571
0.000190213
0.000205728
0.000144816
0.00014263
0.0228832
0.00339981
0.000152028
0.000162643
0.000206274
0.000223146
0.00359495
0.000181176
0.00015662
0.000175785
0.0129899
0.00016612
0.000141817
0.000344128
0.000139523
0.000143917
0.0114188
0.000170752
0.000186915
0.000154706
0.00018765
0.000148024
0.00013984
0.000149078
0.000149842
0.000472089
0.000154291
0.000251698
0.0106685
0.000172626
0.000186422
0.00615912
0.000185976
0.000986839
0.000153994
0.000155453
0.000166657
0.000156203
0.00020576
0.0107511
0.000149034
0.000256594
0.0144063
0.000158026
0.000194843
0.000187586
0.000197289
0.000199906
0.000151006
0.000203281
0.00020627
0.000209456
0.000212957
0.000201495
0.000189258
0.000160674
0.000141836
0.000165024
0.000194319
0.00014257
0.000229968
0.00177906
0.000205247
0.0113037
0.000142542
0.000143095
0.000207882
0.000237393
0.000149594
0.000153813
0.000186285
0.0458526
0.00355102
0.000145243
0.000162521
0.000155885
0.0160641
0.00194756
0.000154359
0.00022789
0.0135067
0.000196487
0.00232433
0.000188105
0.000709967
0.00168516
0.000140355
0.000291702
0.015359
0.000150401
0.000180941
0.00018662
0.000157974
0.000146323
0.000275936
0.011562
0.000147025
0.000147442
0.017133
0.000236374
0.000182781
0.000146837
0.000226478
0.000199418
0.0104594
0.0147663
0.000145333
0.000143501
0.000149369
0.000160817
0.000609767
0.00138243
0.00375541
0.000192547
0.000230551
0.00495445
0.000161977
0.0001417
0.0138039
0.000147313
0.00100307
0.000142254
0.00352816
0.000150374
0.000149652
0.0109338
0.000146628
0.000199934
0.0118724
0.00016297
0.0001528
0.000150749
0.000217569
0.0119238
0.000198621
0.0127409
0.000171304
0.000167071
0.000159732
0.000182224
0.000536085
0.0356499
0.000186894
0.000222391
0.000203104
0.000280773
0.000139549
0.000146583
0.000140563
0.000139115
0.000224477
0.00018301
0.00327011
0.000173593
0.000208486
0.000144176
0.00215995
0.0151647
0.0151951
0.00014407
0.000151163
0.00014102
0.0135164
0.000215059
0.00861562
0.000223389
0.000201986
0.000228681
0.000141957
0.00016902
0.000197538
0.000225592
0.000235006
0.000145641
0.000205086
0.000148407
0.000164132
0.000197736
0.00341361
0.000175951
0.000147661
0.000184888
0.000219088
0.0390158
0.00976898
0.000116744
0.000245581
0.000147916
0.000179901
0.000150972
0.000206529
0.000152197
0.000189735
0.000153257
0.000175942
0.000171954
0.00900263
0.000174763
0.000216553
0.0150616
0.000203567
0.000153262
0.00750172
0.000200783
0.000168725
0.000164111
0.0002444
0.000160703
0.000193346
0.00023096
0.00151531
0.00982423
0.000178827
0.000150075
0.0125355
0.00237846
0.000257952
0.000163714
0.000198722
0.000195448
0.000126211
0.000235557
0.000149112
0.000240008
0.000217202
0.000226641
0.00015975
0.0152491
0.000221636
0.000248212
0.000157776
0.00314813
0.000154103
0.0118269
0.000198532
0.000258765
0.00915024
0.000140839
0.000140833
0.0133704
0.000248083
0.00046079
0.000148682
0.000174375
0.000163468
0.000205015
0.000286993
0.0156504
0.00015716
0.0162209
0.000191885
0.0111171
0.000148887
0.000214283
0.0200243
0.000172777
0.000193865
0.000142285
0.000154543
0.000145757
0.000177911
0.000143224
0.00014562
0.00144399
0.000284745
0.00013884
0.000427619
0.000149644
0.000147752
0.000143132
0.000147386
0.000146961
0.000235143
0.00520441
0.000141478
0.000617299
0.000186959
0.000177926
0.000248421
0.000193533
0.000156368
0.000165045
0.000142932
0.000173699
0.000161475
0.000353885
0.000167891
0.00029774
0.000237737
0.000182283
0.000256734
0.016794
0.000140073
0.0119002
0.000178312
0.000185047
6.62586e-06
0.000144747
0.000265852
0.000219851
0.00014534
0.00601736
0.000143715
0.000222216
0.000208625
0.00959727
0.000216697
0.00021474
0.00126052
0.00014568
0.000151963
0.000185176
0.000151374
0.000146797
0.000147048
0.000159025
0.000144
0.000142415
0.000150679
0.000176426
0.00015207
0.00015937
0.000156023
0.000188127
0.000199357
0.000152833
0.000210216
0.000152201
0.000142875
0.000195873
0.000174104
0.000160023
0.000144374
0.000264229
0.000152758
0.0135895
0.000153276
0.00019209
0.000143052
0.000147998
0.000223484
0.00232033
0.00018817
0.00016951
0.000142483
0.0107657
0.000145963
0.000142212
0.000190406
0.000154015
0.000202179
0.0147617
0.000195752
0.000273348
0.000173622
0.00988719
0.000146444
0.000145868
0.000180169
0.000180145
0.00018395
0.000188549
0.0157008
0.000159618
0.000145418
0.000160001
0.000225075
0.000183418
0.000145522
0.000198391
0.000198171
0.000182177
0.000146915
0.000145781
0.00021055
0.00018066
0.0002532
0.00497087
0.000153645
0.000187099
0.000146689
0.000175631
0.000156396
0.000146628
0.000205978
0.000198761