/*--------------------------------*- C++ -*----------------------------------*\
| =========                 |                                                 |
| \\      /  F ield         | OpenFOAM: The Open Source CFD Toolbox           |
|  \\    /   O peration     | Version:  v2012                                 |
|   \\  /    A nd           | Website:  www.openfoam.com                      |
|    \\/     M anipulation  |                                                 |
\*---------------------------------------------------------------------------*/
FoamFile
{
    version     2.0;
    format      ascii;
    class       volScalarField;
    location    "450";
    object      k;
}
// * * * * * * * * * * * * * * * * * * * * * * * * * * * * * * * * * * * * * //

dimensions      [0 2 -2 0 0 0 0];


internalField   nonuniform List<scalar> 
13917
(
0.000169265
0.000151326
0.0910772
0.00016114
0.000148935
0.000194173
0.0851739
0.0925771
0.0847195
0.000178604
0.000174563
0.000206957
0.000161433
0.0121445
0.000157223
0.000156644
0.000151601
0.000186085
0.000206658
0.000148778
0.000149809
0.0831512
0.000148819
0.0946503
0.000148951
0.08145
0.000162365
0.000165328
0.000221585
0.000196599
0.000171344
0.000162304
0.000161036
0.000155145
0.000149007
0.0610326
0.000148857
0.0527095
0.000166788
0.027455
0.000148389
0.000149913
0.000145986
0.000169601
0.000151884
0.000156587
0.000185661
0.000199235
0.00039779
0.000148107
0.000166363
0.000150442
0.000428047
0.000155474
0.000151646
0.000164371
0.000182368
0.000149691
0.000160271
0.000151558
0.0663635
0.000151385
0.0105871
0.000148714
0.000192698
0.0609107
0.000148821
0.000148838
0.000172003
0.000166194
0.000148974
0.0876581
0.0408809
0.000148942
0.000412052
0.000216261
0.0303883
0.000155123
0.0770907
0.000149628
0.000149415
0.000148856
0.000191623
0.0575034
0.0321562
0.000154806
0.000149258
0.0600987
0.000165784
0.000146003
0.0479184
0.000187643
0.000149752
0.000152652
0.0552558
0.000192082
0.000245443
0.000194526
0.000278658
0.000171785
0.000147235
0.000159243
0.000169389
0.000157048
0.000148059
0.0874103
0.000203214
0.000201387
0.000151697
0.000172069
0.0382551
0.0318193
0.000220487
0.0855293
0.000151805
0.000453292
0.000148679
0.000267913
0.0361724
0.000155519
0.000149845
0.000123714
0.0372121
0.000164784
0.000148258
0.000152358
0.000151364
0.00014832
0.000145721
0.000193616
0.0562611
0.000151637
0.000151968
0.000149854
0.0934679
0.095169
0.000169256
0.000172036
0.000148807
0.000155353
0.04904
0.000149024
0.000151213
0.000172241
0.000148855
0.0969586
0.000227617
0.000150302
0.000148597
0.000162327
0.000194392
0.000419638
0.000217413
0.000166144
0.000162922
0.0186432
0.000165282
0.0911023
0.0237011
0.0935282
0.000154238
0.000162446
0.000149621
0.000242243
0.000219212
0.00027906
0.000156897
0.000194836
0.00015059
0.000159697
0.000166964
0.0188736
0.000225723
0.000152573
0.10187
0.000167258
0.0596864
0.00031
0.0989766
0.000149414
0.000189854
0.000172513
0.00014905
0.000149212
0.000159616
0.084346
0.000314694
0.0215235
0.000174679
0.00025972
0.0612193
0.0348561
0.000307477
0.000148898
0.000172593
0.000162043
0.000156807
0.000149808
0.000187398
0.0216015
0.000166744
0.000148188
0.00019269
0.000194394
0.0354877
0.0893445
0.00014898
0.000149805
0.000194042
0.0885218
0.000150966
0.0849214
0.0247675
0.00026024
0.00014804
0.000206158
0.000190475
0.0226704
0.000148777
0.0730154
0.000149314
0.000195983
0.000147933
0.0538624
0.0861856
0.000157015
0.00118356
0.000163521
0.000148003
0.0559016
0.000224979
0.000174512
0.0944597
0.0205847
0.000146829
0.000162843
0.0525718
0.0246521
0.00014958
0.000147992
0.0331365
0.000266931
0.000149759
0.0321824
0.000206706
0.000161936
0.000168714
0.000149572
0.000166265
0.0230471
0.000152405
0.00019652
0.000174714
0.000151244
0.000149599
0.000206457
0.0415758
0.000215441
0.000159806
0.000157552
0.000149792
0.0295283
0.0896307
0.0378118
0.000147994
0.0363894
0.0251181
0.0954422
0.075021
0.000219999
0.000149491
0.000147763
0.000186489
0.0449805
0.000231956
0.000159788
0.0945335
0.000191828
0.00014562
0.0920852
0.000148612
0.100746
0.000165734
0.000149722
0.000159145
0.000166079
0.000162484
0.0398301
0.000162174
0.00015263
0.0577554
0.0951367
0.0857588
0.000148752
0.0990234
0.000149201
0.000152637
0.00014867
0.000254956
0.000148609
0.000199041
0.000167877
0.000150483
0.000193384
0.000154676
0.00033419
0.000166982
0.000185738
0.00014992
0.000149512
0.0354133
0.0344504
0.000148689
0.000147894
0.0931085
0.000149447
0.044395
0.00014976
0.0571969
0.000155907
0.000286366
0.000176565
0.000432589
0.000153795
0.0900341
0.000189679
0.000159201
0.000267516
0.000215534
0.000150981
0.0534428
0.000172046
0.0285657
0.00015455
0.0279288
0.000163832
0.044088
0.000185178
0.000176441
0.000175991
0.0883058
0.000149523
0.000167587
0.0421944
0.000150211
0.000154327
0.0278027
0.000192542
0.000152515
0.0523183
0.000215477
0.000147356
0.0294279
0.0585112
0.00014858
0.000148088
0.000149239
0.000148591
0.0473958
0.100388
0.000203975
0.0397177
0.000148843
0.000201684
0.00660457
0.000184655
0.0831746
0.0505517
0.0846327
0.000147024
0.031415
0.000148002
0.0794159
0.00015151
0.000464364
0.000206934
0.000163945
0.000149417
0.000192655
0.000192803
0.000196811
0.000572039
0.0405358
0.017609
0.000166689
0.000177364
0.000148
0.0267798
0.0812769
0.000149974
0.0814466
0.000148881
0.0377417
0.000155855
0.000149578
0.0001546
0.0705051
0.000154485
0.0463622
0.00946353
0.000280791
0.000196257
0.000150967
0.000199345
0.000194622
0.000148556
0.000194337
0.000150146
0.000148952
0.000196318
0.000149721
0.000148987
0.00014798
0.0205304
0.000149696
0.0329551
0.0775113
0.00506545
0.000302753
0.0539308
0.023585
0.000184306
0.000148818
0.000281464
0.000166154
0.000163962
0.000148885
0.0981226
0.0857655
0.0782251
0.000156313
0.000215764
0.000154114
0.000167798
0.000196752
0.00015362
0.0307134
0.000151728
0.000148585
0.0492221
0.0580156
0.0609984
0.00019314
0.00347132
0.0585364
0.0475138
0.0305538
0.00014593
0.000190239
0.000153769
0.000149937
0.0839659
0.000186832
0.00015012
0.000186243
0.000182271
0.0279532
0.000148551
0.000235614
0.0079922
0.000475167
0.0394242
0.000149744
0.000149992
0.000156991
0.000165195
0.00014697
0.0852115
0.000195292
0.000162176
0.0255682
0.000164328
0.000242215
0.051649
0.000230703
0.000280168
0.055017
0.000235324
0.000184217
0.000280036
0.000188836
0.000159636
0.000207223
0.000194216
0.000207435
0.000149455
0.0896832
0.000167341
0.000149478
0.000164362
0.000155657
0.0312592
0.0870222
0.000149324
0.000145924
0.0893955
0.019502
0.000149721
0.031913
0.000157047
0.000247981
0.00014943
0.0326963
0.0935534
0.000162398
0.000152534
0.0584775
0.000299621
0.00853651
0.00014978
0.0261416
0.000336902
0.0917559
0.000149512
0.0294658
0.0754512
0.000185305
0.000148085
0.000151403
0.000216789
0.0562783
0.000149265
0.000148033
0.000147765
0.000147745
0.0315025
0.080544
0.000184906
0.000279435
0.000148744
0.000147235
0.00021547
0.0702298
0.000170996
0.000150754
0.000148942
0.000148753
0.0906252
0.0378614
0.000149197
0.000148831
0.0282718
0.000188189
0.000176616
0.000149905
0.000154636
0.000160509
0.000206438
0.000206522
0.000296711
0.000284085
0.000213752
0.0923349
0.000185451
0.000148758
0.0274037
0.000148735
0.00015487
0.000162115
0.0884594
0.000172847
0.000147306
0.000433732
0.000202528
0.00832146
0.000214135
0.000161614
0.000183687
0.00014936
0.0827674
0.000323156
0.0781443
0.000151351
0.000168242
0.000306434
0.0525583
0.00917571
0.000196231
0.000199043
0.000156342
0.000157674
0.000149911
0.000166898
0.000170397
0.000149649
0.000190254
0.000174079
0.0796839
0.010109
0.000156348
0.000240642
0.0884351
0.000160115
0.00015079
0.00041069
0.0932995
0.0953332
0.000316595
0.000145866
0.0335387
0.000216134
0.000148028
0.000167597
0.000206979
0.00016049
0.000196443
0.0773696
0.000275785
0.000184799
0.083224
0.000156425
0.0251982
0.000149634
0.000149161
0.099645
0.0921686
0.000212462
0.000156435
0.000152429
0.000148839
0.000192142
0.000442419
0.000258665
0.00015814
0.000270453
0.00019224
0.000149469
0.0013776
0.000256758
0.0278446
0.00014882
0.000272542
0.000155481
0.0107444
0.000179521
0.000172755
0.000168597
0.000147383
0.000149017
0.000151584
0.00017789
0.000156826
0.00134324
0.000502857
0.000193905
0.000147394
0.000257611
0.000214338
0.0693679
0.000152155
0.000156575
0.000148052
0.000173567
0.000160693
0.0745487
0.000149591
0.0122363
0.000172733
0.000158593
0.00018698
0.0399626
0.000173917
0.000151217
0.0413251
0.00877723
0.00015008
0.000161984
0.0936226
0.000294943
0.000232593
0.000149545
0.000152731
0.000246526
0.000164344
0.000195827
0.000203891
0.000149155
0.000194978
0.0917128
0.000152215
0.000158648
0.000147877
0.0312937
0.000149801
0.000155936
0.0205449
0.000153835
0.0950126
0.000162898
0.000161245
0.000147849
0.000168694
0.000148674
0.000182566
0.000147399
0.000177805
0.000157009
0.0254051
0.000336676
0.0698301
0.000155504
0.00014945
0.000184182
0.000174626
0.0353156
0.0775002
0.000185227
0.000148961
0.0138469
0.00021468
0.0255036
0.00022535
0.000186121
0.0764405
0.000168242
0.000190049
0.000235333
0.000182221
0.000184777
0.000242845
0.000183416
0.000160451
0.000209678
0.00015939
0.000150381
0.000173121
0.000172243
0.000161626
0.000148744
0.000148128
0.000193193
0.000158386
0.00019618
0.00014894
0.000148866
0.000149847
0.000154242
0.000146281
0.000159684
0.000148001
0.0311965
0.000207077
0.000185301
0.00014707
0.000149665
0.000164641
0.000184719
0.000151251
0.0893582
0.000180142
0.0853643
0.000173064
0.000226041
0.000154511
0.000149819
0.000147642
0.000154687
0.0140298
0.000149712
0.0996912
0.000160094
0.00784518
0.000167139
0.000181284
0.000184188
0.000147171
0.000149935
0.000207377
0.000148943
0.000151212
0.0944708
0.000152842
0.000149258
0.000164912
0.000147889
0.00014655
0.000162088
0.000156824
0.0277115
0.000166935
0.000152215
0.000147956
0.0574464
0.000178039
0.000150815
0.000151363
0.0924135
0.0915582
0.016923
0.000161671
0.000160453
0.000146905
0.000146331
0.000194607
0.000167713
0.042418
0.000154811
0.0492024
0.000152066
0.000153671
0.0138826
0.000148901
0.00016785
0.000149695
0.000148485
0.000171157
0.000162692
0.000153996
0.0933983
0.0378042
0.000188191
0.000148781
0.000147388
0.000255913
0.0980163
0.000149719
0.0862638
0.000147177
0.000171341
0.000151182
0.000150629
0.0696764
0.00015177
0.0564878
0.000172114
0.000149844
0.000146271
0.000149192
0.000148839
0.000158259
0.000414699
0.000151698
0.000149852
0.0825263
0.0936062
0.000186072
0.000173537
0.00019571
0.000162065
0.000149113
0.000157192
0.0333932
0.000178759
0.000149077
0.000152299
0.0794434
0.00017696
0.0445484
0.000149807
0.000151446
0.0282702
0.000175502
0.000154432
0.0123833
0.000276573
0.000148781
0.000225512
0.000147633
0.000151506
0.000147073
0.0404015
0.00014613
0.00015294
0.00014913
0.0616208
0.000164646
0.000247008
0.000165815
0.000150791
0.000159623
0.000149179
0.0407339
0.000148146
0.0001519
0.000149282
0.000261192
0.000149231
0.000277589
0.0325018
0.0949302
0.000156218
0.0566354
0.0247913
0.000149511
0.0276488
0.0606303
0.0282149
0.0537847
0.0813614
0.0119674
0.000242969
0.000151552
0.0756627
0.000175007
0.0792362
0.000149334
0.000149768
0.000150859
0.00014914
0.000164151
0.000159475
0.0385727
0.000149694
0.000148843
0.00837083
0.000196806
0.000149155
0.000161107
0.000167276
0.000152934
0.000329411
0.000161205
0.000153766
0.000164351
0.0310643
0.0175108
0.000255471
0.00015098
0.0002952
0.000202646
0.0253584
0.0837034
0.000225322
0.00014946
0.000154746
0.000152039
0.000145079
0.000154564
0.000145808
0.000160675
0.000167665
0.0281678
0.000266367
0.000152959
0.000225259
0.0492586
0.000170256
0.000150482
0.0262645
0.000150267
0.000150967
0.000161405
0.0283915
0.000149189
0.000148845
0.0843623
0.046872
0.0847561
0.00022128
0.0588885
0.000148742
0.000280417
0.000150636
0.000148366
0.000150601
0.0841796
0.0214469
0.000150032
0.000146328
0.00014986
0.0955865
0.000153933
0.000168843
0.000148904
0.000152069
0.000287016
0.000150977
0.000183632
0.000210816
0.062024
0.000151016
0.000176286
0.000156495
0.0371733
0.0474591
0.000148966
0.0348579
0.000197988
0.000259406
0.000149206
0.069336
0.00014964
0.000163881
0.000170006
0.000220999
0.0885868
0.0343805
7.88396e-05
0.0913602
0.000147289
0.0357506
0.000150639
0.000159394
0.0837459
0.000150025
0.000149696
0.000153979
0.000152571
0.0274571
0.000146841
0.000148779
0.000195114
0.000175275
0.000188401
0.000207389
0.000273097
0.0134739
0.000209009
0.000175983
0.000189406
0.0378987
0.000186591
0.0747908
0.0795445
0.000164578
0.000151146
0.0534715
0.0288684
0.000150333
0.000215742
0.000171585
0.000154986
0.000164991
0.000152832
0.000170231
0.000149944
0.000185817
0.000172451
0.000148008
0.000185177
0.000150333
0.00016957
0.00014738
0.000155622
0.000190618
0.000158812
0.000152903
0.000150037
0.000301313
0.000183341
0.0970737
0.000149031
0.000151254
0.000194356
0.000149662
0.000199398
0.000183452
0.000154976
0.000208342
0.000150192
0.0813673
0.000150246
0.000184475
0.0318947
0.0306331
0.000148816
0.000154767
0.0273205
0.000148368
0.000148127
0.028412
0.0449649
0.00015386
0.000169706
0.000148711
0.000152938
0.0853993
0.000154501
0.000147268
0.0589078
0.000150562
0.089473
0.000149383
0.000147162
0.000150777
0.000276923
0.0485855
0.000149962
0.000150915
0.000148708
0.000157255
0.000148452
0.000234139
0.000185175
0.000149777
0.0996426
0.0001671
0.0522871
0.0618671
0.000433765
0.000149858
0.000150357
0.000150051
0.000223271
0.000157411
0.048231
0.0236436
0.000153811
0.0820588
0.000334547
0.000186741
0.000283375
0.00017266
0.000191945
0.0897737
0.000169967
0.00585503
0.0611712
0.000204969
0.000156687
0.0390128
0.000165305
0.000149405
0.000157559
0.0646701
0.000165639
0.000149266
0.000169078
0.000201929
0.000168247
0.0405156
0.000155357
0.094972
0.00018879
0.0197501
0.000225937
0.0002975
0.000166544
0.000150007
0.000152608
0.0929964
0.000148591
0.000154123
0.000148336
0.000154661
0.00014991
0.000162091
0.000186094
0.000292003
0.000164353
0.000165525
0.07883
0.000204061
0.000150053
0.0935706
0.0828554
0.000148279
0.000148108
0.000168932
0.0165111
0.000149716
0.000193178
0.000235386
0.000170166
0.000149418
0.000158682
0.000150827
0.000215846
0.000165573
0.000147957
0.051941
0.0767301
0.000165862
0.0913497
0.000206106
0.030405
0.000153757
0.000162557
0.0879048
0.0927153
0.000225474
0.000281792
0.000163055
0.000149861
0.000151859
0.000151404
0.000149128
0.000151316
0.000169621
0.000148814
0.000266347
0.000147909
0.00016577
0.0001504
0.000181552
0.000263937
0.00243693
0.000149402
0.000307529
0.000151816
0.0916004
0.000148902
0.000155052
0.000149049
0.0238398
0.0359901
0.000276309
0.000148842
0.000263114
0.000150142
0.000164057
0.0448999
0.000151207
0.000150616
0.000174317
0.000167606
0.0826454
0.000148827
0.000160289
0.000159252
0.000148748
0.000159888
0.000152191
0.000146743
0.000153437
0.0260962
0.000157999
0.0538968
0.096475
0.000184462
0.0516208
0.000157434
0.000146759
0.000160864
0.019708
0.00015981
0.000164754
0.00018614
0.0208233
0.00014875
0.00412589
0.000186653
0.000194664
0.00014819
0.000146321
0.000123182
0.000150828
0.000149919
0.00015999
0.000149209
0.000154419
0.000164167
0.000207055
0.000183824
0.0845355
0.000165997
0.000208474
0.053302
0.0260866
0.000184131
0.000185772
0.0157818
0.000178078
0.0709624
0.000152895
0.029703
0.00337969
0.000149657
0.000149727
0.000148108
0.000156185
0.000173456
0.000150572
0.000153337
0.000225775
0.000156654
0.000162054
0.044102
0.000158808
0.000160293
0.0840559
0.000154367
0.0319458
0.000162566
0.000166887
0.000148719
0.0240809
0.0214498
0.000150193
0.000156575
0.07273
0.000158429
0.0106439
0.000148149
0.000150622
0.0804616
0.000156058
0.000163865
0.0063172
0.000148847
0.000183909
0.000164009
0.000146367
0.000147715
0.0751927
0.0230261
0.000151916
0.00015834
0.000149804
0.000160343
0.000160491
0.0283572
0.000151815
0.000330686
0.0978963
0.0234774
0.0970584
0.000155715
0.000254861
0.000183075
0.000158182
0.000148877
0.000200302
0.0471926
0.000153109
0.000164553
0.094147
0.000449776
0.000183595
0.000154765
0.000150922
0.000149662
0.000148773
0.0175837
0.000191332
0.00016016
0.000157054
0.000159057
0.000149824
0.000149518
0.000148972
0.000207476
0.000187093
0.100517
0.00016503
0.00795252
0.0490321
0.000160688
0.000187101
0.000147193
0.000160219
0.0201798
0.000151076
0.000155146
0.000189506
0.000232872
0.000165215
0.0746551
0.0466509
0.000150248
0.0489397
0.000146056
0.000153073
0.000165719
0.000149846
0.00015241
0.000156827
0.0943747
0.000150554
0.0848634
0.000151096
0.000149845
0.000155046
0.00035402
0.000163267
0.000162596
0.0625567
0.000154353
0.0381747
0.0610317
0.00014961
0.000165253
0.000148087
0.0320933
0.000194351
0.000148952
0.0810904
0.000188611
0.000169512
0.000149877
0.0199692
0.000158702
0.000191324
0.000158246
0.000169546
0.0237744
0.00014985
0.000262984
0.00014992
0.000185776
0.000165087
0.000149603
0.0223019
0.000154356
0.000231557
0.000185136
0.000170809
0.000165004
0.000164906
0.000151628
0.0941592
0.000160882
0.02797
0.000159448
0.000202883
0.000150749
0.000172699
0.000149416
0.000211873
0.0919326
0.000153033
0.000148902
0.000451321
0.000155635
0.056271
0.000153711
0.0867186
0.0247794
0.000166788
0.000148584
0.000148359
0.000148942
0.000145896
0.000208932
0.000168391
0.000161411
0.000159663
0.000148564
0.0922727
0.000158686
0.000165974
0.0474282
0.000149279
0.00984669
0.00018875
0.000175825
0.000258927
0.0416346
0.057689
0.090719
0.0901688
0.000148761
0.000220094
0.0235112
0.000191199
0.000149165
0.000150067
0.000242843
0.0796724
0.0326248
0.000325366
0.000155436
0.000166055
0.000178818
0.0584007
0.00273337
0.000185568
0.00026535
0.000155692
0.000182704
0.000225676
0.000149121
0.000204134
0.0919395
0.00014904
0.0946323
0.000149692
0.000151465
0.0371609
0.0522594
0.000147334
0.000155863
0.000153223
0.000150453
0.000169088
0.000160499
0.000158534
0.000148279
0.000148697
0.000187265
0.000163282
0.000162599
0.0472106
0.000149043
0.0539744
0.0115882
0.070945
0.000179044
0.000180513
0.0814701
0.000173941
0.0749645
0.0822028
0.0866207
0.000151999
0.0677221
0.0510257
0.000146818
0.0001487
0.000196581
0.0426102
0.0852584
0.000150958
0.000150123
0.0590097
0.0246342
0.0847309
0.000156844
0.000153559
0.00029082
0.000150569
0.0631048
0.0220108
0.0672611
0.0353519
0.000149501
0.000148821
0.000147415
0.000156009
0.0431718
0.000184816
0.000165007
0.000151095
0.000177428
0.01735
0.000187394
0.0998998
0.0108372
0.0335817
0.000311661
0.000148871
0.000149149
0.0875671
0.000146574
0.00014928
0.000153267
0.000409069
0.000177208
0.025397
0.000220804
0.000148806
0.0743865
0.000172149
0.000149886
0.0114915
0.000179329
0.000154584
0.000153344
0.0049267
0.0481817
0.000149287
0.0915019
0.0987535
0.0409801
0.0338333
0.000182497
0.000149268
0.000154098
0.00117378
0.000161362
0.0914445
0.000172946
0.0644781
0.0541715
0.000151962
0.000159059
0.000149489
0.000151782
0.0420079
0.026687
0.000148814
0.0154721
0.000185914
0.000150127
0.000155226
0.000148399
0.000262256
0.00015312
0.000340336
0.000166683
0.000149264
0.000147389
0.000170107
0.0209301
0.000177251
0.000155976
0.00017367
0.000149343
0.000156111
0.000167827
0.013519
0.0424833
0.045242
0.000146801
0.000147305
0.000151707
0.000257436
0.00014814
0.000151919
9.06698e-05
0.000194657
0.0756072
0.000149432
0.0503192
0.0428322
0.000149884
0.0132037
0.000235851
0.000183436
0.000313159
0.000151514
0.0254767
0.000159117
0.000152742
0.000153713
0.00014648
0.0276233
0.000156798
0.000157601
0.00015856
0.0464533
0.0510416
0.000149647
0.000148237
0.000156327
0.00015097
0.000231956
0.000150789
0.000196023
0.000158668
0.0454957
0.000156539
0.0788964
0.000146976
0.0715294
0.000153299
0.000146422
0.0410642
0.000190038
0.000172784
0.0644153
0.00016376
0.000180516
0.000148935
0.0285426
0.000148785
0.000148146
0.00016952
0.00020729
0.0291933
0.030242
0.000225776
0.0922506
0.00021694
0.0649004
0.000150042
0.000161089
0.000168792
0.0525579
0.000154424
0.0472445
0.0394875
0.000154087
0.000149273
0.000149869
0.000637554
0.000403728
0.000157915
0.000148952
0.000157454
0.000163359
0.00017778
0.00504118
0.000207415
0.000148449
0.000199179
0.000191884
0.0190642
0.000195496
0.000154516
0.000157586
0.0725713
0.000147384
0.000198273
0.0897805
0.000152305
0.000159162
0.000116765
0.000172549
0.00015199
0.0280199
0.000158977
0.0428241
0.000189537
0.00016014
0.000156346
0.0457287
0.000147558
0.000174499
0.00026377
0.0446532
0.000181303
0.000182746
0.000165265
0.000165544
0.00014979
0.0454039
0.000166654
0.000152029
0.000169011
0.000148642
0.000149781
0.000409816
0.000148882
0.000149129
0.000150007
0.000263947
0.000150144
0.000165075
0.000206967
0.000250185
0.00021106
0.000149706
0.00019069
0.000198161
0.00028064
0.000190721
0.000156511
0.000279668
0.0955781
0.000538227
0.000149887
0.096036
0.0839177
0.000149883
0.000158307
0.000146245
0.000198296
0.000197017
0.000152897
0.000256065
0.0482713
0.000147129
0.000150053
0.0733706
0.0430282
0.00020789
0.00014674
0.0858969
0.0555863
0.000466785
0.000148684
0.0545725
0.000220734
0.000169836
0.0384374
0.000163537
0.000146335
0.000168161
0.000244096
0.000172813
0.0787131
0.0526091
0.00014892
0.0958111
0.000210628
0.027469
0.000147022
0.000164104
0.000150194
0.000149303
0.0679071
0.0959895
0.0256152
0.0956449
0.000159903
0.000182421
0.000154278
0.0488729
0.0308575
0.000148887
0.000152178
0.000159225
0.000151353
0.000187924
0.0816686
0.0885828
0.000183413
0.000153687
0.000153852
0.0652077
0.000155563
0.000187406
0.000148774
0.000153193
0.000596712
0.0977221
0.0697379
0.000354029
0.00014913
0.0226723
0.000155436
0.000165673
0.0753703
0.0143393
0.00014889
0.000149963
0.000182834
0.000155695
0.000150002
0.0744573
0.0509706
0.000149641
0.000145402
0.000149348
0.000148138
0.000336436
0.000150016
0.076299
0.000210497
0.000207525
0.000149838
0.000170229
0.0542746
0.00017506
0.000205712
0.0322223
0.000150825
0.0230094
0.000159904
0.000160297
0.000199621
0.0211257
0.0270889
0.000203618
0.000148803
0.000202192
0.000150033
0.000154923
0.000150169
0.0764186
0.000160794
0.0715942
0.0371629
0.000182321
0.000149008
0.000305045
0.000166264
0.000149791
0.000184229
0.000145691
0.000187842
0.000172305
0.000150074
0.0810847
0.000154338
0.000197925
0.00015223
0.000148313
0.0379375
0.0600281
0.000154013
0.000159449
0.000185834
0.000176677
0.000199802
0.000166999
0.000157398
0.000161931
0.0309681
0.000155433
0.0794038
0.000169045
0.0497275
0.000252117
0.000155774
0.0778227
0.000145692
0.0883423
0.000153831
0.0429263
0.0856227
0.0894982
0.096205
0.0301173
0.000171237
0.000152675
0.0777811
0.000172595
0.000149001
0.0156622
0.0976022
0.000152833
0.000160152
0.000165625
0.000165734
0.000175444
0.0316951
0.000149882
0.000175902
0.000180898
0.000161402
0.0001491
0.000219318
0.000147046
0.0822704
0.000153873
0.000218463
0.000168431
0.000178059
0.00019315
0.0977683
0.000193003
0.000148847
0.000198348
0.0811953
0.0415708
0.000154887
0.0843454
0.000167884
0.00028794
0.000148806
0.00015559
0.0626153
0.000197811
0.0201792
0.0196154
0.000160084
0.0678339
0.000149985
0.000147108
0.0171522
0.000165838
0.000155591
0.0845949
0.000161996
0.000165204
0.000159657
0.000184166
0.000151831
0.101663
0.0981022
0.00702971
0.0373368
0.000161321
0.0001768
0.0217798
0.000155074
0.000150901
0.000183045
0.000146755
0.000189357
0.0317996
0.0294478
0.032621
0.00019575
0.000155175
0.058869
0.000146034
0.000207836
0.000149618
0.0279141
0.000155731
0.00016648
0.0504844
0.000219507
0.000148251
0.000161425
0.00759529
0.000149305
0.000252604
0.000149227
0.0878686
0.0462877
0.000235013
0.000168663
0.000147907
0.0114069
0.000271488
0.00017733
0.0001492
0.000155758
0.000148916
0.00019559
0.000149012
0.00021934
0.000149491
0.000149724
0.0670182
0.00015004
0.000161998
0.000164005
0.000149847
0.0577051
0.000149711
0.000164305
0.0606624
0.000195382
0.0769413
0.000149385
0.0470089
0.00019757
0.0808621
0.000155153
0.000269049
0.000154238
0.000180532
0.000266196
0.000242608
0.00029134
0.0505007
0.000318513
0.00103945
0.000156452
0.000241972
0.000165138
0.0729844
0.000155318
0.000153915
0.000149231
0.000193168
0.000167371
0.0947051
0.000189293
0.092908
0.097493
0.000170596
0.000149896
0.100727
0.000183738
0.000151003
0.000154151
0.000149723
0.0995204
0.000149127
0.023842
0.000149849
0.000167466
0.0298699
0.000174002
0.000148891
0.000149168
0.0221236
0.000149592
0.000154936
0.000161947
0.000163561
0.000163674
0.000150927
0.000222736
0.000168875
0.000164428
5.04029e-05
0.0336825
0.0556293
0.0264846
0.000147014
0.000149265
0.000174955
0.000155169
0.000164723
0.0825938
0.0517647
0.00014663
0.000148926
0.0612818
0.0766434
0.000146944
0.000148961
0.000156293
0.0349541
0.0801147
0.000162024
0.000165873
0.000149438
0.00342468
0.0002695
0.000174981
0.000159139
0.000165711
0.000150609
0.000172177
0.0315828
0.000151695
0.000152395
0.000161303
0.088291
0.000156068
0.0164024
0.000148897
0.0595628
0.000164676
0.000156762
0.000147076
0.000148262
0.000394714
0.0940318
0.000165733
0.0377472
0.0360362
0.000151528
0.0538286
0.000275363
0.000149758
0.100622
0.0550453
0.000233889
0.000149719
0.0565746
0.0280483
0.000152079
0.000164924
0.040888
0.000169769
0.000150056
0.00014957
0.000153293
0.000159823
0.000193061
0.0450975
0.000168446
0.000188753
0.000147258
0.000150653
0.0941642
0.000149472
0.000172103
0.000156035
0.00015459
0.000182475
0.000148729
0.000154415
0.0136882
0.000148272
0.0349648
0.000148835
0.0233991
0.0666472
0.000205257
0.000151113
0.00014995
0.054923
0.000146378
0.000157423
0.00015054
0.000237404
0.0683223
0.000171914
0.0625252
0.000164505
0.0867558
0.000150913
0.000203182
0.000150827
0.000149116
0.0151227
0.0568467
0.0217774
0.000156296
0.000200178
0.00020172
0.0272987
0.0585159
0.0101908
0.000171635
0.000145905
0.0463604
0.000150942
0.000151165
0.0215508
0.000242591
0.00015832
0.000181235
0.000165786
0.000162083
0.000163577
0.0706075
0.000159405
0.000148305
0.0148168
0.000166041
0.000148029
0.0508742
0.000148275
0.000148962
0.000287134
0.000198675
0.0263005
0.000148144
0.000155221
0.000148836
0.00031281
0.000149405
0.000201773
0.0977927
0.0629556
0.0487592
0.0281601
0.000158392
0.0378252
0.000223381
0.000149489
0.000160217
0.000164417
0.000159023
0.000253889
0.0453968
0.0395487
0.0659092
0.000319646
0.000150409
0.000229064
0.000148264
0.0153569
0.000167161
0.000158592
0.000158264
0.000154442
0.00014925
0.000224485
0.0409648
0.000146794
0.000156895
0.000147295
0.0373694
0.000156718
0.0661354
0.0743911
0.0360365
0.000148911
0.000149304
0.0401514
0.000189846
0.000149113
0.00020257
0.000149583
0.00020168
0.000180925
0.00020915
0.000191117
0.0876481
0.00014881
0.000150997
0.01557
0.0533448
0.000164947
0.000169558
0.000149262
0.0259329
0.000148939
0.000148005
0.0001555
0.000149357
0.00635838
0.0471692
0.0846845
0.000204823
0.0541446
0.0771813
0.00014644
0.000173573
0.000147246
0.000247684
0.000152191
0.000155676
0.000149098
0.000148176
0.000150226
0.00037494
0.000157623
0.000281108
0.000149387
0.000159225
0.000161965
0.000268613
0.00014871
0.000172729
0.000181026
0.000176451
0.057828
0.000148258
0.041398
0.000182573
0.000166989
0.000151215
0.000148754
0.0529327
0.00702075
0.000152352
0.00015051
0.039338
0.0333355
0.000161518
0.0657258
0.000152364
0.0628211
0.000174301
0.000146977
0.101538
0.00015912
0.0772371
0.000149131
0.000154129
0.000148999
0.042082
0.0600954
0.000146773
0.000182572
0.018197
0.000148382
0.000150397
0.000148677
0.000183919
0.059031
0.00018131
0.000163144
0.000172934
0.000148677
0.000149681
0.000157369
0.000148285
0.000126894
0.000149626
0.000204203
0.00190016
0.000169305
0.000145781
0.0781469
0.000204605
0.000148699
0.000185188
0.000171636
0.0815926
0.000154045
0.0614218
0.000182933
0.000149911
0.000194369
0.000194835
0.000159939
0.0697803
0.000201991
0.000176342
0.0866113
0.000149637
0.000196463
0.000170633
0.000190939
0.000148274
0.000149486
0.000146264
0.00015959
0.000197672
0.000196102
0.0988397
0.0235701
0.0755092
0.000149804
0.000324936
0.0704595
0.0666251
0.000149156
0.000150162
0.00019091
0.081756
0.000155213
0.000179259
0.0141342
0.0342038
0.0143474
0.00017137
0.000255335
0.059034
0.0484634
0.000147229
0.00747342
0.0115523
0.000152901
0.000154318
0.000153298
0.0460218
0.000197769
0.0977757
0.00015686
0.0865473
0.000151773
0.0893374
0.0466605
0.000150672
0.000176831
0.0427478
0.0953724
0.000181461
0.000155077
0.000154316
0.000150685
0.00019258
0.000261195
0.0587065
0.0636025
0.000148761
0.0130191
0.000210722
0.0376238
0.000148203
0.000149095
0.0430416
0.000183025
0.000149389
0.000179362
0.00016771
0.000161943
0.0812687
0.0873378
0.0518585
0.0581846
0.000156714
0.000148627
0.000166916
0.0384278
0.0853179
0.000151618
0.000187722
0.000170542
0.000187386
0.000156577
0.000149744
0.000248117
0.0994088
0.0908789
0.00027965
0.0387183
0.000148494
0.000184058
0.0563042
0.000150368
0.000166242
0.000215431
0.000147035
0.00022816
0.0835954
0.00018286
0.000149737
0.0315658
0.000231449
0.0426343
0.000145548
0.000160098
0.000151146
0.000159664
0.000150975
0.000175958
0.000164882
0.000164161
0.000183728
0.000176457
0.0436369
0.000155669
0.000174662
0.000161668
0.0156943
0.000165587
0.0249478
0.000160784
0.0001575
0.00797548
0.000170142
0.00014947
0.000164433
0.0994716
0.0953915
0.0428655
0.000149764
0.00014928
0.000149844
0.0870121
0.0001538
0.00033742
0.000262452
0.000183558
0.000164673
0.000310773
0.0210471
0.000150918
0.0930725
0.000162207
0.000164629
0.000150126
0.000151505
0.000183817
0.0513619
0.000148506
0.022045
0.000262742
0.000170522
0.000243191
0.000149567
0.000148435
0.000170141
0.000158093
0.0448504
0.0243112
0.000172615
0.000347358
0.000149768
0.000151467
0.000152102
0.000149652
0.0615914
0.000157661
0.0324454
0.000169372
0.000156742
0.000193363
0.0477875
0.0576748
0.014931
0.000158487
0.00015081
0.000149071
0.000160924
0.00020883
0.000183189
0.0749136
0.000149191
0.000155311
0.000179579
0.000149709
0.0308491
0.000153391
0.000177629
0.000179562
0.000164674
0.000165048
0.000148224
0.000180324
0.000164577
0.000185898
0.000168576
0.000165017
0.000147598
0.000197289
0.000149161
0.0119985
0.0698954
0.000239438
0.000149806
0.000172187
0.000149779
0.000184346
0.000155593
0.000157134
0.000157714
0.01602
0.0801786
0.00016878
0.000168271
0.000194425
0.000178087
0.0784196
0.0525539
0.000161195
0.0461518
0.000225582
0.000149648
0.000165284
0.0589372
0.000169901
0.000149635
0.000181316