/*--------------------------------*- C++ -*----------------------------------*\
| =========                 |                                                 |
| \\      /  F ield         | OpenFOAM: The Open Source CFD Toolbox           |
|  \\    /   O peration     | Version:  v2012                                 |
|   \\  /    A nd           | Website:  www.openfoam.com                      |
|    \\/     M anipulation  |                                                 |
\*---------------------------------------------------------------------------*/
FoamFile
{
    version     2.0;
    format      ascii;
    class       volScalarField;
    location    "650";
    object      p;
}
// * * * * * * * * * * * * * * * * * * * * * * * * * * * * * * * * * * * * * //

dimensions      [0 2 -2 0 0 0 0];


internalField   nonuniform List<scalar> 
13851
(
-0.136159
-0.0492232
-0.0482481
-0.311866
0.00875667
-0.0554011
-0.0487226
-0.00440875
-0.132138
0.0353128
-0.122984
0.0176812
0.0471351
-0.14257
-0.0880045
-0.100276
-0.282861
-0.017266
-0.186609
-0.136189
-0.0975651
-0.00476739
-0.301054
0.0109903
-0.243315
-0.0906713
-0.121726
-0.178389
-0.110773
-0.00677755
-0.293649
-0.0485198
-0.130064
-0.157254
-0.093748
-0.10873
0.0110616
-0.270791
-0.249082
0.0202973
-0.180569
-0.111453
-0.296202
-0.128914
-0.116276
0.00546104
-0.0136942
-0.10692
-0.0164753
0.0475176
-0.225807
0.0541297
-0.10056
-0.0679778
-0.128956
0.0214279
-0.13174
-0.182847
-0.111899
-0.166029
0.0176753
-0.122904
0.0304171
-0.0162667
0.0809472
0.0870663
-0.16689
0.285777
0.00541926
-0.307028
-0.287708
-0.107612
0.0332077
-0.16492
-0.0738309
0.0113716
-0.28413
-0.0109913
-0.239797
0.0160838
0.00435338
-0.22347
-0.0901907
-0.145095
-0.164203
-0.290974
-0.007565
-0.109755
0.0346655
-0.29277
0.0550381
-0.0496751
-0.240452
-0.292213
-0.233126
-0.0982036
0.0122618
-0.104005
-0.201839
-0.175315
-0.105541
0.200899
0.198296
0.0380602
0.00129185
-0.107717
0.00185429
-0.288364
-0.0493901
-0.0165512
0.00930172
0.00480742
-0.181623
-0.12916
-0.122771
-0.0670356
-0.00230043
-0.00478941
-0.312242
-0.30721
-0.102441
-0.0125238
0.0111016
-0.161147
-0.167712
0.328673
0.0115156
-0.0905725
-0.164068
-0.100205
-0.00114643
-0.0655775
-0.268293
-0.154577
-0.127405
-0.235949
0.277366
-0.290262
0.171354
-0.0972653
-0.219584
0.0552452
0.0353526
0.220584
-0.225969
0.0249621
-0.011033
-0.292992
-0.120804
-0.0945364
-0.106724
-0.179507
-0.13283
-0.176404
0.0560284
0.043379
0.0160072
-0.251783
-0.0948318
-0.0480631
0.0112007
-0.109233
-0.105854
-0.107693
-0.1413
-0.127086
-0.128335
-0.226859
0.00848663
-0.198202
0.0181515
-0.00250096
-0.12133
0.00982066
-0.230838
-0.136154
-0.112978
-0.00320671
-0.0726388
-0.111634
-0.165783
-0.125447
0.00299246
-0.0985251
-0.286871
-0.120677
-0.129784
0.135439
0.0514973
-0.0023781
-0.224576
-0.0949265
-0.142136
-0.0573779
0.0229081
-0.102475
-0.12802
-0.0297633
-0.0195834
0.271772
-0.220199
-0.211131
-0.185703
-0.0869237
-0.109308
-0.21096
0.0900417
-0.0931403
-0.134426
-0.0482366
-0.0986151
0.0114901
-0.224166
0.0176554
-0.0978632
0.00893804
0.0460543
-0.14916
-0.0261248
0.385534
-0.0034627
-0.138761
-0.145255
-0.232471
0.125611
-0.0935194
0.0172985
0.22455
0.0194869
-0.0944123
-0.312886
0.131033
-0.0486492
0.0294141
-0.183944
-0.00749918
-0.293077
-0.1885
-0.167772
0.011323
-0.244743
-0.162214
-0.115447
-0.0990027
-0.0835478
0.23836
-0.147697
-0.0727483
-0.0939249
-0.00922525
-0.118376
-0.152412
-0.000414736
-0.0612598
-0.103544
-0.107437
-0.101661
-0.00220424
0.342116
0.0335593
-0.135435
-0.170721
-0.0629731
-0.107213
-0.154869
0.0257828
0.204073
-0.106611
-0.169028
0.0266063
0.0461405
0.130266
-0.138213
-0.310438
-0.102188
-0.0132214
-0.1655
-0.17383
-0.122362
-0.105677
-0.140324
-0.190118
-0.0638565
-0.0826644
-0.265534
-0.00134568
0.0152338
-0.1242
-0.107476
-0.00866344
0.0169233
0.0200625
0.00637775
-0.0830721
0.0155326
-0.133172
-0.0995795
0.0130383
-0.110862
-0.159451
0.0533358
-0.13871
-0.213642
0.0567144
0.0544653
-0.101691
-0.148871
-0.279046
-0.125328
0.00858659
-0.195232
0.0181372
-0.130495
-0.214762
-0.166044
-0.0467556
-0.255363
-0.25531
-0.285744
-0.18035
0.224707
-0.236435
-0.162653
-0.177974
-0.020614
-0.292583
-0.109887
0.339526
0.321261
0.0913107
-0.125979
0.08415
-0.109526
0.217981
0.00232555
-0.0134972
-0.0357768
-0.288073
0.378732
-0.00166144
-0.230041
0.094161
-0.0658719
-0.0485762
-0.14752
-0.163544
-0.101954
0.0108121
-0.0462357
-0.102849
0.0518722
-0.176617
-0.0629147
-0.1024
0.0989886
0.0343893
0.0121166
-0.184569
-0.182658
-0.150706
-0.258989
-0.102829
0.0241801
-0.187517
-0.142431
-0.0153365
-0.159146
-0.129178
-0.203148
-0.0343256
-0.0880237
-0.112426
-0.264051
-0.181377
-0.111633
-0.0208048
-0.138016
-0.297265
-0.0762906
-0.118906
-0.0824142
-0.192338
-0.0813911
-0.0746898
-0.156325
-0.203689
0.0433559
-0.0603379
-0.111292
-0.0739761
0.00874912
-0.10273
-0.150538
0.0323412
-0.0937189
-0.311766
-0.0403233
-0.248301
-0.0840591
-0.277959
-0.0505765
-0.0895914
-0.0721097
-0.170966
-0.107346
-0.101885
-0.162562
-0.235074
0.026654
-0.181546
-0.0816843
-0.0884223
-0.0103595
-0.292826
-0.164933
-0.248135
-0.0464065
-0.157336
-0.126015
-0.310434
-0.0153149
-0.292261
-0.214227
-0.303224
-0.0132234
-0.198665
0.0397469
0.00960765
-0.128014
-0.128114
0.0361814
-0.0489912
-0.0951883
-5.74205e-05
-0.165414
-0.126837
-0.128655
-0.0606568
-0.0218641
0.0549834
-0.259802
0.0142284
0.0539508
-0.109031
-0.152484
0.00181021
-0.113721
0.0301911
0.0147826
-0.0423774
-0.152408
-0.0811771
0.00952292
-0.0326136
-0.0998703
-0.0436655
-0.280448
0.0167058
-0.0639041
-0.114513
0.0908516
-0.0118547
0.0195045
-0.0598166
-0.0326281
-0.217265
-0.109139
-0.0851974
-0.0262999
-0.0443662
0.0214602
-0.152966
-0.114565
0.145097
0.0314122
-0.161884
0.163523
-0.233126
0.0385749
-0.0690139
-0.185748
-0.0791657
-0.162869
-0.121992
-0.256016
0.0555113
-0.182206
0.0246003
-0.110677
-0.0839814
-0.127339
-0.0806819
0.010102
0.0851876
-0.122537
0.00903106
-0.306153
-0.154214
-0.280786
-0.309025
-0.108361
-0.26609
-0.173714
0.115898
0.0239179
-0.256945
0.0352576
0.00880945
0.121145
-0.226196
-0.049082
0.0592813
-0.0493449
-0.109162
0.0370397
-0.24302
0.0135716
-0.159983
-0.211483
0.0157266
-0.0469242
-0.217653
-0.167597
-0.0078822
-0.276612
-0.284635
-0.0211423
-0.272649
-0.182715
-0.140979
0.0569008
-0.111241
-0.179748
-0.0214492
-0.200057
0.00820338
0.0132416
-0.103648
-0.192286
-0.0939228
-0.0800651
0.0358942
-0.0914298
-0.162741
-0.244751
-0.0230394
-0.279798
0.00959161
0.00703409
-0.109008
-0.0620394
-0.0156863
0.0142615
-0.270284
-0.199269
-0.271403
-0.0470507
0.0332943
-0.136201
0.0239806
-0.183556
-0.0655571
-0.0749742
-0.0834301
-0.114071
-0.191298
-0.0573064
-0.296761
-0.0452381
-0.128787
-0.112394
-0.12959
0.0150739
0.0254381
0.191118
-0.267889
-0.106616
-0.0903713
-0.274531
-0.0623784
-0.0797469
-0.311064
-0.245831
-0.0721241
-0.158562
-0.125942
-0.106123
-0.0169577
-0.112563
-0.193776
0.0219506
-0.241359
-0.221104
0.00337791
-0.0988509
0.0247465
0.12833
-0.105102
-0.298824
0.0151437
0.0101826
0.1163
-0.107393
0.0162577
-0.228268
0.0100885
-0.126509
0.0619451
-0.0895685
0.0371719
0.0377916
-0.0551034
-0.278467
-0.107668
-0.235083
-0.0691285
0.00026321
-0.0168778
-0.123374
-0.0313118
-0.157866
-0.0524022
0.145492
-0.111571
0.024603
-0.0989443
0.017266
-0.0930702
-0.296573
-0.123334
0.140801
-0.293034
-0.0389819
-0.186921
-0.220822
-0.0246032
-0.25041
0.0892067
-0.0787591
-0.30815
-0.21985
-0.0153786
-0.155447
-0.0294979
-0.105862
-0.238464
0.00220263
0.282116
-0.173376
0.0210908
0.0210837
-0.0905233
-0.0991434
-0.112412
0.054128
-0.158725
-0.0420106
0.039052
-0.116292
-0.159333
-0.176221
-0.0144977
-0.107472
0.113984
-0.0872414
0.0707393
0.0240145
-0.0981685
0.112989
-0.106936
-0.105649
-0.107374
-0.0599236
-0.191375
-0.185607
-0.139187
-0.273528
-0.106594
-0.143502
0.0119612
-0.107314
-0.140913
-0.0135215
-0.0783054
-0.182207
-0.0229388
0.0156307
0.0144232
-0.0946613
-0.110835
-0.0651278
-0.190291
0.000779614
-0.113862
-0.000841107
-0.21609
-0.154463
-0.0528121
-0.0492281
-0.216783
-0.177821
0.011906
-0.126165
-0.0211922
-0.268901
-0.0943187
-0.126672
-0.0774828
-0.231272
0.0389803
0.0176701
0.0867438
0.0397867
-0.113709
0.00675173
-0.111604
-0.136006
-0.157252
-0.241354
-0.201189
-0.12803
-0.195306
0.13889
0.0268963
0.044747
-0.00961255
-0.0162243
0.00991038
-0.128488
-0.176452
0.115619
-0.177079
0.00743781
-0.133971
0.0250649
-0.311499
-0.0825255
0.0251762
0.0287022
-0.124362
-0.0556455
-0.12838
-0.220569
-0.0957785
-0.118844
-0.02115
-0.159015
0.0475404
-0.0497245
-0.105092
0.026986
0.0561884
-0.0205236
-0.0855069
-0.115616
-0.0612029
-0.0797995
-0.218246
-0.245492
0.138318
0.0466742
-0.109922
-0.00942233
-0.108609
0.0114571
-0.0446884
-0.233451
-0.107387
-0.12324
-0.150458
-0.109241
0.0259938
0.0247095
-0.132227
-0.0185097
0.0258758
-0.0653724
-0.209152
0.00798488
-0.176704
-0.238078
-0.120287
-0.149379
-0.298544
0.178927
0.0271276
-0.179759
0.00156362
-0.0615175
-0.135261
-0.102318
-0.241625
-0.10981
-0.00191237
0.00191958
0.0388954
0.0273101
-0.00463326
-0.295793
-0.135003
-0.121857
-0.0930527
-0.108767
0.0414483
-0.00617976
-0.274444
-0.129314
-0.0464148
0.025675
-0.121215
-0.188902
-0.19102
0.0557302
0.0130485
-0.115974
0.0696888
-0.0827824
7.76356e-05
-0.223954
7.63183e-05
-0.295571
0.0311031
-0.160037
-0.0935274
0.0589541
-0.0797651
0.0338264
-0.0481618
0.00879581
-0.107517
0.0673211
-0.101987
-0.0232913
-0.146711
-0.148946
-0.0726177
0.00741017
-0.311157
-0.111518
-0.0595804
-0.106546
0.0446841
-0.104369
-0.0141275
-0.183512
0.0235805
0.0085077
-0.127347
-0.0847314
0.0195363
-0.0690595
-0.1752
0.0178632
-0.174235
-0.00136249
-0.142592
0.0269569
0.00798599
0.0546169
-0.013521
0.0224173
-0.184523
-0.138627
-0.0262248
0.0101344
-0.0959272
0.00423201
-0.311112
-0.183916
-0.142668
-0.238501
-0.0474895
-0.107541
0.0220004
-0.096841
0.00864649
-0.0241997
0.0116404
-0.239922
-0.237589
-0.117063
-0.283957
-0.106448
0.0301002
-0.0967789
-0.106632
-0.270542
-0.0809834
-0.120052
-0.131318
0.0166508
-0.304071
-0.3023
-0.114655
-0.225522
-0.102125
0.0529491
0.221036
0.0542074
-0.147989
-0.0221768
0.00244108
-0.174863
0.0110651
0.00737493
0.0138003
0.0120969
-0.224977
-0.178996
0.00443979
-0.0991904
-0.146685
-0.00803385
-0.287896
0.0722989
-0.110972
-0.199661
0.0163693
-0.107237
-0.0308771
-0.0752697
0.0432005
0.00833969
-0.216585
-0.0881655
-0.17562
-0.0326876
-0.106579
-0.0745723
-0.15881
-0.253632
-0.106082
-0.0946873
0.0371816
-0.000941575
0.0218716
-0.0735668
0.0287745
-0.164204
0.0065677
0.103912
0.1363
0.0507324
-0.00124422
-0.0567573
-0.0288489
-0.0465167
-0.00777827
-0.215454
-0.106505
-0.0740357
-0.0742256
-0.177421
0.0588277
-0.284853
-0.00898778
0.00593718
0.0688685
-0.00158725
-0.0405513
0.0219472
0.00390551
0.218382
0.0443591
-0.205547
-0.0295281
-0.243804
-0.173704
-0.155985
-0.196878
-0.0237994
-0.242804
-0.147367
0.0173212
-0.0262094
0.0575547
-0.2844
0.075222
0.195705
-0.170244
-0.311715
-0.117796
-0.0152572
-0.114708
-0.164767
-0.10134
-0.0275967
-0.000367077
-0.0231475
-0.124065
0.0386151
-0.178802
-0.18618
0.0240497
-0.141961
-0.210016
-0.0199279
-0.213993
-0.294081
-0.133006
-0.0237308
-0.113384
-0.126747
0.0126168
-0.121529
0.0435832
-0.0169288
0.0165442
-0.0723224
-0.0752378
-0.134682
-0.293251
-0.0831397
-0.130515
-0.077555
0.0352893
0.304583
0.0148381
-0.25807
-0.0233739
0.00945587
0.0246616
-0.0195101
-0.143151
-0.105029
-0.117186
-0.193781
-0.25818
0.119428
0.0311232
-0.0284467
-0.220618
-0.0235452
-0.00896297
-0.0856388
-0.233059
-0.0999954
-0.0118762
-0.053086
-0.08188
-0.14577
-0.293534
-0.0214451
-0.0156673
-0.0464811
-0.252554
-0.0641251
-0.165457
0.0267625
0.0131778
-0.0175399
0.0150858
0.00598387
-0.130379
-0.105737
-0.127329
0.14198
0.0225499
-0.248853
-0.0332593
-0.201918
-0.180321
0.127386
-0.279242
-0.113086
-0.298002
-0.0878804
-0.079717
-0.143078
-0.0763894
0.0616417
0.0294913
-0.186362
-0.0146651
-0.0429462
0.0362587
-0.130111
-0.251773
-0.00850806
0.0600997
-0.044855
-0.22206
-0.0831244
0.0117628
-0.0668098
0.0816199
-0.0586087
0.02052
0.0267146
-0.112586
-0.11408
0.0368074
-0.0776533
-0.0754689
0.0214099
-0.100304
-0.110376
-0.239787
-0.103389
0.0197389
-0.00485739
-0.0343304
0.0534375
-0.113675
-0.0842668
0.0257256
-0.0989647
0.109283
-0.146917
-0.0943795
-0.147679
0.0803819
-0.0036309
0.209359
-0.134483
-0.128222
0.0270892
-0.109487
-0.166286
-0.295268
-0.266588
-0.131432
-0.129826
-0.156918
0.0279323
0.0325737
-0.0242428
-0.107027
-0.0814322
-0.129897
-0.301382
-0.0317539
-0.00829147
0.0360725
-0.0992796
-0.0115913
-0.0632984
0.0213327
-0.111556
0.0584425
0.00210558
0.0260051
0.0186029
0.0102931
0.102672
-0.115132
0.0573729
-0.166255
0.0308722
0.0147558
-0.161428
-0.14946
-0.112127
-0.116678
0.164913
-0.111168
-0.000626637
-0.0246419
-0.00187366
0.0305546
-0.0508657
-0.293605
-0.0400406
-0.134644
-0.262927
-0.0308442
-0.00136113
0.109394
-0.129984
0.0162374
-0.115329
-0.0240334
-0.106648
0.0289595
-0.0251402
-0.0612988
0.130383
0.0482626
-0.122709
-0.291198
-0.0987207
-0.153151
0.0398346
-0.271648
-0.148589
0.0285158
-0.260967
0.0534781
0.209703
0.0528135
-0.0312387
0.00832382
0.0382179
0.00655918
0.125242
-0.113262
-0.0161049
0.0306055
0.259473
-0.0171917
-0.270324
0.0289153
-0.079831
-0.0751991
-0.169402
-0.178423
0.0264274
-0.132415
-0.000237523
-0.0657803
-0.0870183
-0.114132
-0.0964162
0.0156096
-0.105411
0.211688
-0.112328
-0.172912
0.0736832
-0.173143
-0.0920119
-0.109594
0.0563918
-0.0112834
-0.118026
-0.311997
-0.0253079
0.0130297
-0.290785
0.000948279
-0.0980989
0.0144955
-0.114466
-0.261275
-0.0166097
-0.305608
-0.0559827
0.0129656
-0.111035
0.00258554
0.206273
-0.103116
-0.0958713
-0.116795
0.00817668
0.016549
0.219468
0.0240357
0.0256999
-0.0660068
-0.0722598
-0.115315
-0.124117
0.0382476
-0.052023
-0.0097502
0.0214383
0.024155
0.028397
-0.248935
-0.0221685
0.0743142
-0.114442
0.000555509
0.0117911
-0.140668
0.0257754
-0.238328
-0.0415222
-0.133724
-0.157625
0.171701
-0.255604
-0.125961
-0.0141034
-0.0260079
-0.190668
-0.0358347
-0.0115842
0.00652709
0.0753387
-0.0777872
0.0179868
-0.0870248
0.00605809
-0.00657228
-0.292851
-0.228582
-0.16097
-0.0501529
0.215206
-0.194292
-0.311074
0.024394
-0.0620465
-0.11011
-0.024919
-0.0844298
-0.259928
-0.123679
-0.063998
-0.0899798
0.0154885
-0.212214
0.0248784
0.0679663
-0.186376
0.0406265
-0.00520895
-0.269327
-0.0978042
-0.118699
-0.154479
-0.0963225
0.0538698
0.00654515
-0.0253955
-0.279943
-0.194254
-0.166583
-0.112506
0.0405058
-0.21189
0.0295411
-0.184203
0.12351
-0.0443272
-0.0990785
0.023691
-0.215321
-0.255122
-0.0220539
-0.120953
-0.0826353
-0.264667
-0.1018
-0.0887617
-0.116758
-0.0761425
-0.103436
-0.0930595
0.0292657
-0.0792705
0.299005
-0.111081
0.0202332
-0.118467
-0.105112
-0.0876252
0.016944
-0.264962
-0.0601875
0.0459714
-0.00315127
-0.0668099
-0.0642076
0.075934
0.00926626
0.0185911
-0.0904185
-0.243026
-0.117693
0.0270312
0.068743
-0.077671
-0.181395
0.0238184
-0.134894
-0.281586
-0.0517223
-0.123563
-0.0738471
-0.20442
-0.217265
0.0279445
-0.257958
0.010762
-0.00159992
-0.0767989
-0.0845067
-0.153389
-0.0871212
-0.0296125
-0.0518652
-0.070067
0.0250643
-0.0116026
0.131085
-0.0572121
0.0833789
-0.177252
-0.0190831
0.0182307
0.0147365
-0.110562
-0.129049
0.0387726
-0.0512879
0.0843555
-0.150876
-0.183084
-0.0764947
-0.114025
-0.167341
-0.236914
-0.141833
-0.105936
0.00698039
0.366369
-0.00933344
0.123143
-0.272598
-0.103538
-0.207981
-0.244794
0.0285795
-0.150059
0.00648507
-0.103668
0.03538
-0.110029
-0.184213
-0.0543558
0.00780149
-0.206673
0.207464
0.0238878
-0.281181
0.0331514
0.0480239
-0.0579838
0.0538172
-0.0632512
0.0863276
0.0413918
-0.0347065
-0.228224
-0.0933794
-0.117189
0.024391
-0.205892
-0.101831
0.00800007
-0.12082
0.0381076
0.117589
-0.157452
0.0081969
0.0489861
0.0857191
-0.211375
0.0233687
0.013094
-0.0949505
-0.101296
0.00752023
0.0567492
0.00175442
-0.169612
-0.101405
-0.093627
-0.139554
0.0324979
0.239132
-0.00667819
-0.168672
-0.0543156
0.0351427
-0.0600289
-0.154845
0.0125117
-0.024855
-0.148071
-0.106489
-0.0328802
-0.160083
0.0167194
-0.00759618
-0.124139
0.0191666
-0.022469
-0.221179
0.0222112
-0.0956071
-0.109729
-0.282626
-0.169963
-0.0236604
0.0957385
0.110766
0.0141519
0.0384096
0.0257558
-0.105302
0.0206821
-0.0995325
-0.11611
-0.0056017
-0.0173066
-0.0675337
-0.117157
-0.119049
0.0490704
-0.122335
0.0165194
-0.131667
-0.108357
-0.0644473
-0.0882397
-0.0752516
-0.149832
-0.308015
-0.0743188
-0.103015
-0.146805
-0.311591
-0.0516066
0.00770303
-0.0814094
0.174559
-0.0170382
-0.033601
-0.0448856
0.0168845
-0.0043269
0.0229561
-0.0148717
-0.045896
-0.0207522
-0.287193
0.00776408
-0.269162
0.0146234
-0.052059
-0.0163083
-0.121831
-0.0677778
0.0378498
-0.13837
0.0945145
0.0221469
-0.0899907
-0.0101013
0.0639489
-0.0181735
-0.105782
0.00236194
-0.0986512
0.31981
-0.137328
0.0190562
-0.0971291
-0.176804
-0.0719947
-0.0228039
-0.0338018
-0.0314909
-0.127012
-0.25291
-0.00915784
-0.30852
0.0158368
0.194134
-0.282643
-0.0629628
-0.103115
-0.001605
-0.0803583
0.0282703
-0.253679
-0.0563243
0.0101436
-0.0650988
-0.16274
-0.013752
0.0310781
0.0122089
-0.247684
0.0219081
0.0216403
-0.152619
0.0442424
0.0272999
-0.0847203
-0.00472878
-0.140348
-0.00856425
0.0348224
0.003348
0.116368
-0.0248985
-0.0217121
-0.105141
-0.150721
0.0235417
0.0303095
-0.165435
-0.0323861
-0.306868
-0.044144
-0.267929
-0.00267025
0.0451382
-0.000448429
-0.109298
-0.150714
0.0225507
0.0478495
0.126167
0.0125601
0.0294494
-0.106291
0.0101515
-0.101996
-0.0100648
-0.0763027
0.0244497
-0.166671
0.00133778
-0.0877483
-0.00237666
-0.165982
-0.223244
-0.00978033
-0.0347944
-0.236618
-0.108158
-0.112518
-0.105793
-0.190795
0.0848012
-0.083311
-0.143922
-0.169863
-0.0318576
-0.0745393
0.10916
0.00764772
-0.104064
-0.30871
-0.11518
-0.147622
-0.2107
-0.0362482
-0.133458
-0.0170896
-0.00924581
-0.157277
-0.257096
-0.180951
-0.182213
-0.158657
-0.000616133
-0.261694
-0.121413
-0.282613
0.013002
-0.258103
-0.297297
-0.226859
-0.0535784
-0.144267
-0.105104
-0.0632034
-0.17958
0.112138
0.0167842
-0.253086
-0.125177
-0.0121954
-0.166695
0.0210313
0.0282115
-0.0954919
0.0995626
-0.211315
0.0973974
-0.311132
-0.0842867
0.118766
-0.153232
-0.207627
-0.148261
0.0635387
0.10831
-0.132183
-0.017292
0.000808429
-0.10653
0.0740338
-0.176771
0.0218641
-0.177444
0.0222953
-0.062225
-0.112741
-0.103723
0.0815692
-0.142822
-0.281064
0.0413058
0.0178487
-0.283025
-0.218964
-0.024238
-0.0441817
0.021373
-0.0942525
-0.0573875
-0.110197
-0.15378
0.0553229
0.0120333
0.247407
-0.00123572
-0.152969
-0.229734
0.00397139
0.0235415
-0.0315582
0.0164418
-0.0384813
0.0146849
-0.0232118
0.10582
0.0161767
0.0315622
0.0525248
-0.0890202
-0.171336
0.0158859
-0.166492
-0.279559
-0.00693821
0.112537
-0.152911
-0.127842
0.0508567
-0.123521
-0.0633138
0.188159
-0.0731263
-0.0132218
0.011964
-0.257544
-0.0589602
-0.116232
0.0531343
0.0372856
0.0195834
-0.0829155
0.0218725
-0.106468
-0.097783
-0.0970232
0.0101421
-0.151827
-0.262559
-0.168069
-0.00101517
-0.178168
0.194589
-0.263876
-0.227924
0.0685397
0.0110813
-0.177764
-0.15665
-0.122365
-0.0950957
-0.119973
0.0107099
-0.0140979
-0.0176927
0.0199361
0.0515875
-0.186264
0.0180936
0.212443
-0.00418943
-0.192705
-0.160274
-0.1468
-0.110335
-0.169043
0.0498801
0.0246726
-0.216982
-0.00953565
-0.00949692
-0.00778688
-0.135428
-0.161478
-0.25502
0.101028
-0.0302546
-0.00412766
0.00492119
-0.142976
0.0091899
-0.106935
-0.192608
0.0238131
0.026975
-0.128915
-0.101062
-0.0436735
0.0297009
-0.175177
-0.196232
-0.0197385
-0.13747
0.018085
-0.162883
-0.167274
-0.0432224
-0.312376
-0.300959
-0.17071
-0.00417019
-0.0316929
0.0223302
0.0255362
-0.150776
0.00989337
-0.1663
-0.106568
-0.243929
-0.0243312
-0.108597
-0.164807
-0.108749
-0.213155
-0.277305
-0.00923047
-0.0582908
-0.0584672
-0.0964809
-0.122236
-0.0144878
-0.112864
0.00492188
-0.0899009
0.052286
0.00608036
-0.211728
-0.0848621
-0.311268
0.0191773
-0.108591
-0.0219198
-0.12548
-0.048522
-0.149534
-0.153748
-0.17637
-0.0954599
0.0211934
0.0217593
-0.121883
0.0577719
-0.134313
-0.226015
0.012057
-0.110685
0.167201
-0.234905
-0.0558446
-0.0947056
-0.0920185
-0.0148692
-0.170597
0.0230239
-0.0809856
-0.101086
-0.189455
-0.249702
-0.165648
0.0145004
-0.104629
-0.0136419
-0.19868
0.0197961
-0.214841
-0.0144451
-0.141103
-0.0165479
0.0186185
-0.0799274
0.109138
0.0553091
0.0161806
-0.122475
-0.0844087
0.0106155
-0.065884
-0.113026
-0.17867
0.0390646
-0.27785
-0.0025169
-0.0779467
-0.0721335
-0.00669215
-0.125823
0.0190594
-0.276827
-0.0489573
-0.0586948
0.0320932
-0.220228
-0.0941778
-0.0151186
-0.15378
-0.195813
-0.160801
-0.0216983
-0.167468
0.02681
-0.171002
-0.0651335
-0.119798
-0.215588
-0.126986
0.170267
-0.163136
-0.0780746
0.0348671
-0.000277047
-0.152899
-0.104067
-0.156361
0.254085
0.0123281
-0.101592
-0.146687
-0.223201
-0.112928
-0.226267
-0.12115
-0.262905
-0.264908
0.0333832
0.109602
0.0265238
-0.0153023
-0.014073
-0.134049
0.0115198
0.0909898
-0.263182
0.015967
0.00238424
-0.0817035
-0.160822
-0.0678477
-0.00382524
-0.214019
-0.0363938
-0.0854886
0.0284067
-0.291756
0.087376
-0.182615
0.0566889
-0.0839322
-0.0923516
0.026815
-0.312715
-0.162992
-0.132121
0.0221821
0.00379692
-0.129705
-0.2913
-0.107823
-0.016825
-0.133753
-0.15847
-0.0206653
0.012247
0.00525534
-0.160629
0.142684
-0.0382186
-0.0579292
-0.0599739
-0.133331
-0.1281
-0.163125
-0.0576583
-0.0809894
-0.0152648
-0.132064
-0.10398
0.033897
-0.104223
-0.275182
-0.176263
-0.10576
-0.298768
-0.276497
-0.214692
0.0820935
-0.0225685
-0.185761
-0.219012
-0.217664
0.0243811
-0.0945323
0.040724
0.0225292
-0.101268
-0.190513
-0.113639
0.0200688
-0.13298
-0.132433
-0.107972
-0.148473
-0.240195
-0.125798
0.0040472
-0.152165
-0.103695
-0.218465
-0.0733789
-0.0988489
0.0528319
0.00519276
-0.0894843
-0.102341
0.000255095
-0.0867156
-0.0669801
0.0329733
-0.103404
-0.130627
0.0628581
-0.0866571
-0.170073
-0.105532
0.0297454
0.327945
-0.0658904
-0.108913
-0.0908072
-0.0158113
-0.0716397
-0.0308858
0.0595704
-0.00694915
0.157229
-0.0753256
-0.0913483
-0.184113
0.0122633
-0.0102392
-0.124004
-0.110602
-0.213912
-0.166223
-0.103498
-0.0160648
0.0381706
-0.0717982
-0.0130749
-0.239346
0.037361
0.0207204
-0.00819956
-0.103095
-0.27891
0.0543508
-0.106218
-0.0270409
0.0279853
-0.0675878
0.16204
-0.0926592
-0.0780588
-0.309683
-0.0604331
-0.200724
-0.0763248
-0.221043
-0.0582888
0.00494412
-0.000617681
-0.127191
-0.150576
0.000359424
0.0242158
-0.0619693
-0.117819
-0.112312
-0.311109
-0.136104
0.0199542
-0.202267
0.0271985
-0.0502708
0.0313378
-0.130351
0.0189688
-0.101295
-0.0694111
-0.058695
0.0292614
-0.108889
0.119344
-0.13719
-0.206528
-0.102682
0.0133752
-0.159587
-0.132819
-0.195552
-0.144724
-0.121908
-0.00666802
-0.0754239
-0.0191365
-0.277135
0.0268157
-0.0610551
-0.131699
-0.233511
-0.00620999
0.016788
-0.280097
-0.09115
-0.276913
0.167273
0.0291124
-0.0976018
-0.142377
0.175796
-0.110804
-0.0528259
-0.188093
-0.0364409
0.021362
0.0133142
-0.210344
0.0658769
-0.119658
0.04222
-0.00132884
-0.203252
-0.0606356
-0.0129967
0.0186931
-0.0588761
-0.182095
-0.0865949
-0.0912868
0.0951631
-0.123703
0.0281707
-0.167759
-0.0721511
-0.10032
0.217594
-0.0590236
-0.0724736
0.148337
-0.0184727
-0.111382
-0.301194
-0.101442
-0.0227929
-0.249459
-0.133842
0.0215849
0.0702928
-0.0633086
-0.154884
0.130931
-0.127266
-0.211776
-0.0289285
-0.110439
-0.0136781
-0.058353
-0.124124
-0.265169
-0.0363197
-0.0971776
-0.157901
-0.104244
-0.163271
-0.0446211
-0.139418
0.0350208
-0.101999
-0.172857
0.0252356
0.00926071
-0.104399
0.0505013
0.0288603
-0.145416
-0.128171
-0.16756
-0.0598206
-0.172343
0.00928317
-0.110783
-0.134454
0.0128995
-0.133122
-0.260527
-0.21934
-0.11348
-0.13101
-0.107609
0.00571359
0.0808136
-0.123757
-0.113522
0.0299465
-0.10286
0.0319857
-0.127522
-0.133546
0.137781
-0.121846
-0.124396
-0.132359
-0.112157
0.246547
-0.287377
-0.226487
-0.0567649
-0.0117791
-0.106457
0.0261112
-0.00895179
-0.264191
0.0252283
-0.109765
0.0519916
-0.174641
-0.0569368
0.0255216
-0.269043
0.123545
0.0973596
-0.103953
-0.213007
-0.234834
-0.0643474
-0.0784759
0.0583246
-0.0805353
-0.141235
-0.0851933
0.0262067
-0.127918
-0.119863
-0.0213701
-0.114239
-0.0961475
0.0239508
-0.182453
-0.133904
-0.0879807
0.0247019
-0.193216
-0.000897153
-0.136465
-0.107189
-0.175798
0.00377109
-0.0875917
-0.308453
-0.042484
-0.126495
-0.0694845
-0.0951445
-0.186484
-0.116525
0.0836702
-0.298445
0.0042985
-0.107593
0.0190584
-0.0340238
-0.131343
-0.107283
-0.0319794
0.307169
-0.14447
-0.0740083
-0.0180716
0.0836584
-0.100946
-0.255976
0.118136
-0.252993
-0.145523
-0.0718257
-0.0693664
-0.098307
-0.0733535
0.196328
-0.115002
0.0272956
-0.03085
-0.0298604
-0.257714
0.0325473
-0.0595644
-0.0115011
-0.116704
-0.0651386
-0.111693
-0.149088
0.0796681
-0.176313
-0.013482
0.0513628
0.0195335
0.0263693
-0.0590626
0.0125863
-0.110301
-0.19262
-0.108074
-0.101526
-0.0554062
-0.00164453
-0.102561
0.0272925
-0.132862
-0.154803
-0.294983
-0.111224
-0.0506258
-0.0630604
0.0231948
0.0789831
0.185251
-0.0871142
-0.195307
-0.104386
-0.282751
-0.107429
0.0133087
0.00137039
-0.102358
0.016231
-0.0735126
0.234445
-0.208416
-0.0444793
-0.157683
0.0271541
-0.0185629
0.0409287
0.0517876
0.0925607
-0.108394
-0.00371972
-0.0735141
0.17958
-0.0996269
-0.0987027
-0.131377
-0.110562
-0.206983
-0.10169
-0.0536111
-0.0115459
-0.0950192
-0.105054
-0.208025
-0.113646
-0.0766918
-0.186862
-0.102735
-0.0322321
0.0178898
-0.0889866
0.0226979
-0.0710836
-0.298127
0.0220904
-0.012795
-0.234257
-0.0996476
-0.0869261
-0.245379
0.0493741
-0.130621
-0.0872752
-0.21804
0.141681
0.0240313
-0.112032
0.262054
0.0378398
-0.0578933
0.0238511
-0.159799
-0.05454
0.255439
-0.256966
0.130168
-0.160763
0.0130802
-0.288586
0.0471958
-0.0482992
0.00555181
-0.098527
0.0127044
0.0672227
-0.108162
-0.183939
-0.109371
-0.0205246
0.172125
-0.00200227
-0.00176787
-0.039002
-0.133262
-0.0567908
-0.182115
-0.149438
-0.160424
0.0235375
-0.173912
-0.195695
-0.161518
-0.0538552
-0.195753
0.0232858
-0.0153588
0.0209343
-0.258978
-0.0135361
0.0336181
-0.111957
0.0239748
-0.18139
0.100596
-0.0221724
-0.138951
-0.0601005
-0.177212
-0.00562202
-0.157258
-0.00735838
0.232857
-0.312855
-0.118903
0.0178597
-0.0615193
-0.13818
-0.070918
-0.17709
-0.0772315
-0.0292941
-0.152062
0.0203417
-0.0327465
-0.281893
-0.0575679
-0.0629158
-0.0974418
0.0242785
0.00144452
0.0120087
-0.0657014
0.0456294
0.0414255
-0.162973
-0.315697
0.156869
-0.310612
-0.0892884
-0.0684036
-0.234737
-0.287312
0.0603266
-0.278212
-0.274032
-0.123227
-0.259154
-0.0663816
-0.139419
-0.118222
-0.308048
-0.259741
-0.202047
0.102526
0.118235
0.0743164
-0.0578626
0.00538615
-0.213526
0.0221847
-0.311944
0.0776357
-0.107799
-0.0105334
-0.112912
0.104169
0.0893389
0.0254632
0.00946017
0.109315
-0.0467403
-0.0315771
-0.0785608
-0.262005
-0.0474189
-0.173927
0.000689435
0.122441
0.144037
0.0466717
0.0220511
0.0123374
-0.171972
-0.137935
-0.152621
-0.274083
-0.00407375
-0.134145
0.0286066
-0.0833905
0.00581443
-0.00343625
0.0242448
-0.133309
-0.00632778
-0.0796865
-0.19926
0.00869048
-0.0767266
0.0262175
-0.256242
-0.190242
-0.305428
-0.140687
-0.185217
-0.18957
-0.120972
-0.202388
-0.106976
-0.292768
0.0912413
0.176475
-0.242392
-0.206167
0.0314854
-0.310829
-0.15142
-0.161008
-0.00989563
-0.109772
-0.24873
0.0184854
-0.310871
0.109968
-0.225348
0.010996
0.049021
-0.12801
0.0488516
-0.060323
-0.127299
-0.0137722
-0.0189183
-0.109351
-0.172721
-0.306875
-0.0865321
-0.0322367
0.0630078
0.019069
0.00981211
-0.0316184
-0.136311
-0.146031
-0.231602
-0.0643467
0.00642293
0.0072624
-0.158266
-0.307412
-0.211931
0.118361
0.00364508
0.161749
-0.310511
-0.306209
-0.0163882
0.0188158
-0.252209
-0.0168304
-0.0902814
0.0887072
0.0259839
-0.00944798
0.121091
-0.168562
-0.247394
0.0121045
-0.0137658
-0.0276571
-0.103465
-0.236887
0.0237983
-0.167591
-0.21665
-0.0157537
-0.100485
-0.112824
-0.312585
0.0292675
-0.3128
-0.240386
-0.0121238
0.00718544
-0.0513559
0.350239
-0.202804
-0.0574004
0.0175299
-0.309666
-0.210383
-0.00956622
-0.143047
-0.174875
-0.0744791
-0.179004
-0.234513
-0.158838
-0.218266
-0.0651648
0.0862085
-0.0426244
-0.167812
-0.227342
-0.224137
-0.308459
-0.181915
-0.0132037
-0.0914075
0.010528
0.0138121
0.0444486
0.0148564
0.0278237
-0.0132704
-0.122538
-0.258832
-0.269999
0.0383481
-0.174589
0.187267
0.00157718
0.00703811
-0.165884
0.0244666
-0.102477
-0.112498
0.0261821
-0.00945062
-0.118913
0.0180621
-0.1852
-0.0449575
-0.00437022
-0.0138846
-0.187012
-0.010395
-0.260467
-0.171222
-0.0140901
-0.104449
-0.00536629
-0.0394249
-0.0242489
-0.126723
-0.12418
0.0145268
-0.177203
-0.036804
0.0313497
-0.0118686
0.0450422
-0.0185939
0.023438
-0.22995
-0.217084
-0.312731
-0.0783334
-0.309569
0.0240336
-0.0597961
-0.0322545
-0.159006
0.061169
-0.139304
0.00248303
-0.103704
-0.150782
-0.286806
-0.108803
0.00216283
-0.0911466
0.00191995
-0.182331
-0.0113135
0.005763
-0.036126
-0.053742
0.00968257
0.0146155
0.0848494
-0.172183
0.0538291
-0.0106491
-0.0456204
0.0299929
-0.120306
0.0230823
-0.309685
-0.106887
-0.0345641
-0.149205
-0.309181
-0.10589
-0.202219
-0.0134103
0.0296953
-0.113222
-0.126951
-0.174903
-0.107552
-0.124203
-0.0136785
-0.109682
-0.0761348
-0.100915
0.0269056
0.00684612
-0.168581
-0.146129
-0.312172
-0.0550911
-0.0105529
0.026098
-0.311084
-0.112988
-0.0132195
-0.176087
-0.0160849
-0.0972098
-0.0733473
-0.0752625
-0.0295088
0.0202802
0.00988018
-0.0501389
-0.117905
-0.178561
-0.0136865
-0.00736203
-0.221906
0.0153233
0.041822
0.116159
0.109642
-0.0774207
0.0199789
-0.107214
-0.0747175
0.109178
-0.279111
-0.123749
0.0384702
-0.0673795
0.0381469
0.0168839
-0.304381
0.328787
-0.109773
-0.0219711
0.0226021
-0.113355
0.102625
0.0271153
-0.0821261
-0.274392
0.00514103
-0.078523
0.0440541
-0.12898
0.0288549
-0.0211044
-0.311095
-0.16404
-0.160588
0.0239717
-0.14506
-0.0211144
0.026749
-0.0894581
-0.137279
-0.11701
-0.0524203
-0.150198
-0.0374883
-0.0742071
0.242816
0.230802
-0.0136174
-0.0108525
0.0639445
-0.0132018
-0.0594749
0.018314
-0.170625
-0.308164
-0.019103
0.0740405
0.0640315
-0.0205293
-0.138688
-0.184837
-0.311047
-0.102889
0.0628222
-0.100453
-0.205653
-0.155465
-0.09596
0.0788917
0.0696285
-0.272184
-0.143673
-0.220829
-0.00342135
0.0693212
0.0496501
-0.060175
-0.260933
-0.00967664
-0.0230508
0.11186