/*--------------------------------*- C++ -*----------------------------------*\
| =========                 |                                                 |
| \\      /  F ield         | OpenFOAM: The Open Source CFD Toolbox           |
|  \\    /   O peration     | Version:  v2012                                 |
|   \\  /    A nd           | Website:  www.openfoam.com                      |
|    \\/     M anipulation  |                                                 |
\*---------------------------------------------------------------------------*/
FoamFile
{
    version     2.0;
    format      ascii;
    class       volScalarField;
    location    "150";
    object      ddt0(k);
}
// * * * * * * * * * * * * * * * * * * * * * * * * * * * * * * * * * * * * * //

dimensions      [0 2 -3 0 0 0 0];


internalField   nonuniform List<scalar> 
13917
(
-1.44276e-07
-1.83296e-08
-0.000403773
-4.14135e-07
1.20215e-08
-1.60596e-06
-0.000342379
-0.000327741
0.000557446
-2.3534e-07
2.15092e-06
-7.47568e-07
-4.25048e-07
0.000233554
-1.98899e-08
-4.23408e-08
-1.22964e-08
-5.05407e-07
-7.32748e-07
2.8927e-08
-6.30733e-10
-0.000272684
2.50411e-08
-0.000454116
2.18729e-08
-0.000293495
-3.04026e-08
-1.29677e-08
1.55097e-08
-3.2255e-07
-4.34317e-08
-1.05067e-07
1.67287e-07
-3.79656e-08
6.16061e-09
-0.00368929
2.60629e-08
4.82348e-05
-5.1438e-07
-0.000214095
2.32332e-08
-4.94976e-09
-5.17549e-08
-8.18458e-08
-8.07547e-08
5.11655e-08
-4.73503e-07
-7.63929e-07
5.6046e-07
5.19773e-08
-3.03586e-07
-8.37457e-10
7.6572e-06
-3.7006e-08
-1.0217e-08
-2.37099e-07
-1.05866e-07
7.20335e-09
-1.50296e-07
-6.89984e-08
-0.000222447
-1.85016e-08
-9.82849e-05
3.26312e-08
-2.21619e-07
0.00305763
-1.69731e-09
-2.37697e-09
-1.39116e-05
-5.45406e-08
9.31631e-09
0.000479046
0.00040318
1.30627e-08
2.41241e-08
-9.82644e-07
0.000174316
-1.37342e-07
-0.000250686
3.03706e-11
1.13601e-08
-2.02457e-09
1.86808e-07
4.65202e-05
0.000730651
-1.35298e-07
1.89371e-08
-0.0248735
-3.55935e-07
-6.26406e-08
0.000297702
-3.52306e-07
-3.0558e-08
-1.66935e-08
0.0482059
-1.37445e-06
-1.33932e-06
-7.03453e-07
-8.35248e-06
-1.68366e-07
2.50873e-08
8.53519e-08
-1.62025e-07
-1.94125e-07
-6.66542e-09
0.00069203
-7.55491e-07
-8.19139e-07
-1.2455e-08
-1.45435e-07
0.000975261
-0.000277698
-7.79932e-07
0.000716466
-1.01828e-08
-1.68441e-06
2.60823e-08
3.85558e-08
7.7185e-05
-7.88342e-08
-4.63985e-09
-2.1201e-05
8.40888e-05
-6.70288e-08
4.8001e-08
-1.05357e-08
-5.14752e-08
4.96591e-08
-2.36088e-08
-4.76939e-06
-3.26847e-05
-1.02894e-08
-7.81196e-08
-2.87646e-09
-0.00731971
-0.000509388
-1.02499e-07
4.82272e-07
-2.93344e-09
-1.21498e-07
-0.00398587
-6.74409e-08
-5.57405e-09
-2.53285e-07
-2.35282e-09
-0.000190899
1.03156e-07
-3.34939e-09
-7.37135e-08
-1.05055e-07
-6.54717e-07
-3.4937e-06
-9.50112e-07
3.22982e-08
-1.42355e-07
9.67318e-06
-5.43827e-08
-0.00350039
0.000178159
-0.00625346
-2.57587e-08
3.06255e-07
-6.68001e-10
-1.1497e-06
-7.82775e-07
1.37972e-06
-1.90277e-07
-7.36298e-07
-6.02154e-08
9.06745e-08
-8.1708e-09
0.000615344
-7.90646e-07
-1.69187e-08
-0.001113
9.29775e-08
-4.03835e-05
-6.94933e-08
-0.000518028
2.27406e-11
-7.36396e-07
-1.57503e-07
-7.54603e-08
2.04752e-08
-1.11872e-07
-0.000394043
-4.07365e-06
0.000125144
-4.2141e-07
-1.99451e-06
-0.00465894
0.000735082
-1.04761e-06
2.3604e-08
1.47523e-06
-2.32026e-07
-8.44347e-08
-2.11613e-08
-2.68656e-07
-0.0174542
-4.34416e-07
5.33353e-08
-7.03898e-07
-6.42301e-07
0.000347159
-0.00752857
7.42543e-09
8.01269e-09
-6.59711e-07
-0.000493684
-1.56632e-09
-0.000313845
0.000272869
-1.93686e-06
-8.36749e-09
-8.75222e-08
-6.05236e-07
0.00061527
1.81487e-08
-0.00103453
1.02968e-09
-4.88241e-07
3.83672e-08
0.000114709
0.000783889
-1.77981e-08
-1.78139e-05
-1.70928e-07
-7.38213e-10
-0.00379391
-7.89062e-07
-4.24255e-07
-0.000557128
0.00020236
2.72038e-08
-1.21167e-07
0.000350296
0.00048799
1.06188e-08
3.55376e-08
-0.000319142
-3.76316e-06
4.42564e-09
-0.00452176
-6.08646e-07
5.98314e-07
-1.73554e-07
6.8349e-09
-6.7334e-08
0.000232136
-2.12118e-07
-1.96249e-07
4.69154e-07
-6.16393e-08
8.36433e-09
-7.73745e-07
-0.000270953
-8.99098e-07
-9.06766e-08
2.97606e-08
1.7087e-09
0.000171535
-0.000760647
-0.00459908
2.21909e-09
0.000529124
0.000151609
-0.00322183
-0.000202664
-9.74653e-07
5.69197e-09
5.6716e-08
-5.48661e-07
0.000156211
-1.16877e-06
-1.57499e-07
-0.00801399
-8.72076e-07
-2.24397e-08
-0.00306066
3.06917e-08
-0.000963499
-4.13967e-07
1.17822e-08
-1.46542e-07
-1.38035e-08
-4.26105e-07
-0.00436572
-6.42104e-08
-1.7113e-07
-0.000282928
-0.000567193
-2.94008e-05
1.86232e-08
-0.00297514
-1.75121e-09
-1.75381e-07
2.66446e-08
8.31649e-06
4.31833e-08
-4.14248e-07
-1.77627e-07
-6.67687e-08
-7.11438e-07
-3.69035e-08
6.47958e-07
2.43123e-08
-2.34538e-07
-8.63842e-08
8.72589e-09
0.000931972
4.53144e-05
2.2792e-08
4.56343e-08
-0.00337943
-9.49794e-09
0.000432327
-7.98704e-08
0.000122472
-3.12568e-07
-9.77755e-07
-5.26727e-07
-3.17845e-06
-5.13114e-09
-0.00665586
1.70668e-07
-1.05884e-07
-3.22832e-06
-3.4204e-06
-1.60915e-09
-6.69758e-06
1.80441e-06
0.000150826
1.26878e-07
6.19002e-05
-1.31821e-07
0.0012706
-8.41711e-07
9.04688e-08
6.23065e-10
-0.000316365
3.21983e-09
-8.40617e-08
0.00108144
3.96912e-09
-2.09938e-08
7.8045e-05
-3.92036e-07
-1.74653e-08
-0.0050595
-1.78265e-07
3.5786e-08
0.00022131
-0.00398079
3.36882e-08
2.18885e-08
-8.65742e-09
-7.15732e-08
-0.000210026
-0.000802314
-1.44417e-05
0.00104237
2.02643e-08
-3.60353e-07
2.44546e-05
-6.1857e-07
-0.00028547
0.000160508
0.000796109
1.53216e-08
-0.00459467
2.49643e-08
-0.00201232
-6.78958e-08
-1.47609e-06
-5.96421e-07
-4.31324e-07
7.54575e-09
-5.88368e-07
-5.09596e-07
-5.37478e-07
4.71643e-06
0.00116061
0.000499353
-2.21686e-07
-1.75568e-08
3.74196e-08
0.000512991
-0.000263741
6.59326e-09
-0.00175738
9.71219e-09
-0.000256783
-3.11931e-07
3.60645e-09
-4.44055e-08
-0.000304321
-4.63323e-08
-0.00027034
0.000267849
-1.77917e-06
-1.65012e-06
-4.17492e-09
-1.61857e-06
-1.3987e-06
3.01137e-08
-3.61939e-07
7.68051e-09
8.44379e-09
-2.59635e-07
6.82759e-09
8.08066e-09
1.40419e-08
5.8991e-05
-3.57539e-10
0.000117513
-0.000402674
4.92728e-05
-4.44849e-07
-0.000102704
0.000559797
-6.3347e-07
1.98056e-08
-3.71824e-06
-4.89601e-07
-1.20296e-07
2.27008e-08
-0.000409452
-0.000383658
-0.000523936
6.24301e-09
-6.62512e-07
-9.64152e-08
-5.27956e-07
-6.04924e-07
-2.33587e-08
-0.00482654
-1.15881e-08
4.00654e-08
0.000502845
-3.70397e-05
-4.59674e-05
-2.9536e-07
4.63634e-05
-2.14493e-05
0.00102336
0.00013413
-1.15909e-08
-6.5315e-07
-2.39487e-08
3.92413e-09
-0.00459481
-5.08663e-07
-1.27339e-07
-3.96229e-07
-6.30905e-07
0.000195491
2.86503e-08
-1.36138e-06
0.000858129
-2.29705e-07
8.63736e-05
-2.25421e-10
1.24515e-08
-9.54586e-08
-3.84937e-08
1.43853e-08
-0.000497198
-1.78375e-05
-2.98344e-08
0.000350607
-2.40546e-07
-1.1053e-06
0.0011389
1.99077e-07
-7.86096e-06
-0.00399103
-1.26526e-06
-3.20477e-07
-1.34276e-06
-7.3883e-07
0.000108246
-1.0911e-06
-7.00903e-07
-1.07782e-06
-3.46749e-08
-0.00530581
-3.67493e-07
-1.8512e-07
-4.81888e-08
-1.40778e-07
0.000160078
0.000636475
-7.93981e-09
-2.36976e-08
-0.000641708
0.000467038
9.40288e-09
0.000206998
-2.68522e-07
-5.21566e-07
-2.6951e-09
0.000378776
-0.00473421
-9.77807e-08
-5.35123e-08
-0.000104202
1.45393e-06
0.000150394
9.94281e-10
0.000266329
1.66027e-06
-0.00314377
-1.70826e-07
0.00067549
0.00135113
-6.61762e-07
1.93435e-08
-1.18955e-08
-1.18174e-06
-0.00073657
-1.26397e-07
2.4135e-08
4.7065e-08
4.66651e-08
0.000452454
-0.00425833
-6.43831e-07
-8.70691e-07
2.63141e-08
2.83494e-08
-7.19928e-07
0.00109882
-2.95378e-07
-6.28068e-08
1.18121e-08
-1.92778e-09
-0.00268075
0.000786609
1.75299e-08
4.60506e-09
-0.00468253
-7.39315e-07
-5.25379e-07
9.78807e-09
-2.94868e-08
-7.47884e-08
-1.07143e-06
-3.42375e-07
-3.22738e-06
1.34702e-06
-1.08941e-06
-0.00844045
-4.43475e-07
1.88429e-08
0.000263391
-1.83828e-09
-2.76872e-08
-3.47264e-07
-0.00469595
2.0706e-07
3.6766e-08
-7.77349e-07
-4.40831e-07
-0.000176011
-1.03485e-06
-5.8561e-07
-6.29218e-07
7.93086e-09
0.00068609
-1.37108e-06
-0.000127642
-1.34622e-08
-2.47561e-07
3.02976e-06
0.000179968
7.99747e-05
-7.13705e-07
-5.48279e-07
-5.82848e-08
-9.74618e-08
5.06584e-09
7.68074e-07
-1.93902e-07
-7.11068e-09
-6.3812e-07
4.64617e-07
-0.000124701
0.000179011
-4.53907e-08
-8.6745e-07
-0.00507163
2.67081e-08
-8.59106e-09
-2.61075e-07
-0.000274218
-8.72545e-05
-9.4733e-06
-1.85412e-08
0.00013111
-1.02078e-06
2.53873e-08
-1.99588e-07
-9.01384e-07
-1.95057e-08
-5.18926e-07
-0.000234455
-1.12626e-06
-7.48903e-07
0.000657382
-1.45851e-07
0.000134151
3.89549e-09
1.87985e-08
-0.00284904
-0.000143064
-2.52494e-06
-1.44727e-07
-1.45726e-08
5.71995e-09
-8.59338e-07
7.84564e-07
-6.04506e-07
-1.08372e-07
-2.96099e-06
-5.84535e-07
-5.94698e-09
2.08237e-05
-1.60072e-06
-0.00440878
1.4855e-08
-2.83872e-06
-1.35974e-07
0.000527499
-2.73399e-07
-3.14902e-07
-2.78489e-07
4.57549e-08
-1.42565e-07
-5.60031e-08
-2.73746e-07
-1.01748e-08
4.69042e-05
-8.01136e-07
-7.40229e-07
3.74811e-08
-7.76361e-07
-3.3642e-06
-0.00347532
-1.99527e-07
4.20153e-08
2.55701e-08
-6.11943e-07
-1.68758e-07
0.00135809
4.43938e-09
-0.00177527
-5.80972e-07
8.55102e-06
-6.8504e-08
0.000437841
1.40715e-08
-6.36839e-09
0.000168268
0.000202801
-2.6068e-09
-3.46754e-07
-0.00574466
5.80602e-06
-9.50912e-07
1.50021e-08
-5.75987e-08
-7.40415e-07
-4.45131e-07
-5.12523e-07
-6.98658e-07
-1.55574e-07
-6.75891e-07
-0.000417208
-2.13474e-07
-3.41811e-07
4.51688e-08
7.51118e-05
-3.37484e-09
3.13239e-08
0.000652815
-1.64401e-08
-0.000509264
-1.28975e-07
1.14028e-07
4.39597e-08
1.34114e-07
2.53337e-08
-2.40442e-07
4.87104e-08
1.49583e-07
-2.68425e-07
0.000191967
-2.42284e-06
0.001123
-8.72107e-08
6.06656e-09
-2.74792e-07
-1.43188e-07
8.56006e-05
0.000950507
-4.69215e-07
1.30004e-08
0.000135415
-2.00113e-06
-0.00453916
-2.49969e-05
-5.76387e-07
-0.000255458
-5.69934e-08
-8.54892e-07
-1.35376e-06
2.96229e-08
-5.01365e-07
-2.31821e-07
-3.9898e-07
-3.48169e-07
-1.14184e-06
-6.39917e-08
-1.57768e-07
-6.44804e-07
-8.39816e-08
-9.01464e-08
2.46489e-08
3.39359e-08
-6.66367e-07
-2.62354e-07
-5.91015e-07
8.05426e-09
5.58848e-09
-2.71427e-09
-3.74654e-08
-1.02738e-07
-7.62853e-08
4.57229e-08
0.000384084
-7.76816e-07
-2.34028e-06
2.19862e-08
4.05696e-09
-2.39222e-08
-3.0579e-07
-9.19772e-09
-0.00169868
1.09137e-07
-0.00348693
-6.32667e-07
-8.46105e-07
-1.77987e-07
-1.38571e-09
4.9922e-08
-4.42014e-08
0.000443073
2.12489e-09
-0.00658527
-5.90058e-08
3.85827e-05
-4.98712e-07
5.30239e-08
7.96775e-06
-4.30371e-08
-2.13897e-09
-7.62454e-07
-1.04746e-09
-3.854e-09
-0.00306239
-2.2411e-08
5.96554e-09
-2.02056e-07
3.56129e-08
-1.64527e-08
-1.04148e-07
1.01856e-06
0.000136218
-1.32505e-07
-2.15152e-07
3.17795e-08
0.000197578
-2.18376e-07
-3.9656e-09
-1.551e-08
-0.00256421
-0.00529465
0.00054708
-3.86463e-07
-3.48017e-07
2.86159e-08
-1.80316e-08
-7.16786e-07
-1.71436e-07
-0.00377467
1.17543e-07
7.74512e-06
-2.56534e-08
-1.08235e-08
0.000477036
7.33817e-09
-4.05202e-07
3.0976e-09
4.20049e-08
-1.47248e-07
-4.15917e-07
-1.11827e-07
-0.000220563
-0.000232803
-2.87945e-07
1.90974e-08
-1.21821e-07
-2.05249e-06
-0.00722479
8.30089e-09
-0.00719278
-1.09087e-07
-5.6427e-08
-2.22973e-07
-1.48859e-07
0.00373409
-1.25198e-07
-0.00183255
-2.2813e-07
-4.48692e-09
-4.31012e-08
8.85031e-10
9.04238e-09
-3.25705e-07
-7.3025e-07
-1.86254e-07
-1.07632e-07
0.00031673
0.000169627
-7.42375e-07
-1.23437e-07
-6.52828e-07
-2.48269e-07
-6.58057e-08
-2.88107e-07
0.000315901
2.73197e-07
1.10629e-08
-4.14076e-08
0.000906313
-4.73593e-07
0.00119042
-4.61707e-10
-1.24915e-08
0.000116058
-5.14897e-07
-1.22598e-07
0.000367128
9.29749e-07
9.16134e-09
-8.57392e-07
4.96315e-08
-1.2099e-07
1.7124e-08
0.000576941
-1.02326e-07
-2.59933e-07
-6.68249e-08
-0.00138225
-4.59237e-07
-1.61402e-07
-1.09303e-06
-1.64659e-07
-1.65334e-07
2.02625e-08
0.00108102
3.29461e-08
-1.94117e-07
6.4607e-09
-2.40701e-06
4.47996e-09
-2.40028e-06
-0.000368565
-0.000679055
2.53665e-08
-0.00415775
0.000733443
9.80192e-09
0.000202673
0.000351002
0.000808521
-6.94798e-05
0.00030084
-0.00020582
-7.01211e-07
-1.23675e-08
-0.000215839
-4.92301e-07
-0.000224171
-1.69556e-07
-2.87223e-08
-2.6675e-09
2.46413e-08
-3.06983e-07
6.83366e-08
7.57428e-05
-3.25972e-08
5.49678e-09
9.12714e-05
-5.67289e-07
-5.22617e-09
1.49755e-06
-2.24323e-07
-1.18386e-07
-2.6613e-06
1.15745e-06
-2.30407e-08
-4.56584e-07
-0.000295533
0.000567279
-6.64116e-07
-2.13324e-07
-7.63869e-06
-4.75126e-07
0.000706618
0.000888188
-8.25188e-07
3.81855e-10
-1.71822e-07
-2.84265e-08
-6.75119e-08
-4.50468e-08
-1.3866e-08
-7.28591e-08
-6.6835e-08
0.000432917
-1.99754e-06
-2.57195e-07
-7.84986e-07
0.0010265
-1.45729e-07
2.39333e-09
0.000166244
-5.55132e-08
-1.57257e-09
-6.02812e-08
0.000335485
1.82561e-09
1.47985e-08
-0.000275664
-0.00451195
-0.00497068
-8.57899e-07
-0.00372826
1.35519e-08
-1.18785e-06
-3.14678e-09
3.53387e-08
-6.21702e-09
-0.000413041
0.000640566
-1.16515e-07
-5.15452e-08
1.90555e-09
-0.00529307
-2.5852e-08
-2.79639e-07
4.4875e-10
-1.17362e-08
2.42108e-06
-1.7562e-07
-3.1429e-07
-4.53589e-07
-5.77652e-05
-4.82622e-08
2.23892e-07
-3.08313e-08
0.000428308
0.000964404
1.17212e-08
0.00089637
-7.47585e-07
1.19514e-06
2.35091e-09
-0.000278285
6.56325e-09
-2.25997e-07
-4.69695e-08
-9.17916e-07
-0.000539542
-0.00443928
-0.000472999
-0.000179007
4.55056e-08
-0.000182429
-1.51761e-07
-3.42861e-08
-0.000243619
1.60289e-09
4.19548e-09
-4.88378e-08
-9.42427e-08
0.000454601
-3.46429e-08
2.63111e-08
-6.39186e-07
-2.1352e-07
-6.77332e-07
-1.85477e-06
1.34425e-05
0.000409962
-1.00149e-06
-4.58986e-07
-8.99826e-07
0.000148907
-7.46649e-07
-0.0028559
-0.000244295
-3.71269e-07
-1.8714e-07
-0.00024095
-0.00449354
-9.70383e-10
-5.71053e-07
-3.43019e-07
-2.63495e-07
-3.31111e-07
-9.55879e-08
-1.03348e-07
-5.17658e-09
-5.28577e-07
-1.89649e-07
2.26147e-08
-3.35308e-07
-1.05309e-07
-4.45606e-07
4.72667e-08
-4.58226e-09
-6.3719e-07
-2.60334e-07
-1.6784e-07
-1.15651e-07
9.54272e-07
-2.85984e-07
-0.000751135
6.90422e-09
-2.24242e-08
-7.30699e-07
4.33578e-09
-3.35954e-07
-2.3746e-07
-2.63054e-07
-5.45778e-07
-1.12047e-07
-0.00165215
-3.95466e-09
-7.31392e-07
6.18107e-05
0.000984753
1.62736e-08
-2.41095e-08
-0.000401711
3.048e-08
2.95403e-08
0.00078301
0.000676854
-3.88748e-08
-0.000314148
3.14367e-08
-1.69049e-07
-0.000470624
-3.86348e-08
-4.27274e-08
-0.00322698
-1.24558e-07
-0.00375396
1.31487e-08
-3.43775e-08
-2.21528e-09
2.31709e-05
4.88542e-06
1.22807e-08
4.47494e-09
1.6685e-08
-2.58112e-08
4.50002e-08
-3.61343e-07
-3.79477e-07
7.34678e-10
-0.000720311
-4.77884e-07
-0.000367059
-3.84152e-05
2.24365e-08
-1.27535e-07
-2.74942e-09
9.35027e-10
-1.36888e-07
-3.22781e-08
-7.62009e-07
0.000712194
-1.86082e-08
-0.000224826
-5.72026e-07
-5.28628e-07
4.53207e-05
-2.97363e-07
1.72654e-07
-0.000599629
-5.22527e-07
-1.15286e-05
3.31237e-05
-7.89168e-07
-1.03427e-07
0.000166045
-4.10262e-08
-1.65148e-07
-2.15013e-07
-0.00138419
-5.89754e-08
-9.80961e-09
-3.02674e-07
-3.73281e-07
-7.69083e-08
0.000111469
-3.26206e-08
-0.00112082
-8.40378e-07
-0.0043619
-6.228e-07
-2.5818e-06
-2.19265e-07
-1.05796e-07
-1.03928e-08
-0.000522159
2.64736e-08
-1.98036e-08
-1.73317e-08
-2.91695e-08
-3.87438e-08
9.01844e-07
-8.74047e-06
-1.00013e-06
-1.20203e-06
3.15511e-07
-0.000597853
3.81023e-08
-4.84697e-08
-0.00517131
-0.000459505
-4.88424e-08
2.63611e-08
-2.65124e-07
0.000507715
1.02567e-09
-5.88629e-07
1.66668e-06
5.11012e-08
5.88671e-09
-3.22186e-07
-1.34717e-07
-5.42846e-07
3.88925e-08
4.4848e-08
-0.000353517
-0.000235019
-2.36222e-08
-0.00905945
-7.99075e-07
-0.00150543
-2.1289e-08
-2.55887e-07
-0.000974023
-0.00758805
-8.44689e-07
3.88946e-08
-1.15063e-07
-2.77932e-09
-1.48056e-07
-2.28937e-08
8.82044e-09
-8.91459e-09
-1.00671e-07
1.67096e-08
-1.44575e-06
3.58962e-08
-2.18676e-07
-1.56574e-07
-8.40079e-08
-2.96837e-06
-7.99667e-06
1.08826e-08
-3.47317e-06
-1.45517e-07
-0.00118976
8.64102e-09
-1.65563e-07
1.30601e-08
-0.000533992
0.000399651
-1.9635e-05
1.35482e-08
-1.60705e-06
-5.4831e-09
-1.14255e-07
0.000512252
-9.6631e-08
-2.54769e-09
-1.88088e-07
-2.01458e-07
-0.00025434
1.59615e-08
-3.88203e-08
-3.30566e-07
2.51888e-08
-4.48142e-07
-9.75132e-09
1.43893e-08
-1.06967e-08
0.00023907
-9.1832e-08
-0.00464589
-0.000237087
-4.79495e-07
-1.66863e-05
-7.93086e-08
1.61339e-08
-5.96328e-08
0.000345706
-3.22927e-07
-4.36666e-08
-6.76295e-07
-0.147939
6.56886e-09
-1.2123e-05
-3.90756e-07
-6.57307e-07
-5.3822e-08
-3.52721e-08
-0.000493959
-2.72109e-09
-3.90875e-09
5.32169e-09
-1.6263e-07
-3.19069e-08
-1.55616e-07
-8.02588e-07
3.92537e-06
-0.000355144
-4.87773e-07
-7.94303e-07
-0.00249673
-0.000383328
-7.11936e-07
-3.15689e-08
0.000473562
-4.52184e-07
-0.00203899
-2.77868e-08
-0.000594646
5.08835e-05
-1.98418e-07
6.23728e-09
3.3886e-08
-2.71794e-07
-2.22901e-07
-1.67372e-07
1.70074e-08
-8.96121e-07
-1.38062e-07
3.57948e-07
0.000268793
-7.81053e-08
-2.7259e-07
0.000593177
-1.18333e-07
0.000194571
-3.56531e-07
8.26585e-07
7.0543e-11
0.00033428
0.000661912
-7.09655e-09
-2.6742e-07
-0.00033257
7.28896e-08
0.000238879
4.42298e-08
-1.2795e-07
-0.000166282
-2.21856e-07
-1.1759e-07
0.000164277
4.55711e-09
-3.79354e-07
-1.3511e-07
-4.42337e-08
4.88562e-08
-0.000215256
0.000694376
-3.67513e-08
-2.4673e-07
4.34933e-09
-7.672e-08
-4.64119e-07
0.000149279
-9.87631e-09
9.88909e-07
-0.00309803
-0.00442009
-0.0070886
-2.13274e-07
-2.18793e-06
-4.00839e-08
1.37e-08
6.99714e-09
-7.02367e-07
0.000208081
-1.84568e-08
-8.26993e-08
-0.000363665
-7.61099e-06
2.06809e-06
-4.84617e-09
-2.35031e-09
-2.21046e-09
1.70422e-09
0.000589148
-6.63952e-07
-2.99091e-07
-2.74506e-07
-1.41678e-07
-4.29716e-09
6.58694e-09
2.16109e-09
-8.2487e-07
-8.2555e-07
-0.000878341
-3.80932e-07
0.000155433
-0.000251361
1.7789e-08
-5.26193e-07
2.43918e-08
-1.43664e-08
0.000288114
-1.67482e-08
-2.74159e-08
-6.59582e-07
-1.36064e-06
8.64427e-07
-0.000447215
-0.00467717
-5.59762e-08
4.82486e-05
-5.2026e-08
-1.16509e-07
-1.52345e-08
-3.53721e-09
-2.1101e-07
-2.03534e-05
-0.00158042
-1.21201e-07
-0.000692042
-1.75282e-08
-1.27066e-07
-3.4e-08
8.35538e-07
-1.09233e-07
-3.67629e-07
-0.00110261
-5.96359e-08
-0.00235795
-0.00012287
9.15463e-09
-6.37773e-08
4.31135e-08
-0.000386264
-6.48506e-07
5.01512e-10
-0.000342286
-5.64554e-07
-2.85834e-08
-6.98514e-09
0.000638762
2.25228e-07
-6.89601e-07
-3.2659e-07
-9.53703e-08
0.00042698
-1.07071e-07
2.05047e-06
9.22068e-09
-3.40481e-07
4.76149e-08
9.86929e-09
0.000464655
-2.03382e-08
-8.27889e-07
-3.37481e-07
-7.84978e-08
1.04667e-07
-7.41475e-08
-4.91197e-09
-0.000383808
-9.85984e-08
0.000146221
-1.61409e-07
-7.08516e-07
-4.26396e-08
-2.04423e-07
3.06685e-09
-1.04662e-06
-0.000640398
-2.00926e-08
-2.90154e-08
-2.07226e-06
-1.52377e-07
-0.00199578
-8.58739e-08
-0.000667606
-0.00439623
-1.21836e-07
2.88463e-08
2.76953e-08
5.89673e-09
-1.79787e-08
-6.21914e-07
-5.86078e-07
1.25155e-07
-7.33026e-08
3.35141e-08
-0.00748058
-2.47476e-07
-1.13921e-07
-0.00293108
5.56857e-09
0.000605696
-6.61851e-07
-6.21748e-07
-8.07427e-07
0.000209952
-0.000446403
-0.000847162
-0.00630034
2.94266e-09
-2.37115e-07
0.000665191
-9.81245e-06
2.01531e-08
-1.96926e-10
-1.30838e-06
-0.000306515
0.000183652
-5.66152e-07
-3.00171e-07
6.43353e-07
-4.74808e-07
-8.88901e-05
3.37504e-05
-6.53593e-07
-2.17637e-07
-3.99207e-08
-2.19693e-07
-9.12701e-07
2.29222e-08
-3.22217e-07
-0.00212401
6.04023e-09
-0.00334783
1.80897e-09
-1.19634e-07
0.000103741
0.000237157
3.29172e-08
-3.18393e-07
-5.82846e-08
-1.16767e-07
-5.81197e-08
-5.64567e-06
-3.23926e-07
3.50594e-08
2.85084e-08
-7.63478e-07
-1.37887e-07
-1.19855e-07
-0.000232419
5.98891e-09
0.000382978
0.000324355
0.000148645
1.21262e-07
-3.20008e-07
-0.0048969
-4.11195e-07
-0.000210598
-0.00398349
-0.000548977
-1.1004e-08
0.0016684
-9.39773e-05
2.33799e-08
2.46676e-08
-2.71437e-07
0.00119161
-0.00215963
-1.7982e-07
-5.0112e-09
-3.7164e-05
-0.000312811
-0.011919
-6.1354e-08
4.11628e-08
2.11594e-06
-7.1727e-10
-4.7609e-05
0.00013298
-0.00357983
-9.87049e-05
2.90199e-09
1.6066e-08
4.44085e-08
-6.96558e-08
5.46624e-05
-6.8863e-07
-3.96357e-07
-9.72169e-09
2.90789e-07
0.000575251
-7.65921e-07
-0.00169287
0.000122488
0.000145656
4.30774e-08
5.37699e-09
1.83359e-08
-0.000751679
-2.64141e-08
-1.66951e-07
-1.3195e-08
5.18096e-06
-4.66898e-07
0.000298869
-4.76207e-07
2.11391e-08
0.000978364
-2.41001e-07
-3.86283e-08
0.000244359
3.74761e-07
7.32811e-09
-2.08712e-07
7.52102e-05
0.00122001
3.05001e-09
-0.00149002
-0.00293068
0.000856674
-8.90462e-05
2.11594e-08
3.57102e-09
-9.86191e-08
-4.92128e-05
-1.70197e-07
-0.000935875
-2.11617e-07
-0.000644702
-0.00243902
-1.55133e-08
-7.32965e-08
-9.2218e-10
-7.71289e-09
0.00119696
0.000310028
3.78916e-09
0.000280084
-6.64823e-07
-2.86289e-09
-2.01214e-08
2.57605e-08
-1.45476e-07
-5.27629e-08
-9.85264e-07
5.48518e-07
8.35497e-10
5.01711e-08
-3.07205e-08
0.000170463
-4.48093e-07
-3.91418e-08
-2.1049e-07
4.15924e-09
-1.27564e-07
-3.96568e-07
0.000488952
4.73808e-05
0.00122504
-4.68638e-09
4.45122e-08
-1.64586e-08
-1.9406e-06
1.40216e-08
-1.854e-08
-2.98281e-05
-7.17974e-07
-0.00439415
-1.99104e-07
0.00115824
5.06022e-05
5.43866e-09
0.00043505
-1.31345e-06
-6.86669e-07
-1.41247e-06
-9.3496e-09
0.000370945
-1.55706e-07
-1.47087e-08
-4.50758e-09
-2.73318e-08
-0.00452833
-8.84478e-08
-3.57739e-07
3.01065e-07
-0.000215173
-1.39704e-05
4.07736e-09
5.50395e-08
-7.97997e-08
-4.6943e-08
-2.30227e-07
7.26687e-10
-4.04628e-07
-2.41855e-07
0.000189166
-2.71502e-07
-0.000156072
-1.2533e-08
0.00124755
-7.84559e-08
-3.55375e-08
0.000796537
-4.46741e-07
6.11002e-07
-0.00362217
3.63279e-07
-6.01148e-07
3.34733e-09
0.000717878
2.09995e-09
1.40987e-08
1.22652e-06
-8.22117e-07
0.000326107
0.000844706
-7.7071e-07
-0.00120986
-6.21235e-07
-0.000384397
-1.24739e-07
-2.06259e-07
-4.16286e-07
0.000538559
1.62705e-08
0.00088859
7.78818e-05
-2.27976e-07
-1.76252e-09
4.07211e-09
0.000254961
1.32766e-06
-2.22703e-07
1.98808e-08
1.24813e-08
-1.36574e-07
-4.95806e-07
4.69649e-05
-2.9835e-07
3.58438e-08
-1.09633e-05
-5.41314e-07
0.000238358
-5.8443e-07
-2.09555e-08
-9.48524e-08
0.000922335
4.79389e-08
-4.80498e-07
-0.000488955
-9.59048e-09
-7.54927e-08
-2.00403e-05
-2.25124e-06
-1.38329e-08
0.000131579
-1.39825e-07
-0.000292244
-8.44479e-07
-6.42237e-08
-2.38463e-07
0.00115691
2.93496e-08
2.42993e-08
-8.98595e-08
0.00128851
-4.15616e-07
-2.92319e-07
-4.02863e-07
-4.83347e-07
-1.86878e-09
0.00130801
-3.9127e-07
-1.34505e-07
-2.6085e-07
3.09361e-08
1.28912e-09
9.14071e-06
7.97739e-09
2.87263e-08
4.08121e-09
-3.76084e-06
-1.65516e-09
-8.02075e-08
-8.34238e-07
-9.23483e-07
-4.50213e-07
-2.91409e-09
-3.48246e-07
-2.01783e-06
1.79905e-06
-2.5157e-07
-1.06577e-06
-1.47515e-06
-0.000737758
-1.54138e-06
1.23833e-09
-0.00353615
-0.00052535
8.23376e-10
-1.18739e-07
-1.98452e-08
-4.20846e-06
-2.39027e-07
-1.98749e-07
4.53675e-07
0.000717364
3.71827e-08
-4.10029e-09
-0.000378068
4.57709e-05
-8.18526e-07
-3.54875e-08
-0.00416827
-0.000250471
-3.53429e-06
2.48643e-08
0.000527238
-9.43128e-07
-1.14677e-07
0.00105696
-2.3649e-07
-2.07423e-08
-2.57699e-07
-8.05734e-07
-4.03206e-07
-0.000336756
0.00118648
-3.00614e-08
-0.00144393
-2.98092e-07
0.00076374
-1.77972e-08
-2.91025e-08
-9.80206e-09
2.71741e-09
0.000141217
-0.00582407
-0.00262788
-0.00329607
-9.15528e-08
-4.13115e-07
-8.9228e-08
0.00134049
0.000178493
2.0712e-09
-4.02466e-08
3.55458e-09
-1.8212e-07
-5.75266e-07
-8.41338e-05
-0.000646159
-4.15348e-07
-8.58911e-08
-2.24657e-07
0.000217792
3.31352e-08
-5.75838e-07
-3.9602e-08
-1.48119e-08
-1.10927e-06
-0.00591053
-0.00539469
7.93131e-09
1.9362e-08
-0.000308043
-9.0221e-08
3.02056e-07
-0.000493956
0.000419855
1.06924e-08
-8.81546e-09
-7.0638e-07
-5.10479e-08
-2.54615e-09
0.000130746
0.00064552
-8.05636e-08
-7.0454e-08
3.6694e-09
3.35237e-08
-1.92734e-07
-1.36421e-07
-0.000361482
-6.40653e-07
-9.50303e-07
-4.53735e-08
1.58715e-08
0.00127804
-4.93407e-07
-1.16356e-06
0.000563343
-2.19786e-09
0.000291159
-2.09746e-07
-8.37577e-07
-2.9208e-07
0.000537675
0.000755384
-7.90415e-07
5.20993e-09
-2.08654e-07
-1.3706e-07
-5.48168e-08
2.53107e-09
-0.000433397
-1.03518e-07
-0.00493614
-0.00443684
-3.57022e-07
9.56769e-09
-2.72603e-06
-3.155e-07
-9.05719e-10
1.97405e-06
-2.43243e-08
-8.76235e-07
-3.37708e-07
-1.76201e-09
-0.00125623
-2.00556e-08
2.15357e-05
-1.51949e-08
2.8538e-08
0.000803754
-3.26196e-05
-1.71094e-08
-4.54765e-07
-7.36734e-07
-1.12458e-07
-6.70672e-07
-4.33588e-07
-2.09179e-07
-2.31338e-07
-0.00394364
-2.1081e-08
-0.000514219
-1.30432e-07
-0.00411299
-2.22155e-06
-2.05342e-07
0.000118631
-1.73213e-08
-0.000445605
-6.51541e-08
0.00111944
0.00217654
-0.00283071
-0.00449452
-0.000155698
-2.99307e-07
-1.76016e-07
-5.80244e-05
-7.31988e-08
1.41806e-09
0.000541766
-0.000392288
-1.20483e-08
-3.04071e-07
-1.52382e-07
-1.54285e-07
-5.09819e-07
0.000319114
4.70409e-09
-6.23216e-07
-6.33906e-07
9.65502e-09
2.26409e-08
-7.07187e-07
-8.74211e-08
-0.000554116
-1.55379e-08
-4.67266e-07
-2.30609e-07
-4.50186e-07
-3.85643e-07
-0.00522983
-4.13113e-07
-2.06975e-08
-2.76359e-07
-0.000199507
-0.00210179
-2.20685e-07
-0.000806012
-3.09663e-07
-3.13997e-05
1.50217e-09
-4.6794e-08
1.52373e-05
-7.84833e-07
0.000551121
0.000578189
-4.75225e-07
0.000996659
-4.72148e-09
-1.0066e-07
0.000459727
8.33043e-07
-1.5182e-08
0.000332263
-1.13115e-07
-7.8543e-08
4.92035e-08
-3.28763e-07
-4.15645e-08
-0.00119202
-0.000521695
7.18545e-05
0.0343204
-1.67851e-07
-1.26342e-07
0.000618531
-2.24281e-08
-1.59782e-09
7.47536e-10
-1.89871e-08
-1.80483e-07
0.000415124
0.000158203
0.000103105
-7.00674e-07
-2.19235e-07
0.000441598
-4.46227e-08
-8.43081e-07
5.98449e-09
-0.00117774
-3.33568e-08
9.84206e-09
2.7979e-06
-5.76705e-07
3.79068e-08
3.8717e-08
0.000349154
-2.09537e-09
-1.99765e-06
-5.34759e-08
-0.00222526
0.000967692
-1.39632e-06
-5.73175e-07
3.84019e-08
-0.00466729
-2.55922e-06
-4.40975e-07
-5.52827e-08
-2.58091e-07
3.7344e-08
-7.23696e-07
7.00019e-09
-6.85812e-07
-6.49699e-09
-7.81491e-08
0.00167672
-4.99341e-08
-1.17491e-07
-3.67976e-07
-4.09107e-09
-3.08182e-05
-3.20131e-08
-6.95576e-08
0.000195559
-8.66434e-07
-0.000549274
4.57196e-09
0.0012417
-8.61259e-07
0.000373554
-3.37245e-08
-2.56631e-06
-2.5008e-07
-5.67113e-07
-1.74985e-06
-1.78318e-06
-6.673e-06
0.000544018
1.60167e-07
-0.000443466
1.56721e-08
-9.54375e-07
-1.21445e-07
-0.000886358
-1.2725e-08
-2.48568e-07
7.7679e-09
-6.85076e-07
2.34619e-08
-0.00713809
-5.83689e-07
-0.000695322
-0.00258175
1.34192e-07
7.21434e-10
-0.00522062
1.35375e-07
-4.27138e-09
-2.45896e-08
6.80466e-09
-0.00107706
8.95277e-09
0.000241668
-4.41033e-08
-3.92994e-07
0.000750035
-9.33629e-08
1.4118e-08
8.2209e-09
0.000238073
-2.3484e-08
-2.93904e-08
-2.3195e-07
-8.69379e-08
-1.39902e-07
-6.48379e-09
0.000130279
-2.29256e-06
-1.02528e-07
-2.73051e-05
0.000937826
-2.22578e-05
0.000381885
-4.28556e-09
1.26116e-08
1.74513e-08
-2.18167e-07
-6.02629e-07
-0.000727888
9.93162e-06
-3.5702e-08
1.99921e-09
-0.000144395
-0.00559026
-3.32802e-08
-2.55513e-08
1.84678e-08
0.000211738
-0.000295594
-1.24453e-07
-1.00667e-07
8.54804e-09
7.72362e-06
-1.90827e-06
-2.23752e-07
4.20097e-08
-1.23967e-07
-7.49076e-09
-2.373e-07
-6.82093e-05
-1.24742e-08
-8.47845e-08
-1.18921e-07
-0.000403396
-4.60691e-08
0.000530897
2.29284e-08
2.40277e-05
-1.44026e-08
-2.64362e-07
1.49189e-08
2.71836e-08
-1.94521e-06
-0.0026194
-7.90528e-09
-0.000274797
0.000380234
-4.75347e-09
0.000260573
7.87427e-05
-3.13323e-08
-0.00276817
-0.00470974
-1.26593e-06
-1.48454e-09
-4.23986e-05
0.000776791
-1.58943e-07
2.517e-07
4.50109e-05
-1.92327e-08
4.80321e-09
-6.87554e-08
-7.78843e-08
-2.6137e-07
-3.0432e-07
-6.73969e-05
2.38642e-07
-2.61299e-07
-1.81413e-08
9.45498e-10
-0.00088658
-3.20185e-08
-1.28692e-07
8.3712e-08
-2.92001e-07
-4.35729e-07
2.29481e-08
-1.89716e-08
4.83282e-05
3.49393e-08
0.000853296
1.60508e-08
2.73529e-05
-9.24218e-05
-6.61725e-07
-8.53995e-09
-6.48971e-09
0.000624564
-2.61715e-08
-8.02542e-08
-4.21295e-09
-8.0696e-07
-0.00111356
-3.47905e-07
-5.2771e-05
9.68463e-08
-0.00463006
-7.41871e-09
-8.42385e-07
-1.47193e-07
1.53409e-08
0.000292688
-8.04559e-06
-4.45195e-05
-4.95708e-08
-8.41494e-07
-8.2748e-07
0.000538985
0.000301046
2.35614e-05
-2.1865e-07
-4.38725e-08
0.000557047
-8.65441e-08
-7.74074e-08
0.000153225
-1.17678e-06
-4.83098e-08
1.43496e-07
1.81126e-07
-1.64633e-08
-1.31719e-07
0.00102777
-1.67443e-07
3.50939e-08
0.000435893
3.10121e-07
-5.42279e-08
-7.1534e-05
3.6235e-08
2.00364e-08
2.82231e-08
-5.11195e-07
0.000247353
-4.43742e-08
-4.13914e-08
1.31536e-08
1.52147e-07
-1.958e-08
9.79065e-06
-0.00315876
-6.67333e-05
-0.000198242
-0.000457342
-7.19105e-08
0.000572805
-1.23746e-07
9.30922e-09
1.14498e-08
-5.54057e-07
-4.18218e-08
-2.47954e-06
0.000220755
0.00112522
-8.67213e-05
-1.68972e-06
1.96907e-09
-1.18983e-06
4.03055e-08
0.000233241
-2.82538e-07
-2.94396e-07
-1.12471e-07
-8.54978e-08
-1.35961e-08
-1.52051e-06
0.00113774
8.18564e-10
-8.12256e-08
4.57663e-08
0.000322735
-8.98672e-08
0.00146986
-0.000500768
-1.30435e-05
7.85481e-09
-8.52664e-09
8.9137e-05
-8.46315e-06
9.82468e-09
-5.54378e-08
3.47865e-09
-3.41385e-07
1.55947e-07
-6.16508e-07
-6.59186e-07
-0.00454781
-4.16988e-08
-1.57407e-07
-0.00453041
-0.000189362
-1.51127e-07
3.6489e-08
3.87558e-09
-0.000368625
1.67951e-08
5.2177e-08
-7.77298e-08
1.19899e-08
0.000128288
0.000130211
-0.00405055
-9.12305e-07
0.000692179
-0.00123005
-1.99732e-08
-4.47406e-07
-3.2504e-08
2.74255e-07
-1.53861e-07
-3.20309e-08
1.23551e-08
2.91252e-08
-1.13786e-07
-5.38404e-05
-3.06839e-07
-4.10009e-07
-2.26341e-07
3.18555e-07
-1.82454e-07
1.69323e-07
2.66264e-08
-4.1322e-07
-6.37494e-07
-4.99574e-07
0.00160787
2.43034e-08
5.81182e-05
-1.66178e-07
6.47682e-08
-1.34311e-07
2.12218e-08
-2.46498e-05
0.000235486
-1.55158e-07
-6.6572e-08
-0.000507721
-0.0040636
3.97786e-09
3.57881e-05
-9.34735e-09
-0.00478104
-4.80045e-07
-1.94069e-08
-0.00103743
-3.7038e-07
-0.000219999
5.44647e-09
-5.99572e-08
2.11724e-08
0.000153292
-5.06057e-05
-2.87824e-08
7.46067e-07
-0.00236681
3.91107e-08
-7.07062e-08
1.17722e-08
5.94102e-07
0.000216723
-1.63025e-07
-4.22884e-07
-2.34339e-07
2.64922e-08
6.70375e-09
-8.51044e-08
3.37618e-08
-9.69435e-07
4.86773e-09
-7.70974e-07
-1.63737e-05
-1.95942e-07
-1.45511e-08
-0.000780736
-9.04802e-07
2.6255e-08
-4.2009e-08
-3.83024e-07
-0.00409605
2.75165e-09
6.58678e-06
-2.68345e-07