/*--------------------------------*- C++ -*----------------------------------*\
| =========                 |                                                 |
| \\      /  F ield         | OpenFOAM: The Open Source CFD Toolbox           |
|  \\    /   O peration     | Version:  v2012                                 |
|   \\  /    A nd           | Website:  www.openfoam.com                      |
|    \\/     M anipulation  |                                                 |
\*---------------------------------------------------------------------------*/
FoamFile
{
    version     2.0;
    format      ascii;
    class       volScalarField;
    location    "750";
    object      k;
}
// * * * * * * * * * * * * * * * * * * * * * * * * * * * * * * * * * * * * * //

dimensions      [0 2 -2 0 0 0 0];


internalField   nonuniform List<scalar> 
13851
(
0.000156343
0.01859
0.00027049
0.000156034
0.000239373
0.00688919
0.000147144
0.000208936
0.000138487
0.00027204
0.00998031
0.0451864
0.0437989
0.00980671
0.000144386
0.000187803
0.000162511
0.00017348
0.0210368
0.000138393
0.000155249
0.000266816
0.000150296
0.000152247
0.000153429
0.000211111
0.000158534
0.0141584
0.000155113
0.000159238
0.00782437
0.000163556
0.000267141
0.00979462
0.00015097
0.010143
0.0521503
0.000513548
0.000284108
0.0108933
0.00014418
0.000133252
0.0134764
0.00953416
0.0084237
0.0227955
0.00578352
0.000579437
0.000159129
0.00983713
0.000209616
0.00141606
0.034776
0.000146538
0.000151502
0.00013342
0.000145609
0.0285158
0.000158281
0.000148048
0.000487887
0.0209527
0.0012997
0.000247856
0.0176412
0.00016352
0.0561031
0.004906
0.000176309
0.000172279
0.0227545
0.0596889
0.021159
0.000147407
0.000140945
0.000140817
0.00025802
0.0318895
0.0002
0.0235701
0.000149958
0.00548777
0.000143966
0.0206121
0.00199028
0.0449888
0.00136089
0.00115749
0.000163044
0.000147673
0.00974437
0.000251395
0.00533463
0.000168582
0.000162218
0.000154594
0.000239543
0.0500178
0.0100172
0.000155375
0.017302
0.000197199
0.000149492
0.000156261
0.00015251
0.000704601
0.000199432
0.00013163
0.0633104
0.00762296
0.00015464
0.000149211
0.000245623
0.000158054
0.000153921
0.0154457
0.0501289
0.000131738
0.000158283
0.000154764
0.0132849
0.000156095
0.0435413
0.00703494
0.000278199
0.000308925
0.000249064
0.000199113
0.000155089
0.00031001
0.000143951
0.000138862
0.0278302
0.000143965
0.0174899
0.000140525
0.000131812
0.0604815
0.00590091
0.0169245
0.017716
0.000151134
0.000160075
0.000139348
0.000156577
0.00925069
0.000426743
0.000302478
0.000146929
0.0081171
0.000195025
0.000151952
0.0108842
0.000145897
0.000154855
0.000156155
0.000143205
0.000155058
0.00109437
0.000209571
0.000134409
0.000165932
0.0292226
0.0001387
0.000173648
0.000136139
0.00056003
0.000176489
0.0001545
0.0412058
0.0274478
0.000136534
0.000143444
0.014812
0.0001386
0.000848731
0.000197969
0.000163886
0.025985
0.000132043
0.000166239
0.0618454
0.00014388
0.000273024
0.000132314
0.000151041
0.000163688
0.000146592
0.000256295
0.000280972
0.00624423
0.0353801
0.000156687
0.000179009
0.0188316
0.000154272
0.000155523
0.0122542
0.000159682
0.000141067
0.000341049
0.0314198
0.000165439
0.000142884
0.000247345
0.000144049
0.0121964
0.00016269
0.0487108
0.000132643
0.0710314
0.000148981
0.00868224
0.000131357
0.000138311
0.00986338
0.00251574
0.021057
0.000143558
0.0510531
0.000163264
0.000150209
0.0626213
0.000395928
0.0675095
0.000152685
0.00017308
0.000156148
0.0207713
0.000131397
0.000209084
0.0124786
0.000136454
0.000154397
0.000199226
0.000241676
0.00387059
0.0178793
0.000139309
0.000143016
0.0059141
0.00811971
0.000146629
0.000253167
0.000146888
0.0636685
0.000199702
0.011823
0.000156516
0.00016633
0.000297814
0.00645472
0.000150051
0.000156958
0.000188969
0.0117461
0.000279891
0.0625074
0.00893519
0.000144535
0.000138385
0.000167881
0.0163302
0.000143736
0.022013
0.000154254
0.000149882
0.000167306
0.0625078
0.00138222
0.000199373
0.000154894
0.0121363
0.000196375
0.000185785
0.000139003
0.00544475
0.00275351
0.0654693
0.00996485
0.000146654
0.000131926
0.000151525
0.000187728
0.0164155
0.00214962
0.000139566
0.000144345
0.012746
0.00606561
0.000424912
0.000157065
0.000148215
0.000181232
0.00602676
0.0237021
0.000171491
0.0427047
0.000139259
0.0652239
0.000165133
0.00016221
0.0667979
0.000146495
0.000977826
0.0657576
0.000139348
0.00018336
0.000169101
0.000156132
0.00660828
0.00017217
0.000149576
0.0583511
0.0001341
0.00016718
0.000592003
0.0665052
0.000260138
0.00014357
0.000194811
0.000143876
0.0248276
0.00036347
0.000148715
0.000147463
0.00026184
0.000171498
0.000154401
0.000144339
0.000146365
0.000149266
0.0099398
0.022505
0.0382823
0.000177568
0.0677651
0.00432084
0.000143964
0.000180869
0.000376679
0.000263265
0.00506851
0.000216251
0.0198016
0.000201069
0.0146625
0.0665141
0.000144688
0.00477898
0.00519573
0.000687904
0.000154312
0.0115615
0.0182293
0.000143911
0.0118996
0.000147295
0.000143968
0.000144428
0.000131681
0.000142113
0.0684374
0.00565134
0.000144271
0.000182209
0.000135327
0.0415398
0.000203641
0.0107219
0.0411601
0.000144412
0.00596309
0.000170088
0.00806785
0.000143414
0.000131908
0.00025869
0.0204802
0.000143623
0.00600191
0.000263463
0.000533089
0.0377775
0.0068257
0.00682648
0.000211088
0.000139525
0.000150954
0.000172315
0.000193362
0.0133057
0.000175117
0.0692561
0.0663633
0.000135508
0.000144636
0.0389886
0.028601
0.0128617
0.052013
0.000217949
0.000171644
0.000156807
0.00342874
0.000137422
0.00018586
0.000214068
0.0001465
0.000154477
0.000139091
0.000136065
0.00024584
0.000123179
0.0342881
0.000173006
0.000197111
0.000352118
0.00478144
0.000169761
0.000777036
0.000161268
0.00885272
0.000131666
0.000138886
0.000154441
0.00065175
0.00375959
0.000292274
0.000310405
0.0265718
0.00832764
0.000970596
0.000157463
0.000199334
0.000143163
0.00389375
0.000152154
0.00109859
0.00194117
0.000252133
0.0453245
0.000163973
0.00137336
0.00232297
0.042639
0.000131097
0.000174937
0.000200804
0.00135515
0.000137002
0.000149241
0.000191345
0.000253753
0.000193267
0.0287948
0.000152524
0.000148385
0.0212954
0.000176734
0.000131632
0.000917689
0.000139414
0.000156481
0.000137444
0.000221811
0.000153203
0.000132248
0.000160257
0.0571927
0.000144123
0.00017853
0.000139838
0.000207232
0.00402513
0.000159269
0.000145011
0.000158461
0.000158623
0.000538314
0.000149798
0.00310049
0.000143856
0.000153526
0.0154552
0.0425751
0.000144378
0.000212246
0.00017008
0.0105762
0.0201854
0.000148547
0.0054773
0.000143549
0.000249192
0.000147204
0.0123469
0.000132553
0.0333406
0.000294384
0.000133451
0.000214831
0.0473352
0.000211937
0.0074109
0.000156397
0.0136259
0.000154549
0.000138063
0.000139114
0.000146301
0.0349553
0.000205404
0.00130548
0.0384027
0.00167294
0.000135444
0.0323256
0.00427045
0.000166545
0.000166672
0.0111924
0.00584879
0.0716791
0.000153216
0.0127053
0.0228417
0.0294517
0.000174943
0.000218776
0.00811547
0.00187076
0.0127302
0.0122392
0.00134704
0.000155812
0.0018417
0.0670424
0.000131686
0.00198319
0.000205514
0.0353028
0.000157318
0.000142559
0.0001428
0.000143076
0.0002526
0.000248718
0.000702263
0.0264708
0.000139093
0.0206157
0.0454514
0.00109817
0.00325757
0.000178223
0.000131136
0.000138679
0.00138108
0.0358845
0.000155169
0.000212474
0.0139599
0.000133224
0.00115127
0.00512309
0.000601676
0.000239932
0.0371731
0.0670297
0.000143815
0.000146626
0.00294535
0.0652591
0.00044167
0.000174156
0.00131741
0.000131986
0.000141569
0.00121379
0.000132766
0.000156847
0.000131877
0.000139548
0.0679697
0.000248115
0.000209729
0.000132628
0.00686638
0.0123448
0.000139539
0.000143188
0.000144258
0.000150139
0.0213357
0.0117761
0.00995175
0.0279541
0.0150055
0.000171975
0.0292623
0.0442292
0.000208493
0.000177757
0.000131051
0.000537554
0.000190365
0.0534699
0.0152233
0.000212657
0.000173688
0.000138037
0.000187569
0.000155604
0.00720305
0.000215955
0.00014371
0.000182537
0.000136954
0.000166168
0.000274894
0.000147648
0.000143037
0.000203434
0.000147668
0.000243509
0.000584914
0.000264082
0.000189449
0.000604589
0.000137901
0.0149566
0.000282217
0.0263528
0.000148615
0.000154076
0.0631853
0.000155813
0.0361101
0.0649349
0.0194174
0.00177204
0.000137331
0.0605014
0.000152917
0.000139492
0.000132455
0.000139605
0.000227393
0.000174013
0.000215338
0.00013226
0.00194947
0.000297524
0.00249173
0.00014182
0.000133951
0.000143401
0.000367743
0.0133554
0.000184787
0.000166935
0.000155635
0.000154294
0.000145246
0.000144255
0.0475497
0.0179414
0.000147321
0.000132113
0.000146421
0.000144082
0.000785728
0.0337345
0.000188712
0.0468107
0.0115006
0.000142816
0.00119919
0.0301376
0.000179569
0.0449398
0.000149893
0.000168732
0.000184643
0.000168475
0.0104464
0.000144211
0.00720018
0.000153632
0.000165549
0.0499045
0.000142122
0.000152974
0.000866916
0.000138154
0.000164654
0.0144632
0.0280584
0.000215247
0.0168949
0.007171
0.000131539
0.000141467
0.0163071
0.0106807
0.000175268
0.0662856
0.000138721
0.000164293
0.000131851
0.0154091
0.0596999
0.000166061
0.00014869
0.00544198
0.000159504
0.000142769
0.0205339
0.0117537
0.0541794
0.000133855
0.000147179
0.0304202
0.0360077
0.00378605
0.000152803
0.0702308
0.000144098
0.00840154
0.000397818
0.00026746
0.000163602
0.0200796
0.000314766
0.000172711
0.0502703
0.000152601
0.00016453
0.000153878
0.000137766
0.0218603
0.000183073
0.000221397
0.000203444
0.00379883
0.000138212
0.0150924
0.000155589
0.00024382
0.000135292
0.000142498
0.000144037
0.0644967
0.000142433
0.000132377
0.000306027
0.000146918
0.0367302
0.000154633
0.000156238
0.000199222
0.000868345
0.00634681
0.00013994
0.0105195
0.0453638
0.000149971
0.0686816
0.00016532
0.000137549
0.00408338
0.0152124
0.0102408
0.000167153
0.000140028
0.000131791
0.00342873
0.000288565
0.0002807
0.000169905
0.0046828
0.000150897
0.000154077
0.000208308
0.00739755
0.000257525
0.0170424
0.000146873
0.000249043
0.000217741
0.0661824
0.000165326
0.0451582
0.0343802
0.000147036
0.0266596
0.0170872
0.0274557
0.0280192
0.0593775
0.00624094
0.000203218
0.000137656
0.000169939
0.0249116
0.01958
0.000146236
0.00015465
0.000202535
0.00591135
0.000133429
0.0368729
0.000138433
0.000144424
0.0218327
0.0307064
0.00729131
0.000139405
0.000144098
0.0373656
0.0444362
0.000263916
0.000179179
0.039625
0.000566702
0.0134804
0.000199447
0.000182195
0.000149494
0.000147005
0.0197744
0.000179371
0.0271303
0.000208678
0.000174924
0.0223149
0.0301136
0.0408627
0.000145052
0.000169334
0.000139409
0.000190661
0.000152619
0.0387307
0.000165873
0.0523439
0.000133218
0.000198749
0.000141975
0.000471397
0.000172762
0.000169236
0.0486643
0.000181576
0.000236333
0.000153586
0.00020056
0.00162652
0.00876675
0.000157144
0.0264666
0.000142268
0.0267958
0.0056311
0.000147457
0.0702892
0.0173643
0.0396247
0.00623628
0.000130307
0.000146157
0.0522754
0.000166794
0.0145741
0.0487193
0.000141851
0.000153431
0.000714956
0.0110367
0.0265604
0.000146763
0.000140935
0.0214705
0.0490765
0.000207261
0.000165529
0.000169785
0.00579656
0.0167599
0.000222206
0.000132446
0.000204244
0.000138294
0.000161181
0.00610096
0.000157787
0.00111039
0.00241708
0.00014455
0.000163704
0.00014655
0.000154308
0.0274278
0.0454664
0.000173594
0.0447033
0.000141888
0.00017434
0.000145462
0.000138446
0.000146214
0.000144358
0.0368158
0.000144412
0.000186436
0.000145146
0.000167639
0.00621178
0.0323118
0.000157027
0.000568051
0.00028171
0.0485637
0.000184635
0.000183746
0.0234136
0.000165846
0.00024573
0.0390342
0.0144414
0.0299767
0.000197466
0.0092385
0.000148064
0.000180266
0.000197303
0.0361596
0.000143667
0.0123464
0.000141209
0.000142097
0.0137097
0.000236656
0.0308913
0.000164558
0.000139264
0.000728207
0.00013941
0.00014413
0.000170506
0.000149585
0.0446813
0.000142108
0.0429839
0.015659
0.000239622
0.0307539
0.000146711
0.000156266
0.000854764
0.000143231
0.000139154
0.000209355
0.000149832
0.000140258
0.000148734
0.000152643
0.0383001
0.0252301
0.00598
0.0536062
0.0493813
0.000141558
0.00864926
0.000172994
0.000141865
0.00561441
0.000345884
0.0096401
0.000141316
0.00743068
0.0105025
0.0141262
0.000136543
0.0394872
0.000181065
0.000158616
0.000183167
0.000138533
0.0177309
0.0171276
0.000746191
0.000141612
0.000143484
8.73458e-05
0.000147622
0.000873743
0.00600789
0.0213274
0.0313478
0.00368627
0.000152924
0.000143775
0.00781075
0.000206352
0.000156638
0.000430053
0.000200129
0.000150043
0.000168625
0.0305894
0.00014045
0.040485
0.0519958
0.0158419
0.02146
0.000152453
0.000138655
0.000148149
0.00732345
0.00497671
0.000136545
0.000162436
0.000141475
0.000213824
0.00013418
0.000141038
0.000150418
0.000178544
0.0577616
0.000250353
0.00018505
0.000144451
0.000180378
0.0184878
0.000151349
0.030455
0.00116182
0.000208653
0.000135644
0.000183683
0.000142531
0.000149368
0.000147745
0.0319124
0.000262572
0.00457194
0.000156696
0.00648976
0.000143047
0.00015401
0.000146423
0.00834435
0.00550067
0.000133979
0.000178087
0.00200632
0.0408379
0.000159264
0.0218598
0.000240769
0.00888308
0.000266748
0.0694746
0.000210499
0.000211212
0.000581418
0.0474929
0.00501846
0.0311697
0.000145403
0.00031176
0.000134056
0.000157648
0.000162329
0.000147634
0.0466541
0.000177274
0.000169046
0.00618003
0.00949772
0.000451802
0.00014372
0.000157262
0.000167764
0.000139626
0.000171293
0.0212404
0.0154131
0.00281305
0.000140481
0.000165794
0.00018462
0.0048702
0.0520637
0.00726668
0.000138636
0.000149415
0.0137257
0.000209771
0.00303034
0.0229083
0.010502
0.000135521
0.0637508
0.000169257
0.000196373
0.000170954
0.0701555
0.00766838
0.000281801
0.0157439
0.000149873
0.000198098
0.000144498
0.0253208
0.000250348
0.0445981
0.00811887
0.000162217
0.00672237
0.000154158
0.0707305
0.0450684
0.000146183
0.000442635
0.0522892
0.000451519
0.0668645
0.000145822
0.000144026
0.02915
0.016687
0.0124032
0.000154856
0.00014654
0.000144482
0.0380732
0.000795707
0.000149495
0.00032813
0.000293081
0.00345666
0.0620941
0.00426114
0.000144537
0.0697165
0.000160607
0.000144946
0.00506532
0.0159768
0.000147266
0.000141113
0.0287894
0.0693948
0.000237897
0.000140419
0.0114087
0.000144354
0.00142576
0.000140473
0.00885661
0.000143933
0.000187395
0.00313524
0.0538308
0.000153225
0.0138287
0.00219733
0.00165826
0.0354869
0.0186107
0.00919519
0.000141932
0.000953379
0.000159556
0.000143877
0.000139594
0.00930822
0.000142711
0.0484534
0.00014137
0.000174405
0.0318991
0.00024875
0.000978976
0.000154885
0.00198768
0.000138998
0.000173373
0.0645715
0.0153751
0.000140143
0.000208612
0.00417457
0.000146189
0.000138861
0.0516116
0.000179198
0.000192554
0.000967823
0.0203755
0.00602332
0.0629701
0.065365
0.00827517
0.00997483
0.0047117
0.0210479
0.000211834
0.000137843
0.000538104
0.000141846
0.000141716
0.00759524
0.0509186
0.00015409
0.0196804
0.0167685
0.038437
0.000766481
0.000586671
0.00014288
0.01647
0.00610265
0.000153229
0.000153661
0.0670309
0.0566233
0.0190671
0.0710721
0.000206697
0.0553392
0.0690683
0.000173048
0.000146804
0.000142907
0.00572575
0.000141247
0.046988
0.000151154
0.000151049
0.000154912
0.0255195
0.0686892
0.0172398
0.000149321
0.0651091
0.00016381
0.000179953
0.000140731
0.000145582
0.0321971
0.000171085
0.0442769
0.0213431
0.000305189
0.000264344
0.000144708
0.000206364
0.000146572
0.000507619
0.000161609
0.000154491
0.000148823
0.000151382
0.0127866
0.000151284
0.000190178
0.000154912
0.000191803
0.00050221
0.0279919
0.000143674
0.000197119
0.000157428
0.000776081
0.000351181
0.0186159
0.000308379
0.000170321
0.000157275
0.000153563
0.00932658
0.000143406
0.00323619
0.000144224
0.000141806
0.000153506
0.060128
0.000167744
0.000161862
0.000238519
0.000152935
0.00018592
0.0552884
0.0151213
0.000181018
0.000144566
0.00325083
0.000138172
0.000142553
0.017738
0.0534661
0.000154187
0.000183394
0.00348926
0.0662831
0.000149683
0.000150929
0.0494968
0.000153682
0.00759841
0.0506672
0.0663847
0.000144082
0.000552018
0.000142839
0.066405
0.000273203
0.000202078
0.000264706
0.0178568
0.000152465
0.0697557
0.0105256
0.000147206
0.0238471
0.000209703
0.000152956
0.0321566
0.0001467
0.000146738
0.000137924
0.00788239
0.0097479
0.0118847
0.000154575
0.000151617
0.000165989
0.00673985
0.0533373
0.0696385
0.00373046
0.000150604
0.000314521
0.000321228
0.0236753
0.000262086
0.00639638
0.000141342
0.000239634
0.000138646
0.0140464
0.000205658
0.000142763
0.00392256
0.000326634
0.000183065
0.000389375
0.00013271
0.000152849
0.000224703
0.000188972
0.000330146
0.000215259
0.000249122
0.000236644
0.000300591
0.0371138
0.000177704
0.070527
0.000144049
0.000140436
0.0443149
0.0194736
0.0240587
0.00312357
0.000154593
0.0347186
0.0043386
0.000142284
0.000163468
0.000139808
0.000184116
0.000205369
0.000745821
0.0355519
0.050896
0.000153828
0.0218996
0.027636
0.000144437
0.00320807
0.00652466
0.0214828
0.000157874
0.000199549
0.000131297
0.000157703
0.000152828
0.000164899
0.0696462
0.0452273
0.0284938
0.0369281
0.000153156
0.000191749
0.000228778
0.000147546
0.000147111
0.000138371
0.0548911
0.000141127
0.0717594
0.000200731
0.000495681
0.000382562
0.0422619
0.033451
0.0668562
0.000184099
0.000135902
0.000190519
0.0642379
0.0520144
0.000161379
0.000139541
0.000138401
0.00023812
0.000179511
0.00346716
0.011742
0.000152785
0.000138157
0.000251372
0.00238138
0.0275185
0.0123344
0.000140505
0.000219287
0.000146819
0.0655607
0.000137758
0.0583925
0.000165222
0.000152526
0.000171299
0.000149807
0.000465024
0.000173652
0.000195758
0.0172771
0.0569124
0.000163035
0.000176863
0.000142722
0.0657311
0.0140284
0.000147396
0.000137021
0.00511963
0.000131462
0.0349409
0.000156498
0.00020052
0.000252084
0.0123676
0.000212454
0.000158407
0.000146518
0.000196482
0.0680304
0.000141957
0.0138206
0.0199115
0.0114948
0.000330835
0.000191109
0.0415336
0.000159372
0.000574919
0.00014304
0.00524158
0.00501714
0.0225382
0.0165542
0.0382839
0.000266529
0.0103998
0.000140985
0.0226785
0.0068788
0.0649827
0.0212199
0.000170767
0.0278354
0.00774018
0.000194738
0.00015261
0.000147591
0.0427427
0.000166087
0.000194139
0.000162963
0.000146538
0.000138443
0.000146477
0.046025
0.0456682
0.00018215
0.0145536
0.0356268
0.000212329
0.000143512
0.000139316
0.000208379
0.0560932
0.0433693
0.00016585
0.000166107
0.00560735
0.000270469
0.000192349
0.0331505
0.000179972
0.0707574
0.000166396
0.000175506
0.000143188
0.000162395
0.000218673
0.00848909
0.00629513
0.0470633
0.000250847
0.0139695
0.000205807
0.000160732
0.000152677
0.0305605
0.0200689
0.00853748
0.000415802
0.000157162
0.000144693
0.000142014
0.000144225
0.000138479
0.0207625
0.000176571
0.0331098
0.00018627
0.0214317
0.00125248
0.0655824
0.0020871
0.000162772
0.0119925
0.000206898
0.0165856
0.0428744
0.000137925
0.00860391
0.000168842
0.0444815
0.0188008
0.000193025
0.000327075
0.0121135
0.000159735
0.00217806
0.000165222
0.0225171
0.00597911
0.0001592
0.000146626
0.00619897
0.000359409
0.000305331
0.00892105
0.000623798
0.000207539
0.000142293
0.00266391
0.0509909
0.000262339
0.000170563
0.0482021
0.0106312
0.000141256
0.000144619
0.000160024
0.0661372
0.0596033
0.000143707
0.0345725
0.000150851
0.00014327
0.000146427
0.036464
0.000616426
0.00719106
0.0235608
0.000153285
0.000154286
0.000141265
0.0195331
0.00015034
0.0155727
0.000158608
0.0206501
0.000149375
0.000141882
0.000281204
0.0207994
0.00489994
0.000193878
0.00157665
0.000141376
0.000146262
0.000144784
0.000206032
0.000215175
0.000211695
0.000226849
0.0686548
0.000159903
0.000308771
0.0125176
0.036108
0.000149152
0.0421529
0.0506638
0.000158731
0.0037167
0.000191815
0.0185098
0.000147607
0.000244267
0.000143004
0.0129472
0.0245505
0.00622748
0.0705849
0.000155397
0.000179514
0.000151263
0.0375017
0.000136706
0.000139684
0.0119987
0.000264435
0.0191318
0.064593
0.000187604
0.00017401
0.000137808
0.0101996
0.000170484
0.000154374
0.000985835
0.000164818
0.000189316
0.000144625
0.0112072
0.000152374
0.00886628
0.00624064
0.000183443
0.0162163
0.000227854
0.0651787
0.0001455
0.00228589
0.0129663
0.000138793
0.000144155
0.000154807
0.000149574
0.000197384
0.000143395
0.00724286
0.000204456
0.00894065
0.000418787
0.000146406
0.000150037
0.000138831
0.0679994
0.000146564
0.00014375
0.040105
0.000157137
0.0149701
0.0709984
0.000210295
0.000159197
0.000187829
0.000153976
0.000150817
0.000243994
0.000137865
0.000157749
0.0333567
0.0613731
0.0491852
0.000153667
0.0205902
0.0126869
0.000149613
0.00651324
0.0610273
0.000143843
0.000156676
0.000143231
0.0677731
0.0169805
0.00768429
0.000137776
0.000159646
0.000173582
0.000146837
0.000511817
0.000145938
0.00764271
0.0258116
0.0715203
0.000137762
0.000157809
0.000155632
0.0224428
0.000132511
0.0160928
0.0334818
0.00974552
0.0141502
0.0360841
0.00489343
0.000165249
0.0077682
0.00683062
0.000152255
0.000137592
0.000140489
0.0705083
0.0214273
0.0210997
0.000150089
0.0701295
0.000147275
0.000360033
0.000140365
0.000156302
0.000152131
0.000137644
0.0197627
0.000152339
0.007952
0.00955063
0.016133
0.000212749
0.000182559
0.0167097
0.0669451
0.000148795
0.0135737
0.000138618
0.000131998
0.000143325
0.00272122
0.000144208
0.0154342
0.000175848
0.00712941
0.00022516
0.0335607
0.013951
0.00639854
0.000137435
0.00023153
0.000256612
0.0190811
0.000149216
0.000133659
0.000155856
0.027882
0.000151447
0.00339324
0.0189772
0.000187872
0.000236068
0.000149944
0.00888645
0.000149443
0.0573206
0.000135722
0.0196785
0.00016904
0.000146382
0.0156439
0.0139085
0.000135331
0.000187977
0.000162086
0.0218501
0.00628122
0.0177979
0.00804193
0.000149589
0.000235804
0.0429657
0.000151998
0.00288278
0.000171649
0.00020328
0.0001746
0.035323
0.048009
0.000146667
0.041766
0.000152873
0.000198611
0.0499204
0.0209236
0.000205014
0.0478345
0.000572856
0.000146721
0.00369877
0.000264201
0.000171652
0.000152256
0.0238077
0.000135709
0.0499719
0.00735422
0.000345789
0.000143598
0.000180218
0.0441036
0.000198605
0.0156764
0.000151045
0.000158843
0.0163688
0.0290305
0.000161142
0.0678385
0.00976441
0.0148159
0.000146378
0.0251623
0.00128835
0.0208567
0.00014422
0.00018206
0.000147388
0.0692398
0.000419287
0.00908392
0.00976361
0.000149738
0.00013711
0.00014397
0.0213009
0.0580423
0.0167781
0.0144306
0.000141029
0.041939
0.0669417
0.000832551
0.0210935
0.0470755
0.000211039
0.044103
0.000156149
0.000160571
0.0665702
0.0307061
0.000236239
0.0180779
0.000148188
0.000144635
0.0142987
0.0466098
0.069185
0.0229063
0.000182943
0.000149779
0.0001566
0.0706897
0.0135419
0.000142034
0.00017858
0.00287522
0.000144934
0.000146475
0.0573085
0.0106815
0.000155532
0.000144502
0.000151908
0.000151933
0.00479851
0.00014952
0.00014339
0.000166489
0.000412853
0.0125937
0.000373907
0.0248134
0.000146853
0.000162385
0.054135
0.0675491
0.000175194
0.0149451
0.000143409
0.000186599
0.000158036
0.000315172
0.000246905
0.000143119
0.0132022
0.000189513
0.000140399
0.000160972
0.00175841
0.00833944
0.0400819
0.000145109
0.000166377
0.0701993
0.0157471
0.000158528
0.000148186
0.000144818
0.00880053
0.000146616
0.000148105
0.000172247
0.000143993
0.0536736
0.00129681
0.000149418
0.000160683
0.000136855
0.000145889
0.0189191
0.00754337
0.00021221
0.0188354
0.000405385
0.000150186
0.00014321
0.000146363
0.000146725
0.000149288
0.000161154
0.00026655
0.0480446
0.000165233
0.000254699
0.0410036
0.00663454
0.000143326
0.000139814
0.000156148
0.00297132
0.000145997
0.000752196
0.0532557
0.000363005
0.000166471
0.027527
0.000140009
0.00938589
0.00013709
0.000140309
0.000151713
0.000141835
0.000239939
0.0392476
0.0159693
0.000196836
0.000718923
0.0115172
0.0144289
0.000174211
0.0459347
0.0203038
0.000277439
0.00184036
0.0602876
0.000263691
0.00987025
0.000149675
0.000144648
0.0107794
0.000142188
0.000160964
0.0288973
0.0023436
0.028436
0.000296375
0.00013971
0.00022861
0.000146098
0.00613525
0.000139831
0.00539914
0.0179514
0.0493951
0.00535313
0.000145986
0.000136272
0.000205973
0.0227653
0.0531031
0.000351162
0.0575828
0.000140562
0.0585494
0.0382815
0.00881778
0.000157844
0.000146365
0.000139752
0.000154356
0.00014602
0.000145977
0.000160084
0.0518929
0.000217248
0.0444583
0.00378228
0.000747186
0.00809235
0.000142933
0.000143172
0.000156522
0.000138328
0.000149453
0.00771072
0.00132756
0.00529393
0.069856
0.000155606
0.0148056
0.000351236
0.0686347
0.0447326
0.000145555
0.000140922
0.00626783
0.00014583
0.000135533
0.00519588
0.0533902
0.0630828
0.000144768
0.000146528
0.000199379
0.000197135
0.000969914
0.000138774
0.000156512
0.0409736
0.000142902
0.00749574
0.000196497
0.0415129
0.000149692
0.0508483
0.0235823
0.000196124
0.0698207
0.000220396
0.0433309
0.000138523
0.000164344
0.000140672
0.000179086
0.0350581
0.000151546
0.0339416
0.000153815
0.000145981
0.000144506
0.0686997
0.000189876
0.00022863
0.00614262
0.000138612
0.000221148
0.0313434
0.000229167
0.000145781
0.000168103
0.000145659
0.000831792
0.00014749
0.000141144
0.0660802
0.0710478
0.0683909
0.000366555
0.0258484
0.0149236
0.000194406
0.0688624
0.000323715
0.000137554
0.000147584
0.000131621
0.000146598
0.0712869
0.0704238
0.00013887
0.0347602
0.0622808
0.000166295
0.000163927
0.000169245
0.0154136
0.0538507
0.0512898
0.000551464
0.0527188
0.000131552
0.0209794
0.000281717
0.00406667
0.0661984
0.000143723
0.000401688
0.0181847
0.00018838
0.0194358
0.000147528
0.00589921
0.0156663
0.0543585
0.000197732
0.000182287
0.0317715
0.000290145
0.0517293
0.0641936
0.0539226
0.000262695
0.0169921
0.000146731
0.000186252
0.000192909
0.0359296
0.00624007
0.0417655
0.000149948
0.000345261
0.000265208
0.000152515
0.0628496
0.000143847
0.00105085
0.037093
0.000143874
0.0428947
0.00209403
0.0591591
0.0164713
0.000757432
0.007721
0.000144951
0.0716605
0.000153298
0.000146326
0.000191805
0.000159064
0.0488356
0.000159304
0.000168024
0.000160367
0.000141332
0.00126913
0.000155254
0.000261581
0.00346944
0.000137783
0.0366725
0.000276513
0.000165759
0.0375803
0.0432666
0.000143584
0.0132875
0.000151253
0.0631119
0.00293361
0.000139988
0.000247549
0.000155658
0.0717657
0.051786
0.000212889
0.00134723
0.000165489
0.000144905
0.0329996
0.000157749
0.000147774
0.062731
0.000173358
0.000140388
0.000140248
0.000340672
0.00015441
0.0383959
0.0260098
0.00165792
0.0179412
0.000183401
0.000239461
0.000145643
0.0715106
0.0269572
0.0188358
0.000144318
0.000136879
0.000227554
0.00018166
0.0108869
0.00014805
0.00225948
0.000146633
0.000486861
0.000147256
0.00113787
0.000485965
0.000266214
0.0385074
0.015372
0.0582947
0.0504396
0.000132072
0.0575116
0.0596777
0.0333529
0.000143161
0.000475927
0.0286612
0.0190271
0.000264007
0.0126377
0.00995433
0.0704317
0.000176754
0.036279
0.000137529
0.000192485
0.000175699
0.000143446
0.000197257
0.018461
0.00896965
0.0168948
0.0530184
0.000141912
0.000140441
0.000218083
0.000143565
0.00753411
0.000138917
0.000139983
0.0674315
0.0428704
0.000200576
0.000273725
0.000154233
0.000272524
0.024001
0.0501106
0.0213018
0.00016014
0.0510786
0.000162667
0.000138193
0.000155174
0.0450491
0.0384727
0.0149672
0.0456513
0.00015255
0.00014058
0.000143567
0.000149734
0.000164781
0.016675
0.0594183
0.000175117
0.0649632
0.0383485
0.00569349
0.0319934
0.00014499
0.00017585
0.00745863
0.000144576
0.000586444
0.000168529
0.000159229
0.0236335
0.0495358
0.000139141
0.000173341
0.000177387
0.000250801
0.0208985
0.044389
0.0711066
0.000152174
0.000202564
0.0702819
0.000205117
0.000256354
0.00195738
0.0174819
0.0669499
0.067771
0.000138294
0.0190212
0.000137648
0.000154674
0.000143955
0.000234742
0.0688327
0.0265116
0.00151336
0.0218168
0.000227454
0.000134852
0.000139691
0.000146523
0.000157886
0.000192656
0.0697981
0.0646089
0.000199449
0.0083457
0.000146606
0.000228647
0.000138297
0.0571205
0.00355609
0.000151228
0.000411153
0.000271001
0.00115821
0.0389506
0.0003592
0.0164556
0.000163178
0.0183107
0.0415579
0.0680961
0.00754776
0.000161259
0.00022926
0.000146028
0.0509475
0.0283209
0.000198734
0.009513
0.0353013
0.0099614
0.000249148
0.000293163
0.000218056
0.000140238
0.00025501
0.000233949
0.000160046
0.00022959
0.000180547
0.000185579
0.033585
0.0121485
0.000155327
0.000180861
0.000187143
0.000187148
0.0001676
0.0468127
0.000288725
0.00931815
0.0184253
0.000144657
0.04629
0.000144656
0.000157051
0.000157508
0.0477097
0.00020172
0.0496919
0.0329851
0.000236892
0.000211087
0.000266229
0.0329579
0.000524467
0.00527056
0.000164722
0.000178539
0.00014642
0.0454115
0.00987652
0.000165281
0.000150922
0.000200536
0.000163872
0.000161623
0.000181687
0.000174869
0.000147731
0.000194644
0.0325883
0.0157334
0.0150818
0.000189827
0.000134406
0.0112589
0.000175837
0.00019168
0.00576644
0.000175657
0.0190625
0.000135932
0.000166264
0.000157204
0.000192849
0.000142584
0.0417225
0.00191404
0.00305987
0.000206298
0.0667241
0.0427631
0.000162724
0.0297508
0.000194265
0.0425948
0.0221982
0.000578787
0.000159841
0.000174882
0.000249085
0.000176387
0.0443789
0.0359927
0.00539034
0.000140282
0.0412547
0.000599342
0.000654949
0.000142921
0.000194224
0.000143011
0.00018157
0.00167725
0.000177784
0.000175723
0.000140537
0.000140171
0.00046911
0.0458044
0.000146442
0.000611139
0.0409231
0.000135045
0.000301925
0.0444012
0.000313932
0.000266712
0.000144303
0.000169763
0.000269939
0.000153153
0.000143475
0.00442643
0.000175639
0.0427894
0.000207181
0.000165332
0.0681654
0.000355682
0.000370936
0.000140715
0.0122245
0.000168103
0.000167445
0.0155208
0.000187957
0.000146104
0.000281281
0.000161043
0.000186823
0.000135046
0.0106871
0.000144268
0.000432688
0.00207722
0.000286919
0.000141421
0.00179834
0.000172755
0.0244563
0.000471006
0.0412375
0.000339336
0.0528459
0.000138598
0.000220008
0.000161846
0.000141603
0.0114527
0.00195724
0.000159396
0.00608484
0.000271691
0.000223055
0.040062
0.000163794
0.0049704
0.00670629
0.0147171
0.033502
0.000421078
0.000928673
0.0001395
0.000683774
0.000199691
0.00581624
0.0065485
0.0578882
0.0458466
0.0677988
0.00013998
0.0121929
0.000144213
0.000152549
0.000147159
0.0108463
0.000467276
0.000714449
0.000142452
0.0163375
0.000170068
0.0392209
0.000146769
0.000236749
0.000171479
0.000190628
0.0002047
0.000262672
0.000154865
0.000466473
0.000276653
0.000140905
0.018323
0.0454301
0.000213267
0.000155647
0.000177992
0.000145535
0.000144197
0.000189563
0.00207986
0.0187452
0.0349222
0.000217773
0.00633427
0.000157422
0.0171131
0.000194611
0.0420533
0.000182377
0.000184301
0.0122889
0.000186424
0.00998731
0.00855391
0.0336047
0.000156515
0.000146688
0.0570678