/*--------------------------------*- C++ -*----------------------------------*\
| =========                 |                                                 |
| \\      /  F ield         | OpenFOAM: The Open Source CFD Toolbox           |
|  \\    /   O peration     | Version:  v2012                                 |
|   \\  /    A nd           | Website:  www.openfoam.com                      |
|    \\/     M anipulation  |                                                 |
\*---------------------------------------------------------------------------*/
FoamFile
{
    version     2.0;
    format      ascii;
    class       volScalarField;
    location    "750";
    object      k_0;
}
// * * * * * * * * * * * * * * * * * * * * * * * * * * * * * * * * * * * * * //

dimensions      [0 2 -2 0 0 0 0];


internalField   nonuniform List<scalar> 
13851
(
0.000156366
0.0183632
0.000270638
0.000156059
0.000239713
0.00683758
0.000147146
0.000209003
0.000138488
0.000271579
0.00998675
0.0451458
0.0435277
0.00992176
0.000144386
0.000187805
0.000162512
0.000173403
0.0207205
0.000138394
0.000155272
0.000267033
0.000150301
0.000152244
0.000153433
0.000211176
0.000158541
0.0141104
0.000155131
0.000159215
0.00773211
0.000163557
0.000267246
0.00987567
0.000150965
0.0103919
0.0524076
0.000510081
0.000283448
0.0109588
0.000144186
0.000133249
0.0134575
0.0095376
0.00840528
0.0229458
0.00576657
0.000572792
0.000159137
0.00982705
0.000209828
0.00139835
0.0346918
0.000146537
0.000151499
0.000133417
0.00014561
0.0284545
0.00015826
0.000148049
0.000488505
0.0206032
0.00125738
0.000248248
0.0176925
0.000163558
0.0563573
0.00489603
0.000176374
0.000172203
0.0228091
0.0599784
0.0209789
0.000147407
0.000140946
0.000140819
0.000258263
0.0318772
0.000200127
0.0236243
0.000149957
0.00548777
0.000143964
0.020617
0.00192702
0.0448975
0.00133361
0.00117664
0.000163053
0.000147677
0.00999836
0.000251524
0.00532447
0.000168605
0.000162227
0.000154601
0.00023989
0.0497513
0.0100101
0.000155381
0.0171722
0.000197345
0.00014949
0.000156269
0.000152502
0.000688832
0.000199604
0.000131628
0.0636073
0.0076156
0.000154647
0.00014922
0.000245715
0.000158055
0.000153928
0.0155991
0.0498571
0.000131736
0.000158287
0.000154769
0.0132698
0.000156103
0.0432551
0.00704709
0.00027258
0.00030806
0.000249477
0.000199254
0.000155112
0.000310247
0.000143956
0.000138861
0.0278915
0.000143963
0.0175792
0.000140523
0.00013181
0.060745
0.0058797
0.0170361
0.0176002
0.000151128
0.000159998
0.000139355
0.000156569
0.00925588
0.000424378
0.000304105
0.000146931
0.00807912
0.000195033
0.000151955
0.0109611
0.000145896
0.000154854
0.000156147
0.000143205
0.000155042
0.00107703
0.000209783
0.000134397
0.000165959
0.0292211
0.000138699
0.000173625
0.000136144
0.00055599
0.00017656
0.000154522
0.0410298
0.0274419
0.000136535
0.000143444
0.0148062
0.000138599
0.000845541
0.0001981
0.000163816
0.0256582
0.00013204
0.000166242
0.0621178
0.000143878
0.000273262
0.000132312
0.000151032
0.000163728
0.000146589
0.000256743
0.000281655
0.00623285
0.0353361
0.000156735
0.000179075
0.0184783
0.00015427
0.000155474
0.012253
0.000159622
0.000141069
0.000340347
0.0312701
0.000165458
0.000142882
0.000247495
0.000144047
0.0134992
0.000162694
0.0487249
0.000132637
0.0710966
0.000148979
0.00862951
0.000131355
0.000138316
0.00984611
0.00245706
0.0211343
0.000143557
0.0510654
0.000163268
0.000150208
0.0624576
0.000391011
0.0676299
0.000152677
0.000173114
0.000156142
0.020797
0.000131394
0.000209134
0.012537
0.000136456
0.000154428
0.000199401
0.000242701
0.00405598
0.0179364
0.000139315
0.000143014
0.00581078
0.00800448
0.000146584
0.000253399
0.000146881
0.0637487
0.00019986
0.0118116
0.000156506
0.000166323
0.00030113
0.00634551
0.000150045
0.000156948
0.000189114
0.0118416
0.000280477
0.062755
0.00899879
0.000144535
0.000138391
0.000167817
0.0163134
0.000143752
0.0216456
0.000154251
0.000149877
0.000167326
0.0623419
0.00136879
0.000200956
0.000154892
0.0121759
0.000196489
0.000185784
0.000139002
0.00544298
0.00271703
0.0656862
0.00996189
0.000146625
0.000131921
0.000151515
0.000187867
0.0163729
0.00215795
0.000139566
0.000144345
0.012777
0.00606861
0.000421049
0.000157045
0.000148216
0.000181312
0.00602862
0.0233556
0.000171469
0.0423948
0.000139258
0.0653047
0.000165158
0.000162208
0.0669891
0.000146492
0.000954175
0.0657025
0.000139348
0.000183473
0.000169122
0.000156113
0.00643473
0.000172148
0.000149569
0.0581387
0.000134098
0.000167173
0.000593577
0.0667349
0.000260035
0.000143568
0.000194965
0.000143875
0.0248596
0.000376061
0.000148713
0.000147461
0.000261912
0.000171527
0.0001544
0.000144339
0.000146363
0.000149259
0.00994499
0.0224436
0.0380223
0.000177377
0.0679746
0.00418942
0.000143962
0.000180931
0.00037552
0.000263396
0.00510949
0.000215097
0.0194646
0.000201237
0.0144898
0.0665257
0.000144687
0.00480982
0.00522239
0.000689796
0.000154311
0.011632
0.0182462
0.000143912
0.0117338
0.000147292
0.000143967
0.000144422
0.000131679
0.000142112
0.0684493
0.00564033
0.000144268
0.000182314
0.000135326
0.0412799
0.000203663
0.0107377
0.0409475
0.000144409
0.00585423
0.000170105
0.00808282
0.00014342
0.000131907
0.000258731
0.0202059
0.000143622
0.00584305
0.000263475
0.00053471
0.0377147
0.00682873
0.00683053
0.000213525
0.000139524
0.000150957
0.000172196
0.000193515
0.0138683
0.000175188
0.0693886
0.0663305
0.000135508
0.000144636
0.0387774
0.0286489
0.0129092
0.0517476
0.000216008
0.000171665
0.000156804
0.00332115
0.000137425
0.000185861
0.000214738
0.000146501
0.000154467
0.000139091
0.00013607
0.000246192
0.000127039
0.0343304
0.00017292
0.000197278
0.000351343
0.00470396
0.000169753
0.000779139
0.000161265
0.00878382
0.000131665
0.000138886
0.00015443
0.000647246
0.00373675
0.000291829
0.000310816
0.0266677
0.00843125
0.000949111
0.000157468
0.000199508
0.000143168
0.00382627
0.000152151
0.00110675
0.00189514
0.000252177
0.0453189
0.000163884
0.00135914
0.00227986
0.0418439
0.000131096
0.000174965
0.000200945
0.00134202
0.000137004
0.000149233
0.00019137
0.000253898
0.000193028
0.028588
0.000152516
0.000148384
0.0213445
0.000176709
0.000131628
0.000903825
0.000139413
0.000156505
0.000137446
0.000221829
0.000153189
0.000132243
0.000160176
0.0569662
0.000144121
0.000178612
0.000139837
0.000207267
0.00397247
0.000159269
0.000145019
0.000158463
0.000158626
0.000539713
0.000149793
0.00304426
0.000143854
0.000153522
0.0152911
0.0425717
0.000144376
0.000212259
0.000170074
0.010472
0.0202105
0.000148547
0.00547431
0.000143554
0.000249584
0.000147205
0.0123357
0.000132552
0.0332618
0.000294912
0.000133449
0.000214876
0.0471179
0.000211982
0.0074241
0.000156393
0.0137231
0.000154544
0.000138061
0.000139113
0.000146303
0.0350198
0.000205603
0.00131758
0.0381767
0.00163196
0.00013543
0.0319604
0.00423345
0.000166549
0.000166702
0.0111517
0.00591282
0.071747
0.000153215
0.0127174
0.0229662
0.0293617
0.000174922
0.000218829
0.0080442
0.00185015
0.0127876
0.012226
0.00137367
0.000155795
0.00187715
0.0671483
0.000131684
0.00195572
0.000205718
0.0352972
0.000157307
0.000142557
0.000142799
0.000143076
0.000253032
0.000248744
0.000715344
0.0257754
0.000139092
0.020648
0.0454198
0.00106673
0.0032192
0.000178303
0.000131133
0.00013868
0.00137144
0.0355298
0.000155168
0.000212492
0.014164
0.000133221
0.00114404
0.00531819
0.000603029
0.000239419
0.03724
0.0671667
0.00014382
0.000146627
0.00329638
0.0652204
0.000451997
0.000174227
0.00127502
0.000131984
0.00014157
0.00122526
0.000132763
0.000156836
0.000131874
0.000139548
0.0680616
0.000248515
0.000209867
0.000132625
0.00677127
0.0123396
0.000139538
0.000143185
0.000144292
0.000150142
0.0210643
0.0117415
0.00989748
0.0278279
0.0150628
0.000172033
0.0292621
0.0442387
0.000208734
0.000177828
0.000131048
0.00053718
0.000190371
0.053214
0.0150846
0.000212686
0.000173703
0.000138037
0.000187569
0.000155626
0.0072267
0.000216198
0.000143708
0.000182289
0.000136956
0.000166188
0.000275497
0.000147649
0.000143042
0.000203455
0.000147664
0.000243857
0.000581468
0.000263678
0.000189451
0.000622787
0.000137902
0.0149781
0.000285501
0.0262793
0.000148613
0.000154083
0.0634747
0.000155793
0.0361452
0.0649667
0.0194841
0.00193763
0.000137333
0.0608002
0.000152864
0.000139491
0.000132454
0.000139604
0.00022686
0.000173901
0.000215376
0.000132257
0.0019211
0.000298163
0.00244031
0.000141817
0.00013395
0.000143406
0.000367587
0.013035
0.000184914
0.000166955
0.000155569
0.000154293
0.00014524
0.000144253
0.047558
0.0189297
0.000147317
0.000132111
0.000146423
0.00014408
0.000783341
0.0337574
0.000188715
0.0465406
0.0116504
0.000142821
0.00120508
0.0295621
0.000179648
0.0449668
0.000149891
0.00016867
0.000184773
0.000168412
0.0104095
0.000144209
0.00715395
0.000153627
0.000165595
0.0499015
0.000142129
0.000152961
0.000838703
0.000138153
0.000164654
0.0144641
0.0275156
0.00021548
0.0165593
0.00717475
0.000131537
0.000141464
0.0161479
0.0108842
0.000177544
0.0663132
0.000138725
0.000164307
0.000131849
0.0154242
0.0598652
0.000166041
0.000148702
0.00536206
0.00015951
0.000142774
0.0205674
0.0118537
0.0541137
0.000133852
0.000147176
0.0304126
0.035807
0.00388226
0.000152817
0.0703849
0.000144096
0.00831924
0.00039812
0.000267488
0.000163595
0.0201075
0.000318451
0.000172793
0.0505126
0.000152608
0.000164549
0.000153864
0.000137767
0.0219358
0.000183082
0.000220552
0.000203689
0.00374282
0.000138212
0.0150982
0.000155575
0.000248333
0.000135291
0.000142502
0.000144039
0.0644382
0.000142433
0.000132377
0.000302587
0.00014692
0.0367157
0.000154638
0.0001562
0.000199377
0.000864752
0.00632009
0.000139938
0.0105799
0.0450765
0.000149965
0.0686306
0.000165363
0.000137551
0.00411985
0.0152072
0.0102727
0.000167142
0.000140025
0.000131789
0.00337629
0.000288502
0.000281379
0.000169883
0.00470346
0.000150896
0.000154047
0.00020828
0.00733599
0.000257979
0.0169539
0.00014687
0.000249433
0.000217906
0.0664286
0.000165304
0.0451267
0.0341404
0.000147038
0.0268409
0.0170957
0.027089
0.0279454
0.0591949
0.00624397
0.000203219
0.000137657
0.000169861
0.0248278
0.0196544
0.00014623
0.000154642
0.000202722
0.0059106
0.000133428
0.0367619
0.000138437
0.000144422
0.0219146
0.0306963
0.00729566
0.000139404
0.000144097
0.0371834
0.0444347
0.000263762
0.000179214
0.0393446
0.000568294
0.0131607
0.000199621
0.000182301
0.000149486
0.000147006
0.0195128
0.000179481
0.027184
0.000208764
0.000174993
0.0223719
0.0297612
0.0408363
0.000145051
0.000169384
0.000139407
0.000190664
0.000152607
0.0387732
0.000165878
0.0524365
0.000133217
0.000198915
0.000141977
0.000471925
0.000172825
0.000169285
0.048405
0.00018169
0.00023649
0.000153585
0.000200733
0.00163087
0.00854524
0.000157131
0.0264596
0.000142283
0.0264127
0.0056319
0.000147451
0.0703602
0.0172243
0.0396064
0.00623815
0.000127696
0.000146153
0.0522129
0.0001668
0.0147612
0.0487426
0.000141849
0.000153432
0.000707134
0.0110043
0.0259277
0.000146758
0.000140935
0.0216953
0.0490811
0.000207409
0.000165518
0.000169801
0.00580898
0.0169644
0.000222383
0.000132446
0.000204255
0.000138293
0.000161191
0.00611454
0.000157789
0.0011105
0.00237055
0.000144548
0.000163608
0.000146546
0.000154293
0.0274474
0.0452427
0.000173623
0.0449215
0.00014189
0.000174365
0.000145458
0.000138444
0.00014621
0.000144356
0.0368308
0.00014441
0.000186572
0.000145144
0.00016763
0.00622436
0.03219
0.000157022
0.000608394
0.000282301
0.0484391
0.000184648
0.000183775
0.0234468
0.000165867
0.000245185
0.0390316
0.0145927
0.0299544
0.000197525
0.00921945
0.000148064
0.00018037
0.000197456
0.0354343
0.000143662
0.0119712
0.000141206
0.000142094
0.0144291
0.000237623
0.03057
0.000164551
0.000139262
0.000726484
0.000139408
0.00014413
0.000170364
0.000149583
0.0449285
0.000142106
0.0429618
0.01574
0.000239709
0.0307439
0.000146712
0.000156259
0.000856926
0.000143232
0.000139152
0.000209505
0.000149832
0.000140255
0.000148746
0.000152641
0.038276
0.0261494
0.00579944
0.0533569
0.0494568
0.00014156
0.00866526
0.000173009
0.000141864
0.00559838
0.00034214
0.00965632
0.000141317
0.00741485
0.0104392
0.0141065
0.000136545
0.0391874
0.000181074
0.000158621
0.000182959
0.000138538
0.0183571
0.0171357
0.000750512
0.000141618
0.000143482
8.27142e-05
0.000147616
0.000872256
0.00601565
0.021281
0.0310645
0.00376756
0.000152916
0.000143773
0.00769969
0.000206356
0.000156645
0.00043094
0.000200198
0.000150043
0.000168647
0.0314528
0.000140447
0.0404753
0.0518463
0.0159889
0.0212627
0.000152462
0.000138665
0.000148162
0.00734161
0.00491632
0.000136546
0.000162435
0.000141481
0.000214033
0.000134184
0.000141045
0.000150416
0.000178597
0.0579138
0.000249919
0.000184865
0.000144453
0.000180491
0.0181251
0.00015135
0.0306608
0.00114394
0.000208751
0.000135649
0.000183803
0.000142529
0.000149368
0.000147757
0.0319008
0.000262567
0.00454986
0.000156704
0.00640404
0.000143046
0.000154004
0.000146424
0.0083509
0.00547665
0.000133969
0.000178138
0.00206517
0.0408702
0.000159264
0.0217462
0.00024004
0.00977609
0.00026654
0.0694329
0.000210496
0.000211361
0.000581373
0.0474624
0.00510526
0.0309634
0.0001454
0.000310628
0.00013406
0.000157635
0.00016235
0.000147628
0.0466357
0.000177281
0.000169066
0.00618822
0.00933669
0.000454016
0.000143719
0.000157266
0.000167744
0.000139638
0.000171216
0.0214584
0.0154419
0.00282163
0.000140483
0.000165815
0.000184658
0.00494057
0.051795
0.00716217
0.000138645
0.000149416
0.0138122
0.000209801
0.00313692
0.0225231
0.0104995
0.000135526
0.0637746
0.000169192
0.000196486
0.000170978
0.0701536
0.00768583
0.000282807
0.0157325
0.00014987
0.000198141
0.000144496
0.0253092
0.000253033
0.0445771
0.00806679
0.000162236
0.00679218
0.000154154
0.0707467
0.0450379
0.000146192
0.000445299
0.0522839
0.000454288
0.0670871
0.000145817
0.000144024
0.0291629
0.0163201
0.0124111
0.000154848
0.000146542
0.00014448
0.0380509
0.000833242
0.000149493
0.000326154
0.000293084
0.00363159
0.0620719
0.00428529
0.000144537
0.0698589
0.000160615
0.000144953
0.00510461
0.0156456
0.000147268
0.000141109
0.0286745
0.0693551
0.000237279
0.00014042
0.0112736
0.000144362
0.00141801
0.000140474
0.0090355
0.000143932
0.000187534
0.0030159
0.0535749
0.000153223
0.0138137
0.00215731
0.00165065
0.0351948
0.0198789
0.00923762
0.000141931
0.000943552
0.000159555
0.000143876
0.000139606
0.00933256
0.000142715
0.04873
0.000141366
0.000174508
0.0319
0.000248674
0.00097656
0.000154877
0.00199933
0.000138996
0.000173434
0.0647132
0.0152067
0.000140142
0.000208824
0.00414984
0.00014619
0.000138865
0.051578
0.000179267
0.000192558
0.000971789
0.020428
0.0059397
0.0631297
0.0656037
0.00834134
0.00995826
0.00466055
0.0210697
0.000212064
0.000137841
0.000549029
0.000141846
0.000141717
0.00829409
0.0509007
0.000154073
0.0200918
0.0167823
0.0384143
0.000744504
0.000573431
0.000142883
0.0165123
0.00602754
0.000153194
0.000153658
0.066968
0.0564661
0.0188873
0.071093
0.000206746
0.0554563
0.0690686
0.000173103
0.000146799
0.000142911
0.00572925
0.000141249
0.0470202
0.000151147
0.000151047
0.000154894
0.0251484
0.068896
0.0171801
0.000149336
0.0651555
0.000163788
0.000179928
0.000140733
0.00014559
0.0321183
0.000171076
0.0442945
0.0211189
0.000304688
0.000264248
0.00014471
0.0002064
0.000146567
0.000519957
0.000161558
0.000154484
0.000148838
0.000151385
0.0128796
0.000151283
0.000190188
0.000154853
0.000191813
0.000502747
0.0280141
0.000143677
0.000197256
0.000157424
0.00075078
0.000348363
0.0182307
0.000307391
0.000170377
0.00015728
0.000153563
0.00930839
0.00014341
0.00319508
0.000144225
0.000141811
0.000153468
0.0599424
0.000167761
0.000161898
0.000238602
0.000152945
0.000185982
0.0550503
0.0147776
0.000181095
0.000144564
0.00320357
0.000138169
0.000142548
0.0175476
0.0535515
0.000154194
0.000183376
0.00373074
0.0663565
0.000149682
0.000150926
0.0495852
0.000153678
0.00753556
0.0507111
0.0666441
0.000144081
0.000546112
0.000142837
0.0665108
0.000273857
0.000202122
0.000263955
0.0178152
0.000152465
0.0699532
0.010726
0.000147217
0.0234698
0.000209809
0.000152951
0.0320641
0.000146697
0.000146732
0.000137927
0.00775916
0.00973186
0.0120469
0.000154567
0.000151619
0.000166035
0.00670692
0.0534958
0.0698271
0.00371057
0.000150604
0.000316583
0.000322609
0.0236769
0.000261829
0.00639471
0.000141344
0.000239881
0.00013865
0.0140811
0.000205715
0.000142761
0.00388801
0.000325182
0.000183087
0.000394755
0.000132704
0.00015286
0.000224711
0.000188982
0.000323438
0.000215502
0.000249114
0.00023672
0.0003015
0.0374496
0.000183171
0.0706834
0.000144051
0.000140432
0.0443944
0.0194063
0.0240577
0.00305767
0.000154586
0.0347938
0.00432065
0.000142289
0.000163489
0.000139808
0.000184222
0.000205565
0.000739274
0.0355236
0.0510732
0.000153826
0.0215262
0.0276328
0.000144436
0.00337611
0.00662781
0.0214957
0.000157879
0.000199628
0.000131294
0.000157695
0.000152766
0.000164886
0.0697945
0.0449794
0.0285292
0.0367667
0.000153157
0.000191754
0.000228858
0.000147555
0.000147109
0.000138375
0.0546494
0.000141129
0.0718387
0.000200763
0.000484222
0.000383497
0.0424953
0.0334359
0.0669112
0.000184206
0.000135902
0.000190107
0.0642265
0.0518732
0.000161386
0.00013954
0.000138403
0.000238231
0.000179519
0.00355695
0.0123149
0.000152787
0.00013816
0.000251593
0.00234307
0.0275375
0.0123796
0.000140507
0.000219546
0.00014683
0.0657486
0.000137764
0.0585023
0.000165135
0.000152528
0.000171333
0.000149811
0.000448929
0.000173688
0.000195891
0.0171947
0.0567288
0.000163044
0.00017688
0.000142724
0.0657567
0.0140117
0.000147389
0.000137027
0.00509315
0.00013146
0.0350183
0.000156497
0.000200233
0.00025206
0.0124743
0.000212431
0.00015843
0.00014652
0.000196601
0.067982
0.000141957
0.0137947
0.0201817
0.0116091
0.000329797
0.000191114
0.0415056
0.000159389
0.000573046
0.000143038
0.00523106
0.00501029
0.0226063
0.0167967
0.0386903
0.00026832
0.0104094
0.000140982
0.0227038
0.00685243
0.064896
0.0211715
0.000170756
0.028285
0.00763965
0.00019475
0.000152595
0.000147591
0.0427822
0.000166078
0.000194248
0.000162963
0.00014654
0.000138442
0.000146473
0.0457317
0.0458508
0.000182152
0.0146244
0.035324
0.000212939
0.00014351
0.00013932
0.000208445
0.0561996
0.0436474
0.000165835
0.000166119
0.00558974
0.000270439
0.000192469
0.0329878
0.000179974
0.0708679
0.000166442
0.000175407
0.000143186
0.000162395
0.000218932
0.00843154
0.00628939
0.0471111
0.00025096
0.0137039
0.000206116
0.000160735
0.00015268
0.0307459
0.0199691
0.00868788
0.00040901
0.000157164
0.000144691
0.000142014
0.000144225
0.000138484
0.020765
0.000176575
0.0330546
0.000186267
0.0210548
0.00125228
0.0656512
0.00211701
0.000162789
0.0119886
0.000206946
0.0163463
0.0429536
0.000137924
0.00858446
0.000168856
0.0436427
0.0188175
0.000193033
0.000327413
0.0121311
0.000159742
0.00218817
0.00016523
0.0225124
0.00595821
0.000159201
0.000146628
0.00619363
0.000357926
0.000303663
0.00905459
0.000631995
0.000207603
0.00014229
0.00247115
0.0510734
0.000262045
0.000170614
0.0479157
0.0113492
0.000141253
0.000144618
0.000160026
0.0660447
0.0594054
0.000143705
0.0345845
0.00015085
0.000143274
0.000146423
0.0363757
0.000615004
0.00718027
0.023561
0.000153269
0.000154279
0.000141267
0.0194356
0.000150332
0.0153078
0.000158636
0.020449
0.000149375
0.000141883
0.000281886
0.0208015
0.00488311
0.000193883
0.00155082
0.000141356
0.000146258
0.000144783
0.000206099
0.000215416
0.000211923
0.000226992
0.0686029
0.000159909
0.000310072
0.0125464
0.0363328
0.000149143
0.0421646
0.0506948
0.000158746
0.00368148
0.00019194
0.0184136
0.000147602
0.0002444
0.000142999
0.0127256
0.024572
0.00656195
0.0706345
0.000155378
0.00017963
0.00015125
0.0374984
0.000136711
0.000139684
0.011908
0.000264076
0.0190534
0.0647023
0.000187704
0.000174019
0.00013781
0.0104855
0.000170632
0.000154328
0.00102311
0.000164705
0.000189435
0.000144623
0.0113147
0.000152369
0.0088627
0.00623742
0.000183762
0.0162382
0.000227846
0.06538
0.000145509
0.00218058
0.0125048
0.000138792
0.000144153
0.000154796
0.000149574
0.000197423
0.000143396
0.00721781
0.000204591
0.00891558
0.000406878
0.000146416
0.000150033
0.000138835
0.0680774
0.000146559
0.000143755
0.0399795
0.000157145
0.0147111
0.0710399
0.000210292
0.000159227
0.000187835
0.000153968
0.000150816
0.000244076
0.000137872
0.000157757
0.0333054
0.0614971
0.0490769
0.000153659
0.0207165
0.012566
0.000149614
0.00644325
0.0608451
0.000143841
0.000156681
0.00014323
0.0679479
0.0170041
0.0077268
0.000137782
0.000159645
0.00017359
0.000146839
0.000504522
0.000145939
0.00758703
0.0257037
0.0716353
0.000137761
0.000157816
0.000155638
0.0224042
0.000132505
0.0161529
0.0334777
0.00972255
0.014324
0.0358196
0.0050769
0.000165262
0.0078096
0.00679764
0.000152256
0.000137594
0.00014049
0.0705339
0.0214513
0.0212955
0.000150095
0.0702586
0.00014727
0.000361684
0.000140358
0.00015629
0.000152131
0.000137643
0.0197686
0.000152341
0.00779033
0.00996077
0.0162145
0.000212779
0.000182679
0.0167361
0.0668669
0.000148791
0.0135463
0.000138621
0.000131996
0.000143323
0.00275089
0.000144206
0.0153826
0.000176086
0.00718906
0.000225332
0.0335341
0.0139602
0.00676107
0.000137435
0.000231596
0.000256364
0.0191213
0.000149205
0.000133657
0.000155846
0.0290804
0.000151458
0.00337254
0.0189586
0.000187978
0.000236158
0.000149935
0.00883549
0.000149442
0.0574394
0.000135721
0.0197081
0.000169094
0.00014638
0.0156029
0.0140481
0.000135329
0.000188054
0.000162077
0.0219934
0.00623889
0.0177684
0.00807827
0.000149586
0.00023598
0.0426736
0.000152015
0.00290988
0.000171635
0.000203408
0.000174659
0.0353019
0.047947
0.000146664
0.0417845
0.00015287
0.000198718
0.0496372
0.020966
0.000205023
0.0477978
0.000571936
0.000146723
0.00369046
0.000263448
0.000171701
0.000152257
0.0234231
0.000135707
0.050123
0.00738214
0.000345846
0.000143597
0.000180053
0.0440882
0.000198711
0.0153207
0.000151044
0.000158841
0.0163744
0.0286539
0.000161163
0.0677992
0.00962008
0.0147692
0.000146376
0.0247745
0.00126085
0.0207607
0.000144219
0.000181886
0.000147395
0.0692632
0.000427559
0.00903596
0.009751
0.000149733
0.000137111
0.000143968
0.0212627
0.0583587
0.0166361
0.0144745
0.000141031
0.0416625
0.0668452
0.000850349
0.0211367
0.047051
0.00021104
0.0447736
0.000156153
0.00016059
0.0667611
0.0303482
0.00023524
0.0183931
0.000148201
0.000144633
0.0152062
0.0465624
0.0693971
0.0229252
0.00018294
0.000149775
0.000156595
0.0706961
0.0136624
0.000142033
0.000178692
0.002842
0.000144933
0.00014647
0.0570966
0.010483
0.00015552
0.000144502
0.000151909
0.00015192
0.00498049
0.00014952
0.000143386
0.000166476
0.000415117
0.0123693
0.000373098
0.0244523
0.000146848
0.000162365
0.0540811
0.0674665
0.000175165
0.0149601
0.000143408
0.00018666
0.00015806
0.000313167
0.000246793
0.000143112
0.0130364
0.000189511
0.000140399
0.000160951
0.00171042
0.00793548
0.0400597
0.000145108
0.000166381
0.0701896
0.0157545
0.000158534
0.000148175
0.000144819
0.00873242
0.000146611
0.000148098
0.000172254
0.000143991
0.0536362
0.00126528
0.000149413
0.000160678
0.00013686
0.000145888
0.0192305
0.00753607
0.000212437
0.0188848
0.000421637
0.000150183
0.000143209
0.000146359
0.000146732
0.000149285
0.000161164
0.000266992
0.0477508
0.000165244
0.000255435
0.0409736
0.00668076
0.000143331
0.000139814
0.000156153
0.00306159
0.000146003
0.00075239
0.0534467
0.000356596
0.000166455
0.0275219
0.000140012
0.00937329
0.000137089
0.000140314
0.000151726
0.000141845
0.00024004
0.0389317
0.0159558
0.000196871
0.000702267
0.0115584
0.0143741
0.000174265
0.0458911
0.0203058
0.00027805
0.00183077
0.0601051
0.000262948
0.00985628
0.000149675
0.000144638
0.010113
0.00014219
0.00016096
0.0299156
0.00230325
0.0273267
0.000296387
0.000139708
0.000228344
0.000146094
0.00607461
0.000139823
0.00537722
0.0178096
0.0491112
0.00522606
0.000145982
0.000136269
0.000206164
0.023244
0.0530822
0.000351364
0.0577675
0.000140562
0.0587907
0.0383635
0.00886904
0.000157823
0.000146361
0.000139734
0.00015434
0.000146029
0.000145986
0.00016008
0.0518523
0.000217497
0.0444591
0.00372377
0.00074342
0.0083216
0.000142932
0.00014317
0.000156559
0.000138327
0.000149453
0.00770747
0.00132188
0.00533922
0.0699715
0.000155612
0.0148117
0.00035278
0.0686093
0.0448132
0.000145555
0.000140929
0.00626036
0.000145826
0.000135531
0.00515189
0.0533599
0.0632111
0.000144766
0.000146524
0.000199427
0.00019715
0.00096674
0.000138777
0.000156511
0.0408082
0.000142895
0.00759317
0.000196505
0.0419375
0.000149689
0.0509925
0.0241235
0.00019614
0.0697977
0.000219487
0.0433627
0.000138531
0.000164329
0.000140669
0.000179084
0.0348822
0.000151548
0.0339012
0.00015385
0.000145975
0.000144506
0.0687891
0.000189997
0.000228532
0.00614079
0.000138614
0.00022126
0.0311489
0.000229197
0.000145773
0.000168119
0.000145655
0.000828054
0.000147481
0.000141147
0.0662327
0.0711965
0.0684234
0.000364854
0.0255554
0.0148946
0.000194492
0.0690283
0.000325017
0.00013756
0.000147593
0.00013162
0.000146596
0.0713192
0.0704146
0.000138883
0.0347053
0.0624174
0.000166337
0.000163934
0.000169247
0.0150594
0.053609
0.0512645
0.000556451
0.0527054
0.00013155
0.0206988
0.000282221
0.00404919
0.066413
0.000143722
0.00041086
0.0180733
0.000188379
0.0201092
0.000147526
0.00588355
0.015608
0.0544358
0.0001978
0.000182291
0.0317618
0.000291329
0.0518318
0.0642627
0.0538777
0.00026215
0.0166173
0.000146726
0.000186298
0.000193042
0.0359502
0.00623558
0.0418118
0.000149944
0.000345398
0.000265703
0.000152514
0.062697
0.000143846
0.00106846
0.037075
0.000143873
0.0432044
0.00206387
0.0592594
0.0160999
0.000751214
0.00771393
0.000144947
0.0717168
0.000153327
0.000146323
0.000191904
0.000159064
0.0488923
0.000159308
0.000168027
0.000160365
0.000141341
0.00125559
0.000155243
0.00026066
0.00348184
0.000137782
0.0367621
0.000276952
0.000165748
0.0375971
0.0431729
0.000143583
0.0133183
0.000151249
0.0632371
0.0028821
0.000140002
0.000247604
0.000155649
0.0718698
0.0517895
0.000213117
0.00145484
0.000165539
0.000144906
0.0338685
0.000157757
0.00014778
0.0628274
0.000173447
0.000140389
0.000140248
0.000341782
0.000154398
0.0383702
0.0257515
0.00162975
0.0178454
0.000183525
0.000239532
0.000145637
0.0716368
0.0269842
0.0186932
0.000144317
0.000136882
0.000227861
0.000181653
0.010822
0.000148057
0.00222823
0.000146623
0.000491708
0.000147248
0.00111914
0.00048553
0.000265701
0.0385819
0.015067
0.0580836
0.050429
0.000132071
0.0576318
0.0598111
0.0333752
0.000143165
0.000477504
0.0286777
0.0192049
0.000264028
0.0123266
0.0097878
0.0706013
0.000176859
0.0361174
0.000137529
0.000192628
0.000175795
0.000143444
0.000197394
0.0183865
0.00896093
0.0170521
0.0533311
0.000141911
0.000140438
0.000217945
0.000143564
0.00737478
0.000138921
0.00013998
0.0676574
0.0430382
0.000200335
0.000274151
0.000154228
0.000272081
0.0240008
0.05015
0.0213037
0.000160158
0.0511007
0.000162691
0.000138193
0.000155178
0.0450228
0.0387919
0.0146698
0.0458003
0.000152548
0.000140576
0.000143565
0.000149734
0.000164803
0.01654
0.0596153
0.000175124
0.0648395
0.0383228
0.0056312
0.0320441
0.000144988
0.000175875
0.00756372
0.000144575
0.000580176
0.000168541
0.000159232
0.0232841
0.049584
0.000139145
0.00017343
0.000177399
0.000250723
0.020753
0.044644
0.0712421
0.000152184
0.000202561
0.0703782
0.000205152
0.000256856
0.0019253
0.0171024
0.0672049
0.0679383
0.000138297
0.0186411
0.000137648
0.000154693
0.000143953
0.000234873
0.0690506
0.0265081
0.00148851
0.0219126
0.000227572
0.00013485
0.000139691
0.000146518
0.000157899
0.000192778
0.0699737
0.0647603
0.000199482
0.00852018
0.000146605
0.00022873
0.000138296
0.0572188
0.00372545
0.000151237
0.000410722
0.000271461
0.00104315
0.0389955
0.000360298
0.0164424
0.000163169
0.0181392
0.041486
0.0682171
0.0075098
0.000161282
0.000229312
0.000146024
0.0506764
0.0283219
0.000198784
0.00933321
0.0351585
0.0109233
0.000249206
0.000292536
0.000218954
0.00014024
0.000255224
0.000233987
0.000160049
0.000229609
0.000180564
0.000185586
0.03336
0.0122787
0.00015531
0.000180857
0.000187208
0.000187143
0.000167597
0.0469908
0.000289609
0.00933428
0.0183667
0.000144655
0.0463454
0.000144657
0.000157046
0.000157493
0.0477491
0.000201748
0.0498239
0.0328721
0.00023693
0.000208941
0.000265808
0.0332176
0.000541315
0.00551069
0.000164742
0.000178651
0.000146423
0.0455096
0.00994036
0.000165304
0.000150913
0.000200563
0.000163889
0.000161613
0.000181806
0.000174963
0.000147726
0.000194658
0.0323419
0.0156108
0.0152931
0.000189931
0.000134404
0.012238
0.000175896
0.000191825
0.00579962
0.000175759
0.018134
0.00013593
0.000166263
0.000157209
0.000192855
0.000142585
0.0418255
0.00191947
0.00295856
0.000206347
0.0666282
0.0429639
0.000162741
0.0303317
0.000194416
0.042729
0.0222152
0.000576932
0.000159841
0.000174976
0.000249214
0.000176424
0.044253
0.036065
0.0053942
0.000140283
0.0415197
0.000596954
0.000661867
0.00014292
0.000194341
0.000143008
0.000181569
0.00164371
0.000177785
0.000175733
0.000140538
0.000140171
0.000466023
0.0457669
0.000146452
0.000610644
0.0409878
0.000135043
0.000300647
0.0445077
0.000314764
0.000267194
0.000144301
0.000169773
0.00026971
0.000153146
0.000143478
0.00456664
0.000175657
0.0428849
0.000207231
0.000165347
0.0683988
0.000355721
0.000371707
0.000140716
0.0122259
0.000168149
0.000167457
0.0147626
0.000188064
0.000146104
0.000280838
0.000161048
0.000186861
0.000135046
0.0104615
0.000144266
0.000457263
0.00201352
0.000287393
0.000141429
0.00174164
0.000172803
0.0243305
0.000469375
0.041263
0.00033953
0.052913
0.000138597
0.000220265
0.000161863
0.000141603
0.0114237
0.00197117
0.000159411
0.00604161
0.000270775
0.000223325
0.0401005
0.000163811
0.00491637
0.00656407
0.0144603
0.0338791
0.000423629
0.000917306
0.000139497
0.000710588
0.000199722
0.00590554
0.00614492
0.0579774
0.0460707
0.0678774
0.00013998
0.0119833
0.000144212
0.00015255
0.000147154
0.0108956
0.000466593
0.00073401
0.000142455
0.0165361
0.000170081
0.0392067
0.000146772
0.000236766
0.000171528
0.000190663
0.000204727
0.000263041
0.000154865
0.000466419
0.000276458
0.000140906
0.0182186
0.0456453
0.000207786
0.000155642
0.000178007
0.000145531
0.000144197
0.000189682
0.00211586
0.0188415
0.0348819
0.000217933
0.006266
0.000157478
0.016868
0.000194764
0.0422024
0.000182368
0.000184292
0.0122882
0.000186418
0.0100593
0.00860451
0.0336202
0.000156495
0.000146689
0.0568423
0.000175428
0.00015862