/*--------------------------------*- C++ -*----------------------------------*\
| =========                 |                                                 |
| \\      /  F ield         | OpenFOAM: The Open Source CFD Toolbox           |
|  \\    /   O peration     | Version:  v2012                                 |
|   \\  /    A nd           | Website:  www.openfoam.com                      |
|    \\/     M anipulation  |                                                 |
\*---------------------------------------------------------------------------*/
FoamFile
{
    version     2.0;
    format      ascii;
    class       volScalarField;
    location    "200";
    object      k;
}
// * * * * * * * * * * * * * * * * * * * * * * * * * * * * * * * * * * * * * //

dimensions      [0 2 -2 0 0 0 0];


internalField   nonuniform List<scalar> 
13917
(
0.000167508
0.000150398
0.0621423
0.000158879
0.000148674
0.000193151
0.0572857
0.0634608
0.0633524
0.000175292
0.000166928
0.000188424
0.000159097
0.00926109
0.000156174
0.000155302
0.000150718
0.000177761
0.000188152
0.00014867
0.000149758
0.0557045
0.000148564
0.0654557
0.000148396
0.0551234
0.000161955
0.000164824
0.000207547
0.000185365
0.000169202
0.000159608
0.000160591
0.00015474
0.000148531
0.0527831
0.000148618
0.034682
0.000162808
0.019128
0.000147842
0.000149897
0.000146363
0.000168795
0.000150983
0.000156143
0.000177484
0.000184815
0.000401624
0.000148003
0.000161812
0.00015001
0.000513152
0.000155057
0.000150748
0.000160529
0.000175053
0.000149063
0.000157542
0.000150701
0.0741597
0.00015045
0.00607221
0.000148592
0.00019172
0.0236583
0.00014865
0.000148538
0.00022184
0.000164897
0.000148719
0.0656941
0.0304696
0.000148392
0.000387913
0.000193565
0.0217823
0.000153601
0.0529677
0.000149542
0.000149315
0.000148691
0.000190023
0.0380429
0.0368079
0.000153363
0.000149144
0.0082588
0.000161405
0.000146416
0.0340051
0.000180972
0.000149004
0.000151884
0.014147
0.000189695
0.000199328
0.000182493
0.000169856
0.000170755
0.00014697
0.000158886
0.000168642
0.000155154
0.00014745
0.067507
0.000194044
0.000185914
0.000150785
0.000170077
0.0334278
0.0215967
0.000194458
0.0656197
0.000151371
0.000398534
0.000148167
0.000262402
0.0227667
0.000155055
0.00014981
0.000224982
0.0239941
0.000164195
0.000147858
0.000151572
0.000150478
0.000147922
0.000146057
0.000191854
0.0360392
0.000151198
0.000151037
0.000149812
0.0352964
0.0659919
0.000167631
0.000171337
0.000148609
0.000154908
0.0415008
0.000148482
0.000150715
0.000170886
0.00014856
0.0728554
0.000211085
0.000149864
0.000148083
0.000159996
0.000181955
0.000404117
0.000193
0.000165117
0.000159656
0.0210283
0.000163995
0.0619425
0.0175637
0.0337847
0.000153554
0.000162136
0.000149543
0.000198125
0.00019402
0.00021505
0.000155027
0.000182367
0.000149872
0.000159334
0.000165862
0.0184966
0.000196633
0.000151586
0.0739065
0.0001662
0.0383859
0.000303318
0.0737084
0.000148655
0.000182062
0.000170051
0.000148539
0.00014908
0.000158849
0.0578463
0.000218346
0.027044
0.000168892
0.000207387
0.0418881
0.0413246
0.000210881
0.000148636
0.000172486
0.000161645
0.000155572
0.000149063
0.00018243
0.00107171
0.000162247
0.000148102
0.000181087
0.000181813
0.0265924
0.0307949
0.000148505
0.00014917
0.000182236
0.0606457
0.000150451
0.0569368
0.0192709
0.000207429
0.000147441
0.000199249
0.000179988
0.0200485
0.000148113
0.072577
0.000148564
0.000184573
0.000147516
0.0362114
0.0670948
0.000155663
0.00037237
0.000160073
0.000147409
0.049802
0.000196199
0.000168713
0.0656151
0.0157362
0.000146687
0.000160171
0.037508
0.0284773
0.000149486
0.000147673
0.0225334
0.000203919
0.000149758
0.0362987
0.000188777
0.000161636
0.000166627
0.000149486
0.00016532
0.0175327
0.000152032
0.000185921
0.000174065
0.000150382
0.000148974
0.000187825
0.0282098
0.00019203
0.000159048
0.000156464
0.00014979
0.0192535
0.0758085
0.0474513
0.000147407
0.0283241
0.0168718
0.0665875
0.0513709
0.000194926
0.00014939
0.000147508
0.000177892
0.0307003
0.000196142
0.000157159
0.0412032
0.00017996
0.000145995
0.0655353
0.000148505
0.0734234
0.000161524
0.000149722
0.0001578
0.000165053
0.00016212
0.0407535
0.000161211
0.000151933
0.00020225
0.0662373
0.0741737
0.000148102
0.0682854
0.000149086
0.000151969
0.000148188
0.000228491
0.000148575
0.000186195
0.000165919
0.000149804
0.000181422
0.00015327
0.000357919
0.000165925
0.000179733
0.000149422
0.000148892
0.0313794
0.0222642
0.000148153
0.000147516
0.0628923
0.000148675
0.0329413
0.000149238
0.0385381
0.00015504
0.00021731
0.000168942
0.000424541
0.000153125
0.0195872
0.000185196
0.000157809
0.000204166
0.000200392
0.000150237
0.0345822
0.000172153
0.0199249
0.000154049
0.0186587
0.000160959
0.0435836
0.000181737
0.000174251
0.000173672
0.0595719
0.000149398
0.000166414
0.0371052
0.000149678
0.000153232
0.0186464
0.000185469
0.000151483
0.033756
0.000203785
0.000147113
0.0190148
0.0464058
0.000148462
0.000147553
0.000149139
0.000148086
0.000151459
0.0739671
0.000211503
0.0352434
0.000148287
0.000188076
0.00680768
0.000175631
0.0555732
0.0344378
0.065401
0.000146809
0.0434783
0.000147468
0.0687451
0.000150647
0.000448032
0.00018876
0.00016056
0.000149268
0.000181432
0.00018382
0.000184052
0.000634147
0.0394981
0.0156029
0.000165794
0.000174349
0.000147703
0.0315086
0.0542334
0.000149281
0.00552804
0.000148391
8.57327e-05
0.000154957
0.00014947
0.000153233
0.0506115
0.00015314
0.0315581
0.0100927
0.000212776
0.000195172
0.000150225
0.000195535
0.000192116
0.000148232
0.00018705
0.000149568
0.000148417
0.000185254
0.000149719
0.000148451
0.000147449
0.000138829
0.000149621
0.0215597
0.0573076
0.00461178
0.000210245
0.035774
0.0201567
0.000175282
0.000148282
0.000201491
0.000162281
0.00016131
0.000148593
0.0731393
0.0579621
0.0595115
0.000155057
0.0001919
0.000153651
0.000163398
0.000183935
0.000152464
0.045256
0.000150788
0.000148543
0.0365642
0.037224
0.0392918
0.000184558
0.00314124
0.0380736
0.0390477
0.0214893
0.000146168
0.000180144
0.000152576
0.000149301
0.0179942
0.000178118
0.000151265
0.000178668
0.000173718
0.0202372
0.000148212
0.00019718
0.0149222
0.000232648
0.0254404
0.000149675
0.000149319
0.00015557
0.000163981
0.000146774
0.0597971
0.000201608
0.000161211
0.0315436
0.000160492
0.000199137
0.0427537
0.000212407
0.000211961
0.0456308
0.000197308
0.00017765
0.000201774
0.000177984
0.000104796
0.000207582
0.00018137
0.000188731
0.000149235
0.0258136
0.000162518
0.000149591
0.000163137
0.000154039
0.0221137
0.0665187
0.000148555
0.000146295
0.0625085
0.0164842
0.000149721
0.0208443
0.000155424
0.000200754
0.00014868
0.0248955
0.053586
0.000159987
0.000151428
0.0389778
0.00020757
0.0100672
0.000149777
0.0199282
0.000364888
0.0638923
0.00014957
0.0331189
0.0650018
0.000175973
0.000147537
0.000150542
0.00019396
0.00265844
0.000150488
0.000147541
0.000147619
0.000147588
0.0246385
0.0146102
0.000175661
0.0002152
0.000148078
0.000146979
0.00019147
0.0554379
0.000166054
0.000150038
0.000148398
0.000148486
0.0675699
0.0458835
0.000149102
0.000148501
0.0421881
0.000177544
0.000168956
0.000149215
0.000153287
0.000158309
0.000188356
0.000194754
0.000218554
0.000204095
0.000191149
0.0375576
0.000179492
0.000148126
0.0206757
0.000148495
0.000153677
0.000159113
0.0243345
0.000171145
0.000147054
0.000235966
0.000188003
0.00759757
0.000191145
0.000160926
0.000174983
0.000149201
0.0713784
0.000220008
0.0519039
0.000150452
0.00016333
0.000218939
0.0359661
0.00652436
0.000183333
0.000187386
0.000155103
0.000155629
0.000149247
0.000166035
0.000169451
0.000149303
0.000179825
0.00017304
0.0531024
0.0118806
0.000154741
0.000198167
0.0475605
0.000158854
0.000150269
0.000450307
0.0741579
0.0702052
0.000214002
0.000146141
0.0214604
0.000193148
0.000147591
0.00016378
0.000188341
0.000160032
0.000185295
0.0528078
0.000201419
0.000174893
0.0713954
0.000154628
0.0178913
0.000149549
0.000149054
0.0695825
0.0734304
0.000205427
0.00015465
0.000151437
0.000148505
0.000180309
0.000438818
0.00021003
0.000156
0.000207439
0.000181151
0.000148708
0.00033852
0.00020973
0.0495229
0.00014812
0.000200845
0.000153908
0.0138945
0.00017584
0.000171001
0.000163557
0.000147179
0.000148878
0.000150669
0.000175187
0.000156401
0.000228395
0.000524399
0.000181908
0.000147152
0.000199773
0.000206549
0.0560865
0.000151796
0.000156083
0.000147567
0.000167022
0.000157867
0.0635335
0.000149484
0.000474964
0.000166366
0.00016677
0.000180708
0.0301066
0.000171922
0.000150392
0.0286233
0.00742084
0.000149342
0.000159037
0.05086
0.000205852
0.000196186
0.000149544
0.000151603
0.000204633
0.000160849
0.000183519
0.000186803
0.000149038
0.000182111
0.0627691
0.000151941
0.000157005
0.000147747
0.020798
0.00014975
0.00015468
0.0199484
0.000152827
0.0745015
0.000159638
0.000160813
0.000147702
0.000167509
0.000148222
0.000176717
0.000147204
0.000174794
0.000155365
0.0171796
0.000314686
0.0553748
0.000153987
0.000149317
0.000178671
0.000171799
0.0233107
0.0598497
0.000177325
0.00014848
0.000164019
0.000205652
0.0469821
0.000227887
0.000177429
0.053467
0.000166835
0.000178857
0.000197438
0.000179251
0.000177012
0.000233105
0.0001763
0.000158098
0.000189653
0.000157975
0.000150275
0.000166746
0.00017024
0.000159323
0.000148281
0.000147639
0.000181587
0.000156232
0.000183822
0.000148448
0.000148446
0.000149805
0.000152965
0.000146816
0.000157402
0.000147878
0.0240307
0.000188434
0.000188598
0.000146847
0.000149619
0.000164054
0.00017795
0.000150842
0.0729984
0.000176665
0.0566237
0.000166653
0.000194945
0.000153261
0.000149774
0.00014748
0.000153271
0.0146582
0.000149675
0.055012
0.000157749
0.00825359
0.000166123
0.000177324
0.000169243
0.00014708
0.000149935
0.000188684
0.000148578
0.000150539
0.0671822
0.00015179
0.000149139
0.000161012
0.000147608
0.000146762
0.000159607
0.000156445
0.0185623
0.000165092
0.000151965
0.000147524
0.0394076
0.000175222
0.000150032
0.000150465
0.0691142
0.0495818
0.0159674
0.000160947
0.000158097
0.000146737
0.00014659
0.000181781
0.000165825
0.020644
0.000154326
0.0317569
0.000151065
0.000152899
0.0133975
0.000148421
0.000162869
0.000148988
0.000148431
0.000169383
0.00016226
0.000152718
0.0736943
0.0252299
0.000181232
0.000148126
0.000147662
0.000207281
0.0505876
0.000149716
0.0285564
0.000147467
0.000169229
0.000151397
0.000150385
0.00378796
0.000151074
0.064426
0.000168967
0.000149803
0.000146513
0.000148843
0.000148079
0.000156664
0.000432355
0.000151422
0.000149505
0.0590734
0.0703952
0.000175954
0.000171123
0.000183222
0.000158796
0.000148536
0.0001567
0.0249708
0.000175566
0.000148811
0.000151241
0.0613515
0.000169877
0.0401814
0.000149753
0.000151032
0.0183106
0.000168417
0.000153076
0.0135115
0.000293329
0.000148033
0.000194697
0.000147466
0.000150809
0.000146842
0.0311937
0.000146692
0.00015286
0.000148582
0.0643634
0.000161236
0.000200654
0.000166089
0.000150614
0.000159173
0.000149099
0.0364439
0.000147787
0.000151606
0.000149145
0.000207477
0.000149089
0.000201343
0.0216902
0.0664155
0.000155715
0.0439117
0.0235829
0.000148873
0.0179545
0.0722102
0.0264596
0.0355508
0.0578996
0.00809314
0.000198204
0.000150685
0.0515084
0.000168151
0.0525394
0.000149379
0.000149039
0.000150098
0.000149051
0.000160295
0.000158824
0.025082
0.000148968
0.000148507
0.00942921
0.00018856
0.000148832
0.000160612
0.000162783
0.00015192
0.000305065
0.000160926
0.000153016
0.000161079
0.0209128
0.0167367
0.000254391
0.000151194
0.000207306
0.000187987
0.0261673
0.0651741
0.00019642
0.000148715
0.000153438
0.000151026
0.000145863
0.000153238
0.000146064
0.000158427
0.000166264
0.0351592
0.000199979
0.00015285
0.000194252
0.0401789
0.000168431
0.000149991
0.0190299
0.0001496
0.000150296
0.000161012
0.0366449
0.000149095
0.000148148
0.0563956
0.0352553
0.0446873
0.000193393
0.0505473
0.000147999
0.000204818
0.000150129
0.000148008
0.000150089
0.0582207
0.0196696
0.000149739
0.000146589
0.000149142
0.0545418
0.000152729
0.000163708
0.000148546
0.000151117
0.00020215
0.000150816
0.000177355
0.000197785
0.0400471
0.000150187
0.000173734
0.000154893
0.0282046
0.0384529
0.000148405
0.030456
0.000184485
0.000269519
0.000149084
0.0492075
0.000149603
0.00016019
0.000168411
0.000192967
0.0611804
0.0519464
0.00341901
0.0737054
0.000147086
0.000570792
0.000150411
0.000157977
0.055847
0.00014938
0.000149659
0.00015269
0.000151563
0.0333927
0.000146819
0.000148505
0.000182305
0.000171945
0.000178436
0.000203137
0.000172742
0.0143697
0.000189785
0.000169217
0.000178531
0.0262847
0.000176277
0.0598958
0.0536435
0.000160656
0.000151029
0.0365147
0.0484024
0.000149887
0.000192025
0.000166555
0.000154055
0.000160876
0.00015178
0.000168615
0.000149943
0.000177083
0.000171566
0.00014748
0.000178139
0.000149897
0.000168027
0.000147182
0.000155188
0.000180425
0.000156547
0.000152089
0.00014972
0.00028512
0.0001785
0.0746662
0.000148468
0.000150336
0.000182181
0.000148963
0.000186033
0.000178484
0.00015402
0.000189207
0.000149783
0.071363
0.000149789
0.000174533
0.0210695
0.00027417
0.00014808
0.000153553
0.018253
0.000148016
0.000147634
0.0292302
0.0347701
0.000153341
0.00189148
0.000148605
0.00015215
0.0592983
0.000153109
0.000147117
0.0139435
0.000150162
0.0561426
0.000149271
0.000147029
0.000150035
0.000163777
0.0314423
0.000149435
0.000150201
0.000147977
0.00015606
0.000148394
0.000225939
0.000178
0.000149773
0.073559
0.000166289
0.000952341
0.0402699
0.000436295
0.000149616
0.000149845
0.000149329
0.000208162
0.000156431
0.0311228
0.0223131
0.000153104
0.0545326
0.000321579
0.000177602
5.77428e-05
0.000170738
0.000190474
0.0623033
0.000168617
0.000387738
0.040477
0.000187447
0.000155376
0.027043
0.000164881
0.000149395
0.000155552
0.0690596
0.00016451
0.000148504
0.000167852
0.000187768
0.000166648
0.0271977
0.000153976
0.0752566
0.000177949
0.0474205
0.000194551
0.000208945
0.000162216
0.000149615
0.000151563
0.0641476
0.000148087
0.000153388
0.000148139
0.000153309
0.000149206
0.000161403
0.000150613
0.000302776
0.000163626
0.000165543
0.0607089
0.000193062
0.000149382
0.0521768
0.0589867
0.000147793
0.000147602
0.000164016
0.0172036
0.000149667
0.000182331
0.000210051
0.000168766
0.000148954
0.000156745
0.000150439
0.00019189
0.000164618
0.000147823
0.0195298
0.0531555
0.000164906
0.0367911
0.000187953
0.00224092
0.000152752
0.000159154
0.064947
0.0429986
0.000196622
0.000263347
0.000160167
0.000149829
0.000151265
0.000150464
0.00014864
0.00015082
0.000168425
0.000148101
0.000203921
0.000147607
0.000161632
0.000150256
0.000177453
0.000207493
0.000286092
0.000148776
0.00020888
0.000151205
0.0672079
0.000148392
0.000154671
0.00014877
0.00476417
0.0272881
8.04394e-05
0.000148122
0.000200204
0.000149373
0.000161364
0.0338169
0.000150532
0.000150108
0.000171148
0.000163796
0.0550342
0.00014813
0.000159335
0.000157423
0.000148312
0.000159267
0.000151214
0.000146625
0.000152756
0.0195466
0.000155927
0.0312205
0.0713427
0.000176874
0.0334904
0.000155487
0.000146633
0.000159954
0.0160727
0.000157663
0.000163707
0.000176364
0.000698995
0.000147995
0.00338566
0.000178954
0.000183003
0.000147711
0.000146508
0.00204405
0.00015032
0.000149897
0.000159548
0.000149131
0.000153732
0.000160786
0.000188413
0.000183335
0.0570148
0.000162172
0.00018896
0.0640744
0.0174438
0.000174422
0.000182581
0.016764
0.000171526
0.0669196
0.00015249
0.00752782
0.00316595
0.00014983
0.000149722
0.000147736
0.000154851
0.000170653
0.000150467
0.000152841
0.000196652
0.000154815
0.00016131
0.0312408
0.000158218
0.000157545
0.0632049
0.000152998
0.0207171
0.000159484
0.00016612
0.000147953
0.0191879
0.0201679
0.000149411
0.000155078
0.0530551
0.00015784
0.012578
0.000148032
0.000150245
0.0535619
0.000154517
0.000163226
0.00852732
0.000148494
0.000176975
0.000161045
0.000146573
0.00014738
0.0520093
0.0222387
0.00015092
0.000156134
0.000149174
0.000158002
0.000160282
0.02022
0.000151129
0.000332771
0.0678922
0.0472515
0.0507611
0.000154271
0.000209079
0.000179627
0.000157586
0.000148458
0.000185124
0.0328154
0.000152409
0.00016363
0.0652432
0.000457061
0.000185837
0.000154319
0.000150181
0.000149608
0.0001485
0.0173395
0.00018041
0.000157603
0.000155453
0.000156621
0.000149784
0.000148823
0.000148575
0.000188497
0.000176688
0.0736278
0.000164344
0.00789897
0.0333478
0.000159752
0.00017797
0.000146938
0.000158895
0.0162127
0.000150182
0.000153767
0.000179164
0.000196414
0.000164821
0.0567258
0.0338237
0.000149561
0.0320901
0.000146407
0.000152028
0.000164955
0.000149805
0.000152045
0.00022327
0.0754326
0.000150142
0.0622143
0.000150196
0.000149627
0.000153663
0.000360457
0.000160724
0.00015954
0.0707504
0.000152982
0.0157182
0.0408744
0.000149607
0.000164573
0.000147961
0.0214633
0.000182892
0.000148592
0.0567558
0.000179042
0.000168649
0.000149844
0.0191056
0.00015805
0.000191354
0.000156612
0.000168496
0.0192318
0.00014952
0.000248575
0.000149358
0.000178503
0.000164652
0.000149601
0.0254853
0.00015328
0.000196129
0.000177937
0.000169952
0.000164106
0.000164197
0.000150954
0.0651279
0.000160132
0.0184126
0.00015871
0.000186316
0.000149942
0.000170089
0.000148911
0.000191098
0.0638913
0.000151986
0.000148184
0.000432447
0.000154046
0.0644619
0.000152462
0.0620779
0.0494041
0.000165056
0.000148061
0.0001478
0.000148693
0.000146155
0.000189951
0.000167008
0.000161071
0.000157388
0.000148458
0.0353387
0.00015642
0.000164236
0.0623163
0.000148788
0.0170255
0.000178784
0.000168553
0.000251332
0.0292715
0.00017932
0.0646695
0.0407522
0.000148015
0.000198582
0.0239245
0.000187654
0.000149093
0.000149633
0.000200161
0.0555438
0.0212251
0.000225907
0.000154725
0.000165384
0.000172041
0.0387182
0.00266933
0.000176028
0.000200314
0.00015426
0.000178074
0.000196748
0.000149036
0.000188208
0.0714411
0.000148811
0.0621064
0.000149662
0.000150778
0.0250442
0.0363877
0.000147081
0.000155071
0.00015203
0.00015002
0.000167813
0.000225053
0.000156641
0.00014793
0.000148576
0.000176801
0.000160085
0.000159638
0.000269012
0.00014856
0.0386981
0.0129884
0.0483805
0.000176634
0.000175115
0.0427284
0.000167555
0.051335
0.0558689
0.0226815
0.000151057
0.0647156
0.0336841
0.000146673
0.00014828
0.000185491
0.0401425
0.0683605
0.000150819
0.000149363
0.0379637
0.00181514
0.0138081
0.00015503
0.000152985
0.000303434
0.000149892
0.0410305
0.0274898
0.0537493
0.000428834
0.000149013
0.000148094
0.000147217
0.000155429
0.0281626
0.000175222
0.000160982
0.000150679
0.000174599
0.0173862
0.000176896
0.0748801
0.0121489
0.0216387
0.000318564
0.00014844
0.000149084
0.0630672
0.000146629
0.000149264
0.000152316
0.00041987
0.000170373
0.0350917
0.000193739
0.000148293
0.0576673
0.00016895
0.000149166
0.0135407
0.000176848
0.000154214
0.000152616
0.00486614
0.0421221
0.000149138
0.0751216
0.069302
0.0495189
0.000321331
0.000178037
0.000148522
0.000152773
0.000320363
0.000158397
0.0655854
0.000169806
0.00197285
0.0096248
0.000151436
0.000158239
0.000148715
0.000151157
0.0422217
0.0177401
0.000148509
0.0178323
0.000176367
0.000149377
0.000154376
0.00014781
0.000205219
0.000151944
0.000310008
0.000165713
0.000148508
0.000147157
0.000170222
0.0154009
0.000171011
0.000154486
0.000170269
0.000148842
0.000154392
0.000162838
0.0137607
0.027368
0.0411505
0.000146688
0.000147106
0.000150812
0.000209391
0.000147546
0.000151003
0.000225658
0.00018226
0.0494877
0.0001496
0.0423005
0.0276706
0.000149885
0.0135485
0.000197502
0.000173866
0.000321041
0.000150644
0.0309183
0.000158375
0.000151981
0.000153071
0.00014657
0.0351454
0.00015533
0.000156129
0.000158196
0.0312793
0.0330253
0.000149611
0.000148047
0.000154554
0.000150131
0.000196325
0.000150335
0.000184439
0.000156417
0.031531
0.000155058
0.0523486
0.000146807
0.0579104
0.000152124
0.00014657
0.0516277
0.00018536
0.00017243
0.0532873
0.00016316
0.00017309
0.00014855
0.0246196
0.000148494
0.000147561
0.000169159
0.000188622
0.0415147
0.0301456
0.000194517
0.0757008
0.000192851
0.00141347
0.0001511
0.000158089
0.000163478
0.0389805
0.000153983
0.0376593
0.0252092
0.000153251
0.00014889
0.000149159
0.000332743
0.00042584
0.000155809
0.000148681
0.000156084
0.000160218
0.000170923
0.000199974
0.000194288
0.00014833
0.000207575
0.000182793
0.0150218
0.000183467
0.000153223
0.000155522
0.055856
0.000147191
0.000185441
0.06148
0.000151495
0.000156938
0.000226751
0.00017359
0.000151327
0.0182355
0.000156555
0.000349287
0.000178433
0.000159296
0.000154812
0.0402417
0.000147215
0.000172507
0.000263419
0.0446923
0.000175079
0.00017759
0.000161164
0.000164711
0.000149749
0.0465523
0.000162037
0.000151362
0.000163803
0.000148527
0.000149776
0.000452591
0.000148485
0.000149118
0.000149302
0.000204089
0.000149728
0.000163437
0.000188246
0.000201517
0.000190747
0.000149663
0.000184563
0.000194337
0.000204487
0.000182311
0.000156176
0.000204034
0.0672294
0.000231337
0.000149886
0.0649146
0.0600682
0.000149882
0.000156062
0.000146394
0.000215079
0.00018583
0.000152232
0.000252931
0.0372692
0.000146917
0.000149619
0.0544219
0.0274227
0.000188949
0.000146774
0.0474098
0.0381769
0.000476218
0.00014824
0.0402294
0.000195019
0.000168438
0.0360147
0.000159881
0.000146452
0.000163406
0.000199133
0.000166508
0.056014
0.0439016
0.000148222
0.0753452
0.000198496
0.0276131
0.000146848
0.000164099
0.000149819
0.000148553
0.0460918
0.0531277
6.4641e-05
0.063962
0.000158941
0.000175732
0.000152597
0.0449836
0.0201634
0.000148533
0.000151137
0.000158772
0.000151169
0.000178375
0.0548382
0.0759168
0.000176292
0.000152426
0.000153113
0.0448838
0.000154693
0.000178374
0.000148095
0.00015223
0.000234033
0.0547398
0.0264845
0.000359092
0.000149073
0.000257555
0.000153878
0.000164791
0.0746934
0.0157099
0.000148502
0.000149955
0.000173348
0.00015506
0.000149551
0.0508404
0.0386595
0.000149153
0.00014623
0.000149211
0.000147796
0.000324731
0.000149839
0.0559257
0.000190399
0.000188834
0.000149139
0.000168862
0.0460955
0.00016818
0.000195225
0.0401128
0.000150137
0.0181358
0.000159452
0.000160055
0.000190479
0.0183888
0.0270822
0.00018697
0.000148059
0.000190756
0.000149829
0.000154435
0.000149688
0.0573624
0.000160044
0.000317502
0.0449477
0.000175409
0.000148773
0.00020977
0.000161768
0.000149785
0.000182237
0.000146035
0.000177384
0.000167028
0.000149577
0.0725231
0.000153158
0.000202872
0.000151501
0.000147768
0.0447649
0.0389917
0.000153355
0.000159062
0.000175785
0.000173773
0.000184667
0.000162418
0.000156146
0.000158712
0.0258373
0.000154684
0.0596211
0.000167763
0.0433067
0.000209335
0.000154274
0.0534044
0.000146011
0.0601574
0.000153318
0.038062
0.010936
0.0339367
0.0585893
0.000225018
0.000169488
0.000152041
0.0518943
0.000170816
0.000148609
0.015349
0.0716891
0.000152191
0.000157599
0.000162586
0.000162641
0.000168064
0.0239771
0.000149883
0.000168616
0.000171977
0.000160529
0.00014903
0.00019352
0.000147238
0.0603994
0.000153103
0.000193119
0.000164356
0.000171604
0.000184547
0.0567827
0.000183333
0.000148118
0.000188848
0.0539184
0.0596394
0.000153724
0.0632366
0.000162982
0.000296582
0.000148494
0.000154443
0.0413162
0.000183663
0.0215598
0.0178688
0.000159659
0.0526528
0.00014919
0.00014735
0.0150544
0.000165319
0.000154449
0.061283
0.000159089
0.000164397
0.000158788
0.000178661
0.000150845
0.0745314
0.0693349
0.00787716
6.18522e-05
0.000158381
0.000173828
0.0225364
0.000153965
0.000150248
0.000178327
0.000146914
0.000184466
0.0428106
0.0191904
0.0212461
0.000182623
0.000153895
0.0424383
0.000146358
0.000188728
0.000149533
0.0343278
0.000154263
0.000165558
0.0324299
0.000193153
0.000148093
0.000160546
0.0101481
0.00014893
0.000207606
0.000148641
0.0658077
0.0377824
0.000197396
0.000168138
0.000147653
0.0413452
0.000211726
0.000171189
0.000148591
0.000154481
0.000148894
0.000182414
0.000148768
0.000193627
0.000149144
0.000149201
0.0632103
0.000149346
0.000159077
0.00016026
0.000149817
0.0372757
0.000149005
0.000163135
0.0415752
0.000182312
0.0596077
0.000148942
0.042116
0.000183503
0.0581753
0.000153783
0.000203959
0.000153476
0.000173199
0.000206182
0.000201765
0.000219792
0.0376841
0.00020707
0.000359248
0.000155999
0.000199088
0.000164237
0.00117613
0.000154545
0.000153275
0.000148736
0.000181053
0.000166319
0.0474528
0.000179346
0.0649032
0.0735284
0.000170709
0.000149171
0.0601571
0.000179175
0.000150475
0.000153425
0.000149175
0.0710723
0.000148673
0.0155415
0.000149173
0.000162589
0.0257785
0.000172024
0.000148431
0.000148681
0.0170417
0.000148863
0.00015389
0.000158728
0.000162335
0.000160266
0.000150116
5.58352e-05
0.000168355
0.00016359
0.000230053
0.0338782
0.0358517
0.0208708
0.000146816
0.000148648
0.000172954
0.000153887
0.000164056
0.0624223
0.0337203
0.000146698
0.000148531
0.0412603
0.0337701
0.000146893
0.000148229
0.000155743
0.052079
0.0554214
0.000159021
0.000164246
0.000149283
0.000205655
0.000207076
0.000174655
0.000158709
0.000164751
0.000150188
0.000168415
0.000148146
0.000151174
0.00015143
0.00015852
0.0599327
0.000155065
0.0168831
0.00014866
0.0392792
0.000163598
0.000156435
0.000146845
0.000147719
0.000238561
0.0698208
0.000165157
0.0256254
0.0503678
0.000150861
0.0376149
9.91308e-05
0.000149413
0.0695038
0.0394661
0.000197409
0.000149662
0.0368294
0.0286254
0.000151465
0.000164034
0.026355
0.000168238
0.000149348
0.00014903
0.000152095
0.000157223
0.000183186
0.000652378
0.00016808
0.000181107
0.000147344
0.000149944
0.0669261
0.000148779
0.000170128
0.000155574
0.000154099
0.000175764
0.000148265
0.000153407
0.000189932
0.000147979
0.0299305
0.000148313
0.00364035
0.0432403
0.000188184
0.000150292
0.000149947
0.0411571
0.000146512
0.000155483
0.000150067
0.000203073
0.00208787
0.000166699
0.0405121
0.000163781
0.0482211
0.000150503
0.000186532
0.000150519
0.000148872
0.0174365
0.0370944
0.000333101
0.000154606
0.000185223
0.00018587
0.0320271
0.0410423
0.000151568
0.000168704
0.000146259
0.0350373
0.000150282
0.00015038
0.000158862
0.000201018
0.00015761
0.000178697
0.00016494
0.000160988
0.000160226
0.0550116
0.000156864
0.000147962
0.0159718
0.000165148
0.000147611
0.0336781
0.000148131
0.000148696
0.000204764
0.000187345
0.0369276
0.00014764
0.000154393
0.000148098
0.000306661
0.000148673
0.000199231
0.0653433
0.0407436
0.0327826
0.0140468
0.000157964
0.0294176
0.000223974
0.000149352
0.000159416
0.00016363
0.000158433
0.000251096
0.0317539
0.0381169
0.0434107
0.000338934
0.000149738
0.000196011
0.000148161
0.0175908
0.000162512
0.000156533
0.000156022
0.000153034
0.000148492
0.000194415
0.0386402
0.000146673
0.000154996
0.000147094
0.0275101
0.000154851
0.0566826
0.0579416
0.000238455
0.000148608
0.000148548
0.0268825
0.000190579
0.000148869
0.000191656
0.000149483
0.000188543
0.000178376
0.000189492
0.000179975
0.0425812
0.00014814
0.000150754
0.0255649
0.0359919
0.0001616
0.000168254
0.000148529
0.0175216
0.000148377
0.00014768
0.000153905
0.000148732
0.00639486
0.0319161
0.0519378
0.000187807
0.0410281
0.00389305
0.000146521
0.000166739
0.000147064
0.000252838
0.000151528
0.000154655
0.000148518
0.000147665
0.00014986
0.000375668
0.000155993
0.000274874
0.000149785
0.000158919
0.000160838
0.000269386
0.000148322
0.000166321
0.000172066
0.000173958
0.0615508
0.000147695
0.0265658
0.000177771
0.000166008
0.000152266
0.000148069
0.0345565
0.00704209
0.000151665
0.000149841
0.00187277
0.0190364
0.000161104
0.043696
0.000151559
0.0441745
0.000167194
0.000146828
0.0736187
0.000157443
0.05232
0.00014866
0.000152794
0.000148751
0.0287051
0.038773
0.000146754
0.000181282
0.0147851
0.000148292
0.00014975
0.000148078
0.00018259
0.0406435
0.000176724
0.000160035
0.000169414
0.000148245
0.000149094
0.000155344
0.000148005
0.000228732
0.000149099
0.000187056
0.000258723
0.000166452
0.000146072
0.0625491
0.000187354
0.000148288
0.000179489
0.000165491
0.0505617
0.000153589
0.0725756
0.000176799
0.000149159
0.000183905
0.000184024
0.000157274
0.0605072
0.00018603
0.00016899
0.0548899
0.000148869
0.000186309
0.000169582
0.000183275
0.000147769
0.0001488
0.000146437
0.000159349
0.000183584
0.000182675
0.0744596
0.0251348
0.0577401
0.000149759
0.0003049
0.0461197
0.0460693
0.000148573
0.000149394
0.000180131
0.0550904
0.00015406
0.00017107
0.0111046
0.0239703
0.00366698
0.000171931
0.0002066
0.039555
0.000153395
0.000147402
0.00169719
0.000116088
0.000151795
0.000153166
0.000152179
0.0439532
0.000185762
0.0690701
0.000155045
0.0173681
0.000150794
0.0346896
0.0300591
0.000150003
0.000169363
0.0333076
0.0676154
0.000175973
0.000153565
0.000153353
0.000150209
0.00018633
0.000207623
0.000664659
0.0439709
0.00014822
0.0150807
0.00019213
0.0572673
0.000148089
0.000149031
0.0618467
0.000183009
0.000148688
0.000174394
0.000167512
0.000161471
0.0605463
0.0587911
0.0458429
0.0412319
0.000155595
0.000148425
0.000166637
0.0247798
0.0656398
0.000150963
0.000183538
0.000169439
0.000194737
0.00015561
0.000149685
0.000237085
0.0585256
0.0261762
0.000267238
0.0259354
0.00014792
0.000182203
0.0401246
0.000149815
0.000166057
0.000191547
0.00014694
0.000212084
0.0581333
0.00018069
0.000149677
0.0214416
0.00019598
0.0408317
0.000146182
0.000157602
0.000150271
0.000157798
0.000150121
0.00017296
0.000163989
0.00016342
0.000187534
0.000169047
0.0304537
0.000154862
0.000168016
0.000159487
0.0144339
0.000165383
0.0247173
0.000159111
0.00015687
0.00795356
0.000170246
0.000149016
0.000163833
0.0570268
0.0676032
0.000289324
0.000149021
0.000148534
0.000149046
0.0405773
0.000152701
0.000339096
0.000260897
0.000182329
0.000162742
0.000211183
0.0206998
0.00015009
0.0747776
0.000161351
0.000164262
0.000149321
0.000150912
0.000176908
0.0412352
0.000148427
0.0231332
0.000213756
0.000170311
0.000198972
0.000148821
0.000148136
0.000164522
0.000156372
0.05212
0.023518
0.000170875
0.000238486
0.000149014
0.000150548
0.000151083
0.000149605
0.0668108
0.000155655
0.0296313
0.000169462
0.000155739
0.000189717
0.0006716
0.0377869
0.0150934
0.000156236
0.000150609
0.000148813
0.00015866
0.000218457
0.00018112
0.0611356
0.000148971
0.000154098
0.000177039
0.000149709
0.0386846
0.000152767
0.000175727
0.000176932
0.000163866
0.00016415
0.00014771
0.000174277
0.000163678
0.000181685
0.000168369
0.000164216
0.000147257
0.0001892
0.000148407
0.000699924
0.0463141
0.00022559
0.000149226
0.000171783
0.000149112
0.000176485
0.000153977
0.000155687
0.000157122
0.0156081
0.0549745
0.000168059
0.000167096
0.000186294
0.000175139
0.0573597
0.040783
0.000160257
0.0358717