/*--------------------------------*- C++ -*----------------------------------*\
| =========                 |                                                 |
| \\      /  F ield         | OpenFOAM: The Open Source CFD Toolbox           |
|  \\    /   O peration     | Version:  v2012                                 |
|   \\  /    A nd           | Website:  www.openfoam.com                      |
|    \\/     M anipulation  |                                                 |
\*---------------------------------------------------------------------------*/
FoamFile
{
    version     2.0;
    format      ascii;
    class       volScalarField;
    location    "650";
    object      k;
}
// * * * * * * * * * * * * * * * * * * * * * * * * * * * * * * * * * * * * * //

dimensions      [0 2 -2 0 0 0 0];


internalField   nonuniform List<scalar> 
13851
(
0.000181732
0.000152109
0.000151923
0.023442
0.000148408
0.000153973
0.000152424
0.000146886
0.0345346
0.000148548
0.000171501
0.000148369
0.000149146
0.0186219
0.000160626
0.000182091
0.0207554
0.00014761
0.000195679
0.000181714
0.000162658
0.000154336
0.00520874
0.000149734
0.000235082
0.000171175
0.000201719
0.000218266
0.031616
0.000146266
0.0531443
0.000152383
0.000181294
0.04203
0.000164655
0.0313787
0.00014981
0.000232483
0.0595429
0.000148536
0.0471449
0.032684
0.00739662
0.000199022
0.0339402
0.00014711
0.000145866
0.000181327
0.000151209
0.000149112
0.0235953
0.000149495
0.000181996
0.000157782
0.0173988
0.00014858
0.000181717
0.0468873
0.00020916
0.0209802
0.000148425
0.000193263
0.0001487
0.000151436
0.000178474
0.000178609
0.0163817
0.0001662
0.000148524
0.0344429
0.0470172
0.000166206
0.000148437
0.0181821
0.000158543
0.000151812
0.0263316
0.000145727
0.000225765
0.000147487
0.000148561
0.000196434
0.000164406
0.0200361
0.021349
0.0521723
0.000154478
0.0140378
0.000148416
0.0535594
0.000149622
0.000152486
0.00768535
0.0466132
0.0527763
0.000188312
0.000147388
0.000182269
0.0219802
0.000183891
0.000182846
0.000162373
0.000163133
0.00014874
0.000147026
0.000165612
0.00014703
0.0501433
0.000152441
0.000147489
0.000158288
0.000147109
0.000185385
0.000171061
0.000180998
0.000157304
0.000146257
0.000146571
0.0201317
0.038873
0.000182282
0.000146758
0.000148526
0.0340294
0.000191664
0.000171992
0.000147347
0.00016899
0.043739
0.000164774
0.000154284
0.000157973
0.000246786
0.0422509
0.000171823
0.0539608
0.000165881
0.0498833
0.000160139
0.00016447
0.000195555
0.000150485
0.000148452
0.000170611
0.000205375
0.000151595
0.000145687
0.0476732
0.027774
0.000169577
0.000182644
0.000184999
0.000172021
0.000191468
0.000149732
0.000148867
0.000148535
0.0581526
0.00016307
0.000151448
0.000149583
0.0315323
0.000165052
0.000181265
0.0190071
0.0363263
0.036764
0.0274308
0.000157833
0.00492792
0.000148538
0.000146278
0.00016945
0.00014882
0.0550019
0.000196866
0.000183848
0.000146198
0.000158576
0.00018339
0.000190742
0.00019835
0.00015717
0.000164447
0.00797449
0.0281571
0.00018143
0.000157502
0.000149486
0.000146606
0.000234198
0.000163036
0.0145544
0.000154102
0.000151343
0.000182135
0.00018087
0.000148476
0.000148566
0.000166857
0.000195549
0.0515166
0.0480473
0.000160519
0.000356169
0.0490939
0.000152588
0.000164241
0.0354383
0.000153477
0.000182019
0.000148477
0.000195995
0.000149514
0.00016499
0.000152704
0.000149023
0.000189015
0.00014856
0.000502563
0.000146186
0.000181768
0.0171576
0.0545459
0.000157191
0.000164494
0.000149733
0.000169486
0.000147903
0.000164739
0.0419064
0.00015725
0.000153411
0.000148844
0.0474007
0.000146243
0.00279236
0.0483815
0.000181783
0.000149643
0.000216433
0.0212077
0.0337643
0.000181871
0.000158767
0.000173028
0.000187363
0.000158772
0.000187308
0.000159442
0.0141445
0.000182461
0.000146723
0.000153885
0.000182566
0.0308658
0.0160827
0.000146569
0.000172348
0.00014836
0.000186225
0.000191417
0.000154244
0.000165401
0.000183141
0.000148003
0.000162722
0.000178846
0.000216583
0.000148458
0.000149009
0.0001574
0.0389138
0.0141079
0.000164563
0.00014688
0.000191022
0.000191401
0.000179291
0.000165031
0.0389723
0.0206208
0.000154601
0.000158957
0.000223704
0.000146956
0.000148532
0.000179833
0.000169384
0.000146248
0.000149495
0.000147877
0.000147799
0.000158626
0.000148481
0.0355361
0.000163387
0.000147919
0.0306665
0.0321986
0.000149511
0.000182045
0.0232076
0.000150669
0.000149608
0.000164257
0.0190881
0.0453961
0.000171151
0.000148334
0.00429377
0.00014848
0.000172571
0.0266318
0.000220226
0.000151236
0.000224926
0.000211647
0.0550272
0.000184788
0.000162868
0.0570323
0.03841
0.000215361
0.000148731
0.0293088
0.00624542
0.000200635
0.000199065
0.00015267
0.000171005
0.000157491
0.0147403
0.00016356
0.000146891
0.000145187
0.000155427
0.0507496
0.00036388
0.000146894
0.0526389
0.0001576
0.000158252
0.000151593
0.017203
0.000190479
0.000182318
0.000152418
0.00015295
0.0304777
0.000149498
0.000192154
0.000154491
0.000164241
0.000158116
0.00014839
0.000147876
0.000183961
0.000185397
0.000182473
0.000245821
0.030921
0.000151682
0.0474719
0.000189164
0.000146126
0.000216759
0.000176164
0.0257299
0.000155
0.000172294
0.000198783
0.000244725
0.000183234
0.0162815
0.000149728
0.00019802
0.00848796
0.000157219
0.0176684
0.000158652
0.0497773
0.000158722
0.000162472
0.000182666
0.000191392
0.000148887
0.000154202
0.000170473
0.000158766
0.000147306
0.000164747
0.0225368
0.000148392
0.000164348
0.0142332
0.000151951
0.000243483
0.000163946
0.0374234
0.00015397
0.000170327
0.000245114
0.000191605
0.000165254
0.0136231
0.0180476
0.000211974
0.000148077
0.000183685
0.000158888
0.000171985
0.00014682
0.00822946
0.0248019
0.000236135
0.000152868
0.000182929
0.000192703
0.0156346
0.000145459
0.0225284
0.000193726
0.0134569
0.000160031
0.000216757
0.000148647
0.000148735
0.0154196
0.000193567
0.000148551
0.000152133
0.000164704
0.000146488
0.018174
0.000171146
0.000175904
0.000153746
0.000149756
0.000149616
0.000241546
0.00014789
0.000149548
0.0138279
0.0202379
0.000153927
0.000190951
0.000148748
0.000148475
0.000152346
0.000182958
0.000163881
0.000147414
0.000150163
0.000181755
0.000150924
0.0313007
0.000148338
0.000155259
0.0341871
0.00016045
0.000145321
0.000148667
0.000153653
0.000148862
0.000210808
0.0209019
0.00015891
0.000688094
0.000152395
0.000148211
0.0413897
0.000198044
0.000160069
0.000148475
0.0366643
0.000159771
0.000147955
0.000148745
0.000158102
0.000183595
0.000159601
0.0408037
0.000195312
0.000238885
0.000152276
0.000185122
0.000147984
0.0308616
0.000163825
0.000180838
0.000158642
0.000152125
0.000160385
0.000169791
0.000148493
0.0166849
0.0406437
0.0288043
0.00829171
0.0194227
0.0350321
0.000191913
0.000156656
0.000149318
0.000215953
0.000148549
0.000147273
0.000157763
0.0553711
0.000151787
0.00015053
0.000171235
0.000165623
0.000148715
0.00341709
0.000147394
0.0434541
0.00021068
0.00014746
0.00015112
0.000194286
0.000220441
0.000146276
0.000144953
0.000961552
0.000146331
0.0593048
0.000194842
0.000181768
0.000152244
0.0122945
0.0228524
0.000146458
0.000194995
0.000148511
0.000147397
0.00958248
0.0501719
0.000161535
0.000163548
0.000148598
0.000168292
0.0439036
0.0570053
0.000147032
0.0263354
0.00014739
0.00014855
0.00016543
0.000155389
0.000145447
0.000151833
0.0602263
0.00019011
0.0576623
0.000151427
0.000148335
0.0385526
0.000149109
0.00018393
0.000155147
0.000158535
0.000158694
0.032135
0.0239821
0.000153917
0.020995
0.000150896
0.000171253
0.0329957
0.0217756
0.000148565
0.000148029
0.000163242
0.0583873
0.000189385
0.000167941
0.000307225
0.000155504
0.000158248
0.0416772
0.0045068
0.000177449
0.0430164
0.000185539
0.0317849
0.000149296
0.000211113
0.000218296
0.000148365
0.0125526
0.0256272
0.0001578
0.000164564
0.000148508
0.000470288
0.000172276
0.0101169
0.000147955
0.000149015
0.000155541
0.000165216
0.000148405
0.0538127
0.000148974
0.00018523
0.000152363
0.000172353
0.000148705
0.000148741
0.000165779
0.0267381
0.000165252
0.0521408
0.000158203
0.000146552
0.000146527
0.000169854
0.000150141
0.000177753
0.000152387
0.000159884
0.000210829
0.000149129
0.0132448
0.000149656
0.000176516
0.0236514
0.0356231
0.0001573
0.00247107
0.000170862
0.000189153
0.028151
0.000147481
0.00598675
0.000157692
0.000157745
0.011015
0.000206785
0.000146205
0.00017743
0.000148401
0.0311416
0.0244224
0.000148768
0.000166705
0.0167745
0.000149728
0.000149643
0.000171396
0.0109182
0.00452838
0.000149621
0.000182685
0.000150635
0.000148763
0.000212587
0.000183004
0.000182978
0.000145318
0.000178806
0.00016335
0.000169096
0.00015083
0.000151098
0.000171372
0.000155341
0.000180112
0.000165917
0.000165982
0.000175122
0.000303277
0.000195161
0.0224152
0.000183277
0.00018204
0.0252512
0.000162526
0.0121283
0.000182277
0.000147395
0.000157868
0.000192979
0.000154963
0.00014749
0.000147452
0.00017649
0.0147236
0.000155414
0.0475065
0.000146579
0.00655587
0.000175174
0.022738
0.000177328
0.000154096
0.000151954
0.0257667
0.000182864
0.00016212
0.000194636
0.000149433
0.000263117
0.000176637
0.000185373
0.000158482
0.00019958
0.00014861
0.000149595
0.000152196
0.000148774
0.0331755
0.0001478
0.000208882
0.038691
0.000177714
0.0573486
0.0236131
0.000185912
0.000190348
0.000157032
0.000149208
0.000148929
0.000145754
0.000146491
0.000148834
0.000171358
0.000184726
0.000164124
0.000217181
0.000150791
0.0345459
0.000149954
0.0276221
0.000163265
0.000149881
0.000148917
0.0359343
0.000154178
0.00103117
0.024809
0.000163733
0.000171605
0.000146254
0.0429616
0.00015285
0.000151888
0.000208916
0.000149217
0.00015044
0.000147204
0.000163796
0.0154839
0.00015661
0.000158649
0.000194072
0.0547931
0.000157325
0.000155203
0.0325319
0.000145735
0.0322296
0.000149283
0.000150966
0.000228198
0.000173884
0.000180747
0.00017609
0.00016541
0.00014949
0.000149953
0.000172359
0.000149412
0.000149546
0.000155857
0.000192478
0.000147668
0.000187536
0.000241147
0.00046121
0.000175962
0.0544081
0.000160438
0.000149174
0.000182739
0.000146664
0.000154278
0.0185444
0.030742
0.00736875
0.0325821
0.000148926
0.000148715
0.000167993
0.000150881
0.000146772
0.00773423
0.000186549
0.0190076
0.000176717
0.000174237
0.000148812
0.0001463
0.000279774
0.000176047
0.000151331
0.000149683
0.000180725
0.000186517
0.0484854
0.000149705
0.000148907
0.0130857
0.000150789
0.000158676
0.000146524
0.0552713
0.000147159
0.0264687
0.000148536
0.000180222
0.000161439
0.000167722
0.000158616
0.000148438
0.00015216
0.000147954
0.000209265
0.000150703
0.0192822
0.000149599
0.000230891
0.0409663
0.000157641
0.000147817
0.0159622
0.0207905
0.000154293
0.000173789
0.000148921
0.0132002
0.000147497
0.000192682
0.000148293
0.000147929
0.000692409
0.000158814
0.000148594
0.000158095
0.0452545
0.000379835
0.0207597
0.000146584
0.0270276
0.000148411
0.000147723
0.000149708
0.000144839
0.000149503
0.0231651
0.0198101
0.00014862
0.000148946
0.000161807
0.000147112
0.02063
0.000183152
0.0222206
0.0575856
0.000152111
0.000179997
0.000148316
0.000162522
0.000172949
0.000147333
0.000149343
0.00022228
0.0262623
0.000171037
0.0102295
0.000169604
0.000148707
0.000162615
0.000174023
0.0227052
0.000158007
0.000129849
0.000176427
0.000149436
0.023991
0.0284753
0.0192497
0.000231215
0.00880676
0.000152169
0.000172798
0.000149584
0.000212722
0.000154504
0.000146906
0.0233513
0.000150643
0.000147828
0.000148555
0.000150421
0.0542402
0.000192349
0.00014685
0.000162952
0.0191942
0.000150753
0.00952842
0.000151642
0.000173362
0.0510283
0.000148501
0.000194058
0.000156894
0.000158403
0.000404789
0.000150607
0.000196231
0.000170007
0.0464922
0.000148722
0.0177851
0.000156964
0.0282202
0.0221364
0.0142516
0.000163746
0.000148582
0.000148971
0.000149728
0.0001618
0.00014882
0.0420696
0.000156592
0.00015642
0.000157174
0.00015202
0.000146566
0.000154771
0.000155297
0.000151085
0.000155077
0.0379214
0.000208773
0.000156556
0.000167106
0.0212494
0.000150598
0.0532466
0.000145781
0.000159586
0.000150748
0.000147556
0.000165031
0.000148178
0.000146815
0.000162887
0.000148923
0.000192564
0.000149865
0.0113654
0.000209417
0.000187998
0.000193
0.000148148
0.055673
0.000184166
0.000149452
0.000155231
0.000150329
0.0570419
0.000151689
0.000162674
0.000221465
0.0117159
0.000173399
0.000148373
0.033151
0.000218319
0.0115756
0.000156832
0.000146496
0.000146966
0.00017116
0.000148609
0.0197361
0.000184183
0.000149248
0.000188938
0.000193182
0.0001471
0.0329131
0.0242897
0.000186123
0.000149786
0.0326256
0.000171082
0.000147933
0.0151651
0.000155007
0.000146922
0.000147488
0.000157974
0.000161885
0.0371584
0.0572871
0.000162188
0.0371103
0.000158821
0.000148412
0.000168563
0.000147496
0.000233224
0.000147157
0.000148133
0.000152212
0.000149309
0.0397948
0.0142615
0.000189128
0.0237223
0.0274559
0.000157127
0.000148415
0.000149864
0.000196426
0.000147075
0.000147726
0.000164213
0.000234119
0.000201471
0.000145934
0.000162526
0.000158724
0.000182001
0.00911802
0.000146334
0.000145381
0.000151109
0.000236837
0.000155793
0.044298
0.000151103
0.000148992
0.000146954
0.000147442
0.000152655
0.00018587
0.0317133
0.0357533
0.000157195
0.000148223
0.000270119
0.000148897
0.000217114
0.0278819
0.000158086
0.030096
0.0327597
0.0492696
0.000167106
0.000157808
0.0303178
0.000157068
0.000159733
0.000168257
0.000189102
0.000149339
0.000367724
0.000148456
0.016093
0.000239177
0.000145802
0.000152387
0.000165312
0.000195312
0.000158667
0.000148844
0.000155328
0.000151853
0.000153493
0.000212437
0.000149033
0.0236516
0.0154833
0.000148488
0.000157302
0.000161622
0.000148403
0.0302616
0.00736004
0.0564383
0.0229443
0.000148081
0.000152757
0.000154465
0.000149684
0.000188996
0.000158886
0.000149703
0.000169322
0.000154965
0.00105534
0.000161609
0.0158311
0.000151733
0.000150861
0.000163833
0.000176179
0.000172421
0.000148041
0.00622638
0.0315764
0.00435668
0.0397524
0.0195615
0.0365306
0.0267344
0.000148048
0.000148307
0.000147905
0.000189169
0.000163577
0.000172357
0.0169107
0.000148565
0.000145579
0.000148592
0.000187624
0.00014564
0.000154237
0.00015182
0.00886746
0.000151022
0.000146715
0.000148474
0.000147931
0.000148996
0.000159777
0.000188828
0.000159774
0.00714014
0.00014827
0.000147447
0.0433783
0.0413614
0.0137268
0.00147944
0.000163569
0.0059283
0.000146462
0.000167703
0.000150864
0.000148545
0.000152001
0.0308343
0.00015026
0.000176417
0.000299263
0.00014864
0.000147482
0.000155248
0.000186091
0.000149792
0.00890304
0.000147818
0.000187815
0.000148871
0.000148591
0.000154396
0.000170013
0.00014917
0.000207588
0.0482807
0.000186469
0.041347
0.00014865
0.026633
0.000198863
0.00014828
0.000240957
0.000149675
0.000161973
0.000149509
0.00014852
0.000147496
0.000148793
0.000149431
0.000155994
0.000170705
0.000148535
0.000148731
0.000165692
0.000146134
0.00814875
0.000148891
0.000157917
0.000158776
0.0244715
0.000215375
0.000148912
0.000186286
0.000146492
0.000157074
0.000170427
0.0012908
0.000164533
0.000149795
0.000178233
0.000167556
0.00017413
0.000199774
0.000160378
0.000183326
0.000167928
0.000170909
0.000150903
0.000146831
0.000418924
0.0134212
0.000152505
0.000147909
0.0105788
0.000146599
0.000162409
0.00014751
0.00017303
0.000250244
0.000145169
0.0189744
0.000153815
0.000149047
0.000183537
0.000146907
0.000161567
0.0241604
0.00016178
0.000861412
0.000147456
0.000149739
0.00016252
0.000149456
0.00014964
0.000155246
0.00015648
0.000170886
0.000173866
0.000148838
0.000162557
0.000146723
0.000148264
0.000149376
0.0001483
0.000222035
0.000147279
0.00015173
0.000191082
0.000146566
0.00014782
0.0398461
0.000149659
0.0124008
0.000150513
0.0374438
0.000189833
0.000164117
0.000274842
0.000171263
0.000246972
0.000148986
0.000187009
0.000154842
0.000146746
0.000147152
0.000151741
0.0001573
0.000147852
0.000168074
0.000147085
0.00015077
0.008472
0.0233229
0.000282316
0.00015189
0.000163054
0.0290038
0.0379587
0.00014907
0.000154014
0.000244915
0.000148406
0.000162342
0.000254909
0.0356187
0.000154632
0.00016265
0.000150257
0.00019326
0.000149892
0.000160476
0.000227605
0.000149135
0.000147038
0.00841247
0.000163918
0.000189718
0.0408922
0.000176541
0.000150009
0.000147116
0.000148695
0.0350529
0.000215119
0.000942154
0.000169008
0.000148774
0.0351368
0.000148746
0.000184907
0.000155716
0.000150751
0.000162764
0.000148253
0.0273019
0.0242429
0.000146301
0.000171178
0.000164033
0.000251564
0.000164102
0.000167827
0.000189404
0.000158763
0.000207825
0.000168565
0.000148758
0.000159417
0.000168186
0.0149381
0.000148057
0.00013549
0.000165105
0.00016883
0.000149797
0.034607
0.000153724
0.000151861
0.00014683
0.000162303
0.000161536
0.000165476
0.000148745
0.000150088
0.00016883
0.00731637
0.000170109
0.000149001
0.000150721
0.000159377
0.000189382
0.000149057
0.000174758
0.000220652
0.000165873
0.0355354
0.000161578
0.0221128
0.000196093
0.000148063
0.000210636
0.00014955
0.00015313
0.000158003
0.000159026
0.000177544
0.000163836
0.000164278
0.00016512
0.000157418
0.000152362
0.0001456
0.00016872
0.000153136
0.000156963
0.000213679
0.000154179
0.000157748
0.000147435
0.0171899
0.000173721
0.000148828
0.000152348
0.000152037
0.019308
0.000184079
0.000158013
0.0336206
0.000198502
0.000209147
0.00017638
0.000194593
0.000147012
0.000183686
0.00014773
0.00015584
0.000227706
0.0301013
0.000196628
0.000225152
0.000148824
0.0166144
0.000146985
0.000173653
0.000153611
0.00490097
0.026287
0.00015389
0.000147968
0.000196104
0.00016237
0.000148016
0.0420249
0.000148669
0.000152008
0.000153188
0.000149533
0.000157325
0.000152138
0.00014877
0.000160067
0.000199566
0.000161548
0.000170087
0.00014801
0.0252785
0.030441
0.000147826
0.000192476
0.000153561
0.000157281
0.00412365
0.000147801
0.000150462
0.000156345
0.0385019
0.000148068
0.000149138
0.00016183
0.0111026
0.000147704
0.000158981
0.000160205
0.000211963
0.000164905
0.000161725
0.000188543
0.000148674
0.00017132
0.000145864
0.0197328
0.000156938
0.00014858
0.000154663
0.000176963
0.000148901
0.000148307
0.000182669
0.0301379
0.000148853
0.0200992
0.000149169
0.000145813
0.000170751
0.000148039
0.000147286
0.0135356
0.000149804
0.000161723
0.000183149
0.0587664
0.000207649
0.000147002
0.000153055
0.000156455
0.000148334
0.000148613
0.000148537
0.000483772
0.000149221
0.000206118
0.000179073
0.00014703
0.000146211
0.000156847
0.000179117
0.000192027
0.000165596
0.000170423
0.000151956
0.0353383
0.000172345
0.000157053
0.000161684
0.000169521
0.000176506
0.0209067
0.000161018
0.0203309
3.85273e-05
0.0294218
0.000152264
0.000147745
0.000161191
0.000159628
0.00014671
0.000148893
0.000174649
0.000149582
0.000148894
0.000148196
0.000145345
0.000150952
0.000147927
0.0253178
0.000147942
0.000225764
0.000148388
0.00017116
0.000149425
0.000179502
0.000170823
0.000148612
0.0218984
0.000152988
0.000149448
0.000161294
0.000146648
0.000158195
0.000147629
0.0315353
0.000152273
0.0001625
0.000170625
0.019764
0.000156241
0.000205627
0.000210739
0.000167103
0.000148109
0.000150062
0.000172831
0.000170735
0.0245038
0.000146289
0.040077
0.000148483
0.000168905
0.0264834
0.000160388
0.00432211
0.000153467
0.000157969
0.000153202
0.0286094
0.000157627
0.000148843
0.000166535
0.000182613
0.000150951
0.000148306
0.000148848
0.0592202
0.000149644
0.000155686
0.0420487
0.000154447
0.000148054
0.000168623
0.000153052
0.00442525
0.000145578
0.000148378
0.000146818
0.000155173
0.000148896
0.000148158
0.000169606
0.0412158
0.000147857
0.000148761
0.000767818
0.000148676
0.0194584
0.000151445
0.0443102
0.000146881
0.000152737
0.00014648
0.0210215
0.0405314
0.000157777
0.000167928
0.00015596
0.00014768
0.000148824
0.0314005
0.000148804
0.000173548
0.000146961
0.000162534
0.000149196
0.00525337
0.000146641
0.00016329
0.000146916
0.000196407
0.000209999
0.000146506
0.00016468
0.0228149
0.000170669
0.00552783
0.00279248
0.000188429
0.000152167
0.000158888
0.000176765
0.000219545
0.000148614
0.000160785
0.00015655
0.000147832
0.0188915
0.0462637
0.000171194
0.000183742
0.000195946
0.000159161
0.0380799
0.000146675
0.000146459
0.000177252
0.0130638
0.000188759
0.00018443
0.000218503
0.000146474
0.0306053
0.0239418
0.0149964
0.000149286
0.031308
0.0544045
0.000211541
0.000338195
0.0317201
0.000174127
0.000157067
0.000185574
0.000154711
0.000147919
0.000211528
0.000175743
0.000145518
0.0253555
0.000149172
0.000157104
0.000162265
0.000155426
0.000205118
0.000160063
0.0142016
0.000163124
0.000155261
0.000113652
0.0530779
0.000182185
0.000150209
0.000154806
0.000172562
0.000167081
0.000146602
0.000165235
0.000166509
0.000183004
0.000147957
0.000187082
0.000152601
0.000166496
0.0159164
0.000207998
0.000151702
0.000178217
0.0368383
0.000149137
0.000150284
0.0321893
0.000194746
0.000152199
0.000152402
0.000148465
0.000171387
0.000153144
0.0325125
0.000177492
0.000150206
0.000149438
0.00016599
0.000157035
0.000200961
0.0268997
0.000146993
0.000148089
0.000155438
0.000149219
0.000151883
0.000150458
0.000149801
0.000154821
0.000147486
0.000153202
0.00014949
0.000163972
0.000215282
0.000149735
0.0148443
0.0189566
0.000145865
0.000178584
0.000179184
0.000174137
0.00015056
0.000175621
0.000154523
0.000168151
0.000156345
0.000150756
0.000149335
0.0248901
0.000155475
0.00128704
0.000150574
0.000148583
0.000147958
0.000170461
0.000147755
0.000165347
0.000168692
0.000232382
0.000147205
0.00019562
0.000245017
0.0330684
0.000146421
0.000182145
0.000205224
0.000244123
0.000208706
0.000150655
0.000149023
0.000182804
0.000217388
0.000145736
0.000161691
0.000192756
0.000149498
0.000146916
0.000163044
0.000149226
0.000149419
0.00018437
0.000149743
0.00016915
0.000146823
0.0503939
0.0217334
0.00116795
0.0142666
0.0309698
0.000149243
0.000148872
0.00968769
0.000146389
0.000146576
0.000145823
0.000177358
0.0432608
0.0260725
0.000156072
0.000148326
0.000150691
0.000161711
0.0196272
0.000148066
0.00300128
0.0503674
0.000149182
0.00014918
0.0236335
0.000172832
0.000150687
0.000148269
0.0182982
0.0352503
0.000147779
0.00018675
0.000149655
0.0340932
0.000268817
0.000151198
0.0347745
0.0193783
0.00121095
0.000146714
0.000148568
0.000149591
0.000149905
0.041537
0.00014729
0.000185997
0.000195063
0.0225108
0.00014963
0.000169325
0.000197867
0.000165676
0.00761922
0.056715
0.000145426
0.000153308
0.000153433
0.000181532
0.0348591
0.000145251
0.0160856
0.000158976
0.000162344
0.000150611
0.000147411
0.000193311
0.000162075
0.0230794
0.000149225
0.000168488
0.000149436
0.000179667
0.000151804
0.0405894
0.000176428
0.000187816
0.000175683
0.000147885
0.000152037
0.00017477
0.000178698
0.038326
0.0179693
0.000148894
0.00410705
0.000169537
0.0577232
0.000154495
0.000163579
0.000161647
0.000148155
0.00580975
0.000148322
0.000158038
0.0212732
0.049169
0.000210779
0.044541
0.000156152
0.000164928
0.000146263
0.0509297
0.000155331
0.000187992
0.000146207
0.01091
0.000145196
0.000147807
0.000157739
0.000158431
0.000159204
0.000147943
0.0253252
0.000162782
0.000147328
0.000161213
0.021378
0.000200285
0.00014861
0.0606643
0.000152478
0.000158731
0.000157794
0.000145742
0.000170571
0.000147778
0.000234475
0.000170611
0.000154437
0.000148297
0.000194893
0.000161448
0.000146216
0.00316153
0.000216526
0.000190086
0.000146213
0.000210195
0.000148876
0.000181319
0.000154897
0.000176059
0.000228607
0.0246027
0.000159792
0.0440041
0.000166768
0.000156405
0.000146587
0.0130773
0.000175154
0.000177978
0.00016566
0.000149586
0.00888915
0.000175207
0.000195722
0.000190388
0.0289109
0.0254174
0.0002475
0.0343991
0.000156792
0.000158578
0.000148552
0.000148077
0.000145344
0.000184916
0.00015672
0.000159434
0.0613224
0.000147454
0.000146774
0.000161868
0.000182667
0.000155106
0.000146594
0.0523332
0.000151941
0.000164014
0.000149094
0.0271951
0.000156843
0.0221956
0.000165695
0.00015885
0.000167662
0.000148508
0.0123486
0.000197349
0.000171923
0.000148378
0.000147144
0.0148976
0.0524216
0.0307074
0.000147021
0.000172357
0.000203975
0.000148005
0.000147837
0.000148356
0.0434337
0.000170343
0.000159873
0.0001549
0.000153634
0.0173223
0.000174413
0.00019082
0.000154064
0.000158013
0.000145332
0.000177115
0.000168448
0.000148336
0.0306116
0.0581237
0.0442362
0.0288749
0.0492602
0.0214467
0.011588
0.000151756
0.000147093
0.0037439
0.0332179
0.0002111
0.000148522
0.000161425
0.000148814
0.000147807
0.00244087
0.0493734
0.00016976
0.000147853
0.00019585
0.000176195
0.000165234
0.0256098
0.000209866
0.000193149
0.000147183
0.04067
0.000427008
0.000194569
0.000157768
0.000162455
0.000149534
0.000146898
0.000161244
0.000164089
0.000152539
0.000161362
0.000155046
0.000153467
0.000188569
0.0235543
0.000158652
0.000162145
0.0328383
0.000187136
0.000148804
0.000189421
0.000206315
0.0181966
0.000162317
0.000148294
0.000156265
0.000154718
0.000157756
0.000145734
0.000159305
0.000157228
0.000163586
0.000187376
0.00014949
0.000150452
0.025231
0.0325978
0.054087
0.000197945
0.000178006
0.000145069
0.00014872
0.000156847
0.000146189
0.0311584
0.000148597
0.000149801
0.000145986
0.0308527
0.00128476
0.000150002
0.000169309
0.000155826
0.000160747
0.000156685
0.000160035
0.000161375
0.000160769
0.0248554
0.000153781
0.0328156
0.000161688
0.0551004
0.000156348
0.000147329
0.000146549
0.000176254
0.000182832
0.000146557
0.000162176
0.000156451
0.000169381
0.0128046
0.0320228
0.00276528
0.000149799
0.000204345
0.000157359
0.000160812
0.000148265
0.00017186
0.000151762
0.0198391
0.000237516
0.000162668
0.000148495
0.032209
0.000156019
0.0231493
0.0308797
0.000188791
0.000152437
0.000181289
0.00875639
0.000203627
0.0344451
0.000169674
0.000147566
0.000161979
0.000147051
0.00635044
0.000152975
0.000157884
0.00019585
0.0572772
0.000147364
0.000147803
0.045905
0.000162605
0.0297577
0.000159085
0.000148255
0.000162875
0.000187965
0.000162516
0.00107602
0.000160462
0.000202279
0.000152938
0.000149588
0.000147649
0.000191832
0.000150719
0.000176653
0.000148828
0.000147927
0.000190183
0.000153734
0.000148182
0.000148066
0.000159948
0.000201455
0.000162371
0.000161313
0.000155115
0.000169818
0.000148435
0.000181177
0.000157029
0.000162777
0.000166571
0.000155318
0.000171645
0.000163014
0.000146908
0.000170602
0.0544225
0.0235145
0.000148202
0.000236547
0.0227525
0.00014786
0.000150806
0.000202715
0.027575
0.000156533
0.0226643
0.000196432
0.000148139
0.00017409
0.000145317
0.000153661
0.000169842
0.000246878
0.000190353
0.000191385
0.000196624
0.0291684
0.0371879
0.000150829
0.030469
0.000148471
0.000316421
0.0360953
0.000148558
0.00014841
0.0227638
0.000149272
0.000148532
0.000194058
0.0355146
0.000188846
0.00015377
0.0326112
0.000148567
0.0315691
0.0261317
0.000149192
0.000209643
0.000243217
0.0378806
0.0241779
0.0267582
0.0219339
0.000146932
0.000151781
0.000169839
0.000170061
0.000148521
0.000187241
0.000148347
0.0273497
0.000192667
0.000163934
0.000190528
0.0278974
0.00019219
0.000188652
0.000165495
0.022372
0.000199178
0.000152944
0.0001455
0.000554559
0.000160374
0.000146351
0.0399179
0.000147946
0.000740502
0.000149394
0.0463302
0.000153093
0.00014791
0.000288665
0.000156187
0.000160301
0.0204357
0.00151161
0.000243684
0.000154946
0.000163498
0.000151607
0.000161251
0.00018063
0.000161475
0.00014939
0.000234011
0.000169505
0.000159048
0.02101
0.000161773
0.000161438
0.000185227
0.00017272
0.000163058
0.000147869
0.000186753
0.000146548
0.000180329
0.000212213
0.0299883
0.000146873
0.000161451
0.0301769
0.000150558
0.000170851
0.000157292
0.000162519
0.0117448
0.000169258
0.000152135
0.000785569
0.000146947
0.0317999
0.000148705
0.000150163
0.00017997
0.031237
0.000158606
0.000186716
0.000197729
0.000157287
0.0001485
0.000174933
0.000163956
0.0597735
0.000155517
0.000237378
0.000182495
0.00015728
0.000156351
0.000174106
0.000160832
0.0001673
0.000169129
0.000161802
0.00015216
0.000148284
0.000226801
0.000148333
0.000155969
0.00014548
0.0001778
0.000156181
0.000168882
0.0292918
0.000151625
0.00018922
0.000144862
0.000149366
0.000149174
0.000149359
0.000154107
0.000147378
0.000174269
0.0203806
0.000168597
0.000163535
0.000152724
0.000148049
0.000206652
0.000148369
0.00300534
0.000216424
0.0329834
0.000182145
0.000159824
0.00015462
0.000149099
0.000157638
0.000169777
0.000163481
0.0377642
0.000168339
0.0617934
0.000182265
0.000149339
0.000146667
0.0231942
0.00014773
0.000156368
0.000165848
0.000196097
0.000150692
0.043063
0.000149149
0.000153839
0.000148847
0.00015039
0.000175181
0.000177409
0.000148716
0.000157986
0.000159724
0.000163738
0.000167824
0.000194728
0.000188209
0.000190903
0.000180923
0.000153965
0.000150334
0.000167601
0.0309612
0.00766077
0.0333825
0.000157562
0.000194428
0.000177121
0.000149802
0.00014776
0.000169194
0.000148852
0.000157969
0.0263632
0.000147749
0.000146688
0.000200478
0.00315569
0.000164077
0.000211401
0.000149221
0.0175799
0.000163085
0.0548243
0.000157364
0.000148367
0.03205
0.00016529
0.000148562
0.000169816
0.000149652
0.000180884
0.000156163
0.000164679
0.0323006
0.000159453
0.00434062
0.000147339
0.0594363
0.000149161
0.000153921
0.000149514
0.000164783
0.00014885
0.000165385
0.0322316
0.000218127
0.000165502
0.000158401
0.000167866
0.00014733
0.000147612
0.000150199
0.000201291
0.000152996
0.047987
0.0235595
0.000180025
0.000149376
0.000181689
0.000187324
0.000183163
0.000153751
0.0308812
0.000147973
0.000145051
0.000147799
0.000240963
0.000148101
0.000148396
0.0329887
0.000147826
0.000184634
0.000170436
0.00014684
0.0394181
0.000155498
0.0467593
0.000147488
0.000219471
0.000150138
0.000166817
0.0348346
0.000170459
0.000147539
0.000154681
0.0039451
0.00015783
0.000182213
0.000157273
0.000154282
0.000179339
0.000156764
0.000148704
0.00753276
0.000156461
0.000155431
0.000182067
0.000147901
0.00014689
0.000149185
0.000157281
0.000149113
0.000154275
0.00609806
0.016389
0.000170353
0.0112268
0.0001689
0.000159177
0.0576853
0.0577787
0.000150167
0.0193008
0.000206874
0.0237507
0.000211932
0.000157417
0.00295589
0.0343051
0.0200961
0.000211407
0.0145453
0.000162509
0.000168645
0.000157337
0.00015374
0.000148748
0.00022285
0.00014989
0.0218762
0.000172531
0.000187114
0.000145234
0.000172192
0.000163264
0.000152494
0.000149954
0.00014867
0.000172109
0.000151094
0.000148693
0.000161695
0.0560784
0.000151918
0.000181846
0.000146585
0.000172146
0.00016848
0.000149234
0.000154889
0.000147396
0.0457834
0.0386684
0.000184619
0.000301807
0.000159503
0.000175346
0.000148874
0.000161908
0.000148152
0.000148976
0.000149511
0.0214399
0.000146334