/*--------------------------------*- C++ -*----------------------------------*\
| =========                 |                                                 |
| \\      /  F ield         | OpenFOAM: The Open Source CFD Toolbox           |
|  \\    /   O peration     | Version:  v2012                                 |
|   \\  /    A nd           | Website:  www.openfoam.com                      |
|    \\/     M anipulation  |                                                 |
\*---------------------------------------------------------------------------*/
FoamFile
{
    version     2.0;
    format      ascii;
    class       volScalarField;
    location    "650";
    object      omega_0;
}
// * * * * * * * * * * * * * * * * * * * * * * * * * * * * * * * * * * * * * //

dimensions      [0 0 -1 0 0 0 0];


internalField   nonuniform List<scalar> 
13851
(
0.0749649
0.0228977
0.0228328
6.35004
0.0220809
0.0238172
0.0228035
0.0217935
3.77455
0.022053
0.0475343
0.0220751
0.0221296
5.72598
0.0278944
0.0853188
7.76084
0.0218106
0.151203
0.0747897
0.0298603
0.0245675
18.2163
0.0222638
0.347774
0.0429784
0.202163
0.252336
3.40925
0.0217379
8.48858
0.0227997
0.0741263
5.10111
0.0339605
3.36442
0.022274
0.638505
7.52913
0.0220194
5.47046
3.53223
20.9486
0.403984
3.76215
0.0218525
0.021594
0.079002
0.0227573
0.022122
6.6331
0.0222072
0.0848099
0.0255062
5.46217
0.022026
0.0752234
5.28467
0.192222
5.72894
0.022083
0.163934
0.0221037
0.0228387
0.178469
0.187043
7.52818
0.0658576
0.0220023
6.90995
6.67224
0.033995
0.0220117
6.67795
0.0260899
0.0231204
6.40912
0.0216567
0.339543
0.0219368
0.0220084
0.175042
0.0338055
5.34924
5.578
7.99644
0.0246218
6.58572
0.0220349
8.86211
0.0222481
0.0228353
21.8235
6.98666
5.97596
0.252163
0.0218906
0.085711
6.72717
0.115702
0.0881915
0.0422766
0.0449276
0.0220575
0.0218294
0.0334064
0.0218332
7.18871
0.0228295
0.0217996
0.0283516
0.0218477
0.0925478
0.0431481
0.0741604
0.025202
0.0217632
0.0217658
6.26733
8.08812
0.159721
0.0217497
0.0220102
4.07933
0.124783
0.116791
0.0218883
0.045289
4.8246
0.032071
0.0245296
0.0266464
0.488898
5.04084
0.0479112
6.21463
0.0630725
7.4301
0.0347809
0.0317306
0.168953
0.0225882
0.0220358
0.0979148
0.30165
0.023048
0.0216519
7.29563
3.44815
0.0472119
0.0873865
0.0909782
0.0454209
0.123482
0.0222938
0.0220731
0.0220987
7.10187
0.0302373
0.0225343
0.0222429
3.38527
0.0327824
0.079013
5.41361
3.9805
4.04541
5.77907
0.0279034
4.17787
0.0220988
0.0217674
0.0392108
0.0221389
6.36703
0.180272
0.0922985
0.0217535
0.0260946
0.0903438
0.120934
0.372506
0.0270766
0.0317633
22.1818
3.41667
0.0744358
0.0291378
0.02222
0.021786
0.305808
0.0302136
7.75041
0.0238398
0.0229341
0.0853166
0.0724782
0.0218808
0.0219591
0.0681292
0.172156
5.74825
5.44488
0.0278321
2.13994
5.42299
0.0237798
0.0314272
3.85985
0.0236108
0.0855154
0.0220007
0.174719
0.0222335
0.0342979
0.0235823
0.0221034
0.114574
0.0219312
3.97726
0.0217524
0.0746967
6.14887
6.27886
0.0287947
0.0317379
0.0222634
0.086831
0.0220042
0.0339308
14.0547
0.0289681
0.0235894
0.0221261
5.32021
0.021732
9.34425
5.45087
0.102849
0.0222512
0.479433
5.64089
3.81913
0.0843634
0.0265725
0.126431
0.10413
0.0262021
0.234356
0.0294703
6.23108
0.0760381
0.0218246
0.023607
0.0870522
3.33821
4.50323
0.0217848
0.123102
0.0220309
0.100765
0.123275
0.0237664
0.0331004
0.0786809
0.0219645
0.0436371
0.0671267
0.248255
0.0220806
0.0220998
0.0289958
4.37611
7.60613
0.0319253
0.0217557
0.121847
0.123089
0.066569
0.032689
4.28981
6.74459
0.0240067
0.0265326
1.05728
0.0218153
0.0220983
0.0683582
0.0432154
0.0217248
0.0222309
0.0219963
0.0219957
0.0263942
0.0220913
3.85619
0.0306898
0.0219244
3.29794
4.08296
0.0222229
0.0757548
6.33806
0.0226639
0.0222465
0.0316071
5.69765
9.65569
0.0418834
0.0220716
3.70162
0.0220907
0.0448785
5.50638
0.247963
0.022472
0.715936
0.375467
7.64224
0.0907212
0.0453699
6.74572
4.23691
0.255411
0.0219931
6.29334
19.6158
0.674382
0.624378
0.0238019
0.0418566
0.0286666
5.91039
0.0475145
0.0218673
0.0215407
0.0250693
6.95287
3.30415
0.0218094
6.01421
0.0289599
0.0268421
0.0225804
6.64262
0.120181
0.0860745
0.0234463
0.0233544
3.24276
0.022227
0.12763
0.0239485
0.0315948
0.0294775
0.0220303
0.0219201
0.0935896
0.123323
0.0761944
0.446567
3.30126
0.023093
5.25253
0.118684
0.0216711
0.246607
0.0541651
5.68427
0.0247206
0.0458107
0.189884
0.415634
0.091394
5.04579
0.0222329
0.192606
15.5714
0.02556
4.79651
0.0266587
5.78429
0.026359
0.0294008
0.0769456
0.156242
0.022077
0.0238502
0.0461065
0.0262151
0.0218718
0.0321011
4.79747
0.0220044
0.0315656
6.80358
0.0229327
1.22513
0.0310246
9.40554
0.0238663
0.0410597
1.57953
0.125716
0.0330931
5.26414
6.59466
0.42986
0.0219725
0.0923889
0.0268974
0.0450295
0.0217645
21.5602
5.09057
0.400154
0.0233137
0.0780735
0.164781
7.1642
0.0215904
7.57407
0.17169
23.2855
0.0301756
0.264605
0.0220448
0.0221259
6.40039
0.167585
0.0220503
0.0229246
0.0319247
0.0218018
4.87957
0.0419553
0.0533768
0.023448
0.0222373
0.0222394
0.412124
0.0219253
0.0222164
3.53836
4.75677
0.0243212
0.151076
0.0221109
0.0220905
0.0231001
0.0779519
0.0309138
0.0218791
0.0223084
0.149063
0.0224745
9.74771
0.0220706
0.0241109
3.8309
0.0338547
0.021588
0.0221168
0.0234231
0.0219425
0.450931
3.70328
0.0266782
10.6681
0.0231065
0.0220498
4.5305
0.187058
0.0343634
0.0220148
4.13905
0.0342435
2.60941
0.0220594
0.0266751
0.0934768
0.0269058
4.42451
0.17433
0.376493
0.0235019
0.0919869
0.021958
3.34174
0.030923
0.0722889
0.0267187
0.0232906
0.0337469
0.0395378
0.0220933
7.48353
4.40226
9.7267
7.19266
3.6952
5.44309
0.12667
0.027765
0.0222062
1.99815
0.0220552
0.0218725
0.0296005
6.46937
0.022767
0.0226031
0.0716908
0.0339241
0.0220669
3.74252
0.021898
4.90174
0.440939
0.0219309
0.0224858
0.16878
0.248787
0.0217313
0.976078
4.57833
0.0216371
7.69183
0.147351
0.0742614
0.0234874
3.47052
5.69525
0.021646
0.150102
0.0220042
0.0218966
3.16778
5.90938
0.0293144
0.0305519
0.0220583
0.0372153
4.94265
6.83357
0.0217041
6.46687
0.0218794
0.0220098
0.0332839
0.0241301
0.0215861
0.023146
7.80805
0.144251
7.2839
0.022632
0.0220259
4.37482
0.0221772
0.0924303
0.0240976
0.0261052
0.026569
3.94899
5.78284
0.0237194
7.68153
0.0223801
0.0425295
3.59957
4.20481
0.0220204
0.0219628
0.0452759
7.38746
0.140444
0.036656
5.32015
0.0241905
0.0260062
15.904
5.14883
0.11711
4.7644
0.100249
3.4453
0.0221334
0.192201
0.274839
0.0220724
13.8527
6.56956
0.0278239
0.0318392
0.0220163
7.42863
0.0583214
11.8415
0.0219297
0.0221655
0.0265338
0.0335786
0.0220805
6.13068
0.0221598
0.0974537
0.0235742
0.0459129
0.022053
0.0220682
0.0395459
6.63737
0.0331899
5.94104
0.0267279
0.0218087
0.0217048
0.0397417
0.0223093
0.0610938
0.022979
0.0339042
0.191689
0.0221796
5.42991
0.022253
0.0595663
6.88353
3.98612
0.0292029
8.41989
0.0699723
0.166629
6.61105
0.0217419
5.79058
0.02892
0.0259734
7.24929
0.267254
0.0216774
0.0599225
0.0218668
3.32823
6.89279
0.0220421
0.0682685
4.94462
0.0222628
0.0222512
0.0434957
6.81852
2.84378
0.0222513
0.0771542
0.0223841
0.0220663
0.191698
0.0782213
0.106892
0.0215807
0.0670756
0.0431564
0.0386782
0.0227221
0.0228225
0.0562868
0.0263498
0.0729357
0.0336597
0.0337952
0.0997278
1.78505
0.149581
4.35252
0.875747
0.0833902
4.09218
0.0360827
3.31407
0.0762966
0.0218024
0.0257499
0.131948
0.0248615
0.021939
0.0219361
0.0593891
5.50018
0.0241866
5.23374
0.0218123
3.19653
0.114928
6.38749
0.0600941
0.0239336
0.0228256
5.74274
0.105101
0.0347346
0.174151
0.0221531
1.33621
0.0598388
0.0981738
0.0267345
0.216958
0.0220404
0.0222445
0.0234854
0.0220654
3.60707
0.0219962
0.1899
4.29053
0.0613692
6.89625
6.11634
0.100897
0.17232
0.0286731
0.0221848
0.0220851
0.0216651
0.021705
0.0221407
0.0425388
0.0887059
0.0465446
0.251519
0.0226655
3.78519
0.0222935
6.92064
0.0323647
0.0222836
0.0221397
4.0059
0.0239085
2.31338
6.45689
0.0308947
0.0425026
0.0216253
5.07991
0.0238345
0.0227911
0.19106
0.0221874
0.0225707
0.0217457
0.0309114
5.4952
0.0255117
0.0267731
0.176937
6.42845
0.0290578
0.0256129
3.56122
0.0216652
3.48751
0.0222019
0.0224771
0.326289
0.0489989
0.0727813
0.0609358
0.0333258
0.0222281
0.0222936
0.045064
0.0221551
0.0222361
0.0244045
0.176891
0.0219783
0.158791
1.19501
1.57253
0.0602076
10.564
0.0358921
0.0221804
0.0913397
0.0218257
0.0238608
4.21321
3.2719
5.44471
3.68346
0.0220815
0.0220335
0.060468
0.0227335
0.0217872
17.253
0.103114
4.56471
0.0603502
0.0498975
0.0220671
0.0217431
0.835959
0.0536119
0.0226061
0.0222545
0.0729849
0.10219
5.41492
0.0222846
0.0221502
6.71187
0.0227026
0.0266176
0.0218077
6.48802
0.0218644
6.27889
0.0220787
0.094613
0.0288367
0.0609471
0.0267832
0.0220132
0.0229533
0.0220183
0.18892
0.022675
3.55812
0.0221863
0.5535
4.52766
0.0261173
0.0219998
6.38071
3.76368
0.0239274
0.0488953
0.0220833
6.17731
0.0218104
0.131765
0.0220596
0.0220149
1.53671
0.0266442
0.0221063
0.0257064
5.0063
4.34098
5.14116
0.0217906
3.95494
0.0220726
0.021986
0.0222874
0.0215128
0.022232
5.4853
4.37728
0.0219391
0.0221559
0.0294862
0.0218471
6.88022
0.0927599
4.50221
6.97221
0.022937
0.0725842
0.022065
0.0298559
0.0960679
0.021729
0.0222101
0.521313
6.29006
0.0414827
17.3655
0.0391568
0.0221067
0.030449
0.0495798
7.60488
0.0259325
0.189237
0.05469
0.0222227
15.0558
15.2162
4.13593
0.305956
3.10487
0.0234291
0.122594
0.0222215
0.232123
0.0245004
0.0218689
5.3164
0.022615
0.0220011
0.0220185
0.0225264
6.20168
0.128489
0.0218471
0.0308576
5.74274
0.0226137
15.9008
0.0231563
0.0472142
5.91613
0.022094
0.169981
0.0263587
0.0267533
5.30619
0.0225919
0.170662
0.0405396
5.31067
0.0218917
4.22338
0.0254474
4.20795
7.49646
5.66259
0.030879
0.0220337
0.0220842
0.0222629
0.0286972
0.0221279
4.57087
0.0265796
0.027443
0.0288588
0.0233436
0.0217907
0.02379
0.0250036
0.022487
0.0250688
6.75102
0.188043
0.0250754
0.0413382
5.29567
0.0226392
7.18854
0.0216779
0.0301227
0.0226923
0.0218583
0.0381627
0.0220445
0.0218424
0.0451004
0.0220802
0.176606
0.0222319
15.1978
0.234712
0.105838
0.135318
0.0218641
6.52735
0.0846237
0.022225
0.024995
0.0225221
7.89371
0.023182
0.0435614
0.248426
7.33748
0.0602165
0.0219363
3.94104
0.244772
3.26592
0.026364
0.0217999
0.0216929
0.041914
0.0220389
6.7466
0.0935554
0.0221965
0.117521
0.176827
0.0217384
6.54801
6.65269
0.100928
0.0222351
3.90485
0.0421561
0.0220146
6.18487
0.0254582
0.021741
0.0219172
0.0256709
0.0288072
4.01933
9.97463
0.0292313
4.07318
0.0263165
0.022021
0.0816349
0.0219433
0.550632
0.0217156
0.0220434
0.0233843
0.0221295
4.39311
5.55486
0.131532
5.88254
7.90298
0.0286161
0.0220064
0.0222375
0.173133
0.0217033
0.021818
0.0337972
0.332757
0.181665
0.021635
0.0326072
0.0268326
0.0746052
16.7114
0.0216322
0.0215759
0.0224456
0.388861
0.0243683
4.97233
0.0228324
0.0221619
0.0217403
0.0219074
0.0235506
0.0999617
3.48627
3.91342
0.0288907
0.0220506
1.3578
0.0219433
0.256353
4.71294
0.0299163
6.03595
3.53501
8.96978
0.03526
0.0258111
3.82337
0.0254309
0.0317149
0.061436
0.167204
0.0221511
4.10361
0.0220252
4.03112
0.398511
0.0216815
0.0235772
0.0391546
0.17578
0.0264626
0.0221416
0.0241935
0.023307
0.0233367
0.854491
0.0221637
3.84445
5.48819
0.022027
0.0254421
0.0285882
0.0220783
3.22055
15.8865
6.63047
3.18197
0.0220319
0.0235531
0.0243334
0.0222831
0.13072
0.0265872
0.0222578
0.0388492
0.0257796
2.037
0.0289058
7.01736
0.0231956
0.0226614
0.0489912
0.0539248
0.044526
0.0219729
17.0582
4.17488
20.4309
5.44888
4.17986
3.97047
4.26023
0.0219784
0.0220263
0.0218143
0.13878
0.0306035
0.044531
7.82488
0.0218654
0.0216575
0.0220555
0.129549
0.0216423
0.0237331
0.0231453
3.39324
0.0228337
0.0218342
0.0220841
0.0219372
0.0221624
0.0328385
0.130184
0.0317803
4.22169
0.0220334
0.0219054
4.78895
4.72403
6.1945
2.24787
0.045637
3.11678
0.0217963
0.0515073
0.0226725
0.0220828
0.0227147
6.11032
0.0222776
0.054524
0.657667
0.021909
0.0218506
0.0261953
0.102193
0.0222715
3.44641
0.0218028
0.123759
0.0221326
0.0219408
0.0239425
0.0836249
0.0221375
0.206457
6.95795
0.116319
5.01284
0.0220464
6.62024
0.198067
0.0220476
0.406134
0.0222797
0.0411846
0.0222255
0.0218266
0.021953
0.0220687
0.0222021
0.0271419
0.0409456
0.0219678
0.0221061
0.0602079
0.021658
6.91929
0.0221343
0.0260849
0.0262405
4.94613
0.255426
0.0221473
0.102445
0.0218036
0.0250685
0.0543656
1.65448
0.0317565
0.0222719
0.0648404
0.0705102
0.0493382
0.192623
0.0333985
0.0816181
0.0365964
0.041482
0.0227792
0.0217618
1.39061
6.47457
0.0233073
0.0220107
16.0223
0.0218141
0.0298065
0.0219471
0.0599764
0.465202
0.0215351
7.09171
0.0237097
0.0221695
0.0909769
0.0218702
0.0400762
3.11824
0.0293883
1.60567
0.0219474
0.0222644
0.043951
0.0222252
0.0222486
0.0241335
0.0250992
0.0412473
0.0620385
0.0220758
0.032682
0.0217597
0.0220576
0.0222142
0.0220503
0.512251
0.0217406
0.0232088
0.151157
0.0218096
0.0219986
4.53366
0.0222516
15.0581
0.0223505
4.48257
0.117357
0.0487326
0.841168
0.0455659
1.47752
0.0220235
0.103718
0.0246272
0.0217526
0.0218568
0.0232125
0.025533
0.0219301
0.0421227
0.0218909
0.022622
16.8443
7.02941
2.4625
0.022687
0.0450053
4.87457
11.2353
0.0221716
0.0236136
1.33038
0.0219056
0.0309285
0.54659
3.91505
0.0238533
0.0297562
0.022475
0.1793
0.0222851
0.0333715
0.253101
0.0221424
0.0217985
6.03441
0.0324165
0.13485
5.06754
0.0594066
0.0223979
0.0218958
0.0219567
5.64052
0.268633
2.31245
0.0410755
0.022063
4.76384
0.022115
0.0924493
0.0268445
0.0223432
0.0300525
0.0220534
6.49154
7.56558
0.021604
0.0417643
0.0311054
0.578439
0.0323547
0.0364643
0.133202
0.0262512
0.187183
0.0376884
0.0221174
0.026805
0.0790295
3.6156
0.0220277
0.189697
0.0337277
0.038263
0.0222722
8.51506
0.023529
0.0232406
0.021798
0.0318071
0.0306681
0.0499313
0.0221249
0.022421
0.0445167
23.5337
0.0436838
0.0221589
0.0226763
0.0267538
0.112289
0.0221701
0.0624191
0.870331
0.0398596
4.12674
0.0285186
6.74547
0.167426
0.0219778
0.35349
0.0222385
0.023778
0.0257889
0.0267226
0.0594924
0.0309729
0.0372534
0.0380412
0.0260371
0.023456
0.0216377
0.0736332
0.0232694
0.0278054
0.245789
0.0243498
0.0278638
0.0219318
4.40179
0.0578565
0.0220745
0.0229831
0.0233997
5.7131
0.0917835
0.0257902
3.74686
0.184838
0.369706
0.0547564
0.178579
0.0218734
0.2866
0.0218113
0.02695
0.798129
3.1874
0.162593
0.54728
0.0221272
6.86546
0.0218699
0.0486663
0.0243071
2.94233
5.56307
0.0233939
0.0220206
0.157141
0.0427563
0.0220135
5.74051
0.0220829
0.0233342
0.0232685
0.0222284
0.0260973
0.0234537
0.0220624
0.029756
0.215218
0.0288178
0.0436832
0.0220098
5.86615
3.24365
0.0220005
0.157902
0.0242616
0.0286324
3.67096
0.0219968
0.0225812
0.02711
4.74878
0.0220243
0.022182
0.0295822
3.21619
0.0219835
0.0302527
0.030855
0.241912
0.0338027
0.0295764
0.115952
0.0220875
0.106369
0.0217001
6.21504
0.0259498
0.0220601
0.0237781
0.0600952
0.0221494
0.0218884
0.0771196
3.71263
0.0219333
5.53982
0.0221861
0.0216884
0.0411815
0.0220268
0.0217386
5.86507
0.0222732
0.0290926
0.0893257
8.11324
0.227631
0.0216922
0.0241127
0.0276318
0.0220709
0.0220383
0.0220939
1.38059
0.0221933
0.187147
0.0664766
0.0217902
0.021665
0.0255587
0.0666692
0.155731
0.0491508
0.0434586
0.0232154
3.83205
0.0582152
0.0250382
0.0288213
0.0524128
0.0560989
24.4336
0.027987
3.47332
0.631438
9.76989
0.0229454
0.0218965
0.0295845
0.0340383
0.0217201
0.0219358
0.100237
0.0222428
0.0220691
0.0220463
0.0215812
0.0224289
0.0218418
6.94706
0.0220174
0.477032
0.0220784
0.0689541
0.022165
0.0673988
0.0620849
0.0220384
4.41089
0.024084
0.0222244
0.0285293
0.0217518
0.0291823
0.0218105
3.59196
0.0233181
0.0301401
0.100097
4.32723
0.026395
0.185706
0.239674
0.0412442
0.0218632
0.0222763
0.0867763
0.041634
6.87476
0.0217253
9.03882
0.0220067
0.0811801
9.48565
0.0292792
2.84296
0.0240114
0.0260708
0.0240014
7.79894
0.0265216
0.0221415
0.0406096
0.0772859
0.0226707
0.0220392
0.0221421
7.33744
0.0222513
0.0258308
4.85726
0.0249837
0.0219722
0.0449238
0.0237191
3.36163
0.0216562
0.0220173
0.0218513
0.0261284
0.0220146
0.0218779
0.039169
4.53364
0.0219534
0.0221116
1.57754
0.0218751
6.75401
0.0224838
8.83995
0.0218028
0.0237499
0.0218004
3.55696
4.96293
0.0281087
0.0613216
0.0270534
0.0219038
0.0221244
3.64913
0.0221363
0.04854
0.0217385
0.0294887
0.022189
3.7651
0.021823
0.0303501
0.0218155
0.297118
0.419449
0.0217415
0.0381553
6.88509
0.0410528
3.24582
2.46517
0.144304
0.023465
0.0268386
0.0557486
0.250828
0.021842
0.0278229
0.0276317
0.0219066
3.77413
11.7678
0.0418123
0.0824313
0.159864
0.0285385
4.36004
0.0217146
0.0217404
0.0610034
7.00068
0.109608
0.0908569
0.242232
0.0217959
8.21248
3.65907
9.18326
0.0222022
5.63092
9.91585
0.440635
3.34088
3.83754
0.0499618
0.0259123
0.092946
0.0256154
0.0219312
0.345022
0.0530664
0.0216242
4.65598
0.0221866
0.0273317
0.0295558
0.0262759
0.253474
0.0332861
7.09208
0.0301434
0.0261886
0.196992
6.40386
0.0751359
0.0224378
0.0257743
0.0452412
0.0499136
0.0218205
0.0337555
0.0548887
0.0823641
0.0219474
0.0994298
0.0235885
0.0405082
3.68458
0.187922
0.0231842
0.0901862
5.63823
0.0221441
0.0224918
10.1666
0.168978
0.0231643
0.0231138
0.0220872
0.0567513
0.0231718
3.51622
0.0597134
0.0224787
0.0222231
0.0624123
0.0269256
0.198664
6.05125
0.0218392
0.0220274
0.0251145
0.0221931
0.0229251
0.0225506
0.0222489
0.0256336
0.0219142
0.0240071
0.0222101
0.0311356
0.249792
0.0222638
4.73216
10.1328
0.0216986
0.190302
0.0871427
0.0615442
0.0226175
0.0528883
0.0239927
0.0731212
0.0249572
0.0225944
0.022209
6.76406
0.0241306
1.91028
0.0226268
0.0220472
0.0220139
0.0551082
0.0219465
0.0329892
0.0377547
1.05996
0.0219014
0.167176
0.452944
4.18918
0.0217898
0.0827698
0.788684
0.439384
0.291421
0.0226302
0.022111
0.100896
0.240546
0.640663
0.0290177
0.160288
0.0222314
0.0217557
0.0353383
0.022194
0.0221775
0.0933617
0.0222648
0.0831921
0.0217926
6.07253
4.83552
1.72282
3.62517
4.25176
0.0221499
0.0221435
5.14807
0.0217327
0.0217487
0.0216864
0.0838412
5.23993
6.46546
0.0270135
0.0218249
0.0226011
0.0336181
5.1435
0.0220342
2.53017
6.18705
0.0221876
0.0221816
3.95489
0.0465604
0.0223157
0.02204
5.06887
4.55934
0.0218227
0.103418
0.0222528
4.11605
1.71057
0.0224057
13.2848
7.36103
2.5795
0.0217849
0.021841
0.0222441
0.0222868
4.82587
0.0218773
0.152496
0.180366
7.64254
0.0221936
0.0431287
0.180999
0.0341336
4.73706
7.30392
0.0216323
0.0233403
0.0234165
0.0831169
4.1511
0.0215725
5.1192
0.0292428
0.0294747
0.0226406
0.0219422
0.144972
0.0306218
7.15
0.0221938
0.0404579
0.022154
0.0677058
0.0227848
4.42323
0.201764
0.162755
0.0562108
0.0219416
0.0232668
0.050331
0.177063
4.2869
6.33012
0.0221485
2.74738
0.0835003
7.43612
0.0236558
0.0322212
0.0295985
0.0218999
3.9672
0.0220651
0.0260248
3.25395
5.79563
0.376057
5.22273
0.0262164
0.0324927
0.0216957
6.17048
0.0255416
0.303118
0.0216843
3.98055
0.0215411
0.0219915
0.0258734
0.0304035
0.0305873
0.0219329
3.60905
0.0298305
0.021882
0.0303425
3.70311
0.355889
0.0220423
8.14568
0.0234037
0.026291
0.0255849
0.0216864
0.0429372
0.0219844
0.695357
0.0647752
0.0236769
0.0220289
0.175686
0.0291508
0.0216834
2.83628
0.273763
0.118278
0.0215952
0.236567
0.0221417
0.0909845
0.0239766
0.0846384
0.296247
3.77076
0.0342042
5.18119
0.039691
0.0266673
0.0217992
4.42621
0.0829076
0.0613916
0.060045
0.0222433
3.18066
0.056616
0.175752
0.146643
6.79943
3.5551
0.498001
5.45659
0.0270985
0.0305992
0.0220949
0.0218892
0.0215883
0.0924832
0.0267496
0.0315039
7.92082
0.0219173
0.0218473
0.0289201
0.0772312
0.0242348
0.0217788
5.90894
0.0229698
0.0311047
0.0221368
6.36525
0.0278297
5.38682
0.0499709
0.0267611
0.0403779
0.0220877
8.74123
0.176336
0.045563
0.0219939
0.0219046
6.7297
7.76683
3.29013
0.021751
0.0465938
0.208353
0.0218547
0.0220008
0.0219742
5.1374
0.0876096
0.0294081
0.0238548
0.0234307
4.12287
0.0628977
0.121324
0.0235041
0.0260557
0.0215742
0.0872744
0.0408553
0.0220137
3.58113
7.50434
4.83616
3.70624
8.49914
8.74515
5.61137
0.0232124
0.0217159
3.98468
4.92542
0.288615
0.0220183
0.0289021
0.0220688
0.0219478
2.30812
5.95046
0.0392597
0.0219943
0.175474
0.0539717
0.0332758
4.26508
0.312761
0.162146
0.02191
4.41609
0.882397
0.176791
0.0255854
0.0299543
0.0222167
0.021856
0.0292935
0.032225
0.0234611
0.0285325
0.0242017
0.0241545
0.134945
3.99936
0.0299212
0.0292502
4.23308
0.119968
0.0221198
0.403413
0.619566
4.47191
0.0305651
0.0219237
0.0249764
0.0246104
0.0286037
0.0216837
0.0330053
0.0253105
0.0306663
0.142106
0.0222303
0.0224913
3.64806
3.74942
6.35859
0.17968
0.0641613
0.0215299
0.0220635
0.025466
0.0216937
7.36393
0.0220486
0.0222728
0.0217029
3.53427
7.8123
0.0224009
0.0386158
0.0254979
0.032478
0.025466
0.0346777
0.0287309
0.0292802
6.21915
0.023575
4.67417
0.0305319
6.52313
0.025418
0.021931
0.0217963
0.0544627
0.0775829
0.0218141
0.0357502
0.0254234
0.0410255
3.53417
13.6118
2.57244
0.0222726
0.232997
0.0276062
0.0302571
0.0220292
0.0457281
0.0231332
3.41929
1.37194
0.0325715
0.0220799
3.71487
0.0271934
4.27762
4.93567
0.136359
0.0234591
0.0717444
3.67947
0.221349
3.88848
0.0408363
0.0218455
0.030841
0.021739
7.26949
0.0238415
0.0266212
0.179847
6.83907
0.0218254
0.0219241
5.97687
0.0309357
9.47844
0.032538
0.0220398
0.030873
0.109846
0.0420227
2.08562
0.0298284
0.209831
0.0234327
0.0222437
0.0219038
0.146726
0.0226758
0.0901341
0.0220683
0.0218989
0.144033
0.023457
0.0219091
0.0220305
0.028989
0.200617
0.029451
0.0292669
0.0259836
0.040568
0.0220078
0.0972266
0.0255755
0.0302321
0.0644296
0.0240601
0.0662414
0.0428347
0.0217299
0.0408184
12.4521
3.08079
0.0218786
0.700586
4.24077
0.0219422
0.0227139
0.531459
4.14038
0.0278926
3.97169
0.163277
0.0218035
0.0493729
0.0215882
0.0235568
0.0401923
1.13761
0.34417
0.164181
0.173907
3.63497
4.1947
0.0223516
3.7586
0.0220417
1.14711
4.26956
0.0220977
0.0220819
3.23329
0.0221487
0.0220866
0.157708
4.35282
0.10876
0.0234495
4.27976
0.0221025
3.83169
3.82049
0.0221894
0.215403
0.479524
4.83632
3.39581
3.69893
3.41966
0.0218606
0.023238
0.0398522
0.0397797
0.022082
0.120506
0.0220422
3.59849
0.150577
0.0460578
0.139077
3.52256
0.147931
0.128725
0.0584355
7.8812
0.21586
0.0231353
0.0216258
1.47246
0.0318766
0.0217328
8.59249
0.0219609
1.72939
0.0221805
5.45244
0.0231775
0.021969
9.52739
0.0273675
0.0336775
3.49467
2.98907
0.764918
0.0239788
0.0304734
0.023131
0.0283041
0.0691391
0.0285822
0.0222123
1.02098
0.0389459
0.0287621
3.80684
0.0292468
0.0337687
0.120909
0.0455824
0.0301552
0.0219637
0.10472
0.0217939
0.0685124
0.190792
4.44375
0.0218597
0.0296117
6.40039
0.0223518
0.0433918
0.0252286
0.0304844
4.90264
0.0384293
0.0234582
4.63643
0.0218721
3.68217
0.022122
0.0223006
0.0677294
3.3425
0.0281096
0.344179
0.360719
0.0253029
0.0219545
0.130449
0.0321981
7.50903
0.0265287
3.66575
0.0766219
0.0252591
0.0250991
0.075529
0.0294725
0.0680534
0.038188
0.0347889
0.0230943
0.0218251
0.550551
0.0220023
0.0250398
0.0216045
0.0612071
0.025079
0.0377663
3.95149
0.0231407
0.110837
0.021529
0.0221805
0.0221869
0.0222088
0.0235518
0.0219281
0.0499721
7.00412
0.037329
0.0308347
0.0230197
0.0219182
0.1865
0.0219976
2.98321
1.31841
6.00671
0.0821895
0.0289648
0.0238083
0.022176
0.0286317
0.0868917
0.0324168
4.54983
0.0369546
8.96884
0.0846133
0.0222095
0.0218309
3.13142
0.0219178
0.0249403
0.0604785
0.159002
0.0223496
4.85143
0.0221775
0.0240857
0.0220718
0.0225502
0.138074
0.0608799
0.0220263
0.0256961
0.0343477
0.0309845
0.0362816
0.311695
0.234
0.146162
0.078083
0.0234184
0.0224568
0.0359711
3.3056
4.97402
3.79757
0.0255072
0.283341
0.0605652
0.022201
0.0219848
0.0388447
0.0221416
0.0256539
6.39328
0.0219494
0.0217411
0.217532
2.60362
0.0311868
0.377665
0.0221437
5.45508
0.0319813
6.54934
0.0290364
0.0219934
3.87096
0.0581679
0.0220335
0.0581124
0.0222524
0.100577
0.0253463
0.0543169
8.08551
0.0324823
3.32384
0.021914
9.51272
0.0221395
0.0238614
0.0222304
0.0338353
0.0221425
0.049661
3.65328
0.590976
0.0335182
0.0280031
0.0696993
0.0218348
0.0218706
0.0222747
0.192832
0.0231952
5.80327
4.55549
0.0891017
0.0222143
0.0892884
0.123722
0.0788514
0.0233345
4.77346
0.0219523
0.0215361
0.0219386
0.389982
0.0218984
0.0220085
3.77911
0.0219627
0.0909172
0.0854542
0.0216934
4.38935
0.0241552
5.45624
0.0218384
0.243787
0.0223905
0.0664592
17.6308
0.0405108
0.0219274
0.0238174
3.2521
0.0255862
0.0903773
0.0255545
0.0242638
0.0929075
0.0269638
0.0218751
23.7763
0.0254711
0.024168
0.0856561
0.0219552
0.0218224
0.0221885
0.025173
0.0221285
0.0248222
4.06688
19.7713
0.0893753
8.09664
0.038373
0.0264503
7.0649
8.48012
0.0224518
8.81537
0.571729
3.73389
0.364766
0.0260826
2.71413
3.94587
18.1904
0.36035
5.4147
0.0397443
0.0727658
0.0282839
0.0233833
0.0220786
0.609275
0.0222849
6.44384
0.102699
0.218192
0.0215988
0.0440877
0.0421239
0.0236992
0.0222933
0.0221179
0.10199
0.0224685
0.0219117
0.0287034
6.8372
0.0228362
0.0977067
0.0218175
0.105589
0.0728419
0.022159
0.0252072
0.0219317
5.42119
4.5537
0.0860228
1.00031
0.0297028
0.0515114
0.0221362
0.0289761
0.0220263
0.022081
0.0222328
4.3468
0.021745
0.0308569
0.383507
0.025782
0.0253377
0.0219907
8.0519
0.103096
18.2339
4.61335
0.0927715
0.141119
4.12728
0.153546
0.189632
8.66962
0.102823
0.0341903
0.321934
6.51489
0.0220465
9.00534
0.0981578
5.00741
0.0216147
0.0387531
7.98472
0.0222726
6.28477
0.0254557
5.97164
0.02209
0.0221435
0.0454902
0.16893
0.0236432
0.0422488
0.0217305
0.0219158
3.39245
4.46025
13.0503
0.0346588
0.0218655
0.0224697
0.0221329
0.0327089
0.762664
4.51982
0.486602
0.300591
0.0267958
0.0219474
0.0219788
6.03155
11.0256
0.146235
0.0263321
0.0236755
0.0738904
8.45592
10.2946
0.0215284
0.0219437
5.33333
0.0224608
0.171245
0.0271244
0.0220228
0.0287833
0.043194
4.61504
5.23658
0.0222018
0.021739
0.0233776
0.186669
7.53423
0.0222647
0.0810596
4.80494
0.021536
2.24267
3.91125
16.5591
0.0221146
9.98382
5.26485
0.0344317
0.219705
0.0228572
0.278409
0.154371
0.0233353
0.0219236
12.0495
0.242688
0.0217933
0.0763535
0.0801959
0.0250603
0.124827
5.09493
5.02063
6.89137
0.0241591
0.023647
0.0222984
5.00166
5.08116
4.93514
6.80211
4.61624
0.0216862
0.0301941
0.0220652
0.0221129
0.0241014
0.0219552
0.0220578
0.022083
4.21222
6.06103
6.87242
0.0495783
0.0962971
0.0361001
0.0218216
0.0219833
4.38083
0.0221372
5.72961
3.73336
0.0221799
0.0218061
3.48771
0.0223268
0.313184
0.0237823
0.0217384
0.0216814
4.49568
0.0216652
6.84147
4.30428
0.021573
0.0318393
0.0218316
0.0222475
0.021743
0.0790964
2.1243
0.021959
5.7073
0.30461
0.0234466
0.0217944
0.0225289
0.0227843
0.0222255
0.215899
4.99038
6.69674
0.0289477
12.9388
0.0222723
0.0234465
0.0218664
0.109625
0.0231761
4.13372
0.0218513
3.69789
0.163224
6.10847
0.0898288
0.0218482
0.0324887
0.0218539
4.39515
0.0218782
0.0261694
0.0242669
0.0234843
0.0220159
0.0222506
0.0308124
5.58951
0.0222169
0.022379
0.0227547
0.0309677
0.0958294
0.0221868
8.23331
3.62298
0.0228163
4.95794
6.50681
2.88368
4.45635
0.0215499
0.0227369
2.96377
4.19073
0.0823708
3.75204
4.26022
0.0286882
0.0336012
0.0252883
4.0231
0.0220324
0.0219603
4.38128
0.0698783
7.49579
0.02304
0.0216835
0.0220415
6.25925
0.0432436
0.0234444
0.139941
0.0217489
0.0387878
0.0254703
0.0255748
0.0217824
0.0221869
0.0219043
0.0230908
0.795873
2.87346
0.0215802
0.021824
6.24686
0.0219891
0.0547745
0.0260792
0.0255993
0.0281399
0.0222855
3.9924
0.0250142
0.0254166
18.6008
0.0506302
0.022918
0.0260625
0.0220341
0.0222767
13.0166
0.251714
3.24758
0.021997
0.0221521
0.0435298
0.0267059
0.0220256
0.0283972
7.08426
0.0243868
0.0320385
0.0244481
0.0673345
0.0221197
0.0216528
7.18579
2.03383
1.74934
0.0219537
0.0822533
0.0215858
0.0220167
0.0435633
4.5825
0.042148
0.0249636
0.0830705
0.0222063
0.0249645
0.049738
0.593736
0.0220423
0.0216349
0.0225653
0.0236601
0.0239354
0.0219446
0.684346
16.331
0.0219011
0.0303607
0.0224797
0.02162
3.74904
5.13644
11.1418
0.0468192
0.0224408
0.0364805
6.38422
0.060277
0.0601164
0.0318926
0.0283508
5.66029
0.115081
0.346609
0.0217521
0.0290482
0.0221479
0.026019
8.35396
0.021627
0.0352557
0.0255159
0.0274316
0.0228009
0.0217196
0.0218669
4.21542
0.0314555
0.0253081
0.0417983
0.0318458
0.287679
0.0292659
0.374022
0.0218984
8.63993
4.76497
4.3529
0.0222644
0.0259608
0.0220826
0.0219176
11.2435
0.0316921
8.82445
0.0219853
0.0422838
0.084086
4.78836
0.0272997
0.021618
5.67336
0.0222851
0.0222844
0.0223708
0.0220302
12.1152
0.0217787
0.0218436
0.0327427
0.0266185
0.104392
0.0898565
0.0321268
4.75306
0.0217884
0.102372
0.0217048
8.63608
0.0294193
0.291413
0.0790278
1.39407
0.0618836
7.93288
0.0223815
6.13006
0.0307391
6.08836
0.118256
0.0278677
0.120352
0.022101
12.9753
0.022405
0.0305064
0.0264422
2.37339
0.0820409
7.06805
0.0295168
0.0220138
5.71691
0.1316
0.0368399
0.0825882
8.25975
8.15584
0.0344724
0.14336
0.0303969
0.0218437
0.038698
0.144512
0.0558452
22.5725
0.0818058
0.0217531
0.021805
0.0917038
0.0220841
1.8304
0.0588336
0.02209
3.56164
0.245948
2.74131
0.0761372
0.0218416
0.0282387
0.0255953
6.70335
3.51436
0.0254522
6.21722
0.021799
0.0306488
0.356209
0.0219959
0.0309212
0.0219146
0.0243877
0.022251
0.127197
0.227915
0.0292917
0.0278951
0.0216842
0.0878858
0.0218178
0.0217987
0.031501
0.0219068
0.119712
7.63795
0.471825
4.8519
0.0217539
9.7186
0.0221897
0.036247
0.0850859
0.0218413
5.68512
0.0555216
0.021989
0.021611
0.0309227
0.0336077
0.12478
0.138622
0.0257709
0.0233019
4.30433
0.0393545
0.129794
0.350473
4.95892
3.66748
9.09814
0.377027
0.0221882
0.0221124
0.0382411
0.0221402
0.0393859
0.0280681
6.74476
9.28958
6.14603
0.0216457
0.0217255
0.0808269
0.185346
7.42382
0.366562
3.4591
0.0540418
0.0316429
0.367002
0.163947
0.0236928
7.07729
0.0317573
0.0255757
5.62822
0.0295851
0.0217899
4.00002
0.435633
0.0229577
0.0881415
0.0229907
2.0614
5.33376
0.283603
0.0220126
0.0216739
0.0739531
0.022014
0.0218017
0.0220171
0.0217079
0.022022
0.0220289
8.52188
0.0258619
0.0431843
6.12861
0.0218831
0.022037
0.0260586
0.023491
0.0237006
0.0220456
0.0509565
0.0273876
0.0260521
0.0731198
4.59797
0.0220569
0.0301638
0.0220691
0.0220375
0.0215725
0.0220818
5.90183
0.0218155
0.0220296
0.0220953
0.0368591
5.26734
5.86933
8.71711
0.357099
0.0311885
4.86903
5.9568
0.0219419
0.0396339
2.91875
0.165186
0.0221098
0.0243671
0.0303713
0.0368169
0.0220562
0.0296908
0.0555461
0.0420272
0.0216273
0.0400434
0.278972
0.0215806
0.353646
6.54273
0.0392518
0.558411
0.0296416
0.0220926
0.0234623
0.0220116
0.151594
8.16009
0.0216463
0.0392536
0.0219608
0.0219756
0.022158
0.0222857
0.0336991
0.0221723
0.0835217
0.088618
0.0242375
0.0236744
0.032327
0.0220487
0.0419515
0.0260963
0.0221632
0.0221021
0.022139
6.45188
0.0220135
0.124806
0.0297745
0.0222527
0.022013
0.0216831
4.73969