/*--------------------------------*- C++ -*----------------------------------*\
| =========                 |                                                 |
| \\      /  F ield         | OpenFOAM: The Open Source CFD Toolbox           |
|  \\    /   O peration     | Version:  v2012                                 |
|   \\  /    A nd           | Website:  www.openfoam.com                      |
|    \\/     M anipulation  |                                                 |
\*---------------------------------------------------------------------------*/
FoamFile
{
    version     2.0;
    format      ascii;
    class       surfaceScalarField;
    location    "650";
    object      phi;
}
// * * * * * * * * * * * * * * * * * * * * * * * * * * * * * * * * * * * * * //

dimensions      [0 3 -1 0 0 0 0];
oriented        oriented;


internalField   nonuniform List<scalar> 
20580
(
-0.11986
0.00548637
0.114373
0.118946
-0.240055
0.121109
0.250966
-0.13202
0.00446776
0.00174956
-0.00621616
0.587675
-0.623895
0.0362309
0.253833
-0.17591
-0.0779209
-0.291163
0.042471
0.578224
-0.580677
0.00246021
-0.027944
0.0248427
0.00310131
0.422781
-0.244469
-0.178309
0.137417
0.00191193
-0.139328
-0.520645
0.315184
0.205467
-0.202905
0.2835
-0.080594
0.0181935
-0.00772091
-0.0104725
0.181327
-0.0325569
-0.14877
-0.106516
0.0958432
0.0106725
0.00454544
0.0039089
-0.00845439
-0.1736
0.353944
-0.180343
0.0883714
-0.097591
0.00921925
-0.10884
-0.0110194
0.0592268
-0.182509
0.123282
0.231061
-0.19256
-0.0384976
0.0274512
-0.059373
0.0319219
-0.586856
0.592667
-0.00580939
0.073274
-0.0909901
0.0177163
0.00298534
0.108809
-0.111795
-0.0115506
-0.0654482
0.0769988
-0.0859271
0.0720994
0.0138278
-0.00833958
0.0360624
-0.0277229
0.484768
-0.321266
-0.163498
-0.00971164
0.00231968
0.00739197
-0.219693
-0.0714727
-0.109233
0.119425
-0.010192
0.0475529
-0.0399414
-0.00761148
-0.150453
0.138653
0.0118008
-0.0276849
-0.00698306
0.0346681
-0.615604
0.0287492
0.000603344
-0.065585
0.0649818
-0.0115524
0.0223071
-0.0107547
-0.124759
-0.164913
0.289676
-0.0232031
-0.00593055
0.0291337
-0.0386843
0.0303447
0.0131215
-0.0131215
0.0784592
0.00755023
-0.0860089
0.0359788
-0.0441677
0.0081889
0.451106
-0.275649
-0.175451
-0.533226
-0.0699379
-0.122824
0.0429753
0.0798483
-0.0424251
-0.211974
0.254403
-0.297559
0.0946557
-0.0022647
0.0018401
0.000424587
0.149992
-0.28543
0.13544
-0.0972357
-0.00928133
-0.044269
-0.123862
0.16813
0.0173588
-0.00106026
-0.0162985
0.106317
-0.231072
0.00557347
-0.114806
-0.0303954
0.00719229
-0.016953
0.0843015
-0.0673487
-0.00751379
0.0118665
-0.00435263
-0.35771
-0.16293
0.0714776
-0.0830282
-0.219242
-0.195951
0.415196
-0.188046
0.145625
-0.0321606
0.0844083
-0.0522473
-0.0742793
0.0421191
-0.00953335
0.00201958
-0.0921474
0.0584992
0.353311
-0.24315
-0.110158
0.00112365
0.00175942
-0.00288312
-0.00238889
0.00108001
0.00130889
0.155845
-0.174654
0.0188084
-0.0364481
-0.218898
0.255349
0.0112426
0.00062405
0.171807
-0.0155584
-0.156249
0.220712
-0.208697
-0.0120121
0.00923326
-0.00468774
0.339166
-0.524914
0.18575
0.0900895
-0.0168153
0.45075
-0.21901
-0.231734
0.241271
0.112045
-0.0978997
0.105718
-0.00781851
-0.0288453
-0.121607
-0.0126689
0.0164494
-0.00378043
0.0121364
-0.000893737
-0.00157064
0.00480697
-0.00323631
0.0714307
0.159633
0.023392
-0.00387643
-0.0195156
0.232277
0.144773
-0.377047
-0.00761736
-0.00209427
0.267632
-0.117639
-0.295756
0.076061
0.00373555
-0.00373558
-0.00190416
0.000333552
0.010078
-0.0160098
0.00593181
0.0330167
0.0567375
-0.0897537
0.142862
-0.350108
0.207252
-0.0882757
0.101518
-0.013243
-0.00621691
0.00616298
5.39624e-05
0.00631189
0.0935888
-0.0999003
-0.105146
0.0168706
0.118772
-0.039589
-0.0791832
0.0751454
-0.117704
0.0425581
-0.16456
-0.0839654
0.248527
-0.469697
0.134731
0.334971
0.123046
-0.161594
0.0385478
-0.167808
-0.301883
-0.00142948
-0.000959393
-0.0719767
-0.223782
-0.335864
0.162267
-0.018031
0.151803
-0.13377
0.333827
0.117285
-0.0943492
0.10492
-0.0105705
0.0201323
0.100825
-0.120956
-0.109015
0.10513
0.00388465
0.159851
-0.204122
0.166829
-0.398137
0.231313
0.466975
0.111256
-0.00264462
0.00711287
-0.00130626
0.00242964
0.0574602
-0.0948237
0.0373641
0.162311
-0.416841
0.254535
-0.27703
0.285964
-0.00893034
0.0138386
0.000266045
-0.0141047
0.0785773
-0.102807
0.0242303
0.0338582
-0.0663034
0.032445
0.341413
-0.198545
0.0612334
0.0829908
-0.144223
0.0252942
0.00459195
-0.0298862
0.140756
0.0153242
-0.15608
-0.197869
0.00531196
-0.122106
0.179628
-0.0575196
-0.0699142
0.0705176
0.0328255
0.0147274
0.00500295
0.132414
-0.00687016
0.0164029
-0.00953272
-0.0541336
0.00378055
0.00102645
-0.0193834
0.126458
-0.107075
-0.156658
0.024179
0.132479
-0.0948705
-0.00302919
0.251007
-0.225204
-0.0258007
-0.0643895
0.296669
-0.0780247
0.00782321
0.0702014
-0.00408892
-0.0636009
0.0676899
-0.0442481
0.23097
-0.186719
0.514077
-0.174908
0.000415558
0.032453
-0.0264521
-0.00600083
-0.0544225
0.115657
-0.0511193
-0.0540273
-0.100032
0.00568291
-0.0947848
0.114918
0.0928803
-0.0884007
-0.00447985
-0.2108
-0.0269125
0.237714
0.1248
0.191719
-0.316517
0.313557
0.212567
-0.526118
-0.0173923
0.00583997
-0.177247
0.086016
0.0912305
-0.0488331
0.204063
-0.155231
-0.419083
-0.162576
0.581662
0.0372068
-0.0323225
-0.0048844
0.151516
-0.0284686
-0.0369534
-0.0858706
0.0091089
0.00908463
-0.0402632
0.00552365
0.0347395
-0.0316654
-0.00859791
-0.000999477
-0.00126526
0.14665
-0.164679
0.0773768
-0.0661734
-0.0112034
0.537016
-0.330488
-0.206523
0.439
-0.272164
0.146679
-0.131697
-0.0149819
0.553314
-0.111413
-0.441892
0.0173441
-0.00726596
-0.0702944
-0.0150443
0.0853381
0.0903777
-0.0998991
0.0095214
0.254554
0.184452
0.1754
-0.160573
-0.014828
0.10441
-0.0140322
0.0937564
-0.0151786
0.111476
0.015931
-0.17294
0.157011
0.174452
-0.0336958
-0.0114113
0.0114113
0.0112304
0.0212226
0.0903537
0.0290713
-0.0796215
-0.0517692
0.131391
0.224983
0.0116455
-0.236627
-0.138448
-0.237906
0.37636
-0.0674555
0.0633665
-0.124579
-0.0526676
-0.010895
0.00317412
0.122925
0.13091
-0.226195
0.18195
-0.0947416
0.107133
-0.0123918
0.111534
-0.02118
0.19652
0.10483
-0.301349
0.131865
-0.310774
0.178912
-0.00309637
-0.0744061
0.0775022
0.105037
-0.0987362
-0.00630022
0.00881113
-0.0211399
0.0123288
0.0331443
-0.0239581
-0.0091863
0.0159417
0.165385
-0.0128869
-0.0413218
0.0542089
-0.00585289
0.014664
0.189121
-0.213501
0.0243809
0.112669
-0.129281
0.0166118
0.0294684
-0.00835398
-0.0211144
0.19215
-0.00407934
-0.188069
-0.0938835
0.101805
-0.00792185
-0.241771
-0.0352558
0.0101668
-0.647518
0.403246
0.244274
-0.132262
0.15045
-0.0181875
-0.211518
0.174821
0.036699
-0.242136
-0.0554221
-0.00386721
0.077193
-0.0733257
-0.168789
-0.141325
0.310116
-0.00374969
0.0201973
-0.20446
0.459019
0.110602
-0.102203
-0.00839821
-0.0147094
0.00204053
0.0184749
-0.0128375
-0.00563744
0.0411197
-0.139888
0.0987686
0.134367
-0.0216986
0.669113
-0.359543
-0.309569
-0.0354035
-0.0426211
0.172781
-0.457144
0.284368
0.00639161
0.00902057
0.00336942
-0.0123898
0.0784536
-0.158075
-0.0400267
0.232179
-0.480568
0.224104
0.00614436
0.027
0.231105
0.253669
0.083908
-0.0564566
0.0284882
-0.0211316
-0.00735664
-0.0999112
0.106224
0.141155
-0.560237
-0.0453305
0.0778461
-0.0325154
-0.0115883
0.0141823
-0.00259398
-0.00692869
0.0429075
0.00195894
0.171629
-0.167757
-0.00387296
0.0567065
-0.0602096
0.00350305
0.07755
-0.0814172
0.0241851
0.151214
0.0920037
-0.0352658
0.152985
-0.148907
-0.0040763
0.00248054
-0.0152413
0.0127608
-0.0985626
0.107158
-0.00859453
-0.311465
0.649457
-0.33798
0.0593709
0.146667
-0.206037
0.00677648
0.0369838
0.000223012
-0.0158044
-0.00505939
0.0208638
-0.348976
0.210532
0.0499456
0.187898
0.153055
-0.340951
0.0911607
-0.0901191
-0.00104091
0.0990866
-0.0926676
-0.00641894
-0.0934818
0.152853
0.136602
0.0149154
-0.118031
0.0194684
-0.0896644
0.300888
-0.211219
0.0473106
0.0714614
-0.123258
0.0360058
0.0872517
0.0898489
-0.0734307
-0.0164183
0.459715
-0.189664
-0.270047
-0.292572
0.0504372
0.119574
-0.030867
0.0385869
-0.00771976
0.0108738
-4.34707e-05
-0.0108293
0.145019
-0.0161151
-0.128904
0.386941
-0.224628
0.0867806
0.00697612
-0.0888972
0.0935387
-0.00464146
-0.0903182
0.110198
-0.0198798
0.149773
-0.0131711
-0.0359178
0.00505085
-0.00822216
0.00793752
0.000284645
0.138951
-0.188014
0.0490546
-0.0970507
-0.0575449
0.154595
-0.0828417
0.0868749
-0.00403313
0.178014
0.17065
-0.348658
0.225559
0.299387
-0.524941
-0.104881
0.014563
-0.0114218
0.129193
-0.11777
-0.45917
0.232849
0.226325
0.497945
0.125802
-0.623744
0.406618
-0.233831
-0.568319
0.574995
-0.0066637
-0.0180761
-0.146063
0.164139
0.539123
-0.0238896
-0.00405441
-0.0843341
0.143561
0.14664
-0.286587
0.139951
0.00929898
0.0163537
-0.00251517
0.0632564
0.209882
-0.273137
0.00176091
-0.00427483
0.000368394
0.00390639
0.0756969
0.175312
-0.177813
0.24107
-0.202144
0.11781
0.0123187
-0.0124812
0.000162425
0.0346246
0.0106638
-0.0452883
0.147329
-0.0241075
-0.123221
0.464949
0.122736
0.0728144
0.00456228
0.17931
0.13296
-0.139281
0.00632153
-0.00318501
-0.00108993
0.0824472
-0.0771818
-0.00526575
-0.248372
0.199537
-0.0885195
0.00567798
0.00316018
0.0741841
-0.077344
-0.00236637
0.00619625
-0.00382972
0.100246
-0.00434695
-0.0958989
0.0357469
-0.105699
0.0699516
-0.0212194
0.0143493
0.018473
-0.0019069
-0.016566
-0.0269216
-0.0590055
0.312999
-0.181131
-0.00284999
0.00865175
-0.00580174
-0.0160792
0.0160792
-0.00330749
-0.0241429
0.0274502
-0.0373778
0.0340701
0.144268
0.0448531
0.149895
-0.0282147
-0.12168
0.0293693
-0.156759
0.127391
0.0102065
0.0131855
0.0436449
-0.106531
0.0628864
-0.217822
-0.302342
0.520174
-0.104631
-0.428605
-0.0554716
0.176021
-0.120547
0.000963471
-0.00332975
0.0205886
0.369223
-0.191203
0.00246515
0.0579259
0.105631
-0.163555
-0.171539
0.0494343
-0.0452272
0.249289
0.0126564
-0.000337666
0.0887064
-0.0019255
0.00989658
-0.0172953
-0.194219
0.173905
-0.21393
-0.0374615
0.0329479
0.00451356
0.24709
-0.0221048
0.00398314
-0.0637837
0.202735
-0.119384
-0.0827594
0.139499
-0.0815723
0.332674
0.288739
-0.142094
0.101617
-0.119781
0.0181648
-0.0105916
0.104181
-0.105032
0.110267
-0.00523463
-0.0667538
-0.0285843
-0.00887712
0.187034
0.0439382
0.00453009
-0.0981109
0.0884641
0.00964735
-0.188771
0.428598
-0.239826
0.0854391
-0.00299195
-0.0970509
0.116239
-0.0191883
-0.00479447
-0.0014224
0.158217
-0.213686
-0.129826
0.00264206
-0.0838309
0.0668779
-0.0790969
0.0677022
0.0113949
0.106291
-0.108855
0.00256389
0.0222899
-0.0186695
-0.00362036
0.280884
-0.234805
-0.0460767
0.0156288
-0.0859253
0.00127697
0.0118445
0.0213185
-0.176725
0.15541
0.0152773
-0.0127967
-0.0315262
-0.142066
0.173592
-0.0340174
0.00942459
0.0245928
0.0789157
-0.175966
-0.0261822
-0.127398
0.106649
-0.104214
-0.00243572
0.0441016
-0.0805637
0.0364624
0.305494
-0.180692
0.228081
-0.144662
-0.0834344
0.0917408
-0.103162
0.0112327
-0.296675
-0.0216056
0.318285
-0.00569172
0.15071
-0.0495767
-0.00343875
0.0530155
-0.211149
0.174703
-0.0726064
-0.0566751
-0.00906282
0.0100015
-0.000938643
0.1061
-0.248422
0.142323
-0.0306089
0.0952093
-0.0646001
-0.146359
0.144621
0.00173745
-0.0137911
0.0484157
0.186739
-0.190816
0.126666
-0.123681
-0.061931
0.0490444
-0.00372069
0.154246
-0.144865
-0.00938133
-0.0246356
0.00883126
0.000548179
-0.0796667
0.0343364
-0.277829
0.188169
0.106499
-0.00488123
0.143156
-0.170652
0.0274962
-0.122648
-0.00717834
0.415504
-0.209825
-0.205676
-0.0127906
0.0127906
-0.00777118
0.0504754
-0.0427042
-0.0763252
0.0808697
-0.00454445
-0.0586921
0.232598
-0.0113815
0.077328
-0.0754076
-0.00192034
0.0100261
0.000848556
0.481609
-0.214304
-0.267307
-0.01089
0.00804002
-0.0916365
0.0953212
-0.00368469
-0.0217183
-0.0147288
0.0364473
0.159032
-0.00604579
-0.0143704
-0.0682613
0.082632
-0.0432284
-0.235358
0.278589
0.570894
-0.0175718
0.000191527
0.0171673
0.081548
-0.00593758
-0.0756101
0.143878
0.278905
-0.202798
-0.0372567
-0.128935
0.0563279
-0.159588
0.461848
-0.302253
-0.0563547
0.0485835
0.034049
0.115846
-0.114709
0.0176586
-0.215146
0.211471
0.00367504
0.00785256
0.273034
-0.325854
0.251915
0.0739404
-0.0662958
-0.0128006
-0.074016
-0.212566
-0.0248894
-0.300965
0.0167203
-0.072248
0.0555278
-0.0553242
0.00574748
-0.160997
-0.0368692
0.0151488
-0.0850564
0.0699076
0.215288
-0.434529
0.517746
-0.218353
0.266327
-0.160225
0.00212551
0.124073
-0.13823
0.0141562
-0.328667
0.0327391
0.295931
-0.308405
0.205049
0.103358
-0.0395341
0.0969948
-0.121568
0.290377
-0.168808
-0.0657735
0.0504375
0.0153359
-0.169711
-0.382085
0.551803
-0.149065
-0.0550746
0.204139
-0.0227536
-0.0214142
-0.00367402
-0.0884753
0.09215
0.428118
-0.606155
0.178033
0.500275
-0.198193
-0.302077
-0.188156
-0.0269917
0.314735
-0.124676
-0.190059
0.0685499
-0.0882165
0.0196668
-0.0679035
0.0611638
0.00673974
0.182006
-0.0103768
-0.0121641
-0.0308912
0.043055
0.207636
0.266926
-0.487727
0.220806
-0.0194038
0.0284764
-0.00907262
-0.0686822
-0.153056
0.0864602
0.0665966
-0.300842
0.270483
0.0303616
0.018739
-0.126194
0.106811
0.0714358
-0.0265139
-0.0449218
-0.236104
0.0715468
-0.157737
-0.00383899
0.161577
-0.0134896
-0.187368
0.163874
0.0234932
-0.0244915
0.0225846
0.0838223
-0.00649432
-0.0794462
0.00312086
-0.229107
0.0769197
0.152189
0.000214113
-0.155837
-0.153069
0.30891
0.00373988
-0.131507
-0.0148531
0.0385673
0.0729663
0.171401
-0.0282438
0.20342
-0.11178
0.108107
0.118464
-0.448638
-0.175248
-0.0112688
0.0105564
0.000712358
0.00618514
-0.0255889
-0.0194794
-0.0462942
-0.00711054
-0.000742423
0.00785301
-0.0511831
-0.000315345
-0.00251149
0.00282684
0.00087107
0.150191
-0.0343428
-0.115848
0.578373
-0.312994
-0.265376
0.0556158
-0.0862245
0.149583
-0.39405
-0.373527
0.0768574
0.0250154
-0.13856
0.113545
-0.0124302
0.0202394
-0.00780909
-0.0608048
-0.177824
0.238629
0.201135
-0.229105
0.027972
-0.133403
0.0862606
0.0471427
-0.140062
0.0129663
0.127096
0.3959
-0.182829
-0.21307
-0.0483497
-0.0316494
0.0799992
0.46112
-0.284854
-0.176261
0.0314761
-0.0267297
-0.00474645
0.080952
-0.0124018
0.168223
0.282532
-0.291634
0.199152
0.0924816
0.0933141
-0.0910542
-0.00226027
0.0126667
-0.228061
0.0696039
-0.0904439
0.0208401
-0.0376282
0.0932441
-0.141042
0.354352
-0.213311
0.0142627
-0.00837831
-0.00588442
-0.00760638
0.0959768
0.098507
-0.096489
-0.00201794
-0.0428411
-0.186264
-0.0105803
-0.0616676
0.00989471
-0.00196408
-0.00793062
-0.334372
0.193329
-0.00871609
-0.0720445
0.0807607
0.366878
-0.17263
-0.194243
0.111018
-0.067628
0.0749059
-0.0072779
-0.0194139
-0.0146035
0.183188
-0.158403
-0.0247851
0.137324
-0.0132516
0.229512
-0.405324
0.175814
0.116858
-0.115393
-0.00146446
0.0303761
-0.00508184
-0.011466
0.0168853
-0.00541922
-0.252504
0.3925
-0.139997
-0.00821723
0.00409998
0.00411728
-0.350267
0.123731
-0.00734754
0.157623
-0.155635
-0.00198956
0.332702
0.148905
-0.0690831
-0.139611
-0.0105956
0.0137742
-0.0031786
0.101931
-0.0578289
0.00366695
0.196196
-0.257
-0.176269
0.329327
-0.0284184
0.0356147
-0.00719629
0.140012
0.411727
-0.551736
-0.100667
-0.00766609
0.108334
-0.172512
0.235495
-0.0629834
0.173621
-0.160087
-0.0135355
0.181536
-0.0369397
-0.144596
-0.0384105
0.0454274
-0.00701686
-0.00690076
-0.00132142
0.0898523
-0.219947
0.1301
0.011323
-0.0100461
0.0865094
0.175492
-0.262002
0.00232998
0.118269
-0.120599
-0.0297574
-0.00892689
0.0178351
-0.0188953
0.278148
-0.315597
0.0374525
0.145054
-0.0141412
0.0892866
0.0122781
0.00149603
0.0065244
-0.0826369
0.0761125
-0.0128562
0.129714
0.0889943
-0.0175582
0.179895
-0.0222729
-0.0720699
0.150985
-0.0211236
0.0301441
0.0740322
-0.00988875
-0.0641434
-0.0638047
0.115444
-0.051638
0.0272493
0.00422689
-0.0733796
0.088084
-0.0147044
0.00489065
0.0322864
-0.037177
0.306972
-0.20221
-0.104759
0.0768397
0.00746157
0.0678991
-0.082269
0.517806
-0.244803
-0.272999
0.00393559
-0.000200066
0.0617234
-0.0180732
-0.0436502
0.162584
0.0177944
0.308971
-0.13653
-0.172438
-0.0425248
0.0303608
-0.110376
0.115194
-0.00481788
-0.0462032
0.0729477
-0.0267444
-0.259678
0.185666
0.605334
-0.0562575
-0.54907
-0.101281
0.127909
-0.0266278
-0.12027
-0.0197921
-0.505329
0.335625
0.00491415
0.505784
0.0995566
-0.0915788
0.0181993
0.216831
-0.214575
-0.00225434
0.00457182
-0.12722
-0.255607
0.171644
0.211345
0.184556
-0.119054
-0.0141976
0.133253
-0.00375184
-0.00446537
0.162666
-0.137788
-0.0248777
0.00356526
0.0218926
-0.285473
0.484145
-0.198665
-0.41892
0.0193275
0.399593
0.00609
-0.137786
-0.148497
-0.159907
-0.0929773
0.114239
-0.021262
-0.25664
0.16743
0.0892101
-0.116299
-0.0367568
0.0801594
-0.00331997
0.330855
-0.559136
0.228283
-0.0168188
0.0192465
-0.00242775
0.304842
0.364272
-0.104407
0.0908614
0.0135446
0.00908779
0.00223528
-0.0314672
-0.00523697
0.0367042
0.0112423
0.0226348
-0.0688378
-0.0573676
-0.0760341
0.0930448
-0.100377
0.00733279
0.0509715
0.0107518
0.223625
-0.374302
0.150677
-0.0743422
0.0259926
0.135001
-0.142617
0.163937
-0.000148348
-0.00696215
0.00673015
0.0720848
-0.0788149
-0.347844
0.159073
-0.113809
0.0208318
-0.107495
0.304016
-0.029023
0.0339137
-0.000687002
0.000796214
-0.000109207
0.0110909
0.193084
-0.204171
0.0554026
-0.0479357
-0.00718935
0.0551251
0.620962
-0.324299
-0.29666
0.378248
0.242715
0.123838
-0.0150287
-0.0188724
0.00205372
-0.0643238
0.0735943
-0.00927049
-0.217306
0.0394941
0.110154
-0.0999252
-0.0102292
0.153357
-0.274925
0.316737
-0.382988
0.0662519
0.0667682
-0.0802467
0.0134784
0.00594045
0.122906
-0.0919419
-0.030964
0.16516
0.309325
-0.474486
-0.0589475
-0.0643101
0.0952405
0.0302178
-0.125458
0.0184409
-0.128911
0.11047
-0.262272
0.0800189
0.182254
-0.191076
-0.0351154
-0.116664
0.00628922
-0.177375
0.0760944
-0.119227
0.0822736
0.011094
0.144751
-0.117459
-0.0571943
-0.112826
0.0490223
-0.0839251
0.0574115
-0.0286386
-0.0689527
0.0432759
-0.0578092
0.0145334
-0.0160133
0.0856173
-0.0725096
0.0213902
0.0154943
0.00133328
-0.0168276
-0.0343948
-0.092037
0.126433
0.00726824
-0.0748962
-0.00369634
0.156056
0.183361
-0.339415
0.100798
-0.172868
-0.107703
0.0790645
-0.0211547
0.182314
-0.161156
0.219081
-0.438084
-0.453174
0.248072
0.205108
0.1066
-0.0987301
-0.00787013
0.00285184
0.0194381
-0.19908
0.0500138
-0.0261795
0.00504784
0.191958
-0.477425
0.0103565
-0.0746803
-0.0454801
0.0949506
-0.0494699
-0.003747
0.000561872
-0.0759975
-0.0378109
-0.0134477
0.200188
0.101787
0.149179
-0.00153389
-0.00221317
0.063329
0.0595777
-0.143339
0.108946
0.00614055
-0.313189
0.321045
-0.0836254
0.0872955
-0.00366997
0.00219198
-0.0614416
-0.0301372
0.177746
-0.0313964
-0.146349
0.09522
-0.100108
0.0048875
-0.253111
0.209884
-0.342675
-0.0369499
-0.176551
0.341184
-0.0244452
0.0368427
-0.0086387
-0.028204
-0.415408
-0.152901
0.0810149
-0.0142466
0.0101687
-0.110733
0.0347357
-0.0123157
0.0192538
-0.00693805
0.00238444
0.00377856
-0.0907601
0.0293187
-0.00458669
0.0976317
0.162929
-0.151687
0.142338
-0.232859
-0.0597113
0.0207086
0.33849
-0.359197
-0.00375256
-0.415165
0.394378
0.135342
-0.122148
-0.0131937
-0.024024
-0.0771877
0.101212
0.0991775
-0.00393647
-0.00721168
0.0793109
-0.244456
0.0176624
0.226796
0.00557874
0.472948
0.124067
0.00314558
-0.00139588
0.0166407
-0.139149
0.122509
0.026814
0.446136
0.235735
0.243756
-0.47949
-0.0284757
0.0371952
-0.00871934
0.0356099
-0.211519
0.0331113
0.0323294
-0.0654406
0.0524077
-0.00143628
0.110195
0.0883948
-0.116552
0.0281576
-0.230797
-0.147557
0.378352
0.000332757
-0.0402742
-0.00438073
0.159424
-0.155042
0.0596811
-0.237504
-8.73153e-05
0.337272
0.187045
-0.524315
0.0286722
-0.253874
-0.156043
-0.179734
0.335777
-0.014555
0.138916
-0.124362
-0.0155386
0.0164074
-0.000868781
0.0336602
-0.188146
0.154487
-0.163418
0.169291
-0.00587271
-0.105715
0.0140784
-0.0162089
0.00474297
-0.168675
0.116905
0.00658204
0.13895
-0.145531
0.0372818
-0.00573125
-0.0315506
-0.357509
0.378219
0.0302988
-0.332173
-0.190737
0.522914
0.0488891
0.241488
-0.0708468
-0.013368
0.0842149
-0.0743505
0.111318
-0.0369677
-0.0126971
-0.0963182
0.104264
-0.00602794
-0.0982355
0.0178009
-0.54389
0.309376
0.234515
0.364174
0.232842
0.111053
-0.108723
0.227749
0.0792253
-0.12773
-0.416159
0.193288
-0.21448
0.0211909
0.0978363
0.00336598
-0.101202
-0.401132
0.436791
-0.0356525
0.0914925
-0.094881
0.00338885
0.0115842
-0.0663059
0.0506291
0.0156768
-0.00533412
0.109599
0.00161593
0.0105831
-0.012199
0.00393924
0.122519
0.479612
0.113291
-0.104316
-0.00897522
-0.51793
0.236086
0.281851
0.137302
0.090767
-0.0151228
0.0583988
0.0331865
-0.000238622
-0.000309905
-0.0411695
0.0354384
-0.17161
0.29931
-0.127695
-0.193451
0.204545
0.116665
-0.0688667
-0.0477978
0.224073
-0.203089
-0.020981
-0.183947
-0.195716
0.379667
-0.0199009
-0.039472
0.0900036
0.00115784
0.000838486
0.0149935
-0.015832
-0.0197798
-0.111105
0.0367547
-0.34845
0.303876
0.0445754
0.0108533
-0.332116
0.0867701
-0.0538035
-0.0329665
-0.0764357
-0.0382737
0.245086
0.481736
0.146971
-0.628705
0.0294679
0.075662
0.09679
-0.00370678
-0.093083
-0.0167549
-0.25424
0.043441
-0.630845
0.366469
0.264381
-0.0173237
0.00178514
-0.254834
-0.0074377
-0.0197334
-0.149314
0.169048
0.358236
-0.517816
-0.015326
0.0218716
-0.00654556
-0.480467
0.169012
-0.0121201
0.00207402
-0.282705
-0.121899
0.404607
0.000750858
-0.100661
0.170612
-0.145875
-0.0247366
0.126885
-0.0748241
-0.05206
0.0143279
-0.313993
0.0950982
-0.254087
0.144294
0.109793
0.600407
-0.349345
-0.251053
-0.0133791
-0.0660253
0.0794044
0.0792585
-0.242024
0.162766
-0.0257175
0.0206579
-0.0430905
0.248855
-0.205761
-0.0910139
0.0279547
0.0630592
-0.00658471
-0.024326
0.0309108
0.0214527
-0.169712
0.14826
-0.160106
0.414512
-0.254398
-0.000264489
-0.00649391
0.00675851
-0.0528454
-0.00909212
0.0619376
0.218316
-0.128444
0.0889903
0.0223276
0.0479533
-0.280811
-0.0218482
0.000703152
0.0211448
0.323514
-0.167455
-0.0568881
-0.050815
0.475084
-0.224356
-0.250723
0.429633
0.170781
0.0677916
-0.0346803
0.0137788
0.292316
0.207964
-0.175948
0.0520846
-0.00729557
-0.018532
0.0258276
-0.0441112
0.0610706
-0.0169593
-0.0598549
0.0119194
-0.134477
-0.214494
-0.00281005
0.0183044
0.115077
0.344642
-0.609793
0.208669
-0.23074
0.203829
-0.402291
0.297653
0.294339
-0.550939
0.256601
0.0579084
-0.0130849
-0.0448234
0.0597799
-0.0122669
-0.0475131
-0.272421
0.103635
-0.437743
0.537306
0.134374
0.048815
0.066766
0.267065
-0.00413517
0.00387088
0.0044361
-0.00913924
-0.0135654
-0.00765394
-0.176302
-0.0777846
-0.0832216
0.251131
0.26668
-0.0283934
-0.154116
0.0569888
-0.102468
-0.142891
0.366514
0.184243
-0.516414
-0.0845697
0.0852164
-0.000646597
-0.00044194
-0.00024507
0.115085
-0.02669
-0.00750235
0.14478
-0.0217047
-0.123076
-0.410396
0.214447
0.151346
-0.0127876
-0.138558
0.112411
-0.023421
0.0055336
-0.00620818
0.000674607
0.146753
-0.164829
0.063395
0.00388621
-0.0672812
-0.110105
0.0336694
0.0675841
0.430364
0.0366619
0.00975209
-0.0464141
-0.00748706
0.0441488
0.00201928
0.017276
-0.0192953
-0.0607254
-0.0618338
0.0699288
-0.00809542
-0.101735
0.178656
0.0580706
-0.00136408
-0.0160175
0.0787863
-0.0627689
-0.189874
0.168722
-0.586889
0.369078
-0.0559257
0.0563257
-0.000399813
-0.235475
0.218149
0.0173285
-0.479082
0.318984
0.0304527
0.2477
-0.213207
-0.0222653
0.00491359
-0.0960072
0.222764
-0.382636
0.159877
0.0111013
0.140246
-0.0114878
-0.00322148
-0.116577
-0.120753
0.237332
0.00127206
0.0101392
0.0839281
-0.221199
0.137272
0.00101488
0.100615
-0.10163
0.00660422
0.0188818
-0.025486
-0.292755
0.0737865
-0.0672622
-0.212815
0.115024
0.0977928
0.170985
-0.149532
-0.0595701
0.0154591
-0.0263047
-0.0855845
-0.00833975
0.0939246
0.145106
0.0241119
-0.0314074
-0.158572
0.315298
-0.156727
0.00210119
-0.0210959
0.0189947
-0.0240779
-0.152645
0.0163153
-0.00328212
-0.0130331
-0.00357507
0.00301018
0.000564927
0.0190739
-0.0169729
-0.000707691
0.12444
-0.123732
-0.140486
-0.158614
0.299102
0.123343
-0.294949
-0.334525
0.657065
-0.322537
-0.165396
0.41926
-0.106291
-0.312966
-0.0198996
-0.153136
-0.0198024
0.0291108
-0.154698
0.125588
-0.0482726
-0.120402
0.113059
-0.214792
-0.368152
0.23368
0.00493373
-0.184796
0.179861
-0.166325
0.168192
-0.00186383
-0.147632
-0.144002
-0.115279
0.186712
0.0361271
0.0101052
-0.0462323
-0.00937948
-0.0686351
0.0780145
0.0260398
0.15817
-0.184209
-0.126001
-0.0121003
0.138102
-0.0482016
-0.00772384
0.229809
0.00428003
0.00191638
-0.557392
0.199886
0.141311
-0.00771553
-0.133594
-0.13005
0.20931
-0.193576
0.353618
-0.160038
0.11364
-0.131951
0.018312
-0.159222
0.426153
-0.151166
0.373936
-0.0651264
0.100873
-0.0896505
0.28137
0.0944507
0.00338626
-0.294031
0.145537
-0.00393557
-0.000116243
0.0040518
-0.0761599
0.0847759
-0.00861551
0.0077522
-0.0862852
0.0785331
0.0705357
-0.0792517
0.136269
-0.32364
0.187373
0.0045696
-0.104416
0.0996349
0.0047814
0.52905
0.0159903
-0.0275737
-0.20153
-0.00415745
0.00843758
0.20535
-0.209288
0.00393863
-0.0703929
0.0646276
0.0208115
-0.00952106
0.000458402
-0.114667
0.0908295
0.0238383
0.127443
0.183816
-0.311256
-0.0453391
-0.015803
0.0804308
0.013072
-0.0994341
-0.113379
0.320815
0.163335
-0.254224
0.38325
-0.129027
0.0577195
0.0896099
0.25285
-0.306457
0.0536089
4.70908e-05
0.00984761
0.00583193
0.273066
0.30531
-0.0397495
-0.0583609
-0.0896914
0.0161237
0.073568
-0.302128
0.146086
-0.0121871
0.0483142
-0.00720328
-0.0049168
0.0964497
-0.00644542
-0.209614
0.166525
0.00793975
0.0374877
0.141432
-0.162643
0.480205
-0.317555
0.0146595
-0.013821
-0.131774
0.138357
0.374103
-0.255361
-0.118741
0.425271
-0.183357
-0.241908
-0.181218
0.165658
-0.155956
0.13662
0.0193352
0.0241353
-0.0324892
0.000397919
-0.00801526
0.0162453
0.130363
-0.146609
0.034246
-0.00454198
-0.029704
0.0634572
-0.205635
0.142177
0.166862
0.156788
-0.323648
-0.0812569
0.0336324
0.0476243
-0.23863
-0.214537
-0.00170856
-0.0746402
0.0763489
-0.395395
0.594982
-0.246313
-0.348662
0.133334
0.0741622
-0.207494
-0.0854365
0.0093771
-0.0318809
0.0225038
-0.0189461
-0.00290245
-0.0773305
0.0853254
-0.00799488
-0.00169335
0.00718659
-0.00549322
-0.0156718
0.0635723
-0.0479005
0.115175
0.0350173
-0.0952174
-0.205621
-0.150812
-0.143217
0.0201341
0.138275
0.498566
0.0357712
-0.534337
0.141646
-0.125004
0.0192429
-0.0260992
-0.0537028
-0.114113
0.542226
-0.0914219
0.135524
-0.0441008
-0.00136065
-0.0929401
0.100634
-0.00769364
-0.0050013
-0.00812018
0.123553
-0.100882
0.433581
-0.161863
0.0868644
-0.0778088
-0.0090556
0.0206416
0.172645
-0.00533663
-0.0245495
0.0329994
-0.298626
-0.332214
0.143396
0.230709
0.442292
-0.270561
-0.171726
0.217996
-0.0431719
0.087319
-0.0868677
-0.000451392
-0.00546058
0.037747
0.00552492
-0.0340006
0.049736
0.113193
0.314406
-0.473624
0.00464663
0.0826488
0.222193
0.0925416
0.0132873
-0.0815484
-0.0114492
0.00948512
0.132863
-0.107847
-0.000187101
0.00428711
0.00708529
0.00398801
-0.00237206
0.0136763
0.110651
-0.124328
-0.0245478
0.171301
-0.0202573
0.0174473
0.180262
-0.154221
0.067149
0.0922629
-0.159411
0.0800619
0.036604
-0.00888436
0.330992
-0.146503
-0.184486
0.0406595
0.0204114
0.325378
-0.158514
-0.0469594
-0.0106535
0.0576129
0.00741805
-0.375935
-0.181454
0.173991
0.140899
-0.027258
0.0913248
0.00198972
0.173046
-0.132441
-0.0406044
-0.347911
0.553854
-0.205937
0.0271954
-0.199708
-0.168995
0.214423
-0.0454276
-0.114651
-0.112283
0.226933
0.0218574
0.0399286
-0.0617858
0.275388
-0.459311
0.183925
0.00647204
-0.0593174
0.0182628
-0.0162435
0.181504
0.143876
-0.173351
0.148803
-0.0232107
-0.132747
-0.489684
0.244886
0.035632
-0.00244551
-0.0132274
0.00568843
0.0221146
0.00381447
-0.0259294
0.209753
0.244938
-0.454686
0.03276
-0.207761
0.175004
0.0251734
0.163645
-0.188817
-0.217012
-0.0289847
0.245998
-0.0917044
0.013843
0.0778614
0.0269838
0.371499
-0.598983
0.227486
-0.0107115
0.107089
-0.096378
-0.125301
-0.0520737
-0.0786054
0.0174521
0.0611533
0.142218
0.00116857
0.0453125
-0.214307
-0.214574
0.0464993
0.168078
0.0862031
0.10875
-0.0123379
-0.0964117
0.108853
-0.231052
0.368267
-0.137212
0.0122027
-0.0172972
0.00393415
0.013363
-0.0486257
0.0269075
-0.000943465
0.000628144
-0.0572289
0.0102696
0.00258054
0.0128141
0.00350123
0.366679
-0.194903
-0.171773
-0.338679
0.162413
0.176605
0.118984
-0.295588
-0.00985797
-0.072779
-0.105694
-0.0325373
-0.105232
-0.0111265
0.010539
0.000587575
-0.313557
0.154985
0.18716
0.335482
-0.52264
0.379096
-0.00938115
-0.0761578
0.298357
0.215721
0.126272
-0.202771
0.0764997
0.102022
0.0850139
0.0791174
-0.0595455
-0.0195719
-0.114902
0.214883
-0.0999795
-0.336985
-0.18094
-0.449186
0.259527
-0.145038
0.32924
-0.184198
0.185568
-0.623304
0.115395
-0.113335
-0.00205979
-0.0779819
-0.0137225
-0.0502641
0.117414
-0.0660171
0.00856442
0.0574528
-0.200064
0.347021
-0.146955
0.157442
0.00364643
-0.0350089
0.0284242
-0.0191548
0.000485215
0.0788138
-0.00737175
-0.071442
0.0676373
0.0339486
-0.101586
0.063014
0.0361584
0.425694
-0.1244
0.102765
0.0216351
0.0267343
-0.241306
-0.425677
0.142975
-0.180223
0.191708
-0.0114859
0.00144846
0.112758
-0.276704
0.163947
0.105575
0.00317451
-0.0644003
0.0626918
0.292845
-0.188015
-0.303258
0.109686
-0.159702
0.119683
0.0400194
-0.00344099
0.35989
0.213068
-0.572958
0.0296368
0.0494806
-0.126509
0.303114
0.0750454
-0.0849034
0.463439
-0.227703
-0.0925508
-0.179868
0.0736649
-0.0666807
-0.0196324
0.0863134
0.0533462
0.230155
0.0116572
-0.0771053
-0.00214902
0.000719545
-0.0864819
-0.0438696
0.0105076
0.033362
-0.344418
0.109062
-0.000378627
0.00591226
-0.076342
0.0603245
-0.394768
0.300605
0.094166
0.00030829
-0.0781169
0.0300789
-0.101117
0.0801985
0.0209187
-0.219093
-0.190675
-0.112151
0.302824
0.433365
-0.443622
0.0102646
0.306854
0.253753
-0.0516563
-0.202093
-0.132136
0.1429
-0.0107639
-0.10565
-0.0126924
0.118342
-0.17785
0.305296
-0.216678
0.431967
-0.0978757
0.0234694
-0.237975
0.417316
-0.179341
-0.0766038
0.0530639
0.02354
-0.174143
0.0173712
2.11052e-05
0.0111465
-0.0111676
0.0643655
-0.0912869
0.247085
-0.474757
0.227674
0.00958207
0.247521
-0.53436
0.286846
0.18172
-0.02187
0.110815
-0.116762
0.00594811
0.0885663
-0.0097524
0.123376
-0.124084
0.330028
-0.593983
0.263956
0.107256
-0.0200041
-0.0832287
0.029234
0.0539947
0.101019
-0.100004
0.0190056
-0.0918325
0.0728272
0.127523
-0.102387
-0.0251345
0.0939196
-0.117943
-0.0787886
-0.036605
0.122467
-0.00494962
-0.117517
0.0748613
-0.189762
0.220384
0.195124
0.0668554
0.000936229
0.00350766
-0.0470962
0.211718
-0.16462
-0.428069
0.265431