/*--------------------------------*- C++ -*----------------------------------*\
| =========                 |                                                 |
| \\      /  F ield         | OpenFOAM: The Open Source CFD Toolbox           |
|  \\    /   O peration     | Version:  v2012                                 |
|   \\  /    A nd           | Website:  www.openfoam.com                      |
|    \\/     M anipulation  |                                                 |
\*---------------------------------------------------------------------------*/
FoamFile
{
    version     2.0;
    format      ascii;
    class       volScalarField;
    location    "150";
    object      omega;
}
// * * * * * * * * * * * * * * * * * * * * * * * * * * * * * * * * * * * * * //

dimensions      [0 0 -1 0 0 0 0];


internalField   nonuniform List<scalar> 
13851
(
0.0245659
1.51446
0.112153
0.0240699
0.122498
0.0484142
0.0219135
0.0696278
0.0205678
0.115906
0.281542
2.01533
2.57196
3.32504
0.0214356
0.0455997
0.0295927
0.0328966
0.546726
0.0205689
0.0238578
0.110782
0.023802
0.0215181
0.0243539
0.0703671
0.028234
8.54477
0.0243789
0.0269629
0.0541936
0.0303143
0.107859
0.233217
0.0214202
0.22939
3.35451
0.232807
0.126972
0.217671
0.0215202
0.0200059
2.66875
0.308828
0.314428
5.30153
0.308216
0.746365
0.0288032
0.284614
0.119032
0.210736
2.70635
0.0216554
0.0221943
0.0200309
0.0210003
1.49473
0.0265523
0.0220543
0.23334
2.98197
0.0560638
0.14127
0.139063
0.0264059
3.48644
0.267287
0.0507947
0.0325241
6.70287
3.77211
1.38232
0.0217955
0.0210744
0.0207326
0.107978
5.77485
0.0736623
6.86291
0.0226152
0.235035
0.0214777
5.6725
0.0582005
1.87375
0.0396424
0.210828
0.0309991
0.0215282
0.235608
0.0286038
0.243867
0.0363218
0.0304996
0.0216143
0.124993
3.29669
0.354193
0.0216751
2.38886
0.0808539
0.0230605
0.027485
0.0257084
0.0395597
0.0893191
0.0198479
3.99509
0.0505573
0.0217813
0.0216213
0.0277672
0.0225212
0.0216446
0.912209
3.33914
0.0198071
0.021925
0.022325
2.93116
0.0271878
2.65405
0.65225
0.74206
0.0232304
0.735584
0.0766112
0.0235666
0.187793
0.0214891
0.0206891
5.28673
0.0214702
0.914199
0.0208073
0.0198063
3.69049
2.9415
2.51415
2.24759
0.0222809
0.0218644
0.0205809
0.0257222
0.307442
0.078365
0.185628
0.0218792
0.306035
0.129218
0.0220396
3.50603
0.0210602
0.0250714
0.0255081
0.0210263
0.0250814
0.209161
0.117212
0.0203801
0.0365201
1.51652
0.0206709
0.0339177
0.0202867
0.100709
0.0515661
0.0233947
3.39119
7.17961
0.0203567
0.0210501
2.53681
0.0206641
0.749318
0.074372
0.022033
0.66594
0.0199177
0.0320836
3.79785
0.0214494
0.116294
0.0200696
0.0222699
0.0267238
0.0218128
0.134286
0.106971
0.293121
2.03825
0.0221102
0.0506592
2.96079
0.0246976
0.0216893
0.354449
0.0218827
0.0207582
0.0239041
4.4636
0.0227817
0.0213768
0.0926952
0.0214699
3.08642
0.0300061
3.56859
0.020062
3.88992
0.0228984
0.341137
0.0198413
0.0204609
0.27257
0.0571123
4.58563
0.0213756
3.52701
0.030399
0.0227181
3.58468
0.191782
3.8544
0.023012
0.0409829
0.0263617
1.53518
0.0198599
0.0682543
0.12005
0.0203528
0.0220035
0.10684
0.0520475
2.98237
0.150546
0.0205567
0.021394
0.0510267
0.381927
0.0215138
0.100039
0.0241247
3.68308
0.0816221
0.275482
0.0256716
0.0312253
0.0253202
0.366853
0.0227423
0.0258796
0.0847611
0.103544
0.103202
3.70846
24.7318
0.0214992
0.0204829
0.0309463
0.265434
0.0209355
1.42512
0.0246673
0.0226621
0.0352003
3.55378
0.316503
0.0252748
0.0250542
0.100401
0.0695988
0.043754
0.0206984
0.232695
0.251805
3.96294
0.280271
0.0215472
0.0199841
0.0255845
0.0802327
0.238066
0.742772
0.0206585
0.0214647
0.0959309
0.255395
0.212355
0.0260205
0.0220872
0.0552771
0.258912
1.3445
0.0330079
1.82968
0.0207199
3.72827
0.0355339
0.0292242
3.97036
0.0221205
0.0406283
3.66905
0.0206423
0.0693789
0.0365695
0.0256045
3.26246
0.0333661
0.0226161
3.50802
0.0200837
0.0317748
0.0281724
4.04151
0.209547
0.0213794
0.0832024
0.0214081
9.65743
0.0264923
0.0231042
0.0212803
0.206608
0.0392431
0.0248714
0.0214651
0.0220779
0.0225254
0.291489
4.12277
3.16248
0.0357155
4.02935
2.59429
0.0213836
0.0517052
0.211385
0.0310784
0.0643865
0.182007
0.482517
0.0240696
0.459232
3.70816
0.0214555
0.221182
0.234292
0.212289
0.0248396
0.0672691
1.51619
0.021084
0.392591
0.0212627
0.0214155
0.0233808
0.0198591
0.020966
3.77392
0.288398
0.0215855
0.0654032
0.0201954
1.82315
0.0548358
0.683345
3.25164
0.0216134
0.0615918
0.036707
0.700827
0.021377
0.0198268
0.0258786
2.54632
0.0214167
3.37441
0.0306636
0.197166
4.07388
0.310107
0.312453
0.0242228
0.0207715
0.0223032
0.0340519
0.083154
3.62526
0.0516928
3.92881
3.68999
0.0202111
0.0215148
3.2669
5.23702
0.111713
3.39113
0.0261543
0.0380689
0.0219319
2.29164
0.0204414
0.044506
0.0238961
0.0217966
0.0262217
0.02062
0.0202719
0.138923
0.0624863
5.62197
0.03295
0.088955
0.0332128
0.358074
0.0332022
0.20007
0.0286414
0.274499
0.0197856
0.0206052
0.0225233
0.21276
0.393105
0.182391
0.0327619
7.78338
0.260423
0.0379797
0.0224742
0.108279
0.0213461
0.351519
0.0251694
0.450918
0.355285
0.0990181
3.7129
0.0220271
0.25205
0.373197
3.29571
0.0197593
0.041265
0.0754538
0.314413
0.0204105
0.0225571
0.119185
0.1913
0.0384249
1.88277
0.0228436
0.0213524
1.74638
0.0351402
0.0199388
0.774881
0.0207602
0.0244896
0.0204791
0.0534328
0.024305
0.0200081
0.0219028
3.47055
0.0214998
0.0559285
0.0207776
0.0281744
0.266203
0.0226108
0.0214417
0.0224909
0.0225617
0.756898
0.022607
0.0427038
0.0214396
0.0216851
2.41958
3.87425
0.0215101
0.0286928
0.0334418
0.401132
5.34794
0.0213763
0.300464
0.0214143
0.119826
0.0219066
1.64532
0.0199344
3.07935
0.101371
0.0200279
0.0285874
3.22366
0.0695297
0.307141
0.0217817
0.386287
0.0225945
0.0205988
0.0206985
0.0217779
4.28002
0.106017
0.220559
0.994981
0.0550065
0.0204651
2.8234
0.397898
0.0324518
0.0369191
0.419878
0.633337
3.89147
0.022672
1.69352
5.54267
4.7603
0.0346543
0.0290682
0.729161
0.257555
0.0962792
0.338438
1.51395
0.0254231
1.73307
3.50353
0.0197768
0.251241
0.107808
4.69117
0.0260382
0.0213083
0.0209984
0.0214328
0.133856
0.0491895
0.225148
1.9051
0.0206435
1.82086
3.66517
0.051328
0.400473
0.0550264
0.0198559
0.0205844
0.20543
2.9865
0.0252832
0.153887
0.238935
0.0200104
0.036864
0.691964
0.219848
0.177712
4.06336
3.56529
0.0214475
0.0218203
1.809
3.64667
0.22907
0.0516283
0.0599324
0.0199015
0.0211885
0.514799
0.019969
0.0258208
0.019902
0.0208001
3.50634
0.135619
0.0307609
0.019954
3.52816
0.373701
0.020757
0.0209458
0.0209335
0.022178
2.42845
0.291755
0.318383
4.64108
0.327581
0.0476104
6.21242
3.73287
0.0243656
0.051437
0.0198525
0.026219
0.0489604
3.35325
0.353699
0.15161
0.0384608
0.0205359
0.0442976
0.0216371
0.311957
0.117065
0.021421
0.0369521
0.0204126
0.0347125
0.185887
0.0219849
0.0213126
0.0550883
0.0220051
0.122518
0.217253
0.182162
0.044832
0.24418
0.0205268
0.0930462
0.0258884
4.47801
0.022792
0.0215204
3.93947
0.0256234
4.50126
3.6731
3.12683
1.1866
0.020442
3.85836
0.0220345
0.0207861
0.0199105
0.0208051
0.0328919
0.0338284
0.0502366
0.0199171
2.51384
0.104689
2.65294
0.0209103
0.0203134
0.0223399
0.205652
2.93155
0.0870167
0.0353696
0.0221602
0.0216721
0.0210208
0.0210707
1.31544
2.22835
0.0219494
0.0199057
0.0217995
0.0210711
0.202901
1.72254
0.045607
3.20639
0.507775
0.0212856
0.21486
3.0129
0.0546787
2.01689
0.0225867
0.031339
0.0851467
0.0315919
0.354519
0.0214884
0.725543
0.025632
0.0434469
3.53847
0.020796
0.0244682
0.0576569
0.0206044
0.0309578
0.132098
2.86992
0.113948
1.04957
0.302002
0.0198566
0.0208875
2.31287
0.23367
0.0558213
3.70948
0.020476
0.0251825
0.0198011
0.298964
3.30345
0.0302811
0.0223398
0.266885
0.0285682
0.022169
2.21255
0.111074
3.40687
0.0200601
0.0219146
5.93349
3.43531
0.25005
0.0215173
3.84033
0.0214848
0.269713
0.165289
0.106183
0.0295988
3.88756
0.0248176
0.0221144
3.12658
0.0215353
0.0227959
0.0245948
0.0205094
2.32858
0.0440435
0.180316
0.0305059
0.256011
0.0205554
0.171727
0.0215847
0.0247591
0.020601
0.0212327
0.0213282
3.62191
0.0209893
0.0199101
0.457348
0.0218641
4.4986
0.0255
0.0217011
0.117243
0.198662
0.255193
0.0206747
0.0720212
3.2242
0.0226847
3.75508
0.0427238
0.0204865
0.0288277
2.28421
0.064548
0.0314202
0.0207038
0.0198606
0.388227
0.115878
0.0751367
0.0322035
0.0287491
0.0223458
0.0216101
0.154155
0.389903
0.13182
0.389435
0.0218707
0.121499
0.138684
4.06946
0.029835
3.02382
0.67976
0.0218897
5.85613
0.0852939
3.06122
3.00286
3.48904
0.336287
0.0590573
0.0205018
0.0331104
1.5068
6.44
0.0211637
0.0220612
0.108623
0.281887
0.0200256
2.58396
0.02046
0.0215891
1.92223
5.85196
0.305643
0.0207704
0.0214311
2.70337
0.952802
0.20065
0.0232733
3.10705
0.219485
2.92878
0.0885522
0.0644953
0.0226278
0.0218732
1.25614
0.0803422
5.58322
0.0266534
0.0509222
3.67589
3.07266
4.00712
0.0215949
0.0442261
0.020741
0.0462467
0.0243073
2.21063
0.0249901
3.54954
0.0200064
0.113852
0.0212329
0.191575
0.0489839
0.0436198
3.23946
0.0698421
0.0561805
0.0216268
0.113672
0.742872
0.0654115
0.0259577
7.35715
0.0208459
3.0076
0.314127
0.0221269
3.88085
2.54262
4.14151
0.331582
0.0262225
0.0211811
3.4131
0.025096
0.920971
3.57494
0.0209269
0.024582
0.221446
0.379304
2.69558
0.0219084
0.02067
1.29421
3.5498
0.177069
0.0304638
0.0227898
0.321406
2.07799
0.141981
0.0199225
0.0599133
0.0206247
0.0222635
0.285545
0.0219343
0.548728
0.352297
0.0216145
0.0220041
0.0212071
0.0247514
6.2291
3.20122
0.0405679
3.07788
0.0212285
0.0404152
0.0211288
0.0206422
0.022
0.0215882
4.34481
0.0215203
0.0850415
0.0216135
0.0318002
0.299956
2.96491
0.0217791
1.8288
0.0780388
1.90895
0.0455938
0.0468465
6.77166
0.0347719
0.0496968
2.15448
0.933179
2.32008
0.0607257
0.291994
0.0226144
0.0653189
0.0820324
2.79278
0.0208958
2.26526
0.0208671
0.0209318
3.38023
0.0227017
1.6902
0.030159
0.0207175
0.0355925
0.0207382
0.0214357
0.0233591
0.0224711
2.80119
0.0209479
0.826559
1.82019
0.0839328
2.74109
0.0218293
0.0217635
0.0314099
0.0214518
0.0207146
0.13261
0.0226244
0.0207236
0.0224344
0.0236383
4.38516
2.13044
0.0624211
3.39418
2.01132
0.0211837
0.557687
0.0380276
0.0209441
0.322123
0.045044
0.549484
0.0211302
0.315335
0.385297
1.61288
0.0203789
2.54097
0.0424676
0.0279024
0.0243673
0.02048
2.32038
0.0803597
0.760848
0.0207543
0.0214181
0.670598
0.0221634
0.199548
0.330071
1.01486
0.821719
0.349456
0.0220798
0.0215378
0.0615462
0.0284314
0.0275068
0.175841
0.0638592
0.0227115
0.0226381
1.91215
0.0207324
4.0718
2.48859
0.942401
0.235433
0.0226187
0.0205934
0.0221368
0.300748
0.364771
0.0203766
0.0227643
0.0207312
0.127616
0.0201279
0.0207021
0.0228062
0.0479047
3.11072
0.0516171
0.0368984
0.0213592
0.0858974
1.83015
0.0234149
5.57706
1.09078
0.135475
0.0203067
0.0711713
0.0213056
0.0233264
0.0220376
5.70024
0.206087
0.386817
0.0276789
0.271369
0.0213599
0.0259757
0.0221106
0.543036
0.493437
0.020294
0.047299
0.0643904
3.91865
0.0225619
1.70153
0.0344131
3.29257
0.105869
3.70845
0.156597
0.132364
0.212837
3.59116
0.349883
3.996
0.0211582
0.158002
0.0201064
0.026184
0.033341
0.0220673
3.62991
0.0396952
0.036025
0.332304
0.243218
0.755554
0.0213927
0.0269662
0.0311677
0.0206705
0.0344212
1.44001
0.362225
1.48232
0.0209845
0.0349508
0.0235649
0.696578
3.39749
0.0611638
0.0205892
0.0224583
1.80662
0.0675382
1.32642
2.95651
0.0319255
0.0202871
3.1558
0.0334724
0.0684757
0.0382652
3.82083
0.295378
0.171696
0.0976894
0.0231998
0.027437
0.021591
2.30388
0.0575945
3.72158
0.26316
0.0329228
0.251307
0.0245705
3.83546
0.95653
0.0231746
0.171601
3.50787
0.182812
3.85043
0.0217004
0.0215768
6.11504
2.09417
1.73178
0.0228579
0.0218122
0.0216139
4.29703
0.253808
0.0224296
0.0473352
0.119524
2.74333
3.03931
0.721401
0.0215029
3.75844
0.0294353
0.0214107
0.250145
2.96083
0.0219326
0.0208498
3.78754
3.76152
0.0235232
0.0209669
2.2688
0.0227179
0.202826
0.020986
0.607393
0.0215708
0.0866767
1.41105
3.40829
0.0241383
3.55577
0.350435
2.4374
1.68863
3.25596
0.0317968
0.0212477
0.776465
0.0225616
0.0214084
0.0206681
0.546435
0.0212586
3.24079
0.0208697
0.0221467
5.76088
0.0945315
0.371056
0.0248824
0.0592348
0.0206916
0.0477758
3.45307
2.4479
0.0207814
0.107218
0.313747
0.0220322
0.02049
3.48062
0.0513946
0.0483949
0.214711
2.56255
0.569259
3.4169
3.8265
0.0314099
0.275709
0.384913
0.599932
0.106341
0.021405
0.217195
0.0212368
0.0211908
2.01143
3.50711
0.0248849
4.32502
0.082216
4.40089
0.0517048
0.0420106
0.0213787
0.0871658
0.290403
0.0227522
0.0243746
3.71821
3.36897
1.70591
3.81219
0.0515906
3.57288
3.79301
0.0468869
0.0218167
0.0210956
0.248973
0.0210628
1.35487
0.0223748
0.0230783
0.0252319
2.1743
4.04401
1.94252
0.0223475
3.27114
0.0290947
0.0367253
0.021038
0.0230143
1.49855
0.0338017
3.73325
1.18439
0.044591
0.196636
0.0215011
0.0557165
0.0220781
0.253433
0.0219599
0.0246992
0.0222263
0.0220143
0.250454
0.0232159
0.0494989
0.0245742
0.0503273
0.223112
5.97052
0.0210951
0.0761987
0.0264918
0.0617323
0.067715
2.82019
0.158587
0.0463601
0.0272913
0.0227363
0.060529
0.0214258
0.262684
0.0214478
0.0207887
0.0215907
3.53176
0.0349353
0.0257882
0.026888
0.0247577
0.10844
3.43602
1.0484
0.0545504
0.0215915
0.213009
0.0215373
0.0208982
0.236636
3.545
0.0253177
0.0380541
0.109631
3.37806
0.0225067
0.0230238
3.56411
0.0243266
0.234008
2.05162
4.10002
0.0215964
0.0982524
0.0213604
3.79505
0.249723
0.0626339
0.193535
2.01171
0.0239129
4.03178
1.51607
0.0219673
2.38875
0.135321
0.0226107
1.51764
0.0218338
0.0212026
0.0204383
0.243245
0.0480113
0.244498
0.0247267
0.0235735
0.0428202
0.26242
2.87754
4.0298
0.303864
0.0229197
0.251785
0.178997
1.68103
0.103017
0.284565
0.0210798
0.0266698
0.0204934
0.121905
0.047787
0.021351
2.02602
0.158303
0.0460188
0.0241823
0.0200904
0.0248219
0.0744915
0.0485495
0.639411
0.105669
0.0955702
0.0808751
0.161951
2.09063
0.0608239
3.99644
0.0211047
0.0207486
1.07241
2.19696
1.90446
0.0465166
0.0215305
4.9782
0.307276
0.0208218
0.0338061
0.0208491
0.0652743
0.116592
0.188977
1.97771
2.70681
0.0245033
3.00284
7.16936
0.0214883
0.0941969
2.75922
1.68818
0.0274506
0.126842
0.0198529
0.0231769
0.0221277
0.029994
3.96454
3.17657
1.69203
3.70962
0.0244028
0.0453907
0.0735625
0.0235599
0.0217887
0.0204856
3.32395
0.0210129
3.89553
0.0485143
0.0520489
0.193898
2.25021
5.28475
3.40028
0.0643909
0.0202456
0.0496159
3.19643
2.32431
0.0297328
0.0208035
0.0204733
0.0923234
0.0414394
0.253293
2.31885
0.0242777
0.0204525
0.217878
0.263006
6.41462
0.649084
0.0209793
0.115948
0.0218772
3.91488
0.0204586
3.60066
0.0215771
0.0241109
0.0348569
0.0221667
0.0592455
0.0419198
0.0743295
1.55217
3.38483
0.0308591
0.0409025
0.0213635
3.30604
1.66964
0.0211536
0.0204516
0.323078
0.019768
4.24793
0.0261097
0.0396676
0.0976303
0.109908
0.0489611
0.0231412
0.0218206
0.118105
3.74863
0.0212525
0.103094
4.32136
0.631848
0.18387
0.0440079
4.03213
0.0315959
0.215256
0.0213542
0.333444
0.316162
3.2878
2.13568
2.39584
0.0232568
0.0332398
0.0208314
8.25895
0.322848
3.64335
1.51197
0.033571
2.00901
0.478688
0.0460986
0.0242321
0.0219674
3.79102
0.0309535
0.117619
0.0227232
0.0221212
0.0206462
0.0219703
3.28701
2.22999
0.0423155
1.85602
1.9061
0.0217232
0.0214275
0.0204863
0.0271687
3.56884
3.00876
0.0304009
0.023344
0.273444
0.108251
0.0702945
3.63541
0.0407008
3.93334
0.0433419
0.0339749
0.0213816
0.0227056
0.11316
0.385642
0.351219
3.61168
0.100544
3.79848
0.0234524
0.0287725
0.0240542
1.60767
2.32773
0.528904
0.0453761
0.0267655
0.0216167
0.0210217
0.0214473
0.0204993
2.27788
0.038787
2.46857
0.0428052
3.00766
0.393963
3.72429
0.0274022
0.0327953
1.64815
0.0528221
0.456034
3.72544
0.0205829
0.123039
0.0352803
2.86227
2.9962
0.0468709
0.0478239
0.252832
0.0220297
0.0585693
0.0249484
3.19574
0.276718
0.0277906
0.0218319
0.344579
0.196827
0.190749
0.681061
0.213365
0.0275596
0.0208266
0.405754
3.5493
0.105204
0.0443465
3.32951
2.86296
0.0208518
0.0215297
0.0283485
3.68431
3.53612
0.0214147
4.68914
0.0230382
0.021126
0.0220854
4.1273
0.216863
0.0688422
1.96989
0.0245004
0.0245926
0.021029
6.61752
0.0223115
3.88079
0.0249502
1.6376
0.0224303
0.0212406
0.175868
2.36584
0.323068
0.0497404
2.20951
0.021135
0.0218181
0.021552
0.0671899
0.103431
0.104224
0.0448519
3.62156
0.0288333
0.177066
0.110466
1.8397
0.0213513
3.84863
3.54753
0.0306132
0.480102
0.109523
2.06922
0.0220356
0.0899707
0.0209325
0.319975
7.33022
0.0892917
3.87388
0.0254591
0.0797086
0.0237121
4.42204
0.0203346
0.0208265
0.473964
0.113663
2.12963
3.37814
0.108198
0.0377641
0.020427
0.921514
0.0338248
0.0228587
0.25352
0.0229591
0.0690192
0.0216162
0.462964
0.0223335
0.308594
0.33577
0.0341775
0.0888879
0.0766059
3.91227
0.0214966
1.34075
1.57299
0.0206182
0.0215131
0.0248571
0.0225088
0.0583945
0.021153
0.507767
0.126438
0.265234
0.0636865
0.0218272
0.0226512
0.0204402
3.50318
0.0218615
0.0214762
0.522586
0.02776
1.66909
3.86759
0.152437
0.0253044
0.0467948
0.0244439
0.0230051
0.0324859
0.0205286
0.0281055
1.65765
3.67333
1.81057
0.0243038
1.97388
0.189492
0.0225363
0.260036
3.4694
0.021424
0.0268434
0.0213466
3.72578
2.23312
0.531855
0.0205147
0.0278218
0.0228671
0.0218583
0.196891
0.0219721
0.0792655
2.10982
3.9527
0.0205478
0.027757
0.0267403
3.03465
0.0201081
2.04061
1.54161
0.0663177
0.966713
3.16291
1.72497
0.022688
0.555812
0.54505
0.0238742
0.0204144
0.0208924
3.8506
1.69625
2.47559
0.0239298
3.94434
0.0220107
0.20569
0.0206901
0.0255577
0.0237322
0.0205403
2.4124
0.0240157
2.29255
3.02178
2.01346
0.0689978
0.0859002
2.23926
3.70928
0.0213254
2.80591
0.020441
0.0198539
0.0213966
0.0944227
0.0208293
1.55742
0.0327352
0.200167
0.0466358
1.54617
1.69512
0.100572
0.0205196
0.0753421
0.102479
2.46257
0.0213531
0.0204012
0.0229473
1.88281
0.0217921
0.297615
1.50676
0.0648684
0.0893513
0.0214066
0.22849
0.0224159
3.59286
0.0202848
1.96845
0.0459254
0.0217908
1.52488
1.936
0.020283
0.110215
0.0286351
2.42376
0.127376
0.131773
0.146277
0.0224728
0.0744441
3.17794
0.0218005
0.0920107
0.0227085
0.128255
0.047693
1.53252
3.4836
0.0218416
3.87117
0.0239695
0.0684023
3.34035
1.51315
0.0456622
3.56309
0.216818
0.0218522
0.294486
0.245903
0.0443184
0.0239038
3.01706
0.020303
2.21279
0.0785513
0.14235
0.0213771
0.0354763
3.74948
0.0692738
2.94938
0.0230984
0.0273224
0.0904624
3.03713
0.0332915
3.74344
0.462589
1.60353
0.0221017
2.92187
0.856539
2.54978
0.0214573
0.0367236
0.0214314
3.81088
0.0247392
0.246309
0.215099
0.0225619
0.0206134
0.0214331
2.6394
3.83213
2.44389
1.77789
0.0210126
3.13508
3.66336
0.231228
1.66395
3.61108
0.0427476
2.33602
0.0264231
0.0323906
3.70365
2.63075
0.0343911
4.24381
0.0222164
0.0215513
2.76453
3.56682
4.03426
8.27845
0.0417775
0.0225545
0.022803
3.74479
1.89118
0.0212584
0.0752014
0.47023
0.0215701
0.0219081
3.28609
2.92749
0.0251916
0.0214934
0.0236688
0.0239437
0.326282
0.0224765
0.020963
0.0308639
0.146676
3.57708
0.0498699
3.02588
0.0218833
0.0284169
3.424
3.71097
0.0343129
0.0988846
0.021361
0.0539458
0.0231742
0.0437282
0.093307
0.0209415
0.199186
0.0426383
0.0207162
0.0277416
1.26361
1.59136
4.11113
0.0215958
0.0237199
3.80086
0.325915
0.0281242
0.0212848
0.0215464
0.279056
0.0219501
0.0211604
0.0364904
0.0214923
3.45921
0.0470046
0.0224526
0.0280558
0.0204254
0.0219698
1.20834
0.550385
0.115221
1.65115
0.0565016
0.0227059
0.0213416
0.0218003
0.0213914
0.0223766
0.0228048
0.0925749
3.33306
0.0224394
0.166403
4.02923
0.10831
0.0214015
0.0208444
0.0267058
2.61992
0.0213314
0.198785
3.0538
0.0497878
0.0228462
7.01509
0.0205996
0.0402821
0.0204209
0.0206442
0.0218652
0.0206973
0.0312926
2.60136
0.0839846
0.0572097
0.208433
0.0863078
0.23456
0.0467916
3.61568
1.59487
0.160318
2.49816
3.36689
0.189944
0.24155
0.0225294
0.0209815
1.87049
0.0210778
0.0283372
3.12123
0.327239
1.64247
0.156644
0.0207029
0.110398
0.0218473
0.0694517
0.0206835
0.326353
2.24552
3.26116
0.885043
0.0218618
0.0203379
0.119651
4.03056
3.48441
0.147835
3.23682
0.0208923
3.50713
3.96435
0.0555702
0.0263855
0.0219261
0.0209984
0.0250508
0.0217471
0.0215301
0.0278237
3.46355
0.125483
3.74125
0.4087
0.257066
0.256239
0.0213412
0.021005
0.0215537
0.0205204
0.0224416
0.527819
2.09985
0.692035
3.91211
0.0265646
1.8199
0.187413
3.77054
3.66124
0.0218941
0.0206799
0.341889
0.0218724
0.0202952
0.488385
3.47287
3.33331
0.0216172
0.0218749
0.023077
0.0547133
0.936447
0.0204537
0.025804
0.944691
0.0231844
0.339029
0.0540277
2.97829
0.0225133
2.45725
3.7982
0.0476141
3.68473
0.176937
3.77087
0.0205227
0.0295826
0.0208103
0.0397097
3.76845
0.0238957
1.5913
0.0214617
0.0211058
0.0214923
3.84672
0.0703506
0.173023
0.551535
0.0204885
0.0590482
1.55233
0.076035
0.0211392
0.0229193
0.0218834
0.0533892
0.0212374
0.020751
3.85141
3.98558
3.78367
0.189695
0.518795
1.71569
0.118568
3.97124
0.173408
0.0204214
0.0235072
0.0197867
0.0221638
3.80023
3.76342
0.0206867
1.79901
3.71319
0.041285
0.0223162
0.0252153
2.9461
3.193
3.49442
0.225388
3.49626
0.0197707
0.243366
0.150401
0.305807
3.77452
0.0214319
0.236378
1.60137
0.0433603
3.55038
0.022469
0.315101
1.65333
3.54423
0.127272
0.042843
5.79352
0.24715
3.55296
3.68708
3.44229
0.187477
2.62773
0.0219271
0.0247218
0.0747382
4.43646
0.345789
3.83193
0.0212637
0.149589
0.0903816
0.0216072
3.44494
0.0214294
0.224824
4.45219
0.0214191
2.46356
2.59021
3.60552
2.86931
0.272125
0.482658
0.0210966
3.85057
0.021434
0.0207178
0.0644426
0.0276035
3.57718
0.0281913
0.0241549
0.0281209
0.0206866
1.81554
0.0250519
0.190639
0.288656
0.0205634
4.0595
0.152513
0.0223658
1.59139
0.719731
0.0213732
0.114905
0.0231663
3.7188
0.453721
0.0207173
0.209484
0.0252447
3.93296
3.51584
0.118462
1.19865
0.0273754
0.0215625
2.98386
0.0282331
0.0214192
3.24072
0.0648935
0.020901
0.0207094
0.175651
0.0246854
4.36322
0.27541
0.354923
2.0003
0.0872531
0.0910888
0.0211365
3.96089
6.13796
2.3041
0.0214721
0.0205838
0.11419
0.0405492
0.393644
0.0214556
0.47814
0.0211798
0.147434
0.0210927
0.399679
0.189344
0.19309
3.96138
1.17113
3.41576
3.52313
0.0198658
2.96242
3.19702
4.82762
0.0207912
0.229684
6.15668
2.55473
0.201035
0.332621
0.155273
4.01041
0.0739114
0.386932
0.0205253
0.0758531
0.0693399
0.0213877
0.117537
2.06008
0.133809
2.19617
3.63416
0.0212411
0.0207918
0.0302088
0.0214052
0.885581
0.0204727
0.0207227
4.05515
1.63067
0.0396404
0.155278
0.0216576
0.112596
1.67353
3.55629
1.57584
0.0320744
3.53836
0.023294
0.0204694
0.0261707
3.69819
3.0529
0.229823
1.8456
0.0238327
0.0207556
0.0214127
0.0225617
0.0345873
2.35366
3.39669
0.0381767
3.51467
4.38297
0.551623
4.91875
0.0215955
0.041309
0.0704001
0.0215193
0.127933
0.0346486
0.0280112
2.99061
3.56569
0.0204715
0.0638863
0.040434
0.0962616
2.77204
2.31635
3.97618
0.0217915
0.141464
3.90228
0.137842
0.204464
0.396763
2.95078
4.08849
3.93714
0.0204471
2.4928
0.0206808
0.024072
0.0215047
0.0907103
4.05629
7.35214
0.464126
3.28707
0.0854959
0.0202642
0.0208227
0.0218954
0.022247
0.0697294
4.01526
3.80103
0.129782
0.319335
0.0221756
0.0842268
0.0206208
3.5744
0.0823558
0.0216958
0.161825
0.157625
0.390751
4.01165
0.172402
2.44686
0.0292338
2.42864
0.637576
3.58942
0.325362
0.0231952
0.0828904
0.0217863
3.22634
1.8805
0.0606221
3.37986
0.409622
2.76856
0.0970395
0.155075
0.0501176
0.0209259
0.213214
0.0808776
0.0284902
0.0817554
0.0434309
0.0454628
1.6183
0.248178
0.0252425
0.0405181
0.0551829
0.0420909
0.0224906
2.20887
0.161187
0.205108
7.31665
0.0215933
3.6293
0.0215182
0.0261781
0.0261254
3.59697
0.05174
3.5645
4.36516
0.0880235
0.0489807
0.196898
2.1105
0.252012
1.16406
0.0229231
0.0740745
0.0208075
3.62603
0.186858
0.0228926
0.0224047
0.0502436
0.0330586
0.0283069
0.0801592
0.0639081
0.0220697
0.0445388
3.52452
2.81114
0.123668
0.0646494
0.0201119
2.17085
0.0476482
0.107491
0.208007
0.0697886
1.38785
0.0203134
0.0245483
0.0258654
0.0431878
0.0213514
3.7422
0.286634
1.43432
0.0492626
3.58273
1.92836
0.0324953
2.19695
0.109319
1.34954
4.96053
0.0514915
0.028051
0.065039
0.0991898
0.0244818
1.14943
4.17263
0.317346
0.0209302
2.56021
0.215689
0.222619
0.0213453
0.0699654
0.0209293
0.0413085
1.97717
0.039206
0.0390494
0.0209119
0.0208874
0.210837
3.6428
0.0215951
0.200182
0.744813
0.0202743
0.0743492
3.64992
0.158901
0.159999
0.0215108
0.0352402
0.128341
0.0219363
0.0211108
2.83028
0.0401545
3.70659
0.140073
0.0334593
4.06294
0.146241
0.205389
0.0209682
0.386733
0.0432502
0.0342727
1.91894
0.0640554
0.0220304
0.113571
0.0292399
0.0250332
0.0203926
0.724745
0.0215571
0.0782934
0.949555
0.147819
0.0207089
0.213264
0.0443131
3.84401
0.182285
3.91221
0.143717
3.53954
0.0206684
0.123352
0.0319652
0.0211972
0.393871
0.375273
0.0307035
0.107775
0.0649092
0.115034
3.94721
0.0332335
0.439661
0.850423
3.79562
1.94864
0.155242
0.16815
0.0206852
0.0810312
0.0469948
0.712171
1.19096
3.57777
2.20598
3.80121
0.0208636
0.2053
0.0214555
0.0240388
0.021997
0.232738
0.181281
0.0926484
0.0211029
8.18538
0.0357692
4.16439
0.0207888
0.0842453
0.0437484
0.118152
0.0626561
0.162447
0.0251476
0.229846
0.141608
0.0209991
2.16856
2.54003
0.0526696
0.0229768
0.0412488
0.0216676
0.0210896
0.107924
0.0481781
1.77408
0.316698
0.139552
0.157857
0.0221378
1.32737
0.106886
1.94958
0.039854
0.0404339
0.393488
0.0408642
0.034166
0.0672054
4.77888
0.0258081
0.0221905
3.43193
0.0468025
0.0271052
0.0289232
0.0394221
0.0207403
0.0324672
3.67799
0.0210125
0.0629761
3.78983
0.179405
0.113065
0.185828
0.234571
3.80678
3.2938
1.49007
0.0806585
0.171688
0.0247105
0.0302746
0.0218285
0.0210463
1.55057
0.234744
0.0410729
0.0206676
0.135468
0.114585
0.0209545
0.221015
0.0802699
0.0213794
0.0253807
1.8031
0.0345647
0.0592913
0.0510518
0.0212401
0.10337
0.106466
0.0389539
0.200618
0.103893
0.206997
0.15642
3.45681
0.0229315
3.31364
0.194551
0.252458
0.0925703
1.97166
0.123542
0.0322671
0.0803559
0.104928
0.0268488
0.0921183
0.0211848
0.0213304
0.0206781
0.0290678
3.69377
0.0206319
0.16456
0.026239
0.0274352
0.027907
0.373092
0.0265683
0.0865055
0.0219395
0.0282334
0.0296349
0.0206561
0.116994
0.0271235
0.0208531
0.0237193
0.0355301
0.0209039
0.984813
0.0353602
2.2073
0.144982
2.84179
0.0932964
0.091294
0.0344937
0.0649352
0.133905
0.0310258
1.67141
3.13431
0.161368
0.0825996
0.0469578
0.0238827
1.24248
0.0536621
3.58903
0.0214329
0.973434
0.252979
1.35841
1.63006
0.0203751
0.0214683
0.0205364
0.0406662
3.23314
0.0610822
1.00002
0.0312197
0.040722
0.0210567
0.0225845
0.0437986
0.0272528
0.0273156
0.0216081
0.558991
0.2886
3.65198
0.0236225
3.52703
0.0206422
0.0206014
0.16659
0.0228797
0.0283534
0.105091
0.0280675
0.0945047
0.0214862
0.107083
0.0218106
0.0285879
3.57121
0.0209634
0.0270491
0.0245797
0.0270813
0.261322
0.0224054
0.0797649
1.73116
0.0289439
0.0401571
0.0241754
0.0227106
0.0225117
0.159195
0.0218307
0.0299069
2.78349
0.0207359
0.0385398
0.0807624
0.0719122
1.92189
0.0203453
0.0273646
0.0215783
0.0437647
0.124597
0.653577
3.35611
0.0203463
0.031617
0.0889874
0.0227561
3.65811
0.0202697
0.0219011
0.210882
0.0641894
0.0273106
0.0203727
0.134664
0.137496
1.59671
0.0218823
0.189269
0.0203353
0.0204878
0.0268721
0.128983
4.07896
0.0218559
0.0209406
0.249713
0.0218252
0.0262701
2.66577
4.20466
0.0218386
0.0204529
0.021434
0.0416152
0.329351
3.65414
0.0227048
0.168589
0.0209344
0.0215378
1.13535
0.0227694
0.0225218
0.0437403
0.244534
0.237879
0.0265217
0.0233624
2.0399
0.0635704
0.0240176
0.156153
3.75766
0.0217949
0.0224196
0.0260563
0.0213941
0.0218128
0.0207653
0.0205327
0.0581982
0.0257917
0.052693
0.0761589
2.28686
0.273821
0.0411025
0.0203244
0.0216347
0.0234812
0.0260302
0.063774
0.0381298
3.07084
0.0265175
0.0833248
0.0272832
4.13283
1.49979
0.0388808
0.0218605
0.16928
0.0275783
0.0262306
0.0214634
0.023856
0.0211553
0.387297
0.0493671
0.0544479
0.171146
0.0257109
0.0251447
0.0236187
3.71818
1.72616
0.35144
0.0327502
0.106115
0.0968495
3.45351
0.0228588
3.21458
0.102552
0.0214883
0.0223769
1.70974
0.0219116
0.0239093
0.026305
1.27267
0.0217804
0.0223733
0.0269355
2.39
0.0209182
0.0754053
0.97649
0.0270841
0.0217477
0.0212741
0.0215248
0.0223602
0.0223347
0.0423794
0.0216334
0.0217715
0.0223749
0.022461
0.037737
0.0215625
0.281124
0.0217865
0.0222957
0.0545596
0.0499997
0.0364728
1.58384
1.27612
3.78363
0.059133
0.0207203
0.044708
0.466616
0.0204969
0.40772
0.0227463
0.91941
0.025462
0.0698026
0.0223172
0.021444
0.183429
2.62691
2.22838
0.297308
3.85527
0.0222929
0.0208197
2.09938
0.0204576
0.0217635
3.51689
0.0210605
2.88423
0.0215598
0.239276
0.173286
0.0275142
0.243938
0.0516237
0.119149
0.110318
0.132275
0.173502
2.35962
0.517973
2.90148
0.0219575
1.68416
0.0218193
0.0213961
0.0208154
0.0228532
0.977141
0.0240905
3.78865
0.0219274
0.0213969
0.0217678
0.076033
0.021476
0.0215358
0.0687104
0.026544
0.0293626
0.0311747
0.0373448
0.262117
2.04511
0.0982999
0.564697
0.147688
0.0239789
2.48466
0.021492
0.0290765
0.0731667
3.06973
0.0484121
3.83623
0.0218045
0.177536
2.82886
0.254792
3.85567
0.281293
0.0270022
0.0214261
0.026814
0.0218291
0.0213748
2.64249
2.52201
0.0211554
0.198105
0.0214671
0.175333
0.0210342
0.217694
0.0263708
0.0266877
0.0217419
0.177079
1.22461
0.270181
0.0205536
0.0206649
0.0330959
0.0216776
0.0235395
0.127921
0.0868621
0.0751428
0.370249
0.0508876
0.0223939
0.0352544
0.073273
0.0227595
3.51029
0.0827825
0.416414
0.0248919
0.0286155
0.0206091
0.0200781
0.0214382
0.0317603
0.0208104
1.58261
0.0474322
0.0759775
0.0214554
0.0465947
0.0218382
0.110328
0.0479433
0.0802216
3.32475
0.0307535
0.0214577
0.0291561
0.0224916
1.6842
0.0756143
0.0485897
0.0815198
3.88547
1.78104
0.156059
0.0742571
0.0215138
0.0250976
0.0261707
0.353452
0.0946521
0.0321482
0.022024
0.442468
2.22497
0.022491
0.0264329
0.0839662
0.0237298
0.020974
0.0455866
0.0217036
0.0226673
0.0209803
0.0269931
0.0231462
0.052225
1.5275
0.0215053
3.36404
0.14592
0.177545
0.0209695
0.0213214
0.0580937
0.0331015
0.0214794
0.0665025
0.0215342
0.0630666
0.0220898
0.0473588
2.14163
0.0790785
0.0244232
0.0843661
0.230811
1.31344
0.0214799
0.055064
3.09499
0.0211452
0.0225489
0.130473
5.93159
3.80031
0.0276221
0.0216013
0.305436
0.0213205
0.0237657
0.0313816
0.0225149
3.92761
0.0224545
0.126347
0.0218363
0.0215052
0.0534607
0.0213925
0.0218478
0.0318852
0.102113
0.0205232
0.0295824
0.0226154
0.0210981
0.0212132
0.0368931
0.0307715
0.0955072
0.0255054
0.0224151
0.0225447
0.0605071
0.0240405
3.80827
0.0230793
0.180232
0.0503305
0.0219373
0.036103
0.986851
0.0218093
0.0231366
0.0203016
0.0787906
0.391025
0.0213397
0.0414438
0.0209614
0.0407201
0.0214607
0.305345
1.90765
0.0263152
0.0259028
0.0302644
0.239294
0.0214851
0.0207322
0.0755401
0.0214253
0.0229721
0.0216051
0.0218678
0.0213854
0.0209478
0.0430772
0.0223384