/*--------------------------------*- C++ -*----------------------------------*\
| =========                 |                                                 |
| \\      /  F ield         | OpenFOAM: The Open Source CFD Toolbox           |
|  \\    /   O peration     | Version:  v2012                                 |
|   \\  /    A nd           | Website:  www.openfoam.com                      |
|    \\/     M anipulation  |                                                 |
\*---------------------------------------------------------------------------*/
FoamFile
{
    version     2.0;
    format      ascii;
    class       volScalarField;
    location    "950";
    object      k_0;
}
// * * * * * * * * * * * * * * * * * * * * * * * * * * * * * * * * * * * * * //

dimensions      [0 2 -2 0 0 0 0];


internalField   nonuniform List<scalar> 
13851
(
0.000184141
0.000150942
0.000150747
0.0253498
0.000148413
0.00015308
0.000150077
0.000146629
0.0250941
0.000148497
0.000172229
0.000148369
0.000149113
0.0173514
0.000159463
0.000182571
0.0266842
0.000146613
0.000200233
0.000184135
0.00016191
0.000154013
0.0099374
0.000149734
0.000250095
0.000169695
0.000197569
0.0002157
0.0193352
0.000145923
0.0611545
0.000150085
0.000183548
0.0158215
0.000165025
0.0181156
0.00014981
0.000244924
0.0648617
0.000148241
0.0312332
0.0176709
0.00906497
0.000201936
0.0160368
0.000146854
0.000144712
0.000182226
0.000150588
0.000149084
0.0309013
0.000149534
0.000182517
0.000155504
0.0148761
0.000148279
0.000184074
0.0351583
0.000196868
0.0217683
0.000148427
0.000196377
0.000148662
0.000150846
0.000179198
0.000179462
0.0169906
0.000167144
0.000148078
0.0376871
0.0566392
0.000165909
0.000148295
0.0189122
0.000156534
0.000151457
0.0335497
0.000145259
0.000244079
0.000147406
0.000148103
0.000201654
0.000164763
0.018591
0.0218367
0.0609472
0.00015413
0.0117494
0.000148353
0.0612794
0.00014967
0.000150233
0.0106345
0.0549136
0.0598483
0.00019092
0.000147152
0.000183114
0.0260154
0.000186018
0.000183912
0.000162508
0.00016348
0.000148614
0.000146699
0.0001655
0.000146718
0.0598302
0.000150219
0.000146511
0.000158253
0.000146829
0.000188743
0.000172028
0.000182891
0.000155058
0.00014611
0.000146324
0.021887
0.0420442
0.000183791
0.000146035
0.000148141
0.0321693
0.000195425
0.000172924
0.000147133
0.000169012
0.0305786
0.000163984
0.000153947
0.00015761
0.000281753
0.0174928
0.000172639
0.0617801
0.000166813
0.0588139
0.000160488
0.000163499
0.000200602
0.000150398
0.000148393
0.000171378
0.000243072
0.00015129
0.000145222
0.0556628
0.0215517
0.00016955
0.000183705
0.00018824
0.000173109
0.000195485
0.000149731
0.000148874
0.00014854
0.0671643
0.000162061
0.000149597
0.000149583
0.0189161
0.000164908
0.000182216
0.0176339
0.0204991
0.0203034
0.0356195
0.000157766
0.000106913
0.00014854
0.000146139
0.000170057
0.000148822
0.058915
0.000199117
0.000185672
0.000146034
0.000156476
0.000185018
0.000194711
0.000201726
0.000157074
0.000163609
0.0105722
0.0215715
0.000183675
0.000157709
0.000149454
0.000146313
0.000228042
0.000162043
0.0136958
0.000153195
0.000151029
0.000182809
0.00018298
0.00014704
0.000147702
0.000167746
0.000200698
0.0514589
0.0367704
0.000159325
0.000416233
0.0518134
0.000152747
0.0001629
0.0256709
0.000152681
0.000182334
0.000148093
0.000201206
0.000149519
0.000165382
0.000152354
0.000148994
0.000192943
0.000147443
0.000502615
0.000146025
0.000184201
0.0166928
0.0607118
0.000157347
0.000163128
0.000149735
0.000169945
0.000147873
0.000165121
0.0437354
0.00015744
0.000152585
0.000148805
0.0372075
0.000145874
0.00521563
0.0388072
0.000183413
0.000149643
0.000249086
0.0210908
0.0137895
0.000182266
0.0001579
0.000174229
0.000191191
0.000156605
0.000189983
0.000159469
0.011839
0.000185071
0.000146677
0.000152643
0.000183424
0.0189758
0.0124142
0.000146295
0.000173628
0.00014829
0.00018966
0.00019527
0.000152967
0.000165214
0.000185792
0.000147836
0.00016305
0.000179542
0.000210773
0.000148434
0.000148983
0.000157573
0.0195009
0.0155423
0.000163974
0.000146106
0.00019484
0.000195334
0.000181023
0.000164795
0.022193
0.0237542
0.000153532
0.000157628
0.000228474
0.000146584
0.000148537
0.000181726
0.00016981
0.000145816
0.0001495
0.000147835
0.00014781
0.000157577
0.000148486
0.025106
0.000162734
0.000147599
0.0190602
0.0309222
0.000149515
0.000184518
0.0284529
0.000150585
0.000149637
0.000163741
0.0179915
0.0488328
0.00017191
0.000148338
0.000110234
0.000148481
0.000173605
0.0327523
0.000208678
0.00014939
0.000198116
0.00022398
0.0657305
0.000187975
0.000163242
0.0613853
0.0338834
0.000216002
0.00014787
0.0355773
0.00621104
0.000205445
0.000204276
0.000152867
0.000171854
0.000157519
0.0119497
0.000164033
0.000146873
0.000144329
0.000155009
0.0613454
0.000378486
0.000146537
0.0601355
0.000157633
0.000157923
0.000149696
0.0169618
0.000194459
0.000182981
0.000152064
0.000152104
0.0162835
0.000149463
0.000196099
0.000153374
0.000163725
0.000158173
0.000148323
0.000147546
0.000186641
0.000187895
0.000185058
0.000278379
0.0158506
0.000151382
0.0402822
0.000192905
0.000145336
0.000210234
0.00017758
0.0304519
0.000154551
0.000170731
0.000195843
0.000265264
0.000185682
0.0131051
0.000148943
0.000200522
0.0098649
0.000156379
0.0145885
0.000157991
0.0361187
0.00015738
0.000159968
0.000185331
0.000195108
0.000148885
0.000153172
0.000170996
0.000156702
0.000147032
0.000164097
0.000332953
0.000148245
0.000163103
0.0150543
0.00015107
0.000244754
0.000161846
0.0386251
0.000153199
0.000168642
0.000262761
0.000195618
0.000165196
0.0109632
0.0187996
0.00022408
0.000147907
0.000186444
0.000158357
0.000170378
0.00014618
0.0104794
0.000632259
0.000252379
0.00015199
0.000185641
0.000197098
0.0168288
0.000144667
0.0272521
0.000198327
0.0181352
0.000159964
0.000227317
0.000148592
0.000148739
0.0138947
0.000197483
0.000148509
0.000151004
0.000163502
0.000146395
6.09244e-05
0.000171955
0.000177279
0.000152085
0.000148961
0.000149706
0.000263874
0.000147588
0.000149643
0.000138138
0.00011382
0.000153599
0.000193824
0.000148709
0.00014848
0.000151478
0.000185557
0.00016161
0.000147114
0.000149188
0.000183191
0.000149653
0.0360177
0.000148337
0.000153319
0.0149849
0.000160487
0.000144744
0.00014867
0.000152056
0.000147393
0.000228447
9.22355e-05
0.000158039
0.000710013
0.0001515
0.000148195
0.027723
0.000195358
0.000160328
0.0001483
0.0332922
0.000160063
0.000143522
0.000148632
0.000157715
0.000186194
0.000157845
0.0335765
0.000197119
0.000253349
0.000152152
0.000188394
0.000147802
0.0195627
0.000161814
0.000182935
0.000158046
0.000151773
0.00016042
0.000170374
0.000148496
0.0185804
0.0299918
0.0336607
0.00798922
0.000127052
0.0461317
0.000195876
0.000156784
0.000149314
0.000178998
0.000148503
0.000147032
0.000157904
0.0570419
0.000150499
0.000150475
0.000171447
0.000165851
0.000148712
0.000528772
0.000147196
0.026523
0.000228291
0.00014737
0.000149601
0.000199167
0.000210893
0.000145871
0.000175019
0.00224384
0.000144906
0.0714578
0.000199506
0.000184199
0.000152125
0.00014796
0.024885
0.000144972
0.000199951
0.000148091
0.000147194
0.000185552
0.0345788
0.000161272
0.000161248
0.000148564
0.000166671
0.0275152
0.0648518
0.000145497
0.0348448
0.000147107
0.000148125
0.000165371
0.000153224
0.000144626
0.000151486
0.0717614
0.000193603
0.0705158
0.000150142
0.000148262
0.0179015
0.000149105
0.00018681
0.000153437
0.000156626
0.000157895
0.00718213
0.0272516
0.000152949
0.0249257
0.000149106
0.000172179
0.016867
0.0187394
0.00014821
0.000147845
0.000163881
0.0707924
0.000191337
0.000166214
0.000574105
0.000153313
0.000156817
0.0479067
0.00101705
0.000178159
0.0278365
0.000188397
0.0150545
0.000148574
0.000196881
0.000214123
0.000148354
0.0168788
0.00504145
0.000157736
0.00016366
0.000148256
0.000490769
0.000172276
0.0174108
0.000147652
0.000149017
0.000155721
0.000165459
0.000148408
0.0586728
0.000148976
0.000188159
0.000152284
0.000170934
0.000148569
0.000148741
0.000165497
0.0352844
0.000165273
0.0610734
0.000157824
0.000146452
0.000145621
0.000170498
0.000149189
0.000179703
0.000151144
0.000160081
0.000196481
0.000149121
0.010409
0.00014966
0.000175905
0.0282085
0.0170792
0.000157276
0.00581301
0.00017106
0.000192056
0.00518775
0.000145814
0.000864497
0.000157671
0.000156976
0.0105505
0.000214412
0.000145396
0.000179321
0.000146892
0.017074
0.0326635
0.000148267
0.000167671
0.00013989
0.00014973
0.000149646
0.000169857
0.00912348
0.000217564
0.000149657
0.000185383
0.000149371
0.000148768
0.000196449
0.000185715
0.000185128
0.000144603
0.000179541
0.000163552
0.000167096
0.000150923
0.000150805
0.000171281
0.000155513
0.000180907
0.000165579
0.00016574
0.000175667
0.000254445
0.000199975
7.81026e-05
0.000244155
0.000182984
0.0231259
0.000162407
0.000180596
0.000184785
0.000146541
0.000156442
0.000196818
0.000154592
0.000147417
0.000147389
0.000175991
0.0121049
0.000153523
0.0420481
0.000146473
0.000214853
0.000176038
0.0280551
0.000179192
0.000153327
0.000150742
0.0320562
0.000185048
0.000161962
0.00019759
0.000148631
0.000266286
0.000176153
0.000188316
0.00015801
0.000205669
0.000148544
0.000149598
0.000152408
0.000148776
0.0177717
0.000147809
0.000195674
0.020761
0.000179607
0.063229
0.0277099
0.000189149
0.000193745
0.0001573
0.000149169
0.000148899
0.000145335
0.000145627
0.000148835
0.000172265
0.000187979
0.00016434
0.000213751
0.00015037
0.0255892
0.000149952
0.0294447
0.000163526
0.000149878
0.000148876
0.0179319
0.00015333
0.000231696
0.00338559
0.000162694
0.000172102
0.00014479
0.0194422
0.000152693
0.000150619
0.000196406
0.000149182
0.00015037
0.000145944
0.000161903
0.0127539
0.000156106
0.000158125
0.000198377
0.0652603
0.000157554
0.000155106
0.015398
0.000145322
0.0163814
0.000149285
0.000149651
0.000239626
0.000174111
0.000182667
0.000177352
0.000165418
0.000149469
0.000149953
0.000173491
0.000148657
0.000149528
0.000153834
0.000196594
0.000147671
0.000189951
0.000240514
0.000228379
0.000177289
0.0604273
0.000160839
0.000149135
0.000185095
0.000146579
0.000153233
0.000119128
0.0155619
0.00182327
0.012411
0.000148395
0.00014822
0.000168176
0.0001506
0.000146355
0.0120769
0.000190007
0.0158967
0.000176126
0.000174598
0.000148815
0.000145962
0.00028228
0.000177457
0.00015003
0.000149664
0.000182545
0.000190235
0.0411324
0.000149711
0.000148912
0.0110746
0.000150884
0.000157956
0.000146437
0.0544649
0.000147177
0.0317441
0.000148498
0.000181497
0.000160709
0.000167998
0.000158108
0.000148302
0.000151079
0.000147958
0.00019507
0.000150752
0.0146243
0.000148747
0.000233217
0.0248785
0.00015712
0.000147824
0.0169052
0.000163674
0.000153334
0.000173906
0.000148896
0.0109695
0.000146623
0.000196856
0.000148273
0.000147934
0.000228255
0.000158007
0.000148596
0.000155829
0.0351511
0.000417971
0.000135038
0.000146339
0.0242683
0.000148386
0.000147726
0.000149698
0.000144101
0.000149505
0.000976204
0.000102471
0.000147529
0.000148948
0.000161537
0.000146829
0.0215802
0.000185599
0.0208181
0.0610194
0.00015105
0.000180835
0.000148302
0.00016186
0.00017362
0.000145701
0.000149344
0.000252729
0.0348582
0.00017137
0.0129799
0.000169244
0.000148671
0.000162548
0.000174139
0.0303682
0.000156909
0.000201865
0.000177898
0.00014944
0.0386113
0.0430683
0.0155597
0.000225181
0.000195635
0.000152024
0.000173991
0.000149684
0.000203837
0.0001541
0.000146888
0.00066155
0.000150247
0.000147834
0.000148206
0.000150016
0.0570921
0.000196256
0.000146741
0.000162912
0.0181601
0.000150193
0.0118277
0.000151659
0.00017374
0.0407068
0.000148506
0.000192915
0.000156634
0.000157968
0.000436219
0.000150189
0.000201486
0.000168159
0.031173
0.000146911
0.0139329
0.000156146
0.0275574
0.0298791
0.0114118
0.000162596
0.000148476
0.000148447
0.00014973
0.000159298
0.000148784
0.0333543
0.000156444
0.000156511
0.00015741
0.000151869
0.000146333
0.000152383
0.00015493
0.000149594
0.000154786
0.0110567
0.000194564
0.000155553
0.000166976
0.000325787
0.000150547
0.064712
0.000145439
0.000159458
0.000150806
0.000147048
0.000164778
0.000148159
0.000146707
0.000163454
0.000148941
0.000196756
0.000148916
0.0152638
0.000207849
0.000191929
0.000197104
0.000147036
0.0643687
0.000187065
0.000149457
0.000154861
0.000150282
0.0685497
0.000151734
0.00016303
0.000208902
0.0125406
0.000173516
0.000147598
0.00965203
0.000207728
0.000190399
0.000156583
0.00014638
0.000145378
0.00017193
0.000148524
0.0218671
0.000187051
0.000149244
0.000192702
0.000197544
0.000145895
0.00777237
0.0290505
0.000189486
0.000148965
0.00873931
0.000171991
0.000147932
0.0129004
0.000154881
0.000145951
0.000147326
0.000155952
0.000159493
0.024377
0.0651451
0.00016036
0.0208967
0.000157066
0.00014833
0.000168622
0.000147438
0.000276334
0.000145594
0.000148138
0.000151941
0.00014855
0.0229839
0.0112579
0.000191695
0.0273206
0.0182035
0.000157255
0.00014824
0.000148929
0.000201641
0.000145463
0.000146909
0.000164537
0.000244427
0.000192233
0.000145125
0.000162677
0.000158198
0.000184488
0.0107956
0.000144846
0.000144538
0.000149304
0.000253011
0.000153736
0.0288501
0.000150812
0.000148997
0.000145936
0.00014726
0.00015228
0.000189158
0.0134502
0.0202377
0.00015746
0.000148204
0.000273737
0.000147397
0.000232371
0.030161
0.000158232
0.0394599
0.0185901
0.0547209
0.000165154
0.000156669
0.026579
0.000156123
0.00015969
0.000168454
0.000192
0.000148649
0.000414349
0.000148375
9.81491e-05
0.000253874
0.000145468
0.000152309
0.000165037
0.000200339
0.000157702
0.000148848
0.000153672
0.00015198
0.000151779
0.000218907
0.000149011
0.000165103
0.0126385
0.00014841
0.000156107
0.000159278
0.000148395
0.0159131
0.00668086
0.0631035
0.0168938
0.000148065
0.000152336
0.000153947
0.000149651
0.000191429
0.000157894
0.000149686
0.000168391
0.000155117
0.000240356
0.000160824
0.0156132
0.000151866
0.00015036
0.000163996
0.000177699
0.000173438
0.000147886
0.00610602
0.0316494
0.00747538
0.0520056
7.73533e-05
0.0220446
0.0262168
0.000147908
0.000148233
0.000146561
0.000190949
0.000161398
0.000173408
0.0193794
0.000146757
0.000145288
0.000148561
0.000188566
0.000145137
0.000152858
0.000151491
0.000186555
0.000150944
0.000146638
0.000148454
0.000147678
0.000148997
0.000159852
0.000191236
0.000159708
0.000155719
0.000148212
0.000147261
0.0293303
0.0207327
0.0114945
0.000228228
0.000163932
0.000219514
0.000146357
0.000167708
0.000150366
0.000148509
0.000150073
0.0374739
0.000148975
0.000177957
0.000307255
0.000147202
0.000146977
0.000155395
0.000189265
0.000149794
0.000203659
0.000146451
0.000189361
0.00014883
0.000147533
0.000153414
0.000170626
0.000149133
0.000198684
0.0578313
0.0001871
0.0147863
0.000148596
0.0354717
0.000202622
0.000148237
0.000258709
0.00014964
0.000162337
0.000149492
0.000146179
0.00014749
0.000148802
0.000148965
0.000156232
0.000170829
0.000147755
0.00014869
0.000166328
0.000145202
0.00518498
0.000148851
0.000157189
0.000156811
0.0255039
0.000209661
0.000148894
0.000189596
0.000146408
0.000154807
0.000170326
0.000225285
0.000163432
0.000149797
0.000178756
0.000167827
0.0001747
0.000205926
0.000160358
0.000186174
0.000166336
0.000170885
0.000150811
0.000146149
0.000227573
0.0143301
0.000151931
0.000147905
0.0126954
0.000146491
0.000161881
0.000147462
0.000173158
0.000277728
0.00014417
0.0212625
0.000152872
0.000149051
0.000185141
0.000146891
0.000162011
0.0173772
0.000161445
0.000227961
0.00014745
0.000149742
0.000162716
0.000149452
0.000149618
0.000153495
0.000155601
0.000171124
0.000174234
0.000148706
0.00016272
0.000146124
0.00014825
0.000149372
0.000148261
0.000257373
0.000145869
0.000151754
0.000193391
0.000146457
0.000147817
0.0188376
0.000149638
0.0168166
0.000149182
0.011857
0.000193785
0.000164579
0.000281933
0.000172113
0.000256889
0.000148
0.000190768
0.000154365
0.000146071
0.000146896
0.000151779
0.000156327
0.000147599
0.000168163
0.000147045
0.000150226
0.0102522
0.0307828
0.000243086
0.000150023
0.000163723
0.0331661
0.0382139
0.000149064
0.000152584
0.000265578
0.000147323
0.000162451
0.000302673
0.0190588
0.000152954
0.000161288
0.000149876
0.00019748
0.000149889
0.000160442
0.000221333
0.000148996
0.000146717
0.00595118
0.000164144
0.000192552
0.0129666
0.000176188
0.000149935
0.000147078
0.000147663
0.0455352
0.000213163
0.000234701
0.000169622
0.000148778
0.0421735
0.000148711
0.000188139
0.000155952
0.000148938
0.000162197
0.000148231
0.00468238
0.0142442
0.000144507
0.000171762
0.00016189
0.000281966
0.000164277
0.000165949
0.000192047
0.000156899
0.00019406
0.000167112
0.000148721
0.0001577
0.000168532
0.000132757
0.000148037
0.000200613
0.000165411
0.000166881
0.000149799
0.0281659
0.000152427
0.000151684
0.000146441
0.000162495
0.000161649
0.000165632
0.00014876
0.00014973
0.000168946
0.010214
0.000170744
0.000148976
0.000150788
0.000157563
0.000193407
0.000149053
0.000175458
0.000178242
0.000165609
0.0131267
0.000159116
0.0261886
0.000201387
0.000147916
0.000221684
0.00014955
0.000152744
0.000156389
0.00015812
0.000179491
0.000162071
0.000163979
0.00016486
0.000156907
0.000152088
0.000145104
0.000169144
0.000151805
0.000156965
0.000208504
0.000153768
0.000157674
0.000147361
0.0138359
0.000174244
0.0001487
0.000151144
0.000152223
0.0186464
0.000187008
0.000156382
0.01514
0.000204629
0.00022048
0.000178088
0.000193428
0.000146926
0.000183829
0.00014681
0.000156091
0.000240395
0.0160863
0.000201873
0.000264584
0.000148781
0.0164728
0.000146906
0.000173555
0.000153435
0.000222601
0.000890022
0.000151546
0.000147973
0.000201235
0.00016241
0.000147975
0.0536683
0.00014864
0.000151844
0.000151822
0.000149533
0.000156905
0.000152318
0.000148758
0.000160104
0.000205712
0.000160679
0.000170746
0.000147959
0.0300892
0.0147392
0.00014783
0.000195013
0.000153367
0.000157391
0.000214447
0.000147804
0.00015032
0.000156354
0.0455965
0.000148031
0.000149142
0.00016162
0.000198172
0.000147705
0.000158901
0.000160033
0.000207707
0.000165241
0.000161551
0.000192197
0.000148643
0.000172428
0.000145621
0.0205752
0.000156556
0.000148548
0.000152548
0.00017867
0.000148905
0.000147175
0.000185244
0.00511707
0.000147315
0.0207152
0.000149175
0.000145526
0.000171489
0.000148023
0.000145847
0.000483453
0.000149805
0.000161104
0.000184586
0.0706092
0.000206929
0.000145345
0.000153264
0.000156575
0.000148339
0.000148521
0.000148519
0.000217711
0.000149225
0.000193313
0.000180475
0.00014664
0.000145263
0.000156259
0.000180537
0.000194492
0.000165728
0.000171205
0.000151608
0.0246058
0.000172356
0.0001547
0.000160333
0.000169416
0.000178253
0.0246624
0.00015867
0.0152145
0.000230953
0.0295311
0.000151001
0.000147367
0.000161162
0.000159887
0.000145752
0.000147308
0.000175299
0.000149585
0.000148327
0.000148173
0.0001446
0.000149342
0.000146867
0.0320609
0.000147949
0.000255663
0.000148393
0.000171351
0.000148709
0.000181233
0.000170917
0.000148512
4.92548e-05
0.000153185
0.00014945
0.000160174
0.000146059
0.000158126
0.000146613
0.0103826
0.000151873
0.000162255
0.000170873
5.14512e-05
0.000156118
0.000193288
0.000208513
0.000166956
0.000147015
0.000149012
0.000173492
0.00017163
0.0329951
0.000145822
0.0428404
0.000148151
0.000169236
0.0298858
0.000160377
0.000223646
0.000153101
0.00015718
0.000152977
0.014714
0.000157309
0.000148845
0.000166306
0.000185357
0.000150354
0.000148253
0.000148853
0.0652735
0.000149646
0.000155529
0.0203578
0.000154324
0.000147895
0.000168562
0.000152629
0.000218757
0.000145277
0.000148291
0.000146763
0.000155416
0.00014794
0.000147138
0.000169222
0.0262335
0.000147688
0.000148723
0.000235702
0.000146731
0.02171
0.000149139
0.0399699
0.000146485
0.00015256
0.000146386
0.0164379
0.0130743
0.000157704
0.00016817
0.000156186
0.000147379
0.000148783
0.00890132
0.000148807
0.000173289
0.000146131
0.000160132
0.000149189
0.000162937
0.000146557
0.000161647
0.000146788
0.000200922
0.000227582
0.000145966
0.0001644
0.0074906
0.00017055
0.000230272
0.000221871
0.000191535
0.000152301
0.000158292
0.000178497
0.000212408
0.00014634
0.000158497
0.000156649
0.000147449
0.0144896
0.0494492
0.000171465
0.000186564
0.000201177
0.000159108
0.016292
0.000145702
0.000145954
0.000179024
0.00529353
0.00019289
0.000187513
0.000206465
0.000146355
0.0225064
0.0196111
0.0202803
0.000149289
0.0415457
0.0612296
0.000227972
0.000371139
0.0274881
0.00017421
0.000156612
0.000188992
0.000154934
0.000147644
0.00022329
0.000177033
0.00014499
0.0261087
0.000149177
0.000157024
0.000161481
0.000155535
0.000212978
0.000160121
0.015262
0.000161227
0.000155521
0.000217749
0.0403126
0.000184707
0.00015034
0.000154977
0.00017369
0.000167101
0.000146532
0.000165523
0.000166707
0.000185691
0.000147738
0.000190934
0.000152306
0.00016628
0.000118905
0.000194208
0.000151872
0.000179136
0.0476038
0.000148998
0.00014993
0.0387632
0.00019974
0.00015159
0.00015149
0.000148459
0.000171307
0.000151449
0.0169867
0.000179419
0.000150142
0.000149439
0.000166916
0.000156897
0.000203065
0.0352223
0.000146741
0.000148054
0.000155071
0.000149225
0.000151021
0.000150084
0.000148993
0.000154944
0.00014732
0.00015298
0.000149526
0.000162339
0.000212693
0.000149738
0.000103656
0.0247547
0.000145612
0.000179491
0.000180314
0.000174664
0.000150441
0.000176847
0.000153466
0.000168386
0.000155314
0.000150149
0.000149337
0.0332602
0.000153058
0.000229001
0.000150458
0.000148538
0.000147933
0.000170357
0.000147596
0.00016508
0.000167629
0.000247971
0.000147133
0.000201057
0.000270065
0.0328706
0.000146308
0.000184507
0.000211342
0.000269637
0.000215853
0.000150803
0.000148612
0.000185132
0.000205586
0.000217223
0.000160993
0.000195665
0.000149498
0.000146094
0.000162787
0.000149231
0.000149512
0.000187307
0.000149746
0.000169378
0.0001464
0.0320945
0.00017893
0.000236731
0.000121952
0.0315273
0.000149251
0.000148864
0.000342984
0.000145888
0.000146024
0.000145512
0.000178051
0.0171109
0.0349121
0.000156179
0.000146413
0.000150175
0.00016151
0.0184468
0.000148071
0.000221432
0.0308005
0.00014918
0.000149145
0.0198917
0.000172418
0.0001488
0.000148219
0.00022076
0.0398565
0.000146716
0.000190323
0.000149658
0.0325871
0.00023459
0.000148912
0.0345993
0.0223606
0.000228536
0.000146322
0.000146351
0.000149593
0.000149899
0.0186203
0.000147061
0.000188145
0.000193952
0.0303802
0.000148772
0.000169783
0.000203929
0.000165975
0.000157937
0.0696188
0.000145089
0.000152016
0.000152215
0.000181638
0.0104422
0.000144541
0.0130564
0.000158892
0.000161032
0.000150491
0.000147411
0.000197494
0.000162161
0.0237456
0.00014923
0.00016902
0.000148641
0.000181562
0.000150575
0.0273425
0.000210854
0.000190447
0.000175181
0.000147668
0.000151724
0.000175849
0.000179495
0.0193877
0.00158742
0.000148898
0.000220273
0.000170139
0.0518516
0.000152098
0.000163815
0.000161513
0.000147368
0.000147966
0.000148307
0.000157109
0.0156582
0.0328022
0.000223947
0.023273
0.000156004
0.000164595
0.000145562
0.0346648
0.000155152
0.000241098
0.000145464
0.000150455
0.000144225
0.000147775
0.000156829
0.00015852
0.000159123
0.000147652
0.0204899
0.000160966
0.000147098
0.000161291
0.0169051
0.000209748
0.000148557
0.0725723
0.000152061
0.000157023
0.000155832
0.000145517
0.00017148
0.000147736
0.0002293
0.000170749
0.000152304
0.000148231
0.000199675
0.000161122
0.000145448
0.000220969
0.000214492
0.000194043
0.000144437
0.000206759
0.000148855
0.000183097
0.000153236
0.000176472
0.000222336
0.0205898
0.000159991
0.0216862
0.00016679
0.000156342
0.000146392
0.000121597
0.000175395
0.000179993
0.000166091
0.000149587
0.000193234
0.000176474
0.000200907
0.000192643
0.00811284
0.0202349
0.000284062
0.0453929
0.000156722
0.000158658
0.000148531
0.000147265
0.000144676
0.000187978
0.000156608
0.000159484
0.0706722
0.000147316
0.000146728
0.000159981
0.000185384
0.000153981
0.000146414
0.0513562
0.000151132
0.000162063
0.000148848
0.0335399
0.000156885
0.000708942
0.000165837
0.00015819
0.000167881
0.000148484
0.0133265
0.000202301
0.000172971
0.000148107
0.000147138
0.0134814
0.0620046
0.0185134
0.000146042
0.000173447
0.000204431
0.000146997
0.000147834
0.000147906
0.0203326
0.00017124
0.000159884
0.000152549
0.000152101
9.92696e-05
0.000174788
0.000194673
0.00015196
0.00015716
0.000144534
0.000177839
0.000168916
0.000148245
0.00770377
0.0708187
0.037448
0.00359453
0.0557571
0.0193772
0.000185501
0.000151945
0.000145623
0.00014157
0.0412578
0.000241768
0.000148275
0.000160842
0.000148827
0.000147641
0.00022157
0.0299837
0.000169825
0.000147811
0.000198498
0.000177664
0.000165323
0.023875
0.00021741
0.00019566
0.000147179
0.0287415
0.000211822
0.000199123
0.0001559
0.000162073
0.000149593
0.000146807
0.000161092
0.000164234
0.00015214
0.000159955
0.000153894
0.000153238
0.000189922
0.0201672
0.000158598
0.000160606
0.0332254
0.000188538
0.000148762
0.000191445
0.00021244
0.0144471
0.000162363
0.000147502
0.000155353
0.000154266
0.000157683
0.000145497
0.000159544
0.000155716
0.000162183
0.000190123
0.000149492
0.000149862
0.0206687
0.0109109
0.0472073
0.000202997
0.000178365
0.000144153
0.000148717
0.000156135
0.000145546
0.0115242
0.000148562
0.000149803
0.000145641
0.00896726
0.00299181
0.000149939
0.000168929
0.000155511
0.000160584
0.000156066
0.000160367
0.00016055
0.000160714
0.0272734
0.000152543
0.0382057
0.000161782
0.0515603
0.000155831
0.000147329
0.000146367
0.000177661
0.000185424
0.000146486
0.000162071
0.000155908
0.000170099
0.000131163
0.0322888
0.000226505
0.000149801
0.000211275
0.000157302
0.000160896
0.000148204
0.000172861
0.000151442
0.0148791
0.000243997
0.000162847
0.000148462
0.0102297
0.0001562
0.0205932
0.0367091
0.000190235
0.000152108
0.000183745
0.000185186
0.000209846
0.0285366
0.000170493
0.000146946
0.000162096
0.000145907
0.00684463
0.000152724
0.00015755
0.00019891
0.0590484
0.000146747
0.000147544
0.058202
0.000162682
0.032834
0.000159452
0.000148207
0.000162873
0.000191744
0.00016272
0.000226232
0.000160505
0.000208638
0.00015227
0.000149591
0.000147366
0.000195801
0.000150745
0.000177081
0.000148835
0.000147404
0.000193868
0.000152147
0.000147441
0.000148052
0.000159907
0.000207157
0.000160778
0.000161121
0.000155189
0.000170641
0.000148236
0.000182923
0.000156353
0.000162435
0.000167092
0.000152941
0.000171832
0.000163185
0.000145828
0.000170628
0.0613157
0.0169186
0.000147159
0.000283775
0.0198706
0.000147656
0.000150886
0.000208498
0.0265911
0.000156783
0.019242
0.000201679
0.000146273
0.000174527
0.000144681
0.000152572
0.000170616
0.000263941
0.000194182
0.000191167
0.000202502
0.00392828
0.0340775
0.000148967
0.0260454
0.00014842
0.000211756
0.0360268
0.000148543
0.000148414
0.0169238
0.000149315
0.000148501
0.000198814
0.00883382
0.000192821
0.000152094
0.0334532
0.000148571
0.00699886
0.0225714
0.000149195
0.000200171
0.000271521
0.0464971
0.0188479
0.0225575
0.016801
0.000146837
0.000151879
0.000170534
0.000170153
0.000148486
0.000188403
0.000148293
0.0224601
0.000196874
0.000164206
0.000193741
0.0222911
0.000196161
0.000190861
0.000166193
0.0284755
0.000205082
0.000151436
0.000145007
0.000219268
0.000160226
0.000145884
0.03286
0.000147777
0.000222509
0.000149434
0.0265021
0.000151436
0.000147775
0.00094764
0.000156363
0.000160363
0.0154926
9.98687e-05
0.000256887
0.000153142
0.000161089
0.000151509
0.000159351
0.000182917
0.000159909
0.000149362
0.000263793
0.000169951
0.000159032
0.0167818
0.000161303
0.000161303
0.00018778
0.000173874
0.000161487
0.000147733
0.000190326
0.000146351
0.00018255
0.000195867
0.0316048
0.000146822
0.000161381
0.0332594
0.000149231
0.000171753
0.000155239
0.000162495
0.000181556
0.000169493
0.000152243
0.00185928
0.000146909
0.009565
0.000148709
0.00014914
0.000182082
0.0176277
0.000158514
0.000186778
0.000199638
0.000155601
0.000147673
0.000175512
0.000164134
0.0686939
0.000155712
0.000361007
0.000185044
0.000155408
0.000155577
0.000174305
0.000160819
0.000167541
0.000169257
0.000161696
0.000151461
0.000146434
0.000271641
0.000148203
0.00015536
0.000144883
0.000179054
0.000155496
0.000168785
0.0269204
0.000151805
0.000193286
0.000144231
0.000149374
0.00014918
0.000149332
0.000152117
0.000147324
0.000174707
0.0233894
0.000168271
0.000163067
0.00015107
0.000147519
0.000193703
0.00014816
0.000230701
0.00023949
0.0395066
0.000183449
0.000159792
0.000152796
0.000149098
0.000157629
0.000170368
0.000163744
0.0418379
0.000167769
0.0724696
0.000183361
0.000149342
0.000146609
0.0168927
0.000147474
0.000155272
0.000166744
0.000201295
0.000149092
0.0260128
0.000149113
0.000153395
0.000148871
0.000150288
0.000175613
0.000178076
0.000148158
0.000156061
0.000160307
0.000163062
0.000166817
0.000199671
0.000190503
0.000194551
0.000181357
0.000151584
0.000149726
0.000166287
0.0165854
5.46594e-05
0.0127903
0.000156064
0.000229492
0.00017734
0.000148761
0.000147725
0.00016736
0.00014885
0.000155847
0.0311535
0.000147606
0.000145963
0.000206852
0.000221462
0.000162259
0.000225843
0.00014923
0.0153724
0.000163309
0.0482158
0.000157622
0.000148118
0.00772437
0.000165757
0.000148479
0.00016987
0.000149651
0.000182197
0.000155672
0.000164984
0.0201176
0.000159619
0.000196248
0.000147246
0.0688758
0.000149116
0.000153176
0.000149051
0.00016513
0.000148855
0.000165571
0.0117005
0.0002482
0.000165582
0.000158332
0.000168044
0.00014681
0.000147523
0.000148928
0.00020254
0.000151597
0.0269029
0.02229
0.000181544
0.000149374
0.000183658
0.000189754
0.000185896
0.000151424
0.0353425
0.000147772
0.000144225
0.000147599
0.000258941
0.000147341
0.000148263
0.0117125
0.000147701
0.000187798
0.000170907
0.000145413
0.0208519
0.000153168
0.0290253
0.000146882
0.000206264
0.000149563
0.000167303
0.0379676
0.000170889
0.000147398
0.000152708
0.000223358
0.000155773
0.000184421
0.000156369
0.000153785
0.000180366
0.000156672
0.000146729
0.0102063
0.000155981
0.000153339
0.00018237
0.000147729
0.000146617
0.000149188
0.000154942
0.00014905
0.000154129
0.000179008
0.0161872
0.000171079
0.0120017
0.000167104
0.000156663
0.0577326
0.0681859
0.000150161
0.0249836
0.000238188
0.0195727
0.000223926
0.000156964
0.000223124
0.0129227
0.0307799
0.000223075
0.000253722
0.000162617
0.000169132
0.000157316
0.000151783
0.000149028
0.000239882
0.00014989
0.0232557
0.0001731
0.000189239
0.000144814
0.000172511
0.000163391
0.000152676
0.000149951
0.000148673
0.000172822
0.000149508
0.000147229
0.000159579
0.0686319
0.000150782
0.000184009
0.000146511
0.00017301
0.000168891
0.00014916
0.000154706
0.000147346