/*--------------------------------*- C++ -*----------------------------------*\
| =========                 |                                                 |
| \\      /  F ield         | OpenFOAM: The Open Source CFD Toolbox           |
|  \\    /   O peration     | Version:  v2012                                 |
|   \\  /    A nd           | Website:  www.openfoam.com                      |
|    \\/     M anipulation  |                                                 |
\*---------------------------------------------------------------------------*/
FoamFile
{
    version     2.0;
    format      ascii;
    class       volScalarField;
    location    "950";
    object      omega;
}
// * * * * * * * * * * * * * * * * * * * * * * * * * * * * * * * * * * * * * //

dimensions      [0 0 -1 0 0 0 0];


internalField   nonuniform List<scalar> 
13851
(
0.074896
0.0225686
0.0225036
6.70997
0.0220813
0.0234697
0.0222112
0.021778
4.74424
0.0220492
0.0507726
0.0220751
0.0221175
6.64341
0.0268845
0.076661
9.33784
0.0217342
0.156725
0.074964
0.029035
0.0244321
21.6348
0.0222638
0.407237
0.0394246
0.153593
0.257865
4.08371
0.0217152
8.82619
0.022216
0.0732999
5.05457
0.0349091
3.9712
0.022274
0.805555
9.05393
0.0219788
6.40152
4.07571
23.1643
0.483436
4.1403
0.0218362
0.0215079
0.0729263
0.0225817
0.0221119
7.62056
0.0221999
0.0764748
0.0242506
6.41697
0.0219843
0.0746892
6.50277
0.159491
6.86509
0.0220831
0.140826
0.0221012
0.0226639
0.194402
0.204157
8.74033
0.0690329
0.0219451
7.01022
7.55519
0.0333328
0.0219953
7.66368
0.0248529
0.0229983
7.88137
0.0216255
0.375649
0.0219313
0.0219479
0.20474
0.0347288
6.18367
6.64272
8.55159
0.0244822
7.19224
0.0220302
9.0776
0.0222415
0.0222553
25.5957
7.64458
8.12819
0.2951
0.0218749
0.0780467
8.09223
0.135085
0.0805906
0.0419101
0.0459651
0.0220374
0.0218067
0.0331511
0.0218131
7.99503
0.0222554
0.0217281
0.0284572
0.0218289
0.103362
0.0452938
0.0718009
0.024013
0.0217533
0.0217514
6.75198
7.81087
0.183216
0.0217009
0.0219597
5.34397
0.12681
0.121011
0.0218738
0.0472609
5.88425
0.0309592
0.024387
0.0265204
0.613144
5.1938
0.0510522
8.29496
0.0638324
8.08308
0.0352162
0.0304662
0.197981
0.022537
0.0220313
0.103067
0.363719
0.0229271
0.0216212
7.83082
4.25976
0.0494446
0.0799548
0.101605
0.0480182
0.129112
0.022278
0.022071
0.022099
8.98501
0.0291107
0.022122
0.022243
4.03455
0.0325275
0.0730101
6.21072
4.62655
4.63297
6.99274
0.0279932
0.495112
0.022099
0.0217579
0.0399857
0.0221389
8.2768
0.154269
0.0860704
0.0217428
0.0248088
0.0839848
0.12362
0.446812
0.0271144
0.0306281
25.5051
4.22787
0.0735072
0.0291909
0.0222031
0.021767
0.330217
0.0291021
8.81435
0.0234824
0.0228206
0.0772822
0.0712841
0.0217289
0.0218519
0.0721595
0.203101
7.67416
6.67009
0.026829
2.52609
7.46274
0.0237794
0.0298344
4.83728
0.0233205
0.076328
0.0219511
0.205636
0.0222339
0.0352806
0.0234338
0.0220942
0.113676
0.0217967
3.95907
0.0217414
0.075314
6.85857
8.30823
0.0288195
0.0300419
0.0222636
0.0885517
0.0220022
0.0348269
12.3039
0.0290242
0.0232858
0.0221234
6.63979
0.0217073
11.8769
6.80407
0.118615
0.0222512
0.629433
6.69327
4.01973
0.0757725
0.0260185
0.136711
0.104728
0.0248462
0.273736
0.0297138
7.13701
0.0797312
0.0218211
0.0231395
0.0790789
4.01883
5.19249
0.0217666
0.129644
0.022026
0.0989571
0.126523
0.0232804
0.0327178
0.08234
0.0219517
0.043729
0.0627963
0.230192
0.0220788
0.0220914
0.0290357
4.85444
8.3802
0.0310703
0.0217035
0.123505
0.127443
0.0650345
0.032294
4.96802
7.89619
0.0235615
0.0256178
1.44963
0.0217888
0.0220986
0.0669244
0.0455172
0.0216954
0.0222312
0.0219937
0.0219964
0.025703
0.0220916
4.79644
0.0299121
0.021896
3.99081
5.30206
0.022209
0.0761759
7.82049
0.0226153
0.0222397
0.0308827
6.64302
10.1893
0.0425481
0.0220719
0.493403
0.0220907
0.046056
6.96468
0.222136
0.0220784
1.05681
0.456531
8.59915
0.101852
0.0449792
8.5923
5.63285
0.255976
0.0218778
7.46018
19.5592
0.751222
0.698248
0.023805
0.0428606
0.0286625
6.49101
0.0487792
0.0218661
0.0214816
0.0249109
7.97893
3.31419
0.0217842
8.11281
0.0289825
0.0267362
0.0221463
7.64914
0.122286
0.0777734
0.0233111
0.0230655
3.77653
0.0222079
0.131777
0.0234889
0.0308733
0.0294584
0.0220254
0.0218898
0.107643
0.144321
0.079329
0.557197
3.78022
0.0229739
6.76202
0.114317
0.0216182
0.227207
0.054354
7.06026
0.0245231
0.041527
0.144512
0.483036
0.104363
5.89405
0.0220884
0.159945
18.0677
0.0250825
5.47313
0.026263
6.85776
0.0254582
0.0272083
0.0813116
0.186225
0.0220731
0.023441
0.0488095
0.0249142
0.0218538
0.0311429
1.1732
0.0219876
0.0300053
7.36793
0.0226745
1.66205
0.0288542
9.82078
0.0235628
0.0375809
1.84584
0.12876
0.033014
5.91685
7.46609
0.549279
0.021959
0.10653
0.0265632
0.040902
0.0217216
24.3335
1.62254
0.446084
0.0230132
0.0820826
0.143798
8.00223
0.0215376
8.99227
0.206663
24.8685
0.0304582
0.295902
0.0220364
0.0221262
7.24264
0.14544
0.0220469
0.0225976
0.0303892
0.0217956
0.742442
0.0428185
0.0536801
0.0228675
0.0220913
0.0222442
0.484411
0.0218973
0.0222235
0.223496
0.825228
0.0241803
0.130329
0.0221082
0.0220908
0.0228253
0.0811027
0.0286267
0.0218592
0.0221188
0.170725
0.02219
10.2847
0.0220705
0.0232927
4.11436
0.0339685
0.0215502
0.022117
0.0228656
0.0217595
0.584472
0.70907
0.0260682
10.0231
0.0228224
0.0220487
5.49936
0.143274
0.0345888
0.0219928
5.48454
0.0343147
3.43098
0.0220419
0.0265264
0.107443
0.0256484
5.77079
0.145329
0.43819
0.0234133
0.102972
0.0219438
4.05327
0.028846
0.0711061
0.0263818
0.023149
0.0338376
0.0401146
0.0220936
8.50253
5.53558
10.2495
7.15766
0.65921
6.85583
0.13021
0.0277643
0.0222059
3.10329
0.0220522
0.021856
0.0296423
8.26958
0.0224222
0.0225613
0.0757319
0.0342669
0.0220663
1.98117
0.0218847
5.70052
0.568105
0.0219248
0.0221513
0.201263
0.231395
0.0217049
1.21606
6.59904
0.0215416
9.15005
0.153079
0.0753507
0.0234023
0.255924
6.80575
0.0215472
0.165623
0.0219502
0.0218836
0.24081
6.84531
0.0291824
0.0283192
0.0220557
0.0344523
5.80092
8.70909
0.0216018
7.83784
0.0218604
0.021954
0.0331006
0.0232291
0.0215317
0.0230168
9.31098
0.171388
8.82112
0.0223208
0.0220207
4.73923
0.022177
0.106093
0.023366
0.0249189
0.0260611
3.55404
7.04588
0.0233468
9.07174
0.0220216
0.0440048
4.07666
4.91404
0.0219733
0.0219487
0.0474791
8.99115
0.120479
0.033902
7.33529
0.0232562
0.0251055
15.5612
2.9845
0.13044
5.69147
0.0955611
3.83812
0.0220158
0.15996
0.252856
0.0220717
16.4731
4.41469
0.0279205
0.0306234
0.0219837
7.32954
0.0622937
14.7409
0.0219023
0.0221656
0.0265273
0.0340881
0.0220807
8.23525
0.0221599
0.0938107
0.023509
0.04182
0.0220314
0.0220676
0.0403505
8.16112
0.0332192
8.0548
0.0265813
0.021802
0.0216443
0.0404989
0.0221218
0.0664104
0.0226117
0.0340243
0.157525
0.0221791
6.2401
0.0222532
0.0539854
8.09971
4.37878
0.0286846
12.1999
0.0741008
0.198574
4.50378
0.0216277
3.10565
0.028931
0.025536
7.03745
0.275039
0.0216233
0.0648475
0.0217145
3.8788
8.23574
0.0219725
0.0734716
0.987161
0.022263
0.0222514
0.0397524
7.88492
0.262794
0.0222466
0.0820652
0.022125
0.0220656
0.157672
0.082687
0.12418
0.0215324
0.0628758
0.0437941
0.0352735
0.022714
0.0227202
0.0595395
0.0263356
0.0678322
0.0330029
0.0332648
0.109396
2.10565
0.156218
0.726968
1.06295
0.0764419
4.94475
0.0364954
0.231331
0.0771743
0.0217409
0.0248767
0.137538
0.0247118
0.0219343
0.0219319
0.0540858
6.06815
0.0233664
6.86409
0.0218056
0.264561
0.126288
7.85209
0.0652961
0.0236292
0.022494
7.19282
0.122558
0.0349974
0.146582
0.0220188
1.86606
0.0544755
0.0943311
0.0264841
0.258018
0.0220307
0.0222448
0.0234912
0.0220642
4.14078
0.0219967
0.153799
4.87043
0.0667376
8.68643
7.47988
0.097541
0.206279
0.028753
0.0221822
0.0220772
0.0216374
0.0216472
0.0221408
0.0438485
0.0992044
0.0473728
0.245643
0.0225439
4.78343
0.0222934
6.90562
0.0330943
0.0222834
0.022137
4.45618
0.0235683
0.275369
4.1431
0.0296558
0.0421404
0.0215269
5.36555
0.0237363
0.0224514
0.158314
0.0221851
0.0225317
0.0216588
0.0289259
6.38263
0.0252824
0.0264813
0.211021
8.49073
0.0290902
0.025555
3.95016
0.0216376
3.95487
0.022202
0.0221859
0.35746
0.0468468
0.0708533
0.0667722
0.0332658
0.0222269
0.0222935
0.0469808
0.0220278
0.0222348
0.0234861
0.212268
0.0219784
0.187897
1.61081
0.267848
0.0662235
10.2846
0.036512
0.0221778
0.10457
0.0218201
0.023442
0.586821
3.73881
3.18807
3.82759
0.0219972
0.0219643
0.0624922
0.0226366
0.0217584
20.4432
0.100487
5.2494
0.0546522
0.0477786
0.0220656
0.0217205
1.1598
0.0540411
0.0222864
0.0222533
0.0706742
0.117335
6.90958
0.0222692
0.0221505
7.78682
0.0226965
0.0261702
0.0218019
8.17855
0.0218627
7.46034
0.0220763
0.10787
0.0281335
0.063543
0.0265141
0.0219977
0.0226339
0.0220186
0.149188
0.0226584
4.06141
0.0220364
0.290296
5.3254
0.0258659
0.0220003
6.7117
0.841004
0.0235417
0.0465343
0.0220763
6.95683
0.0217463
0.13848
0.0220583
0.0220152
0.268579
0.0260911
0.0221064
0.0244067
6.29787
4.8679
1.14893
0.0217749
4.85666
0.022071
0.0219861
0.0222717
0.021461
0.0222322
2.01749
0.660349
0.0218089
0.022156
0.0292892
0.0218282
6.75937
0.106152
5.16164
8.64001
0.022626
0.0676601
0.0220641
0.0290892
0.103429
0.0216175
0.0222102
0.701238
7.63767
0.0410376
20.5481
0.0376312
0.0221043
0.0305356
0.0471825
9.12589
0.0252459
0.201573
0.0553657
0.022223
16.4382
16.2698
4.74651
0.315066
0.231228
0.0233303
0.132798
0.022227
0.189146
0.0243307
0.0218676
1.75311
0.0225043
0.0220015
0.0219722
0.0224186
8.20994
0.133444
0.02184
0.0309431
6.82858
0.0224645
18.8386
0.0231247
0.045592
7.20467
0.0220943
0.131207
0.0263109
0.0265447
5.75358
0.0224732
0.198198
0.036981
6.26398
0.0216987
4.73875
0.0250176
5.27349
9.03735
6.43396
0.0295385
0.0220197
0.0220053
0.022263
0.0266164
0.0221255
5.86084
0.026566
0.0274299
0.0288829
0.023257
0.0217753
0.0229047
0.0248718
0.0221552
0.0249624
5.69807
0.145989
0.024535
0.0426425
1.54362
0.0226006
8.23796
0.0216549
0.0302418
0.0226752
0.0218161
0.0388808
0.0220432
0.0218354
0.0459533
0.0220794
0.212911
0.0220608
18.2242
0.205997
0.108628
0.147833
0.0217528
8.59022
0.0862242
0.0222253
0.0248577
0.0224884
8.92137
0.0231522
0.0438207
0.223047
8.00628
0.064239
0.0218478
3.81416
0.214276
0.224438
0.0263034
0.0217921
0.0215874
0.0426157
0.0220278
7.78468
0.107454
0.0221963
0.113757
0.213002
0.0216573
4.72673
7.97876
0.0985826
0.0220858
3.71239
0.0434158
0.0220145
7.03035
0.0253884
0.0216755
0.0219065
0.0244918
0.026778
4.88547
10.1
0.0275303
4.71273
0.0251671
0.0220136
0.0824756
0.0219397
0.738057
0.0216104
0.0220437
0.0232703
0.0220062
5.09288
6.52769
0.11745
7.14111
7.32047
0.0286321
0.0219865
0.0220672
0.201788
0.0215953
0.0217595
0.0347416
0.387637
0.134186
0.0215762
0.0333415
0.0265287
0.0766343
19.5592
0.021533
0.0215193
0.0220656
0.450487
0.0234506
5.90213
0.0227295
0.0221622
0.0216714
0.0218955
0.0234072
0.097289
3.75337
4.53997
0.0289688
0.0220493
1.88029
0.0217584
0.32138
5.87801
0.0299346
7.33765
4.13456
8.83533
0.0324736
0.0251151
4.83795
0.0249127
0.0318011
0.0638598
0.19902
0.0220358
4.69642
0.0220173
0.423481
0.449125
0.0216589
0.0235072
0.0398919
0.208464
0.0258277
0.0221419
0.0234642
0.0232938
0.0227549
0.98576
0.0221623
1.03776
6.4074
0.0220189
0.0247439
0.0266559
0.0220778
3.72911
18.0664
8.62246
3.77673
0.0220308
0.0233824
0.0241164
0.022261
0.116804
0.0259023
0.0222567
0.0366235
0.0257711
0.288112
0.0281499
7.78949
0.0231952
0.0225228
0.0485139
0.0551734
0.0456924
0.0219617
18.0181
5.43859
23.6627
6.93664
0.477472
4.70476
5.27587
0.0219686
0.0220214
0.0217043
0.118388
0.028453
0.0458721
9.05459
0.0216861
0.0216381
0.0220531
0.109062
0.0216086
0.0232031
0.0230142
0.273551
0.0227812
0.0218291
0.0220828
0.0219153
0.0221626
0.032966
0.115813
0.031862
0.321201
0.0220297
0.0218933
5.78609
5.20281
6.76583
0.262029
0.0462847
0.262367
0.0217894
0.0534901
0.0225311
0.0220807
0.0222394
7.16487
0.0220367
0.0556193
0.883401
0.0217449
0.0218134
0.026204
0.0983944
0.0222716
0.266953
0.0216943
0.108907
0.0221301
0.021814
0.0235434
0.0887798
0.0221235
0.159566
7.78979
0.100167
4.96918
0.0220391
8.05602
0.170689
0.0220448
0.465543
0.0222591
0.0416106
0.022211
0.021619
0.0219526
0.0220688
0.0221125
0.0271678
0.0400629
0.0218683
0.0221036
0.0612001
0.0215952
6.15572
0.0221315
0.0256601
0.0249874
5.97763
0.220187
0.0221462
0.0992204
0.021798
0.0239078
0.0570043
0.257913
0.0303479
0.022272
0.0606791
0.0719186
0.0477117
0.186207
0.0335853
0.0897844
0.0339857
0.0401104
0.0227293
0.0217156
0.26747
6.99068
0.0231178
0.0220104
18.7683
0.0218069
0.0292365
0.0219439
0.0641644
0.569192
0.0214661
8.06542
0.0233492
0.0221697
0.0844003
0.0218692
0.0402419
3.7451
0.0291143
0.267028
0.021947
0.0222645
0.0428375
0.022225
0.0222472
0.0233817
0.0246332
0.0405799
0.0672713
0.0220532
0.0334604
0.0217193
0.0220567
0.0222139
0.0220478
0.693039
0.0216453
0.023172
0.128785
0.0218023
0.0219984
4.91461
0.0222502
17.8275
0.0220832
4.37043
0.118281
0.0498349
1.17222
0.0484671
1.70602
0.0218862
0.118272
0.0244434
0.0217074
0.0218399
0.0231792
0.0249656
0.0219101
0.0439043
0.0218883
0.0224743
19.4915
8.14396
3.02024
0.022226
0.0471104
6.18906
9.57047
0.0221712
0.0230798
1.60117
0.0217846
0.0313433
0.721505
4.4638
0.0231848
0.0283636
0.0223734
0.214506
0.0222849
0.0335588
0.28741
0.022112
0.0217791
5.57418
0.0329821
0.121129
4.78407
0.054408
0.0223616
0.0218932
0.0218313
6.91539
0.243947
0.304873
0.0430707
0.0220619
6.35765
0.0221127
0.104851
0.0268438
0.0219881
0.0294536
0.022052
4.27644
6.58493
0.0214844
0.0418556
0.0288855
0.7749
0.0327874
0.0335903
0.119294
0.0250516
0.142835
0.0350484
0.0221149
0.0256002
0.0815704
0.246569
0.0220265
0.193392
0.0344389
0.0350072
0.0222724
8.5177
0.0230534
0.0231496
0.021771
0.0324927
0.0311167
0.051294
0.0221259
0.0223283
0.0464198
27.7181
0.0462023
0.0221573
0.0226597
0.0255007
0.121461
0.0221698
0.0687477
1.21407
0.0407029
4.21319
0.0265252
8.11586
0.193785
0.0219667
0.415915
0.0222385
0.0236148
0.0248096
0.0260896
0.0642788
0.0290764
0.0377305
0.0387528
0.025799
0.0233401
0.0216047
0.0768994
0.0228191
0.0277828
0.210882
0.0241882
0.0279194
0.021927
4.92222
0.0623182
0.0220527
0.0226199
0.0234142
6.68202
0.104853
0.0247936
4.06566
0.177268
0.463149
0.057314
0.133845
0.0218678
0.2923
0.021744
0.0269831
1.06791
3.72139
0.180977
0.735992
0.0221244
7.80361
0.0218647
0.0460575
0.0242032
0.260098
2.27329
0.0226254
0.022021
0.176667
0.0418467
0.0220105
7.01274
0.022081
0.0232379
0.022816
0.022215
0.025935
0.0234655
0.0220588
0.0300787
0.257334
0.0279851
0.046207
0.0220062
7.29154
3.67144
0.0220008
0.135268
0.0241547
0.0286579
0.286822
0.0219969
0.0225226
0.0270865
6.49015
0.0220219
0.0221822
0.0294667
0.222552
0.0219835
0.0302896
0.0309932
0.205524
0.0346669
0.0295268
0.111794
0.0220855
0.114125
0.0216841
7.27508
0.0258201
0.0220576
0.022979
0.0656606
0.0221496
0.0217671
0.0793379
3.21238
0.0217456
6.32468
0.0221865
0.0216694
0.0419333
0.0220258
0.0216406
2.05868
0.0222732
0.0284955
0.0826113
9.18128
0.199568
0.0215811
0.0241317
0.0276336
0.0220712
0.0220259
0.0220926
0.239272
0.0221936
0.1387
0.0640044
0.021766
0.0216022
0.0252677
0.0641786
0.133245
0.0503917
0.0459343
0.0230752
4.74701
0.0619114
0.0238482
0.0275408
0.0546628
0.0600534
23.9989
0.0261526
4.04713
0.288615
8.3447
0.022572
0.0218653
0.0297848
0.0340831
0.0216563
0.0217446
0.109949
0.022243
0.0219848
0.0220448
0.0215308
0.0220905
0.0217471
8.37769
0.0220178
0.540335
0.0220787
0.0732908
0.0220423
0.0656383
0.065699
0.0220251
0.815333
0.0241031
0.0222246
0.027472
0.0217124
0.0291948
0.0217318
3.612
0.0231733
0.0299698
0.0993328
0.55277
0.0263749
0.141116
0.210049
0.042513
0.0217558
0.0220754
0.0939942
0.0430074
8.41515
0.0216944
8.34602
0.0219644
0.0829053
9.93466
0.0295347
0.256347
0.0238584
0.0255984
0.0238852
7.19499
0.0264224
0.0221416
0.0416544
0.0832437
0.0225087
0.0220354
0.0221424
9.00641
0.0222515
0.025764
5.26922
0.0249052
0.0219597
0.0466929
0.023563
0.277894
0.0216361
0.0220091
0.0218477
0.0261587
0.0218814
0.0217735
0.0376257
5.40937
0.0219418
0.0221092
0.306798
0.0216779
7.62066
0.0220001
9.2203
0.021776
0.0236459
0.0217942
4.13079
4.79762
0.0281559
0.0640133
0.0270327
0.0218808
0.0221216
3.5114
0.0221365
0.0456988
0.0216799
0.0273527
0.0221885
0.33895
0.0218175
0.0286479
0.0218075
0.358613
0.5416
0.0217054
0.0387522
4.91187
0.0396143
0.256059
0.256487
0.171385
0.0234597
0.0264463
0.0583758
0.240874
0.0216324
0.0260773
0.0276297
0.0218725
4.2855
10.7007
0.0410253
0.0845664
0.182326
0.0287161
4.60674
0.0216506
0.0217068
0.0669069
5.71855
0.119741
0.103364
0.206534
0.021788
7.93748
4.3666
9.92622
0.0222024
7.07724
9.88339
0.566273
3.71906
4.89573
0.0473863
0.025724
0.10321
0.0256325
0.0219071
0.414919
0.0529681
0.0215889
5.70575
0.0221869
0.0273537
0.0287393
0.0262309
0.255657
0.0334353
7.72672
0.02827
0.0262438
0.266158
7.42613
0.0776864
0.0224492
0.0257728
0.0470168
0.0516227
0.0218159
0.034399
0.0567796
0.0920949
0.0219291
0.108799
0.0234548
0.0415576
0.266944
0.144528
0.0231939
0.101435
6.91527
0.0221135
0.0223963
10.7449
0.200354
0.0229605
0.0228244
0.0220868
0.0598695
0.0226386
4.01814
0.0648935
0.0224406
0.0222232
0.0658877
0.0269441
0.173951
7.31942
0.0218223
0.0220251
0.0249798
0.0221934
0.0226726
0.0224472
0.0220972
0.0256164
0.0219028
0.0238898
0.0222068
0.0293229
0.240422
0.022264
0.728462
12.5786
0.0216816
0.207937
0.0988365
0.0675107
0.0225613
0.0524938
0.0235558
0.0738151
0.0244286
0.0224364
0.0222091
8.30584
0.0231381
0.267428
0.0225681
0.0220433
0.0220124
0.057631
0.0219361
0.0324868
0.0355273
1.30161
0.0218967
0.157052
0.545308
5.5021
0.0217824
0.0935677
0.897339
0.521427
0.310373
0.0226409
0.0220422
0.117968
0.2009
0.249663
0.0283408
0.137779
0.0222315
0.0217002
0.035663
0.0221943
0.0221838
0.106444
0.022265
0.0845769
0.0217642
6.75405
1.11745
0.288408
0.295903
5.49954
0.0221419
0.022143
1.68002
0.0216995
0.0217123
0.0216663
0.0932394
5.26788
7.94775
0.0269688
0.0216573
0.0224629
0.0338012
5.83575
0.0220345
0.258571
6.74458
0.0221875
0.0221793
4.73118
0.0437819
0.0219549
0.0220368
1.17042
6.11589
0.021736
0.101339
0.022253
5.41388
2.15257
0.0219508
11.2324
8.56096
0.304399
0.0217585
0.0216368
0.0222442
0.0222864
5.11892
0.0218622
0.179337
0.135848
9.16113
0.0220413
0.0454188
0.172937
0.0346082
1.28352
8.70711
0.02161
0.0229005
0.0229867
0.0739411
3.99517
0.0215248
5.85787
0.0293743
0.028168
0.0225812
0.0219421
0.166973
0.0310408
6.87041
0.0221942
0.0424658
0.0220202
0.066453
0.0224524
5.38302
0.234529
0.192926
0.0515152
0.0219248
0.0231342
0.0498153
0.193386
4.77206
3.30235
0.0221487
0.260581
0.0873832
8.4779
0.0227934
0.0328251
0.0296093
0.0218176
0.373434
0.0220642
0.0254464
3.8142
6.66906
0.466245
5.71632
0.0261746
0.0319555
0.0216489
7.00435
0.0254674
0.357978
0.0216346
0.322937
0.0214749
0.0219893
0.0253336
0.0304794
0.0306413
0.0219073
4.36186
0.0280649
0.021866
0.0307998
4.35631
0.435418
0.0220353
9.42129
0.0232509
0.0251758
0.0244594
0.0216714
0.0453196
0.0219817
0.949386
0.0684921
0.0228963
0.0220246
0.208816
0.0289313
0.0216321
0.294258
0.253117
0.119879
0.0214762
0.19894
0.0221404
0.103789
0.0232917
0.0928773
0.301127
4.54525
0.0341072
5.58139
0.0410212
0.0266734
0.0217863
0.369674
0.0901483
0.06631
0.0599765
0.0222434
0.247674
0.0618153
0.207827
0.125261
4.97849
4.31435
0.632474
6.87402
0.0271207
0.0306578
0.0220935
0.0218057
0.0215433
0.0908754
0.0267592
0.0315465
9.43626
0.0219078
0.0218442
0.027237
0.0827234
0.0237332
0.021768
7.7478
0.0227279
0.0290285
0.0220907
7.56694
0.0278096
1.79149
0.0511343
0.0263165
0.0420305
0.0220862
9.62573
0.166683
0.0483131
0.0219618
0.0219043
7.64861
8.50445
3.94663
0.0216848
0.0495076
0.183357
0.0217589
0.0220006
0.0219197
5.45425
0.0939369
0.0297282
0.022962
0.0228907
0.496562
0.0680492
0.122387
0.0227721
0.0255334
0.0215205
0.0973497
0.0427458
0.0220061
3.35324
8.95882
6.3287
2.84473
8.6373
8.82757
1.63577
0.0232182
0.0216168
0.343921
6.4149
0.357967
0.0219858
0.0283626
0.0220685
0.0219365
0.250865
6.58453
0.0386212
0.0219915
0.150668
0.0548949
0.0334372
5.22417
0.345513
0.138224
0.0219098
5.45822
0.223415
0.210613
0.0245064
0.0295849
0.0222153
0.02185
0.0293378
0.0325618
0.0233007
0.0272664
0.0236954
0.024038
0.114403
4.77824
0.0299382
0.0277826
5.54656
0.105214
0.0221172
0.437691
0.742152
5.0517
0.0308771
0.0218344
0.0245199
0.0244401
0.0285728
0.021668
0.0331492
0.0244509
0.0291261
0.167878
0.0222304
0.0223463
4.41273
3.74964
7.76374
0.170628
0.0597623
0.0214697
0.0220625
0.0251112
0.0216503
6.36731
0.0220456
0.0222729
0.02168
3.45757
11.6737
0.0223661
0.0372266
0.0253865
0.0326144
0.0251786
0.0349602
0.0279443
0.0295031
6.63591
0.0231194
6.16555
0.0309981
8.06457
0.0252047
0.021931
0.0217843
0.0545053
0.0803027
0.0218094
0.0360141
0.0251918
0.0429819
0.269173
11.3618
0.279455
0.0222727
0.231425
0.0276415
0.0306692
0.0220249
0.0485473
0.0230174
3.93202
1.63908
0.0332989
0.0220777
3.67047
0.0272252
5.07706
6.38709
0.116166
0.0233215
0.0764162
0.278371
0.217993
5.0032
0.0426377
0.0217957
0.0313002
0.0216616
7.43313
0.0237193
0.0265138
0.151872
8.52276
0.0217825
0.0219024
7.26879
0.0312715
9.92072
0.0330178
0.0220369
0.0310331
0.10811
0.0419777
0.260966
0.0302144
0.20659
0.0232079
0.0222439
0.0218832
0.173247
0.0226531
0.098894
0.022067
0.021851
0.170449
0.0228971
0.0218311
0.0220296
0.0292551
0.19563
0.0279042
0.0292492
0.025948
0.0421408
0.0219833
0.112048
0.0252187
0.0299001
0.06693
0.0231078
0.0708996
0.0432035
0.0216566
0.0397283
12.1025
3.69378
0.0217711
0.96961
5.04361
0.0219268
0.022703
0.640365
5.17794
0.027928
4.68999
0.184265
0.0216515
0.0474811
0.0215453
0.0231523
0.0414716
1.52671
0.410631
0.124409
0.164714
2.99116
5.57724
0.0219878
4.7457
0.0220379
0.224727
5.71546
0.0220967
0.0220821
3.82232
0.0221476
0.0220846
0.146647
4.02236
0.114445
0.0228645
5.59921
0.0221028
3.4974
4.65532
0.0221896
0.167633
0.586042
6.50671
4.09062
4.53733
3.98589
0.0218543
0.0232218
0.0407776
0.0390665
0.0220797
0.105143
0.0220385
4.43656
0.138356
0.0468873
0.125828
4.35326
0.135394
0.114598
0.0598993
9.48893
0.258413
0.0226627
0.0215926
0.244596
0.0319476
0.0217012
8.79583
0.0219489
0.25304
0.0221758
6.08411
0.0226454
0.0219598
12.8004
0.0273663
0.0338469
4.04075
0.504912
1.03848
0.0232406
0.0281722
0.0230626
0.0266956
0.0704187
0.0271658
0.0222104
1.27177
0.0391375
0.0289703
4.46617
0.0288108
0.0339659
0.142551
0.0473938
0.0285355
0.0219545
0.119857
0.0217808
0.0690275
0.153753
5.67711
0.0218564
0.0297335
6.74559
0.0220871
0.0457664
0.0241207
0.0306562
0.881057
0.0382046
0.0234418
7.43912
0.0218695
3.59235
0.0221222
0.0221034
0.0674936
3.92267
0.0282692
0.35671
0.429828
0.0243539
0.0218529
0.140231
0.0326093
9.15929
0.0265364
5.36939
0.0783812
0.0242294
0.0247011
0.0816235
0.0297158
0.0698106
0.0377625
0.0350632
0.0228684
0.0216633
0.7397
0.0219898
0.0247522
0.0215639
0.0592734
0.0247412
0.0369605
4.98734
0.0231497
0.118662
0.0214867
0.0221722
0.0221873
0.022207
0.0228443
0.0219245
0.0480277
8.19984
0.0361644
0.030271
0.0225332
0.0218622
0.141193
0.0219729
0.27837
0.304127
6.98698
0.076645
0.0291905
0.0230973
0.0221759
0.028622
0.0905214
0.0331287
6.18583
0.0354488
9.87093
0.0778713
0.0222097
0.021827
3.73424
0.021899
0.0243743
0.0644105
0.180103
0.0220338
5.62502
0.0221752
0.0239004
0.0220726
0.0225037
0.14613
0.0577036
0.0219492
0.0245599
0.034949
0.0301361
0.0343058
0.374369
0.273295
0.173268
0.0709292
0.0226318
0.0223144
0.0337011
3.83366
0.949489
3.92939
0.0246301
0.297631
0.0565199
0.0220192
0.0219825
0.035594
0.0221415
0.0244304
7.45667
0.0219399
0.021693
0.256246
0.248426
0.0291966
0.476029
0.0221373
6.33874
0.0326352
7.92523
0.0290709
0.0219639
3.59597
0.0580155
0.0220234
0.0607844
0.0222522
0.114841
0.0251499
0.0531752
7.81531
0.0325792
0.303897
0.021908
9.98453
0.0221245
0.0235641
0.022138
0.03478
0.0221428
0.0508392
3.75365
0.73091
0.0335916
0.028132
0.0720672
0.0217995
0.0218657
0.0220341
0.195789
0.0227384
6.31476
5.44958
0.101931
0.0222142
0.102744
0.142821
0.0838892
0.0225861
6.16343
0.0219363
0.0214803
0.0219247
0.45737
0.0218186
0.021994
3.83355
0.0219543
0.102901
0.0905632
0.0215972
4.96163
0.0231844
6.2477
0.0217932
0.206311
0.0222595
0.0690781
15.654
0.0405017
0.021918
0.0230551
0.278324
0.0244142
0.10407
0.0250332
0.0240588
0.104967
0.0269861
0.021676
27.6279
0.0252618
0.0232723
0.0763829
0.0219428
0.0218034
0.0221886
0.0239513
0.0221104
0.0247338
0.299513
16.1367
0.0953937
8.88823
0.0352639
0.0248754
8.55147
9.24464
0.0224285
10.7025
0.620239
4.44465
0.437048
0.0258917
0.279296
4.03704
19.5262
0.4282
1.52385
0.0402119
0.0763208
0.0282631
0.022723
0.0220975
0.791737
0.0222849
6.64603
0.109541
0.255613
0.021571
0.0429189
0.0428205
0.0237132
0.0222931
0.0221181
0.109527
0.0221252
0.0217434
0.0268975
8.68793
0.0225218
0.113907
0.0218126
0.114567
0.0758313
0.0221381
0.0251151
0.0219284
5.91508
4.62421
0.0886331
1.38357
0.0299081
0.0525897
0.022134
0.0273709
0.022034
0.0219951
0.0222325
0.811304
0.0217208
0.0284875
0.476802
0.0257098
0.0246876
0.0219849
9.29619
0.118411
18.6584
5.45023
0.105449
0.150579
4.81937
0.169761
0.150185
10.3245
0.110137
0.0342498
0.358314
7.11843
0.0220433
7.88936
0.111531
1.39995
0.0215897
0.0377163
9.05185
0.0222728
6.63827
0.0254901
7.09481
0.0220904
0.0221491
0.0483231
0.187009
0.0229224
0.0443191
0.0216798
0.0218187
4.02965
0.391476
12.3841
0.031906
0.021661
0.0224571
0.0221332
0.0328307
0.898718
4.5009
0.277085
0.32398
0.0267067
0.0219471
0.021979
7.23695
9.90356
0.16914
0.0263558
0.0235217
0.0756315
7.83219
8.75976
0.0214635
0.0219371
6.84289
0.022305
0.196088
0.0271004
0.0219925
0.0289679
0.0437814
5.72934
6.89438
0.022202
0.0216873
0.0231648
0.140052
8.44011
0.0222646
0.0912784
6.52857
0.0214775
0.248267
3.42303
17.0965
0.0221123
8.92588
6.8022
0.0346805
0.253291
0.0223078
0.283669
0.169328
0.0229005
0.0219135
10.4733
0.245426
0.0217223
0.0776797
0.0905131
0.0244836
0.131766
6.76662
1.76303
7.71169
0.0233644
0.0236262
0.0220221
6.00075
6.56636
6.48004
7.04237
5.85213
0.0216432
0.0287654
0.0220656
0.0221132
0.02401
0.0219525
0.0220557
0.0218397
3.61891
8.1056
8.36868
0.0509984
0.105764
0.0361014
0.0218043
0.0219836
5.5282
0.0221367
6.46066
3.98409
0.0221787
0.0217579
4.3291
0.0222479
0.384954
0.0235062
0.021726
0.0216351
5.88687
0.0216367
8.67848
5.55775
0.0215277
0.0316846
0.0217878
0.0220027
0.0216335
0.0876686
0.275708
0.0219565
5.92019
0.361198
0.0233188
0.0217401
0.0224656
0.0226032
0.0222254
0.256992
6.4468
7.37903
0.0270458
12.0312
0.0222722
0.0229531
0.0216543
0.126855
0.0231133
0.30455
0.0218484
4.20769
0.151194
7.42877
0.0828603
0.0218454
0.0331705
0.0218231
5.81323
0.0217635
0.0261264
0.0240588
0.0231384
0.0219638
0.0222507
0.0308879
5.52292
0.0222121
0.0222433
0.0224668
0.0309894
0.0907184
0.0221867
7.44946
3.68466
0.0225925
4.37063
6.73064
0.258267
0.603608
0.0215095
0.0226428
0.264615
4.41798
0.0931742
3.30637
3.75943
0.0288866
0.0337867
0.0245499
4.64736
0.0220292
0.0219605
0.353704
0.0719924
7.17978
0.0226171
0.0216345
0.0220391
6.67457
0.0421746
0.0228757
0.165009
0.021687
0.0363881
0.0250803
0.0251407
0.0216048
0.0221873
0.0219
0.0227528
0.991267
3.51425
0.0215377
0.0217776
8.12749
0.0219485
0.0564807
0.0261227
0.0256093
0.0264147
0.0222856
4.58296
0.024364
0.0254429
22.8061
0.0503712
0.0228221
0.0245596
0.0220251
0.0221972
12.5883
0.261717
3.94871
0.0218775
0.022152
0.0459648
0.0266896
0.0220225
0.0268506
8.59045
0.0242446
0.0327442
0.024352
0.0667481
0.0221175
0.0215597
7.07838
0.305313
0.305333
0.0219398
0.0838232
0.0214746
0.022013
0.0397641
4.33806
0.0415592
0.0247187
0.0857141
0.0219869
0.0242435
0.0515412
0.698409
0.0219409
0.0216064
0.0225431
0.0229846
0.0230502
0.0219385
0.864308
13.5379
0.0218039
0.0304203
0.0224746
0.0215282
4.75511
0.846088
9.91052
0.0442604
0.0224536
0.0346565
7.25087
0.065668
0.0550113
0.0320036
0.0283375
7.03256
0.112753
0.426734
0.0217427
0.0290419
0.0221438
0.0258639
8.35266
0.0216034
0.0355695
0.0255354
0.0274813
0.0227128
0.0216427
0.0218642
4.50216
0.0309597
0.0246134
0.041664
0.0319082
0.329066
0.0292583
0.413191
0.0218865
9.74654
6.08738
1.02194
0.0222645
0.0254736
0.022083
0.0218934
11.1145
0.0314251
9.68852
0.0219795
0.0427561
0.0746017
4.97153
0.0272767
0.0215356
2.49828
0.022285
0.0222841
0.0222874
0.0220275
11.2875
0.0217522
0.0218291
0.0328661
0.0265849
0.114564
0.0989087
0.032251
5.31745
0.0215971
0.119985
0.0216119
9.44704
0.029706
0.354435
0.0873894
1.7302
0.0609198
9.41205
0.0221644
2.95258
0.0308073
7.00039
0.136699
0.0279569
0.141204
0.0220635
12.7924
0.0221949
0.0309473
0.0264135
3.26465
0.0777409
8.39926
0.0295106
0.0220045
6.99106
0.155325
0.0336637
0.0924541
8.17724
9.42464
0.0347217
0.169326
0.0303835
0.021828
0.0398371
0.171368
0.0581906
23.7342
0.0905778
0.0217292
0.0217107
0.102327
0.0220844
0.308246
0.0609018
0.0220875
3.54017
0.24663
0.25368
0.083255
0.0217423
0.0282241
0.0255791
8.65863
3.81601
0.0254426
7.17387
0.0217537
0.0307031
0.440898
0.0219896
0.0313682
0.0219104
0.0242244
0.0222511
0.137327
0.189363
0.0293434
0.0278544
0.0216436
0.0998946
0.0217774
0.0217853
0.0314945
0.021902
0.140251
8.96324
0.602729
5.97503
0.0217314
10.0436
0.0221886
0.0376605
0.096773
0.0217009
4.08079
0.0579966
0.0219557
0.0215202
0.0312082
0.0337859
0.139858
0.11844
0.0257773
0.0231907
5.80166
0.0382221
0.138516
0.431981
7.42524
0.632175
9.81345
0.473765
0.0221838
0.0221127
0.0391653
0.0220956
0.0409039
0.0262868
8.09893
10.0922
7.33541
0.0215602
0.0216789
0.0897236
0.15565
8.53367
0.45897
3.68996
0.052109
0.0317168
0.462797
0.153632
0.0230047
8.4231
0.0318477
0.0251816
6.97949
0.0281148
0.0216404
0.27578
0.556257
0.0224728
0.100995
0.0226523
2.49189
1.66477
0.290527
0.0220059
0.0216528
0.0754866
0.0220081
0.0217213
0.0220119
0.0216848
0.0220178
0.0220253
9.63769
0.025802
0.0437037
7.50021
0.0218785
0.0220342
0.0257119
0.0227725
0.0231859
0.0220433
0.0533054
0.0274577
0.0260374
0.0769398
6.19135
0.022055
0.029742
0.0220677
0.0220333
0.0215146
0.0220808
7.83012
0.02177
0.022021
0.0220946
0.0373539
7.35634
7.10215
9.78176
0.434792
0.0308841
6.67226
2.61575
0.0219389
0.0400207
0.34358
0.128803
0.0221093
0.023479
0.0288262
0.0365394
0.0220557
0.0274477
0.0552202
0.0425327
0.0215979
0.0418857
0.258632
0.0215406
0.427412
7.58263
0.039748
0.633389
0.0299948
0.0220906
0.0230569
0.0220008
0.172835
9.47848
0.0215809
0.0398016
0.0219505
0.0219762
0.0221228
0.0222857
0.0338759
0.0221714
0.0932993
0.101084
0.0240771
0.0235426
0.0326819
0.0220455
0.0425818
0.0249645
0.0220804
0.0221007
0.0221393
6.91911