/*--------------------------------*- C++ -*----------------------------------*\
| =========                 |                                                 |
| \\      /  F ield         | OpenFOAM: The Open Source CFD Toolbox           |
|  \\    /   O peration     | Version:  v2012                                 |
|   \\  /    A nd           | Website:  www.openfoam.com                      |
|    \\/     M anipulation  |                                                 |
\*---------------------------------------------------------------------------*/
FoamFile
{
    version     2.0;
    format      ascii;
    class       volVectorField;
    location    "150";
    object      ddt0(U);
}
// * * * * * * * * * * * * * * * * * * * * * * * * * * * * * * * * * * * * * //

dimensions      [0 1 -2 0 0 0 0];


internalField   nonuniform List<vector> 
13851
(
(0.001957 -0.00125087 1.83841e-20)
(0.0938048 -0.126137 -2.40824e-18)
(0.0167291 -0.00642483 -2.92948e-18)
(0.00184917 -0.00134714 -3.79451e-20)
(0.0169747 0.00714093 -1.45082e-18)
(-0.0107596 -0.00992085 -3.02836e-19)
(0.000327371 0.00117837 -9.31962e-20)
(0.00933756 -0.000850162 2.62819e-18)
(-0.00272475 -0.00096932 -1.25401e-20)
(1.11765e-05 -0.015976 -4.56621e-19)
(0.0279994 0.0305184 -6.96411e-19)
(0.0421888 -0.130114 -2.73932e-18)
(-0.053306 0.0313699 -5.59975e-18)
(0.0869308 0.106668 -3.80569e-18)
(-9.56138e-05 0.000135624 -7.3972e-19)
(0.00366859 -0.000334892 2.25181e-19)
(0.00299705 0.00176045 -9.30806e-19)
(0.00213092 -0.00147371 3.59113e-20)
(0.0190068 0.0173681 -4.69806e-18)
(-0.00264546 -0.000974493 8.71583e-21)
(0.00162009 -0.0013105 3.13604e-20)
(0.0171382 -0.00483516 -5.01537e-18)
(-3.83052e-05 7.18595e-05 -1.32095e-20)
(-0.00211766 -4.81681e-05 2.69952e-20)
(-0.000136141 3.71801e-05 2.83274e-20)
(0.00917214 -0.00145869 -3.50516e-18)
(0.00180437 0.00347468 -4.96787e-19)
(0.00549976 -0.0160362 6.49902e-18)
(0.00188456 -0.00116684 -2.16245e-20)
(0.00239754 -0.000421109 4.09655e-20)
(-0.0177445 -0.00945682 2.55288e-19)
(0.0031462 0.00178366 -1.17438e-18)
(0.0154696 -0.00679546 2.4668e-18)
(0.0358541 -0.178932 3.6406e-18)
(-0.00215746 -7.44737e-05 2.47366e-20)
(0.017283 0.0237399 3.4407e-17)
(-0.038157 0.0296386 6.31908e-18)
(0.0336561 0.00311108 1.91559e-19)
(-1.32815e-05 -0.0184555 8.21941e-19)
(0.0350519 -0.149814 -6.41646e-19)
(0.000568117 -0.000657256 6.0843e-19)
(0.00142062 0.000274011 -5.95809e-21)
(-0.00846876 -0.0233594 1.39844e-17)
(0.0168581 0.0501296 3.77961e-18)
(0.00638155 0.0334478 -1.97433e-18)
(-0.0652191 -0.0169931 8.3373e-18)
(-0.00523542 0.052234 -1.47291e-18)
(0.0372563 -0.0289414 -6.23622e-19)
(0.00196395 0.00363161 6.56519e-18)
(-0.0303965 0.0549567 1.85153e-18)
(0.0115692 0.0131823 -4.30561e-19)
(0.0179808 0.0155632 -8.12517e-18)
(0.00161629 -0.0518 1.02382e-17)
(-0.00015473 8.40411e-05 1.20862e-18)
(-0.000648757 -5.78447e-05 -1.72832e-18)
(0.00148149 0.000251118 5.21039e-21)
(-0.00202098 9.89083e-05 6.73713e-21)
(0.0161548 -0.0564557 1.47868e-17)
(0.00234261 -0.000405439 -1.30718e-19)
(0.000325252 0.00127401 5.52588e-18)
(0.034741 0.00152561 -1.95425e-18)
(-0.0772586 0.0858667 -5.60346e-18)
(-0.00490236 0.00186673 4.00657e-19)
(0.0184254 0.00922282 -9.31327e-19)
(0.037357 -0.00934971 -8.68695e-19)
(0.00231947 -0.00167252 2.14154e-19)
(-0.0399246 0.0287349 1.24707e-17)
(-0.000590061 0.0677063 3.61278e-18)
(0.00517135 0.00644333 -2.63453e-18)
(0.00195202 -0.00135236 -7.09512e-21)
(-0.000137893 0.00111677 -3.27534e-17)
(-0.0404708 0.0262337 1.59079e-18)
(0.0773176 -0.140573 -1.0034e-18)
(-0.000125646 8.44839e-05 4.38764e-20)
(-0.000685171 -0.000133353 1.46178e-18)
(-0.0032139 -0.00163459 1.51904e-19)
(0.0162796 -0.00401131 -3.48133e-18)
(-0.0374228 0.00338839 -1.61056e-17)
(0.0101595 0.00524232 6.62316e-18)
(0.0054255 0.00106146 6.77502e-18)
(0.000750832 0.00157131 2.78765e-18)
(0.0268643 0.000869406 9.44575e-20)
(0.000194938 0.000414086 6.69161e-19)
(-0.0480976 -0.0204426 -1.96059e-17)
(-0.00607222 0.000129452 1.10265e-18)
(0.0271764 -0.11966 7.94241e-18)
(-0.00674384 -0.00181181 -2.41106e-19)
(-0.0119055 0.168785 1.71437e-18)
(0.00300444 0.00287908 -3.68315e-18)
(-0.000498383 0.00270558 2.1098e-19)
(0.0171168 0.0239355 -4.0423e-17)
(0.0103402 -0.00560979 2.47424e-19)
(0.0074202 0.0828317 1.40829e-18)
(0.00395316 0.00349114 4.92874e-18)
(0.00280293 0.00298845 -4.14702e-18)
(-0.00204561 3.66048e-05 -4.98087e-22)
(0.017211 0.00800589 -2.10475e-20)
(-0.0738184 0.0248933 1.32336e-18)
(-0.0240846 0.0686564 -1.46336e-18)
(-0.00187458 1.58686e-05 -5.63237e-21)
(0.0531917 0.0196003 -7.98681e-20)
(0.00960872 0.0083302 2.68783e-18)
(0.00150337 -0.000598518 -7.46878e-19)
(0.000811919 0.00419453 -2.17406e-17)
(0.000772983 -6.35704e-06 2.79657e-21)
(-0.00625933 0.00513596 2.11924e-19)
(0.0103069 0.00994799 -4.35032e-18)
(0.0013666 6.89934e-05 4.57754e-21)
(-0.0373281 0.0227694 -7.74867e-20)
(-0.0085747 -0.0133191 9.47676e-19)
(-0.00201538 -1.29339e-05 1.14188e-20)
(-0.000387875 0.00295908 1.602e-19)
(0.00905713 -0.00557834 -2.4605e-19)
(-0.00128599 -2.15573e-05 -3.99239e-20)
(-0.0021816 -2.01541e-05 2.46912e-20)
(0.0857308 -0.0260327 -1.09392e-18)
(-0.0755958 0.0269763 1.61337e-17)
(0.00116231 0.000174112 1.04618e-20)
(-0.00132691 -7.15981e-05 -8.08116e-20)
(-0.000759352 -5.92085e-05 2.67733e-19)
(-0.00614456 -0.0275476 4.43643e-18)
(0.00113623 0.00405427 3.87499e-18)
(-0.0583625 0.0324712 9.86001e-18)
(0.00371184 0.0591512 -7.44559e-19)
(0.0338685 -0.0148986 9.48604e-20)
(0.00378572 0.00515006 2.88734e-19)
(0.0316256 -0.00768284 -3.37685e-19)
(0.00999692 0.0067183 -9.32171e-18)
(0.00154432 -0.00135838 -2.5309e-20)
(0.0253685 0.00865913 -4.75819e-18)
(0.000514221 -0.000638006 -8.31352e-19)
(-0.00163928 -0.000741664 -3.2535e-19)
(-0.00110752 0.00206125 3.42576e-17)
(0.000150806 0.000426325 -1.60559e-18)
(0.0840726 -0.0454892 -3.16342e-18)
(-0.00161662 -0.000257978 -4.17746e-20)
(0.00113705 0.000158973 2.32638e-20)
(-0.0418599 0.026877 -9.3675e-21)
(-0.0651601 0.166066 -4.28401e-19)
(-0.0338228 0.06267 -2.76352e-18)
(0.0326607 0.00492479 5.7233e-18)
(-0.000688772 -5.32398e-05 4.14439e-19)
(-0.00284409 -0.00326102 9.5808e-21)
(0.00209817 0.000823938 -8.08324e-21)
(0.00233253 0.00106134 3.33611e-20)
(0.0163339 0.0673412 5.72298e-18)
(0.00208157 -0.000691771 -2.64563e-21)
(0.0264455 0.00784509 1.75233e-17)
(0.00012004 0.00112314 1.78204e-18)
(0.00374976 0.0171017 -1.23515e-19)
(0.00588905 0.0176707 -2.66931e-18)
(-0.00080638 -7.94232e-05 3.15584e-19)
(0.101048 0.0994243 2.70768e-18)
(-0.00198361 0.000102406 -4.12597e-21)
(0.00156715 0.00215744 3.74094e-18)
(0.00228915 0.000978348 7.37059e-19)
(-0.000535716 -0.00162579 1.05672e-19)
(0.00211409 -4.51887e-05 1.05056e-18)
(0.0184161 0.0152854 -3.92478e-18)
(0.0116113 0.0125716 8.62564e-18)
(0.00176813 -0.000172635 8.56573e-23)
(0.00309776 0.00503867 -4.33705e-18)
(0.0134487 -0.0548551 -1.64495e-17)
(-0.00171044 -0.000715509 9.53638e-20)
(0.00341698 -0.00044091 7.0356e-19)
(0.00166326 0.000616586 1.14893e-20)
(0.00213432 -0.000763016 4.41665e-21)
(0.00520593 0.00682785 4.4644e-19)
(0.00151329 -0.0013162 -1.98163e-20)
(-0.0857119 0.0166483 -2.40714e-18)
(-0.0365071 0.00235418 7.19618e-18)
(-0.00247821 4.96626e-05 -4.43412e-22)
(-0.000432615 -0.00158793 -2.63026e-19)
(-0.0258711 0.0804521 3.49521e-19)
(-0.00171811 -0.000647156 1.54205e-19)
(0.0442548 -0.0392909 -2.70155e-19)
(0.00990084 0.00623753 1.13047e-17)
(-0.00342766 -0.00289719 -3.47626e-19)
(0.00520454 0.0215483 8.16492e-18)
(0.00147155 3.93618e-05 2.98485e-21)
(0.00343335 0.00158708 3.30756e-19)
(-0.041647 0.0258901 7.96667e-18)
(7.99895e-05 0.000432859 -1.33812e-18)
(0.0185695 -0.00449715 9.83626e-18)
(0.00132302 -2.83145e-05 -4.36615e-21)
(-0.000986951 9.8225e-05 -1.13581e-21)
(0.00242807 -0.00155834 -1.79899e-19)
(-0.000809717 -7.94175e-05 1.10319e-18)
(0.019943 0.00618649 -3.3354e-18)
(-0.00910229 0.00656701 1.87979e-19)
(0.000589773 0.0701841 -3.01609e-18)
(0.00211575 -0.0529299 1.71596e-18)
(0.000306566 0.00307098 1.3633e-19)
(0.00583198 0.00529903 1.33724e-17)
(-0.066099 0.0828032 1.23797e-17)
(0.0017398 0.0019587 2.45604e-18)
(-0.00303547 -0.00331346 -5.877e-19)
(0.0254999 0.0615881 -7.37775e-19)
(-0.00329873 -0.00290722 3.06935e-19)
(-0.00316713 -0.00174031 -9.97141e-21)
(0.00335445 0.00565721 1.62515e-19)
(-0.111165 0.0210493 -4.15008e-18)
(-0.00111902 -2.97779e-05 1.22746e-19)
(0.000218061 1.86368e-05 2.23409e-18)
(-0.00437025 -0.00237298 1.09624e-18)
(0.000112156 0.000465691 1.59932e-18)
(0.0151895 0.0171822 8.86581e-19)
(0.00298015 0.00214249 -3.58514e-18)
(-0.0206909 0.00733844 -7.03719e-19)
(0.00161188 -7.23523e-05 1.62983e-22)
(-0.0424531 0.0199504 1.31916e-17)
(0.0014877 -0.000584361 -5.29936e-19)
(0.0490392 0.0585872 9.84247e-20)
(0.00141511 -5.94402e-06 6.67462e-23)
(0.00196076 0.000650589 7.70597e-20)
(0.0266641 0.00984734 3.72342e-19)
(-0.00426471 -0.00323031 1.03854e-18)
(-0.0583952 -0.0235819 -1.55344e-18)
(-0.000240414 0.000252352 -1.20239e-18)
(-0.0225402 0.0082826 -5.56779e-18)
(0.0031275 0.00207169 -2.97883e-18)
(0.000774084 0.00163574 -3.10791e-18)
(-0.066537 0.0239764 1.73018e-17)
(0.0208376 0.0125204 5.84329e-18)
(-0.024504 0.0150907 2.8014e-20)
(-0.000644786 5.63581e-05 2.09965e-20)
(0.00484221 0.00367509 -1.67852e-17)
(0.00059164 -6.43167e-06 2.88722e-22)
(-0.00413672 -0.0550006 -3.98299e-18)
(0.00146082 -2.12034e-05 1.09768e-21)
(0.0083624 -0.00166294 2.16804e-18)
(0.00733473 -0.0362321 -1.772e-18)
(-0.00243182 5.65231e-05 5.01562e-22)
(6.11718e-05 0.00276039 -2.06571e-19)
(0.00954882 0.0130276 6.86718e-18)
(0.00460706 -0.00509851 -1.15778e-19)
(0.0123198 0.0191989 -3.61392e-18)
(0.044685 -0.0082873 2.18209e-18)
(0.00209875 0.000749989 -4.32728e-20)
(0.000250615 4.2704e-05 -1.4685e-18)
(-0.018131 -0.00421262 -1.0301e-18)
(0.0295264 0.0759224 3.32835e-18)
(0.00203324 -0.000309816 -7.34555e-21)
(-0.00635165 -0.00293531 1.24707e-20)
(0.000969464 -4.86096e-06 -2.06428e-21)
(-0.0229497 0.0128644 -5.63574e-18)
(0.0103518 0.00809028 -8.42972e-18)
(0.0581757 -0.0754363 -1.10147e-18)
(0.00232991 0.000796451 2.08259e-18)
(0.00315628 0.00072377 6.30279e-18)
(-0.00480852 -0.012032 6.66374e-20)
(0.0291656 0.0581714 -3.56007e-18)
(0.00123592 0.000931196 5.39773e-18)
(0.00241457 0.000883123 -9.08261e-19)
(0.00729191 0.0114605 1.28526e-17)
(0.0311071 0.0316856 -1.61869e-18)
(-0.00614995 0.00754985 -2.35237e-19)
(-0.0426557 0.026483 -1.83271e-18)
(-0.0479231 -0.00137565 -1.65708e-17)
(-5.45138e-05 0.000503501 -1.39761e-18)
(0.00196884 0.00071379 5.3e-20)
(0.00201157 -0.00103641 1.70848e-20)
(0.00323469 -0.0635844 -6.7668e-19)
(0.00177027 0.00264337 1.86933e-19)
(-0.0197602 0.0288279 6.43265e-18)
(0.00174516 0.00188321 -5.32563e-18)
(0.00111124 0.000959145 -3.09913e-18)
(0.00381834 0.00346072 7.25747e-18)
(-0.0679493 0.0256285 1.37699e-17)
(0.00752857 -0.0185512 2.49659e-20)
(-0.00617698 -0.0115661 4.2227e-19)
(0.00165367 0.00206881 3.28019e-18)
(-0.0251043 -0.0364878 1.30693e-18)
(0.00959387 0.00513091 5.35717e-18)
(0.00360542 -0.000212771 -7.11977e-19)
(-0.00165093 -0.000808708 -1.51267e-20)
(0.0261965 -0.0113769 -2.01067e-19)
(0.0157912 -0.00265499 2.12051e-19)
(-0.0168952 0.0144247 -1.49679e-17)
(0.0274551 0.0206508 1.65132e-18)
(0.00204852 -0.000318927 8.75392e-21)
(0.0015396 -8.71615e-05 -2.04695e-21)
(0.000820674 -8.83806e-06 -6.98804e-22)
(0.00696596 0.0111325 6.52742e-18)
(-0.000581185 -0.0697688 6.58802e-19)
(0.026649 -0.0170132 1.87819e-19)
(-0.00280914 -0.00139085 -5.53249e-20)
(-0.000134676 0.000255829 2.99511e-18)
(-0.0324826 -0.0331554 -1.14591e-18)
(0.0178607 -0.0155981 -1.93644e-19)
(0.0264257 0.00878042 -1.70003e-17)
(0.00219278 -0.000289444 -7.24977e-20)
(0.000290984 0.00129889 -4.65788e-18)
(0.00650341 0.00631749 2.00271e-18)
(0.0201507 -0.00629309 6.5614e-20)
(-0.0148338 0.0258684 -2.32519e-20)
(0.00324782 -0.000205235 5.39895e-19)
(0.0108351 -0.117468 -2.78673e-18)
(-0.00151364 -0.000910929 -1.48967e-19)
(-0.0255225 0.0140348 -1.85887e-18)
(0.00266376 0.00497143 -1.18817e-17)
(0.0028855 0.0016115 5.87304e-18)
(-0.021189 0.0153422 5.21326e-18)
(0.00109573 -0.000207634 1.88134e-18)
(-0.00805367 0.00305846 2.23609e-19)
(-0.0469425 0.0175878 -5.31334e-18)
(-0.00281709 -0.00131361 -5.58587e-20)
(0.00638218 0.0094438 1.51897e-17)
(0.00413854 0.00327699 -4.28498e-18)
(0.00221786 -0.000280479 -1.00789e-18)
(-0.0720015 0.159992 -6.23192e-18)
(0.0032756 -0.000236824 8.78389e-19)
(0.0012294 0.000741036 5.21451e-18)
(-0.0693022 0.0240842 1.06999e-17)
(0.00146052 0.000385408 -2.15329e-21)
(0.00341651 0.000706436 -6.3122e-18)
(0.00282989 0.00717971 3.93685e-21)
(-0.0215411 0.0159588 -8.21006e-18)
(0.00991963 0.0216949 1.00405e-17)
(-0.000185581 0.000283863 -1.43085e-18)
(0.00907034 0.00980137 -1.65973e-19)
(-0.000175127 0.000288468 -6.06806e-19)
(-0.0499365 0.000375412 1.09448e-17)
(-0.00320655 -0.0159683 8.82187e-19)
(-0.00029786 9.52507e-05 5.42975e-21)
(-6.9681e-05 -0.00230559 -1.45083e-20)
(0.010038 0.0211713 5.55522e-18)
(0.00453525 0.0036349 -1.06701e-17)
(0.00144637 0.00226866 1.96782e-18)
(-0.000101749 0.000233579 -2.72411e-18)
(0.00101019 -0.000173525 -1.48544e-18)
(0.00123968 0.000685565 -3.00706e-18)
(0.0233411 0.0317917 1.76217e-18)
(0.142761 0.0694793 9.62752e-18)
(-0.0925457 0.0303091 -2.22177e-17)
(0.00116569 -0.00048351 -6.41812e-20)
(-0.0255443 0.0167241 -8.79715e-18)
(-0.024722 0.0404933 8.26209e-18)
(-6.01584e-05 0.000130148 1.42217e-18)
(0.00629466 0.00507241 -1.07803e-18)
(0.0276226 0.00823873 1.00269e-18)
(0.0113578 -0.00215843 9.27845e-20)
(0.00490893 -0.00972553 9.3215e-19)
(0.0159659 0.0157999 -7.42049e-18)
(0.016872 0.0192359 3.392e-18)
(0.00298096 -0.00738289 -2.8906e-19)
(0.0406627 -0.131162 -1.43966e-18)
(-0.0380586 0.0162998 3.75404e-18)
(-0.000154984 0.000113655 3.13951e-19)
(-0.0109912 0.0197538 2.97493e-19)
(-0.00798065 0.02305 -7.72789e-19)
(0.0425523 -0.0287052 1.18965e-19)
(0.00132651 0.00231423 -8.49779e-18)
(0.00550906 -0.0111655 1.44363e-19)
(-0.00381774 -0.0562606 1.10187e-17)
(-0.00033684 -0.00164407 1.87243e-19)
(0.024333 -0.144995 1.86108e-18)
(-0.000164345 -0.00237121 -6.18481e-20)
(-0.000120746 0.000273343 4.3492e-19)
(0.00108314 -7.42783e-06 1.4769e-21)
(0.0013965 5.18401e-05 -4.5345e-21)
(-0.000641824 -0.00138606 -1.13239e-19)
(-0.0408912 0.0178059 -1.19684e-17)
(0.0216193 0.107859 -2.84909e-18)
(0.000571027 0.000114921 -1.90757e-18)
(0.00634576 0.0090896 -1.85113e-17)
(0.00164264 0.000414061 -4.29717e-21)
(-0.0038654 -0.132261 -9.70294e-18)
(0.00298124 8.93453e-06 8.48379e-20)
(-0.0540871 0.0487885 -8.49739e-19)
(-0.0864135 0.0220179 1.57507e-17)
(0.000610161 8.83766e-05 7.6336e-19)
(-0.00519792 -0.00390543 -7.67105e-19)
(0.00428538 0.00278113 9.3923e-18)
(-0.0160376 0.00361842 9.22061e-19)
(0.000403675 -0.00070284 1.95459e-18)
(0.00115511 0.000203106 -6.10786e-21)
(0.00392675 -0.0118116 2.04159e-19)
(0.0857141 0.0250916 3.39792e-19)
(-0.000758486 -0.000110603 -2.5861e-18)
(-0.051719 0.130283 -2.20872e-18)
(0.0119122 -0.00371175 -1.02705e-19)
(0.0168508 0.0162721 2.01292e-17)
(-0.090455 0.0116691 1.21036e-17)
(0.00337683 0.045378 8.22552e-19)
(-0.00373534 0.0425495 -1.98809e-18)
(-0.00767345 -0.00451653 2.33435e-19)
(-0.00118335 -0.000751601 2.52588e-19)
(-0.000185744 5.54701e-05 -3.31515e-18)
(0.00147796 -0.000465451 1.73718e-19)
(0.0086657 0.0100905 4.95172e-18)
(0.0967815 0.105156 -1.67285e-18)
(0.00491143 0.00737641 6.90919e-18)
(-0.0290713 0.0165932 7.28983e-18)
(-0.0441214 0.0174752 6.78022e-18)
(0.00163362 0.000461236 2.52093e-21)
(-9.26415e-06 0.000535937 6.13764e-19)
(-0.0931531 0.0240306 1.12551e-17)
(0.00106669 0.00192607 -1.61588e-18)
(0.00153594 -0.0343122 6.50582e-19)
(-0.0748755 0.0270377 -1.12759e-17)
(0.00421667 -0.0128794 7.82262e-22)
(0.00443002 0.0028373 1.1909e-18)
(-0.00156724 5.14941e-05 -3.61695e-20)
(-0.00860189 0.0317563 -5.18577e-18)
(-0.00277284 -0.000271769 -8.90173e-21)
(0.0038384 -0.000327253 1.67932e-18)
(-0.00663334 -0.0042898 -1.13783e-19)
(0.000259191 0.00101184 -3.84227e-19)
(0.000671433 -1.07791e-05 3.49061e-21)
(-0.00286428 -0.00121927 9.5127e-20)
(0.00166869 0.000570172 -1.43687e-20)
(0.0176217 0.00966149 8.15482e-19)
(0.00797489 -0.00574283 3.99032e-19)
(-0.0556638 0.00185712 3.0074e-19)
(0.00167697 -0.00115035 8.03385e-21)
(0.00951905 0.0101766 2.85089e-18)
(0.00172721 -0.00480575 2.01875e-19)
(0.0261232 0.00861818 8.65331e-19)
(0.00328982 0.000463125 2.96507e-18)
(0.0426115 -0.0342868 -4.82567e-19)
(0.00285507 0.001579 2.02464e-18)
(0.0248771 9.9953e-05 2.45345e-19)
(0.001163 0.000130371 -3.73602e-20)
(-0.00279811 -0.00114049 -4.42603e-20)
(-0.000996598 6.16471e-05 -2.36323e-21)
(0.0470438 -0.00123414 -1.07299e-19)
(-0.0318507 0.0445759 -3.61583e-20)
(0.0217084 0.0112591 3.06516e-18)
(0.00224997 -0.00434553 -2.88162e-19)
(-0.0539353 0.000658478 -5.26808e-18)
(0.0283706 -0.187962 6.76808e-19)
(-0.00604132 0.000342597 7.28819e-20)
(-0.000798393 -5.29994e-05 -5.07201e-19)
(0.00928972 0.0135103 -3.6898e-18)
(0.000332164 -0.000683498 7.10909e-19)
(0.0161571 -0.0215252 2.88979e-19)
(0.00075975 5.52391e-06 -1.51556e-20)
(0.0365824 -0.0564885 9.22141e-18)
(-0.0156432 -0.108414 -1.86137e-18)
(0.0126339 -0.00762046 9.06978e-19)
(-0.0248944 0.00668915 1.37289e-17)
(-0.00316209 -0.00276972 -3.99319e-19)
(0.0103031 -0.00579433 -9.47764e-20)
(-0.0182254 -0.0908815 2.48789e-18)
(0.130727 0.0382267 3.47334e-18)
(0.00132946 -2.69088e-05 -2.08678e-21)
(0.00516423 0.00285149 -1.10489e-18)
(0.0104602 0.00576243 -6.78761e-18)
(0.00374456 -0.0229614 1.15904e-20)
(-0.00259386 -0.000180102 -2.35377e-21)
(0.00123158 0.000573438 1.32152e-18)
(0.00542519 0.0170594 -2.74948e-19)
(0.0178271 0.0152931 1.39274e-17)
(0.00100815 -0.00177228 8.85498e-19)
(0.00442584 -0.188332 -3.4116e-18)
(-0.000695248 7.79105e-05 9.11906e-22)
(8.59883e-05 -0.00239264 1.0372e-20)
(-0.0173569 -0.0320702 1.35961e-18)
(0.00361609 -0.000587048 -7.15474e-19)
(0.00152729 -8.02622e-05 1.19461e-21)
(-0.0718264 0.220971 -2.51275e-18)
(-0.00124133 -0.000732067 -7.83534e-20)
(0.00190573 -0.00131996 4.47429e-20)
(-0.00261617 -0.000530425 4.98776e-22)
(0.00592646 8.03097e-05 1.11608e-19)
(0.00190607 -9.16542e-05 -3.04826e-18)
(0.00155905 -6.85093e-05 1.54324e-21)
(-0.0030792 -0.00290566 1.94438e-19)
(-0.0724907 0.0263152 -6.27718e-18)
(0.000237826 0.000446757 -1.43514e-19)
(0.00553052 0.00757348 -5.71167e-18)
(-0.00158819 -0.00029607 2.17092e-19)
(0.00201369 0.000873732 2.32331e-19)
(0.0193049 -0.0106808 3.70739e-19)
(-0.00131902 -1.53341e-05 -1.6074e-20)
(0.000551168 -0.00101233 -5.04651e-19)
(-0.00162069 -3.31915e-05 7.51737e-20)
(-0.00161647 -1.44216e-05 -5.88066e-20)
(0.0552746 -0.0205962 5.76157e-19)
(0.0010573 0.00105645 8.54037e-19)
(-0.00909979 -0.00349745 4.33261e-19)
(6.7471e-05 0.00043464 -2.19014e-18)
(-0.00157213 7.6471e-05 3.19121e-20)
(0.0335413 0.0490854 -5.16168e-18)
(-0.0233531 0.00577369 -7.59289e-18)
(0.000178575 0.00054263 -2.28888e-18)
(0.00237289 0.00156219 9.26546e-20)
(0.00340062 0.000513169 -5.49324e-20)
(0.0199649 0.116757 1.13873e-18)
(-0.050248 -0.0232555 1.07648e-17)
(0.000175244 -0.00229996 4.81443e-20)
(0.0159567 0.0900732 5.27258e-18)
(0.000459319 -0.000662957 3.49221e-19)
(0.018173 0.00405304 5.43977e-18)
(0.000331248 0.00111426 6.52574e-18)
(-0.0191681 -0.0508077 -3.50525e-18)
(0.00118336 6.62296e-05 -1.86719e-20)
(-0.000175351 -0.0517643 -4.74921e-18)
(-0.00215147 0.011201 2.24854e-18)
(0.00142091 0.000316375 1.22678e-20)
(0.00348704 0.00147937 -2.25634e-20)
(-0.0725212 0.0173899 -3.25529e-18)
(0.00830064 -0.00237797 2.3189e-19)
(0.0221214 0.0213149 2.96532e-18)
(-0.00132405 -0.000100166 4.31713e-20)
(0.0539779 -0.0122779 1.19034e-18)
(-0.000633668 -3.98894e-05 1.47261e-18)
(-0.00196854 -0.000586845 2.36119e-20)
(-0.00162796 -0.0009308 1.42766e-19)
(0.000184739 0.000999208 -1.54484e-18)
(-0.000104646 0.00319835 1.35714e-17)
(0.0111839 0.0114591 5.99558e-18)
(0.014888 0.0186184 1.97581e-17)
(-0.0105534 0.0237788 -3.61592e-19)
(-0.00444301 -0.00169298 -1.41649e-18)
(0.0018092 -0.00017616 -2.33313e-22)
(-0.068359 0.0412526 -1.42534e-17)
(-0.0252599 0.0420857 -4.6059e-19)
(0.0035392 0.0017347 1.64934e-18)
(0.00339026 0.00491548 9.27169e-18)
(0.0131595 0.112007 8.79154e-19)
(0.0169524 0.0601054 -7.68293e-19)
(-0.0463462 0.0214786 -1.29874e-18)
(-0.00025322 6.31314e-05 1.8327e-18)
(-0.0202591 -0.0519899 -2.80054e-18)
(-0.0654173 -0.0143969 -4.12377e-18)
(-0.100105 0.0137022 1.35221e-17)
(0.00344624 -0.000323393 2.50033e-19)
(0.00402014 0.00205397 4.97251e-20)
(0.00669655 0.0010926 2.23512e-18)
(0.0125738 -0.0062644 1.06467e-19)
(0.035888 0.0213038 -4.94651e-20)
(0.0369378 0.0456162 1.65306e-18)
(0.0468023 -0.0632032 -4.47918e-18)
(0.00218701 -0.000131759 -2.28532e-18)
(0.0492159 -0.059079 4.75267e-18)
(-0.0500122 0.0278458 -4.90015e-18)
(0.00117985 8.45257e-05 1.11699e-20)
(0.013523 -0.00370663 -4.25983e-20)
(0.0112325 0.0120571 8.00211e-18)
(-0.0241186 0.00370595 8.72476e-18)
(0.00244934 0.000704708 -2.49578e-18)
(-8.38451e-06 0.000100945 3.11421e-19)
(-0.000594058 -0.00155904 -3.80914e-20)
(0.000471707 -0.000286245 2.81671e-19)
(0.0189574 0.00683123 1.0149e-18)
(0.00555325 -0.00293372 6.48859e-19)
(0.0390985 0.132976 -1.81102e-18)
(0.000760042 -0.180586 1.74219e-18)
(-0.0020973 -0.0002447 -1.02979e-19)
(-0.0144451 -0.0290499 1.10611e-17)
(-0.0366538 0.00718585 5.15633e-18)
(-0.0103797 0.0162744 -3.51121e-19)
(-0.0251874 -0.0159457 -5.30231e-19)
(0.00553468 0.00714782 4.52772e-18)
(0.00146905 -6.64532e-05 1.61783e-20)
(-0.00284164 -0.00105099 2.64778e-21)
(0.00244026 -0.000999973 -2.64336e-21)
(-0.0746113 0.0412221 9.28154e-19)
(0.00171327 0.00224536 -5.47615e-19)
(0.00858271 0.0188324 1.31178e-17)
(0.0175287 0.0226648 8.15721e-18)
(0.00147454 0.00021009 4.19044e-22)
(0.00110102 -0.00667438 -7.45532e-19)
(0.0375905 0.0474097 -1.8691e-18)
(0.0339865 -0.0247161 1.84689e-18)
(0.016898 0.0142897 -2.05811e-18)
(-0.00119024 0.00378692 -1.77021e-18)
(-0.0484507 0.0273734 -5.54523e-19)
(0.000476337 -0.000681333 -2.15434e-19)
(0.000253744 0.00103948 -2.96862e-18)
(-0.147736 0.365012 -1.5245e-17)
(-0.0440924 0.0170698 -2.65427e-18)
(0.0112848 0.0210116 5.18848e-18)
(0.00458476 0.00751371 -7.88949e-18)
(-0.00587393 0.00482661 -3.73005e-19)
(0.00141965 6.0006e-05 2.48838e-22)
(-4.73816e-05 -0.000259331 -2.49279e-18)
(0.0447836 -0.05677 -5.00027e-18)
(0.00143431 0.000189172 -4.50557e-21)
(0.00237204 0.000604854 3.6851e-18)
(0.00145865 1.72006e-05 -8.7176e-22)
(-0.00120018 -0.000464282 7.29188e-20)
(-0.0510148 0.0274542 1.68673e-17)
(0.0181509 0.00833356 -9.67448e-18)
(0.00201939 -0.00352667 5.57054e-19)
(0.00142952 0.000154869 9.43712e-22)
(-0.042336 0.115779 5.0068e-18)
(0.0205111 0.101236 4.17305e-19)
(-0.00131234 -0.000914491 -2.03934e-19)
(-0.00169757 0.000165891 1.6688e-20)
(0.00159491 0.00285723 -8.85387e-20)
(-0.000230399 7.5174e-05 -1.02586e-19)
(0.0769668 0.0086861 -1.23784e-17)
(0.0563744 -0.0249708 -1.7559e-19)
(0.0580445 0.0143004 -6.7191e-20)
(-0.0974069 0.0159854 -1.10661e-17)
(0.0418047 -0.0629567 -2.32941e-19)
(0.00400065 0.00715657 -5.05341e-18)
(-0.0239706 0.00250069 -6.68696e-18)
(-0.0195607 0.00600246 -4.76276e-18)
(0.00373724 -0.00760811 1.74078e-19)
(0.00552945 0.00625569 2.25567e-18)
(0.00147884 -8.02635e-05 -1.24626e-20)
(0.00359012 0.00676653 -2.85722e-19)
(0.00431453 -0.000705653 -1.3696e-18)
(-0.0757308 0.0302053 1.13478e-17)
(0.0190049 -0.105262 -2.09651e-19)
(0.0088445 0.0183258 -3.77299e-19)
(0.00460184 0.00178296 -4.95742e-18)
(-0.00271175 -0.000822115 9.01849e-21)
(0.00352663 -0.000113296 1.22754e-18)
(-0.00424696 -0.00461774 -2.01379e-21)
(0.0120679 0.00640741 -4.57902e-18)
(0.013115 0.0113487 4.53604e-18)
(-4.52958e-06 0.000398753 -3.72304e-18)
(0.000956246 -0.000815329 2.15503e-19)
(-0.00259215 -0.00020435 1.84182e-21)
(0.00350875 0.00379505 -1.82763e-17)
(0.0228287 0.0108894 -1.61086e-17)
(0.000300436 0.00122256 -4.38846e-18)
(0.000271666 -0.000718338 -1.28683e-18)
(0.00294624 -0.000279547 5.29747e-19)
(0.000593706 0.000998659 2.6608e-18)
(0.0178023 0.00651762 1.30589e-18)
(0.0419886 -0.00341383 -2.4555e-18)
(0.0199444 0.0123868 -7.78456e-18)
(0.00350803 3.98398e-05 5.80369e-19)
(0.0104913 0.0217021 9.23355e-18)
(-0.00267068 -0.000766002 4.03958e-21)
(-0.00373826 -0.0254404 -1.59468e-18)
(-0.00353787 -0.0139954 1.43886e-19)
(-0.082245 0.00528671 6.72887e-18)
(0.00143464 -0.000530737 3.36072e-19)
(-0.00218678 2.36157e-05 6.92449e-21)
(-0.0393488 0.0238686 -1.56104e-17)
(0.00201978 -0.00060169 -5.91982e-20)
(-0.0852897 0.00681051 -1.00896e-17)
(-0.0325978 0.0146016 1.90392e-17)
(-0.0440415 -0.0357135 6.35567e-18)
(-0.048999 0.235042 1.00299e-18)
(-0.00271356 -0.000306372 3.34137e-21)
(-0.0401968 0.0253051 8.1816e-18)
(0.00205367 -0.000348196 3.29044e-22)
(-0.00122256 -0.000571354 2.29871e-19)
(0.00119998 4.79381e-05 8.51537e-21)
(-0.00116446 -0.000519143 -1.14551e-18)
(0.00209077 -0.000489206 -5.54499e-23)
(0.00152686 -0.000971141 1.34407e-19)
(0.00558666 -0.000300911 3.90802e-21)
(0.00140119 0.000137807 1.01497e-20)
(0.00151701 0.0164098 7.23576e-18)
(-0.00521637 0.0112536 -1.83103e-18)
(-0.0124064 0.0294781 -1.06447e-17)
(-0.000969849 -0.00158311 -7.48723e-20)
(0.00123419 8.71706e-06 -1.38607e-22)
(0.000124782 0.000125494 -5.24832e-20)
(0.0285304 0.00618977 1.47601e-17)
(-0.0481166 0.0829738 2.09067e-18)
(0.00636405 0.0129286 -4.08974e-18)
(0.00373926 0.00374373 7.20207e-18)
(0.00207563 -0.000363853 -1.77462e-21)
(-0.00168743 6.50464e-05 -1.90298e-21)
(-0.00206061 -0.000154178 5.31529e-20)
(-0.000437845 -0.00188924 3.13126e-19)
(-0.0170604 0.0271793 -5.13264e-18)
(0.0161758 -0.0894527 -4.12041e-18)
(0.000544418 0.000961141 2.55895e-18)
(0.00139951 0.000109809 3.12968e-21)
(0.00016581 0.00102177 -2.78412e-18)
(-0.000469016 -0.00180112 -3.17361e-19)
(0.0189064 -0.0483696 -1.55811e-18)
(0.00605689 -0.0525968 -2.38584e-17)
(0.00356549 -0.000208354 -2.46902e-18)
(-0.0763577 0.0255011 3.76626e-18)
(0.044907 0.0304839 2.85004e-18)
(0.000235066 -0.000698533 -5.82454e-19)
(0.0152457 0.0179451 1.2679e-18)
(0.126461 0.0375947 -8.58426e-19)
(0.00593042 0.00651995 1.40576e-17)
(0.0532937 -0.122734 -3.67128e-18)
(0.00075714 0.00150662 -8.32705e-19)
(0.00205975 -0.00116002 -1.27239e-20)
(0.00657498 0.0125593 4.13897e-18)
(0.00183673 -0.000972005 -4.4967e-21)
(0.0399335 0.0769918 -6.61717e-19)
(0.000106494 0.000504756 6.51765e-19)
(0.00933072 0.0299868 9.43682e-19)
(0.000734594 -2.09313e-06 -6.12155e-22)
(0.00178201 0.00785342 3.97194e-18)
(-0.025784 0.00818271 -1.5669e-18)
(-0.00388813 -0.00146773 -5.39275e-20)
(0.00182404 -0.000558148 3.19389e-19)
(-0.00379365 0.00608776 -8.8423e-19)
(-0.00197206 -0.000651199 -1.02056e-19)
(0.00335635 0.00160043 -1.09995e-18)
(-0.0264483 -0.0415068 -1.96169e-19)
(0.0065505 0.119053 -2.73776e-19)
(0.0130291 0.0106881 -3.36775e-18)
(0.00356666 0.0229732 6.72935e-18)
(0.0106195 0.0548877 -1.25247e-18)
(0.00142485 1.35689e-05 -9.82355e-22)
(-0.00100877 -0.00149224 1.82035e-19)
(0.0133213 0.0443472 -2.04605e-18)
(0.0159335 0.0228874 -4.67979e-18)
(0.0055544 -0.00574284 2.52685e-19)
(-0.0350136 0.0156467 -1.97783e-17)
(-0.00308695 3.6322e-06 5.89285e-21)
(-0.000100095 2.99055e-05 -1.51776e-18)
(0.00115668 0.000108977 4.91359e-21)
(0.0445433 -0.131868 -5.58744e-18)
(-0.0426495 0.0294036 -2.28531e-18)
(0.0030005 -0.000137143 -3.2012e-18)
(0.00122103 -0.000994444 -1.05724e-19)
(0.0221673 -0.00680784 -3.74659e-19)
(0.00219736 0.00313639 -2.27952e-18)
(0.000192059 0.000134808 1.17894e-19)
(-0.0204434 -0.0223926 1.92366e-17)
(0.0323984 0.0406184 3.6807e-19)
(-0.0475987 0.0113138 -6.34239e-19)
(0.00146526 0.000341865 1.20641e-20)
(0.000512914 0.000974878 1.79701e-19)
(-0.0288846 0.00290866 -1.72107e-18)
(0.00742645 -0.041475 5.28623e-19)
(0.0112935 0.0235032 3.00995e-17)
(-0.00444933 -0.00415798 1.2593e-19)
(-0.0460972 0.0241454 1.2924e-17)
(0.000145233 0.000468628 5.10939e-20)
(0.0253326 -3.48048e-05 2.36062e-19)
(0.0278934 -0.0131925 4.58697e-18)
(0.0135046 -0.00881839 -5.78645e-18)
(0.00311058 0.00086063 -8.81899e-18)
(-0.0481796 -0.0310649 7.60623e-18)
(-0.00811984 -0.00735377 8.92395e-19)
(-0.00900561 -0.00460894 4.28041e-19)
(-0.036911 0.0300254 8.79209e-18)
(-0.00218885 2.07405e-05 5.76085e-21)
(-0.00119005 -1.48689e-05 9.04831e-20)
(0.00197053 -0.000102338 7.00388e-19)
(-0.0027116 -0.000693896 -8.87249e-21)
(-0.0240815 -0.0259214 7.73345e-18)
(0.00468869 -8.80953e-06 9.23388e-19)
(0.0169417 0.0149945 1.9602e-18)
(0.00243364 -0.00327979 -7.1696e-19)
(0.018419 -0.00356116 -2.82526e-19)
(-0.00268248 -0.000901173 7.18901e-22)
(-0.0102062 -0.0529248 1.41423e-18)
(-0.00177374 -9.6121e-05 3.29026e-20)
(-0.00868373 -0.0060824 2.80441e-19)
(0.0011777 3.36944e-05 1.76516e-20)
(0.000140945 -0.000705576 -8.60206e-19)
(-0.000917199 -0.000139109 -5.14608e-19)
(-0.0463497 0.0169133 2.63224e-18)
(-0.000580679 -0.00145492 2.19326e-20)
(0.0011682 0.000303828 1.08566e-20)
(0.032171 -0.00763194 -2.96048e-20)
(0.00023974 0.00109719 4.90566e-19)
(-0.0290025 0.00440745 4.91933e-18)
(0.000497934 1.41385e-05 -5.7471e-23)
(-0.00317091 -0.00390356 -2.73227e-19)
(0.00876696 0.0148131 -1.08489e-17)
(0.0151149 -0.0547928 1.40374e-18)
(0.0240028 0.118814 -5.38709e-19)
(-0.0023115 -0.000176582 -9.95118e-21)
(-0.0186357 -0.0264809 2.10643e-19)
(-0.078642 0.0298319 -7.86574e-18)
(0.00110698 0.00103345 -3.63844e-19)
(-0.0555258 0.0220526 -6.61342e-18)
(0.00183728 0.00763565 -1.02246e-17)
(-0.00267392 -0.00058094 6.15166e-21)
(-0.0304683 -0.0150293 1.78536e-19)
(-0.0122163 -0.02205 -1.53269e-17)
(-0.0184442 -0.0204385 -4.94101e-19)
(0.00312948 0.000442782 -8.22719e-19)
(-0.00209038 -0.000209982 8.37712e-21)
(0.00137088 9.45622e-05 -6.97359e-21)
(-0.017378 -0.0337345 -1.63172e-18)
(0.0137755 -0.0120183 3.23881e-18)
(0.00720705 0.00482294 -3.18016e-19)
(0.003213 -0.000225782 -8.27059e-19)
(-0.0340048 -0.00961551 -2.03056e-19)
(-0.000219007 7.43386e-05 -1.54071e-18)
(-0.00353113 -0.00404278 3.41145e-19)
(0.006334 0.0193816 3.59026e-17)
(0.0015973 0.146506 1.05288e-18)
(0.0195802 0.00519895 -2.13312e-19)
(0.025575 -0.0934316 -1.773e-20)
(0.000491312 0.000931069 -4.6179e-18)
(0.0184118 0.00494485 -3.02924e-18)
(0.0120082 0.0147276 -5.0154e-18)
(-0.022744 0.0165592 -1.84436e-17)
(0.0029073 -0.00022901 2.90714e-19)
(0.0279684 0.00310199 -2.39016e-18)