/*--------------------------------*- C++ -*----------------------------------*\
| =========                 |                                                 |
| \\      /  F ield         | OpenFOAM: The Open Source CFD Toolbox           |
|  \\    /   O peration     | Version:  v2012                                 |
|   \\  /    A nd           | Website:  www.openfoam.com                      |
|    \\/     M anipulation  |                                                 |
\*---------------------------------------------------------------------------*/
FoamFile
{
    version     2.0;
    format      ascii;
    class       pointVectorField;
    location    "150";
    object      pointDisplacement;
}
// * * * * * * * * * * * * * * * * * * * * * * * * * * * * * * * * * * * * * //

dimensions      [0 1 0 0 0 0 0];


internalField   nonuniform List<vector> 
14332
(
(0 0 0)
(-0.0106118 0.078603 0)
(0 0 0)
(-0.0106118 0.078603 0)
(0 0 0)
(0 0 0)
(0 0 0)
(0 0 0)
(0 0 0)
(0 0 0)
(0 0 0)
(0 0 0)
(0 0 0)
(0 0 0)
(0 0 0)
(0 0 0)
(0 0 0)
(0 0 0)
(0 0 0)
(0 0 0)
(0 0 0)
(0 0 0)
(0 0 0)
(0 0 0)
(0 0 0)
(0 0 0)
(0 0 0)
(0 0 0)
(0 0 0)
(0 0 0)
(0 0 0)
(0 0 0)
(0 0 0)
(0 0 0)
(0 0 0)
(0 0 0)
(0 0 0)
(0 0 0)
(0 0 0)
(0 0 0)
(0 0 0)
(0 0 0)
(0 0 0)
(0 0 0)
(0 0 0)
(0 0 0)
(0 0 0)
(0 0 0)
(0 0 0)
(0 0 0)
(0 0 0)
(0 0 0)
(0 0 0)
(0 0 0)
(0 0 0)
(0 0 0)
(0 0 0)
(0 0 0)
(0 0 0)
(0 0 0)
(0 0 0)
(0 0 0)
(0 0 0)
(0 0 0)
(0 0 0)
(0 0 0)
(0 0 0)
(0 0 0)
(0 0 0)
(0 0 0)
(0 0 0)
(0 0 0)
(0 0 0)
(0 0 0)
(0 0 0)
(0 0 0)
(0 0 0)
(0 0 0)
(0 0 0)
(0 0 0)
(0 0 0)
(0 0 0)
(0 0 0)
(0 0 0)
(0 0 0)
(0 0 0)
(0 0 0)
(0 0 0)
(0 0 0)
(0 0 0)
(0 0 0)
(0 0 0)
(0 0 0)
(0 0 0)
(0 0 0)
(0 0 0)
(0 0 0)
(0 0 0)
(0 0 0)
(0 0 0)
(0 0 0)
(0 0 0)
(0 0 0)
(0 0 0)
(0 0 0)
(0 0 0)
(0 0 0)
(0 0 0)
(0 0 0)
(0 0 0)
(0 0 0)
(0 0 0)
(0 0 0)
(0 0 0)
(0 0 0)
(0 0 0)
(0 0 0)
(0 0 0)
(0 0 0)
(0 0 0)
(0 0 0)
(0 0 0)
(0 0 0)
(0 0 0)
(0 0 0)
(0 0 0)
(0 0 0)
(0 0 0)
(0 0 0)
(0 0 0)
(0 0 0)
(0 0 0)
(0 0 0)
(0 0 0)
(0.00709569 0.0787772 0)
(0.00611195 0.0787675 0)
(0.0051282 0.0787578 0)
(0.00414445 0.0787481 0)
(0.00316071 0.0787385 0)
(0.00217696 0.0787288 0)
(0.00119321 0.0787191 0)
(0.000209466 0.0787094 0)
(-0.000774281 0.0786998 0)
(-0.00175803 0.0786901 0)
(-0.00274178 0.0786804 0)
(-0.00372552 0.0786707 0)
(-0.00470927 0.078661 0)
(-0.00569302 0.0786514 0)
(-0.00667676 0.0786417 0)
(-0.00766051 0.078632 0)
(-0.00864426 0.0786223 0)
(-0.009628 0.0786126 0)
(-0.0106021 0.0776192 0)
(-0.0105924 0.0766355 0)
(-0.0105827 0.0756517 0)
(-0.010573 0.074668 0)
(-0.0105634 0.0736842 0)
(-0.0105537 0.0727005 0)
(-0.010544 0.0717167 0)
(-0.0105343 0.070733 0)
(-0.0105246 0.0697492 0)
(-0.010515 0.0687655 0)
(-0.0105053 0.0677818 0)
(-0.0104956 0.066798 0)
(-0.0104859 0.0658143 0)
(-0.0104763 0.0648305 0)
(-0.0104666 0.0638468 0)
(-0.0104569 0.062863 0)
(-0.0104472 0.0618793 0)
(-0.0104375 0.0608955 0)
(-0.0104279 0.0599118 0)
(-0.0104182 0.058928 0)
(-0.0104085 0.0579443 0)
(-0.0103988 0.0569605 0)
(-0.0103891 0.0559768 0)
(-0.0103795 0.054993 0)
(-0.0103698 0.0540093 0)
(-0.0103601 0.0530255 0)
(-0.0103504 0.0520418 0)
(0 0 0)
(0 0 0)
(0 0 0)
(0 0 0)
(0 0 0)
(0 0 0)
(0 0 0)
(0 0 0)
(0 0 0)
(0 0 0)
(0 0 0)
(0 0 0)
(0 0 0)
(0 0 0)
(0 0 0)
(0 0 0)
(0 0 0)
(0 0 0)
(0 0 0)
(0 0 0)
(0 0 0)
(0 0 0)
(0 0 0)
(0 0 0)
(0 0 0)
(0 0 0)
(0 0 0)
(0 0 0)
(0 0 0)
(0 0 0)
(0 0 0)
(0 0 0)
(0 0 0)
(0 0 0)
(0 0 0)
(0 0 0)
(0 0 0)
(0 0 0)
(0 0 0)
(0 0 0)
(0 0 0)
(0 0 0)
(0 0 0)
(0 0 0)
(0 0 0)
(0 0 0)
(0 0 0)
(0 0 0)
(0 0 0)
(0 0 0)
(0 0 0)
(0 0 0)
(0 0 0)
(0 0 0)
(0 0 0)
(0 0 0)
(0 0 0)
(0 0 0)
(0 0 0)
(0 0 0)
(0 0 0)
(0 0 0)
(0 0 0)
(0 0 0)
(0 0 0)
(0 0 0)
(0 0 0)
(0 0 0)
(0 0 0)
(0 0 0)
(0 0 0)
(0 0 0)
(0 0 0)
(0 0 0)
(0 0 0)
(0 0 0)
(0 0 0)
(0 0 0)
(0 0 0)
(0 0 0)
(0 0 0)
(0 0 0)
(0 0 0)
(0 0 0)
(0 0 0)
(0 0 0)
(0 0 0)
(0 0 0)
(0 0 0)
(0 0 0)
(0 0 0)
(0 0 0)
(0 0 0)
(0 0 0)
(0 0 0)
(0 0 0)
(0 0 0)
(0 0 0)
(0 0 0)
(0 0 0)
(0 0 0)
(0 0 0)
(0 0 0)
(0 0 0)
(0 0 0)
(0 0 0)
(0 0 0)
(0 0 0)
(0 0 0)
(0 0 0)
(0 0 0)
(0 0 0)
(0 0 0)
(0 0 0)
(0 0 0)
(0 0 0)
(0 0 0)
(0 0 0)
(0 0 0)
(0 0 0)
(0 0 0)
(0 0 0)
(0 0 0)
(0 0 0)
(0 0 0)
(0 0 0)
(0 0 0)
(0 0 0)
(0 0 0)
(0 0 0)
(0.00709569 0.0787772 0)
(0.00611195 0.0787675 0)
(0.0051282 0.0787578 0)
(0.00414445 0.0787481 0)
(0.00316071 0.0787385 0)
(0.00217696 0.0787288 0)
(0.00119321 0.0787191 0)
(0.000209466 0.0787094 0)
(-0.000774281 0.0786998 0)
(-0.00175803 0.0786901 0)
(-0.00274178 0.0786804 0)
(-0.00372552 0.0786707 0)
(-0.00470927 0.078661 0)
(-0.00569302 0.0786514 0)
(-0.00667676 0.0786417 0)
(-0.00766051 0.078632 0)
(-0.00864426 0.0786223 0)
(-0.009628 0.0786126 0)
(-0.0106021 0.0776192 0)
(-0.0105924 0.0766355 0)
(-0.0105827 0.0756517 0)
(-0.010573 0.074668 0)
(-0.0105634 0.0736842 0)
(-0.0105537 0.0727005 0)
(-0.010544 0.0717167 0)
(-0.0105343 0.070733 0)
(-0.0105246 0.0697492 0)
(-0.010515 0.0687655 0)
(-0.0105053 0.0677818 0)
(-0.0104956 0.066798 0)
(-0.0104859 0.0658143 0)
(-0.0104763 0.0648305 0)
(-0.0104666 0.0638468 0)
(-0.0104569 0.062863 0)
(-0.0104472 0.0618793 0)
(-0.0104375 0.0608955 0)
(-0.0104279 0.0599118 0)
(-0.0104182 0.058928 0)
(-0.0104085 0.0579443 0)
(-0.0103988 0.0569605 0)
(-0.0103891 0.0559768 0)
(-0.0103795 0.054993 0)
(-0.0103698 0.0540093 0)
(-0.0103601 0.0530255 0)
(-0.0103504 0.0520418 0)
(-0.0012996 0.0786986 0)
(-9.45789e-05 0.00200224 0)
(-0.01053 0.0702878 0)
(-0.0103556 0.0526034 0)
(-0.010446 0.0615428 0)
(-0.000141859 0.00223027 0)
(0.00645909 0.0787434 0)
(-5.60897e-05 0.00164906 0)
(-2.03058e-05 0.0010255 0)
(-1.15845e-06 0.000425037 0)
(-0.000266973 0.00310551 0)
(-1.08016e-05 0.000723022 0)
(-3.08618e-05 0.00119901 0)
(-0.00807811 0.0786206 0)
(-0.000303816 0.00262671 0)
(-2.06936e-06 0.00046869 0)
(-0.000395614 0.00237757 0)
(-5.76638e-06 0.000481854 0)
(-0.000496012 0.00175289 0)
(-0.010582 0.076137 0)
(-2.3565e-06 0.000411391 0)
(-4.54357e-06 0.000445588 0)
(-1.83601e-06 0.000276881 0)
(-2.48216e-06 0.000272945 0)
(-1.61415e-06 0.000220398 0)
(-7.46879e-05 0.0018653 0)
(-1.33907e-05 0.000778799 0)
(0.00258833 0.0787401 0)
(-0.0104922 0.066307 0)
(-0.0104044 0.057474 0)
(-1.58168e-06 0.000186555 0)
(-9.54773e-07 0.000124642 0)
(-0.000271743 0.00274798 0)
(-0.000239947 0.00317912 0)
(-0.000339947 0.00249805 0)
(-0.000481316 0.00232727 0)
(-0.000125519 0.00225098 0)
(-4.99902e-05 0.00165396 0)
(-2.44504e-05 0.00106208 0)
(-5.86867e-06 0.000534806 0)
(-9.30211e-06 0.000707316 0)
(-1.46232e-06 0.000418144 0)
(-1.78536e-06 0.000351593 0)
(-1.16812e-06 0.000142888 0)
(-0.00418686 0.078664 0)
(-0.0105574 0.0731521 0)
(-6.00947e-07 7.51522e-05 0)
(-5.63217e-07 7.19221e-05 0)
(-0.000569771 0.00127804 0)
(-0.000177075 0.00256519 0)
(-0.000114694 0.00223793 0)
(-8.55903e-05 0.00196819 0)
(-6.0542e-05 0.00163767 0)
(-4.04968e-05 0.0014493 0)
(-8.97244e-06 0.0006402 0)
(-1.38381e-05 0.000864888 0)
(-2.38989e-05 0.00112437 0)
(-1.98933e-06 0.000227511 0)
(-1.54839e-05 0.000841824 0)
(-1.49797e-06 0.000379431 0)
(-1.53044e-06 0.000251362 0)
(-1.58548e-06 0.000224101 0)
(-1.36878e-06 0.000182597 0)
(-3.27041e-06 0.000337487 0)
(-2.85387e-07 3.61533e-05 0)
(5.92282e-05 0.0641116 0)
(-0.000119659 0.0637509 0)
(-0.000178569 0.0643623 0)
(-0.000356071 0.0639659 0)
(-0.000431228 0.0645646 0)
(-0.000599506 0.0641305 0)
(-0.000691192 0.0647115 0)
(-0.00084935 0.0642439 0)
(-0.000955245 0.0648104 0)
(-0.00110301 0.0643036 0)
(-0.00122137 0.0648499 0)
(-0.00135801 0.064307 0)
(-0.00148683 0.0648324 0)
(-0.00161545 0.0642541 0)
(-0.00175345 0.0647608 0)
(-0.00187437 0.0641493 0)
(-0.00202346 0.0646255 0)
(-0.00212671 0.0640071 0)
(-0.0022889 0.0644181 0)
(-0.00236778 0.0637819 0)
(-0.00254651 0.0641469 0)
(-0.00260192 0.0634395 0)
(-0.00279394 0.0638075 0)
(-0.00283454 0.0630456 0)
(-0.00303302 0.0633926 0)
(-0.00305925 0.0626183 0)
(-0.0032557 0.0628922 0)
(-0.00327165 0.0621245 0)
(-0.00346867 0.0623775 0)
(-0.00347605 0.0615862 0)
(-0.00368284 0.0618192 0)
(-0.00367149 0.0609979 0)
(-0.00388045 0.0611522 0)
(-0.00385047 0.0603212 0)
(-0.00405733 0.0604042 0)
(-0.00365234 0.0601766 0)
(-0.0038164 0.0594795 0)
(-0.00362596 0.0593392 0)
(-4.56824e-05 0.0178499 0)
(-4.13439e-05 0.0172703 0)
(-0.00378196 0.0586227 0)
(-0.0035946 0.0584888 0)
(-5.13811e-05 0.0174193 0)
(-4.70676e-05 0.016866 0)
(-0.00374405 0.057752 0)
(-0.00355881 0.0576219 0)
(-5.67761e-05 0.0170118 0)
(-5.23315e-05 0.0164562 0)
(-6.20921e-05 0.0166072 0)
(-5.70277e-05 0.0160465 0)
(-0.00370119 0.0568671 0)
(-0.00351956 0.0567395 0)
(-6.63297e-05 0.0161742 0)
(-6.10942e-05 0.0156307 0)
(-0.00365584 0.0559661 0)
(-0.00347775 0.0558429 0)
(-6.97733e-05 0.0157294 0)
(-6.44642e-05 0.0152032 0)
(-5.62544e-05 0.0150983 0)
(-0.00360632 0.0550477 0)
(-0.00343241 0.0549216 0)
(-0.00377895 0.0552011 0)
(-7.26171e-05 0.0152784 0)
(-6.71976e-05 0.0147676 0)
(-0.00355516 0.0540984 0)
(-0.00338329 0.0539781 0)
(-7.49039e-05 0.0148268 0)
(-8.08936e-05 0.0153075 0)
(-6.93661e-05 0.0143263 0)
(-0.00134727 0.0653897 0)
(-0.00409805 0.0612495 0)
(-0.00427315 0.0604503 0)
(-0.00432015 0.0612996 0)
(-0.00448787 0.0605121 0)
(-0.00454678 0.0612948 0)
(-0.00470195 0.0604731 0)
(-0.0047776 0.0612121 0)
(-0.00492369 0.0603009 0)
(-0.00500839 0.0610611 0)
(-0.00514696 0.0600911 0)
(-0.00523829 0.0608411 0)
(-0.00536639 0.0598105 0)
(-0.00546548 0.0605678 0)
(-0.00558216 0.0594593 0)
(-0.00568948 0.0602061 0)
(-0.00579423 0.0590441 0)
(-0.00590898 0.0597455 0)
(-0.00600121 0.0585622 0)
(-0.00612402 0.0592197 0)
(-0.00620314 0.0579871 0)
(-0.00633224 0.0585994 0)
(-0.00639909 0.0573058 0)
(-0.00653467 0.0578718 0)
(-0.00659068 0.0565093 0)
(-0.00645316 0.0559648 0)
(-0.00663827 0.0550741 0)
(-0.00677674 0.0556183 0)
(-0.00681296 0.0541327 0)
(-0.00695118 0.0546161 0)
(-0.00696911 0.0531182 0)
(-0.00711494 0.0534812 0)
(-0.00711895 0.0519824 0)
(-0.00727467 0.0522122 0)
(-0.00725721 0.0506912 0)
(-0.00742078 0.0507846 0)
(-0.00739567 0.0492288 0)
(-0.0075492 0.0492601 0)
(-0.00753499 0.04773 0)
(-0.00767326 0.0476929 0)
(-0.00765251 0.0461127 0)
(-0.00779164 0.0459502 0)
(-0.00775628 0.0443034 0)
(-0.0078948 0.0440048 0)
(-0.00785082 0.0423201 0)
(-0.00798537 0.0419152 0)
(-0.00793572 0.0402263 0)
(-0.00806915 0.0397049 0)
(-0.00801203 0.0380243 0)
(-0.00814437 0.0373849 0)
(-0.00807948 0.0357246 0)
(-0.00820793 0.0349619 0)
(-0.0081368 0.0333477 0)
(-0.00826039 0.0324843 0)
(-0.00818444 0.0309247 0)
(-0.00650173 0.054543 0)
(-0.00740648 0.047532 0)
(-0.00794912 0.0363164 0)
(-0.00531763 0.0616434 0)
(-7.65943e-05 0.0143691 0)
(-7.09833e-05 0.0138788 0)
(-0.00349647 0.0531313 0)
(-0.00333023 0.0530175 0)
(-0.00827207 0.0365876 0)
(-7.7759e-05 0.0139038 0)
(-7.2112e-05 0.0134245 0)
(-0.00343107 0.0521517 0)
(-0.00327346 0.0520387 0)
(-7.83811e-05 0.0134306 0)
(-7.27854e-05 0.012965 0)
(-6.6771e-05 0.0129481 0)
(-0.003366 0.0511521 0)
(-0.00321311 0.0510412 0)
(-7.84531e-05 0.0129496 0)
(-7.29719e-05 0.0125012 0)
(-0.00782343 0.0478652 0)
(-0.00330008 0.0501433 0)
(-0.00315046 0.0500226 0)
(-0.0034432 0.0501861 0)
(-0.00646456 0.0591944 0)
(-7.80105e-05 0.012465 0)
(-8.33046e-05 0.0128676 0)
(-7.2727e-05 0.0120357 0)
(-0.00323139 0.0491122 0)
(-0.00308423 0.0489901 0)
(-7.73025e-05 0.0119868 0)
(-7.21262e-05 0.0115699 0)
(-7.63264e-05 0.0115108 0)
(-7.11969e-05 0.0111041 0)
(-0.00315946 0.0480658 0)
(-0.00301431 0.0479479 0)
(-7.51196e-05 0.0110391 0)
(-6.99731e-05 0.0106393 0)
(-6.61871e-05 0.010693 0)
(-0.00308289 0.0470042 0)
(-0.00294232 0.0468812 0)
(-6.51011e-05 0.0102424 0)
(-6.1566e-05 0.0102923 0)
(-6.84223e-05 0.0101753 0)
(-0.00300347 0.0459268 0)
(-0.00286959 0.0458081 0)
(-0.00280523 0.046675 0)
(-0.00273844 0.0456387 0)
(-0.00267176 0.0464659 0)
(-0.00260925 0.045443 0)
(-0.00254084 0.0462705 0)
(-0.00248241 0.045209 0)
(-0.00254514 0.044348 0)
(-0.00242117 0.0441127 0)
(-0.0023591 0.0449133 0)
(-0.00230191 0.0438533 0)
(-6.36958e-05 0.00978993 0)
(-6.66157e-05 0.00971539 0)
(-0.00235651 0.0429888 0)
(-0.00224198 0.0427357 0)
(-0.00218692 0.0435788 0)
(-0.00213126 0.0424546 0)
(-0.00200906 0.0635648 0)
(-6.21568e-05 0.00935538 0)
(-6.46415e-05 0.00926042 0)
(-0.00207486 0.0432652 0)
(-0.00202356 0.0421395 0)
(-0.00207286 0.0413048 0)
(-0.00196913 0.0409963 0)
(-0.00191884 0.0418063 0)
(-0.00186891 0.0406605 0)
(-0.00181722 0.0414398 0)
(-0.00177194 0.0402944 0)
(-0.00172013 0.0410379 0)
(-0.00167815 0.0399014 0)
(-0.001627 0.0406127 0)
(-0.00158765 0.039486 0)
(-0.00163343 0.0387481 0)
(-0.00154557 0.0383443 0)
(-0.00322149 0.0538148 0)
(-5.98513e-05 0.00888336 0)
(-6.25584e-05 0.00880597 0)
(-0.00150044 0.0390542 0)
(-0.0014611 0.037924 0)
(-0.00150084 0.037184 0)
(-0.0014196 0.0367756 0)
(-0.00137997 0.0374864 0)
(-0.00134169 0.0363483 0)
(-0.00130223 0.0370306 0)
(-0.00126685 0.0359046 0)
(-5.82285e-05 0.00844344 0)
(-6.03142e-05 0.00835747 0)
(-6.48755e-05 0.00873796 0)
(-0.00130103 0.0351944 0)
(-0.00122922 0.0347655 0)
(-0.00119487 0.0354493 0)
(-0.00116031 0.0343238 0)
(-0.00112575 0.0349802 0)
(-0.0010941 0.0338646 0)
(-0.00105965 0.0344943 0)
(-0.00103056 0.0333895 0)
(-0.000996655 0.0339926 0)
(-0.000969804 0.0329021 0)
(-0.000999749 0.0322723 0)
(-0.000940912 0.0317995 0)
(-0.000911839 0.0324069 0)
(-0.000885016 0.031321 0)
(-5.60208e-05 0.00800665 0)
(-5.42506e-05 0.00811954 0)
(-5.7839e-05 0.00790949 0)
(-0.000910106 0.0306835 0)
(-0.000856602 0.0302222 0)
(-0.000831858 0.0308354 0)
(-0.000805731 0.0297527 0)
(-0.000781235 0.030339 0)
(-0.000757344 0.0292737 0)
(-0.000732729 0.0298511 0)
(-0.000711196 0.0287897 0)
(-0.000731977 0.0282016 0)
(-0.000687881 0.0277359 0)
(-0.000667353 0.0282979 0)
(-0.000646026 0.0272656 0)
(-0.000625697 0.0277958 0)
(-0.000606287 0.0267897 0)
(-0.000622962 0.0262278 0)
(-0.000585263 0.0257764 0)
(-0.000568582 0.0263106 0)
(-0.000549503 0.0253203 0)
(-0.000532784 0.0258209 0)
(-0.000515532 0.0248564 0)
(-5.37147e-05 0.00756913 0)
(-5.52781e-05 0.00746708 0)
(-0.000529421 0.0243247 0)
(-0.000497229 0.0238869 0)
(-0.000483295 0.0243906 0)
(-0.000466524 0.0234438 0)
(-0.000452788 0.0239249 0)
(-0.000437448 0.0229975 0)
(-0.00042392 0.0234572 0)
(-0.000409905 0.0225501 0)
(-0.000421258 0.0220663 0)
(-0.000395068 0.0216397 0)
(-0.000383847 0.0221013 0)
(-0.000370261 0.0212096 0)
(-0.000359278 0.0216471 0)
(-0.000346801 0.0207753 0)
(-0.000355952 0.0203194 0)
(-0.000333591 0.0199058 0)
(-0.00246829 0.0648078 0)
(0.0013477 0.0749707 0)
(0.00124406 0.0746365 0)
(0.000805203 0.0748995 0)
(0.000750827 0.0745588 0)
(0.000271239 0.0747827 0)
(0.000269968 0.0743973 0)
(-0.000254484 0.0746268 0)
(-0.000242573 0.0742753 0)
(-0.000744953 0.074451 0)
(-0.000679619 0.0740953 0)
(-0.00119366 0.0742445 0)
(-0.00129287 0.0745928 0)
(-0.00171738 0.0743633 0)
(-0.00185624 0.0746994 0)
(-0.00225816 0.0744188 0)
(-0.00244684 0.0747607 0)
(-0.00280762 0.0744288 0)
(-0.00304903 0.0747496 0)
(-0.00334644 0.0743901 0)
(-0.00362467 0.074675 0)
(-0.00387341 0.0742788 0)
(-0.00417384 0.0745539 0)
(-0.00438041 0.0741174 0)
(-0.00469433 0.0743766 0)
(-0.00409335 0.073845 0)
(-0.000195711 0.073919 0)
(-0.00485021 0.0739016 0)
(-0.00517543 0.0741359 0)
(-5.15188e-05 0.00714688 0)
(-5.26466e-05 0.00703037 0)
(-0.00111819 0.0738936 0)
(-0.00166281 0.0417256 0)
(-0.000341027 0.0194303 0)
(-0.00031978 0.0190376 0)
(-0.00314304 0.0459953 0)
(-0.000336113 0.0211893 0)
(-0.00528117 0.073637 0)
(-0.00561128 0.0738306 0)
(-0.00125831 0.0340243 0)
(-0.00201175 0.0401343 0)
(-4.90989e-05 0.00673096 0)
(-4.99493e-05 0.00659762 0)
(-5.37036e-05 0.00691732 0)
(-0.00305411 0.0449024 0)
(-0.00319217 0.0449183 0)
(-0.00309416 0.0438119 0)
(-0.00322954 0.0437858 0)
(-0.00312352 0.0426578 0)
(-0.00325691 0.0425928 0)
(-0.00314197 0.0414404 0)
(-0.00327185 0.0413239 0)
(-0.00314773 0.0401556 0)
(-0.00327218 0.0399853 0)
(0.00151095 0.0752946 0)
(-0.0056694 0.0733008 0)
(-0.0060051 0.0734502 0)
(-0.00032559 0.0185426 0)
(-0.000305497 0.0181712 0)
(-0.00547412 0.0587125 0)
(-0.00102129 0.035073 0)
(-0.00313906 0.0387951 0)
(-0.00325913 0.0385891 0)
(-0.0033996 0.0397637 0)
(-0.00337991 0.0383288 0)
(-0.00352648 0.0394676 0)
(-0.00349968 0.0379976 0)
(-0.00365214 0.0391031 0)
(-0.00361865 0.0375999 0)
(-0.00377677 0.0386709 0)
(-0.00373581 0.0371358 0)
(-0.00389958 0.038161 0)
(-0.0038488 0.0366026 0)
(-0.00401868 0.0375773 0)
(-0.00395777 0.0359941 0)
(-0.00413393 0.0369227 0)
(-0.00406486 0.0353024 0)
(-0.00424507 0.0361856 0)
(-0.00416754 0.0345318 0)
(-0.00435159 0.0353709 0)
(-0.0042649 0.0336963 0)
(-0.00445297 0.0344797 0)
(-0.0043568 0.0327835 0)
(-0.00454832 0.0335054 0)
(-0.00444264 0.0317927 0)
(-0.00463689 0.0324414 0)
(-4.6374e-05 0.00630463 0)
(-4.56616e-05 0.00645815 0)
(-4.70604e-05 0.00616664 0)
(-0.00452245 0.0307223 0)
(-0.00471913 0.0312869 0)
(-0.00601822 0.0728814 0)
(-0.0063579 0.0729846 0)
(-0.00566296 0.0727874 0)
(-0.00459528 0.0295739 0)
(-0.00479432 0.030046 0)
(-0.000309759 0.0176581 0)
(-0.000290865 0.0173092 0)
(-0.00028646 0.0177976 0)
(-0.00027297 0.0169564 0)
(-0.00466097 0.0283552 0)
(-0.00486181 0.028719 0)
(-4.3659e-05 0.00588583 0)
(-4.40718e-05 0.00574319 0)
(-0.00311772 0.0373794 0)
(-0.00633809 0.0723937 0)
(-0.00666582 0.0724387 0)
(-0.00471803 0.0270506 0)
(-0.00492101 0.0273037 0)
(-0.00491135 0.0317483 0)
(-0.000268495 0.017421 0)
(-0.00025604 0.0165988 0)
(-0.000259228 0.0161201 0)
(-0.000243259 0.0157826 0)
(-0.00476701 0.0256571 0)
(-0.00497148 0.0258208 0)
(-0.00335246 0.0750343 0)
(-0.00442249 0.0370071 0)
(-0.000245309 0.0152903 0)
(-0.000230395 0.0149778 0)
(-0.00480903 0.024195 0)
(-0.00501351 0.0242833 0)
(-0.00517245 0.0259127 0)
(-0.00521534 0.024297 0)
(-0.00504778 0.0226906 0)
(-0.00525337 0.0226273 0)
(-0.00507429 0.0210413 0)
(-0.00527985 0.0208693 0)
(-0.00509108 0.0193379 0)
(-0.0052959 0.0190383 0)
(-0.00662279 0.0718329 0)
(-0.00693206 0.0718257 0)
(-0.00698244 0.0724253 0)
(-0.00724008 0.0717702 0)
(-0.00716157 0.0711511 0)
(-0.00745211 0.0710301 0)
(-0.00755862 0.0716579 0)
(-0.00774229 0.0708417 0)
(-0.00762709 0.0702149 0)
(-0.00788994 0.0699285 0)
(-0.00801912 0.0705525 0)
(-0.00813705 0.0695798 0)
(-0.0082714 0.0701662 0)
(-0.00836779 0.0691681 0)
(-0.00850691 0.0697124 0)
(-0.00858015 0.0686894 0)
(-0.00871767 0.0691418 0)
(-0.00877299 0.0681025 0)
(-0.00890708 0.0685064 0)
(-0.00894905 0.067397 0)
(-0.00908568 0.0677986 0)
(-0.00910819 0.0665694 0)
(-0.00924438 0.0668653 0)
(-0.00925044 0.0656056 0)
(-0.00938183 0.0657627 0)
(-0.00937587 0.0645167 0)
(-0.00950106 0.0645777 0)
(-0.00948537 0.0632863 0)
(-0.00960408 0.0632929 0)
(-0.00958413 0.061938 0)
(-0.00969285 0.061881 0)
(-0.00967092 0.0604954 0)
(-0.00976856 0.0603501 0)
(-0.00974314 0.0589519 0)
(-0.00983202 0.0587382 0)
(-0.00980397 0.0573359 0)
(-0.00988456 0.057061 0)
(-0.00985513 0.0556533 0)
(-0.00992836 0.0552844 0)
(-0.00989619 0.0538699 0)
(-0.0099609 0.0534253 0)
(-0.00992838 0.052069 0)
(-0.00998487 0.0515686 0)
(-0.00995228 0.0502528 0)
(-0.0100038 0.0496779 0)
(-0.0099705 0.0483442 0)
(-0.00991403 0.048906 0)
(-0.00972028 0.0575821 0)
(-0.00925256 0.0643849 0)
(-0.00864976 0.0676441 0)
(-0.00777841 0.069282 0)
(-0.0100503 0.0490779 0)
(-0.00996018 0.0567518 0)
(-0.00509819 0.0175764 0)
(-0.00529886 0.0171352 0)
(-0.00548869 0.0205951 0)
(-0.00356839 0.0360514 0)
(-4.09473e-05 0.00547975 0)
(-4.11771e-05 0.00533604 0)
(-0.00509518 0.015756 0)
(-0.00529106 0.0151948 0)
(-0.000239969 0.0162283 0)
(-6.77638e-05 0.0172285 0)
(-0.00508268 0.0138973 0)
(-0.00527752 0.0132316 0)
(-0.00971703 0.0632504 0)
(-0.000231304 0.014469 0)
(-0.000217471 0.0141807 0)
(-3.825e-05 0.00508412 0)
(-3.83096e-05 0.00493901 0)
(-4.1113e-05 0.00516599 0)
(-0.00397528 0.0336542 0)
(-0.00868658 0.0701566 0)
(-0.00552661 0.0743479 0)
(-3.55678e-05 0.00469914 0)
(-3.54891e-05 0.00482527 0)
(-0.000217287 0.0136561 0)
(-0.000204497 0.0133903 0)
(-3.5446e-05 0.00455042 0)
(-0.00432067 0.0300685 0)
(-0.000991361 0.0637542 0)
(-0.000203337 0.0128529 0)
(-0.000191599 0.0126104 0)
(-0.000215665 0.0130913 0)
(-0.000192358 0.013121 0)
(-0.000180431 0.0123631 0)
(-0.000180847 0.0128478 0)
(-0.000169804 0.0121107 0)
(-3.29076e-05 0.00432489 0)
(-3.26333e-05 0.00417527 0)
(-0.000169931 0.0125708 0)
(-0.000159707 0.011854 0)
(-0.000158823 0.0113838 0)
(-0.000149538 0.0111482 0)
(-0.00300502 0.0375774 0)
(-0.00297427 0.0361349 0)
(-0.00286658 0.0363387 0)
(-0.00282795 0.0348569 0)
(-0.00272538 0.035048 0)
(-0.00268029 0.0335221 0)
(-0.00258548 0.0336908 0)
(-0.00455651 0.025453 0)
(-0.00337858 0.0574902 0)
(-0.00726806 0.0537461 0)
(-0.00253543 0.0321385 0)
(-0.00244618 0.0323011 0)
(-0.000147965 0.0106682 0)
(-0.000139486 0.010454 0)
(-0.000140718 0.010909 0)
(-0.000131412 0.0102356 0)
(-0.00489506 0.0179026 0)
(-3.02864e-05 0.00396308 0)
(-2.9896e-05 0.00381367 0)
(-0.00012958 0.00977205 0)
(-0.000122225 0.00957426 0)
(-0.000329719 0.0180041 0)
(-0.00239138 0.0307297 0)
(-0.00230641 0.0308936 0)
(-0.00247135 0.0305663 0)
(-0.000200756 0.012275 0)
(-0.000212539 0.0124837 0)
(-0.000132342 0.0106673 0)
(-2.77275e-05 0.00361315 0)
(-2.72395e-05 0.00346621 0)
(-2.91502e-05 0.00363539 0)
(-0.000119853 0.00910286 0)
(-0.000113188 0.00892503 0)
(-0.00224547 0.0292824 0)
(-0.00216606 0.0294551 0)
(-0.00022639 0.0650075 0)
(-0.000196681 0.011655 0)
(-0.000207809 0.0118317 0)
(-2.52261e-05 0.00327647 0)
(-2.56439e-05 0.00341386 0)
(-2.46078e-05 0.00312413 0)
(-0.000110329 0.00844666 0)
(-0.000104338 0.00828846 0)
(-9.74239e-05 0.0521727 0)
(-0.000192952 0.0516829 0)
(-0.000224728 0.0524323 0)
(-0.000319343 0.051916 0)
(-0.000352089 0.0526537 0)
(-0.000447549 0.0521146 0)
(-0.000487972 0.0529347 0)
(-0.000580563 0.0522726 0)
(-0.000640584 0.0530067 0)
(-0.000714887 0.0523566 0)
(-0.000781225 0.0530655 0)
(-0.000851042 0.0523987 0)
(-0.000785341 0.0516246 0)
(-0.000923695 0.053083 0)
(-0.00098727 0.0523944 0)
(-0.00106757 0.0530535 0)
(-0.00112335 0.0523184 0)
(-0.00121092 0.0529714 0)
(-0.00115404 0.0537296 0)
(-0.00125971 0.0521955 0)
(-0.0013022 0.0536289 0)
(-0.00124664 0.0543925 0)
(-0.00139946 0.0542689 0)
(-0.00134424 0.0550373 0)
(-0.00209918 0.0277987 0)
(-0.0020262 0.0279822 0)
(-0.00460713 0.0620814 0)
(-0.00939346 0.066921 0)
(-0.00393409 0.0396644 0)
(-2.25034e-05 0.00291943 0)
(-2.20533e-05 0.00279561 0)
(-0.000191065 0.0109929 0)
(-0.000201402 0.0111367 0)
(-0.000101051 0.00780476 0)
(-9.57214e-05 0.00766624 0)
(-9.86093e-05 0.008125 0)
(-9.05966e-05 0.0075211 0)
(-0.000106592 0.00793677 0)
(-9.31282e-05 0.00795582 0)
(-8.56757e-05 0.00736979 0)
(-8.27978e-05 0.00693137 0)
(-7.84169e-05 0.00679811 0)
(-0.00306798 0.0508542 0)
(-8.78956e-05 0.00778143 0)
(-0.00917739 0.0408458 0)
(-0.00907809 0.0412662 0)
(-0.00911522 0.0430871 0)
(-0.00150172 0.054891 0)
(-0.00144753 0.0556642 0)
(-0.000436883 0.0243497 0)
(-0.000754156 0.0309096 0)
(-8.02179e-05 0.0114285 0)
(-4.2723e-05 0.0162938 0)
(-0.000508803 0.0233286 0)
(-0.00154685 0.0541022 0)
(-8.04788e-05 0.0305772 0)
(-6.55426e-05 0.0250753 0)
(-5.84986e-05 0.0225249 0)
(-0.000877662 0.0295572 0)
(-0.0053714 0.0259375 0)
(-0.00195287 0.0262876 0)
(-0.00188744 0.0264785 0)
(-0.00195256 0.0281248 0)
(-0.00182155 0.0266297 0)
(-0.00187973 0.0282305 0)
(-0.00175506 0.0267439 0)
(-0.00180735 0.0282962 0)
(-0.00168806 0.0268118 0)
(-0.0017352 0.0283206 0)
(-0.00162109 0.0268372 0)
(-0.00156905 0.0252911 0)
(-0.00150723 0.0253255 0)
(-0.00155497 0.0268428 0)
(-0.00144673 0.025343 0)
(-0.00201744 0.0260548 0)
(-0.00482039 0.0595365 0)
(-0.00175143 0.0249454 0)
(-0.00116764 0.0515598 0)
(-0.00130194 0.0513912 0)
(-0.00120664 0.0507546 0)
(-0.00133885 0.0505512 0)
(-0.00124255 0.0499123 0)
(-1.60974e-05 0.00609318 0)
(-1.77031e-05 0.00652678 0)
(-1.81422e-05 0.00621748 0)
(-1.64576e-05 0.00578715 0)
(-1.83981e-05 0.00590349 0)
(-2.02461e-05 0.00633126 0)
(-2.03836e-05 0.00600916 0)
(-1.84736e-05 0.00558503 0)
(-2.03392e-05 0.00568319 0)
(-2.23917e-05 0.00643314 0)
(-1.83726e-05 0.00526202 0)
(-2.01208e-05 0.00535363 0)
(-1.81055e-05 0.00493512 0)
(-1.97389e-05 0.00502119 0)
(-2.18819e-05 0.00543415 0)
(-2.1376e-05 0.00509623 0)
(-1.64879e-05 0.00483868 0)
(-2.36414e-05 0.00550281 0)
(-2.30036e-05 0.00515962 0)
(-2.02878e-05 0.00261512 0)
(-2.07224e-05 0.00475728 0)
(-2.22241e-05 0.00481617 0)
(-1.96582e-05 0.00248821 0)
(-2.1104e-05 0.00262853 0)
(-0.00139359 0.0237842 0)
(-0.0013394 0.0238209 0)
(-0.00138728 0.0253328 0)
(-0.00128596 0.0238305 0)
(-0.00696386 0.0515659 0)
(-0.00486225 0.0126664 0)
(-0.00771397 0.0427662 0)
(-0.00812043 0.0295846 0)
(-0.00261951 0.0626139 0)
(-0.00901095 0.0434046 0)
(-0.00904481 0.0452124 0)
(-7.52391e-05 0.00635643 0)
(-7.13837e-05 0.00624136 0)
(-0.00027517 0.0633435 0)
(-0.00018382 0.0102874 0)
(-0.000193331 0.0104026 0)
(-0.00915057 0.0449267 0)
(-0.00907641 0.0470033 0)
(-0.00896566 0.0472341 0)
(-0.00899302 0.0489659 0)
(-0.00887736 0.0491401 0)
(-0.00889887 0.0508863 0)
(-0.00877841 0.0509099 0)
(-0.00879007 0.0527144 0)
(-0.00866759 0.0525223 0)
(-0.00867054 0.0543456 0)
(-0.00260633 0.0740689 0)
(-0.00132882 0.0252945 0)
(-0.00123308 0.0238128 0)
(-0.00161001 0.0554935 0)
(-0.00155769 0.0562706 0)
(-0.00118536 0.0223157 0)
(-0.00113822 0.0223206 0)
(-0.0011809 0.0237738 0)
(-0.00109143 0.0222971 0)
(-0.00112963 0.0237097 0)
(-0.00104517 0.0222484 0)
(-0.00107948 0.0236287 0)
(-0.000999881 0.0221848 0)
(-0.000961514 0.0207766 0)
(-0.000921096 0.020739 0)
(-0.000955646 0.0221068 0)
(-0.000881518 0.0206838 0)
(-0.00854592 0.0540367 0)
(-0.00854266 0.0557974 0)
(-2.53811e-05 0.00555872 0)
(-1.81049e-05 0.00232968 0)
(-1.8678e-05 0.00244873 0)
(-0.000212124 0.0112708 0)
(-0.000203147 0.0105079 0)
(-0.000223178 0.0113941 0)
(-0.000213138 0.0105965 0)
(-0.000234677 0.0115123 0)
(-0.00022335 0.0106714 0)
(-0.000246703 0.0116231 0)
(-1.99329e-05 0.00441786 0)
(-2.13144e-05 0.00447301 0)
(-0.000233845 0.0107343 0)
(-0.000259098 0.0117188 0)
(-0.000912367 0.0220079 0)
(-0.000842561 0.0206061 0)
(-0.000809298 0.019274 0)
(-0.000774095 0.0192051 0)
(-0.000804315 0.0205095 0)
(-0.000739797 0.0191339 0)
(-0.00076695 0.0203944 0)
(-0.000706394 0.0190475 0)
(-0.000730617 0.0202608 0)
(-0.000673856 0.0189427 0)
(-0.000646874 0.017702 0)
(-0.000618096 0.017628 0)
(-0.000642151 0.0188231 0)
(-0.000589999 0.0175379 0)
(-0.000611277 0.0186882 0)
(-0.000562546 0.017431 0)
(-1.7342e-05 0.00219297 0)
(-0.000539081 0.0162621 0)
(-0.000514857 0.0161826 0)
(-0.000535855 0.0173095 0)
(-0.000491171 0.0160878 0)
(-0.00136876 0.0496896 0)
(-0.00127447 0.0490558 0)
(-0.000415942 0.0513766 0)
(-0.00024461 0.0107869 0)
(-6.79575e-05 0.00579786 0)
(-6.46077e-05 0.00570051 0)
(-6.76684e-05 0.00611982 0)
(-6.13562e-05 0.00559543 0)
(-6.40809e-05 0.00599092 0)
(-5.82e-05 0.00548266 0)
(-0.00172646 0.05607 0)
(-5.52838e-05 0.00508703 0)
(-5.25372e-05 0.00499011 0)
(-0.00324862 0.0636614 0)
(-0.00167512 0.0568561 0)
(-0.00149725 0.0570307 0)
(0.000277585 0.0703276 0)
(0.00026413 0.0698262 0)
(-5.17468e-05 0.0701442 0)
(-5.46315e-05 0.0696438 0)
(-0.000368903 0.0699309 0)
(-0.00918412 0.0467341 0)
(-0.00108587 0.0207947 0)
(0.00396095 0.0778853 0)
(0.00369126 0.0776857 0)
(0.00309487 0.0778671 0)
(0.00287229 0.0776968 0)
(0.00227197 0.0778491 0)
(0.00206365 0.0776856 0)
(0.00140297 0.077825 0)
(0.00124358 0.0776471 0)
(0.000481068 0.077778 0)
(0.000414288 0.0775808 0)
(-0.000395394 0.0776914 0)
(-0.000411148 0.0778829 0)
(-0.00127729 0.0777751 0)
(-0.00139151 0.0779534 0)
(-0.00221257 0.0778281 0)
(-0.000374755 0.0774876 0)
(-0.0024003 0.0779957 0)
(-0.00318584 0.0778556 0)
(-0.00293413 0.0776791 0)
(-0.00385119 0.0776859 0)
(-0.00422553 0.0778771 0)
(-0.00476565 0.0776627 0)
(-0.00438956 0.0774855 0)
(-0.005209 0.0774434 0)
(-0.005636 0.0776064 0)
(-0.00596338 0.0773723 0)
(-0.00642517 0.0775247 0)
(-0.00663866 0.0772642 0)
(-0.00711466 0.0774033 0)
(-0.00722767 0.0771079 0)
(-0.00769744 0.0772267 0)
(-0.00772105 0.0768961 0)
(-0.00817095 0.0769873 0)
(-0.00812605 0.0766202 0)
(-0.00853617 0.0766654 0)
(0.00194411 0.0775002 0)
(0.00235606 0.0779932 0)
(-0.00845055 0.0762815 0)
(-0.00880726 0.0762562 0)
(-0.00810538 0.0762302 0)
(-0.00676366 0.0769789 0)
(-0.0048354 0.0772603 0)
(-0.00841253 0.0554109 0)
(-0.0084038 0.0571005 0)
(-0.000509777 0.017168 0)
(-0.000468277 0.0149409 0)
(-0.000175104 0.0095506 0)
(-1.90193e-05 0.00407881 0)
(-2.02854e-05 0.004131 0)
(-2.2663e-05 0.00451642 0)
(-2.1515e-05 0.00417184 0)
(-0.00247944 0.0337701 0)
(0.000243651 0.0693246 0)
(-1.60021e-05 0.00205539 0)
(-1.51806e-05 0.00191696 0)
(-0.000738486 0.0178217 0)
(-0.00892435 0.0528287 0)
(-0.00876846 0.0492014 0)
(-0.00827182 0.0566679 0)
(-0.00825403 0.0582931 0)
(-0.00185064 0.0566261 0)
(-0.00189158 0.055811 0)
(-6.06224e-05 0.00585525 0)
(-6.22846e-05 0.0691375 0)
(-2.39642e-05 0.00454756 0)
(-2.26916e-05 0.00420066 0)
(-2.02644e-05 0.00383015 0)
(-2.13264e-05 0.0038575 0)
(-0.00868653 0.0758675 0)
(-0.00900606 0.0757524 0)
(-0.00812459 0.0578353 0)
(-0.00809246 0.059367 0)
(-0.00796644 0.058856 0)
(-0.0079188 0.0603102 0)
(-0.00161317 0.0576206 0)
(-0.00142938 0.0577657 0)
(-0.000710617 0.0537345 0)
(-4.94657e-05 0.00459513 0)
(-4.71113e-05 0.0045142 0)
(-0.000447431 0.0148745 0)
(-0.00042272 0.0137044 0)
(-0.00139256 0.0488128 0)
(-0.00130245 0.0481892 0)
(-0.0011866 0.0484195 0)
(-0.00121817 0.047554 0)
(-0.00110873 0.0477641 0)
(-0.00113877 0.0469049 0)
(-0.00103638 0.0470978 0)
(-0.00106272 0.0462364 0)
(-0.000964483 0.0464188 0)
(-0.000989063 0.0455795 0)
(-0.000898048 0.0457113 0)
(-0.000923306 0.0449094 0)
(-0.000835857 0.0449909 0)
(-0.000864366 0.04418 0)
(-0.000776427 0.0442654 0)
(-0.00080422 0.0434476 0)
(-0.000719034 0.0435337 0)
(-0.000745824 0.0427274 0)
(-0.00148796 0.0494263 0)
(-0.000664692 0.0427928 0)
(-0.000691671 0.0419964 0)
(-0.000901139 0.0432994 0)
(-0.000613437 0.0420439 0)
(-0.00064033 0.0412585 0)
(-0.000714598 0.0411791 0)
(-0.000663012 0.0404509 0)
(-0.000592158 0.0405145 0)
(-0.000614742 0.0397169 0)
(-0.000803592 0.0458098 0)
(-0.00107653 0.0453017 0)
(-0.000547248 0.039764 0)
(-0.000569418 0.0389762 0)
(-0.000633675 0.0389047 0)
(-0.000588455 0.0381739 0)
(-0.000526592 0.0382317 0)
(-0.000545591 0.037443 0)
(-0.000486582 0.0374843 0)
(-0.000505683 0.0367094 0)
(-0.000449434 0.0367352 0)
(-0.000467983 0.0359672 0)
(-0.000414811 0.035981 0)