/*--------------------------------*- C++ -*----------------------------------*\
| =========                 |                                                 |
| \\      /  F ield         | OpenFOAM: The Open Source CFD Toolbox           |
|  \\    /   O peration     | Version:  v2012                                 |
|   \\  /    A nd           | Website:  www.openfoam.com                      |
|    \\/     M anipulation  |                                                 |
\*---------------------------------------------------------------------------*/
FoamFile
{
    version     2.0;
    format      ascii;
    class       volScalarField;
    location    "750";
    object      omega_0;
}
// * * * * * * * * * * * * * * * * * * * * * * * * * * * * * * * * * * * * * //

dimensions      [0 0 -1 0 0 0 0];


internalField   nonuniform List<scalar> 
13917
(
6.95819
0.053131
0.340928
0.0220261
0.0478228
0.052881
0.0254885
0.126622
0.0251185
14.0847
0.110377
0.0217218
0.0242387
1.38688
0.03469
9.83325
0.0219174
0.101528
0.186517
11.4688
0.0338991
0.0219042
0.0503921
0.0218963
0.0227829
0.0378216
2.71185
24.3437
0.0626441
0.0204621
20.065
0.0886969
0.0220828
1.51912
0.0217133
0.138326
0.0244418
0.0233979
0.025596
0.0383079
0.0223918
0.0229725
0.0236282
0.170829
0.168356
0.444814
0.0314157
12.3671
0.240155
0.0217244
0.0217017
0.208104
22.7288
0.021813
0.0218695
0.204077
17.7264
0.0501207
0.0223761
0.441213
3.88205
0.0387423
0.0211667
0.02266
0.708035
0.232704
0.072901
0.13226
0.11067
6.91437
0.580958
1.66565
0.0216719
0.0216477
0.0346332
0.0233097
0.0283233
0.0214932
0.0231335
0.0221418
0.0229027
0.0220855
0.0216615
0.578842
0.0211632
1.39559
0.0842936
0.0215781
0.0378726
0.0217713
0.0206523
0.0238651
0.229346
0.0213233
0.0225558
0.0734944
1.81743
0.0222866
0.0214843
1.71995
0.0216972
0.0215659
0.0229509
0.0213805
0.0280372
0.603271
1.81133
0.0379909
0.0247433
2.71623
0.0215225
1.45532
0.063169
9.74937
0.706441
0.0236839
0.169763
0.0208438
0.2951
0.0216241
0.0218878
0.0211705
0.084429
0.144563
5.91676
0.612295
0.0225299
0.0380263
0.0210737
0.148747
0.0331446
0.370402
0.901804
0.0236782
0.11038
2.44225
4.07859
4.64912
0.0426368
0.0233764
0.988934
0.0213335
0.603414
0.021194
0.0216052
0.0383214
0.577584
0.699717
14.7183
0.0218451
0.0335559
0.0213269
0.0215884
0.0216341
1.53268
0.0227742
0.0213339
0.951873
0.0217661
0.0210967
0.0211457
0.955151
0.0279361
0.989635
8.61324
2.28041
22.6845
5.07255
0.0196065
0.0479843
0.0220841
0.876092
0.0251307
4.69156
0.0962253
0.0216401
0.0220268
0.243245
0.0321831
0.0288625
0.0234687
0.0219323
0.0217037
0.362221
0.304365
0.405685
0.0216856
0.362033
0.0204967
1.11975
0.0983065
0.152498
0.264002
6.39706
0.0213274
5.83632
0.0243686
0.841935
0.0216854
0.0224255
0.0291368
6.72088
6.668
0.0244817
2.84199
0.0424216
0.0338881
0.0213549
0.231413
0.0228988
0.0208394
0.178033
0.403175
14.0984
0.106192
0.0414353
0.940317
0.0225038
0.0203073
0.020301
5.14911
0.302087
0.426367
0.0213423
0.0213828
2.46744
6.93307
0.0202592
0.0202519
0.0223317
0.0203284
0.0203222
2.19291
12.1595
0.0222717
0.0196246
0.105456
2.07432
0.0216974
0.0213397
2.9052
0.613299
0.326151
0.95781
0.164978
0.021205
6.35739
0.112501
0.0555091
0.104854
0.0240808
10.4676
0.0216309
0.0428102
0.0835669
0.0224668
0.0223863
0.0226243
0.0413714
0.0221082
2.69551
0.479431
0.0211956
0.0202494
0.0230752
0.0202526
0.0216364
0.0241764
0.036716
0.0214727
2.86303
1.82659
0.0215069
0.0296286
0.545705
0.0202971
0.677006
1.86415
0.0203035
4.13832
0.02193
0.931271
0.0217776
0.0315953
0.0226016
0.0211433
0.260385
0.0225078
2.39409
0.0261462
0.466933
0.0501618
2.31854
4.95842
0.021114
0.0598199
0.0437754
0.0240207
0.044889
0.023035
0.0214763
0.0221398
0.239809
0.364829
0.0411409
0.0229393
0.0213248
0.919565
10.763
0.0210322
0.0931097
0.024018
0.892548
0.206799
1.46738
5.2229
0.181555
0.321421
0.0281414
0.557247
0.8816
0.339251
0.0240831
0.0344572
2.85698
0.0224386
0.0577175
0.149083
0.0218307
0.87054
0.0212043
0.0476248
0.0208647
29.5809
0.0207649
0.0375155
0.0425171
0.156871
0.0215669
0.10502
0.568711
0.0223658
0.0224089
1.29769
0.579156
1.93575
1.35049
0.0202658
0.022206
0.624372
0.305329
0.0202745
0.0468061
0.0217345
0.0882296
0.0393696
0.194327
0.164189
0.601257
0.0460642
2.03665
0.0210954
0.0223703
0.0589257
0.306361
0.021875
8.62049
0.0460552
0.310636
0.0219351
0.243613
0.104679
0.195265
0.0226339
0.413829
0.543854
0.0469084
0.0215327
0.493425
0.0214456
7.74447
0.287134
0.0225716
0.208523
0.0233163
0.348033
0.0207536
10.3657
0.345343
0.0236595
2.79318
0.318172
0.0236256
4.40698
0.339824
0.0231856
0.274884
0.0220359
0.469674
0.336228
0.0212259
0.0252974
0.0228709
0.0211355
0.0209124
0.0211297
3.77208
2.20095
0.0221248
0.0211945
0.0216563
0.0572115
0.12731
0.020462
0.0196205
0.202035
0.228421
0.0211705
0.0235266
6.30377
0.930538
0.242309
0.200065
0.515534
0.0208216
0.0203949
0.0312433
0.0209026
0.0204762
0.0224118
0.0204067
0.0207609
8.20352
0.0221047
0.0429707
2.56135
0.0589133
0.0208554
0.0215696
1.86696
0.0293541
7.67586
0.0206744
0.0213279
0.0216216
0.0203592
0.0243929
0.023718
6.1681
0.0353182
0.617163
0.0213232
0.0359999
0.0544844
0.0227952
0.154969
2.56558
0.0216916
0.913818
0.0208783
0.0213145
0.0215788
0.0233669
0.0208054
0.0221012
0.92821
4.23705
0.0207903
2.02256
0.197639
0.0218011
0.0677515
0.103127
3.06404
0.0261583
0.606488
0.335486
0.343375
0.0237762
0.188423
0.0739919
0.0239913
0.742411
0.0207896
0.021729
0.022546
0.0251504
0.0318034
0.272408
0.06332
0.0269637
0.0320953
0.101845
0.0705896
0.0221332
1.34157
0.0361497
0.0261654
6.51243
0.0211713
0.0756783
0.27933
0.0208093
1.17064
0.0214144
0.0203555
0.0595551
0.0206985
0.0223459
0.228526
0.992691
2.81394
0.0211415
0.0221955
0.023662
0.728718
0.803126
0.0220138
0.021847
0.0211206
0.0733039
0.657355
0.0211441
0.0216869
0.0222421
0.0211153
0.0294304
0.0265362
0.0210049
0.0647346
0.0208124
0.0217417
0.0227839
1.50211
0.0203866
0.0231278
0.0221187
0.034449
0.0873561
0.106994
0.0887773
1.78269
0.0226794
0.0831717
0.819253
10.2195
2.01529
0.0209929
0.0215001
0.0583761
0.0214048
0.712491
0.0203531
0.692892
0.0243641
0.733668
0.998208
0.0236183
16.9485
0.0207864
0.0834805
0.0221542
0.0251828
0.766029
0.0205821
0.324178
0.0214556
0.0227155
0.021568
0.263982
0.0305098
0.0202344
0.172652
0.0655211
0.883023
0.533957
0.879331
6.11158
0.0203944
6.76508
0.0205113
4.07831
0.850089
0.026747
0.159599
0.021604
0.0353229
0.0232791
0.0205891
0.0221552
0.0238711
0.509461
0.0211935
0.0769345
0.0216977
0.0202247
0.0216275
0.380814
0.753284
21.9872
0.096112
0.0264419
0.481824
1.99084
0.0207875
0.955687
0.023683
0.154085
0.0214032
0.480752
0.0210942
0.0304615
0.0216258
0.887856
0.0372071
0.760445
0.0210782
0.0346832
0.0215003
0.0218504
1.81665
2.2022
0.0218148
0.217017
0.0213248
0.0242999
0.0215524
1.46966
0.0211967
0.0440291
0.0203454
0.0216796
0.303886
0.0214432
0.195174
0.0222757
0.0207817
3.82666
0.0803164
0.0219502
23.9217
0.317593
0.109208
0.284294
0.0207721
0.0371566
1.74363
0.347032
0.0295608
0.0243709
0.0328509
0.022039
0.0211196
0.211086
0.0982744
0.0238735
5.20245
0.0380397
0.142577
0.894621
0.189849
0.0350785
0.247733
3.21186
0.0214835
0.0458152
0.225379
0.0207936
0.0212333
0.0216337
0.0295008
0.0224035
6.31715
0.0370447
0.0211001
0.136317
0.0209979
1.38823
0.0219085
0.0210722
1.08807
0.0791889
0.472036
0.0217058
0.0229772
0.021103
0.0219678
0.0270468
0.021114
6.32548
0.0279128
0.698371
0.471755
0.0464433
0.881545
0.0221963
0.021929
0.0215828
1.80098
2.83043
0.0246552
6.77621
0.898901
0.020774
0.0210501
0.0245346
0.588615
0.466459
0.0375531
0.0219371
0.0231188
0.161375
0.026457
0.192031
0.037075
0.0224988
0.0221667
0.0220033
0.0268361
0.0316603
0.36141
0.0244337
0.0357487
6.091
0.0235165
0.811446
0.0239687
0.0424792
0.024274
0.335294
0.0218213
0.0770474
0.726905
0.310111
0.0214221
0.024397
0.0229413
0.0213303
0.0216199
0.0471076
0.044963
0.368957
0.197398
0.0207529
0.389479
0.0250517
0.0251556
0.226692
0.0223713
0.0831048
2.26501
0.0202622
0.0791132
0.125171
0.0364844
0.0209632
0.0208239
0.0211109
9.69306
0.0220562
0.022316
0.0465781
0.0211396
0.020894
0.191524
2.30603
0.0660598
0.931891
0.072845
0.631992
0.0216264
0.0296046
0.440933
0.0266384
0.0640003
0.0216122
0.0212134
0.0216817
0.0249566
0.121636
0.0209593
0.235516
0.0219162
0.891832
0.0239684
0.0261215
0.020865
0.106614
0.0319856
1.00418
0.0662858
0.0220781
1.55467
0.0222434
2.82791
0.0231429
0.0881235
0.025371
0.020947
0.0214074
0.842121
0.0266309
0.114493
0.938372
0.0213236
0.0367175
0.0196134
0.0321146
0.6315
0.019642
7.78965
0.0232265
0.0916313
0.164639
0.895959
0.0203778
0.021316
0.180809
0.0207678
0.0217842
0.0229296
0.0214282
0.0465257
0.0203629
1.43322
0.0225207
7.2782
2.97872
0.943601
0.630691
1.1662
10.3961
0.890887
0.0207219
0.0239001
0.0215203
0.0223414
0.0211249
0.0268743
0.0212467
0.133164
0.0218187
0.46401
0.0219959
0.0316671
0.154841
0.0210594
0.0427778
0.0222582
0.025205
0.0245896
0.0213892
0.890433
0.108385
0.14052
0.0210321
0.0214857
0.0221874
0.0220569
7.70793
0.0207398
2.20499
0.021078
0.316739
0.0310946
0.0212196
0.0805232
0.0407793
0.020749
0.467641
0.800516
0.0252933
0.106227
0.0207609
1.83589
0.0243905
0.0220674
2.86795
0.0215897
0.0220778
0.132387
3.66644
0.0229479
0.88199
0.478528
0.0235409
0.0245239
0.0214874
0.496358
0.0214534
0.189626
0.0216252
1.16919
0.0316733
1.08305
0.021196
0.0202926
0.3486
0.0227873
0.0232956
0.772918
0.0231854
0.0208942
0.814315
0.0233967
0.0238582
0.0958653
0.0231326
0.714636
0.0391604
0.101812
0.271528
0.023053
1.13269
0.0228189
0.0868914
0.0213612
2.23457
0.326412
0.0217584
0.0244556
0.02374
0.0220057
0.0223067
0.0206829
0.0213549
0.0213971
0.026927
0.0202623
0.0229496
0.0961999
9.37871
1.07903
0.119651
0.0222168
0.350486
0.021196
0.420263
0.645389
23.8701
0.0203511
0.0207296
0.0216272
0.0217574
0.020329
0.0216634
0.0212548
0.0368533
0.0209031
21.0899
0.848935
0.0209132
0.825329
0.0213707
0.0211398
0.0365204
1.37503
0.0867386
0.0214503
0.478202
0.0214223
0.0211662
0.417439
0.0242772
1.21572
0.0221344
0.098829
0.0208577
0.0213222
0.0291341
0.934375
0.0226015
1.59213
0.0613313
0.0227194
0.0252242
0.0214803
0.0208081
0.134176
0.0359704
0.0237647
1.53866
15.6443
0.933729
0.143857
0.0212249
1.71656
0.0211811
5.74965
0.0777943
0.0254345
0.0224875
2.05029
2.86808
0.502952
0.0292943
0.895185
0.0222038
0.0212515
0.0378377
0.0224538
0.0216084
0.483316
3.90212
0.0213205
0.0271862
2.15681
0.0213837
0.0202689
0.69284
1.1754
0.0222477
0.0206662
0.0251158
0.0215465
0.0211406
0.0497987
0.0277626
0.0215004
0.727927
0.0324024
0.384049
0.650808
0.0482493
2.10064
0.0217309
0.0219623
0.319005
3.7764
0.339465
0.154089
0.0315114
0.0219056
0.0221574
0.0227785
1.34207
0.027725
0.0226884
0.0610229
0.0211526
0.315998
0.102197
0.181649
0.0756444
0.50877
0.462485
3.3617
1.0557
0.0233809
0.478374
0.0202858
0.0694877
0.109337
0.621993
0.0235465
0.0250439
0.02402
0.143845
0.0235609
7.69195
0.0334175
0.136007
6.49507
0.0212042
0.151212
0.0233754
0.021814
0.0327748
0.381724
0.020577
0.0207137
0.0224993
0.543883
0.0208877
0.0232474
0.0232835
0.0227806
0.0215612
0.150637
0.0936535
0.0227079
0.0210117
0.891353
0.320597
0.0471592
1.03557
0.0217378
0.021419
2.44172
0.0223344
0.0235424
1.01775
2.05152
0.0401952
0.0698862
0.027512
9.32763
2.1398
0.0302162
0.552115
0.0211199
0.110995
7.19469
0.308723
0.685434
0.164338
0.0207557
0.0216626
0.0239624
0.0215833
0.0218168
0.367183
0.0215883
0.0472551
0.0204963
0.0713224
2.28351
0.0232159
0.812201
0.858782
0.0214162
0.104929
0.0287832
0.0228833
0.0213332
1.82196
0.09292
3.3574
0.0255017
3.85822
0.133031
0.0230265
0.972146
0.0338644
0.093114
0.0212323
0.398006
0.0213379
0.0248907
0.0371768
0.0275924
0.02194
0.0644092
0.944603
0.0211592
0.321566
0.104251
0.0217873
0.0211708
0.034485
0.507948
0.44502
0.0208983
0.0305417
0.133397
0.892756
6.71791
0.0215714
0.0209217
0.0207763
0.0214873
0.0241948
0.0244497
0.513275
0.0222279
0.0234676
0.412809
0.148711
0.117187
1.09175
3.92643
0.0217332
0.0214251
0.0208729
0.0228876
0.0941716
0.829575
0.168825
0.167858
0.0293055
0.056314
0.0231581
0.159151
0.0248729
0.164578
0.0212771
1.9116
0.175584
0.0208146
0.0217067
1.14499
0.0536821
0.403896
8.92211
0.220411
0.0211012
0.504461
0.0232312
0.0212371
1.04568
0.701436
0.021311
0.0418541
0.163291
0.0308746
0.0220569
0.0203446
0.0211852
0.0208382
0.0213248
0.0272619
0.0592861
3.71491
0.0312466
0.0242901
0.0310802
0.123783
0.0209912
0.031923
0.398791
0.326271
1.82206
0.0235064
0.0203236
2.24289
0.0210322
0.340788
0.0224439
0.0436729
0.0219524
0.0210817
0.402995
0.0245112
0.023488
0.021474
1.61114
0.420535
2.10933
0.021753
0.0216512
0.181772
0.0210805
0.0208213
0.247848
0.697255
0.0249884
0.0321494
0.0220122
0.525646
0.0212452
0.0273116
0.0219444
0.020309
0.323553
0.0212425
0.020822
0.524303
0.0711371
1.09207
0.320837
0.0211931
0.0286027
0.0208961
0.0210824
0.0253183
0.0222708
0.0216559
0.300074
0.0215642
0.0956722
0.0329584
0.0518826
0.0215641
0.0309271
0.0210964
1.93779
0.020495
0.133404
0.0896835
0.022553
0.059528
0.0321639
0.0289298
0.0215755
0.0333149
0.0208846
0.0208145
0.346095
0.0462696
0.17856
0.021294
0.0214586
0.0221957
0.115645
0.0211613
0.981183
0.0488044
0.0214871
0.0212984
0.0206548
0.0482424
0.267723
2.14205
0.0771902
0.305241
0.061057
0.151228
0.0257101
0.81896
0.0204872
0.0204302
0.0237571
0.121434
0.0206891
1.25841
0.0217653
0.0213897
0.268516
0.426691
10.4512
0.207897
0.0241143
0.311394
0.19023
0.0206494
0.836681
0.0213788
0.021622
0.709042
0.0205629
1.13114
0.228066
0.0210587
0.0214103
0.0206762
0.851447
0.0218822
0.0203384
0.100168
0.0211984
0.0208775
0.0226768
0.0207084
0.0500428
0.0216382
0.0265004
0.0206899
2.60552
0.955921
0.0207053
0.0207115
0.0222124
0.0212856
0.0232232
0.0218904
0.0217576
0.02166
0.0214331
0.022687
0.0215003
0.094034
0.0206452
0.107603
0.0217618
0.0622113
0.0208703
0.021628
0.0211278
0.0205611
0.0336055
0.0311274
0.0244398
1.20948
0.298027
1.00396
1.0917
0.107438
0.643427
0.0217306
0.0214769
2.53781
5.85337
0.022384
2.2196
0.020755
0.185146
0.967908
0.0230517
0.112089
1.39103
3.00226
0.0213393
0.0525949
0.0209296
0.472376
0.0233796
0.994971
9.62851
0.0217241
0.897736
1.92832
0.0220263
0.74472
0.32409
0.0230882
0.0209409
0.263428
1.93318
0.0206497
0.0316631
0.0222571
2.48645
0.238955
0.0216313
0.0208979
0.475598
0.0210596
0.0214232
0.021938
0.0207281
0.63518
0.0369834
0.0266839
1.66163
0.021328
0.0966569
0.0216692
0.254404
0.0642003
0.470645
0.0208429
0.0260438
0.0210272
0.0216384
0.0234263
0.0215488
0.783763
0.0227036
0.0207642
0.0211713
0.282728
0.0209206
0.391691
2.72411
0.792146
0.0214779
0.020947
0.0212484
0.879752
0.02197
0.559355
0.0214159
1.65795
0.0231782
0.0255613
0.382037
0.0217494
0.0217868
1.92637
0.167468
1.24191
0.0231458
0.719711
1.11209
0.0217079
1.6659
0.0219197
0.0292948
5.21081
0.0250195
0.0491763
3.42134
0.032313
0.0854831
0.0215555
0.508856
0.0214021
0.477372
0.0212497
4.06875
0.0214218
0.021549
0.0247323
0.887127
0.0209692
0.287826
0.093554
1.33556
0.0212713
0.028158
0.825034
0.115645
0.601583
0.104421
0.0208697
0.177339
1.76858
0.0252894
0.497383
0.020352
0.246171
8.90459
0.0210349
6.66087
0.0213004
0.675708
0.589911
0.0233205
0.0260908
0.544185
0.700813
0.0214519
0.0223944
0.0207438
0.0217118
0.630954
0.0804956
0.386413
0.0215568
0.0251971
1.10446
0.017135
0.883532
0.496881
0.0211606
0.0213629
0.288938
6.05103
0.778189
0.756683
0.303226
0.0369159
0.079976
0.786089
7.26762
0.665532
0.0209406
0.108756
0.0466925
0.0963872
0.0214635
0.025312
0.0725202
1.93477
0.876276
0.0246963
1.05558
1.62198
0.0487825
0.0214029
0.0214064
0.109963
0.0210089
0.94402
0.0256439
0.0237951
0.348681
0.124326
0.0206941
0.0342129
0.0280381
0.0214841
0.797123
0.036046
0.86802
0.0211871
1.51814
0.403698
0.298007
0.0205591
0.0248645
0.0324526
1.75937
0.194137
0.0864152
0.636134
1.96719
0.0196956
0.0241953
0.0241696
0.20078
7.4242
0.020868
0.020675
0.0225239
0.515188
1.7448
0.0212545
0.0569014
0.343675
0.0209024
0.0813878
0.0245891
0.848959
0.0333451
0.420563
0.571469
0.0264194
0.0256474
0.481907
0.0211589
0.0558756
1.9127
0.0241262
0.362562
0.0321515
0.0699323
5.6169
0.716393
0.0215326
1.1718
1.97245
0.0205753
0.204075
0.0837334
0.202649
0.693309
1.64155
0.944039
0.175697
1.70305
0.02495
0.0874827
0.0206252
0.0216816
0.0215409
0.0208754
0.386604
1.9399
0.0205726
0.0586776
0.270908
0.0211436
0.708032
0.746234
0.0206218
0.0219222
0.0208522
0.0230698
0.0493557
0.021398
4.27553
0.0278521
0.0911383
0.0285636
0.0901002
0.0790692
0.041409
0.895639
0.0214867
0.0231787
0.0204866
0.0210707
0.79415
0.140542
0.0280548
3.75144
0.0216425
0.0225451
0.0345196
0.0207852
0.0213345
0.133486
0.0238917
2.05701
1.11161
4.6226
0.0216025
4.64353
0.021273
0.411315
0.0206776
0.221576
2.52281
0.021498
0.472329
2.23575
0.0312572
0.0223034
0.0209988
0.0259631
1.87299
0.020708
0.0217097
0.0222741
0.0235405
0.292562
0.0225825
0.0240531
0.0211294
0.0222984
0.487358
0.0319782
0.026298
0.200998
0.10424
0.909937
0.920814
0.0230141
0.0231958
1.84356
0.0214912
0.082158
0.0216191
0.635381
0.0222669
0.0220279
0.0543327
0.989835
0.021366
0.0208427
0.0204674
0.230816
18.7571
0.200569
0.021461
0.0256914
0.0208969
1.74724
0.0214667
0.493263
0.0685863
0.0216512
0.387011
0.0416826
0.138298
0.0219888
0.0207866
0.0271972
0.0476731
0.288209
0.02166
0.0222283
0.0221993
1.25735
0.021612
0.0222296
0.711183
0.0232386
0.0330666
0.023449
0.0210508
0.0216704
0.755183
0.0230327
1.36292
0.301969
0.020059
1.4726
0.0219333
0.16771
0.0526392
0.0224168
0.0206121
0.0200202
0.0213885
0.366589
0.0537259
2.00478
1.43541
0.0209011
0.0222751
0.036985
0.452521
0.0213904
0.256891
0.72505
0.586091
0.0211994
0.0225019
0.0219101
0.900121
0.790454
0.0233588
0.0215226
0.0286961
4.26009
0.0216156
0.0225361
0.0239085
0.179214
0.445411
0.0205132
1.15026
0.0369089
0.0213919
0.887745
0.0676248
1.34712
0.5411
0.0300736
0.0296781
0.0223214
0.0277643
0.0224841
0.0902645
0.0552067
0.0217741
0.0233671
0.359995
1.23061
0.0206941
0.179989
4.76669
1.20533
0.0221014
0.0215302
0.346836
0.52316
0.0972061
0.021114
4.58359
0.0874718
0.0201542
3.62615
0.0253605
0.0219771
0.403042
0.0214112
0.100601
0.0209233
0.0198911
0.0215468
0.0204603
0.71278
0.020498
0.0211814
0.10409
0.0242479
0.0260908
0.213004
0.0216061
0.0214617
0.0228701
0.0224969
0.323059
0.307897
0.427514
0.995164
0.0471109
0.587132
0.660755
0.980074
2.35009
0.736717
0.020848
0.0326357
0.0214064
0.0217075
0.0211854
0.0247945
0.291559
0.0737108
0.0382932
0.021115
0.0213682
0.0690157
0.0216989
0.0222015
0.0216401
1.68249
0.0278688
9.97962
0.0215924
0.337446
0.0222866
0.0218823
0.0227345
0.0467954
0.0210466
0.121858
1.40047
0.0412042
2.1706
0.839129
0.023026
0.0252005
0.45082
0.186797
0.0207822
0.0211187
0.0200475
1.42171
0.0198602
0.0920475
0.844758
0.105083
1.38169
1.00261
0.0817112
0.808235
0.0206928
0.0204561
0.464176
0.536209
0.0214389
0.0215615
0.132946
0.0209563
0.341391
0.0225684
0.0213609
0.0249889
0.0214855
0.0935679
1.37613
1.87085
0.0235558
0.0214436
0.150933
0.0223651
0.112106
0.0208606
0.217001
0.130079
0.0221851
0.0218936
0.02013
0.235168
0.0857158
0.295792
0.634209
0.0267714
0.567114
0.0979178
0.168447
0.656374
0.0212892
1.3249
0.0222171
1.73753
0.398264
1.46721
0.66733
0.0221533
0.0614217
0.455038
0.0214113
3.57681
0.0215752
0.021487
0.0247994
0.0219481
0.0295738
0.395322
0.467451
4.59131
0.0241585
0.039961
0.0226547
0.0217855
0.0216319
0.234001
0.121235
5.69672
0.0461332
0.0206515
0.0207478
0.0225478
0.332853
0.0250937
0.0231638
0.0238473
0.382215
0.03052
0.0479508
0.0511325
1.17893
0.0264786
0.0317909
0.0213946
0.024916
0.486236
0.541338
0.0542479
0.0207846
1.14509
0.0305206
0.0210867
0.0527896
1.22762
0.367188
0.0313058
0.0209683
7.74094
0.0222471
0.0209121
0.0207528
0.765985
0.489912
0.0230195
0.828456
0.63638
0.0241334
0.0506896
0.0728837
0.877029
0.0275051
0.785477
0.0223625
0.432699
0.0603255
0.749924
0.0316832
0.0209662
1.13304
0.0216049
0.0224459
1.01607
0.548726
0.0829769
0.531036
0.0236921
0.0223151
0.509568
0.0211008
0.0211985
0.0215472
0.047523
0.0213783
0.0377472
0.0241654
0.199442
0.474773
0.0219939
3.59702
0.0240086
1.29911
2.00504
0.0215163
0.0216685
0.0243811
2.08544
0.293976
0.0849398
1.28204
1.46591
1.89224
0.0240187
0.531044
2.52034
0.0707882
0.460358
0.0217537
0.0212967
0.0215746
0.0230719
0.0212923
0.0323843
1.91407
0.0399226
0.307391
12.6588
0.524543
4.88499
0.889121
0.0356818
0.80905
0.17425
0.099584
0.0206611
0.0214886
0.0873476
3.31484
0.0230927
0.94032
0.979783
0.0208828
0.0215547
0.0227769
0.171411
0.0224161
0.096715
1.31681
0.0206738
0.0213854
0.0208632
0.0221443
0.145906
1.50269
0.0368
0.556776
0.183223
0.0211823
0.333336
0.254788
0.0217292
0.416441
0.459766
5.65117
0.63616
2.41794
0.0213435
0.512256
1.49089
0.283758
0.567702
0.0211182
0.0236225
0.0234155
0.022858
0.640348
0.0839217
0.021651
0.0250112
0.351632
1.60695
0.0238395
0.0367433
0.993866
0.878987
0.0216608
0.0261746
0.175059
0.0213122
0.0213907
1.47817
0.0211304
0.355017
0.331192
0.655779
0.0210283
0.139361
0.240012
0.0210482
0.0202285
1.75032
0.830529
0.0219029
0.0419978
0.301061
0.316743
0.857163
0.762469
0.0241926
0.334525
0.477867
0.0318846
0.0211283
0.10052
0.0204086
0.0204237
2.14375
0.0360341
0.146006
0.0233629
0.0274793
0.0210093
0.0204439
0.0219587
0.0221057
0.984879
0.0232182
0.631742
6.03392
0.0446124
0.0936523
3.00235
0.731889
1.24052
0.0238848
0.0236438
0.0325432
0.0240754
0.33068
0.471261
0.0219438
0.588961
1.8507
0.0249689
0.131643
0.100541
0.148059
0.166028
0.0223479
0.191836
0.213087
0.236095
0.260662
0.173364
0.115185
0.034014
0.0211014
0.0310449
0.130036
0.0210751
0.506062
0.832659
0.3571
1.09498
0.0201928
0.0207847
0.35632
0.605707
0.0220518
0.0246367
0.0844865
3.56189
0.377285
0.0215514
0.035402
0.023763
15.6618
0.335788
0.0234959
0.419829
1.57048
0.152821
0.804575
0.147833
0.235481
0.829377
0.0195991
0.771149
1.56694
0.0226453
0.0914681
0.161654
0.029246
0.0209204
2.08973
0.307056
0.0209077
0.0209764
5.69549
0.437014
0.113106
0.0218057
0.349908
0.223367
1.02531
2.48083
0.0215347
0.0213553
0.0220169
0.0227338
0.749628
0.154357
0.822101
0.11785
0.394499
0.667382
0.0226901
0.0210473
1.6487
0.0210686
0.791295
0.0211984
0.829945
0.0222159
0.0229403
0.871647
0.0215723
0.173632
0.37455
0.0242573
0.0249771
0.0223005
0.283641
2.02481
0.278587
1.17788
0.0237573
0.0225003
0.0260299
0.105266
0.804341
3.82956
0.161273
0.322794
0.197233
0.545796
0.022704
0.0210488
0.0206879
0.020662
0.395015
0.0895493
0.464843
0.0412663
0.239065
0.0210911
0.327492
1.70752
14.2446
0.0214484
0.0224174
0.0199117
1.35566
0.265123
0.86562
0.393454
0.192426
0.376128
0.0200879
0.0372498
0.269296
0.397738
0.432271
0.0215709
0.21413
0.0224581
0.0219269
0.277722
1.14141
0.579265
0.022108
0.133684
0.401533
4.81208
6.17713
0.714235
0.664635
0.0210096
0.0742458
0.0214783
0.224347
0.0214144
0.192778
0.0247645
0.0541907
0.338153
0.467471
0.0233597
1.16846
1.52445
0.182763
0.0252637
0.847795
0.164268
0.0223657
0.0221487
0.648842
0.0263035
0.231051
0.418869
0.317731
3.81848
0.0230596
0.674599
1.38199
0.444793
2.24693
0.0292588
0.16652
0.145259
0.700995
0.0826025
0.0219696
0.459275
0.0648669
0.474335
0.0262261
6.17769
0.501345
0.475166
0.0253154
0.859262
0.0236087
1.8173
0.274168
0.491107
9.28919
0.0209271
0.0198822
1.6279
0.760488
0.0736561
0.0219148
0.0426149
0.0381994
0.628334
0.092306
1.61279
0.0245327
1.70558
0.215806
0.307076
0.0219352
0.419554
4.68012
0.0235782
0.120859
0.0201635
0.0232815
0.0215744
0.333186
0.0212114
0.0215888
0.818225
0.530141
0.0206479
0.791704
0.0221587
0.0214957
0.0213036
0.0209827
0.0216818
0.422064
0.885676
0.02068
1.66825
0.0885404
0.0555627
0.478951
0.123059
0.0241675
0.0321279
0.0212861
0.333244
0.0349622
0.791498
0.0242218
0.592517
0.441731
0.0941758
0.487085
1.80983
0.0207555
2.53903
0.0656569
0.0844273
0.0745911
0.021153
0.606504
0.297445
0.0215379
1.00828
0.0213955
0.665988
0.232556
2.84785
0.278638
0.268246
0.808392
0.0216147
0.0214218
0.0798881
0.0227232
0.0216653
0.021688
0.0255226
0.021056
0.021209
0.0225196
0.0456437
0.0229218
0.0262964
0.0226399
0.0495479
0.155294
0.023138
0.685636
0.0228632
0.0212638
0.13868
0.0473134
0.0228699
0.0210276
1.74793
0.023035
1.70831
0.0231508
0.191209
0.0212978
0.0213393
1.29257
0.853649
0.0943349
0.0341766
0.020176
1.03963
0.0215946
0.0211768
0.106441
0.0231601
0.262719
1.4819
0.150879
2.01278
0.0423093
3.80167
0.0215856
0.0216032
0.0825451
0.335883
0.0746723
0.162063
6.49105
0.0260427
0.0215558
0.0261356
0.345856
0.0725457
0.0215545
0.155776
0.147179
0.0822171
0.0216863
0.0216049
0.345694
0.0801316
0.484128
0.626653
0.0254759
0.0950547
0.0216579
0.0503637
0.829085
0.0217798
0.295479
0.183313
0.122875
0.37026
0.0215061
0.0213874
0.0212482
0.800488
0.319524
0.0235885
0.877855
0.174593
0.0216372
0.0214316
0.466855
0.783873
0.353284
1.57959
0.292193
0.0303934
0.423411
0.196165
0.0297153
0.833449
0.128943
0.844898
0.0215104
0.149145
0.220576
0.0223559
1.68912
0.0383316
0.271253
0.0253813
0.244636
0.0210697
2.60595
0.0238515
0.0207764
0.0211447
0.0207394
0.0226543
0.0223672
0.0209008
0.0234983
0.0216806
0.0223426
0.335998
0.110389
0.0219882
0.0811504
0.023568
0.0606579
0.0203966
0.0528003
0.0283792
0.503874
0.021522
0.0215546
0.095522
0.412693
0.021584
0.0215361
0.197076
0.0230497
0.149325
0.0752605
0.0214569
18.6067
0.0231979
0.0222402
0.15447
0.818089
0.022134
0.0705827
0.0208887
0.0247896
0.0215541
0.0261014
0.0212106
0.0215704
0.766624
0.0761053
14.3356
0.0577507
0.021493
0.0267237
1.66596
0.0681245
0.288065
0.15457
0.0215955
0.0637738
0.804318
0.296464
1.46926
0.0244369
1.87881
0.469081
0.0328503
0.0216398
0.112326
0.0221188
0.0709195
1.01274
0.0216685
0.393334
0.0218916
1.21503
0.0624956
0.0221801
0.0774726
1.33124
0.20965
0.0230688
0.0996312
0.028864
0.0206349
1.26672
0.0205271
0.0336428
0.0211048
0.0271257
7.73553
0.0988022
0.0207331
0.03285
0.392303
0.0215983
0.0220161
0.026074
0.0274064
0.0214584
0.0229853
0.0261235
0.0221537
0.0210901
0.0786335
0.161828
0.284978
0.02103
0.0721957
1.52995
3.54633
0.0237538
0.0217025
0.0244435
0.134931
0.0223069
0.0210349
0.0212529
0.0210164
0.0286846
0.0258731
0.0241943
0.0851262
0.0229323
0.0204121
0.0235132
0.0831213
0.0520763
0.170264
0.0220554
0.0270043
1.75256
0.0324062
0.0240238
3.22905
1.67015
0.153611
0.0895948
0.263419
0.0212828
0.392679
0.030239
11.4252
0.0213866
0.0212316
0.476916
0.0207867
0.302546
5.01422
0.0218695
23.2478
0.0288241
0.0326947
0.0263834
0.104745
0.0324194
0.0244951
1.28879
0.0208368
0.0236451
2.34254
0.0242504
0.021512
0.0274921
1.74438
0.0221102
0.022134
0.900179
0.0232885
0.0262005
0.0754284
0.0203317
11.933
0.0232119
0.0224853
0.218822
0.0723075
0.642729
0.022951
0.616409
0.0325349
0.139059
5.54284
0.0216272
0.0312678
0.140486
0.0219941
0.65795
0.0223259
0.0229108
1.47689
0.0222213
0.0462832
0.136819
0.902596
0.0294292
0.0246676
0.0220857
0.0233206
0.137246
0.0240259
0.0309282
0.101245
0.0675511
0.0215487
1.94169
0.039669
0.0204275
0.0229469
0.0212392
0.0208513
0.0203364
0.0217164
0.0215727
0.0271986
0.0230755
0.0531793
0.0202016
0.0204424
0.0451003
0.111504
0.0207199
0.040131
0.0807788
0.0305868
0.0275239
0.0214432
0.0229102
0.0233368
0.0410098
0.0327758
0.0266139
3.54855
0.0219755
1.76925
0.0240507
0.133324
0.197719
0.021675
0.0743615
0.0307172
1.69597
1.11689
0.0245657
0.0217455
0.0230439
0.0300851
0.0554321
0.0218865
0.518114
0.062578
0.0411729
0.0769071
0.0624081
0.0818091
0.0324214
0.387857
0.111468
0.0304354
0.136121
0.0230299
0.210149
0.0221897
0.0212829
0.118726
0.124422
0.0213732
0.0600134
0.021419
0.0215954
0.0215077
0.0218904
0.0215311
0.0213841
0.0213809
0.0227911
0.26691
0.0223632
0.021334
0.0231644
0.0224768
0.306501
1.11686
0.0766032
0.0236905
1.86922
0.0214365
0.0213452
0.599775
0.0306882
0.0220707
0.0227269
0.0217442
0.326518
0.0220514
0.0248087
0.0227682
0.0340426
2.35638
0.0214308
0.0760474
0.0860785
0.0243023
0.0456746
0.0209299
0.0216352
0.0915453
1.15148
0.0228398
0.0376019
0.934165
0.141918
0.020821
4.69932
0.0229433
0.0196807
0.0733775
0.742838
0.021418
0.0207156
0.0228173
0.0474745
0.0379355
0.021397
0.0224587
0.0400013
0.0216271
0.030321
0.0245852
1.19566
0.0209273
0.574848
0.41073
0.0730673
0.0213397
0.142999
0.0212566
0.0234939
0.0216501
0.0697526
0.0202146
0.0201909
0.041092
0.0770375
0.445326
0.0221133
0.0201993
0.022777
0.0209119
1.26743
0.0250367
0.0226578
0.0220424
0.0786125
0.0547155
0.022856
0.0242493
0.0508343
0.021857
0.0215785
0.0228222
0.021978
2.04813
0.0211878
0.0410886
0.0218713
0.0214842
0.0555224
0.140706
1.34966
0.0215251
0.0732762
0.466303
0.820044
0.822359
0.0496554
0.0216027
0.0235085
0.0272248
1.0467
0.022086
0.0237948
0.0250153
0.0313003
0.0202197
0.0664953
0.0520732
0.936335
0.0219806
0.021618
0.148805
0.999114
0.0201398
0.0234603
0.0333379
0.0200219
0.0225052
0.05209
0.0217889
0.0214539
0.0216456
0.0234688
0.117164
0.0342993
0.0223224
0.0208924
0.022667
0.383788
0.0199235
0.0209625
0.0256582
0.133342
0.0241585
3.51201
0.023939
0.021526
0.0214875
0.0228548
0.0212139
0.0313593
1.00293
0.0210673
0.0210052
0.0218968
0.0212984
0.0225421
0.0539571
6.30786
0.0225591
0.163299
0.0231679
0.0213157
0.363522
0.0230701
0.740552
0.0217079
0.0220155
0.0207213
0.0214701
0.0225119
0.0308502
0.599154
1.895
0.0321758
0.0635247
0.0220131
0.0457682
0.0214116
0.023074
0.0352604
2.13381
0.735666
0.0221927
1.80514
0.939547
0.0456516
1.73605
0.0198572
0.0213843
0.0218915
0.022936
1.12068
0.0208404
0.100378
0.402669
0.0230207
0.124746
0.020008
0.0353556
0.472789
2.74302
0.022053
0.207287
0.187459
0.407021
0.0246086
1.21519
0.0222776
1.96463
0.178208
0.0205125
0.0521393
0.0316218
0.0230815
0.394946
0.0312248
0.0210868
0.0291963
0.296535
0.021844
0.0698292
0.0215315
0.0198933
0.0252145
0.0326979
0.0215002
0.12028
0.0302885
0.0239316
0.019842
0.021628
0.197214
0.123952
0.334232
0.0323899
0.0237692
0.0325506
0.0284279
0.0214838
0.0226545
0.0385754
0.0228595
0.0233092
0.0203781
0.0244015
0.711544
0.0218701
0.493001
0.239207
0.021584
0.0216721
0.0202368
0.0283533
0.0429178
0.0201204
0.0243959
0.0240629
0.0223438
0.021074
0.0224375
0.0214139
0.0217916
0.323801
0.0219379
0.0274494
0.0214323
0.27537
0.81173
0.0214907
0.286585
0.0218038
0.023121
0.0469644
0.44712
0.0265278
0.0210038
0.0212828
0.0455873
0.0456428
0.250293
0.0236317
0.0570124
0.212496
0.0218487
0.0215778
1.88207
0.0618347
0.0295846
0.0216173
0.0293313
0.0223651
0.0240823
0.0210457
1.45392
0.026361
0.0231326