/*--------------------------------*- C++ -*----------------------------------*\
| =========                 |                                                 |
| \\      /  F ield         | OpenFOAM: The Open Source CFD Toolbox           |
|  \\    /   O peration     | Version:  v2012                                 |
|   \\  /    A nd           | Website:  www.openfoam.com                      |
|    \\/     M anipulation  |                                                 |
\*---------------------------------------------------------------------------*/
FoamFile
{
    version     2.0;
    format      ascii;
    class       volVectorField;
    location    "650";
    object      ddt0(U);
}
// * * * * * * * * * * * * * * * * * * * * * * * * * * * * * * * * * * * * * //

dimensions      [0 1 -2 0 0 0 0];


internalField   nonuniform List<vector> 
13851
(
(0.00792619 0.0063541 3.66084e-20)
(-0.213702 -0.285523 -3.65635e-17)
(0.0143663 -0.0598745 7.11384e-19)
(0.00792629 0.00437593 1.60798e-19)
(0.0216709 -0.0296156 8.70559e-18)
(0.0287528 -0.0136037 -5.35007e-19)
(0.0011327 -0.000761144 -4.24714e-18)
(-0.000313552 -0.0340129 -1.88767e-18)
(0.000646664 -0.000159197 -3.01491e-21)
(-0.072006 -0.115876 -6.87453e-18)
(0.0504447 -0.0442658 -1.91654e-19)
(0.0197021 -0.553157 -9.69337e-18)
(-0.0374597 0.00633681 8.80649e-18)
(0.142595 0.908323 -5.38687e-19)
(0.000610651 -4.88716e-05 1.97352e-18)
(-0.0176319 -0.0074049 -1.71744e-19)
(-0.000495469 -0.00715294 7.20785e-19)
(-0.018075 0.00798003 -2.66878e-19)
(0.00472401 0.0142799 -1.11314e-17)
(0.000732884 -0.00020015 -2.02572e-20)
(0.00739508 0.00409187 -1.31413e-19)
(0.0161008 -0.0546071 1.28553e-19)
(0.000342043 1.24012e-05 -8.6969e-21)
(0.00149771 2.46905e-06 3.13288e-20)
(0.000422636 9.31136e-06 -2.92024e-20)
(-0.00281707 -0.0358088 1.85668e-18)
(0.00466815 -0.00509311 1.00913e-17)
(0.0146208 -0.0636113 -3.2064e-17)
(0.00681693 0.0063349 -1.05558e-19)
(-0.00666787 0.000581792 1.3163e-18)
(0.0287922 -0.0103862 -8.25962e-19)
(-0.000617917 -0.00776329 2.47397e-18)
(0.00907906 -0.0607052 -1.23989e-19)
(-0.0484276 -0.0499646 3.47256e-18)
(0.00138426 -2.42377e-06 6.36661e-20)
(0.0950556 -0.0773563 -1.97705e-17)
(0.127871 -0.168358 2.63302e-17)
(0.0657529 -0.023121 1.85335e-18)
(-0.0681119 -0.131316 -1.00867e-17)
(-0.0393553 -0.0608767 -4.42265e-18)
(0.00191042 0.000875268 -8.38845e-19)
(0.00113683 0.000418444 -3.71989e-20)
(-0.142187 -0.174194 -1.41076e-17)
(0.0370164 -0.0384328 -9.51346e-19)
(0.0346743 -0.0314203 5.11286e-19)
(-0.464592 -0.0653131 7.18412e-18)
(-0.00541657 -0.0151187 1.89424e-19)
(0.0358567 -0.0939644 -1.39653e-17)
(0.00486548 -0.0052666 6.04568e-18)
(0.0246267 -0.0264152 2.07044e-18)
(0.0293099 -0.0293184 5.8388e-18)
(0.0125866 -0.0382723 -8.88188e-18)
(0.00182198 -0.343138 7.36336e-18)
(0.000804278 -3.07824e-05 -1.03777e-18)
(0.00279025 8.47401e-06 -5.99347e-19)
(0.00117582 0.000353376 -4.78029e-20)
(0.00136145 9.17322e-05 1.17373e-20)
(0.0926382 -0.414238 -2.12454e-17)
(-0.00642509 0.000814122 -6.86969e-19)
(0.00117662 -0.000964819 5.21166e-18)
(0.0718072 -0.028381 -2.70671e-18)
(0.191223 0.308227 -1.51991e-18)
(-0.0873537 0.0924917 1.60606e-18)
(0.0209343 -0.0279747 2.67161e-18)
(0.205624 -0.138347 1.15119e-18)
(0.0135157 0.00670121 -4.72936e-19)
(0.0958394 -0.157833 1.07714e-17)
(-0.0316655 -0.00596479 -2.58238e-19)
(0.0146396 -0.0125237 2.76308e-18)
(-0.0174423 0.0103644 -7.70132e-20)
(-0.372313 0.0240463 -3.85724e-19)
(-0.0419227 -0.0222865 3.50593e-17)
(-0.246201 -0.215461 1.17258e-17)
(0.00063823 -3.2659e-05 -2.80192e-18)
(0.00240356 6.23289e-05 2.83592e-19)
(0.0001842 -0.000112437 7.54302e-22)
(0.0152115 -0.052599 -3.18299e-19)
(-0.141111 -0.00579267 -3.46213e-18)
(0.0152066 -0.0250036 -3.74581e-18)
(-0.352397 0.0359547 6.20903e-18)
(0.00107324 -0.00155273 5.94595e-18)
(0.0191658 0.055961 -2.68771e-18)
(0.00115573 -0.000239932 -8.28848e-19)
(-0.374997 -0.191827 -5.81606e-19)
(-0.108012 0.0784445 2.26604e-19)
(0.0139246 -0.552472 6.42343e-18)
(0.02846 -0.0146841 -2.77301e-18)
(-0.274813 1.05456 -4.9773e-17)
(0.00359862 -0.00807829 5.65651e-18)
(0.00258572 -0.00368431 2.96133e-20)
(0.0841642 -0.0719297 1.66183e-17)
(-0.0661379 0.00552264 -4.96762e-20)
(-0.0399047 -0.00703639 -3.60202e-19)
(0.0058549 -0.0109278 9.978e-18)
(0.0039547 -0.00759679 1.39036e-18)
(0.00128729 6.52346e-05 3.39134e-20)
(0.0216407 -0.0290417 -5.6449e-18)
(-0.124747 0.029841 1.35592e-17)
(0.0261268 -0.0283481 -3.26933e-18)
(0.00128602 4.6077e-05 -3.93475e-20)
(0.588689 0.0911742 2.57577e-17)
(0.0209246 -0.0222835 6.12446e-18)
(0.000447234 0.00431061 7.85739e-20)
(0.00449461 -0.00195846 5.89549e-18)
(0.000416317 -2.07234e-05 4.12029e-20)
(0.0308198 -0.0233058 1.87982e-18)
(0.0238585 -0.0232517 -2.86232e-18)
(0.00082814 -0.000218685 8.489e-20)
(-0.155732 0.0795618 4.12378e-18)
(0.0284536 -0.0145716 -3.02664e-18)
(0.00123178 2.82035e-05 5.53702e-20)
(0.00310085 -0.00386514 -3.70908e-20)
(-0.0503539 0.00885599 2.82137e-20)
(0.00148233 8.92695e-07 -1.02541e-19)
(0.00126805 3.46719e-05 -2.03692e-20)
(-0.150552 -0.202924 5.20068e-19)
(-0.10745 0.0317165 3.10557e-18)
(0.000788962 0.00023715 3.82505e-21)
(0.00251576 2.83971e-05 -1.80998e-18)
(0.00283173 2.68793e-05 6.87853e-19)
(-0.0591581 -0.150461 1.5008e-17)
(0.00405711 -0.00216229 -2.87255e-18)
(-0.0391845 0.0153656 -8.15788e-18)
(-0.0380137 0.0804311 -2.37497e-18)
(0.0231988 -0.0420315 7.17526e-18)
(-0.0044347 0.00163634 2.39087e-19)
(0.00327133 0.028465 1.09559e-17)
(0.0181835 -0.0238243 1.30361e-17)
(0.00728093 0.00310821 9.80993e-20)
(0.027608 -0.0181429 -3.64052e-18)
(0.0018742 0.00079024 -1.01492e-19)
(0.00194713 -7.78493e-05 1.88258e-19)
(-0.370888 0.020118 9.45743e-19)
(0.00116078 -0.000209923 2.02432e-18)
(-0.169569 -0.16593 -3.37637e-19)
(0.00226093 1.90035e-05 1.09378e-19)
(0.000769344 0.000222457 -9.14909e-20)
(0.0110217 -0.0979011 -5.21712e-18)
(0.202636 0.209236 -2.37117e-18)
(-0.0986136 -0.237584 2.82418e-18)
(0.573981 0.0727982 -3.13042e-17)
(0.00287391 4.87259e-06 -8.31287e-19)
(-0.00790201 -0.00076429 4.89883e-19)
(0.00107242 0.00253815 -3.04769e-19)
(-0.00240845 -0.00332371 -9.64564e-19)
(0.0270964 -0.0406794 -3.54656e-19)
(0.00274376 -0.0281528 -2.04822e-20)
(0.0312637 -0.0184713 1.06887e-17)
(0.00084986 -0.000718511 1.54125e-18)
(0.0416734 -0.032204 5.58501e-20)
(0.0562091 -0.00563567 -2.13542e-17)
(0.00284215 4.66934e-05 -9.96369e-19)
(0.240778 0.748043 1.19283e-17)
(0.00136614 8.12946e-05 -1.11566e-19)
(0.00164857 -0.00383682 4.21329e-19)
(-0.00253041 -0.00304548 -2.89114e-18)
(0.00159801 0.000381879 -9.03285e-19)
(-0.00438182 -0.000272508 -1.07991e-18)
(0.0109194 -0.0358623 -1.75122e-19)
(0.0282425 -0.028416 -6.29236e-18)
(0.000420781 -0.00217124 7.08483e-21)
(0.00917767 -0.00770297 -3.03713e-18)
(0.0871986 -0.389966 7.07548e-17)
(0.00192645 -0.00012566 -4.60224e-19)
(-0.00880237 -0.00133294 2.0425e-19)
(0.00114356 0.00148131 -2.1536e-19)
(0.00310817 -0.028224 2.85524e-21)
(0.01549 -0.0121489 -2.17719e-19)
(0.00663585 0.00282897 1.59511e-19)
(-0.259053 0.0538118 1.32882e-17)
(-0.138343 -0.00054126 2.41685e-18)
(0.00110049 0.000473299 -1.85045e-20)
(0.00159359 0.00040116 7.49245e-19)
(-0.102342 -0.2612 3.91646e-18)
(0.00195194 -0.000121189 3.57598e-19)
(0.0706888 -0.18193 1.1614e-17)
(0.0168241 -0.0236564 -9.08136e-18)
(-0.00354398 -0.00658099 -8.41495e-20)
(-0.00361616 0.0152244 1.38765e-17)
(0.00086344 -0.00045919 4.15221e-20)
(-0.00154475 -0.00867711 -3.19653e-18)
(-0.0433505 -0.0455381 -1.99152e-17)
(0.00115215 -0.000157676 1.2504e-18)
(0.0206106 -0.0540591 1.05195e-19)
(0.000216505 -0.000252945 2.37435e-21)
(0.000922256 -5.1884e-05 -4.34022e-20)
(0.0131997 0.00830464 1.15449e-18)
(0.002967 2.24521e-05 -4.65412e-19)
(0.0237066 -0.0294906 -4.02204e-18)
(-0.190343 0.126601 -5.82731e-19)
(-0.0153837 -0.0148445 -3.53468e-19)
(0.00998454 -0.343236 -1.54127e-17)
(0.00364983 -0.00514665 -1.14441e-20)
(0.0122735 -0.0154113 5.26349e-19)
(0.237591 0.238977 -3.38452e-18)
(0.000765021 -0.00353227 4.308e-18)
(-0.0061939 -0.000403238 1.9386e-19)
(-0.0123746 -0.0135012 -1.18283e-19)
(-0.00402298 -0.00533871 3.37854e-20)
(0.000115293 -0.000184414 5.91812e-20)
(-0.0041878 0.000895281 -3.14516e-19)
(-0.409856 0.249672 -3.79169e-17)
(0.00271607 1.95779e-05 -2.99084e-20)
(0.00173051 -0.00017588 1.28389e-18)
(-0.120091 -0.000427888 4.53492e-19)
(0.00109428 -0.000173229 9.08505e-19)
(0.216435 -0.132013 -1.99929e-18)
(0.00110022 -0.00765966 -8.95473e-18)
(-0.246655 -0.0487964 -2.34541e-18)
(0.000642976 -0.00122866 7.82966e-21)
(-0.0965569 -0.157289 -1.04601e-18)
(0.000488542 0.00385112 -1.94974e-19)
(-0.0550745 0.0100401 -1.61183e-19)
(0.000616208 -0.00060076 9.81896e-21)
(0.00138712 0.00194091 -2.37927e-19)
(0.0340635 -0.0217289 3.96148e-19)
(-0.0984477 0.0435344 6.90794e-19)
(-0.458004 -0.107614 -3.17947e-19)
(0.000983759 -5.04844e-05 1.89445e-18)
(-0.231237 -0.0566549 1.72008e-18)
(0.000668752 -0.00806224 -2.64978e-18)
(0.00119239 -0.00167175 -9.84857e-18)
(-0.0616725 -0.0363693 -5.7219e-18)
(0.0142375 -0.0242775 -3.98171e-18)
(-0.239743 -0.0849305 1.31602e-17)
(0.000685037 -2.47814e-05 1.74626e-20)
(0.00649271 -0.0134172 -2.60746e-19)
(0.000426329 -5.96304e-06 -5.01721e-20)
(0.0090985 -0.39397 -1.11279e-17)
(0.000548896 -0.000720243 -2.12622e-20)
(-0.00562871 -0.0343107 9.27594e-20)
(-0.0774541 -0.33528 1.80352e-18)
(0.00112944 0.00044175 -5.14885e-21)
(0.00300277 -0.00496401 1.62959e-20)
(0.0324491 -0.0240817 5.48552e-18)
(-0.027926 -0.0317634 -5.25093e-19)
(0.218571 -0.125115 -5.61725e-19)
(0.231026 -0.164871 -5.27876e-19)
(0.00128715 0.00240504 -1.68875e-19)
(0.0016279 -0.000212549 -2.54324e-18)
(0.0314308 -0.0101885 -1.38353e-19)
(0.0394532 -0.091017 5.96909e-19)
(0.00109747 -0.00479021 -1.9724e-19)
(-0.141379 -0.0082273 2.88596e-18)
(0.000497856 -3.35672e-05 2.12914e-20)
(-0.253311 -0.0916769 -2.92234e-18)
(0.0201579 -0.0233769 -7.334e-18)
(-0.0714754 -0.0411364 -3.11356e-19)
(-0.00305691 -0.00281848 1.01871e-18)
(-0.00569033 -0.00572789 4.54579e-18)
(0.0270129 0.000104069 -4.99406e-19)
(0.0477482 -0.0945218 -5.97319e-19)
(-0.000285235 -0.0012671 6.367e-19)
(-0.00308627 -0.0030737 2.05302e-18)
(0.0290231 -0.0164507 -5.57948e-18)
(0.00776159 0.306694 -2.4228e-19)
(-0.139494 0.138656 5.59707e-19)
(0.00936844 -0.117042 -5.03975e-18)
(0.0424586 -0.0391414 -1.97136e-17)
(0.000532298 -0.000242574 3.33047e-18)
(0.00124037 0.00210042 2.85208e-19)
(-0.013649 0.0124905 5.85412e-20)
(-0.027562 0.0128098 1.02751e-18)
(-0.00184913 0.00179208 9.32229e-21)
(0.0132166 0.0395203 -7.90766e-18)
(0.000619635 -0.00350501 6.92537e-18)
(0.000111256 -0.0012234 -1.53254e-18)
(0.00536222 -0.01028 -1.17177e-19)
(-0.058702 -0.0358013 4.19226e-18)
(-0.00714046 -0.0474536 2.28287e-19)
(0.0258034 -0.00590182 1.26807e-18)
(0.0013589 -0.00385723 -4.34078e-18)
(0.0107442 -0.0116755 1.43128e-18)
(0.0146236 -0.0239572 -5.44975e-18)
(-0.0166174 -0.00582453 2.41241e-19)
(0.00198889 -7.64471e-05 7.0377e-19)
(0.0166689 0.0543083 1.92501e-18)
(-0.0188569 0.0215656 -2.82387e-20)
(-0.265883 0.0809895 -6.50703e-18)
(0.0515968 -0.0370182 4.54198e-19)
(0.000607479 -0.00528598 2.63282e-19)
(0.000443821 -0.00116148 3.26779e-20)
(0.000346928 -3.92239e-05 1.33188e-20)
(0.029613 -0.0154698 -7.47647e-19)
(-0.0302673 0.0339847 2.21781e-18)
(0.1277 -0.294206 1.34787e-17)
(0.000464312 -0.000296665 8.66599e-21)
(0.000110575 -0.000139322 3.50727e-20)
(0.0118741 -0.00354999 2.45588e-18)
(0.0293226 0.0473177 -2.07551e-19)
(0.0329309 -0.0138183 -5.83383e-19)
(-0.00545154 0.000480981 -5.77439e-19)
(0.00133221 -0.00101321 -6.06749e-18)
(0.0146345 -0.0156877 2.88342e-20)
(0.0261952 0.0483634 -1.15346e-19)
(0.00514004 0.031946 -7.88491e-19)
(-0.00857906 -0.00152772 -2.66902e-19)
(0.0352787 -0.512474 1.22902e-18)
(0.00182729 -2.83311e-05 5.21254e-19)
(-0.227329 -0.10826 3.34692e-18)
(0.009145 -0.00733275 4.51502e-18)
(-0.00093564 -0.00679115 -2.02003e-18)
(-0.262804 0.0403144 -5.21998e-18)
(-0.000103869 0.00107366 1.13291e-18)
(0.0314059 -0.0185768 -2.0373e-18)
(-0.0828043 -0.0674201 1.12585e-17)
(0.000754927 -0.000294807 9.33546e-21)
(0.0229208 -0.0140366 3.22202e-18)
(0.00513408 -0.0114569 -2.50415e-18)
(-0.00543606 0.000686465 -1.78335e-18)
(0.239896 0.19316 3.81457e-17)
(-0.00880748 -0.00142298 8.02182e-19)
(-0.000529096 -0.00104389 -1.07033e-18)
(-0.0739039 -0.0188792 1.28854e-17)
(0.00118261 0.000732384 9.58816e-20)
(-0.00629299 -0.00620747 -6.0663e-18)
(-0.00384042 -0.000670757 -1.09515e-19)
(-0.249154 0.0804934 1.8607e-17)
(0.0800785 -0.0450688 -1.91061e-17)
(0.00096655 -6.04472e-05 8.03744e-18)
(0.02404 -0.0208138 8.57654e-18)
(0.000699571 -0.000109338 1.32174e-18)
(-0.0462947 -0.0430813 1.17731e-17)
(0.0456452 0.00636676 1.83218e-18)
(0.000439753 -2.32936e-05 -1.03665e-20)
(0.0011295 0.000308996 -8.53621e-20)
(0.0738682 -0.0453694 -3.6091e-18)
(0.00636862 -0.0125039 -3.04837e-18)
(0.00203333 -0.00367906 -6.14975e-18)
(1.26222e-05 -0.000130158 -8.96647e-21)
(-4.05276e-05 0.000931969 -1.72957e-18)
(-0.000703605 -0.000952155 3.47814e-18)
(0.0506058 -0.0408189 1.29072e-19)
(0.455406 0.241708 -1.12528e-17)
(-0.259468 0.168131 2.14879e-17)
(-0.0180265 0.0299717 -5.91859e-20)
(-0.24192 0.0416076 7.38128e-18)
(0.158944 0.0141275 9.86753e-18)
(0.000590089 -4.11479e-05 -2.93429e-19)
(0.011811 -0.0165485 -4.43949e-19)
(0.0372669 -0.0137253 -4.29458e-18)
(-0.0718593 -0.0359381 5.30758e-19)
(-0.0544765 -0.0746381 1.71416e-18)
(0.0177953 -0.0410613 -1.29783e-17)
(0.00947416 0.0211718 -6.89782e-18)
(-0.00531324 0.0147269 -2.27113e-19)
(-0.0934266 0.0945494 -7.78699e-19)
(-0.120631 -0.103039 -2.88682e-19)
(0.000559201 -4.98907e-05 -3.95871e-18)
(0.0313957 0.00891302 7.65061e-19)
(0.030347 -0.00711481 -2.07583e-19)
(0.101613 -0.111553 4.72361e-19)
(0.00231336 -0.0035642 2.26096e-18)
(-0.0550385 -0.0856852 3.94265e-18)
(0.0110722 -0.394725 6.24634e-18)
(0.00156471 0.000396406 -6.00691e-19)
(-0.0914015 0.143588 2.91904e-19)
(0.00117912 0.000328287 -7.06484e-20)
(0.000500649 -0.000106297 3.13264e-18)
(0.000465786 -6.44085e-05 -2.0772e-20)
(0.000814309 -0.000325061 -5.34601e-21)
(0.00166106 0.000398294 -7.74816e-19)
(-0.102541 -0.113628 -4.26168e-18)
(-0.0845036 -0.0143774 -2.1384e-19)
(0.000911927 -0.00026755 -1.02155e-18)
(0.0215164 -0.0130275 1.53136e-17)
(0.00141202 0.000910028 -4.70676e-20)
(0.0495444 -0.486941 -2.99571e-18)
(-0.025535 0.0054713 -9.32683e-19)
(0.115664 -0.32228 -1.42015e-17)
(-0.247579 0.091453 2.81028e-18)
(0.000853615 -0.000213748 5.83773e-19)
(-0.112585 0.0399821 2.7127e-20)
(0.00342202 -0.0120296 -1.19739e-18)
(0.123354 -0.314954 -1.04473e-17)
(0.00191478 0.000688398 -6.87009e-19)
(0.000794241 0.000290996 -1.00777e-20)
(0.00641598 0.0381194 -2.28354e-18)
(0.493922 0.103833 1.51806e-18)
(0.00270508 5.0026e-05 1.1658e-18)
(0.333879 -0.0795698 -3.02066e-17)
(-0.0819424 -0.0166304 8.22259e-20)
(0.0165217 -0.0432163 5.95314e-19)
(-0.249606 0.0169564 -5.177e-18)
(0.0395073 -0.0451773 5.12616e-19)
(0.0449463 -0.028518 -1.27376e-18)
(0.00906898 -0.0181939 -3.42533e-19)
(0.00198544 0.000203387 3.24866e-19)
(0.000373077 -3.84957e-05 2.83895e-18)
(-0.013708 0.0268636 -2.05177e-19)
(0.0249051 -0.0198295 4.33532e-18)
(0.137471 0.789914 -2.20151e-18)
(0.0164658 -0.0105142 7.82619e-18)
(-0.209616 -0.100506 -1.05833e-17)
(-0.0915485 -0.0801539 9.98607e-19)
(0.00133766 0.00104058 2.03493e-19)
(0.000542231 -0.000264917 2.10356e-19)
(-0.294288 0.144853 -2.46369e-17)
(-0.367554 0.029964 -6.20748e-18)
(-0.137132 -0.260261 -4.03025e-19)
(-0.0948995 0.0161882 8.65918e-18)
(0.0143748 0.0477544 1.59871e-18)
(0.00405613 -0.012888 -1.13273e-18)
(0.00129056 1.43816e-05 -5.65619e-21)
(0.142048 0.0067642 1.65542e-18)
(0.000893172 0.000327239 7.65301e-22)
(-0.016477 -0.00900727 -2.8725e-20)
(0.00658905 -0.0162221 -3.87053e-19)
(0.000757802 -0.000667146 -2.55853e-18)
(0.000371942 -1.76232e-05 1.12856e-21)
(0.000742801 -0.000227012 -1.83045e-21)
(0.00123782 0.00136838 -8.68815e-20)
(0.0207066 -0.0285681 4.50539e-18)
(-0.00692757 -0.055955 -1.08774e-18)
(-0.0868598 -0.0740763 -1.48842e-18)
(-0.0175302 0.0158981 2.09961e-19)
(0.0250898 -0.0222462 4.29959e-18)
(0.0278545 -0.00380268 -2.14092e-19)
(0.0447686 -0.0897124 9.06441e-19)
(-0.00759358 -0.00543768 7.32608e-19)
(0.106931 -0.123589 -1.56663e-18)
(-0.00115429 -0.00625581 3.72473e-20)
(0.0310088 -0.00768379 -4.14417e-20)
(0.000752734 0.000163458 3.15528e-20)
(0.000783591 -0.000222356 -1.93199e-21)
(0.000956256 -2.8938e-05 8.7945e-20)
(0.0896574 -0.0294668 6.64798e-18)
(0.0355958 -0.0146639 1.17053e-18)
(0.0182109 -0.0221699 -1.13393e-18)
(0.027695 -0.00170748 -1.32424e-19)
(-0.0478241 -0.0667297 4.29812e-18)
(-0.0330383 -0.0222154 -2.91422e-18)
(0.0281629 -0.017081 1.4114e-18)
(0.00285845 2.97571e-05 1.62758e-18)
(0.0343777 -0.0237996 -6.62438e-18)
(0.00190082 0.000630361 4.87149e-19)
(0.0556297 -0.0856309 -3.54988e-19)
(0.000561846 2.10954e-05 -6.53498e-20)
(0.136645 -0.174539 7.36692e-19)
(0.0857535 -0.0857544 1.10565e-19)
(-0.00160863 -0.0628193 -1.43414e-19)
(-0.208058 -0.0370691 -2.5053e-18)
(-0.00606343 -0.00520853 8.33703e-20)
(-0.00816811 0.044699 -1.4675e-20)
(0.0910796 -0.0901348 1.23513e-18)
(0.322729 0.253884 1.70527e-17)
(0.00027989 -0.000295331 1.44622e-20)
(0.0040937 -0.0147329 -3.02342e-18)
(0.0160729 -0.0248343 -2.89071e-18)
(-0.0193302 -0.0577857 -8.20136e-19)
(0.000910529 0.000307659 -4.90418e-21)
(-0.000761468 -0.000871693 1.22877e-18)
(0.0528261 -0.00412517 -3.13283e-17)
(0.0157679 -0.0382793 4.23048e-18)
(-0.0312046 0.0182489 8.26153e-19)
(0.112735 -0.24943 2.30186e-17)
(0.000673333 -3.87113e-05 -6.60922e-21)
(0.00103552 0.000267473 -4.05625e-20)
(-0.178222 -0.291959 9.81285e-18)
(-0.00903174 -0.00155528 -1.6716e-19)
(0.000363133 -0.00106636 -1.20632e-20)
(-0.264134 1.01001 1.3555e-17)
(0.00197956 0.000172227 -2.90454e-19)
(0.00834728 0.00553478 -4.79229e-19)
(0.000946248 -2.77313e-05 1.62569e-20)
(0.00656718 0.000581463 4.76726e-19)
(-0.00371617 0.000321474 -7.75199e-19)
(0.000604147 -0.00114117 1.64096e-20)
(-0.00630864 -0.00370479 -2.52664e-19)
(-0.0708932 -0.0118887 -1.35211e-17)
(0.00104305 -0.00025821 -3.3602e-18)
(0.0174258 -0.0125547 7.27072e-18)
(0.00231867 3.4115e-05 -6.55317e-19)
(0.00713842 -0.0199614 5.56122e-19)
(0.000467223 0.0287981 5.14699e-19)
(0.00179157 4.2839e-06 -5.12825e-20)
(0.0020197 0.000906328 1.05368e-18)
(0.00147969 3.06597e-06 -2.47108e-20)
(0.00140302 4.3123e-06 3.22119e-19)
(0.11867 -0.266917 3.75953e-18)
(0.000330039 -0.00124332 7.02127e-19)
(0.0296216 -0.0139307 1.80048e-18)
(0.00108404 -0.000137244 -6.99108e-19)
(0.00124036 1.68016e-05 -3.23514e-20)
(0.471293 0.435799 3.81799e-18)
(-0.222082 -0.0313079 -1.79594e-19)
(0.000930112 -0.000192477 2.05092e-18)
(0.00684161 -0.0231128 2.35098e-19)
(-0.00762349 -0.00618201 -1.32385e-19)
(0.0431539 -0.0792447 3.4459e-18)
(-0.403744 -0.17778 -2.59189e-18)
(0.00104182 0.000232791 1.88727e-19)
(-0.0844975 -0.0299373 -3.75324e-18)
(0.00182747 0.00068844 -8.5279e-19)
(0.022831 -0.0332615 -5.81543e-19)
(0.00092272 -0.000781395 3.33183e-18)
(-0.0466254 -0.385839 -1.48472e-17)
(0.000715264 6.64897e-05 -2.2703e-20)
(-0.0112615 -0.355239 2.58048e-17)
(-0.065241 0.193066 -5.89495e-19)
(0.00113283 0.000535088 -1.18484e-19)
(0.00180608 -0.025505 -1.61068e-18)
(-0.194406 0.00275783 7.26943e-18)
(-0.00825099 -0.0363693 -4.5995e-19)
(-0.0131662 0.0503249 -4.44718e-19)
(0.00252675 4.00732e-05 1.52115e-18)
(-0.0935482 0.117079 8.80509e-19)
(0.00277243 3.06933e-06 2.42507e-19)
(0.00172626 -0.000232754 4.09531e-19)
(0.00173484 -0.000147294 -2.97731e-19)
(0.000990187 -0.000624973 5.22725e-19)
(-0.361027 0.0309514 4.94797e-18)
(0.0269295 -0.0262891 -9.08674e-18)
(0.0272775 -0.0563865 -5.79102e-19)
(-0.0225676 -0.0156686 2.04227e-18)
(-0.0892098 0.0579113 -9.61394e-19)
(0.00061028 -0.00233951 1.0761e-20)
(-0.00493325 0.0756076 6.81381e-18)
(0.0579098 -0.0401582 -9.99968e-19)
(-0.000982967 -0.00913177 -7.72503e-19)
(0.00890156 -0.00837151 1.58354e-18)
(0.0382575 -0.071105 -6.18658e-18)
(-0.0603084 0.110479 -8.65399e-18)
(-0.0720178 -0.166618 -5.89175e-18)
(0.00103471 -1.81648e-05 7.56764e-18)
(-0.0344969 -0.36984 1.87877e-18)
(-0.429726 -0.0956572 6.33183e-19)
(-0.481366 0.245997 1.0672e-18)
(-0.00886509 -0.00126532 -3.83057e-19)
(0.00134311 -0.0285575 4.481e-19)
(0.0350968 -0.126044 9.90115e-18)
(-0.0116177 0.0399059 8.36437e-19)
(0.0604835 0.213051 -5.41521e-19)
(-0.0301324 -0.0133556 -5.41724e-19)
(0.163881 -0.157493 2.25244e-19)
(-0.00487474 -3.48615e-05 1.02341e-18)
(0.165756 -0.143986 -5.47471e-20)
(0.0241005 -0.179539 1.21629e-17)
(0.000739744 8.32746e-05 3.67305e-20)
(-0.0164639 0.0303346 -3.27434e-19)
(0.0280413 -0.026296 1.11435e-17)
(-0.220941 -0.0150665 -4.77053e-18)
(-0.00359451 -0.00279492 1.27597e-18)
(0.00160781 -0.000263404 8.15418e-19)
(0.00159817 0.000384086 6.31126e-19)
(0.00145841 0.000394182 -9.61469e-20)
(0.0225672 -0.0292779 -6.48377e-18)
(-0.00901139 -0.0209845 8.88744e-19)
(-0.250317 0.920082 4.14829e-17)
(0.124981 -0.122425 1.99414e-17)
(0.00167533 -7.39945e-05 3.03816e-19)
(-0.150398 -0.245623 3.27623e-19)
(-0.135147 -0.0246225 1.67902e-18)
(0.0489155 -0.0160731 9.94308e-19)
(0.0759728 -0.0628048 1.00338e-19)
(0.0166 -0.0130129 -1.05242e-17)
(0.000314756 -0.000866528 -1.3809e-20)
(0.000773449 -0.000167193 -2.11416e-20)
(-0.0138392 -0.0311697 -3.74404e-19)
(-0.0189943 0.0800265 -9.63579e-18)
(0.00160973 -0.00405127 2.25698e-18)
(0.0603515 -0.0255451 1.12067e-18)
(0.0570947 -0.0778493 -1.34724e-17)
(0.00117066 0.000218289 9.52972e-20)
(0.0307507 -0.00750732 -1.21037e-18)
(-0.0679092 0.117232 2.94196e-18)
(0.0872456 -0.106891 3.39783e-19)
(0.0166865 -0.0347605 -1.82772e-17)
(-0.359029 0.0272265 -4.22627e-18)
(0.0363204 -0.200043 6.99378e-18)
(0.00194706 0.000766406 -7.33228e-19)
(0.000755871 -0.000693203 -5.45179e-18)
(-0.166819 0.595789 2.04383e-18)
(-0.0917956 -0.0728701 1.92258e-18)
(0.0594308 -0.0587621 -3.53245e-18)
(0.0164099 -0.00942993 -9.06267e-18)
(-0.106003 0.124879 -5.45765e-19)
(0.000905927 -0.000326502 8.17153e-21)
(0.00179103 8.60163e-05 -5.29455e-20)
(0.142248 -0.1598 4.70904e-19)
(0.00108062 0.000163263 -7.58148e-20)
(-0.00358858 -0.00252642 6.96897e-20)
(0.000782028 -0.000557905 3.19983e-21)
(0.0024337 0.000197232 -7.55728e-19)
(0.0138035 -0.174274 -1.41521e-17)
(0.0216557 -0.0285224 2.0199e-18)
(0.0243718 -0.000953979 1.32023e-18)
(0.00108161 4.19724e-05 -9.26803e-20)
(0.378836 -0.0830584 1.27169e-17)
(-0.00128485 -0.000685426 -1.02623e-18)
(0.00185768 0.000123572 5.16482e-19)
(0.00135732 2.45342e-05 -1.89802e-20)
(-0.00200861 0.00142594 5.14932e-19)
(0.000604893 -3.88281e-05 -3.82589e-19)
(0.474974 0.139336 5.02292e-18)
(-0.0595422 -0.0305579 2.13386e-19)
(-0.065117 -0.00892754 6.87906e-19)
(-0.511441 0.402514 3.6286e-17)
(-0.088166 0.0957472 -1.1903e-18)
(0.014061 -0.00832053 -1.0894e-17)
(-0.226504 -0.00548255 -8.59358e-19)
(-0.254188 -0.0355528 -3.5113e-18)
(-0.00924597 0.0169051 -6.29401e-19)
(0.0143588 -0.0136489 3.51707e-18)
(0.000241631 -0.000921476 -3.36164e-21)
(-0.00455783 -5.46717e-05 6.2475e-20)
(-0.0168385 -0.015038 -3.27191e-19)
(-0.0648168 0.00669508 2.34671e-19)
(-0.0567643 0.0783541 -1.36812e-18)
(0.0567976 -0.0261767 5.22928e-18)
(-0.00046923 -0.0135101 3.17261e-18)
(0.000938445 -0.000140547 -9.44458e-21)
(-0.0170667 -0.00250143 -1.50172e-19)
(-0.00291639 0.00569647 -5.43337e-19)
(0.00861593 0.0690463 -3.66624e-19)
(0.024949 -0.0289132 8.03403e-18)
(0.00122006 -0.000123722 -3.68724e-18)
(-0.0233894 0.0276569 6.59351e-19)
(0.00097666 0.000247226 1.60043e-20)
(0.00636172 -0.00933707 -5.54734e-18)
(0.0191745 -0.01986 3.14759e-18)
(0.00112878 -0.000893696 -3.78406e-18)
(0.0019742 0.000648715 -2.57331e-19)
(-0.0282653 0.00279473 -7.04758e-19)
(0.000763062 -0.000726061 -2.7339e-18)
(0.0220984 -0.0299244 4.9955e-20)
(0.0867498 -0.0402795 -8.44685e-19)
(0.0157788 -0.0258456 5.10328e-18)
(-0.016086 0.000948553 -2.13689e-19)
(0.0650854 -0.0608155 7.87288e-18)
(0.000981107 -0.000136769 -6.43775e-20)
(-0.142519 -0.130812 9.15838e-19)
(0.0328604 0.0052608 3.52611e-19)
(-0.548796 0.378458 -3.77401e-17)
(0.0002552 0.00343562 4.86253e-19)
(0.00130494 6.05355e-05 -1.95341e-20)
(-0.125225 0.0460521 -6.92118e-18)
(-0.00546396 0.00474478 -1.02657e-18)
(-0.213149 -0.0439965 8.06649e-18)
(-0.158177 -0.108461 -6.02265e-18)
(-0.321852 -0.228186 -1.10802e-17)
(-0.294883 0.850781 1.71298e-17)
(0.000874185 0.000253049 1.12972e-20)
(-0.0851238 0.0256115 -1.46475e-17)
(0.000946525 -0.00603129 1.91978e-20)
(0.00232318 0.000212388 3.07032e-19)
(0.000701749 2.31801e-05 2.68986e-20)
(0.00242362 0.000220736 -2.64671e-19)
(0.00232919 -0.0167715 1.07187e-20)
(-0.0182076 0.0200966 -1.20167e-19)
(0.00198619 -0.00184857 -1.44527e-19)
(0.000990587 5.34117e-06 2.26261e-19)
(0.179092 -0.0578215 7.11814e-18)
(-0.124686 0.205917 -2.02103e-19)
(0.189611 -0.0460134 -3.93763e-18)
(0.00159013 0.000273251 -3.96684e-19)
(0.000585067 -8.22876e-05 3.94461e-20)
(0.000280681 4.60299e-05 -1.47706e-19)
(0.0403727 -0.018977 1.52227e-18)
(0.31595 0.13724 3.27545e-18)
(0.0330493 -0.0107221 4.76938e-17)
(0.00626558 -0.00986774 9.47119e-18)
(0.00158512 -0.00635714 -8.57654e-21)
(0.00132577 2.76194e-05 5.04495e-20)
(0.00177999 -3.54784e-05 3.13831e-20)
(0.00138366 0.000348999 3.8061e-19)
(-0.0151975 -0.0741325 -3.38803e-18)
(-0.0568849 -0.467397 -1.13427e-18)
(0.000834813 -0.000660607 -1.91619e-18)
(0.000964776 -0.000102212 -8.61907e-20)
(0.000926742 -0.000631447 -3.96348e-18)
(0.00154133 0.000366018 -4.56122e-20)
(0.0962293 -0.194198 1.16867e-18)
(0.0397865 -0.342412 2.58313e-17)
(-0.0182702 -0.00378927 -2.71542e-20)
(-0.155193 0.0576741 -1.08866e-17)
(-0.0823268 0.128232 -5.73958e-19)
(0.00187142 0.000605297 3.87381e-19)
(0.0245264 -0.0524841 4.81548e-18)
(0.43614 0.173317 -2.88679e-17)
(0.0151411 -0.0145257 9.08147e-18)
(0.0114613 -0.558134 1.86037e-17)
(0.00103399 -0.00150243 -3.59118e-18)
(-0.0149585 0.0106825 9.04764e-20)
(0.0324876 -0.0107704 -4.07484e-17)
(-0.0141308 0.0153823 -1.01493e-19)
(-0.0380474 0.0101939 9.2811e-19)
(0.00107181 -0.000170345 -3.58532e-19)
(-0.00314147 -0.0278482 -2.40569e-18)
(0.000554229 1.14359e-05 4.91315e-20)
(0.0122925 -0.000838802 -1.34096e-17)
(-0.201025 -0.0497891 -5.84846e-18)
(0.000266068 0.000411959 1.10754e-19)
(-0.00289046 0.00535146 -7.21053e-19)
(-0.0729113 0.131338 -2.92937e-18)
(0.0017108 -0.000258392 5.45191e-19)
(-0.00162208 -0.00797721 2.64036e-18)
(0.0026447 0.0076441 3.06567e-18)
(-0.253875 -0.123833 6.83282e-19)
(0.0243152 -0.0285874 4.83188e-18)
(0.0240414 0.0333406 3.5711e-18)
(0.0382349 -0.0564861 1.80649e-19)
(0.000707386 -0.00052777 1.9091e-20)
(0.00159815 0.00026685 -6.76777e-19)
(0.321206 0.548158 -2.93219e-17)
(0.0612096 -0.0738307 1.66111e-17)
(-0.0251573 -0.0420887 -7.43828e-19)
(-0.139578 -0.111735 6.77916e-18)
(0.000790919 0.00091858 -5.08981e-20)
(-0.000148895 -3.47596e-05 -8.44716e-18)
(0.000744619 0.000137971 -2.66878e-20)
(-0.0983318 0.0674174 -1.27485e-18)
(0.0726991 -0.186809 -2.1205e-17)
(-0.00769282 -0.00162624 2.00935e-18)
(0.00332193 0.00236745 4.69533e-19)
(0.00239672 0.0158924 -2.58128e-19)
(0.00393363 -0.00595495 9.28114e-18)
(0.000271114 6.23549e-05 1.52979e-20)
(-0.24308 -0.24917 -8.45396e-18)
(-0.0101399 0.347122 -7.24707e-18)
(-0.0932367 -0.0381709 3.18784e-18)
(0.00120379 0.000615465 1.65215e-22)
(0.000800278 -0.00065087 4.88151e-18)
(-0.191714 -0.00490178 3.16312e-20)
(0.0442439 -0.246644 -5.9356e-17)
(0.0768447 -0.0613684 1.61958e-17)
(-0.00201743 0.00445855 1.57448e-19)
(-0.0272223 -0.188012 -3.47408e-18)
(0.00115048 -0.000195663 -3.51528e-18)
(0.0176984 -0.00285465 -9.39751e-20)
(0.0520931 -0.0789315 3.26044e-20)
(0.000604728 -0.0678822 -4.21598e-19)
(-0.00482595 -0.00530955 1.86561e-18)
(-0.373285 -0.212218 -4.63567e-18)
(0.0160156 -0.0147721 1.28916e-18)
(0.00562807 0.00518221 6.764e-19)
(0.12934 -0.175655 -1.26346e-17)
(0.00127064 6.9196e-05 1.20687e-21)
(0.00294662 1.26756e-05 -3.45513e-19)
(-0.00399338 0.000225821 -6.79416e-19)
(0.00100497 -9.05692e-05 7.48757e-22)
(-0.241796 -0.254496 -3.25867e-18)
(-0.00992384 -0.0151804 -1.04694e-18)
(0.01652 -0.0368663 6.98215e-18)
(0.0240009 0.00104546 -7.19742e-19)
(-0.01492 0.0204147 1.0728e-20)
(0.000963794 -0.000188273 2.31066e-20)
(-0.00816043 0.00443694 -3.79658e-18)
(0.00212602 -1.11035e-05 2.96874e-19)
(0.0139868 -0.0181975 4.22374e-19)
(0.000678744 1.49053e-05 -1.66405e-20)
(0.00185109 0.0005987 -8.246e-19)
(0.00273971 0.000104648 6.48737e-19)
(-0.0848003 -0.0618516 -1.38108e-17)
(0.00166658 0.000401102 -3.44291e-19)
(0.000788945 0.00048799 -3.89332e-20)
(-0.0133374 0.0621968 6.35262e-18)
(0.000870521 -0.000748814 2.41486e-19)
(-0.184897 -0.0145633 -1.87934e-18)
(0.000540125 4.11609e-05 -1.04696e-20)
(-0.00614585 0.002699 3.35339e-19)
(0.0376791 -0.0241546 3.49361e-18)
(0.103367 -0.220106 2.9836e-18)
(-0.0886505 0.0110463 -3.20308e-20)
(0.00163826 -3.36732e-05 -1.18119e-19)
(0.0194409 -0.0140503 -7.24645e-19)
(-0.131592 0.0743408 3.84078e-18)
(0.000202892 -0.00130031 3.38002e-19)
(-0.0630268 -0.0810251 2.84592e-19)
(0.0122057 -0.00128949 2.25092e-17)
(0.000960719 -3.51813e-05 -5.84471e-20)
(0.0291233 -0.00133202 4.58782e-19)
(-0.228583 -0.23454 -1.27873e-18)
(0.023928 -0.0127178 -7.58395e-19)
(-0.00705787 -0.00441771 5.79829e-19)
(0.00179482 -5.87571e-05 -1.39955e-19)
(0.00087078 -0.000122475 4.04951e-20)
(0.0879909 -0.0809362 -1.96549e-18)
(0.00232666 -0.0814135 4.98018e-19)
(0.0405315 0.0431863 -1.21869e-20)
(-0.0084149 -0.00146709 4.87865e-19)
(0.0277383 -0.00469322 1.30423e-18)
(0.000929721 -2.20336e-05 -6.98427e-18)
(-0.00487002 0.00356035 7.60594e-20)
(0.0684056 -0.0106798 -5.25204e-18)
(0.0286485 -0.00948056 -1.14697e-19)
(0.0241874 -0.0311561 5.50877e-18)
(-0.0597411 0.0418486 9.53479e-19)
(0.000743525 -0.000586408 -2.11243e-18)
(0.0231306 -0.031856 1.84857e-18)
(0.0322453 -0.0342889 2.2792e-17)
(-0.240754 0.0967447 2.58687e-17)
(-0.0076184 -0.00133969 -2.07285e-19)
(0.152435 -0.1519 1.12474e-17)
(-0.0178131 -0.0129264 -6.2522e-18)
(0.000873425 -0.000766999 3.50988e-18)
(-0.329632 -0.115476 6.9707e-18)
(-0.126793 -0.0883623 8.74789e-19)
(0.0576943 0.206872 -3.21643e-17)
(-0.288427 0.0723736 -4.08629e-18)
(-0.079493 -0.0307745 4.28167e-18)
(-0.0700212 -0.054497 9.97256e-19)
(-0.0248612 -0.0206637 -6.80745e-19)