/*--------------------------------*- C++ -*----------------------------------*\
| =========                 |                                                 |
| \\      /  F ield         | OpenFOAM: The Open Source CFD Toolbox           |
|  \\    /   O peration     | Version:  v2012                                 |
|   \\  /    A nd           | Website:  www.openfoam.com                      |
|    \\/     M anipulation  |                                                 |
\*---------------------------------------------------------------------------*/
FoamFile
{
    version     2.0;
    format      ascii;
    class       volScalarField;
    location    "650";
    object      k;
}
// * * * * * * * * * * * * * * * * * * * * * * * * * * * * * * * * * * * * * //

dimensions      [0 2 -2 0 0 0 0];


internalField   nonuniform List<scalar> 
13851
(
0.000163271
0.0176438
0.000243012
0.000162497
0.000236808
0.000312324
0.000146837
0.00019889
0.000139324
0.000458377
0.00791626
0.0199046
0.000500472
0.0152323
0.000143898
0.000176806
0.000158077
0.000167344
0.000402995
0.000139097
0.000161237
0.000236673
0.000152772
0.000152966
0.000155959
0.000200722
0.000157135
0.0052202
0.000161576
0.000153899
0.000308203
0.000158985
0.000238466
0.00329224
0.000151422
0.000445283
0.00138508
0.000328402
0.000500668
0.00256606
0.000145807
0.000132334
0.0180783
0.00729129
0.00711425
0.0451356
0.00632131
0.00655842
0.000157847
0.000384644
0.000238255
0.000324128
0.0294823
0.000145733
0.000152397
0.00013238
0.000144988
0.0206346
0.000153536
0.000147261
0.000334589
0.00219526
0.00333836
0.000251606
0.00263243
0.000172884
0.00202628
0.00542122
0.000179998
0.000167071
0.0138123
0.0078856
0.0180635
0.000146658
0.000141419
0.000142484
0.000232803
0.00641903
0.000200015
0.0166577
0.000148698
0.00753698
0.00014352
0.0471016
0.00481514
0.0183502
0.00027676
0.016879
0.000160186
0.000143064
0.000448437
0.00546704
0.00493715
0.000166254
0.000159736
0.000154571
0.000239556
0.00114484
0.000190182
0.000155304
0.054009
0.000205294
0.000152554
0.000156284
0.0001498
0.000330698
0.000212399
0.000131033
0.0163856
0.000312633
0.000156661
0.000143865
0.00165922
0.0001597
0.000155932
0.0125704
0.000870954
0.000131323
0.000156776
0.000156928
0.017821
0.000155922
0.000503931
0.0043674
0.0072942
0.000179582
0.00867626
0.000202821
0.000160694
0.000287853
0.000145475
0.000138533
0.0150564
0.000143521
0.0119507
0.000140074
0.000131417
0.00461835
0.00748411
0.0131075
0.0535665
0.000151797
0.00016645
0.000139374
0.000152589
0.00725469
0.00187517
0.000288742
0.00014661
0.00677872
0.000250496
0.000153377
0.0336387
0.000145144
0.00015259
0.000152287
0.000142065
0.000151446
0.00032062
0.000236421
0.000133638
0.000166406
0.0239839
0.000138424
0.000162116
0.000135314
0.00188667
0.000180902
0.000159739
0.00617223
0.00644705
0.000136677
0.000142326
0.00705722
0.000138329
0.00709731
0.000200456
0.000158982
0.000415933
0.000131223
0.000160839
0.00665413
0.000143456
0.000242978
0.000131953
0.000149617
0.000172934
0.000147407
0.000246043
0.00485541
0.0059309
0.031
0.000148668
0.000180191
0.00181248
0.00015199
0.000162032
0.00053562
0.000157015
0.00014269
0.000180034
0.0465575
0.000167804
0.000142912
0.000400774
0.000143599
0.00164457
0.000158808
0.00884476
0.0001316
0.00198265
0.000152017
0.00115733
0.000130772
0.00013738
0.00730352
0.00364367
0.04146
0.000143161
0.00784454
0.000159232
0.000148961
0.000736477
0.000296963
0.0074485
0.000152408
0.000170917
0.000153424
0.0368401
0.000130817
0.000198382
0.0115711
0.000136574
0.000147075
0.000227562
0.000214173
0.00150283
0.0028294
0.000138909
0.000143006
0.000308146
0.0104148
0.000143299
0.000489258
0.000144548
0.00652753
0.000206493
0.00198765
0.000152336
0.000159426
0.00028057
0.0108132
0.000148081
0.000152623
0.000208513
0.0113807
0.00324544
0.00399358
0.00543353
0.00014419
0.000137837
0.000165314
0.000685917
0.000144385
0.000438112
0.000151898
0.000147999
0.000164875
0.000651874
0.00365393
0.000259502
0.000152525
0.000311079
0.000196801
0.000174766
0.000138644
0.00743818
0.00556652
0.0211337
0.00736299
0.000145113
0.000131213
0.000148923
0.000205136
0.00072464
0.0111152
0.000140502
0.000144097
0.000300089
0.00813356
0.00029932
0.00015278
0.000147332
0.000184701
0.00785493
0.000433652
0.000160904
0.01413
0.000138847
0.00550343
0.000165372
0.000157515
0.0161274
0.00014758
0.000316961
0.00142745
0.000140201
0.000195779
0.000166554
0.000152372
0.00796016
0.000161383
0.000147736
0.000758406
0.000133078
0.000160054
0.000200298
0.0204765
0.000362975
0.000143188
0.000207813
0.000143493
0.00530521
0.000755687
0.000150155
0.000145181
0.000359319
0.000169333
0.000152423
0.000144116
0.000147357
0.000147568
0.00752247
0.0592238
0.00546053
0.000185098
0.0160206
0.000587511
0.000143475
0.000181431
0.000299408
0.00576903
0.000547655
0.000305151
0.000402529
0.000223283
0.00954756
0.002188
0.00014416
0.00208133
0.00174836
0.000545314
0.000152412
0.000822964
0.0351105
0.000142749
0.0102726
0.000144981
0.000143586
0.00014238
0.000131019
0.000141275
0.00172525
0.00595206
0.000144059
0.000192907
0.00013402
0.0133512
0.000188449
0.0164114
0.0047946
0.000144274
0.00585422
0.000166631
0.0141179
0.000144623
0.000131491
0.000754676
0.0361443
0.00014437
0.00453893
0.00670639
0.000323853
0.0161946
0.00269996
0.00277169
0.000193231
0.000139128
0.000150545
0.000178962
0.000207299
0.0190418
0.000180866
0.00659597
0.0015849
0.000134261
0.000144304
0.00684992
0.0168916
0.00941374
0.000799311
0.00161421
0.000168116
0.000154506
0.000536974
0.000138039
0.000175563
0.000181169
0.000145944
0.000151586
0.000140031
0.000135059
0.000249789
0.000224281
0.00519964
0.000170645
0.000212127
0.000218418
0.0105627
0.000161485
0.000660894
0.000156783
0.00693246
0.000131292
0.000139765
0.000152365
0.000374566
0.0100434
0.000289259
0.000213128
0.00519764
0.00396382
0.000268032
0.000159434
0.000229434
0.000144279
0.0096778
0.000149854
0.00125629
0.00758483
0.000236473
0.00852222
0.00016385
0.00535341
0.00876325
0.0293048
0.000130879
0.000171402
0.000201904
0.00471103
0.000137439
0.000147604
0.000239351
0.00031612
0.000187837
0.0111708
0.000152028
0.000146074
0.0357114
0.00016386
0.000131012
0.0160663
0.00013902
0.000163393
0.000138021
0.000180497
0.000150623
0.000131408
0.000161815
0.000697246
0.000143658
0.000184976
0.00013954
0.00023539
0.00671316
0.000160117
0.000146389
0.000159948
0.000160513
0.00919164
0.000148
0.000290707
0.000143437
0.000151351
0.040697
0.00926609
0.000143889
0.000249026
0.000162065
0.00937997
0.0471702
0.00014638
0.00610799
0.000144864
0.000235325
0.000146445
0.0416104
0.00013218
0.0298624
0.00308896
0.000132534
0.000251124
0.00343707
0.000201005
0.00490436
0.000154475
0.00843587
0.000155207
0.000137982
0.000138733
0.000146014
0.0183156
0.000225737
0.000355859
0.0004494
0.00231218
0.000134173
0.00051849
0.0107275
0.00016145
0.000166882
0.00733378
0.00436775
0.00174937
0.000151972
0.0407605
0.0476494
0.0440133
0.00016304
0.000219858
0.00794425
0.00559114
0.00819727
0.000805223
0.00127476
0.000151875
0.00155046
0.000894074
0.000131357
0.0054357
0.000228216
0.00912804
0.000152673
0.000142436
0.00014173
0.000143931
0.000243516
0.000187116
0.0180947
0.00882648
0.000139086
0.0308633
0.00649362
0.000276227
0.0108915
0.000183901
0.000130719
0.000139591
0.00362967
0.000524786
0.000152908
0.00028311
0.000466702
0.0001322
0.000240441
0.00696313
0.000494952
0.000292946
0.0182319
0.00118125
0.000145228
0.000146101
0.0128698
0.00160985
0.000385275
0.000180503
0.00595036
0.000131191
0.000142064
0.00148623
0.000131883
0.000152386
0.000131086
0.000139233
0.000877969
0.000245486
0.000203356
0.000131743
0.00420455
0.000594191
0.000139094
0.00014215
0.000145003
0.000149486
0.0325361
0.0014326
0.00159636
0.0379236
0.00618595
0.000177052
0.00825418
0.010143
0.000246477
0.000180925
0.000130715
0.000197996
0.000180576
0.000582012
0.00377346
0.000281735
0.000168433
0.000138706
0.000175458
0.000171461
0.00593392
0.000234641
0.000143303
0.000188239
0.000137396
0.000164364
0.000289154
0.000146907
0.000144055
0.000189657
0.000146544
0.000237275
0.000364541
0.000291568
0.000176083
0.000404924
0.000138539
0.00887392
0.000375432
0.0322452
0.0001513
0.00015487
0.0130992
0.0001549
0.0216765
0.00306378
0.0413646
0.014571
0.000137915
0.010428
0.000150373
0.00013915
0.000132085
0.000139281
0.000422008
0.000174793
0.000178758
0.000131489
0.000720679
0.0046793
0.000744367
0.00014084
0.00013336
0.00014521
0.000297084
0.0014157
0.000209641
0.000165129
0.000149855
0.000152446
0.000144675
0.000142714
0.000508204
0.030759
0.000146274
0.00013136
0.000146184
0.000142674
0.00107995
0.0286731
0.000176873
0.00186537
0.00684661
0.000143758
0.000345324
0.032381
0.000183757
0.0220598
0.000148585
0.000165427
0.000208507
0.000167772
0.000849771
0.000143747
0.00636527
0.000151162
0.000172157
0.00732727
0.000144738
0.00015428
0.00428774
0.000138067
0.000159647
0.000315174
0.0086532
0.00023134
0.000418191
0.00403858
0.000130901
0.000140575
0.0304765
0.00046286
0.000215095
0.00259697
0.000139407
0.000166137
0.0001315
0.00753645
0.000799867
0.000157569
0.000152619
0.00695534
0.000157403
0.000144574
0.0308108
0.0154831
0.00356721
0.000132844
0.000146182
0.00755533
0.0186726
0.000446924
0.000165731
0.00251344
0.000143641
0.00716865
0.00033211
0.000243748
0.000157536
0.0425242
0.000204321
0.000186206
0.00105189
0.000153718
0.000167416
0.000150988
0.0001384
0.0358054
0.000174844
0.000299485
0.000200803
0.00640638
0.000138874
0.000318093
0.000152602
0.000201975
0.000134618
0.000143292
0.000144662
0.00151028
0.000141546
0.000131941
0.00894016
0.000146375
0.00810643
0.000153882
0.00016814
0.000238272
0.00380864
0.00687525
0.000140273
0.000321005
0.00152334
0.000148086
0.000887794
0.000171543
0.000138148
0.00034374
0.0223695
0.000320343
0.000159342
0.000139897
0.00013116
0.0103082
0.000271084
0.000251243
0.000159897
0.000323908
0.00014989
0.000166277
0.000281474
0.00734669
0.000242071
0.00337135
0.00014594
0.000236667
0.000259883
0.0221615
0.00015701
0.0024122
0.000429037
0.000146549
0.045012
0.00914396
0.0010262
0.00843134
0.0011179
0.00549826
0.000192527
0.00013826
0.000177379
0.0189192
0.0455119
0.000143829
0.000152273
0.000229467
0.00629843
0.000132761
0.0260641
0.000139055
0.00014399
0.0380486
0.00718778
0.00406469
0.00013905
0.000143742
0.0216646
0.000497114
0.000349898
0.00017936
0.0032522
0.000449136
0.000904844
0.000211658
0.00019193
0.000147711
0.000146328
0.0218654
0.000203671
0.016443
0.00160236
0.000179954
0.037851
0.00125863
0.00695724
0.000144503
0.000173853
0.000138981
0.000177557
0.000154287
0.0246931
0.000165772
0.0155941
0.00013265
0.000234909
0.000142657
0.000395563
0.000178261
0.000173065
0.00189174
0.00019578
0.000183505
0.00015482
0.000234014
0.00861785
0.00902827
0.000152444
0.00681968
0.000143429
0.0129332
0.00622577
0.000146451
0.00249515
0.0461203
0.00784811
0.00626661
0.0011829
0.000143975
0.00400012
0.000166615
0.0123472
0.00961088
0.000140938
0.000152419
0.000356375
0.00146852
0.0050439
0.000145789
0.000140691
0.015105
0.00810894
0.000292582
0.000158264
0.000167643
0.00647274
0.0448797
0.00026199
0.000132022
0.000193662
0.000138141
0.00016173
0.00177954
0.00015623
0.00100119
0.00829822
0.000144136
0.000168314
0.000144307
0.00015102
0.0113433
0.00384732
0.00017054
0.00218598
0.000142537
0.000170438
0.000143426
0.000138227
0.000146492
0.000144012
0.0116916
0.000143918
0.000208476
0.000144568
0.000160038
0.00242281
0.0144905
0.000154585
0.0151308
0.000283209
0.000495187
0.000176406
0.00017772
0.0142768
0.000164462
0.000212317
0.0239062
0.00187516
0.0345208
0.000190978
0.00685963
0.000150807
0.000192587
0.000206806
0.00251473
0.000143594
0.00461786
0.000140367
0.000141068
0.0105437
0.00017175
0.000452587
0.000158244
0.000138844
0.000229105
0.000138973
0.000143791
0.000160989
0.000148267
0.00070726
0.000141159
0.00048985
0.0438646
0.000306314
0.00790297
0.000146065
0.000154503
0.000224812
0.000144214
0.000138763
0.000254921
0.000149247
0.000140717
0.000152772
0.000153947
0.00675172
0.0315088
0.0094332
0.00090885
0.000531515
0.000142078
0.0114402
0.000168033
0.000141047
0.00552443
2.86052e-05
0.0122869
0.000141822
0.00670727
0.00353372
0.0311443
0.000136826
0.00049117
0.000172953
0.000156579
0.000164662
0.000139355
0.00391784
0.0091769
0.0115047
0.000143971
0.000143111
0.00936603
0.00014654
0.00134158
0.00601652
0.0116234
0.00043175
0.0056125
0.000150574
0.000144156
0.00567721
0.000221409
0.000156318
0.000340989
0.00019379
0.000149437
0.0001645
0.0335104
0.000141064
0.00532305
0.000513109
0.0118038
0.000374018
0.000152952
0.00014035
0.000151684
0.00946186
0.0101573
0.000136833
0.000161974
0.000143742
0.000247632
0.000133919
0.000143116
0.000149106
0.00017808
0.000712523
0.000204475
0.000182623
0.000145101
0.000207735
0.000455237
0.00015074
0.0421342
0.000526118
0.000259208
0.000136236
0.000197117
0.000142428
0.000150995
0.000151021
0.00614702
0.000358422
0.00873938
0.000156547
0.00691235
0.00014276
0.000151225
0.000148311
0.0111556
0.000570348
0.000132911
0.000177206
0.0002224
0.0132217
0.000160343
0.0141938
0.000399942
0.002035
0.000286167
0.000764021
0.000286478
0.000254242
0.00039176
0.00625887
0.00583085
0.0450234
0.000144248
0.0148973
0.000133702
0.000152722
0.000162915
0.000146424
0.00727384
0.000169564
0.0001659
0.00653285
0.000340586
0.00761715
0.000143329
0.000155386
0.000158612
0.000141452
0.000183963
0.0109556
0.00169097
0.0123707
0.000140695
0.000164712
0.000186664
0.00492012
0.000650336
0.00552975
0.000140149
0.00014891
0.0418805
0.000198743
0.00624292
0.000563065
0.000631598
0.000135867
0.000604415
0.000182133
0.000196142
0.000168339
0.00119055
0.00795793
0.000281968
0.0115832
0.00015262
0.000208402
0.000144007
0.0337537
0.000222708
0.00745114
0.00723125
0.000162461
0.000402219
0.000151589
0.00121054
0.000487295
0.000147095
0.0189615
0.00634323
0.0180383
0.00494955
0.000145205
0.000144402
0.00963985
0.000464671
0.0435261
0.000153064
0.000146151
0.000144185
0.00719493
0.000444717
0.00014814
0.00179813
0.000274324
0.00136632
0.000573557
0.014146
0.000144153
0.0019557
0.000158483
0.000146143
0.000375693
0.00170378
0.000146931
0.000140261
0.0116582
0.000895552
0.000170686
0.000140567
0.00760632
0.000145233
0.00390494
0.000140704
0.00877456
0.000144558
0.000209927
0.0132598
0.000650993
0.000151143
0.0231148
0.00763944
0.000808396
0.000460925
0.00205788
0.000947787
0.000142272
0.000508719
0.00016019
0.000143486
0.000141322
0.0128758
0.000143567
0.00163429
0.000140459
0.00019193
0.00547674
0.000238979
0.000954324
0.000151582
0.000315305
0.000138639
0.000177433
0.000924769
0.0547827
0.000139769
0.000227165
0.00823055
0.000148353
0.000139687
0.00519626
0.000181027
0.000180709
0.000344066
0.0242393
0.000642905
0.0010211
0.00576536
0.00134349
0.00708337
0.0103423
0.00754655
0.000225942
0.000136725
0.000360774
0.000142274
0.000142296
0.0337081
0.00612677
0.000153643
0.0653134
0.0070981
0.00558818
0.00035366
0.000348553
0.000143886
0.00672471
0.000227078
0.000150611
0.000151536
0.00111389
0.00201338
0.0155296
0.00100423
0.000182966
0.0178076
0.00147225
0.000176326
0.000145963
0.000142617
0.00781095
0.00014161
0.000512004
0.000150406
0.000149541
0.000153884
0.000468629
0.01318
0.0428919
0.000153287
0.000638997
0.000156132
0.000165761
0.000141139
0.000146803
0.0174103
0.000162374
0.0108108
0.0230958
0.00517453
0.000342078
0.000144628
0.000190763
0.000146818
0.000429236
0.000155141
0.000151476
0.000152497
0.000152694
0.000422717
0.000149902
0.000180947
0.000152358
0.000182329
0.000409796
0.0120757
0.000142798
0.000202172
0.000154968
0.00606759
0.000273942
0.000556468
0.0193079
0.000175541
0.000155935
0.000152526
0.00377724
0.000144687
0.00648169
0.000143931
0.000144192
0.000161152
0.000927851
0.000164561
0.000170455
0.00123584
0.000155399
0.000228024
0.000883006
0.000425438
0.000183789
0.000144046
0.000258771
0.000136983
0.000142983
0.000365178
0.0137504
0.000153497
0.000167744
0.000596136
0.000708528
0.000148543
0.000149431
0.0167852
0.000151218
0.000362193
0.000526503
0.0212951
0.000144867
0.000361008
0.000142759
0.00708603
0.000406136
0.00019314
0.000335067
0.0454042
0.000151274
0.00872243
0.0130548
0.000150348
0.000478433
0.00025899
0.000151211
0.0139456
0.000145816
0.000144222
0.000138485
0.000334964
0.00239509
0.00045608
0.000151284
0.000151005
0.000171835
0.00680796
0.000619259
0.00972474
0.00863517
0.000149597
0.000417529
0.000286182
0.0387051
0.000278096
0.00667368
0.000141756
0.00105126
0.000139578
0.00609013
0.000176928
0.000142712
0.0335045
0.011154
0.000176509
0.000272488
0.000131758
0.000155037
0.000229372
0.000179766
0.00888897
0.000225017
0.000232651
0.000281466
0.000272026
0.0199347
0.00363084
0.00620519
0.000142974
0.000140241
0.000507416
0.0360961
0.036184
0.000307715
0.000153246
0.00508658
0.00812352
0.000144964
0.000163449
0.000139585
0.00019299
0.000236743
0.00312763
0.0292102
0.000633591
0.000151818
0.00107284
0.00592277
0.000144049
0.000398553
0.010678
0.0368424
0.000156014
0.000250019
0.000130761
0.000155856
0.000148602
0.00015765
0.00715213
0.00308153
0.0127441
0.019724
0.000152147
0.000176624
0.000237836
0.000148884
0.000147963
0.000139256
0.000584059
0.000141254
0.00194346
0.000178891
0.00147717
0.000300848
0.000613491
0.00687375
0.000678029
0.000192039
0.000134582
0.000394679
0.000594296
0.00051013
0.000158745
0.000139233
0.000138689
0.000221977
0.000171303
0.000433671
0.00201572
0.000152081
0.000138786
0.00036786
0.000206759
0.0103172
0.0210099
0.000140667
0.000232881
0.000149704
0.0183888
0.000137694
0.0139384
0.00016006
0.000151816
0.000189022
0.000149513
0.00459427
0.000172044
0.000200941
0.0212282
0.00164449
0.000160027
0.000171081
0.00014362
0.000632609
0.0340037
0.000146372
0.00013826
0.00766602
0.000131087
0.0205144
0.000154351
0.000191032
0.000243364
0.0161783
0.000178264
0.000162083
0.000146437
0.000240226
0.00105628
0.00014236
0.00380532
0.0711574
0.02052
0.0217984
0.000174172
0.00538075
0.000160786
0.000735498
0.000142743
0.00894726
0.00852934
0.0419942
0.0446629
0.0114306
0.000181752
0.000905655
0.000140153
0.009465
0.00576538
0.00123107
0.022327
0.000161813
0.0166501
0.0132091
0.000177215
0.000152364
0.000146787
0.0133926
0.000158921
0.000239479
0.000162309
0.000148804
0.000138227
0.000145886
0.000815539
0.000551944
0.00017261
0.0411603
0.00046447
0.000168178
0.000143148
0.000139725
0.000238726
0.0155123
0.00102334
0.000157944
0.000169372
0.000491279
0.000257039
0.000197049
0.024041
0.000170686
0.00382899
0.000172301
0.000172319
0.000142881
0.000161865
0.000229813
0.00540977
0.00904923
0.0127009
0.000232209
0.0189682
0.000179978
0.000157353
0.000154868
0.0127092
0.0242
0.00364538
0.000345862
0.000155073
0.000144159
0.000141879
0.000143911
0.000139439
0.0303971
0.000168539
0.0325075
0.000173213
0.000654276
0.00694531
0.00451982
0.000735096
0.000162393
0.0424887
0.000184478
0.0166699
0.0185975
0.000137909
0.00750915
0.000164928
0.0267485
0.0284528
0.000178009
0.00977508
0.00204881
0.000158379
0.000394
0.000165367
0.02845
0.0049333
0.000156119
0.000146406
0.00876447
0.0203463
0.000295224
0.00758934
0.000351178
0.000237976
0.000142201
0.00821476
0.0150376
0.000325717
0.000174144
0.000828906
0.0131261
0.00014035
0.000144125
0.000156849
0.000971187
0.000776907
0.000143306
0.0112332
0.000149764
0.000143009
0.000147115
0.0292736
0.000780709
0.000356179
0.0347296
0.00015261
0.000151228
0.000141449
0.0349315
0.000149607
0.0257205
0.000166132
0.0157342
0.000148827
0.000142365
0.000284541
0.0283237
0.00669569
0.000182029
0.000644634
0.000139769
0.000145405
0.000144268
0.000196583
0.000222288
0.000223265
0.000183436
0.000706238
0.000157722
0.000281348
0.0125951
0.0213513
0.000145733
0.0108133
0.00926642
0.000159793
0.0110983
0.000230692
0.0475476
0.000146427
0.000343751
0.000144023
0.0176205
0.0107788
0.000349737
0.0018172
0.000154949
0.000203424
0.000151181
0.00946413
0.000135906
0.00013941
0.00428584
0.000439117
0.0427302
0.000741452
0.000228698
0.000167619
0.000138276
0.019144
0.000187012
0.000150762
0.000439606
0.000162397
0.000195986
0.000144133
0.020073
0.000152838
0.00665466
0.00884784
0.000192165
0.00472128
0.000238658
0.0201295
0.000147012
0.0059398
0.00468383
0.000138827
0.000143689
0.000151003
0.000148948
0.000189571
0.000143373
0.0095508
0.000249211
0.00751651
0.00523083
0.000149106
0.000148459
0.000138645
0.000792702
0.000145634
0.000145188
0.000453721
0.000156628
0.0165
0.00152666
0.000282264
0.00016734
0.000178141
0.000150793
0.000149667
0.000179592
0.000139351
0.000157041
0.016614
0.0135711
0.000495114
0.000150536
0.0415249
0.00159782
0.0001491
0.00709712
0.000612876
0.000143431
0.000155378
0.000142879
0.00219996
0.0394346
0.0108661
0.00013907
0.00015593
0.000169161
0.00014645
0.000307215
0.000147896
0.00597242
0.0115753
0.00312387
0.000137953
0.000156529
0.000155362
0.025731
0.000131882
0.0413663
0.0133689
0.00206863
0.00261359
0.00657883
0.0037026
0.000163433
0.0106112
0.00864003
0.000151363
0.000138002
0.000140181
0.00143455
0.0354666
0.045053
0.000152501
0.00531534
0.00014617
0.000303405
0.00013837
0.00015186
0.000151008
0.000137854
0.0319942
0.000151686
0.0140018
0.012556
0.0417818
0.000201749
0.000208395
0.0397863
0.000991594
0.000147338
0.0207463
0.000138709
0.000131551
0.000142981
0.000740985
0.000141132
0.0256818
0.000186624
0.00582164
0.000185122
0.0163072
0.0372978
0.000454675
0.000137668
0.000250006
0.00031096
0.0336334
0.000145751
0.000133115
0.000154325
0.0349092
0.00015107
0.00778929
0.0297326
0.000192989
0.000219185
0.000146277
0.00621153
0.000148267
0.0163325
0.000135398
0.0280426
0.000174936
0.000145567
0.0292123
0.0428636
0.000134826
0.000230226
0.000156244
0.0432775
0.000328068
0.00779247
0.0049852
0.000148103
0.000250773
0.00166634
0.000146201
0.000587316
0.000165612
0.000251331
0.000177512
0.0121847
0.00467142
0.000145756
0.0115618
0.000150941
0.000196291
0.000622552
0.0328668
0.000176339
0.00584188
0.000578841
0.00014657
0.00808157
0.00040415
0.000174244
0.000151442
0.000659644
0.000135118
0.012682
0.0032854
0.000309908
0.000143207
0.000179635
0.0080181
0.000196724
0.000930672
0.000149747
0.000155275
0.011119
0.000565383
0.000162677
0.00123994
0.0127748
0.0267995
0.000147867
0.000557466
0.000477407
0.0231071
0.000143814
0.000272493
0.000147063
0.00178129
0.000314355
0.00678118
0.0059935
0.000148033
0.000139288
0.000143553
0.0255328
0.0116527
0.0593547
0.0396998
0.000141206
0.00292434
0.000731181
0.000377401
0.0375613
0.00675103
0.000180532
0.00958728
0.000154829
0.000161741
0.00255262
0.000491448
0.000178013
0.0695581
0.000151858
0.000144114
0.00167153
0.00497735
0.00978615
0.00970665
0.000171924
0.000148198
0.000156918
0.000883224
0.0438575
0.000142279
0.000199562
0.0125792
0.00014441
0.000145587
0.000559169
0.0218495
0.000151509
0.000144184
0.000151023
0.000151502
0.00898903
0.000148856
0.000144741
0.000158574
0.0257082
0.0232431
0.010965
0.00119076
0.000145893
0.000155337
0.0037619
0.000790333
0.000162892
0.00997211
0.000143033
0.000183828
0.000162011
0.00018054
0.000246688
0.00014348
0.000795199
0.00017303
0.00014166
0.000154499
0.000489276
0.00394372
0.00737778
0.000144578
0.000167369
0.00103156
0.00554802
0.000156939
0.000145083
0.000144699
0.00615633
0.000145746
0.00014749
0.000166113
0.000143548
0.00441201
0.000380481
0.00014775
0.00015577
0.000137888
0.000147491
0.0186222
0.0103902
0.000233429
0.0405687
0.00147574
0.000148627
0.000142842
0.000145524
0.000146544
0.000147817
0.000164335
0.000796109
0.000619558
0.000160559
0.000274035
0.00654832
0.00410966
0.000144567
0.000139559
0.000155281
0.0012761
0.000145752
0.000832383
0.000721272
0.000973791
0.000169907
0.00616646
0.0001392
0.00403978
0.000136626
0.000139978
0.000151795
0.000143636
0.000364293
0.000495387
0.00618869
0.000188708
0.0103
0.00411595
0.00265022
0.00017639
0.00522343
0.0395848
0.00026568
0.000993235
0.000573862
0.000326517
0.00604718
0.000148886
0.000141186
0.0048918
0.000142228
0.000156278
0.00185044
0.000570036
0.00851692
0.022412
0.000139507
0.000798089
0.000145306
0.00707908
0.000138106
0.000332364
0.0285945
0.000562169
0.00545609
0.000145392
0.000135483
0.000239867
0.0465347
0.0052649
0.000312978
0.000866392
0.000140199
0.00205503
0.0206312
0.000323372
0.000153586
0.000145691
0.000138672
0.000154699
0.000148502
0.000147512
0.000155622
0.00479825
0.000244088
0.00919727
0.00930143
0.000463548
0.000438569
0.000142653
0.000142163
0.000162326
0.000137795
0.000148645
0.0107841
0.000729513
0.00564806
0.00488071
0.000155142
0.0391302
0.000293318
0.00125798
0.0179726
0.000147089
0.00014289
0.0016633
0.000145645
0.000134977
0.00533421
0.00482464
0.000792002
0.000144212
0.000145596
0.000172424
0.000187444
0.000573751
0.000139
0.000162813
0.000454234
0.000141104
0.00442433
0.000186697
0.00206099
0.000148237
0.000576819
0.021234
0.000178485
0.00077652
0.000295819
0.0123967
0.00013851
0.000156944
0.000139935
0.000169382
0.0329107
0.000153747
0.0215663
0.000159011
0.000144869
0.000144238
0.00409886
0.000196966
0.000284239
0.00698501
0.000138939
0.000193763
0.0124396
0.000245221
0.000141771
0.000166556
0.00014611
0.000291008
0.000144607
0.000143062
0.0121757
0.0048878
0.00212183
0.0220337
0.000408873
0.0326687
0.000240467
0.0095558
0.000282246
0.000137046
0.000149132
0.000131204
0.000147909
0.00108633
0.000853145
0.000141321
0.0190724
0.014441
0.000170723
0.000158431
0.000168284
0.000657357
0.00054647
0.00563632
0.0160802
0.00577448
0.000131201
0.00037996
0.000257993
0.00789848
0.00390369
0.000143318
0.000400587
0.0172484
0.000173757
0.0099401
0.000149533
0.000499994
0.0239321
0.0120236
0.000250148
0.000173396
0.00586517
0.000408118
0.0179849
0.00524088
0.00404908
0.000319404
0.000506231
0.00014576
0.000204122
0.000201178
0.0123275
0.00861864
0.014485
0.00015069
0.000293777
0.000561576
0.000153842
0.000590867
0.000143432
0.000365613
0.00762381
0.000143457
0.0113155
0.00104866
0.0118253
0.000564017
0.000421466
0.00982454
0.000143087
0.00142947
0.000157349
0.000144853
0.000192992
0.000155789
0.0127021
0.000156844
0.000167762
0.00015617
0.000143265
0.000620422
0.000151425
0.000327618
0.00803717
0.00013785
0.0214968
0.000259814
0.000158761
0.0113247
0.000471677
0.000143183
0.00690584
0.000149374
0.0119307
0.00976186
0.000142074
0.000361076
0.00015168
0.00244927
0.00700418
0.000236753
0.00166727
0.000175073
0.000144806
0.00176355
0.000157236
0.000146953
0.000675941
0.000190601
0.000140173
0.000141303
0.000287674
0.000150798
0.00640082
0.000393797
0.000638774
0.0435589
0.000209757
0.000224052
0.000143489
0.00340798
0.0124328
0.0231067
0.00014391
0.00013912
0.000230308
0.00017036
0.0070973
0.000147368
0.0129936
0.000144066
0.023832
0.000146803
0.00461556
0.000452826
0.000334256
0.0195608
0.025026
0.000610445
0.00669337
0.000131617
0.000620055
0.000671278
0.012428
0.000143763
0.000343561
0.00998543
0.0444201
0.00035049
0.000387162
0.000783742
0.00694268
0.000198244
0.000433455
0.000137785
0.000201742
0.000194371
0.000143067
0.0002393
0.0474093
0.00631393
0.0426872
0.00631064
0.00014218
0.000139755
0.000210154
0.00014318
0.00562499
0.000139415
0.000139718
0.0174968
0.000534004
0.000187996
0.000262783
0.000154479
0.000365516
0.0390175
0.0103494
0.0399466
0.00016137
0.00832139
0.000165404
0.000137939
0.000154641
0.0069465
0.00186314
0.000365775
0.000530447
0.000150828
0.000140539
0.000143184
0.000148984
0.000164302
0.0559432
0.00104115
0.000168005
0.000611282
0.00609896
0.00853695
0.0476857
0.000144432
0.000171432
0.00218167
0.000144099
0.000949589
0.000164104
0.000156513
0.0025509
0.0114771
0.000139406
0.000189728
0.000170418
0.000252081
0.022963
0.0191097
0.00437077
0.000151149
0.000266131
0.00361805
0.000262837
0.000357141
0.0105817
0.000657269
0.0180728
0.0115148
0.000138789
0.000496602
0.000140039
0.000160868
0.000143544
0.000217821
0.0122802
0.0071306
0.0130257
0.0460542
0.000213911
0.000134478
0.000139397
0.000145596
0.000159811
0.000196782
0.00878158
0.0141305
0.000252326
0.00924986
0.000148327
0.000214842
0.000138151
0.0133083
0.000336284
0.000150175
0.00041003
0.000266454
0.00709012
0.0150396
0.000291606
0.0228708
0.000157018
0.0208366
0.000467633
0.00109106
0.007059
0.000163965
0.000216038
0.000145207
0.000563784
0.0374214
0.000191436
0.0169664
0.000431718
0.00630598
0.000228948
0.0214706
0.000212807
0.000140238
0.000365652
0.000266143
0.00015713
0.000217808
0.000173436
0.000176458
0.0104834
0.000440446
0.000151834
0.000170314
0.000185196
0.000172307
0.000161085
0.0228211
0.000267452
0.00599195
0.0360038
0.000144119
0.0139356
0.000144464
0.000162904
0.000152566
0.0115194
0.000183777
0.0243485
0.0475563
0.000220983
0.000528775
0.00034257
0.0301736
0.000425117
0.00523955
0.000169526
0.000198913
0.000145744
0.02077
0.00267333
0.000169948
0.000149518
0.000182368
0.000162614
0.000155752
0.000204327
0.000190225
0.000146503
0.000174441
0.0315695
0.0594168
0.00077846
0.000192984
0.000133338
0.0311772
0.000177606
0.000228814
0.000465851
0.000194453
0.00705483
0.000135276
0.000164912
0.000164745
0.00017347
0.000143243
0.0227986
0.00785857
0.000469968
0.000178433
0.000639485
0.000559247
0.000162001
0.0301219
0.000230621
0.000519178
0.0438704
0.000230057
0.000156327
0.000191207
0.000226721
0.000180864
0.000470998
0.0195984
0.0051224
0.000140267
0.000797802
0.00121678
0.015891
0.000142664
0.000196911
0.000144695
0.000171471
0.000571209
0.000168877
0.000168952
0.000140319
0.000140021
0.0129934
0.00606765
0.000148154
0.00898789
0.000497529
0.000134606
0.00019001
0.0224162
0.000271841
0.000270756
0.000143816
0.000164719
0.00357805
0.000150747
0.000142906
0.00138171
0.000170118
0.0214262
0.000265547
0.000163012
0.0136008
0.000339823
0.00030041
0.000140732
0.000460417
0.000172558
0.000163748
0.00530649
0.000192008
0.000147919
0.00030468
0.00015804
0.000201188
0.000136374
0.017623
0.000143822
0.000284947
0.000457431
0.000256512
0.000143537
0.000372242
0.00017435
0.0286741
0.00069964
0.0123205
0.000290582
0.011787
0.000138337
0.000240972
0.000161423
0.000141989
0.004824
0.0136535
0.00016005
0.000388093
0.00016406
0.000231455
0.0141573
0.000162877
0.00894345
0.000931281
0.0247352
0.0317463
0.0249391
0.00153154
0.000139379
0.00030213
0.000177375
0.00689023
0.00569822
0.0113394
0.0211072
0.00384167
0.000139803
0.0177036
0.000143814
0.000151597
0.000146071
0.00194648
0.000440552
0.000386009