/*--------------------------------*- C++ -*----------------------------------*\
| =========                 |                                                 |
| \\      /  F ield         | OpenFOAM: The Open Source CFD Toolbox           |
|  \\    /   O peration     | Version:  v2012                                 |
|   \\  /    A nd           | Website:  www.openfoam.com                      |
|    \\/     M anipulation  |                                                 |
\*---------------------------------------------------------------------------*/
FoamFile
{
    version     2.0;
    format      ascii;
    class       surfaceVectorField;
    location    "650";
    object      Uf;
}
// * * * * * * * * * * * * * * * * * * * * * * * * * * * * * * * * * * * * * //

dimensions      [0 1 -1 0 0 0 0];


internalField   nonuniform List<vector> 
20537
(
(1.03176 -0.0150995 5.55938e-23)
(1.03072 -0.0165628 -1.68593e-22)
(1.03327 -0.0170676 1.3842e-23)
(1.01417 -0.160703 -7.01404e-21)
(0.952903 -0.224754 1.10009e-20)
(1.02484 -0.127005 -6.68442e-21)
(0.887111 -0.087971 -8.3125e-22)
(0.882793 -0.0807908 4.36488e-22)
(0.877306 -0.0869043 0)
(1.02707 -0.0156612 -3.29332e-22)
(1.02894 -0.0164513 -1.02811e-21)
(1.02682 -0.0170229 -2.818e-22)
(0.952074 -0.143158 1.28468e-21)
(0.947924 -0.140569 -3.24253e-22)
(0.952648 -0.138476 0)
(0.965315 -0.0945288 1.67921e-21)
(0.973484 -0.095051 1.64606e-21)
(0.970437 -0.0881408 7.76211e-22)
(1.02667 -0.00273697 7.66751e-21)
(1.02713 -0.00304518 3.92929e-21)
(1.02712 -0.00253045 7.93293e-21)
(0.944037 -0.0536351 7.734e-22)
(0.949278 -0.0544168 -4.26175e-21)
(0.944818 -0.059863 8.54685e-22)
(1.01437 0.00196864 -5.92174e-24)
(1.01468 0.00213099 3.06618e-23)
(1.01457 0.00212332 3.6126e-23)
(0.817794 0.0546597 8.27248e-21)
(0.836667 0.0617661 -1.28514e-22)
(0.834972 0.0407556 1.32539e-21)
(0.834085 -0.00654125 -4.25418e-22)
(0.836617 -0.0279761 2.67017e-21)
(0.8556 -0.0174966 -4.36043e-22)
(0.554985 0.270407 7.9903e-21)
(0.562622 0.203855 2.27874e-20)
(0.577646 0.264003 -7.68753e-21)
(0.94194 -0.170304 5.90718e-21)
(0.941055 -0.173833 -4.49925e-21)
(0.938339 -0.170243 -6.28888e-21)
(-0.196898 0.118512 -3.04773e-20)
(-0.192925 0.00921478 -2.04831e-20)
(-0.167594 0.0403859 -1.14046e-20)
(1.01795 -0.000428521 -3.0255e-21)
(1.01802 -0.000379019 -1.39717e-21)
(1.01803 -0.000487189 -2.88224e-21)
(0.986483 0.00400836 -9.15958e-23)
(0.984512 0.00142859 4.84e-22)
(0.983069 0.00509593 1.79506e-22)
(1.01087 -0.0231983 -1.51926e-22)
(1.01133 -0.0215147 3.431e-21)
(1.01255 -0.0228881 1.74423e-21)
(1.04368 0.0223817 -1.10875e-22)
(1.04055 0.0211807 -2.19454e-24)
(1.04169 0.0252542 -6.61893e-23)
(0.946565 -0.184767 -4.92113e-21)
(0.946204 -0.188146 2.78072e-22)
(0.944264 -0.185866 -6.43361e-21)
(1.01407 0.00180333 -4.18185e-23)
(1.01417 0.00179742 9.65292e-24)
(1.02517 -0.0148821 8.05356e-22)
(1.02714 -0.0142607 7.15551e-23)
(0.896821 -0.0905914 -7.00578e-22)
(0.890774 -0.0973042 -2.33928e-21)
(1.00852 1.7198e-05 0)
(1.00943 0.000129808 0)
(1.01032 0.000250887 -1.46907e-22)
(1.00908 4.91329e-05 -3.54944e-22)
(1.00695 5.64794e-05 -8.52906e-23)
(1.00943 5.57352e-05 -1.0749e-22)
(1.00761 5.30428e-05 1.79714e-22)
(1.00613 -8.91203e-05 0)
(0.942356 -0.0478472 1.13315e-21)
(0.937455 -0.0528418 1.65473e-21)
(1.03204 -0.0314762 7.47239e-21)
(1.03253 -0.0299804 -6.51687e-21)
(1.03089 -0.0302881 -1.73223e-22)
(0.0133121 -0.256073 -3.2486e-20)
(0.0365285 -0.250818 -1.14667e-20)
(1.03097 -0.0136949 3.2026e-22)
(1.03315 -0.0139264 3.30186e-22)
(1.02305 0.00445687 5.11342e-22)
(1.02184 0.0042886 -4.04864e-22)
(1.02309 0.0056908 -1.55229e-21)
(0.957506 -0.0941031 -1.85349e-21)
(0.960452 -0.100758 -2.3478e-21)
(1.00895 -0.0230841 -1.73525e-21)
(1.01026 -0.0248923 -1.58251e-21)
(0.887974 -0.0736544 4.96133e-22)
(0.878164 -0.0718255 -4.29568e-22)
(0.872893 -0.196013 2.41877e-22)
(0.865272 -0.207046 1.29032e-20)
(0.85 -0.191365 2.23029e-21)
(1.00885 7.43041e-05 1.33763e-22)
(1.01034 0.000103364 1.28725e-22)
(1.03199 -0.304994 0)
(1.0412 -0.311933 -2.43863e-20)
(1.02782 -0.318275 -2.67947e-20)
(0.980455 -0.39461 -6.43926e-22)
(0.984062 -0.378624 2.42887e-20)
(0.997126 -0.391632 -1.72913e-20)
(0.880011 -0.195633 1.48438e-21)
(0.888405 -0.200259 6.92383e-21)
(0.885937 -0.1879 0)
(0.804163 0.0647212 -5.36322e-21)
(0.803118 0.0392384 1.51266e-20)
(0.898662 -0.194843 -3.83485e-21)
(0.880974 -0.177445 -3.06108e-20)
(1.01785 -0.00305914 7.76753e-22)
(1.01804 -0.00318956 7.08185e-22)
(1.01823 -0.00321609 -1.07652e-21)
(1.01565 -0.00248421 4.45259e-23)
(1.01578 -0.00231019 1.47963e-22)
(1.01544 -0.0022247 -2.00264e-23)
(-0.00456024 -0.00410417 1.3056e-21)
(-0.00518674 -0.0023244 -8.7195e-21)
(-0.0123621 -0.00984405 9.12527e-21)
(0.848765 -0.0788907 -4.03497e-22)
(0.859107 -0.087184 6.50949e-21)
(0.850161 -0.0710648 -1.29484e-20)
(0.840981 -0.0733571 -1.14742e-22)
(0.856032 -0.0884426 -1.88548e-22)
(0.298521 0.227638 1.11226e-20)
(0.34034 0.169845 0)
(0.404164 0.184946 -1.36658e-20)
(0.894368 -0.109893 1.39714e-22)
(0.883407 -0.106821 -3.0748e-22)
(0.902954 -0.103788 -1.5573e-20)
(0.633902 0.235497 -5.12177e-21)
(0.649011 0.210901 0)
(0.646054 0.234297 -6.2573e-21)
(1.03148 -0.0330343 -3.22803e-21)
(1.03322 -0.0326146 9.30839e-21)
(0.973336 -0.0305749 5.20952e-21)
(0.981033 -0.0227125 -1.00611e-21)
(0.983618 -0.0338798 -1.54624e-21)
(1.00331 -0.162327 6.84058e-21)
(1.00314 -0.167209 -2.03185e-20)
(1.00819 -0.164103 -1.15127e-20)
(0.957156 -0.187172 -4.37724e-22)
(0.960321 -0.187799 1.3618e-20)
(0.957326 -0.191584 1.22692e-20)
(-0.0540974 -0.225977 -2.55503e-20)
(-0.0521715 -0.23664 3.49819e-20)
(-0.0440217 -0.262657 -4.91462e-20)
(1.01773 -0.000425885 -7.195e-21)
(1.01731 -0.00019379 -6.00064e-21)
(1.0178 -0.000490384 2.41202e-22)
(1.01215 -0.000425051 -1.47731e-21)
(1.01199 -0.000443324 6.82021e-22)
(1.01284 -0.000432936 6.29577e-22)
(1.0155 -0.00262839 -4.38731e-23)
(1.01588 -0.00276556 0)
(1.01168 -0.000196762 -5.26144e-23)
(1.01229 -0.000184416 -3.33948e-22)
(1.01121 -0.000145178 -4.41227e-23)
(-0.0551809 -0.103892 -5.03782e-20)
(-0.0745471 -0.037045 6.12196e-21)
(-0.0413794 -0.0857206 -1.1634e-20)
(1.02299 0.00312318 0)
(1.02418 0.00423743 0)
(1.02658 -0.00572572 4.08563e-21)
(1.02631 -0.00534418 -2.44225e-22)
(1.02686 -0.00533507 -8.6107e-21)
(0.873721 -0.206004 -8.01683e-22)
(0.869628 -0.191694 1.34587e-21)
(1.13434 -0.370775 2.67679e-20)
(1.1545 -0.336394 3.75547e-20)
(1.1537 -0.383628 5.85165e-21)
(1.13025 0.0877459 -3.12121e-22)
(1.14535 0.0768671 0)
(1.13855 0.0664557 4.58474e-23)
(0.953682 -0.155236 6.34033e-21)
(0.950277 -0.152853 -5.40604e-21)
(0.950057 -0.157007 1.38051e-20)
(0.872162 -0.165916 7.96681e-22)
(0.849452 -0.127293 -3.03855e-21)
(0.898222 -0.127954 -2.03793e-21)
(1.03541 -0.0265606 5.53487e-22)
(1.03258 -0.0254607 2.8703e-22)
(1.03305 -0.0287964 0)
(0.965334 -0.39459 1.55001e-21)
(0.974961 -0.405625 -1.94663e-20)
(0.901597 -0.10751 1.0731e-22)
(0.899293 -0.110986 -1.50826e-20)
(1.0259 -0.079601 -8.64125e-21)
(1.02242 -0.0785249 6.54971e-22)
(1.02523 -0.0757289 -7.55353e-21)
(1.04495 0.0196042 -9.41822e-22)
(1.04756 0.0235804 -3.44088e-22)
(0.370048 -0.0973035 -1.26673e-21)
(0.346338 -0.0890625 6.99501e-21)
(0.342066 -0.0757334 6.42503e-21)
(0.934507 -0.423098 -4.12953e-22)
(0.931501 -0.424433 -1.57843e-20)
(0.960723 -0.426548 -1.43536e-20)
(1.05922 -0.0995398 -2.05657e-22)
(0.995516 -0.163442 -2.71171e-20)
(1.01786 -0.000389445 -1.47097e-21)
(1.01758 -0.000447797 2.45922e-21)
(1.01322 -0.000473936 -6.38721e-22)
(1.01331 -0.00051973 9.88032e-23)
(1.01333 -0.000500834 4.67788e-22)
(1.01677 0.00311997 6.28283e-23)
(1.01701 0.00327559 8.08661e-23)
(1.01659 0.00303964 -1.01982e-23)
(0.902548 -0.0931852 0)
(0.901524 -0.0868021 8.39693e-22)
(0.815206 -0.100083 -6.01551e-22)
(0.828575 -0.106816 -7.45276e-21)
(0.822699 -0.0987634 -4.0351e-21)
(0.982907 -0.096914 3.44026e-21)
(0.98215 -0.101467 -7.92912e-21)
(0.978038 -0.0986658 7.50944e-21)
(0.247832 -0.088003 -1.46418e-20)
(0.217041 -0.0738807 1.77562e-20)
(1.02694 -0.00994112 6.63773e-21)
(1.02637 -0.00963955 2.74146e-21)
(1.02685 -0.00927985 1.62175e-21)
(0.894293 -0.0433224 -5.59984e-22)
(0.935041 -0.0326627 -1.76669e-22)
(0.902186 -0.0260299 -3.25197e-21)
(1.01888 -0.00402388 4.93628e-22)
(1.01899 -0.00421007 -2.11153e-22)
(1.0187 -0.00405182 -3.99152e-21)
(0.227524 0.116731 -2.135e-21)
(0.252238 0.067588 -5.4292e-21)
(0.170482 0.0894062 1.51769e-21)
(1.11663 0.0956423 -3.03196e-22)
(1.10845 0.110605 -8.56073e-22)
(0.549429 0.338263 -1.25563e-20)
(0.540485 0.279208 -1.6865e-21)
(0.963602 -0.0648559 2.72541e-21)
(0.965505 -0.0727304 8.01603e-22)
(0.971599 -0.0666973 3.4978e-21)
(0.588729 0.00516247 -1.23844e-20)
(0.693587 -0.0684993 -1.41442e-20)
(0.639342 0.091292 2.45591e-21)
(1.01923 -0.0334389 -5.93299e-22)
(1.01735 -0.0327119 5.36037e-21)
(1.01769 -0.0352726 1.22081e-20)
(1.0129 -0.00672648 -8.64222e-22)
(1.01343 -0.0063233 -7.00407e-22)
(1.01245 -0.00555022 -9.3937e-23)
(1.03308 -0.295326 2.22484e-21)
(1.02124 -0.29895 0)
(1.02578 0.0698329 2.59477e-23)
(1.01572 0.0862376 -4.94013e-21)
(1.04062 0.0827258 2.69524e-21)
(0.88695 -0.116025 0)
(1.01556 -0.0445761 0)
(1.01348 -0.045185 0)
(1.01511 -0.0473723 6.84954e-21)
(1.02093 -0.0325245 -8.7971e-21)
(1.0212 -0.0346932 -9.70857e-21)
(1.0093 -5.94587e-06 -1.05527e-23)
(1.0094 -2.25467e-05 4.07179e-22)
(1.01079 -0.000129378 -8.88654e-24)
(0.950887 -0.148426 -1.29305e-20)
(0.955779 -0.146649 5.11958e-21)
(0.97742 -0.123033 -1.17887e-20)
(0.979091 -0.116546 -8.35135e-21)
(0.970136 -0.118897 1.81377e-21)
(0.96562 -0.0386727 3.52547e-21)
(0.963755 -0.0268843 2.05711e-21)
(1.00679 4.14809e-05 -4.64677e-23)
(1.00914 -4.12548e-05 0)
(-0.057026 0.485278 2.05805e-20)
(0.00624188 0.450493 -2.77633e-20)
(-0.0785874 0.476781 6.64931e-21)
(0.998002 -0.118751 -2.22287e-21)
(1.00243 -0.120682 6.50449e-22)
(1.00186 -0.115506 -1.18168e-20)
(1.02721 -0.00416164 -6.49995e-22)
(1.02793 -0.00380687 2.9402e-22)
(1.02814 -0.00439535 -8.49249e-22)
(1.04854 -0.024251 -1.14134e-20)
(1.04975 -0.0253543 -5.66076e-21)
(1.00768 -0.000123075 -1.31247e-23)
(1.0093 -0.000174674 2.91749e-24)
(1.00791 -0.000130642 1.72652e-23)
(0.946753 -0.0604791 0)
(0.938276 -0.0567928 0)
(0.947093 -0.0502818 0)
(1.00775 -0.13264 3.31552e-21)
(1.00367 -0.130715 -7.10867e-21)
(1.00356 -0.136118 1.68608e-20)
(1.01374 -0.00170765 9.45208e-23)
(1.01385 -0.00173656 -7.16449e-23)
(1.01364 -0.00155485 2.5318e-23)
(0.865061 -0.4092 -1.62303e-20)
(0.826557 -0.398156 -2.01025e-20)
(0.976009 -0.102208 -4.11711e-21)
(0.981309 -0.0958495 1.79773e-21)
(1.0088 9.35981e-05 -9.76419e-25)
(1.00645 3.92433e-05 -2.06678e-23)
(1.00877 7.35795e-05 -2.63221e-22)
(1.01205 -0.00724318 8.38828e-22)
(1.01335 -0.00805457 6.38898e-24)
(1.03115 0.0588437 -5.13579e-22)
(1.01339 0.0594521 1.5655e-20)
(1.0043 0.000102817 6.20554e-23)
(1.00436 1.59862e-05 -1.48559e-23)
(1.01016 0.000125941 1.97468e-23)
(1.00854 9.23614e-05 -4.86572e-22)
(0.761016 0.00154558 -6.42692e-22)
(0.765858 -0.0483117 -6.13077e-22)
(0.970589 -0.131255 6.59912e-21)
(0.980396 -0.130656 -1.03814e-20)
(1.01423 -0.00105293 -1.10173e-22)
(1.01433 -0.00111219 -7.51244e-23)
(1.01421 -0.00118123 -2.37244e-23)
(1.0095 -0.000205505 0)
(1.00939 -0.000213371 0)
(1.00691 -0.000107262 -5.8322e-22)
(1.01197 -0.000296611 -2.65167e-22)
(1.01086 -0.000337602 2.01685e-22)
(1.0103 -0.000270673 -3.29462e-22)
(-0.00616496 -0.00481408 -2.89304e-21)
(-0.00455492 -0.0106084 2.03461e-20)
(1.04681 -0.0255559 1.31178e-20)
(1.04687 -0.0233554 -5.27047e-21)
(0.945987 -0.171946 1.47904e-21)
(0.94449 -0.167435 3.99533e-21)
(0.819132 0.234119 4.45091e-21)
(0.628312 0.241678 -5.20393e-21)
(0.633072 0.240811 -7.96955e-21)
(1.02983 0.0161523 -3.65476e-22)
(1.03058 0.0148804 9.455e-23)
(1.0314 0.0168213 -2.43718e-22)
(0.629475 0.237582 6.396e-21)
(0.627331 0.235453 -1.89719e-20)
(0.989606 -0.106695 4.79661e-21)
(0.992711 -0.109332 1.45041e-20)
(0.987877 -0.110703 -6.91217e-22)
(1.02391 -0.0139976 -2.10421e-23)
(1.02338 -0.0152791 7.65762e-22)
(0.925667 -0.170554 0)
(0.928398 -0.168075 3.66102e-21)
(0.928772 -0.172832 -5.64312e-21)
(1.0175 -0.00288306 0)
(1.01766 -0.00294862 0)
(1.01184 -0.000772297 0)
(1.01195 -0.00085957 0)
(1.01186 -0.000835699 -1.96884e-22)
(0.393454 -0.106168 -4.86751e-21)
(0.387448 -0.120027 -6.19797e-21)
(1.01904 -0.00392741 -1.04228e-21)
(1.01871 -0.00378463 -6.96698e-21)
(0.802798 0.0275399 -1.07749e-21)
(1.01177 -0.00040503 1.35432e-25)
(1.01167 -0.000376558 5.97071e-23)
(1.0114 -0.000315598 3.54829e-22)
(1.01415 -0.000987049 0)
(1.01428 -0.00091283 4.03738e-23)
(0.938868 -0.418613 0)
(0.941222 -0.412887 -7.62609e-22)
(0.960948 -0.415948 -1.35392e-20)
(0.679016 -0.792599 3.89066e-20)
(0.589248 -0.78234 -1.63845e-20)
(0.606112 -0.800654 -1.0371e-23)
(0.433616 -0.454661 2.17989e-21)
(0.460391 -0.411484 -4.36809e-21)
(0.463711 -0.42462 -4.84648e-21)
(-0.0480147 0.490177 -5.07147e-21)
(-0.0966322 0.508568 -7.97377e-21)
(1.01257 -0.000501318 -1.63807e-21)
(1.01093 -0.000193081 -4.72814e-22)
(1.02026 0.0113206 9.62556e-22)
(1.01922 0.0125316 1.5176e-22)
(1.02145 0.0136425 1.20063e-22)
(1.02285 -0.00209532 1.39669e-22)
(1.02257 -0.00140779 0)
(1.02343 -0.00166166 -9.43063e-23)
(1.01643 -0.0112586 -1.815e-21)
(1.01564 -0.0118253 0)
(1.01679 -0.0121281 0)
(0.865903 -0.102694 -8.84581e-22)
(0.867617 -0.0968808 1.34367e-20)
(0.992233 -0.0137541 -6.27198e-25)
(0.990013 -0.00545556 1.20919e-23)
(0.989371 -0.0129632 0)
(0.922313 -0.174333 0)
(0.920685 -0.168356 0)
(1.02618 -0.00233552 -3.68034e-21)
(1.02611 -0.00285344 6.3747e-23)
(0.824526 -0.0574078 -7.02423e-21)
(0.832765 -0.0671621 1.82665e-22)
(1.09495 -0.182464 9.27637e-21)
(1.09091 -0.189506 -2.02957e-20)
(1.01129 -0.000414867 -8.46065e-22)
(1.01173 -0.000341658 3.68374e-22)
(1.01242 -0.000311895 8.92748e-22)
(-0.209075 0.221711 0)
(-0.154745 0.165338 -1.59356e-21)
(1.01108 -0.000157041 -5.93742e-24)
(1.01207 -0.000268565 -8.08683e-23)
(1.02409 -0.0186915 0)
(1.02472 -0.0195655 0)
(1.02502 -0.0183436 0)
(1.01612 -0.010383 -1.80057e-21)
(1.01699 -0.0107139 4.77315e-21)
(1.01393 -0.00182036 6.75704e-23)
(1.01385 -0.00177718 -8.40427e-22)
(1.01393 -0.00179584 1.39349e-22)
(1.02113 -0.00041758 -3.95894e-22)
(1.02111 -0.00121715 -2.62066e-22)
(1.02048 -0.00127545 -2.83724e-21)
(0.954134 -0.18769 -1.26291e-21)
(0.956014 -0.184336 -9.4083e-21)
(1.0034 -0.156472 2.50904e-20)
(0.998272 -0.159766 -1.9873e-21)
(1.01317 -0.00108425 2.36395e-22)
(1.01328 -0.00101345 2.65472e-23)
(1.01316 -0.000475021 3.62965e-26)
(1.03325 -0.0507932 3.73669e-21)
(1.03152 -0.052256 -1.8467e-21)
(1.03384 -0.0533979 8.52159e-21)
(-0.0474861 -0.151194 -4.50563e-20)
(-0.0610033 -0.120141 0)
(1.01172 -0.000690402 0)
(1.01184 -0.000694197 4.11433e-22)
(1.01403 0.0130332 -1.05713e-22)
(1.01261 0.011268 0)
(1.0145 0.0110847 -5.47047e-22)
(1.01911 -0.00231857 2.05732e-22)
(1.01964 -0.00213961 3.13092e-23)
(1.01912 -0.00185789 1.59987e-22)
(0.995135 -0.0219187 4.99222e-22)
(0.999182 -0.0128724 1.92033e-23)
(1.02676 -0.0835297 -9.65767e-21)
(1.02946 -0.080203 -1.55426e-21)
(1.02432 -0.0127817 -8.37145e-22)
(1.02263 -0.0131917 -8.78765e-23)
(0.976578 -0.0472867 -5.68231e-21)
(0.87787 -0.0321246 7.30834e-21)
(0.96563 -0.0483207 1.34056e-21)
(0.793335 -0.0912935 6.40562e-21)
(0.807957 -0.0992505 8.49211e-21)
(1.01377 0.000655892 3.42864e-23)
(1.01381 0.000779934 1.7658e-23)
(1.01396 0.000692774 0)
(1.014 -0.00187232 9.03738e-22)
(1.01394 -0.00184029 -1.92037e-22)
(0.416047 -0.49676 -8.72541e-22)
(0.39566 -0.478254 4.72751e-21)
(1.0116 -0.000607817 0)
(1.01161 -0.000673103 1.81723e-22)
(0.676298 0.171323 0)
(0.657397 0.182169 0)
(0.985424 -0.103945 -1.6265e-21)
(0.990391 -0.102342 1.78679e-20)
(1.01417 0.0065838 0)
(1.01366 0.00527435 0)
(1.01262 0.00684953 0)
(0.947683 -0.183268 -1.12835e-21)
(0.94579 -0.182479 2.275e-21)
(1.01393 -0.00196774 -4.95372e-23)
(1.01379 -0.00186537 -3.20324e-23)
(1.01402 -0.00212699 -4.90795e-23)
(1.00627 -0.0246802 0)
(1.00706 -0.0230372 0)
(1.00519 -0.0229995 3.9955e-23)
(0.910489 -0.419018 -1.34882e-20)
(1.01903 -0.00354254 4.41411e-21)
(1.01888 -0.00332898 1.14686e-21)
(1.01874 -0.003458 4.20789e-21)
(0.885921 -0.101463 1.33047e-21)
(0.89436 -0.103835 1.15695e-21)
(1.01271 -0.000233058 0)
(1.01242 -0.000215672 0)
(1.01257 -0.000161748 0)
(1.00833 -0.000184778 6.62644e-22)
(1.0088 -0.000119211 -6.73484e-25)
(1.00967 -5.3606e-05 1.41154e-22)
(1.0386 -0.0274716 -7.51623e-23)
(1.03716 -0.0242967 8.66466e-23)
(1.01293 -0.000447565 -7.41303e-22)
(1.01276 -0.000453002 -6.79552e-22)
(0.93923 -0.145745 5.72025e-22)
(0.9349 -0.143354 -1.42294e-21)
(0.93487 -0.148952 8.68389e-22)
(1.03917 0.158595 7.94341e-24)
(1.03374 0.191427 -6.51996e-23)
(1.00748 0.168 -4.77207e-21)
(0.885167 -0.11607 2.4491e-22)
(-0.0525546 -0.219707 -2.47952e-20)
(-0.0683865 -0.190932 4.24115e-21)
(1.01128 -0.00765307 2.38758e-23)
(1.01175 -0.00935188 8.15227e-24)
(1.01022 -0.00836281 0)
(1.00914 -0.0742871 -5.72478e-21)
(1.01233 -0.0753059 -2.29975e-22)
(1.01194 -0.071864 -1.33734e-21)
(1.09833 -0.408537 -3.55595e-20)
(1.08137 -0.358798 -3.92522e-20)
(1.02327 -0.0169163 -8.29094e-21)
(1.02355 -0.0178126 -3.76856e-21)
(1.02411 -0.0169111 -4.25229e-22)
(1.02136 0.0103654 2.9977e-22)
(1.01965 0.00965472 -1.03106e-21)
(0.910957 -0.136285 8.37672e-21)
(0.917443 -0.136307 1.65668e-22)
(0.916035 -0.140861 -2.10192e-20)
(1.01504 0.00832483 0)
(1.01534 0.00647521 0)
(1.01651 0.00294774 -1.11848e-22)
(1.01692 0.00320325 2.31927e-22)
(1.02903 0.0173879 -6.56206e-22)
(1.02854 0.0156034 -3.6686e-22)
(0.636083 0.134525 3.83978e-20)
(0.731657 0.0695334 0)
(0.662391 0.0795357 0)
(1.0047 -6.99833e-05 8.53036e-22)
(1.00769 -8.69192e-05 1.03462e-21)
(1.0042 -0.000111099 -7.89767e-22)
(1.01693 -0.00329476 1.82934e-21)
(1.01669 -0.00311178 0)
(1.01685 -0.00321785 0)
(0.942504 0.115701 0)
(0.956863 0.105523 2.5664e-21)
(0.941392 0.098038 -2.52228e-21)
(1.01934 -0.00361173 1.78771e-21)
(1.01919 -0.00376899 3.55506e-21)
(0.643105 -0.429154 7.67969e-21)
(0.624533 -0.45273 -1.38327e-21)
(0.614228 -0.426019 -3.20925e-21)
(1.01247 -0.0268124 -2.89585e-21)
(1.01373 -0.0255667 4.43427e-21)
(1.01433 -0.0275721 0)
(0.732599 -0.163526 -1.16993e-21)
(0.7073 -0.151573 -2.79603e-21)
(0.719615 -0.168187 -3.5578e-21)
(1.01357 -0.00138131 -6.35274e-23)
(1.01356 -0.00139641 1.32635e-23)
(1.01369 -0.00178866 1.40507e-23)
(0.852956 -0.263436 4.76363e-21)
(0.841574 -0.260409 1.90592e-21)
(0.849731 -0.251918 0)
(1.02631 -0.00405868 -3.04053e-22)
(1.02649 -0.0044487 3.13237e-22)
(0.909422 -0.106148 -8.2838e-21)
(0.917182 -0.117982 2.87495e-22)
(0.925394 -0.103908 3.24876e-22)
(1.01332 -0.0012381 1.47803e-23)
(1.0134 -0.00139649 -1.02725e-23)
(1.01323 -0.00116464 -1.91193e-23)
(1.02142 -0.00264601 -2.9908e-22)
(1.0214 -0.00336335 7.96615e-23)
(1.02076 -0.00284955 -1.32079e-22)
(0.862503 0.0519524 -1.47644e-22)
(0.852556 0.0409382 2.17203e-22)
(0.883934 0.0501757 5.41891e-22)
(1.08275 0.117844 0)
(1.10226 0.0993033 0)
(1.08388 0.0981313 0)
(0.200564 0.254248 2.02253e-21)
(0.256478 0.282078 1.04586e-20)
(1.01805 -0.00128185 0)
(1.01795 -0.00110332 1.85786e-21)
(1.01783 -0.00122946 4.12761e-21)
(0.745613 -0.161217 2.89806e-21)
(0.755823 -0.176132 1.23197e-21)
(1.01109 -0.0262069 -2.56795e-21)
(1.0111 -0.0278878 4.04515e-21)
(1.02701 -0.0104938 5.16884e-21)
(1.02753 -0.0101212 1.10569e-20)
(0.916796 -0.157934 -6.18941e-21)
(0.920371 -0.154174 -6.98852e-21)
(0.91673 -0.156614 -4.84827e-21)
(0.949167 -0.172838 -2.49313e-21)
(0.946288 -0.1733 -1.81115e-20)
(0.947652 -0.175724 1.89582e-21)
(0.756174 -0.308359 -7.59615e-21)
(0.741316 -0.293975 -5.88472e-21)
(0.728172 -0.30044 -2.757e-21)
(1.00775 -7.14472e-07 0)
(1.00782 -1.00684e-05 0)
(1.00554 -1.00497e-06 2.85345e-22)
(1.00986 -0.0520588 0)
(1.00922 -0.0549163 0)
(1.00687 -0.0528253 0)
(1.00743 -0.000112661 1.41058e-22)
(1.00558 -0.000101141 2.23857e-23)
(-0.123315 -0.0375172 4.82435e-22)
(-0.122142 -0.037654 4.98171e-20)
(-0.113839 -0.0756908 2.39475e-20)
(1.01326 -0.00107967 0)
(1.01342 -0.00133695 0)
(0.94063 -0.0418633 0)
(0.946602 -0.0432955 7.81723e-22)
(0.711927 0.149849 1.4842e-21)
(0.71457 0.103009 0)
(0.67229 0.125286 -2.9241e-21)
(1.01361 0.000625996 -7.23233e-23)
(1.01373 0.000544958 1.17607e-23)
(1.01096 -0.00612261 2.25509e-23)
(1.02403 -0.158739 -2.2679e-21)
(1.01855 -0.157626 -9.14975e-21)
(1.02253 -0.153069 1.14844e-20)
(1.00396 0.0515427 -4.65868e-22)
(1.00955 0.0467148 -4.71265e-22)
(1.01177 0.0534508 -8.51411e-22)
(0.655906 -0.409047 -3.25836e-21)
(0.669949 -0.432247 -6.05536e-21)
(0.852779 -0.196637 -3.87158e-21)
(0.900123 -0.201829 3.6631e-22)
(1.0221 -0.00244771 3.05983e-22)
(1.02289 -0.00288156 1.45481e-22)
(1.017 -0.00338885 -9.45526e-22)
(1.01712 -0.00346171 3.71096e-21)
(0.954151 -0.0869785 -1.89264e-21)
(0.948959 -0.0944529 -8.78022e-22)
(0.857319 0.0110022 -1.37452e-22)
(0.873391 -0.0106889 7.14007e-22)
(0.877817 0.0227451 -3.15836e-21)
(1.00962 -0.00161703 -1.52159e-21)
(1.01049 -0.00177905 -2.85785e-23)
(1.00999 -0.00329306 -1.42708e-22)
(0.927134 0.123292 4.73407e-21)
(0.944861 0.13544 0)
(1.0106 -0.000267705 2.53524e-23)
(1.01047 -0.000260637 -3.20693e-23)
(0.752204 -0.256598 -3.97399e-21)
(0.732147 -0.24599 -3.1221e-21)
(0.738657 -0.260444 1.2993e-21)
(0.994002 -0.11747 -1.7351e-20)
(0.99448 -0.122585 -6.32525e-21)
(0.880744 -0.124674 -1.03172e-21)
(0.865572 -0.139218 -1.66431e-20)
(0.857933 -0.115833 -6.65862e-23)
(1.01596 -0.00958826 0)
(1.01582 -0.00860989 0)
(1.01663 -0.00905337 -2.0996e-21)
(1.00478 -0.0103631 4.33244e-22)
(1.00646 -0.0109127 -1.35914e-21)
(1.0056 -0.00913573 -3.71885e-21)
(1.02092 -0.0287478 0)
(1.02741 -0.0318447 -1.01937e-21)
(1.02436 -0.0229275 0)
(0.841243 0.0318914 0)
(0.845679 -0.00640161 0)
(1.02161 -0.00906919 3.24338e-22)
(1.02148 -0.00926035 -4.68904e-21)
(1.02138 -0.00891742 -1.0811e-22)
(1.01524 -0.0100001 0)
(1.03606 -0.130593 -1.00256e-23)
(1.03757 -0.135298 1.91864e-21)
(1.03141 -0.13352 -3.29931e-21)
(1.1604 -0.181996 1.45634e-21)
(1.14716 -0.141909 2.20229e-21)
(1.17014 -0.131043 5.44809e-21)
(1.06658 0.138267 2.94587e-22)
(1.03964 0.126776 0)
(0.920251 -0.410057 1.30411e-20)
(0.941102 -0.405059 -1.06772e-20)
(0.824994 -0.10596 1.94469e-20)
(0.682518 -0.0795812 9.3623e-21)
(0.633811 -0.0912607 7.86159e-21)
(1.02043 -0.00119425 1.32445e-21)
(1.02015 -0.00100384 -5.38906e-21)
(1.02013 -0.00126014 -2.56619e-21)
(1.02131 -0.00202667 -1.49107e-22)
(1.04605 0.0166208 -4.4226e-22)
(1.04897 0.0158811 -4.99353e-23)
(1.04616 0.0130854 -4.67826e-23)
(0.961376 -0.115231 0)
(0.95687 -0.118713 0)
(0.957092 -0.111667 0)
(1.02396 0.00843574 8.21442e-23)
(1.02395 0.00765525 2.32753e-22)
(1.02493 0.0082036 2.32749e-22)
(0.950816 -0.194864 -1.24031e-20)
(0.94931 -0.199423 -1.03027e-21)
(0.955055 -0.198505 -6.10146e-21)
(1.02254 -0.0170764 3.70178e-21)
(1.02293 -0.0161316 -6.632e-21)
(1.02183 -0.00919016 -2.43924e-21)
(1.02166 -0.00884024 -4.68379e-21)
(1.01775 -0.0446995 2.85688e-21)
(1.01628 -0.0431484 0)
(0.916815 -0.159367 1.25539e-21)
(0.913282 -0.161635 6.26112e-21)
(0.986665 0.000531412 -5.63335e-22)
(0.978811 -0.0050735 0)
(0.980935 -0.0133011 -1.09179e-21)
(1.01553 -0.0338772 -1.06678e-21)
(1.01648 -0.0254912 1.05129e-21)
(1.0231 -0.0188818 2.14176e-21)
(0.958669 -0.11811 3.02881e-21)
(0.963082 -0.11681 3.51138e-23)
(0.960193 -0.121532 -1.85331e-21)
(0.983632 -0.0925334 -1.49347e-22)
(0.987454 -0.0950128 -1.37947e-21)
(0.988416 0.00678224 1.75517e-22)
(0.989741 0.00337748 -8.41372e-22)
(1.01206 -0.000942691 2.2935e-22)
(1.01204 -0.000865139 1.59441e-22)
(0.87998 -0.0614543 4.97571e-22)
(0.852528 -0.0536131 4.81189e-22)
(1.04283 0.047456 -2.16897e-21)
(1.02701 0.0569127 -4.52058e-22)
(1.04115 0.0520712 2.65968e-22)
(0.64971 -0.330744 1.54862e-20)
(0.625808 -0.317891 1.86735e-21)
(0.609967 -0.315699 2.59292e-20)
(0.841149 0.0136146 0)
(0.81641 0.00316489 0)
(1.0088 -0.0013585 1.25668e-22)
(1.00976 -0.000404406 1.34726e-22)
(1.01339 -0.000774467 -3.54212e-23)
(1.01348 -0.00107917 8.7777e-23)
(1.01342 -0.000675206 2.62448e-23)
(1.00803 -0.000166782 1.70087e-23)
(1.00831 -0.000135552 3.80471e-24)
(1.00957 -0.000131572 1.04364e-22)
(1.04057 -0.127832 2.05624e-21)
(1.03505 -0.126402 1.35585e-21)
(0.974281 -0.110083 0)
(0.96819 -0.122047 -8.11844e-22)
(0.70941 0.113995 7.18367e-21)
(0.72628 0.0588928 -1.61631e-21)
(0.75755 0.0416461 1.30752e-20)
(1.0151 0.00216651 1.30429e-23)
(1.01546 0.00237918 0)
(1.01526 0.00218922 2.11714e-24)
(1.01856 5.01898e-05 0)
(1.01859 -0.000103056 -2.08999e-21)
(1.01875 1.69072e-05 1.35429e-21)
(0.957963 -0.120469 1.5588e-21)
(0.955502 -0.11613 -6.31798e-21)
(0.97541 -0.0440729 0)
(0.94011 -0.0678023 0)
(0.978911 -0.0540967 -3.53951e-22)
(0.919715 -0.177974 3.11114e-21)
(0.924541 -0.178663 0)
(1.02282 0.00215789 -1.43536e-21)
(1.02191 0.00217604 0)
(1.02684 -0.00611149 -1.2864e-21)
(1.0263 -0.00600324 -1.28789e-22)
(1.01657 -0.0841353 1.08734e-22)
(1.01311 -0.0828924 2.2038e-21)
(1.01342 -0.0872582 1.73121e-20)
(0.966951 -0.035228 -1.00876e-22)
(1.00503 -0.0290134 1.07848e-21)
(0.948525 -0.190678 -6.30718e-21)
(0.952341 -0.189377 7.07987e-21)
(1.01144 0.0086535 3.47145e-22)
(1.01224 0.00773646 -1.08265e-22)
(1.01068 0.00708044 0)
(0.566513 0.407332 5.10691e-21)
(0.551415 0.400445 -2.31556e-20)
(1.01225 -0.00101874 -1.84265e-22)
(1.01226 -0.00107696 1.84765e-23)
(1.01215 -0.00100223 4.76497e-23)
(0.766483 -0.252612 3.98646e-21)
(0.773036 -0.266904 -1.8821e-22)
(1.03315 -0.0492101 0)
(1.03517 -0.0499707 0)
(1.0118 -0.0200282 3.37187e-21)
(1.01032 -0.0200376 -1.54679e-22)
(0.690808 -0.342556 0)
(0.651368 -0.326359 1.51751e-21)
(0.677119 -0.332125 0)
(1.02141 -0.00379232 -1.95104e-22)
(1.02172 -0.00365661 1.38801e-21)
(1.02169 -0.0037083 8.41852e-22)
(0.95557 -0.0630885 9.34738e-22)
(0.948565 -0.0701809 2.10395e-21)
(0.88722 -0.173818 0)
(0.892266 -0.169026 -4.51128e-22)
(0.891833 -0.174189 -5.78424e-21)
(1.01498 0.00215669 -4.42273e-23)
(1.01477 0.00194745 1.30744e-23)
(1.03273 -0.107985 1.64598e-20)
(1.03431 -0.112066 -1.59135e-20)
(1.02916 -0.111354 1.16327e-20)
(1.01116 -0.0432717 6.4265e-21)
(1.01071 -0.046368 0)
(1.0227 0.00118706 8.3936e-23)
(1.02359 0.00194954 -1.4792e-21)
(0.735498 -0.770285 4.17755e-21)
(0.758991 -0.757396 3.98271e-20)
(1.01177 0.00985716 3.60183e-22)
(1.0102 0.00902848 -2.25738e-22)
(1.02106 -0.00799728 -1.45971e-21)
(1.02119 -0.00820881 -4.1531e-21)
(1.02101 -0.00820951 -3.67688e-21)
(0.936681 -0.14502 -2.72894e-21)
(0.933056 -0.14565 -6.34873e-21)
(0.938706 -0.141019 3.4972e-22)
(1.01647 -0.00244116 2.42043e-22)
(1.01684 -0.00247499 -1.77344e-22)
(1.01656 -0.00217653 -1.4146e-23)
(1.00307 -0.00995182 4.34871e-21)
(1.00411 -0.0118667 1.80185e-21)
(1.02795 0.0181733 2.64033e-22)
(1.02683 0.0186446 -5.78587e-22)
(1.02704 0.0170989 -1.58527e-21)
(0.676465 -0.343908 -7.49063e-21)
(0.691702 -0.348202 1.23291e-20)
(1.05462 -0.255511 -2.18054e-20)
(1.05777 -0.264637 1.29567e-20)
(1.06354 -0.256887 -3.64231e-20)
(1.01825 -0.00132206 1.17561e-21)
(1.01814 -0.00145842 2.16471e-21)
(1.01533 -0.127079 3.016e-21)
(1.01117 -0.129768 7.13616e-21)
(1.01127 -0.124122 -1.74204e-21)
(1.01854 -0.000757853 -1.93453e-21)
(1.01855 -0.00089371 0)
(1.01873 -0.000792579 0)
(0.858858 -0.118812 8.53587e-21)
(0.866573 -0.108084 -2.97228e-21)
(1.0362 -0.0368839 -1.21579e-21)
(1.03571 -0.0483973 1.48429e-21)
(1.04792 -0.044414 -2.85583e-23)
(1.00868 -2.17441e-05 -8.13034e-23)
(1.00931 5.87922e-05 1.87275e-22)
(1.01021 0.000204366 -4.08678e-22)
(1.01434 -0.00170432 2.43885e-22)
(1.01429 -0.0016822 -1.58112e-22)
(1.01428 -0.0017792 -7.23635e-23)
(1.04548 -0.251619 1.0769e-20)
(1.05266 -0.244642 5.27727e-22)
(1.01039 -0.0490289 0)
(1.01255 -0.0509377 1.26796e-22)
(1.02689 -0.0188261 5.41104e-22)
(1.02617 -0.0194769 -4.87156e-21)
(1.02607 -0.0183009 -5.6021e-21)
(1.01846 5.88236e-05 0)
(1.02108 -0.00395963 1.79202e-21)
(1.02108 -0.00385261 -1.36891e-21)
(1.02088 -0.00777409 9.55476e-22)
(1.02099 -0.0077421 6.69149e-22)
(0.824189 -0.0410174 4.98065e-22)
(0.843014 -0.0498355 1.06784e-21)
(0.0245961 0.276596 -9.62357e-21)
(0.078723 0.296979 -1.14046e-20)
(1.02214 -0.0527248 8.35187e-21)
(1.05431 -0.0842243 1.76105e-20)
(1.0507 -0.0652522 -2.30586e-20)
(1.07018 0.0175107 1.62437e-21)
(1.07166 0.023796 1.34856e-21)
(1.07689 0.0197264 7.93217e-22)
(0.728848 -0.35682 6.41349e-21)
(0.709249 -0.353237 0)
(0.877339 -0.304105 -6.69386e-21)
(0.888547 -0.315534 -6.37136e-21)
(0.869317 -0.320911 9.46795e-22)
(1.01788 -0.000513862 2.21863e-21)
(1.00609 -0.0766268 0)
(1.00599 -0.0730808 0)
(0.914747 -0.177695 1.23299e-21)
(0.918049 -0.182609 7.0108e-21)
(0.994361 0.0903679 -1.08758e-21)
(0.97814 0.0900366 -7.83007e-22)
(0.986935 0.0704114 -1.19658e-20)
(0.979075 0.0839609 2.34627e-22)
(0.99385 0.0869137 4.13906e-22)
(0.985186 0.0729423 -1.5279e-21)
(0.96945 -0.192966 -7.20166e-21)
(0.971078 -0.188578 -2.38581e-20)
(0.973956 -0.191821 8.48244e-21)
(0.944594 -0.191082 0)
(1.032 0.0122723 -1.29465e-22)
(1.03182 0.00774709 1.18667e-22)
(1.0278 0.0104377 -2.21023e-21)
(1.02087 -0.0821371 -1.97879e-20)
(1.00523 -0.0937826 -5.3133e-22)
(1.00188 -0.0625305 -9.94004e-21)
(0.857916 -0.206372 0)
(0.849667 -0.202335 -3.11895e-21)
(0.857279 -0.197144 0)
(1.01784 -0.000280966 1.62359e-21)
(1.01809 -0.000317836 -3.80516e-22)
(1.02405 -0.0135359 6.10683e-22)
(1.0296 -0.0041393 1.20076e-21)
(1.03134 -0.0132337 -5.7665e-21)
(1.01304 -0.0202434 0)
(1.01836 -0.00973048 8.00548e-22)
(0.733899 -0.179509 4.2413e-22)
(0.750505 -0.171762 -3.05262e-21)
(0.745019 -0.192084 -1.15917e-21)
(1.02759 -0.0182611 -1.06629e-21)
(1.02777 -0.019463 -4.97163e-21)
(0.959297 0.0805405 -2.30393e-21)
(0.96597 0.0964203 -5.33812e-21)
(-0.119914 -0.0371445 6.87357e-21)
(-0.131001 0.00371093 -7.08693e-20)
(1.01407 -0.0019356 6.22475e-22)
(1.01406 -0.00189982 8.67608e-23)
(1.036 -0.0691095 4.80714e-22)
(1.04214 -0.10782 3.79293e-22)
(1.01438 -0.00168923 -2.34206e-22)
(1.01443 -0.00159052 1.79119e-22)
(1.01851 -0.000657721 -6.19592e-21)
(1.01837 -0.00073591 -1.76247e-21)
(1.01148 -0.000326513 4.03501e-23)
(1.01071 -0.000246744 -1.74337e-23)
(1.01383 -0.00183227 5.40679e-23)
(1.0136 -0.00162261 5.27735e-23)
(1.01369 -0.00170725 -2.84618e-22)
(1.0136 -0.00166237 -2.54662e-22)
(1.01362 -0.00165937 3.02664e-22)
(0.864595 -0.208885 0)