/*--------------------------------*- C++ -*----------------------------------*\
| =========                 |                                                 |
| \\      /  F ield         | OpenFOAM: The Open Source CFD Toolbox           |
|  \\    /   O peration     | Version:  v2012                                 |
|   \\  /    A nd           | Website:  www.openfoam.com                      |
|    \\/     M anipulation  |                                                 |
\*---------------------------------------------------------------------------*/
FoamFile
{
    version     2.0;
    format      ascii;
    class       surfaceScalarField;
    location    "400";
    object      phi;
}
// * * * * * * * * * * * * * * * * * * * * * * * * * * * * * * * * * * * * * //

dimensions      [0 3 -1 0 0 0 0];
oriented        oriented;


internalField   nonuniform List<scalar> 
20673
(
-0.181395
0.162506
0.0188519
0.37856
-0.3058
-0.0728239
0.0183895
-0.0295881
0.0111988
0.161863
-0.280286
0.118466
-0.351917
-0.126301
0.478201
-0.0175954
-0.00493143
0.0225273
0.0240148
-0.0138414
-0.0101707
0.000146318
0.0128988
-0.0130459
0.00323119
-0.00464331
0.00141238
-0.0491272
0.159699
-0.110591
-0.127204
0.114162
0.0130461
0.143354
0.0164989
-0.159849
-0.0933893
-0.0178679
0.00138802
0.0164785
0.212324
-0.0497608
-0.162597
0.239302
-0.250164
0.0108122
-0.117378
0.306868
-0.189557
0.152008
-0.173832
0.0218061
0.157228
-0.0138694
0.332378
0.268791
-0.601306
-0.375108
0.573399
-0.198288
0.0173296
0.00668554
-0.598818
0.328115
0.27061
0.0230067
-0.0228604
-0.296999
-0.0707703
0.367699
-0.0112487
0.0267724
-0.0155231
-0.102884
0.08106
0.021826
-0.100622
0.0557163
0.0449095
-0.0656133
0.0559275
0.0096845
-0.155091
0.122025
0.033054
0.157033
-0.179743
0.0226782
0.195094
-0.213806
0.0186654
-0.0907094
0.139126
-0.0484141
0.176386
-0.0574712
-0.118922
-0.392635
0.356147
0.036451
0.0813476
-0.112536
0.0311902
-0.371759
-0.227153
0.00229581
0.00946109
-0.0117569
-0.197263
-0.0459629
-0.0110227
0.00114647
0.00987937
-0.582358
0.591285
-0.00925953
0.685302
-0.387504
-0.297775
0.36718
-0.540827
0.173616
-0.0544767
-0.0132607
0.0677407
-0.170482
-0.162211
0.332655
0.105477
0.0626122
-0.168092
0.156758
-0.00477869
-0.0170216
-0.121817
0.138835
-0.0052514
0.0117173
-0.00646564
-0.681121
0.437922
0.242939
0.0434707
-0.170821
0.127318
-0.275142
0.021248
0.253883
-0.0085554
0.00330382
0.0638634
0.112516
0.161334
-0.27878
0.221974
-0.230542
0.00854127
-0.119916
-0.00728416
0.261349
-0.356932
0.0955045
0.0919476
0.161688
-0.253681
-0.338431
0.167908
-0.00455328
-0.00769845
0.0122505
0.175273
0.203212
-0.0178684
-0.171356
0.503604
0.0185753
-0.0361703
-0.0538594
0.0606248
-0.006768
-0.516161
0.333091
0.273261
-0.360596
-0.121107
0.1166
0.0045072
-0.158193
0.186568
-0.0284079
-0.525359
0.173433
-0.00386484
0.00709662
-0.00290205
-0.0126152
0.0155175
0.15522
-0.452293
-0.0090819
-0.00683742
0.0159189
-0.00406969
0.138238
-0.134154
0.0167954
0.00423027
-0.0210262
0.0769958
0.192885
-0.269907
0.0346224
-0.0236515
-0.0109681
-0.612295
0.32376
0.288535
-0.329703
0.601785
-0.272122
-0.249452
0.00530081
0.0271505
-0.0324489
-0.00920599
0.0115018
0.00392361
0.00428149
-0.00820599
-0.215604
0.292573
0.363592
0.209363
-0.573019
-0.0665321
0.0126705
0.219123
-0.17564
0.5187
-0.151531
0.0049886
0.0102749
-0.0152632
0.122625
0.00677312
-0.129415
-0.0597871
0.372384
-0.312672
-0.258073
0.0417945
0.216243
-0.0302106
-0.0363234
0.0269269
-0.0344777
0.00755182
0.0881
-0.137021
0.0489223
0.13883
-0.00128142
-0.137555
-0.0804572
-0.0232068
0.103668
0.048851
-0.0658565
0.0170108
-0.454611
0.563266
-0.108821
0.117598
0.0159645
-0.133561
0.0151204
-0.0695936
-0.278583
0.074392
0.204181
-0.490905
0.0951396
0.395655
0.0076295
-0.00627981
-0.00134915
0.00332985
-0.0660928
0.06276
0.103741
-0.120768
0.115456
0.191332
0.170693
-0.151081
-0.0196411
0.00580462
0.00816924
-0.0139739
-0.00379264
-0.00722892
-0.126031
0.135835
-0.00979828
0.00760315
2.68121e-05
-0.276452
0.126063
0.150384
0.00529992
-0.0064997
0.00119972
-0.355727
0.503832
-0.148211
0.0107825
-0.0135809
0.00279929
0.00865727
-0.00791396
-0.0007442
-0.0862958
0.167356
-0.0810651
0.499441
0.18588
-0.108232
-0.0128707
-0.000744192
-0.00922027
0.00996448
-0.0616847
-0.0389346
-0.609369
0.122265
0.486853
-0.253625
-0.00448928
0.10592
0.218631
-0.324592
-0.535968
-0.0736961
-0.495859
0.589588
-0.0938188
0.0219962
-0.00580481
0.00504048
0.000763843
-0.0931339
-0.183324
0.147528
-0.309774
0.206793
-0.581892
-0.0801778
0.0453255
0.0348514
-0.000685992
0.0236928
-0.0254862
-0.155945
0.0520361
-0.00318397
-0.104455
0.437576
0.0940076
-0.180309
-0.0888635
0.123607
-0.0347431
0.457159
-0.19716
-0.260056
-0.204748
0.277936
-0.0732092
-0.0709826
0.0205102
0.0504782
-0.0585471
0.331821
0.0179812
0.001262
-0.0192433
0.0132797
0.0479176
-0.061201
0.0306873
-0.30584
0.509598
-0.172648
-0.337009
0.233399
-0.215053
-0.0183967
0.159775
0.010172
-0.16996
-0.00135421
0.00665383
0.0102526
-0.118843
0.108589
-0.0912542
-0.0353294
0.126561
0.22284
-0.224043
0.00115996
-0.000778908
0.00503038
-0.00425236
-0.18023
0.0219989
0.0307834
-0.0714953
0.040713
-0.00327061
0.0200649
-0.0462264
-0.0339522
-0.140073
0.220664
-0.0806026
-0.0903905
0.000959442
0.0894281
0.240284
0.360318
-0.600601
0.124946
-0.0368457
-0.136496
0.0104713
0.0151183
-0.0955715
-0.208184
-0.0704073
-0.17116
0.164256
0.00689754
0.140598
0.220023
-0.360681
0.0177578
0.0998394
0.147339
-0.148646
0.00127628
0.0197675
-0.00863995
-0.0111273
0.102986
0.0192048
-0.122184
0.00405187
0.232506
-0.236625
0.0296767
-0.0224121
-0.00726457
-0.0347891
-0.0777784
0.112547
-0.00237273
-0.00343323
-0.00129154
0.0120737
0.0241705
-0.00618992
-0.25223
0.404877
-0.152735
-0.00378535
0.126396
-0.0226881
0.179686
0.298796
0.158308
-0.0953586
0.458894
0.191194
-0.100076
-0.0911351
0.0216078
-0.0328561
-0.0238513
0.127596
-0.103748
-0.00412395
0.00334152
0.16084
-0.156974
-0.00387619
-0.120457
0.100329
0.0201331
-0.0240056
0.0832605
-0.0592519
-0.00229137
0.00621478
-0.115265
0.103773
0.0114858
0.623636
-0.270938
-0.352798
-0.0352458
-0.00990655
0.0451544
-0.105182
0.00230014
0.633735
-0.634109
-0.3117
0.251844
0.000544083
-0.0786759
0.0781268
-0.0780914
0.0812259
-0.0031376
0.0193261
0.18588
-0.205187
-0.341153
-0.340168
0.178857
-0.00697233
-0.171887
0.164761
-0.00500069
-0.0168577
0.0139556
-0.0536748
0.0725839
-0.0189092
-0.27488
-0.117787
-0.1026
0.363876
0.00824881
0.130574
0.0190547
0.0163305
-0.0353845
-0.288589
0.0838163
0.02256
-0.0110005
-0.0115578
0.016034
0.00264578
-0.0186795
-0.0208047
-0.0996449
-0.415538
-0.0754704
-0.0593094
0.0444959
0.0148201
0.158708
-0.00443073
-0.154291
0.0131895
0.00647142
-0.0196608
-0.493711
0.299496
0.194135
0.0199207
-0.0244755
-0.401674
0.149338
-0.00754596
0.125467
-0.117931
-0.12973
-0.452902
0.00675528
0.00539482
-0.0121501
0.00662793
-0.00552851
-0.00109968
0.0539254
0.185332
-0.11903
0.0111773
0.107846
0.0329729
0.189832
-0.463515
0.0478537
-0.00801746
0.0893656
0.13067
-0.0276775
-0.00780725
0.168631
-0.036001
0.017895
0.0181063
0.0191779
-0.00314256
-0.594739
0.490151
0.104374
0.201244
-0.00619002
0.0156063
-0.0106175
-0.00401548
-0.00262689
0.00664118
-0.306547
0.546792
-0.458678
0.44678
0.01175
-0.0151017
-0.000176783
-0.134323
0.101658
0.0326635
0.399836
-0.602111
0.202256
-0.069587
0.10301
-0.0334209
-0.15951
0.152031
0.00746876
-0.102127
0.0117324
-0.165853
-0.0208419
0.186661
0.582881
-0.222591
0.135757
0.0146262
-0.150409
0.0202921
-0.0211642
0.000872308
-0.293762
0.391083
-0.0972878
0.0452057
-0.135736
0.0905157
-0.0416422
-0.00591837
0.0475645
-0.23862
0.34451
-0.274199
-0.0828023
-0.0385535
-0.105217
0.143772
-0.00212945
0.0127431
-0.0106141
0.107576
-0.0973222
0.129137
0.0620424
0.0230582
0.189232
0.24107
0.371162
-0.612243
0.00982352
-0.0105684
-0.00078024
0.0156571
-0.0148763
0.0392272
-0.0886289
0.0494039
-0.383205
-0.0804069
-0.00605276
-0.0115955
0.017649
0.0164679
-0.0166782
0.000211657
-0.0254688
0.0562539
0.0284785
0.00614476
-0.11861
0.114554
0.253153
0.474845
-0.662955
0.18777
-0.152843
0.00410931
0.148716
-5.3136e-05
-0.0139954
0.0140488
0.130379
-0.148674
0.018289
-0.172365
0.264273
-0.0711957
0.0175202
-0.141193
-0.0264433
-0.0925176
-0.456128
0.548554
-0.0326491
0.0328948
-0.000247279
0.25049
0.28644
-0.537053
0.0273513
0.00232557
-0.218313
0.237653
-0.0721518
0.471945
0.0955942
0.107746
-0.203389
0.0429583
-0.134236
0.109282
-0.108328
0.0373016
-0.106888
0.00636298
0.128803
-0.135198
0.382675
-0.0910827
-0.291581
0.0864231
-0.0911208
0.00469477
-0.0224433
-0.0135577
0.00671082
-0.00749249
-0.236151
-0.25765
0.0565116
-0.0218119
-0.0346981
-0.489611
0.0222749
0.467357
0.187129
0.195558
-0.47946
0.123625
0.0603586
-0.0470817
-0.0603619
0.521078
-0.460934
-0.117683
0.110129
-0.187412
0.0215216
-0.265353
0.405894
0.00799504
0.170858
-0.25603
0.0371462
0.218818
-0.00819429
0.00128017
0.00691446
0.091629
-0.126439
0.135043
-0.128287
-0.276128
-0.111728
0.387822
0.0806059
-0.354875
0.00251351
-0.0132783
0.0107651
-0.014816
0.0131138
0.00170165
0.281998
0.221744
-0.392403
0.627063
-0.234952
-0.0310193
-0.00162981
-0.285393
-0.0786474
0.363941
0.0033848
-0.0159995
0.107007
-0.383179
0.0107058
-0.0039503
-0.339187
0.254624
0.0846127
0.10056
-0.0024833
-0.0980839
0.226621
-0.152664
-0.0739554
0.0187079
-0.0133911
-0.00531822
0.0736379
-0.213725
0.00558708
-0.0518161
-0.05135
0.00844353
0.0429131
0.18682
-0.0912724
-0.0742906
-0.0600333
-0.00185233
0.0693186
-0.0674726
0.0671591
-0.287935
0.220714
-0.000690942
0.0089951
-0.0083041
-0.0532138
0.0179691
-0.000893531
0.0173619
-0.192994
0.164729
0.0282593
-7.42607e-05
0.000737106
-0.000662279
-0.157907
-0.0663727
0.224238
-0.00330041
0.00837415
-0.0050743
-0.0470031
-0.00434218
0.0796757
-0.0960914
0.0164067
0.0954246
-0.0157616
0.019788
-0.00139842
-0.563982
0.332826
0.231149
0.150519
-0.0032088
-0.00816483
0.0139694
-0.167929
0.292598
-0.124708
0.218881
0.0087409
-0.227675
0.0179758
-0.0165868
-0.070285
0.0708227
-0.207359
-0.0650941
0.272373
-0.0944295
0.0704263
-0.0400918
-0.025521
-0.60327
0.321987
0.281078
0.00956518
-0.000909707
-0.116289
0.0466179
0.0696743
-0.271952
0.522312
0.51363
-0.35605
-0.157707
0.103978
-0.593546
0.236292
0.273248
-0.00506396
0.0914839
-0.0172907
0.0256824
-0.00839203
-0.0363264
0.0191698
0.0171519
0.012634
-0.0101206
-0.365989
-0.0165636
0.382468
-0.0726766
0.117874
-0.00965789
0.0100603
-0.000402648
0.128019
-0.175039
0.0470106
0.00872055
0.0137739
-0.013827
0.00034827
0.216451
-0.484136
0.267547
0.091715
-0.052484
0.33072
-0.499217
0.16839
-0.0046306
0.0245503
-0.150165
-0.188305
0.0172651
0.00144129
-0.0358267
-0.123694
0.193064
0.0812695
-0.274302
0.457772
-0.573566
0.115774
0.150194
-0.141957
-0.103077
0.0992806
0.136154
-0.138136
0.0019639
-0.0103134
-0.0376155
0.0479339
-0.0104298
0.0071292
0.0183239
-0.00513435
-0.00304515
0.138781
0.0717025
-0.120847
0.0231798
-0.481986
-0.00785572
0.00383939
-0.00684976
-0.0124563
0.019306
-0.0448987
0.296344
-0.251534
0.0776206
-0.0720355
-0.317204
0.503389
-0.186244
0.0333419
0.0855212
-0.118865
-0.106256
-0.232887
-0.316113
-0.247877
-0.301524
0.118753
0.182726
-0.0234121
-0.0146743
0.0380867
-0.0857923
-0.215782
-0.017797
0.0156685
0.00595169
-0.00119749
-0.0047549
0.0768522
-0.0899771
0.0131262
0.0304422
-0.0466139
0.0161767
-0.209013
0.276109
-0.0319306
-0.0273737
0.0388904
0.588294
-0.236705
-0.351711
-0.0669602
-0.29772
0.129743
0.226167
-0.34126
0.11505
-0.0850981
-0.0700018
-0.365828
0.606862
-0.383459
0.465501
-0.0821029
0.391187
-0.0605512
0.106417
-0.111485
-0.330817
-0.281476
0.00189754
-0.00197041
-0.0126262
0.0452405
-0.0326133
0.00371614
0.00348948
-0.00720541
-0.0892096
-0.0260603
-0.00798947
-0.00462595
0.0126154
0.0137698
0.00447773
-0.0182476
0.175215
-0.0472023
-0.476581
0.110505
0.116037
0.0220001
-0.138042
-0.271883
0.0746571
0.215833
-0.19557
-0.0203087
0.219342
0.404209
0.00687933
0.0250327
-0.00597711
-0.0588627
0.0462384
-0.18593
0.215007
-0.0291124
0.122092
0.0255575
-0.147659
-0.158773
-0.0342297
-0.261294
0.215379
0.00780287
0.128336
0.206748
-0.24579
0.0389795
-0.095939
0.0866915
0.00925197
-0.168885
0.284269
-0.439299
0.378769
-0.0105756
0.0139604
-0.00484805
0.0024742
-0.000926408
-0.00392317
0.0360075
0.0995449
-0.135566
0.0064359
-0.00272041
-0.00718989
0.00649881
0.00312569
-0.0126896
0.00956412
0.0199552
0.000426567
-0.0203818
0.149485
0.366592
-0.516192
-0.141655
0.00225581
0.13939
0.228317
-0.0216263
0.35124
-0.256206
-0.0950938
-0.0878892
0.0194891
0.068399
0.00389547
0.486014
-0.539743
0.0537716
0.0193045
-0.14992
0.1306
-0.00176298
-0.159282
0.161041
0.0225078
-0.0145024
-0.00800592
0.349957
0.238242
0.137708
-0.0133649
-0.124345
0.00288901
0.00166667
-0.00455708
0.108413
-0.0265299
-0.0818885
0.00159386
0.000454746
-0.00204812
0.242583
-0.26023
0.215249
0.523228
0.110186
-0.14712
-0.0331412
0.512202
-0.295908
-0.0201301
-0.0181673
0.0382976
-0.0328793
-0.00345154
-0.151383
0.157712
0.00362056
-0.007544
0.00392358
0.026545
0.195402
0.101571
0.0233745
0.0104299
-0.00730471
-0.00558978
0.0535058
-0.0273833
0.104239
0.0100296
-0.0988922
0.115776
0.021937
0.123111
-0.15699
0.0338697
0.100399
0.0309922
-0.131396
-0.183877
0.182166
0.00172021
0.0850716
-0.116762
0.0316937
0.0238768
-0.137503
-0.0242308
0.161741
0.113138
0.00647862
-0.119624
-0.533232
0.546108
-0.0131376
0.0756692
-0.0223297
-0.0533418
0.224486
-0.0168048
-0.207693
-0.433886
0.308213
0.12568
-0.167242
0.0200846
-0.270623
0.190531
0.0800639
0.00288722
0.01962
0.00378673
0.00381714
0.0999263
-0.385417
-0.518502
0.425864
-0.0195806
-0.016876
0.0364565
0.0180357
-0.00426671
0.593971
-0.222858
0.00385965
-0.00226531
-0.320553
0.235032
0.0855391
0.127461
-0.105551
-0.0219175
-0.00373419
0.332111
-0.32849
0.0187719
-0.0112379
-0.00753487
0.0451845
-0.0680325
0.0228473
0.0531491
0.180197
0.309494
-0.188576
-0.12096
0.0100633
-0.0180528
-0.117722
0.0938642
-0.0119268
0.0118074
0.000119385
0.240717
-0.606554
0.00179977
-0.0193627
0.017563
-0.00948525
0.03552
-0.00357321
-0.0319477
-0.357571
-0.07632
-0.00458314
0.00886397
0.00221303
-0.000753275
-0.00145955
-0.141948
0.176492
-0.0345508
0.133823
0.379689
-0.212232
0.270682
-0.058512
-0.148027
-0.0632284
0.0965676
-0.0433389
0.529419
-0.523641
0.167454
0.650704
-0.441478
-0.209425
0.410344
0.240161
0.00922654
-0.0152804
-0.0361787
-0.0517117
0.0332608
-0.109406
0.114083
-0.00467781
0.573875
-0.0993141
-0.0446626
-0.41008
-0.00798524
0.130069
0.00417904
-0.000831495
-0.00334769
0.154044
-0.176491
0.0224309
-0.120611
0.340589
0.454291
-0.228186
-0.295577
-0.0815588
0.377156
0.0045006
0.00286822
-0.00516011
0.393053
0.170157
-0.563281
-0.25715
-0.151461
0.40861
-0.00422067
-0.0324862
-0.151384
0.108337
0.118284
0.0288982
-0.289209
-0.159845
0.268307
-0.108521
0.193707
-0.223514
0.0297577
-0.00779548
0.120927
0.0679519
-0.0698114
0.0181892
0.11151
0.0045244
-0.164239
0.0659907
0.0982377
0.0101395
0.0624441
0.017071
0.117957
0.457051
-0.287046
-0.170091
0.0183789
0.0019134
-0.452957
0.255312
-0.0364826
0.254289
0.010983
-0.265263
0.0499215
0.0257456
0.0900608
0.013427
-0.103502
-0.0131507
0.400225
-0.387285
0.00648617
0.101921
0.122412
-0.146236
0.0238144
0.00376369
0.00282266
-0.00658559
-0.0888483
-0.0754003
0.0134057
0.0899602
-0.103374
0.152655
-0.154426
0.325816
0.131936
0.0113247
-0.00461353
0.10704
-0.00683869
0.00246863
0.00437075
0.182065
-0.351035
-0.166129
0.193524
-0.0274265
0.117341
-0.00326121
0.00161176
0.012162
0.0202675
-0.0202656
0.128594
-0.129885
-0.0744883
0.110486
-0.0480189
-0.202187
0.200108
-0.235419
0.0352702
-0.221865
0.250701
-0.0812507
-0.00811238
0.0893557
-0.0558598
0.0377214
0.158782
-8.83871e-05
0.0103974
-0.000654192
-0.00618426
-0.00311258
-0.00881435
0.0105497
-0.216799
0.20619
-0.0189526
0.120523
0.0699467
-0.0247646
0.0974833
0.0856195
-0.183148
-0.296601
0.101721
0.194858
-0.0317303
0.00392592
0.0278057
0.0174386
-0.0123027
-0.0051359
-0.0186193
0.0147819
0.00383739
-0.0300108
-0.0804814
0.110487
-0.541575
0.0456249
0.00956255
1.36173e-06
-0.00977143
-0.468232
0.45481
0.196768
-0.187816
-0.00898759
-0.000134445
-0.125569
0.125696
-0.127289
0.0365835
-0.00748678
0.129499
0.0334283
-0.0165244
-0.0169026
0.123191
-0.0227982
-0.0115572
0.19422
-0.182656
0.00772094
0.00360411
0.272014
-0.200619
-0.0714181
0.0212904
-0.00133496
0.268662
-0.575225
-0.0167478
0.409744
0.0437041
0.0128107
0.0146329
0.00280649
0.0342562
-0.0101046
-0.0241482
0.101681
0.17031
0.266746
-0.262778
-0.448178
0.191025
0.01535
-0.156529
0.00263632
0.109898
-0.0947717
0.228613
-0.0285423
0.0992458
-0.126626
0.145752
-0.271283
0.267465
-0.0472176
-0.0718169
0.125271
-0.0153647
-0.090796
0.0654705
0.0253299
-0.0592972
0.366251
-0.307055
-0.0966309
-0.0243508
0.120978
-0.0777642
0.00432831
0.00162252
0.0249668
0.134713
0.109646
-0.0196016
-0.196817
0.0306707
-0.262502
0.538676
-0.27639
0.294662
0.0866028
-0.38127
-0.0979563
0.316549
-0.0950249
-0.00326393
0.0982764
0.156238
-0.0507622
-0.0495191
0.111593
-0.0620786
-0.0378462
0.0275329
-0.14995
-0.021215
-0.219654
-0.383808
0.0368669
-0.101518
0.0646437
0.0224036
0.0118552
-0.102956
0.0740243
0.0289359
0.0555445
-0.34928
-0.174404
0.150861
0.0235382
-0.12924
-0.39453
-0.172434
-0.0354388
0.207896
-0.0586469
0.220304
-0.000724422
0.00293813
-0.290763
0.614508
-0.066917
0.199455
-0.0105418
-0.188885
0.0790135
0.0351524
0.151557
-0.0544665
-0.0971048
0.0121191
0.00418518
-0.0163042
-0.0145856
-0.0973635
0.111933
0.0596152
-0.271915
0.0153667
-0.0175329
0.00216601
0.0154011
0.00486777
0.359768
-0.259746
-0.100098
0.228828
0.0254678
0.0736407
-0.0523583
-0.0212812
0.0962757
-0.126294
0.131608
-0.00123604
-0.348572
-0.242039
0.590541
0.0303085
0.279142
-0.102132
0.0996404
0.249303
-0.0562113
-0.124284
-0.0138734
-0.164276
0.125723
0.391473
-0.0968065
-0.149283
0.162356
-0.0130814
-0.0116922
0.405122
-0.175097
-0.229992
-0.276422
-0.0237486
0.300225
0.673291
-0.395874
-0.277627
-0.0101605
-0.0046556
-0.415491
0.6223
-0.20866
0.0226916
0.00508722
0.0146806
0.0197328
0.198416
-0.218194
0.0160937
-0.00145954
-0.0353699
-0.188718
0.0617556
0.0773739
0.231629
0.117911
0.0040294
-0.121965
-0.109037
-0.370517
0.141248
0.00191
-0.143174
0.323934
-0.587221
0.263014
0.108127
-0.106747
-0.00139388
-0.22202
-0.0985155
-0.00617133
0.00905796
0.0502329
-0.0426776
-0.00755196
0.00219729
0.00198162
-0.56129
-0.0731884
-0.240757
0.138944
-0.121888
-0.146984
0.170787
-0.0238273
-0.00253508
0.0146282
-0.0120927
0.000753988
-0.000738335
-1.62719e-05
-0.141399
-0.0324511
-0.323979
-0.0258689
0.349795
0.115472
-0.00905968
-0.0286001
0.018498
-0.0814952
-0.00929666
0.0685456
-0.118071
0.152087
-7.55868e-05
-0.152027
-0.0210842
-0.0138155
0.0348995
-0.167407
0.160994
0.00638081
0.156435
-0.182863
0.00873633
0.0982967
-0.107038
-0.0803892
0.00170859
-0.159167
0.0177586
-2.28586e-05
0.0198034
-0.0197788
0.153966
-0.163726
0.00974956
-0.283
0.0753263
0.207708
0.112493
-0.112626
0.0804869
0.106295
-0.408963
0.322551
0.0864361
-0.189554
0.0171639
0.023375
0.147287
-0.177966
-0.0371355
-0.375358
-0.052499
0.427764
0.181216
0.161073
-0.0180202
-0.143062
-0.0627948
0.248089
-0.185287
-0.149869
0.0255741
0.0207719
-0.344788
-0.216535
0.462126
-0.245636
0.133526
-0.549008
0.218778
-0.152042
-0.0667848
0.222251
0.226754
-0.448978
0.0185937
0.195188
-0.213834
0.626423
-0.281359
-0.345252
0.0167184
0.00205316
-0.142061
0.153843
-0.0117714
0.0394954
-0.0354911
0.234097
-0.518307
0.284034
-0.352675
-0.207217
0.559881
-0.0283141
0.0848923
-0.056579
0.160377
-0.0372792
0.253435
-0.187412
-0.0660277
0.0199848
0.00409547
-0.0240823
0.136142
-0.0323706
-0.103787
-0.0387123
0.0340798
0.0099317
0.109793
-0.136268
0.0264698
-0.0906956
0.265848
-0.17516
-0.633155
0.0229108
0.610249
0.598735
-0.18862
-0.259875
0.00379545
0.0158965
-0.0161193
0.00022299
-0.603452
0.250772
-0.0555077
0.00912265
0.0463848
-0.137702
0.156249
-0.00208112
-0.00757696
0.117145
-0.137234
0.0200717
0.118931
0.0171985
-0.0262926
0.105305
-0.444536
0.105457
0.339016
0.28069
0.316335
0.0151711
-0.430072
0.265702
0.164374
-0.295596
0.0691682
0.226381
-0.0236553
-0.00728588
0.0309391
0.257726
-0.025278
0.104309
0.442829
-0.547146
-0.0130695
0.186025
-0.172982
-0.0657682
-0.41424
0.479849
0.32495
-0.476362
0.151274
-0.160704
0.0209754
0.0121369
-0.0146716
0.165519
-0.185116
0.0195597
0.251117
0.154034
0.466417
0.124527
-0.0100138
0.0116256
0.000388193
0.338778
-0.114346
-0.224507
-0.102439
0.284445
0.0278484
-0.00786653
-0.0594099
0.0731323
-0.0137208
-0.0149644
-0.00243307
0.0173978
-0.107566
0.120963
-0.0447387
-0.238231
-0.238688
-0.356251
0.50755
-0.182719
0.0196986
-0.157194
-0.0219246
0.0333156
-0.105861
0.0725477
0.0410106
0.123713
0.0123966
-0.00340131
-0.29359
0.0964324
0.197104
0.0232058
-0.212091
0.188857
0.0135768
-0.0165179
0.00294115
0.133281
-0.450539
0.0033215
0.22117
0.268065
-0.362714
0.0945653
0.337703
0.258606
-0.596496
0.0130517
-0.164164
0.0846937
0.0245891
0.207193
-0.283208
0.0759909
0.015999
9.4158e-05
0.00221157
0.00741852
-0.00962956
0.022124
0.220831
-0.313766
-0.118444
0.432219
-0.0822855
-0.0274446
0.109737
-0.0453685
-0.326044
0.566719
-0.0627153
0.0756534
-0.0129378
-0.440266
0.1265
-0.156399
-0.285901
0.367137
-0.0811894
0.442768
-0.155023
-0.287733
-0.0994097
-0.244232
-0.105573
0.349803
0.0411272
-0.0935337
0.155658
0.0363354
-0.192025
0.394951
-0.5865
0.191566
0.376178
-0.508003
0.131776
-0.0286726
-0.25867
0.287347
0.0409267
-0.326656
0.285631
-0.343337
0.0669657
-0.0316581
0.0453965
-0.0137356
0.295236
0.0488814
-0.344095
-0.112501
0.405882
-0.29341
0.00220598
-0.00192463
-0.000281544
-0.0088964
0.0101588
-0.153737
0.142173
-0.169706
-0.000591331
-0.130427
0.131008
-0.0537707
-0.17107
0.224825
0.478214
-0.169077
-0.309195
0.122878
-0.0602682
-0.015058
0.117113
-0.00899836
0.280065
-0.48247
0.202371
-0.309087
0.12044
0.000156121
0.000597752
-0.0537997
-0.0879181
0.141715
-0.00370061
0.0107161
-0.00701545
0.528481
0.160299
-0.00113349
0.014247
-0.192369
0.162905
0.0294712
-0.283954
0.0683228
0.0150226
-0.0143706
-0.000651349
-0.0202561
0.00985281
0.0104032
0.360006
-0.319181
0.115236
-0.106506
0.493612
0.104935
-0.344356
0.100124
0.430149
-0.196184
0.00368721
-0.0152829
0.473867
-0.251587
-0.329769
0.280992
-0.0464329
-0.280159
0.0819392
0.198248
0.0252533
0.102201
-0.0906143
0.0494678
0.309631
0.0727099
-0.38232
0.093054
-0.126399
0.0333476
0.368341
0.171102
-0.539511
0.00893341
0.509647
-0.480761
-0.0290022
0.350805
0.354603
0.225075
-0.579691
0.0180492
0.458914
0.0265563
-0.00824116
0.0125949
-0.00435332
0.0177065
-0.0373174
0.0196115
0.00967291
-0.184081
-0.0559918
-0.0602947
-0.0134445
0.0158044
-0.00235943
-0.273739
0.354272
0.000403786
0.00915845
-0.00847617
0.000777042
-0.0159333
0.00248936
-0.00441388
0.0106076
-0.00619355
0.0011094
0.00109658
-0.0120059
0.0157692
-0.0757091
0.112571
0.17344
0.0971784
0.00977876
-0.161625
-0.030736
0.00875324
-0.0156027
-0.415202
0.0576181
0.0987765
0.273537
0.272336
0.0663652
0.538407
0.169848
-0.238652
0.068808
0.114602
-0.149468
0.0348601
0.00635596
-0.0115541
0.00519811
0.378323
-0.27962
0.425634
-0.194399
-0.23124
-0.00264556
0.0101873
-0.00754069
0.00271455
-0.0758529
0.0731309
-0.274833
0.246173
0.0295685
0.0288638
-0.184984
0.156096
-0.0769095
-0.207782
0.284663
0.0235207
0.026714
0.0913035
-0.0617368
0.1549
-0.216133
0.0612149
-0.164691
-0.115439
0.0078926
-0.00568093
0.014576
-0.000999198
0.00147891
-0.015059
-0.365444
0.0795865
-0.0967214
-0.021007
-0.00253717
0.124938
-0.00771591
-0.0045579
0.0122741
-0.00537315
-0.114356
0.129785
-0.0154241
0.253354
0.173435
-0.264142
-0.0848802
-0.208757
-0.51039
-0.113727
0.0588882
0.514704
-0.365317
0.171197
0.0224659
-0.059632
-0.107793
-0.00709452
0.00430158
0.00279354
-0.149639
0.0431569
0.10648
-0.0902993
-0.239424
0.135344
-0.0119394
0.00993382
0.00200655
0.175525
0.330355
-0.236361
-0.0940274
-0.0162231
-0.00125317
0.0174764
-0.367049
0.101634
-0.3116
0.0159533
0.0685366
-0.11025
0.0417177
-0.000932381
0.00455217
0.482182
0.293661
-0.353054
-0.00768538
0.0183948
-0.0107087
-0.111441
0.0554498
-0.0259719
0.0744589
-0.0484875
-0.152036
0.0406763
0.111354
-0.0565089
-0.0560243
-0.488096
0.167712
0.320307
-0.107452
0.111015
-0.00356505
0.163925
0.166401
0.0220196
0.35338
-0.375519
-0.0934914
-0.203131
-0.0399435
0.0198137
0.00209542
-0.0170603
-0.373655
0.0910058
0.282638
0.50351
-0.127371
-0.0846214
0.352607
0.0142325
0.0762217
-0.191842
-0.00251171
0.194322
-0.242915
-0.187154
-0.308324
0.10088
0.00405707
0.367446
-0.0577906
-0.0157499
-0.0822005
-0.00653437
0.0887261
0.00374147
-0.0050171
0.0012749
-0.333304
0.0946436
0.116282
-0.0186286
-0.0976687
0.183591
-0.173101
-0.0173284
0.00609043
-0.0114133
-0.000525641
0.0137545
-0.00558512
-0.132021
0.131418
-0.0068801
-0.0133757
0.465111
0.0109348
-0.0343467
-0.463864
0.479953
-0.0728241
-0.157741
0.181685
-0.157324
-0.0243939
-0.0860507
-0.0338581
0.0142771
0.0298837
0.0432576
-0.0731374
0.080137
0.0298367
-0.109968
-0.00335235
0.0138444
-0.0104925
-0.289229
-0.27247
0.561466
-0.0645357
0.108969
-0.0444367
0.105717
0.337065
-0.0806369
0.161096
0.0144005
-0.00554793
-0.00885227
0.223226
0.12796
0.177569
-0.641443
0.216599
-0.27403
0.0573713
0.0996471
-0.25939
0.159709
-0.00546263
-0.00163179
0.471697
-0.105896
-0.365866
0.515399
-0.187383
0.0154669
-0.0145771
0.133784
-0.119229
0.15889
-0.155507
-0.00339749
-0.0259572
-0.00264072
-0.0923727
-0.0218515
0.114233
0.0147871
0.000318443
-0.015105
0.0118296
-0.140386
0.119257
-0.173062
-0.0133953
0.0157941
-0.186227
-0.00063146
0.0309136
-0.030283
0.00634569
0.0204269
0.213515
-0.0110282
-0.202479
-0.312624
-0.055377
0.368031
0.00523759
0.0156614
-0.0208993
-0.0516067
-0.238818
0.269491
-0.158709
0.0368659
0.121836
0.163295
-0.00925659
-0.35185
0.123706
0.22817
-0.0285527
0.198414
-0.148828
0.248452
0.156165
0.285838
0.311202
0.146495
0.00557811
-0.0298697
0.0503837
-0.365511
0.145825
-0.142381
-0.00346508
0.112625
0.21051
-0.323161
0.101533
-0.102436
0.000888047
-0.25551
0.579174
0.157865
0.00121697
-0.142882
-0.23709
0.174297
0.325606
-0.0828222
-0.242778
-0.299531
-0.074138
0.0404372
-0.0375129
-0.0029204
-0.101773
-0.0216478
0.123405
-0.0077543
0.0196907
-0.0119364
0.257337
0.208117
-0.325894
0.275186
0.0506476
0.0111175
-0.265084
-0.0977153
0.0124357
0.127957
-0.140403
-0.130297
0.0285075
-0.236475
-0.11535
0.0258325
0.12619
-0.260448
0.373058
-0.00961321
0.0221139
-0.0125031
-0.294667
0.0558359
-0.00943431
0.203662
0.0156706
0.00230638
-0.0853993
0.111491
-0.026093
-0.104694
0.406873
-0.302292
-0.220896
0.200492
0.0203413
0.00203478
-0.0102745
0.359331
-0.337415
0.479524
-0.127329
-0.352322
-0.0123672
0.00465195
-0.0104919
0.0141789
0.0409627
-0.199741
-0.0232904
-0.0773435
0.100641
0.545142
-0.276483
0.234528
-0.0183351
0.246272
-0.209189
-0.354904
-0.0896937
-0.0971019
0.025082
0.0720202
0.310524
-0.291381
-0.0191534
0.0213045
0.0495631
-0.0708666
0.202312
0.399438
-0.451069
0.0960833
-0.302428
0.188013
0.0203904
-0.112755
-0.000337695
0.00277754
-0.0024402
-0.211153
-0.0866121
0.0139073
-0.245763
0.231792
-0.356159
-0.132023
0.20478
-0.181751
0.482455
-0.144919
0.0223829
0.148008
-0.128717
-0.584795
0.258744
0.00646614
0.019216
0.114078
-0.0987004
0.0341638
-0.00450013
-0.0026897
-0.0218248
-0.00990349
0.399728
-0.308734
-0.305961
0.06957
-0.252495
0.344604
-0.0921864
-0.00527565
-0.184492
0.1347
0.00277469
-0.00145428
-0.00132106
-0.00585495
-0.0109004
0.0167558
0.235341
-0.16172
0.0067154
0.00988888
-0.0167265
-0.15264
0.156275
-0.00364897
-0.102052
0.0787675
-0.114049
0.0994467
0.00119568
-0.0175277
0.113021
-0.0114982
0.0461884
0.0481714
-0.0943627
-0.00872213
-0.000483703
0.149047
-0.00853312
-0.140503
0.166945
-0.0146461
-0.0188303
0.0745486
-0.402856
-0.012343
0.220485
-0.146098
0.0148242
-0.0154572
-0.1243
0.151303
-0.0270318
0.379201
-0.279366
0.127007
-0.00911658
-0.111915
0.124341
0.00501057
-0.0148349
-0.00104359
0.015879
0.212859
0.00810708
-0.221027
-0.019496
0.016143
0.0175953
0.141375
-0.158958
-0.0328667
0.0881836
-0.0553126
-0.0614602
-0.0517997
0.113255
0.123447
-0.0981992
-0.162681
0.191517
-0.372976
0.201554
0.0289053
0.316367
-0.433152
0.116699
-0.0562002
0.211085
-0.505458
-0.0280375
0.182456
-0.376104
0.119988
0.256053
0.0149237
0.107031
-0.121969
-0.0317851
0.116861
0.0112324
0.00716672
-0.0183991
0.073653
0.0386248
-0.112283
-0.027023
-0.0635927
-0.0375121
-0.0213492
0.070659
0.260501
-0.369641
0.109074
0.00509903
0.0165828
-0.0425392
0.025957
0.329751
-0.395724
0.0659199
0.350157
-0.15507
-0.0154941
0.170548
0.00290207
0.0129944
0.335385
-0.593791
0.258398
0.13714
-0.00346133
-0.133689
0.0711241
0.00326825
-0.0743986
0.130272
-0.154353
0.0240541
0.377506
-0.260413
-0.117125
-0.294948
0.231976
0.0630009
-0.182529
0.327048
-0.144523
-0.0843145
-0.0744017
-0.144887
0.109533
0.230372
0.0064234
-0.0125971
0.0322379
-0.0143341
-0.0179049
-0.115359
0.129961
-0.0714039
0.00868836
-0.00962856
0.158688
0.0926465
-0.0808541
-0.0117963
-0.209909
0.229598
-0.211862
0.158083
0.0201838
0.0312789
-0.051461
-0.0465997
0.0667125
-0.0201127
0.0163189
-0.00223687
0.0432885
-0.0421487
-0.590997
-0.421927
0.315244
0.106692
-0.139156
0.314356
0.352291
-0.0828269
-0.2695
0.110097
0.167827
-0.0478733
-0.0865892
0.134437
0.378105
-0.0885526
-0.289645
-0.0105909
0.113003
-0.102411
-0.506999
0.441063
-0.175773
-0.303223
0.126521
-0.00760305
-0.0198871
0.119136
-0.0555196
0.101703
-0.360329
0.0865173
0.0267202
-0.177646
-0.244273
0.0194257
0.0296952
-0.0491196
0.265227
0.238113
-0.187514
0.130038
0.458367
-0.178344
0.0325917
0.0824682
-0.115058
-0.00520947
0.0744971
-0.0976991
0.273316
-0.0813765
-0.0682647
0.364101
-0.154713
-0.20946
0.149418
0.0156114
-0.0114263
0.235685
0.106256
-0.341962
0.185718
-0.279231
-0.141207
0.126608
0.175029
0.0217025
0.00739521
0.277599
0.110897
-0.181717
0.070791
0.258762
-0.282464
0.129411
-0.504862
0.140011
-0.0254139
-0.086198
-0.176655
-0.213473
-0.240154
0.453507
-0.156296
-0.0598561
-0.00854288
-0.012621
-0.202289
-0.0215612
0.223807
-0.0632078
0.096525
-0.0121533
-0.00520789
-0.00415947
0.00382212
-0.229659
0.0273258
-0.449695
0.236089
0.0618073
0.119731
-0.181565
0.0185944
0.000383561
-0.0189776
-0.21797
0.293333
-0.145933
0.0216037
-0.0139664