/*--------------------------------*- C++ -*----------------------------------*\
| =========                 |                                                 |
| \\      /  F ield         | OpenFOAM: The Open Source CFD Toolbox           |
|  \\    /   O peration     | Version:  v2012                                 |
|   \\  /    A nd           | Website:  www.openfoam.com                      |
|    \\/     M anipulation  |                                                 |
\*---------------------------------------------------------------------------*/
FoamFile
{
    version     2.0;
    format      ascii;
    class       surfaceScalarField;
    location    "100";
    object      phi;
}
// * * * * * * * * * * * * * * * * * * * * * * * * * * * * * * * * * * * * * //

dimensions      [0 3 -1 0 0 0 0];
oriented        oriented;


internalField   nonuniform List<scalar> 
20580
(
-0.124368
0.00924266
0.115123
0.122176
-0.242876
0.120707
0.25341
-0.131228
0.00637069
0.00307439
-0.00944511
0.58283
-0.618333
0.0355974
0.257762
-0.181135
-0.0766207
-0.292629
0.0444006
0.57362
-0.576138
0.00261974
-0.0380864
0.0337362
0.00435026
0.421196
-0.240319
-0.180866
0.14499
0.00486975
-0.149854
-0.518224
0.309518
0.208736
-0.202173
0.283175
-0.0809957
0.024849
-0.0105375
-0.0143113
0.182958
-0.0322256
-0.150742
-0.107882
0.0958798
0.0119972
0.010372
0.00687092
-0.0172434
-0.171349
0.353264
-0.181901
0.0885347
-0.10405
0.0155157
-0.109576
-0.0147957
0.0622407
-0.186484
0.124241
0.233417
-0.197435
-0.035963
0.0276941
-0.0462689
0.0185757
-0.584079
0.591594
-0.00749916
0.0792646
-0.104445
0.0251802
0.000746901
0.109893
-0.110646
-0.0137009
-0.0626409
0.0763409
-0.0892353
0.0695458
0.0196895
-0.0112306
0.04912
-0.0378897
0.481905
-0.320604
-0.161263
0.0034032
-0.00304114
-0.000362162
-0.220545
-0.0721046
-0.106134
0.119397
-0.0132618
0.0631314
-0.0514336
-0.0116983
-0.156281
0.146927
0.0093568
-0.0373984
-0.00927578
0.0466746
-0.615077
0.0310031
0.00447583
-0.0794228
0.0749466
-0.00315451
0.0117623
-0.00860812
-0.124789
-0.164123
0.288937
-0.02552
-0.0106587
0.0361787
-0.0522244
0.0409938
0.0184683
-0.0184683
0.0950718
-0.000359216
-0.0947092
0.0484865
-0.0593887
0.0109021
0.448519
-0.273884
-0.174597
-0.533819
-0.0690419
-0.122185
0.0438611
0.0783219
-0.0458874
-0.211865
0.257777
-0.297602
0.0954334
0.00861926
-0.00916927
0.000543682
0.150056
-0.285169
0.135119
-0.0968324
-0.0110541
-0.0459866
-0.123379
0.169353
0.024443
-0.00153094
-0.0229123
0.105733
-0.230504
0.00885259
-0.114986
-0.0361639
0.0106442
-0.0187747
0.0844149
-0.0656417
-0.00819537
0.0138507
-0.00565471
-0.351305
-0.166887
0.068721
-0.0824228
-0.212393
-0.202316
0.414716
-0.190545
0.144678
-0.0415185
0.0918496
-0.0503287
-0.0824041
0.0408879
-0.0107888
0.00259347
-0.0937734
0.0639623
0.352799
-0.244343
-0.108431
0.00489799
0.00323245
-0.00813075
0.00781538
-0.00036417
-0.00745129
0.15813
-0.178745
0.0206143
-0.0374002
-0.217467
0.254885
0.0128865
0.000964723
0.173478
-0.0169132
-0.156575
0.221188
-0.211203
-0.00996655
0.0200364
-0.00966418
0.339639
-0.523071
0.183476
0.102613
-0.0233474
0.448118
-0.219516
-0.228561
0.241443
0.111381
-0.111033
0.118781
-0.00774656
-0.0278242
-0.128449
-0.0169573
0.0223695
-0.00541238
0.0146008
-0.00171399
0.00440083
-0.00614857
0.00174772
0.069311
0.164122
0.0325016
-0.00551299
-0.0269887
0.234083
0.141591
-0.375659
0.00171593
0.00168721
0.267634
-0.117575
-0.297461
0.0768985
0.0149336
-0.0149341
0.0082571
-0.0038562
0.00209871
-0.00663254
0.00452628
0.0290731
0.0695663
-0.0986359
0.141555
-0.348105
0.206586
-0.0864978
0.101416
-0.0149211
-0.000820166
-2.81741e-05
0.000848256
0.0122067
0.100675
-0.112879
-0.104586
0.0180865
0.122195
-0.0454714
-0.0767258
0.081835
-0.119988
0.0381506
-0.163652
-0.0846585
0.248324
-0.467297
0.133369
0.333962
0.124126
-0.165888
0.0417618
-0.166726
-0.300531
0.00713385
0.000681476
-0.0728663
-0.224613
-0.334771
0.16344
-0.0141708
0.153547
-0.139363
0.332393
0.116168
-0.104827
0.112436
-0.00760802
0.02148
0.105738
-0.127215
-0.110354
0.104086
0.00626392
0.159286
-0.205283
0.166029
-0.395481
0.229498
0.463647
0.110073
-0.00378708
0.0101577
0.00676443
-0.00186611
0.0704414
-0.103562
0.0331244
0.159434
-0.415055
0.255652
-0.27617
0.285627
-0.0094367
0.0182988
-0.000798193
-0.0175014
0.073996
-0.104474
0.0304782
0.0276551
-0.0666239
0.0389662
0.338982
-0.197384
0.0602454
0.0906754
-0.150913
0.0315893
0.00769493
-0.0392842
0.14024
0.0172227
-0.157463
-0.19931
0.00189142
-0.127552
0.183578
-0.0560123
-0.0810567
0.0855324
0.04216
0.0209707
0.00288918
0.142105
-0.00625552
0.00715318
-0.000900361
-0.0495629
-0.00447045
-0.00167811
-0.0144524
0.125431
-0.11098
-0.157446
0.0227283
0.134714
-0.107769
-0.00326548
0.251254
-0.226383
-0.0248617
-0.0613758
0.295472
-0.0793316
0.00254633
0.0767843
-0.0114856
-0.0673474
0.0788353
-0.0424221
0.231308
-0.188868
0.511836
-0.172156
0.00521602
0.0443993
-0.036065
-0.0083339
-0.0619435
0.122194
-0.0521611
-0.0524267
-0.107447
0.00261938
-0.099885
0.121366
0.0990191
-0.0888346
-0.0101844
-0.211005
-0.0266197
0.237631
0.122798
0.193094
-0.315888
0.306088
0.21695
-0.522996
-0.00653377
0.00337893
-0.179689
0.0874769
0.0922093
-0.0484721
0.204925
-0.156462
-0.415191
-0.16493
0.580142
0.0505298
-0.0444129
-0.00611772
0.153716
-0.0295838
-0.0384377
-0.0837494
0.01224
0.0126091
-0.0550398
0.00766853
0.0473711
-0.043159
-0.0118813
0.00944554
-0.000832854
0.152325
-0.166482
0.0765214
-0.0714421
-0.00508081
0.534326
-0.323577
-0.210718
0.4357
-0.26961
0.152651
-0.135422
-0.017229
0.548747
-0.109621
-0.439053
0.00968748
-0.00758705
-0.0669349
-0.0177182
0.0846501
0.0876917
-0.0988864
0.0111939
0.253305
0.182449
0.177763
-0.161369
-0.0164076
0.103225
-0.015534
0.0946513
-0.0206531
0.124149
0.0122958
-0.174911
0.162628
0.176362
-0.0361226
-0.0195676
0.0195675
0.0154933
0.0289064
0.0882091
0.0311883
-0.0756938
-0.0559476
0.131642
0.225044
0.0115775
-0.236614
-0.136877
-0.237103
0.374021
-0.0779085
0.0664226
-0.125003
-0.0546906
-0.0150096
0.00447216
0.126463
0.131303
-0.226482
0.184078
-0.0935088
0.108021
-0.0145159
0.111322
-0.0231132
0.198377
0.103056
-0.30143
0.129224
-0.310385
0.181188
-0.0102567
-0.0719574
0.0822104
0.118576
-0.111867
-0.00670871
0.0105934
-0.0186998
0.00810615
0.0408477
-0.0263571
-0.0144912
0.015125
0.167828
-0.00635083
-0.0507756
0.0571281
-0.0011322
0.0117255
0.190941
-0.213034
0.0220931
0.11505
-0.130235
0.015181
0.0402594
-0.0117721
-0.0284874
0.196933
-0.00668453
-0.190238
-0.0953992
0.101029
-0.00563332
-0.241784
-0.0343686
0.0108055
-0.645936
0.393584
0.252356
-0.137513
0.15786
-0.0203444
-0.212699
0.178125
0.0345889
-0.2415
-0.0560969
-0.0076599
0.0791841
-0.0715248
-0.170795
-0.139508
0.310318
-0.00186798
0.0249034
-0.202486
0.455847
0.114405
-0.101968
-0.0124374
-0.0197916
0.0028348
0.0100724
-0.00386241
-0.00621877
0.0373406
-0.139704
0.102364
0.135385
-0.0203382
0.668284
-0.368831
-0.299449
-0.0306215
-0.0487109
0.175338
-0.454496
0.279196
0.00941575
0.00452426
-0.00414708
-0.000377236
0.0821284
-0.157821
-0.0379393
0.234883
-0.48054
0.216731
0.00968917
0.0311581
0.228332
0.253615
0.0793864
-0.051691
0.0338544
-0.021968
-0.0118867
-0.106958
0.119168
0.143982
-0.559164
-0.0441099
0.0887915
-0.0446798
-0.0137146
0.0174859
-0.0037713
-0.00897092
0.0574573
0.000475236
0.175931
-0.172642
-0.00329312
0.0632749
-0.0612079
-0.0020678
0.0761472
-0.0838083
0.0263443
0.151408
0.101412
-0.031843
0.154568
-0.154927
0.000371761
0.0035455
-0.0213989
0.0178535
-0.0963322
0.109458
-0.0131236
-0.308586
0.643383
-0.334672
0.0588862
0.149603
-0.208488
0.00790513
0.0501222
0.000407544
-0.0216615
-0.00683114
0.0284928
-0.346771
0.209927
0.0506735
0.190028
0.14989
-0.339906
0.0924482
-0.0884734
-0.0039764
0.106579
-0.0942105
-0.0123701
-0.0954588
0.154346
0.137321
0.0164004
-0.121275
0.0249424
-0.0878667
0.29936
-0.211468
0.0527509
0.0694407
-0.122333
0.0370331
0.0852984
0.0947308
-0.0720064
-0.0227256
0.45899
-0.195123
-0.263844
-0.292663
0.0511667
0.11947
-0.0407444
0.051572
-0.0108266
0.014595
-0.000228089
-0.0143676
0.148594
-0.0178708
-0.130725
0.385102
-0.225644
0.0830433
0.01161
-0.0893337
0.0995394
-0.0102055
-0.0883404
0.111013
-0.0226747
0.152733
-0.01541
-0.0482167
0.00747303
-0.00527921
0.00462567
0.000653368
0.141313
-0.190627
0.0493185
-0.0989628
-0.0576816
0.156646
-0.0936191
0.101551
-0.00793155
0.177904
0.168967
-0.34683
0.229412
0.292295
-0.521667
-0.105315
0.0169765
-0.0158823
0.138892
-0.123004
-0.456909
0.230206
0.226737
0.489683
0.134106
-0.623774
0.404804
-0.229432
-0.562112
0.569197
-0.00697499
-0.0189294
-0.148033
0.166962
0.535543
-0.0324149
-0.00567159
-0.0848972
0.147135
0.146227
-0.285223
0.139023
0.0127238
0.0208156
-0.00251686
0.0632285
0.209662
-0.272883
0.00482749
0.00361903
0.000667946
-0.00428751
0.0744816
0.176782
-0.177854
0.241087
-0.205662
0.120764
0.0168012
-0.0167808
-2.0986e-05
0.0220738
0.00599908
-0.0280727
0.151429
-0.0225846
-0.128846
0.460233
0.122691
0.0794153
-0.00289458
0.183049
0.135769
-0.145219
0.00945065
0.00526484
-0.00164676
0.0872923
-0.0772604
-0.0100339
-0.24947
0.200989
-0.104496
0.010877
3.15706e-06
0.0865404
-0.0865437
0.00380575
-0.00494065
0.00113581
0.110023
-0.00761297
-0.10241
0.0420881
-0.108966
0.0668743
-0.0130907
0.00683417
0.0242637
-0.00439361
-0.0198702
-0.0327021
-0.0565332
0.312457
-0.183203
-0.00604947
0.0165687
-0.0105194
-0.0224468
0.0224469
0.00307786
-0.0311241
0.0280453
-0.0381114
0.0411878
0.144527
0.0464142
0.156328
-0.0312499
-0.125078
0.0254563
-0.157264
0.131814
0.0141565
0.0183448
0.0508065
-0.11068
0.0598709
-0.215966
-0.298832
0.514902
-0.105559
-0.428275
-0.0528241
0.178644
-0.125806
-0.00274341
0.00654961
0.0276015
0.367173
-0.189223
0.00343498
0.0543561
0.109953
-0.164304
-0.176726
0.0491832
-0.0457184
0.250637
0.0171135
-0.000312427
0.0908971
-0.0078529
0.0111846
-0.0145233
-0.198155
0.177999
-0.215926
-0.0506053
0.0448067
0.00579797
0.247153
-0.0221019
0.00968543
-0.0634436
0.204764
-0.122262
-0.0834002
0.140246
-0.0858857
0.331632
0.287555
-0.141299
0.110938
-0.131714
0.0207771
-0.0167555
0.117433
-0.103484
0.112738
-0.00925271
-0.0810529
-0.0387356
-0.0118701
0.188641
0.0426792
0.00749689
-0.0981232
0.0854917
0.0126308
-0.190552
0.427449
-0.236884
0.0851247
0.00216714
-0.101781
0.11806
-0.0162804
0.00132033
-0.00214056
0.163393
-0.216202
-0.129338
0.00473164
-0.0832191
0.0644436
-0.0939717
0.0805795
0.0133926
0.11699
-0.121087
0.00409643
0.0309494
-0.0259664
-0.00498309
0.282974
-0.234649
-0.0483095
0.0173839
-0.0843216
0.00222854
0.0162397
0.0209054
-0.17991
0.159009
0.0213164
-0.0177711
-0.0313677
-0.145859
0.177232
-0.0394367
0.0138231
0.0256133
0.0789244
-0.177889
-0.0284557
-0.126546
0.114561
-0.107986
-0.00657749
0.0532161
-0.0911539
0.0379398
0.304651
-0.181848
0.231284
-0.148599
-0.0826791
0.0953304
-0.111207
0.0120978
-0.295689
-0.0207091
0.316426
-0.00488373
0.153475
-0.0593964
-0.00155583
0.0609519
-0.211042
0.173655
-0.0715249
-0.0587161
-0.0116847
0.0129341
-0.00124974
0.104234
-0.250519
0.146297
-0.0449268
0.114289
-0.0693598
-0.148712
0.145059
0.0036467
-0.00957541
0.0316491
0.187725
-0.194399
0.125321
-0.12458
-0.0675813
0.061233
0.00210508
0.160143
-0.150231
-0.00991569
-0.0337768
0.0121155
0.00088653
-0.0896196
0.0455111
-0.276107
0.188262
0.115236
-0.00429283
0.147204
-0.175115
0.027916
-0.119714
-0.00962778
0.413912
-0.207319
-0.206567
-0.019511
0.0195112
-0.0126471
0.0603691
-0.047722
-0.0922215
0.0949372
-0.00271558
-0.0569721
0.234984
-0.00671376
0.0780139
-0.0739578
-0.00405766
0.0131006
0.00149405
0.479906
-0.211907
-0.267994
-0.0184584
0.0124091
-0.10539
0.106007
-0.000615035
-0.0124842
-0.00956866
0.0220534
0.164852
-0.0102731
-0.0227415
-0.065494
0.0882358
-0.0448919
-0.233532
0.278435
0.566882
-0.0180646
0.000272753
0.02417
0.0813736
-0.00788674
-0.0734876
0.140529
0.280676
-0.203854
-0.0390175
-0.129846
0.0583158
-0.158334
0.4582
-0.299807
-0.0637099
0.0510625
0.0371731
0.119155
-0.116322
0.0145388
-0.217588
0.213464
0.00411714
0.0103407
0.272655
-0.325881
0.252108
0.0737722
-0.0795191
-0.0144521
-0.0734721
-0.211719
-0.0245274
-0.301354
0.0192097
-0.0774387
0.0582285
-0.062218
0.00282148
-0.164837
-0.0344567
0.0166256
-0.0844127
0.067786
0.221522
-0.433915
0.514238
-0.221898
0.268606
-0.164359
0.00597657
0.12248
-0.138678
0.0161921
-0.327344
0.0327058
0.294663
-0.310315
0.208537
0.101793
-0.0370036
0.107448
-0.120364
0.291959
-0.171591
-0.0433005
0.0345818
0.00871786
-0.174501
-0.375623
0.550171
-0.148779
-0.0563537
0.205126
-0.0307312
-0.0286575
0.00121491
-0.0930648
0.0918539
0.427925
-0.60461
0.176717
0.497559
-0.20294
-0.294589
-0.191866
-0.0257334
0.315231
-0.12336
-0.191874
0.0846153
-0.100488
0.0158749
-0.0790934
0.0708717
0.00822139
0.185781
-0.00985065
-0.0113571
-0.0374107
0.0487659
0.211647
0.269686
-0.484967
0.215312
-0.0246646
0.0378521
-0.0131877
-0.0665948
-0.156528
0.0846817
0.071846
-0.300188
0.269413
0.0307924
0.023465
-0.125881
0.111427
0.0744216
-0.0208589
-0.0535611
-0.235486
0.0718448
-0.163904
-0.00141046
0.165323
-0.0147219
-0.189177
0.164361
0.0248084
-0.0322198
0.0278261
0.0823837
-0.0043705
-0.0943404
0.00211743
-0.23131
0.079035
0.152283
0.00257618
-0.154175
-0.153283
0.307486
0.00470651
-0.131753
-0.0169685
0.0367585
0.0745637
0.17475
-0.0275381
0.206684
-0.111435
0.112655
0.121402
-0.445448
-0.17281
-0.0157694
0.0150179
0.000751662
0.00908886
-0.0337537
-0.0129548
-0.0303463
-0.00886139
-0.000910502
0.00977204
-0.059884
0.00692087
-0.0160007
0.00907981
0.00532822
0.149993
-0.0308384
-0.119153
0.576735
-0.301409
-0.275316
0.0516635
-0.0965892
0.152744
-0.393057
-0.371734
0.0760763
0.0211518
-0.138606
0.117456
-0.00457505
0.0136187
-0.00903924
-0.059741
-0.180812
0.240556
0.20205
-0.229034
0.0269926
-0.141283
0.0963397
0.0449488
-0.145983
0.0135441
0.132438
0.395538
-0.185634
-0.209904
-0.0409056
-0.0379744
0.0788807
0.459302
-0.283082
-0.176189
0.0417199
-0.0337404
-0.00797952
0.0894844
-0.00486658
0.168765
0.279386
-0.293414
0.201467
0.0919467
0.10408
-0.103449
-0.000628705
0.0174685
-0.228538
0.0799277
-0.0992517
0.0193225
-0.0408243
0.0924885
-0.142319
0.353591
-0.211272
0.000346568
0.00152744
-0.00187458
-0.0136567
0.102191
0.101454
-0.0958384
-0.00561512
-0.045337
-0.185964
-0.0118034
-0.065636
0.00951051
-0.00287341
-0.00663718
-0.334599
0.192276
-0.0146597
-0.0741102
0.0887698
0.366845
-0.173377
-0.19344
0.111229
-0.0700385
0.0783129
-0.00827464
-0.0253199
-0.0141169
0.188749
-0.163898
-0.0248478
0.137904
-0.0154302
0.225921
-0.404595
0.178679
0.114791
-0.115067
0.000273333
0.0402055
-0.00861629
-0.00200813
0.00729379
-0.00528629
-0.254045
0.391839
-0.137793
-0.0198217
0.0112482
0.00857354
-0.348022
0.122523
-0.00574437
0.159477
-0.155965
-0.0035208
0.3331
0.146812
-0.0719338
-0.139254
-0.000149293
0.00177547
-0.00162685
0.115371
-0.0621527
0.00019664
0.198828
-0.258563
-0.178377
0.32828
-0.0375204
0.0478477
-0.010327
0.148789
0.402718
-0.551488
-0.108555
-0.00951396
0.118073
-0.173825
0.237649
-0.063831
0.17528
-0.160487
-0.0148023
0.185807
-0.0377674
-0.148039
-0.0505893
0.059565
-0.00897573
-0.00317471
-0.00210481
0.0893973
-0.222919
0.133534
0.0182505
-0.0160221
0.0865076
0.176629
-0.263144
0.00498071
0.121405
-0.126384
-0.0403022
-0.0119222
0.0246434
-0.0261744
0.278037
-0.31481
0.0367969
0.145205
-0.00940873
0.0912423
0.00084288
0.000932347
0.00814782
-0.0820562
0.0739072
-0.0149143
0.129701
0.0966899
-0.0222666
0.180691
-0.0212248
-0.0740853
0.153007
-0.00556501
0.0100896
0.0713649
-0.015143
-0.0562213
-0.0611257
0.124586
-0.0634543
0.0348881
0.00683172
-0.0750513
0.087222
-0.01217
0.00637578
0.0434417
-0.0498177
0.307307
-0.204696
-0.102593
0.076186
0.00822699
0.0663391
-0.0890806
0.515093
-0.248452
-0.266611
0.014088
0.000845138
0.0642926
-0.0250795
-0.0392098
0.164636
0.0189143
0.308164
-0.136205
-0.171937
-0.0488974
0.03754
-0.114714
0.125429
-0.0107119
-0.0317783
0.0517837
-0.0200048
-0.258636
0.185189
0.602801
-0.0573996
-0.545346
-0.0990507
0.129116
-0.0300649
-0.12518
-0.0208017
-0.502578
0.328127
0.00511524
0.502227
0.100629
-0.0907622
0.0157094
0.219788
-0.215291
-0.004489
0.00682438
-0.126542
-0.255266
0.170623
0.213426
0.182113
-0.129135
-0.00895354
0.138099
-0.00870069
-0.011121
0.169318
-0.142583
-0.0267362
0.00328591
0.019685
-0.283342
0.480723
-0.197331
-0.416451
0.0173116
0.399154
0.00809514
-0.143517
-0.147139
-0.163164
-0.101198
0.121676
-0.0204774
-0.259137
0.170606
0.0885354
-0.115242
-0.0412864
0.0805518
-0.00436821
0.320859
-0.557395
0.236544
-0.0231772
0.0264358
-0.00325882
0.31339
0.354898
-0.104104
0.0924249
0.0116734
0.0139085
0.004342
-0.0420802
-0.00723396
0.0493149
0.014781
0.0269924
-0.0587695
-0.0551172
-0.0861606
0.0995535
-0.114343
0.0147917
0.0490223
0.0152725
0.22566
-0.374353
0.148697
-0.0677716
0.0268665
0.135416
-0.146529
0.167436
-5.2559e-05
-0.00880882
0.0138747
0.0743747
-0.088248
-0.347679
0.157141
-0.121118
0.0199218
-0.105502
0.303883
-0.0393562
0.0457319
-0.0134927
0.00336922
0.0101229
0.0127491
0.192204
-0.204931
0.0537027
-0.0493633
-0.0133274
0.0626907
0.617839
-0.336178
-0.281655
0.387124
0.23072
0.123229
-0.0133396
-0.0259023
0.00272505
-0.0636532
0.0739829
-0.0103304
-0.217338
0.0394867
0.118335
-0.102828
-0.0155089
0.156117
-0.276477
0.314762
-0.383409
0.06865
0.064097
-0.0790604
0.0149623
0.0103473
0.136965
-0.0981029
-0.03886
0.163103
0.309874
-0.472967
-0.0596017
-0.0627316
0.0941894
0.036338
-0.130524
0.0206228
-0.1297
0.109071
-0.263096
0.0811033
0.181994
-0.192961
-0.0335037
-0.126839
0.0121301
-0.177607
0.0785571
-0.119166
0.0807256
0.0099625
0.148165
-0.119088
-0.059658
-0.121511
0.0603904
-0.0952571
0.0744007
-0.03489
-0.0691601
0.0477411
-0.0662692
0.0185278
-0.0163486
0.0962761
-0.0717185
0.0195561
0.0207028
0.00204036
-0.0227445
-0.0298792
-0.0991797
0.129068
0.0087138
-0.0787528
-0.000515142
0.153609
0.184736
-0.338326
0.101081
-0.175169
-0.11389
0.0790006
-0.0181092
0.184006
-0.165882
0.215636
-0.43511
-0.449973
0.248275
0.201737
0.107631
-0.0974257
-0.0102103
0.00391355
0.0270357
-0.200224
0.0514389
-0.0299943
0.0080261
0.190456
-0.473742
0.0117256
-0.0753795
-0.0414372
0.0998802
-0.0584391
0.00530343
-3.9532e-05
-0.0793641
-0.0417531
-0.0161921
0.203925
0.101223
0.152193
-0.00119171
0.00649449
0.0732103
0.0637566
-0.145332
0.115463
0.00741475
-0.312701
0.323061
-0.0920394
0.10492
-0.0128781
0.00352187
-0.0581585
-0.0326051
0.182193
-0.0310448
-0.151142
0.109018
-0.112143
0.00312689
-0.253643
0.20876
-0.332543
-0.0348978
-0.178136
0.342114
-0.0273491
0.0498
-0.0114867
-0.0383133
-0.411272
-0.150753
0.0795775
-0.0154806
0.0140523
-0.118189
0.0388264
-0.00354008
0.0101522
-0.00661304
-0.000707561
0.000679316
-0.0896738
0.0315153
-0.0106403
0.110195
0.165117
-0.150337
0.131881
-0.232004
-0.060656
0.0226605
0.335956
-0.358576
-0.00191979
-0.414513
0.392663
0.139774
-0.127429
-0.0123469
-0.0300367
-0.0794736
0.109511
0.103872
-0.00967975
-0.0129773
0.082523
-0.245246
0.0161133
0.229148
0.0078444
0.49107
0.10594
0.00710212
-0.00402757
0.0140251
-0.143482
0.129464
0.0485937
0.44248
0.227675
0.251468
-0.479145
-0.0381803
0.0497307
-0.0115492
0.033143
-0.214271
0.030068
0.0326311
-0.0626997
0.0572646
-0.00824036
0.110204
0.0876838
-0.118309
0.0306248
-0.231735
-0.145988
0.377716
0.00204882
-0.0534828
-0.00193278
0.159521
-0.157578
0.0586208
-0.239428
0.00149034
0.347357
0.176523
-0.523862
0.027591
-0.253963
-0.153848
-0.181239
0.335095
-0.0162776
0.140463
-0.124192
-0.0217254
0.0229689
-0.00124366
0.0320569
-0.191799
0.159751
-0.169305
0.173272
-0.00396411
-0.11802
0.0126313
-0.00499239
0.00298402
-0.171777
0.115828
0.00989174
0.138972
-0.148854
0.0502102
-0.0073775
-0.0428332
-0.354916
0.377613
0.040934
-0.326991
-0.193532
0.520557
0.0476396
0.244323
-0.0759757
-0.0197447
0.0957215
-0.0719442
0.111169
-0.0392291
-0.0155142
-0.0948347
0.113219
-0.00783739
-0.105378
0.0190846
-0.537452
0.317837
0.219616
0.381158
0.215851
0.117771
-0.112789
0.229845
0.0774806
-0.115492
-0.421961
0.194232
-0.216384
0.0221392
0.112732
-0.000393314
-0.112336
-0.399543
0.432871
-0.0332729
0.0981465
-0.108355
0.0102111
0.0222519
-0.0635711
0.0503272
0.0132427
-0.00439204
0.117615
-0.00207391
0.00209115
-1.70947e-05
-0.000866111
0.126296
0.479248
0.124635
-0.115828
-0.00880586
-0.514039
0.234052
0.280036
0.137593
0.0936968
-0.0180943
0.0658355
0.0447751
3.07745e-05
0.00359385
-0.054545
0.0471674
-0.173264
0.299341
-0.126047
-0.192588
0.205358
0.120906
-0.0767696
-0.0441324
0.224318
-0.204887
-0.0194155
-0.183991
-0.193875
0.377899
-0.0163392
-0.0299287
0.0887783
0.00366817
0.00109464
0.0209883
-0.0220832
-0.0174798
-0.110842
0.0388907
-0.349418
0.30253
0.0468914
0.00940301
-0.329978
0.105571
-0.0593706
-0.0461998
-0.0744769
-0.0418462
0.246473
0.493795
0.132112
-0.625904
0.0275803
0.0765045
0.106583
-0.00641589
-0.100166
-0.0161713
-0.254296
0.0432957
-0.627689
0.359873
0.26785
-0.0241575
0.00243225
-0.254717
-0.00837654
-0.0195619
-0.153109
0.172674
0.355572
-0.513839
-0.00793281
0.0166721
-0.00873927
-0.475623
0.167147
-0.0207542
0.00473204
-0.286917
-0.116214
0.403141
0.00621717
-0.113171
0.174501
-0.148688
-0.0258154
0.133302
-0.0735394
-0.0597584
0.0128901
-0.313155
0.0957041
-0.257377
0.147547
0.109833
0.596203
-0.344468
-0.251663
-0.0145564
-0.0639424
0.078498
0.0781503
-0.241781
0.163636
-0.0350591
0.0282279
-0.0457772
0.250159
-0.204364
-0.0879807
0.029669
0.0583118
-0.010036
-0.0314851
0.041518
0.0199352
-0.173194
0.153265
-0.160273
0.410795
-0.250452
-0.000282727
-0.00864788
0.00893073
-0.0623564
-0.0106441
0.0730004
0.221641
-0.132237
0.0909758
0.020189
0.0486865
-0.280685
-0.0302394
0.000962487
0.0292766
0.322289
-0.168659
-0.0640601
-0.0498291
0.473365
-0.228414
-0.244922
0.424867
0.17139
0.065142
-0.0350749
0.0131628
0.285338
0.21225
-0.176675
0.0532878
-0.0113733
-0.0210439
0.0324171
-0.0538922
0.0675126
-0.0136196
-0.0674024
0.0180392
-0.133038
-0.213698
-0.00412812
0.0248312
0.119746
0.339265
-0.604645
0.20517
-0.230447
0.203835
-0.402733
0.297167
0.283302
-0.550448
0.267154
0.0678813
-0.0208136
-0.0470673
0.0692712
-0.0156212
-0.0536501
-0.27223
0.101454
-0.433554
0.534238
0.138508
0.050244
0.0666431
0.265772
-0.00736849
0.00708609
0.00354813
-0.012271
-0.00536784
-0.00772366
-0.177114
-0.0802594
-0.0821363
0.24523
0.269891
-0.0295663
-0.15692
0.0674006
-0.108833
-0.140662
0.36632
0.187336
-0.514306
-0.102852
0.0958492
0.0070039
-0.00566298
-0.0078295
0.117578
-0.0298957
-0.0126968
0.145556
-0.0204853
-0.125077
-0.410501
0.208197
0.156052
-0.0123162
-0.143731
0.1125
-0.021528
0.0162403
-0.0172679
0.0010276
0.149137
-0.168068
0.0618951
0.00536695
-0.0672627
-0.111646
0.0371684
0.0590129
0.430686
0.0175251
0.00990789
-0.0274326
-0.00513276
0.0226583
0.00267738
0.0239194
-0.0265968
-0.064034
-0.0638028
0.0730146
-0.0092125
-0.100462
0.179506
0.0594936
0.00378102
-0.0197654
0.08016
-0.0603945
-0.191417
0.173323
-0.581003
0.365145
-0.0666472
0.063126
0.00352113
-0.235603
0.220113
0.0155057
-0.475153
0.314953
0.0312529
0.246808
-0.214854
-0.0207297
0.00568943
-0.102491
0.220857
-0.379843
0.159025
0.0108685
0.145187
-0.0153692
-0.00442197
-0.119513
-0.119424
0.238956
0.00289063
0.0166769
0.0824276
-0.2213
0.138877
0.00305255
0.100197
-0.103247
0.00277531
0.0227078
-0.0254833
-0.28558
0.0734817
-0.0653355
-0.217952
0.115385
0.102578
0.174889
-0.154947
-0.0665614
0.0126701
-0.025118
-0.0949449
-0.0100452
0.104992
0.145936
0.0282336
-0.0396068
-0.15746
0.315562
-0.158109
0.00284022
-0.0289944
0.026154
-0.023422
-0.156484
0.0209158
-0.00501874
-0.0158969
-0.0156806
0.0143833
0.00129717
0.0263672
-0.023527
0.000957401
0.12456
-0.12552
-0.139113
-0.159039
0.298167
0.122
-0.295235
-0.320926
0.657946
-0.337015
-0.166871
0.420368
-0.114967
-0.305391
-0.0245249
-0.158294
-0.0166031
0.0255932
-0.154685
0.129095
-0.0517916
-0.119986
0.114817
-0.215268
-0.365724
0.232726
0.00344662
-0.184707
0.181245
-0.171109
0.169131
0.00199293
-0.146658
-0.146757
-0.120027
0.189353
0.032054
0.0153933
-0.0474468
-0.0107292
-0.0666645
0.0773926
0.0255068
0.161523
-0.187027
-0.135661
-0.00797793
0.143648
-0.051951
-0.0146964
0.22965
-0.00282246
-0.00211738
-0.555341
0.200466
0.142934
-0.00361189
-0.13931
-0.131017
0.209172
-0.192086
0.352478
-0.160367
0.114563
-0.139412
0.0248561
-0.153856
0.423572
-0.150291
0.371191
-0.0618829
0.103969
-0.0881703
0.281268
0.104005
0.00873105
-0.295566
0.148442
-0.0140876
0.00078767
0.0132996
-0.0733855
0.0877595
-0.0143738
0.0122272
-0.0889519
0.0767247
0.0731167
-0.0877746
0.134
-0.323564
0.189576
0.00375314
-0.107759
0.0988517
0.00890697
0.527702
0.012909
-0.0267414
-0.202285
0.000431093
-0.00325335
0.206774
-0.209139
0.00236927
-0.0672389
0.059677
0.0254472
-0.0121468
0.000462063
-0.124935
0.0938858
0.0310538
0.125057
0.185765
-0.3108
-0.0595602
-0.0208507
0.080528
0.0145098
-0.104454
-0.113487
0.318894
0.161879
-0.255561
0.382727
-0.127168
0.0577118
0.0937151
0.25138
-0.306107
0.0547385
0.000391865
0.00911848
0.00668609
0.282047
0.294697
-0.0427207
-0.055403
-0.102797
0.0213494
0.0814489
-0.30115
0.147312
-0.019148
0.0512019
-0.0122655
-0.00848897
0.0987719
-0.00999644
-0.211191
0.165429
0.0104175
0.0491475
0.147867
-0.157466
0.475721
-0.318206
0.0205677
-0.0194731
-0.131759
0.14166
0.372949
-0.256904
-0.116034
0.423301
-0.183584
-0.239683
-0.183149
0.166227
-0.157424
0.135663
0.0217518
0.0323096
-0.0440816
0.00135001
0.000365954
0.0185298
0.129509
-0.148046
0.0466593
-0.0063254
-0.040334
0.064487
-0.207093
0.142599
0.168107
0.154537
-0.322631
-0.0854673
0.0397396
0.0457246
-0.238939
-0.210994
-0.00755397
-0.0834947
0.0910495
-0.394704
0.590538
-0.246842
-0.343635
0.132547
0.0761152
-0.20865
-0.0828335
0.0117191
-0.0423332
0.0306127
-0.0263102
-0.0039295
-0.0750662
0.0847484
-0.00968324
-0.00221654
0.00384526
-0.00162884
-0.0160467
0.0515189
-0.0354721
0.118793
0.0312015
-0.0956673
-0.204501
-0.149567
-0.145985
0.0238365
0.136279
0.496217
0.0359448
-0.5321
0.146539
-0.132506
0.026639
-0.0273099
-0.0514564
-0.113242
0.54119
-0.0996874
0.141156
-0.0414619
-0.00183895
-0.0921798
0.104035
-0.011856
-0.00720423
-0.0112641
0.121856
-0.098719
0.431824
-0.16297
0.104217
-0.0919394
-0.0122776
0.0197638
0.174455
-0.00902072
-0.0302635
0.0313733
-0.302242
-0.325411
0.141177
0.231787
0.440364
-0.268647
-0.171685
0.219371
-0.0412285
0.0888176
-0.0861638
-0.00265583
-0.00721272
0.050654
0.00765092
-0.0458308
0.0533685
0.111747
0.316533
-0.470361
0.0137719
0.0911498
0.224573
0.0906531
0.0208168
-0.0863107
-0.0114356
0.00856212
0.132688
-0.111535
0.00157309
0.00967513
0.00949782
-0.00481462
0.00274084
0.0156128
0.109529
-0.125148
-0.0247024
0.173838
-0.0273145
0.0231848
0.183372
-0.157862
0.072847
0.0916522
-0.164492
0.0871603
0.0337497
-0.0161946
0.33192
-0.145054
-0.186846
0.0506305
0.0168837
0.324547
-0.156428
-0.0512833
-0.0125419
0.0638247
0.00987513
-0.37325
-0.182053
0.174458
0.147551
-0.0329807
0.103421
0.000659958
0.175061
-0.134684
-0.0403735
-0.34186
0.550539
-0.208638
0.0272177
-0.201045
-0.170403
0.214158
-0.0437524
-0.115213
-0.113487
0.228693
0.0176763
0.0494273
-0.0671019
0.28314
-0.458095
0.174961
0.00814764
-0.0705043
0.0253986
-0.0227213
0.182584
0.141975
-0.175851
0.151148
-0.0253319
-0.132103
-0.48693
0.238506
0.0480165
-0.00324159
-0.0185333
0.00478365
0.0301386
0.00504181
-0.0351805
0.212244
0.239692
-0.451905
0.0303873
-0.208822
0.178451
0.0221844
0.168436
-0.190607
-0.217263
-0.0287583
0.246029
-0.0912023
0.0153915
0.0758094
0.0270311
0.384477
-0.598396
0.213923
-0.0127071
0.10833
-0.0956233
-0.128276
-0.049329
-0.0762865
0.0195699
0.0567164
0.144932
0.00174417
0.0437011
-0.214103
-0.217107
0.0488954
0.168228
0.0889559
0.113303
-0.0162595
-0.0970448
0.113183
-0.229138
0.367291
-0.138131
0.016934
-0.0212241
0.00571618
0.0155077
-0.0399046
0.0274211
-0.00381638
0.0107374
-0.0642424
0.0129586
0.0035002
0.0159554
0.00496014
0.365443
-0.195815
-0.169607
-0.337596
0.159234
0.178546
0.116839
-0.295375
-0.0112438
-0.0708136
-0.104206
-0.0344784
-0.108044
-0.0163307
0.0156691
0.000661667
-0.313848
0.156382
0.185064
0.334744
-0.519762
0.378671
-0.0108714
-0.0744424
0.298754
0.213115
0.128755
-0.205027
0.0762726
0.101009
0.087646
0.0809543
-0.06066
-0.0202944
-0.114099
0.215158
-0.101051
-0.334562
-0.179437
-0.447605
0.252507
-0.144732
0.327904
-0.183147
0.186408
-0.619907
0.120401
-0.113522
-0.00687629
-0.0759274
-0.0152763
-0.0476529
0.120506
-0.0689449
0.01389
0.0550549
-0.19604
0.345951
-0.149896
0.15731
0.00646496
-0.0471073
0.0370705
-0.0266453
0.000678745
0.0755557
-0.00583227
-0.0697239
0.0651198
0.0398247
-0.104944
0.0621788
0.0352582
0.422983
-0.128204
0.111349
0.0168605
0.0247052
-0.241793
-0.424128
0.137222
-0.181177
0.1931
-0.0119351
0.00430308
0.111282
-0.277949
0.166671
0.106724
0.00657776
-0.0794301
0.0718767
0.293088
-0.190032
-0.301703
0.109642
-0.159462
0.122654
0.0368087
-0.000857612
0.368731
0.203585
-0.572321
0.0312568
0.0496975
-0.12456
0.303113
0.0731912
-0.0844365
0.462828
-0.235153
-0.0948729
-0.177338
0.0730497
-0.0651119
-0.0268456
0.091959
0.0528894
0.230291
0.0133333
-0.0759745
0.00351785
0.00361589
-0.0861166
-0.0581874
0.0155102
0.0426765
-0.343861
0.110339
0.000940825
0.0152993
-0.0771582
0.0573918
-0.390517
0.300938
0.0895928
0.000838838
-0.0927779
0.0298965
-0.103634
0.0781202
0.0255117
-0.218861
-0.190902
-0.111786
0.302674
0.431232
-0.439391
0.00821204
0.305711
0.253367
-0.0502972
-0.203048
-0.134785
0.142272
-0.00748796
-0.105391
-0.0152733
0.120664
-0.179771
0.304851
-0.209779
0.431298
-0.101892
0.0299312
-0.239364
0.416232
-0.176858
-0.0630705
0.0432144
0.0198563
-0.177895
0.0186963
0.000677037
0.0122631
-0.0129401
0.0606468
-0.093348
0.254061
-0.473375
0.219325
0.0126065
0.245729
-0.530216
0.284551
0.182745
-0.0234701
0.114778
-0.126838
0.0120662
0.0864202
-0.0108649
0.12578
-0.124828
0.338198
-0.593371
0.255171
0.107031
-0.021734
-0.0868408
0.0361028
0.050737
0.102371
-0.0993181
0.0257145
-0.0956841
0.0699704
0.13221
-0.102004
-0.030201
0.0975622
-0.127597
-0.0769164
-0.038153
0.12229
-0.00296427
-0.11933
0.0761442
-0.190236
0.221288
0.192651
0.0657725
-0.000631384
0.00428586
-0.0447216
0.212815
-0.168077
-0.422881
0.265454
-0.0149116
-0.00459937
0.290138
0.200016
-0.490099
0.151489
-0.0168865
-0.134604
-0.455343
0.216444