/*--------------------------------*- C++ -*----------------------------------*\
| =========                 |                                                 |
| \\      /  F ield         | OpenFOAM: The Open Source CFD Toolbox           |
|  \\    /   O peration     | Version:  v2012                                 |
|   \\  /    A nd           | Website:  www.openfoam.com                      |
|    \\/     M anipulation  |                                                 |
\*---------------------------------------------------------------------------*/
FoamFile
{
    version     2.0;
    format      ascii;
    class       pointVectorField;
    location    "100";
    object      pointDisplacement;
}
// * * * * * * * * * * * * * * * * * * * * * * * * * * * * * * * * * * * * * //

dimensions      [0 1 0 0 0 0 0];


internalField   nonuniform List<vector> 
14246
(
(0 0 0)
(0.00714899 -0.0542029 0)
(0 0 0)
(0.00714899 -0.0542029 0)
(0 0 0)
(0 0 0)
(0 0 0)
(0 0 0)
(0 0 0)
(0 0 0)
(0 0 0)
(0 0 0)
(0 0 0)
(0 0 0)
(0 0 0)
(0 0 0)
(0 0 0)
(0 0 0)
(0 0 0)
(0 0 0)
(0 0 0)
(0 0 0)
(0 0 0)
(0 0 0)
(0 0 0)
(0 0 0)
(0 0 0)
(0 0 0)
(0 0 0)
(0 0 0)
(0 0 0)
(0 0 0)
(0 0 0)
(0 0 0)
(0 0 0)
(0 0 0)
(0 0 0)
(0 0 0)
(0 0 0)
(0 0 0)
(0 0 0)
(0 0 0)
(0 0 0)
(0 0 0)
(0 0 0)
(0 0 0)
(0 0 0)
(0 0 0)
(0 0 0)
(0 0 0)
(0 0 0)
(0 0 0)
(0 0 0)
(0 0 0)
(0 0 0)
(0 0 0)
(0 0 0)
(0 0 0)
(0 0 0)
(0 0 0)
(0 0 0)
(0 0 0)
(0 0 0)
(0 0 0)
(0 0 0)
(0 0 0)
(0 0 0)
(0 0 0)
(0 0 0)
(0 0 0)
(0 0 0)
(0 0 0)
(0 0 0)
(0 0 0)
(0 0 0)
(0.00714439 -0.0535248 0)
(0.0071398 -0.0528467 0)
(0.0071352 -0.0521686 0)
(0.0071306 -0.0514904 0)
(0.007126 -0.0508123 0)
(0.0071214 -0.0501342 0)
(0.0071168 -0.0494561 0)
(0.0071122 -0.048778 0)
(0.00710761 -0.0480999 0)
(0.00710301 -0.0474218 0)
(0.00709841 -0.0467437 0)
(0.00709381 -0.0460656 0)
(0.00708921 -0.0453874 0)
(0.00708461 -0.0447093 0)
(0.00708002 -0.0440312 0)
(0.00707542 -0.0433531 0)
(0.00707082 -0.042675 0)
(0.00706622 -0.0419969 0)
(0.00706162 -0.0413188 0)
(0.00705702 -0.0406407 0)
(0.00705242 -0.0399626 0)
(0.00704783 -0.0392844 0)
(0.00704323 -0.0386063 0)
(0.00703863 -0.0379282 0)
(0.00703403 -0.0372501 0)
(0.00702943 -0.036572 0)
(0.00702483 -0.0358939 0)
(0.00702023 -0.0352158 0)
(0.00701564 -0.0345377 0)
(0.00701104 -0.0338596 0)
(0.00700644 -0.0331814 0)
(0.00700184 -0.0325033 0)
(0.00699724 -0.0318252 0)
(0.00699264 -0.0311471 0)
(0.00698804 -0.030469 0)
(0.00698345 -0.0297909 0)
(0.00697885 -0.0291128 0)
(0.00697425 -0.0284347 0)
(0.00696965 -0.0277566 0)
(0.00696505 -0.0270785 0)
(0.00696045 -0.0264003 0)
(0.00695585 -0.0257222 0)
(0.00695126 -0.0250441 0)
(0.00694666 -0.024366 0)
(0.00694206 -0.0236879 0)
(0.00693746 -0.0230098 0)
(0.00693286 -0.0223317 0)
(0.00692826 -0.0216536 0)
(0.00692366 -0.0209755 0)
(0.00691907 -0.0202973 0)
(0.00691447 -0.0196192 0)
(0.00690987 -0.0189411 0)
(0.00690527 -0.018263 0)
(0.00690067 -0.0175849 0)
(0.00689607 -0.0169068 0)
(0.00689147 -0.0162287 0)
(0.00688688 -0.0155506 0)
(0.00688228 -0.0148725 0)
(0.00687768 -0.0141943 0)
(0.00687308 -0.0135162 0)
(0.00686848 -0.0128381 0)
(0.00686388 -0.01216 0)
(0.00685928 -0.0114819 0)
(0.00685469 -0.0108038 0)
(0.00685009 -0.0101257 0)
(0.00684549 -0.00944757 0)
(0.00684089 -0.00876946 0)
(0.00683629 -0.00809135 0)
(0.00683169 -0.00741323 0)
(0.00682709 -0.00673512 0)
(0.0068225 -0.00605701 0)
(0.0068179 -0.0053789 0)
(0.0068133 -0.00470079 0)
(0.0068087 -0.00402268 0)
(0.0068041 -0.00334457 0)
(0.0067995 -0.00266646 0)
(0.0067949 -0.00198835 0)
(0.00679031 -0.00131024 0)
(0.00678571 -0.000632125 0)
(0.00678111 4.59856e-05 0)
(0.00677651 0.000724096 0)
(0.00677191 0.00140221 0)
(0.00676731 0.00208032 0)
(0.00676271 0.00275843 0)
(0.00675812 0.00343654 0)
(0.00675352 0.00411465 0)
(0.00674892 0.00479276 0)
(0.00674432 0.00547087 0)
(0.00673972 0.00614898 0)
(0.00673512 0.00682709 0)
(0.00673052 0.00750521 0)
(0.00672593 0.00818332 0)
(0.00672133 0.00886143 0)
(0.00671673 0.00953954 0)
(0.00671213 0.0102176 0)
(0.00670753 0.0108958 0)
(0.00670293 0.0115739 0)
(0.00669833 0.012252 0)
(0.00669374 0.0129301 0)
(0.00668914 0.0136082 0)
(0.00668454 0.0142863 0)
(0.00667994 0.0149644 0)
(0.00667534 0.0156425 0)
(0.00667074 0.0163206 0)
(0.00666615 0.0169988 0)
(0.00666155 0.0176769 0)
(0.00665695 0.018355 0)
(0.00665235 0.0190331 0)
(0.00664775 0.0197112 0)
(0.00664315 0.0203893 0)
(0.00663855 0.0210674 0)
(0.00663396 0.0217455 0)
(0.00662936 0.0224236 0)
(0.00662476 0.0231018 0)
(0.00662016 0.0237799 0)
(0.00661556 0.024458 0)
(0.00661096 0.0251361 0)
(0.00660636 0.0258142 0)
(0.00660177 0.0264923 0)
(0.00659717 0.0271704 0)
(0.00659257 0.0278485 0)
(0.00658797 0.0285266 0)
(0.00658337 0.0292048 0)
(0.00657877 0.0298829 0)
(0.00657417 0.030561 0)
(0.00656958 0.0312391 0)
(0.00656498 0.0319172 0)
(0.00656038 0.0325953 0)
(0.00655578 0.0332734 0)
(0.00655118 0.0339515 0)
(0.00654658 0.0346296 0)
(0.00654198 0.0353078 0)
(0.00653739 0.0359859 0)
(0.00579277 -0.0542121 0)
(0.00647088 -0.0542075 0)
(0 0 0)
(0 0 0)
(0 0 0)
(0 0 0)
(0 0 0)
(0 0 0)
(0 0 0)
(0 0 0)
(0 0 0)
(0 0 0)
(0 0 0)
(0 0 0)
(0 0 0)
(0 0 0)
(0 0 0)
(0 0 0)
(0 0 0)
(0 0 0)
(0 0 0)
(0 0 0)
(0 0 0)
(0 0 0)
(0 0 0)
(0 0 0)
(0 0 0)
(0 0 0)
(0 0 0)
(0 0 0)
(0 0 0)
(0 0 0)
(0 0 0)
(0 0 0)
(0 0 0)
(0 0 0)
(0 0 0)
(0 0 0)
(0 0 0)
(0 0 0)
(0 0 0)
(0 0 0)
(0 0 0)
(0 0 0)
(0 0 0)
(0 0 0)
(0 0 0)
(0 0 0)
(0 0 0)
(0 0 0)
(0 0 0)
(0 0 0)
(0 0 0)
(0 0 0)
(0 0 0)
(0 0 0)
(0 0 0)
(0 0 0)
(0 0 0)
(0 0 0)
(0 0 0)
(0 0 0)
(0 0 0)
(0 0 0)
(0 0 0)
(0 0 0)
(0 0 0)
(0 0 0)
(0 0 0)
(0 0 0)
(0 0 0)
(0 0 0)
(0 0 0)
(0.00714439 -0.0535248 0)
(0.0071398 -0.0528467 0)
(0.0071352 -0.0521686 0)
(0.0071306 -0.0514904 0)
(0.007126 -0.0508123 0)
(0.0071214 -0.0501342 0)
(0.0071168 -0.0494561 0)
(0.0071122 -0.048778 0)
(0.00710761 -0.0480999 0)
(0.00710301 -0.0474218 0)
(0.00709841 -0.0467437 0)
(0.00709381 -0.0460656 0)
(0.00708921 -0.0453874 0)
(0.00708461 -0.0447093 0)
(0.00708002 -0.0440312 0)
(0.00707542 -0.0433531 0)
(0.00707082 -0.042675 0)
(0.00706622 -0.0419969 0)
(0.00706162 -0.0413188 0)
(0.00705702 -0.0406407 0)
(0.00705242 -0.0399626 0)
(0.00704783 -0.0392844 0)
(0.00704323 -0.0386063 0)
(0.00703863 -0.0379282 0)
(0.00703403 -0.0372501 0)
(0.00702943 -0.036572 0)
(0.00702483 -0.0358939 0)
(0.00702023 -0.0352158 0)
(0.00701564 -0.0345377 0)
(0.00701104 -0.0338596 0)
(0.00700644 -0.0331814 0)
(0.00700184 -0.0325033 0)
(0.00699724 -0.0318252 0)
(0.00699264 -0.0311471 0)
(0.00698804 -0.030469 0)
(0.00698345 -0.0297909 0)
(0.00697885 -0.0291128 0)
(0.00697425 -0.0284347 0)
(0.00696965 -0.0277566 0)
(0.00696505 -0.0270785 0)
(0.00696045 -0.0264003 0)
(0.00695585 -0.0257222 0)
(0.00695126 -0.0250441 0)
(0.00694666 -0.024366 0)
(0.00694206 -0.0236879 0)
(0.00693746 -0.0230098 0)
(0.00693286 -0.0223317 0)
(0.00692826 -0.0216536 0)
(0.00692366 -0.0209755 0)
(0.00691907 -0.0202973 0)
(0.00691447 -0.0196192 0)
(0.00690987 -0.0189411 0)
(0.00690527 -0.018263 0)
(0.00690067 -0.0175849 0)
(0.00689607 -0.0169068 0)
(0.00689147 -0.0162287 0)
(0.00688688 -0.0155506 0)
(0.00688228 -0.0148725 0)
(0.00687768 -0.0141943 0)
(0.00687308 -0.0135162 0)
(0.00686848 -0.0128381 0)
(0.00686388 -0.01216 0)
(0.00685928 -0.0114819 0)
(0.00685469 -0.0108038 0)
(0.00685009 -0.0101257 0)
(0.00684549 -0.00944757 0)
(0.00684089 -0.00876946 0)
(0.00683629 -0.00809135 0)
(0.00683169 -0.00741323 0)
(0.00682709 -0.00673512 0)
(0.0068225 -0.00605701 0)
(0.0068179 -0.0053789 0)
(0.0068133 -0.00470079 0)
(0.0068087 -0.00402268 0)
(0.0068041 -0.00334457 0)
(0.0067995 -0.00266646 0)
(0.0067949 -0.00198835 0)
(0.00679031 -0.00131024 0)
(0.00678571 -0.000632125 0)
(0.00678111 4.59856e-05 0)
(0.00677651 0.000724096 0)
(0.00677191 0.00140221 0)
(0.00676731 0.00208032 0)
(0.00676271 0.00275843 0)
(0.00675812 0.00343654 0)
(0.00675352 0.00411465 0)
(0.00674892 0.00479276 0)
(0.00674432 0.00547087 0)
(0.00673972 0.00614898 0)
(0.00673512 0.00682709 0)
(0.00673052 0.00750521 0)
(0.00672593 0.00818332 0)
(0.00672133 0.00886143 0)
(0.00671673 0.00953954 0)
(0.00671213 0.0102176 0)
(0.00670753 0.0108958 0)
(0.00670293 0.0115739 0)
(0.00669833 0.012252 0)
(0.00669374 0.0129301 0)
(0.00668914 0.0136082 0)
(0.00668454 0.0142863 0)
(0.00667994 0.0149644 0)
(0.00667534 0.0156425 0)
(0.00667074 0.0163206 0)
(0.00666615 0.0169988 0)
(0.00666155 0.0176769 0)
(0.00665695 0.018355 0)
(0.00665235 0.0190331 0)
(0.00664775 0.0197112 0)
(0.00664315 0.0203893 0)
(0.00663855 0.0210674 0)
(0.00663396 0.0217455 0)
(0.00662936 0.0224236 0)
(0.00662476 0.0231018 0)
(0.00662016 0.0237799 0)
(0.00661556 0.024458 0)
(0.00661096 0.0251361 0)
(0.00660636 0.0258142 0)
(0.00660177 0.0264923 0)
(0.00659717 0.0271704 0)
(0.00659257 0.0278485 0)
(0.00658797 0.0285266 0)
(0.00658337 0.0292048 0)
(0.00657877 0.0298829 0)
(0.00657417 0.030561 0)
(0.00656958 0.0312391 0)
(0.00656498 0.0319172 0)
(0.00656038 0.0325953 0)
(0.00655578 0.0332734 0)
(0.00655118 0.0339515 0)
(0.00654658 0.0346296 0)
(0.00654198 0.0353078 0)
(0.00653739 0.0359859 0)
(0.00579277 -0.0542121 0)
(0.00647088 -0.0542075 0)
(0.00653542 0.0363208 0)
(0.00662 0.0240234 0)
(0.00669963 0.0119249 0)
(0.00678309 -0.000264947 0)
(0.00686673 -0.0125023 0)
(0.00694942 -0.0247028 0)
(0.00703129 -0.036942 0)
(0.00711417 -0.0491236 0)
(0.00690729 -0.0186079 0)
(0.00682486 -0.00638972 0)
(0.0065769 0.0302317 0)
(0.00707313 -0.0429976 0)
(0.00665907 0.0180354 0)
(0.00674287 0.0058267 0)
(0.00698998 -0.0307635 0)
(0.00553252 -0.0542273 0)
(0.000251304 -0.00145064 0)
(0.000177604 -0.00247752 0)
(0.000324572 -0.00121526 0)
(0.000414277 -0.000384306 0)
(0.000150896 -0.00317863 0)
(9.46691e-05 -0.00390118 0)
(0.00034436 0.000482711 0)
(0.00713421 -0.052492 0)
(0.000206095 -0.00147513 0)
(0.000165224 -0.0018645 0)
(0.000131231 -0.00132149 0)
(0.00705489 -0.0403149 0)
(0.00672382 0.00856293 0)
(0.00700772 -0.0335145 0)
(0.00664141 0.0207204 0)
(0.0068847 -0.015213 0)
(0.00693131 -0.0220369 0)
(0.00684341 -0.00912496 0)
(0.00680186 -0.00299317 0)
(0.00659874 0.0268101 0)
(0.00709774 -0.0464457 0)
(0.00668273 0.0146256 0)
(0.0067657 0.00242168 0)
(0.00655916 0.0329957 0)
(0.00696766 -0.0274268 0)
(0.000150038 -0.00121026 0)
(0.000173843 -0.00288779 0)
(0.000318306 -0.00152853 0)
(0.000317199 -0.000687115 0)
(8.39451e-05 -0.000785417 0)
(0.000101534 -0.000869349 0)
(5.53677e-05 -0.000491914 0)
(0.000135374 -0.00347249 0)
(5.44275e-05 -0.00355105 0)
(0.000175782 -0.00222559 0)
(0.00032763 -0.000989167 0)
(0.000341672 0.000155343 0)
(0.000240032 -0.00152492 0)
(0.000149458 -0.00158559 0)
(0.000193953 -0.0014824 0)
(0.000109304 -0.00105525 0)
(5.74591e-05 -0.000526177 0)
(2.64914e-05 -0.000239387 0)
(0.00014281 -0.00330433 0)
(0.000284082 -0.00623948 0)
(0.00030037 -0.00604355 0)
(0.000424088 -0.00885915 0)
(0.000447195 -0.00860285 0)
(0.000562671 -0.0111942 0)
(0.000590506 -0.0108869 0)
(0.000702121 -0.0133278 0)
(0.000731438 -0.012958 0)
(0.000840387 -0.0152224 0)
(0.000869341 -0.0147852 0)
(0.000974621 -0.0168542 0)
(0.00100347 -0.0163581 0)
(0.00110587 -0.0183011 0)
(0.00113476 -0.0177459 0)
(0.00123509 -0.0195837 0)
(0.00120231 -0.0201746 0)
(0.00132906 -0.0213448 0)
(0.00129108 -0.0219451 0)
(0.00141636 -0.0230152 0)
(0.00137243 -0.0236098 0)
(0.00149749 -0.0245958 0)
(0.00144777 -0.0251871 0)
(0.00157233 -0.0260914 0)
(0.00151865 -0.0267045 0)
(0.00164246 -0.0275053 0)
(0.0015899 -0.0281316 0)
(0.00170925 -0.0288427 0)
(0.00165175 -0.0294412 0)
(0.00177014 -0.0300977 0)
(0.00170649 -0.0306855 0)
(0.00182722 -0.0312889 0)
(0.00175881 -0.0318519 0)
(0.00188014 -0.0324351 0)
(0.00180487 -0.0329631 0)
(0.00192831 -0.0335105 0)
(0.00184922 -0.0340347 0)
(0.0019751 -0.034523 0)
(0.00189165 -0.0350425 0)
(0.0020203 -0.0354801 0)
(0.00193344 -0.0359969 0)
(0.0020656 -0.0363943 0)
(0.00197494 -0.0369139 0)
(0.00214861 -0.035852 0)
(0.00219837 -0.0367234 0)
(0.00227778 -0.0361569 0)
(0.00233123 -0.0369909 0)
(0.00240758 -0.0363996 0)
(0.00246503 -0.037202 0)
(0.00253884 -0.0365821 0)
(0.00260266 -0.0373569 0)
(0.00267009 -0.0367027 0)
(0.00273871 -0.0374114 0)
(0.00279977 -0.0367781 0)
(0.00286975 -0.0374236 0)
(0.00292882 -0.0367849 0)
(0.00300465 -0.0374456 0)
(0.00305735 -0.0367231 0)
(0.00314155 -0.0373833 0)
(0.00318633 -0.0366149 0)
(0.00327503 -0.037229 0)
(0.00268785 -0.038151 0)
(0.00331362 -0.0364375 0)
(0.00340548 -0.0370159 0)
(0.00343779 -0.0361909 0)
(0.00353307 -0.0367366 0)
(0.00355981 -0.0358802 0)
(0.00365913 -0.0363928 0)
(0.00367876 -0.0355048 0)
(0.00378111 -0.0359689 0)
(0.0035832 -0.0349946 0)
(0.00379219 -0.0350777 0)
(0.00389555 -0.0354685 0)
(0.00389811 -0.0345707 0)
(0.00400565 -0.0349018 0)
(0.00399874 -0.0339722 0)
(0.0041084 -0.0342328 0)
(0.00409596 -0.0333081 0)
(0.00420433 -0.0335348 0)
(0.0041885 -0.0325726 0)
(0.00429901 -0.0327656 0)
(0.00427422 -0.0317588 0)
(0.0043876 -0.0318814 0)
(0.00416288 -0.0316363 0)
(0.00336527 -0.037805 0)
(0.00435284 -0.0308693 0)
(0.00446682 -0.0309202 0)
(0.00442533 -0.0299108 0)
(0.00453713 -0.029889 0)
(0.00458129 -0.030853 0)
(0.00464846 -0.0298076 0)
(0.00460275 -0.0288048 0)
(0.00471133 -0.0286815 0)
(0.00475985 -0.0296727 0)
(0.00481945 -0.028481 0)
(0.00476728 -0.0274845 0)
(0.00487241 -0.0272203 0)
(0.00492676 -0.0282091 0)
(0.00497676 -0.0268812 0)
(0.00491876 -0.0258971 0)
(0.00502082 -0.0254801 0)
(0.00495955 -0.0245052 0)
(0.00505955 -0.0240048 0)
(0.00511987 -0.0249959 0)
(0.00515752 -0.0234619 0)
(0.00509401 -0.022443 0)
(0.00518938 -0.0218275 0)
(0.00526758 -0.0229301 0)
(0.00528244 -0.0211003 0)
(0.00521559 -0.0201126 0)
(0.00530087 -0.0193633 0)
(0.00537603 -0.020209 0)
(0.00538341 -0.0183934 0)
(0.00530273 -0.0175164 0)
(0.00539291 -0.0166607 0)
(0.00546478 -0.0173833 0)
(0.00547167 -0.0156569 0)
(0.00539799 -0.0149128 0)
(0.00547162 -0.0138506 0)
(0.00539509 -0.0131653 0)
(0.00546564 -0.0120299 0)
(0.00554218 -0.0126675 0)
(0.00553224 -0.0108078 0)
(0.00545418 -0.0102067 0)
(0.00551697 -0.00893697 0)
(0.00543748 -0.00838575 0)
(0.00549657 -0.00706877 0)
(0.00557558 -0.0075893 0)
(0.005551 -0.00568073 0)
(0.00547124 -0.00524145 0)
(0.00552175 -0.00384064 0)
(0.00560066 -0.00422802 0)
(0.00556739 -0.0023655 0)
(0.00548804 -0.00203767 0)
(0.00553002 -0.000541741 0)
(0.00545019 -0.000263622 0)
(0.00548913 0.00123319 0)
(0.00556691 0.00102046 0)
(0.00552265 0.00279261 0)
(0.00544497 0.00295589 0)
(0.00547449 0.00452228 0)
(0.00555126 0.00439843 0)
(0.00549921 0.00614946 0)
(0.00542193 0.00620089 0)
(0.00544286 0.00783977 0)
(0.00536529 0.0078066 0)
(0.00538289 0.0094169 0)
(0.00530519 0.0093394 0)
(0.00531951 0.0109217 0)
(0.00539529 0.0110541 0)
(0.005329 0.0125203 0)
(0.0052534 0.0123693 0)
(0.00526046 0.0139269 0)
(0.00533432 0.0141094 0)
(0.00526299 0.0154852 0)
(0.00518909 0.0152742 0)
(0.00518818 0.0168058 0)
(0.00511505 0.0165511 0)
(0.00511042 0.0180661 0)
(0.00145488 -0.0223879 0)
(0.00399896 -0.0358367 0)
(0.00183868 -0.036483 0)
(0.0018728 -0.0373953 0)
(0.00173561 -0.0369381 0)
(0.00176448 -0.0378597 0)
(0.00162674 -0.0373672 0)
(0.00296269 -0.0360571 0)
(0.00074669 -0.0492622 0)
(0.000850365 -0.0496103 0)
(0.00104988 -0.049321 0)
(0.00118275 -0.0496508 0)
(0.00136014 -0.0493286 0)
(0.00151265 -0.0496494 0)
(0.00167133 -0.049295 0)
(0.00183898 -0.0496081 0)
(0.00158147 -0.0300263 0)
(0.00197029 -0.0492273 0)
(0.00215404 -0.0495152 0)
(0.000699943 -0.0489247 0)
(0.00225568 -0.049117 0)
(0.00244856 -0.0493723 0)
(0.0016735 -0.0499666 0)
(0.00252628 -0.0489623 0)
(0.00272371 -0.049194 0)
(0.00208488 -0.0488384 0)
(0.00277966 -0.0487674 0)
(0.00297817 -0.0489757 0)
(0.00293488 -0.0494011 0)
(0.00318862 -0.0491568 0)
(0.00321289 -0.0487156 0)
(0.00342243 -0.0488665 0)
(0.00342824 -0.04841 0)
(0.0036339 -0.0485296 0)
(0.00363943 -0.0489885 0)
(0.00384353 -0.0486214 0)
(0.00176457 -0.0282227 0)
(0.00385996 -0.0490825 0)
(0.00405556 -0.048682 0)
(0.0040256 -0.0482108 0)
(0.00423018 -0.0482299 0)
(0.00427162 -0.0486995 0)
(0.00443718 -0.0482041 0)
(0.00438342 -0.0477324 0)
(0.00457872 -0.047669 0)
(0.00464396 -0.0481319 0)
(0.00477044 -0.047559 0)
(0.00484513 -0.0480108 0)
(0.00495711 -0.0473933 0)
(0.004881 -0.0469435 0)
(0.00505582 -0.0467325 0)
(0.00513574 -0.047165 0)
(0.00522166 -0.0464643 0)
(0.00530569 -0.0468763 0)
(0.005375 -0.046156 0)
(0.00546577 -0.0465145 0)
(0.00551669 -0.0457689 0)
(0.00561263 -0.0460802 0)
(0.00565085 -0.0452736 0)
(0.0057481 -0.0455628 0)
(0.00577771 -0.0446836 0)
(0.00587216 -0.0449468 0)
(0.00589244 -0.0440232 0)
(0.00598339 -0.0442517 0)
(0.00599418 -0.0433109 0)
(0.00608295 -0.0434708 0)
(0.00608688 -0.0425066 0)
(0.00617321 -0.0425753 0)
(0.00617201 -0.0415962 0)
(0.00625568 -0.041592 0)
(0.00625017 -0.0405967 0)
(0.00633034 -0.040519 0)
(0.00631995 -0.0395448 0)
(0.00639479 -0.0393685 0)
(0.00637894 -0.0384062 0)
(0.00644937 -0.038165 0)
(0.00643129 -0.0371735 0)
(0.00649626 -0.0368793 0)
(0.00647632 -0.035884 0)
(0.00653647 -0.0355244 0)
(0.00651408 -0.0345226 0)
(0.00657063 -0.0341224 0)
(0.00654787 -0.0331098 0)
(0.00659957 -0.0326808 0)
(0.00657585 -0.0316686 0)
(0.00662371 -0.0311959 0)
(0.00659906 -0.030181 0)
(0.00664348 -0.0296816 0)
(0.00661806 -0.0286737 0)
(0.00665896 -0.028146 0)
(0.00663406 -0.0271692 0)
(0.00667062 -0.0265853 0)
(0.00664603 -0.0256455 0)
(0.00667952 -0.0249892 0)
(0.0066543 -0.0240811 0)
(0.00668595 -0.0233675 0)
(0.00666068 -0.0224694 0)
(0.00669019 -0.0217308 0)
(0.00666502 -0.020841 0)
(0.00669234 -0.0200875 0)
(0.00666754 -0.0192222 0)
(0.00669234 -0.0184437 0)
(0.00666772 -0.0175821 0)
(0.00669068 -0.0168032 0)
(0.00666613 -0.0159369 0)
(0.00668763 -0.0151567 0)
(0.00666304 -0.0143033 0)
(0.00668325 -0.0134956 0)
(0.00665854 -0.0126724 0)
(0.00667785 -0.01181 0)
(0.00665304 -0.0110269 0)
(0.00667174 -0.0101496 0)
(0.00664634 -0.00938246 0)
(0.00666387 -0.00850937 0)
(0.00663865 -0.00775432 0)
(0.00665433 -0.00683742 0)
(0.00662925 -0.00610945 0)
(0.00664359 -0.00515762 0)
(0.00661855 -0.00446346 0)
(0.00663194 -0.00350572 0)
(0.00660696 -0.00283461 0)
(0.00661973 -0.00185076 0)
(0.00659303 -0.00119452 0)
(0.0066063 -0.000179978 0)
(0.00657885 0.000485662 0)
(0.00659224 0.001488 0)
(0.00656555 0.00213933 0)
(0.00657721 0.00315714 0)
(0.00655051 0.00376725 0)
(0.00656076 0.00481697 0)
(0.00653343 0.00539764 0)
(0.00654332 0.00646002 0)
(0.00651521 0.00701936 0)
(0.00652465 0.0080976 0)
(0.00649576 0.00865021 0)
(0.00650495 0.00973948 0)
(0.00647563 0.0102643 0)
(0.00648345 0.0113618 0)
(0.00645323 0.0118397 0)
(0.00646021 0.0129496 0)
(0.00642927 0.0134203 0)
(0.00643583 0.0145274 0)
(0.00640416 0.0149743 0)
(0.00640972 0.0160905 0)
(0.00637605 0.0164935 0)
(0.00638148 0.0176422 0)
(0.00634561 0.0180232 0)
(0.00635118 0.0191856 0)
(0.00631336 0.0195291 0)
(0.00631819 0.0206948 0)
(0.00627955 0.0210071 0)
(0.00628308 0.0221681 0)
(0.00624409 0.0224514 0)
(0.00624615 0.0236205 0)
(0.00620583 0.0238301 0)
(0.0062065 0.0250274 0)
(0.00616422 0.0251802 0)
(0.00616433 0.0263799 0)
(0.00611985 0.0265151 0)
(0.00611906 0.0276942 0)
(0.00616486 0.0275472 0)
(0.00611822 0.0288511 0)
(0.0060704 0.0289743 0)
(0.00606795 0.0301327 0)
(0.00635588 0.0204901 0)
(0.00648829 0.0125156 0)
(0.00656914 0.00588876 0)
(0.00663 -0.000880539 0)
(0.00667958 -0.00764104 0)
(0.0067062 -0.0143381 0)
(0.00663212 -0.0118712 0)
(0.00663934 -0.0199164 0)
(0.00659488 -0.0275029 0)
(0.00644965 -0.034951 0)
(0.0061724 -0.0406223 0)
(0.00671625 -0.020929 0)
(0.00654871 0.00129451 0)
(0.00634022 0.0168445 0)
(0.00646535 0.00928601 0)
(0.0056802 -0.044422 0)
(0.00669574 -0.0275784 0)
(0.00616734 0.0238657 0)
(0.00498855 -0.0462859 0)
(0.00662145 -0.0337211 0)
(0.00647143 -0.0391288 0)
(0.00164497 -0.0382879 0)
(0.00151382 -0.0377554 0)
(0.00660369 -0.00557551 0)
(0.00616811 -0.0435647 0)
(0.00556762 -0.0468275 0)
(0.00151305 -0.0386534 0)
(0.00137174 -0.0379896 0)
(0.0013748 -0.0389898 0)
(0.0012392 -0.0384183 0)
(0.00123697 -0.0393171 0)
(0.00110032 -0.0387013 0)
(0.00110929 -0.0377884 0)
(0.000971331 -0.0379734 0)
(0.000991164 -0.0370411 0)
(0.000850082 -0.0372095 0)
(0.000881038 -0.0361677 0)
(0.000731438 -0.0363707 0)
(0.000928892 -0.0389323 0)
(0.0015085 -0.0394942 0)
(0.000769404 -0.0352632 0)
(0.000621831 -0.0354509 0)
(0.000659395 -0.0343207 0)
(0.000517569 -0.0344725 0)
(0.000468144 -0.0355864 0)
(0.000370734 -0.0345717 0)
(0.000311477 -0.0356644 0)
(0.000414039 -0.0334021 0)
(0.000664669 -0.0136876 0)
(0.00190065 -0.0529964 0)
(0.00183728 -0.0527877 0)
(0.00236396 -0.0528283 0)
(0.00246298 -0.0530383 0)
(0.00287998 -0.0528479 0)
(0.00302425 -0.0530587 0)
(0.00337671 -0.0528406 0)
(0.00357218 -0.0530451 0)
(0.00384432 -0.0528117 0)
(0.00408187 -0.0529981 0)
(0.00427841 -0.0527579 0)
(0.00453431 -0.0529172 0)
(0.00466795 -0.0526549 0)
(0.00492674 -0.0527921 0)
(0.00500694 -0.0525057 0)
(0.0052605 -0.0526195 0)
(0.00322233 -0.0526181 0)
(0.0052912 -0.0523043 0)
(0.00553457 -0.0523932 0)
(0.00477542 -0.0523742 0)
(0.00247918 -0.0357846 0)
(0.00552349 -0.0520446 0)
(0.00575212 -0.0520966 0)
(0.00430822 -0.0339676 0)
(0.00138858 -0.0257231 0)
(0.00571193 -0.0517256 0)
(0.00591871 -0.0517313 0)
(0.00381042 -0.0532154 0)
(0.00359643 0.00927759 0)
(0.00374362 0.0096116 0)
(0.00368874 0.00824485 0)
(0.0035382 0.00798154 0)
(0.0036289 0.00694098 0)
(0.00377873 0.00713312 0)
(0.00371606 0.00582478 0)
(0.00386367 0.00595589 0)
(0.00379819 0.00463624 0)
(0.00364573 0.00456761 0)
(0.00372548 0.00337539 0)
(0.00387547 0.00336701 0)
(0.0038017 0.00210561 0)
(0.00364513 0.00218763 0)
(0.0037196 0.000929981 0)
(0.00387394 0.00077391 0)
(0.0037888 -0.000379702 0)
(0.00394069 -0.000597937 0)
(0.00385222 -0.0017319 0)
(0.00369698 -0.00145831 0)
(0.00375709 -0.0027902 0)
(0.00391072 -0.00310429 0)
(0.00381253 -0.00414965 0)
(0.00365523 -0.00375855 0)
(0.003708 -0.00510122 0)
(0.00386563 -0.00554018 0)
(0.0037572 -0.00648325 0)
(0.00359866 -0.00594321 0)
(0.00364369 -0.00727341 0)
(0.00379785 -0.00791579 0)
(0.00368267 -0.00862857 0)
(0.00352825 -0.00796324 0)
(0.00356573 -0.00926249 0)
(0.00371454 -0.00998886 0)
(0.00359627 -0.0105556 0)
(0.00374021 -0.0113343 0)
(0.0036218 -0.011842 0)
(0.00347465 -0.0110328 0)
(0.0034993 -0.0122544 0)
(0.00364781 -0.0131697 0)
(0.0035196 -0.013495 0)
(0.00337296 -0.0125727 0)
(0.00338718 -0.0137057 0)
(0.00351903 -0.0146541 0)
(0.00339213 -0.0148152 0)
(0.00325582 -0.0138618 0)
(0.00326229 -0.0149189 0)
(0.00339205 -0.0159067 0)
(0.00326182 -0.0159456 0)
(0.00338592 -0.0169635 0)
(0.00325416 -0.0169382 0)
(0.00312812 -0.0158993 0)
(0.0031198 -0.0168344 0)
(0.00323876 -0.0178969 0)
(0.00310391 -0.0177284 0)
(0.00321573 -0.0188119 0)
(0.00308085 -0.0185744 0)
(0.00318396 -0.0196518 0)
(0.00304859 -0.0193476 0)
(0.00313836 -0.0203791 0)
(0.00300502 -0.0200457 0)
(0.00291136 -0.0189613 0)
(0.00287145 -0.0196174 0)
(0.00295813 -0.0207135 0)
(0.00282412 -0.0202077 0)
(0.00290345 -0.0212918 0)
(0.00277015 -0.0207353 0)
(0.00284437 -0.0218278 0)
(0.00271161 -0.021209 0)
(0.00278104 -0.0223294 0)
(0.00264555 -0.0216063 0)
(0.00257587 -0.020496 0)
(0.00250925 -0.0208154 0)
(0.00243848 -0.0197139 0)
(0.00237124 -0.0199641 0)
(0.00229911 -0.0188667 0)
(0.00223221 -0.0190575 0)
(0.00215786 -0.0179516 0)
(0.00209245 -0.0180982 0)
(0.00298997 -0.0157804 0)
(0.00270858 -0.0227252 0)
(0.00201494 -0.0169909 0)
(0.00195124 -0.0170857 0)
(0.00207664 -0.0167688 0)
(0.00187278 -0.0160003 0)
(0.00181038 -0.0160285 0)
(0.0018812 -0.0170851 0)
(0.00173162 -0.0149668 0)
(0.00174113 -0.0159608 0)
(0.0018056 -0.0169988 0)
(0.00331258 -0.0198612 0)
(0.00292479 -0.0229989 0)
(0.0016644 -0.0157835 0)
(0.00172012 -0.0167754 0)
(0.00533572 0.0156855 0)
(0.00557547 0.00603017 0)
(0.00528633 0.00777398 0)
(0.00504112 0.0162779 0)
(0.00640623 0.0340965 0)
(0.00643104 0.0338593 0)
(0.00642929 0.0330205 0)
(0.00645207 0.0327417 0)
(0.00644977 0.031947 0)
(0.00647114 0.0316297 0)
(0.00646867 0.0308358 0)
(0.00648885 0.0305033 0)
(0.00648682 0.0297013 0)
(0.00650548 0.0293589 0)
(0.00650382 0.0285499 0)
(0.00652121 0.0281895 0)
(0.00651977 0.0273957 0)
(0.00653589 0.0270242 0)
(0.00653477 0.0262436 0)
(0.00654957 0.0258729 0)
(0.00654881 0.0250885 0)
(0.00656264 0.0247145 0)
(0.00656213 0.0239315 0)
(0.00657526 0.023547 0)
(0.00657489 0.0227708 0)
(0.00658722 0.0223874 0)
(0.00658704 0.0216161 0)
(0.00659846 0.0212334 0)
(0.00659864 0.0204589 0)
(0.00660943 0.0200653 0)
(0.00660999 0.0192842 0)
(0.00662039 0.0188746 0)
(0.00662102 0.018108 0)
(0.00663098 0.0176808 0)
(0.00663159 0.0169623 0)
(0.00664088 0.0165295 0)
(0.00664159 0.0158205 0)
(0.00665049 0.015391 0)
(0.00665141 0.0146694 0)
(0.00665997 0.0142442 0)
(0.00666095 0.0135344 0)
(0.00666935 0.0130893 0)
(0.00667024 0.0123877 0)
(0.00667852 0.0119262 0)
(0.00667958 0.0112146 0)
(0.00668752 0.0107668 0)
(0.00668876 0.0100292 0)
(0.00669643 0.00960768 0)
(0.00669813 0.00884558 0)
(0.00670532 0.00844133 0)
(0.0067073 0.00771553 0)
(0.00671418 0.00727977 0)
(0.0067159 0.00660059 0)
(0.0067228 0.00612745 0)
(0.0067244 0.00545355 0)
(0.00673132 0.00497001 0)
(0.00673301 0.00428015 0)
(0.00673975 0.00381271 0)
(0.00674147 0.00311745 0)
(0.00674809 0.00265913 0)
(0.00674982 0.00196086 0)
(0.00675634 0.00150335 0)
(0.00675806 0.000806352 0)
(0.00676442 0.000364652 0)
(0.00676614 -0.000332051 0)
(0.00677233 -0.000760101 0)
(0.00677406 -0.00146222 0)
(0.00678033 -0.0019043 0)
(0.00678201 -0.00259658 0)
(0.00678838 -0.00306738 0)
(0.00678991 -0.00373322 0)
(0.00679622 -0.00421002 0)
(0.00679758 -0.00486258 0)
(0.00680403 -0.00534747 0)
(0.00680526 -0.00600086 0)
(0.00681179 -0.00648488 0)
(0.00681293 -0.00715451 0)
(0.00681946 -0.00761944 0)
(0.00682063 -0.00829257 0)
(0.00682711 -0.00875709 0)
(0.0068283 -0.009406 0)
(0.00683471 -0.00988962 0)
(0.00683581 -0.0105154 0)
(0.00684224 -0.0110169 0)
(0.00684336 -0.0116498 0)
(0.00684983 -0.0121566 0)
(0.00685092 -0.0128101 0)
(0.00685734 -0.0133024 0)
(0.00685827 -0.0139559 0)
(0.00686471 -0.0144341 0)
(0.00686555 -0.0150963 0)
(0.00687204 -0.015564 0)
(0.00687286 -0.0162456 0)
(0.00687937 -0.0167095 0)
(0.00688004 -0.0173607 0)
(0.0068866 -0.0178388 0)
(0.00688682 -0.0184408 0)
(0.00650665 0.0301719 0)
(0.00689354 -0.0189309 0)
(0.00689344 -0.0195372 0)
(0.00690046 -0.0200338 0)
(0.00690017 -0.0206619 0)
(0.00690745 -0.0211563 0)
(0.00690685 -0.0217887 0)
(0.00657527 0.0243191 0)
(0.00691429 -0.0222801 0)
(0.00691347 -0.022921 0)
(0.00692099 -0.0234067 0)
(0.00691994 -0.0240516 0)
(0.00692767 -0.0245369 0)
(0.00692622 -0.0251708 0)
(0.00663095 0.0184106 0)
(0.00693413 -0.0256687 0)
(0.00693236 -0.0262786 0)
(0.00694043 -0.0268063 0)
(0.00693813 -0.0273848 0)
(0.00694653 -0.0279207 0)
(0.00694351 -0.028473 0)
(0.00666764 0.0138491 0)
(0.00695238 -0.02901 0)
(0.00694869 -0.0295627 0)
(0.00695813 -0.0300985 0)
(0.00695355 -0.0306561 0)
(0.00670332 0.00913725 0)
(0.0069635 -0.031182 0)
(0.00695793 -0.0317545 0)
(0.00696839 -0.0322619 0)
(0.00696208 -0.0328526 0)
(0.00697304 -0.0333459 0)
(0.00696617 -0.0339396 0)
(0.00674587 0.00337913 0)
(0.00697753 -0.0344612 0)
(0.00696965 -0.0350298 0)
(0.00698147 -0.035577 0)
(0.0069722 -0.0361024 0)
(0.00698469 -0.0366357 0)
(0.006974 -0.0371602 0)
(0.00659893 0.0196884 0)
(0.00672554 0.00480951 0)
(0.00648314 0.0289425 0)
(0.00687384 -0.0170142 0)
(0.00682907 -0.0100187 0)
(0.00677597 -0.00226248 0)
(0.00678688 -0.0024121 0)
(0.00667016 0.0117306 0)
(0.00698744 -0.0376954 0)
(0.00697496 -0.0382207 0)
(0.00691771 -0.0247062 0)
(0.0069892 -0.0387724 0)
(0.00697463 -0.0392728 0)
(0.00698954 -0.0398478 0)
(0.00697256 -0.0403253 0)
(0.00694619 -0.0311895 0)
(0.00696063 -0.0387056 0)
(0.00681761 -0.0069475 0)
(0.0069887 -0.0409134 0)
(0.00696844 -0.0413746 0)
(0.00654746 0.0242936 0)
(0.0064064 0.03315 0)
(0.00684799 -0.0115008 0)
(0.00698602 -0.0419848 0)
(0.00696169 -0.0424253 0)
(0.00697968 -0.0430484 0)
(0.00695165 -0.0434715 0)
(0.00687082 -0.0149207 0)
(0.00697055 -0.0440804 0)
(0.00693786 -0.0445002 0)
(0.00689272 -0.0182956 0)
(0.00693062 -0.0428297 0)
(0.00695968 -0.0451223 0)
(0.00691922 -0.0455037 0)
(0.00691438 -0.0216034 0)
(0.0069429 -0.0461589 0)
(0.00689321 -0.0464854 0)
(0.00693534 -0.0250529 0)
(0.0069179 -0.0471432 0)
(0.00696084 -0.0295484 0)
(0.00697776 -0.03276 0)
(0.00157981 -0.0154854 0)
(0.00152589 -0.0145568 0)
(0.0038799 -0.0337225 0)
(0.00664131 0.0150916 0)
(0.00162404 -0.0163868 0)
(0.00176521 -0.0177478 0)
(0.00670138 0.00794758 0)
(0.00699249 -0.0361161 0)
(0.00675123 0.00125436 0)
(0.0068054 -0.00664153 0)
(0.00685147 -0.0134663 0)
(0.00689202 -0.0200686 0)
(0.00695678 -0.0345577 0)
(0.00693349 -0.0278453 0)
(0.00586572 -0.05134 0)
(0.00566891 -0.0513481 0)
(0.00568326 0.0245246 0)
(0.0056866 0.0231409 0)
(0.0057479 0.0231255 0)
(0.00574935 0.0217151 0)
(0.0058089 0.0216698 0)
(0.00580839 0.0202773 0)
(0.00586666 0.0201657 0)
(0.00586102 0.0187931 0)
(0.00592103 0.0185391 0)
(0.00590949 0.0171614 0)
(0.00597093 0.0168495 0)
(0.00595819 0.0154696 0)
(0.00601735 0.0151558 0)
(0.00600519 0.0137916 0)
(0.00606027 0.0134484 0)
(0.00604751 0.0121378 0)
(0.00609971 0.0116957 0)
(0.00608354 0.0104245 0)
(0.00613572 0.00989395 0)
(0.00611533 0.00862294 0)
(0.00616694 0.00804496 0)
(0.00614576 0.00680891 0)
(0.00619596 0.00614959 0)
(0.00617324 0.00498072 0)
(0.00622372 0.00428034 0)
(0.00619791 0.00312955 0)
(0.00624772 0.00243228 0)
(0.00621995 0.00125064 0)
(0.00616893 0.00197525 0)
(0.00618954 0.000105385 0)
(0.00623943 -0.000655691 0)
(0.00620817 -0.00177959 0)
(0.00625602 -0.00258014 0)
(0.00622261 -0.00367555 0)
(0.00626906 -0.00450607 0)
(0.00623133 -0.0055765 0)
(0.00627869 -0.00643654 0)
(0.0062385 -0.0074949 0)
(0.00628523 -0.00836957 0)
(0.00624449 -0.0093866 0)
(0.00628813 -0.0103064 0)
(0.00624342 -0.0112596 0)
(0.00628715 -0.0122602 0)
(0.00623942 -0.0131682 0)
(0.00628281 -0.014188 0)
(0.00623525 -0.015039 0)
(0.00627483 -0.0160701 0)
(0.00622319 -0.0168379 0)
(0.00626206 -0.0179284 0)
(0.00620481 -0.0186557 0)
(0.00624452 -0.019758 0)
(0.00618601 -0.020438 0)
(0.00622277 -0.0215472 0)
(0.00616212 -0.0221578 0)
(0.00619628 -0.0232992 0)
(0.00613363 -0.0238463 0)
(0.00616435 -0.0250054 0)
(0.00609818 -0.0254664 0)
(0.00612636 -0.0266432 0)
(0.00605402 -0.0270283 0)
(0.00608235 -0.028213 0)
(0.0060062 -0.0285536 0)
(0.0059783 -0.0274092 0)
(0.00592802 -0.0288471 0)