/*--------------------------------*- C++ -*----------------------------------*\
| =========                 |                                                 |
| \\      /  F ield         | OpenFOAM: The Open Source CFD Toolbox           |
|  \\    /   O peration     | Version:  v2012                                 |
|   \\  /    A nd           | Website:  www.openfoam.com                      |
|    \\/     M anipulation  |                                                 |
\*---------------------------------------------------------------------------*/
FoamFile
{
    version     2.0;
    format      ascii;
    class       volScalarField::Internal;
    location    "650";
    object      V0;
}
// * * * * * * * * * * * * * * * * * * * * * * * * * * * * * * * * * * * * * //

dimensions      [0 3 0 0 0 0 0];


value           nonuniform List<scalar> 
13917
(
0.0120736
0.043097
0.00275528
0.0345547
0.120662
0.00224745
0.00227767
0.00146543
0.00177523
0.00797137
0.0043925
0.0091392
0.0247763
0.00135234
0.0218047
0.0265391
0.0408881
0.00910969
0.0104355
0.158237
0.13668
0.0019198
0.124138
0.00200218
0.0723318
0.00214552
0.00738977
0.0049741
0.00209
0.00599971
0.0112459
0.0180214
0.0111489
0.0171245
0.0711324
0.00311977
0.122087
0.00145207
0.0267277
0.00122972
0.174171
0.17241
0.132221
0.00481704
0.0438206
0.0172231
0.0103208
0.00766667
0.00167503
0.170493
0.0158488
0.0391494
0.00147176
0.0159094
0.038485
0.0197242
0.00562518
0.0667347
0.0272686
0.0425436
0.00238236
0.0486791
0.0012481
0.136888
0.0031943
0.00244045
0.113778
0.0676639
0.00368964
0.012648
0.12902
0.00179976
0.00141672
0.0960099
0.00149406
0.00888948
0.00124738
0.0373082
0.00232525
0.146883
0.153502
0.10927
0.00262177
0.00171581
0.00193904
0.0385296
0.141917
0.00192812
0.0209755
0.106338
0.0014519
0.00763176
0.0697502
0.031182
0.00154993
0.0029643
0.00507217
0.00778669
0.00480518
0.005207
0.126812
0.011929
0.00417261
0.027373
0.0902424
0.00226271
0.00352383
0.0066513
0.0437345
0.00989454
0.00166549
0.00155376
0.00626639
0.00196233
0.026449
0.0013267
0.103675
0.00174237
0.00140368
0.0157285
0.164085
0.00418377
0.00125185
0.00673914
0.150455
0.0344157
0.0430139
0.170629
0.172469
0.0022474
0.00129607
0.03308
0.0442015
0.140585
0.00326209
0.00206204
0.0113418
0.00359167
0.101381
0.0171983
0.00418216
0.0762755
0.0410453
0.004342
0.0567242
0.00259786
0.0023407
0.0470544
0.0880595
0.019366
0.00930552
0.00118041
0.00732405
0.00910806
0.0212
0.00190209
0.0147411
0.00313342
0.00125607
0.00319736
0.023451
0.00817898
0.162296
0.00560508
0.00794204
0.00459109
0.0265807
0.00878232
0.0626319
0.00953461
0.0107232
0.00132149
0.0060686
0.0354036
0.00272514
0.00744459
0.00162138
0.00163943
0.0027818
0.0661974
0.00656972
0.0123559
0.077327
0.126831
0.0151358
0.00234548
0.00423112
0.00208496
0.0101552
0.00351548
0.00311589
0.00194635
0.00351913
0.14326
0.00369144
0.0078212
0.188315
0.0558717
0.00378551
0.00203691
0.0215259
0.12982
0.0112179
0.0102127
0.00134632
0.00298777
0.0608802
0.0589201
0.00808785
0.00270148
0.0444299
0.00224954
0.00138537
0.00541364
0.092037
0.00267602
0.00950255
0.00154561
0.07046
0.00271978
0.0786218
0.00563407
0.143154
0.00137541
0.00201857
0.0235532
0.00355563
0.0187338
0.104186
0.00271585
0.00639445
0.0108814
0.00256877
0.00105134
0.141241
0.0161769
0.00173031
0.0012072
0.139057
0.116413
0.00131695
0.00435552
0.162494
0.00393164
0.00714743
0.00733833
0.0128254
0.164046
0.0114706
0.00128568
0.0562622
0.00652806
0.00385765
0.0467577
0.0593508
0.008048
0.00133758
0.00666864
0.0119923
0.0200749
0.177312
0.00112834
0.00262082
0.00341707
0.0835402
0.00153434
0.00126377
0.00287844
0.00192021
0.00764446
0.160185
0.185851
0.00889045
0.00140252
0.00584119
0.0272104
0.00297274
0.011505
0.161338
0.00230566
0.138881
0.00243432
0.0248835
0.13367
0.018208
0.0081257
0.00990429
0.00324533
0.0126053
0.0494029
0.00338338
0.0021967
0.00195387
0.0805207
0.00295882
0.124144
0.0520137
0.110374
0.00203556
0.184048
0.00520712
0.0148035
0.0679807
0.00927824
0.0321012
0.00103727
0.00812259
0.00814262
0.0659954
0.061201
0.00153638
0.00135443
0.0884157
0.155817
0.00268472
0.0717676
0.001508
0.0772494
0.00126384
0.0393108
0.00388936
0.0160376
0.00142403
0.0255971
0.00308577
0.00260332
0.0185155
0.00370704
0.00271711
0.0407726
0.00158908
0.00324779
0.00103789
0.0201612
0.00128014
0.0168068
0.00185012
0.00359307
0.00446454
0.0050751
0.00220764
0.124015
0.0108625
0.00186683
0.0408826
0.0282184
0.00139399
0.00338895
0.0437557
0.00351293
0.00199017
0.144851
0.00146333
0.00358455
0.133474
0.105311
0.138914
0.0791045
0.00331024
0.00244812
0.00242553
0.00183879
0.0893537
0.00551825
0.00127702
0.0114303
0.00193106
0.00166353
0.00193276
0.108965
0.00378188
0.0905064
0.00250382
0.041395
0.00133801
0.00654496
0.0311584
0.109791
0.00884084
0.00525928
0.00611426
0.00121431
0.00163951
0.00122921
0.0100803
0.00649358
0.0997127
0.00124938
0.00195825
0.0590343
0.00383567
0.104685
0.00397447
0.0367519
0.135614
0.0232692
0.0016788
0.0279833
0.00167989
0.0014885
0.00245913
0.00245915
0.0396482
0.00259389
0.00238241
0.125752
0.00379949
0.0472324
0.0660764
0.00490382
0.177543
0.0982288
0.0823437
0.00363041
0.142074
0.00144921
0.00213219
0.00134697
0.00329523
0.00158036
0.00128676
0.0123156
0.0945317
0.00522752
0.0233642
0.016702
0.125402
0.00259538
0.00240082
0.00258282
0.0211316
0.00573803
0.0233408
0.0280608
0.00727828
0.0294315
0.00298704
0.0409614
0.153122
0.00157153
0.00148088
0.00154274
0.00550091
0.00119606
0.00178738
0.00151026
0.00150375
0.142952
0.00791667
0.0291486
0.0539979
0.00325881
0.00768298
0.159576
0.00835133
0.0123331
0.00135084
0.100307
0.00561711
0.00165509
0.00308175
0.00121007
0.13397
0.0506511
0.161209
0.0115261
0.131305
0.0022997
0.00271064
0.0147209
0.00170621
0.0207219
0.00474855
0.00158526
0.00149545
0.0045379
0.00334749
0.00484271
0.0092921
0.00463915
0.011335
0.00444112
0.00232182
0.00950132
0.00534418
0.154798
0.00278124
0.0214348
0.0795163
0.0125398
0.0337477
0.00150413
0.00164351
0.0698825
0.152841
0.00240767
0.00112532
0.180853
0.00124402
0.029495
0.00415299
0.0730873
0.00108091
0.00311687
0.0189704
0.0308014
0.00184866
0.00405878
0.00127986
0.176997
0.00135839
0.00186377
0.00295238
0.067927
0.00170723
0.0021092
0.0113032
0.100133
0.0354219
0.00921341
0.00376053
0.13528
0.111219
0.138303
0.137088
0.00125036
0.00306461
0.0121751
0.00422075
0.166982
0.0985795
0.00575435
0.00217166
0.012184
0.0515005
0.0880828
0.0700643
0.00257532
0.00185259
0.141462
0.0729363
0.00353627
0.0118194
0.0118618
0.0571703
0.0249307
0.0189686
0.00595772
0.00283298
0.00349835
0.00441998
0.00528355
0.00300703
0.00692744
0.0781691
0.00147878
0.0793806
0.0252367
0.026989
0.00267697
0.00538066
0.116547
0.00320278
0.00519106
0.00145203
0.00484758
0.00965712
0.0117467
0.104392
0.00192194
0.00327277
0.00158217
0.0477015
0.0151798
0.00368466
0.00150969
0.00135911
0.00722476
0.00440656
0.0257349
0.0217721
0.0499669
0.00605663
0.00413236
0.0424494
0.00970272
0.00331238
0.00171211
0.00108545
0.0263612
0.00509375
0.00359719
0.0164706
0.0432995
0.00155325
0.00257969
0.00226055
0.00416124
0.139425
0.00124487
0.00976321
0.136956
0.0141323
0.00724905
0.0113754
0.00638424
0.00215934
0.00501287
0.0152994
0.00233809
0.0266621
0.00138424
0.141174
0.107985
0.00244579
0.00215291
0.00243035
0.0249073
0.0397944
0.0782491
0.010189
0.00136044
0.00493809
0.0209796
0.00553294
0.00890197
0.0594849
0.00245021
0.00604242
0.00339719
0.0769387
0.00403408
0.0327671
0.00156403
0.00822304
0.00595494
0.0128324
0.136902
0.0775001
0.0420034
0.00501698
0.0149497
0.00375967
0.001262
0.00854626
0.135233
0.00383033
0.00178226
0.00335057
0.0553882
0.0154761
0.111078
0.0166584
0.0205483
0.00187836
0.145916
0.00231202
0.017388
0.00404914
0.00649895
0.00133691
0.00559896
0.0388844
0.00135768
0.00136279
0.0546972
0.028362
0.00332421
0.00464478
0.00558086
0.168095
0.0308155
0.0040484
0.0244809
0.0074831
0.009216
0.0703703
0.0103487
0.00243475
0.0527956
0.0415115
0.155022
0.00138371
0.153763
0.0220666
0.00135572
0.025186
0.00239797
0.0209568
0.00848317
0.137655
0.00830756
0.100817
0.00905168
0.163195
0.00575468
0.0288641
0.00176028
0.00133888
0.00166333
0.189026
0.135694
0.00724618
0.00957254
0.00119782
0.00156621
0.00879293
0.0758222
0.00372348
0.00237298
0.00296851
0.00415224
0.00904845
0.00207997
0.0101613
0.0127599
0.00400813
0.00378303
0.00943264
0.00168729
0.0104273
0.0303296
0.00639701
0.0146507
0.0685883
0.0179977
0.0101356
0.0183386
0.102363
0.153013
0.00901512
0.0258336
0.00665602
0.0673136
0.0902329
0.141104
0.0263691
0.0996791
0.0207445
0.142432
0.00110723
0.00982069
0.00283244
0.139767
0.138355
0.00676312
0.00789781
0.0300484
0.0024181
0.00635654
0.0026322
0.0135377
0.00490498
0.0311165
0.158397
0.145608
0.0261345
0.00123986
0.145265
0.00268209
0.0153255
0.00106789
0.00803011
0.00555408
0.00435535
0.09599
0.182472
0.00874185
0.0711543
0.0402389
0.00269252
0.0318862
0.130319
0.0154135
0.128943
0.131578
0.0178466
0.0135322
0.00105177
0.0136385
0.044018
0.178973
0.00157706
0.00412067
0.0482919
0.0383889
0.00254452
0.00324441
0.0013082
0.0113836
0.0294233
0.130338
0.124335
0.0093143
0.0129062
0.00320314
0.0147589
0.00156466
0.034295
0.0254731
0.000928637
0.103402
0.0182717
0.0575167
0.160517
0.0101593
0.00749636
0.0322814
0.00205265
0.0012126
0.00752539
0.0635975
0.080504
0.00552351
0.00274179
0.1588
0.00280707
0.0837686
0.0107787
0.0531201
0.0694829
0.00344951
0.0506802
0.00292766
0.0108271
0.151689
0.109353
0.0509482
0.0722658
0.0441279
0.00151092
0.0557844
0.0706456
0.00165224
0.00200376
0.0120438
0.0117384
0.00662292
0.0211749
0.0795779
0.0107857
0.00136631
0.00461623
0.0983039
0.0410881
0.00181594
0.00998601
0.00157145
0.136267
0.0284723
0.0013406
0.0132206
0.0346557
0.00124251
0.00162025
0.0799478
0.00435805
0.11903
0.0544578
0.106939
0.00137852
0.0980047
0.0471046
0.0801299
0.0025107
0.0214231
0.00425066
0.00591198
0.0621851
0.0103405
0.1441
0.0015112
0.0988142
0.055254
0.131213
0.00381222
0.110485
0.00396787
0.00127251
0.00255599
0.0184466
0.00302535
0.00134743
0.0605341
0.00123493
0.00166305
0.00127869
0.00156415
0.00157723
0.00153298
0.00405482
0.035189
0.00188654
0.0140907
0.00178102
0.0800964
0.0625654
0.0484195
0.141995
0.0184134
0.0130235
0.00104612
0.0641868
0.0733673
0.00109416
0.00321236
0.0479382
0.00712952
0.0153602
0.0416234
0.00108047
0.00697902
0.0237213
0.0213135
0.00121398
0.00100378
0.00174875
0.0563943
0.00401345
0.00495312
0.00135523
0.00172994
0.00694116
0.0625849
0.0306701
0.0317972
0.158644
0.024148
0.132333
0.0165787
0.00600062
0.00164845
0.005519
0.0441777
0.00518191
0.00152491
0.0109575
0.047464
0.00122158
0.0602945
0.0416219
0.00858212
0.00175795
0.112565
0.0744232
0.00208162
0.00317183
0.00306018
0.00500488
0.0024619
0.0668334
0.00350387
0.043232
0.103085
0.0438866
0.00257316
0.00114526
0.0626349
0.106896
0.0555674
0.00296687
0.0263759
0.017533
0.0754643
0.045743
0.00417986
0.05732
0.00766547
0.0035958
0.00174479
0.0505497
0.00536259
0.0225038
0.00139409
0.0012042
0.0864667
0.00122893
0.00660909
0.00163727
0.121876
0.00153507
0.120034
0.0159735
0.010947
0.00444882
0.00235178
0.0028554
0.004466
0.00225749
0.141178
0.00373949
0.0724398
0.0119585
0.00185791
0.048322
0.155037
0.0337435
0.0393766
0.001305
0.114442
0.123571
0.00898661
0.0076595
0.00958271
0.002264
0.00538829
0.00120207
0.00901537
0.0123257
0.0140647
0.00135055
0.0122558
0.00265612
0.00150792
0.0212585
0.0643455
0.00160282
0.00333362
0.0415032
0.00596145
0.00944646
0.0354631
0.0188374
0.0362296
0.0112963
0.173297
0.00917415
0.00333532
0.101887
0.00854923
0.0613933
0.00642428
0.166285
0.0148607
0.00769266
0.024074
0.0410172
0.065008
0.00163179
0.00616577
0.00258026
0.0728891
0.0385853
0.00824976
0.0583965
0.00681603
0.00570929
0.0343909
0.00651129
0.0697624
0.00240361
0.0437876
0.0161838
0.00103104
0.0036077
0.0809184
0.0271798
0.00127241
0.0993167
0.102763
0.00143114
0.00149066
0.0219234
0.00432625
0.145796
0.0403381
0.0025362
0.0319592
0.0904113
0.00330162
0.0559735
0.00298495
0.11566
0.0980933
0.0440997
0.00517058
0.00143352
0.0436143
0.0409273
0.073502
0.0194904
0.134845
0.00163583
0.008409
0.158961
0.00232191
0.00852919
0.00284441
0.00158151
0.00150102
0.0677228
0.0483213
0.0536187
0.00199114
0.0196659
0.0014977
0.00140924
0.0274391
0.0018033
0.0015498
0.00927928
0.00438381
0.00578247
0.00238273
0.00224175
0.00480495
0.00279818
0.001561
0.0090794
0.0223731
0.00134003
0.00542121
0.0709158
0.0238128
0.00248048
0.0102715
0.0677065
0.00727703
0.00602728
0.0116858
0.00122826
0.0269456
0.00223895
0.0126191
0.00377154
0.00447923
0.00400205
0.0159347
0.0658397
0.0403851
0.00238486
0.0821471
0.0227375
0.153196
0.0250088
0.0594622
0.0104628
0.00503246
0.00142788
0.00809111
0.00646474
0.00236939
0.0029183
0.0591047
0.00302244
0.00220425
0.0570316
0.101105
0.0126036
0.00132618
0.14126
0.0074599
0.00258361
0.00843693
0.05751
0.0277652
0.0573901
0.00528068
0.00950988
0.134344
0.0017344
0.00207825
0.00965705
0.00277299
0.00763469
0.00214924
0.0264853
0.0194237
0.00228916
0.00277314
0.00680467
0.0018477
0.0179522
0.147831
0.0617331
0.0495942
0.0588242
0.0273058
0.00895213
0.0761046
0.00459006
0.133671
0.0144909
0.0669963
0.00649966
0.00524739
0.00296276
0.0620046
0.00400854
0.0594767
0.00225888
0.0925073
0.0176171
0.0940409
0.00360547
0.00124435
0.00398311
0.072924
0.00527529
0.0464417
0.0143987
0.00149398
0.0532135
0.0425293
0.00813726
0.0157682
0.00191282
0.0739576
0.0146822
0.0381071
0.10592
0.0122582
0.0330074
0.10135
0.0245085
0.00100093
0.0223697
0.00305239
0.00227399
0.00907392
0.00142964
0.0223083
0.109622
0.0144536
0.00116922
0.0338063
0.0103575
0.0107346
0.00161172
0.0752999
0.00113617
0.00721088
0.00736103
0.0670681
0.11404
0.00502442
0.039197
0.144507
0.0099959
0.0809016
0.0159434
0.0158043
0.00538177
0.00333709
0.00207823
0.0219116
0.00552045
0.00245781
0.00110489
0.0138666
0.00279874
0.00132953
0.0117938
0.00201457
0.0202144
0.00180619
0.00119867
0.0729958
0.164521
0.107477
0.0383638
0.00990971
0.0655254
0.018942
0.00653073
0.0257399
0.0109928
0.00106241
0.00973543
0.022579
0.00157084
0.0329651
0.00122351
0.0254753
0.00425701
0.0773524
0.00106429
0.00130607
0.0464155
0.0367377
0.00181078
0.0106512
0.0012678
0.1338
0.0479219
0.00168205
0.0309477
0.00628151
0.00157219
0.0764744
0.00842428
0.012462
0.111129
0.13339
0.00185089
0.00131372
0.0403678
0.0227409
0.054814
0.0140836
0.00873775
0.00145628
0.0271742
0.00169367
0.00279088
0.00337367
0.00270824
0.0314548
0.00568641
0.00350226
0.0142347
0.0910531
0.00880278
0.0014658
0.0251629
0.00727309
0.0018514
0.00132531
0.00272085
0.0195501
0.0483098
0.13095
0.0794632
0.00130042
0.00896262
0.0248718
0.0283119
0.0241071
0.135846
0.0594293
0.0760877
0.00619128
0.0153394
0.00237049
0.00572903
0.0012021
0.00148631
0.0135673
0.00926383
0.114754
0.0172513
0.00105538
0.0368653
0.0248325
0.00911751
0.00454339
0.00605535
0.00221046
0.00201923
0.0587098
0.00106846
0.120801
0.0385112
0.00801286
0.145031
0.0468772
0.00432843
0.002384
0.054148
0.00233208
0.0375283
0.0673079
0.020781
0.00168236
0.0161527
0.027259
0.00200642
0.0318944
0.0033879
0.00164781
0.169481
0.00503801
0.130465
0.00119997
0.00640093
0.0670698
0.00196188
0.00872656
0.00461927
0.128987
0.00105145
0.0138285
0.00285393
0.0404353
0.00424641
0.00129447
0.0691965
0.00173047
0.0462796
0.00764469
0.00631879
0.159695
0.00103066
0.0242156
0.00433033
0.00817986
0.00474156
0.00967205
0.00930432
0.0283558
0.0018807
0.0107762
0.00116883
0.0134127
0.00985789
0.0494722
0.0114501
0.0556056
0.00909818
0.00223657
0.0360519
0.0707466
0.00134137
0.0288352
0.002265
0.0328066
0.00228855
0.00256332
0.0129223
0.0729429
0.101156
0.0857071
0.120197
0.00577255
0.0065864
0.00730118
0.019202
0.136485
0.00303331
0.0249497
0.0139126
0.00273728
0.0563714
0.00181904
0.00959706
0.0174226
0.0017323
0.00132973
0.00314162
0.0023052
0.00270474
0.072076
0.00258108
0.00148748
0.00260745
0.148808
0.0442046
0.00473324
0.00210588
0.00128486
0.00300768
0.0496127
0.00719579
0.0110841
0.00186068
0.00127086
0.0121153
0.00335276
0.0219416
0.00652152
0.00636584
0.144948
0.00550278
0.00246807
0.10686
0.00282227
0.142687
0.0463214
0.00103046
0.00152979
0.127797
0.0387963
0.0231464
0.0459621
0.00984855
0.00431777
0.025868
0.100717
0.102765
0.00875638
0.0165057
0.0207664
0.00327085
0.0704839
0.00176513
0.00122612
0.00148498
0.00348665
0.00967251
0.00305093
0.0133648
0.00184227
0.00268883
0.00270901
0.0407568
0.00188053
0.00113013
0.115507
0.0970202
0.0053673
0.00149848
0.00230926
0.062901
0.0499615
0.00151326
0.00185382
0.00271209
0.0245764
0.0209781
0.00185019
0.0493674
0.00148795
0.00173879
0.00313301
0.00248443
0.051355
0.0779969
0.131475
0.0154883
0.00115742
0.0110592
0.0223769
0.0297867
0.00457131
0.00108044
0.0100031
0.00278223
0.00110738
0.00103541
0.00171484
0.0803651
0.15263
0.00226177
0.114307
0.0691476
0.028466
0.00112664
0.0116314
0.00197709
0.0044412
0.0880069
0.00146472
0.0119568
0.0597768
0.00134605
0.00302846
0.0182179
0.0412022
0.00119163
0.00156693
0.118937
0.00229218
0.0023024
0.00183152
0.00209302
0.00542318
0.0640452
0.0318878
0.00351076
0.0202997
0.00217245
0.008421
0.00281739
0.00325814
0.0267274
0.0165151
0.0550103
0.034386
0.00168253
0.00113817
0.0810526
0.00126958
0.0100255
0.0475735
0.0203917
0.0934242
0.0041533
0.0263726
0.00168819
0.00650402
0.0659118
0.134477
0.00490653
0.000988418
0.0108584
0.0229647
0.00963174
0.0642291
0.0248516
0.0175148
0.000937606
0.0013677
0.0015598
0.109504
0.131414
0.024784
0.00652343
0.0989371
0.0343683
0.0038403
0.00716723
0.00273178
0.0712951
0.00161847
0.0013274
0.163979
0.00100879
0.00519599
0.0104475
0.00153237
0.0361662
0.00144252
0.014713
0.0241575
0.0226422
0.122057
0.00355708
0.16705
0.0361206
0.0114249
0.00150137
0.00150292
0.140422
0.16159
0.0241794
0.0491989
0.00413561
0.0381797
0.00618431
0.0291136
0.00145174
0.035204
0.00156736
0.103046
0.00162489
0.035173
0.11311
0.00181588
0.00259018
0.00390871
0.0029904
0.00566258
0.0101497
0.0726292
0.001429
0.0656701
0.0997945
0.00451011
0.00901756
0.00180134
0.00143981
0.00488282
0.00276696
0.0047786
0.0028196
0.139771
0.0222707
0.0165584
0.00155108
0.0202799
0.00138186
0.00102974
0.0365538
0.0463639
0.0521473
0.00264129
0.00106089
0.0236366
0.124281
0.0209893
0.0185055
0.0109129
0.00347379
0.00308441
0.126756
0.00203397
0.00629098
0.000967027
0.00649429
0.0245812
0.0245403
0.0013848
0.142169
0.0060445
0.00219723
0.0286121
0.0197541
0.00378638
0.0042184
0.0331957
0.00125818
0.024557
0.00333015
0.00956817
0.0138119
0.0304432
0.00166565
0.101576
0.00503378
0.00178493
0.00154847
0.00911455
0.0071944
0.021121
0.00959122
0.138325
0.00172628
0.0190738
0.0495689
0.0148367
0.139379
0.164469
0.000881966
0.093156
0.147146
0.053763
0.0039453
0.0462943
0.0130995
0.00613175
0.0035442
0.0053593
0.137544
0.00313873
0.00199226
0.00414532
0.00749852
0.0121086
0.00419387
0.00265278
0.0026863
0.166807
0.00247548
0.00216728
0.168764
0.0250614
0.119276
0.00223693
0.00519275
0.0343323
0.0016955
0.00149338
0.136604
0.0425995
0.00208458
0.00111517
0.00833881
0.107608
0.00265228
0.00159716
0.00130839
0.100619
0.00151862
0.00671596
0.00403569
0.00128967
0.0210668
0.118732
0.0135514
0.00426421
0.0129454
0.00204686
0.00150219
0.0689185
0.0023181
0.00154969
0.00134015
0.0865097
0.00623689
0.0288248
0.0636285
0.00122212
0.00306565
0.00335922
0.00293546
0.0146585
0.0100245
0.158378
0.00162462
0.0011851
0.0718419
0.0378449
0.0111163
0.0606117
0.00917912
0.00167719
0.00192499
0.00906031
0.034311
0.0366839
0.00162571
0.0196483
0.00899088
0.075659
0.0291365
0.00333853
0.0028077
0.00311131
0.00154767
0.142606
0.00365925
0.153604
0.00783346
0.0017773
0.00136657
0.0957976
0.144761
0.0144618
0.0165056
0.0445142
0.00138745
0.0015236
0.0761309
0.14006
0.11814
0.0957932
0.00143991
0.0658411
0.00150466
0.00513126
0.00846758
0.0617165
0.00922266
0.00162957
0.0140801
0.00265933
0.00162414
0.0322871
0.00102597
0.00988155
0.00636228
0.00320166
0.001226
0.00136236
0.00922395
0.0723548
0.00387768
0.0652788
0.0155836
0.043995
0.00232304
0.0104179
0.0027906
0.00344921
0.0100159
0.114637
0.00343703
0.0180939
0.161656
0.00269501
0.108891
0.0145098
0.0105598
0.043982
0.00215212
0.0280858
0.00230027
0.0271248
0.0942858
0.00179835
0.00151546
0.0211719
0.0109102
0.0123389
0.0066455
0.00882455
0.0148202
0.0149308
0.0223204
0.00367307
0.0182285
0.00218721
0.00561923
0.00262873
0.00567321
0.0298049
0.0016009
0.155488
0.00234384
0.0207023
0.00195396
0.00269159
0.00269645
0.00270134
0.00398904
0.00465948
0.0330129
0.001665
0.00444188
0.0730286
0.00106366
0.00230336
0.0253432
0.0276626
0.0121843
0.0118268
0.0148282
0.00137379
0.184717
0.0152887
0.011053
0.0111573
0.14087
0.00584306
0.0933305
0.0021245
0.0193565
0.00448685
0.0131352
0.0110121
0.00506231
0.00283414
0.00696121
0.0697899
0.00375231
0.00177985
0.0017448
0.0380834
0.00231298
0.0168371
0.0014326
0.0638607
0.0223039
0.00145896
0.00994992
0.00123094
0.001231
0.0101766
0.00123111
0.0489552
0.0930033
0.00103101
0.00567353
0.0241337
0.00171575
0.0183546
0.0072461
0.0149021
0.00710619
0.0418495
0.00253765
0.0018049
0.00123369
0.00323557
0.0170108
0.00849727
0.00124443
0.023951
0.0426892
0.00529852
0.113253
0.00209335
0.00180088
0.00121476
0.0013203
0.00884177
0.0346073
0.00158362
0.123797
0.00506708
0.147423
0.00166569
0.0276097
0.00655161
0.00125592
0.00470843
0.124787
0.0125739
0.00183969
0.0473695
0.00536643
0.0681778
0.00214988
0.00131888
0.00547754
0.00430712
0.124298
0.0040232
0.00495741
0.0103132
0.0683127
0.0379862
0.166138
0.00958337
0.100066
0.00563857
0.0433398
0.0633885
0.0018301
0.0587489
0.0184601
0.0219475
0.134919
0.00146874
0.0624457
0.0118743
0.00159459
0.010013
0.00260947
0.0491897
0.00173389
0.0100766
0.0017636
0.0261779
0.00394706
0.0433901
0.00948388
0.00511176
0.00539219
0.00389125
0.00153532
0.00428638
0.00287908
0.0157152
0.00523441
0.00913934
0.00266458
0.0185792
0.0414231
0.0597327
0.00966218
0.00689682
0.00287859
0.00897901
0.00220841
0.00237607
0.00386547
0.0540599
0.00277259
0.00259192
0.0397195
0.0252271
0.0508993
0.00218447
0.0586231
0.000884425
0.0622319
0.0180055
0.00143033
0.00524993
0.0873735
0.0595164
0.00122357
0.0741955
0.0234897
0.0168727
0.0123282
0.0202653
0.0402225
0.003148
0.00436569
0.00918832
0.00366461
0.0014628
0.00137324
0.00111424
0.116547
0.0637399
0.00421147
0.0352886
0.005553
0.00223794
0.00127856
0.112036
0.0713929
0.00153137
0.00305054
0.107982
0.0715141
0.0148803
0.0018585
0.00200131
0.0185738
0.012693
0.130651
0.00355964
0.00546625
0.00324019
0.0114561
0.0101976
0.0269345
0.0110213
0.00331939
0.0233929
0.0401744
0.0186903
0.00209298
0.0178502
0.00122375
0.0909475
0.0015157
0.0112572
0.012425
0.0868581
0.0936468
0.00280856
0.00235744
0.00598965
0.00118499
0.00190345
0.0349744
0.00148569
0.00473448
0.144826
0.00260808
0.0028546
0.00339513
0.139262
0.00146368
0.00144177
0.0641268
0.00975453
0.00128448
0.0101735
0.0490931
0.0693031
0.0351036
0.0242685
0.00664549
0.00371416
0.00447986
0.00676364
0.120723
0.0517745
0.00228624
0.0639395
0.00847126
0.0138005
0.0474559
0.00877796
0.0804178
0.0240533
0.00358562
0.103157
0.00135162
0.0986455
0.00183452
0.0016654
0.00588546
0.0427394
0.162452
0.00157021
0.120082
0.0230075
0.0355793
0.00371407
0.0029846
0.0113986
0.00156941
0.00981896
0.0028241
0.030035
0.00695163
0.0587897
0.0968155
0.00122515
0.00134964
0.00302808
0.023856
0.00761668
0.00664362
0.00107098
0.00150929
0.00352824
0.00771712
0.118893
0.00157696
0.0516039
0.0468938
0.00414463
0.00529071
0.0139447
0.00297107
0.00698963
0.0124544
0.0176248
0.00142216
0.0235413
0.0911104
0.000990899
0.00558101
0.0903409
0.00110255
0.127934
0.107597
0.00399811
0.00504525
0.00190156
0.0994815
0.0195161
0.0619121
0.00180598
0.0669381
0.00227942
0.00258502
0.00152514
0.00143537
0.0015889
0.0116155
0.00148427
0.00198611
0.133597
0.0127602
0.00943606
0.0114815
0.00177977
0.00128299
0.00127316
0.00156454
0.00170003
0.0439247
0.00584532
0.144783
0.00142907
0.0165834
0.025425
0.0234904
0.0278836
0.0664687
0.00477877
0.00133755
0.107956
0.0252197
0.144711
0.00149485
0.0267108
0.0016908
0.00216008
0.0029333
0.0864545
0.0663574
0.00115381
0.00261215
0.103161
0.00322344
0.137225
0.0046839
0.00294913
0.00584583
0.00977524
0.00263316
0.0579032
0.0605152
0.00361778
0.00147994
0.0149946
0.0069452
0.0633267
0.00110203
0.0815214
0.142454
0.0311403
0.0625179
0.00174894
0.00142886
0.00287919
0.00864725
0.00150011
0.00337669
0.119483
0.0139779
0.085591
0.00174898
0.0365574
0.019666
0.0616206
0.097219
0.0646484
0.00205
0.0392226
0.00153937
0.0772849
0.0116067
0.155282
0.00181974
0.100265
0.0138335
0.0105511
0.0059064
0.00178423
0.092923
0.00117341
0.00730199
0.00847597
0.141667
0.0800557
0.00142329
0.00101531
0.0407469
0.0650929
0.00342984
0.00362495
0.00889829
0.00155976
0.0278285
0.00214449
0.0168824
0.0926836
0.0017891
0.0356755
0.00188153
0.059366
0.0280877
0.109989
0.000986551
0.00145947
0.110986
0.00277717
0.00367196
0.139331
0.0571341
0.144787
0.00281367
0.00153886
0.00754786
0.028038
0.0102687
0.0998647
0.0509312
0.0246528
0.107077
0.00394889
0.0463485
0.0078134
0.00288234
0.0106258
0.130748
0.00237158
0.00569445
0.0964036
0.00544723
0.0146788
0.00288776
0.0200726
0.00230903
0.00843719
0.052847
0.00613161
0.00614496
0.0256733
0.0017036
0.00811363
0.0181893
0.00292889
0.0569452
0.00452462
0.0038791
0.00480455
0.0964873
0.0606099
0.120716
0.0105531
0.00889708
0.00877986
0.00237306
0.00129923
0.00223483
0.1332
0.00159521
0.00163094
0.00158359
0.0602979
0.0466634
0.00887301
0.0018896
0.0232203
0.0107429
0.00152028
0.00130039
0.0016966
0.00379561
0.00403812
0.00154148
0.00290013
0.0881233
0.0018176
0.00363065
0.0366334
0.0380371
0.0279176
0.00143365
0.00597367
0.00181733
0.0229965
0.00273189
0.0424113
0.00254366
0.00133862
0.0359374
0.00876837
0.00146575
0.0023475
0.00843199
0.0287388
0.0238472
0.0332726
0.00363965
0.00543667
0.002498
0.0015521
0.0783245
0.00105082
0.0043317
0.00270868
0.144582
0.137497
0.00354539
0.00294526
0.0616213
0.00907804
0.00489836
0.00614326
0.00209157
0.00192124
0.00159165
0.00149277
0.0194108
0.0768749
0.00519861
0.00127111
0.00225111
0.0495194
0.00188056
0.00427535
0.00211347
0.0318607
0.146305
0.00175048
0.00266376
0.00249215
0.00181784
0.00133016
0.0859046
0.0028371
0.00158344
0.0461223
0.00542422
0.00650847
0.099826
0.00388677
0.00185568
0.0028327
0.142178
0.00112201
0.00493147
0.00161936
0.107131
0.0254365
0.0322206
0.0360173
0.0360568
0.00737771
0.0094939
0.00802343
0.00291165
0.0104045
0.00136155
0.0187048
0.0184107
0.0145898
0.00105662
0.0058163
0.00145413
0.0145333
0.0139358
0.00103228
0.00362781
0.0481401
0.00839707
0.00284835
0.00228381
0.00369032
0.0546104
0.0805951
0.0496795
0.00311704
0.0283796
0.00148903
0.00181685
0.00261358
0.0134102
0.0038449
0.00132474
0.0474655
0.00249826
0.0111425
0.00510588
0.0479884
0.051278
0.00785981
0.00148103
0.14034
0.00153063
0.00319648
0.00447129
0.00427517
0.0745354
0.113607
0.0148542
0.037594
0.00168467
0.00170031
0.00514552
0.00287151
0.0562286
0.0435931
0.040814
0.132099
0.0018223
0.0300244
0.0013619
0.00439613
0.0283587
0.0024748
0.00214452
0.00146889
0.00108176
0.0239302
0.0667993
0.10428
0.0240776
0.00213085
0.00343953
0.00162558
0.113262
0.036204
0.00333472
0.149511
0.00339835
0.0230342
0.00332229
0.00291606
0.00852948
0.00950932
0.0755147
0.00919038
0.0098909
0.00347299
0.00442702
0.00923504
0.0976767
0.00380994
0.0689363
0.00251609
0.00161074
0.00187866
0.0505426
0.00562625
0.0563173
0.0107423
0.0273089
0.0355548
0.0126798
0.00139555
0.00188696
0.00465562
0.00780627
0.00347002
0.00573284
0.0020961
0.00152029
0.0153367
0.00146453
0.00349413
0.0640109
0.00581264
0.00153003
0.00474765
0.142531
0.00813171
0.00162333
0.00324639
0.00103363
0.041634
0.00300895
0.0745819
0.0639295
0.0108196
0.00186977
0.159449
0.00147394
0.00163148
0.00334382
0.0026106
0.00262931
0.00157422
0.00371038
0.108461
0.0201137
0.0812104
0.00728182
0.00374016
0.0022248
0.0191218
0.0106519
0.0744819
0.00158639
0.0111355
0.00921011
0.00174581
0.00336136
0.00167814
0.00157775
0.0594479
0.0010436
0.104116
0.0147798
0.00534038
0.00166079
0.00435872
0.0143426
0.0315254
0.00199786
0.0146095
0.00201547
0.00100546
0.00998863
0.00153863
0.0104719
0.144053
0.00188967
0.00736227
0.0276729
0.000988417
0.00189078
0.0148795
0.0150114
0.00497999
0.00130995
0.0636433
0.0483864
0.111196
0.0895574
0.0285164
0.00151228
0.0108016
0.00165258
0.120676
0.0471085
0.00201241
0.0364836
0.165476
0.111272
0.0504896
0.00270902
0.0677629
0.00158479
0.0362234
0.0272797
0.00772678
0.0387231
0.00267938
0.0698987
0.149439
0.0649893
0.0127735
0.00503574
0.021923
0.00144613
0.0472909
0.00779181
0.0159901
0.00151688
0.0334
0.104966
0.0599697
0.0750191
0.00339817
0.068643
0.0571486
0.02558
0.00280617
0.14252
0.00803291
0.00883747
0.0539651
0.00166537
0.00161343
0.00305558
0.00259955
0.0221847
0.00537214
0.0442774
0.00350472
0.00361191
0.0369791
0.00292485
0.00505557
0.00242043
0.0133552
0.0629012
0.00163934
0.00881233
0.00297412
0.0018744
0.0784255
0.062749
0.00122229
0.00153459
0.00861425
0.00604581
0.0278373
0.00183051
0.00248719
0.11092
0.0919378
0.0402663
0.0991395
0.134224
0.0600401
0.00960284
0.00152424
0.0146747
0.0432471
0.00230676
0.0844954
0.00303425
0.00508075
0.0446302
0.0164666
0.0624828
0.00306187
0.0177077
0.0065112
0.0631002
0.0384457
0.00118043
0.00147498
0.132205
0.00893991
0.00759933
0.0153618
0.0212407
0.1603
0.0353202
0.00293061
0.00298643
0.0109983
0.00212041
0.0371154
0.00164032
0.00458528
0.0250891
0.00125506
0.0265083
0.00179795
0.00240535
0.00142448
0.00269832
0.00151332
0.0015176
0.0706703
0.0175735
0.0225438
0.0772232
0.0653797
0.0150945
0.00462678
0.0597889
0.0133849
0.00419452
0.00493118
0.00266416
0.00360138
0.0130882
0.00257009
0.00213261
0.0103341
0.0184302
0.00385472
0.0017573
0.00181806
0.0188976
0.0771332
0.0665567
0.067363
0.0128942
0.00127837
0.00334755
0.0617748
0.0012812
0.107099
0.00455635
0.00209983
0.00462304
0.00389031
0.00398881
0.00322999
0.0285439
0.0108094
0.0775787
0.0035891
0.062391
0.0272105
0.0132522
0.00312875
0.0960891
0.024296
0.00118101
0.116156
0.0413553
0.0162181
0.00158629
0.00487259
0.00302868
0.00920636
0.138537
0.00164919
0.00830654
0.0268057
0.0674012
0.010421
0.0151532
0.0565847
0.0219745
0.00125359
0.0237108
0.0804157
0.00653621
0.0805336
0.0113998
0.00981667
0.0915788
0.0998094
0.00140439
0.0985931