/*--------------------------------*- C++ -*----------------------------------*\
| =========                 |                                                 |
| \\      /  F ield         | OpenFOAM: The Open Source CFD Toolbox           |
|  \\    /   O peration     | Version:  v2012                                 |
|   \\  /    A nd           | Website:  www.openfoam.com                      |
|    \\/     M anipulation  |                                                 |
\*---------------------------------------------------------------------------*/
FoamFile
{
    version     2.0;
    format      ascii;
    class       volScalarField;
    location    "950";
    object      nut;
}
// * * * * * * * * * * * * * * * * * * * * * * * * * * * * * * * * * * * * * //

dimensions      [0 2 -1 0 0 0 0];


internalField   nonuniform List<scalar> 
13851
(
0.000377138
0.00101943
0.00108734
0.00355425
0.00672252
0.000826561
0.00168404
0.00676557
0.0141041
0.00607884
0.000265145
0.00672671
0.00278059
0.00628961
0.000591919
0.000601189
0.00185876
0.00307779
0.00166484
0.000432801
0.000517046
0.000605882
0.00209477
0.00672545
0.0126185
0.000743632
0.000385504
0.0140948
0.00925015
0.00675414
0.00986953
0.00198242
0.000455424
0.0179774
0.000338954
0.00771841
0.0067258
0.00858485
0.0169537
0.00234857
0.019678
0.00874385
0.000154809
0.000258777
0.00928671
0.00441594
0.00673478
0.000516043
0.00108146
0.00252698
0.00293999
0.00257189
0.000625367
0.00108149
0.00594684
0.00233385
0.000386709
0.019243
0.000434348
0.00512568
0.00672649
0.000405192
0.00672807
0.000987573
5.03136e-05
4.249e-05
0.00270919
7.70024e-05
0.00217905
0.00551502
0.00894287
0.000447417
0.00321769
0.00384098
0.000921922
0.000848723
0.00297432
0.00674056
0.0123054
0.00674161
0.00196641
0.000842084
0.000339381
0.00673294
0.00572047
0.00972313
0.000628485
0.00374927
0.00539649
0.00974527
0.00190302
0.00170088
0.000209503
0.00861633
0.0159117
8.66084e-05
0.0048589
0.000596726
0.0034595
0.000244802
0.000537845
0.00015296
0.00013051
0.0026966
0.00492054
0.000378153
0.00413451
0.00956073
0.00171789
0.0031685
0.000376754
0.00475895
0.000543991
0.000306094
0.000430463
0.00113749
0.00673472
0.00675479
0.0029179
0.00631196
0.000101094
0.00437079
0.0018837
0.0141646
8.97163e-05
4.97979e-05
0.00449503
0.000233833
0.0183618
0.000474069
0.000612742
0.000529312
0.00731228
0.0182709
0.000296439
0.0155942
8.81787e-05
0.00943829
0.000201441
0.000559246
0.000571257
0.00130339
0.0053495
5.64756e-05
0.0134038
0.00102695
0.00673891
0.00875333
0.0115799
0.000223245
0.000492108
0.000459661
0.000311759
0.000265134
0.00177207
0.00362936
0.00672547
0.0160037
0.000570979
0.00164175
0.00672501
0.008877
0.000427366
0.000530004
0.00627946
0.0137519
0.0126765
0.0041845
0.00040273
0.0179105
0.00672629
0.00673225
0.000366892
0.00672243
0.0169335
0.000587619
0.000486753
0.00673301
0.000963723
0.000509604
0.000375514
0.000167887
0.000430534
0.000552807
0.00016741
0.01165
0.000436305
0.000319322
0.00214384
0.00558984
0.0137049
0.00058962
0.00306872
0.000763708
0.000948659
0.00057742
0.000392917
0.00249666
0.0020837
8.48414e-05
0.000587306
0.0176913
0.0192839
0.000664107
6.85818e-05
0.0165447
0.000913197
0.000697675
0.0145353
0.000779678
0.000614613
0.00252017
0.000734373
0.00672581
0.00035882
0.000760671
0.00275563
0.000501957
0.00223617
3.2017e-05
0.00673213
0.000418754
0.00399129
0.0161833
0.00034307
0.00061509
0.006726
6.47621e-05
0.00673216
0.000331345
0.00539681
0.0003434
0.000821642
0.00672596
0.0188264
0.0067558
0.00146013
0.0190716
0.000218428
0.00672526
0.000373339
0.00612014
0.00817021
0.000690719
0.000596955
4.84354e-05
0.000643033
0.000941683
0.000102607
0.000368478
0.00498417
0.000411298
0.00674296
0.000835279
0.000564659
0.0100047
0.00540354
0.00629386
5.09563e-05
0.00560933
0.000542005
0.000158331
0.000932987
0.000444947
0.000359027
0.00369554
0.000141355
0.000504003
0.0116386
0.006729
0.00282765
0.000350241
0.0136503
0.00142675
0.000504829
0.0040395
0.000230672
0.00017363
0.000425355
0.000458328
0.0140643
0.00332925
0.00074854
0.000705831
0.00736733
0.00437206
0.00672512
0.000386178
0.000272671
0.00676139
0.00672573
0.00673338
0.00672361
0.000644075
0.00672542
0.0136205
0.000518147
0.00312566
0.0082315
0.0131644
0.00225162
0.000402892
0.00294407
0.00116269
0.00199085
0.000489087
0.00530767
0.0153983
0.000385335
0.0067215
0.0181733
0.00672648
0.000338818
0.0045676
0.0108874
0.00161359
0.00667408
0.00427515
0.0111021
0.000457475
0.000131648
0.017011
0.0161666
0.0138995
0.00193158
0.00368573
0.000417749
3.01626e-05
2.9911e-05
0.000722765
0.000376754
0.00034115
0.00435377
0.00011212
0.00672375
0.00672441
0.000595432
0.0101754
2.91225e-05
0.0043202
0.0154416
0.000336326
0.000497462
0.00149972
0.00345418
0.000316122
0.000566458
0.000833058
0.000885022
0.00770295
0.00202191
9.11799e-05
0.000815415
0.000471982
0.000321098
0.00537151
0.00275417
0.000363657
0.000302717
0.000440068
0.00634337
0.0067336
0.000829295
0.0186031
0.000402648
0.00677422
0.0113227
0.000390248
0.00494348
0.00062148
0.000845499
0.000539651
0.0102441
0.000329949
0.00555052
0.00160002
0.000660621
0.000423586
0.000625796
0.00702171
0.000572473
0.0197109
0.000760984
0.00102475
0.00043173
0.000475424
0.0036872
0.000849877
0.000251114
0.000916299
0.00415446
0.000482533
0.0159125
0.0031957
0.000561393
0.00181792
0.000991271
0.000845115
0.000740597
0.015443
0.000686242
0.000744146
9.25169e-05
0.000137435
0.000430471
0.00411224
0.00389305
0.000368092
0.00394897
0.000375592
0.00050832
0.00078611
0.00429341
0.000182371
0.0163973
0.0117034
0.000883877
0.000408196
0.000392743
0.00162887
0.0067433
0.00206351
0.000437891
0.00151749
0.000327253
0.0142593
0.00361886
0.00672297
0.00415725
0.000424549
0.00528552
0.00107042
0.000566756
0.00673283
0.0157961
0.000347431
0.000433081
0.00111357
0.00146822
0.0022026
0.00947042
0.00298831
0.00238901
0.00213666
0.0157692
0.000630564
0.000500248
0.00672724
0.006725
0.000949746
0.000409864
0.000883047
0.00378277
0.00138288
0.000111942
0.00136496
0.0139196
0.00672633
0.00107744
0.00929964
0.000234401
0.00672458
0.00672641
0.00117834
0.00237976
0.00035026
0.00354146
0.000604561
1.70353e-05
0.000978511
0.00672939
0.0173473
0.000456202
0.000212382
0.00286184
0.0155349
0.000224712
0.000155071
0.00257169
0.000497113
0.000346755
0.000794619
0.0171837
0.000343004
0.0111148
0.000768334
0.000501953
0.00369156
0.0103097
0.00084541
0.000415639
0.000562024
0.000859021
0.000222708
0.000355099
0.00672199
0.00154077
0.0170845
0.0126883
0.00108917
0.00356497
0.00627403
9.36816e-05
0.000384252
0.00672612
0.00101937
0.00616686
0.0048597
0.000310071
0.0176662
0.00114664
0.00131084
0.000121196
0.00040158
0.00565648
0.0145133
0.00531541
0.0180463
0.000271551
0.00621332
0.00143838
0.000465773
0.0122833
0.00675938
0.0104588
0.00219132
0.00583423
0.0138398
0.00156897
0.000411824
0.000871572
0.00238601
0.0051875
0.00540087
0.00104814
0.00223261
0.00413942
0.000602733
0.0198253
0.000482176
0.000855124
0.00585092
0.000700862
0.0184672
0.0161793
0.00442549
0.00333323
0.00420251
0.00203209
0.000421422
0.00136563
0.00674385
0.000811167
0.0144126
0.000499865
0.0134707
0.00118137
0.00557576
0.0125466
0.00672644
0.000380773
0.00101599
0.000884094
0.000600777
0.00695607
0.004834
0.000851171
0.00194684
0.0017084
0.000321114
0.00846486
0.00885805
0.00213672
0.00404362
0.000127902
0.0138861
0.000560772
0.000646006
0.00081318
0.00118292
0.000711142
0.00516735
0.0147434
8.82107e-05
0.018057
0.000474953
0.00692761
0.0015854
0.000492384
0.0139236
0.00672832
0.000516102
0.0195673
0.000398014
0.000533042
0.00258577
1.42261e-05
0.000179463
0.00364589
0.00331254
0.00672311
0.000451139
0.00038366
0.00672595
0.0168211
0.00672304
0.000503901
0.000759467
0.00076307
0.00269894
0.00508545
0.000256114
0.00315089
0.000421823
0.0150455
0.000517934
0.00673406
0.00532511
0.000361889
0.00141844
0.000339395
0.00108549
0.00023524
0.00047413
0.00672633
0.00374575
0.00672587
0.000777327
0.00256086
0.0100027
0.000355139
0.00342102
0.000112913
0.000289559
0.0210004
0.00372713
0.0160198
0.000344625
0.000582676
0.00146698
0.0117121
0.00633687
0.000297087
0.00262061
0.00726947
0.00336213
0.00195692
7.19363e-05
0.0159233
0.0067261
0.00672613
0.000687454
0.00265586
0.00125049
0.00176595
0.000426201
0.00142203
0.00471647
0.000565785
0.000421515
0.000268192
0.00673514
0.000455336
0.000149833
0.000760445
0.00127722
0.000990817
0.000184757
0.000452104
0.00052693
0.000463068
0.00046902
0.00010238
0.000127577
0.00175094
0.00983554
0.00946349
0.000538036
0.0101738
0.000244001
0.000674265
0.000411017
0.00336134
0.000716491
0.000175889
0.000582034
0.00673971
0.00673817
0.000694846
0.00448609
0.00106963
0.018349
0.00673487
0.00154738
7.0658e-05
0.00264345
0.000311278
0.00074309
0.00113035
0.00360194
0.000266704
0.000259956
0.000369352
0.00164691
0.00143359
0.00068395
0.00045057
0.000530815
0.000816212
0.00371926
0.00672586
0.000888704
0.00482587
0.00890869
0.00672308
0.000489319
0.0137758
0.000290941
0.0167207
0.00430675
0.000511531
0.000399136
0.000380833
0.00672487
0.00310523
0.00673875
0.00462916
0.0067226
0.00032299
0.000497172
0.000136184
0.012714
0.000989257
0.0142704
0.00672645
0.00442647
0.000358905
0.00672623
0.00672564
0.0102623
0.000792024
0.00449904
0.0187626
0.000510355
0.00037572
0.00653177
0.0176271
0.000715048
0.0011457
0.000509935
0.0067251
0.00127713
0.00400251
0.000755031
0.00527015
0.000571149
0.000519896
0.00043094
0.0150959
0.000323136
0.000502607
0.00765161
0.00673666
0.00808313
0.00672416
0.00139474
0.0124629
0.000483064
0.000458833
0.000256721
0.000421947
0.00672559
0.0067264
0.000334019
0.00158118
0.00672561
0.00107498
0.000417492
0.00672405
0.000247805
0.000534125
0.00216211
0.000258534
0.00900188
0.000195718
0.00672495
0.000302146
0.00673554
0.000834294
0.00895366
0.00614515
0.0181157
0.00680979
0.00191049
0.00216474
0.000118377
0.00106634
0.00447958
0.00182916
0.000529618
0.00760188
0.000692834
0.000500709
0.00425081
0.00675529
0.00276241
0.000367863
0.00125542
0.00672565
0.000444155
0.000626444
0.0187305
0.00183272
0.00672407
0.00391953
0.00142404
0.000564913
0.00673134
0.0181762
0.00676828
0.00314163
0.00673087
0.000200961
0.00055108
0.00010433
0.000540286
0.0031509
0.00102023
0.00672296
0.00047017
0.00131576
0.00723491
0.0018494
0.0108251
0.0159759
0.000550984
0.00672234
0.00241365
0.0041347
0.000771244
0.0005583
0.00314686
0.0034944
0.00319412
0.000496242
0.00672917
0.00672301
0.00321953
0.000612488
0.00672672
0.00102348
0.0186815
7.9639e-05
0.0179884
0.00626006
0.0113448
0.00672996
0.00672358
0.00188746
0.00671813
0.00672629
0.0181752
0.0113524
0.00213225
0.00672302
0.000461286
0.00434563
0.00337267
0.000321947
0.00791851
0.0173176
0.00120702
0.000541981
0.00672871
0.000533104
8.21128e-05
0.00396451
0.0067244
0.000757743
0.00357332
0.000408555
0.000409654
0.000456466
0.0067279
0.000436355
0.000485865
0.00233535
0.000642856
0.000446689
0.000351084
0.00672549
0.00393359
0.00488211
0.00756182
0.0129575
0.000513528
0.000829751
4.77871e-05
0.00233184
0.00494896
0.000622202
0.00672418
0.0203466
0.00105036
0.00672211
0.00228492
0.00119049
0.0173471
0.000129974
0.00674228
0.000416762
0.00558623
0.00110997
0.000406481
0.000929415
0.000457233
0.0194529
0.00672565
0.000533391
0.000476667
0.000523643
3.1709e-05
0.00121846
0.00072414
0.000748946
0.0194075
0.00272128
0.0065381
0.00063727
0.0109743
0.00237477
0.00440536
0.000547658
0.00315489
0.0017574
0.00672617
0.00104366
0.00672675
0.0176594
0.000452396
0.000391484
0.000422564
0.000848548
0.00675338
0.00149123
0.000600043
0.00147953
0.000577772
0.0212855
0.000471944
0.000679439
0.000248299
0.0168935
0.00124033
0.0110062
0.00673491
0.000341386
0.00127
0.00302192
0.000274748
0.00673
0.00674172
0.000128829
0.00330187
0.000438358
0.00143402
0.000437922
0.00959481
0.00057981
0.000487776
0.00249957
0.0157284
0.000424791
0.00672566
0.000542723
0.00137985
0.011913
0.0010469
0.000137927
0.0113456
0.00127741
0.000199141
0.00217438
0.00757728
0.00963217
0.000531471
0.000445319
0.00673497
0.00454375
0.000365444
0.0035352
0.00369778
0.000399956
0.00672618
0.000466222
0.000435537
0.00391929
0.0213334
0.00257976
0.000525768
0.00128548
0.00693578
0.000362142
0.00672626
0.00525597
0.000510718
0.00422819
0.00510581
0.000937009
0.000976375
0.0140889
0.0101955
0.000756567
0.0127442
0.000787928
0.00436241
6.38721e-05
0.00673695
0.00289054
0.00418312
0.00672279
0.000872392
0.00158163
0.0130956
0.0044967
0.000521394
0.00458373
0.0177868
0.000352501
0.00310757
0.00159101
0.000794066
0.00428012
0.00677817
0.000346637
0.0132435
0.000666223
0.00673649
0.000360436
0.000545929
0.000412519
0.000333711
0.00626388
0.00674134
0.00158714
0.0104246
0.00116848
0.0187031
0.00101079
0.00672408
0.00407654
0.00508773
0.000754541
0.00054934
0.00622313
0.010567
0.000332695
0.00672994
0.000933523
0.00234561
0.0154344
0.00836648
0.0002972
0.00448112
0.00930062
0.0083285
0.00072414
0.000679635
0.0130562
0.000662156
0.000274781
0.000101549
0.000336631
0.00156683
7.1491e-05
0.00415026
0.00828108
0.0111487
0.00673514
0.000770716
0.000215307
0.000567154
0.000613826
0.00672346
0.000936348
0.000964838
0.00112827
4.40621e-05
0.00672621
0.00445864
0.00520504
0.00373825
0.000719826
0.000975756
0.00672803
0.00761454
0.00105027
0.0163553
0.00861382
0.00672981
0.000772537
0.000648281
0.00180351
0.000505288
0.000640715
0.00672584
0.000554763
0.00053707
0.0113407
0.000547291
0.00394275
0.00102271
0.00107612
0.000118947
0.000371734
0.000343412
0.00483868
0.000734916
0.0121856
0.0014325
0.00772958
0.00915167
0.0136403
0.0099849
0.00465549
0.00580747
0.00289815
0.000607298
0.000837569
0.000361957
0.00147647
0.00272838
0.0067245
0.00566608
0.000743521
0.0067388
0.00093496
0.000904998
0.00295532
0.00111754
0.00673431
0.00672899
0.00329258
0.00672325
0.000242351
0.000536058
0.00028806
0.015374
0.00673705
0.00433252
0.0182223
0.0163851
0.00392504
0.00118878
0.000130045
0.00105566
0.00673334
0.000164384
0.00111643
0.00673009
0.00151969
0.00435647
0.00153149
0.00036006
0.00483286
0.00238071
0.00324097
0.000480553
0.000505379
0.00672606
0.00250538
0.00298309
0.000582323
0.006726
0.00220051
0.000769666
7.41384e-05
0.00225721
0.000452354
0.00917373
0.000721342
0.0171454
0.00378529
0.0033316
0.002484
0.00673302
0.010738
0.00188461
0.000151707
0.00199808
0.00315141
0.00672611
0.005383
0.0016536
0.000403623
0.000432462
0.00207459
0.00672738
8.80016e-05
0.00677902
0.0143297
0.00672562
0.000564082
0.000882004
0.00739137
0.0121141
0.00672661
0.000505702
0.00672992
0.00114541
0.000185851
0.00096904
0.000589473
0.00672604
0.000564207
7.95382e-05
0.000459766
0.00777104
0.000253871
0.000412962
0.000616825
0.000447864
0.00103356
0.004255
0.00270194
0.00182192
0.000826918
0.00672653
0.000437399
0.00673711
0.000494988
0.00673564
0.000182367
0.00895192
0.00673831
0.00192996
0.000796351
0.00672416
0.000508329
0.00672334
0.000165478
0.00880894
0.000487984
0.00269237
0.00672649
0.00672599
0.00014319
0.00672608
0.00672539
0.00108241
0.000662781
0.000425213
0.000185971
0.00248587
0.000360723
0.00455226
0.0067289
0.00672613
0.00673261
0.00111301
0.00420303
0.00094708
0.000491101
0.00673645
0.00672649
0.0123256
0.0067256
0.000569902
0.00150159
0.0124907
0.00038201
0.00012016
0.0024776
0.000277485
6.38022e-05
0.00194027
0.000645748
0.000615638
0.00449749
0.00467052
0.000935483
0.000655898
0.00342164
0.000260724
0.0067314
0.00117797
0.000353958
0.00292407
8.76509e-05
0.00157703
0.000125445
0.00754722
0.00556835
0.00672637
0.000996314
8.50983e-05
0.00234906
0.000396807
0.00449768
0.0107474
0.00102949
0.000636985
0.00125786
0.000420122
0.00672638
0.000248472
0.0153997
0.00206922
0.00676777
0.013241
0.000370461
0.00050394
0.0158154
0.000668208
0.0015088
0.0067314
0.00195627
0.00597011
0.0128701
0.0147315
0.000292093
0.00388519
0.00950936
0.0067273
0.000480046
0.000459654
0.00176297
0.000492863
0.0067301
0.0211018
0.0180192
0.00652
0.000401403
0.000812085
0.00412636
0.000384375
0.000711763
0.000502067
0.000860079
0.000511711
0.000653623
0.00672727
0.000773527
8.06084e-05
0.00298323
0.00673043
0.000446598
0.000377434
0.000776878
0.00672609
0.0173233
0.000950516
0.000810305
0.00461575
0.000335221
0.000390388
0.000124322
0.00672552
0.00131089
0.000241623
0.000173223
0.000277081
0.00672616
0.0012732
0.000829128
0.000611475
0.00672641
0.000213807
0.00653194
0.000243173
0.0102984
0.0010201
0.00310528
0.000714148
0.00427503
0.00709994
0.00672487
0.000716748
0.000773102
0.000554916
0.000336834
0.000710864
0.000252374
0.000266865
0.000559777
0.000828977
0.00673725
8.11431e-05
0.00104798
0.000379693
0.011128
0.000645758
0.000394664
0.00674038
0.00602359
0.000212812
0.00257874
0.00106818
0.000956769
0.00521975
0.000379943
0.000859128
0.00850865
0.00595568
0.00070018
0.000348037
0.000502392
0.00673954
3.51729e-05
0.00677813
0.000454701
0.00753439
0.00647194
0.00149928
0.00117712
0.00672655
0.00372693
0.0067393
0.000544163
0.000591592
0.000550722
0.0201582
0.00147423
0.00672192
0.000739058
0.000142961
0.00673454
0.00810185
0.00673076
0.000849259
0.0010345
0.0020108
0.000534779
0.000938252
0.00390288
0.000373566
0.000676133
0.000538197
0.000283951
0.00673526
0.00441442
0.00548313
0.00672292
0.000419673
0.000633809
0.000348245
0.0134463
0.00672316
0.00126558
0.000416245
0.0113366
0.00673241
0.00672428
0.00044151
0.000469802
0.00672275
0.000333869
0.000335132
0.0103935
0.00037213
0.000453189
0.000551505
0.00672967
5.01236e-05
0.00673077
0.00416427
0.00053161
0.00642716
0.00125134
0.000292668
0.00672385
0.00239012
0.000412294
0.00460373
0.00240146
0.00478797
0.0067253
0.00673237
0.000353314
0.0067297
0.00409351
0.0193994
0.00672629
0.000515204
0.000498365
0.0125935
0.00871622
0.00455326
0.000748464
0.000396032
0.00672505
0.00330556
0.00672851
0.000616484
0.00672618
0.000585301
0.000437076
0.00676907
0.00653279
0.000575565
0.000385767
0.000446604
0.000139742
0.000282596
0.000932516
0.0133974
0.000195096
0.00118757
0.000647789
0.000182518
0.000308138
0.00114741
0.000984235
0.00768152
0.011524
0.00448464
0.00110179
0.00306114
0.000418093
0.000227667
0.00490892
0.00239789
8.84891e-05
0.00672564
0.00175041
0.0067302
0.0067374
0.00159329
0.00267614
0.00275054
0.00672198
0.0102551
0.00672517
0.000132072
0.00155359
0.000432851
0.000150115
0.00297666
0.0124863
0.00072881
0.00672612
0.000619782
0.00489787
0.00033619
0.00308877
0.0054243
0.000817637
0.000450759
5.73455e-05
0.0102399
0.000453451
0.000555132
0.0102438
0.000246333
0.00258216
0.00149505
9.9638e-05
0.000340268
0.00295929
0.00662002
0.00637402
0.00218137
6.9197e-05
0.0121115
0.000391568
0.000456371
0.000664903
0.000591887
0.000684587
0.0185499
0.000509343
0.00672291
0.000244035
0.000414635
0.00105838
0.00673627
0.00672363
0.0167753
0.00672628
0.000491096
0.0162245
0.000552184
0.00382957
0.000243723
0.000725109
0.00997659
0.00672564
0.00431995
0.00673251
0.0005196
0.00173886
0.00246051
0.000492861
0.0171403
0.00445335
0.00672705
0.01404
0.00282267
0.00211121
0.00200485
0.0172605
0.00455775
0.000730383
0.00673076
0.00836911
0.0157954
0.000369259
0.000102872
0.000437078
0.00356002
0.00672647
0.00533306
0.00672279
0.000548916
0.00676345
0.000962422
0.00672618
0.015349
0.00673376
0.000685475
0.00676491
0.000211319
0.000361173
0.00534059
0.000230307
0.0193318
0.000461314
0.00212241
0.000499258
0.000345327
0.000911704
0.000566967
0.000335996
0.0132733
0.0030919
0.000972962
0.000384403
0.00287977
0.00711581
0.00691268
0.000416875
0.000450661
0.000757636
0.000399802
0.0124768
0.00505425
0.00570382
0.000285417
0.0173962
0.000614351
0.000418701
0.00840795
0.0067349
0.0174053
0.0102834
0.0122669
0.00672452
0.00515781
0.00937124
0.000344665
8.24074e-05
0.0136904
0.000503371
0.000542188
0.000484208
0.000557384
0.00334033
0.00585033
0.000396458
0.00673569
0.00774085
0.00672606
0.000472312
0.000531474
0.000476832
0.0118285
0.000262956
0.00165891
0.000750037
0.000491262
0.00842251
0.0198533
0.000413197
0.00164513
0.000558822
0.00033001
0.000148697
0.00672973
0.000375643
0.000116739
0.00038615
0.0035266
0.000649232
0.000777593
0.000251663
0.00374958
0.00051999
0.00101802
0.000165871
0.00654512
0.00214687
0.00121659
0.012539
0.000500032
0.000873115
0.000947442
0.00672772
0.000177956
0.00122851
0.00784566
0.000317608
0.0014359
0.00672469
8.20404e-05
0.000451665
0.00382635
0.00407931
0.00534935
0.00673205
0.000528654
0.00672529
0.00101645
0.00114743
0.00132837
0.000526667
0.0045678
0.000750942
0.00222914
0.000670676
0.0126216
0.00672589
0.0155375
0.0012547
0.00673178
3.68619e-05
0.000197349
0.000206641
0.00118392
0.000402996
0.000781675
7.65378e-05
0.000695639
0.00125699
0.00672445
0.0029338
0.00139812
0.00235914
0.00132896
0.00469093
0.00673102
0.000177902
0.00462697
0.000444369
0.000563241
0.000162736
0.00673935
0.00140721
0.00864664
0.0130918
0.00673395
0.000328015
2.81407e-05
0.00917191
0.0112774
0.00143
0.00171848
0.000261335
0.00732078
0.0010946
0.00053534
0.000463489
0.00672467
0.00418939
0.000269254
0.00672604
0.00252109
0.000420088
0.00672609
6.63243e-05
0.00444348
0.0200805
0.013152
0.011391
0.00377298
0.0116578
0.00245012
0.0067269
0.0194108
0.00603218
0.0050371
0.00673345
0.000167875
0.0175863
0.00344597
0.000431401
0.00292272
0.00110131
0.000272619
0.00564374
0.00672282
0.000526559
0.0203448
0.00672617
0.00672529
0.0101118
0.00055044
0.00184931
0.00673476
0.0157411
0.0111054
0.00285765
0.000593272
0.00672598
0.0139408
0.00012638
0.00205183
0.00444516
0.0018573
0.0153199
0.00494449
0.00290418
0.0067262
0.00672613
0.0158125
0.00416836
0.000205479
0.000492884
0.0023207
0.00144009
0.000270157
0.00489085
0.000378485
0.0178817
0.0125419
0.00672271
0.000998653
0.000931903
0.000755654
0.00977519
0.00673303
0.00541099
0.000351873
0.0006304
0.00111916
0.00672361
0.000530217
0.000403769
0.00368551
0.0067259
0.000298714
0.00172332
0.000404879
0.00113683
0.0169425
0.00766312
0.00027885
0.000671162
0.00366837
0.000782549
0.000394519
5.02671e-05
0.0135278
0.0201858
0.00672366
0.000863674
7.47624e-05
0.0188959
0.00143948
0.000383937
0.000444937
0.00235864
0.0158802
0.00672912
0.000595578
0.00789559
0.0199632
0.00256445
0.0191503
0.000478841
0.000431504
0.00650276
0.0187481
0.000505043
0.0158514
0.00623596
0.01089
0.00673866
0.00673306
0.000617088
0.000326981
0.000307192
0.00294521
0.0109001
0.000758541
0.00432097
0.000373333
0.0086612
0.000168732
0.00395973
0.01368
0.000801457
0.00078127
0.000940423
0.00672507
0.000319326
0.00673437
0.00798936
0.000135603
0.00123569
0.0060816
0.000501985
0.000474421
0.00677695
0.0134007
0.0131688
0.000308395
0.00679556
0.00937437
0.00672663
0.000249485
0.000959488
0.000146119
0.013673
0.0105446
0.000214012
0.0185668
0.000270888
0.000469032
0.00674872
0.0142646
0.000136009
0.000308372
0.000102107
0.00672516
0.000741527
0.000264932
0.000687235
0.000512274
0.0206749
0.0109033
0.00638281
0.00605937
0.000412352
0.000282002
0.00672838
0.00243657
0.00673471
0.00042485
0.000439403
0.000283422
0.015711
0.00531966
0.0067288
0.00077146
0.00042087
0.000798892
0.00675295
0.0180038
0.000973222
0.000737342
0.00191578
0.00331074
0.000399818
0.017877
0.000136619
0.000567682
0.00027507
0.00672882
0.00108518
0.00370744
0.000299005
0.00256385
0.00672296
0.00419536
0.0100308
0.00866557
0.00404169
0.00030248
0.00561588
0.00257348
0.00672691
0.00232926
0.0178272
6.40769e-05
0.000377117
0.00130715
0.00107875
0.00864934
0.000208829
0.000227015
0.00128649
0.000571094
0.00673854
0.000155329
0.000278658
0.00455126
0.00456843
0.013193
0.0181102
0.00420603
0.00866365
0.0149938
0.0195002
0.000993265
0.0042901
0.0169974
0.00748908
0.01357
0.00240004
0.000517153
0.00437556
0.00437366
0.000605101
0.0202444
0.000428813
0.00673375
0.000357235
0.000386618
0.000425856
0.00988127
0.0103122
0.000371858
0.00672284
0.0170666
0.000677246
0.00044592
0.000922635
0.000476296
0.00228541
0.00674041
0.000440014
0.000412273
0.000789861
0.000668558
0.000793173
0.000672517
0.000657302
0.00986812
0.000311503
0.000698145
0.012675
0.000615528
0.00672644
2.80524e-05
8.67152e-05
0.00641909
0.000409036
0.00223917
0.000681922
0.000606123
0.000373268
0.00672593
0.000239596
0.000777482
0.000562451
0.000321429
0.00672491
0.00125416
0.0108683
0.00668507
0.0191225
0.00439365
0.000555614
0.00673276
0.00497751
0.000611005
0.0067716
0.0199364
0.00496872
0.00672627
0.0067439
0.00468128
0.00178334
0.00155685
0.000483725
0.000547682
0.0002625
0.000593725
0.000218283
0.000556762
0.000423627
0.00366469
0.000870051
0.00892357
0.000392324
0.0186098
0.00058395
0.0067225
0.00674576
0.000351143
0.000405279
0.00672907
0.000230943
0.000594002
0.000307149
0.00305831
0.00418357
0.00882915
0.00672629
0.0113645
0.000382399
0.000387676
0.00628311
0.000280819
0.000879806
0.00743225
0.000120569
0.000334595
0.00672999
0.00625159
0.000401441
0.00902101
0.00742387
0.000633193
0.000765291
0.000373989
0.00863061
0.0110466
0.0147975
0.000324804
0.00292419
0.000380788
0.00394678
0.012668
0.000660732
0.000497098
0.000254083
0.0176277
0.00332194
0.00348411
0.0092569
0.000389623
0.0143993
0.000243077
0.00673446
0.000409821
0.000620602
0.000155393
0.000749856
0.000383683
0.0101582
0.000801478
0.00672615
0.00365177
0.000471184
0.00130251
0.000146467
0.00385531
0.00258837
0.000513232
0.00114178
0.00232735
0.00672935
0.000412125
0.00899628
0.000695181
0.000445314
0.000498071
0.000329436
0.00263309
0.000214351
0.000603999
0.000467166
8.01968e-05
0.0012911
0.000143244
0.000145917
0.00420901
0.000446264
0.00858924
0.00849883
0.00244928
0.000951713
0.00916389
0.00387367
0.001257
8.92283e-05
0.0107076
0.000436365
0.00940209
0.000997924
0.00310029
0.000494812
0.00673219
0.00084699
0.0003452
0.00812362
5.31062e-05
0.000675143
0.002946
0.00377632
0.0154958
0.00176435
0.0131367
0.00598948
0.000747922
0.0143103
0.00672818
0.00672223
0.00867125
0.00255358
0.00672928
0.000350615
0.0108946
0.0004908
0.00105771
0.0123158
0.00672283
0.00597739
0.0111386
0.00672436
0.000777812
0.00815963
0.00995313
0.00992757
0.0115764
0.00863447
0.00674112
0.000961569
0.000357396
0.000423931
0.00672997
0.000632935
0.00673658
0.0118295
0.000360959
0.00014484
0.000504758
0.011896
0.000314204
0.000523134
8.70162e-05
0.00203886
0.000583349
0.00112502
0.00673296
0.000511561
0.000299074
0.00618415
0.0176114
0.00429836
0.000410364
0.00245943
0.0196982
0.00121123
0.00500776
0.000591785
0.000421044
0.000235714
0.0077684
0.0173909
0.000595303
0.0010372
0.000917734
0.000942389
0.000807256
0.000382298
0.000700287
0.00672534
9.70622e-05
0.000379873
0.000386413
0.00851775
0.000489175
0.000272017
0.000293308
0.000360528
0.000703556
0.00498023
0.00064022
0.00674823
0.000382077
0.000579071
0.0103019
0.00673183
0.00042847
0.00467101
0.00147606
0.000299603
0.00101406
0.000429355
0.0173191
0.000390069
0.000867339
0.00299325
0.00672982
0.00574641
0.00672627
0.00143943
0.000403672
0.00760345
0.000416704
3.18929e-05
0.000130829
0.000871825
0.00208371
5.53151e-05
0.000392567
0.0159813
0.000508128
0.000644908
0.000407127
0.000908348
0.000635291
0.000150604
0.000408358
8.06968e-05
0.000413979
0.000271298
0.000903544
0.00297013
0.00171142
0.00348092
0.00061575
0.00672765
0.000446881
0.000623886
0.000426449
0.0122131
0.0010736
0.000579112
0.00671795
0.00228719
0.00672587
0.00672539
0.00124089
0.00673645
0.000459419
0.00327528
0.000456452
0.000484469
0.00122281
0.00246424
0.000548099
0.00284484
0.008217
0.0126373
0.00489954
0.00051317
0.000399083
0.001073
0.00672653
0.00034703
7.12454e-05
0.000356903
0.0127432
0.000487677
0.01348
0.000516535
0.00672474
0.00672903
0.00855478
0.00372202
0.000726196
8.34167e-05
0.000819271
0.00161648
0.0164317
0.00672524
0.000675553
0.00408724
0.00129944
5.20014e-05
0.000495966
0.00194284
0.000895944
0.000220756
0.000479181
0.000554299
0.000149691
0.000108973
0.000477193
0.000598566
0.001409
0.00122429
0.000610068
0.00718517
0.0186813
0.00760583
0.000797157
0.0121882
0.000555088
0.00153838
0.00673284
0.000731158
0.00672674
0.000983475
0.0032813
0.0049615
0.00477409
0.00113173
0.000642422
0.000713484
0.00160743
0.00258379
0.00578388
0.000370751
0.0190302
0.000318245
0.0025978
0.00648073
9.11913e-05
0.00352593
0.000149842
0.00672618
0.00019671
0.000577293
0.000100416
0.0182641
0.000263373
0.0145779
0.0059807
0.0116328
0.00267846
0.000790408
0.00137165
0.000355409
0.00672382
0.000134335
0.00642167
0.0001388
0.000416281
0.000392207
7.89308e-05
0.00344583
0.00680074
0.00154889
0.00232256
0.00108474
0.020191
0.00855142
0.000222708
0.00672617
0.000263324
0.000466902
0.000427842
0.00177672
0.00860598
0.00361526
0.00672954
0.00407773
0.0098508
0.00242851
0.00354807
0.0070353
0.00512127
0.000445279
7.35119e-05
0.00460357
0.01559
0.0013251
0.0196904
0.0030063
0.00891354
0.0012949
8.28733e-05
0.00362048
0.000396663
0.00528355
0.00120878
0.00938399
0.0010078
0.000283791
0.000647267
0.000639755
0.000182055
0.000425752
0.00280594
0.000144657
0.000559824
0.00116839
0.000689179
0.00448236
0.00528632
0.00672411
0.00116713
0.00235025
0.000589708
0.0147397
0.00113253
6.02396e-05
0.00104634
0.00073882
0.00112039
0.0179292
0.0113522
0.00149713
0.00146192
0.0111551
0.0102106
0.00572193
0.000536003
0.00935204
0.00760097
0.00247367
0.00646301
0.0187751
0.000165794
8.35634e-05
0.000370361
0.00128318
0.00654281
0.000337599
0.00672637
0.00348081
6.86338e-05
0.00011362
0.0067207
0.000435907
0.000156455
0.000916699
0.00672637
0.00672223
6.51177e-05
0.00153031
0.00235873
0.000882929
0.0142424
0.00104786
0.000229579
0.00673064
5.37255e-05
7.59799e-05
0.00218252
0.000538471
0.00673548
0.0196443
0.0137806
0.000438607
0.00382917
0.000340785
0.00035695
0.00672637
0.000745932
0.00675977
0.00180876
0.0067261
0.0127728
0.00641493
0.000910292
0.000241704
0.000499494
0.000708968
0.00594417
0.0169463
0.000616269
0.0032594
0.00850827
0.000458357
0.000846553
0.00864571
0.00115657
0.000547639
0.00162362
6.19414e-05
0.00022148
0.00985056
0.0203336
0.00673528
0.00373981
0.000182515
0.0149851
0.00672162
0.000449615
0.0179213
0.00672619
0.00395498
0.000574627
0.00398928
0.00672313
0.00282784
0.000285699
5.21236e-05
0.00119192
0.000313138
0.00478195
0.00223205
0.009064
0.0164856
0.00728571
0.00074504
0.00304412
0.00153062
0.00672605
0.000289183
6.02197e-05
0.0130868
0.00874229
0.0111114
0.000491981
0.00672376
0.00672306
0.00537021
0.00249837
0.000524846
0.000489405
0.000725831
7.49193e-05
0.00574737
0.00219926
0.00673458
0.00608202