/*--------------------------------*- C++ -*----------------------------------*\
| =========                 |                                                 |
| \\      /  F ield         | OpenFOAM: The Open Source CFD Toolbox           |
|  \\    /   O peration     | Version:  v2012                                 |
|   \\  /    A nd           | Website:  www.openfoam.com                      |
|    \\/     M anipulation  |                                                 |
\*---------------------------------------------------------------------------*/
FoamFile
{
    version     2.0;
    format      ascii;
    class       volVectorField;
    location    "500";
    object      cellDisplacement;
}
// * * * * * * * * * * * * * * * * * * * * * * * * * * * * * * * * * * * * * //

dimensions      [0 1 0 0 0 0 0];


internalField   nonuniform List<vector> 
13851
(
(-0.00824869 0.125092 0)
(-0.00391718 0.166487 0)
(-0.018968 0.177931 0)
(-0.00797979 0.122525 0)
(-0.0235902 0.173548 0)
(-0.00477842 0.128892 0)
(-0.0153956 0.0510126 0)
(-0.0198899 0.166589 0)
(-0.00190547 0.0443357 0)
(-0.0144189 0.177738 0)
(-0.000463755 0.022862 0)
(-0.00625757 0.1841 0)
(-0.0260484 0.19071 0)
(0.00141442 0.197375 0)
(-0.00359477 0.0143688 0)
(-0.0163101 0.158916 0)
(-0.0188769 0.134038 0)
(-0.0105326 0.145868 0)
(-0.024249 0.189356 0)
(-0.00191457 0.0438379 0)
(-0.00804142 0.121343 0)
(-0.0194687 0.177543 0)
(-4.81468e-05 0.00181106 0)
(-0.00026217 0.00576309 0)
(-3.54107e-05 0.00132855 0)
(-0.0195589 0.167436 0)
(-0.0209495 0.109509 0)
(0.0143277 0.201369 0)
(-0.00843386 0.124733 0)
(-0.013187 0.139009 0)
(-0.00457293 0.128458 0)
(-0.0189914 0.135786 0)
(-0.0187281 0.177245 0)
(-0.00153304 0.0735134 0)
(-0.000324316 0.00704658 0)
(-0.0279984 0.138659 0)
(-0.0283812 0.142241 0)
(-0.0199073 0.18744 0)
(-0.014174 0.178607 0)
(-0.00153298 0.0725775 0)
(-0.00829257 0.0941222 0)
(-0.000114723 0.0047446 0)
(-0.0233641 0.200407 0)
(-0.00047868 0.0240998 0)
(-0.000464982 0.0236129 0)
(-0.0174367 0.199364 0)
(-0.000476101 0.0247015 0)
(-0.00262328 0.111858 0)
(-0.0211326 0.110394 0)
(-0.00166752 0.0640542 0)
(-0.0259055 0.157449 0)
(-0.0265018 0.174661 0)
(-0.000669173 0.20101 0)
(-0.00246965 0.0108613 0)
(-0.0013389 0.01317 0)
(-0.000113274 0.00470084 0)
(-0.00020329 0.00595637 0)
(0.00479265 0.201016 0)
(-0.0131147 0.13754 0)
(-0.0158696 0.06614 0)
(-0.0193772 0.18762 0)
(-0.0160536 0.196061 0)
(-0.0075014 0.150049 0)
(-0.0241988 0.175639 0)
(-0.007612 0.166495 0)
(-0.00759334 0.127789 0)
(-0.0284259 0.142418 0)
(-0.000487558 0.0255908 0)
(-0.0233695 0.136361 0)
(-0.0103359 0.145181 0)
(-0.0286984 0.142083 0)
(-0.0283815 0.136684 0)
(-0.00352925 0.166719 0)
(-0.00254902 0.0107657 0)
(-0.00207594 0.0219251 0)
(-0.0023013 0.0560181 0)
(-0.0197036 0.176592 0)
(-0.0298571 0.188581 0)
(-0.0229498 0.159669 0)
(-0.0284679 0.13291 0)
(-0.0170786 0.0852026 0)
(-3.99804e-05 0.00206017 0)
(-0.010601 0.0640608 0)
(-0.0197122 0.199688 0)
(-0.00757219 0.151137 0)
(-0.00662194 0.183618 0)
(-0.00498623 0.125894 0)
(-0.00632742 0.174264 0)
(-0.0204623 0.128164 0)
(-0.000827484 0.0308738 0)
(-0.0279738 0.140284 0)
(-0.00401855 0.107741 0)
(-0.000500091 0.026253 0)
(-0.0212745 0.134837 0)
(-0.0205498 0.125621 0)
(-0.000153895 0.00431468 0)
(-0.0238804 0.17383 0)
(-0.0256891 0.196637 0)
(-0.00163466 0.0639309 0)
(-0.000118402 0.00334447 0)
(0.00276644 0.199397 0)
(-0.0242567 0.154818 0)
(-0.0102645 0.12123 0)
(-0.0217451 0.0803594 0)
(-8.49544e-06 0.000347431 0)
(-0.00468723 0.123004 0)
(-0.0248633 0.155007 0)
(-6.00627e-05 0.0024857 0)
(-0.0283705 0.133554 0)
(-0.00484554 0.13012 0)
(-0.000158443 0.00393639 0)
(-0.000843411 0.0316301 0)
(-0.00410363 0.107275 0)
(-6.97072e-05 0.00154854 0)
(-0.000202192 0.00497229 0)
(-0.00243461 0.136299 0)
(-0.02567 0.196109 0)
(-7.61856e-05 0.00310568 0)
(-0.000497575 0.00755033 0)
(-0.0010029 0.0105466 0)
(-0.0221991 0.200454 0)
(-0.0216184 0.0824608 0)
(-0.0257616 0.191528 0)
(-0.00193054 0.106415 0)
(-0.00274755 0.111424 0)
(-0.000440909 0.0191185 0)
(-0.00272911 0.11019 0)
(-0.0236076 0.157787 0)
(-0.00785495 0.119822 0)
(-0.0230744 0.183505 0)
(-0.00817338 0.0920363 0)
(-0.00208535 0.0365581 0)
(-0.0287199 0.142945 0)
(-0.0104401 0.06145 0)
(-0.00235357 0.135368 0)
(-0.000978776 0.0163789 0)
(-7.01701e-05 0.00285573 0)
(-0.0284502 0.140584 0)
(-0.00610336 0.195567 0)
(-0.000328397 0.192429 0)
(0.0018434 0.199559 0)
(-0.00118972 0.0119557 0)
(-0.00268977 0.0747461 0)
(-0.000248582 0.0104331 0)
(-0.0169278 0.12799 0)
(-0.000492345 0.0248162 0)
(-2.86098e-05 0.00133308 0)
(-0.0226915 0.183996 0)
(-0.0150907 0.0506347 0)
(-0.000451621 0.0229021 0)
(-0.0268612 0.125448 0)
(-0.00115488 0.0126186 0)
(0.00205605 0.197626 0)
(-0.000194505 0.00575592 0)
(-0.018917 0.110478 0)
(-0.0166929 0.12794 0)
(-0.00444179 0.0719559 0)
(-0.0138993 0.132274 0)
(-0.0263695 0.176018 0)
(-0.0257044 0.158406 0)
(-2.27645e-05 0.000975849 0)
(-0.0224584 0.121817 0)
(0.00412955 0.201049 0)
(-0.00198703 0.035386 0)
(-0.0135907 0.150352 0)
(-0.000198869 0.00825353 0)
(-3.60353e-05 0.00168693 0)
(-0.0235826 0.135531 0)
(-0.00789697 0.118584 0)
(-0.0228739 0.19833 0)
(-0.029834 0.187421 0)
(-0.000801761 0.0211479 0)
(-0.00458754 0.0731605 0)
(-0.00054828 0.192931 0)
(-0.00184542 0.0328202 0)
(-0.00263646 0.11306 0)
(-0.0233981 0.157616 0)
(-0.00299275 0.0789937 0)
(-0.0246584 0.189657 0)
(-6.0711e-05 0.00252996 0)
(-0.0188983 0.139724 0)
(-0.028436 0.138751 0)
(-0.0100336 0.0559579 0)
(-0.0196234 0.178346 0)
(-7.36625e-06 0.000303252 0)
(-8.5512e-05 0.00290903 0)
(-0.00774334 0.12887 0)
(-0.00139295 0.0145629 0)
(-0.0230378 0.177608 0)
(-0.0116298 0.173301 0)
(-0.000488778 0.0253878 0)
(-7.79872e-05 0.201018 0)
(-0.00084992 0.0324388 0)
(-0.0227602 0.142993 0)
(-0.0160793 0.195628 0)
(-0.0185347 0.11084 0)
(-0.00269241 0.0736485 0)
(-0.00144544 0.0685871 0)
(-0.00294438 0.0777298 0)
(-0.00236914 0.0572701 0)
(-0.000455226 0.0197011 0)
(-0.0171966 0.198564 0)
(-0.000305487 0.00420689 0)
(-0.00898582 0.0721735 0)
(-0.0133285 0.172952 0)
(-0.0104659 0.058199 0)
(-0.00891006 0.192251 0)
(-0.0194674 0.131939 0)
(-0.0293071 0.166791 0)
(-3.78055e-05 0.001596 0)
(-0.029135 0.166254 0)
(-0.01023 0.119416 0)
(-0.00133476 0.0683635 0)
(-3.88505e-05 0.00161656 0)
(-0.000215504 0.0090432 0)
(-0.00043486 0.0210338 0)
(-0.00800416 0.152341 0)
(-0.0160753 0.199544 0)
(-0.00609981 0.0280044 0)
(-0.0293399 0.168324 0)
(-0.0194434 0.134022 0)
(-0.0173329 0.0863281 0)
(-0.0285312 0.191369 0)
(-0.0251213 0.179813 0)
(-0.0289163 0.152986 0)
(-5.07421e-05 0.0017902 0)
(-0.0215729 0.140496 0)
(-7.10218e-06 0.000290125 0)
(-0.004874 0.200854 0)
(-3.58716e-05 0.00149608 0)
(-0.0192667 0.16681 0)
(-0.00674528 0.161147 0)
(-0.000744649 0.0196649 0)
(-0.000834953 0.0317155 0)
(-0.0258712 0.150259 0)
(-0.00991368 0.156496 0)
(-0.00969577 0.192201 0)
(-0.00734703 0.167186 0)
(-0.000237169 0.00997404 0)
(-0.00922433 0.0729552 0)
(-0.00451562 0.127204 0)
(-0.00142688 0.0610598 0)
(-3.19115e-05 0.00140691 0)
(-0.0130503 0.17381 0)
(-1.25352e-05 0.000512649 0)
(-0.0290624 0.158278 0)
(-0.0241689 0.156976 0)
(-0.00139877 0.0712021 0)
(-0.0163046 0.130089 0)
(-0.0170714 0.143528 0)
(-0.00341578 0.0941283 0)
(-0.00139667 0.0607256 0)
(-0.0155624 0.10594 0)
(-0.0165481 0.13017 0)
(-0.0254275 0.14213 0)
(-0.00522597 0.146237 0)
(-0.0116082 0.172382 0)
(-0.0285013 0.142527 0)
(-0.0297907 0.199398 0)
(-0.00983878 0.0357607 0)
(-0.000226596 0.00949206 0)
(-0.0102357 0.142787 0)
(-0.00348871 0.130933 0)
(-0.000409805 0.0170063 0)
(-0.0230806 0.191369 0)
(-0.0183775 0.112211 0)
(-0.0155501 0.10389 0)
(-0.0212389 0.132864 0)
(-0.0284035 0.190699 0)
(-0.000796024 0.0342905 0)
(-0.00334318 0.0932198 0)
(-0.0187679 0.112086 0)
(-0.00414979 0.131171 0)
(-0.0228839 0.15791 0)
(-0.016089 0.158141 0)
(-0.0022222 0.0390346 0)
(-3.02808e-05 0.00156775 0)
(-0.000392331 0.0182293 0)
(-0.0285138 0.136232 0)
(-0.000450984 0.0221907 0)
(-2.32178e-05 0.0010263 0)
(-2.40884e-05 0.00101378 0)
(-6.92503e-06 0.000283714 0)
(-0.0253222 0.140594 0)
(-0.00335812 0.130123 0)
(-0.00254191 0.114675 0)
(-0.00224973 0.0521287 0)
(-0.00613884 0.0178044 0)
(-0.00402958 0.130318 0)
(-1.50446e-05 0.000767069 0)
(-0.0225994 0.185158 0)
(-0.013335 0.13617 0)
(-0.0160043 0.0687982 0)
(-0.0233388 0.143396 0)
(-2.80524e-05 0.00142899 0)
(-0.0236265 0.190993 0)
(-0.0142688 0.14924 0)
(-0.00642564 0.182933 0)
(-0.00245437 0.0426977 0)
(-0.0290848 0.159621 0)
(-0.0223799 0.119939 0)
(-0.0185804 0.134651 0)
(-0.0286167 0.140624 0)
(-0.0112707 0.108942 0)
(-0.0047356 0.124278 0)
(-0.0293818 0.184006 0)
(-0.00219738 0.050515 0)
(-0.0247191 0.139601 0)
(-0.021118 0.136862 0)
(-0.013244 0.134636 0)
(-0.00728835 0.195544 0)
(-0.0141309 0.150268 0)
(-0.0149726 0.106717 0)
(-0.0278157 0.194184 0)
(-0.00014091 0.00582714 0)
(-0.0172064 0.144661 0)
(-0.000479693 0.0208604 0)
(-0.0285049 0.136296 0)
(-0.0276195 0.138107 0)
(-0.0066898 0.0306348 0)
(-0.0248278 0.151137 0)
(-0.00673017 0.0261532 0)
(-0.0296962 0.199205 0)
(-0.00337388 0.0962171 0)
(-6.10862e-05 0.00223888 0)
(-0.00479117 0.0840909 0)
(-0.0275715 0.140211 0)
(-0.0214914 0.13844 0)
(-0.0191152 0.106749 0)
(-0.00572905 0.0157995 0)
(-0.0112647 0.107303 0)
(-0.0147559 0.106415 0)
(-0.000464021 0.0231 0)
(0.00597015 0.198258 0)
(-0.021194 0.197744 0)
(-0.00899794 0.144867 0)
(-0.0285949 0.140213 0)
(-0.0165477 0.192364 0)
(-0.00338199 0.0141213 0)
(-0.0226678 0.145332 0)
(-0.0221837 0.185669 0)
(-0.00410792 0.110149 0)
(-0.00888374 0.1583 0)
(-0.0266192 0.169547 0)
(-0.0237747 0.189985 0)
(-0.00411662 0.100044 0)
(-0.00282571 0.129962 0)
(-0.0293615 0.174561 0)
(-0.00307922 0.0118473 0)
(-0.000569205 0.0258537 0)
(-0.000556588 0.0254215 0)
(-0.0147078 0.18718 0)
(-0.0191923 0.104689 0)
(-0.00864279 0.158892 0)
(-0.00381269 0.20086 0)
(-0.00470532 0.0753035 0)
(-0.00269233 0.12915 0)
(-0.00468527 0.0832821 0)
(-0.00626507 0.0238412 0)
(-1.33834e-05 0.000548005 0)
(-5.7984e-05 0.00240543 0)
(-0.00422308 0.066391 0)
(-0.0293126 0.174078 0)
(-0.000933558 0.045519 0)
(-0.0109144 0.0860762 0)
(-0.0245919 0.137856 0)
(-0.0001564 0.00652265 0)
(-0.00594909 0.182719 0)
(-0.0146316 0.163191 0)
(-0.00218114 0.114621 0)
(-0.022558 0.198036 0)
(-0.0109496 0.0880074 0)
(-0.00784066 0.153135 0)
(-0.0206833 0.139823 0)
(-0.00228422 0.114173 0)
(-0.00755523 0.0871827 0)
(-8.31984e-05 0.00338997 0)
(-0.00375737 0.100349 0)
(0.00531911 0.199475 0)
(-0.00169081 0.0179682 0)
(-0.00776691 0.195093 0)
(-0.0040197 0.1092 0)
(-0.026764 0.170443 0)
(-0.022112 0.198658 0)
(-0.000538172 0.0253774 0)
(-0.00055145 0.0258798 0)
(-0.00312716 0.0876791 0)
(-0.00248266 0.0395921 0)
(-0.0017858 0.00661994 0)
(-0.00915049 0.143635 0)
(-0.0249372 0.149164 0)
(0.00200799 0.196997 0)
(-0.0238497 0.131799 0)
(-0.0289004 0.153019 0)
(-0.0293984 0.180894 0)
(-0.000164905 0.00686326 0)
(-0.0102819 0.0368953 0)
(-0.0214833 0.198067 0)
(-0.0286378 0.139687 0)
(-0.00674718 0.160262 0)
(-0.0262247 0.195664 0)
(-0.00367511 0.10051 0)
(-0.0207921 0.141376 0)
(-8.95294e-05 0.00276149 0)
(-0.0170212 0.191869 0)
(-0.00129309 0.0324661 0)
(-0.016616 0.158326 0)
(-0.00315829 0.0870161 0)
(-0.0144451 0.0584486 0)
(-5.98294e-06 0.000244907 0)
(-0.00211119 0.0490723 0)
(-0.0001892 0.00786758 0)
(-0.024422 0.174363 0)
(-0.00970613 0.159644 0)
(-0.0289726 0.199056 0)
(-0.00985564 0.144594 0)
(-0.0249502 0.152842 0)
(-0.00608098 0.129917 0)
(-0.00137186 0.0596193 0)
(-0.0166293 0.147358 0)
(-0.0141107 0.187155 0)
(-0.0184566 0.133094 0)
(-0.000420951 0.020351 0)
(-6.29653e-05 0.00256654 0)
(-0.0020554 0.0474837 0)
(-6.5991e-05 0.00223269 0)
(-0.0184305 0.1887 0)
(-0.00120108 0.061757 0)
(-0.0245231 0.180622 0)
(-0.00625199 0.130269 0)
(-0.0291843 0.199345 0)
(-0.00156652 0.0743973 0)
(-0.00492301 0.124638 0)
(-0.000877421 0.00943966 0)
(-0.026016 0.148669 0)
(-0.00740533 0.084896 0)
(-0.00134289 0.0592887 0)
(-1.62442e-05 0.000659669 0)
(-0.0119804 0.186453 0)
(-0.00122655 0.0585068 0)
(-0.018158 0.175927 0)
(-0.029468 0.173201 0)
(-0.00286925 0.0774639 0)
(-0.000353717 0.0165415 0)
(-0.00121343 0.0589957 0)
(0.00776535 0.199274 0)
(-1.0256e-05 0.000422521 0)
(-0.0209759 0.144822 0)
(-0.0231933 0.15962 0)
(-0.000783244 0.0340718 0)
(-0.001083 0.027034 0)
(-0.0144783 0.108344 0)
(-0.0267519 0.12444 0)
(-0.0264852 0.1732 0)
(-0.00942009 0.148207 0)
(-0.00305688 0.18158 0)
(-6.59353e-05 0.00231285 0)
(-0.00487856 0.0862637 0)
(-0.0193605 0.20043 0)
(-0.013264 0.151246 0)
(-2.19196e-05 0.000920187 0)
(-0.00583715 0.174333 0)
(-0.0023739 0.0382976 0)
(-0.00807857 0.124172 0)
(-0.00143027 0.0335154 0)
(-0.0119285 0.160718 0)
(-0.0134514 0.128686 0)
(-3.42107e-05 0.00144043 0)
(-0.00281606 0.0762512 0)
(-0.0274916 0.194007 0)
(-0.0109889 0.0665389 0)
(-0.023929 0.136618 0)
(-0.00110211 0.018205 0)
(-0.00517239 0.116829 0)
(-0.00038872 0.0184688 0)
(-6.71315e-05 0.00141708 0)
(-0.00705843 0.0915399 0)
(-0.000131623 0.00288794 0)
(-0.000119694 0.00269677 0)
(-0.00279658 0.115072 0)
(-0.0157555 0.10101 0)
(-0.00485212 0.126787 0)
(-0.0098304 0.0532693 0)
(-0.000116686 0.00362298 0)
(-0.000237325 0.198801 0)
(-0.0294392 0.171864 0)
(-0.0110969 0.0596283 0)
(-0.00504175 0.116783 0)
(-0.0169007 0.14768 0)
(-0.00145665 0.0622733 0)
(-0.0185377 0.199644 0)
(-0.00498547 0.0869818 0)
(-0.00091593 0.0446469 0)
(-0.00779573 0.0884933 0)
(-0.0224132 0.175745 0)
(-0.015058 0.0654164 0)
(-0.00962023 0.20056 0)
(-4.42134e-05 0.00180178 0)
(-0.00222492 0.200969 0)
(-0.0111475 0.171284 0)
(-0.000123615 0.00510638 0)
(-0.00492509 0.115398 0)
(-0.0252272 0.19787 0)
(-0.0189252 0.167812 0)
(-0.000603647 0.0311661 0)
(-0.000633454 0.00947693 0)
(-0.00216552 0.103637 0)
(-0.00104924 0.0101426 0)
(-0.00156541 0.0299316 0)
(-0.00238233 0.0427352 0)
(-0.01439 0.0491682 0)
(-0.0286471 0.140072 0)
(-0.0253592 0.1575 0)
(-0.0273959 0.163314 0)
(-0.0265596 0.186876 0)
(-0.00789803 0.151283 0)
(-2.91149e-05 0.00125196 0)
(-0.0229091 0.193537 0)
(-0.00122723 0.0615451 0)
(-0.0191615 0.139389 0)
(-0.0223877 0.124282 0)
(-0.00148727 0.0624528 0)
(-0.00204388 0.106215 0)
(-0.0290846 0.16563 0)
(-0.00167568 0.00807985 0)
(-0.00898818 0.200517 0)
(-0.0186367 0.199407 0)
(-0.0161294 0.19878 0)
(-0.0138506 0.150907 0)
(-0.00480546 0.115419 0)
(-0.00202608 0.109897 0)
(-0.000367737 0.0172003 0)
(-0.00517994 0.145087 0)
(-0.00141475 0.0689128 0)
(-0.0113442 0.18763 0)
(-0.0137134 0.133642 0)
(-0.0114242 0.188215 0)
(-0.0287829 0.160838 0)
(-5.01163e-05 0.00204411 0)
(-0.000377963 0.0175569 0)
(-0.025569 0.156665 0)
(-0.0294862 0.173537 0)
(-0.0161551 0.132067 0)
(-0.00769791 0.0552616 0)
(-0.00432564 0.0697694 0)
(-0.00880783 0.0855102 0)
(-0.0233299 0.176418 0)
(-0.0107601 0.157223 0)
(-0.00652951 0.173502 0)
(-0.00326464 0.181046 0)
(-0.000768561 0.0151741 0)
(-0.0205098 0.200436 0)
(-0.0297678 0.186697 0)
(-0.00425003 0.122911 0)
(-0.00121314 0.0605123 0)
(-0.0237264 0.137542 0)
(-1.79958e-05 0.000751781 0)
(-0.00197399 0.0461381 0)
(-4.13627e-05 0.00198417 0)
(-0.0232054 0.19399 0)
(-0.0191087 0.110879 0)
(-0.0271768 0.136611 0)
(-0.0280307 0.14799 0)
(-0.000104222 0.00432926 0)
(-0.00577081 0.130664 0)
(-0.00226596 0.106883 0)
(-0.015282 0.186456 0)
(-0.0260465 0.173189 0)
(-0.0286793 0.141364 0)
(-0.0287459 0.156912 0)
(-0.00793012 0.0907105 0)
(-0.0146165 0.0568271 0)
(-0.00415676 0.174053 0)
(-0.0294287 0.182446 0)
(-0.0276746 0.148615 0)
(-0.0239256 0.129323 0)
(-0.00717905 0.149842 0)
(-6.37161e-05 0.00264854 0)
(-0.00635892 0.0613914 0)
(-0.0120561 0.187086 0)
(-9.63954e-05 0.00399444 0)
(-0.0159075 0.131894 0)
(-5.22467e-05 0.0021778 0)
(-0.00200914 0.0297145 0)
(-0.028828 0.162504 0)
(-0.0239009 0.175443 0)
(-0.00639673 0.129147 0)
(-8.84791e-05 0.00367022 0)
(-0.00885092 0.194977 0)
(-0.00143032 0.0675378 0)
(-0.00263275 0.0440001 0)
(-0.000189519 0.00590569 0)
(-0.000426068 0.0176497 0)
(-0.00222902 0.008633 0)
(0.00540482 0.199663 0)
(-0.00139236 0.0702136 0)
(-0.00134575 0.0694091 0)
(-0.01475 0.198732 0)
(-0.0020626 0.102705 0)
(-0.0237302 0.125719 0)
(-0.0294923 0.17369 0)
(-0.0293117 0.166745 0)
(-0.00410212 0.101118 0)
(-0.0232862 0.139031 0)
(-1.35612e-05 0.000567133 0)
(-0.000464436 0.0202464 0)
(-0.0172993 0.160306 0)
(-0.0266878 0.193692 0)
(-0.00301235 0.129672 0)
(-0.0271045 0.138419 0)
(-0.0198127 0.146571 0)
(-0.00176347 0.0407161 0)
(-0.015491 0.158558 0)
(-0.00239346 0.0695025 0)
(-0.000617814 0.0316715 0)
(-0.0252728 0.163603 0)
(-0.0093832 0.0509997 0)
(-0.00913413 0.145987 0)
(-0.00106933 0.0263919 0)
(-0.0214748 0.128982 0)
(-0.0242339 0.181685 0)
(-0.0155667 0.0651529 0)
(-0.00717723 0.0836544 0)
(-0.0149113 0.163732 0)
(-0.014828 0.0824903 0)
(-0.0233062 0.174882 0)
(-0.0181754 0.188067 0)
(-0.0251473 0.178607 0)
(-0.0148845 0.15893 0)
(-0.0277455 0.146924 0)
(-0.00169923 0.03907 0)
(-0.00705086 0.158807 0)
(-0.00343128 0.0955413 0)
(-0.0137901 0.19894 0)
(-0.0104065 0.118427 0)
(-0.000161825 0.00437973 0)
(-0.0283945 0.135247 0)
(-0.0115938 0.134412 0)
(-0.0224183 0.198872 0)
(-0.029313 0.170265 0)
(-0.0143377 0.1999 0)
(-0.00558577 0.173718 0)
(-0.00128574 0.0318863 0)
(-0.0283612 0.134918 0)
(-2.40001e-05 0.00106647 0)
(-0.00220862 0.0336006 0)
(-3.88654e-05 0.0015862 0)
(-0.00222165 0.032785 0)
(-1.36154e-05 0.000622651 0)
(-0.00957606 0.144684 0)
(-0.0120598 0.159457 0)
(-8.15427e-05 0.00337545 0)
(-0.0140941 0.191428 0)
(-0.0111614 0.172197 0)
(-0.0141264 0.191944 0)
(-0.0038 0.0645552 0)
(-2.52033e-05 0.00103203 0)
(-6.57683e-05 0.00249001 0)
(-0.021765 0.185267 0)
(-0.0150793 0.195042 0)
(-0.0258754 0.13224 0)
(-0.0214719 0.130995 0)
(-3.13839e-05 0.00139823 0)
(-0.000111047 0.00339023 0)
(-0.000547822 0.0107282 0)
(-0.00450141 0.0758214 0)
(-0.0282267 0.170977 0)
(-0.00344509 0.187528 0)
(-0.0145987 0.0811816 0)
(-7.43109e-05 0.00307915 0)
(-0.0145249 0.0471352 0)
(-0.00451945 0.0749177 0)
(-0.0124559 0.185169 0)
(0.00249485 0.201066 0)
(-0.0157325 0.159144 0)
(-0.0245934 0.197079 0)
(-0.00216149 0.104805 0)
(-0.00702068 0.081354 0)
(-0.0272415 0.164573 0)
(0.00663674 0.199247 0)
(-0.0234257 0.140904 0)
(-0.00642245 0.184712 0)
(-0.0168941 0.0868956 0)
(-0.0104219 0.14369 0)
(-0.0257505 0.132889 0)
(-0.00997119 0.143161 0)
(-0.00136745 0.0681144 0)
(-0.0106909 0.0576169 0)
(-0.00202816 0.108672 0)
(-1.36542e-05 0.00055539 0)
(-0.0241181 0.101042 0)
(-0.0294533 0.172993 0)
(-0.00213185 0.0559387 0)
(-0.0110791 0.129643 0)
(-0.00710882 0.148735 0)
(-0.00169036 0.0323715 0)
(-0.0188016 0.137989 0)
(-0.00380046 0.130249 0)
(0.000266961 0.194549 0)
(-0.0250414 0.164116 0)
(-0.0227389 0.190846 0)
(-0.000531657 0.0253403 0)
(-4.70353e-05 0.00195637 0)
(-0.00368474 0.0622395 0)
(-0.0017955 0.198837 0)
(-0.0279775 0.146443 0)
(-0.00973763 0.157577 0)
(-0.0293196 0.171525 0)
(-0.00137128 0.0374648 0)
(-0.000848454 0.00252421 0)
(-5.6419e-05 0.00229718 0)
(-0.00206853 0.10153 0)
(-0.0285849 0.154022 0)
(-0.0143953 0.145222 0)
(-0.0085002 0.111846 0)
(-0.000402631 0.019135 0)
(-0.0205632 0.116558 0)
(-6.82441e-05 0.00259386 0)
(-0.0226885 0.200267 0)
(-0.00505961 0.146953 0)
(-0.0295375 0.193598 0)
(-0.00013204 0.00546834 0)
(-0.0145691 0.0787078 0)
(-0.0296293 0.179203 0)
(0.00784005 0.201217 0)
(-0.0279026 0.14024 0)
(-0.00239102 0.0684555 0)
(-0.0287921 0.153795 0)
(-0.0106841 0.0610633 0)
(-0.000418986 0.0200828 0)
(-0.0174802 0.184091 0)
(-0.0179433 0.177108 0)
(-0.0171612 0.14021 0)
(-0.0158599 0.199763 0)
(-0.0032215 0.0899003 0)
(-0.00210251 0.0657355 0)
(-0.0283853 0.144386 0)
(-0.000179551 0.0048023 0)
(-0.000170842 0.00231184 0)
(-0.0135404 0.13036 0)
(-0.00162848 0.0379049 0)
(-0.0215709 0.200243 0)
(-0.0182008 0.15642 0)
(-0.0263095 0.172474 0)
(-0.0065614 0.129569 0)
(-0.0003961 0.0185374 0)
(-0.00184222 0.0420179 0)
(-0.00369578 0.131019 0)
(-0.000440375 0.00789433 0)
(-0.00315601 0.0890694 0)
(-3.35256e-05 0.00136721 0)
(-0.00664178 0.0778047 0)
(-0.00132124 0.0162176 0)
(-0.0294183 0.185308 0)
(-0.00434782 0.0687241 0)
(-0.000109853 0.00446932 0)
(-0.00305092 0.10984 0)
(-0.0149657 0.0580715 0)
(-0.0296246 0.179179 0)
(-1.81308e-05 0.00072653 0)
(-0.00256553 0.0721952 0)
(-0.0263766 0.145924 0)
(-0.0118245 0.18506 0)
(-0.000976731 0.0469244 0)
(-0.000588437 0.0122902 0)
(-0.00436528 0.131215 0)
(-0.0241737 0.196691 0)
(-0.0157702 0.103201 0)
(-0.0291954 0.181548 0)
(-0.0239954 0.101786 0)
(-0.00149928 0.0352198 0)
(-0.00192161 0.0678242 0)
(-0.0234462 0.200366 0)
(-0.00448774 0.130443 0)
(-0.0162921 0.145443 0)
(-0.000690401 0.0134728 0)
(-6.7521e-05 0.00279231 0)
(-0.00123483 0.0601458 0)
(-0.0172105 0.17866 0)
(-0.0112582 0.166194 0)
(-0.0141871 0.147983 0)
(-0.00188383 0.0671828 0)
(-0.00208327 0.00976803 0)
(-0.00250592 0.070937 0)
(-0.0271505 0.127085 0)
(-0.00131732 0.0640423 0)
(-0.0227232 0.177327 0)
(-0.00314783 0.130462 0)
(-0.0143063 0.0772175 0)
(-0.0227197 0.175935 0)
(-0.0263445 0.15862 0)
(-0.0284524 0.134317 0)
(-0.0141171 0.144843 0)
(-0.00634363 0.191511 0)
(-0.0262759 0.186972 0)
(-0.0151459 0.0561478 0)
(-0.0210126 0.19927 0)
(-0.00734513 0.158097 0)
(-0.0192827 0.1956 0)
(0.000903198 0.194869 0)
(-0.0284075 0.19455 0)
(-0.000898335 0.0417592 0)
(-0.0169223 0.164902 0)
(-0.00156339 0.0362687 0)
(-0.00900752 0.14252 0)
(0.00371836 0.200945 0)
(-0.0208775 0.199524 0)
(-0.0041987 0.0788422 0)
(-7.7702e-05 0.00252168 0)
(-0.0258338 0.152966 0)
(-3.06423e-05 0.00152527 0)
(-0.0001424 0.00582493 0)
(0.00261025 0.20109 0)
(-0.00132232 0.0359591 0)
(-0.0113227 0.0823441 0)
(-0.0198769 0.200341 0)
(-0.0296991 0.182024 0)
(-0.000538017 0.0257805 0)
(-0.00230183 0.0354003 0)
(-0.00614798 0.0219584 0)
(0.00675745 0.201188 0)
(-0.0281101 0.17166 0)
(-0.0275693 0.147688 0)
(-0.0044592 0.100245 0)
(-0.0218841 0.197361 0)
(-0.0158014 0.18656 0)
(-0.0159219 0.194671 0)
(-0.0246378 0.15567 0)
(-0.0243905 0.139078 0)
(-0.0146931 0.108436 0)
(-0.0149331 0.0626139 0)
(-0.00317657 0.165926 0)
(-0.0258613 0.120512 0)
(-0.0286032 0.138307 0)
(-0.00356873 0.0995602 0)
(-0.0236468 0.132482 0)
(-0.0218573 0.200105 0)
(-0.01962 0.195981 0)
(-0.0297936 0.186782 0)
(-0.012278 0.0614374 0)
(-0.023615 0.120766 0)
(-0.00252702 0.0427326 0)
(-0.0151362 0.159543 0)
(-0.0108813 0.128869 0)
(-0.00578308 0.185618 0)
(-0.000558225 0.0023806 0)
(-0.0287757 0.145469 0)
(-0.00014173 0.00577899 0)
(-0.0262551 0.146292 0)
(-0.00697404 0.0723706 0)
(-0.0165799 0.185282 0)
(-0.023873 0.12679 0)
(-0.023444 0.122406 0)
(-0.0252643 0.197032 0)
(-0.024962 0.134188 0)
(-0.0115607 0.161293 0)
(-0.000232259 0.00523873 0)
(-0.0261583 0.148942 0)
(-0.0025178 0.113449 0)
(-0.00735366 0.153095 0)
(-0.0154892 0.133505 0)
(-0.0297284 0.183137 0)
(-0.000399073 0.0164864 0)
(0.0018787 0.194703 0)
(-0.000923352 0.0442373 0)
(-0.0135228 0.100785 0)
(-0.0291401 0.165204 0)
(0.0042816 0.199367 0)
(-0.0296545 0.180569 0)
(-0.000881577 0.0409701 0)
(-0.00353084 0.098306 0)
(-0.00454932 0.0800115 0)
(-0.0295228 0.194765 0)
(-0.000982398 0.00438371 0)
(-0.00265588 0.136668 0)
(-0.029228 0.163551 0)
(-0.00394055 0.0648279 0)
(-0.02007 0.0853001 0)
(-0.0190275 0.188573 0)
(-0.001384 0.0667738 0)
(-0.00495042 0.191134 0)
(-0.0138173 0.0872012 0)
(-0.000247664 0.007242 0)
(-0.00302749 0.170494 0)
(-0.0293837 0.169971 0)
(-0.0259115 0.174937 0)
(-0.0162354 0.143751 0)
(-0.00458097 0.0989537 0)
(-0.000906571 0.0434269 0)
(-0.0161146 0.20029 0)
(-0.0263496 0.160455 0)
(-0.000117625 0.00478345 0)
(-0.0171202 0.165729 0)
(-0.00172274 0.0320368 0)
(-0.000555662 0.00766381 0)
(-0.000550814 0.0254223 0)
(-8.86586e-05 0.00268665 0)
(-0.01285 0.187752 0)
(-0.001314 0.0581259 0)
(-0.0113793 0.0844028 0)
(-0.00274612 0.0759917 0)
(-0.00458058 0.0814724 0)
(-0.0138052 0.130618 0)
(-0.029081 0.157278 0)
(-0.0244235 0.19792 0)
(-0.0211498 0.142747 0)
(-0.00663209 0.191897 0)
(-0.00692298 0.0707318 0)
(-0.0207205 0.145008 0)
(-0.00440437 0.0781238 0)
(-0.00180699 0.0331281 0)
(-0.0117344 0.103659 0)
(-0.0111315 0.0843392 0)
(-0.0291996 0.162067 0)
(-0.0112896 0.0622283 0)
(-0.0256536 0.136125 0)
(-0.0124407 0.0639695 0)
(-0.0165758 0.145598 0)
(-0.000558168 0.0259111 0)
(0.0116588 0.201296 0)
(-0.000563018 0.00868927 0)
(-0.00440991 0.174713 0)
(-0.0111189 0.167089 0)
(-0.0276942 0.18271 0)
(-0.0184306 0.156822 0)
(-0.0198522 0.154751 0)
(-0.028659 0.140527 0)
(-0.0216466 0.126771 0)
(-0.0102458 0.156387 0)
(-0.00578094 0.185116 0)
(-0.00340106 0.135409 0)
(-0.00718087 0.200844 0)
(-0.0206529 0.161684 0)
(-0.000450742 0.0226286 0)
(-0.0103228 0.116417 0)
(-0.024813 0.133063 0)
(-0.0244947 0.15409 0)
(-0.00534082 0.191526 0)
(-0.000487547 0.0102069 0)
(-0.00243804 0.192504 0)
(-0.00356052 0.0609074 0)
(-0.00392672 0.0658524 0)
(0.00116003 0.196735 0)
(-0.000478967 0.0205268 0)
(-0.0247116 0.190606 0)
(-0.0172568 0.141568 0)
(-0.00248466 0.0439619 0)
(-0.00594709 0.130992 0)
(-0.00256558 0.0441028 0)
(-0.00650457 0.022386 0)
(-3.70654e-05 0.00166399 0)
(-0.0166281 0.0853135 0)
(-0.028323 0.143874 0)
(-0.00407286 0.0661418 0)
(-0.0280188 0.173602 0)
(-0.0157245 0.200398 0)
(-0.0134302 0.17122 0)
(-0.000715912 0.194685 0)
(-0.0146049 0.0612946 0)
(-0.000342515 0.00622683 0)
(-0.00049046 0.0214444 0)
(-0.00880928 0.0870618 0)
(-0.00232087 0.0401985 0)
(-0.0265287 0.151521 0)
(-0.017998 0.0619244 0)
(-0.00252609 0.0561557 0)
(-0.008683 0.112973 0)
(-4.67429e-05 0.00170494 0)
(-0.0298358 0.188348 0)
(-0.00307152 0.187017 0)
(-0.00730681 0.15202 0)
(-0.0266992 0.195874 0)
(-0.0283957 0.164336 0)
(-0.00647107 0.0634023 0)
(-0.00224918 0.0930853 0)
(-0.0199996 0.145259 0)
(-0.00408455 0.0650871 0)
(-0.000823972 0.0422926 0)
(-0.00427988 0.119611 0)
(-0.00175538 0.0791814 0)
(-0.00219582 0.0226849 0)
(-0.00047754 0.0245232 0)
(-0.00137082 0.0657601 0)
(-0.00347027 0.200676 0)
(-0.000740897 0.0185123 0)
(-0.025307 0.191455 0)
(-0.0181905 0.154957 0)
(-0.0203727 0.115308 0)
(-3.88169e-05 0.00175057 0)
(-0.00142406 0.0379773 0)
(-0.00962922 0.188351 0)
(-0.00726758 0.157069 0)
(-0.00267727 0.1155 0)
(-0.00209551 0.0545106 0)
(-0.0096609 0.0615046 0)
(-0.0028338 0.109697 0)
(-0.0137454 0.100669 0)
(-0.0125726 0.185849 0)
(-0.000911726 0.0429932 0)
(-0.00566178 0.168311 0)
(-0.0254432 0.188944 0)
(-0.0010709 0.0540473 0)
(-9.22337e-05 0.00301864 0)
(-0.0100032 0.0876156 0)
(-0.00807406 0.154623 0)
(-0.0052894 0.118151 0)
(-0.0215592 0.0886671 0)
(-0.0172258 0.184933 0)
(-0.0208286 0.162277 0)
(-0.0182285 0.0625825 0)
(-0.00448072 0.0976371 0)
(-0.00200267 0.18638 0)
(-0.00251304 0.0567234 0)
(-0.0290799 0.198525 0)
(-0.0276714 0.185196 0)
(-0.0027851 0.136099 0)
(-0.0262752 0.183525 0)
(-0.00163822 0.00488283 0)
(-0.000361094 0.0147373 0)
(-0.00826974 0.108894 0)
(-0.000622405 0.0308985 0)
(-0.00129463 0.0605575 0)
(-0.000765319 0.0193225 0)
(-8.02733e-05 0.00147735 0)
(-0.00203315 0.0533516 0)
(-0.0260444 0.158867 0)
(-0.00019189 0.0078076 0)
(-0.00199306 0.0518995 0)
(-0.0174406 0.0891663 0)
(-0.0223182 0.144112 0)
(-0.028565 0.155733 0)
(-0.0104184 0.157393 0)
(-0.00957911 0.147088 0)
(-0.00143528 0.0172959 0)
(-0.0259853 0.121342 0)
(-0.0219095 0.192005 0)
(-0.0193591 0.064765 0)
(-0.0219657 0.199123 0)
(-0.0161731 0.190336 0)
(-0.0267118 0.147806 0)
(-0.000260121 0.0105864 0)
(-0.0248747 0.138793 0)
(-0.00790491 0.0576786 0)
(-5.7101e-05 0.00210392 0)
(-0.00820866 0.107023 0)
(-0.0299206 0.191407 0)
(-0.027616 0.143071 0)
(-0.00121114 0.0627322 0)
(-0.0216819 0.086429 0)
(-0.000405243 0.0194148 0)
(-0.00860665 0.05633 0)
(-9.46629e-06 0.000386208 0)
(-0.0105228 0.109282 0)
(-0.00230591 0.0925863 0)
(-0.00417968 0.138068 0)
(-2.59379e-05 0.0011082 0)
(-0.0221058 0.144433 0)
(-0.00933084 0.159598 0)
(-0.0290459 0.155985 0)
(-0.00012893 0.00275701 0)
(-0.00493939 0.168034 0)
(-2.65223e-05 0.00121336 0)
(-0.00856457 0.19306 0)
(-0.015976 0.176991 0)
(-0.0290885 0.179059 0)
(-0.0272118 0.12903 0)
(-0.0265123 0.153621 0)
(-0.0175346 0.188248 0)
(-0.0297247 0.185086 0)
(-0.00104384 0.0534012 0)
(-0.0170459 0.198271 0)
(-0.000163338 0.00505502 0)
(-0.011983 0.179984 0)
(-0.00018147 0.00739817 0)
(-0.0157462 0.133679 0)
(-0.0224299 0.110196 0)
(-0.0143294 0.0926648 0)
(-0.0296024 0.179045 0)
(-0.0183951 0.151747 0)
(-0.0208454 0.137459 0)
(-0.000894738 0.042186 0)
(-0.0259374 0.182263 0)
(-0.00278034 0.113849 0)
(-0.00657433 0.0278338 0)
(-0.0201944 0.111276 0)
(-0.0144302 0.146731 0)
(-0.000388506 0.0158751 0)
(-0.00872681 0.142647 0)
(-0.00345344 0.170551 0)
(-0.0018811 0.100802 0)
(-0.00354465 0.160619 0)
(-0.00288937 0.0323734 0)
(-0.0218323 0.126653 0)
(-0.00444403 0.101464 0)
(-0.00215527 0.107174 0)
(-0.0262474 0.194996 0)
(-0.0079045 0.154148 0)
(-0.000348444 0.0142585 0)
(-0.0176203 0.0580036 0)
(-0.009931 0.200403 0)
(-0.0186399 0.167227 0)
(-0.0106376 0.186812 0)
(-0.0200532 0.194157 0)
(-0.00294345 0.0929375 0)
(-0.00024812 0.0101216 0)
(-0.0286968 0.172027 0)
(-0.00858931 0.141539 0)
(-0.0226156 0.158143 0)
(-0.0212242 0.138729 0)
(-0.0292381 0.174996 0)
(-0.00060885 0.0304412 0)
(-0.0232456 0.18246 0)
(-0.00744765 0.160915 0)
(-0.0104395 0.122323 0)
(-0.0054113 0.117915 0)
(-0.0115162 0.08027 0)
(-0.0102146 0.200767 0)
(-0.00989734 0.1586 0)
(-0.0296421 0.180523 0)
(-0.000427956 0.0201918 0)
(-0.0222861 0.111592 0)
(-0.0277318 0.158843 0)
(-0.017895 0.114927 0)
(-0.0291995 0.17303 0)
(-0.0280436 0.175001 0)
(-4.21631e-05 0.00165692 0)
(-0.00867541 0.175036 0)
(-0.0294783 0.174401 0)
(-0.00865408 0.17585 0)
(-0.0285901 0.144634 0)
(-0.00196699 0.0151648 0)
(-0.0102495 0.0899721 0)
(-0.0293078 0.166326 0)
(-0.0212678 0.192238 0)
(-0.0126393 0.200464 0)
(-0.00152264 0.011227 0)
(-0.0145942 0.0520958 0)
(-0.0111697 0.0863256 0)
(-0.0297682 0.185232 0)
(-0.027836 0.138722 0)
(-0.0164407 0.0867385 0)
(-0.00412545 0.11914 0)
(-0.0174642 0.179322 0)
(-0.010178 0.191274 0)
(-0.0286037 0.175037 0)
(-0.00242807 0.115083 0)
(-0.0104229 0.041544 0)
(-0.0287975 0.155464 0)
(-0.0206216 0.120885 0)
(-0.00687827 0.0904844 0)
(-0.0275327 0.164089 0)
(-0.0150933 0.195496 0)
(-0.0156031 0.0534062 0)
(-0.00343433 0.0605903 0)
(0.0127423 0.201326 0)
(-0.0291773 0.179642 0)
(-0.000429976 0.0185506 0)
(-0.00287746 0.0338471 0)
(-0.0019704 0.192085 0)
(-5.03948e-05 0.0019767 0)
(-3.13095e-05 0.00150843 0)
(-0.00266162 0.0296333 0)
(-0.00226637 0.105696 0)
(-0.00998367 0.0909711 0)
(-0.0256935 0.138322 0)
(-0.00322879 0.160843 0)