/*--------------------------------*- C++ -*----------------------------------*\
| =========                 |                                                 |
| \\      /  F ield         | OpenFOAM: The Open Source CFD Toolbox           |
|  \\    /   O peration     | Version:  v2012                                 |
|   \\  /    A nd           | Website:  www.openfoam.com                      |
|    \\/     M anipulation  |                                                 |
\*---------------------------------------------------------------------------*/
FoamFile
{
    version     2.0;
    format      ascii;
    class       volScalarField;
    location    "500";
    object      k_0;
}
// * * * * * * * * * * * * * * * * * * * * * * * * * * * * * * * * * * * * * //

dimensions      [0 2 -2 0 0 0 0];


internalField   nonuniform List<scalar> 
13851
(
0.000161824
0.0265534
0.000200184
0.000160661
0.000196145
0.000184949
0.000149669
0.000187272
0.000139463
0.000209481
0.00350421
0.0446574
0.050563
0.0264483
0.000144615
0.000179514
0.000163746
0.000174525
0.03823
0.000139335
0.000160097
0.000198921
0.000167861
0.000148446
0.000170534
0.000188193
0.000160385
0.00159804
0.000161432
0.000164421
0.000187025
0.000164519
0.000199346
0.00483851
0.000147409
8.90224e-05
0.038487
0.0163728
0.000212624
0.00504722
0.000150046
0.000137828
0.00360739
0.00301187
0.00239491
0.0154329
0.00174254
0.000395042
0.000160895
0.0016835
0.000191849
0.000183583
0.00638945
0.000146954
0.00015498
0.000138477
0.000145123
0.00857663
0.000163691
0.000150547
0.017768
0.0355074
0.000199369
0.00019884
0.000230358
0.000165753
0.0442972
0.00127707
0.000174036
0.000174243
0.018365
0.0534688
0.0255477
0.00014803
0.000142394
0.000143373
0.00019798
0.022486
0.000184984
0.0203448
0.000152519
0.00144982
0.000145971
0.0120967
0.000200294
0.0461136
0.000178963
0.0277082
0.000163906
0.000152933
3.51892e-06
0.000167327
0.00145967
0.000167701
0.000163332
0.000149766
0.00019649
0.0431744
0.00277904
0.000150158
0.0170102
0.000185181
0.000157117
0.000158448
0.000165704
0.000178358
0.000187073
0.000135407
0.0596077
0.000185731
0.00015109
0.000153206
0.000166637
0.000157895
0.000150246
0.00851803
0.0457059
0.000133379
0.000151045
0.000157817
0.00349969
0.00015827
0.0515531
0.00499103
0.000253459
0.000237487
0.000227877
0.000185138
0.000159283
0.000136272
0.000149683
0.000139801
0.022602
0.000145765
0.0077778
0.000141241
0.000133274
0.0520368
0.031695
0.0319036
0.0162766
0.000154742
0.000159595
0.000148175
0.000159864
0.00307945
0.000200697
1.95335e-05
0.000149387
0.00219708
0.000190458
0.000154058
0.0257741
0.000146093
0.000157465
0.000159669
0.000145464
0.000160555
0.000184729
0.00019164
0.000145666
0.000166406
0.00825858
0.000139584
0.000172853
0.000143073
0.00021259
0.000174365
0.000158774
0.0265939
0.0191281
0.000136714
0.000145804
0.0336286
0.000139453
0.000508487
0.000184619
0.000157699
0.0413743
0.000137104
0.0001664
0.0551373
0.000145336
0.000200321
0.000137191
0.000157046
0.000166236
0.000149896
0.000199258
0.000212667
0.00199479
0.00725998
0.000154869
0.000174883
0.0374149
0.000157061
0.000158225
0.00378792
0.000156931
0.000143945
0.000248568
0.0214549
0.000155106
0.000145688
0.000204987
0.000145611
0.0464353
0.000163762
0.0371187
0.000140428
0.056065
0.0001566
0.00421191
0.00013598
0.000146461
0.00281933
0.000199106
0.0149633
0.00014391
0.0388365
0.000164204
0.000152787
0.0527824
0.000167459
0.0538502
0.000162051
0.000170592
0.000167768
0.00918783
0.000136504
0.000187502
0.000220484
0.000136652
0.000154205
0.000189259
0.000192503
0.0473783
0.00024687
0.000148002
0.000145903
0.000185497
0.00457988
0.000158096
0.000207868
0.000160369
0.0495657
0.000185996
0.00485117
0.000160209
0.00016711
0.000164655
0.00427613
0.00015375
0.000160383
0.000184411
0.000221422
0.000211854
0.0537163
0.00603555
0.000145322
0.000146673
0.000172329
0.000229616
0.000162296
0.0474542
0.000157048
0.000153472
0.000166869
0.0538859
0.00123405
0.000164743
0.000157514
0.000197051
0.000183644
0.000178645
0.000139996
0.00143754
0.000624612
0.0565168
0.00347425
0.000157876
0.000139109
0.000163509
0.000183435
0.000246036
0.00140286
0.000141267
0.000144641
0.000196728
0.000765458
0.00145598
0.000162651
0.00015072
0.000176671
0.000852705
0.0460861
0.000171431
0.0457582
0.000140349
0.0507858
0.000165829
0.000163635
0.0564603
0.000153099
0.000179119
0.0509018
0.000140879
0.000180473
0.000168045
0.000161898
0.0337943
0.000171823
0.000153576
0.0502745
0.000139185
0.000167536
0.000354342
0.0581512
0.000202403
0.000144036
0.000185337
0.000144264
0.0157117
0.000166613
0.000164218
0.00014938
0.000202355
0.000169602
0.000156925
0.000144637
0.000152906
0.000153375
0.00334852
0.0203059
0.0297958
0.000179328
0.0580815
0.0473059
0.000144156
0.000175795
0.00177885
0.00016878
0.000201069
0.000202386
0.0407129
0.00016126
0.000643233
0.0509652
0.000144917
0.00548377
0.00540353
0.0326655
0.000156857
0.0002031
0.0095295
0.000146385
0.00213763
0.000149268
0.000144272
0.000155352
0.000135808
0.000144139
0.052886
0.0065101
0.000148785
0.00017949
0.00014169
0.0433458
0.00018727
0.0054444
0.0290874
0.000149186
0.000203037
0.000168613
0.00344794
0.000148466
0.000133574
0.000165337
0.0165707
0.000146058
0.0362049
0.000168833
0.000192629
0.0219685
0.00483264
0.00493979
0.000163389
0.00014062
0.000152289
0.000176978
0.000184863
0.0265794
0.000173978
0.0556633
0.0511658
0.000141844
0.000145491
0.02749
0.0239219
0.000220047
0.0476205
0.000165832
0.000169675
0.000151769
0.0478625
0.000137689
0.000178523
0.000162553
0.000149082
0.000165959
0.000140457
0.000142938
0.000197959
0.000198611
0.0217181
0.000175281
0.000186553
0.000174524
0.00387694
0.000169389
0.0352926
0.00016295
0.0027783
0.00013327
0.000140128
0.000158129
0.0317877
0.00161417
0.000156287
0.000174233
0.0163769
0.00446591
0.000178104
0.000159764
0.000189489
0.000147951
0.00392371
0.000167393
0.0405626
0.00612449
0.000198596
0.0341605
0.000158647
0.000500331
0.00626439
0.0186739
0.000134873
0.00017159
0.000185354
0.00260802
0.000137109
0.000153604
0.00018907
0.000192147
0.000181968
0.0256483
0.000161486
0.000150094
0.00692783
0.000174387
0.000138275
0.0335195
0.000140496
0.000161741
0.000137828
0.000189992
0.000159067
0.000139444
0.000158224
0.0512691
0.000146275
0.000176073
0.000140873
0.000167049
0.0012874
0.000158547
0.00014982
0.000157774
0.000158378
0.000481657
0.000153189
0.000181583
0.000145109
0.000151078
0.0198886
0.0320774
0.000146103
0.000167474
0.000169386
0.00539102
0.0129364
0.000150214
0.00668882
0.00014882
0.000197148
0.000149904
0.011015
0.000135554
0.00609271
0.000211718
0.000138081
0.000167137
0.034338
0.000188698
0.00117448
0.000150457
0.00101483
0.000158527
0.00013873
0.000140165
0.000148671
0.0289632
0.000190035
0.00019002
0.0386372
0.000198486
0.000146959
0.0511403
0.0036695
0.000166464
0.00016692
0.00545861
0.00249597
0.0572355
0.000155208
0.01157
0.0147033
0.0201627
0.000173281
0.000167583
0.00304468
0.000608885
0.000217171
0.00369439
0.0463233
0.00016126
0.0473727
0.0541298
0.000133634
0.000489974
0.00019038
0.0262199
0.000160897
0.000144027
0.00014496
0.000148008
0.000198455
0.000189125
0.0201807
0.0254745
0.000139454
0.00593197
0.0336403
0.000182885
0.00481813
0.000175694
0.000136843
0.000139778
0.000291941
0.05113
0.000157724
0.000194767
0.000566516
0.000138268
0.000177732
0.000580648
0.0234176
0.000200594
0.0305968
0.0546041
0.000149315
0.000149137
0.030883
0.0501196
0.000202197
0.000173634
0.000201527
0.000136656
0.00014384
0.0428192
0.000137329
0.000160719
0.000136988
0.000140577
0.0550098
0.000198051
0.000171798
0.000137195
0.0385337
0.00345393
0.000140697
0.000145207
0.000163765
0.000151293
0.0151964
0.0044836
0.00467913
0.0208649
0.00289407
0.000171901
0.0212496
0.0337051
0.000161942
0.000174737
0.000136878
0.000321188
0.000180483
0.0524887
0.000451703
0.000194576
0.000170828
0.000138754
0.000179649
0.000162193
0.00114118
0.000192513
0.000144885
0.000180343
0.000137058
0.000166171
0.000156629
0.000150265
0.000147566
0.000187112
0.000150863
0.000196741
0.0268394
0.00020445
0.000180663
0.000201896
0.000138544
0.000215585
0.000165758
0.0199389
0.000156181
0.000149232
0.0585763
0.000162876
0.0202034
0.049691
0.0136354
0.0343283
0.000137584
0.0557655
0.00016115
0.000140523
0.000135471
0.00014064
0.000179658
0.000176467
0.000187798
0.00013645
0.0465866
0.000212466
0.0461617
0.000143713
0.000138815
0.000159035
0.000777274
0.0392214
0.00018419
0.000166649
0.000162621
0.000150912
0.000143467
0.000146593
0.0284367
0.0301285
0.000150602
0.000136379
0.000148753
0.000146428
0.0304563
0.00762787
0.000180143
0.0397656
0.00132689
0.00014708
0.000190926
0.0182555
0.000175991
0.0454574
0.000152516
0.000172623
0.000183805
0.000173257
0.00370478
0.000145806
0.00230909
0.000168501
0.000168459
0.0377236
0.000145633
0.000160653
0.000200243
0.00013884
0.000165335
0.000205881
0.0311739
0.000192038
0.0446975
0.00438014
0.000136107
0.000143278
0.0197817
9.97107e-05
0.000195209
0.0508251
0.000139137
0.00017063
0.000133687
0.0024579
0.0447806
0.00016807
0.000154994
0.00149732
0.000161183
0.000158069
0.00595007
0.000227854
0.0399409
0.000138909
0.000150436
0.0220546
0.00476548
0.000137931
0.000160127
0.0585726
0.000145917
0.00205766
0.000273724
0.000200154
0.00016512
0.0136731
0.000164099
0.000170336
0.034718
0.00014878
0.000155369
0.000159732
0.000138325
0.00699266
0.000176532
0.00020098
0.00017174
0.000800256
0.000139037
0.000209488
0.000148277
0.000164323
0.000140783
0.000146268
0.00014626
0.0496496
0.000144567
0.000135006
0.000186259
0.00014954
0.0271542
0.000172499
0.000160034
0.000190155
0.0338354
0.00588152
0.000140049
0.000192088
0.0418374
0.000153467
0.0547843
0.00016813
0.000137986
0.000217663
0.00437357
0.000190271
0.000167935
0.000140295
0.000135511
0.00605246
0.000203522
0.00020157
0.000170483
0.000216242
0.000152381
0.00015987
0.000194072
0.00299083
0.000198856
0.000318116
0.000150092
0.000197282
0.000194844
0.0590131
0.000167832
0.0391742
0.0361008
0.00014956
0.0156094
0.000212862
0.0413347
0.0284038
0.047727
0.00426705
0.0001866
0.000138156
0.000176018
0.00924967
0.0129
0.000148455
0.000154089
0.000190072
0.000497503
0.000137348
0.00616123
0.000138803
0.000148399
0.00742096
0.0221955
0.00418619
0.00014043
0.000144379
0.00552493
0.0252452
0.000202307
0.000158861
0.0340918
0.0216462
0.0410322
0.000186887
0.000179244
0.000153742
0.00014971
0.0227171
0.000182016
0.0226652
0.000166726
0.000173651
0.00772197
0.0398209
0.0300251
0.000147079
0.000170068
0.000140531
0.00018122
0.00016037
0.0407275
0.000171138
0.0419647
0.000136743
0.000189891
0.000145186
0.00648818
0.000172598
0.000169747
0.0406509
0.000180251
0.000192073
0.000149551
0.00019006
0.00100274
0.00020609
0.000161217
0.019319
0.000158419
0.0213641
0.00611267
0.000152143
0.0551862
0.0172637
0.029385
0.00427348
0.000166103
0.000148403
0.0381622
0.000172532
0.00661849
0.0373298
0.000143749
0.000155663
0.0286339
0.00304549
0.03421
0.000150699
0.00014221
0.0220742
0.0372448
0.000201429
0.00016683
0.00015734
0.00572224
0.0101741
0.000195708
0.000135058
0.000186937
0.000139033
0.000153679
0.00537829
0.000151395
0.0430461
0.00383879
0.000148772
0.000159897
0.00014869
0.000159863
0.0207266
0.0328678
0.000170813
0.0397979
0.000144955
0.000171213
0.000147771
0.000139243
0.000152252
0.000148596
0.028165
0.000146292
0.000184155
0.000147409
0.000168066
0.00541654
0.00432974
0.000150418
0.0329316
0.000203157
0.0396764
0.000177194
0.000176653
0.0195571
0.000165973
0.000190395
0.0410536
0.000481518
0.00672767
0.000183074
0.00280167
0.000155556
0.000179045
0.000185592
0.0352593
0.000142135
0.034577
0.000142954
0.000144063
0.0280761
0.000251197
0.0467156
0.000165805
0.00014036
0.000176875
0.000140543
0.000144438
0.000168304
0.000152193
0.0270806
0.000144081
0.0246113
0.00956708
0.000201598
0.0339256
0.000149323
0.000149744
0.000473161
0.0001484
0.000140193
0.000193375
0.000151939
0.000142273
0.00015532
0.000166572
0.0277836
0.0297051
0.000204312
0.0466045
0.0292212
0.000143916
0.000194266
0.000170468
0.000143802
0.00621786
0.000177613
0.000181034
0.000142879
0.00224604
0.00294782
0.0113832
0.000136654
0.0506998
0.000175363
0.000160472
0.000171645
0.000138933
0.0498786
0.00021247
0.00100972
0.000144603
0.000145243
0.000200582
0.000152205
0.0344838
0.00487788
0.0112742
0.0409152
0.00502729
0.000154768
0.000148745
0.000202351
0.000167475
0.000158776
0.00166646
0.000184194
0.000152147
0.000156972
0.0283976
0.000142656
0.026926
0.046547
0.00432571
0.0155646
0.000154709
0.000150894
0.000154133
0.00410135
0.00607676
0.000136647
0.000157488
0.000144108
0.000193536
0.000139132
0.000143324
0.000153082
0.000174288
0.0414255
0.000191322
0.000180003
0.000146487
0.000183174
0.0490002
0.000153453
0.017191
0.045903
0.000193433
0.000143154
0.000181038
0.000144116
0.000165915
0.000153638
0.0224229
0.000202404
0.00174466
0.000158826
0.00199231
0.000144506
0.000167775
0.000153364
0.000184318
0.000220388
0.000144516
0.0001739
0.000200102
0.0317749
0.000158111
0.0235683
0.000180747
0.0433456
0.000203636
0.0563046
0.000194428
0.000193587
0.0305399
0.0353367
0.00455473
0.0238205
0.00014762
0.000772226
0.000138839
0.000161401
0.000163792
0.000151476
0.0349652
0.000173136
0.000167909
0.00467883
0.00409806
0.000357849
0.000144139
0.000159345
0.000169163
0.000153939
0.000177543
0.0251087
0.00691964
0.0146895
0.000141645
0.000166
0.000159683
0.00088203
0.0498073
0.000202129
0.000150546
0.000151465
0.0121165
0.000188019
0.0463351
0.0479795
0.000171099
0.000142801
0.0506329
0.000176575
0.000183364
0.000169313
0.0551886
0.00419295
0.00016812
0.000214403
0.00015751
0.000166464
0.000148215
0.00641179
0.000195806
0.0333062
0.00154658
0.000163655
0.000149035
0.000157217
0.0559036
0.0274897
0.00016235
0.00122766
0.0394883
0.0022497
0.0580745
0.000147798
0.000149315
0.0214449
0.0493759
0.0106144
0.000158461
0.000148958
0.000148974
0.027964
0.000183692
0.00015216
0.000178113
0.000204236
0.0483528
0.0496891
0.00286578
0.000145457
0.0578032
0.000162043
0.000149629
0.000150191
0.0375755
0.000149806
0.000142877
0.00362533
0.055501
0.000206432
0.000141582
0.0348806
0.000160261
0.000287634
0.000141629
0.000317227
0.000149466
0.000184538
0.0177791
0.0510277
0.000156056
0.00436385
0.00417054
0.0469538
0.0458066
0.0437786
0.000170171
0.000144162
0.044289
0.000157913
0.000144252
0.000153358
0.000201726
0.000146727
0.0347541
0.000143197
0.000171063
0.0212776
0.00019868
0.0405309
0.000158357
0.00106233
0.000139995
0.000172473
0.0513241
0.0192154
0.000140942
0.000190762
0.00547625
0.000153119
0.000139304
0.0385857
0.000175191
0.000182138
0.000190993
0.0241919
0.000235393
0.0494644
0.057199
0.000170386
0.00325119
0.00606271
0.00860682
0.000191122
0.000145571
0.000202189
0.000144223
0.00014352
0.030688
0.0382737
0.000161247
0.0201066
0.000215031
0.0261505
0.00018163
0.00017892
0.000147648
0.000216001
0.000954332
0.000159716
0.000156437
0.0525388
0.0425031
0.0202235
0.0568603
0.00018712
0.0449864
0.0537133
0.000171946
0.00014886
0.000145735
0.00105562
0.000143438
0.026762
0.000154527
0.00015375
0.000162008
0.0500599
0.0587744
0.0148964
0.000155091
0.0516669
0.000166814
0.000175997
0.000142025
0.000161911
0.00815259
0.000170202
0.0339204
0.0208174
0.000176846
0.000202224
0.000145084
0.000188036
0.000152589
0.000200816
0.000156707
0.000157813
0.000154535
0.000154079
0.00019813
0.000153872
0.000180223
0.000161462
0.000181184
0.0137958
0.0214341
0.000146306
0.000184652
0.000169392
0.000202185
0.000206768
0.0486322
0.000662862
0.000170932
0.000159317
0.00015563
0.000175376
0.000148735
0.000990758
0.000144512
0.000145192
0.000158094
0.0495255
0.000167102
0.000164542
0.000165664
0.000172831
0.000187383
0.0479926
0.0461343
0.000176383
0.00014802
0.000588166
0.000146676
0.000146186
0.0123053
0.0424597
0.000172503
0.000177524
0.000213701
0.0528353
0.000152176
0.000153706
0.0398595
0.000156792
0.00102951
0.031455
0.0600763
0.000149795
0.000239612
0.000145172
0.0525852
0.000205482
0.000184897
0.000202281
0.0157417
0.000154864
0.0594888
0.0478046
0.000153279
0.0502906
0.000193695
0.00015525
0.00839764
0.000149844
0.000148859
0.000138219
0.00251658
0.000174056
0.000284098
0.000158259
0.000153726
0.000168428
0.00515865
0.0349465
0.05868
0.00448366
0.000152949
0.000205268
5.52742e-05
0.00774821
0.000203117
0.000632668
0.000143648
0.000165657
0.000139107
0.000220654
0.000185579
0.000145043
0.0309822
0.00095718
0.000176147
0.000201222
0.000140976
0.000173663
0.00019612
0.000179657
0.0001923
0.000191555
0.000197838
0.000200871
0.000204733
0.0501092
0.00020029
0.0579684
0.000146621
0.000142312
0.0218956
0.0177119
0.00698077
0.000183119
0.000148103
0.0217129
0.00495633
0.000146163
0.000164506
0.000140868
0.000179905
0.000190958
0.000261673
0.00712857
0.0319619
0.000156504
0.0408859
0.0189137
0.000145287
0.00020998
0.0302264
0.00717568
0.000159874
0.000191234
0.000136507
0.000161801
0.000156236
0.000166601
0.0566451
0.0356548
0.00625614
0.0238739
0.000155448
0.000181733
0.000197599
0.000167062
0.000150065
0.000138799
0.0532056
0.000143128
0.0576977
0.000184935
0.00019521
0.00158356
0.0226334
0.0242088
0.0537938
0.000179668
0.000142571
0.000461256
0.0519021
0.0449495
0.000162704
0.000140568
0.000138923
0.000195128
0.000174331
0.000154112
0.049764
0.000154925
0.000138485
0.000202241
0.000487613
0.0204089
0.00255478
0.00014174
0.000192895
0.000152773
0.0553855
0.000146121
0.0467277
0.000177239
0.000154689
0.000178028
0.000151047
0.000200509
0.000171079
0.000184175
0.0102619
0.0439653
0.000163924
0.000172679
0.000147269
0.0528808
0.0119985
0.000144666
0.000146585
0.00576705
0.000133345
0.0296208
0.000171259
0.000183
0.00019944
0.000229586
0.000187248
0.000158081
0.000148889
0.000189907
0.0535074
0.000144369
0.000214514
0.0199528
0.000882569
0.00582793
0.000181189
0.0282303
0.000161677
0.01745
0.000144316
0.00344746
0.00393727
0.0087175
0.0110575
0.0504894
0.00028523
0.000171391
0.000142765
0.016263
0.00567271
0.0507116
0.00962673
0.000170197
0.049961
0.00909892
0.000182896
0.000159695
0.000150275
0.0333934
0.000167045
0.000189554
0.000156246
0.000153555
0.000139238
0.000151666
0.0451288
0.0248959
0.000176149
0.012824
0.0477083
0.000223137
0.00014549
0.000139872
0.000165336
0.0450635
0.0279087
0.000167469
0.000173523
0.000205999
0.000201687
0.000182771
0.00523335
0.000174952
0.0564816
0.000168687
0.000176323
0.000144799
0.000157111
0.000192435
0.00266111
0.00286776
0.0367593
0.000197857
0.0342462
0.000161986
0.000162282
0.000169069
0.0068996
0.0188122
0.00238538
0.000178642
0.000159309
0.000148408
0.00014343
0.000144516
0.000138997
0.00567764
0.000172894
0.00671594
0.000178969
0.0441971
0.0399422
0.0507829
0.000167744
0.000163917
0.0105985
0.000187457
0.000898834
0.0350673
0.000138532
0.00017627
0.00016781
0.0158234
0.00551321
0.000182326
0.000177439
0.00477981
0.000152086
0.00019824
0.00017096
0.0184595
0.00608954
0.000161073
0.000149084
0.00325851
0.00857859
0.000153327
0.015478
0.00020075
0.000165749
0.000141564
0.0402795
0.0406842
0.000204853
0.000170512
0.0467371
0.0296222
0.000143107
0.000146158
0.000161722
0.0524657
0.050872
0.000144726
0.0261997
0.00015324
0.000146284
0.000152851
0.0214566
0.0221858
0.00041323
0.00661329
0.000160346
0.000157789
0.000143424
0.00772074
0.000153631
0.0321849
0.000162759
0.0275314
0.000151461
0.000144439
0.000158942
0.00530742
0.00606858
0.000182653
0.0469558
0.000154261
0.00015006
0.000146464
0.00018633
0.000191165
0.000190753
0.000185933
0.0562881
0.000161512
3.85151e-05
0.000218337
0.0496973
0.000150675
0.0321901
0.0389316
0.000161014
0.00245209
0.000188512
0.0152708
0.000151201
0.000204434
0.00014721
0.00042917
0.0183509
0.000209348
0.0553848
0.000162709
0.000181852
0.000158312
0.0280221
0.000144121
0.000140727
0.00394163
0.000209526
0.017253
0.0507754
0.000187702
0.000171192
0.000138115
0.00165073
0.000176961
0.000157599
0.000171325
0.000165967
0.000181775
0.000148593
0.000639871
0.000156139
0.00284127
0.00274242
0.000177194
0.000218818
0.000196743
0.0554915
0.000150426
0.0171714
0.0233151
0.000139211
0.000146596
0.000159169
0.000151698
0.000183097
0.000144981
0.000189498
0.000192065
0.0018976
0.000202345
0.000152481
0.000152978
0.000139597
0.0551196
0.00015045
0.00014943
0.0290481
0.000159218
0.0201472
0.0560499
0.000194278
0.000163555
0.000179224
0.000157714
0.000153258
0.000169814
0.000148624
0.000159756
0.00643304
0.0493364
0.0388088
0.000157617
0.00835731
0.000213115
0.000151677
0.00124622
0.0541182
0.000144745
0.000158775
0.00014369
0.056762
0.0158513
0.000248924
0.000148324
0.000161609
0.000157776
0.000149385
0.000199106
0.000152755
0.000175538
0.00477212
0.0576991
0.000138307
0.000159778
0.000157788
0.0193447
0.000141385
0.014258
0.00727997
0.000174243
0.000808368
0.0287463
0.0478018
0.000156724
0.000307982
0.000194521
0.000154502
0.000137882
0.000141944
0.0553313
0.00686005
0.00990685
0.00016936
0.0564154
0.000151256
0.00190023
0.000146975
0.000160511
0.000154501
0.000138148
0.0175984
0.000154475
0.0325094
0.0288881
0.0135545
0.000189294
0.000183577
0.0151283
0.0531894
0.000146677
0.00392492
0.000139227
0.000134265
0.000144944
0.00300908
0.000150332
0.0105562
0.00017517
0.00563352
0.000186956
0.00706709
0.0121384
0.000212775
0.00013786
0.000198069
0.000204392
0.0168775
0.000150854
0.000139595
0.000159892
0.0252251
0.000152757
0.00505066
0.00966491
0.000180718
0.000194423
0.000151039
0.0050184
0.000151912
0.0463897
0.00013667
0.00539581
0.000170375
0.000149435
0.0101988
0.0120339
0.000138078
0.000187918
0.00016419
0.00896405
0.000355324
0.000228613
0.00580372
0.000152408
0.00019856
0.0399491
0.000154797
0.00251537
0.00015744
0.000192023
0.00017285
0.00793318
0.0324318
0.000150039
0.0321006
0.000155656
0.000183976
0.0505416
0.00935122
0.000184679
0.0354484
0.0175179
0.000149101
0.00437387
0.000205376
0.000170881
0.000154452
0.0456115
0.000138394
0.0115459
0.00524526
0.000207267
0.000143904
0.000178776
0.0330467
0.000184164
0.0416011
0.000153583
0.000160983
0.000213281
0.0483097
0.000163188
0.0528864
0.00497344
0.011151
0.000153173
0.0490638
0.0450961
0.019449
0.000144948
0.00034502
0.000150326
0.0537664
0.000212457
0.00440959
0.00550869
0.000152924
0.000151532
0.000144759
0.0187909
0.0540289
0.0179809
0.0127622
0.000142954
0.0359829
0.0550316
0.000200683
0.00735215
0.0351588
0.000183939
0.0113001
0.000158312
0.000162598
0.0559098
0.051052
0.000187843
0.0202578
0.000154435
0.000146724
0.0485743
0.0325146
0.059773
0.0169771
0.000176956
0.000152686
0.000160935
0.0569533
0.0112433
0.0001441
0.000180897
0.0017588
0.000146629
0.000151077
0.0541745
0.0281892
0.000159808
0.000145189
0.000154149
0.000158946
0.000189217
0.000151693
0.000148045
0.000167667
0.000140007
0.0306036
0.000179917
0.0394511
0.000150302
0.000165801
0.0402183
0.0546045
0.000173812
0.000216456
0.000143789
0.00017813
0.000158132
0.000206824
0.000199439
0.000146999
0.00025545
0.000180516
0.000142707
0.000164829
0.0465858
0.0234535
0.0295717
0.000146952
0.000174431
0.0557179
0.00418638
0.000160393
0.000150235
0.000145633
0.00328475
0.000151297
0.000144707
0.000170095
0.000146342
0.0401651
0.000182063
0.000152605
0.000162805
0.000146103
0.000152608
0.020747
0.000184262
0.000191759
0.00819762
0.000196161
0.000153024
0.000143599
0.000149647
0.000149934
0.000152109
0.000164805
0.000207212
0.0493019
0.000156213
0.000202814
0.0299071
0.00510147
0.00014853
0.000140868
0.000158278
0.0483746
0.000149282
0.0310425
0.0359358
0.000193974
0.000162301
0.0190726
0.000148663
0.000175373
0.00013988
0.000149045
0.000153095
0.000143716
0.000169219
0.0514252
0.000217223
0.000182807
0.0313316
0.000208988
0.000220573
0.000172333
0.0327472
0.00800129
0.000203129
0.0473909
0.0545783
0.000202214
0.00505941
0.000151941
0.000150683
0.0353279
0.000144908
0.000162867
0.0454953
0.000768205
0.0432193
0.000313945
0.000141193
0.000420445
0.000150664
0.00017575
0.000146935
0.00165398
0.0189037
0.0520646
0.018167
0.000151037
0.000139476
0.000191434
0.0193929
0.0399049
0.00020825
0.0422222
0.000142044
0.0469082
0.0321112
0.000187869
0.00016365
0.000151419
0.000153025
0.000161843
0.000151965
0.000150681
0.000162197
0.038698
0.000193725
0.0336337
0.000193712
0.0403722
0.000149515
0.000144121
0.000146329
0.00016173
0.000141213
0.000151689
0.000180135
0.0468346
0.0133618
0.0556325
0.000157753
0.0133387
0.000477838
0.0536135
0.0363776
0.000152206
0.000142895
0.00306939
0.000151384
0.000138343
0.00408056
0.0400375
0.0488367
0.000148233
0.000150659
0.000161062
0.000183577
0.0452615
0.00013932
0.000164493
0.0350784
0.000153889
0.00381498
0.000183331
0.0456143
0.000152442
0.03107
0.0224408
0.000183528
0.0566336
0.000202486
0.0336196
0.000147265
0.000166439
0.000142358
0.000174611
0.0236391
0.000168646
0.00726088
0.00015959
0.000144456
0.000145089
0.0539289
0.000182211
0.000201363
0.000765706
0.000138993
0.000191855
0.00907364
0.000197442
0.000151408
0.000157484
0.000151738
0.000195256
0.000149692
0.000144036
0.0538619
0.0584046
0.0528578
0.00870656
0.0371781
0.0124411
0.00018963
0.0566605
6.62305e-05
0.000145644
0.000165639
0.000133332
0.000153392
0.0572478
0.0566012
0.00015716
0.00620542
0.0504785
0.000168048
0.00015584
0.000175996
0.0442666
0.0537267
0.0384479
0.013498
0.0397124
0.000133546
0.0303423
0.000201485
0.00510492
0.0567855
0.000145137
0.000201447
0.010555
0.000180037
0.0273777
0.000154809
0.00204098
0.0115179
0.042787
0.000190921
0.000176188
0.0220809
0.000204377
0.0420212
0.0496987
0.0402448
0.000202285
0.0496686
0.000150914
0.000161659
0.000183603
0.0276297
0.00302431
0.0329165
0.000145925
0.000205911
0.000206676
0.000149379
0.0549782
0.000144884
0.000196724
0.0273026
0.000144568
0.0498794
0.0476201
0.0468976
0.0476344
0.0381185
0.000184481
0.000147297
0.0575193
0.000158955
0.000152414
0.000181654
0.000161053
0.0382905
0.000161067
0.000176084
0.000162267
0.000143262
0.0466819
0.000159308
0.000202304
0.00436533
0.000138338
0.031247
0.000201098
0.000156235
0.00822331
0.0296929
0.000143868
0.000223179
0.000154354
0.0506121
0.000197149
0.000159787
0.000200933
0.000159459
0.05804
0.0392311
0.000192214
0.0153579
0.00016749
0.000145803
0.0469483
0.000159762
0.000150309
0.0480799
0.000177351
0.000141799
0.000142416
4.20673e-05
0.000159028
0.0276651
0.030538
0.000602674
0.0146494
0.000183936
0.00019575
0.000147958
0.0582351
0.0207932
0.0193991
0.00014512
0.000151241
0.000193876
0.000176354
0.00450822
0.000150572
0.0024851
0.000149081
0.000167483
0.000144096
0.000625926
0.00665749
0.000202179
0.0319436
0.0196242
0.05357
0.0380188
0.000134506
0.0404686
0.0439121
0.0255855
0.000142231
0.016771
0.0211092
0.0117963
0.000202245
0.0389963
0.000200831
0.0585699
0.000180308
0.0283633
0.000137972
0.000183653
0.000178885
0.000144479
0.000189933
0.0162947
0.000176632
0.012785
0.0455985
0.000143825
0.000142054
0.000171224
0.000144714
0.0183194
0.000139399
0.000141599
0.058777
0.0204885
0.00018251
0.000200886
0.000149801
0.000207093
0.00798621
0.0387309
0.00866992
0.00016232
0.0390438
0.000158368
0.000139778
0.000157333
0.0335108
0.0258493
0.0298903
0.0239249
0.000155239
0.000142638
0.000144894
0.000151942
0.0001654
0.018214
0.045684
0.000171955
0.0553516
0.0273216
0.000195837
0.0186408
0.000147231
0.000172075
0.000201391
0.000145955
0.000239543
0.000167635
0.000161049
0.035345
0.038534
0.000139734
0.000177043
0.000173126
0.000200194
0.0207906
0.0497569
0.0578463
0.000152803
0.000192709
0.0556518
0.000193025
0.000201164
0.000210477
0.0454067
0.0602756
0.0557845
0.000138679
0.0500183
0.000153208
0.00016065
0.000146852
0.000193858
0.0596877
0.0188494
0.00184693
0.0106971
0.000192515
0.000137954
0.000140732
0.000150889
0.000155668
0.000182622
0.0580802
0.0527533
0.000191453
0.000192232
0.000153577
0.000193028
0.00013904
0.0454367
0.000206563
0.000152278
0.000423979
0.000200457
0.0417585
0.0308436
8.11272e-05
0.00441123
0.000164976
0.0206269
0.0255162
0.0556171
0.00506325
0.000158192
0.000193507
0.000149963
0.0527678
0.00753284
0.000183601
0.032073
0.0247543
0.0315522
0.000197146
0.000494835
0.000191574
0.000141336
0.000202395
0.000199736
0.000161686
0.000194044
0.000174668
0.000178044
0.00934282
0.000212673
0.000161131
0.00017572
0.000178587
0.000179461
0.000156584
0.0489566
0.000198406
0.00592642
0.00952246
0.00014785
0.0364707
0.000145366
0.000165093
0.000161773
0.0370062
0.00018596
0.0419357
0.0212735
0.000195026
0.000190929
0.000202289
0.0288661
0.000201637
0.0153866
0.000164801
0.000180698
0.0001503
0.0376143
0.00519475
0.000160854
0.000158209
0.000185469
0.00016465
0.000164036
0.000182333
0.000177413
0.0001514
0.000182339
0.0258333
0.0193078
0.000216752
0.000181166
0.000139874
0.0305484
0.000173268
0.000188336
0.000201424
0.000179077
0.0450287
0.000138701
0.000172366
0.000164707
0.000181601
0.000146516
0.0353366
0.00514945
0.0471565
0.000186229
0.0556837
0.0215992
0.000163868
0.0295061
0.000188847
0.0195072
0.0097089
0.000194289
0.000161655
0.000177752
0.00019662
0.000161268
0.0354113
0.0300934
0.00647386
0.000141419
0.0236061
0.0215946
0.0227929
0.000144356
0.000183178
0.000147561
0.000176018
0.0470641
0.000173714
0.000172172
0.000142028
0.000141426
0.0221899
0.0337425
0.000151226
0.0339978
0.0180439
0.000138226
0.000188114
0.0372748
0.000204903
0.000200182
0.000146267
0.000168453
0.000215119
0.000153592
0.0001463
0.0478382
0.000171996
0.0357339
0.000193708
0.000165576
0.0600318
0.000212706
0.00241926
0.000142308
0.00424523
0.000169226
0.000166941
0.0264642
0.000180514
0.000152972
0.000205773
0.000162415
0.000162096
0.000144598
0.00129277
0.000147703
0.000205041
0.0458429
0.000201853
0.000143699
0.0363374
0.000171279
0.0212691
0.00618984
0.0318723
0.000207486
0.0414233
0.000139446
0.000193913
0.000163271
0.000143483
0.00381858
0.0420151
0.000161491
0.000196488
0.000180553
0.000193338
0.0314484
0.000164585
0.000194539
0.000298094
0.0307061
0.0283942
0.00012268
0.000293118
0.000140887
0.000205508
0.00018428
0.0135403
0.0434803
0.0456321
0.0500261
0.0528748
0.000141236
0.000183284
0.000144846
0.000154806
0.000151268
0.00549992
0.00370959
0.000209179
0.000145369
0.011599
0.000168609
0.0291955
0.000153371
0.000200666
0.00017056
0.000188926
0.000186578
0.000199912
0.000157367
0.013082
0.00024355
0.000142714
0.015314
0.0260226
0.000194769
0.000158342
0.000173394
0.000147398
0.000146623
0.00018802
0.00182654
0.00870955
0.0149031
0.000194885