/*--------------------------------*- C++ -*----------------------------------*\
| =========                 |                                                 |
| \\      /  F ield         | OpenFOAM: The Open Source CFD Toolbox           |
|  \\    /   O peration     | Version:  v2012                                 |
|   \\  /    A nd           | Website:  www.openfoam.com                      |
|    \\/     M anipulation  |                                                 |
\*---------------------------------------------------------------------------*/
FoamFile
{
    version     2.0;
    format      ascii;
    class       volScalarField;
    location    "250";
    object      ddt0(omega);
}
// * * * * * * * * * * * * * * * * * * * * * * * * * * * * * * * * * * * * * //

dimensions      [0 0 -2 0 0 0 0];


internalField   nonuniform List<scalar> 
13917
(
-0.000413697
-9.25194e-06
0.089263
-0.000169625
2.86864e-06
0.0687554
0.0658442
0.109504
0.234702
-0.000506071
-0.00670633
-0.00223158
-0.000176599
-0.980419
-5.95769e-05
-6.28532e-05
-9.53457e-06
-0.00098414
-0.00223909
5.02994e-06
6.44953e-07
0.0638436
5.11019e-06
0.112395
5.89875e-06
0.0573294
-1.34636e-05
-0.000983846
-0.0175265
-0.00210147
-0.00051226
-0.000181744
-8.23306e-05
1.82266e-05
3.39385e-06
-0.039553
5.22458e-06
0.0324004
-0.000293261
0.0428428
6.13115e-06
-2.58679e-07
-1.79479e-06
-0.00177611
-2.00801e-05
-0.000107039
-0.000985843
-0.00176893
-0.0258583
7.81069e-06
-0.000274
9.72231e-07
0.0904202
5.42937e-06
-8.63608e-06
-0.000237633
-0.00700411
3.34474e-06
-0.000149808
-1.57367e-05
0.222575
-8.23964e-06
-0.205406
5.58385e-06
0.00902074
-0.616753
1.76616e-07
6.46016e-07
-0.0179494
-0.000302674
2.48381e-06
0.237754
0.0561056
4.45584e-06
0.00133291
-0.00289232
0.0217111
-6.58255e-05
0.049519
8.53853e-07
2.52113e-06
8.98425e-08
0.0241049
0.0415007
0.120102
-5.36582e-05
3.69372e-06
-0.698546
-0.000274249
-4.14457e-06
0.0564143
-0.00166701
-1.27398e-06
-1.58192e-05
0.0139677
0.0138243
-0.00567671
-0.00146606
-0.00287763
-0.00204871
5.54851e-06
1.71883e-05
-0.00246932
-9.00142e-05
3.703e-06
0.249018
0.00150373
-0.00188597
-9.92287e-06
-0.00055847
0.105221
0.0647285
-0.00357529
0.247991
-6.82418e-07
0.00784449
6.17558e-06
0.00817019
0.142245
9.45361e-05
-1.58121e-07
-0.0185127
-0.055001
-0.000687643
7.73085e-06
-1.11173e-05
-1.28822e-05
8.04592e-06
-2.18192e-06
0.0519491
0.0145413
-5.77105e-07
-2.08676e-05
1.48631e-07
-0.869044
0.108536
-0.000448636
0.0116176
2.09097e-07
9.96916e-05
-0.105272
-3.91416e-06
-1.14604e-06
0.000833645
5.74147e-07
0.192565
-0.0210271
5.17916e-07
-3.37198e-06
-0.000186211
-0.001592
0.00204263
-0.00376486
-0.000283015
-0.000197605
0.174255
-0.000279034
0.00994463
-0.0498903
-0.653629
-2.93315e-05
0.00237131
5.02528e-07
-0.00501586
-0.00342743
-0.00821661
-8.86231e-05
-0.0015854
-9.23379e-06
-1.31486e-05
-0.000125315
0.0955325
-0.00432606
-1.54944e-05
0.133033
3.89474e-05
0.0218753
-0.015623
0.166289
4.1906e-06
-0.00197192
-0.000485107
-4.55629e-06
4.03965e-06
-6.17897e-05
0.0642027
-0.016412
0.306737
-0.000593645
-0.00889764
-0.138514
0.147031
-0.0101247
4.95281e-06
-0.0185386
0.00479191
-2.02496e-05
-4.3554e-08
-0.00405127
-0.705737
-0.000297338
7.93663e-06
-0.00143527
-0.00156643
0.0446105
-0.770677
3.66403e-06
3.58895e-06
-0.00136447
0.0717672
-2.4306e-06
0.0674195
0.0338413
-0.00900704
3.64649e-06
0.0144752
-0.00122208
0.0959276
6.01787e-06
0.1888
4.28981e-06
-0.00184337
6.96578e-06
0.0399217
0.253354
-6.95177e-05
-0.0413437
-0.00020994
4.11614e-06
-0.0469545
-0.00420463
-0.000571277
0.100615
0.0287167
5.16549e-06
-0.000196364
0.0720509
0.0859742
2.42543e-06
6.87631e-06
0.0295839
-0.00616946
6.8986e-07
-0.11548
-0.00186326
0.00170307
-0.000412642
1.69968e-06
-0.000707067
0.041736
-4.08019e-05
-0.0031198
-0.00227349
-1.33058e-05
4.17028e-06
-0.00244423
0.0167798
-0.00351399
-2.16511e-05
-4.50108e-05
3.25275e-07
-0.0919997
0.137345
-0.0449532
4.85955e-06
0.0666883
-0.140534
0.0277449
0.0469318
-0.00323506
1.58046e-06
8.58998e-06
-0.0011052
0.0253797
-0.00319214
-0.000149101
-0.399437
-0.00125127
-6.05535e-07
0.100292
5.29991e-06
0.144894
-0.000268798
1.74521e-06
-0.000111178
-0.000252339
0.00341745
-0.0896564
-0.000255383
-3.73773e-05
-0.0330699
0.104704
0.174612
6.04264e-06
0.0354556
-6.74834e-08
-3.76059e-05
6.04355e-06
-0.0724892
6.41812e-06
-0.0018613
-0.000378121
-8.95248e-06
-0.00148436
-4.3562e-05
-0.000173806
-0.000344128
-0.00128274
-8.23351e-06
3.47702e-06
0.10195
-0.0960888
6.04347e-06
7.60269e-06
0.0856859
2.39039e-06
0.0645396
-2.79574e-06
0.0480765
-8.58354e-05
-0.0105582
-0.000616532
-0.00197318
-1.70521e-05
-1.15473
-0.0175221
-0.000107051
-0.00670632
-0.00302042
-3.59636e-06
0.0157765
-0.00991482
-0.0902307
0.000108211
0.111418
-0.000224501
0.134682
-0.00583664
-0.000558895
-0.00276768
0.0828439
1.57333e-06
-0.000343116
0.114625
1.34156e-06
-3.3067e-05
-0.208451
-0.00482711
-1.68525e-05
-0.381669
-0.00407455
6.47087e-06
0.227704
-0.0686651
5.74123e-06
6.13967e-06
-1.00471e-06
-3.02905e-06
-0.0683476
0.15311
-0.141359
0.111222
5.36918e-06
-0.00338419
0.00554128
-0.00105151
0.0634987
0.041843
0.251837
4.66606e-06
-0.0673061
6.88175e-06
0.0692402
-1.55172e-05
-0.00387189
-0.00215323
-0.000226624
2.26787e-06
-0.00137424
-0.00209342
-0.00151303
0.137234
0.119054
0.122211
-0.000856932
-0.000543528
7.00687e-06
0.0988039
0.0580869
2.16928e-06
-0.631672
3.71762e-06
0.0146832
-8.55541e-05
1.60729e-06
-4.31283e-05
0.0386128
-4.21688e-05
0.0182228
0.504826
-0.0132406
-0.0661087
-3.75088e-06
-0.0411392
-0.0655489
6.08612e-06
-0.00470103
1.70587e-06
3.92032e-06
-0.00227367
1.09159e-06
3.4502e-06
5.37766e-06
0.0123456
7.88285e-07
0.100757
0.0542797
0.0207664
-0.00928463
0.0271795
0.0854048
-0.00103275
5.30377e-06
-0.00484015
-0.000278859
-0.000234331
4.84415e-06
0.182388
0.0664953
0.0583594
-5.50366e-05
-0.00272748
5.78535e-06
-0.000317272
-0.00176727
-2.8867e-05
-0.0561474
-9.32767e-06
5.98715e-06
0.0803517
0.0204523
0.0251816
-0.00302122
0.0238375
0.0265858
0.115594
-0.0248976
-2.8275e-06
-0.00135507
-3.08606e-05
1.77377e-06
-0.868942
-0.00105073
-2.2183e-05
-0.00108011
-0.000948091
-0.00171135
5.9016e-06
-0.00381774
0.544074
-0.02215
0.0642064
7.26493e-07
2.68115e-06
-1.9926e-05
-0.000276537
3.90866e-06
0.0674956
0.252098
-0.000129752
0.131027
-0.000224621
-0.00515467
0.134372
-0.0200433
-0.0183927
-0.0665657
-0.0038394
-0.000996713
-0.005637
-0.00121002
0.00481126
-0.00955746
-0.00157469
-0.00274426
-6.18826e-06
-1.02207
-0.000315536
-1.54046e-05
-0.000235647
-6.74318e-05
0.015726
0.24795
3.46316e-06
-1.63811e-06
0.0725502
0.112958
1.45086e-06
0.126924
-9.6335e-05
-0.00754108
3.59788e-06
0.0527377
-0.119771
-0.000184743
-2.36385e-05
0.0278521
-0.00799537
0.0375902
2.3007e-07
0.0318218
-0.00700418
0.0969318
-1.46088e-05
0.101272
0.251406
-0.00105848
5.92578e-06
-8.40674e-06
-0.00310676
-0.216422
-2.18596e-05
6.41709e-06
7.39085e-06
7.36329e-06
0.0633345
-0.692377
-0.00105102
-0.0256113
6.21394e-06
5.80546e-06
-0.00271906
0.206943
-0.000433114
-9.15769e-06
4.42757e-06
5.10654e-07
0.105366
0.181886
3.23842e-06
2.08087e-06
-0.0638492
-0.00119914
-0.000624725
2.67128e-06
-4.14792e-05
-0.000139907
-0.00272629
-0.00548152
-0.0134767
-0.00624557
-0.00269262
-0.53695
-0.00117743
5.96303e-06
0.0363923
2.35402e-07
-4.05492e-05
-0.000185142
-0.937407
0.000776709
6.39999e-06
-0.026209
-0.00240542
0.910964
-0.002705
-0.00178174
-0.00101623
2.27544e-06
0.201233
-0.011592
0.0666519
-6.67745e-06
-0.000318476
-0.0128574
0.0522242
0.291885
-0.00153034
-0.00492655
-5.88284e-05
-8.38064e-05
2.1817e-06
-0.00421527
-0.00268048
1.16567e-06
-0.00130221
0.00549188
0.0723457
0.0434799
-6.26806e-05
-0.00485025
-0.261566
-0.000164491
-2.02881e-06
0.015218
0.16794
0.214003
-0.0137639
-2.65143e-06
0.184102
-0.00280341
6.28691e-06
-0.000332431
-0.0026997
0.00214998
-0.00204043
0.0511564
-0.0056649
-0.000959105
0.201041
-7.46853e-05
-0.0750157
1.33154e-06
3.47055e-06
0.0486159
0.182656
-0.0845765
-7.49303e-05
-1.53247e-05
1.9853e-06
-0.00128782
-0.0232156
-0.00871667
-0.000102428
-0.00798567
-0.00134526
2.97205e-06
-0.0139095
-0.0118396
-0.0232001
6.45982e-06
-0.00529975
-6.44456e-05
0.588997
-0.00115441
-0.00145578
-0.000345442
7.42368e-06
-1.05401e-05
-1.50371e-05
-0.0029849
-3.65442e-05
-0.0191157
0.0548775
-0.00155422
6.62009e-06
-0.00438717
-0.109263
-0.0287869
-3.73021e-05
2.14795e-05
6.04955e-06
-0.000480525
-0.000159226
0.249245
1.66403e-06
-0.450037
-0.000456756
-0.00782018
-0.00113885
0.0588784
-0.00258772
-4.19287e-06
0.0274626
0.140001
1.06732e-06
-0.000180777
-0.173722
-0.0061228
-0.00356827
2.28001e-06
-2.71182e-05
-0.00698088
-0.000235353
-0.00144282
-0.00218458
-1.24958e-05
-0.00160036
0.0922406
-3.47872e-05
-0.000127812
7.13813e-06
-0.152952
1.75461e-07
-4.58995e-05
0.0949836
-2.65429e-05
0.158815
-0.00019431
-0.00117469
6.97951e-06
-0.000291904
5.82711e-06
-0.000919009
7.75498e-06
0.0016556
-9.6677e-05
0.196667
-0.102481
0.210101
-1.3354e-05
2.03753e-06
-0.000911819
-0.000571039
-0.0379233
0.228475
-0.000938777
4.57351e-06
0.0111672
-0.0278692
-0.0294672
-0.0131889
-0.00123932
0.0497886
-0.000380793
-0.00118478
-0.00453557
-0.00269677
-0.000936554
0.0143575
-0.00105535
-0.000154763
-0.00315363
-0.000104754
-2.06833e-05
-0.000472147
-0.00053732
-0.000167308
5.6619e-06
6.58254e-06
-0.00151455
-0.000111651
-0.00150049
3.61987e-06
3.71792e-06
1.55657e-07
-3.6263e-05
-9.7275e-06
-0.000122311
7.25135e-06
0.0523134
-0.00231586
0.0264901
4.9244e-06
1.11977e-06
-0.00106421
-0.00101049
1.40104e-06
0.131874
-0.000960063
-0.104096
-0.000470096
-0.00293199
-5.5364e-05
3.26831e-07
7.84589e-06
-4.3841e-05
0.0918498
7.00298e-07
-0.114318
-0.000128829
0.0209053
-0.00273594
-0.00124806
-0.00650201
-1.78175e-06
-2.63217e-07
-0.00235529
1.66488e-06
-4.55702e-06
0.0745077
-1.94939e-05
1.42749e-06
-0.000245926
6.69886e-06
1.94815e-06
-0.000176354
0.00350254
-0.0915504
-0.000369797
-3.47897e-05
6.6502e-06
0.0666024
-0.00293001
-2.49194e-06
-7.48606e-06
0.0929676
-0.197343
0.120388
-0.00196702
-0.000154755
5.24697e-06
3.40646e-07
-0.0015493
-0.000400856
-1.772
-2.43082e-06
0.0027496
-1.99164e-05
-2.11491e-05
0.123735
3.59881e-06
-0.000327757
3.00088e-06
6.3253e-06
-0.000522314
-0.000571559
-4.40269e-05
0.178313
0.0254056
-0.00124874
5.85893e-06
-1.08884e-05
-0.00801338
-0.211416
1.30668e-06
-0.874032
-9.22019e-06
-0.000495738
-3.34811e-05
-2.049e-05
-0.25327
-2.56642e-05
0.0401167
-0.00053505
-1.61834e-07
-7.34717e-06
8.39579e-07
6.16485e-06
-0.000121295
-0.0231818
-3.20856e-05
-1.12499e-05
0.184242
0.226847
-0.00106217
-0.00041579
-0.0016867
-0.000190781
-3.44704e-06
-0.000144092
0.0395602
-0.00329915
3.03068e-06
-1.67288e-05
0.235629
-0.000653555
0.124988
6.15593e-07
-6.60239e-07
-0.303524
-0.000593683
-4.90362e-05
0.0749607
0.00662817
5.63061e-06
-0.00367282
7.80243e-06
-2.61871e-05
4.7938e-06
0.0739693
-1.04433e-05
-5.11817e-05
-3.51388e-06
0.0498394
-0.00024353
-0.00775352
-0.000912526
-2.40089e-05
-0.000148989
3.58756e-06
0.112679
6.57495e-06
-3.41669e-05
1.56166e-06
-0.00964499
1.15186e-06
-0.00564224
0.0729541
0.0928301
1.22466e-05
-0.095991
0.0947599
3.86471e-06
0.339485
0.251976
0.0956137
0.0269371
0.172828
-0.0455102
-0.0043972
-9.65262e-06
0.0469845
-0.000579166
0.0542845
-1.32034e-05
-1.00404e-06
-2.24913e-06
4.2912e-06
-0.000237041
-0.000271951
-0.0503546
-1.38699e-06
2.20949e-06
0.0283018
-0.00508747
8.01225e-07
0.00359599
-0.000305327
-3.29264e-05
-0.105805
0.00251424
-1.80241e-05
-0.000237356
0.0629246
0.105792
-0.00768789
-3.17801e-05
-0.00881128
-0.00225623
0.0843883
0.254639
-0.00416456
4.2538e-06
-5.68044e-05
-1.83273e-05
-8.68768e-06
-4.20546e-05
-1.18199e-06
-0.00014127
-0.000345269
0.143617
-0.00486063
-5.07309e-05
-0.0031297
0.119546
-0.000487734
-1.97463e-07
-0.024217
-7.0544e-06
-2.93246e-06
-0.000613924
0.180311
2.57412e-07
6.03586e-06
0.0687349
-0.18646
-0.315739
-0.00257614
-0.0430389
5.69338e-06
-0.00692682
-8.52906e-07
7.04893e-06
-1.18045e-06
0.0649504
0.102363
-1.3768e-05
-5.47318e-06
2.44072e-06
-0.114999
-3.08917e-05
-0.000338793
1.63327e-06
-1.15811e-05
-0.00600484
-2.66455e-05
-0.000977396
-0.00707315
0.027797
-9.58316e-06
0.00288304
-6.39347e-05
0.0568707
0.11125
4.29421e-06
0.0983592
-0.00188669
0.000197668
7.09463e-07
0.0363119
1.21158e-06
-0.000223918
-0.000424998
-0.00266478
0.0718436
-0.0242371
-0.293994
0.179091
7.39488e-06
-0.0665455
-2.10386e-05
-0.000118016
0.0695513
1.43709e-06
1.03399e-06
-3.82556e-05
-2.6644e-05
0.117441
-1.42259e-06
5.32428e-06
-0.00164895
-0.00068518
-0.00127145
-0.0591174
-0.00307683
0.0844254
-0.00236523
-0.000612184
-0.00113973
0.0114178
-0.0010715
-0.00372192
0.0549088
-0.000240202
-3.25343e-05
0.0226972
-0.0317041
1.46129e-06
-0.00243691
-0.000463619
-6.96793e-05
-0.000254518
-3.10412e-05
-0.000439159
-6.46692e-07
-0.0011675
0.0041753
6.50837e-06
-0.00102317
-1.30668e-05
-0.00258021
7.39771e-06
0.000211993
-0.00139464
-0.000121571
-3.9067e-05
-1.46413e-05
0.0213396
-0.00148919
0.147619
3.35801e-06
-1.01118e-05
-0.0016009
3.09073e-06
-0.00190249
-0.0013698
-6.98065e-05
-0.00187387
-1.38178e-05
0.143137
2.50362e-07
-0.000935693
-0.069684
-0.0405294
6.9973e-06
-4.0766e-05
0.0484841
6.18482e-06
6.5554e-06
0.0906932
0.087988
-7.06601e-05
-0.218435
5.39208e-06
-3.90321e-05
0.0676312
-4.14138e-05
-1.95868e-06
-0.795437
-1.70943e-05
-0.0449189
2.79588e-06
-7.83329e-07
-2.145e-06
-0.00284784
0.0344933
2.96583e-06
-2.24167e-06
5.91545e-06
-7.43113e-05
6.76088e-06
0.0122497
-0.00103795
2.01655e-07
0.166662
-0.00135204
-0.0832213
0.03273
0.0155093
-1.29574e-05
-3.82482e-07
1.42054e-06
-0.0236394
-0.00011001
0.035338
0.0971438
-1.88024e-05
0.0649206
0.000428871
-0.00102301
0.0025431
-0.00398617
0.0170365
0.0736679
0.000431059
-0.059375
0.0484611
-0.0022104
-6.18301e-05
0.0241902
0.000221467
-1.43645e-05
-9.70803e-05
0.16396
-0.000164558
3.4663e-06
-0.000342494
-0.0021622
-0.000378426
0.00024528
-4.77254e-05
0.137524
-0.00113209
-0.01704
-0.00325053
-0.0110939
-0.00028672
-1.22882e-05
-1.5603e-05
0.0907918
6.30414e-06
-2.11872e-05
-2.11549e-06
-4.18431e-05
-2.70928e-06
0.000738158
-0.00231709
-0.000872548
-0.00255769
0.0016488
0.0616192
-0.00544965
-4.95053e-06
-0.156288
0.0633456
-4.53205e-07
6.70105e-06
-0.000355939
0.0889208
2.88282e-07
-0.00152257
-0.0140392
-0.000374204
3.25155e-06
-0.000124348
-2.04677e-05
-0.00254742
-0.000230638
7.14691e-06
-0.0391807
0.0494785
-0.000234684
-0.567795
-0.00221818
0.845015
-2.71939e-05
-0.000189803
0.0693839
-0.395028
-0.00426452
-0.0403517
-0.000195135
2.76532e-08
-2.78762e-05
-1.02199e-05
3.42161e-06
-1.61528e-06
-0.000579277
6.39046e-06
-0.00656293
6.8907e-06
-0.000262407
-2.03716e-05
-0.00135393
-0.00754824
-0.0271756
3.96001e-06
-0.0106177
-2.74528e-05
0.0670471
3.51233e-06
5.33252e-05
3.52019e-06
-0.438215
0.051519
-0.00107118
6.18009e-06
-0.00517049
4.9092e-08
-0.00023285
0.0720527
-1.45449e-05
-3.77821e-07
-0.000691193
-0.000333298
0.0640059
6.33938e-06
-0.000281939
-0.000136788
5.42862e-06
-0.000769871
-1.07602e-05
4.15196e-06
-1.69731e-05
0.0338337
-9.6879e-05
-0.554507
0.203515
-0.000949795
0.0318429
-8.6315e-05
4.08367e-06
-0.000266593
0.0781307
-0.00014395
-0.000203191
-0.00114539
-0.352265
5.66423e-06
0.0360809
-0.00110954
-0.00157489
-1.47188e-06
-3.30962e-06
-0.218194
-1.57391e-06
-5.97583e-08
0.00192954
-1.33015e-05
-2.89303e-05
-0.000226105
-0.00265509
0.00849259
0.0636889
-0.000274541
-0.00257782
0.0247623
0.0533985
-0.000954588
-0.00468272
0.0827206
-0.000743825
0.0567159
3.23959e-06
0.286732
0.0337676
-1.71447e-05
1.0541e-06
6.85304e-06
-8.38352e-05
-0.000607106
-2.29498e-05
-4.4721e-07
-0.00397937
-7.49708e-05
0.000123949
0.0440589
-0.000103606
-0.000148029
0.2389
-4.9203e-05
0.12078
-0.000192657
-0.00056856
5.27898e-06
0.0569871
0.100143
1.84235e-08
-8.96634e-05
0.042914
0.000106065
0.0467711
7.12222e-06
-1.77375e-05
0.0695032
-7.73661e-05
-0.00136953
0.375489
2.14841e-06
-0.000898389
-0.000226142
-6.1343e-06
8.08123e-06
0.0463178
0.0939128
-1.74536e-05
-0.000110789
1.9011e-06
-0.000135843
0.000447204
-0.0375067
-8.86599e-06
0.00890322
0.0317116
-0.0230502
-0.193838
-7.31542e-05
-0.00808668
-0.00267074
0.000144353
3.66124e-06
-0.00194256
0.0444394
-1.0971e-05
-0.0005641
0.123088
0.0102926
0.0219783
-4.03152e-06
-3.75767e-06
-1.4573e-07
1.13e-06
0.108067
-0.00143298
-0.00014588
-9.78532e-05
-0.000125607
-1.61714e-07
3.89683e-06
2.28763e-06
-0.00248951
-0.00104545
0.15567
0.00183062
0.343832
0.0148028
-6.7444e-05
-0.00114138
5.42519e-06
-0.000161651
0.0674181
-5.58945e-06
-4.39468e-05
-0.00141873
-0.00400279
-0.00614646
0.0484118
-0.250657
-7.03027e-06
0.0222727
-3.44608e-06
-3.36277e-05
0.00167671
-2.12299e-08
-4.07466e-05
-0.0191292
0.110048
-1.59868e-05
0.0692421
-9.05639e-06
-1.34045e-05
-4.7733e-05
0.0153227
-0.000210415
-0.000193142
0.233004
-4.10953e-05
-0.736132
0.0297103
1.41846e-06
0.00326436
6.99746e-06
0.0697668
-0.0015324
1.6496e-06
0.0593986
-0.00128407
-0.00101745
-6.49181e-07
0.0994039
0.000174475
0.163084
-0.000120056
-0.000442485
0.067297
-1.19051e-05
0.0752111
2.40269e-06
-0.00106694
-0.00130471
1.49067e-06
0.0739255
-3.2653e-05
-0.00438257
-0.000962695
0.00170144
-0.000117119
-0.00512529
-6.30707e-06
0.119437
7.65987e-05
0.144366
-0.000158158
-0.00224756
-7.20863e-06
-0.000506618
2.22731e-06
-0.00259249
0.0788654
-2.2575e-05
2.32145e-06
-0.000914318
-6.7717e-05
0.0374351
-3.78367e-05
0.0703081
-0.0207698
-0.000345866
6.68556e-06
6.9937e-06
1.6263e-06
-3.09384e-06
-0.00288791
-0.00329314
0.000247712
-0.000122086
5.69365e-06
-0.564345
-0.000116796
-0.000304611
0.013457
2.86033e-06
0.560321
-0.00119883
-0.000547739
-0.00437147
0.034198
-0.0384564
0.072335
-0.408334
5.92488e-06
-0.00604525
0.0843418
-0.0754675
3.51744e-06
2.162e-06
-0.00623314
0.0555822
0.0950874
-0.0201525
-7.96324e-05
0.00353087
-0.000757727
0.0284321
0.0677184
-0.00110535
-0.00566797
-5.4251e-05
-0.00145533
-0.00411383
3.99043e-06
-0.00292597
0.120566
1.95275e-06
0.00548743
6.98614e-07
-2.56085e-05
-0.0208463
0.0598887
6.28181e-06
-8.73155e-05
-3.03414e-05
-1.52502e-05
-0.000419298
-0.018245
-0.00012255
6.80053e-06
4.95458e-06
-0.00110878
-0.000203786
-0.000185056
-0.0122712
3.24524e-06
0.0784924
0.0677165
0.0923177
-0.00110624
-0.000916285
-0.346184
-0.00053134
0.0454625
-0.0231513
-2.35951
-1.07496e-05
0.246165
0.0265729
4.73911e-06
5.50688e-06
-0.00295129
0.123144
0.0942623
-2.7542e-05
7.0185e-07
0.0242645
-0.742017
-0.759221
-7.58542e-05
-2.44681e-05
0.0203758
-1.52638e-06
0.03382
0.219459
-0.0317237
-0.0411116
2.58224e-06
6.62391e-06
7.31098e-06
-9.89433e-05
-0.0204436
-0.00103936
-0.000250901
4.95129e-07
0.00403944
0.103316
-0.0011062
0.112523
0.0374206
0.125392
0.000489717
3.58176e-06
3.23336e-06
0.0713606
-8.561e-07
-1.3514e-05
-2.14543e-05
-0.0558385
-0.000677713
0.320601
-0.00340317
5.24057e-06
0.215415
-0.000480346
-3.04375e-06
0.048966
-0.00210711
-0.000202941
-4.76822e-05
0.141582
0.134137
1.05192e-06
0.122943
0.0450355
0.211494
-0.351817
-0.00160266
4.85969e-06
-4.47314e-05
-0.101894
-0.000165372
0.0718964
-0.000597295
-0.587641
-0.322763
-1.02986e-05
-0.000152304
3.73147e-06
-4.03001e-06
0.127563
0.178297
1.66292e-06
0.05687
-0.00107704
9.34552e-07
-2.27915e-05
6.70309e-06
-0.00627961
-2.93178e-05
-0.0106496
0.00110067
4.65877e-06
8.11848e-06
0.031691
-0.0447368
-0.000720684
-5.72755e-05
-0.000570663
2.38509e-06
-6.66818e-05
-0.000326763
0.107591
0.0493862
0.129211
1.89252e-06
7.3234e-06
-1.1338e-05
-0.00936962
5.52278e-06
-1.22839e-05
-0.0203577
-0.00155791
-0.0741269
-1.65101e-05
0.133583
0.0486106
8.48171e-07
0.106111
-0.00399816
-0.000915885
0.00430072
-8.78677e-06
0.108546
-0.000376435
-1.41572e-05
-7.55713e-06
-1.47287e-06
-0.117875
-1.73835e-05
-0.000109589
0.000117802
0.013881
0.0321369
1.06507e-06
8.35306e-06
-6.80146e-05
-9.6802e-06
-0.00413188
-5.77224e-08
-0.0016766
-0.00011558
0.0356357
-8.91756e-05
0.0646081
1.23183e-06
0.224058
-3.37758e-05
-3.09663e-06
0.237835
0.0182159
-0.0396851
-0.0341836
-0.00036924
-0.000864729
2.36159e-06
0.0880095
1.12807e-06
5.2351e-06
-0.000286696
-0.00217293
0.352663
0.0951654
-0.00291474
0.119369
-0.00326026
-0.257645
-2.20628e-05
-0.000165756
-0.000357359
0.0909571
1.25201e-05
0.104858
0.0229589
-5.60125e-05
7.41479e-07
2.60866e-06
-0.0610683
0.0196419
-0.000102286
4.41759e-06
-6.89977e-05
-0.000210337
-0.000715047
0.00192143
-0.0037012
6.04709e-06
-0.459439
-0.0017404
0.0428278
-0.00146298
-3.9416e-05
-9.6121e-05
0.200809
7.7767e-06
-0.00177356
0.0760729
-1.30942e-05
-0.0001118
-0.0211575
-0.0106308
-7.92391e-06
-0.257883
-0.000126448
-0.0802659
-0.0011585
0.000193684
-8.59666e-05
0.126299
6.399e-06
-0.000730335
-0.00102307
0.140021
-0.000820441
-0.000930737
-0.00025661
-0.00125093
1.18475e-07
0.148049
-0.000295947
-2.72343e-05
-0.00034909
5.35101e-06
3.03338e-07
-0.108672
3.78907e-06
4.14388e-06
1.85509e-06
-0.00664319
1.02936e-06
-0.000308356
-0.002432
-0.00717876
-0.00312625
-2.40057e-07
-0.00449665
0.0053336
-0.0065722
-0.00146905
-0.000792994
-0.00577768
0.0954148
-0.0208208
2.86335e-07
0.042205
0.0657997
2.0407e-07
-0.000114257
-1.11292e-06
0.357857
-0.00204728
-4.28872e-05
-0.0136856
0.0978578
6.26334e-06
2.59857e-07
0.044843
0.0148582
-0.00231443
-1.40144e-06
-0.378687
0.022874
0.008302
5.59847e-06
0.0951808
-0.00340518
-0.00047577
0.108494
-0.00019405
-8.23834e-07
-0.000333428
-0.00486361
-0.000497403
0.0546074
0.141372
2.27078e-06
0.122266
0.00435366
0.0899935
6.31694e-07
0.00622537
1.50939e-06
4.73407e-06
0.081037
-0.122592
-0.0726272
0.0186715
-0.000156306
-0.00092468
-8.329e-06
0.144284
0.16056
1.57806e-06
-1.71136e-05
-0.00164296
-2.98431e-05
-0.00105016
0.0862194
0.137264
-0.00101101
-3.8675e-05
-5.33863e-05
0.0893532
-2.59232e-05
-0.00118099
1.02649e-06
-2.20481e-05
-0.0255482
-0.104267
-1.11795
-0.0244062
3.40759e-06
0.00498678
-1.10226e-05
0.000577053
0.200251
0.0733423
3.71731e-06
-1.03105e-06
-0.000858866
1.22779e-06
1.16752e-06
0.101671
0.0953274
-7.41382e-06
-9.4804e-06
1.09417e-06
6.54805e-06
-0.0285141
-1.46133e-05
0.0516915
-0.00243827
-0.00204288
-3.58758e-06
-0.000249382
0.153712
-0.000576121
0.00174026
0.144752
-2.32367e-06
0.0327026
-0.000337341
-0.000875151
-0.00311759
0.095122
0.0896489
-0.0021299
6.02149e-06
-0.00339501
-1.37425e-05
-9.85096e-05
8.32571e-07
0.0525899
-2.24238e-06
-0.435288
-0.0551795
-0.000990111
2.46581e-06
-0.0097214
-0.000275016
2.33786e-08
0.109623
-3.59754e-06
-0.00105994
-0.000479922
4.38123e-07
0.161027
-3.26263e-05
0.362479
-1.1188e-05
6.67168e-06
0.165425
0.0289062
-1.59788e-05
0.00104225
-0.00106695
-0.000659245
-0.00180766
-0.000303101
-7.53824e-05
-0.000174832
-0.448218
-4.68539e-05
0.0598043
-0.00218803
-0.082516
-0.0117872
-7.18965e-05
0.112866
-1.65865e-06
0.0720113
-2.37164e-05
0.116929
-0.799766
-0.610986
-0.0231458
-0.00857679
-0.00101872
-3.7789e-05
0.0762796
-0.000314366
2.18474e-06
0.115977
0.193784
-1.01274e-05
-0.000148278
-0.000282023
-0.000283215
-0.000578711
0.038147
7.26e-07
-0.000549727
-0.000785372
-0.000257991
3.90517e-06
-0.0035744
-8.38165e-06
0.0662588
-3.27959e-05
-0.00336935
-0.000353302
-0.000749671
-0.00330339
-0.0640505
-0.00162751
3.23726e-06
-0.00213686
0.0653618
0.2559
-6.41325e-05
0.0698012
-0.000320639
0.0248394
1.36393e-06
-4.17307e-05
0.0493831
-0.00165225
0.075344
0.104207
0.00126669
0.18581
1.19243e-06
-8.99333e-06
0.11319
-0.00634441
-4.95828e-05
0.203792
-0.000171922
-0.000227098
-7.8963e-05
-0.000950452
-1.58911e-05
0.124861
0.163882
0.0194141
-0.142541
-0.000163202
-0.000575134
0.0816869
-4.02923e-05
-2.59914e-06
-0.00148368
3.29691e-07
-0.00341683
0.243828
0.214016
-0.117665
-0.00168167
-6.69308e-05
0.0984249
-6.28669e-06
-0.00255842
1.74113e-06
0.308633
-5.34075e-05
-0.00307878
0.00225848
-0.0033678
6.46179e-06
0.000249231
0.397633
3.83025e-07
-0.00714102
-2.2103e-06
0.0572256
0.108805
-0.00467653
0.00169968
6.93485e-06
-0.0364759
-0.0136582
-0.000713253
-2.3137e-06
-7.75168e-05
5.47465e-06
-0.00163684
2.3842e-06
-0.00351512
1.16178e-06
-2.33078e-06
0.245892
-5.24746e-06
-0.000174551
-0.000229999
-1.63034e-07
0.0216426
-1.0485e-06
-0.000220109
0.0741676
-0.00138693
0.0570046
3.08363e-06
0.132897
-0.00153023
0.184635
-4.60186e-05
-0.00558142
-5.99717e-05
-0.000854041
-0.00732283
-0.00621789
-0.0125528
0.0869254
-0.00839947
-0.102429
1.88849e-05
-0.00597449
0.000254321
-0.209846
-2.69479e-05
-5.70131e-05
3.07012e-06
-0.00166219
-0.00035693
-0.257582
-0.0011653
0.0814907
0.0912207
-0.0239736
2.23863e-06
-0.0342225
-0.00405533
-2.15879e-06
-2.05754e-05
2.50579e-06
0.11345
3.10896e-06
0.338043
-3.38576e-06
-0.000312431
0.0889531
-0.000930153
4.87426e-06
3.38355e-06
0.0337393
5.286e-07
-4.04181e-05
-0.000204124
-0.000239206
-0.000210331
-3.38825e-06
0.049939
0.0108564
-0.000174572
-0.0211388
0.10085
0.0144025
0.0702734
2.42176e-06
4.54812e-06
-0.000919411
-6.69264e-05
-0.00217058
0.0683826
0.0146497
-1.97064e-06
2.22691e-06
0.0292896
-0.730786
-1.23562e-06
2.64288e-06
4.5208e-05
0.393264
0.0560392
-0.000178275
-0.000294867
2.43922e-06
-0.00150396
-0.00824312
0.00212988
-0.00166046
0.000934824
2.77737e-07
-0.00053832
-0.016644
-7.12902e-06
-2.56692e-05
-0.000160675
0.074481
-4.55758e-05
0.0996928
4.84862e-06
0.0443562
-0.000118216
0.000633512
4.25636e-06
6.60043e-06
-0.0145592
0.111364
-0.000257721
0.0222811
0.30573
-5.50609e-06
0.0672459
-0.0378972
-5.44351e-06
0.0404077
-0.212453
-0.00401518
1.39784e-07
0.0291345
0.0896841
-3.14377e-05
-5.59983e-05
0.0662321
-0.000280329
2.08036e-06
-4.59596e-06
-3.38274e-05
-0.000138241
-0.00154034
-0.0447667
0.00297051
-0.00141613
-1.5e-06
-1.63254e-06
0.0819599
-2.43203e-07
-0.000499024
1.66345e-05
-7.01241e-05
-0.000970639
5.31301e-06
-3.16448e-05
0.00482022
6.58669e-06
0.093168
4.68887e-06
-1.96263
0.0329542
-0.00256241
-7.08565e-06
-8.12708e-07
0.104922
-1.57437e-06
-8.6917e-05
8.2801e-08
-0.006155
-0.2706
-0.000470321
0.0307089
-0.000835823
-0.206961
1.87516e-06
-0.00239197
-2.18569e-05
3.64446e-06
0.0557037
0.0262178
-0.111307
-6.57717e-05
-0.00214854
-0.00186347
0.100733
0.0836066
0.00786422
-0.00051088
-3.79436e-06
0.0794516
-9.23891e-06
-1.41752e-05
0.00731727
-0.00605802
9.50314e-05
-0.00587568
0.000362042
-9.75166e-05
-0.000210018
0.200583
-0.000126625
6.85607e-06
0.077237
0.00591755
-2.11356e-06
0.0262633
6.15159e-06
4.39112e-06
-0.00597624
-0.0028183
0.354314
-5.10553e-07
-8.973e-06
6.17001e-06
-0.00359057
1.75691e-06
0.102588
0.0222931
0.0296952
0.0156228
-0.17228
0.000985291
0.0713501
0.0222851
2.55558e-06
9.47877e-05
-0.000581977
-8.26172e-05
-0.0115132
0.0435934
0.114028
0.0349486
-0.00618488
-2.65974e-07
-0.00434365
6.52782e-06
0.0545491
-0.000303947
-0.000119203
-0.000111363
-4.80965e-05
3.04468e-06
-0.00422761
0.116614
2.66553e-06
-7.85028e-05
7.49849e-06
0.0377479
-7.99963e-05
0.217294
0.0501713
-0.0856869
2.53528e-06
3.2267e-06
-0.00282599
-0.379242
2.72716e-06
-0.00294116
1.41159e-06
-0.00137369
-0.00226252
-0.00220269
-0.00128661
-0.472166
8.84199e-07
-2.41667e-05
-0.279026
0.024987
-0.000242361
-0.000518259
4.98603e-06
0.17405
5.12837e-06
8.02747e-06
-5.85816e-05
4.11254e-06
0.232366
0.0293255
-0.0946649
-0.00192867
0.107684
0.341049
-4.69681e-07
-0.000492189
-3.98086e-07
-0.0204615
-3.1458e-05
-4.46294e-05
4.93511e-06
6.86418e-06
-1.50413e-05
0.00281604
-0.000108398
0.0189792
-2.01794e-05
0.000735722
-4.85809e-05
-0.00180718
5.6132e-06
-0.000478763
-0.000790824
-0.000535075
0.244781
6.64674e-06
-0.0277843
-0.000678663
-0.000483066
-2.4025e-05
6.43323e-06
0.0317465
0.140486
-3.29493e-05
-9.33046e-06
-0.163224
-0.972584
0.00129177
0.0589455
-1.29075e-05
-0.116219
-0.000529959
5.38357e-07
0.140042
-0.00013625
0.0497956
2.51647e-06
-3.88087e-05
4.54046e-06
0.0139962
0.026601
-6.02797e-07
0.0290358
-1.06037
6.35317e-06
-9.94647e-06
5.59159e-06
-0.00355176
0.0739105
-0.000709554
-0.000208162
-0.000577685
5.75721e-06
2.94831e-06
-9.5546e-05
6.3995e-06
-0.0218434
2.1916e-06
-0.00233818
-0.0207097
-0.000437352
-4.93241e-07
0.0641719
-0.00216371
5.66798e-06
-0.000981311
-0.000440228
-0.100846
6.18627e-06
0.266558
-0.000892863
1.84954e-06
-0.00195234
-0.00168318
-0.000146646
0.237372
-0.00216961
-0.000567231
-0.0459675
2.5757e-06
-0.0032
-0.00339127
-0.00108022
6.8611e-06
3.96295e-06
-2.26718e-06
0.000943415
-0.00175784
-0.00164288
0.0918656
0.0793513
0.0513245
4.82162e-07
0.0190969
0.0385512
0.0978075
4.46306e-06
3.53011e-07
-0.00140997
0.0585068
-3.88821e-05
-0.000735076
-0.120608
0.0124305
-0.65855
-0.00898523
-0.00659637
0.027743
-0.0484721
-9.49785e-06
-0.32473
0.0174904
-2.7421e-05
-5.40908e-05
-2.42153e-05
0.137001
-0.00158505
0.170528
-7.5591e-05
-1.34547
-1.52255e-05
-0.630763
0.0413248
-2.04628e-06
-0.000632829
0.0838254
0.088839
-0.000860062
-5.40455e-05
-3.08001e-05
-1.05675e-06
-0.00162454
-0.00889917
-0.737639
0.0887073
-2.74307e-06
0.0504063
-0.00199453
-0.00283173
6.4142e-06
3.81853e-06
0.0103415
-0.0250473
4.34641e-06
-0.000795017
0.00581433
-0.00026662
0.0641424
0.0771931
0.151318
0.0889536
-7.89585e-05
-8.76808e-06
0.00325736
0.0759573
0.0985417
-2.47438e-05
-0.00478209
-0.0099933
-0.0742759
-9.40899e-05
9.12299e-07
0.0862677
-0.0464447
-1.716
0.00154686
0.0237924
6.09577e-06
0.167917
0.0847669
-1.15309e-08
-0.00500651
-0.00224586
-6.80409e-07
-0.00999278
0.145352
-0.0211939
5.59009e-07
0.0173027
-0.00301368
-0.244594
-1.06598e-05
-0.00014711
-7.39355e-06
-0.000144523
-5.25071e-06
-0.000655797
-0.000224356
-0.00128318
-0.0474632
-0.000618746
0.0339445
-3.16495e-05
-0.000514088
-0.000168005
0.119892
-0.0104756
0.0904107
-0.00015508
-0.000236429
0.176633
-0.0107746
1.51523e-06
-0.00195606
-0.0829481
0.180455
-0.0199608
3.02741e-06
4.13593e-06
1.67361e-06
-0.460412
-2.70209e-05
-0.00219989
-0.00420549
0.0298188
-0.000280636
-0.0135852
0.0937392
-5.04532e-06
0.116085
-0.000471049
-0.00160618
-1.47908e-06
-2.42452e-05
-0.000909906
0.123281
6.00324e-06
0.0786706
-0.0133526
-0.0107895
-0.00468515
2.83744e-07
6.28105e-06
-0.000387941
-0.000116253
0.17201
0.314799
0.00220479
-0.0166709
2.23292e-06
-1.22538e-05
-1.86438e-05
-3.20794e-08
0.244762
-9.90602e-05
0.0990747
-0.00275072
-9.78335e-05
-0.236821
-0.256228
0.030177
0.105794
-0.000110685
-2.34663e-05
2.64767e-06
-0.000166021
0.0326004
-0.0105637
0.242711
2.47799e-06
-7.12351e-05
-0.00143145
1.50974e-06
-0.0897567
-1.08503e-05
-0.000823946
-0.00265751
-0.00146827
0.00016433
-8.34413e-07