/*--------------------------------*- C++ -*----------------------------------*\
| =========                 |                                                 |
| \\      /  F ield         | OpenFOAM: The Open Source CFD Toolbox           |
|  \\    /   O peration     | Version:  v2012                                 |
|   \\  /    A nd           | Website:  www.openfoam.com                      |
|    \\/     M anipulation  |                                                 |
\*---------------------------------------------------------------------------*/
FoamFile
{
    version     2.0;
    format      ascii;
    class       pointVectorField;
    location    "800";
    object      pointDisplacement;
}
// * * * * * * * * * * * * * * * * * * * * * * * * * * * * * * * * * * * * * //

dimensions      [0 1 0 0 0 0 0];


internalField   nonuniform List<vector> 
14332
(
(0 0 0)
(-7.69937e-06 6.15911e-05 0)
(0 0 0)
(-7.69937e-06 6.15911e-05 0)
(0 0 0)
(0 0 0)
(0 0 0)
(0 0 0)
(0 0 0)
(0 0 0)
(0 0 0)
(0 0 0)
(0 0 0)
(0 0 0)
(0 0 0)
(0 0 0)
(0 0 0)
(0 0 0)
(0 0 0)
(0 0 0)
(0 0 0)
(0 0 0)
(0 0 0)
(0 0 0)
(0 0 0)
(0 0 0)
(0 0 0)
(0 0 0)
(0 0 0)
(0 0 0)
(0 0 0)
(0 0 0)
(0 0 0)
(0 0 0)
(0 0 0)
(0 0 0)
(0 0 0)
(0 0 0)
(0 0 0)
(0 0 0)
(0 0 0)
(0 0 0)
(0 0 0)
(0 0 0)
(0 0 0)
(0 0 0)
(0 0 0)
(0 0 0)
(0 0 0)
(0 0 0)
(0 0 0)
(0 0 0)
(0 0 0)
(0 0 0)
(0 0 0)
(0 0 0)
(0 0 0)
(0 0 0)
(0 0 0)
(0 0 0)
(0 0 0)
(0 0 0)
(0 0 0)
(0 0 0)
(0 0 0)
(0 0 0)
(0 0 0)
(0 0 0)
(0 0 0)
(0 0 0)
(0 0 0)
(0 0 0)
(0 0 0)
(0 0 0)
(0 0 0)
(0 0 0)
(0 0 0)
(0 0 0)
(0 0 0)
(0 0 0)
(0 0 0)
(0 0 0)
(0 0 0)
(0 0 0)
(0 0 0)
(0 0 0)
(0 0 0)
(0 0 0)
(0 0 0)
(0 0 0)
(0 0 0)
(0 0 0)
(0 0 0)
(0 0 0)
(0 0 0)
(0 0 0)
(0 0 0)
(0 0 0)
(0 0 0)
(0 0 0)
(0 0 0)
(0 0 0)
(0 0 0)
(0 0 0)
(0 0 0)
(0 0 0)
(0 0 0)
(0 0 0)
(0 0 0)
(0 0 0)
(0 0 0)
(0 0 0)
(0 0 0)
(0 0 0)
(0 0 0)
(0 0 0)
(0 0 0)
(0 0 0)
(0 0 0)
(0 0 0)
(0 0 0)
(0 0 0)
(0 0 0)
(0 0 0)
(0 0 0)
(0 0 0)
(0 0 0)
(0 0 0)
(0 0 0)
(0 0 0)
(0 0 0)
(0 0 0)
(0 0 0)
(0 0 0)
(6.15864e-06 6.15912e-05 0)
(5.38875e-06 6.15912e-05 0)
(4.61886e-06 6.15912e-05 0)
(3.84897e-06 6.15912e-05 0)
(3.07908e-06 6.15912e-05 0)
(2.30919e-06 6.15911e-05 0)
(1.5393e-06 6.15911e-05 0)
(7.69415e-07 6.15911e-05 0)
(-4.74183e-10 6.15911e-05 0)
(-7.70363e-07 6.15911e-05 0)
(-1.54025e-06 6.15911e-05 0)
(-2.31014e-06 6.15911e-05 0)
(-3.08003e-06 6.15911e-05 0)
(-3.84992e-06 6.15911e-05 0)
(-4.61981e-06 6.15911e-05 0)
(-5.3897e-06 6.15911e-05 0)
(-6.15959e-06 6.15911e-05 0)
(-6.92948e-06 6.15911e-05 0)
(-7.69936e-06 6.08212e-05 0)
(-7.69935e-06 6.00513e-05 0)
(-7.69935e-06 5.92814e-05 0)
(-7.69934e-06 5.85115e-05 0)
(-7.69934e-06 5.77416e-05 0)
(-7.69933e-06 5.69717e-05 0)
(-7.69932e-06 5.62018e-05 0)
(-7.69932e-06 5.5432e-05 0)
(-7.69931e-06 5.46621e-05 0)
(-7.69931e-06 5.38922e-05 0)
(-7.6993e-06 5.31223e-05 0)
(-7.69929e-06 5.23524e-05 0)
(-7.69929e-06 5.15825e-05 0)
(-7.69928e-06 5.08126e-05 0)
(-7.69928e-06 5.00427e-05 0)
(-7.69927e-06 4.92728e-05 0)
(-7.69926e-06 4.8503e-05 0)
(-7.69926e-06 4.77331e-05 0)
(-7.69925e-06 4.69632e-05 0)
(-7.69925e-06 4.61933e-05 0)
(-7.69924e-06 4.54234e-05 0)
(-7.69923e-06 4.46535e-05 0)
(-7.69923e-06 4.38836e-05 0)
(-7.69922e-06 4.31137e-05 0)
(-7.69922e-06 4.23438e-05 0)
(-7.69921e-06 4.1574e-05 0)
(-7.69921e-06 4.08041e-05 0)
(0 0 0)
(0 0 0)
(0 0 0)
(0 0 0)
(0 0 0)
(0 0 0)
(0 0 0)
(0 0 0)
(0 0 0)
(0 0 0)
(0 0 0)
(0 0 0)
(0 0 0)
(0 0 0)
(0 0 0)
(0 0 0)
(0 0 0)
(0 0 0)
(0 0 0)
(0 0 0)
(0 0 0)
(0 0 0)
(0 0 0)
(0 0 0)
(0 0 0)
(0 0 0)
(0 0 0)
(0 0 0)
(0 0 0)
(0 0 0)
(0 0 0)
(0 0 0)
(0 0 0)
(0 0 0)
(0 0 0)
(0 0 0)
(0 0 0)
(0 0 0)
(0 0 0)
(0 0 0)
(0 0 0)
(0 0 0)
(0 0 0)
(0 0 0)
(0 0 0)
(0 0 0)
(0 0 0)
(0 0 0)
(0 0 0)
(0 0 0)
(0 0 0)
(0 0 0)
(0 0 0)
(0 0 0)
(0 0 0)
(0 0 0)
(0 0 0)
(0 0 0)
(0 0 0)
(0 0 0)
(0 0 0)
(0 0 0)
(0 0 0)
(0 0 0)
(0 0 0)
(0 0 0)
(0 0 0)
(0 0 0)
(0 0 0)
(0 0 0)
(0 0 0)
(0 0 0)
(0 0 0)
(0 0 0)
(0 0 0)
(0 0 0)
(0 0 0)
(0 0 0)
(0 0 0)
(0 0 0)
(0 0 0)
(0 0 0)
(0 0 0)
(0 0 0)
(0 0 0)
(0 0 0)
(0 0 0)
(0 0 0)
(0 0 0)
(0 0 0)
(0 0 0)
(0 0 0)
(0 0 0)
(0 0 0)
(0 0 0)
(0 0 0)
(0 0 0)
(0 0 0)
(0 0 0)
(0 0 0)
(0 0 0)
(0 0 0)
(0 0 0)
(0 0 0)
(0 0 0)
(0 0 0)
(0 0 0)
(0 0 0)
(0 0 0)
(0 0 0)
(0 0 0)
(0 0 0)
(0 0 0)
(0 0 0)
(0 0 0)
(0 0 0)
(0 0 0)
(0 0 0)
(0 0 0)
(0 0 0)
(0 0 0)
(0 0 0)
(0 0 0)
(0 0 0)
(0 0 0)
(0 0 0)
(0 0 0)
(0 0 0)
(0 0 0)
(0 0 0)
(6.15864e-06 6.15912e-05 0)
(5.38875e-06 6.15912e-05 0)
(4.61886e-06 6.15912e-05 0)
(3.84897e-06 6.15912e-05 0)
(3.07908e-06 6.15912e-05 0)
(2.30919e-06 6.15911e-05 0)
(1.5393e-06 6.15911e-05 0)
(7.69415e-07 6.15911e-05 0)
(-4.74183e-10 6.15911e-05 0)
(-7.70363e-07 6.15911e-05 0)
(-1.54025e-06 6.15911e-05 0)
(-2.31014e-06 6.15911e-05 0)
(-3.08003e-06 6.15911e-05 0)
(-3.84992e-06 6.15911e-05 0)
(-4.61981e-06 6.15911e-05 0)
(-5.3897e-06 6.15911e-05 0)
(-6.15959e-06 6.15911e-05 0)
(-6.92948e-06 6.15911e-05 0)
(-7.69936e-06 6.08212e-05 0)
(-7.69935e-06 6.00513e-05 0)
(-7.69935e-06 5.92814e-05 0)
(-7.69934e-06 5.85115e-05 0)
(-7.69934e-06 5.77416e-05 0)
(-7.69933e-06 5.69717e-05 0)
(-7.69932e-06 5.62018e-05 0)
(-7.69932e-06 5.5432e-05 0)
(-7.69931e-06 5.46621e-05 0)
(-7.69931e-06 5.38922e-05 0)
(-7.6993e-06 5.31223e-05 0)
(-7.69929e-06 5.23524e-05 0)
(-7.69929e-06 5.15825e-05 0)
(-7.69928e-06 5.08126e-05 0)
(-7.69928e-06 5.00427e-05 0)
(-7.69927e-06 4.92728e-05 0)
(-7.69926e-06 4.8503e-05 0)
(-7.69926e-06 4.77331e-05 0)
(-7.69925e-06 4.69632e-05 0)
(-7.69925e-06 4.61933e-05 0)
(-7.69924e-06 4.54234e-05 0)
(-7.69923e-06 4.46535e-05 0)
(-7.69923e-06 4.38836e-05 0)
(-7.69922e-06 4.31137e-05 0)
(-7.69922e-06 4.23438e-05 0)
(-7.69921e-06 4.1574e-05 0)
(-7.69921e-06 4.08041e-05 0)
(-1.42835e-06 6.47706e-05 0)
(1.09031e-05 2.6627e-05 0)
(-8.08258e-06 5.86443e-05 0)
(-7.58208e-06 3.99785e-05 0)
(-8.93495e-06 5.6376e-05 0)
(1.11005e-05 4.76034e-05 0)
(3.77086e-06 3.99119e-05 0)
(9.25706e-06 1.17191e-05 0)
(5.914e-06 -1.3871e-05 0)
(2.20882e-06 -3.45239e-05 0)
(1.43657e-05 7.75469e-05 0)
(4.15411e-06 -2.18382e-05 0)
(6.88564e-06 -3.92587e-06 0)
(-4.13536e-06 6.1193e-05 0)
(1.04651e-05 8.13337e-05 0)
(2.49649e-06 -3.93363e-05 0)
(5.57411e-06 9.55459e-05 0)
(2.74514e-06 -2.05269e-05 0)
(1.17388e-06 7.97403e-05 0)
(-7.21609e-06 5.5811e-05 0)
(2.23567e-06 -3.43318e-05 0)
(2.51303e-06 -2.32997e-05 0)
(1.52581e-06 -2.20553e-05 0)
(1.53828e-06 -1.77059e-05 0)
(1.22537e-06 -1.71661e-05 0)
(1.02329e-05 2.27521e-05 0)
(4.46778e-06 -1.80691e-05 0)
(2.08312e-06 6.87125e-05 0)
(-8.35756e-06 5.59141e-05 0)
(-8.1205e-06 4.65052e-05 0)
(1.04817e-06 -1.30599e-05 0)
(7.00842e-07 -1.03623e-05 0)
(1.18917e-05 7.88973e-05 0)
(1.55806e-05 6.79216e-05 0)
(8.22084e-06 8.85592e-05 0)
(3.81693e-06 9.78162e-05 0)
(1.1961e-05 3.70438e-05 0)
(9.39944e-06 4.95766e-06 0)
(6.09851e-06 -7.99428e-06 0)
(3.03881e-06 -2.58175e-05 0)
(4.03927e-06 -2.57894e-05 0)
(2.1965e-06 -3.39829e-05 0)
(1.89148e-06 -2.98166e-05 0)
(8.01971e-07 -1.04563e-05 0)
(-2.45244e-06 5.94798e-05 0)
(-7.70464e-06 5.75808e-05 0)
(4.22142e-07 -5.77374e-06 0)
(4.043e-07 -5.90117e-06 0)
(-2.48112e-06 6.92757e-05 0)
(1.25759e-05 5.61471e-05 0)
(1.2119e-05 3.20984e-05 0)
(1.07884e-05 2.37214e-05 0)
(9.01957e-06 1.87862e-05 0)
(8.25686e-06 1.10561e-06 0)
(3.65394e-06 -2.00076e-05 0)
(4.99234e-06 -2.46819e-05 0)
(6.48767e-06 -1.12246e-05 0)
(1.28325e-06 -1.57516e-05 0)
(4.83904e-06 -1.57875e-05 0)
(2.00601e-06 -3.09217e-05 0)
(1.37314e-06 -2.04772e-05 0)
(1.24313e-06 -1.73899e-05 0)
(1.02674e-06 -1.48445e-05 0)
(1.90188e-06 -1.92703e-05 0)
(2.03225e-07 -2.91909e-06 0)
(0.000154703 0.000281555 0)
(0.000161938 0.000279197 0)
(0.000157636 0.000279152 0)
(0.000164899 0.000279037 0)
(0.000160955 0.000278108 0)
(0.000167989 0.00027986 0)
(0.00016432 0.000278293 0)
(0.000171046 0.000281688 0)
(0.000167632 0.000280027 0)
(0.000174084 0.00028489 0)
(0.000170854 0.000283549 0)
(0.000176955 0.000289399 0)
(0.000173808 0.000287995 0)
(0.000179388 0.000294639 0)
(0.00017605 0.000293124 0)
(0.000180934 0.000300572 0)
(0.000177433 0.000299474 0)
(0.00018145 0.000306997 0)
(0.000178075 0.000307043 0)
(0.000181883 0.000314545 0)
(0.000178588 0.000315916 0)
(0.000182853 0.000324431 0)
(0.00017929 0.000326861 0)
(0.000183817 0.000336834 0)
(0.000180128 0.000339872 0)
(0.000184537 0.000350796 0)
(0.000181155 0.000354241 0)
(0.000185402 0.000365841 0)
(0.000181964 0.000369099 0)
(0.000186147 0.000381709 0)
(0.000182515 0.000385505 0)
(0.000186705 0.000398592 0)
(0.000183241 0.000403618 0)
(0.000187462 0.000416523 0)
(0.000184078 0.000422039 0)
(0.000190616 0.000410159 0)
(0.000191386 0.000427623 0)
(0.000194328 0.000419932 0)
(9.08019e-05 -0.000826062 0)
(8.78399e-05 -0.00082352 0)
(0.000195046 0.000437515 0)
(0.000197937 0.0004284 0)
(8.90711e-05 -0.000826695 0)
(8.62382e-05 -0.000823756 0)
(0.000198418 0.000446592 0)
(0.000201383 0.000436334 0)
(8.74361e-05 -0.000825271 0)
(8.45805e-05 -0.000821816 0)
(8.5815e-05 -0.000822156 0)
(8.28958e-05 -0.000817574 0)
(0.000201604 0.000454997 0)
(0.000204513 0.000443473 0)
(8.4004e-05 -0.000817049 0)
(8.11401e-05 -0.000811426 0)
(0.000204497 0.000462092 0)
(0.000207135 0.000449011 0)
(8.20819e-05 -0.000810301 0)
(7.92749e-05 -0.000803842 0)
(7.83311e-05 -0.000804531 0)
(0.000206941 0.000468012 0)
(0.000209196 0.000453518 0)
(0.000204224 0.000479485 0)
(8.00794e-05 -0.00080188 0)
(7.7317e-05 -0.000794807 0)
(0.000208774 0.000473251 0)
(0.000210638 0.000456119 0)
(7.80257e-05 -0.000792019 0)
(8.06712e-05 -0.000798651 0)
(7.52852e-05 -0.000784609 0)
(0.0001677 0.000281674 0)
(0.000179479 0.00040782 0)
(0.000180197 0.000426405 0)
(0.000175472 0.000411199 0)
(0.000175769 0.000428842 0)
(0.00017106 0.000413712 0)
(0.000171384 0.000431539 0)
(0.000166242 0.000415884 0)
(0.000166798 0.000435084 0)
(0.000161286 0.000417743 0)
(0.000161873 0.000437696 0)
(0.000156425 0.000419412 0)
(0.000157126 0.000440009 0)
(0.000151696 0.000420261 0)
(0.000152562 0.000441989 0)
(0.000147115 0.000421355 0)
(0.000147988 0.000443922 0)
(0.000142526 0.000422741 0)
(0.000143193 0.000445274 0)
(0.00013765 0.000423385 0)
(0.000138149 0.00044613 0)
(0.0001326 0.000424012 0)
(0.00013293 0.000446825 0)
(0.000127224 0.00042509 0)
(0.000127536 0.000447553 0)
(0.000132996 0.000469221 0)
(0.000127436 0.000469557 0)
(0.000121965 0.000448112 0)
(0.000121753 0.000468836 0)
(0.000116424 0.000449038 0)
(0.000116234 0.000468658 0)
(0.000110699 0.000448825 0)
(0.00011049 0.000467232 0)
(0.000104503 0.000445733 0)
(0.000104692 0.000465422 0)
(9.84035e-05 0.000443251 0)
(9.83657e-05 0.000462597 0)
(9.2536e-05 0.000440434 0)
(9.16074e-05 0.000454507 0)
(8.64666e-05 0.000432532 0)
(8.53261e-05 0.000443608 0)
(8.02552e-05 0.000419854 0)
(7.91512e-05 0.000428727 0)
(7.42141e-05 0.000402938 0)
(7.29834e-05 0.000408901 0)
(6.83324e-05 0.000383016 0)
(6.70085e-05 0.000386809 0)
(6.25119e-05 0.000360605 0)
(6.12023e-05 0.000363539 0)
(5.66618e-05 0.000335098 0)
(5.54678e-05 0.000338835 0)
(5.08856e-05 0.000308095 0)
(4.98632e-05 0.000313657 0)
(4.53657e-05 0.00028231 0)
(4.44854e-05 0.000290505 0)
(0.000132502 0.000491627 0)
(9.61683e-05 0.000475618 0)
(5.95964e-05 0.000367143 0)
(0.000151047 0.000400104 0)
(7.58886e-05 -0.000781003 0)
(7.31798e-05 -0.000773482 0)
(0.000209901 0.000475273 0)
(0.00021154 0.000455463 0)
(5.16987e-05 0.000305308 0)
(7.3675e-05 -0.000769162 0)
(7.10127e-05 -0.000761452 0)
(0.000210434 0.000472744 0)
(0.000212003 0.000451003 0)
(7.13914e-05 -0.000756757 0)
(6.87995e-05 -0.000748872 0)
(6.838e-05 -0.000753685 0)
(0.000210766 0.000467947 0)
(0.000212342 0.000444306 0)
(6.9042e-05 -0.000744023 0)
(6.65402e-05 -0.000735787 0)
(8.11974e-05 0.000406474 0)
(0.000210834 0.000461792 0)
(0.000212393 0.000436568 0)
(0.000209215 0.000484539 0)
(0.000126674 0.000403075 0)
(6.66451e-05 -0.000730582 0)
(6.89121e-05 -0.000738227 0)
(6.42484e-05 -0.000721669 0)
(0.000210493 0.000455109 0)
(0.000212108 0.000428739 0)
(6.42611e-05 -0.000715918 0)
(6.19377e-05 -0.000706143 0)
(6.18796e-05 -0.000699956 0)
(5.96162e-05 -0.00068932 0)
(0.000209788 0.00044927 0)
(0.000211418 0.000422191 0)
(5.95201e-05 -0.000682792 0)
(5.72892e-05 -0.000671117 0)
(5.7329e-05 -0.000677769 0)
(0.000208707 0.000444712 0)
(0.000210231 0.000418592 0)
(5.50756e-05 -0.000658612 0)
(5.51055e-05 -0.000665167 0)
(5.49508e-05 -0.000651873 0)
(0.000207169 0.000442255 0)
(0.000208556 0.000417029 0)
(0.000211416 0.000392828 0)
(0.000209743 0.000390012 0)
(0.00021255 0.000365856 0)
(0.000210942 0.000361222 0)
(0.000213715 0.000337494 0)
(0.000212071 0.000332081 0)
(0.000208943 0.000356199 0)
(0.000209991 0.000326295 0)
(0.000212869 0.000302559 0)
(0.000210773 0.000295729 0)
(5.27944e-05 -0.00063853 0)
(5.26155e-05 -0.000631517 0)
(0.00020756 0.000319889 0)
(0.000208181 0.000288938 0)
(0.000211212 0.000263593 0)
(0.000208425 0.000255787 0)
(0.000184911 0.000307718 0)
(5.05916e-05 -0.000618045 0)
(5.02895e-05 -0.000610069 0)
(0.000211237 0.000229324 0)
(0.000208288 0.00022102 0)
(0.000205264 0.000247706 0)
(0.000204966 0.000212431 0)
(0.000207727 0.000186169 0)
(0.000204229 0.000177693 0)
(0.000206691 0.000151474 0)
(0.000203183 0.00014342 0)
(0.000205371 0.000117928 0)
(0.000201923 0.000110214 0)
(0.000203904 8.52663e-05 0)
(0.000200547 7.78994e-05 0)
(0.000198305 0.000103251 0)
(0.000196962 7.08776e-05 0)
(0.000212107 0.000437563 0)
(4.81557e-05 -0.000594933 0)
(4.79553e-05 -0.000587274 0)
(0.000199073 4.56192e-05 0)
(0.000195501 3.77058e-05 0)
(0.000193076 6.30485e-05 0)
(0.000191572 3.00691e-05 0)
(0.000193822 3.82404e-06 0)
(0.000189827 -2.79838e-06 0)
(0.000191929 -2.94067e-05 0)
(0.000187953 -3.4874e-05 0)
(4.59168e-05 -0.00057109 0)
(4.56357e-05 -0.000563017 0)
(4.77738e-05 -0.000579493 0)
(0.000185589 -8.44466e-06 0)
(0.000183692 -3.95335e-05 0)
(0.000186017 -6.59493e-05 0)
(0.00018172 -7.05941e-05 0)
(0.000183979 -9.78381e-05 0)
(0.000179662 -0.000103727 0)
(0.000181846 -0.000131317 0)
(0.000177549 -0.00013868 0)
(0.000179637 -0.00016593 0)
(0.000175386 -0.000173983 0)
(0.000173042 -0.000145963 0)
(0.000170883 -0.000181756 0)
(0.00017314 -0.000208797 0)
(0.000168645 -0.000216885 0)
(4.3654e-05 -0.000546662 0)
(4.40833e-05 -0.000555615 0)
(4.32977e-05 -0.000537837 0)
(0.000166125 -0.000188997 0)
(0.000163899 -0.000222791 0)
(0.000166302 -0.00025021 0)
(0.000161563 -0.000255081 0)
(0.000163843 -0.0002824 0)
(0.000159163 -0.000286849 0)
(0.000161384 -0.000313814 0)
(0.000156733 -0.000317419 0)
(0.000154383 -0.000290639 0)
(0.000152041 -0.000319678 0)
(0.000154264 -0.000345881 0)
(0.000149661 -0.000346075 0)
(0.000151752 -0.000372574 0)
(0.000147255 -0.000371811 0)
(0.000144973 -0.000345335 0)
(0.000142634 -0.000370404 0)
(0.000144801 -0.000398344 0)
(0.000140206 -0.000396329 0)
(0.000142214 -0.00042578 0)
(0.000137685 -0.000422187 0)
(4.13765e-05 -0.000521227 0)
(4.09715e-05 -0.000512262 0)
(0.000135472 -0.000393105 0)
(0.000133034 -0.000416859 0)
(0.000135128 -0.000446621 0)
(0.000130566 -0.000439552 0)
(0.00013254 -0.000469247 0)
(0.000128071 -0.00046099 0)
(0.000129908 -0.000490124 0)
(0.00012555 -0.000481172 0)
(0.000123508 -0.000451749 0)
(0.000121087 -0.000470846 0)
(0.000123009 -0.000500267 0)
(0.000118635 -0.000489773 0)
(0.000120426 -0.000518686 0)
(0.000116144 -0.000509298 0)
(0.000114186 -0.000478984 0)
(0.000111797 -0.000499438 0)
(0.000174563 0.00030789 0)
(4.57204e-05 0.000114972 0)
(4.83221e-05 0.000124164 0)
(5.23575e-05 0.000118611 0)
(5.49823e-05 0.00012797 0)
(5.93553e-05 0.000122968 0)
(6.28883e-05 0.000133039 0)
(6.61383e-05 0.000127708 0)
(7.01214e-05 0.000136435 0)
(7.20527e-05 0.000132845 0)
(7.6206e-05 0.000141584 0)
(7.73115e-05 0.000139129 0)
(7.39035e-05 0.000130845 0)
(7.81602e-05 0.000137871 0)
(7.57015e-05 0.000129982 0)
(7.95121e-05 0.000138327 0)
(7.74819e-05 0.000130279 0)
(8.06727e-05 0.0001398 0)
(7.87179e-05 0.000131962 0)
(8.0773e-05 0.00014196 0)
(7.84337e-05 0.000134562 0)
(7.97889e-05 0.000145091 0)
(7.70211e-05 0.000137554 0)
(7.82782e-05 0.000148449 0)
(7.53228e-05 0.000141076 0)
(8.12109e-05 0.000155864 0)
(7.44019e-05 0.000145359 0)
(7.69615e-05 0.000152205 0)
(7.38681e-05 0.000145339 0)
(3.91626e-05 -0.000496046 0)
(3.86607e-05 -0.000486955 0)
(8.15475e-05 0.00014792 0)
(0.000207114 9.35308e-05 0)
(0.000109662 -0.000467642 0)
(0.00010738 -0.000488996 0)
(0.000205463 0.000467416 0)
(0.000117803 -0.000537271 0)
(7.58561e-05 0.000156237 0)
(7.26786e-05 0.00015029 0)
(0.000181012 -1.43566e-05 0)
(0.00020167 0.000238735 0)
(3.69624e-05 -0.000471585 0)
(3.63608e-05 -0.000461836 0)
(3.8174e-05 -0.000477839 0)
(0.000203599 0.000464568 0)
(0.000201681 0.000489622 0)
(0.000199534 0.000485854 0)
(0.000197417 0.000511438 0)
(0.000194964 0.000506535 0)
(0.000192608 0.000533051 0)
(0.000189835 0.00052614 0)
(0.000187115 0.00055361 0)
(0.000184084 0.000543907 0)
(0.000180967 0.000572988 0)
(4.30515e-05 0.000106525 0)
(7.49968e-05 0.000161286 0)
(7.16907e-05 0.000156357 0)
(0.000105071 -0.000455945 0)
(0.00010289 -0.000478046 0)
(0.000157834 0.000461402 0)
(0.000183636 -0.00015789 0)
(0.000177888 0.000559722 0)
(0.000174431 0.000589824 0)
(0.000177299 0.000601402 0)
(0.000170501 0.000618034 0)
(0.000173075 0.000628053 0)
(0.000166199 0.000643452 0)
(0.000168526 0.000652293 0)
(0.000161608 0.000665304 0)
(0.000163734 0.00067173 0)
(0.000156814 0.000681782 0)
(0.00015866 0.000685633 0)
(0.000151871 0.000692974 0)
(0.000153363 0.000696159 0)
(0.00014664 0.000701541 0)
(0.000147704 0.000705463 0)
(0.000140933 0.000709426 0)
(0.000141717 0.000712765 0)
(0.00013485 0.000716078 0)
(0.000135536 0.00071697 0)
(0.000128612 0.000719767 0)
(0.00012922 0.000718301 0)
(0.000122214 0.000719837 0)
(0.000122639 0.000716524 0)
(0.000115642 0.000716822 0)
(0.000115796 0.00071223 0)
(3.46895e-05 -0.000446222 0)
(3.53962e-05 -0.000456688 0)
(3.40523e-05 -0.000435831 0)
(0.000108867 0.000711189 0)
(0.000108698 0.000704925 0)
(7.41286e-05 0.000168008 0)
(7.0584e-05 0.000163668 0)
(7.78623e-05 0.000172459 0)
(0.000101918 0.000701674 0)
(0.000101273 0.000694071 0)
(0.000100421 -0.00044357 0)
(9.8347e-05 -0.000465767 0)
(0.000100676 -0.000500325 0)
(9.62294e-05 -0.000488432 0)
(9.4745e-05 0.000688313 0)
(9.34655e-05 0.000680244 0)
(3.24518e-05 -0.000420434 0)
(3.17786e-05 -0.000409415 0)
(0.000171487 0.000572375 0)
(7.27922e-05 0.000175641 0)
(6.91126e-05 0.000171793 0)
(8.71536e-05 0.000672505 0)
(8.52975e-05 0.000664057 0)
(0.000107968 0.000697605 0)
(9.84193e-05 -0.000522102 0)
(9.40756e-05 -0.000510422 0)
(9.17544e-05 -0.000475797 0)
(8.97142e-05 -0.000497499 0)
(7.92741e-05 0.000654871 0)
(7.72044e-05 0.000645263 0)
(7.66807e-05 0.000125003 0)
(0.000142377 0.000711931 0)
(8.72657e-05 -0.000462427 0)
(8.5359e-05 -0.000482907 0)
(7.1418e-05 0.00063487 0)
(6.91967e-05 0.000625085 0)
(7.47716e-05 0.000636371 0)
(6.64383e-05 0.000617289 0)
(6.10634e-05 0.000605847 0)
(5.80731e-05 0.000598823 0)
(5.29497e-05 0.000587078 0)
(4.98875e-05 0.000578855 0)
(4.51366e-05 0.00056503 0)
(4.20391e-05 0.000553911 0)
(7.11691e-05 0.000184091 0)
(6.73135e-05 0.000180921 0)
(6.57929e-05 0.000168823 0)
(6.36405e-05 0.000178638 0)
(6.57002e-05 0.000191351 0)
(6.20388e-05 0.000190474 0)
(5.95599e-05 0.000176406 0)
(5.81749e-05 0.000189336 0)
(6.09492e-05 0.000203909 0)
(5.73437e-05 0.00020438 0)
(5.43495e-05 0.000187953 0)
(5.38301e-05 0.000203803 0)
(5.07557e-05 0.000187036 0)
(5.04319e-05 0.000202722 0)
(4.71364e-05 0.000185307 0)
(4.70501e-05 0.000201283 0)
(4.36452e-05 0.000184647 0)
(4.36506e-05 0.000200482 0)
(4.01651e-05 0.000185039 0)
(4.02161e-05 0.000201491 0)
(3.64948e-05 0.000186453 0)
(3.67486e-05 0.00020445 0)
(3.28587e-05 0.000191257 0)
(3.32458e-05 0.000208962 0)
(2.92498e-05 0.000197374 0)
(2.97117e-05 0.000213612 0)
(2.5633e-05 0.000202206 0)
(2.62366e-05 0.000217391 0)
(2.2124e-05 0.000204357 0)
(2.27039e-05 0.000217507 0)
(1.87094e-05 0.000201909 0)
(1.91641e-05 0.000212739 0)
(1.54206e-05 0.000194873 0)
(1.58535e-05 0.000204542 0)
(1.23655e-05 0.000184951 0)
(1.28142e-05 0.000193742 0)
(9.64251e-06 0.000174171 0)
(1.01002e-05 0.000182069 0)
(7.22034e-06 0.000164731 0)
(7.73138e-06 0.000172435 0)
(5.19803e-06 0.000158411 0)
(5.6701e-06 0.000163995 0)
(3.46846e-06 0.000152561 0)
(3.89829e-06 0.000156341 0)
(1.90637e-06 0.00014649 0)
(2.3515e-06 0.000149392 0)
(4.54187e-06 0.000158378 0)
(1.61328e-05 0.000211735 0)
(3.36269e-05 0.00022477 0)
(4.68823e-05 0.00021597 0)
(6.02196e-05 0.000218435 0)
(1.21685e-07 0.000135395 0)
(6.72329e-06 0.000154217 0)
(3.75182e-05 0.000537392 0)
(3.42571e-05 0.000521615 0)
(4.64754e-05 0.000567864 0)
(0.000154818 0.000673028 0)
(3.0272e-05 -0.000394767 0)
(2.95794e-05 -0.000383487 0)
(2.97925e-05 0.000503337 0)
(2.64327e-05 0.000482322 0)
(9.18402e-05 -0.000529872 0)
(8.90419e-05 -0.000825699 0)
(2.20205e-05 0.000463709 0)
(1.88026e-05 0.000437024 0)
(1.80261e-05 0.000187739 0)
(8.27711e-05 -0.000447335 0)
(8.10046e-05 -0.000466994 0)
(2.81373e-05 -0.000369333 0)
(2.74273e-05 -0.000357953 0)
(2.87511e-05 -0.000370621 0)
(0.000134376 0.000710803 0)
(4.30317e-05 0.000167599 0)
(7.06135e-05 0.000139186 0)
(2.60507e-05 -0.000344294 0)
(2.66702e-05 -0.000354007 0)
(7.8287e-05 -0.000431375 0)
(7.66507e-05 -0.000450277 0)
(2.53216e-05 -0.000332992 0)
(0.000109048 0.000713443 0)
(0.000177398 0.000285731 0)
(7.38154e-05 -0.000414189 0)
(7.23133e-05 -0.000432127 0)
(7.5299e-05 -0.000395808 0)
(7.499e-05 -0.000468173 0)
(7.07806e-05 -0.000449688 0)
(7.33058e-05 -0.000485711 0)
(6.92188e-05 -0.000467131 0)
(2.40178e-05 -0.000319711 0)
(2.32702e-05 -0.000308439 0)
(7.15927e-05 -0.000502656 0)
(6.76288e-05 -0.000484258 0)
(6.5163e-05 -0.000448397 0)
(6.36952e-05 -0.000464912 0)
(0.000174745 0.000540953 0)
(0.000168407 0.000549739 0)
(0.000171489 0.000517759 0)
(0.000164964 0.000523972 0)
(0.000167744 0.000494056 0)
(0.00016089 0.000497569 0)
(0.000163348 0.000470974 0)
(8.15474e-05 0.000663025 0)
(0.00020438 0.00042491 0)
(0.000104617 0.000428521 0)
(0.000156213 0.000472 0)
(0.000158509 0.000448092 0)
(6.11412e-05 -0.000428683 0)
(5.97942e-05 -0.000444375 0)
(6.21976e-05 -0.000480394 0)
(5.84177e-05 -0.000459369 0)
(4.06142e-05 0.00055051 0)
(2.20383e-05 -0.000295108 0)
(2.12745e-05 -0.00028376 0)
(5.59424e-05 -0.000422845 0)
(5.46904e-05 -0.000437168 0)
(0.000102459 -0.000421455 0)
(0.000151124 0.000446965 0)
(0.000153238 0.000426654 0)
(0.000149023 0.000467268 0)
(7.07068e-05 -0.000378092 0)
(7.20125e-05 -0.000360472 0)
(6.06758e-05 -0.000494797 0)
(2.01134e-05 -0.000270154 0)
(1.93505e-05 -0.000259348 0)
(2.03295e-05 -0.000270628 0)
(5.2146e-05 -0.000400292 0)
(5.10205e-05 -0.000414241 0)
(0.000145508 0.0004234 0)
(0.000147456 0.000406758 0)
(0.000152764 0.00027753 0)
(6.73114e-05 -0.000341925 0)
(6.84191e-05 -0.000324505 0)
(1.82562e-05 -0.000245843 0)
(1.89671e-05 -0.000255722 0)
(1.74568e-05 -0.00023514 0)
(4.84138e-05 -0.000377606 0)
(4.74116e-05 -0.000390988 0)
(0.000195562 4.10916e-05 0)
(0.000197436 2.76588e-05 0)
(0.000198287 4.58047e-05 0)
(0.000200308 3.4421e-05 0)
(0.000201053 5.24807e-05 0)
(0.000203163 4.29643e-05 0)
(0.000203886 6.39894e-05 0)
(0.000205947 5.38111e-05 0)
(0.000206959 7.45923e-05 0)
(0.000208627 6.55954e-05 0)
(0.000209573 8.73522e-05 0)
(0.000211152 7.94073e-05 0)
(0.000210049 5.61434e-05 0)
(0.000212068 0.000102282 0)
(0.00021349 9.48254e-05 0)
(0.000214376 0.000118811 0)
(0.000215628 0.000110806 0)
(0.000216453 0.000136126 0)
(0.000214724 0.000144556 0)
(0.000217608 0.000127796 0)
(0.000216692 0.000162048 0)
(0.000214549 0.00017016 0)
(0.000216451 0.000187309 0)
(0.000214068 0.000194655 0)
(0.000139313 0.000401914 0)
(0.000141151 0.000388224 0)
(0.000165757 0.000396683 0)
(2.86148e-05 0.000180557 0)
(0.000165347 0.000675539 0)
(1.62837e-05 -0.000220051 0)
(1.56388e-05 -0.000211902 0)
(6.36248e-05 -0.000305232 0)
(6.4531e-05 -0.000288233 0)
(4.47518e-05 -0.000354411 0)
(4.38714e-05 -0.000366816 0)
(4.63774e-05 -0.000402525 0)
(4.29545e-05 -0.000377771 0)
(4.55956e-05 -0.000340524 0)
(4.53148e-05 -0.000412324 0)
(4.20069e-05 -0.000387265 0)
(3.96071e-05 -0.000353187 0)
(3.87731e-05 -0.000362185 0)
(0.000213672 0.000420545 0)
(4.42262e-05 -0.000420113 0)
(2.69211e-05 0.000159442 0)
(3.09756e-05 0.000176447 0)
(3.0897e-05 0.000186385 0)
(0.000215767 0.000211156 0)
(0.000213213 0.000217526 0)
(0.000134125 -0.000497582 0)
(0.000165943 -0.00030715 0)
(6.16829e-05 -0.000693272 0)
(8.33074e-05 -0.000819173 0)
(0.000130602 -0.000388131 0)
(0.000218077 0.000204251 0)
(0.00014752 -0.000603822 0)
(0.000124633 -0.000742531 0)
(0.000113086 -0.000786267 0)
(0.000161138 -0.00019394 0)
(7.16611e-05 0.000630252 0)
(0.000132613 0.000382283 0)
(0.000134351 0.000371314 0)
(0.000143 0.000371729 0)
(0.000136176 0.000355864 0)
(0.000144757 0.000352852 0)
(0.000137988 0.000336902 0)
(0.000146316 0.000332532 0)
(0.000139627 0.000316553 0)
(0.000147753 0.000309729 0)
(0.000141118 0.000294515 0)
(0.000132633 0.00030058 0)
(0.000134147 0.000278802 0)
(0.000142577 0.000268846 0)
(0.000135554 0.000253957 0)
(0.000130892 0.000390825 0)
(0.000172446 0.000450673 0)
(0.000127213 0.000353951 0)
(0.00021642 0.000102106 0)
(0.000218239 0.000119227 0)
(0.000216873 9.28187e-05 0)
(0.000218503 0.000109827 0)
(0.000217046 8.30322e-05 0)
(3.15544e-05 -0.000445306 0)
(3.38146e-05 -0.000473481 0)
(3.23074e-05 -0.000454389 0)
(3.00559e-05 -0.000425467 0)
(3.07646e-05 -0.000433668 0)
(3.30149e-05 -0.000461792 0)
(3.14277e-05 -0.000440535 0)
(2.91889e-05 -0.000412146 0)
(2.9809e-05 -0.000418832 0)
(3.36708e-05 -0.000468028 0)
(2.75788e-05 -0.000390572 0)
(2.81594e-05 -0.000397057 0)
(2.59364e-05 -0.000369029 0)
(2.6482e-05 -0.000375166 0)
(2.86872e-05 -0.000402569 0)
(2.69745e-05 -0.000380138 0)
(2.53419e-05 -0.000362067 0)
(2.91568e-05 -0.000406844 0)
(2.7409e-05 -0.000383936 0)
(1.46209e-05 -0.000198426 0)
(2.52452e-05 -0.000357313 0)
(2.56487e-05 -0.000360738 0)
(1.39325e-05 -0.000189887 0)
(1.4733e-05 -0.000200234 0)
(0.000126823 0.000263227 0)
(0.000128141 0.00024073 0)
(0.000136691 0.000226662 0)
(0.00012919 0.000216383 0)
(0.000116127 0.000490261 0)
(1.7534e-05 0.00044624 0)
(7.79683e-05 0.000435484 0)
(4.33682e-05 0.000296684 0)
(0.000188009 0.000332819 0)
(3.51713e-05 0.000203837 0)
(3.51479e-05 0.000217059 0)
(3.63386e-05 -0.000328669 0)
(3.56144e-05 -0.000336663 0)
(0.000168896 0.000278309 0)
(5.96519e-05 -0.000268917 0)
(6.03736e-05 -0.000252552 0)
(3.07575e-05 0.000202256 0)
(3.50687e-05 0.000231096 0)
(3.95409e-05 0.00024488 0)
(3.95601e-05 0.000255934 0)
(4.40642e-05 0.00026881 0)
(4.42495e-05 0.000277897 0)
(4.86977e-05 0.000288924 0)
(4.91147e-05 0.000296212 0)
(5.34299e-05 0.000304861 0)
(5.38177e-05 0.000308451 0)
(8.33946e-05 0.000148706 0)
(0.000137499 0.000198746 0)
(0.000129947 0.00019164 0)
(0.000214745 0.000233489 0)
(0.00021222 0.000238736 0)
(0.000121404 0.000207259 0)
(0.000122146 0.000184658 0)
(0.000130488 0.000165874 0)
(0.000122689 0.000159222 0)
(0.000130801 0.000139257 0)
(0.000123068 0.000132733 0)
(0.000130915 0.000113599 0)
(0.000123249 0.000108196 0)
(0.000115303 0.000123517 0)
(0.000115525 0.000101835 0)
(0.000123184 8.67115e-05 0)
(0.000115514 8.24473e-05 0)
(5.80624e-05 0.000315584 0)
(5.8232e-05 0.00031464 0)
(2.95605e-05 -0.000410134 0)
(1.30395e-05 -0.0001776 0)
(1.36575e-05 -0.00018505 0)
(6.53799e-05 -0.000271446 0)
(6.10397e-05 -0.000236586 0)
(6.61585e-05 -0.000254395 0)
(6.16027e-05 -0.000220172 0)
(6.6875e-05 -0.000235971 0)
(6.20625e-05 -0.000202722 0)
(6.7515e-05 -0.000216515 0)
(2.35025e-05 -0.000334329 0)
(2.38788e-05 -0.000337572 0)
(6.24251e-05 -0.000184717 0)
(6.80383e-05 -0.000196556 0)
(0.000122937 6.5233e-05 0)
(0.000115403 6.13118e-05 0)
(0.000107887 7.72587e-05 0)
(0.000107851 5.67135e-05 0)
(0.000115275 3.64693e-05 0)
(0.000107871 3.29127e-05 0)
(0.000115091 8.5839e-06 0)
(0.000107829 6.90112e-06 0)
(0.000114783 -2.10088e-05 0)
(0.000107653 -2.0625e-05 0)
(0.000100505 6.05919e-06 0)
(0.000100436 -1.92411e-05 0)
(0.000107329 -4.94386e-05 0)
(0.000100222 -4.62248e-05 0)
(0.000106857 -7.99613e-05 0)
(9.98951e-05 -7.52703e-05 0)
(1.22803e-05 -0.000168176 0)
(9.30757e-05 -4.15196e-05 0)
(9.29087e-05 -7.00227e-05 0)
(9.94357e-05 -0.000104804 0)
(9.26132e-05 -9.91033e-05 0)
(0.000218411 9.98694e-05 0)
(0.000216824 7.29963e-05 0)
(0.000202252 2.49e-05 0)
(6.26993e-05 -0.000166131 0)
(3.31516e-05 -0.000303267 0)
(3.25351e-05 -0.000310495 0)
(3.48515e-05 -0.000342488 0)
(3.18747e-05 -0.000316263 0)
(3.40498e-05 -0.000347044 0)
(3.11736e-05 -0.000320918 0)
(0.000213717 0.000254783 0)
(2.89846e-05 -0.000290375 0)
(2.83809e-05 -0.000295051 0)
(0.000176569 0.000342672 0)
(0.000211245 0.000258643 0)
(0.000209694 0.000243594 0)
(0.000103408 0.000226145 0)
(0.000108354 0.000235873 0)
(0.000109916 0.000229534 0)
(0.000114939 0.000238693 0)
(0.000116764 0.00023338 0)
(3.0564e-05 0.000218769 0)
(0.000113472 0.000197196 0)
(1.25601e-05 6.21414e-05 0)
(1.68833e-05 6.51512e-05 0)
(1.34124e-05 6.36738e-05 0)
(1.70472e-05 6.62209e-05 0)
(1.40438e-05 6.49917e-05 0)
(1.73705e-05 6.73914e-05 0)
(1.56112e-05 6.6139e-05 0)
(1.98421e-05 6.8676e-05 0)
(1.98355e-05 6.75617e-05 0)
(2.48753e-05 7.02761e-05 0)
(2.61449e-05 6.9453e-05 0)
(2.12527e-05 6.69361e-05 0)
(2.74019e-05 6.88943e-05 0)
(2.22437e-05 6.654e-05 0)
(2.78541e-05 6.83854e-05 0)
(3.14226e-05 7.21913e-05 0)
(2.32262e-05 6.60923e-05 0)
(2.86853e-05 6.78038e-05 0)
(3.34199e-05 7.04203e-05 0)
(3.43887e-05 6.99637e-05 0)
(2.97455e-05 6.68659e-05 0)
(3.56997e-05 6.96558e-05 0)
(4.05661e-05 7.28908e-05 0)
(4.09513e-05 7.29687e-05 0)
(3.67095e-05 6.96841e-05 0)
(4.08664e-05 7.34373e-05 0)
(3.72214e-05 7.00183e-05 0)
(4.05661e-05 7.43978e-05 0)
(3.69789e-05 7.05808e-05 0)
(3.96515e-05 7.55908e-05 0)
(3.55071e-05 7.1376e-05 0)
(3.82923e-05 7.69041e-05 0)
(3.37407e-05 7.24438e-05 0)
(3.70853e-05 7.86118e-05 0)
(3.21985e-05 7.42012e-05 0)
(2.09987e-05 6.98618e-05 0)
(1.11254e-05 6.29589e-05 0)
(3.56497e-05 8.07342e-05 0)
(3.08785e-05 7.73206e-05 0)
(4.00653e-05 8.52912e-05 0)
(4.33854e-05 7.94687e-05 0)
(4.59966e-05 7.6519e-05 0)
(6.25726e-05 0.000321782 0)
(6.24727e-05 0.000316255 0)
(9.87826e-05 -0.000132908 0)
(8.59198e-05 -6.49058e-05 0)
(5.54639e-05 -0.000234405 0)
(2.17505e-05 -0.000311301 0)
(2.21042e-05 -0.000314353 0)
(2.41932e-05 -0.000339938 0)
(2.23982e-05 -0.000316332 0)
(0.000165594 0.000442585 0)