/*--------------------------------*- C++ -*----------------------------------*\
| =========                 |                                                 |
| \\      /  F ield         | OpenFOAM: The Open Source CFD Toolbox           |
|  \\    /   O peration     | Version:  v2012                                 |
|   \\  /    A nd           | Website:  www.openfoam.com                      |
|    \\/     M anipulation  |                                                 |
\*---------------------------------------------------------------------------*/
FoamFile
{
    version     2.0;
    format      ascii;
    class       volScalarField;
    location    "900";
    object      ddt0(k);
}
// * * * * * * * * * * * * * * * * * * * * * * * * * * * * * * * * * * * * * //

dimensions      [0 2 -3 0 0 0 0];


internalField   nonuniform List<scalar> 
13917
(
0.000446087
-1.02432e-06
3.14714e-06
2.88114e-07
2.65824e-06
-1.18845e-06
5.55012e-07
-2.44561e-06
5.45165e-07
5.3436e-05
-1.68962e-06
2.50449e-07
1.62979e-07
0.00123401
-2.45564e-07
0.000378737
9.20534e-07
-4.56751e-07
2.80653e-06
0.000249912
9.33425e-07
3.8175e-07
1.15799e-06
3.7753e-07
3.77737e-07
9.90349e-07
-1.4525e-05
6.59431e-05
1.06881e-06
1.95395e-07
-1.33459e-05
1.2629e-06
2.90962e-07
0.000649102
-9.73136e-07
-2.43121e-06
3.57954e-07
-1.99266e-06
5.71623e-07
9.44599e-07
2.91715e-06
-3.94529e-06
4.98975e-07
2.51945e-06
2.49369e-06
1.05042e-05
8.00533e-07
0.000989904
-1.36069e-05
-9.71668e-07
2.70682e-07
3.82372e-06
0.000391151
3.28812e-07
2.88667e-07
3.98328e-06
-0.00294002
1.16528e-06
-4.47464e-06
1.07456e-05
-0.000519471
2.87252e-05
-6.48615e-07
3.68131e-07
4.25882e-05
-3.63403e-06
9.61649e-07
-4.14373e-06
-1.65829e-07
0.000873035
-1.02631e-05
0.000656968
2.17441e-07
-3.02212e-06
9.61374e-07
4.10174e-07
6.2253e-07
-3.04786e-06
3.9383e-07
2.89865e-07
2.60558e-07
4.21131e-08
2.19662e-07
-2.47275e-06
-1.04738e-07
1.15864e-05
1.56714e-06
-1.34868e-07
9.57679e-07
8.66837e-07
-5.07102e-08
5.33258e-07
5.75858e-06
-5.71e-07
2.64809e-07
1.39314e-06
-2.20603e-06
-1.58112e-06
-1.19407e-07
-3.7312e-07
1.16054e-06
1.03884e-06
2.47828e-07
-2.20379e-07
6.50492e-07
2.04903e-05
-0.000672207
0.00015095
-6.94496e-06
2.80206e-05
-9.21986e-09
0.000481229
1.41138e-06
0.000620181
4.89856e-05
4.6211e-07
2.8248e-06
4.12264e-07
3.16525e-06
2.43001e-07
2.1314e-07
-1.50884e-06
1.09178e-06
2.96757e-06
0.00172505
-1.60457e-05
3.54667e-07
1.09072e-06
-3.83351e-07
2.91657e-06
7.13007e-07
-1.74672e-06
0.00235827
4.54182e-07
1.5032e-06
3.21939e-05
-0.00189606
0.00254533
1.10287e-06
-1.89172e-06
0.000926879
-2.6734e-06
7.28304e-07
-8.59896e-09
2.46266e-07
-2.14613e-05
-6.26105e-06
-0.0029454
0.000822686
3.17462e-07
9.04677e-07
3.44125e-07
2.49835e-07
2.3913e-07
9.26357e-06
2.74585e-07
-1.92162e-07
0.00323284
2.43187e-06
1.03437e-06
-4.4588e-08
-0.0024436
2.68288e-07
0.00201367
0.000104427
-8.62271e-07
0.000343609
0.000404382
3.71385e-07
1.24913e-06
3.85941e-07
0.00152224
5.3953e-07
0.00109665
1.38852e-06
1.91913e-06
2.85207e-07
4.66976e-06
1.01577e-06
2.63746e-07
3.13956e-07
3.8216e-07
2.68735e-07
5.94349e-06
3.06838e-06
-2.83444e-06
2.81747e-07
5.96428e-06
-4.25549e-07
9.01965e-06
1.31033e-06
2.22218e-06
4.76292e-06
0.000386044
-6.01829e-07
0.00164236
5.35469e-07
0.00194953
-9.95625e-07
2.93512e-07
7.21979e-07
0.000764548
0.00209959
2.88316e-07
-1.35728e-05
2.95315e-07
9.01675e-07
-2.73595e-06
4.55192e-06
2.47694e-07
-4.10093e-07
8.26155e-06
8.77987e-06
0.000728584
1.61456e-06
1.11897e-06
-0.00257136
-9.0279e-07
-2.0922e-07
-2.04718e-07
0.000221223
5.67924e-06
6.9667e-06
-5.99319e-08
-7.2792e-07
6.5223e-06
0.00130556
-2.23201e-07
-2.06807e-07
2.93348e-06
-1.66893e-07
-1.66573e-07
0.000630778
0.000464336
3.64881e-07
4.27397e-07
2.16989e-06
0.00116674
2.06215e-06
-7.13506e-08
-1.82959e-05
4.17904e-05
5.80056e-06
-0.00263852
1.93912e-06
7.96563e-09
0.000435441
2.27569e-06
1.30861e-06
2.08504e-06
2.92258e-07
0.000431831
2.34717e-07
9.42888e-07
1.33615e-06
3.35896e-07
2.7964e-06
3.61092e-07
-2.21204e-07
-6.16588e-07
0.00224985
0.002449
-3.53729e-07
-2.31075e-07
3.23441e-07
-2.21443e-07
2.3767e-07
1.58943e-07
1.01073e-06
-7.59574e-08
0.00308571
-0.000924428
3.32205e-07
8.6397e-07
1.03866e-05
1.85272e-07
1.02976e-06
0.00256253
1.87729e-07
0.00109557
-2.80544e-07
-0.00205155
1.84968e-06
-6.57677e-08
3.22588e-07
-1.14605e-07
3.35433e-06
-1.95066e-06
-2.27204e-06
6.71873e-07
0.0037963
-3.32644e-05
-5.36157e-06
0.00262963
8.32329e-07
1.32009e-06
1.81911e-06
4.71865e-07
2.38793e-06
3.91967e-07
-5.23449e-07
-1.39735e-06
4.44278e-06
-0.000592217
9.229e-07
3.83434e-07
-8.30103e-08
0.00275022
0.000604895
-4.50283e-07
-4.038e-09
4.74834e-07
0.00237372
2.40569e-06
-0.000824471
0.00126202
-9.09283e-06
-7.69924e-07
4.75945e-07
-8.60706e-07
0.00340664
3.05599e-06
1.90285e-07
-2.51597e-07
-1.25144e-05
3.65732e-07
-1.2015e-06
2.27964e-06
1.46119e-06
0.00141667
-1.25771e-07
8.93706e-07
9.53528e-07
-2.09727e-05
-2.66599e-07
9.21616e-07
4.14635e-07
-8.72149e-06
9.37401e-07
2.03286e-06
-1.76962e-05
2.67706e-07
3.66341e-07
0.000478988
-6.91894e-07
-0.000596398
0.00220865
1.00276e-07
3.38005e-07
-7.21756e-05
-4.63698e-08
8.39628e-08
2.38441e-06
2.96952e-07
1.94197e-06
9.12641e-07
3.6681e-06
2.08619e-07
1.10369e-06
9.20075e-07
0.000218445
-3.68988e-07
2.73391e-07
3.24205e-06
3.01918e-06
2.00269e-06
0.000380213
8.53012e-07
-6.81554e-05
2.52293e-07
3.61223e-07
1.30832e-07
-5.2879e-05
-6.05988e-06
8.1411e-06
1.15546e-05
5.01653e-07
3.55988e-07
-6.43676e-06
1.11085e-06
0.000250008
4.71711e-06
-5.58033e-06
-2.51252e-05
3.04347e-07
2.93731e-06
-3.40944e-07
0.000246616
7.32309e-06
3.5324e-07
6.53619e-05
1.50993e-06
2.87909e-07
-0.00173271
3.95368e-06
3.43082e-07
3.71021e-06
3.65238e-07
1.82106e-06
3.15239e-06
-1.1311e-07
5.73543e-07
3.80029e-07
-6.2406e-08
-2.07763e-07
-3.13508e-07
-0.00720846
-1.28324e-06
2.77659e-07
-2.79162e-07
2.69688e-07
1.25902e-06
-1.2823e-05
6.19103e-07
4.05288e-07
2.64792e-06
-1.19708e-07
-8.19149e-08
3.47694e-07
0.000562885
4.64593e-05
-9.4241e-06
2.8269e-06
1.46705e-07
4.53528e-07
4.94748e-07
7.09658e-07
-2.14326e-07
6.33455e-07
3.31776e-07
5.01686e-07
4.23665e-07
0.000418106
3.35585e-07
9.16764e-07
0.00329848
1.29909e-06
-4.26812e-07
2.49363e-07
-0.00225415
7.01238e-07
0.00148671
8.51438e-07
1.1991e-09
1.23579e-06
-8.12035e-08
3.4079e-07
3.16762e-07
0.000643825
-6.03934e-05
0.000137964
7.15454e-09
9.13701e-07
-7.07485e-05
2.67922e-07
2.14146e-06
-0.000523342
3.08715e-07
-0.00220745
-4.26134e-07
-3.40948e-07
2.2409e-07
3.03298e-07
-3.82978e-07
-1.92607e-07
0.00276192
0.000774175
-3.6507e-07
-8.46372e-06
2.59202e-06
1.76961e-09
1.42561e-06
1.44348e-06
-0.00141134
4.9245e-07
2.44899e-05
-6.1796e-05
6.50807e-05
3.17617e-07
-5.16095e-06
-0.000103884
2.82881e-07
1.65393e-05
7.89856e-08
3.86354e-07
2.74599e-07
3.02467e-07
8.96304e-07
2.99667e-06
1.205e-06
9.52308e-07
4.52279e-07
7.73842e-07
8.26841e-07
2.72713e-07
0.00751997
9.73724e-07
6.68165e-07
0.000390878
-1.21415e-07
7.66661e-07
5.81393e-06
-2.59131e-07
0.00439049
-3.68629e-07
-6.99421e-08
1.28968e-06
8.9552e-07
-7.64837e-07
3.95336e-06
0.0047217
-0.000901263
-5.4981e-08
3.20527e-07
4.42809e-06
2.67742e-05
1.00832e-05
2.68347e-07
2.9756e-07
-7.52928e-08
1.30638e-06
-0.000635637
-3.73049e-07
1.86001e-06
2.38434e-07
-7.77167e-08
1.0845e-05
6.49913e-07
4.24334e-07
1.25399e-06
-2.60368e-07
3.34079e-07
3.75737e-07
-0.000639206
-5.427e-08
4.19326e-07
-7.10255e-07
9.25416e-07
1.86601e-06
2.83008e-06
1.40164e-06
-6.81395e-07
3.51527e-07
4.09361e-07
0.00136448
0.000426169
0.0036648
-5.00529e-07
1.4364e-07
-6.30403e-06
1.68563e-07
1.62976e-05
3.39661e-07
-0.00250583
5.31133e-07
0.00011069
9.88021e-07
4.86328e-07
0.000469676
-3.71773e-07
1.2879e-06
-9.89987e-07
4.64062e-06
0.000245501
7.43591e-07
2.88876e-06
-7.23741e-07
9.32729e-08
2.00984e-07
3.10498e-06
1.09543e-05
-2.03364e-07
2.51202e-06
1.39987e-06
0.00388711
-2.65326e-06
0.00289504
-0.00107556
-5.3009e-08
0.00117973
2.08172e-07
-0.000570169
-0.00832995
1.03035e-05
4.7825e-07
6.7535e-07
9.64068e-07
2.86375e-07
7.6182e-07
-1.17554e-06
4.71129e-08
1.2829e-06
-7.52284e-09
1.5859e-06
3.89528e-07
-2.08172e-07
2.40864e-06
8.78749e-06
-3.31788e-05
0.000767128
1.79272e-06
6.36157e-07
3.86004e-06
0.00130844
-3.44995e-07
3.34693e-05
4.83151e-08
1.92743e-06
1.76759e-07
-4.29544e-06
-9.45387e-08
7.49027e-06
2.49404e-07
0.00407617
1.033e-06
-8.83232e-06
1.86539e-07
9.42977e-07
-4.64082e-07
5.6143e-07
1.30716e-05
7.28934e-07
-5.3748e-07
3.92528e-06
-6.88381e-08
4.58301e-06
-1.08669e-07
-0.000169376
-1.10695e-08
6.0697e-07
3.3483e-07
-4.957e-07
2.95802e-06
3.58761e-07
3.55199e-06
-6.52652e-07
-2.59481e-07
-0.00173862
1.29416e-06
2.93193e-07
0.000997889
3.06596e-06
-1.4091e-05
6.09514e-06
-3.55822e-07
-4.09602e-07
-0.000420197
3.96679e-06
6.41725e-07
3.67627e-07
4.95372e-06
-2.56794e-07
-3.00875e-07
-1.40727e-05
2.10339e-06
4.93894e-07
0.000483476
1.02681e-06
-1.57578e-05
1.52635e-05
-0.000728578
9.15336e-07
4.46542e-06
0.00105568
-5.64958e-07
5.76806e-06
-1.18153e-05
-2.58717e-07
8.36554e-08
2.56205e-06
3.81232e-06
-5.74254e-07
0.00118935
8.46116e-07
-2.73927e-07
2.18934e-06
1.32507e-07
-0.00123428
-2.95976e-07
-4.05908e-07
0.00479124
1.68592e-06
5.51035e-05
2.36683e-07
6.9549e-07
-4.63153e-07
3.18472e-07
6.71754e-07
-1.45402e-07
0.00195183
7.12782e-07
0.00184976
0.000493066
1.32137e-05
0.00286298
3.21923e-07
-9.08756e-07
-3.92845e-07
0.00262397
0.000147761
5.54839e-07
0.00176767
0.00249954
-2.77346e-07
-4.42155e-07
3.25635e-07
-9.30514e-06
0.00147876
1.04953e-06
2.84173e-07
4.37943e-07
1.90238e-06
3.43889e-07
3.62111e-06
8.57777e-07
2.67988e-07
2.95825e-07
-1.39547e-06
6.62079e-07
5.8225e-07
5.37342e-06
4.80606e-07
2.7235e-06
0.00183854
-2.8807e-06
0.000955731
3.68006e-07
-5.20676e-07
5.20037e-07
3.45413e-06
3.24428e-07
1.02662e-06
1.44923e-05
-0.000894533
1.87739e-07
4.81574e-07
-9.05231e-07
6.49971e-08
2.30786e-07
-1.13965e-06
-7.7111e-05
8.18516e-06
3.58177e-06
-3.39384e-07
1.09004e-05
5.53821e-07
3.33119e-07
3.90422e-06
3.12203e-07
1.31667e-06
-5.89345e-06
-1.38232e-07
1.68732e-06
1.25253e-06
8.69385e-07
-3.9202e-07
-3.91015e-07
-3.10695e-07
0.000696787
2.83358e-07
5.22829e-07
8.71581e-07
-1.26288e-07
-4.47342e-07
3.51122e-06
-1.15487e-06
-3.47833e-06
5.90495e-05
1.60864e-06
-8.19837e-05
2.30965e-07
7.1558e-07
7.43347e-08
1.13247e-05
-0.000537654
1.06403e-06
2.22466e-08
2.41418e-07
4.74211e-07
3.19505e-06
-3.89206e-07
1.36532e-06
1.11378e-07
-0.000176841
3.71927e-07
6.27247e-07
1.00302e-06
2.14583e-06
-5.37392e-08
-0.0020353
-6.1366e-06
1.3215e-06
-0.000809904
3.11211e-07
0.00201223
3.40099e-07
-2.2603e-05
4.1505e-07
-5.11485e-07
1.61202e-07
0.0011296
6.41349e-07
-1.57321e-05
0.000221082
5.14585e-08
9.26483e-07
3.79975e-07
-1.83558e-05
0.00355196
4.93978e-07
0.000430051
4.53404e-07
-1.03586e-05
2.72472e-06
0.000841683
-2.85408e-07
-3.58684e-08
3.48814e-07
-3.60313e-07
3.61014e-07
3.34968e-07
7.09606e-08
8.65362e-07
-2.68258e-07
8.58314e-06
2.5797e-07
0.000506636
0.00213684
0.000529127
2.01327e-05
-0.000103587
0.000445019
0.00252519
-2.47952e-07
4.53739e-06
2.98812e-07
3.087e-07
-6.977e-08
6.6202e-07
6.08002e-08
-1.07774e-05
3.45522e-07
7.3032e-06
2.7679e-07
7.20508e-07
9.59147e-09
-5.35414e-07
9.37209e-07
3.17628e-07
3.45551e-06
5.32286e-07
1.0382e-06
0.00384134
2.31775e-06
1.31308e-06
-4.75611e-07
8.47046e-08
3.80614e-07
1.65462e-07
0.000248254
-2.61761e-07
4.16685e-07
-1.05976e-07
-0.000377603
2.95843e-08
2.78563e-08
1.16152e-06
4.57282e-05
-2.77402e-07
2.67051e-05
4.05204e-05
2.59543e-07
2.02335e-06
-3.7239e-07
1.23533e-06
9.22519e-07
1.74078e-07
0.000318748
-1.55731e-07
2.87886e-07
2.20648e-06
0.000457434
9.00882e-07
0.00486243
-2.14076e-06
-7.4305e-06
3.78753e-07
1.1623e-07
3.89988e-06
4.27588e-08
2.66115e-06
2.58227e-07
0.00436792
-3.54144e-08
3.97715e-05
-2.56578e-07
5.17533e-07
2.30969e-05
-6.58055e-07
-1.9425e-06
0.000667541
3.0549e-07
-2.28214e-07
0.00359131
-6.69479e-06
4.63815e-06
2.07395e-06
3.35078e-07
3.91763e-05
9.21157e-07
1.44865e-06
5.06757e-06
3.97269e-07
0.00375378
2.61462e-07
1.87082e-06
4.03711e-08
0.0030304
-0.000220034
2.60959e-07
1.05122e-06
2.1246e-06
2.69655e-07
1.02976e-06
-1.45597e-06
2.83961e-07
1.35159e-07
6.78561e-07
-1.36737e-07
2.98846e-07
1.47063e-06
-0.000113738
-0.00284245
2.21338e-06
3.87064e-07
3.15573e-05
2.64296e-09
1.58089e-07
0.0023057
0.00054271
1.04152e-07
-2.64811e-07
-8.72796e-08
4.08676e-07
4.89761e-08
1.32052e-06
4.15163e-08
9.42743e-07
-2.20288e-07
0.000242626
0.00391159
-2.68958e-07
0.000744162
5.4943e-08
-2.96664e-07
8.90108e-05
-0.000334265
7.67325e-07
1.95644e-06
0.000621205
-7.34393e-07
-3.05544e-07
2.20523e-05
5.23427e-06
8.12704e-06
3.14047e-07
-6.55197e-05
-4.10403e-07
-1.48885e-06
7.30543e-07
2.3665e-05
3.30437e-07
0.00145689
-2.8938e-05
-1.72323e-06
4.20023e-07
8.26929e-08
-3.72489e-07
1.89606e-06
8.18e-07
4.92342e-07
0.0029095
0.000283364
-5.38448e-06
1.95754e-06
-1.95717e-07
0.00340682
-1.47986e-06
0.00104876
1.35901e-06
5.79377e-07
3.208e-07
-0.000116607
-0.00049027
-1.69853e-05
4.83642e-07
0.0036617
1.1374e-06
6.20674e-08
8.11043e-07
2.61846e-07
2.79469e-07
-4.60098e-06
0.000656232
-1.63539e-06
6.05652e-07
0.00135113
-7.14672e-07
2.01479e-08
-0.00435384
-0.00261782
2.94176e-07
3.80504e-08
5.61056e-07
2.64044e-07
-3.49116e-07
-9.50659e-07
1.85806e-07
2.88465e-07
0.000799306
6.04928e-07
0.00113156
0.00329299
-2.36252e-05
0.00286805
2.38745e-07
2.69208e-07
1.96408e-06
0.000361566
-1.20551e-07
2.32766e-07
7.35142e-07
2.12987e-07
3.21763e-07
8.25761e-07
-0.00217978
-2.22781e-06
3.55458e-07
1.1039e-06
-5.42025e-08
-0.000547022
2.10516e-06
2.42391e-06
1.01728e-06
1.27813e-05
0.00179733
8.25034e-05
0.00174618
-2.20884e-06
1.29139e-05
3.76338e-08
1.26001e-06
2.03768e-06
0.0030421
4.47733e-07
4.51012e-06
5.03345e-07
-1.02418e-05
2.94375e-07
-0.000920196
9.04038e-07
1.38784e-06
0.000667513
1.58208e-08
1.88426e-06
3.51004e-07
4.24627e-07
1.57276e-05
0.000652521
5.8829e-07
-2.99854e-07
3.30062e-07
-8.83461e-06
-2.47866e-07
3.02457e-07
2.56045e-07
2.70092e-07
3.9149e-07
-5.1271e-09
1.22252e-06
3.5424e-07
-5.01566e-07
7.32051e-06
2.0474e-06
-7.69831e-07
0.00356213
2.40647e-07
4.19981e-08
-0.000209833
3.74832e-07
3.08588e-07
0.00151162
0.00309122
9.0325e-07
1.17532e-06
3.51548e-07
0.00134991
1.3518e-06
7.98792e-07
-1.3764e-05
-4.02104e-07
2.34186e-06
-0.000356029
3.02827e-06
0.00227608
-3.2051e-05
6.79602e-07
2.80977e-07
-3.93747e-08
3.80332e-07
3.83605e-07
4.74734e-06
-1.02761e-07
1.13308e-06
-1.05792e-07
1.04477e-06
-0.00212319
3.30397e-07
2.88765e-05
-0.00087431
6.05123e-08
1.45599e-06
1.42556e-07
3.12774e-07
8.60935e-08
0.00353066
1.80401e-06
0.000762132
6.19376e-07
-0.00116798
1.00292e-06
7.49195e-07
0.000393958
9.15928e-07
5.42989e-07
3.41833e-08
6.31525e-06
8.32294e-08
4.83859e-07
1.02732e-06
1.77459e-07
2.48632e-07
1.05409e-06
1.39238e-05
-3.94723e-08
4.62378e-06
-4.11831e-05
3.949e-07
-1.82868e-08
-7.89117e-06
-3.6566e-06
3.19014e-06
-4.87052e-07
6.8373e-07
-1.02141e-07
0.00128864
0.00223549
3.0584e-07
-2.63299e-07
7.72948e-07
7.76776e-08
-1.02024e-06
3.15116e-07
-2.15467e-05
2.28255e-07
4.51975e-07
0.000498214
-1.12811e-07
2.22536e-06
-0.00297472
-0.000463001
2.38753e-07
-5.5463e-07
-2.56314e-07
2.96361e-07
1.19134e-06
0.00357782
1.30016e-06
-1.28751e-07
6.71012e-07
1.12679e-06
3.53299e-07
-2.86968e-07
4.58054e-07
2.50391e-06
-6.71723e-07
2.48112e-06
-1.61497e-07
-4.07642e-07
2.2101e-07
0.000534033
1.18821e-06
0.000276584
0.000118854
3.40588e-06
-4.46169e-07
7.05311e-06
-1.16988e-06
-1.16568e-07
8.5764e-06
0.00255203
-6.52586e-07
6.80156e-07
2.81945e-06
8.47349e-07
2.85906e-07
-2.63572e-07
-1.11167e-08
-4.27056e-07
4.16204e-08
6.9646e-07
8.58241e-07
0.00241509
8.37947e-07
5.04095e-07
8.25355e-07
7.62143e-07
-5.14137e-07
8.67699e-07
7.81776e-06
4.34318e-06
-0.00070963
2.65933e-07
-2.63901e-07
0.00323475
-2.84563e-07
-5.67823e-06
3.56422e-07
9.51652e-07
2.59888e-07
-2.92481e-07
8.56087e-06
5.21752e-07
2.56071e-07
5.46907e-08
0.000400849
6.13867e-07
0.00150312
1.07651e-07
3.02976e-07
-4.92431e-05
1.01613e-06
2.91719e-07
-1.72936e-06
0.00110697
5.83579e-07
8.38771e-07
2.80128e-07
1.42347e-05
-4.53615e-08
2.91083e-07
2.59638e-07
-2.43101e-07
3.76849e-06
-3.56101e-08
-4.07471e-07
-3.96595e-06
1.31033e-06
-0.000164876
2.94669e-06
-7.62239e-08
7.14408e-07
-4.29005e-07
-4.84396e-07
4.37086e-07
-7.63692e-08
3.30498e-07
3.90812e-06
2.96811e-07
1.89493e-06
1.43478e-05
1.36476e-05
2.63246e-07
1.7331e-07
-3.5093e-07
0.00383237
6.13256e-07
-1.16944e-05
1.17494e-06
-1.14066e-07
7.3361e-07
8.3732e-07
7.14582e-07
3.99422e-07
-2.02968e-05
-3.02434e-07
-4.06555e-07
6.9609e-05
-7.50548e-07
1.22825e-05
-1.26993e-07
-7.15145e-07
2.59089e-06
2.37875e-06
-3.24153e-08
-0.00311364
1.15271e-06
-7.92109e-07
-8.00198e-08
-2.74218e-07
1.13703e-06
0.000484097
-0.00136283
0.000276942
-0.000185989
5.71529e-05
1.76526e-06
2.03073e-07
-0.000178539
-1.01561e-07
5.68815e-07
4.78244e-07
1.58898e-06
-2.87683e-07
0.000569417
4.29132e-07
-3.29652e-07
-1.70624e-06
8.7945e-06
0.00147294
1.39442e-06
5.07112e-07
-1.89877e-06
0.000547786
-1.25456e-06
-0.000262523
5.3881e-08
1.98306e-06
-2.37755e-06
-2.29042e-07
0.000102626
5.75867e-07
-1.17597e-07
1.54138e-07
-1.32143e-06
0.00211852
2.86316e-06
-2.67274e-07
1.09819e-06
-9.14872e-08
-4.38788e-07
6.07684e-07
-3.99947e-07
8.50462e-07
2.45902e-07
3.44267e-07
-2.13069e-07
-4.89672e-06
-3.47616e-05
-2.33049e-07
-2.4676e-07
2.88703e-07
-8.94553e-08
4.67415e-07
1.91282e-07
1.43297e-07
2.44887e-07
-1.41193e-07
2.87065e-07
3.23887e-07
1.75962e-06
-2.82746e-07
2.19742e-06
3.10937e-07
-1.32018e-06
-4.64033e-07
3.48774e-07
-1.27109e-07
6.85004e-07
9.12283e-07
7.06322e-09
4.7257e-07
-0.000317777
3.46743e-06
0.00316901
-0.00282224
2.06408e-06
-6.66498e-05
3.37514e-07
3.01001e-07
-3.68138e-06
0.00111819
3.00677e-06
0.00167962
-3.44846e-07
2.37429e-06
0.00118781
4.08555e-07
2.38687e-06
-0.00488827
0.00688932
-7.13785e-08
1.30227e-06
-2.62492e-07
-0.00206199
4.28041e-07
0.00118977
0.000251408
2.80348e-07
-2.33185e-05
-5.04941e-06
1.08528e-06
3.12497e-05
7.39091e-05
3.46379e-07
-1.93684e-07
-5.73947e-06
0.00289152
-1.02603e-06
6.4519e-07
3.09704e-07
-3.4085e-06
3.90341e-06
4.15602e-07
-4.93257e-07
1.97076e-05
-5.22429e-07
5.63503e-08
2.83094e-07
-3.19889e-07
2.03148e-05
-3.24281e-07
6.50527e-07
0.00345804
3.78792e-08
1.93404e-06
2.18791e-07
-6.53004e-06
1.18764e-06
-0.00277612
-4.34866e-07
5.51919e-07
1.46352e-06
-4.56363e-07
3.66937e-07
3.73299e-07
2.35613e-05
2.99884e-07
-3.67055e-07
-2.87865e-08
1.09471e-06
-2.02637e-07
0.00338611
7.90158e-05
0.00249981
3.07059e-08
-5.26088e-07
-2.42378e-08
0.00447573
2.90275e-07
-4.53785e-05
-7.92786e-08
3.29581e-08
3.23032e-07
4.16025e-06
3.58607e-06
3.80703e-07
7.2831e-07
0.00269436
2.857e-06
0.000142696
8.65785e-07
0.000111255
0.000295317
4.08921e-07
0.00189464
4.00636e-07
6.96348e-08
0.000425869
2.20939e-07
2.69659e-07
0.000453249
2.85615e-07
1.68266e-06
2.56692e-07
1.48515e-05
6.32823e-08
0.00333633
-4.13151e-08
0.000933707
7.25659e-08
-1.9741e-08
3.41973e-07
0.00127841
-5.23864e-07
2.94082e-06
7.54618e-07
-0.0022062
5.75066e-08
6.20074e-07
0.000906052
-1.22674e-05
8.10905e-06
2.01287e-06
-4.6644e-07
3.3576e-06
-4.65531e-07
2.406e-07
1.6071e-06
5.29117e-07
4.61658e-06
0.000641253
-5.4198e-07
0.00217886
-7.16386e-08
-1.59769e-05
1.8359e-05
4.06324e-07
4.76135e-07
0.00301951
-0.00223932
2.94165e-08
3.41964e-07
-3.46151e-07
4.01608e-07
3.37772e-06
1.28065e-06
8.09446e-06
1.37639e-08
6.02199e-07
0.000256628
8.51041e-05
0.00429661
-3.26106e-05
-1.17015e-07
1.55668e-08
3.57704e-06
0.000737247
-3.70977e-06
-0.000504469
3.80538e-06
1.00368e-06
4.71385e-06
0.000393415
-0.000634778
0.000204147
-2.0157e-07
2.34293e-06
1.11939e-06
1.15893e-06
2.88862e-07
3.41216e-07
1.12405e-06
2.69994e-06
0.00306662
-7.34584e-06
1.5305e-05
0.00315552
1.13862e-06
1.97259e-08
2.90621e-08
-1.05562e-05
-5.34679e-07
0.00320979
6.27318e-07
3.97936e-06
5.81242e-06
0.000243931
-2.26691e-07
9.28423e-07
7.0963e-07
3.08954e-07
0.00148695
1.28349e-05
0.00325237
-3.48568e-07
0.00143401
1.15925e-06
3.44927e-06
6.79245e-07
5.52562e-07
3.32418e-07
9.16621e-06
2.04863e-06
1.17543e-06
3.53813e-06
4.57125e-06
3.0116e-07
5.29245e-07
3.32361e-07
3.48467e-06
0.00139973
8.90137e-07
-1.9462e-07
3.17309e-07
2.58838e-06
1.18038e-05
-4.96301e-07
8.40096e-07
3.6891e-06
-2.20927e-07
0.00029989
3.02452e-07
0.00275796
-8.20012e-08
-0.000500522
-5.86907e-05
6.34712e-07
2.40209e-07
5.65011e-07
-3.00111e-08
1.36907e-06
-0.000553486
-2.1652e-08
1.7625e-06
7.14534e-07
1.54262e-06
0.000571648
6.6235e-05
2.70051e-07
2.45015e-05
6.50269e-06
-2.23955e-07
2.54612e-06
1.79576e-06
-4.8473e-08
1.98913e-05
-5.05697e-06
0.00157247
3.30994e-06
-0.0008048
5.88718e-07
1.23077e-06
-1.93127e-07
2.43658e-07
3.68487e-07
-2.95482e-07
5.65451e-06
4.31084e-06
6.09639e-07
-1.23688e-06
3.66248e-06
-3.7161e-08
0.00231407
-3.4766e-05
-4.51271e-07
3.20613e-07
-2.53451e-07
2.64689e-07
6.50364e-07
6.61912e-08
-1.72678e-05
6.86815e-07
1.79421e-06
1.29246e-07
1.07089e-06
1.30583e-06
-6.78094e-07
2.78633e-05
3.2084e-07
2.68765e-07
5.59131e-07
-4.56501e-07
0.000595439
1.7575e-06
5.85852e-07
-0.00165073
5.63745e-08
2.6591e-07
3.29436e-07
-3.78205e-07
1.44391e-08
5.68734e-07
4.89768e-07
0.00037915
-0.00015577
0.000934189
2.29171e-07
-0.00162247
5.38687e-08
1.02187e-05
-2.04268e-07
2.71577e-06
-7.11484e-05
-3.54899e-07
3.95058e-07
0.00150503
7.97998e-07
-3.64787e-07
8.83008e-07
6.02066e-07
-0.000234224
-2.96633e-07
2.28207e-07
-1.4313e-06
-1.79101e-06
4.39901e-06
-3.73838e-08
5.0677e-07
-1.12911e-07
-2.46956e-06
-2.06876e-06
8.62979e-07
2.94826e-07
3.46779e-06
-9.25508e-06
0.00100558
-0.000543297
-7.91622e-07
2.45877e-07
-0.00047993
3.27645e-07
1.61615e-06
2.3183e-07
-2.69513e-05
8.60841e-07
2.51635e-07
4.69894e-06
-0.00215997
4.03117e-10
-4.35429e-07
-9.90418e-08
2.86817e-06
0.000234308
3.16411e-06
1.45744e-08
2.03741e-07
-2.37876e-07
0.00362864
-8.19926e-07
-3.94306e-06
1.2566e-06
5.63265e-08
9.76953e-06
-5.63929e-07
2.14506e-06
2.98833e-07
8.78812e-08
6.73445e-07
6.21446e-07
-2.30305e-06
2.50166e-07
2.67481e-07
5.95672e-07
-0.000566806
-3.96136e-07
-7.39376e-09
2.57137e-05
3.16205e-07
-2.71973e-05
4.41087e-07
-4.19909e-07
-5.33566e-07
-0.00643546
3.93042e-07
-0.0080032
4.22781e-06
3.14329e-07
1.81152e-05
2.61549e-07
3.12654e-06
9.22182e-07
-4.87685e-09
7.55867e-07
3.31528e-07
6.22264e-08
4.93877e-05
8.08109e-07
0.00385205
-0.00140992
-3.02608e-07
-6.05968e-05
9.91389e-07
3.8776e-06
1.08911e-07
-0.000659138
6.61681e-05
-9.34797e-06
-3.25379e-07
3.51427e-07
2.64091e-07
0.00153342
0.000490933
3.56083e-06
-2.72778e-08
7.08028e-07
-0.000583442
2.46964e-07
3.61074e-07
2.47594e-07
2.35811e-06
1.21558e-06
-1.01404e-07
-0.0027639
-2.20084e-07
7.81234e-09
2.6293e-05
1.14378e-06
3.09294e-05
1.30631e-05
7.55709e-07
5.35885e-08
5.09542e-08
3.27078e-07
2.53421e-07
-1.32825e-06
1.29038e-06
2.90855e-08
4.33479e-07
2.94189e-06
-0.000292863
-2.77028e-07
1.7762e-06
-0.001063
1.29579e-05
8.83742e-07
3.09823e-07
4.49246e-05
-3.37982e-06
-7.10232e-06
-2.0031e-07
0.000308661
1.27567e-06
3.80774e-07
0.00224239
5.94606e-07
3.96976e-07
8.79798e-06
4.1999e-08
-2.05977e-05
-5.14938e-07
2.22402e-07
7.98807e-08
-1.01298e-07
7.44684e-05
6.18047e-07
-1.6667e-07
2.22959e-06
4.09633e-07
2.05835e-07
2.769e-06
4.16824e-07
3.16838e-08
3.27448e-07
2.8758e-07
-0.0001557
-0.000346289
2.9921e-06
0.000229246
-6.27876e-07
0.00191353
1.13162e-05
-0.00322277
-6.94967e-05
-8.19313e-05
-3.75195e-07
2.21711e-07
1.22262e-07
4.15657e-07
-3.69684e-07
5.01027e-06
3.53062e-06
1.18147e-06
1.07055e-06
-6.00089e-08
1.23705e-08
1.07495e-06
2.44033e-07
2.73021e-07
4.19159e-07
0.00410818
7.0877e-07
0.000492543
2.43637e-07
4.11164e-05
2.53054e-07
1.76864e-07
3.14245e-07
1.03175e-06
-1.35392e-07
2.52596e-06
0.000190311
1.09088e-06
0.0029574
-0.00874098
-4.07609e-06
6.01467e-07
0.00122609
2.98419e-06
8.5941e-07
-2.91328e-07
3.34078e-07
-0.00140191
2.99522e-07
-6.33686e-06
-5.09218e-06
2.16376e-06
1.70128e-05
-0.000160039
1.49849e-06
0.00216917
-7.43507e-07
-1.92483e-08
0.000424191
1.34398e-05
2.6168e-07
2.46063e-07
5.51162e-07
-2.00805e-07
7.66101e-06
-1.80023e-07
-7.56135e-07
4.42553e-07
2.56264e-07
1.95874e-06
-0.000556615
0.000408797
4.52571e-07
-4.73006e-07
5.00917e-07
3.20967e-07
9.60698e-07
-2.97442e-07
2.49684e-06
1.84176e-06
2.77894e-07
3.93988e-07
3.16025e-07
-9.42799e-07
1.29129e-06
4.27279e-06
1.60758e-05
6.74399e-07
-4.49742e-06
1.37783e-06
2.17908e-06
-3.06236e-05
6.92264e-08
-0.00201598
2.96056e-07
0.00416069
5.22992e-06
-0.00153061
9.30975e-06
2.04025e-07
1.14519e-06
0.000524339
-1.70695e-08
0.000580253
3.88042e-07
2.83167e-07
5.48882e-07
2.72551e-07
7.40444e-07
1.01486e-05
2.21957e-05
0.000456968
5.13809e-07
1.0948e-06
2.99621e-07
5.38138e-08
2.44977e-07
3.05713e-06
2.3938e-06
0.000872397
9.14627e-07
6.6359e-07
-3.39995e-07
3.51707e-07
4.31212e-06
2.68227e-07
3.41951e-07
4.77191e-07
1.19546e-06
7.46796e-07
9.30359e-07
-1.21619e-06
-0.00282757
6.77091e-07
7.90925e-07
1.02847e-07
5.93229e-07
3.37538e-06
0.00203138
1.40629e-06
-3.74295e-07
5.38545e-05
8.06062e-07
-2.13745e-07
1.1981e-06
-0.000262806
-0.000995829
8.51109e-07
-2.10329e-07
-0.000377427
2.5895e-07
-2.14619e-07
7.30618e-07
-7.12583e-06
-4.29974e-06
-4.33549e-06
3.28789e-05
1.23517e-05
-2.52023e-07
-2.53584e-06
1.23009e-06
0.00319884
7.01589e-07
0.000428219
2.71903e-07
0.00249524
-4.14132e-05
0.000442368
8.45255e-07
-3.40301e-07
0.00108644
-1.05386e-07
2.88188e-07
-0.0116879
2.11917e-06
-4.56021e-06
6.11913e-06
5.45697e-07
3.30231e-07
-9.73305e-06
-1.77192e-07
-5.25364e-08
2.51202e-07
1.12018e-06
9.39847e-08
-3.61013e-07
-1.00795e-07
-0.000217516
2.28132e-06
2.89686e-07
0.000907574
-6.36617e-08
0.00129919
0.00277702
2.46235e-07
2.46758e-07
5.001e-07
3.22848e-06
3.92105e-06
1.69464e-06
0.00011059
-0.00186552
7.53781e-06
-4.97676e-06
1.08829e-05
-0.000192338
3.36338e-06
5.38926e-06
4.18871e-07
-7.69108e-08
2.31456e-07
2.53929e-07
-1.2074e-07
8.20993e-07
0.000872994
-4.9018e-07
-2.58989e-06
0.000570011
-2.40172e-06
0.000962884
0.00111866
-2.32904e-07
0.00108433
3.3788e-06
1.38718e-06
-1.76734e-07
5.68033e-08
1.57221e-06
0.00241117
3.31616e-07
-0.000225425
0.000835938
-4.1193e-07
2.66554e-07
1.48426e-06
2.48559e-07
2.63476e-07
2.00737e-06
-0.00181977
-2.51575e-07
-4.8568e-08
-3.84182e-07
2.85306e-07
2.0506e-06
0.000346521
9.4143e-07
-1.88688e-05
2.42035e-06
-1.87931e-08
2.76156e-06
-6.06433e-07
1.26116e-06
5.13906e-06
3.41798e-06
0.000838413
4.73469e-06
0.00181533
-3.903e-08
-5.26812e-06
0.00116208
3.9796e-06
-1.03103e-05
-5.21905e-07
3.01166e-07
4.00624e-07
5.02366e-07
-3.45236e-05
1.60638e-06
2.48334e-07
5.98405e-07
0.000105864
0.0019088
-5.50768e-06
1.59493e-07
0.00375549
0.000901001
2.38877e-07
5.98249e-07
3.06458e-06
-1.49414e-08
-1.09094e-09
-0.000234139
-4.99439e-08
4.51885e-06
1.69631e-05
-9.20981e-06
-1.49676e-07
7.58735e-07
3.06401e-06
-2.56765e-07
4.81309e-07
0.00410914
1.7044e-06
1.0143e-07
-6.50212e-07
6.95719e-06
3.7979e-06
0.00139748
3.26386e-05
5.2249e-07
-2.41028e-05
0.00122997
8.34181e-07
-1.10005e-07
-6.57704e-06
-9.1741e-08
5.63041e-07
0.000578239
1.00696e-06
2.46665e-06
4.28715e-07
-2.16732e-06
-5.36688e-07
-3.11231e-07
2.7673e-07
3.0123e-07
5.68604e-05
4.10632e-07
1.69966e-05
0.00219187
8.94229e-07
1.92673e-06
-0.000212019
0.000194953
6.0557e-05
8.40202e-07
4.64347e-07
8.58535e-07
5.05463e-07
7.24149e-06
0.000990733
2.83589e-07
1.89539e-05
0.0027857
5.44924e-07
2.2436e-06
2.1284e-06
2.19609e-06
2.40127e-06
3.32183e-07
2.62272e-06
2.70796e-06
2.88898e-06
3.33419e-06
2.32774e-06
2.48458e-06
9.0564e-07
-1.64216e-07
8.13394e-07
2.23421e-06
-1.07343e-07
1.28352e-05
0.00170168
7.0464e-06
-0.000195145
4.40433e-07
-3.44719e-07
0.00291093
1.46044e-05
2.95055e-07
2.76382e-07
1.13806e-06
-0.00763062
-3.74912e-05
3.83079e-07
-3.78336e-08
4.78637e-07
0.000135196
-0.000204949
2.53227e-07
1.42569e-06
0.00168006
2.45963e-06
0.000571041
2.71038e-06
-0.000461392
0.00155796
3.78481e-07
0.000980685
0.00320127
2.93501e-07
1.20495e-06
1.40995e-06
8.18296e-08
-5.05871e-07
1.4601e-06
0.000782915
-1.31611e-06
-1.30461e-06
0.000579009
1.18484e-05
1.05938e-06
2.77313e-07
2.26925e-06
3.95325e-06
0.00103601
0.00325027
2.75049e-07
-1.4665e-08
2.86109e-07
-1.04026e-06
0.000205992
-2.30637e-05
-0.000847028
2.18487e-06
3.06301e-06
0.00141855
-1.4632e-06
-2.22501e-07
0.00208329
-4.51166e-07
0.000619124
-6.4755e-07
0.000715669
3.20104e-07
2.54138e-07
-0.00517761
-3.75045e-07
2.52434e-06
0.00116187
3.44566e-07
2.25359e-07
3.25313e-07
3.62153e-06
0.000963293
3.03858e-06
0.00131552
-1.26595e-06
-2.58003e-06
5.88577e-07
9.90019e-07
0.00259064
-0.000609293
8.88386e-07
2.78597e-06
2.58852e-06
-1.47979e-05
-2.21827e-06
-2.54106e-07
-2.71594e-07
-1.84658e-07
2.12786e-06
-3.31806e-06
-0.000335395
1.0667e-06
2.80641e-06
-1.59683e-07
-0.000407989
1.52379e-05
0.000162431
1.078e-08
3.4359e-07
2.22562e-07
0.00150064
1.07435e-06
0.00186484
2.59755e-06
2.76462e-06
2.35807e-06
3.17641e-07
9.42018e-07
3.72485e-06
1.99183e-06
7.56093e-06
-1.02073e-07
2.6932e-06
2.88778e-07
5.24548e-07
3.6377e-07
-0.000343768
4.78193e-06
3.67723e-07
5.484e-07
-3.99302e-06
0.000762384
0.00147496
1.82186e-05
-2.00921e-05
-4.83794e-07
1.45597e-06
-2.66192e-08
2.80117e-06
-7.52832e-07
1.51656e-06
2.64326e-07
1.20588e-06
5.09284e-05
0.00232882
-2.06136e-06
1.48329e-06
0.00308117
2.39629e-06
2.27689e-07
-0.00452553
2.2079e-06
-1.71692e-06
6.63041e-07
-2.53414e-05
6.52906e-07
2.15727e-06
2.48714e-06
-0.000618321
0.000546585
-3.8863e-06
6.2795e-05
-8.47041e-05
-6.45212e-05
5.36387e-07
7.64238e-07
2.56668e-06
2.44782e-06
3.51213e-06
-4.67789e-06
2.78155e-07
4.94041e-06
-5.45306e-06
1.24125e-05
5.7281e-07
0.000429871
-5.13851e-07
1.68719e-06
4.36588e-07
-0.000166056
4.25225e-07
0.00020139
4.78801e-06
-9.29064e-06
0.00161038
-2.00546e-07
2.99125e-07
0.00168082
0.000663984
-2.62251e-05
2.67212e-07
1.04606e-06
-4.79004e-07
-1.49612e-05
-6.38696e-06
0.00334207
5.26877e-07
0.00358573
2.5735e-06
8.70481e-05
2.71409e-07
8.05585e-06
0.000591133
-1.45005e-06
1.70027e-06
3.71213e-07
4.25336e-07
2.63385e-07
-3.04194e-05
2.37582e-08
2.38095e-07
0.00119747
-8.20998e-06
-1.58359e-07
0.00153436
2.84555e-07
8.3883e-08
5.92178e-08
-5.28457e-07
2.38022e-07
8.92898e-06
0.00176279
-2.90312e-07
4.09988e-06
1.68031e-06
1.07496e-06
-3.05025e-06
2.36357e-06
5.05078e-07
9.07887e-07
-7.61906e-08