/*--------------------------------*- C++ -*----------------------------------*\
| =========                 |                                                 |
| \\      /  F ield         | OpenFOAM: The Open Source CFD Toolbox           |
|  \\    /   O peration     | Version:  v2012                                 |
|   \\  /    A nd           | Website:  www.openfoam.com                      |
|    \\/     M anipulation  |                                                 |
\*---------------------------------------------------------------------------*/
FoamFile
{
    version     2.0;
    format      ascii;
    class       volScalarField;
    location    "900";
    object      ddt0(omega);
}
// * * * * * * * * * * * * * * * * * * * * * * * * * * * * * * * * * * * * * //

dimensions      [0 0 -2 0 0 0 0];


internalField   nonuniform List<scalar> 
13917
(
-0.167684
0.000205908
0.00112116
8.11718e-05
0.000379684
5.37571e-06
0.000533491
0.00150278
0.000409978
0.189918
0.00187774
3.69974e-05
6.64218e-05
0.110479
1.48351e-05
-0.270403
9.87343e-05
0.00166905
0.00279585
-0.358824
0.000890425
1.68661e-05
0.00182388
1.5926e-05
0.000173434
0.000990753
0.00132343
0.207064
0.00141253
2.75891e-05
-0.303833
0.002618
8.3213e-05
0.0733137
-0.000112641
0.00207459
0.00018668
-0.00022902
0.00053426
0.00122226
0.000264817
-0.000427488
0.000268314
0.00329135
0.00310084
0.0166949
0.000784546
0.350843
0.010746
-0.000112651
3.50207e-05
0.00587155
-0.211802
3.12026e-05
3.87058e-05
0.00582965
22.9933
0.00184197
-0.000429454
0.0169372
-0.424714
0.0109872
-4.62e-05
0.000158596
-0.0310296
-0.000957344
0.00152381
0.00176791
0.0018156
-0.106342
-0.0189446
0.0600494
2.49858e-05
-0.000272955
0.000969258
0.000204089
0.000126085
-0.000274339
0.000187224
8.94576e-05
5.89692e-05
1.11325e-05
2.45857e-05
-0.0132876
-1.98144e-05
0.00523956
0.00263728
-2.14867e-05
0.00119959
8.01364e-05
7.23809e-07
0.000288566
0.00716596
-7.08698e-05
6.88723e-05
0.00152267
-0.00684696
-0.00018196
-1.96052e-05
0.000616927
0.000104875
7.95017e-05
6.24596e-05
-6.45246e-05
0.00011817
0.00852155
0.0400419
-0.0128254
-0.000587108
0.0203962
-3.37955e-06
0.071538
0.00141751
0.127866
-0.0138521
0.000239206
0.00319541
7.15074e-05
0.00210189
1.80979e-05
-3.52623e-05
-0.000151491
0.0016448
0.00330918
-0.00729754
-0.0138793
0.000144413
0.00108072
-3.97977e-05
0.00334917
0.00103831
-0.000434913
0.229357
0.000232506
0.00286931
0.0120865
-0.763367
0.0782045
0.00110681
-0.000220033
-0.00835918
-0.000212681
0.0104736
-9.70952e-06
2.01153e-05
0.00360534
-0.0183239
-0.0634595
0.343944
3.54099e-05
0.00104074
3.87549e-05
1.70365e-05
1.80474e-05
-0.0051914
1.7782e-06
-6.16008e-05
0.198648
0.0002197
0.000122282
-1.32965e-05
-0.451787
0.000228903
-0.0451866
0.0420394
-0.000513154
0.522477
0.0433846
2.45436e-05
0.00122824
2.02478e-05
0.176756
0.00040187
-0.00263991
0.00295549
0.000207787
8.13857e-05
0.007496
0.00105388
0.000245811
0.000229547
1.61994e-05
3.56403e-05
0.00464533
0.00176347
-0.000557114
3.17257e-05
0.00348237
2.18042e-05
0.00391724
0.00292697
0.00299783
0.00449763
-0.172022
-7.25679e-05
-0.00814028
0.000405687
0.290953
-0.000109133
1.77599e-06
0.000646693
-0.133511
0.0862586
0.00013837
0.00169711
0.000680465
0.0010807
-0.000202976
0.00701335
5.90359e-05
-3.44483e-05
0.000998473
-0.00159216
0.362396
0.00289011
0.00110787
-0.238833
-0.000100662
-1.64428e-05
-1.62632e-05
0.204073
0.00441014
0.00765443
-1.18285e-05
-4.43864e-05
0.0369687
-0.0183942
-1.63279e-05
-1.65941e-05
0.000282454
-1.17488e-05
-1.09278e-05
0.0231425
0.111732
3.54441e-05
2.38049e-05
0.0034555
0.0465513
0.00023315
-1.32688e-05
0.000161311
0.0325648
0.00473706
-0.189465
0.00458441
-8.84865e-06
0.10879
0.00352158
0.0013288
0.00283669
0.000129765
0.157726
1.88698e-05
0.0014726
0.00269279
3.84034e-05
0.000237318
0.000156588
2.58839e-05
-0.000104243
0.0701849
0.69322
-7.5353e-05
-1.76316e-05
1.2719e-05
-1.7269e-05
1.95999e-05
6.24414e-05
0.001376
-7.97333e-05
0.0869795
0.0378819
1.36855e-05
0.000141764
0.0183308
1.41406e-05
0.00172902
0.0927183
1.38706e-05
-0.0558393
-7.02405e-05
-0.550992
0.000185219
5.85185e-05
4.12777e-05
-1.43711e-05
0.00180029
-0.00023186
0.0013641
0.000604133
0.452737
0.00580313
0.00675252
0.0423526
0.000111401
0.00215645
0.000162975
0.0002563
0.000334367
0.000185059
-7.43246e-05
-0.000158354
0.00747327
-0.107506
0.0014085
0.000172161
-1.50062e-05
0.231355
-0.15639
-4.35112e-05
0.000189998
0.00026113
0.129925
0.00338517
0.0432116
0.0260869
-0.00166315
0.00253033
6.39395e-05
-0.0129396
0.096917
0.00148404
6.51723e-05
9.73332e-06
0.00164782
1.81039e-05
0.000189007
0.00302045
0.000153449
0.168399
-2.21332e-05
0.00150311
8.18709e-05
-1.54143
-2.71748e-05
0.00131822
0.000787665
-0.00179798
0.000107862
0.00285195
-0.0143434
6.52256e-05
1.76203e-05
0.0669029
-0.011653
-0.307372
0.277174
5.37166e-06
3.76817e-05
0.0682371
0.00261106
4.88262e-06
0.000355
3.28549e-05
0.00182867
0.00136606
0.00382682
0.00279219
0.00175298
0.00153376
0.0194166
-4.01977e-05
6.6049e-05
0.000526885
0.00107059
0.000223137
-0.240924
0.00150157
-0.00162363
3.98769e-05
0.00274131
0.000184157
-7.196e-05
-0.000477437
0.00719458
0.0191402
0.000937155
1.64169e-05
-0.0131223
0.00010606
0.0379767
0.00286223
-0.000429964
0.000703157
5.66331e-05
0.00101719
-3.01182e-05
-0.20914
0.000627119
0.000163701
0.00332254
0.00170343
0.000111523
-0.0293946
0.00403742
0.000140677
0.00200954
3.27225e-05
0.00179721
0.00100032
-2.00309e-05
0.0004911
0.000171376
-1.2893e-05
-2.50657e-05
-3.72298e-05
-0.39668
0.00247295
5.47289e-05
-3.91719e-05
7.21875e-06
0.00211494
0.000854176
4.76492e-05
2.86487e-05
0.00380623
0.00231313
-1.35989e-05
0.000156317
0.0624007
-0.0737923
-0.00126871
0.00272705
-0.00730884
3.53419e-05
3.74672e-05
0.000649975
-2.55868e-05
4.86162e-05
3.74653e-05
3.73119e-05
3.30035e-05
0.194739
3.69632e-05
0.00136185
0.0852318
0.00214557
-3.53298e-05
1.46036e-05
-0.0654101
0.000648505
-0.0417415
7.14573e-05
-8.53233e-06
0.000117361
-1.84321e-06
0.000169967
6.17838e-05
0.124936
0.00524754
0.0259771
-8.74132e-06
0.00128692
0.00854278
5.43726e-05
0.00470477
-0.3004
2.97972e-05
-1.07255
-3.5182e-05
-4.31626e-05
2.64073e-06
5.73795e-05
-3.23524e-05
-3.87986e-05
0.199578
-0.0548187
-3.14182e-05
0.00262961
0.00356751
1.58128e-06
0.00238116
0.00288863
0.0147432
0.00053833
-0.00842622
-0.0201801
-0.00827477
6.22238e-05
-0.00111298
0.0107279
0.000118488
0.0296602
1.37448e-05
2.69683e-05
6.97489e-05
0.000416585
0.00087289
0.00204747
0.0021418
-0.000704304
2.59894e-05
0.00189793
0.00167294
5.39839e-05
0.128203
0.00136072
0.000606129
0.0282654
-2.20504e-05
0.00174097
0.00862269
-2.83069e-05
0.147888
-4.66433e-05
-6.03348e-06
0.00220293
7.23385e-05
-8.28021e-05
0.00754171
0.211097
-0.128618
-1.43066e-05
0.000104713
0.000178101
0.0150947
0.00803583
4.49758e-05
3.54089e-05
-1.60127e-05
0.00246244
-0.0367927
-4.51595e-05
0.000220445
-3.00666e-06
-1.46311e-05
0.000963987
0.000655685
5.4671e-05
0.00217845
-2.87241e-05
1.28018e-05
0.00016081
0.0523479
-1.05697e-05
0.000234062
-0.000142099
0.00118667
0.00284852
0.00199238
0.00289684
0.00104208
0.000136949
0.00155164
0.320601
0.188474
0.0844319
-4.55277e-05
-3.08973e-06
-0.00422333
2.64371e-06
0.00494253
2.41916e-05
0.0331741
0.000405543
0.156296
0.00140512
0.000265019
0.509185
-3.15979e-05
0.00254171
-0.000143505
0.000308872
0.235786
5.97775e-05
0.00344214
-3.69438e-05
2.94551e-05
2.00758e-06
0.00251185
0.000582111
-1.6716e-05
0.00335906
0.00232957
-0.00986653
-0.0182655
0.255194
0.0175785
-1.06674e-05
-0.042225
2.38822e-05
-0.483957
-0.0806982
0.000378778
0.000205452
7.22421e-05
0.00130342
0.000201694
6.04305e-05
-0.00018515
3.61146e-05
-0.0111147
-1.03967e-05
0.00254369
2.47543e-05
-1.71447e-05
0.000275122
0.0138111
-0.0854835
1.33588
0.00270048
0.000645823
0.00184502
0.0664356
-3.26241e-05
-0.0231552
3.55599e-05
0.00357137
3.36673e-06
-0.0144982
-1.55582e-05
0.000325082
2.42199e-05
-0.00087871
0.00140615
-0.306022
1.21215e-05
0.00126255
-7.59468e-05
5.95257e-05
0.037448
-0.00138393
-8.72611e-05
0.00403115
-1.31244e-05
0.000201574
1.34955e-05
0.0583834
-1.07675e-05
0.000117282
2.53456e-05
-8.91231e-05
0.00102502
3.92909e-05
0.00336835
-6.66104e-05
-2.70562e-05
-0.837002
0.00247622
3.97574e-05
-0.230369
0.00302667
-0.00115855
0.0100948
-3.06517e-05
-3.33757e-05
0.039309
0.00478195
0.000592297
0.000188018
0.000147452
-0.000110257
-3.05564e-05
-0.00165865
0.00309001
0.000320858
0.0357131
0.0014578
0.00336678
0.0199513
-0.14987
0.00124026
0.00330829
-0.00838047
-7.83707e-05
0.0112337
-0.0011578
-2.67443e-05
-1.22071e-05
0.000289116
0.000525048
-7.1358e-05
-0.0448206
0.00119944
-4.22721e-05
0.00303019
4.02982e-06
0.0321534
-5.84562e-05
-4.16463e-05
0.187017
0.00266327
-0.00386066
3.52393e-05
0.000108974
-4.9137e-05
7.56629e-05
0.000686662
-1.7688e-05
0.0395419
0.000760538
0.0117775
0.0245989
0.0150888
0.278005
0.000105036
-0.000115595
-7.25777e-05
0.0978714
-0.176108
0.000436858
-0.031315
0.0579255
-2.76437e-05
-4.36639e-05
0.000168698
-0.0148101
0.121506
0.00143973
6.83511e-05
0.000236553
0.00358384
1.81755e-05
0.00379961
0.00121181
6.38874e-05
9.15765e-05
-0.00014903
0.000676185
-1.58574e-06
0.00712589
0.000280451
0.000602813
0.0331022
-8.1767e-05
0.051558
0.000173916
0.000170533
0.000400435
0.00413092
-1.37619e-05
0.00222031
-0.00146012
-0.0559818
4.3771e-06
0.000283063
-0.00010521
-5.48095e-06
1.96191e-05
-0.000232461
0.00848593
0.0132882
0.00334924
-2.94185e-05
0.0103574
0.000417164
0.00042314
0.00359823
4.0582e-05
0.00257132
-0.0116849
-1.40705e-05
0.00265314
0.00340908
0.00120324
-3.28776e-05
-3.32283e-05
-3.24708e-05
-0.18675
7.83916e-05
-6.18547e-05
0.00149907
-1.57262e-05
-3.60964e-05
0.00523299
-0.00171546
-0.00185311
-0.185993
0.00164438
0.105532
1.91957e-05
0.000144523
-0.00652161
0.000492047
-0.319461
0.000115473
-2.13046e-05
3.37296e-05
0.000303175
0.0020436
-3.30307e-05
0.000678197
-2.33384e-05
-0.00045704
0.000178359
0.000560945
8.302e-05
0.00291269
5.6489e-05
-0.529517
-0.00251829
0.000153261
0.0474677
9.95737e-05
0.0513851
0.000192465
-0.0129746
4.35567e-05
-4.5389e-05
2.50388e-06
0.109281
0.000661261
-0.000539608
-0.445237
-5.30745e-06
0.00123409
2.26993e-05
0.0014331
0.0672595
2.35694e-05
0.129926
0.000247715
-0.0117154
0.00307875
0.160489
-2.22047e-05
-3.53173e-05
0.00299433
-3.09598e-05
2.86154e-05
0.000128872
-7.95433e-06
0.00149683
-2.12928e-05
0.00342124
6.37263e-05
-0.184921
0.0546303
0.0728046
0.0622692
-0.56295
-0.182746
0.224234
-2.52396e-05
0.000155815
1.29114e-05
9.66132e-05
-1.58263e-05
0.000674739
-5.23056e-06
0.00189552
3.1353e-05
-0.000376452
7.07153e-05
0.000900649
0.00203598
-5.23362e-05
0.00135427
0.000100228
-2.62009e-06
0.00043823
9.96816e-05
0.273579
0.00327847
0.00133662
-4.531e-05
2.47357e-06
1.73523e-05
-1.81237e-05
0.0323634
-2.625e-05
-8.12924e-05
-1.643e-05
-0.0498838
5.4631e-05
-7.24453e-06
0.00237474
0.0139754
-2.7198e-05
-0.0268252
0.0110749
0.000142639
0.00287256
-3.11451e-05
0.00145503
0.000132337
-1.42709e-05
-0.0290222
-6.39553e-05
8.76623e-05
0.00304267
-0.0691933
0.000142554
0.105489
-0.0106969
-0.000465106
6.51938e-05
-3.52746e-06
-0.00117723
-1.62804e-06
0.00326792
2.70862e-05
0.151029
5.04313e-05
0.0141329
-3.69041e-05
3.89401e-05
0.00022129
-7.17698e-05
4.69588e-05
0.435893
0.000112495
-2.49403e-05
0.0329398
-0.000385621
0.000119137
0.00301348
0.000131529
-0.00762098
0.00126727
0.0028822
0.00927781
0.000223642
0.156476
7.34662e-05
0.00282931
-4.68079e-06
0.0971046
-0.058497
4.28654e-05
0.00013193
4.28149e-05
4.48657e-05
0.000107574
-9.48981e-05
-3.33324e-05
9.57779e-07
0.00069791
-1.38837e-05
0.000103641
0.00276024
0.0493868
-0.308007
0.0031073
2.20886e-05
0.0007303
-9.94082e-06
-0.00383198
0.00346671
0.89443
9.84947e-06
-2.62514e-05
-1.21382e-05
2.3839e-05
3.3574e-06
0.000123382
-6.81253e-06
0.0013225
-2.43122e-05
1.11101
0.0837099
-2.641e-05
0.135915
-3.37839e-06
-3.62359e-05
-0.0067464
0.0560313
0.00174103
0.000204049
0.027899
-8.56901e-05
-4.01795e-05
0.00994482
0.000175278
-0.00460649
9.90436e-05
-0.000407674
-3.46664e-05
-0.000115916
0.000679223
0.0660521
0.000127569
0.0862993
-0.00863889
-0.000172391
8.24958e-05
1.04674e-06
-3.20365e-05
0.00321907
0.0011189
0.000308817
0.104912
0.997933
0.0298276
0.00332007
-5.87687e-05
0.0999943
-0.000140803
0.0230837
0.00255196
0.000497303
0.000112097
-0.0397111
-0.0151393
0.000844749
0.000146012
0.115589
0.000111657
-4.95998e-06
0.00119909
5.89139e-05
2.46759e-05
0.000509367
-0.0645388
-0.000131556
0.000577293
0.050525
-3.76664e-05
8.65732e-07
-0.0229533
-0.0398461
8.73037e-05
1.31787e-05
0.000485251
1.34116e-05
-4.33148e-05
-9.53519e-05
0.00016578
1.1158e-05
-0.00202191
0.000148353
0.133947
0.0409473
-0.00825624
0.0940793
3.75959e-05
6.58776e-05
0.000167652
-0.0754142
0.000548914
0.000205973
0.000718665
4.70857e-05
0.000102349
0.000136284
-0.328349
0.00169321
1.75403e-05
0.00204342
-1.18848e-05
-0.0508846
0.00286295
0.00368012
0.00217289
0.0166968
0.126537
0.0867641
0.0604723
-0.0002531
0.0154296
2.22955e-06
0.00233604
0.00351208
0.0791711
0.000304968
0.000251727
0.000367065
0.00432143
0.000112293
0.00479643
0.00118066
0.0037067
0.0313875
-2.20213e-05
0.00352234
0.000152831
2.63367e-05
0.000795062
0.0943941
5.40431e-05
-2.65104e-05
0.000116
-0.0012315
-2.57674e-05
0.00011227
0.000197903
7.3809e-05
1.84557e-05
0.00239614
0.0025987
1.76758e-05
-4.63289e-05
0.00267661
0.000461584
0.000118312
0.177584
4.07726e-05
-3.14144e-06
-0.198536
-5.54123e-05
0.000122838
0.0411426
0.0964452
0.000160982
0.00225479
0.000267851
-0.0203212
-0.000672277
0.000786986
-0.0112184
-4.57443e-05
0.00349769
0.0362275
0.00230612
0.0085475
-0.00710204
5.06734e-05
7.28765e-06
1.37123e-05
2.03518e-05
1.66199e-05
0.00796422
-4.5265e-05
0.00178089
-1.21864e-05
0.00211623
-0.0258294
0.000131643
0.0313124
-1.27052
-2.24777e-06
0.00279073
0.000163548
0.000111347
-3.50446e-06
0.095662
0.00270903
-0.041193
0.000476917
-0.259673
0.00326452
0.000113316
-0.0324914
0.00121224
0.000261518
-6.17544e-06
0.0122669
-3.16363e-06
0.000304248
0.00099149
0.000159819
5.41735e-05
0.00210248
0.00600552
-1.30451e-05
0.00808491
-0.0206808
2.85668e-05
-1.11154e-05
0.00453951
-0.0030783
-0.00362731
-4.2674e-05
0.000803766
8.32972e-05
0.24356
0.0663804
2.0967e-05
-3.04328e-05
5.68522e-05
8.81673e-07
-0.000123346
0.00015318
-0.00400887
-9.83421e-06
0.000285183
0.0831711
0.000108938
0.00300982
-0.0821697
-0.222256
3.70416e-05
-7.33638e-05
-2.94059e-05
9.58603e-05
0.0025334
0.363281
0.000854973
0.00222638
0.000591668
0.00193853
0.000205909
0.000171687
0.000275332
0.00323711
-7.47228e-05
0.000313268
0.000177811
-3.55684e-05
3.07307e-05
0.0309076
0.0019763
0.0536344
0.0469648
0.00673535
-4.77664e-05
0.0137887
-0.000140071
-2.10163e-05
-0.202634
0.0240766
-7.43922e-05
0.000171826
0.00311051
0.000896368
8.14502e-05
-2.08673e-05
-1.06767e-05
-3.51516e-05
-6.56002e-06
0.000729611
0.00161612
0.0578301
0.000933019
0.00040046
0.000971526
0.00295509
-4.66776e-05
0.000870822
0.0084921
0.00536631
0.0424144
9.19602e-05
-2.06525e-05
0.0935412
-3.40849e-05
-0.00061564
0.000139802
0.0013634
4.90824e-05
-3.56811e-05
0.00422932
0.000430505
8.37282e-05
-2.50741e-07
0.134128
-0.000446736
0.0655211
-1.90271e-05
1.0204e-05
-0.00628468
0.000124532
2.41164e-05
0.00180653
-0.0015229
0.000430392
0.00107818
7.50482e-05
-0.00862699
-1.35146e-05
9.43433e-05
5.56459e-05
-1.9378e-05
0.00478255
-1.30562e-05
-3.41548e-05
-0.000559138
0.00231271
-0.0509435
0.00259703
-1.65297e-05
0.000824898
-3.55072e-05
-4.97103e-05
7.22876e-05
-3.05147e-06
2.62893e-05
0.00459544
2.0256e-05
0.00314067
0.000820012
-0.0077967
1.55903e-05
0.000156501
-3.8261e-05
0.08364
5.09752e-05
0.000252735
0.00257184
-5.38722e-06
0.00190172
0.0010839
0.000859135
1.90342e-05
0.00142267
-2.81093e-05
-3.51831e-05
0.00793719
0.000160543
0.00314364
-5.14407e-05
-8.4197e-05
0.000205251
0.00213002
-1.02396e-05
-0.16027
0.00183878
-0.000100984
-1.50574e-05
-2.43386e-05
0.00181557
0.0965967
-0.558112
-0.142016
-0.0106079
-0.00502575
0.00422101
9.47489e-05
-0.323917
-1.18042e-05
4.54419e-05
0.000295254
-0.000458415
-2.50935e-05
0.0550884
2.35523e-05
-6.64512e-05
0.00178066
0.0155221
-0.0709969
0.00110229
0.000381191
0.00161841
0.084074
-8.59836e-05
-0.445318
-3.2774e-06
0.000183469
-0.00106829
-2.02751e-05
0.013133
0.000406085
-1.72163e-05
1.91326e-06
-8.89864e-05
0.33533
0.000275532
-2.07576e-05
0.00249105
-1.87988e-05
-3.62637e-05
0.000102448
-2.6095e-05
0.00167712
2.87021e-05
1.19396e-05
-2.26716e-05
0.00576681
-0.00328196
-2.41471e-05
-2.48761e-05
8.21781e-05
-1.65829e-05
0.000249187
-9.29983e-06
-3.32527e-05
3.11941e-05
-2.30405e-05
8.77016e-05
1.23563e-05
0.00189156
-2.42296e-05
0.00295701
9.63107e-06
0.000553692
-4.03601e-05
2.41888e-05
-1.68129e-05
5.71888e-05
0.00104704
5.6e-05
0.000359445
-0.0172277
0.000486911
0.178722
-0.0802638
0.00293281
0.102956
1.27679e-05
1.12099e-05
-0.00332428
0.0596355
0.000230709
0.0664756
-3.06143e-05
0.00368961
0.0129443
0.000227404
0.00308429
-0.0939644
0.771471
-4.23306e-05
0.00192293
-2.59487e-05
-0.0470741
0.000273991
0.0146729
-0.225853
3.33298e-05
-0.00712031
0.00367005
0.000130851
0.0244385
-0.0499647
0.000140156
-2.47483e-05
0.000684536
0.0938781
-6.53332e-05
0.000962802
4.16283e-05
-0.000385488
0.00698097
2.19265e-05
-4.22962e-05
0.00887013
-5.109e-05
-2.84495e-06
7.03861e-05
-2.79912e-05
0.0113213
-4.18793e-05
0.000662372
0.101844
-6.47223e-06
0.00182143
2.33958e-05
-6.36601e-05
0.00217932
-0.0720613
-3.78013e-05
0.000571855
0.000143049
-0.000103192
0.000224052
1.67371e-05
0.0251918
0.000101066
-3.08792e-05
-1.23447e-05
0.00226835
-2.46789e-05
0.132077
0.0871731
0.0323499
-1.49844e-05
-4.61928e-05
-1.21679e-05
0.128696
3.98839e-05
-0.00633576
-4.96902e-05
-0.0104272
0.000122655
0.000101164
0.0021037
2.59073e-05
5.99931e-05
0.0925755
0.00316541
0.0421857
-4.22293e-05
0.145656
-0.219346
2.127e-05
0.0906661
2.87456e-05
7.3271e-05
0.021003
9.39757e-05
0.000811108
-0.0546327
0.000377724
0.00265196
1.32519e-05
-0.00205756
-3.02985e-06
0.128011
-1.3627e-05
-0.0611252
-1.80465e-06
-4.68347e-06
3.13761e-05
0.0720076
-4.67739e-05
0.000400817
0.00183403
-0.058263
-5.39822e-06
0.000533507
0.205276
-0.000201499
0.00474843
0.00349672
-3.97915e-05
0.00354503
-0.0135082
0.000128471
-0.00819914
4.22317e-05
0.00421742
-0.223589
-5.17715e-05
0.0784268
-1.39365e-05
0.0505306
0.0213757
0.000193679
9.01869e-05
0.0946784
0.0546039
-2.80136e-06
0.000130908
-2.94193e-05
2.36406e-05
-0.0111028
0.00254073
0.0061222
-2.62044e-05
0.000505969
-0.00658827
0.0392933
0.188521
0.0020553
-2.15167e-05
-5.92758e-06
0.00367443
0.148074
-0.00496355
0.0457454
0.00612163
0.00115818
0.00231215
0.212325
0.0299413
-0.0221155
-2.57119e-05
0.00336359
0.00175264
0.00267698
1.03687e-05
0.000421381
0.00223397
0.000979968
0.0303714
-0.00035248
0.00999587
0.103601
0.00120796
-4.61991e-06
-4.72493e-06
-0.00141007
-5.11068e-05
0.225016
0.000552251
0.000296574
0.0103758
-0.0186767
-2.36151e-05
0.00123005
0.000780058
1.18586e-05
0.463426
0.00066576
0.295838
-5.33251e-05
0.0877175
-9.73587e-05
0.00291243
5.70729e-05
0.000385878
0.00044923
0.00119658
0.00500763
0.00250062
-0.0141221
9.8341e-05
1.75207e-05
0.000357449
-1.26318e-05
0.00300309
-0.0433191
8.13495e-05
-2.1468e-05
0.000111727
0.00621789
-0.0014454
-6.35449e-05
0.00158438
0.00754959
-2.53767e-05
0.0254242
0.000151006
0.308011
3.01613e-05
0.00735856
-0.0067007
0.000642354
0.000145816
-0.00534823
-1.18113e-05
0.00135568
0.0351263
8.20272e-06
0.00171618
0.000904197
0.00238055
0.138366
0.105057
1.19852e-05
-0.170338
0.000911368
-2.01891e-05
0.00345784
0.00279848
0.00267194
0.0184173
0.0033712
0.0314437
0.00498714
0.0382609
0.000433718
0.00256829
-1.44611e-05
3.27604e-05
1.71716e-05
-2.84979e-05
0.00365013
0.00131202
5.32392e-05
0.000438798
0.00370457
-1.21687e-05
0.0194259
-0.0889393
-5.3891e-05
3.63259e-05
-2.32743e-05
7.88198e-05
0.00160371
-2.62751e-06
-0.253601
0.000762735
0.00311704
0.000136584
0.00244477
0.000166084
1.06383e-05
-0.00214523
1.27991e-05
8.63792e-05
4.94919e-05
-5.2393e-05
0.237952
0.00321357
0.000483747
-0.74129
-2.50064e-05
4.99011e-05
0.000465943
-3.32547e-05
-4.90017e-05
0.00188959
0.000351081
0.0214713
0.020007
-0.0253947
1.17705e-05
-0.418835
-5.98938e-06
0.00849464
-2.21913e-05
0.00230654
-0.0425457
-4.46164e-05
0.00321415
0.0524569
0.000721203
-4.58688e-05
0.00012511
0.000466383
-0.211786
-2.64542e-05
3.53597e-05
-0.000179956
-0.000219675
0.0048276
7.66641e-06
0.000367456
-2.04989e-05
-0.000243502
-0.00591916
0.00107981
8.84581e-05
0.00302993
-0.00146925
0.0252141
-0.101233
-8.34605e-05
6.66008e-05
0.0354528
1.34912e-05
0.00256446
1.87433e-05
-0.0083962
-2.61099e-05
-2.47625e-06
0.00070057
-0.533066
-6.91011e-06
-3.73172e-05
-1.18545e-05
0.00438691
0.262081
0.00600404
-3.98165e-06
9.49513e-05
-2.53404e-05
0.0968089
-4.78857e-05
-0.0128042
0.0022626
-2.37338e-05
0.0130194
0.000102137
0.000639248
6.85278e-05
7.71845e-06
0.000704625
0.000947038
0.0018242
3.24722e-05
5.00566e-05
-4.2506e-05
0.0313377
-4.89674e-05
7.96439e-06
0.0803508
0.000122074
0.00628107
0.000291089
-4.17514e-05
-7.93804e-05
-0.0646318
0.000194969
-0.158639
0.00247044
1.81979e-05
0.0025612
4.86958e-05
0.00503472
0.00165428
1.11658e-05
6.30088e-05
1.91803e-05
-3.30354e-06
0.00380344
0.0017601
0.0791175
0.0277472
-2.81688e-05
0.00364075
0.00115922
2.30245e-05
-5.94159e-07
-0.0104742
0.11452
-0.0116605
-4.98362e-05
0.000143628
5.98238e-05
0.234911
0.209485
0.000268782
-5.72213e-06
0.000844217
0.000599211
2.56098e-05
0.000152991
8.87505e-05
0.00380552
-0.00676257
-1.25949e-05
-0.0800422
-4.21607e-05
-6.16205e-06
-0.0113745
0.00221109
0.01165
0.0473131
0.000738266
7.14308e-05
1.59509e-05
0.000264557
5.89472e-05
0.00136328
0.00150698
-4.01978e-05
0.000278
0.00255714
-0.115813
-2.49426e-05
0.00448039
-0.241517
-0.00744781
-2.22666e-05
1.53559e-05
0.00905821
-0.00742754
-0.000700261
-2.22357e-05
-0.00320855
0.00262453
2.4437e-05
0.0584586
0.000451924
2.91733e-05
0.0148616
-8.58332e-06
-0.00252296
-4.47208e-05
1.38654e-05
-1.33679e-05
-1.18518e-05
-0.0293291
5.11387e-05
-2.54855e-05
0.00299141
0.000337617
0.000127155
0.00267151
1.99366e-05
-2.28238e-06
0.000120069
8.59805e-05
-0.0317912
-0.027102
-0.00207324
-0.0354571
-0.000458622
0.00728383
0.00157483
-0.191884
0.0591255
-0.121835
-3.29125e-05
0.000376201
5.23387e-07
2.07368e-05
-5.47977e-05
0.000203242
0.00482508
0.00231177
0.00107712
-1.38657e-05
-6.3297e-06
0.00211461
3.63013e-05
4.55164e-05
2.07697e-05
0.0830445
0.000759818
-0.203426
1.32244e-05
0.00583722
5.4736e-05
-9.77902e-06
4.30532e-05
0.00164696
-1.86107e-05
0.00362986
0.0659391
0.00128082
0.0956087
-0.090895
-0.000462481
0.000507062
0.114874
0.00577042
7.40635e-05
-4.70775e-05
2.05549e-05
0.0308985
1.98919e-05
-0.000760985
0.000743344
0.00328525
0.089656
0.0390966
0.00254753
0.459978
-4.14239e-05
-8.70491e-06
0.0646521
-0.00501383
8.5842e-06
1.23167e-05
-0.0103955
-2.55488e-05
0.0101333
-1.88841e-05
-5.40426e-05
0.00027501
9.47363e-06
0.00313011
0.0542727
0.0421783
0.000305329
-8.22428e-05
0.00190265
0.000106197
0.00272744
-2.83465e-05
0.00325629
0.00322805
4.54701e-05
2.50086e-05
2.00217e-05
0.00174044
-0.00261954
0.00520252
0.00546908
0.00065685
-0.0109641
0.00274848
0.00368146
0.0057224
-4.66815e-06
0.00180505
8.73141e-05
0.0775157
0.00192192
0.0230566
-0.0120588
4.02762e-05
0.00208814
0.0795619
-1.45567e-05
-0.0523957
1.78139e-05
1.04278e-05
0.000439675
6.75058e-05
0.000871238
0.0124401
0.0144014
-0.0240648
0.000384006
0.00122138
9.42703e-05
-2.70155e-05
2.31075e-05
0.00617262
0.00324732
0.0232747
0.00151144
5.93261e-05
-2.94289e-05
3.63392e-05
0.00474786
0.000142537
4.56078e-05
0.000295666
0.00166778
0.000950416
0.00106181
-0.000323535
-0.0451348
0.000626142
0.00103564
-1.02192e-06
0.000455011
0.00808003
0.165862
0.00149698
-3.26844e-05
-0.00381492
0.000985111
-2.35753e-05
0.00194543
0.0243514
-0.0114632
0.000790004
-2.62153e-05
0.0180476
5.02939e-05
-2.48567e-05
6.68792e-05
0.00356813
-0.00859273
-0.000486318
0.03278
-0.0188731
-2.83574e-05
-0.000425833
0.00236445
0.285763
0.000717728
0.187838
5.00818e-05
0.166935
0.002775
0.323455
0.00105661
-4.15484e-05
0.0316166
-1.44317e-05
8.08787e-05
-0.946083
-0.00335887
-0.00204279
0.012093
0.000309366
0.000118786
-0.0115528
-1.85195e-05
-1.49942e-05
1.08104e-05
0.00177973
-1.97507e-06
0.000100757
-6.32391e-06
-0.00860275
-0.00406746
7.67709e-05
-0.0366359
1.14958e-06
0.0733761
0.0924139
9.74967e-06
3.38756e-05
0.000389479
0.000442456
0.00463084
0.00286971
0.0523757
-0.0044543
0.00172402
-0.000383695
0.000130453
0.0143942
-0.00114045
-0.00296392
2.59409e-05
-1.73224e-05
1.05663e-05
7.24455e-05
-2.0914e-05
0.00106586
0.0564977
-0.000102087
0.00344268
0.21521
-0.00362341
-0.00251455
0.0467638
-4.07341e-06
0.296207
0.00375272
0.00262068
-2.02803e-05
-9.80542e-06
0.00264561
0.0479009
1.44333e-05
-0.49308
-0.0111381
-3.46063e-05
1.71424e-05
1.8232e-05
0.00219806
5.46273e-05
0.00311146
0.00979118
-2.30524e-05
-9.63109e-06
-3.27695e-05
8.02845e-05
0.00320721
0.0675871
0.00089853
-0.0137046
0.00531353
-1.12164e-05
-0.00125932
0.00186444
0.000147021
-0.000549675
-0.00212129
0.058362
0.00139865
0.0500361
-1.3706e-05
-0.00459273
0.0832371
0.00836129
-0.0106154
-5.74574e-05
0.000122715
0.000193673
0.000210416
-0.0015347
0.00285798
3.15443e-05
0.000479927
0.0034981
0.0933851
-0.000457193
0.000189544
0.194505
0.0128938
2.87468e-05
0.000471028
0.0052438
-9.7847e-06
-6.20528e-06
-0.106435
-1.29837e-05
0.00786483
0.000973727
0.0271001
-1.91902e-05
0.00186514
0.00214539
-2.61861e-05
3.47946e-05
0.496319
0.000372875
-2.55538e-05
-1.3766e-05
0.00681045
0.00445104
0.200613
0.0367926
0.000345506
-0.00252609
0.110371
0.00104713
-2.00645e-05
0.00128886
-1.02874e-05
4.58083e-05
0.0204229
0.00110548
0.00461027
0.000277815
-0.00051607
-5.08067e-05
-2.46591e-05
7.16806e-05
9.22748e-05
0.0143301
0.000253774
0.018305
0.0662199
0.0014555
0.00277506
-0.180264
0.223564
0.0217054
0.000114148
0.000319327
0.00108879
0.000324775
0.0103365
0.0662186
7.04481e-05
0.00933201
0.0949076
0.000385243
0.00326988
0.00288532
0.00321217
0.00326238
0.000125096
0.00338371
0.00332748
0.00355516
0.00346586
0.00357187
0.00318592
0.000100186
-2.47985e-05
0.00102609
0.00315811
-1.63074e-05
0.0183785
0.341111
0.0125366
-0.029837
3.0025e-05
-3.23367e-05
0.166284
-0.017786
8.47938e-05
0.000135812
0.00243878
-0.301421
0.0756325
1.73018e-05
0.000285538
0.000334653
0.117929
-0.0960045
0.000235884
-0.00280815
0.0909028
0.00297509
0.112315
0.00459781
-0.0108578
0.29687
2.41619e-05
0.400216
0.106206
8.77986e-05
0.00265291
0.00403691
7.41768e-05
-4.43856e-05
-0.00149477
0.219892
-0.00011181
-0.000110427
0.179882
-0.000153708
0.00309393
3.72244e-05
0.00301509
0.00401313
0.00986165
0.0882611
1.49397e-05
-8.72362e-06
7.92966e-05
-0.000121405
0.120503
-0.014777
-0.602679
0.00313662
-0.000111023
-0.00795504
-0.000155882
-2.83355e-05
0.0959121
-5.13177e-05
0.247044
-3.68324e-05
0.0952433
0.000107335
6.71201e-05
-0.0916473
-4.6642e-05
0.0031571
0.0333066
9.07619e-05
9.49324e-05
0.000118203
0.00477872
0.0414908
0.00696857
0.0578179
-0.000162139
-0.000298799
0.000590598
0.00278242
0.484661
-0.441079
0.00341059
0.00204185
0.00303935
-0.00487244
-0.000305168
-3.9956e-05
-2.47001e-05
-2.07989e-05
-0.00522386
0.0011544
0.0168629
0.00127713
0.00259783
-1.97903e-05
-0.00761349
0.00230258
0.166783
-4.05254e-06
0.000131533
1.49124e-05
0.0878737
0.000493135
0.0699998
-0.00329077
0.00297245
-0.000110032
1.97056e-05
0.00137684
0.00794483
-0.00416235
-0.00129622
-1.43807e-05
0.00282679
4.53087e-05
-1.61842e-05
0.00226439
-0.272843
0.00275912
3.3191e-05
0.00274602
0.00072318
-0.0399583
-0.056172
0.0795716
0.054576
-4.4845e-05
0.00257536
-3.08115e-05
0.00276186
-8.64078e-05
0.00420275
7.67705e-05
0.00198414
0.0203271
0.0759158
-0.000243303
0.00165266
0.106099
0.00393879
8.3512e-05
-1.24235
0.00376462
-0.000186428
-2.87107e-05
0.00979473
0.000635631
0.00525574
-0.00137388
-0.00773502
-0.0739773
-0.000441916
-0.0434082
0.0594884
-0.00361281
-0.000835021
0.000903515
0.0030102
0.00296044
0.0517066
-0.00353867
7.17582e-05
0.000742476
-0.00119985
0.0174152
0.000435745
0.0544122
0.00267075
-0.000853818
0.000447342
0.0160094
0.000212596
0.0383901
0.00915799
-0.0158783
-0.0273725
-2.44433e-05
2.05477e-05
0.0890728
0.370529
-0.00327908
6.31887e-05
0.0013243
-6.60789e-05
-0.0204995
0.000550821
0.104199
0.00035384
0.099061
0.0057977
0.0441052
6.73855e-05
0.0114816
-0.0326705
-0.000180795
0.0030286
2.2765e-05
0.00026523
1.93101e-05
0.00531274
-7.7253e-06
1.39808e-05
0.291839
-0.00892668
-1.91575e-05
0.400209
8.48274e-05
-7.28398e-06
-5.20063e-06
-4.98059e-05
3.30588e-05
0.000339051
0.194891
-2.45908e-05
-0.00326648
0.00273711
0.0018369
-0.0133867
0.00330047
0.000326054
0.00101454
-1.47617e-05
0.00500755
0.000208627
0.436013
-8.29066e-05
-0.0128251
-0.00636219
0.00314137
0.0103812
0.093003
-2.7141e-05
0.0488609
0.00230931
0.00264419
0.00203069
-1.46717e-05
0.00162286
0.00509513
1.42743e-05
0.0157044
-9.7156e-06
0.0235816
0.00325369
0.132263
0.00463416
0.00435161
0.262281
2.24205e-05
-8.1702e-05
0.00253668
0.000126722
3.25321e-05
3.47625e-05
0.000425723
-2.15795e-05
-1.34202e-05
0.00010495
0.00134788
0.000148143
0.00039639
-4.13455e-05
-0.000398249
0.00351547
0.000175147
0.0903688
0.000160015
-6.91865e-06
0.00327186
0.00158784
-0.000107962
-2.39217e-05
-0.0138112
0.000193378
0.0926256
0.000218915
0.00584252
-9.44336e-06
-1.92239e-05
0.00173297
0.289128
0.00278666
0.000891137
-9.82281e-06
0.0338093
2.21861e-05
-1.42937e-05
0.00291074
0.000241761
0.00522982
0.106136
0.00294826
-0.000918455
0.00130645
-0.0579141
1.12725e-05
2.46234e-05
0.00236159
-0.00237069
0.00221578
0.00511637
0.0274168
0.00043632
1.83912e-05
0.000600569
0.00200238
0.0022799
1.6918e-05
0.00328168
0.00355195
0.00280281
3.17219e-05
1.65405e-05
0.0062258
0.00275854
0.00569413
0.0284632
8.77612e-05
0.0027406
2.99102e-05
0.00164799
0.0371648
3.35837e-05
0.00503639
0.000395899
0.00389191
0.089704
1.05385e-05
-4.22104e-06
-1.43304e-05
0.27749
0.00196802
0.000144848
0.00174486
0.00343706
2.6561e-05
-3.2974e-06
0.00120095
0.466172
0.00592513
0.104489
0.0023461
0.000854315
-0.00159169
0.0031925
0.000883183
0.00910144
0.00321287
0.0109596
1.3336e-05
0.00354281
0.00328396
8.48786e-05
-0.00722396
0.00125742
0.00251148
0.000425846
0.00378853
-1.9841e-05
0.0935369
0.000314046
-2.78519e-05
-3.61454e-05