/*--------------------------------*- C++ -*----------------------------------*\
| =========                 |                                                 |
| \\      /  F ield         | OpenFOAM: The Open Source CFD Toolbox           |
|  \\    /   O peration     | Version:  v2012                                 |
|   \\  /    A nd           | Website:  www.openfoam.com                      |
|    \\/     M anipulation  |                                                 |
\*---------------------------------------------------------------------------*/
FoamFile
{
    version     2.0;
    format      ascii;
    class       surfaceScalarField;
    location    "800";
    object      meshPhi;
}
// * * * * * * * * * * * * * * * * * * * * * * * * * * * * * * * * * * * * * //

dimensions      [0 3 -1 0 0 0 0];
oriented        oriented;


internalField   nonuniform List<scalar> 
20673
(
0.00665521
0.00185078
-0.00842862
-0.0078962
-0.00504445
0.0131359
-0.00212445
0.00138091
0.000742437
-0.00893428
0.00154347
0.00730377
-0.0205573
0.0212443
-0.000584877
-0.00537255
0.00565079
-0.000276667
-0.00220097
6.71292e-05
0.00212715
0.0010352
-0.00129636
0.000262104
-0.000659591
0.000707447
-4.86985e-05
-0.00614816
2.01336e-05
0.00617064
0.0030273
-0.000874683
-0.0021518
0.00327415
-0.00490554
0.00162211
-0.00486708
-0.00101162
0.000815711
0.000197222
-0.0109855
0.0166907
-0.00563283
0.00477549
0.00969628
-0.0143593
0.0175953
-0.00725116
-0.010151
-0.00325057
0.00153002
0.00174856
-0.00243524
0.00570237
0.00946702
-0.0105047
0.00139775
0.00358793
-0.000246126
-0.00331639
-0.000490655
-0.00171107
0.000353382
0.013156
-0.0132126
-0.000107316
0.00114157
-0.0212641
0.020737
0.000705749
0.00265057
-0.00217519
-0.000476582
-0.00413959
-0.00578232
0.00991881
0.00219923
-0.00719145
0.00498206
0.00371984
-0.00628464
0.00256825
0.00157629
-0.00488855
0.00333455
0.00227782
0.00528018
-0.00749355
0.00400221
0.00587323
-0.00976766
-0.008952
-0.00238838
0.0113392
-0.0035584
0.0146241
-0.0110629
0.0092834
0.0117381
-0.0209252
0.000506877
0.00154513
-0.00204881
0.0126396
-0.0119897
0.000990326
-0.000278582
-0.000710878
0.00802386
-0.00784269
0.00278323
-0.00239624
-0.000391931
0.00136993
0.000671507
-0.00132824
4.25517e-05
0.00118496
-0.00123745
-0.00216143
0.00177133
0.000380536
0.00874679
-0.00754275
-0.00121368
-0.00438806
0.00853919
-0.00400718
-0.0148727
0.0137991
0.00107501
-0.000912394
-0.00229064
0.000596069
0.000693399
-0.00128327
0.00458212
-0.00417056
-0.000412466
8.26788e-05
-0.00172877
0.00225111
-0.00151905
0.00202087
-0.00042541
-0.0135168
0.0201604
-0.00662337
0.0051019
-0.000519495
-0.0138622
0.0103049
0.0122367
0.00553705
-0.00449835
0.000229318
0.00435718
0.000496606
0.00253309
0.0178036
0.00574565
-0.0233533
-0.00788634
0.00462285
0.00339593
0.00352317
-0.00775323
-0.00336731
0.00373404
-0.000363154
-0.0162036
0.00853372
-0.000316983
0.0116839
-0.00186242
-0.0061981
0.000827771
-0.000662255
-0.00393474
0.00460366
0.000884104
-0.0201253
-0.0195701
-0.00245595
0.00109215
-0.000887068
-0.000201704
-0.0062267
-0.00294502
0.00924374
-0.000155971
-0.0203205
1.5438e-06
-0.000662898
0.000562436
-0.000857281
0.000294555
-0.0227259
0.00164594
0.00418507
7.13704e-05
-0.0042556
-0.00660912
0.00225774
0.00432183
0.000554701
-2.52783e-05
-0.000528495
-0.0062985
0.00353282
0.00286449
-0.00305477
-0.000155626
0.00320385
0.000478218
0.0071324
-0.00757863
0.00981323
-0.00247675
-0.00711722
-0.0171769
0.00543084
-0.00578539
0.00035098
9.64037e-05
0.000894993
-0.00359473
0.00392042
-0.000323784
-0.00227018
-0.00392777
0.00966222
-0.00967422
0.000259566
0.00301424
-0.00367102
-0.00217668
0.000682288
-0.00193069
-0.000285176
-2.77826e-05
0.000519849
-0.000492007
0.00114517
-0.00699988
0.00589065
0.013998
-0.00656101
-0.00716469
-0.00635267
0.017355
-0.0109306
-0.00142802
0.00444688
-0.0046011
-0.00133066
0.00593163
0.000499743
0.000983975
-0.00148124
-0.0015516
0.00093083
0.000632274
0.00528558
-0.00400513
-0.0012874
0.00436215
0.00439138
-0.00876774
-0.00394765
-0.00339124
0.00773267
0.0070572
-0.012579
0.00551814
0.00595724
0.0027798
0.00093006
0.00188374
-0.0027627
0.00827333
-0.00984736
0.00186966
-0.000476974
0.000938854
-0.000463665
-0.00664741
0.00668379
-2.87765e-05
-0.000571275
0.0011761
-0.0180161
0.010978
-0.00539823
-0.00193393
0.00739365
-0.00183301
0.00216615
-0.000332499
0.00323885
-0.000458475
0.00517565
-0.00139203
-0.00380021
-0.000893191
0.000414951
0.0033477
-0.0147895
0.0114439
0.00493798
-0.00326424
-0.00167478
-0.014103
-0.00555454
0.0199463
0.000286556
0.00437438
-0.00466264
-0.000842185
-0.000847246
0.00169115
0.0147325
-0.00336131
-0.0113706
-0.00331091
0.00333775
0.000824533
0.000259446
-0.00144578
0.000457242
0.000987976
0.00943712
-0.0072459
-0.000860614
0.00225405
-0.000819335
0.0115688
-0.0178364
-0.00945804
0.00559746
0.00403553
0.00101385
-0.00119672
0.00156956
-0.00118596
-0.000336463
0.00105049
0.00110129
0.000275889
-0.0013782
0.0175797
-0.0142295
0.00587518
0.00281039
0.00352436
7.11769e-05
0.001164
-0.00219969
0.00103621
0.00111519
-0.00122326
0.00840494
-0.00167562
-0.00226718
0.00662587
-0.0206547
0.000499678
0.0117483
0.00298429
-0.000800024
-0.00154642
0.00235412
-0.00425227
0.00773299
-0.00330557
-0.019213
-0.00101959
0.0202737
0.000614977
0.00623768
-0.00686826
-0.0195005
-8.1934e-05
-0.000858837
0.000282151
0.000574045
0.00352685
-0.00643769
0.00292015
-0.0213256
0.00782836
-0.0039928
0.00651886
-0.00236789
-0.00772563
-0.0025798
0.0104193
9.07839e-06
-0.00145985
0.00146431
0.00228085
0.00265719
0.00333942
-0.000278183
-0.0030632
0.010775
-0.00971577
-0.00100703
0.0014302
0.00659305
-0.00790835
-0.00544183
0.00170564
0.00373806
0.00484461
-0.0109848
-0.00124703
0.00113894
0.000108251
8.89588e-05
0.000467564
-0.000995408
0.00215964
-0.0131426
-0.00244413
0.0156132
0.00769483
-0.0114061
0.00370961
0.00694932
-0.00803935
0.0011461
-0.00123047
0.00174297
0.000288806
0.00487162
0.0043394
0.000941717
0.00305004
-0.00207271
0.00154926
-0.00119818
-0.000345634
-0.00956173
0.00594637
0.00382659
0.0117939
-0.00473529
0.00369331
0.00621797
-0.00983912
0.000136836
0.00167416
-0.00181107
0.00219918
-0.00495873
0.00274485
-0.0175238
0.00860896
0.0090775
-0.000793572
0.000608731
0.000183593
-0.00937364
0.00912012
0.000299399
-0.000696073
0.00179904
0.00442478
-0.00413841
-0.000747428
-0.000113274
-0.014377
-0.000863995
0.0155166
0.00588886
-0.00471326
0.00822569
-0.00587768
0.0025542
-0.00663275
0.0117061
-0.00179859
-0.00175002
0.0118677
-0.01008
0.00101442
0.00163669
-0.00405826
0.000749623
0.00331505
-0.00134691
-0.00408668
-0.00360366
0.000100681
0.00352492
0.00371085
-0.000756829
-0.0029565
0.00190815
-0.00176353
-0.000142638
-0.00339264
-0.000201185
0.00034687
-0.00419566
0.00386226
0.0032995
-0.0172588
0.0142546
0.00736474
-0.00722902
-0.000140663
0.00534594
-0.00948969
0.000102655
0.000533121
0.00877295
0.00547291
0.00599803
9.65334e-05
-0.00608236
-0.000268701
-0.00355809
0.00383437
0.00287313
-0.00369881
0.000815812
0.00168214
-0.0011365
-0.00217732
0.000904925
0.00125947
-0.00163688
0.00166973
-0.00028778
0.000850531
0.00146121
-0.000508471
-0.000953031
-0.0104943
0.019862
0.0198522
-0.00186677
-0.000835487
-0.000704972
-0.00264247
0.000962337
0.0016796
0.00230511
-0.0214703
-0.00182259
-0.000147725
0.00196544
0.000932082
-0.00063868
-0.000293715
0.00420998
-0.000502222
-0.00192349
0.0104823
0.00476269
-0.00663339
0.00185488
-0.00155114
0.000585194
0.000984128
0.00193943
-0.00146342
-0.00047597
0.00139497
-0.0141696
0.0129899
-0.00350794
0.000144672
0.00540311
-0.0194617
0.0039236
-0.00307359
-0.000831758
0.00257376
-0.000617293
0.000854281
-0.000283162
-0.000571376
-0.000515155
0.000996957
-0.000482624
0.0142239
-0.00934834
0.00220155
0.00446151
-0.00664609
0.00712478
-0.00560156
0.0100154
-0.0115926
0.00194506
-0.00143394
-0.00290703
0.00509379
-0.00334119
-0.00023487
0.00120435
-0.00176608
0.000560524
0.000491633
0.000438581
0.00265913
0.0015407
-0.00376553
-0.00501005
0.00910526
0.000568775
-0.000595796
-0.00342126
0.00331407
0.000109836
0.00733654
-0.000235171
-0.00695876
-0.00668529
0.0140223
0.000125162
0.00265456
0.0013333
-0.000212611
-0.001115
-0.000416576
2.26185e-05
0.00044535
-0.00156823
-0.00162304
0.00319153
0.00241519
-0.000279209
-0.00211985
-0.00162864
0.00932739
-0.00486329
0.00806423
-0.00313253
-0.000922438
-0.00695974
0.00440412
-0.0112272
0.00688102
0.00024253
-0.000675935
0.000433113
0.00467856
-0.00220146
-0.00253022
0.00559342
-3.63514e-05
-0.00552466
0.00768531
-0.00705921
-0.000636454
-0.0058115
-0.00348271
-0.0150013
0.0209195
0.0037712
-0.00112999
-0.00265949
0.00336793
-0.00251337
-0.000854075
0.000383723
0.0029463
-0.00982257
0.00810346
-0.0139703
0.00305829
0.000806788
-0.000831819
6.12203e-05
-0.000556365
-0.000888953
0.00191268
-0.00191098
-1.17096e-06
0.00315611
6.65715e-05
-0.0032217
-0.000604424
0.0109104
0.000922099
-0.00111844
0.000195114
0.000936113
-0.000295067
-0.000643596
-0.000307814
-0.000939305
-0.00058383
-0.00247238
-0.00146641
-0.00517065
0.00903967
-0.00205322
0.000442186
0.00238228
0.00241668
-0.00176159
-0.000628422
0.000340998
-0.000647384
0.000305849
-0.00148829
0.00106258
0.000443394
-0.00358933
-0.00418005
0.000549885
0.000911407
-0.00274566
0.00714058
-7.70896e-05
0.000965302
-0.00086384
-0.000853533
-0.00142747
0.00228461
0.00903705
-0.0098892
0.00117688
-0.000668106
-0.000126567
0.00335603
-0.000499205
-0.000314439
-1.40586e-06
-0.0159302
0.00738503
0.00864344
0.00717382
0.00365557
-0.0059717
-0.00543332
-0.00240339
0.000839126
-0.0131549
0.00384535
0.00938097
-0.00274283
0.000881681
0.00188607
-0.00236449
-7.78383e-05
0.00244715
0.00160992
-0.00040583
0.000442019
0.00147565
0.0159499
-0.0143126
-0.00114
0.000870059
0.000266827
0.0134612
-0.0158281
0.00233822
-0.000887828
-0.00183148
0.00784228
-0.0216434
-0.00177618
0.00530992
0.00329702
-0.00153054
-0.00124873
0.00323976
0.000700861
0.00448032
-0.00926658
-0.00446359
-0.00489342
-0.00084925
-0.0013392
0.0104581
-0.01393
0.00365001
-5.43122e-05
0.00249139
-0.00243909
-0.00782479
-0.0015025
-0.00468969
-0.00227274
-0.00380612
0.00567098
-0.00174046
-0.0213096
0.00648132
-0.00225698
0.000660894
0.00159534
-0.000899575
-0.000325279
0.00122625
0.0127109
-0.0180215
-0.0015669
-0.000139009
0.00234788
0.00191083
-0.00276466
-0.0107447
0.0183386
-0.00730113
-0.000521546
-0.000336584
-0.0065879
0.00293632
0.000573687
0.000279754
0.00580596
0.001645
-0.00754055
0.00100518
-0.0059028
0.00491597
-0.00188484
0.0012632
0.000626665
-0.00393687
0.00420501
-0.000265038
-0.0183655
0.00525018
-0.00282841
0.00183847
0.00129325
0.00378237
-0.00509124
-0.0051175
-0.0107141
0.00132641
1.29054e-05
-0.00532872
-0.000348229
0.00569227
-0.019694
0.0101601
0.00967851
0.0014854
-0.000576766
-0.00090893
0.00238537
0.00497644
0.000483886
0.000451003
0.00716735
0.00841293
-0.0155739
0.0021009
-0.00195754
-0.000144845
-0.0056578
0.00915711
-0.00339952
0.00272786
-0.000140231
-0.00258576
0.00675665
-0.00547481
-0.0098858
0.00458605
0.0053207
-0.00306808
-0.00678802
-0.00113116
-0.000994802
0.000917208
0.00826723
-0.00912707
-0.00628622
0.0100438
-0.0019716
0.000138654
-0.0196503
0.00328353
0.0164585
0.00811541
-0.0159832
0.00799315
0.00091859
-0.000104796
0.00681021
-0.000796727
-0.0131599
0.0197106
-0.00634251
0.00150634
0.000405618
0.00537408
-0.00165521
0.000438667
0.00689802
-0.00685004
0.000884078
-0.00172229
0.00136657
-0.00214016
0.00077635
0.0104186
-0.00103759
-0.00647161
-0.00830717
0.0151388
0.0138964
-0.000517801
0.00224745
-0.00608387
-0.00232466
-3.40095e-05
0.00069018
-0.000731927
3.98762e-05
-0.00514708
0.00650364
-0.00134412
-0.000121007
-0.00213551
-0.0150583
0.0234443
-0.00817553
0.00547134
0.0001397
-0.00240712
-0.00110766
0.00351571
-0.000371585
0.00141785
-0.00103784
-0.00176099
0.000661355
-0.000320297
0.000422203
-0.00740155
0.00450172
0.00322327
-0.000456338
0.0036103
-0.0131723
0.00405917
0.00946002
-0.00363974
0.000134733
0.00809647
-0.00442254
-0.00407035
0.000137132
0.00251191
-7.91177e-05
-0.0071275
0.00512885
0.00194075
0.00712204
0.00241713
-0.00945281
-0.00158154
0.000763062
0.00479729
0.00111303
-0.00227124
0.00084417
0.00145813
-0.000481531
0.00352957
-0.00306051
0.000674396
0.00205434
0.000675318
0.00126394
0.0103742
-0.00592462
-0.00701355
0.000905281
-0.0107321
0.00410042
-0.00146105
-0.00195854
-0.000916778
0.00225306
-0.001336
0.0248272
-0.0106226
-0.0139975
-0.00240165
-0.000423729
0.0225836
-0.00328079
-0.0191515
0.00137676
-0.00178182
0.000408492
0.00704546
-0.00132338
-0.00724391
0.00822505
0.00599275
-0.0104113
0.00453572
-0.00150243
0.00331254
-0.00181128
0.011786
-0.00565847
0.00220921
0.0011573
-0.00340438
0.00454135
-0.00113421
0.00119916
0.000651333
-0.00184986
-0.00697856
0.00548622
0.00148061
-0.0111681
-0.00838175
-0.000793676
0.00554446
-0.00320682
0.00283923
-0.0156565
0.0131791
0.000174838
0.000975141
-0.0205135
-0.0219255
0.00236802
0.0196629
0.0039877
-0.00239294
0.00107218
-0.000168546
-0.0176514
-0.00621269
0.024013
-0.00115055
-0.0117609
-0.00256283
0.000246225
0.00553024
-0.00502531
-0.000225179
0.00232286
0.00368933
-0.00269631
-0.00099395
0.00457752
-0.00376837
-0.000811378
0.00400467
-0.00364525
0.00298178
-0.00163416
-0.00134733
0.00164532
-0.00117376
-0.000471379
-0.00146014
0.00108845
0.00540097
-0.0202433
0.000760394
-0.00243801
0.00168387
0.00269703
0.00525761
-0.00635004
-0.00285362
0.00930774
0.0161582
-0.0126042
-5.91521e-05
-0.00133479
-0.0013095
0.00244412
0.00124271
-0.00605408
-0.00829752
0.0144314
-0.00210788
0.0014058
0.000714927
-0.0109235
0.0181035
-0.000399546
-0.00754624
-0.00178003
-0.000469815
-0.0154856
0.00210348
0.0135326
0.0037526
-0.000769965
-0.00298663
-0.0117526
-0.00606444
0.00189532
0.00180513
-0.000886084
0.000364706
0.000910786
-0.00160513
-0.000745052
0.00165936
0.00527063
-0.00598857
0.000749701
0.00113614
0.00344063
0.000342037
0.00114295
-0.00134609
4.37179e-05
0.0013019
0.000419734
0.000155761
-0.000574722
-0.0013043
0.000128045
0.00130921
0.00184447
-0.00121374
-0.000614063
-0.000913945
-0.0144218
-0.00589836
-0.0142897
0.0203349
0.000679324
0.00101673
-0.00169547
0.00153718
-0.00137905
0.000151611
0.000847395
-0.0041707
0.00376328
0.000437823
-0.000234207
0.00139781
-0.00115909
0.000646786
-0.00022999
-0.000415075
-0.0103548
0.0134761
-0.0013624
0.000434212
0.000932032
-0.00431575
0.00411901
0.000199999
-0.00479293
0.00551752
-0.000711564
-0.00199535
0.00136303
0.000630935
0.0053105
0.0130173
0.0120054
-0.000360428
0.000982935
-0.00434985
0.0092636
-0.00261228
-0.00444898
-0.00127973
0.00289569
-0.00161477
0.000310255
-0.00544599
-0.00520474
-0.00787481
-0.00374751
0.000587342
0.00315992
-0.00488578
0.000476383
0.000335074
-0.00155455
5.1412e-05
-0.00139652
-0.00301088
-0.00342272
0.0033978
-0.002199
-0.00200451
0.00121093
-0.000839843
-0.000532575
0.00284376
0.00228914
-0.00511914
-0.00245105
0.00129002
0.00116774
0.00381724
-0.000373627
-0.00348067
0.00167987
0.00154818
-0.00322484
-0.000767045
-0.00131783
0.00487815
-0.00359223
-0.00089255
-4.75244e-05
0.000949522
0.00103703
-8.04974e-05
-0.000641556
-0.00158154
0.00192707
-0.000342779
-0.000837969
-0.00151867
0.00238358
0.00119386
-0.00368806
0.00248146
0.00611432
-0.0103779
0.00189476
-0.00563322
0.00384266
0.000275947
0.000372319
-0.000691265
-0.000203148
-0.0163618
0.00589158
0.000517585
-0.000561146
-0.00105852
0.00251735
-0.00145731
0.000597408
0.00104899
-2.99071e-05
-0.00068198
-0.000597531
-0.00139896
0.00301332
-0.000518254
-0.00250079
-0.000279394
0.00430522
-0.0040106
0.0196197
-0.0102064
-0.00909237
0.000684403
-0.00100718
0.000324526
-0.000658201
0.00086982
-0.00021126
-0.0110164
0.00341247
-0.000363977
-0.00755803
0.00805099
0.00120091
0.00178129
-0.000224017
-0.00381875
-0.00234741
-0.000969605
0.00331679
0.00101072
9.4175e-05
-0.000544796
-0.000270749
0.00081552
0.00436738
0.00054484
-0.00281883
0.00227655
0.00297926
-0.00176745
0.00289238
0.00102836
-2.55497e-05
-0.00133691
0.00136181
0.00230279
-0.0015942
-0.00071768
-0.0135349
0.00739819
-0.0108071
-0.00547181
0.016423
0.00489864
0.00197976
-0.000598684
-0.00147221
-0.000319951
0.00709168
-0.015017
0.000779067
0.00364552
-0.00395249
-0.00341467
0.00466459
0.00120513
-0.000280528
-0.000924789
0.00160468
0.000842483
0.00253388
0.00174938
-0.00428181
-0.000237517
-0.00117331
-0.00651412
0.00288247
-0.00162877
-0.000469125
0.000826788
-0.00131836
0.000492862
0.0017245
0.00322332
-0.00490795
0.0081083
-0.00198122
-0.00323978
-0.01853
0.0179773
-0.0190836
0.00109478
0.00245555
-0.00332514
-6.62909e-05
0.00788105
-0.00924653
0.00157527
-0.018021
0.0181069
-5.34822e-05
0.00329474
0.00406001
-0.000279247
-0.00064512
-0.00123452
0.0244912
-0.0112767
0.0136661
-0.00546279
-0.00806109
-0.0105347
0.000562443
0.010086
0.000178001
-0.00106153
-0.00591572
0.000604282
0.00328581
-0.00141545
0.00217638
0.00124307
0.000159747
-0.00139217
0.000930141
-0.00143886
-0.00618921
0.00153182
-0.00559501
-0.012431
0.0182533
0.000736163
-0.000493891
0.000270549
-0.00531081
0.013537
0.000400078
-0.00314567
0.00274976
0.00024492
-0.00182408
-0.00906353
0.00697385
0.00212344
-0.00229966
0.00090443
0.00182102
-0.00483014
5.10983e-05
-0.00406326
0.000947356
0.00313674
-0.00236379
0.00408115
-0.00171669
-2.9462e-05
0.00128324
-0.0136433
0.00462296
0.00903854
-0.00150213
0.00127422
-0.00637916
0.013581
-0.00104579
0.0014887
-0.0038101
0.00126121
-9.23593e-06
-0.00125454
-0.0170817
0.00554802
0.00526826
-0.00103803
-0.00414108
-0.00181111
0.00356949
0.000364033
0.000297799
-1.36593e-05
-0.000891942
-0.000643316
0.00159069
0.00589646
-0.000603977
0.0156724
-0.00587627
0.00348617
0.0053292
-0.00869939
0.0158115
0.00883189
0.0092689
-0.00898271
-0.000270449
0.00656489
-0.0196166
-0.00119648
-0.000337708
0.00540919
-0.000119263
0.00137876
-0.0034678
0.00111963
0.0143293
-0.00581407
-0.00836968
0.00175352
-0.00141067
-0.000804296
0.000153228
-0.0148913
0.0093974
0.00558787
0.0085261
-0.0224937
0.0140062
0.00495903
-0.00174936
-0.00321284
-0.000277189
0.00108596
-0.000813321
0.000741745
-0.000613213
-0.000130504
-0.00396883
0.00435778
-0.000375641
0.00111483
0.000536459
-0.00056424
0.00145123
0.00711727
-0.000483897
-0.00126248
-0.0066407
4.74843e-05
0.00667654
-0.00146168
0.00173816
-0.000263965
0.00406478
-0.0130206
-0.00461156
-0.000252515
-0.00236976
0.00308912
-0.00072249
-0.000808243
-0.00163456
-0.00437208
0.000727474
0.00360373
-0.00172183
0.000677249
-0.00284286
-0.00255837
0.00548549
0.000558764
-0.000138551
0.00683589
0.000581134
0.00989834
-0.00184082
-0.000444368
-0.000702119
-0.000918481
0.000634873
-0.00567451
0.0060933
-0.000425595
-0.00495252
0.00219057
-0.0110168
-0.00631991
-0.000562279
-0.0174248
-0.00646386
0.00367248
1.29752e-05
0.0010534
0.00327451
-0.00497822
0.00857505
0.000784843
0.00260981
-0.000978892
0.0128476
0.00701241
-0.00237124
0.00458406
-0.00404423
0.00508327
0.00391489
0.000746621
-0.00466674
0.0212855
-0.00985364
-0.0111731
0.00191304
-0.00114787
-0.000757443
0.00552806
0.000378748
-0.00378101
0.00620235
-0.00613801
-0.00157733
-0.007448
0.00190306
0.00341751
0.00557539
-0.00092617
-0.00414928
-0.0017578
-0.000438857
0.00223417
0.00968774
-0.00392265
0.00885632
-0.00708199
-0.00174417
-0.00263847
-0.0122334
-0.00288751
-0.000150431
0.00304314
0.00308621
-0.00356819
0.00120779
0.000346799
-0.00612549
0.00702176
-0.00239144
0.00155657
0.000847287
-0.000925471
-0.00475439
0.00161629
0.000461099
-0.00207785
0.00289577
0.00175039
-0.0088953
-0.00456779
0.0134714
0.0151864
-0.00773252
0.00656625
-0.00445509
-0.00215616
0.00644911
-0.00173541
0.0011543
-0.00118154
0.00765096
-0.000443164
0.00420068
-0.00491511
0.00483707
3.44524e-05
0.00143224
-0.00230636
-0.000244654
-0.00499972
0.00527469
0.000910197
-0.000602276
-0.000307721
-0.00703597
0.00813244
-0.00105932
-0.0178241
0.00718494
0.000361434
-0.000590862
0.000230439
0.000916885
-0.000934263
-0.00608993
-0.0122391
0.0185368
-0.00315914
0.00356431
-0.000733593
0.000883072
-0.000156695
-0.00385065
-0.000101924
-0.000937527
-0.000534737
0.00115844
-0.000945078
-4.46403e-05
0.00762479
-0.00785773
-0.000198159
-0.00568477
-0.00279714
-0.00438421
0.00277974
-0.0018961
0.00296446
0.000793732
-0.00219848
0.000435992
-0.000200273
-0.00201304
0.00222318
-0.000388092
-0.00279398
-0.0020571
0.00479477
0.00793904
-0.00751706
-0.000526442
0.000646526
0.00445934
-0.00459993
0.000502807
-0.00140158
0.00399179
-0.000469661
0.00908677
-0.0150548
-0.00177778
0.00191449
-0.0157255
0.00643893
0.00938981
-8.25231e-05
-0.000843458
0.00926662
-0.00255693
0.0069436
-0.00933635
0.00473401
0.00426478
-0.00968791
0.00547909
0.0197918
-0.0116846
0.0019806
-0.00533177
0.00338358
0.00370079
0.00018357
-0.00326705
0.00246453
0.00525631
-0.00768752
0.000779106
0.00222548
-3.89142e-05
-0.00427128
-0.00468996
0.00275585
0.00192578
0.0011191
-0.00029121
-0.000171387
0.00135842
0.0107738
-0.00442258
-0.00173267
-0.00328532
-0.00328276
0.00661794
-0.000950362
0.000826581
0.000123129
-0.000940255
0.000251815
0.000688596
-0.00084088
0.00239811
-0.0163262
0.023851
-0.00739133
-0.000309293
-0.00224674
0.00554054
0.000548177
0.000396977
0.00351258
-0.00307103
0.000196434
-0.00192753
0.00138503
0.00056222
-0.0016553
0.0032186
-0.00156165
-2.86724e-05
-0.00731816
0.00741271
0.00306463
0.00402743
-0.00253759
0.000376856
0.00216796
0.00611024
-0.00600229
0.00186022
-0.00269111
-0.00380474
-0.00181858
0.00561977
0.000875568
0.00234296
-0.00320322
-0.00011308
0.00504383
-0.00497961
-0.00191955
0.000449163
-0.0125054
0.00746848
0.00203003
-0.00364127
0.00159773
0.000966715
0.00551701
-0.00746118
0.00212693
0.00798728
-0.010456
-0.0139079
0.0223527
-0.00819499
-0.00122482
-0.00128885
-2.11167e-05
0.00132422
0.00050269
-0.00192531
0.00143266
0.00132889
0.00147263
-0.0208809
0.004651
-0.019731
0.00204446
0.0178105
0.00392454
7.27577e-05
-0.0018428
-0.0124609
0.0144242
0.00330154
-0.00471381
0.00128707
0.011099
-0.00841214
-0.00255985
0.000126386
-0.00464084
0.00497932
-1.6571e-05
0.000701872
-0.00263128
-0.00323774
0.00585073
0.000904807
-0.00601141
0.00694962
0.000264117
-0.0068103
-0.00356481
0.00409263
-0.000387362
-0.0101267
0.000669665
0.00945673
-0.00129013
0.00415947
-0.00557393
-0.0121445
0.0177188
-0.00287256
0.00224028
0.000637473
0.000918529
-0.00653358
0.00565156
-6.45622e-05
-0.00357032
-0.00400651
-0.00206599
0.000725227
0.00135019
0.00250907
-0.00237321
-0.000101205
-0.00187105
0.00363253
-0.00173155
0.00147742
-0.00435525
0.000262644
0.0103309
-0.000894482
-0.00143772
0.00233171
0.000143391
-0.00355045
0.000460066
0.000832086
-0.00129198
0.0105846
0.000625101
-0.00363031
0.00122445
-0.00916302
0.00126578
0.00793628
-0.00463021
0.00557669
0.00267981
-0.00123744
0.00334356
-0.00357425
0.000359286
0.000186739
-0.000201611
-0.0050736
0.000275555
0.0187436
-0.018998
-0.00835916
0.0196279
-0.0111538
0.0027472
-0.00227835
-0.000462959
-0.00655645
0.0153042
-0.014218
0.0132527
0.00101451
0.00625681
-0.00461871
-0.00156415
0.0135808
-0.00821968
-0.00494482
0.000324702
0.0005446
-0.000735758
-0.00503349
-0.0121834
-0.000169428
-0.000781228
0.00393622
0.00510868
-0.00896599
0.00140027
-0.00424287
-0.00141253
0.00280272
-0.000300654
0.000664268
0.00581556
-0.00844906
0.0198142
-0.0111791
-0.0123818
-0.00452848
-0.000630398
-0.00223478
0.000841314
-0.000750729
-9.7777e-05
-0.00194023
0.00173691
0.000202983
-0.00670738
-0.00691716
-0.00458556
0.00443266
0.00496673
-0.00190241
-0.00054824
0.000964361
-0.00474553
0.00339487
0.00848386
-0.00150029
0.0013724
0.000130959
0.0145879
-0.00616695
0.000738722
-0.00131659
0.00663298
-0.0129567
0.00649318
0.017197
-0.00683685
-0.0103051
-0.000992282
-0.000515743
0.00150811
0.022929
-0.000202372
0.00122211
-0.00206134
0.0125623
0.00620132
-0.0185508
-0.00335328
0.00304044
0.000761686
-0.007689
0.00582179
0.00388125
-0.0098602
0.00263639
0.00346283
-0.00599687
-0.000777813
0.000693304
-0.00264242
0.000786055
0.00185504
0.00568238
0.0105393
0.00338704
-0.00185317
-0.00158624
-0.00254821
0.00473353
-0.00218833
0.00139045
0.00116731
-4.97679e-05
0.00131428
-0.000576751
-0.000738935
0.00167738
0.0016755
-0.00211897
0.00694237
-0.00144184
-0.00560783
-0.00246992
0.000146137
0.00234534
0.00105857
-0.00209792
0.00421839
-0.00205155
-0.00405372
0.0016656
-0.00628144
0.00516618
0.00118182
-0.0041427
8.62131e-05
0.00404787
-0.00113913
0.00201676
-0.000825184
0.0226065
-0.0155493
-0.00704856
-0.0194544
0.00900733
0.0107254
0.00143273
0.00641265
0.00268037
-0.00500789
0.0023199
-0.00423455
0.00271813
0.00149761
0.00355933
-0.00335255
-0.000117106
-0.000651563
0.000221067
0.000429609
0.000678685
-0.000398838
-0.000632875
-0.00376214
0.00500896
0.00128031
0.000511014
-0.00177489
0.00327607
-0.000443667
-0.00276866
-0.00463533
0.00824798
-0.00342838
0.00351521
0.0102867
-0.000832039
-0.00346568
0.00595844
-0.0149997
3.18508e-05
0.0150711
0.00453842
-0.0118939
-0.000546253
-0.000395415
-0.00177385
0.00220006
-0.000407623
0.00192788
-5.05282e-05
-0.00187752
-0.000191985
0.0120015
-0.00123898
0.000914686
0.000666764
-0.0017079
0.00103009
0.00349061
-0.00565618
-0.000933675
-0.00169985
0.002634
0.00435217
0.000201321
-0.00455268
-0.00885831
-0.0103033
-0.00228047
-0.000246372
-0.00228616
0.00420196
0.00238842
-0.00442285
0.000698201
0.0065689
-0.000914277
-0.000203265
-0.000601402
0.00374794
-0.0002304
0.00329011
-0.00167265
0.00365296
-0.00607739
0.00237014
0.00400374
-0.00426753
-0.00301062
-0.00574161
-0.00365905
0.00192599
0.00172174
0.00751427
0.00460024
-0.012119
0.0087333
-0.00887653
0.000360596
0.00180675
-0.00716505
-0.00497176
0.0124473
-0.00136795
0.0138994
-0.0129058
-0.000944944
-0.00330772
-0.000296901
0.00111093
-0.00192944
-0.000800518
0.00273028
-0.00204041
0.00142319
0.000615747
-0.0141096
0.00522249
0.00190161
-0.000533027
-0.00192085
-0.000153089
0.00207318
-0.0140224
-0.00710649
-0.00151168
0.000948293
0.00169086
0.00204516
-3.72845e-05
-0.00188429
0.00284801
-0.00224057
-0.000607117
-0.000247743
-0.000404938
0.00230985
-0.0046698
-0.000429893
-0.00195212
0.0113892
-0.0167131
-0.00253023
0.00195436
-0.00129398
-0.00207381
0.00115619
0.00120802
0.00180615
-0.0124584
0.00614841
0.00999306
-0.0182496
-0.000243553
-3.52841e-06
0.00196107
-0.00191906
0.00826173
0.00466894
-0.0129193
0.00129554
-0.000562757
-0.000732927
-0.00595862
-0.00625824
-0.000219733
0.0168457
-0.0165867
-0.0038623
0.00243019
0.00143128
0.00573232
0.000225432
-0.0059392
0.00980437
0.0127923
-0.0111033
-0.00661284
0.00455592
0.00212636
0.00623121
-0.00244769
-0.0036759
-0.000801435
-0.00389281
-0.00426103
-0.00683971
0.0105956
0.00629232
-0.0168518
-0.0025282
0.00612743
-0.00192465
-0.000717898
0.000779821
-0.00177103
0.00456996
-0.000196579
0.00106219
0.0057845
0.00389835
-0.00410818
-0.00361564
-0.000427283
-0.00273033
0.00262844
0.000101563
0.000451154
-0.0023799
-0.00310266
0.00547083
0.00842788
8.82185e-06
0.00254622
0.0123773
-0.00559581
0.00209589
-0.00220155
0.0119345
-0.00123864
2.25769e-05
0.000822957
-0.0112539
-0.00442477
0.00443152
0.00123432
0.0025199
-0.0037557
0.00125954
-0.0006108
-0.000645824
-0.0064241
0.00609886
-0.000650648
0.00027989
0.00109931
-0.00138105
-0.00577103
-0.00436395
-0.0158257
0.0202596
-0.000396776
-4.60384e-05
0.000442965
0.00432106
-0.00858009
0.00922687
-0.0174667
0.00809062
0.00320258
-0.0112985
-0.00351188
-0.000233604
0.000789817
0.0121741
0.00935891
-0.000330884
-0.00148583
0.00181401
0.000864817
0.00104072
0.000306493
-0.000834668
0.000530738
0.00103827
0.000295782
-0.00132833
0.0019824
-0.000436759
-0.00192109
0.0124678
-0.0103223
-0.000621157
-0.00105454
0.00167586
0.0152885
-0.0195915
-0.0190145
0.00846664
0.010888
0.0224631
-0.0138956
0.00173481
-0.00301355
-0.00149403
-0.000445491
0.00286089
-0.001679
-0.0011222
-0.00187689
0.000764779
0.0187931
-0.00602188
9.94056e-05
-0.0132369
0.0049176
-0.00439175
-0.000432534
0.0196461
-0.0193475
0.00501079
-0.0179477
-0.00203753
-0.00148746
-0.00220201
0.00428272
0.00689203
-0.00607654
-0.000793516
-0.000936192
0.00197111
-0.00103316
0.00473299
-0.0103323
0.000405206
-0.0067192
0.00634917
0.00320722
0.011264
-0.000380104
-0.000626906
-0.0007631
0.00104252
0.000932776
0.00123306
0.00186822
-0.000571939
0.00466343
-0.000311712
-0.00256433
-0.00304867
0.00154573
-0.00637873
-0.000554738
-0.00358608
0.00388873
-0.00676773
-0.00148197
0.00832097
0.00120197
0.00135302
-0.00240926
0.00362199
-0.00369329
6.83363e-05
0.00279565
-0.00439294
0.0015918
-0.000876984
-0.000314078
0.0011901
0.00484369
-0.00367961
-0.000645018
0.0014191
-0.000786299
-0.000629181
0.000849449
-0.00330027
-0.00713882
-0.00530513
-0.00122749
-0.000379735
0.00160562
0.0130091
-0.0187745
-0.00662438
0.000267504
0.00730178
0.00534921
-0.0124876
0.00617587
0.00041787
-0.00647316
-0.00158769
0.00282166
-0.00287219
0.003888
-0.000879067
-0.00375052
0.0172085
-0.00181611
-0.00581786
0.00109108
0.00476979
-0.00130337
0.0014132
-9.60819e-05
0.000256646
0.00528076
-0.00195238
0.00542123
-0.00348558
-0.000972488
0.00247975
-0.00150846
-0.00711115
0.00475076
-0.00214834
0.000399212
0.00822524
0.000516489
0.00340061
0.00487638
-0.00396712
-0.000907183
-0.00181348
-0.000362113
-0.00284111
0.00197171
0.000870803
0.00456343
-0.00349605
-0.00111997
-0.00320731
0.00131974
0.00188807
0.00401278
-0.0145073
-0.00678924
0.00109565
0.00140899
-0.00249483
-0.00213863
0.00387984
0.00395298
-0.0046097
0.000618701
0.00197568
-0.00195058
0.00629587
-1.99282e-05
0.00171211
0.000435317
-0.000466209
-0.000643671
-0.00126512
0.00702825
-0.000801164
-0.00910975
-0.000390581
0.0046413
-0.00420625
-0.00368372
0.000880727
0.00290671
0.0019894
0.00677629
-0.00873272
0.00480906
-0.00049319
-0.00210935
0.00130756
0.000552626
0.00198462
-0.00146299
-0.00249556
0.00141017
0.00111472
0.000590364
0.00233452
-0.00523567
0.00306485
0.00216113
0.00674198
-0.006118
-0.000589785
-0.000582649
-0.000552664
0.00113335
0.0138366
-0.0199387
-0.00227591
-0.00891456
0.0113709
-7.40288e-05
-0.0128544
0.0192682
0.00358788
-0.0030083
-0.000558365
0.00168583
0.00509647
-0.000111587
0.00402662
0.00176638
-0.00203349
-0.000428506
-0.00317882
0.00371353
-0.000758672
-0.00294731
0.00645951
-0.0209391
0.00471952
-0.00403987
0.000237456
0.000678827
0.00133373
-0.000733741
-0.000596699
0.0200588
-0.00863489
-0.0111317