/*--------------------------------*- C++ -*----------------------------------*\
| =========                 |                                                 |
| \\      /  F ield         | OpenFOAM: The Open Source CFD Toolbox           |
|  \\    /   O peration     | Version:  v2012                                 |
|   \\  /    A nd           | Website:  www.openfoam.com                      |
|    \\/     M anipulation  |                                                 |
\*---------------------------------------------------------------------------*/
FoamFile
{
    version     2.0;
    format      ascii;
    class       volScalarField;
    location    "50";
    object      nut;
}
// * * * * * * * * * * * * * * * * * * * * * * * * * * * * * * * * * * * * * //

dimensions      [0 2 -1 0 0 0 0];


internalField   nonuniform List<scalar> 
13917
(
0.00191529
0.00140321
0.0011263
0.00680783
0.00485351
0.00162547
0.00645483
0.0123695
0.00556079
0.000312429
0.00739094
0.00682126
0.00354677
0.00184292
0.00576519
0.00131214
0.00692948
0.00191641
0.00150294
0.00171064
0.00148691
0.00681345
0.0050056
0.00681075
0.00671497
0.00119644
0.00206375
0.000235624
0.00101275
0.00653041
0.000169017
0.00376654
0.00680096
0.00586267
0.00685665
0.0140593
0.00655421
0.00696035
0.00597669
0.0015903
0.00673314
0.00665759
0.00588241
0.00181098
0.00169214
0.00173209
0.00169705
0.00268385
0.0098511
0.00685208
0.0068192
0.000749727
0.000320562
0.00683348
0.00683092
0.000797825
2.38903e-05
0.00501295
0.00669427
0.00140628
0.0120626
0.00591544
0.00669705
0.00673337
0.00383177
0.00649573
0.00112092
0.0140942
0.00627719
0.0017999
0.000612665
0.00533045
0.00678959
0.0067642
0.00139296
0.0066429
0.00616608
0.00676917
0.00667062
0.00679571
0.0067392
0.00696917
0.00678531
0.000309697
0.00672732
0.0143557
0.00271562
0.00677592
0.00153881
0.00690253
0.00671984
0.00531095
0.00815581
0.00691022
0.0067808
0.00119535
0.00279097
0.00695957
0.00676531
0.000913955
0.00670201
0.00669609
0.00673824
0.00682031
0.00616622
0.000387959
0.00526275
0.00590257
0.00658888
0.0031481
0.00673475
0.00609041
0.00101647
0.00263623
0.00358457
0.00658972
0.0015704
0.00674441
0.00131563
0.00676171
0.0069342
0.00680551
0.0016816
0.00175934
0.0021684
0.000563392
0.00675115
0.00124099
0.00690021
0.00192601
0.00477154
0.00097234
0.00546045
0.0065937
0.00224461
0.00256049
0.0128154
0.00242876
0.00101483
0.00696325
0.00910232
0.00679472
0.000262876
0.00684038
0.00677973
0.00613501
0.000794244
0.00959646
0.00232901
0.00683304
0.00179338
0.00668022
0.00677402
0.00676223
0.00209217
0.00661543
0.00681019
0.00593107
0.00676597
0.00675661
0.00675138
0.00584967
0.00452981
0.0101097
0.00543793
0.000956505
9.72644e-05
0.00757387
0.0066488
0.00100876
0.00678601
0.00544384
0.00555726
0.0126202
0.0017402
0.00670976
0.00680742
0.000603785
0.00498533
0.00392914
0.00604634
0.00680557
0.00682232
0.000550791
0.00106743
0.000799047
0.00682068
0.000459989
0.00651991
0.0132659
0.0014342
0.00169751
0.000665459
0.00212864
0.00690684
0.00227779
0.00647137
0.00485069
0.00686455
0.00668694
0.00233304
0.00185775
0.00174252
0.00658039
0.00407313
0.00130246
0.00171642
0.00679177
0.000646511
0.00674079
0.00684371
0.00258779
0.00192447
0.00257254
0.00324205
0.00108535
0.00644471
0.00687634
0.00662825
0.00661624
0.00710604
0.000580493
0.000383752
0.00672396
0.0067106
0.00323663
0.00172538
0.00662546
0.0066241
0.00673788
0.00662155
0.0066135
0.00471434
0.00354235
0.006796
0.00663859
0.00242694
0.00466868
0.00679227
0.00672414
0.00358771
0.000364879
0.000508904
0.00646734
0.00077412
0.00683788
0.00686468
0.00226106
0.000941239
0.00271311
0.00662204
0.003068
0.00676736
0.00265024
0.00225112
0.00677246
0.00673079
0.00673751
0.00566628
0.00681499
0.00414861
0.0136755
0.0068201
0.00663698
0.0065946
0.00664341
0.0067674
0.00688767
0.00559089
0.00679876
0.00373329
0.00552964
0.00680796
0.00605721
0.00501024
0.00663799
0.000775497
0.00517982
0.00663348
0.00291565
0.0068248
0.00550305
0.00671683
0.00597315
0.00676128
0.00685371
0.00075612
0.00693443
0.000883254
0.00435298
0.0135993
0.00600612
0.00231137
0.0022512
0.00675436
0.00452206
0.0054132
0.00654656
0.00519777
0.0066798
0.00689287
0.00684844
0.000619158
0.00125735
0.00244987
0.00669639
0.00672469
0.00558214
0.0010351
0.00690681
0.00721438
0.00654283
0.012478
0.00194413
0.00639086
0.0119657
0.00646613
0.000471879
0.00609613
0.00039326
0.0154166
0.00133115
0.00688038
0.005779
0.00261124
0.00670548
0.00142422
0.00196246
0.00686158
0.00538145
0.00673322
0.00349073
0.00656663
0.00028608
0.00673558
0.00298696
0.00115198
0.0064718
0.00684345
0.00255894
0.000251781
0.00679725
0.00671376
0.00644721
0.000265373
0.00866326
0.00137629
0.00662523
0.00680701
0.000410594
0.000837315
0.00661807
0.00524845
0.00682877
0.000797416
0.00273911
0.000966882
0.000622845
0.000785171
0.00338846
0.00490186
0.00690181
0.0067954
0.00482041
0.00076503
0.00681802
0.00159889
0.00477596
0.00760533
0.00682775
0.000569077
0.00726206
0.00512937
0.00664241
0.000450496
0.00433519
0.00109955
0.00681335
0.000214837
0.00664741
0.00636576
0.000576322
0.00664202
0.00588111
0.00667164
0.00853539
0.00680532
0.00210432
0.00910717
0.00663502
0.00468748
0.000770617
0.00667201
0.00641928
0.00141812
0.00669118
0.000780485
0.00682175
0.000838578
0.00122288
0.0067365
0.00651292
0.00670358
0.0068377
0.00673378
0.00689205
0.0123641
0.000788853
0.006816
0.00687916
0.00684181
0.00459513
0.0131015
0.00660106
0.00665067
0.00209771
0.000594638
0.00686054
0.00665302
0.0103196
0.0143982
0.00647265
0.0013859
0.000262698
0.00661373
0.00661337
0.00190758
0.00672968
0.0065908
0.00678058
0.00660698
0.00660171
0.00492205
0.00681704
0.00147267
0.0043942
0.00454476
0.00685293
0.00677181
0.00622337
0.0020951
0.00155723
0.00657403
0.00673808
0.0066812
0.00662267
0.0065669
0.00662085
0.0101107
0.0059586
0.000309022
0.0067383
0.00578621
0.00591749
0.0067478
0.000847268
0.00876418
0.00682922
0.0131223
0.00686383
0.00675665
0.00684443
0.00666375
0.00682033
0.00681977
0.00576925
0.0126071
0.00681378
0.00297634
0.00189952
0.00680095
0.00421421
0.002659
0.00572189
0.00567638
0.000227866
0.0108512
0.00991055
0.00661198
0.00649464
0.00580091
0.00663628
0.00527751
0.00674631
0.00683774
0.00678084
0.00654279
0.00171098
0.00120596
0.00421464
0.0061062
0.00589347
0.00208219
0.00100281
0.00681514
0.00191071
0.00566458
0.00445969
0.00853467
0.00672775
0.000873203
0.000623806
0.00672487
0.00664458
0.00676463
0.00661811
0.00449417
0.00659215
0.00683972
0.000609368
0.00617269
0.00473868
0.0067474
0.00680063
0.00622763
0.00563371
0.00924039
0.00682312
0.00683091
0.00674038
0.00311612
0.010321
0.00689957
0.00680596
0.00669961
0.00682333
0.00560339
0.00574059
0.00675463
0.00432489
0.00672375
0.00683752
0.00671713
0.00618168
0.00675283
0.00671589
0.00681752
0.00498284
0.00366359
0.00104079
0.00202783
0.00091652
0.00673414
0.0014543
0.00438457
0.00426066
0.00541208
0.00691126
0.00685119
0.00569832
0.00676984
0.00360088
0.00663552
0.01673
0.00647619
0.00306439
0.000746541
0.00669483
0.000650118
0.006814
0.00226168
0.00691505
0.00649012
0.00349717
0.00659513
0.00141543
0.00671744
0.0068411
0.00684825
0.00139684
0.00559918
0.00665978
0.00180761
0.00430032
0.010614
1.13238e-05
0.00529709
0.00571672
0.00674943
0.00180921
0.00668255
0.0130741
0.00887796
0.0063141
0.00741017
0.00669418
0.00570141
0.00631739
0.00659617
0.00692144
0.0068673
0.000243667
0.00675699
0.00335764
0.00683705
0.00665959
0.00676592
0.00100442
0.00454376
0.000455485
0.00316024
0.00587826
0.000102939
0.00502549
0.00682375
0.00765905
0.00685902
0.00244297
0.00677191
0.000351185
0.00681775
0.00545168
0.00678245
0.00982749
0.00558577
0.00488806
0.00680867
0.0056933
0.00685607
0.00670563
0.0053308
0.00125396
0.00680389
0.000866497
0.0067245
0.00650869
0.00669375
0.00601048
0.00675663
0.00551373
0.00663731
0.00683471
0.000763359
0.00668933
0.00112735
0.00699442
0.00673113
0.0129022
0.00306776
0.00682705
0.00029741
0.00145696
0.00542084
0.000517115
0.00680692
0.00505149
0.00563035
0.00136528
0.0021414
0.00655622
0.00513457
0.00694644
0.00688615
0.00644149
0.00330983
0.0065383
0.00947919
0.0055409
0.0137614
0.00953067
0.00187481
0.00379674
0.000738036
0.00359079
0.00689495
0.00469332
0.00642274
0.0067308
0.00682508
0.00676003
0.00599657
0.00684354
0.00187526
0.00404955
0.00676339
0.00198171
0.00680369
0.00666309
0.00682686
0.00690837
0.00647952
0.00389208
0.0211675
0.00680159
0.00689169
0.00691185
0.0068106
0.00603579
0.0068649
0.00187351
0.00367725
0.0129252
0.0201548
0.00474587
0.00517496
0.00680075
0.00688612
0.0068391
0.00555545
0.00499185
0.00642676
0.00188993
0.010319
0.00674067
0.00691191
0.00655794
0.000219331
0.0259463
0.0055454
0.00681075
0.00671616
0.00226209
0.0062503
0.00102087
0.00383281
0.00678551
0.00679287
0.00690229
0.00583057
0.00592401
0.00132529
0.00648886
0.00588247
0.00193142
0.0064314
0.0119519
0.00660569
0.00175532
0.00650856
0.00140921
0.00692921
0.00299841
0.00447879
0.00634023
0.00677082
0.00649094
0.00688192
0.00675098
0.00677535
0.00359717
0.00584405
0.000864269
0.000997348
0.00679829
0.00117777
0.00533927
0.00616603
0.000839349
0.00679099
0.0027775
0.000359081
0.00670645
0.00389509
0.00096074
0.00442091
0.00688917
0.00682642
0.00688854
0.00129541
0.0068021
0.00678375
0.00377902
0.00687337
0.00688011
0.00088355
0.000960683
0.00322978
0.0129204
0.000781043
0.000447417
0.00677413
0.00542838
0.000500744
0.00633553
0.00568345
0.00684577
0.00682353
0.00680464
0.00553294
0.000982125
0.00688928
0.00760542
0.00672808
0.00776201
0.00660239
0.00593992
0.00658832
0.00223686
0.00595058
0.00611383
0.00265101
0.00692044
0.00622918
0.00678458
0.00369977
0.00653212
0.00670072
0.00636219
0.00691212
0.00676624
0.00525265
0.00610029
0.00701355
0.0139556
0.00674873
0.00415205
0.00663693
0.00603732
0.0101945
0.00663524
0.00583377
0.00671068
0.00673931
0.00159892
0.00667146
0.00677837
0.00681056
0.000574894
0.0068079
0.00683567
0.00671861
0.00685745
0.00352839
0.00678494
0.00809411
0.00678397
0.00175912
0.00356448
0.0143217
0.000318389
0.0104644
0.00116289
0.0102315
0.00673467
0.00652537
0.00678958
0.00677752
0.00674391
0.00631749
0.00678888
0.0140959
0.00683525
0.00102865
0.00680734
0.0042454
0.000607048
0.00692265
0.00140255
0.00678362
0.00646393
0.00650108
0.00663869
0.00510584
0.00275445
0.00715179
0.00691386
0.00673119
0.00675895
0.00671813
0.00762863
0.00673846
0.000992247
0.00680489
0.0108215
0.00600502
0.00681981
0.00295478
0.00596233
0.00674477
0.0186203
0.00653341
0.00650194
0.00240591
0.00681631
0.00102627
0.00681735
0.00671431
0.00395513
0.00687828
0.00680426
0.00211748
0.00334862
0.00693344
0.00941121
0.000245611
0.0066257
0.00650265
0.0068559
0.000424325
0.00673032
0.00187599
0.00681299
0.0066012
0.00596531
0.00937508
0.00686998
0.0066115
0.0096463
0.00688718
0.00646444
0.00351907
0.00670996
0.00674399
0.0169568
0.00662974
0.00652576
0.00345814
0.00670202
0.00394953
0.00165625
0.00259838
0.000663489
0.0067203
0.00651449
0.00675604
0.00368292
0.00673991
0.00459919
0.0113248
0.00680391
0.00682129
0.00660089
0.00682347
0.00672239
0.00674548
0.00680225
0.00676005
0.00537863
0.00670071
0.00673349
0.00273895
0.00463619
0.0060493
0.00215829
0.00675266
0.00943193
0.00677087
0.000372378
0.010257
9.43355e-05
0.00660499
0.00673993
0.006775
0.00684119
0.00660321
0.00668874
0.00675977
0.00365988
0.00674394
0.000830812
0.0160489
0.00679143
0.00506245
0.00674114
0.00688253
0.0058706
0.00623537
0.000830947
0.00673115
0.0235793
0.00689169
0.00688141
0.00104513
0.00649282
0.00817677
0.00680076
0.00895065
0.00685021
0.00680969
0.00223223
0.00546757
0.00674392
0.00573504
0.00577781
0.00690322
0.00642788
0.00673385
0.00681849
0.00233391
0.00385707
0.00655473
0.00612028
0.00148258
0.004884
0.00227836
0.00681253
0.00586466
0.00680763
0.0116207
0.00269342
0.00567174
0.00675978
0.00901245
0.00492874
0.00101671
0.00710107
0.00785146
0.00672693
0.00678695
0.00387078
0.00678908
0.00681069
0.0020866
0.00310633
0.00680431
0.00441426
0.00455931
0.00671694
0.0065988
0.0168841
0.00682071
0.00678868
0.00668791
0.00648334
0.00677171
0.00689114
0.00372136
0.00625898
0.00678187
0.013996
0.00711958
0.00699333
0.0100134
0.0059145
0.00475315
0.00680401
0.00680886
0.00820767
0.00332089
0.00853213
0.00736681
0.00174118
0.00680345
0.0067984
0.00693475
0.00614306
0.00571833
0.00666167
0.00400166
0.00683943
0.00633113
0.0030618
0.00204053
0.0031002
0.000864607
0.0260305
0.0101755
0.00637991
0.00698161
0.000463504
0.00660516
0.00283152
0.00207781
0.008643
0.0066345
0.00650413
0.00653269
0.0145679
0.00667834
0.00591514
0.00556254
0.000924555
0.0102949
0.0068245
0.00237529
0.00666741
0.0068393
0.00559095
0.00747533
0.00659008
0.00678309
0.00675785
0.000477031
0.00675166
0.00670473
0.00672188
0.00675934
0.00682431
0.000637774
0.0027423
0.00665707
0.00691622
0.00542044
0.00820134
0.00154317
0.00632139
0.00681095
0.00673422
0.00375926
0.00677452
0.00667439
0.0062755
0.00512066
0.00392019
0.00232426
0.0041719
0.00120312
0.00105929
0.00196223
0.000555473
0.00689894
0.00249451
0.00487369
0.00125332
0.0130256
0.00427478
0.00658502
0.00683894
0.0068627
0.00682604
0.00683001
0.00129732
0.00686345
0.00504948
0.00671151
0.00321832
0.00618011
0.00669519
0.00674923
0.0142491
0.00673768
0.00299755
0.00586406
0.0067332
0.00675509
0.00571659
0.00292362
0.00362324
0.00432837
0.0103063
0.000847769
0.0068808
0.0135141
0.00574363
0.00727666
0.00682724
0.00151825
0.00675466
0.00583751
0.00126471
0.0062776
0.00680433
0.00396175
0.00929783
0.00675527
0.00102963
0.00872922
0.00683786
0.00676837
0.0061328
0.000647741
0.000477875
0.00689999
0.00434211
0.00719219
0.00734727
0.00164288
0.00680595
0.00672696
0.00657551
0.00673333
0.00689894
0.00657307
0.00100389
0.00670358
0.00667182
0.00343108
0.00729725
0.00233056
0.00624578
0.00946018
0.00680154
0.00678945
0.00672335
0.00674283
0.00256276
0.00431298
0.00726136
0.000593148
0.00227402
0.00422825
0.00672998
0.00706376
0.00599935
0.00178369
0.00691408
0.00105051
0.00722498
0.00687232
0.00679294
0.00655498
0.00474687
0.00451003
0.00479221
0.000588156
0.00690535
0.0041376
0.00693793
0.00673038
0.00711213
0.0133926
0.00691058
0.0035519
0.00160233
0.00214083
0.00680239
0.00678228
0.00677261
0.00684763
0.00674544
0.00526977
0.00120993
0.00309229
0.00206026
0.00653833
0.00505923
0.000880538
0.00691934
0.00163331
0.000348126
0.00145477
0.00464541
0.00669049
0.00674568
0.00489915
0.00673469
0.00848836
0.00676434
0.00130118
0.00682187
0.00673816
0.00100774
0.00647759
0.00669012
0.0067302
0.00967102
0.000707511
0.00488182
0.00678333
0.00684955
0.00399118
0.00675517
0.00665471
0.000607458
0.0130783
0.0050476
0.00568653
0.00680626
0.000328301
0.00673081
0.0062786
0.00680252
0.0067208
0.00147015
0.00673464
0.00683971
0.00257535
0.00328763
0.00915353
0.0014229
0.00672805
0.00619355
0.00687786
0.00691011
0.00641291
0.00682451
0.00682785
0.00158981
0.00680478
0.003228
0.00564416
0.00624482
0.00677374
0.00702135
0.00689314
0.00580169
0.00652856
0.00991863
0.00291848
0.00686368
0.00407473
0.00497534
0.00616908
0.00683486
0.00604407
0.00680576
0.00687248
0.0028335
0.0016296
0.00539619
0.00680367
0.00688119
0.0066291
0.00267538
0.00683243
0.00666034
0.00499484
0.00679692
0.00672498
0.00675775
0.00500321
0.00623535
0.00376182
0.00569072
0.00634853
0.00619745
0.000793473
0.00647142
0.00565981
0.00671532
0.00655375
0.00655688
0.00704556
0.00676008
0.00651537
0.00684385
0.00681971
0.000545345
0.00158934
0.0011159
0.00747803
0.00652804
0.000434884
0.00647466
0.00675871
0.00510579
0.00674035
0.00670842
0.00872241
0.0067397
0.00656249
0.00743126
0.00679993
0.00676427
0.0067525
0.00454841
0.00673863
0.00678045
0.00282658
0.00672991
0.00686994
0.00696332
0.00675253
0.00400379
0.00680211
0.00623784
0.00672944
0.00181542
0.00427257
0.00673166
0.00673557
0.00679191
0.00672501
0.00671085
0.00676323
0.00683375
0.00680195
0.00676084
0.00676259
0.00680291
0.0013273
0.00676628
0.00271951
0.0068263
0.00140769
0.00688801
0.00682661
0.00685901
0.00654124
0.0016576
0.00599991
0.00621915
0.00921266
0.00819224
0.006132
0.00688908
0.00245641
0.000369624
0.00683795
0.00679781
0.000896348
0.0111237
0.00661837
0.00477765
0.00681898
0.00205237
0.00869347
0.0067183
0.002365
0.00348561
0.0103481
0.00682155
0.00386431
0.00679661
0.00338017
0.00667961
0.00624952
0.00247231
0.0068249
0.00424523
0.000880956
0.00692808
0.00625615
0.00637485
0.00669966
0.00672448
0.00638108
0.0053121
0.00676389
0.0049598
0.00680324
0.000853541
0.000645582
0.00683913
0.00690159
0.000952182
0.00691542
0.00673655
0.00681111
0.00679136
0.00422879
0.00525716
0.00631776
0.00613275
0.00674521
0.000785289
0.00678351
0.00639745
0.00348092
0.00379844
0.00687906
0.00640332
0.00670367
0.00684344
0.00671292
0.00683118
0.00605152
0.00675191
0.00681565
0.0067542
0.00486712
0.00672678
0.0111719
0.0100937
0.0160654
0.00684118
0.00691811
0.00673688
0.010681
0.00682643
0.000213545
0.00682462
0.00609516
0.00670416
0.00646835
0.00107936
0.00683816
0.00691657
0.00506913
0.00152049
0.0065323
0.00669079
0.00254548
0.0132782
0.00684522
0.00557468
0.00683199
0.00614004
0.00883565
0.00654087
0.00103773
0.0035926
0.00238813
0.00310955
0.00676662
0.000752764
0.00674085
0.00713336
0.00673319
0.00287828
0.00674038
0.00674931
0.0063907
0.00794695
0.00691999
0.00823133
0.000780525
0.00460569
0.00676034
0.00254335
0.00420635
0.00942975
0.00736691
0.00237043
0.00689012
0.00118682
0.00790189
0.00650975
0.000397424
0.00659231
0.000702381
0.00145882
0.00691998
0.00171444
0.00672493
0.00149915
0.00332002
0.00664659
0.00634087
0.00562756
0.0143577
0.00672849
0.00676853
0.00680582
0.00684112
0.00118125
0.00209079
0.00112109
0.00679509
0.00539979
0.00650362
0.005376
0.00818145
0.000649257
0.00672718
0.00673504
0.00157961
0.0103128
0.0092584
0.00943859
0.00159539
0.00137938
0.00162522
0.00436337
0.00567693
0.011931
0.00672439
0.00242917
0.0050551
0.00132535
0.00680223
0.00578532
0.00205452
0.00117684
0.0133819
0.00659768
0.00910984
0.00600296
0.00094597
0.00673149
0.00673351
0.00442241
0.00692502
0.00570416
0.0049832
0.0068856
0.000829832
0.00539087
0.00673198
0.00553725
0.00525171
0.00680329
0.00388234
0.00578373
0.0048936
0.00690312
0.00600673
0.00093862
0.00153084
0.00651796
0.00559071
0.00211653
0.0120385
0.000627405
0.00288094
0.00122343
0.00559439
0.00662821
0.00648447
0.00657075
0.00105873
0.00161402
0.00668119
0.00672752
0.0067573
0.00514578
0.01351
0.00690924
0.00119684
0.000713516
0.00673777
0.00556778
0.00656396
0.00416275
0.00584959
0.00688418
0.000228218
0.00627611
0.00645578
0.000253333
0.00677006
0.000991822
0.00546975
0.00349555
0.000890042
0.00416415
0.00317688
0.0100379
0.0025479
0.00676659
0.00581859
0.0050852
0.00673814
0.00208904
0.00375616
0.000555792
0.00473945
0.000893562
0.0088054
0.00103898
0.00486011
0.00565894
0.0029319
0.00667808
0.00679843
0.00681645
0.00679074
0.00106457
0.00157971
0.00656535
0.00148091
0.00168751
0.00676602
0.0134217
0.0046259
0.00653463
0.0068292
0.00669143
0.00673232
0.0041362
0.00674149
0.00886467
0.00588347
0.00325209
0.00621389
0.00130898
0.00232754
0.0023964
0.0097767
0.00680732
0.00672121
0.00661071
0.00691593
0.0042448
0.00242589
0.00277138
0.0116874
0.00679301
0.00677545
0.00186328
0.00685309
0.00680349
0.000617118
0.00656231
0.00483224
0.00933966
0.0127967
0.00675901
0.0126709
0.00675858
0.000977557
0.00672939
0.00134638
0.00916958
0.00676863
0.00425727
0.00445176
0.0018846
0.00683959
0.00675418
0.00388434
0.00899059
0.00678543
0.00680939
0.00686874
0.00694609
0.00158215
0.00685546
0.00652329
0.0067264
0.00693951
5.89824e-05
0.00569726
0.00637768
0.000991404
0.00377279
0.00592612
0.00956366
0.00690575
0.00671485
0.00566918
0.00681232
0.0036463
0.00677048
0.000856916
0.00663041
0.00675415
0.00405362
0.00571088
0.00673204
0.00688385
0.00672384
0.00207392
0.000876663
0.000654005
0.00672638
0.00647633
0.00675068
0.00602988
0.00671394
0.000377671
0.00331651
0.00678723
0.000439545
0.00206463
0.00712271
0.00680331
0.0066754
0.00404787
0.00106486
0.000584259
0.00680509
0.00680779
0.00666544
0.00651841
0.00677939
0.00684194
0.00256848
0.00669956
0.00564152
0.00664004
0.00690504
0.00686698
0.0106484
0.00674415
0.00399939
0.00474521
0.00669263
0.0142606
0.00682127
0.00102857
0.00179472
0.00682736
0.00654254
0.00667788
0.00674214
0.00476562
0.00371894
0.00569162
0.00550697
0.00681165
0.00579922
0.00147967
0.000781568
0.00675425
0.0051237
0.00300827
0.0003411
0.00677485
0.00675437
0.00681264
0.00812616
0.00431748
0.00690172
0.00674494
0.00605386
0.00873293
0.00679865
0.00675186
0.00665092
0.00213318
0.000584673
0.00670866
0.00578314
0.0056051
0.00673083
0.00764541
0.00345514
0.0141705
0.00838535
0.0018979
0.00611967
0.00686132
0.00403801
0.00678651
0.00178018
0.00091211
0.00683213
0.00665957
0.00126742
0.00906277
0.00677768
0.00064855
0.012513
0.00387705
0.00679424
0.00679925
0.00301414
0.000283488
0.00433604
0.00688033
0.0127783
0.00295105
0.00668362
0.00305487
0.00445402
0.00682769
0.000999238
0.00686467
0.0054253
0.00691141
0.00665127
0.00683699
0.00672761
0.00392191
0.00653456
0.00673718
0.00268356
0.00611764
0.0064316
0.00139055
0.0068416
0.00672785
0.00672876
0.00677631
0.00634134
0.00633796
0.000805624
0.00656281
0.00275273
0.00818939
0.00262397
0.00633325
0.00994074
0.00465954
0.00683302
0.00232028
0.00675442
0.00684866
0.00690533
0.00648103
0.00163009
0.00310438
0.00116445
0.00676405
0.00673393
0.00311723
0.00681241
0.0068097
0.00684596
0.00635442
0.00337804
0.00114801
0.00675576
0.003294
0.00680416
0.00676895
0.00673824
0.00415896
0.00680239
0.00201118
0.00617707
0.00117061
0.0046727
0.00927499
0.0070814
0.005403
0.0263394
0.000722346
0.00655188
0.00689077
0.00668534
0.00602915
0.00663967
0.00363922
0.00404545
0.00243207
0.00100165
0.00784917
0.00312719
0.00406032
0.00676795
0.00672409
0.00404774
0.000288166
0.00679618
0.00676486
0.00760248
0.00672462
0.000477865
0.00687237
0.00670473
0.00575379
0.00677372
0.00349272
0.00626668
0.00517844
0.00662914
0.00680645
0.000610774
0.00677253
0.00102187
0.0067858
0.00171458
0.00240735
0.00681057
0.00683262
0.00669333
0.000591309
0.00302445
0.00156976
0.00366111
0.00382017
0.000392716
0.00234357
0.0022955
0.00136598
0.00676016
0.00571119
0.00678945
0.00629963
0.00101434
0.0052854
0.00222423
0.00698133
0.00312518
0.00143364
0.0068577
0.00346702
0.00683875
0.00678805
0.00654902
0.00681026
0.0055003
0.00117472
0.000762745
0.0104927
0.0065156
0.00122192
0.00675997
0.00674037
0.00678023
0.000602539
0.00221141
0.0114128
0.00186209
0.00653156
0.00679866
0.00675196
0.00143675
0.00652127
0.00665997
0.00654389
0.000719487
0.00545414
0.000943649
0.00291001
0.00610401
0.00387191
0.00576571
0.0067527
0.00654334
0.00426145
0.00640492
0.000932691
0.00684419
0.00848876
0.00570215
0.00687082
0.00480793
0.00655214
0.00604934
0.00180911
0.00672556
0.00624024
0.00680674
0.00673805
0.00651794
0.00897018
0.000104898
0.0070892
0.00734149
0.00210118
0.00687071
0.00297438
0.00238304
0.00509879
0.00352069
0.00430948
0.0067952
0.00458974
0.00596755
0.00295722
0.00593629
0.00688465
0.00650238
0.00677189
0.0067823
0.00988879
0.000211299
0.00237966
0.00518087
0.00667404
0.00677845
0.000214786
0.00687004
0.00673573
0.00676039
0.00501832
0.00675246
0.00278346
0.00362703
0.00443202
0.000783337
0.00680875
0.00346726
0.00686527
0.00647678
0.00490275
0.00676472
0.00681067
0.00652592
0.00230342
0.0016103
0.00370815
0.0064731
0.00505031
0.00956342
0.00655137
0.000572915
0.00511016
0.00287011
0.000754923
0.00684084
0.00687341
0.0067537
0.00673032
0.00674044
0.00503749
0.00514578
0.00365211
0.00435015
0.00350699
0.000977597
0.0124458
0.00571908
0.00566469
0.00426681
0.00126051
0.00242126
0.00672557
0.00684924
0.00301774
0.00356555
0.00659153
0.00576343
0.0062358
0.00686275
0.00678849
0.00671606
0.000564506
0.0067915
0.00343152
0.00615018
0.0067709
0.00672211
0.00684146
0.00679748
0.00219229
0.00591011
0.00128808
0.000253511
0.000684172
0.00675795
0.0038628
0.000523852
0.00685095
0.0010101
0.000795792
0.0106761
0.00802156
0.0044732
0.00687344
0.000347539
0.00605524
0.000474213
0.00032664
0.00691968
0.00666687
0.00663878
0.0067492
0.000898574
0.00373071
0.00681132
0.00559999
0.00977563
0.00587573
0.00657335
0.00707153
0.00615959
0.00570191
0.00679525
0.00368039
0.000956738
0.00673427
0.00672917
0.0090813
0.00676747
0.00134394
0.00371697
0.00107494
0.00679645
0.000604068
0.00115751
0.00686594
0.00662114
0.0111324
0.00941202
0.00673315
0.0023509
0.000541034
0.00148888
0.00516432
0.0068749
0.0064852
0.00393001
0.0247501
0.00367145
0.0067264
0.00444525
0.00673918
0.00655356
0.00466152
0.00145859
0.0011246
0.00666377
0.00572757
0.00692175
0.00676348
0.00680968
0.00679986
0.00825518
0.00668373
0.00481769
0.00190759
0.00203466
0.00337173
0.00978771
0.00272562
0.00898832
0.00678261
0.00662971
0.0039194
0.00650581
0.000524524
0.0200259
0.00681137
0.00275844
0.00546171
0.0051511
0.00208202
0.0028355
0.00203865
0.00191933
0.00677658
0.00184906
0.00179054
0.00173699
0.00174559
0.00199622
0.00239463
0.00529775
0.00672961
0.00593635
0.00208899
0.00678914
0.00120974
0.00452093
0.00081833
0.00650773
0.00665719
0.00680625
0.00466181
0.00151868
0.00680475
0.00656847
0.0033969
0.0117761
0.00945855
0.00683676
0.0022781
0.00657694
0.000892063
0.0103217
0.00669411
0.000349926
0.00592939
0.00160588
0.00490051
0.00119661
0.00474752
0.0047175
0.00665064
0.0032731
0.00622997
0.00676504
0.00151824
0.000728323
0.00614363
0.00690734
0.00372267
0.0121675
0.00682816
0.00683042
0.010024
0.000820221
0.00112922
0.00683072
0.00128667
0.000798969
0.00634597
0.0044822
0.00678164
0.00673096
0.00680607
0.00690024
0.00379947
0.00444027
0.00578832
0.00233959
0.00101897
0.0121379
0.00689978
0.00673132
0.00580633
0.00691852
0.00414542
0.00670408
0.00520654
0.00679025
0.00674112
0.00851473
0.00677638
0.00176375
0.00433096
0.0068912
0.00654669
0.00678039
0.00166255
0.00473999
0.000477207
0.00655024
0.00690739
0.00696235
0.00639505
0.00113258
0.00376243
0.0103876
0.000680849
0.00141445
0.0015251
0.000446895
0.00648431
0.00686741
0.00677938
0.0067273
0.00042057
0.00125448
0.00735103
0.00125777
0.0013854
0.00685516
0.0083838
0.0124769
0.000987447
0.00672568
0.00676585
0.00665456
0.00636495
0.00794197
0.00798624
0.000393184
0.00169588
0.0011064
0.00669531
0.00566262
0.000573536
0.000450485
0.000823368
0.00676808
0.00149427
0.00678355
0.00668097
0.000565769
0.00867102
0.00707123
0.00681531
0.00078817
0.000610282
0.0125872
0.00214711
0.00287943
0.00118639
0.00690849
0.00400054
0.00680212
0.00143178
0.00690085
0.000601685
0.00654438
0.00474244
0.00467501
0.00376317
0.0069586
0.000938515
0.00627274
0.0022808
0.00650846
0.0130197
0.00230941
0.00696953
0.00656483
0.0010165
0.00562575
0.000587951
0.000623945
0.00571057
0.00313504
0.00707291
0.00322241
0.00620674
0.00562234
0.000872142
0.00592965
0.00167102
0.00183024
0.00243627
0.00251901
0.00680947
0.000818583
0.00330318
0.000553788
0.00370488
0.00788435
0.00486745
0.0010107
0.00582686
0.0100756
0.00660774
0.00525716
0.000586178
0.000287419
0.00131303
0.00672773
0.00664101
0.00564976
0.00311702
0.00561953
0.00681123
0.00119774
0.0052717
0.00175005
0.00378861
0.00618603
0.00609515
0.00608163
0.000583796
0.00693571
0.00681042
0.000455197
0.0108244
0.00623414
0.00245216
0.00668241
0.00666434
0.00678803
0.00390673
0.00680644
0.00676552
0.00459968
0.000286156
0.00672399
0.0035866
0.00679501
0.00684785
0.00675241
0.00691822
0.00680167
0.00100992
0.005489
0.00676304
0.0118476
0.0028859
0.00378949
0.000345763
0.0023223
0.00649268
0.00438149
0.00672486
0.00423901
0.0027493
0.0035505
0.00688283
0.000348024
0.000548152
0.00292783
0.000672297
0.00595015
0.00673635
0.00403866
0.00425672
0.00374045
0.000645928
0.00686712
0.0044935
0.00161198
0.00677966
0.00974193
0.00672223
0.00142306
0.00166447
0.0101209
0.00167934
0.00172127
0.00449355
0.00683081
0.00690109
0.00326385
0.0067353
0.00680798
0.00681
0.00435083
0.00685014
0.00673722
0.00676132
0.00105729
0.00670817
0.00378754
0.00687415
0.0032383
0.00240344
0.00667607
0.00160325
0.00670758
0.00675321
0.00211993
0.00401009
0.00688926
0.00685865
0.0133569
0.00674338
0.00548879
0.0067311
0.00079811
0.00673876
0.006866
0.00100709
0.00497032
0.00274824
0.00139848
0.00660734
0.0063583
0.00679038
0.00673913
0.0024997
0.00670104
0.000649379
0.00631168
0.00177891
0.00326619
0.00130113
0.00306112
0.00685662
0.0068142
0.00149841
0.00361824
0.00336342
0.000957316
0.00921272
0.00392759
0.00680773
0.00635479
0.00129697
0.00312653
0.00678173
0.00201517
0.00234881
0.00378754
0.00679547
0.00676666
0.0005342
0.00383677
0.00103142
0.0101492
0.00648907
0.0030937
0.00679861
0.00388049
0.0078544
0.00683315
0.000597183
0.00723745
0.00144441
0.00953279
0.0067716
0.00687016
0.00672742
0.00419263
0.00142075
0.00665549
0.000878041
0.00190951
0.0067953
0.00686619
0.000484017
0.00367281
0.000478323
0.00606274
0.000458098
0.00490696
0.000761583
0.00184067
0.00522212
0.00645006
0.00236104
0.00677264
0.0067994
0.00239642
0.00179905
0.00678499
0.0140887
0.00176019
0.00194366
0.00463458
0.00179137
0.00684739
0.00398613
0.00659192
0.00672449
0.00684351
0.00678329
0.00675529
0.00678028
0.00690325
0.00669506
0.00683458
0.0067898
0.00435695
0.00257535
0.00680873
0.00381096
0.00659021
0.00718703
0.00676694
0.00442402
0.00544173
0.000388976
0.00677364
0.00675868
0.00115492
0.00168624
0.00681187
0.0068043
0.000643254
0.00673723
0.00073271
0.00397702
0.00683192
0.00062705
0.00672122
0.00679193
0.000622071
0.00413934
0.00688973
0.00410614
0.00681649
0.00569828
0.00686927
0.00396242
0.0067753
0.00676044
0.00224349
0.00395957
0.000232524
0.0045384
0.00679536
0.00326919
0.00650886
0.000887646
0.00163106
0.0019803
0.00677213
0.00261038
0.016586
0.00104159
0.0113548
0.00645025
0.00562364
0.0184119
0.00264287
0.00680555
0.0009079
0.00679783
0.0031293
0.00633972
0.0068393
0.00101153
0.00682835
0.00659149
0.00142966
0.00679222
0.00392958
0.00640043
0.00183689
0.00670906
0.00312277
0.00614551
0.00672388
0.00963126
0.00671283
0.00151469
0.00675692
0.00633859
0.00693362
0.00270103
0.00668057
0.00310443
0.000380226
0.00683313
0.00682104
0.00548306
0.00629987
0.00679366
0.0067139
0.00642966
0.00681172
0.00680098
0.00330003
0.00223632
0.0015914
0.00673232
0.00342067
0.00585965
0.00333303
0.00679548
0.00684015
0.00564947
0.00201909
0.00679895
0.00684059
0.00680593
0.00690564
0.00619554
0.00639373