/*--------------------------------*- C++ -*----------------------------------*\
| =========                 |                                                 |
| \\      /  F ield         | OpenFOAM: The Open Source CFD Toolbox           |
|  \\    /   O peration     | Version:  v2012                                 |
|   \\  /    A nd           | Website:  www.openfoam.com                      |
|    \\/     M anipulation  |                                                 |
\*---------------------------------------------------------------------------*/
FoamFile
{
    version     2.0;
    format      ascii;
    class       volScalarField;
    location    "700";
    object      ddt0(omega);
}
// * * * * * * * * * * * * * * * * * * * * * * * * * * * * * * * * * * * * * //

dimensions      [0 0 -2 0 0 0 0];


internalField   nonuniform List<scalar> 
13851
(
-0.0306295
-0.000101621
-0.000100891
0.00242197
5.35738e-06
-0.000163087
-0.000127746
3.99367e-06
-0.0207939
-3.39378e-07
-0.000750212
2.3761e-06
-1.72879e-06
-0.0381411
-0.000527329
-0.00086303
-0.0217534
-7.9901e-06
0.00580396
-0.021562
-0.000659837
-9.50572e-05
0.0118254
9.43825e-07
0.0392501
-0.00131715
-0.0135408
0.0124794
-0.0229164
1.80955e-06
0.00460856
-0.000128455
-0.0390289
-0.0154948
-0.000485712
-0.0231683
2.6491e-07
0.0706035
-0.0038551
-3.39944e-06
-0.0133355
-0.0232023
-0.0161822
0.0336801
-0.0229411
1.03238e-06
-1.26219e-06
-0.000968436
-4.62896e-05
-2.85473e-06
-0.0355247
-3.37642e-06
0.00110963
-0.000429609
-0.0475746
-3.07572e-06
-0.0405615
-0.0138144
-0.016515
-0.0456468
2.44389e-06
-0.0127783
-4.40933e-07
-4.85394e-05
-0.0126059
-0.0128007
-0.074563
-0.00394143
-8.12315e-06
0.00487582
-0.00374536
-0.00088684
-4.22713e-07
-0.0568064
-0.000481353
-3.76522e-05
-0.019103
8.09263e-07
0.0349794
2.40646e-06
-7.81328e-06
-0.155448
-0.000445038
-0.0407482
-0.0453342
0.00153719
-0.000102248
-0.0406873
3.02505e-07
0.00498699
-4.28145e-06
-0.000134106
-0.0480765
-0.000655989
-0.0107387
-0.00760198
1.21918e-06
-0.00313259
-0.0413194
0.00446074
-0.00731319
-0.0028123
0.00105669
-1.91776e-06
1.56215e-07
-0.000796777
5.71945e-07
-0.00226031
-0.000130573
-6.39119e-06
-9.44035e-05
8.11608e-07
-0.0441818
-0.00126121
-0.0274179
-0.000388034
3.84564e-06
4.38541e-06
-0.00251644
0.0122851
-0.00651956
-1.38212e-06
-6.0853e-06
-0.0229509
0.000344533
-0.00612723
1.83196e-06
-5.18024e-05
-0.0164475
-0.000843608
-9.24603e-05
-0.0002691
0.0560836
-0.0160378
-0.000317321
-0.0100492
-0.00381149
-0.00104776
-0.000263638
-0.000833591
-0.128279
-9.07348e-06
1.7638e-07
-0.0109131
0.0330505
-2.97185e-05
2.7848e-07
0.000476369
-0.0233474
-0.00084025
-0.00629339
-0.037476
-0.00138023
-0.0119771
-3.97114e-06
-1.48705e-06
2.58293e-06
-0.00515023
-0.000740116
-9.68215e-05
1.27618e-06
-0.0234506
-0.000699352
0.001804
-0.0499297
-0.0211381
-0.0209729
-0.0318679
-9.35598e-05
0.00974348
2.2201e-06
4.185e-06
-0.00109596
4.49661e-06
-0.00850029
-0.00862506
-0.012413
4.35949e-06
-0.000487511
-0.0116239
-0.00586226
-0.0119684
-9.99731e-05
-0.000827512
-0.0213185
-0.023103
-0.039361
0.000100093
-3.60721e-06
1.74754e-06
0.0270624
-0.000738002
-0.0851841
-0.000168692
-2.81189e-05
-0.000654164
-0.0299922
-2.5307e-05
-1.54342e-05
-0.00138577
-0.0303956
-0.0122316
-0.0137452
-0.000559322
-0.142041
-0.013726
-1.32666e-05
-0.000818132
-0.0203953
-0.00013029
0.00187641
-5.82336e-06
-0.118675
5.17284e-08
-0.000513737
-5.51965e-05
-2.98324e-06
-0.00842506
-1.8709e-05
0.025024
3.8446e-06
-0.0318264
-0.0658992
-0.00990861
5.90489e-05
-0.000833345
1.6021e-07
-0.0116647
2.4601e-06
-0.000499109
0.0541229
0.00014014
-0.00013224
2.66294e-07
-0.0145598
1.76662e-06
0.112389
-0.01362
0.00216812
5.95128e-07
-0.0749339
-0.0468878
-0.0233565
0.00223997
-0.000430532
0.0017345
-0.0178661
-0.000482341
-0.00370501
-0.000133971
-0.0615021
-0.0159182
5.51717e-06
-0.000185539
-0.00564976
-0.0228775
-0.0360083
1.69596e-06
-0.0116792
3.79667e-08
-0.0123846
-0.00615268
-0.000200177
-0.000699206
-0.0211343
3.36079e-07
0.000990223
0.00554925
0.00573135
1.37655e-06
-2.95797e-06
-0.000152908
-0.0189802
-0.00699888
-0.000760988
-2.79968e-06
-0.00196064
-0.00668512
-0.0127032
-0.000735949
-0.0196177
-0.0475291
-0.000205026
-0.000500143
0.0510851
9.62618e-07
2.67681e-06
-0.0109919
-0.000818283
1.10423e-06
8.21636e-07
2.75651e-06
6.48113e-06
-0.000440013
2.7152e-06
-0.0204447
-0.000723916
-7.61902e-07
-0.0230348
-0.0244718
-3.84768e-06
-0.0367355
-0.0432444
-1.16753e-05
-4.23542e-06
-0.000785989
-0.0562718
0.0258838
-0.00164062
5.59853e-06
0.0103605
2.12549e-06
-0.00228804
-0.0352661
0.00250539
-8.91142e-05
0.038444
-0.0393923
0.000696256
-0.00122042
0.00057766
-0.00747942
-0.0194861
0.0122456
-1.81994e-05
-0.0129833
-0.177232
0.00349694
-0.0418919
-1.24237e-05
-0.00134173
-8.54937e-05
-0.0478685
0.00390156
6.55965e-06
-1.00354e-06
-0.000152477
-0.0019338
0.0345715
8.82498e-07
-0.0111353
-5.85069e-05
-0.000273913
-0.000103068
-0.0730373
-0.00624792
-0.00384921
-4.8431e-05
-0.000114408
-0.0249192
-3.89128e-06
-0.00408002
-0.000201258
-0.000773206
7.80683e-05
1.90056e-07
-8.70868e-07
-0.0300296
0.0443987
-0.0090574
0.0152875
-0.0250095
-3.14719e-05
-0.0146231
-0.00507461
-1.10782e-06
0.00508798
-0.0143593
-0.0347195
-0.000140588
-0.001365
-0.0144847
0.0360537
-0.00350274
-0.0478076
-2.89376e-05
-0.00797106
-0.0307611
-0.000332672
-0.0405633
-0.000381884
-0.0120088
-0.000474493
-0.000679024
-0.00789803
0.0159767
-1.28394e-06
-0.000183714
-0.00105562
-0.000483481
8.46192e-07
-0.000806434
-0.0120433
-7.96509e-07
-0.000832096
0.00150692
-8.36033e-05
-4.06922
-0.000794787
0.0304476
-0.000145269
-0.00133265
-0.0492424
-0.00333212
-0.000797712
-0.0518215
-0.056261
-0.0507353
5.44578e-07
-0.0188962
-0.000369268
8.71092e-06
-1.28389e-06
-0.0212185
-0.00920881
0.0408461
-0.000115268
-0.019594
-0.0120537
-0.00740047
6.73801e-07
-0.015265
0.00163815
0.0993395
-0.000148785
0.0236764
-6.09812e-07
4.57353e-06
-0.0590092
-0.0111683
-4.36866e-07
-9.94558e-05
-0.000854804
4.27122e-06
-0.00785657
-0.00180968
-0.00396171
-0.00019066
-2.88288e-05
-3.89738e-06
0.0342138
-6.63993e-07
-4.35313e-06
-0.0280281
-0.0110047
-7.95902e-05
-0.0123646
-1.37573e-06
3.02832e-06
-9.55416e-05
-0.0105535
-0.000764296
1.30191e-07
-4.16048e-05
-0.00590928
-7.26847e-05
0.0395605
2.81511e-06
-0.000272277
-0.0228651
-0.00100315
2.25438e-06
2.27014e-06
-0.000189999
-2.93873e-05
0.449176
-0.0278605
-0.000433672
0.0056434
-9.79809e-05
2.18529e-06
-0.0177397
-0.0139142
0.00049424
-1.31067e-06
-0.0206116
-0.000135653
-0.988997
-1.6921e-06
-0.000286544
-0.00730593
-0.000517067
-0.0181908
-0.01211
0.0357591
-2.43802e-05
-0.0584555
5.74481e-07
-0.0230588
-0.000798717
-0.0268382
-0.00036984
-4.43989e-05
-0.00254055
-0.00151628
5.06429e-06
-0.0140175
-0.0181658
0.0452022
0.007382
-0.0277256
-0.0166855
-0.00104008
-2.78322e-05
3.16912e-07
-0.0190945
-9.40036e-07
3.8238e-07
-4.55784e-05
-0.00835825
-0.000101749
-8.21677e-06
-0.00779922
-0.000700629
-1.72727e-06
0.0391706
8.90749e-07
-0.0162963
-0.0925925
2.29121e-06
-8.26033e-05
0.252217
0.00505202
1.06568e-06
0.0676416
0.0144881
-5.1649e-06
-0.00249411
0.00126138
-0.0186527
-2.31918e-05
-0.0277318
-0.0389656
-6.13527e-06
-0.0461208
-6.74501e-06
7.29164e-07
-0.0317906
-0.0115291
-0.000496924
-0.000745458
-8.94091e-07
-0.000979547
-0.0161373
-0.00677876
-8.87901e-06
-0.0158606
1.02735e-06
-7.83215e-06
-0.00083402
-0.00027248
-3.89213e-07
-3.74141e-05
-0.00229572
0.095835
-0.00388224
-8.6521e-05
4.10072e-07
-0.019451
1.01743e-06
0.00748342
-0.000269268
-0.000477148
-0.000412069
-0.02438
-0.0401496
-0.00016214
-0.0170768
-7.83868e-05
-0.00117266
-0.0232342
-0.0313012
-4.84224e-06
7.36091e-08
0.00498483
-0.00337759
-0.011818
-0.0010998
-1.06722
-0.000283073
-0.000453817
0.0739176
0.0393389
0.00754347
-0.0168232
-0.0152417
-0.0249174
-2.28403e-05
-0.0179742
0.0190822
1.99126e-06
-0.0703848
0.0102649
-0.000120318
-0.000822347
-2.45256e-06
-0.0179439
0.00151398
0.0979443
-1.01821e-06
3.3444e-06
1.12991e-05
-0.000685365
3.14808e-06
-0.00954012
3.41863e-06
-0.015907
-2.47593e-05
0.000205289
-1.18731e-06
-1.81249e-06
-5.42003e-05
-0.0177896
-0.00074384
-0.0114909
-0.000281407
3.67563e-06
-3.59237e-06
-0.000711198
-4.09047e-05
-0.00834543
-0.000115137
-0.000175267
-0.01709
1.48354e-07
-0.0458424
1.08483e-07
-0.00335465
-0.0142917
-0.0213695
0.00229202
0.0634831
-0.00743193
-0.142864
0.0076524
-9.9787e-06
0.0330099
-9.84123e-05
-0.000357187
0.0143074
0.0221009
-1.60071e-06
-0.0085052
-2.20299e-05
-0.0241874
-0.0276295
-9.77433e-06
0.000540102
-0.00471819
1.59485e-07
1.45716e-07
-0.00101961
-0.0697958
-0.0271922
-4.2711e-06
-0.0147848
-6.40883e-05
-1.26074e-06
-0.0180912
-0.0161553
0.00573583
3.98568e-07
0.00568479
-0.00123103
-0.00096662
-6.54725e-06
-2.42442e-05
0.0061001
2.1353e-05
0.00998198
-0.000856838
-0.000997114
-0.000847692
-0.199714
0.00154857
-0.018394
0.0589169
-0.00403739
-0.0273982
-0.000121593
-0.0317578
-0.0404658
-4.93418e-06
-0.000430388
-0.0116103
-0.000130832
2.62876e-06
2.69611e-06
-0.00150705
-0.0582469
-0.000277582
-0.0145784
4.00293e-06
-0.0270022
-0.0152564
-0.045171
-0.00791553
-0.000151728
-0.000101236
-0.0397252
0.0165746
-0.000319877
-0.0117069
-2.66166e-05
-0.565377
-0.00359601
-0.0165565
-0.000335761
-0.250996
-8.97124e-07
-1.10797e-08
-9.64211e-06
-1.3845e-06
-0.022837
6.42381e-06
-0.0160001
-0.019226
0.000741356
-0.00659319
-0.0396792
-0.0128048
0.256175
0.000452525
-2.76285e-06
-2.3548e-06
1.51223e-06
-3.055e-06
3.74343e-06
-0.000502995
0.00967336
-0.000474345
0.010191
-3.06224e-05
-0.020769
-3.8892e-07
0.0100946
-0.000369819
-1.10339e-06
3.98141e-07
-0.0208554
-0.000165336
-0.0213601
0.00936695
-0.000763638
-0.00233768
-5.85051e-06
-0.015758
-3.69445e-05
-0.000101433
-0.0174555
-1.68889e-06
-9.5062e-06
-7.77042e-06
-0.000779255
-0.051802
-0.000242411
-0.000359669
0.290353
-0.00843656
0.000130109
-7.16344e-05
-0.0242941
2.02217e-06
-0.0241657
2.30487e-06
-7.42026e-05
0.0321509
-0.0017755
-0.0254794
0.00481115
-0.000795768
6.62143e-06
-4.56314e-07
-0.00164671
-2.4694e-05
-1.9774e-06
-0.00029294
0.124061
4.60858e-06
0.24104
-0.337846
-0.0229612
0.00199296
0.0167971
7.63209e-06
-6.5075e-07
0.00821582
3.50649e-06
-0.000184741
-0.0181787
-0.0255151
0.0339589
-0.0247219
-1.20185e-05
-9.30733e-06
-0.00222279
-2.03209e-05
1.38416e-07
0.00219168
-0.0107284
-0.0372
-0.00229432
-0.00213014
-8.11137e-07
1.93328e-06
-0.0253142
-0.00447874
-8.67132e-05
-1.145e-06
-0.0199725
0.0254882
-0.0137527
-4.27864e-06
2.10379e-06
-0.0731847
-6.18258e-06
-0.000396441
4.09903e-06
-0.00847592
4.84583e-06
-0.0135346
-3.60127e-08
0.00664963
-0.000588216
-0.00257132
-0.000353302
-3.41563e-07
-0.000103199
4.40209e-06
-0.0168475
-7.79382e-06
-0.0299213
-2.88718e-05
-0.00796724
-0.0178638
-0.000311032
5.96509e-06
0.00781616
-0.0269291
-0.000176401
-0.00152213
-2.16628e-06
-0.0584004
-5.47742e-06
-0.0175095
1.93641e-06
4.35016e-06
-0.0213743
-0.000426097
2.17007e-06
-0.000438053
-0.0156141
-0.0100939
-0.00533594
2.13606e-06
-0.0265466
1.23866e-06
4.51705e-06
-3.01083e-06
-7.77669e-07
3.64538e-07
-0.00200048
-0.016557
-1.69991e-05
3.47547e-06
-0.000505907
5.31864e-07
0.0135046
0.0174675
-0.0296507
-0.00649377
-0.000101039
0.00860848
1.87355e-06
-0.000662478
0.00242918
-1.09038e-05
1.48704e-06
-0.443557
-0.0306354
-0.00121454
-0.0363055
-0.00116625
2.70049e-07
-0.000494115
-0.00168494
-0.0218354
-0.000417979
-0.0192986
-0.000795855
1.12931e-06
0.126603
0.118834
-0.0374879
0.0248761
-0.0323614
-2.8125e-05
0.00159988
-9.4256e-06
-0.00323081
-0.000114589
6.49742e-06
-0.00507358
-2.70722e-05
5.34791e-06
-4.81048e-06
-2.16472e-05
-0.00985355
-0.0116245
2.98494e-06
-0.000521652
-0.053055
-3.53983e-05
-0.0377216
-1.23708e-05
-0.00437315
-0.0114592
3.30195e-06
-0.0137419
-0.000139762
-0.000318701
-0.0456747
-2.65035e-05
-0.242864
-0.00075471
-0.0140187
-2.40828e-05
-0.0343417
-0.000318109
-0.0280107
-0.0307406
-0.0493775
-0.000768102
-8.06376e-07
-1.20876e-05
1.24151e-07
-0.000622134
-1.67961e-07
-0.0177726
-8.64781e-05
-5.77646e-05
0.000108427
-2.75002e-05
2.25528e-06
-0.000236806
-0.000146109
-8.26015e-05
-0.000104289
0.00217302
-0.0168498
-0.000308173
-0.000597938
-0.00360192
-8.22433e-06
-7.05108e-05
2.45243e-06
-0.000101209
-7.69979e-06
-2.99857e-06
-0.000260496
2.3847e-06
3.21601e-06
0.00729293
-1.16009e-06
0.130994
-3.42935e-05
-0.076355
0.00518706
-0.0315901
-0.157603
-1.52239e-05
-0.00827437
-0.128165
7.30908e-07
-0.00013801
-7.01925e-06
0.000781592
-1.20453e-05
0.00274892
0.00398112
0.000776845
-0.00321405
-1.25343e-05
-0.0237687
0.00268377
-0.0319606
-0.000152997
3.67206e-06
-9.17222e-06
-0.00159959
-7.60817e-07
-0.04929
-0.00940286
2.73048e-07
-0.00519893
-0.395105
-6.5763e-06
0.00376967
-0.0161473
-0.0135807
-3.24827e-05
-0.0243214
-0.000580188
3.54834e-06
-0.0530685
-5.74442e-05
-5.16671e-06
1.51805e-06
-0.00043967
-0.000631722
-0.0199411
0.00998484
-0.000676177
-0.0207741
-0.000479099
3.10419e-08
0.00423685
2.81098e-06
-0.0753047
-7.05072e-06
4.23278e-06
-3.78371e-05
-2.39913e-05
-0.0201657
-0.0480712
-0.0110365
-0.0396079
0.0247749
-4.10323e-05
-7.49829e-07
-3.37398e-05
-0.110579
-9.08653e-06
1.008e-06
-0.000386131
0.0365534
-0.0158948
1.11752e-06
-0.000240621
-0.000360599
-0.0200761
-0.0449196
-4.98776e-06
-2.34293e-06
-8.65305e-05
0.0363017
-0.000311343
-0.0158677
-2.43765e-05
2.14164e-06
-5.2109e-06
1.23993e-06
-5.38218e-05
-0.0142276
-0.0255708
-0.0210478
0.000953639
2.00542e-06
-0.447947
-3.01511e-05
0.0264865
-0.0291429
-0.000244346
-0.0110645
-0.0227714
0.00804211
-0.00104177
-0.000409101
-0.0232767
-0.000342484
0.000229499
0.00522108
-0.367066
-2.24785e-05
-0.0710306
-6.38715e-08
-0.0197906
0.0392856
2.56518e-06
-2.51237e-05
-0.000190741
-0.32078
-0.000427197
2.9002e-06
-0.00026801
-8.26883e-06
-0.000181725
0.00796847
1.0909e-08
-0.0264908
-0.0584683
-3.58537e-07
-0.000375378
-0.000651528
1.94e-06
-0.0248194
-0.205424
-0.00778974
-0.0250663
2.45158e-06
-6.45812e-05
-0.000126658
-4.69962e-06
-0.0110448
-0.000437385
1.13898e-05
-0.00131435
-8.80319e-05
-0.0108186
-0.000593763
-0.0639255
-7.92559e-06
-3.32509e-05
-0.00341677
-0.000439711
-0.00302875
6.07963e-07
-0.162492
-0.0257469
0.0544583
-0.014801
-0.0197076
-0.0208486
-0.0310231
8.52883e-07
8.39438e-07
-1.79649e-05
-0.0116676
-0.000775127
-0.00189841
-0.0172689
-3.09754e-05
3.49108e-06
-8.06921e-07
-0.0110174
2.54372e-07
-0.000209203
-3.37924e-05
-0.0257165
-1.36802e-05
3.74026e-06
1.31339e-06
-3.51103e-07
3.16548e-06
-7.38577e-05
-0.010882
0.00039035
-0.00451797
8.42474e-07
8.26132e-07
-0.0166669
-0.0179052
-0.0648163
-0.025272
0.00189987
-0.027685
3.97401e-06
-0.00307868
-3.29332e-05
1.77379e-07
-0.000128397
-0.0101867
-5.56749e-05
-0.0046804
-0.00337122
-2.60149e-05
-1.76781e-06
-3.08033e-05
-0.01341
-3.41475e-07
-0.0260122
-1.12377e-05
-0.0105419
-1.10361e-06
-1.64618e-05
-0.000183007
-0.000479021
-2.21551e-06
-0.0135681
-0.00262157
-0.0101355
-0.0163147
-7.46377e-07
-0.0191777
-0.00381319
7.69818e-07
0.0383697
-4.76324e-06
-0.00122313
-2.89424e-06
-2.57841e-05
4.32406e-06
-2.20623e-06
-1.32469e-05
0.000149038
-0.00134024
-1.40685e-05
-1.25131e-06
-0.00329493
-2.48783e-06
0.0460222
3.65071e-07
-0.000370301
-0.000478729
-0.0363219
0.00980538
4.67855e-07
-0.0124685
4.21867e-06
-0.00038165
-0.00793216
-0.0251987
-0.000839498
-1.61254e-07
0.00291002
0.000626858
-0.000737705
0.00566821
0.0011778
-0.0119417
-0.000980708
-0.0015844
-1.36166e-05
-1.41452e-06
-0.0214921
0.00214596
-7.55373e-05
3.49269e-06
-0.0219613
3.60977e-06
-0.000623733
2.76489e-06
-0.00254607
0.0547499
-1.50115e-06
-0.0134046
-0.000158332
2.0112e-06
-0.0111312
6.35132e-06
0.00211687
-0.0240737
-0.00051741
-0.0222735
4.64462e-06
2.40605e-07
-0.00555043
3.38956e-07
-2.78117e-06
-0.000265681
-0.00028795
-0.000793516
0.00921306
-2.20453e-06
-0.00024115
-3.21526e-07
2.25198e-06
3.01485e-07
7.12591e-07
-0.393764
-7.67678e-06
-1.13291e-05
-0.0120847
3.67109e-06
3.81097e-06
-0.0229498
2.11395e-06
-0.0650242
-6.29374e-05
-0.0199288
-0.00692315
-0.00189748
-0.0295889
-0.00119826
-0.0365552
-2.52179e-05
-0.0101632
-0.000140102
-1.21793e-06
1.51642e-06
-1.28987e-05
-0.000354977
-1.2008e-07
-0.000482986
3.9131e-06
-3.45405e-05
-0.0309641
-0.0343175
-0.0613219
-0.000118383
0.00293912
-0.0298146
0.0357556
5.50634e-07
-0.000197264
-0.0492051
-1.74725e-05
-0.000387173
-0.0123886
-0.0209469
-0.000238151
-0.00071548
-1.87214e-05
-0.158258
-1.01566e-06
0.00181413
0.0209874
-3.15329e-06
3.07386e-06
0.048024
-0.000479436
-0.0116449
-0.0157549
0.000920234
-6.24675e-06
3.95323e-06
-1.92477e-05
-0.0120633
0.0155982
-0.000605641
-0.000762469
-1.17835e-06
-0.0221161
4.23567e-07
-0.0243211
-8.86733e-05
-7.58278e-05
-0.000640138
1.76182e-06
0.00704339
0.0250301
-7.16893e-06
-0.00111475
-0.000784073
-0.0624043
-0.000546533
-0.0012723
-0.0114527
-0.000477981
-0.0165575
-0.00101448
-4.62966e-07
-0.000522773
-3.95037e-05
-0.0272323
2.45292e-06
-0.0188177
-0.000583286
-0.00121238
-3.08908e-07
0.0242531
-0.000182878
-2.29837e-05
7.6982e-07
-0.000286716
-0.000282749
0.000325164
5.05094e-06
-1.61264e-05
-0.000186363
-0.0529588
-0.00065028
8.67869e-08
-7.03019e-06
-0.000523197
-0.163734
9.68952e-07
-0.0049638
0.0369259
2.16962e-06
-0.0218706
-0.000640652
-0.0435065
-0.306968
3.8249e-07
0.00501747
1.75689e-06
-6.72459e-05
-0.000439985
-0.000439652
-1.45009e-05
-0.000795937
-0.000381112
-0.000264391
-0.000283598
-3.61268e-05
3.9685e-06
-0.00813068
-0.000154328
9.62113e-05
0.00728959
-9.87399e-05
-0.000125778
2.50272e-06
-0.0304485
0.0072249
-2.74544e-06
-0.000114563
-1.02794e-05
-0.0544367
-0.0261647
-0.000441418
-0.023291
0.00218161
-1.39441
-0.00698165
-0.0145877
3.44725e-06
0.0435212
9.50798e-07
7.64737e-05
0.0520012
-0.0250257
-0.0575336
-0.331861
-6.27583e-07
-0.0673779
3.18975e-06
4.22822e-05
-5.36239e-05
-0.02945
-0.00361483
-0.000192673
5.15476e-06
-0.0857845
-0.00433348
1.76691e-06
-0.00888692
-1.74539e-06
-2.4171e-05
-0.000154116
-3.57754e-06
-0.000253294
-8.51708e-06
-1.2255e-06
-0.000174014
0.0851551
-0.000600927
-0.000638729
2.36064e-06
-0.0367047
-0.0256687
5.35333e-06
-0.0120924
-5.30682e-05
-1.34638e-05
-0.00740034
4.73073e-06
-1.11409e-05
-0.000141403
-0.0198246
1.93393e-06
2.04388e-06
-0.000490146
-0.0325541
5.15156e-06
-0.000199749
-0.000126726
0.00547451
-0.000513578
-0.000470041
-0.00635803
-1.69105e-06
-0.0055521
3.32198e-06
-0.0538474
-0.000220889
-8.03128e-07
-0.000236377
0.0102823
2.53338e-06
-1.62089e-05
-0.025426
-0.0272781
-2.90527e-05
-0.0578318
1.55586e-06
2.98866e-06
-0.00186695
2.81039e-06
-7.37496e-06
0.0145267
-5.05427e-07
-0.000572263
-0.0101519
0.000678848
0.00326681
-8.9777e-06
-3.97297e-05
-2.14899e-05
3.24602e-06
-6.01721e-07
1.47714e-06
-0.0286914
7.6586e-07
-0.0168109
-0.00389951
3.01019e-06
-2.50201e-06
-0.000273764
-0.00254784
-0.0122696
5.26832e-05
-0.00102889
-3.75391e-05
-0.0206909
-0.000880659
-0.00037932
-0.000645575
0.0016286
0.00223358
0.0842477
-0.000585137
-0.0279106
-0.00684213
0.0244699
-0.000117461
-1.10958e-06
-0.000364105
-0.00102605
-3.81897e-06
-2.76337e-05
-0.00374073
9.77125e-07
-1.28561e-05
2.16893e-06
4.55186e-07
-8.08601e-05
-1.11481e-05
-0.0170281
5.45394e-06
0.0409939
2.96205e-06
-0.00525219
-2.37314e-05
-0.00686053
0.00247713
-1.16243e-06
-0.0174657
-2.72575e-05
5.25942e-07
-0.000532353
-7.29832e-07
-4.22931e-05
-8.61126e-06
-0.0262636
-5.31299e-05
-0.000548006
0.0058484
-0.0179052
-7.91082e-05
-0.0179839
0.00696248
-0.000841379
-1.48467e-05
-4.46854e-05
-0.00736257
-0.000935431
-0.0305909
7.91554e-07
0.0163953
-4.17533e-06
-0.00723995
0.0441208
-0.000266409
-0.0310688
-6.71708e-05
-0.000385772
-4.54942e-05
0.0213007
-0.000233956
3.59148e-06
-0.000741483
-0.0256168
-4.17485e-05
8.10795e-07
2.92672e-06
-0.00473352
-1.55215e-08
-7.3798e-05
-0.0167812
-4.97375e-05
4.29048e-07
-0.000385789
-6.64577e-05
-0.0144815
2.98351e-06
2.64904e-07
4.13994e-06
-0.000132638
-2.39376e-05
-1.50354e-05
-0.0011348
-0.0175203
8.57246e-07
-8.01849e-07
0.000297829
-2.5416e-05
-0.0119671
-9.8888e-05
0.0196333
6.87948e-07
-3.81999e-05
3.98807e-06
-0.0294392
-0.0166156
-0.000127058
-0.00181839
0.000965644
-1.12575e-08
-1.18303e-06
-0.0264235
3.62058e-06
-0.00468479
1.51781e-06
-0.000689183
1.02729e-07
-0.00297023
3.99708e-06
-0.000743055
4.62512e-06
-0.00103796
-0.247384
-2.03204e-07
-0.000397597
0.0170653
-0.000946008
-0.0252601
-0.0300579
0.00175187
-7.55065e-06
-0.000381338
0.00347093
0.00886328
-2.62704e-05
-0.000599029
-4.9082e-05
-1.88402e-06
-0.0295705
0.0394243
-0.00104654
-0.0778651
-0.202815
-0.000166096
-0.0199602
-3.99922e-06
3.09035e-07
0.00512057
0.0337231
-0.251996
-0.0533686
0.000846947
4.29486e-06
0.0247192
-0.0281373
0.051892
1.72739e-06
-0.0209253
0.0113657
-0.313355
-0.544566
-0.0221789
-2.32804e-05
-0.00024941
-0.0119935
-2.08819e-06
-4.84227e-07
-0.00252946
0.00930534
2.28836e-06
-0.0374321
1.134e-06
3.79895e-05
-0.000655334
-4.47513e-05
0.0185006
0.000250727
-0.00233829
-0.000733826
-0.000589964
-0.00534946
-0.00885659
-0.0118492
-2.30464e-06
-2.61356e-05
-0.00103069
-0.00312118
4.31562e-06
-0.000588616
1.15129e-05
-0.0120957
9.45364e-08
-0.0684188
-4.11849e-05
-0.000349987
-0.0263589
-0.0177269
-8.49189e-06
0.00153877
-0.0104374
-3.52132e-06
-1.95888e-05
0.0445824
-0.416029
-7.26402e-05
-0.000100234
2.01204e-06
-0.00811353
-0.000161582
-0.0237105
-0.0075255
-7.57795e-06
1.61633e-06
0.00121678
-9.68211e-05
-0.00277866
-0.0297947
1.69545e-06
1.82651e-06
-0.000148311
1.52395e-06
-8.2354e-05
-2.25482e-05
-3.12279e-05
-2.67175e-05
1.00549e-06
-4.61638e-05
-4.00623e-06
-0.000824661
0.00899476
2.14309e-07
-0.00650972
-0.033181
3.16359e-06
-0.00702926
-0.0236755
-0.0127083
-1.04397e-05
0.000340916
-0.000199565
-0.00044318
-0.000306254
-3.88881e-05
1.61236e-06
-0.0272968
-0.000269905
-0.0237051
-9.57585e-06
-3.2091e-07
2.64403e-06
0.00331793
1.31826e-06
-0.000797084
-0.00126847
-0.0166203
2.95252e-06
-0.0032965
0.0428703
-0.02397
3.51891e-06
-0.00209785
-0.0127655
0.0355844
0.02991
-7.03611e-06
-9.44952e-06
-0.00983929
-0.00056844
-0.0217061
-0.000584838
-0.012552
1.75856e-06
-2.90112e-06
-0.0002778
9.61697e-07
-1.32629e-06
0.00895177
5.31762e-09
-0.00765718
7.64348e-07
-0.0108835
-0.0107602
-0.00978511
-0.0262097
-0.0267218
-2.31847e-06
6.21644e-07
0.016643
8.82514e-08
-3.23369e-07
2.77277e-06
0.02988
-0.0147499
-0.0258527
-5.61865e-05
-2.65164e-05
-3.26447e-05
-0.000114916
-0.0519707
4.17699e-06
-0.0292399
-0.00973454
1.24481e-06
6.5072e-07
-0.0273639
-0.00396398
-7.28988e-05
7.81914e-07
-0.00420577
-0.0227288
-7.86933e-06
-0.0104316
3.70725e-09
-0.0228305
-0.0109101
-8.85753e-05
0.045856
-0.0170255
0.000626052
8.71987e-07
-2.64831e-05
3.95859e-07
1.45874e-06
-0.0173113
5.73127e-07
0.13186
-0.0147343
-0.033864
-3.37816e-05
-0.000773144
0.000499215
-0.000672964
0.0166182
-0.00242582
2.79421e-06
-0.000156852
-0.000160805
0.012489
-0.0216167
2.6188e-07
-0.0507121
-8.61529e-05
-0.000708306
-1.05321e-05
5.09311e-06
-0.312407
-0.000380335
0.0119523
1.0821e-06
-0.000547166
-2.61794e-05
-0.012163
-9.91746e-05
-0.017967
-0.00518034
0.11355
0.00232656
4.19198e-07
-3.6434e-05
-0.00011111
-0.0139753
-0.0197607
0.0148283
2.68416e-06
-0.0279362
-0.00295044
-0.00358136
-0.000218986
-0.000471123
-0.000444717
-9.98157e-06
-0.00186379
2.03012e-06
-0.000404841
-0.0254635
-0.0119259
-0.111136
-0.0148831
-7.37501e-05
-0.000816367
-9.4001e-07
-0.00992844
-7.88574e-05
0.0346583
-1.80436e-06
-0.0151102
-1.42213e-06
2.57684e-06
-0.000377064
-0.000281425
-7.38355e-05
-1.02865e-06
-0.0261237
-0.000731032
1.65473e-06
-0.000292795
-0.0283266
-0.317314
-4.74148e-07
0.000745756
-6.01246e-05
-0.00048053
-0.00043365
4.00421e-06
-0.000877681
2.47377e-06
0.061609
-0.00295163
-0.000223877
9.25447e-07
0.176825
-0.000504182
-1.67612e-06
-0.00701456
0.0173891
-0.0069185
-7.40939e-06
0.0037077
3.85071e-07
-0.0224071
-0.000244738
-0.000762397
0.0227544
-0.0261568
-0.00102098
-0.0151513
-0.000257726
-0.000141424
2.64233e-06
-0.0112545
0.000554185
-0.00689923
-0.00296058
1.04561e-06
-0.0315068
0.0173596
-0.00640113
-0.0118408
0.00994008
-0.0264885
0.0388229
-0.0178608
-0.000108024
-0.000444219
8.48461e-07
-9.72119e-06
3.82447e-07
-0.0384925
-8.9105e-05
3.38089e-05
-0.00141224
1.87152e-06
4.40996e-06
-0.000670175
-0.0200438
-0.000234804
4.78069e-06
-0.0113069
-8.0112e-05
-0.000791223
-5.46427e-06
-0.0136335
-3.60864e-05
-0.00280133
0.000188205
-0.000391962
-0.00108443
7.50514e-07
-0.00360368
-0.000146936
-0.000195043
-2.45548e-06
5.98919e-06
-0.057284
-2.40564e-06
-0.023138
-5.50654e-06
-0.0017155
-0.00101908
-1.18517e-05
3.61163e-06
-4.55244e-06
-0.0153798
-0.00125824
-0.000177324
-0.000239086
-0.000185474
-0.019184
-0.00238007
-0.00474206
-0.000204276
-0.00039566
-2.65174e-07
-0.0181864
-0.000519715
1.75513e-07
-0.027493
-0.00253737
-0.0164072
-0.0280122
0.00660222
0.0406154
0.0138039
-8.45691e-06
-7.13579e-06
0.00577522
-0.0252195
0.0326785
-2.705e-06
-0.000560725
-1.14367e-06
1.17007e-06
-0.0309998
-0.0110894
-0.00100849
2.60642e-06
-0.00953212
-0.00587658
-0.000701263
-0.0313534
0.0344307
-0.0124577
6.019e-06
-0.0180622
-0.0279719
-0.583246
-0.000432497
-0.000591192
-3.73595e-06
3.0443e-06
-0.000424656
-0.000574875
-5.7562e-05
-0.000638303
-0.000238855
-5.33064e-05
-0.0107156
-0.0279933
-0.000361777
-0.000692341
-0.0246441
-0.0102535
-6.6908e-07
-0.020635
-0.000615419
-0.0335128
-0.000431751
-1.25587e-05
-0.000286314
-0.000128862
-7.05335e-05
3.64387e-06
-0.000285317
-0.000393476
-0.0007672
-0.250329
1.04233e-06
-3.25408e-05
-0.0258878
-0.0247354
-0.00913074
0.00124338
0.000847763
-1.02846e-06
-1.16172e-06
-0.00029443
-7.41182e-07
0.013879
-5.64219e-07
-3.06086e-07
2.10196e-06
-0.0272782
-0.0830999
-6.19102e-06
-0.00137652
-0.000141974
-4.34147e-05
-0.000263734
3.09383e-05
-0.000596612
-0.000333872
-0.00411499
-0.000178331
-0.0264388
-0.000338542
-0.00832429
-0.000230032
6.08781e-06
2.90378e-06
-0.00371878
-0.0190717
4.35035e-06
-0.00104316
-0.000235095
-0.000766865
-0.0269109
0.048743
-0.0155841
-4.00572e-07
0.0146902
-9.99753e-05
-0.000216189
6.47488e-07
-0.000860015
-3.56985e-05
-0.0280553
-0.034513
-0.000271466
3.78804e-07
-0.0253286
1.35914e-05
-0.0348415
-0.027589
-0.0113778
-4.93801e-05
-0.0231984
-0.0177676
0.0137507
-0.0206836
-0.000973092
-4.03695e-06
-0.000326232
-6.21608e-06
0.0497204
-4.90481e-05
-0.000256705
-0.010156
-0.00708926
-2.60382e-06
5.83521e-08
-0.00765468
-0.00043906
0.0388723
0.00107491
6.56261e-07
-0.000495788
-0.00842475
0.00181803
-0.0259524
-0.000218836
0.0113483
-0.0001003
-3.07673e-07
4.07475e-07
0.0886361
-6.68751e-06
-0.0245329
-8.33776e-07
-4.45486e-06
-0.205493
-0.000191408
-9.96519e-06
2.51379e-06
-0.00024054
0.00852866
-0.000696764
-0.000446948
-2.56994e-05
-0.000690392
-1.4991e-06
-0.0383331
-0.000286926
-0.000596813
0.00545908
-0.000263792
0.00309985
-0.00229025
-5.43458e-06
-0.0018919
0.040409
-0.0239094
-1.54823e-05
-0.0333951
-0.0309995
7.44618e-07
-6.06632e-06
-0.00187587
-0.029504
-0.000200577
-0.0298225
-0.140423
-1.38161e-05
-0.00419662
7.74398e-07
-0.0001623
-0.00134299
0.0658336
0.00262784
-0.0136071
-0.00191722
-0.0284031
-0.0202709
-7.54955e-05
-0.0228856
-2.72816e-07
-0.0295035
-0.021802
1.07922e-06
4.2629e-06
-0.0248165
-3.07279e-06
4.7743e-07
-0.00541107
-0.0210133
-0.0880077
-0.000190887
-0.0248889
4.78269e-06
-0.0254562
-0.0258856
1.69991e-06
-0.010788
0.0519873
-0.0206917
-0.0246697
-0.0245892
-0.0262962
3.14378e-06
-5.99567e-06
-0.000613625
-0.00103749
3.43421e-07
-0.0102309
2.56805e-07
-0.0240903
-0.00832383
0.000381104
-0.0118572
-0.0238972
-0.0094004
-0.0107748
-0.00328002
-0.0201133
-0.902017
-0.000147988
2.92203e-06
-0.0280989
-0.000111992
8.67674e-07
0.0204221
1.07363e-06
-0.0272597
-3.01386e-06
-0.0137108
-0.000162429
1.02989e-06
-0.139352
-2.63992e-05
0.000295374
-0.02695
0.0224745
1.70024
-0.000256474
-0.000766579
-1.67578e-05
-0.000611228
-0.00315831
-0.000633559
-3.27845e-06
0.0596169
-0.000825374
-0.000143002
-0.0306038
-0.000558612
-0.000178014
-0.0522839
-0.00225285
-0.000745457
1.40487e-06
0.0398729
2.72903e-06
-0.0228505
-0.0171343
-0.0257817
4.3245e-06
-0.000403521
-0.00110876
-6.3505e-05
-0.000672715
-0.000392014
-0.000473237
0.00249665
-0.00142435
-1.61675e-05
0.0122722
4.00197e-06
-0.025941
1.88868e-06
-4.3735e-05
-0.00393906
-0.02375
-0.000150316
0.00758262
-0.0374683
-0.000394126
-1.46421e-05
-0.000797534
-0.000543759
-0.00352754
-1.08804e-05
1.49996
-0.0322465
-0.000396102
-0.000273351
-0.00470811
-0.000320126
-0.00183835
-0.00143981
0.000773339
-8.15937e-05
-2.65879e-05
-0.25703
-1.51677e-07
-0.000220488
2.22036e-06
0.00733804
-0.000242343
-0.000954105
-0.0253575
-2.56343e-06
-0.145724
6.66626e-07
-2.79643e-06
1.49184e-06
4.51434e-06
-0.000212401
3.13033e-06
-0.00300007
-0.0476872
-0.00130335
-0.000683087
-0.00014353
-5.37109e-06
-0.0163524
-1.12097e-06
-0.0172981
-0.00539552
-0.00896316
-0.0113814
-0.000208028
-0.000232707
7.73391e-07
-0.000238134
-0.0052435
-0.00040638
-0.0205582
-0.0010612
0.00493123
-0.00525766
1.36089e-06
4.421e-06
-0.0244824
4.2271e-08
-0.000315605
0.00579994
-0.139957
-7.06756e-05
-0.0165646
7.16724e-07
-9.33717e-05
-1.80701e-06
-8.79288e-06
0.000718779
0.00617303
-1.0763e-05
-0.000436794
-0.00634394
-0.000729895
-0.000998816
0.0221506
-0.00852027
-0.00621263
0.0108894
-0.00019401
-3.12439e-05
-0.00111095
-0.0246609
0.0134344
-0.0238257
-0.000413072
0.0224986
0.00144233
-3.74833e-05
2.90325e-06
-0.00127597
1.12888e-06
-0.000440208
-0.0121215
1.58961e-06
-1.8637e-06
-0.189155
-0.0323097
-0.000789772
-0.17813
-2.18175e-06
-0.0462866
-0.000395939
-0.0084479
0.000344222
-1.82937e-06
-0.0248653
-0.00120397
-4.78095e-07
0.00017273
-1.61527e-07
0.0152746
-0.000207861
0.00116145
0.0208957
-0.000247038
-0.00498377
2.63686e-06
0.00761933
-2.2066e-06
-0.000139813
-1.54197e-05
-0.000520566
2.76388e-06
-0.000164337
-0.0252736
0.572106
-0.000671116
-0.000138113
-0.00741694
-1.44368e-06
2.87316e-06
-5.50713e-05
-0.012186
-0.000149442
-0.0118285
-0.0346204
0.0141409
4.86847e-07
-0.000739273
-0.0401472
-0.0160089
-0.000189672
-0.0262701
1.90509e-07
-5.39386e-07
7.55947e-07
0.0361052
-9.51147e-06
9.70214e-08
-0.0242549
1.37186e-06
0.0109905
0.00147673
-6.88224e-06
-0.0194858
-0.000273874
-0.0136407
-3.0163e-06
0.000797188
-2.69728e-05
0.00371085
0.0637456
-0.00158857
1.73985e-06
-0.000243935
-0.0154625
-0.000438575
-0.0194941
-0.000346371
-0.000114954