/*--------------------------------*- C++ -*----------------------------------*\
| =========                 |                                                 |
| \\      /  F ield         | OpenFOAM: The Open Source CFD Toolbox           |
|  \\    /   O peration     | Version:  v2012                                 |
|   \\  /    A nd           | Website:  www.openfoam.com                      |
|    \\/     M anipulation  |                                                 |
\*---------------------------------------------------------------------------*/
FoamFile
{
    version     2.0;
    format      ascii;
    class       volVectorField;
    location    "700";
    object      U_0;
}
// * * * * * * * * * * * * * * * * * * * * * * * * * * * * * * * * * * * * * //

dimensions      [0 1 -1 0 0 0 0];


internalField   nonuniform List<vector> 
13851
(
(1.27928 0.000103898 5.75616e-22)
(1.11871 -0.0520856 1.55542e-20)
(1.11666 -0.0500125 0)
(-0.184386 -0.00938983 1.13194e-19)
(1.00328 -0.00073059 -2.21164e-21)
(1.12805 -0.0763465 0)
(1.11557 0.0147206 0)
(1.0222 -0.00136462 0)
(-0.143037 0.00393541 4.78904e-20)
(0.99136 -0.0195879 5.74353e-21)
(1.20449 -0.180747 -1.07423e-19)
(1.00271 -0.0140742 -1.74138e-21)
(0.981705 -0.0388164 1.22767e-20)
(-0.25474 -0.00752045 8.35705e-20)
(1.1887 -0.0183777 6.12908e-20)
(1.11359 0.0828115 8.16404e-21)
(-0.287784 -0.0112174 0)
(1.05905 -0.0346879 1.32868e-20)
(0.887488 -0.0212834 -5.1916e-20)
(1.27874 -0.0030448 -2.49458e-20)
(1.20165 -0.0353296 -6.99712e-22)
(1.05694 -0.134859 1.29292e-20)
(0.250901 -0.154203 -6.88035e-20)
(1.00012 -0.000336571 3.51734e-23)
(0.416352 -0.0321362 -1.58769e-20)
(1.20673 0.0576652 0)
(0.547131 0.0526339 -1.55627e-19)
(0.335955 0.0155693 1.12402e-22)
(-0.0847575 0.0107329 0)
(1.03448 -0.020963 4.96907e-21)
(-0.151471 -0.0184539 7.41732e-20)
(1.11541 0.0133273 1.01854e-20)
(1.27316 0.00989082 -1.14168e-19)
(-0.0883806 0.00849332 -9.64498e-21)
(1.17376 -0.152052 -7.37896e-21)
(-0.066981 0.0129831 7.57382e-21)
(1.00007 -0.00030246 1.3087e-22)
(0.531991 -0.0992413 -5.82918e-20)
(-0.159317 -0.00809554 0)
(1.0154 -0.0604346 -4.53421e-22)
(-0.141672 0.00128129 0)
(-0.0643223 0.0130615 2.32942e-22)
(-0.193459 -0.00583338 -7.42735e-21)
(1.07645 -0.545417 0)
(-0.0549353 0.0141451 6.78516e-20)
(1.02494 -0.0370642 2.60147e-21)
(1.03277 5.79667e-05 0)
(1.21014 0.067622 0)
(1.07024 -0.0916825 -5.39923e-21)
(0.981162 -0.0376748 -1.40921e-20)
(-0.307595 -0.0102688 -2.01072e-19)
(0.973044 -0.0327504 0)
(1.14406 0.0812917 -3.02874e-20)
(1.15617 0.0238448 0)
(-0.23749 -0.00755952 0)
(1.01407 -0.0608345 -8.4688e-22)
(1.27561 0.00890479 1.45226e-19)
(-0.154626 -0.000898777 -6.64215e-21)
(0.499446 0.0596065 2.23419e-20)
(-0.280399 -0.00754167 0)
(1.00248 -0.0132943 -1.5019e-21)
(0.612347 0.0550992 -4.89128e-20)
(0.995338 -0.0104328 8.38441e-21)
(1.07039 -0.0948608 2.24903e-20)
(0.85883 -0.49996 1.68182e-20)
(0.839069 -0.518906 -2.84655e-22)
(-0.293772 -0.00906367 2.56988e-20)
(0.686537 -0.163162 -8.64102e-20)
(1.03467 -0.0629912 5.91938e-21)
(-0.1696 -0.0121302 1.04129e-19)
(-0.194786 -0.0141103 -8.67707e-20)
(1.2181 -0.0375588 0)
(0.997522 -0.0446887 -3.65886e-21)
(-0.287145 -0.00819502 0)
(1.16681 0.013737 -4.25021e-21)
(1.03505 -0.109978 0)
(-0.274399 -0.0134039 0)
(1.03629 -0.0110337 -3.88845e-21)
(0.478732 -0.0349247 1.89176e-20)
(1.00986 -0.029587 -9.08641e-23)
(1.03646 -0.0639996 -6.48478e-21)
(1.29252 -0.19882 0)
(1.16872 -0.15285 2.29606e-20)
(-0.255905 -0.00790602 -1.03013e-19)
(-0.275775 -0.00775526 -1.71928e-20)
(-0.166506 -0.0167373 0)
(1.06091 -0.136977 -1.42827e-20)
(-0.209106 -0.00831232 -3.05706e-20)
(0.992704 -0.024727 -1.3503e-20)
(-0.148871 -0.017567 -8.79144e-20)
(0.971577 -0.0322987 0)
(1.11772 0.0121537 -4.654e-20)
(-0.234154 -0.00942994 -1.03626e-19)
(-0.181834 -0.0158342 -9.97815e-25)
(-0.196859 -0.00710641 3.03728e-20)
(1.06642 -0.507482 0)
(1.01785 -0.0394198 4.58922e-22)
(1.13897 0.0762956 -5.54842e-20)
(-0.303981 -0.0105899 2.40451e-20)
(1.23431 -0.290683 0)
(1.09735 0.0754358 -1.76514e-20)
(0.804505 -0.156472 3.75343e-20)
(0.804297 -0.191023 0)
(0.993016 -0.047948 0)
(1.0305 -0.0368816 -8.56393e-21)
(1.21342 -0.0602615 -1.45011e-20)
(1.02935 -0.0363939 -6.86627e-21)
(-0.183832 -0.015268 9.20226e-20)
(1.11737 0.0105881 4.47322e-20)
(1.0575 -0.0336425 0)
(1.03822 -0.179718 5.47593e-21)
(1.02616 -0.0377731 8.72672e-21)
(1.29872 -0.120167 -1.03464e-19)
(1.22806 -0.122261 -4.97055e-20)
(1.26622 0.0297546 -3.47859e-20)
(1.15378 0.0218371 0)
(1.02397 -0.0137689 7.44845e-21)
(1.02317 -0.00159982 -4.62837e-21)
(-0.193163 -0.0086105 -6.90471e-20)
(-0.150353 -0.0139425 -4.26101e-20)
(1.10274 -0.436581 7.00379e-20)
(1.04801 -0.028038 0)
(1.02782 -0.0634907 2.66132e-21)
(-0.213687 -0.00369459 0)
(1.00193 -0.0157758 -1.29529e-19)
(0.606853 -0.245344 1.00347e-19)
(1.01851 -0.0389545 -2.52715e-21)
(1.15385 -0.225185 0)
(-0.14633 0.00309286 -5.07158e-20)
(1.21025 -0.0191396 -7.3987e-21)
(1.0525 -0.136786 0)
(1.14074 -0.118335 -6.33964e-21)
(0.669745 -0.126537 -2.44386e-22)
(-0.0960457 0.00766032 4.00687e-20)
(1.21056 -0.179207 8.01784e-20)
(-0.197063 -0.0065009 -3.17542e-20)
(0.699537 -0.155333 1.31002e-19)
(-0.175207 -0.0158952 0)
(0.843313 -0.126501 0)
(1.20692 -0.0107463 5.09589e-20)
(1.31499 -0.208864 -8.7936e-22)
(0.977909 -0.0710739 2.56255e-20)
(0.991955 -0.0252064 1.52805e-20)
(0.732182 -0.353906 -3.229e-20)
(0.360967 -0.0165117 2.89971e-21)
(1.01804 -0.1065 0)
(1.03591 -0.0102977 0)
(-0.176183 -0.0162163 -1.68117e-19)
(-0.158993 0.000933106 2.16352e-20)
(1.15892 -0.228889 -3.96055e-20)
(1.11469 0.0732927 4.11371e-20)
(1.29398 -0.122499 6.67176e-20)
(1.23289 -0.122936 1.08968e-19)
(1.10987 -0.0386391 0)
(0.972958 -0.0446654 1.43617e-20)
(0.983411 -0.024612 5.31984e-21)
(1.00243 -0.0110018 0)
(-0.174561 -0.00891309 -3.20778e-20)
(1.20133 -0.0145226 0)
(1.11463 -0.0063605 -2.78338e-20)
(1.00023 -0.000784547 -5.31132e-22)
(-0.0777059 0.0112886 6.8098e-20)
(1.21094 -0.0579343 0)
(1.21782 0.065565 -3.00721e-20)
(-0.253363 -0.00885606 -3.94322e-20)
(-0.100518 0.00879456 9.6645e-21)
(-0.0937729 0.00996239 0)
(-0.296679 -0.00971689 8.86223e-20)
(1.03952 -0.174145 0)
(0.0695239 0.00885416 4.59374e-20)
(1.00196 -0.0122973 1.43919e-21)
(1.02383 -0.013103 3.05596e-21)
(1.22997 -0.0742027 -6.70268e-20)
(1.00171 -0.000673292 0)
(-0.184482 -0.00556971 1.5414e-20)
(0.594314 0.0433869 -1.18525e-19)
(1.06612 0.0636928 4.85056e-21)
(1.02483 -0.0130618 -2.47132e-20)
(1.16492 0.0177073 0)
(1.11058 0.0652289 0)
(1.06384 -0.0147381 1.17962e-19)
(1.08511 -0.527877 0)
(1.0468 -0.166721 -3.64182e-21)
(1.20768 -0.0170372 0)
(-0.212772 -0.00774528 -7.45095e-21)
(-0.154312 0.000842691 -4.9458e-20)
(1.27384 0.0135832 -1.8734e-20)
(0.886102 -0.101792 3.41933e-20)
(0.977973 -0.0446513 -1.66746e-20)
(1.0316 -0.0279359 0)
(0.447012 -0.0209362 -2.16588e-21)
(1.20113 -0.0166802 0)
(-0.270087 -0.00955779 0)
(1.13097 -0.0738795 3.2015e-20)
(1.02031 -0.103909 -1.65036e-22)
(1.14097 0.0792113 -5.88859e-20)
(1.27138 0.0142497 0)
(1.07933 -0.0231146 -1.00351e-20)
(1.06741 -0.0488502 2.33052e-20)
(0.701722 -0.199629 -8.10934e-20)
(1.31725 -0.219911 1.14906e-19)
(-0.186493 -0.0038364 0)
(-0.157689 0.000319718 0)
(1.18708 -0.0159819 0)
(0.917597 -0.774612 0)
(-0.202137 -0.00425538 0)
(0.935293 -0.0488487 6.39012e-21)
(1.20234 0.00599015 3.02198e-20)
(-0.14349 0.00425749 -4.77425e-20)
(1.11687 -0.0848873 2.15028e-21)
(1.11368 0.085046 0)
(1.02684 -0.0622433 0)
(1.29906 -0.212363 -1.52382e-19)
(1.00022 -0.0035475 -2.33992e-21)
(1.18048 -0.144785 -3.53003e-21)
(1.03932 -0.120479 0)
(0.982472 -0.0359414 3.28416e-20)
(1.00877 0.0129471 -6.42097e-20)
(1.0758 -0.0369259 1.74967e-20)
(0.164089 -0.577142 -5.84479e-20)
(1.02487 -0.0123749 1.27299e-20)
(1.28048 -0.00862823 -7.40052e-20)
(-0.27171 -0.00830243 1.79678e-19)
(-0.191618 -0.00660184 -1.30884e-19)
(0.898694 -0.111623 -9.3743e-20)
(1.20336 0.00772488 -4.64769e-20)
(1.00005 -0.00177067 0)
(0.73571 -0.33241 -1.09881e-19)
(1.00426 -0.0224038 5.41533e-22)
(1.17563 -0.145356 0)
(-0.106185 -0.0181087 4.16399e-20)
(0.892079 -0.102382 0)
(1.11742 -0.0818961 0)
(0.995989 -0.00741709 0)
(-0.165153 -0.000280791 2.54417e-20)
(1.03564 -0.0207115 -4.52387e-21)
(0.619666 -0.345903 -1.81514e-20)
(-0.164237 -0.000698869 0)
(1.22801 -0.284212 0)
(1.00016 -0.000749958 -1.33855e-22)
(1.27343 -0.409941 0)
(-0.274359 -0.00930433 0)
(-0.0396152 0.0159708 -6.21404e-20)
(1.14298 0.0828323 -7.50248e-21)
(1.17563 -0.0535411 -6.14591e-20)
(0.694983 -0.384908 0)
(1.09567 0.00775432 3.59233e-21)
(1.16519 0.0202942 0)
(1.07077 -0.489975 -3.93759e-20)
(1.06049 -0.185195 0)
(-0.22943 -0.0095985 -7.17181e-20)
(1.28645 -0.0457749 0)
(1.01697 -0.00144347 1.26382e-20)
(1.139 -0.0429363 0)
(1.10393 0.0778086 7.15443e-20)
(-0.0849965 0.0100076 -5.17184e-20)
(-0.16613 -0.00529058 2.61138e-20)
(1.03083 -0.0267712 -5.11033e-21)
(0.583055 -0.240623 -1.0059e-19)
(0.993793 -0.0254775 -7.07535e-21)
(1.07612 0.02953 0)
(1.06522 -0.0251922 9.52185e-20)
(1.14222 -0.0426883 5.78231e-23)
(1.21365 -0.0539392 -1.2748e-19)
(1.29035 -0.0479455 1.96806e-20)
(1.00419 -0.040995 2.95208e-21)
(0.799426 -0.166756 -4.23252e-20)
(1.24336 0.0582481 0)
(0.396794 0.0204172 -1.22026e-19)
(0.998546 -0.0161558 -8.60863e-21)
(0.982195 -0.0347363 -2.73845e-20)
(0.892906 -0.110178 3.65901e-20)
(-0.0946057 0.00953687 0)
(-0.219342 -0.00663876 1.37664e-20)
(1.21044 -0.0310701 0)
(1.04971 -0.0289805 0)
(1.00418 -0.00871085 0)
(1.08919 -0.031258 -1.08963e-19)
(1.26235 0.0210497 0)
(1.21177 -0.0513918 1.12239e-19)
(-0.107533 0.0077865 0)
(-0.300646 -0.00982995 5.97336e-21)
(1.14299 -0.0565323 0)
(1.17913 -0.0178504 0)
(0.516528 -0.108897 1.08236e-19)
(1.03372 -0.0357307 1.28783e-22)
(1.00257 -0.0103791 -3.29606e-22)
(1.26585 0.0197269 0)
(1.18268 -0.19246 3.40375e-20)
(1.03798 -0.0211623 -1.11976e-20)
(1.00025 -0.00346498 1.96656e-21)
(1.00407 -0.0231 0)
(1.00689 -0.00104152 1.14631e-22)
(1.17687 -0.0397917 0)
(1.00271 -0.0111102 -5.47051e-22)
(-0.135994 0.00476626 -6.35882e-21)
(1.20558 -0.0345227 1.38022e-19)
(1.02148 -0.051836 -4.66042e-21)
(-0.0802274 0.010238 -3.3013e-23)
(-0.222184 -0.00410554 2.0746e-20)
(0.974963 -0.0387436 1.70255e-20)
(1.28186 -0.00569642 1.19269e-19)
(-0.307323 -0.0102654 -2.01461e-19)
(0.976772 -0.0741166 -4.86358e-21)
(0.973379 -0.0383353 4.94726e-21)
(1.20883 -0.0374124 -1.0367e-19)
(-0.265169 -0.00865742 3.96541e-20)
(-0.0400664 -0.0179169 1.45298e-19)
(1.24012 -0.0604713 0)
(1.00365 -0.000965074 0)
(0.0838199 0.0089284 2.05346e-20)
(1.00219 -0.0130708 -1.48707e-21)
(1.2464 -0.0647813 -4.65521e-20)
(-0.295562 -0.0096107 1.8715e-19)
(0.404354 0.0207687 -1.9731e-21)
(1.11214 -0.00663553 2.023e-20)
(0.625501 -0.140212 -1.06546e-19)
(0.955869 -0.192374 0)
(-0.174628 -0.0151237 1.41623e-19)
(1.29146 -0.131055 1.85268e-22)
(0.77432 -0.134338 -1.7941e-21)
(-0.176041 -0.0064053 -3.22832e-20)
(-0.19042 -0.000854766 5.57104e-20)
(0.363134 0.0146442 5.96056e-22)
(1.06944 -0.0502503 0)
(-0.244961 -0.0120849 -5.09844e-20)
(-0.175088 -0.0103891 -4.34365e-21)
(0.453605 -0.490655 -7.53014e-21)
(0.487123 -0.49661 -6.10511e-21)
(0.933813 -0.0503326 -1.17452e-20)
(1.23779 -0.0710768 1.02035e-19)
(0.948568 -0.158189 1.45954e-20)
(-0.202474 -0.00777618 0)
(0.779238 -0.183342 -4.16634e-20)
(1.01328 -0.0032447 0)
(1.03278 -6.36122e-05 -6.23133e-21)
(1.09835 -0.128978 -7.38927e-22)
(-0.187661 -0.0158659 -1.55565e-19)
(0.214616 -0.582072 -4.43818e-20)
(1.03372 -0.0344895 -8.82046e-21)
(-0.200339 -0.00682711 9.52686e-20)
(0.936798 -0.154879 0)
(1.14063 -0.122376 -1.53737e-20)
(1.11566 -0.00496885 1.47473e-20)
(-0.27499 -0.00872373 -1.31007e-20)
(1.04812 -0.0104656 -6.35342e-21)
(1.1078 0.0806706 9.80533e-20)
(1.03656 -0.117265 1.27048e-21)
(1.1139 -0.0797638 -4.29976e-20)
(-0.0417005 0.0152197 0)
(0.978002 -0.04669 1.75512e-20)
(1.04133 -0.0295854 0)
(1.14155 -0.05415 0)
(1.20915 -0.0398514 -1.0929e-19)
(0.930441 -0.157327 0)
(0.993079 -0.0257765 1.39801e-20)
(1.02253 -0.051242 4.76998e-21)
(1.27637 -0.191009 0)
(1.24236 -0.288226 0)
(1.28651 -0.0392943 -1.60636e-19)
(0.776521 -0.151188 9.73568e-20)
(-0.0359795 0.0162313 3.22913e-20)
(1.01959 -0.108449 4.72427e-22)
(-0.172733 -0.000836669 1.44708e-20)
(0.901607 0.0316657 8.90605e-20)
(1.04716 -0.0152859 0)
(0.369236 0.0229202 -1.64983e-20)
(1.26035 -0.0153032 1.55402e-20)
(-0.293219 -0.0096448 8.62615e-20)
(1.09623 -0.125241 -1.36271e-20)
(1.20227 0.0698059 0)
(0.564249 0.0609165 2.29955e-20)
(0.543175 -0.0721776 -1.04865e-19)
(1.2698 -0.199163 -4.82333e-21)
(-0.205212 -0.00601102 0)
(1.07323 -0.0670342 0)
(0.547266 0.0402484 1.37754e-19)
(-0.275813 -0.00954019 -1.33833e-20)
(1.1619 -0.0674413 5.93915e-20)
(-0.214098 -0.0072342 -7.54805e-20)
(1.17071 -0.0734721 -1.77763e-20)
(-0.149241 -0.000426658 1.02138e-19)
(1.17678 -0.019104 0)
(1.17116 0.0451882 -9.51443e-20)
(1.28812 -0.0549605 4.75246e-21)
(1.27361 -0.273456 1.71854e-21)
(0.983684 -0.0256963 1.15063e-20)
(1.13657 -0.0626804 -1.91353e-20)
(1.18628 -0.19675 -4.46681e-20)
(1.16733 0.01621 -3.59783e-20)
(1.02258 -0.0403072 0)
(1.21191 -0.0284415 3.35741e-20)
(0.0168181 0.0165244 -7.81682e-20)
(0.998439 -0.0444768 0)
(1.20317 0.00258611 1.03838e-19)
(-0.199162 -0.00972496 0)
(1.10435 -0.0738841 0)
(1.1311 -0.511992 -8.06044e-20)
(1.18915 0.0324976 0)
(-0.0187262 -0.0181373 -6.72334e-20)
(1.11984 -0.0875005 -2.15549e-21)
(1.20417 0.0560849 0)
(0.887647 -0.743583 0)
(1.01177 -0.0169373 -8.9006e-20)
(1.21073 -0.0670284 -2.60739e-20)
(-0.181597 -0.00942322 5.14555e-20)
(-0.287378 -0.00910408 2.3288e-20)
(1.28779 -0.430939 4.14918e-20)
(1.00322 -0.0411869 -4.02163e-21)
(1.27455 -0.186593 5.41698e-21)
(1.16875 -0.0831482 -9.67202e-21)
(1.2028 0.0667577 0)
(1.04541 -0.0305425 1.52243e-20)
(-0.201991 -0.00563842 -7.24205e-21)
(0.00293579 0.013332 -5.08942e-20)
(0.482821 -0.051545 -1.95887e-19)
(1.114 -0.0768551 2.75471e-20)
(1.29108 -0.0527337 -1.9983e-20)
(0.624446 0.0503596 9.99773e-20)
(-0.212225 -0.00742476 0)
(1.04164 -0.00581744 0)
(-0.265406 -0.00988083 5.78476e-20)
(1.29673 -0.265886 -5.72888e-20)
(0.112158 -0.0899698 -1.07304e-19)
(1.0652 -0.189247 0)
(0.353077 0.00548585 1.42088e-19)
(0.988775 -0.0333019 -1.04534e-20)
(1.002 -0.00057715 0)
(-0.247616 -0.00891085 0)
(0.622985 0.0494067 0)
(0.990672 -0.0206257 7.14568e-21)
(1.11794 -0.0542629 -1.96191e-20)
(1.20593 0.00168076 -3.07844e-20)
(1.02105 -0.0146253 5.28669e-21)
(0.0317624 0.0148067 -3.92101e-20)
(1.23996 -0.068051 0)
(1.2586 -0.0171601 0)
(1.1388 -0.0168232 -3.76323e-20)
(1.07452 -0.0655172 0)
(0.970716 -0.0263157 -2.6945e-20)
(0.607317 -0.083957 2.48958e-20)
(1.01978 -0.0506953 2.6865e-21)
(0.971714 -0.0248511 1.59688e-20)
(0.149188 0.0366347 7.33667e-20)
(0.0310641 0.0165572 7.60707e-20)
(1.04877 -0.133118 -1.078e-20)
(0.654958 0.0635159 -3.4194e-20)
(0.995495 -0.00960738 -9.01036e-21)
(1.00282 -0.010479 9.13054e-22)
(1.10757 -0.0758763 -2.21367e-20)
(1.28965 -0.0413276 1.74649e-19)
(1.18435 0.0387152 0)
(1.02255 -0.0425602 0)
(1.0905 -0.0570757 -3.69731e-21)
(1.10545 -0.426199 3.29507e-20)
(1.1078 -0.0399239 3.32324e-20)
(0.00322843 -0.0233168 3.74012e-20)
(1.00286 -0.0130685 8.60933e-22)
(1.14636 0.00277582 5.11925e-20)
(-0.0518493 0.015176 -7.25946e-23)
(0.937482 -0.206254 -2.02215e-20)
(1.03156 -0.00122876 3.16376e-21)
(1.00129 -0.0115627 3.07532e-22)
(1.13737 -0.0183523 2.78608e-20)
(1.08481 -0.0220506 -4.51514e-25)
(1.25402 -0.471633 -4.06387e-20)
(0.104008 0.0333008 -2.3377e-20)
(1.17825 -0.0517669 7.28567e-20)
(0.326229 -1.14703 -3.53304e-21)
(1.11053 -0.0744577 -2.36729e-20)
(1.00188 -0.0183856 -4.07275e-22)
(-0.139525 0.00413495 -5.25453e-20)
(0.58702 0.0611342 -5.86936e-20)
(0.873778 -0.163376 4.34821e-20)
(1.0005 -0.0497765 -2.21379e-22)
(-0.198384 -0.00155906 0)
(0.85329 -0.132234 0)
(1.04063 -0.639179 1.85196e-20)
(0.99213 -0.0468867 -3.18391e-21)
(1.14617 -0.112556 0)
(1.27469 -0.19738 0)
(1.17622 0.00731857 6.87405e-20)
(-0.173356 0.000944331 -4.80009e-20)
(0.590814 0.0514638 -1.35207e-19)
(0.548804 -0.0620951 1.51154e-19)
(0.981101 -0.103543 1.52512e-20)
(1.29615 -0.128583 0)
(1.00587 -0.0427303 -2.60152e-21)
(-0.0914066 0.0098934 0)
(1.18902 0.0306245 0)
(1.27137 0.0163174 -5.09025e-20)
(1.16778 -0.0799175 1.50529e-20)
(1.03737 -0.113276 -1.23689e-21)
(0.944633 -0.203908 5.55044e-21)
(1.23266 -0.0704136 5.99797e-20)
(1.00293 -0.000878433 2.56576e-21)
(-0.232757 -0.00812453 -1.2033e-19)
(-0.152482 0.00276249 4.27992e-20)
(0.0201149 -0.0243806 -1.02167e-22)
(-0.171996 -0.00203968 -1.24588e-19)
(0.115033 0.0343832 -2.46193e-20)
(-0.264871 -0.00953655 0)
(1.02161 -0.0218318 1.13966e-19)
(0.910864 -0.115353 2.56979e-20)
(0.999791 -0.00559412 0)
(0.97423 -0.447939 9.79091e-20)
(0.991277 -0.0186683 0)
(1.02202 -0.0392449 1.30547e-21)
(0.904531 -0.133898 0)
(-0.176705 -0.00486839 0)
(1.11769 -0.0408332 -1.20591e-20)
(0.972468 -0.0656626 -6.28013e-23)
(1.07261 -0.351431 -3.26362e-20)
(1.2063 -0.0978483 0)
(0.988502 -0.0142646 8.7157e-21)
(0.0974897 -0.00900645 2.54036e-20)
(1.01581 -0.0379198 8.99273e-22)
(-0.129171 0.00486053 -4.29181e-20)
(1.26147 -0.461288 0)
(1.01058 -0.0305175 1.06401e-22)
(1.11291 -0.024734 -1.30572e-21)
(1.31424 -0.243339 3.89164e-21)
(0.363564 0.0216829 1.55315e-19)
(1.03689 -0.0215669 9.31326e-21)
(0.353117 -0.0631657 5.46196e-20)
(0.716338 -0.312761 -5.28547e-20)
(1.05552 -0.00606676 -2.83763e-20)
(-0.169899 -0.0113068 0)
(0.941579 -0.0247623 3.61617e-21)
(1.28149 -0.0144598 -7.96658e-20)
(0.97932 -0.101394 -1.28146e-20)
(0.161182 0.0369294 -5.01466e-20)
(-0.285186 -0.00904979 0)
(1.0568 -0.00652583 1.12665e-20)
(1.14198 -0.0906382 -1.28789e-19)
(1.0312 -0.0631178 3.85338e-21)
(1.01657 -0.0388023 4.29271e-22)
(0.21478 0.0463678 0)
(-0.146531 0.000366325 6.00541e-20)
(1.18582 -0.0879165 -1.32843e-19)
(1.18196 0.0394458 6.07859e-21)
(0.99042 -0.0174392 0)
(1.20556 0.039415 1.03555e-20)
(-0.133561 0.00421243 0)
(-0.180502 -0.00772108 0)
(1.06224 -0.0128396 0)
(-0.283514 -0.00946611 -6.32243e-20)
(1.02191 -0.0415527 0)
(1.03301 -0.0643082 2.78905e-21)
(1.21347 -0.0650252 1.48878e-20)
(1.14322 0.01345 2.36043e-20)
(1.04211 -0.00528689 -5.96918e-21)
(1.03144 -0.109853 0)
(-0.165049 -0.0114493 -1.43056e-19)
(1.2679 -0.269365 0)
(-0.17838 -0.0112102 0)
(1.11394 -0.0407462 1.11137e-20)
(0.994162 -0.026391 -6.83966e-21)
(-0.0852874 0.0100061 -4.04893e-20)
(0.999686 -0.00771891 -2.05438e-21)
(1.27919 -0.176986 1.72417e-19)
(1.14891 -0.00925478 -2.4005e-20)
(1.16857 0.00920485 0)
(1.17426 -0.0600454 0)
(0.000662892 0.0205633 -6.78077e-20)
(-0.290071 -0.00915142 -8.05907e-20)
(1.13151 -0.0677284 4.15119e-20)
(-0.260222 -0.0101821 1.24962e-20)
(1.1091 -0.00977268 -5.71531e-20)
(1.23649 -0.0901661 0)
(-0.0590235 0.0137877 -5.20028e-20)
(-0.218577 -0.00519362 -1.20054e-19)
(1.0225 -0.0636348 1.36363e-21)
(1.0049 -0.0426932 -3.55874e-21)
(0.811477 -0.200246 2.20503e-20)
(-0.175812 -0.0108036 1.63808e-19)
(0.701861 0.072775 3.95469e-20)
(1.20323 0.040017 0)
(0.87701 -0.517395 -1.68655e-20)
(1.14383 0.0148961 0)
(1.17401 -0.0165858 0)
(-0.0663396 -0.021265 1.67229e-19)
(0.0813725 -0.0111035 0)
(1.07957 -0.412582 -1.91955e-20)
(-0.137268 0.0041743 0)
(1.01913 0.0483685 0)
(-0.0325812 0.017094 3.95927e-20)
(1.06687 -0.0640789 0)
(0.474434 0.0598237 2.56049e-20)
(0.441189 0.00296234 0)
(1.00113 -0.0161506 6.42716e-21)
(-0.332606 -0.0116429 2.20458e-19)
(-0.0144025 -0.000492068 9.91186e-20)
(1.04581 -0.172873 3.86809e-21)
(1.20909 -0.0133594 -4.62696e-20)
(1.00944 -0.0567991 3.02638e-21)
(0.445263 -0.871183 -2.27001e-20)
(1.16199 -0.266315 -9.03616e-20)
(0.237947 -0.101207 0)
(1.01891 -0.0514465 -2.30572e-21)
(1.00119 -0.000789451 4.0339e-22)
(0.907927 -0.0799725 0)
(1.20316 -0.100337 0)
(1.00288 -0.0125483 5.72112e-22)
(-0.189767 -0.00541674 1.6459e-20)
(1.00139 -0.000944446 0)
(1.06465 0.0432268 0)
(0.973253 -0.0996069 9.06371e-22)
(1.20544 0.0665282 0)
(0.994053 -0.0472142 -9.58035e-21)
(0.987749 -0.014727 0)
(1.11113 -0.226874 -1.65681e-20)
(-0.28319 -0.0108041 0)
(1.20949 -0.0743432 1.37723e-20)
(-0.204898 -0.00663758 1.78596e-20)
(1.14552 -0.116623 -3.09898e-22)
(1.0214 -0.0163139 -1.79653e-22)
(1.05207 -0.0198186 1.15999e-21)
(1.23193 -0.0778554 6.41041e-22)
(1.0884 -0.0581732 4.23643e-21)
(1.2666 -0.119605 1.30869e-19)
(1.12358 -0.0455833 2.79592e-20)
(0.87379 -0.155027 0)
(0.507471 0.0598449 -1.09479e-19)
(0.999526 -0.00748791 -4.48684e-21)
(-0.170854 -0.00501344 -6.21971e-20)
(1.00012 -0.00240349 -2.42797e-21)
(1.2155 0.0789727 0)
(-0.250207 -0.00974184 1.11106e-19)
(-0.0698149 0.0117998 -3.50893e-20)
(0.877819 -0.0611391 0)
(0.400833 -0.165272 7.40688e-20)
(1.06102 -0.349308 0)
(1.22842 -0.336925 9.51762e-20)
(-0.0262187 -0.000597605 -1.15619e-19)
(1.06647 -0.0151778 2.59255e-20)
(0.0626148 -0.0102042 6.27972e-20)
(0.9426 -0.160424 0)
(1.16568 -0.0687066 6.67955e-20)
(-0.16564 -0.00400538 1.10154e-19)
(0.590923 -0.0310328 7.86906e-20)
(1.0479 -0.0161285 9.92386e-21)
(1.26263 -0.121221 -1.39513e-19)
(1.07836 -0.0216067 -1.54715e-20)
(-0.052151 0.014257 -7.5774e-20)
(-0.305149 -0.0116991 0)
(1.04041 -0.0669055 0)
(0.684248 -0.188359 1.0985e-19)
(0.0316556 0.0129167 1.27655e-19)
(1.00001 -0.00213759 0)
(1.00002 -0.0028705 0)
(1.2066 0.0597011 -1.1456e-20)
(-0.184163 -0.00609598 7.05036e-20)
(0.215346 0.0418025 0)
(0.97344 -0.0366428 0)
(1.28852 -0.0622113 3.94412e-20)
(1.10481 -0.0392393 -1.74285e-20)
(0.986683 -0.0165523 0)
(0.485514 0.0600474 -1.24678e-20)
(1.29123 -0.0595739 -8.7252e-20)
(1.24049 -0.273375 0)
(1.03916 -0.00478954 -4.74799e-21)
(1.24432 0.055916 3.81729e-20)
(0.901689 -0.255739 0)
(1.19887 0.0546626 8.27565e-21)
(0.95607 -0.0432542 5.09059e-22)
(1.01863 -0.10036 7.29438e-22)
(1.15389 -0.264528 7.76195e-20)
(0.912301 -0.0808788 -2.63393e-20)
(1.24369 0.0624361 -3.20596e-20)
(1.21569 -0.034596 -5.74892e-20)
(1.21669 -0.0406154 0)
(1.06889 -0.398061 -7.72145e-21)
(1.14069 -0.734804 1.99027e-20)
(0.93958 -0.027863 3.3863e-20)
(0.0483782 0.0218751 7.43787e-20)
(0.421322 -0.0668522 0)
(1.15948 0.0712311 -4.67126e-20)
(-0.229122 -0.00560615 -6.60659e-20)
(1.02933 -0.232199 1.29308e-20)
(0.191145 0.0423713 -1.15878e-20)
(1.28346 -0.0112944 7.64311e-20)
(1.05305 -0.0357531 1.20645e-20)
(1.17124 -0.0176954 3.47653e-20)
(1.05998 -0.0421021 2.87626e-20)
(1.08085 -0.133201 0)
(1.00982 -0.0285132 -1.70509e-23)
(1.01036 -0.0269936 -2.28937e-22)
(1.21866 0.0754987 0)
(-0.213209 -0.00772764 0)
(1.1487 0.00169396 -6.53704e-20)
(-0.178163 -0.00168113 -5.90425e-20)
(1.0211 -0.0169187 0)
(0.189889 0.0394032 2.74385e-20)
(0.988551 -0.434676 9.24037e-21)
(-0.309534 -0.0102617 0)
(1.2606 -0.12764 8.34689e-21)
(1.12332 -0.0873047 -1.42751e-20)
(1.11838 -0.0477595 2.66486e-20)
(-0.300426 -0.00938009 2.16111e-20)
(1.2441 -0.268637 -9.5429e-20)
(1.03052 -0.224588 -9.1556e-21)
(0.588383 0.050188 0)
(1.07283 -0.0621791 0)
(1.02616 -0.423509 0)
(1.21807 0.0775526 3.46869e-21)
(1.0661 0.0440951 4.35278e-20)
(1.16033 -0.0943014 -1.54602e-20)
(1.28193 -0.25014 5.86284e-20)
(0.989636 -0.0336362 5.78019e-21)
(1.00015 -0.00283647 2.39982e-21)
(0.938757 -0.0478922 0)
(0.986123 -0.0177796 0)
(-0.0683595 0.0123875 -1.85997e-20)
(1.00648 -0.00127215 2.16358e-21)
(0.521725 0.0641466 0)
(-0.100752 0.00848539 8.48308e-20)
(1.26319 -0.130434 1.80286e-20)
(-0.17551 -0.00693102 0)
(-0.296933 -0.0102602 1.16892e-19)
(1.01899 0.0394301 -3.4842e-20)
(1.24058 -0.335547 -1.43744e-19)
(0.880935 -0.0686336 9.55555e-22)
(0.998472 -0.00417551 3.36087e-21)
(0.983466 -0.0333611 8.64667e-22)
(1.03431 -0.0111987 9.06792e-21)
(1.05074 -0.0198422 6.61565e-23)
(1.00165 -0.000880976 0)
(1.23851 -0.0822395 0)
(1.29468 -0.111471 4.43491e-20)
(0.89787 -0.267917 0)
(0.378742 0.0157563 3.05785e-22)
(1.03913 -0.0965739 -1.66311e-21)
(-0.14843 0.00343007 0)
(0.999949 -0.000377294 -1.51206e-20)
(-0.168066 -0.0106618 -1.145e-19)
(1.15798 -0.156377 1.26579e-20)
(0.99986 -0.000781502 1.50556e-20)
(0.996795 -0.00697202 7.61078e-24)
(-0.0777321 0.0109945 -1.81875e-20)
(1.12854 -0.0792166 8.57538e-21)
(0.203978 0.0363062 9.74967e-20)
(-0.00940891 -0.000858844 -1.01519e-19)
(1.20362 -0.0109223 0)
(1.24037 -0.0254187 0)
(1.05484 -0.00442772 -6.08444e-22)
(-0.102863 0.00697814 4.14691e-20)
(0.991602 -0.116887 1.11778e-20)
(1.11893 -0.0431681 -3.23267e-21)
(0.482326 0.0596979 9.77426e-20)
(0.998546 -0.00467884 6.48733e-21)
(0.976461 -0.0689559 -1.32146e-20)
(1.06072 -0.0223432 1.3344e-20)
(1.19143 0.0261222 -6.65109e-21)
(-0.219115 -0.00608856 -3.4665e-20)
(1.13498 -0.108919 0)
(1.16445 -0.0879802 -3.29296e-20)
(1.3009 -0.274061 0)
(-0.194321 -0.00804602 3.39373e-20)
(0.88341 -0.0922985 -3.29312e-20)
(0.993779 -0.14557 -5.59739e-21)
(-0.0422716 0.0163769 6.75826e-20)
(1.03358 -0.0108351 0)
(-0.0481757 0.0156642 -7.92223e-21)
(1.00064 -0.00196894 1.04101e-21)
(1.10937 -0.0377433 -3.79227e-20)
(0.48596 -0.0330351 0)
(1.23566 0.0298477 -2.50247e-20)
(1.26825 0.0264791 -3.99186e-22)
(1.23652 -0.188506 0)
(1.21234 -0.0718789 3.14728e-20)
(0.999514 -0.00323278 5.67832e-21)
(0.999974 -0.000362173 3.93833e-21)
(1.24116 -0.0909183 4.95275e-20)
(1.06929 -0.064291 -1.07963e-20)
(0.999609 -0.0027206 -3.46068e-21)
(1.14958 0.00965783 3.7708e-20)
(1.27387 -0.30692 -3.69099e-21)
(1.00781 -0.0092317 -2.77033e-22)
(1.21435 -0.34845 -9.88471e-20)
(1.17596 -0.513455 -1.01265e-20)
(0.245677 0.0398213 0)
(1.23677 -0.183294 0)
(-0.12258 -0.0207292 8.238e-20)
(0.833787 -0.12975 0)
(0.998326 -0.00473924 -1.75349e-20)
(1.26428 -0.209676 -3.87389e-20)
(1.02019 -0.0175899 0)
(1.13847 -0.0600941 0)
(0.067966 0.0245324 -6.41382e-20)
(-0.0291703 0.0164959 -6.1259e-20)
(0.0584773 -0.00971972 0)
(-0.0207483 0.019355 3.2234e-20)
(1.04584 -0.0678582 0)
(1.04027 -0.0656877 0)
(0.9733 -0.336896 0)
(1.01412 -0.096732 1.78205e-21)
(1.03702 -0.0321472 -3.7699e-22)
(0.317445 -0.194674 9.58326e-20)
(1.02525 0.0337947 0)
(-0.216271 -0.00661425 3.93204e-20)
(1.2152 0.0809058 0)
(1.23856 0.0292667 0)
(0.984801 -0.020539 -3.1978e-20)
(1.03415 -0.0217507 -3.98954e-22)
(0.952341 -0.297036 -5.26654e-20)
(1.259 -0.0215704 -1.20728e-19)
(1.11282 -0.0383974 0)
(0.999773 -0.00155913 -2.37211e-21)
(1.26569 0.0313501 -9.21245e-20)
(1.29831 -0.146603 1.05941e-19)
(-0.17148 -0.00144802 -1.74136e-22)
(0.972946 -0.042298 -1.4902e-20)
(1.00155 -0.00552491 0)
(-0.231631 -0.00701301 3.94073e-20)
(0.957094 -0.0414773 0)
(1.17242 -0.0669944 -8.58439e-21)
(1.0204 -0.0138161 -2.31046e-21)
(-0.17095 -0.00460967 1.43194e-20)
(1.0162 -0.000862498 -7.62934e-21)
(-0.247912 -0.0126844 0)
(0.995044 -0.0148688 0)
(1.21897 -0.286236 -8.07867e-20)
(1.19376 -0.0419824 1.11407e-20)
(0.948715 -0.338784 -3.44841e-21)
(1.16408 -0.092942 4.20169e-20)
(0.996574 -0.0434231 0)
(1.11655 -0.0582542 -3.13175e-20)
(1.00549 -0.00659055 0)
(0.538794 0.0652996 0)
(0.961255 -0.0513724 1.45715e-20)
(-0.150838 -0.00300913 -4.53852e-20)
(1.07634 -0.0615586 1.46751e-20)
(0.217923 0.0276109 1.56502e-20)
(-0.124592 0.00569807 5.72847e-20)
(1.15268 -0.0983829 3.17829e-20)
(1.00643 -0.00473059 0)
(-0.184156 -0.0121363 0)
(0.101745 0.0317561 -3.50961e-20)
(1.13517 -0.0686025 0)
(1.2345 0.0330995 0)
(0.983343 -0.0322088 3.37367e-21)
(-0.197495 -0.00747253 3.1184e-20)
(1.05447 -0.0369415 -2.50361e-20)
(1.09005 -0.0467649 -6.66752e-20)
(1.00056 -0.0179132 0)
(1.00595 -0.0068849 1.9045e-21)
(0.235213 0.0403341 -6.19479e-20)
(1.17674 -0.0580822 0)
(1.00146 -0.0124101 2.0842e-21)
(1.15864 0.023214 0)
(-0.16204 0.000563246 5.75385e-20)
(0.694061 -0.83243 -1.58326e-20)
(0.0130066 0.0117001 -6.73004e-20)
(1.02942 -0.0266805 -9.22057e-21)
(-0.218975 -0.00441767 0)
(0.998407 -0.0170752 9.78036e-21)
(1.00746 -0.00870142 0)
(0.974674 -0.0455769 -1.46558e-20)
(1.03278 -0.000167344 8.46907e-21)
(0.999942 -0.00410388 0)
(-0.00289129 0.0084797 0)
(0.0533645 0.0221129 -7.06033e-20)
(1.07647 -0.0387108 0)
(1.00145 -0.00129491 0)
(1.18917 -0.0848623 4.2818e-20)
(1.02699 -0.0376195 -1.14462e-20)
(-0.166917 -0.0145612 -9.37909e-20)
(1.26966 -0.207352 -5.62505e-21)
(-0.243108 -0.00719027 4.83463e-23)
(-0.168969 -0.00654859 1.30334e-19)
(1.11528 -0.059663 -3.2988e-20)
(1.24541 0.0605307 -9.34893e-22)
(1.00129 -0.0170552 3.80236e-21)
(1.19994 -0.0390075 1.11636e-22)
(0.984503 -0.416165 0)
(1.06532 -0.0139669 -1.17155e-20)
(1.00055 -0.0019365 -6.09847e-22)
(1.23485 -0.380729 1.52783e-19)
(-0.299888 -0.0112102 5.78713e-20)
(1.23791 -0.0232163 1.9159e-22)
(-0.290605 -0.0120773 0)
(1.22689 0.00424102 4.13914e-20)
(0.995723 -0.0105429 -4.75863e-21)
(1.18748 -0.101233 5.09047e-20)
(1.23533 0.0348954 3.34675e-20)
(-0.298156 -0.0104698 2.36646e-19)
(1.17308 -0.0400577 -6.66158e-20)
(0.355979 0.0479725 5.86587e-20)
(1.26189 -0.0228067 9.7836e-20)
(1.00039 -0.00386525 -2.62345e-21)
(0.0862565 -0.0524778 -4.64803e-20)
(0.0310875 -0.0328821 0)
(-0.19765 -0.00398904 -4.2328e-21)
(0.498242 -0.0253896 -2.45162e-22)
(0.227043 0.0479069 7.21013e-20)
(0.984492 -0.104528 7.03589e-21)
(0.715499 -0.399467 0)
(0.970819 -0.0231523 -2.0321e-20)
(0.468035 0.0331144 -6.24077e-20)
(1.08003 -0.128836 -2.40632e-20)
(1.01298 -0.00259601 3.15753e-21)
(-0.00334405 0.0100955 0)
(1.03421 -0.0949538 0)
(1.00629 -0.0043425 1.91118e-21)
(1.02424 -0.0637467 -3.66801e-22)
(1.03236 -0.0924949 2.0272e-21)
(-0.184015 -0.00510194 0)
(1.06319 -0.0369743 5.41645e-20)
(1.02019 -0.0244147 2.84105e-21)
(1.19144 -0.0989359 5.32905e-20)
(-0.262487 -0.00691765 3.5016e-23)
(1.05852 -0.0905436 -1.03306e-20)
(-0.302509 -0.0110661 -1.0474e-19)
(0.958566 -0.0717249 -2.87077e-20)
(1.23857 0.0170932 -5.74933e-20)
(-0.156985 -0.00172693 5.20489e-20)
(1.00249 -0.0115602 0)
(0.638756 0.0699897 0)
(1.0901 -0.149596 -1.9987e-20)
(1.1563 -0.100988 3.3098e-20)
(0.646376 -0.858438 -2.80396e-20)
(1.03739 -0.0943663 1.30186e-21)
(1.30582 -0.191588 0)
(1.20122 0.0568392 -7.3216e-21)
(-0.142193 0.00204231 0)
(1.08315 -0.0123253 0)
(-0.176524 -0.00407195 -7.65038e-21)
(1.15881 -0.0700968 7.16542e-21)
(-0.238596 -0.00573616 7.37668e-20)
(-0.306292 -0.010099 -1.12936e-19)
(-0.193835 -0.00644069 7.5541e-20)
(1.20289 -0.00514469 0)
(0.992885 -0.0419548 -9.30081e-21)
(1.04485 -0.0694598 -1.42792e-20)
(0.999984 -0.0021215 2.42337e-22)
(1.16872 0.0435459 8.62703e-20)
(0.996968 -0.00920082 3.99979e-21)
(-0.165721 0.00138515 1.10442e-19)
(1.04246 -0.162533 3.13941e-21)