/*--------------------------------*- C++ -*----------------------------------*\
| =========                 |                                                 |
| \\      /  F ield         | OpenFOAM: The Open Source CFD Toolbox           |
|  \\    /   O peration     | Version:  v2012                                 |
|   \\  /    A nd           | Website:  www.openfoam.com                      |
|    \\/     M anipulation  |                                                 |
\*---------------------------------------------------------------------------*/
FoamFile
{
    version     2.0;
    format      ascii;
    class       surfaceVectorField;
    location    "650";
    object      ddtCorrDdt0(Uf);
}
// * * * * * * * * * * * * * * * * * * * * * * * * * * * * * * * * * * * * * //

dimensions      [0 1 -2 0 0 0 0];


internalField   nonuniform List<vector> 
20673
(
(-0.00434418 -0.0039559 2.51318e-18)
(-0.00446496 -0.00392396 -1.28785e-18)
(-0.00435148 -0.00382794 5.88159e-18)
(-0.00166085 -0.00150473 -2.16934e-18)
(-0.00161017 -0.00149476 -1.16924e-19)
(-0.00165287 -0.00156131 -2.0587e-18)
(0.0261849 0.00328011 -3.73111e-18)
(0.0267368 0.00341613 4.65216e-18)
(0.0268022 0.00361649 -3.18662e-18)
(-0.00261698 0.00220868 3.12756e-18)
(-0.002643 0.00211377 -1.36333e-17)
(-0.00254861 0.00214572 -2.87882e-18)
(-4.33969e-05 -0.000711908 -2.42115e-18)
(-3.89263e-05 -0.000717174 -3.69402e-19)
(-4.65827e-05 -0.000758535 2.326e-18)
(0.000268989 -0.00585681 8.49115e-17)
(0.000238399 -0.00581987 9.1166e-17)
(0.000315381 -0.00603606 1.41835e-16)
(0.0239221 0.0035186 -4.24004e-18)
(0.0240742 0.00339757 2.12954e-18)
(0.0244884 0.00371799 1.83224e-18)
(0.0278206 0.00327584 -6.63668e-18)
(0.0272068 0.00315784 7.32211e-18)
(0.027689 0.00308826 -4.10477e-19)
(0.0316659 -0.000856256 -1.2567e-17)
(0.0307985 -0.00104381 -3.91767e-18)
(0.0296601 -0.000891242 2.39605e-18)
(-0.00515163 -0.00478669 1.8184e-19)
(-0.00528722 -0.00482867 -1.84934e-17)
(-0.00520175 -0.00492423 1.47827e-18)
(-0.00755297 0.0050777 1.27931e-18)
(-0.00802652 0.00536073 1.17261e-17)
(-0.0107307 0.00462628 2.40048e-17)
(-0.0059939 0.00470321 -1.31387e-18)
(-0.00603416 0.00482627 -2.33028e-18)
(-0.00610675 0.00469834 3.51031e-18)
(-0.00268579 0.00223789 -7.19765e-20)
(0.0214434 0.000510974 3.251e-18)
(0.0252929 0.000480902 2.15125e-18)
(0.0209024 0.000369507 2.58732e-18)
(-0.00149375 -0.00344134 6.75596e-19)
(-0.0014304 -0.00346152 7.36182e-18)
(-0.00143637 -0.00337149 4.05141e-18)
(-0.00180106 -0.00314216 -1.23734e-18)
(-0.00175147 -0.00309194 2.66206e-18)
(-0.00180561 -0.00306166 2.62534e-20)
(-0.00157222 -0.00180376 -2.25528e-18)
(-0.00160347 -0.00177631 3.38213e-19)
(-0.00155058 -0.00175297 -3.96606e-19)
(-0.00759908 -0.0011957 -3.60648e-18)
(-0.00756181 -0.0013415 4.69203e-18)
(-0.00774344 -0.00125591 8.10707e-18)
(-0.00590733 0.00478296 -2.8444e-18)
(-0.00588689 0.00463826 1.52805e-17)
(-9.55594e-05 -0.000233855 -1.05866e-19)
(-9.30094e-05 -0.000220992 3.36617e-19)
(-8.37168e-05 -0.000215463 5.87749e-19)
(-2.83631e-06 -7.61898e-05 -4.0096e-19)
(-4.31837e-06 -0.000100879 -2.50873e-18)
(-2.78284e-06 -7.38553e-05 3.13621e-18)
(0.0236799 0.00343557 -4.03423e-18)
(0.0235088 0.00319515 8.12071e-18)
(-0.000130339 -0.000432245 3.01238e-18)
(-0.000144139 -0.000459495 -8.21638e-20)
(-0.000143183 -0.000441246 1.0236e-18)
(0.0281417 0.00340612 1.25833e-19)
(0.0285023 0.00340148 -2.35337e-17)
(-0.000301194 -0.00112991 -2.60508e-18)
(-0.000296064 -0.00114784 -5.31426e-18)
(-0.000321827 -0.00116692 -9.29661e-18)
(0.021913 0.00349655 2.36719e-18)
(0.021445 0.00320391 6.06807e-18)
(0.0216971 0.00326159 1.7821e-18)
(2.60876e-05 -0.00451074 9.62112e-18)
(2.19725e-05 -0.00457338 4.93265e-18)
(6.43462e-05 -0.0045372 2.53875e-17)
(-0.00019227 -0.00495218 -1.35562e-17)
(-0.000192658 -0.00499823 8.36254e-18)
(-0.000187666 -0.00500667 5.47517e-18)
(0.000333467 -0.00693131 7.59744e-18)
(0.000306002 -0.00712639 1.55156e-17)
(0.000520502 -0.00706971 6.2715e-18)
(-0.00686477 -0.00463941 3.39219e-18)
(-0.00696674 -0.00456614 -4.12425e-18)
(-0.00699719 -0.00469857 -7.77542e-18)
(-0.00490275 -0.00377813 1.7447e-18)
(-0.00479444 -0.00382132 -4.74849e-18)
(-0.00479908 -0.00369765 4.28388e-18)
(-0.00348236 -0.00290212 -1.60679e-19)
(-0.00339182 -0.00292106 2.24901e-19)
(-0.00341102 -0.00281993 5.69606e-19)
(-0.000262552 -0.00426615 -1.10048e-17)
(-0.000270807 -0.00433621 -6.91936e-18)
(-0.000215974 -0.00429981 -1.34989e-17)
(6.08279e-05 -0.00338271 2.26155e-17)
(8.83371e-05 -0.00333509 3.13102e-18)
(4.58879e-05 -0.0033235 2.6442e-18)
(-0.000218614 -0.00123968 6.89724e-19)
(-0.000232056 -0.00128385 -1.33915e-18)
(-0.000238982 -0.00125068 4.19758e-18)
(0.0258202 0.00890815 1.19802e-18)
(0.0260932 0.00856487 3.08272e-18)
(0.0270339 0.0085234 4.90803e-18)
(-0.000118217 -0.000420923 -1.96917e-18)
(-0.000119359 -0.000404772 2.88841e-18)
(0.0242966 0.000946091 1.57314e-18)
(0.0241103 0.000794644 1.87252e-17)
(0.0241144 0.0010224 -9.12954e-18)
(-0.00317269 0.00257518 -2.34886e-18)
(-0.00324785 0.00264803 3.29414e-18)
(0.0183524 0.000562555 -6.04172e-18)
(0.0177436 0.000498188 -1.70198e-17)
(0.0183938 0.000358511 -1.4253e-17)
(-0.000327382 -3.3375e-05 -5.08562e-19)
(-0.000340132 -3.17893e-05 -7.54334e-19)
(-0.000318806 -2.00416e-05 9.73334e-20)
(-9.68698e-07 -4.6274e-05 -1.9469e-18)
(-7.26945e-07 -2.18457e-05 -1.22584e-18)
(-3.38617e-07 -2.28069e-05 2.00628e-19)
(-0.000595339 0.000152654 -2.18171e-19)
(-0.000597273 0.000131147 5.55135e-19)
(-0.000574131 0.00014018 7.1179e-19)
(-0.000127742 -0.00537625 3.71919e-17)
(-0.000166859 -0.00542413 -4.9635e-17)
(-9.73304e-05 -0.00550329 2.84148e-17)
(-0.00201381 -0.000545935 -1.23726e-19)
(-0.00207042 -0.000566693 -1.34011e-19)
(-0.00206686 -0.000519878 -7.18763e-19)
(-7.25897e-05 -0.00364778 -1.10465e-17)
(-9.89492e-06 -0.00365225 -1.62368e-17)
(-4.51067e-05 -0.00358404 -1.1044e-17)
(-0.00767179 -0.00102236 -9.54478e-18)
(-0.00746541 -0.00109989 1.48115e-18)
(-0.00913447 0.000496622 3.70106e-18)
(-0.00894398 0.000405669 -5.28501e-18)
(-0.00897119 0.000622757 -5.88583e-19)
(0.000811242 -0.00782911 -6.10904e-18)
(-0.00015513 -0.00749491 5.96913e-18)
(0.000728071 -0.00699314 -4.48944e-17)
(-0.000135284 -2.95569e-05 4.74972e-19)
(-0.000147069 -2.67352e-05 9.22667e-19)
(-0.000145322 -4.15688e-05 -9.29092e-19)
(-0.00463897 0.000197927 4.00637e-18)
(-0.00469607 0.00011468 7.33913e-18)
(-0.00474676 0.000228032 -3.27121e-18)
(-0.000136679 -0.00221117 2.59066e-18)
(-0.000109804 -0.00223912 8.53181e-19)
(-0.000151953 -0.00226559 6.01839e-18)
(0.00193003 -0.00817299 -1.7954e-17)
(0.000589429 -0.00745045 4.53363e-17)
(3.53233e-05 -0.00342917 5.83723e-18)
(7.89826e-05 -0.00343959 -8.37926e-18)
(-0.00158371 -0.00185582 -2.15023e-18)
(-0.00152856 -0.00182018 -3.53266e-19)
(-0.00447226 -0.00101084 1.57186e-18)
(-0.00442349 -0.00110337 5.28463e-18)
(-0.00455049 -0.00110328 7.77887e-18)
(-0.00735468 0.00519032 -4.46365e-19)
(-0.00828669 0.0053279 -2.03413e-18)
(-0.00072095 -0.00162308 -3.77039e-19)
(-0.000692758 -0.00157519 -5.32969e-19)
(-0.000727412 -0.00158738 2.00905e-18)
(-0.00375695 -0.00125754 2.24277e-18)
(-0.0038515 -0.00130693 -9.42477e-19)
(-0.00375497 -0.00136675 2.13838e-18)
(-0.0019581 -0.000568386 -6.34567e-19)
(-0.00195464 -0.000519017 3.78745e-20)
(0.03887 0.00888517 -2.86198e-17)
(0.0361028 0.00831899 3.56682e-17)
(0.0373866 0.00799473 -5.26679e-18)
(-0.00171166 -0.00147569 -1.80849e-18)
(-0.00171597 -0.00155335 -2.06335e-18)
(0.0214203 0.000438875 -1.83173e-17)
(-9.87775e-05 -0.000245413 -2.27332e-18)
(-0.000107862 -0.000251014 -2.19117e-19)
(0.000382131 -0.005728 -7.05371e-17)
(0.000412817 -0.00578261 -7.55991e-17)
(0.0287395 0.00393557 -1.15535e-17)
(0.033568 0.00515025 1.24897e-17)
(0.0415099 0.0114066 -1.89307e-17)
(1.25669e-05 -0.000755164 3.49318e-19)
(-2.53312e-06 -0.000799651 -5.98733e-19)
(2.26174e-05 -0.00132254 -1.3547e-18)
(2.89256e-05 -0.00127241 9.9637e-18)
(-0.0119791 0.00262254 7.80438e-18)
(-0.0116016 0.0029906 2.87445e-18)
(-0.0102883 0.00310145 -1.84098e-18)
(-0.00348584 -0.00404346 2.88962e-19)
(-0.00361127 -0.00407459 2.4692e-18)
(-0.00351103 -0.00418651 1.63891e-18)
(-3.9508e-05 -0.000667989 -1.86706e-18)
(-4.87432e-05 -0.000706348 1.99196e-18)
(0.0339707 -0.000688145 -4.68711e-18)
(0.032528 -0.000707957 -4.46482e-18)
(0.0182557 -0.000621358 1.30604e-17)
(0.0188347 -0.000906199 -1.56559e-17)
(0.0183288 -0.000902529 2.09406e-17)
(-0.000310719 -0.00110776 5.79523e-18)
(-0.000284691 -0.00108357 7.14904e-18)
(-0.00015368 -0.00734386 4.32878e-17)
(0.000155103 -0.00711176 1.93373e-18)
(0.000114921 -0.00716738 -2.08447e-17)
(-0.00536459 0.00514961 5.3705e-18)
(-0.00536233 0.00509562 2.74847e-18)
(-0.00541258 0.00511792 -3.93627e-18)
(0.0217842 2.55873e-05 -3.72201e-18)
(0.0217206 -8.20868e-05 -7.27866e-18)
(0.0219024 -4.72837e-05 -3.84593e-18)
(-0.00282676 -0.000475918 1.6441e-18)
(-0.00290377 -0.000495791 -3.98761e-19)
(-0.00285107 -0.00055901 1.92061e-18)
(0.0195172 0.00231561 -1.59996e-18)
(0.0196797 0.00238776 8.82998e-18)
(0.0197576 0.00253179 -1.42634e-18)
(-9.26323e-06 -0.00014712 4.54417e-18)
(-1.17218e-05 -0.000175714 1.91521e-18)
(-1.15563e-05 -0.000171768 5.37863e-19)
(-2.16854e-05 -0.000190251 9.26499e-19)
(-2.61905e-05 -0.000207075 5.70046e-19)
(-2.18416e-05 -0.000180558 -1.51988e-18)
(8.36843e-06 -0.000715974 2.19927e-19)
(0.00014038 -0.005906 -3.17149e-17)
(0.000109335 -0.00589286 1.53933e-17)
(0.000143548 -0.00586664 -4.33819e-17)
(0.0244545 0.00105879 -1.31566e-18)
(0.02443 0.000944435 -4.87083e-18)
(0.015595 0.00307443 -2.02078e-17)
(0.0134317 0.00254416 6.04269e-18)
(0.0138474 0.00293618 -4.79146e-17)
(-0.0027451 -0.00046548 -5.40617e-20)
(-0.00279648 -0.000406202 1.35726e-18)
(-4.65595e-05 -0.000240185 -2.57682e-20)
(-4.75213e-05 -0.000226774 -4.6604e-19)
(-3.46043e-05 -0.000213608 -2.05726e-18)
(0.0244919 0.00243066 2.07012e-17)
(0.00924991 -0.00660756 -1.09638e-17)
(-0.00454753 0.000274674 -4.66671e-19)
(-0.00451784 0.000160538 3.09342e-19)
(-0.000589995 0.000167423 -1.00453e-18)
(-0.000612739 0.000164571 -6.22081e-19)
(0.0220192 -0.000665329 1.54952e-17)
(0.021697 -0.000556594 5.00808e-18)
(0.022007 -0.00053343 8.80732e-18)
(-0.00611619 -0.00481494 -6.05643e-18)
(-0.0060071 -0.00477001 -5.70317e-18)
(-0.00599959 -0.00486327 -2.89216e-19)
(-0.00133613 -0.0007635 9.34226e-19)
(-0.00133332 -0.000721627 -2.84245e-20)
(-0.00129081 -0.000735852 -3.46518e-19)
(-0.000940229 -0.00261304 -4.92011e-19)
(-0.000941854 -0.00267325 -4.30802e-18)
(-0.000985419 -0.00265316 -3.36297e-18)
(0.00940946 -0.00376791 1.0867e-17)
(0.0328731 0.00763537 3.2818e-17)
(8.08487e-05 -0.00565031 -1.86824e-17)
(0.000225195 -0.0056342 5.03522e-17)
(7.09738e-05 -0.00583211 -1.45626e-18)
(-0.00982358 0.00376776 2.22565e-18)
(-0.0100028 0.00369184 -5.94885e-18)
(-0.0101699 0.0038745 -2.17006e-18)
(-0.00859133 1.79276e-05 1.40643e-17)
(-0.00872419 -0.000105996 1.0636e-17)
(-0.00855519 -0.000172889 6.15645e-18)
(-0.0038204 0.0063369 2.0776e-18)
(-0.00380472 0.0063938 1.38797e-18)
(-0.00375271 0.00612728 9.93323e-18)
(0.000246619 -0.00535514 -2.28985e-17)
(0.000209784 -0.00526818 -2.15143e-18)
(0.000180041 -0.00535565 2.66476e-18)
(-0.000453549 -0.000174129 5.11414e-19)
(-0.000470425 -0.000173457 -1.38494e-19)
(-0.000470568 -0.000189734 1.14314e-18)
(0.000137901 -0.00409553 -1.08347e-17)
(9.14155e-05 -0.0040706 2.09326e-17)
(0.000129402 -0.00402766 1.97381e-17)
(-6.2148e-05 -0.00539793 6.85299e-17)
(-0.000103453 -0.00527881 3.80012e-17)
(-0.0031892 -0.000116889 -1.24124e-18)
(-0.00325861 -9.45613e-05 3.34302e-18)
(-0.00319133 -2.99059e-05 4.89275e-18)
(-0.000776546 -0.000365998 3.5663e-19)
(-0.000767393 -0.000339618 5.19747e-19)
(-0.000803029 -0.000355796 -1.07215e-19)
(0.033223 -0.00136673 1.15647e-17)
(0.0329472 -0.00144379 3.70326e-18)
(0.0362619 -0.00104725 -4.95445e-18)
(-0.000219403 -0.00714974 -1.01473e-17)
(-9.42228e-05 -0.00712504 -1.75042e-17)
(-0.000189139 -0.00730693 -6.17146e-18)
(-0.0093199 0.000557728 -2.68199e-18)
(-0.00927294 0.000330241 7.4065e-18)
(-0.00164047 -0.00173404 1.79508e-18)
(-0.0016803 -0.00179829 1.26422e-18)
(-0.00476623 -0.0040674 -5.45823e-18)
(-0.00465639 -0.00410193 -2.04688e-18)
(-0.00476794 -0.00419167 -6.95784e-18)
(0.0083534 -0.00103882 2.46258e-17)
(0.00740484 -0.000993044 -7.74905e-18)
(0.00793194 -0.00105511 -1.29247e-17)
(0.0185278 0.000654696 1.09606e-17)
(0.0183869 0.00057378 5.40154e-18)
(-0.00613333 0.00545395 1.02578e-19)
(-0.00599987 0.00548298 4.78252e-18)
(-0.00607742 0.00559852 -3.0101e-18)
(0.0331218 -0.00140929 4.72506e-18)
(0.0307849 -0.00167712 -1.81605e-18)
(-7.16916e-05 -0.00263613 6.3359e-18)
(-9.35881e-05 -0.00267277 7.68294e-18)
(-5.82886e-05 -0.00268626 -4.79742e-18)
(0.000546402 -0.00745348 1.12944e-17)
(0.000506776 -0.00731663 -4.08623e-17)
(0.000317439 -0.00730695 5.70642e-17)
(-0.000311269 -0.000783586 -7.38577e-19)
(-0.000335204 -0.000815092 -6.61328e-18)
(-0.000317694 -0.000815638 -3.94784e-18)
(0.000453036 -0.00665581 -4.54993e-17)
(0.000388974 -0.00644402 -2.52707e-17)
(0.000478461 -0.00649546 2.37697e-17)
(0.0216996 0.000763647 -4.96132e-18)
(0.0214981 0.000662331 -7.98422e-18)
(0.0214816 0.000950377 -5.6561e-19)
(-5.88353e-05 -0.00340928 3.8223e-18)
(-8.77672e-05 -0.00346174 -3.29457e-17)
(-0.000107538 -0.00339144 -1.97786e-17)
(-3.57777e-06 -6.95119e-05 5.35975e-19)
(-2.67032e-06 -7.13145e-05 -2.25973e-18)
(-0.01213 0.00229033 -7.16005e-18)
(-0.0128701 0.0023195 1.27377e-17)
(0.022451 0.000398265 -1.732e-17)
(0.0223615 0.00073915 -2.0206e-18)
(0.0227043 0.000710029 -5.11037e-18)
(-0.000164337 -0.00487689 -4.19532e-18)
(-0.000242213 -0.00488225 3.03227e-18)
(-0.000201509 -2.50601e-05 3.25241e-19)
(-0.000211159 -3.65951e-05 8.51049e-19)
(-0.000214215 -2.14295e-05 8.48093e-19)
(-0.000895001 -0.0025623 -2.73021e-18)
(-0.000947378 -0.00254168 4.88204e-18)
(-0.0018835 -0.000751844 2.40057e-19)
(-0.00193445 -0.000782218 -1.47707e-19)
(-0.00188667 -0.000800248 2.44831e-19)
(-0.000189475 -2.5797e-05 -6.3283e-19)
(-0.000182117 -1.24051e-05 -3.36386e-20)
(-0.000517313 3.40945e-05 9.53613e-20)
(-0.000509387 4.28584e-05 -2.27679e-19)
(-0.000503319 3.06178e-05 -3.33085e-19)
(0.000244574 -0.00572349 1.31915e-17)
(0.022113 0.00168936 -4.97611e-18)
(0.0221843 0.00163224 5.61576e-18)
(0.0220465 0.00154714 8.10508e-20)
(-3.86782e-05 -0.00259831 1.11929e-17)
(-8.04035e-05 -0.00258405 -3.77496e-18)
(-0.00212463 -0.000590207 4.37018e-19)
(-0.00207058 -0.000615562 -4.69728e-19)
(-2.27036e-06 -7.7343e-05 -7.00451e-19)
(-1.66772e-06 -5.10786e-05 -2.31633e-19)
(0.0472317 0.00256355 -3.01394e-18)
(0.0410977 0.00183835 -3.7673e-18)
(0.0531365 0.00184113 1.16678e-17)
(0.028772 0.00361392 1.68357e-17)
(0.0278834 0.00341371 4.12524e-18)
(-0.00432595 -0.00407371 1.82905e-18)
(-0.00423256 -0.00397806 -9.15655e-19)
(0.000251661 -0.00542754 -2.05741e-17)
(0.000226967 -0.00537169 -3.35908e-17)
(-2.10722e-06 -0.000799202 -3.09476e-18)
(-3.21482e-06 -0.000840556 -5.23438e-18)
(-7.50993e-06 -0.00342173 1.53549e-17)
(-2.96881e-05 -0.00335858 3.54677e-17)
(0.0254605 0.0086349 -5.32339e-18)
(0.0251278 0.00894639 -2.4933e-18)
(0.0238131 0.00899658 7.38456e-19)
(-0.0011468 -0.000224031 -9.287e-20)
(-0.00115187 -0.000252422 -1.0218e-19)
(-0.00111554 -0.000238137 -8.59192e-20)
(-0.000316596 -0.00239347 -4.50177e-18)
(-0.000340577 -0.00244183 -6.16973e-18)
(-0.000302497 -0.00242189 -1.0333e-17)
(-3.57711e-05 -0.00548505 4.66558e-17)
(2.92912e-05 -0.00551252 -1.08691e-18)
(-2.50989e-05 -0.00557175 -7.70362e-18)
(1.73546e-05 -0.00132913 -7.6156e-18)
(2.90814e-05 -0.00135943 -8.858e-18)
(0.0407608 0.00131207 -8.02016e-19)
(0.0379819 0.000610444 -3.56833e-18)
(0.04119 0.00108392 2.09238e-17)
(0.000311369 -0.00749013 -2.19436e-18)
(0.000197329 -0.00750422 5.65719e-19)
(0.000226191 -0.00730011 4.46327e-18)
(-0.000173473 -0.00219581 1.98595e-18)
(-0.000144615 -0.00215264 -4.11197e-18)
(-0.00102645 -0.000156598 3.88365e-19)
(-0.00103628 -0.000182913 1.81143e-19)
(-0.001004 -0.000171579 1.32198e-19)
(-0.00332799 -0.00310492 9.12087e-19)
(-0.00324333 -0.00310444 -5.07287e-19)
(-0.00331442 -0.00319799 -1.15024e-18)
(-0.00765592 0.00221561 2.64063e-18)
(-0.00782236 0.00227901 3.60517e-18)
(-0.00771919 0.00207478 -3.41456e-18)
(0.000657888 -0.00723689 6.77765e-17)
(0.000726881 -0.0076427 -7.4781e-17)
(-0.00819006 0.00435397 -1.88498e-18)
(-0.00835528 0.00436225 -1.09119e-17)
(-0.00823374 0.00450077 2.58608e-18)
(-0.00272044 -0.00488523 -2.11422e-18)
(-0.00276839 -0.0048027 3.64953e-18)
(-0.00284856 -0.00488268 1.2939e-18)
(-0.00407226 -0.00205501 4.16471e-19)
(-0.00398823 -0.00211942 -1.0373e-18)
(-0.00396448 -0.00200864 -3.31327e-18)
(0.00868833 0.00201983 7.51469e-18)
(0.00773794 0.00257107 5.6346e-17)
(0.00633881 0.00173148 3.94366e-17)
(-0.00335483 -0.00404745 -5.07231e-19)
(-0.0034219 -0.00392825 -7.2933e-19)
(0.0335872 0.00701903 -1.18517e-18)
(0.0330737 0.00752848 -3.93078e-18)
(0.0322933 0.00746528 -2.89327e-18)
(0.0218557 0.000246594 2.87735e-17)
(0.0215027 5.79435e-05 1.15265e-17)
(0.0416183 0.00110628 -1.1745e-17)
(0.0505736 0.00419102 -8.423e-18)
(-0.000537835 -0.00305558 -5.32499e-18)
(-0.000547422 -0.00311595 -1.0389e-17)
(-0.000500037 -0.00308523 -5.19029e-18)
(0.000250594 -0.0044764 -7.99489e-18)
(0.000224885 -0.00451171 1.63066e-17)
(0.000271719 -0.00453868 2.89186e-17)
(-1.59311e-05 -0.000156975 4.82017e-19)
(-1.55356e-05 -0.000141169 1.16206e-18)
(-4.36474e-06 -0.000123305 2.22373e-19)
(-0.00967243 0.0039036 -5.1036e-19)
(-0.00966656 0.00368156 -1.10831e-18)
(-0.00629559 0.00540686 6.13126e-18)
(-0.00615673 0.00529797 -2.42511e-18)
(-0.00455372 0.00622923 3.50292e-18)
(-0.00419034 0.00656709 -1.33698e-17)
(-0.00318769 -0.000190191 -3.36778e-18)
(-0.00312271 -0.00013268 -2.11369e-18)
(-0.00824283 0.00114771 1.43934e-18)
(-0.00821042 0.00131295 -3.88093e-18)
(-0.00841284 0.00125273 5.2806e-18)
(-0.00164132 -0.000457 -3.95774e-19)
(-0.00169688 -0.000474705 2.64618e-19)
(-0.00165086 -0.0005082 2.02982e-19)
(0.000178397 -0.00411901 -3.11232e-17)
(0.000132517 -0.0041609 -3.82967e-17)
(-0.00319021 -0.00484117 8.11072e-19)
(-0.00304055 -0.00480743 2.63015e-19)
(-0.00315021 -0.00469513 1.73394e-19)
(0.00351949 -0.00036276 2.98589e-17)
(0.00317216 -0.000343141 -3.49788e-18)
(0.00390389 -0.000367868 -3.11401e-18)
(-0.0056458 0.00559014 -5.2846e-20)
(-0.00561342 0.00572662 3.47734e-18)
(-0.0057776 0.00563655 7.57268e-18)
(-0.00169507 -0.00206917 1.14462e-18)
(-0.00173329 -0.00213023 -8.91123e-19)
(-0.00165723 -0.00212203 1.50403e-18)
(0.0400837 0.00349548 6.83938e-18)
(0.0404822 0.0032071 4.50183e-20)
(0.041802 0.00405032 8.71071e-18)
(-0.00257637 -0.00516927 -4.96328e-19)
(-0.00253046 -0.00524343 -1.68389e-18)
(-0.0026553 -0.00526814 1.74894e-18)
(0.0220617 0.0017184 4.30042e-19)
(0.0222978 0.001841 -2.88419e-18)
(0.000690562 -0.00664737 -1.32395e-17)
(0.000550865 -0.00686661 -2.24358e-17)
(0.0407644 0.00160836 9.22642e-18)
(0.0431755 0.00206162 -1.08647e-17)
(-0.00100689 -0.00105272 1.21589e-18)
(-0.00104322 -0.00106827 5.32401e-19)
(-0.00102313 -0.00108945 -2.01543e-18)
(-0.00620949 -0.00485943 -2.39663e-18)
(-0.00620708 -0.00477431 8.54514e-18)
(-0.00501556 -0.00385973 1.50459e-18)
(-0.00502555 -0.00373785 -2.93262e-18)
(-0.00115988 -0.000202423 -6.23563e-20)
(-0.00112672 -0.000206406 -1.97751e-19)
(-4.69743e-05 -0.000248269 4.60865e-19)
(-5.36656e-05 -0.000263796 1.80225e-18)
(-0.00121172 -0.00402375 3.32285e-18)
(-0.00114334 -0.00400238 1.97389e-18)
(-0.00119517 -0.00394973 -1.11835e-18)
(0.0222244 0.00377406 9.11038e-20)
(0.0224772 0.00382376 7.66289e-18)
(-0.00631914 -0.00555436 1.90721e-17)
(-0.00642371 -0.00576296 1.94922e-17)
(-0.00634679 -0.00555928 -6.64334e-18)
(0.00981247 0.00131613 -4.57798e-17)
(0.0141458 0.00360728 -1.98788e-17)
(-0.00590503 -0.00153905 -1.586e-19)
(-0.00583802 -0.00164076 -7.73456e-18)
(-0.00598848 -0.00163693 -4.26384e-18)
(-0.00682443 0.00687871 5.02324e-18)
(-0.00662984 0.00691629 8.14311e-18)
(-0.00641703 0.00714072 -3.26593e-19)
(0.0270619 0.00787433 -4.59459e-19)
(0.0278374 0.007447 2.9878e-18)
(0.0282738 0.00769264 4.02191e-18)
(0.0173852 0.00319967 1.13431e-17)
(0.0166673 0.00296729 -2.97896e-17)
(-0.00659382 -0.00481769 1.04408e-18)
(-0.00639169 -0.00483725 2.37404e-19)
(-0.00666804 -0.00467771 2.25468e-18)
(-0.000126308 -0.000540287 1.71419e-18)
(-0.000115226 -0.000508838 6.36997e-19)
(-0.000113057 -0.000518911 -4.50411e-18)
(0.000247879 -0.00534759 -2.56872e-17)
(0.000238913 -0.00533181 3.5216e-17)
(0.000223609 -0.00540642 -4.67559e-18)
(2.83317e-05 -0.00445195 -1.33567e-17)
(-2.76764e-05 -0.00448118 -2.02126e-17)
(-0.00036483 -1.05589e-05 -1.42042e-19)
(-0.000354595 -1.06659e-05 -5.86527e-20)
(-0.00133668 -0.000797105 -6.23393e-19)
(-0.0013805 -0.000784069 5.91411e-20)
(-0.000539633 -0.00715867 8.08269e-18)
(-0.000576167 -0.00698906 -4.15081e-18)
(-0.000703444 -0.00713605 -1.47412e-17)
(-0.00180117 -0.00882512 -1.29731e-17)
(-0.000807325 -0.0091987 -1.56978e-17)
(0.0174381 -7.13653e-05 -6.67861e-18)
(-0.00414677 0.00143671 -7.89648e-18)
(-0.00422967 0.00149189 -1.1153e-20)
(-0.00424625 0.00138633 -3.94214e-18)
(-0.0001281 -3.56906e-05 -8.19808e-19)
(-0.000127067 -2.21016e-05 -2.58473e-19)
(-0.00788131 0.00161507 -3.16061e-18)
(-0.00771489 0.00153298 1.18183e-17)
(-0.00791769 0.0014203 -1.90955e-18)
(-0.0076015 0.00237796 -1.44092e-18)
(-0.00748609 0.0021833 6.59198e-18)
(0.0180911 -0.000623333 1.01087e-17)
(0.0179047 -0.000550504 -4.04759e-19)
(0.0443786 0.00346282 -1.4858e-17)
(0.0421262 0.00337336 -9.12692e-18)
(0.0300431 0.00168923 -5.6363e-18)
(-0.00020777 -0.00120094 1.12319e-18)
(-0.000202562 -0.00123177 -2.18106e-18)
(-0.000716443 -0.00167932 1.6786e-18)
(-0.000769007 -0.00166773 1.32214e-18)
(-0.00845537 0.000141473 1.3938e-17)
(-0.00861912 0.000225107 3.12864e-18)
(0.0241246 0.00386766 7.69964e-18)
(0.0246109 0.00425139 6.36705e-18)
(0.0247412 0.00412284 -6.32038e-18)
(-0.000314819 -0.00232429 2.9135e-18)
(-0.000357101 -0.00237664 7.84861e-18)
(0.0242434 0.00338126 8.17381e-18)
(0.0243771 0.00325881 6.59151e-18)
(0.0248087 0.0036183 -5.37996e-19)
(0.0175799 -0.000211629 6.15713e-21)
(0.0177462 -0.000417657 -1.29437e-17)
(0.0179564 -0.000210919 1.72024e-17)
(-0.00680338 0.0066872 -1.59131e-17)
(-0.00708306 0.00692745 -4.1442e-18)
(-0.000757414 -0.000373028 8.063e-19)
(-0.000788058 -0.000385497 1.87776e-19)
(0.000207138 -0.00603349 5.72748e-19)
(0.000230723 -0.00611462 9.38547e-18)
(0.000222872 -0.00614986 -1.64419e-17)
(-0.00799034 0.000443716 5.11722e-19)
(-0.00815447 0.000353598 -1.58693e-17)
(-0.00797574 0.000267055 3.0811e-18)
(0.00703247 -0.000621493 1.30825e-17)
(0.00745796 -0.000810369 2.92161e-18)
(0.00745347 -0.000658389 1.9768e-17)
(-0.000495624 -0.000932758 2.55789e-18)
(-0.000515457 -0.000936696 -6.58819e-19)
(-0.000515266 -0.000970272 4.09352e-21)
(0.041942 0.00964147 -4.409e-18)
(0.0409683 0.0102902 -7.61328e-18)
(-0.000961447 -0.00104011 3.48813e-19)
(-0.000981946 -0.00101612 4.09501e-19)
(-0.00745496 -0.00420515 3.47447e-18)
(-0.00745911 -0.00406874 1.55038e-17)
(-0.00733425 -0.00413838 6.22543e-18)
(-0.000321372 -4.29049e-05 -6.31035e-19)
(-0.000315784 -3.11764e-05 2.83508e-19)
(0.0243218 0.000799524 -6.39291e-18)
(0.0240374 0.000868904 -3.97467e-18)
(0.0243516 0.000770196 3.47549e-19)
(0.0327262 -0.0015412 -6.32607e-18)
(0.0324323 -0.00177186 1.13279e-18)
(0.0357663 -0.00131604 -2.08469e-17)
(-0.0018198 -0.00323079 -2.92341e-18)
(-0.00187908 -0.00318154 -2.38734e-18)
(-0.00211069 -0.00928469 -3.55745e-18)
(-0.00427649 -0.0107653 6.29681e-18)
(-0.00207191 -0.00939793 1.94484e-17)
(-0.00418129 -0.00209245 2.67671e-18)
(-0.00413902 -0.00198258 3.75723e-19)
(-0.000728926 -0.000379648 -5.34986e-19)
(-0.000723529 -0.000354175 1.30043e-18)
(0.0248675 0.00939956 -1.11847e-17)
(0.0256362 0.0091377 -4.99523e-18)
(-0.00552913 0.00550087 6.37971e-18)
(-0.00567105 0.00543726 -5.0889e-18)
(-0.00583208 -0.00144233 3.77709e-18)
(-0.00596132 -0.00143509 5.33334e-19)
(0.0281027 0.0038517 1.22945e-17)
(0.0273386 0.00361081 3.51694e-18)
(0.0281865 0.00400589 -2.81132e-18)
(0.0171608 -0.000196662 3.79639e-18)
(0.0168503 1.9237e-05 1.45312e-17)
(-0.000447096 -8.11365e-05 -1.77332e-19)
(-0.000458228 -7.90563e-05 2.20939e-19)
(-0.000448109 -6.93152e-05 -8.30203e-19)
(-0.00355653 -0.00287977 -4.32515e-21)
(-0.00355014 -0.00297218 -3.9202e-19)
(0.0220874 -0.000876087 2.7358e-17)
(0.0224249 -0.000810233 3.2018e-18)
(0.0119891 -0.000227303 -1.55818e-17)
(0.0110039 -0.00040514 2.95595e-17)
(0.0117752 -0.000760077 -1.298e-17)
(-1.41577e-05 -0.000156235 -5.3624e-19)
(-1.46557e-05 -0.00018231 -1.56617e-18)
(-0.000327403 -0.000369957 4.36614e-19)
(-0.000348124 -0.000375798 2.59562e-20)
(-0.000343584 -0.000390447 2.84438e-19)
(0.0183801 0.000543004 -1.4931e-17)
(0.0184048 0.000530055 -1.3114e-17)
(-0.0110093 0.00348343 4.53031e-18)
(-0.0107814 0.00362584 5.14736e-18)
(-0.0113091 0.00373593 -1.01568e-17)
(-2.27373e-06 -5.29091e-06 -4.47343e-19)
(-1.0256e-06 -4.02328e-06 9.1163e-19)
(-2.21341e-06 -6.6493e-06 9.39733e-20)
(0.0225879 0.0103517 -6.86965e-18)
(0.0221998 0.0105653 1.24022e-17)
(0.0209599 0.0107149 2.45338e-18)
(-0.00939347 -0.00249143 -9.54355e-18)
(-0.00951834 -0.00231542 9.20996e-18)
(-0.00929982 -0.00228124 5.43771e-18)
(0.000254634 -0.00442025 -5.92036e-17)
(0.000283379 -0.00446797 -3.86083e-17)
(-0.00433606 -0.00350397 -2.01127e-18)
(-0.00440263 -0.00361322 -3.97935e-18)
(-0.00444775 -0.00349216 1.8291e-19)
(-1.62201e-05 -0.000165746 -6.60797e-19)
(-1.4013e-05 -0.000138326 -6.68568e-20)
(-0.00207659 -0.00527697 2.36536e-18)
(-0.00209393 -0.00513463 4.03403e-18)
(-0.00195948 -0.00518186 8.18859e-18)
(0.0191189 -0.000250762 -2.36706e-18)
(0.0194039 -0.00013338 5.44072e-18)
(0.0191014 2.54512e-05 -1.70064e-17)
(-0.00170866 0.000748621 -5.45584e-19)
(-0.00170286 0.000808394 -2.63306e-18)
(-0.00177197 0.000783697 -5.04381e-19)
(-0.00619842 -0.00512674 1.42966e-18)
(-0.00612841 -0.00511445 1.86224e-17)
(-0.00619584 -0.00506132 5.21814e-18)
(0.000251607 -0.00548511 -1.26825e-17)
(0.000188644 -0.00551503 3.10931e-18)
(0.000245265 -0.00559227 -2.08483e-17)
(-0.00183156 -0.000720158 1.06033e-19)
(-0.00187724 -0.000698759 8.08586e-20)
(-0.000673133 -0.00154786 -1.50645e-18)
(-0.000682711 -0.00157179 3.01361e-18)
(-0.0073801 0.00394055 -8.45863e-18)
(-0.00756253 0.00398773 5.79119e-19)
(-0.0074089 0.00411645 9.46518e-19)
(0.01836 0.000627668 1.12369e-18)
(0.018389 0.000573704 5.45616e-18)
(0.0184213 0.00057096 -9.14683e-19)
(-0.00797825 0.00439529 -6.27579e-18)
(-0.00808888 0.00419299 2.71996e-18)
(-0.00127216 -0.00406219 -5.54285e-18)
(-0.00120889 -0.00412154 4.21828e-18)
(-0.00155527 -0.00340413 -1.12646e-17)
(-0.0015485 -0.00349514 -1.65248e-18)
(-2.19756e-06 -1.16224e-05 -2.55355e-21)
(-2.05413e-06 -1.0064e-05 4.3219e-19)
(-7.66895e-07 -6.75407e-06 8.38575e-19)
(0.0228807 0.001126 1.13328e-17)
(0.0235007 0.000550382 -9.25463e-18)
(0.0451041 0.000501324 -2.18406e-17)
(0.0482965 0.000831189 -2.55303e-18)
(0.0482645 0.00092128 -4.21015e-18)
(0.0213056 0.0101695 4.10139e-18)
(0.0220465 0.0100329 -7.21899e-18)
(0.0222172 0.00960117 -1.81451e-17)
(-0.000708636 -0.000385638 -1.32154e-18)
(-0.000737407 -0.00039761 -3.7416e-19)
(0.0144171 -0.000923685 -1.88725e-17)
(0.0148288 -0.00126127 9.87595e-18)
(0.0142907 -0.00119555 9.86986e-18)
(0.0242648 0.000515835 8.32536e-18)
(0.0243158 0.000473422 -5.66631e-19)
(0.0246431 0.000510835 -1.75907e-18)
(0.0349086 0.00660834 1.06573e-17)
(0.034072 0.00653687 -5.29932e-19)
(0.0192438 0.00221597 -7.07191e-18)
(0.0192644 0.0019768 -5.10789e-18)
(-0.00536544 0.00521059 4.36568e-18)
(-0.00530187 0.005184 3.71029e-18)
(-1.93805e-05 -0.00019665 2.54278e-18)
(-0.000253829 -3.01481e-05 2.62486e-19)
(-0.000242031 -3.07467e-05 7.32902e-20)
(-0.000256549 -4.49767e-05 -9.48325e-19)
(-0.00771616 -0.000892466 6.53149e-18)
(-0.0075904 -0.000789525 1.69589e-17)
(-0.00776987 -0.000735038 4.80671e-18)
(0.0238403 0.000245258 6.90972e-18)
(0.0238042 0.000258844 -3.45343e-19)
(0.0237293 0.000245247 7.99818e-19)
(-0.011293 3.06958e-05 -2.23257e-18)
(-0.0113135 -0.000219303 -1.31214e-17)
(-0.0114266 -6.16675e-06 -4.93625e-18)
(-0.00366003 -0.00121751 -7.84441e-19)
(-0.00374937 -0.00116378 3.19223e-19)
(0.046034 0.00345063 -9.4807e-18)
(0.0494564 0.00308435 -1.07992e-17)
(-0.0048424 0.00418453 1.83055e-18)
(-0.00476297 0.00413945 -2.93895e-18)
(-0.000485357 2.61685e-05 3.8824e-19)
(-0.000492436 2.88714e-05 3.80286e-19)
(-0.000484653 3.54893e-05 4.28017e-19)
(0.0522282 0.00431046 -7.71456e-18)
(0.051974 0.00410881 3.28875e-18)
(0.0505591 0.00353443 -8.26636e-18)
(-0.000110402 -0.000220086 -7.61259e-20)
(-0.000107748 -0.000208676 4.29883e-19)
(-9.83352e-05 -0.000204385 -6.33617e-19)
(0.039531 0.00358932 -1.07222e-17)
(0.0376747 0.00275848 6.07024e-18)
(-0.00405391 0.00135975 7.15611e-19)
(-0.00403266 0.00146576 -3.31688e-18)
(-2.47464e-06 -4.09421e-06 -4.81332e-19)
(-3.8404e-06 -6.5023e-06 5.82044e-19)
(-0.00206585 -0.00348642 -2.58427e-19)
(-0.00209529 -0.00357725 -1.07457e-18)
(-0.00200501 -0.00352211 -6.74148e-19)
(-0.00268437 -0.00498227 -3.22875e-18)
(-0.00261375 -0.00487668 -3.4594e-19)
(0.000165906 -0.00451519 1.77727e-17)
(0.000192495 -0.00445476 -4.0984e-17)
(0.0237086 0.00992095 -1.49399e-17)
(0.0230343 0.010276 -9.07902e-18)
(-0.00223601 -0.00418672 8.05114e-18)
(-0.0022518 -0.004289 5.67342e-18)
(-0.00215197 -0.00422121 -4.26653e-18)
(-0.00203233 0.000390144 -1.43174e-19)
(-0.00208797 0.000349094 -5.42126e-19)
(-0.00202027 0.000337142 1.17067e-18)
(-0.0208148 -0.00708139 1.22567e-17)
(-0.0211392 -0.00731868 9.8146e-18)
(-0.0150537 -0.00590353 1.57861e-17)
(0.0288349 0.00405849 4.24953e-18)
(0.0278489 0.00361663 7.56571e-18)
(0.0416168 -0.000252579 1.37987e-17)
(0.0421992 -9.16902e-05 -7.95593e-18)
(-0.000477515 -0.000937374 -1.31174e-18)
(-0.000469862 -0.000904102 7.01319e-18)
(0.0371817 0.00690573 -6.27849e-18)
(0.0365936 0.00740371 -4.95914e-19)
(0.0379728 0.00687447 8.66968e-18)
(-3.75265e-06 -0.000434878 1.0326e-18)
(-4.98807e-06 -0.000442802 6.69643e-18)
(-6.63677e-07 -0.000476035 8.68958e-18)
(-0.00199174 0.000440129 -2.5778e-18)
(-0.00206291 0.000452451 5.74737e-20)
(-0.000286761 -0.000750879 1.23879e-18)
(-0.000302906 -0.000752014 4.71812e-18)