/*--------------------------------*- C++ -*----------------------------------*\
| =========                 |                                                 |
| \\      /  F ield         | OpenFOAM: The Open Source CFD Toolbox           |
|  \\    /   O peration     | Version:  v2012                                 |
|   \\  /    A nd           | Website:  www.openfoam.com                      |
|    \\/     M anipulation  |                                                 |
\*---------------------------------------------------------------------------*/
FoamFile
{
    version     2.0;
    format      ascii;
    class       volScalarField;
    location    "650";
    object      k_0;
}
// * * * * * * * * * * * * * * * * * * * * * * * * * * * * * * * * * * * * * //

dimensions      [0 2 -2 0 0 0 0];


internalField   nonuniform List<scalar> 
13917
(
0.000167234
0.000150322
0.0622276
0.000158607
0.000148667
0.000192704
0.0576196
0.0635176
0.0640091
0.000174868
0.000198553
0.000187273
0.00015882
0.0098601
0.00015606
0.00015518
0.000150646
0.000176887
0.00018707
0.000148664
0.000149757
0.0561251
0.000148552
0.0653182
0.000148369
0.0555888
0.000161866
0.000164709
0.000205773
0.000184365
0.000168866
0.000159357
0.000160518
0.00015466
0.000148509
0.0463884
0.000148607
0.03509
0.000162447
0.0194527
0.00014776
0.000149896
0.000146294
0.000168644
0.000150887
0.000156081
0.000176618
0.000183501
0.000384547
0.000147996
0.000161418
0.00014997
0.000540658
0.00015499
0.000150675
0.000160199
0.000209213
0.000149016
0.000157308
0.000150612
0.0730246
0.000150374
0.00585148
0.000148586
0.000191306
0.0152794
0.000148648
0.000148523
0.000215982
0.000164702
0.000148714
0.0661643
0.0311017
0.000148366
0.000378247
0.000192208
0.0221657
0.000153453
0.0535436
0.000149539
0.000149311
0.000148689
0.000189649
0.0384983
0.0385268
0.000153221
0.000149139
0.00475321
0.000161031
0.000146343
0.0346034
0.000180266
0.000148931
0.00015181
0.00853001
0.000189688
0.000196808
0.000181416
0.00019823
0.000170593
0.000146932
0.000158822
0.000168505
0.000154967
0.000147381
0.0680552
0.00019296
0.000184521
0.000150712
0.000169742
0.0348598
0.0218658
0.000192984
0.066286
0.000151321
0.000397348
0.000148143
0.000264774
0.0232663
0.000154977
0.000149809
0.000215804
0.0244995
0.00016409
0.000147833
0.000151509
0.000150393
0.000147896
0.000146006
0.00019149
0.0365552
0.000151149
0.000150942
0.000149811
0.0206295
0.0657839
0.000167367
0.000171164
0.000148606
0.000154819
0.0339609
0.000148384
0.000150667
0.000170634
0.000148545
0.0720228
0.000209228
0.000149827
0.000147977
0.000159748
0.000180892
0.000398932
0.000191351
0.000164947
0.000159377
0.0212256
0.0001638
0.0554607
0.0179653
0.0204592
0.000153479
0.000161916
0.000149541
0.000195946
0.000192591
0.000211682
0.000154844
0.000181288
0.00014979
0.000159244
0.000165703
0.0194918
0.000195012
0.000151505
0.0718294
0.000166027
0.0389201
0.000300934
0.0722706
0.000148593
0.000181315
0.00016968
0.000148443
0.000149074
0.000158763
0.0581799
0.000210361
0.0277038
0.000168242
0.000203395
0.033518
0.0431925
0.000208716
0.000148624
0.000172435
0.000161485
0.000155359
0.000148989
0.000181826
0.000640721
0.000161862
0.000148096
0.000180052
0.000180765
0.0271593
0.0180151
0.000148483
0.000149122
0.000181196
0.0607881
0.000150403
0.0572669
0.0197382
0.000203583
0.000147374
0.000198188
0.000178994
0.0209285
0.000148075
0.0693424
0.000148501
0.000183602
0.00014746
0.0367062
0.0677697
0.000155538
0.000343503
0.000159774
0.000147346
0.0431955
0.000194641
0.000168073
0.065414
0.0160645
0.000146649
0.000159901
0.0381828
0.0296269
0.000149483
0.00014765
0.0227211
0.000198921
0.000149757
0.028382
0.000187269
0.000161671
0.000166254
0.000149483
0.000165164
0.0179784
0.000151898
0.000185017
0.000173855
0.000150298
0.00014893
0.000186475
0.0286544
0.000190404
0.000158954
0.000156349
0.00014979
0.0198465
0.0744934
0.0403708
0.000147344
0.0290482
0.0173075
0.0610331
0.0520074
0.000193591
0.000149387
0.000147491
0.000177001
0.0311857
0.000193789
0.000156931
0.0282789
0.000179153
0.000145947
0.0581964
0.000148498
0.0717432
0.00016116
0.000149722
0.000157625
0.000164893
0.000161964
0.0331958
0.000161086
0.00015181
9.35138e-05
0.0659956
0.0743759
0.000148064
0.0627687
0.000149087
0.000151845
0.000148166
0.000225786
0.000148573
0.000185165
0.000165559
0.000149721
0.000180374
0.000153152
0.000359148
0.000165732
0.000179078
0.000149335
0.000148848
0.0327718
0.0226113
0.000148127
0.000147477
0.0550744
0.000148608
0.0336167
0.000149154
0.0390559
0.000154849
0.000213224
0.000168272
0.000411276
0.000153054
0.00542009
0.000184556
0.000157636
0.000199104
0.000199072
0.000150175
0.0350241
0.000172211
0.0203962
0.000153965
0.0194343
0.000160667
0.0459321
0.000181256
0.000173873
0.000173369
0.0598002
0.000149395
0.000166252
0.0387285
0.000149634
0.000153135
0.0189353
0.000184725
0.000151399
0.0242388
0.000202224
0.000147084
0.0197393
0.0390831
0.000148455
0.000147512
0.000149141
0.000147979
0.000118465
0.0722311
0.000211509
0.0368201
0.000148261
0.000187048
0.00684735
0.000174761
0.0559593
0.0349489
0.0661564
0.000146764
0.0362209
0.000147423
0.0627692
0.000150558
0.000442399
0.000187249
0.000160236
0.000149264
0.000180408
0.000183042
0.000182807
0.000648287
0.0415752
0.016327
0.000165598
0.000173915
0.000147683
0.032782
0.0546804
0.000149228
0.00148966
0.000148372
8.02024e-05
0.000154768
0.000149467
0.00015312
0.0511959
0.000153029
0.0320864
0.0110052
0.000209411
0.0001945
0.000150164
0.000194514
0.000191422
0.000148215
0.000186243
0.000149524
0.00014839
0.000184256
0.000149719
0.000148425
0.000147404
0.000188471
0.000149619
0.0223141
0.0576181
0.00476467
0.000205582
0.0364962
0.0209518
0.000174408
0.000148257
0.000199201
0.000161928
0.000161024
0.000148581
0.0720672
0.0582561
0.0596075
0.000154948
0.000190095
0.000153571
0.000163021
0.000182696
0.00015237
0.0378163
0.000150712
0.00014854
0.037312
0.0377542
0.0398389
0.000183786
0.00328057
0.0385411
0.0404222
0.0218322
0.000146119
0.000179161
0.000152478
0.000149253
0.00722381
0.00017722
0.000151167
0.000177924
0.000172846
0.0207382
0.000148194
0.000194874
0.0174483
0.000229148
0.0261186
0.000149673
0.000149266
0.000155346
0.000163804
0.000146731
0.0599977
0.000201874
0.000161084
0.0326451
0.000160157
0.000196539
0.044283
0.000210457
0.000209335
0.0382531
0.000195011
0.000176965
0.000199071
0.000177118
0.000139931
0.000206736
0.000180469
0.000187237
0.000149135
0.0137026
0.000162111
0.000149458
0.000162948
0.00015388
0.0225307
0.0670791
0.000148489
0.000146244
0.0624794
0.0171304
0.000149721
0.0216333
0.000155227
0.000198704
0.000148614
0.0254582
0.0446591
0.000159742
0.000151332
0.0397177
0.000205971
0.0103778
0.000149777
0.0204099
0.000366445
0.0564321
0.000149442
0.0346296
0.0669818
0.000175098
0.000147493
0.000150474
0.00019257
0.000543417
0.000150394
0.000147502
0.000147607
0.000147574
0.025271
0.00716196
0.000174779
0.000207484
0.000148008
0.000146944
0.000189702
0.0566893
0.000165554
0.000149954
0.000148373
0.00014848
0.0611665
0.0479785
0.000149098
0.000148491
0.034767
0.000176662
0.000168288
0.000149164
0.000153176
0.000158104
0.00018685
0.000193537
0.00020996
0.0002008
0.000189367
0.0247991
0.000178835
0.000148091
0.021165
0.000148491
0.000153572
0.000158823
0.0119779
0.000170892
0.000147013
0.000231815
0.000186887
0.00735086
0.000189385
0.000160876
0.000174113
0.000149197
0.0724589
0.000215348
0.0523338
0.000150377
0.000162912
0.00021137
0.0365085
0.0065624
0.000182181
0.000186397
0.000154986
0.000155453
0.000149197
0.000165958
0.000169251
0.000149273
0.000178833
0.000172828
0.0535224
0.0122599
0.000154605
0.000195891
0.0377904
0.000158694
0.000150222
0.000448571
0.0733146
0.069908
0.000207646
0.000146092
0.0220521
0.000191779
0.000147519
0.000163383
0.000186811
0.000159935
0.000184324
0.0533838
0.000198631
0.000174054
0.0724147
0.000154459
0.0182256
0.000149546
0.000149048
0.0645941
0.0729892
0.000204438
0.000154482
0.000151358
0.000148495
0.000179508
0.000427855
0.000206394
0.000155814
0.000202693
0.000180125
0.000148643
0.000319973
0.000206432
0.0426193
0.000148072
0.000198159
0.000153752
0.0155179
0.000175393
0.000170789
0.000163114
0.000147157
0.000148744
0.000150582
0.000174876
0.000156331
0.00022728
0.000519515
0.00018084
0.000147125
0.000197256
0.000205496
0.0499695
0.000151667
0.000156009
0.000147531
0.000166503
0.000157622
0.0654514
0.000149481
0.00036505
0.000165859
0.00020735
0.000179984
0.0307573
0.000171669
0.000150324
0.0290827
0.00780836
0.000149283
0.000158749
0.0412463
0.000204356
0.000193811
0.000149544
0.000151502
0.000202378
0.000160519
0.000182319
0.000185572
0.000148911
0.000181059
0.0628094
0.000151806
0.000156771
0.000147736
0.0212077
0.000149748
0.000154577
0.0209903
0.000152737
0.0733638
0.000159357
0.00016074
0.000147691
0.000167364
0.0001482
0.000176091
0.000147183
0.000174366
0.000155168
0.0178663
0.000311917
0.056676
0.000153758
0.000149315
0.000178057
0.000171391
0.0237028
0.0608826
0.000176482
0.000148459
0.000198253
0.000204488
0.0398239
0.000212788
0.000176553
0.0540168
0.000166605
0.000178025
0.000195258
0.000178802
0.000176179
0.000230653
0.000175525
0.000157839
0.000188079
0.000157806
0.000150163
0.000166236
0.000169883
0.000159095
0.00014826
0.000147588
0.000180533
0.000156013
0.000182603
0.000148427
0.00014843
0.000149804
0.000152863
0.000146713
0.000157205
0.000147869
0.0246127
0.000187371
0.000188527
0.000146807
0.000149617
0.00016393
0.00017725
0.000150798
0.0686118
0.00017613
0.0469076
0.000166142
0.000192736
0.000153114
0.000149773
0.000147465
0.000153153
0.0154457
0.000149674
0.0451873
0.000157549
0.0083268
0.000165966
0.000176761
0.000206505
0.000147003
0.000149934
0.000187555
0.000148562
0.000150478
0.0600358
0.000151706
0.000149139
0.000160675
0.000147586
0.000146706
0.000159357
0.00015678
0.0190007
0.000164746
0.00015183
0.000147459
0.0399913
0.000174837
0.00014997
0.00015039
0.0628313
0.040204
0.0167902
0.000160884
0.000157838
0.000146701
0.000146536
0.000180847
0.000165478
0.0104506
0.000154288
0.0321765
0.000150982
0.000152829
0.0141365
0.000148402
0.000162448
0.000148932
0.000148427
0.000169062
0.000162181
0.000152591
0.0730261
0.0256673
0.00018048
0.00014809
0.000147542
0.00020269
0.0397449
0.000149716
0.0168568
0.000147355
0.00016888
0.000151253
0.000150276
0.000832544
0.000150969
0.0620103
0.000168509
0.000149803
0.000146447
0.000148821
0.000148021
0.000156437
0.000429223
0.000151298
0.000149408
0.0597141
0.0702494
0.000175049
0.000170773
0.000182043
0.00015851
0.000148444
0.000156604
0.0255085
0.000175127
0.000148804
0.000151148
0.0623271
0.000169158
0.0420616
0.000149752
0.00015099
0.0187448
0.000167777
0.000152941
0.0142116
0.000294698
0.000147969
0.000192832
0.000147451
0.00015071
0.000146799
0.0319712
0.000146592
0.000152701
0.000148493
0.0626869
0.000160905
0.00019876
0.000165674
0.000150503
0.000159061
0.000149095
0.0381112
0.000147765
0.00015148
0.000149145
0.00020466
0.000149089
0.000198722
0.0217462
0.0660755
0.000155637
0.0361538
0.0247497
0.000148828
0.0186231
0.0727234
0.0277383
0.0362842
0.0585531
0.00769567
0.000195815
0.000150613
0.052123
0.000167523
0.0530224
0.000149246
0.000148967
0.000150035
0.000149046
0.000159962
0.000158744
0.0255239
0.000148894
0.000148497
0.00962481
0.000187634
0.000148813
0.000160866
0.000162391
0.000151804
0.000303001
0.000161129
0.000152941
0.00016075
0.0211061
0.0176124
0.000252422
0.000151056
0.000203478
0.000186895
0.0274987
0.0660171
0.000194916
0.000148649
0.00015329
0.000150942
0.000145797
0.00015313
0.000146017
0.000158217
0.00016604
0.0364779
0.000197463
0.000152692
0.000192158
0.0415411
0.000168128
0.000149948
0.0194304
0.000149519
0.000150239
0.000160924
0.0378191
0.000149097
0.000148104
0.0567386
0.0264258
0.0347451
0.000191365
0.0439343
0.000147946
0.000201028
0.000150084
0.000147988
0.000150044
0.0585367
0.0206103
0.000149641
0.000146518
0.000149085
0.0454648
0.00015263
0.000163274
0.000148531
0.000151039
0.00019959
0.0001507
0.000176685
0.000196339
0.0406132
0.000150106
0.000173361
0.00015476
0.028836
0.0397215
0.000148379
0.0317559
0.0001832
0.00026957
0.000149085
0.0498326
0.000149604
0.000159868
0.000168168
0.000191024
0.0612783
0.0451943
0.000563288
0.0732287
0.000147061
0.000139939
0.000150303
0.000157821
0.0562
0.00014933
0.000149661
0.000152582
0.000151457
0.0346592
0.000146751
0.000148493
0.000181233
0.000171488
0.00017749
0.0002022
0.00019778
0.0151282
0.000188674
0.000168549
0.000177681
0.0266889
0.000175395
0.0511404
0.0541718
0.000160321
0.000150908
0.0371543
0.0414194
0.000149851
0.000190225
0.000166031
0.000153887
0.00016052
0.000151669
0.000168343
0.000149943
0.000176217
0.000171293
0.000147436
0.000177448
0.000149802
0.000167833
0.00014716
0.000155153
0.000179451
0.000156324
0.000151963
0.000149622
0.000282849
0.000177977
0.0731645
0.00014844
0.000150261
0.000181108
0.000148908
0.000184843
0.000177963
0.000153852
0.000187642
0.000149689
0.0666399
0.000149749
0.000173706
0.0213438
4.64663e-05
0.000148024
0.000153449
0.0180844
0.000147995
0.000147599
0.0307351
0.0356531
0.000153288
0.000444819
0.000148598
0.000152024
0.0595353
0.000152992
0.000147041
0.00498695
0.000150063
0.0482579
0.000149266
0.000146956
0.000149974
0.000195361
0.0320909
0.000149394
0.000150141
0.000147925
0.000155928
0.00014839
0.000224827
0.000177255
0.000149773
0.0721186
0.000166068
9.97986e-05
0.0407499
0.000434473
0.000149515
0.000149802
0.000149273
0.00020637
0.000156316
0.0317423
0.0234176
0.000153031
0.0549234
0.000321914
0.000176706
0.000104441
0.000170519
0.000190038
0.0623085
0.000168361
0.000352536
0.0409493
0.000186308
0.000155252
0.0274999
0.000164753
0.000149269
0.000155358
0.0649652
0.000164331
0.000148437
0.000167677
0.000186534
0.000166395
0.0275945
0.000153861
0.0734632
0.000177086
0.0403293
0.000192457
0.00020457
0.000161838
0.000149522
0.000151479
0.0640641
0.000148061
0.000153309
0.000148058
0.000153198
0.000149131
0.000161202
0.000150638
0.000303409
0.000163559
0.000165074
0.0606747
0.000191954
0.000149303
0.0427699
0.0592358
0.000147697
0.000147565
0.000163574
0.0181111
0.000149668
0.000181243
0.000207827
0.000168519
0.000148923
0.000156518
0.000150336
0.000190106
0.000164431
0.000147812
0.0187546
0.0537223
0.000164765
0.0240346
0.000186794
0.00129132
0.000152662
0.000158858
0.0644726
0.0315936
0.000195071
0.000260936
0.000159894
0.000149827
0.000151154
0.000150387
0.000148614
0.000150771
0.000168199
0.00014805
0.000199028
0.000147585
0.000161269
0.000150145
0.000176926
0.000201487
0.000288288
0.000148734
0.000207259
0.000151095
0.0664011
0.00014837
0.000154565
0.000148762
0.00122323
0.0278954
0.00015579
0.000148067
0.000197501
0.000149311
0.000161076
0.0345522
0.000150439
0.000150063
0.000170713
0.000163399
0.0554192
0.000148077
0.000159219
0.00015718
0.000148292
0.000159263
0.000151138
0.000146581
0.000152684
0.0200013
0.000155751
0.0214114
0.0707559
0.000176057
0.0341479
0.000155319
0.000146593
0.000159836
0.0165776
0.000157415
0.00016355
0.000175472
0.000418668
0.000147931
0.00334302
0.000178151
0.000181838
0.000147615
0.000146445
0.000537837
0.000150273
0.000149897
0.000159451
0.000148998
0.000153656
0.000160481
0.000186975
0.000183409
0.0573569
0.00016182
0.000187414
0.0606376
0.0172852
0.000173587
0.000182027
0.0176382
0.000170767
0.0616692
0.000152437
0.00586103
0.00329894
0.000149698
0.000149722
0.000147711
0.000154666
0.000170249
0.000150353
0.000152784
0.000195165
0.000154645
0.00016117
0.0317821
0.000158135
0.00015729
0.0639188
0.000152864
0.0214787
0.000159186
0.000165981
0.000147888
0.0196995
0.0211731
0.000149349
0.000154889
0.0535563
0.000157759
0.01308
0.000148024
0.000150145
0.0539599
0.000154342
0.000163148
0.00904041
0.000148483
0.000176226
0.000160748
0.000146507
0.000147347
0.0526099
0.0233596
0.000150833
0.000155921
0.000149127
0.000157794
0.000160315
0.0205898
0.000151065
0.000334112
0.0624164
0.0401776
0.0403238
0.000154102
0.000206163
0.000179158
0.000157499
0.000148443
0.00018399
0.0333372
0.000152342
0.000163482
0.0651906
0.000454409
0.000185811
0.000154268
0.000150119
0.000149609
0.000148493
0.0182711
0.000179394
0.000157351
0.000155255
0.00015641
0.000149782
0.00014877
0.000148557
0.000186974
0.000175859
0.071981
0.000164164
0.00843295
0.0339344
0.000159624
0.000177068
0.0001469
0.000158728
0.0166754
0.000150109
0.000153651
0.000178196
0.000194089
0.000164803
0.0569988
0.0247967
0.00014948
0.0324551
0.000146338
0.000151912
0.000164816
0.000149805
0.000151912
0.00021537
0.0727046
0.000150043
0.0621251
0.000150122
0.000149524
0.000153547
0.000362711
0.000160454
0.000159242
0.0678691
0.000152865
0.00725755
0.0416113
0.000149607
0.000164358
0.000147951
0.0214747
0.000181751
0.000148576
0.0571611
0.000178098
0.00016849
0.000149843
0.0201002
0.000157936
0.000191642
0.000156386
0.000168295
0.019834
0.000149424
0.000246875
0.000149316
0.000177744
0.000164548
0.000149601
0.026532
0.000153184
0.000193786
0.000177171
0.000169841
0.000163958
0.000163986
0.000150897
0.0650599
0.000160012
0.0192293
0.000158626
0.000185113
0.000149865
0.000169716
0.000148878
0.000189848
0.0637689
0.000151901
0.000148102
0.000422222
0.000153887
0.061836
0.000152342
0.0620476
0.0424145
0.000164733
0.000148034
0.000147765
0.000148686
0.000146105
0.000188432
0.000166852
0.000161134
0.000157189
0.000148451
0.0223812
0.000156199
0.000163913
0.0580525
0.000148758
0.0188872
0.000177831
0.000167995
0.000250575
0.0297638
9.94894e-05
0.0643623
0.0276649
0.000147949
0.00019705
0.025141
0.000187044
0.000149089
0.0001496
0.000197261
0.0560092
0.0220158
0.000220383
0.000154536
0.000165148
0.000171281
0.0394504
0.00275229
0.000175136
0.000198207
0.000154139
0.000177581
0.000195251
0.000149032
0.000186951
0.0660925
0.000148807
0.0552134
0.000149661
0.00015068
0.025436
0.03697
0.000147051
0.00015488
0.000151924
0.000149925
0.000167618
0.000216985
0.000156414
0.000147909
0.00014857
0.000175912
0.000159802
0.000159377
0.000140404
0.000148536
0.0394011
0.0136284
0.0489808
0.000176287
0.000174493
0.0326927
0.000166955
0.0519518
0.0487425
0.0110826
0.000150979
0.0675888
0.0343911
0.000146634
0.000148261
0.000184477
0.0421514
0.062336
0.000150703
0.000149302
0.0385158
0.00109023
0.00777189
0.000154874
0.000152929
0.000304264
0.000149837
0.0415262
0.0281016
0.0473567
0.000208932
0.000148981
0.000148036
0.000147195
0.000155347
0.0286067
0.00017433
0.000160638
0.000150637
0.00017418
0.0183218
0.000176007
0.0720333
0.012416
0.0222612
0.000319563
0.000148423
0.000149081
0.0629174
0.000146568
0.000149136
0.000152233
0.000428549
0.000169647
0.0362464
0.000192006
0.00014827
0.0587789
0.000168482
0.00014909
0.0140514
0.000176588
0.00015417
0.000152478
0.00507598
0.0439353
0.000149137
0.0714822
0.0643433
0.0517798
0.000178605
0.00017745
0.000148464
0.000152646
0.000310054
0.000158137
0.0651445
0.000169388
0.000562411
0.0042375
0.000151381
0.00015814
0.000148651
0.000151098
0.0445039
0.0186414
0.000148501
0.0184388
0.0001755
0.000149318
0.00015428
0.000147772
0.000200794
0.000151841
0.000309248
0.000165517
0.000148446
0.00014713
0.000170104
0.0158155
0.000170277
0.000154362
0.000169834
0.000148812
0.000154233
0.000162413
0.0145761
0.0280057
0.0431168
0.000146635
0.000147082
0.000150737
0.000206373
0.000147497
0.000150928
0.000215436
0.000181182
0.0413703
0.000149457
0.0439101
0.028339
0.000149885
0.0142997
0.000195185
0.000173047
0.000317124
0.000150571
0.031996
0.000158287
0.000151908
0.000153002
0.000146511
0.0271755
0.000155097
0.000155913
0.000158204
0.0318643
0.0336589
0.00014961
0.000148036
0.000154397
0.00015005
0.000193989
0.000150292
0.000183378
0.000156198
0.0320247
0.000154869
0.0527693
0.00014675
0.0594239
0.000152012
0.000146507
0.0539084
0.000184713
0.000172312
0.0469167
0.000163035
0.000172269
0.000148534
0.025634
0.000148485
0.000147514
0.00016908
0.000187574
0.0426908
0.0316801
0.000192398
0.073572
0.000191176
0.000879959
0.000150993
0.000157828
0.000163034
0.0397718
0.00015393
0.0388087
0.0257386
0.000153099
0.000148867
0.000149103
0.000318322
0.000418827
0.000155605
0.000148669
0.000155961
0.000159934
0.000170191
0.000236028
0.000193009
0.000148323
0.000207541
0.000181926
0.015454
0.000182289
0.000153114
0.000155341
0.056943
0.000147169
0.000184312
0.0615742
0.000151422
0.00015675
0.000217026
0.000173313
0.000151266
0.0186776
0.000156345
3.73775e-05
0.000177582
0.000159176
0.000154628
0.0420131
0.000147179
0.000172182
0.000261626
0.0471333
0.000174371
0.000176991
0.000160808
0.000164509
0.000149749
0.0491159
0.000161644
0.00015125
0.000163348
0.00014852
0.000149776
0.000456303
0.00014847
0.000149118
0.000149247
0.000198869
0.000149689
0.000163147
0.000186739
0.0001995
0.000189277
0.000149664
0.000183815
0.000193345
0.00020177
0.000181473
0.000155958
0.000200221
0.0667496
0.000226997
0.000149886
0.0567981
0.0602266
0.000149882
0.000155867
0.000146339
0.000215132
0.000184856
0.000152101
0.00025262
0.0382064
0.000146879
0.000149582
0.0548462
0.0279422
0.000187838
0.000146707
0.0355003
0.0388299
0.0004647
0.00014822
0.0410268
0.000193652
0.000168228
0.0377673
0.00015956
0.000146396
0.000162985
0.000197147
0.000165939
0.056444
0.045519
0.000148141
0.0732329
0.000197172
0.0290136
0.000146787
0.00016412
0.000149783
0.000148494
0.0466816
0.0436655
0.000145541
0.0574305
0.00015883
0.000174993
0.000152309
0.0471905
0.0208839
0.000148519
0.000151046
0.000158688
0.000151049
0.000177446
0.0552647
0.0738365
0.000175516
0.000152307
0.000152963
0.0455199
0.000154605
0.000177459
0.000148007
0.000152148
0.000229966
0.0454044
0.0156144
0.000356419
0.00014907
0.000113703
0.00015363
0.000164568
0.0727862
0.0165171
0.000148488
0.000149955
0.000172586
0.000154986
0.000149516
0.0514273
0.0395324
0.000149067
0.000146166
0.000149209
0.000147774
0.000321872
0.000149733
0.0563268
0.000188785
0.000187791
0.000149062
0.000168626
0.0478897
0.000167551
0.000194044
0.0417686
0.000150079
0.0186463
0.000159354
0.000159938
0.000189497
0.0191667
0.0284458
0.000185918
0.000147993
0.000189656
0.000149725
0.000154387
0.000149649
0.0576319
0.000159925
0.000642801
0.0378635
0.000174671
0.000148768
0.000205232
0.000161383
0.000149785
0.000182347
0.000145984
0.000176562
0.000166479
0.000149537
0.0686544
0.000153058
0.000202874
0.000151432
0.000147732
0.0468162
0.0394764
0.000153283
0.000158891
0.000174879
0.000173354
0.000183554
0.000162028
0.000155994
0.000158431
0.016757
0.000154602
0.059736
0.000167566
0.0357781
0.000206072
0.000154105
0.0539729
0.000145962
0.0603366
0.000153259
0.0397705
0.0041628
0.0227285
0.0487469
0.000139739
0.000169251
0.000151912
0.0523561
0.000170536
0.00014859
0.0162012
0.0709357
0.000152123
0.000157347
0.000162248
0.0001623
0.000167416
0.0245003
0.000149883
0.000168055
0.000171234
0.000160411
0.000149027
0.000191815
0.000147141
0.060488
0.000153025
0.000191482
0.000163935
0.000170869
0.000183766
0.0480416
0.000182376
0.000148039
0.000187847
0.0543188
0.0534866
0.000153564
0.0629698
0.000162562
0.000291962
0.000148483
0.000154335
0.0417821
0.000182698
0.0226161
0.0187265
0.000159546
0.0538294
0.000149126
0.000147246
0.0157384
0.00016536
0.000154345
0.061876
0.000158836
0.000164194
0.000158671
0.00017805
0.000150758
0.0718724
0.0689205
0.00802181
0.000289176
0.000158122
0.000173403
0.0236797
0.000153867
0.000150192
0.000177791
0.000146856
0.000183777
0.0442711
0.0198225
0.0216646
0.000181546
0.000153734
0.043209
0.000146293
0.000187172
0.00014953
0.0315094
0.000154139
0.000165476
0.032936
0.000191264
0.000148083
0.000160414
0.0112604
0.000148906
0.000201358
0.000148556
0.0589204
0.0390759
0.000195292
0.000167991
0.000147634
0.0336098
0.000209303
0.000170475
0.000148504
0.000154305
0.000148893
0.000181361
0.000148762
0.00019192
0.000149115
0.000149115
0.0660662
0.000149267
0.000158823
0.000159934
0.000149816
0.0377848
0.000148931
0.000162956
0.0421752
0.000181389
0.0596539
0.000148915
0.0440605
0.000182531
0.0588753
0.000153668
0.000199632
0.000153317
0.000172403
0.000200173
0.000198504
0.000210105
0.0384665
0.000204769
0.000342966
0.000155923
0.000196492
0.000164167
0.000184851
0.000154461
0.000153119
0.000148708
0.000180025
0.000166132
0.0367086
0.00017838
0.064677
0.0688132
0.000170616
0.000149114
0.0518989
0.000178772
0.000150426
0.000153348
0.000149136
0.0698659
0.000148648
0.0162312
0.000149096
0.000162184
0.0268346
0.000171714
0.000148412
0.000148653
0.017497
0.000148793
0.000153793
0.000158446
0.000162156
0.00015997
0.00015005
7.29784e-05
0.000168052
0.000163522
0.000217768
0.0356362
0.0363659
0.0214054
0.000146762
0.000148608
0.000172633
0.000153726
0.000163971
0.0622379
0.0341444
0.000146632
0.000148515
0.0419932
0.0228619
0.000146821
0.000148151
0.000155666
0.0523917
0.0558968
0.000158762
0.000163938
0.000149278
0.0002365
0.00020244
0.000174385
0.000158643
0.000164682
0.000150145
0.000167893
0.000102317
0.000151121
0.000151328
0.000158281
0.060125
0.000154961
0.0178004
0.000148649
0.039733
0.000163448
0.000156497
0.0001468
0.000147682
0.000230667
0.0636024
0.00016514
0.0259893
0.0517773
0.000150803
0.038226
0.000115202
0.000149309
0.0642064
0.0307516
0.000195089
0.000149662
0.0374918
0.0300965
0.00015135
0.000163875
0.0269383
0.000167982
0.000149293
0.000148946
0.000151983
0.000156982
0.000182276
6.53891e-06
0.00016799
0.000180339
0.000147279
0.000149885
0.0663922
0.000148705
0.000169872
0.000155545
0.00015392
0.000175018
0.000148244
0.000153317
0.000206157
0.000147962
0.0311314
0.00014829
0.00285997
0.0438087
0.000186756
0.000150226
0.000149947
0.0420178
0.000146452
0.000155319
0.000150027
0.000200563
0.000614768
0.000166169
0.0410261
0.000163574
0.0387841
0.000150462
0.000185139
0.000150414
0.000148863
0.0180596
0.0375337
0.00025108
0.000154466
0.000183888
0.000184519
0.0333342
0.0417142
0.000220667
0.000168263
0.000146196
0.035815
0.000150192
0.000150293
0.000115957
0.000197863
0.000157515
0.000178338
0.000164767
0.000160849
0.000159932
0.0561988
0.000156641
0.000147942
0.0167907
0.000165052
0.00014752
0.034416
0.000148121
0.000148685
0.000200681
0.000186391
0.0379504
0.00014755
0.000154305
0.000148037
0.000305181
0.000148603
0.000198568
0.0589177
0.0413291
0.0334112
0.0128789
0.000157895
0.0301829
0.000224255
0.000149348
0.000159298
0.000163528
0.000158332
0.000251041
0.0322729
0.0400801
0.0440955
0.000336451
0.000149684
0.00019379
0.000148154
0.0181267
0.000162114
0.000156309
0.000155827
0.000152906
0.000148421
0.000192315
0.0405615
0.000146624
0.000154828
0.00014707
0.0280987
0.000154686
0.0587462
0.0580956
0.000223472
0.0001486
0.00014848
0.0272698
0.000189877
0.000148861
0.000190528
0.00014948
0.000187438
0.000178021
0.000187906
0.000178979
0.030558
0.000148051
0.000150644
0.0170262
0.0366689
0.00016128
0.00016801
0.000148473
0.0174133
0.000148349
0.000147657
0.000153765
0.00014869
0.00679777
0.0323881
0.0434876
0.000186788
0.0419462
0.000548062
0.000146465
0.000166159
0.000146992
0.000252134
0.000151413
0.000154564
0.000148485
0.000147629
0.000149765
0.000361096
0.000155781
0.000273391
0.000149615
0.000158916
0.000160522
0.00026851
0.000148304
0.000165752
0.000171321
0.000173564
0.064834
0.000147657
0.0270673
0.000177199
0.000165808
0.000152155
0.000148022
0.0352505
0.00742951
0.000151548
0.000149759
0.000216528
0.00936697
0.000160971
0.044197
0.000151487
0.035793
0.000166591
0.000146766
0.0717111
0.0001572
0.052898
0.000148635
0.000152677
0.000148741
0.0291773
0.0393462
0.000146691
0.000180947
0.00600496
0.000148286
0.000149666
0.000147981
0.000182292
0.0412509
0.00017617
0.000159726
0.000168919
0.000148225
0.000149052
0.000155165
0.000147989
0.000220614
0.000149063
0.000185915
0.0002746
0.000166002
0.000146025
0.0621977
0.00018589
0.000148269
0.000178828
0.000164961
0.0421103
0.000153529
0.0724159
0.000176139
0.000149099
0.00018298
0.000183096
0.000157043
0.0626343
0.000184928
0.000168428
0.0470324
0.000148807
0.000185391
0.0001694
0.000182521
0.000147738
0.000148748
0.000146378
0.000159171
0.000182513
0.000181622
0.0707439
0.0263542
0.0579435
0.000149758
0.00030573
0.0467235
0.0467289
0.000148539
0.000149333
0.000179123
0.0555405
0.000153962
0.000170344
0.0108633
0.0243606
0.00282411
0.000171699
0.000201455
0.0402897
0.000174097
0.000147299
0.00130906
0.0001641
0.000151691
0.000153021
0.000152089
0.0462093
0.000184782
0.0687014
0.000154891
0.00802662
0.000150708
0.0217195
0.0306379
0.000149947
0.000168692
0.0341972
0.0670298
0.000175361
0.000153428
0.000153265
0.000150167
0.000185455
0.000203029
0.0002607
0.0446202
0.000148117
0.0155674
0.000190741
0.051574
0.000148081
0.000149028
0.0576752
0.000182904
0.000148634
0.00017379
0.000167358
0.000161354
0.0605937
0.0590354
0.0478699
0.0419425
0.000155465
0.000148293
0.000166488
0.0253945
0.0587116
0.000150859
0.000182904
0.000169302
0.000194666
0.000155407
0.000149683
0.000235704
0.0500165
0.0137912
0.000264931
0.0262862
0.000147886
0.000182085
0.0408364
0.000149771
0.000165872
0.000189774
0.00014687
0.00020451
0.05863
0.000180703
0.000149675
0.021591
0.000193606
0.035821
0.000146094
0.00015735
0.000150197
0.000157548
0.00015005
0.000172562
0.000163836
0.000163275
0.000187432
0.000168385
0.0309429
0.000154776
0.000167485
0.00015926
0.0151878
0.000165232
0.0259608
0.000158906
0.000156789
0.00837573
0.000170183
0.000148987
0.000163609
0.0480532
0.0675016
9.33737e-05
0.000148961
0.00014847
0.00014898
0.0295612
0.00015261
0.000340962
0.000259156
0.000182013
0.000162432
0.000206478
0.0217566
0.000150021
0.0707465
0.000161255
0.000164152
0.000149252
0.000150807
0.000176137
0.0425255
0.000148422
0.0243037
0.000210678
0.000170257
0.000196985
0.000148748
0.00014812
0.00016405
0.000156152
0.0456406
0.022848
0.000170551
0.000231209
0.000148954
0.000150465
0.000150992
0.000149606
0.0698792
0.000155456
0.0310234
0.000169293
0.000155534
0.000188852
0.000305588
0.038486
0.0159399
0.000156021
0.000150497
0.000148805
0.000158392
0.00021921
0.000180701
0.0626537
0.000148965
0.000153931
0.00017667
0.000149709
0.0309534
0.000152699
0.000175427
0.000176622
0.000163692
0.000164013
0.000147617
0.000173605
0.000163534
0.000181119
0.000168128
0.000164069
0.000147224
0.000188203
0.000148339
0.000483132
0.0469846
0.000225277
0.000149183
0.000171524
0.000149061
0.000175663
0.000153829
0.000155482
0.000157031
0.016465
0.0554616
0.000167713
0.000166908
0.000185435