/*--------------------------------*- C++ -*----------------------------------*\
| =========                 |                                                 |
| \\      /  F ield         | OpenFOAM: The Open Source CFD Toolbox           |
|  \\    /   O peration     | Version:  v2012                                 |
|   \\  /    A nd           | Website:  www.openfoam.com                      |
|    \\/     M anipulation  |                                                 |
\*---------------------------------------------------------------------------*/
FoamFile
{
    version     2.0;
    format      ascii;
    class       volScalarField;
    location    "650";
    object      p;
}
// * * * * * * * * * * * * * * * * * * * * * * * * * * * * * * * * * * * * * //

dimensions      [0 2 -2 0 0 0 0];


internalField   nonuniform List<scalar> 
13917
(
-0.0397537
0.0132553
-0.115922
-0.034187
0.0295216
0.458363
-0.112428
-0.121073
-0.148905
-0.0760981
-0.104736
-0.0800065
-0.0349723
-0.124134
0.0664284
0.0452768
0.020093
-0.08866
-0.0789617
0.0172669
0.0244509
-0.109537
0.0217251
-0.124374
0.0327824
-0.105791
0.221117
0.241326
0.148079
-0.121831
-0.0526058
-0.0120921
0.179902
0.111021
0.0362771
-0.109848
0.0216598
-0.125121
-0.0418857
-0.0934466
0.00745668
0.0235883
-0.00515913
0.27299
-0.00874495
0.129628
-0.0872906
-0.0981118
0.51603
0.0123863
-0.0482426
0.0611352
0.517541
0.115356
0.0215745
-0.0423602
-0.104844
0.0352411
-0.0293223
-0.00769487
-0.250132
0.0118517
-0.123929
0.0174105
0.450714
-0.25471
0.0286006
0.0359923
-0.119105
-0.0108223
0.0292346
-0.148093
-0.157569
0.032087
0.508243
-0.0792778
-0.144729
-0.0199958
-0.101166
0.0244037
0.0224334
0.0280693
0.440767
-0.125353
-0.266073
-0.0196278
0.0209249
-0.214995
-0.0471603
-0.00555512
-0.145545
-0.105871
0.00432601
0.0607023
-0.236713
0.447986
-0.105598
-0.0957862
-0.0909314
0.338685
0.00620388
0.168533
0.27971
-0.0282809
0.00461842
-0.149761
0.117469
-0.100144
0.0185841
-0.0519651
-0.206938
-0.09403
-0.085885
-0.148165
0.0772924
0.500203
0.0246246
0.503146
-0.109632
0.115992
0.023656
-0.118621
-0.114162
0.234589
0.010876
0.0589189
-0.00356671
0.0110969
-0.00291783
0.456754
-0.113957
0.074802
-0.00858834
0.0246019
-0.169499
-0.122361
-0.0370674
0.352696
0.0291038
0.114483
-0.107609
-0.00214915
0.0661953
0.305766
0.0367958
-0.145442
0.0961362
0.0594994
-0.0021927
-0.00665269
-0.0854205
0.493327
-0.0934774
0.0213385
-0.0300679
-0.274741
-0.00731818
-0.121976
-0.144726
-0.174835
0.0903187
0.215121
0.0228464
-0.104314
-0.0854928
-0.0903945
-0.027194
-0.090546
-0.0045945
0.17355
0.00368031
-0.22487
-0.0859093
0.0244939
-0.135895
0.0300454
-0.112343
0.510334
-0.141302
0.0160778
-0.110392
-0.0569491
-0.00278261
0.0211436
0.0986185
-0.10764
-0.174235
-0.270709
-0.0659676
-0.0938133
-0.116445
-0.266018
-0.171596
0.0247224
0.366077
0.213335
0.00339631
0.00453928
0.097669
-0.216132
-0.0472644
0.0126515
-0.086409
-0.0842053
-0.156965
-0.151792
0.0357419
0.0362661
-0.0945205
-0.11023
0.0643446
-0.11341
-0.15741
-0.0937225
0.00504789
0.345538
-0.0890031
-0.197247
0.0234058
-0.24347
0.0160009
-0.116831
0.00792076
-0.127974
-0.152251
0.0452429
-0.179162
-0.0326366
0.00551879
-0.114799
-0.0847673
-0.0653815
-0.116772
-0.158269
0.00407216
-0.0146013
-0.145671
-0.272009
0.0231817
0.0135936
-0.0907597
-0.109459
0.0154245
-0.109475
-0.115049
0.207136
-0.0385953
0.0226253
0.0599385
-0.152121
-0.0188145
-0.124386
0.357151
-0.00383027
0.0355108
-0.0870472
-0.0926926
-0.0923695
0.0981247
0.0637125
0.015675
-0.113674
-0.180034
-0.10878
0.00607878
-0.17009
-0.126303
-0.125162
-0.0985708
-0.0805703
0.0227111
0.00981258
-0.0880685
-0.13412
-0.116101
-0.0285405
-0.152389
-0.0643489
-0.00297778
-0.200991
0.0162667
-0.134996
-0.0457299
0.0153792
0.0426012
0.0261511
0.216124
-0.109094
0.0462666
-0.0181341
-0.166906
-0.11491
-0.176136
0.0235436
-0.126259
0.0262105
-0.0184833
0.0241603
0.0686081
0.0141271
-0.120457
-0.0349776
-0.00472522
-0.0872335
0.00182247
0.517532
0.0307338
-0.101476
-0.00618218
0.0345689
-0.210721
-0.116596
0.0244681
0.00897303
-0.207305
0.0121653
-0.156635
-0.00554097
-0.128418
-0.0263395
-0.155383
-0.0645101
0.494914
0.0867651
-0.17173
0.370103
0.0404564
-0.110089
0.00335282
0.0380393
-0.117829
0.360923
-0.126528
0.103589
-0.101164
-0.0201098
-0.238388
0.364241
0.0845385
0.0736378
-0.11522
0.0252017
-0.00096777
-0.207695
0.0482314
0.0371979
-0.124467
0.0944895
0.0194851
-0.116668
0.178773
0.00789394
-0.109382
-0.110401
0.0163811
0.0121444
0.0258784
-0.00266178
-0.163844
-0.139102
0.388424
-0.212091
0.0289386
-0.129428
-0.270366
-0.0759083
-0.112403
-0.135107
-0.151208
0.00388855
-0.107444
0.01058
-0.24298
-0.00670958
0.488248
-0.116455
-0.0408724
0.0255484
-0.0923856
-0.115058
-0.103481
0.0096852
-0.236799
-0.197854
0.0558947
-0.0705625
0.0136846
-0.272634
-0.109546
0.0320336
-0.171614
0.0312877
-0.148928
-0.0261046
0.0251069
0.00656718
-0.0945141
0.0082818
-0.0936029
-0.26234
-0.100212
0.40223
0.0362263
0.358035
0.386639
0.0205302
0.121245
0.0467951
0.032878
-0.12055
0.0157467
0.0340314
0.0102374
-0.161507
0.0243426
-0.101815
-0.0958954
-0.266046
-0.168468
-0.0984553
-0.18673
-0.0745989
0.0284085
-0.137922
-0.0413279
-0.018145
0.024856
-0.13912
-0.111294
-0.0981572
0.0553203
-0.119373
0.0999619
-0.0429751
-0.102258
0.0193841
-0.0924834
0.0173256
0.0142
-0.157019
-0.112275
-0.111624
-0.113237
-0.26655
-0.117848
-0.186219
-0.137497
-0.00184629
-0.0915602
0.0176016
0.0387716
-0.154117
-0.0891245
-0.0064004
-0.0964668
-0.0736441
-0.134534
0.0205352
-0.109864
-0.266502
-0.179315
-0.104115
0.0245226
0.0332296
0.00305471
-0.00236984
0.00375924
-0.104822
0.398915
0.0440607
-0.272696
-0.0421802
-0.104201
-0.186622
0.0875912
-0.099165
-0.112976
-0.110343
-0.093351
-0.132651
-0.0715933
-0.0994144
0.452119
-0.0725477
-0.102402
0.000352216
-0.16796
-0.0502663
-0.0112706
0.00131639
-0.022451
-0.135981
-0.152221
0.0124109
-0.00284492
-0.109475
-0.187301
0.0155827
-0.103615
-0.0302702
-0.156759
0.0138038
-0.16378
-0.142508
-0.00945725
-0.00254494
-0.0983345
-0.167153
-0.275102
0.0158597
-0.155271
0.514067
-0.208726
-0.0111541
-0.268168
-0.176412
-0.0763112
0.0115794
0.0259935
-0.0781161
-0.150222
-0.00667546
0.0122541
0.0112345
0.0109801
-0.169465
-0.154692
-0.0752757
-0.172045
0.00959734
0.00655269
-0.117267
-0.16465
-0.0560814
-0.00540024
0.0326415
0.0320066
-0.204814
-0.264461
0.0196825
0.0329642
-0.0936687
-0.0712962
-0.0644419
0.0340307
0.0109312
0.00232307
-0.101013
0.018081
-0.176784
-0.139008
-0.112186
-0.152459
-0.100968
0.0244233
-0.153079
0.0314603
0.0369613
-0.0395602
-0.16539
0.0382202
0.00624418
-0.177657
-0.128859
-0.260429
-0.112703
0.139433
-0.0755962
0.0257507
-0.176198
-0.165233
-0.119981
0.0172603
-0.0497613
-0.175109
-0.135472
-0.170554
-0.0978704
-0.119605
0.0484566
-0.0142283
0.0351904
0.131326
0.297502
0.0500643
-0.0877111
0.358477
-0.119994
-0.275265
0.0106643
-0.103155
-0.137378
0.0392401
0.0613033
0.395512
-0.155393
-0.139381
-0.167794
-0.00265304
-0.110108
-0.0781295
0.00621693
-0.0425521
-0.0954918
0.172327
-0.119027
-0.101365
-0.130674
-0.0669616
-0.17539
-0.0223959
-0.137993
0.0234154
0.0198533
-0.126633
-0.154795
0.437887
-0.0232466
0.0227336
0.0326994
-0.0654797
0.51477
-0.0895183
-0.0160415
-0.0983714
-0.0912051
0.0144117
-0.166724
-0.088647
-0.0908155
0.0217033
-0.128372
-0.0212869
-0.262723
-0.080791
0.0306057
-0.0501751
0.00860813
-0.0084787
-0.00440722
0.0477945
0.131627
-0.165343
0.169585
-0.0898349
0.00830376
-0.131832
0.434412
-0.112856
-0.0180864
0.124279
0.0127915
-0.0532272
-0.0311527
-0.178453
0.0246864
-0.202792
-0.0528766
-0.104335
-0.103976
-0.160665
0.0116077
0.0259532
-0.137004
-0.170936
0.0254179
-0.0388296
-0.137599
-0.16352
-0.114471
0.0154464
-0.00376936
-0.142734
-0.0416949
-0.102288
-0.0859037
-0.00905596
-0.0838377
-0.118179
-0.0183085
-0.0312057
0.0118176
-0.115511
0.0248366
0.0546605
-0.227502
0.0444909
-0.155135
-0.0285035
0.184504
0.011546
0.0216667
0.0243498
-0.0904855
0.00873296
-0.0356871
-0.0296794
-0.260285
0.252944
-0.165394
0.00400642
0.0254469
-0.096501
-0.0647929
-0.122723
-0.157657
-0.0890838
0.0347074
-0.158603
0.453268
-0.0921057
-0.162344
-0.0858005
-0.0998695
-0.0313887
-0.0631654
-0.134338
0.115211
-0.0872694
0.455518
-0.0863661
-0.0349742
-0.0971287
0.0370039
-0.0129927
-0.052535
-0.0536143
-0.0030591
0.0261799
0.0092774
-0.0906962
-0.0322447
-0.103909
0.0339429
0.031513
0.0249457
0.0155341
-0.00813467
-0.0034313
0.0123863
-0.16376
-0.0782144
0.351765
0.00503587
0.0207682
0.206654
-0.0960708
0.0712882
-0.203402
-0.0738428
-0.237915
-0.0534389
-0.124065
-0.0219792
0.0232055
0.0106395
0.00358742
-0.247721
0.0205142
-0.15186
-0.00373164
-0.271314
0.0673791
-0.0798014
-0.103223
-0.00282171
0.0154999
-0.0792092
0.0375523
0.0480392
-0.196035
0.0240121
0.026352
-0.0391727
0.0125415
-0.00145253
-0.00948652
0.130234
-0.122436
-0.0281457
-0.0185614
0.00705793
-0.135758
0.0565916
0.0312747
0.016133
-0.198149
-0.135253
-0.208968
0.133796
-0.0355552
0.00452703
-0.00165287
-0.0737099
-0.0317655
-0.116569
0.106838
-0.118605
0.00642084
0.0694196
-0.211194
0.0313992
-0.0516349
0.0255324
0.0138252
-0.0473113
0.224136
-0.0160616
-0.148862
-0.095243
-0.107296
0.02426
-0.00842455
-0.0916855
-0.154258
0.015955
-0.146978
-0.00800834
-0.050828
-0.0160609
-0.0130364
-0.147771
-0.0129865
-0.094108
-0.0578627
0.0252083
-0.00412399
0.0435311
0.0160853
-0.0305215
0.301514
-0.0167512
-0.00851296
-0.138159
-0.143533
-0.0685298
-0.0602004
-0.0996375
-0.0390924
-0.00144977
0.132099
-0.155818
-0.0440118
0.0275728
-0.00173254
-0.155154
-0.0687984
-0.214067
0.0251327
0.073694
-0.116701
-0.0650258
-0.0182299
-0.261696
0.486722
0.0154861
-0.131403
0.0103734
-0.0121324
0.00488561
-0.169177
-0.00798492
-0.0198593
-0.00211979
-0.0922254
-0.0402577
-0.160007
0.265907
-0.0141815
0.17112
0.0191432
-0.213577
0.0152908
-0.0174394
0.0266308
-0.0925489
0.0266603
-0.130421
-0.092791
-0.116335
0.120613
-0.11029
-0.230633
0.033346
-0.110403
-0.258159
-0.22947
-0.0992201
-0.138
-0.26824
-0.129771
0.0245602
-0.101481
-0.0639201
-0.111011
-0.0104545
0.00335892
0.0301752
0.0193423
-0.0445395
0.135922
-0.117621
0.00303815
0.0321367
-0.274043
0.0153405
0.0430366
0.188759
-0.0448312
-0.0149086
0.196465
0.194218
0.0802169
-0.0402788
-0.0947024
-0.212849
0.499496
-0.0156169
-0.164905
-0.126024
-0.258389
-0.153877
-0.0836188
0.0127444
-0.0225328
0.00778575
-0.00668933
0.012914
-0.00186039
0.00042391
-0.0280405
-0.271657
-0.113361
-0.0199897
-0.121885
-0.182903
-0.0445898
0.057146
-0.140202
-0.00384555
0.0468243
0.194978
-0.272925
0.0257066
0.022446
-0.11431
-0.112223
-0.130909
-0.114088
-0.104341
0.0176784
-0.137336
0.0583703
0.0184431
0.0597327
-0.104652
-0.20862
-0.010114
-0.00452777
0.0259676
-0.13687
0.0160426
-0.0518558
0.0365844
0.0197481
-0.136605
-0.0148573
-0.0932858
-0.0788552
-0.110601
-0.00293561
-0.0214932
0.0110132
-0.162799
-0.181055
0.0331762
-0.209092
-0.101864
0.488235
0.0264075
-0.0950252
0.0244356
-0.0405381
-0.0377617
-0.114347
-0.110093
-0.101357
-0.0925214
-0.15897
0.00788257
-0.137081
-0.0133728
0.0341656
-0.116363
0.0385643
0.0245747
0.000523878
-0.0124791
-0.270414
-0.00210675
0.0220653
-0.0850462
-0.0687482
-0.0843695
0.453902
-0.0882839
-0.25519
-0.0748245
-0.0671454
-0.0620932
-0.137947
-0.0696565
-0.256503
-0.103621
-0.0445723
-0.0155917
-0.094274
-0.101087
0.0593258
-0.121052
-0.058187
-0.0253282
-0.0457363
-0.0132608
-0.0400737
0.0162269
-0.0846792
0.319023
0.0111081
-0.0946182
-0.00968973
0.0685799
0.00855022
0.117336
-0.0927912
-0.0331651
-0.0185592
-0.00974564
0.335509
-0.0907902
-0.152115
0.0341859
0.0082138
-0.0913178
0.0263131
-0.118442
-0.0919523
-0.0249608
-0.11629
-0.00950272
-0.232436
0.0576645
-0.0658921
-0.125042
-0.134609
0.0192338
0.0315514
-0.0927109
0.0181239
0.0137892
-0.257206
-0.169698
0.0965423
-0.0906752
0.0169235
-0.0187498
-0.106361
0.00166927
-0.002394
-0.128596
-0.011275
-0.126875
0.0224636
-0.00186072
0.0331056
-0.0891581
-0.104113
0.046228
0.0406822
0.0178342
0.0599541
0.0137038
0.444135
-0.0933645
0.016083
-0.13849
0.059672
-0.137276
-0.117836
0.431549
-0.00977448
0.0550585
0.0277447
0.132341
0.0709722
-0.105309
-0.22195
0.084842
-0.115572
0.503214
-0.0847833
-0.0896857
0.0162821
0.440751
-0.109964
0.0623308
-0.205902
-0.125281
-0.0817679
0.0524598
-0.136147
0.236646
-0.0103754
-0.0290312
-0.258685
0.0152502
0.0116076
0.0151955
-0.121614
-0.0327099
-0.130654
0.0203606
-0.159019
-0.0643087
-0.0952171
-0.126359
-0.167444
-0.0431133
-0.00874639
0.0207246
-0.116129
0.0223688
0.0833357
0.000753149
0.00920264
0.000500164
0.106574
-0.0979541
0.471648
0.152169
0.258696
-0.0973058
0.00489825
-0.00219507
-0.12946
-0.102332
-0.00219274
0.0132585
-0.0502401
-0.248713
0.0253359
-0.10295
-0.0651609
-0.0266467
0.0441627
-0.0328614
-0.0127425
-0.121625
0.0218359
0.0121282
-0.258425
-0.100317
0.0556217
-0.148272
-0.0821136
-0.226886
0.042021
-0.0402861
-0.105962
-0.14496
-0.0846486
0.29533
-0.0172179
0.0230265
-0.0156439
0.011102
0.0385754
0.0682195
0.00364912
0.0204702
-0.102193
0.0128276
-0.0407249
-0.0127693
-0.0806929
-0.0973621
-0.196611
0.0325532
-0.169931
-0.0151064
-0.10991
0.0318715
0.109268
0.0275355
-0.115793
-0.161359
-0.0922488
0.0199247
-0.114035
0.0210862
-0.0203457
-0.161119
-0.0104723
0.0602726
-0.065865
-0.0429729
-0.114489
0.0211871
0.0596059
-0.0320016
0.0257504
0.141402
0.0239969
0.00308584
0.0792453
-0.151812
-0.0109489
-0.118096
-0.139293
-0.0881823
-0.103932
-0.00920487
0.00326816
0.0659822
-0.173819
-0.0339826
0.0196736
-0.074086
-0.203277
0.0141952
-0.26549
-0.0974479
-0.102961
-0.0024144
-0.00334949
-0.0923646
0.0604123
0.0253592
0.177504
-0.00941214
0.0921516
-0.027202
-0.088215
0.433897
-0.111101
-0.0412785
-0.0928543
-0.0952343
-0.0914002
-0.0676868
0.217095
-0.256143
-0.0721538
-0.261971
0.0892193
-0.239924
-0.26574
-0.0120977
0.016474
0.01485
-0.0276952
-0.0621983
-0.013638
0.0897926
-0.0825307
-0.0218912
0.101625
-0.146956
0.139115
-0.0360164
-0.14336
-0.0172846
-0.104645
-0.0398371
0.139575
0.0129191
-0.166086
-0.219438
0.020268
-0.0286406
-0.0944199
0.136152
-0.273124
0.0132577
-0.0120735
-0.119717
-0.0270305
0.176434
-0.266425
0.0327414
-0.0896439
-0.0227903
-0.00376434
0.00853593
-0.100013
-0.233742
0.00053204
-0.0313731
0.0375512
-0.00225124
0.18409
-0.138672
0.0594292
0.446605
-0.126549
-0.0939315
-0.144637
-0.0259394
-0.0874135
0.138892
0.130711
0.0309319
-0.0841413
-0.139823
0.0762325
0.198334
-0.12096
0.40534
0.427469
0.10805
0.0391489
0.0252662
0.0320853
-0.221157
-0.0885991
-0.0366545
-0.0294845
-0.0264328
0.0224186
0.025868
0.0375972
-0.0922989
-0.0629167
-0.137724
0.157269
-0.265081
-0.0940042
0.0603671
-0.0858464
0.00576949
0.0358715
-0.165146
0.0143883
0.0163874
-0.0852354
-0.11502
0.255929
-0.0950016
-0.112356
-0.00293995
-0.126351
-0.00481341
-0.0152989
0.102803
0.02541
-0.0188486
-0.120447
-0.170433
-0.0111552
-0.103023
0.00940875
-0.0101554
0.0156583
0.465249
-0.0149911
-0.0395046
-0.265838
-0.000751036
-0.117389
-0.0986715
0.0155505
0.153247
0.0130019
-0.0921017
-0.104328
0.0379785
-0.10213
-0.0893016
0.261533
0.0226042
-0.216402
0.110277
0.388776
-0.0306962
0.180825
-0.174736
-0.0090146
0.359485
0.0449134
-0.0961493
0.225609
0.0154216
-0.271342
0.0448014
-0.113446
-0.0925726
0.340761
0.0594217
0.10307
0.0580734
-0.120739
0.0865407
-0.102187
0.104347
-0.0856296
-0.00099607
-0.0584407
0.0426462
-0.0759246
-0.113397
0.0218205
0.00482622
0.504525
-0.0224028
-0.0907761
-0.0130617
-0.105171
-0.0914016
-0.0252454
0.0219531
0.016873
0.0292457
-0.0021903
-0.120156
0.0850481
0.198952
-0.00557046
0.0159541
-0.156014
-0.0324909
-0.0214272
-0.0967086
0.0408337
-0.263391
-0.0855354
-0.0533119
0.496169
-0.141706
-0.170448
-0.109791
-0.217706
0.0134476
-0.0794442
-0.253301
0.435743
0.018606
0.0559881
-0.100962
-0.102766
-0.102714
-0.188007
-0.0248234
0.145391
-0.0739412
-0.100388
-0.26569
-0.0741828
-0.109298
0.0191345
-0.08647
-0.0835216
0.0187915
-0.12414
-0.198374
0.0284591
-0.128438
0.0194233
-0.0113882
-0.129601
-0.14019
0.00778714
-0.0255685
-0.00524296
-0.0104883
0.00612685
-0.122421
-0.0324702
0.0167852
0.0176791
-0.0692605
-0.0242639
-0.0196863
-0.166841
0.0371857
-0.147234
-0.266926
-0.12873
0.152769
-0.0840854
-0.13093
-0.0626096
-0.103548
-0.12135
-0.229719
0.0213495
-0.205755
-0.099758
0.00377725
0.0251108
-0.12106
-0.228079
-0.232366
-0.014949
0.0231632
-0.11066
-0.214115
-0.2268
-0.00533004
0.0931146
0.490922
0.0405988
-0.116781
-0.273074
-0.110994
-0.216579
0.0449253
0.0186174
0.00888199
0.114718
-0.117984
-0.072455
-0.0448615
0.0695529
-0.0306384
-0.232979
-0.0687842
-0.149298
-0.273751
-0.108305
0.47612
0.0320492
0.0180873
-0.105954
-0.00210969
-0.00996107
0.0418893
0.515218
-0.0700665
-0.271365
-0.133696
0.0282895
-0.156476
-0.0569057
0.00140389
-0.274684
0.254083
0.105108
-0.0208156
-0.266135
-0.202745
0.0268034
-0.187437
-0.121067
-0.262452
-0.218917
-0.0861868
0.0185544
-0.0143018
-0.167352
-0.0315486
-0.110122
-0.0607733
-0.223166
-0.129494
0.0724939
0.0938374
0.0152864
0.0626806
-0.243362
-0.104941
0.0325988
-0.274394
-0.0754155
0.0244833
0.0854093
0.016901
-0.12799
-0.00415768
0.511432
0.126157
0.0168534
0.00804835
0.333446
-0.139322
-0.0711109
0.0162771
-0.0631408
0.0420866
-0.0204873
-0.0508321
-0.223065
-0.104827
-0.215909
0.00109523
0.00816049
0.0248042
-0.0889197
0.0109094
0.023327
-0.120518
-0.0891807
-0.120487
-0.0116397
-0.191488
-0.103761
0.0155481
-0.239533
-0.108849
-0.0677218
0.494057
0.0231122
-0.273165
0.104841
0.0630185
0.0895858
-0.0020909
-0.102934
0.0045137
-0.0298965
0.157537
-0.0946495
-0.104894
0.019662
0.0121991
-0.0120366
-0.00181833
-0.128454
0.06239
-0.112941
-0.0325893
-0.138959
-0.0285991
-0.11923
0.00080939
-0.167975
-0.0107305
-0.00296692
-0.265207
0.350612
0.3566
-0.116337
0.181633
-0.0747065
0.0366386
-0.197385
0.0326329
0.0114679
0.326156
-0.077056
-0.271473
-0.249948
-0.123679
-0.173673
-0.13278
-0.186777
-0.00615235
-0.0354107
-0.0525425
-0.155971
0.103926
-0.177658
-0.112207
-0.0227422
0.0445364
0.0273102
-0.173214
0.426076
-0.0299912
0.0242563
0.0476093
-0.0224823
-0.0718036
-0.173723
-0.0550913
0.0154517
0.369481
-0.112919
-0.158122
-0.10467
0.0166621
-0.0198072
-0.1561
0.00883101
-0.116356
-0.113287
0.0462046
-0.00524979
-0.122114
0.329354
0.0630906
-0.118666
-0.0249705
-0.136249
-0.0648454
0.0795729
-0.0280157
-0.206367
0.00863171
0.110298
0.502621
-0.239942
-0.0838944
-0.0924046
-0.0454231
0.137135
0.0254643
-0.243574
-0.048721
-0.0154707
-0.0520304
0.0167264
0.0163438
0.516497
0.0304366
0.0148849
0.029915
-0.108034
0.0575061
-0.0144308
-0.0923646
-0.160469
-0.129061
0.0250153
0.0363009
0.26084
-0.159533
-0.11141
0.125845
-0.125712
-0.117591
-0.185578
0.016358
-0.192277
-0.103191
0.0160939
-0.0230916
-0.00207575
0.418903
-0.123713
-0.0195915
0.484983
-0.168419
0.00532818
0.055826
-0.0943586
-0.112049
-0.0781675
-0.00261197
-0.238704
-0.0938225
0.473517
0.0249877
-0.153967
-0.0816098
0.169747
-0.233039
-0.0406491
-0.00164441
-0.048194
-0.154211
-0.0605721
-0.0997934
-0.18826
0.00409079
-0.160487
0.0717529
-0.252547
0.00048583
0.244208
0.0586152
0.0177754
-0.127946
-0.140053
-0.132708
-0.126472
0.0633062
-0.0853487
0.00673317
-0.216331
-0.105616
0.0358641
-0.000367366
0.164808
-0.0161673
-0.0858254
-0.122857
-0.190602
-0.0874001
-0.0119211
-0.022133
-0.135374
0.0856986
-0.0881189
0.00268169
0.0396613
-0.187622
-0.141917
-0.130424
0.384507
0.0175989
-0.145203
0.00506224
0.127156
-0.242691
-0.262308
0.0299096
0.0238017
-0.0643447
0.109139
0.0544584
-0.128826
-0.162908
-0.0055065
-0.00649568
0.0265259
0.0154623
0.342842
-0.0111584
-0.0942241
-0.11957
-0.0759331
0.000276083
-0.0287937
-0.191569
-0.0644997
0.0529383
-0.270279
0.041777
-0.159057
0.168937
0.181973
0.0639721
-0.188425
-0.25137
-0.0780702
0.0147385
-0.067291
-0.0108596
0.10794
0.0539139
-0.0962432
0.0919955
-0.21693
-0.10176
-0.0834768
0.0287159
-0.167593
-0.0484428
0.0166455
0.423082
-0.00332614
-0.0609013
-0.0604663
0.0521736
-0.234945
0.0322278
0.425573
0.0594462
0.0163118
-0.264364
-0.117107
0.091546
0.169688
-0.0692938
-0.0690519
-0.0829253
-0.0481409
0.0567803
-0.0381129
-0.110841
0.095924
-0.098306
0.0793118
-0.101098
-0.0862546
-0.0260702
-0.129526
-0.00271653
-0.113983
0.0963704
-0.210042
-0.216882
-0.226605
-0.194569
-0.14726
0.128324
-0.0187523
-0.122309
0.13488
0.0380878
-0.215077
-0.139306
0.075196
-0.0361426
-0.0302072
-0.0328031
-0.0631468
-0.158004
0.0154431
-0.0543234
-0.0658053
0.0727186
0.0182753
-0.0907048
-0.00654918
-0.100754
0.0717337
-0.134539
-0.0466082
-0.0728439
-0.110775
-0.138507
-0.114903
0.00632184
-0.0444046
-0.116886
-0.273158
-0.0243864
-0.102007
-0.0497438
0.474263
0.0328189
0.0573648
-0.124422
-0.0741524
-0.264135
-0.199242
0.167557
-0.164398
0.015631
-0.00730177
-0.18693
0.281756
0.0512986
-0.139756
-0.0185117
0.119377
0.0774958
-0.0964504
0.000144348
-0.141286
-0.124077
-0.273174
-0.134682
-0.0318177
-0.0721516
-0.257999
0.0508927
0.0471471
-0.0877792
-0.000980691
0.255641
-0.270171
-0.106607
-0.119209
-0.0841513
-0.0251812
-0.147459
-0.0044205
-0.0934096
0.0239443
-0.262088
0.0121284
0.0752033
-0.114051
-0.124516
0.0147476
0.0666879
-0.265378
0.045525
-0.115009
-0.00135976
-0.222378
-0.184967
-0.106688
0.318881
0.0126096
-0.0929316
-0.101177
-0.0717538
-0.000681928
-0.026809
0.0146415
-0.0828964
0.0286621
-0.0917613
0.0476653
-0.00473806
-0.205596
-0.00129971
-0.0204912
-0.0431969
0.0220857
-0.114698
0.00207959
0.00592477
-0.135168
-0.0717329
-0.0951017
0.0450455
-0.210617
-0.0730034
-0.139938
0.0190229
-0.104126
-0.0233431
-0.0757352
-0.0998796
-0.0961437
-0.15849
-0.158172
-0.155257
-0.184489
0.12193
-0.0998098
0.0733441
-0.18622
0.0933344
-0.0225295
0.0402813
-0.08229
0.0339232
-0.144842
-0.0880347
-0.113957
-0.169643
0.332166
0.0250344
-0.143416
0.225845
0.0640085
0.0863044
0.0433538
-0.122858
0.0399443
-0.107037
-0.000616024
-0.0502911
-0.199004
0.0184226
0.0321327
0.0391596
-0.15406
0.00487134
0.0534128
-0.0381174
0.00927647
-0.0298773
0.0245009
-0.0924058
0.328659
0.141854
-0.169283
-0.250652
-0.114069
-0.170867
0.00171256
0.0319982
0.101547
-0.024739
0.169639
-0.100773
-0.119891
-0.00257435
0.036153
-0.0977629
-0.129491
-0.00216949
0.00597497
0.118795
-0.270181
-0.101935
-0.0257537
-0.0182001
0.0251362
-0.170559
-0.0997389
0.343999
0.164011
0.070287
0.060911
-0.0578908
-0.15049
0.0711615
-0.0112141
-0.0196797
-0.11387
0.079715
-0.240019
0.0219545
-0.124784
0.0258486
0.130677
0.00428476
0.0152463
-0.156596
-0.19424
0.271532
-0.092397
-0.269998
0.054387
-0.141076
-0.0898688
0.00121394
-0.129512
-0.116294
-0.109355
0.0255578
-0.104319
-0.25609
-0.0165377
0.0553713
-0.106523
-0.0268086
0.0311764
-0.00409242
-0.00954793
-0.0350337
-0.11166
-0.140602
0.315944
-0.106864
-0.000596079
0.0381381
-0.113644
0.00245386
-0.0449888
0.122045
-0.0232568
-0.0860938
0.0266512
0.0527563
-0.155554
0.0168155
-0.199685
0.0294277
-0.215435
-0.111087
-0.117062
0.0306235
0.0168334
-0.158478
-0.0025308
-0.00713454
0.06099
-0.13245
-0.190703
-0.0585652
-0.115323
0.0952117
-0.131026
0.0672513
-0.0936942
-0.013453
0.0264495
-0.274261
-0.120584
-0.208194
-0.00139
-0.0974766
-0.0955849
-0.271463
-0.141278
-0.149016
-0.0553971
-0.00435203
-0.162573
-0.00886012
-0.00682752
-0.138794
-0.0986342
0.105773
0.309607
0.110637
0.0358586
-0.0279932
-0.161931
-0.0288234
0.0172797
-0.261267
0.0949531
-0.00228709
-0.0981236
0.0146741
0.0249989
-0.127708
-0.115651
-0.270185
-0.00116878
0.0885087
0.0175126
0.433952
0.0064526
0.445858
-0.128472
-0.109913
-0.0952556
-0.265366
0.152547
-0.172006
0.469045
0.0250425
0.0849363
0.135283
0.139268
0.487668
-0.141241
-0.235356
-0.103994
0.49998
0.040953
-0.105529
0.0138026
-0.274326
-0.0480525
-0.0330871
-0.0216245
-0.0122949
0.0101064
-0.110585
-0.231554
0.00153038
-0.0162965
0.00804541
-0.151311
-0.0160534
-0.184953
-0.0941976
-0.21307
0.0300626
0.010679
-0.129251
0.420182
0.0275891
-0.0300029
0.0237232
-0.130768
0.207494
-0.114824
-0.0840595
-0.235197
0.00205368
-0.0145844
-0.102091
-0.0956357
-0.0285137
-0.020739
0.0202395
-0.0913308
0.0314069
0.0102364
-0.00946579
0.0327955
-0.265019
-0.132597
-0.126417
-0.0747758
-0.161705
-0.161661
-0.00164968
-0.0605048
-0.00145525
0.473932
-0.0164398
0.0689026
0.0331837
0.014264
-0.0101823
-0.0799675
-0.0304976
0.454747
-0.0124732
0.162327
-0.00115457
0.49791
0.0237403
-0.0600352
-0.0657226
-0.0519026
-0.235962
0.0147058
-0.113861
-0.0921462
0.041654
-0.00591026
0.0215979
-0.102155
-0.233204
-0.016999
-0.00567566
-0.127071
-0.114024
0.205845
-0.125546
0.0483797
-0.11302
-0.0611744
-3.45545e-05
-0.139044
-0.0314063
-0.103163
0.0390765
-0.00824151
0.0248088
-0.133253
-0.109961
-0.00162328
0.398579
-0.109593
0.0143145
-0.00550801
0.0066657
0.414867
-0.136665
-0.0880281
-0.0394057
-0.0603906
0.0239323
0.040311
-0.01944
0.0166101
-0.124512
0.0438952
-0.0826004
-0.199741
-0.0444685
-0.00228455
-0.0975334
-0.0985721
0.0240899
-0.0982711
-0.0580972
-0.124261
0.101038
-0.252839
-0.0898402
0.0215173
-0.115673
-0.115364
-0.0298943
-0.184943
-0.0811909
-0.0528415
-0.125858
0.0164379
-0.107773
0.299067
-0.099714
0.0163083
0.0265519
-0.0024807
0.16668
-0.0814401
-0.082074
-0.159518
-0.264392
-0.0958587
0.0234678
0.485508
-0.108374
-0.136129
0.0340046
0.022352
-0.0871884
-0.107281
0.0565923
-0.0676695
-0.258802
-0.140967
-0.242885
0.332896
-0.130031
-0.0980042
-0.186269
-0.0070041
-0.19623
-0.134091
-0.00837655
-0.0219481
0.021563
-0.228766
-0.11991
-0.130125
-0.00316464
-0.2262
-0.00155331
-0.144484
-0.10693
0.0420293
-0.0661904
-0.172177
-0.11492
-0.0873258
-0.0151811
0.054898
0.0625509
-0.0263254
-0.0949692
-0.220306
-0.136864
-0.00216961
-0.274437
-0.137711
-0.0957693
0.013563
0.0177718
-0.0911108
0.424262
0.0242889
-0.0812049
0.303115
0.202275
-0.0994961
-0.11828
-0.2033
-0.143735
0.0655218
-0.00772468
0.292902
-0.106068
-0.227595
-0.0133002
0.233594
0.332678
0.355467
-0.0269701
0.023062
0.402951
-0.143049
-0.210122
0.439044
-0.0939418
0.0192518
0.409608
-0.145286
0.0539459
0.280393
-0.118727
-0.00172715
-0.12289
-0.13171
0.421667
0.024077
-0.0915166
-0.116215
-0.25954
-0.00745144
-0.03599
0.0159743
-0.0323846
0.0163571
-0.0680639
0.0673507
0.126195
0.366567
-0.0650551
-0.140459
0.0921792
-0.0515833
-0.000347933
-0.19764
0.270921
-0.245824
0.0142148
0.122974
-0.238346
0.325003
0.0460772
0.11098
-0.145885
-0.128255
-0.149899
0.0213183
0.0149746
0.011782
-0.136297
0.0350924
0.489435
0.496943
0.414026
-0.0139016
-0.163904
-0.237428
0.017766
-0.184426
0.0609762
0.236937
0.00812872
-0.0135877
-0.0888752
-0.178773
0.0147961
-0.260172
-0.126759
0.322952
-0.152347
0.00590496
0.0187325
-0.0552453
-0.0312614
-0.262266
-0.259608
0.0885537
-0.143083
0.0182116
-0.000623055
-0.00376933
0.0249163
-0.235979
-0.0303933
-0.221672
0.309244
-0.0276151
0.435097
-0.221204
-0.102525
-0.231643
-0.0310131
-0.0140729
0.0279225
-0.0345921
0.458646
0.374953
-0.168612
0.0269863
-0.0257417
0.174036
0.0154548
-0.103425
0.0863101
0.21601
0.27361
0.0817172
0.0477717
-0.00170808
-0.0811701
0.0443203
0.0748925
0.327029
0.0871504
0.00910096
-0.0507529
0.0118939
-0.204332
-0.104205
0.479895
0.0415297
0.327801
0.0314631
-0.0852351
-0.0179474
-0.0294479
0.128146
-0.220103
-0.103689
0.317357
0.0220433
-0.0185068
-0.0573513
-0.0978112
-0.168848
0.0556121
-0.171096
-0.112259
0.00184217
0.271362
-0.154389
0.337499
0.0248682
-0.0869838
0.395503
-0.146264
-0.139423
-0.0138628
-0.127122
0.0291445
0.0200343
-0.0696167
-0.119854
0.0171612
-0.102364
-0.245138
-0.105281
-0.254377
0.42662
-0.217982
-0.168597
-0.00117609
-0.0184177
-0.00957746
0.156518
-0.143592
-0.151975
0.0676826
0.0435205
-0.0110916
-0.204438
-0.0727261
-0.0781712
-0.106888
0.351182
-0.272743
-0.193156
0.0246661
-0.266601
0.0280303
0.121774
0.167017
-0.108642
-0.105948
0.119898
-0.0327303
0.320611
-0.0335557
-0.108214
-0.266234
0.159728
-0.0933778
-0.0711891
0.0246297
0.465841
-0.0882941
0.0713213
-0.238165
-0.269163
-0.0540635
0.113103
-0.0923755
-0.269312
0.0250887
-0.00373791
-0.00161846
0.00166048
0.0601958
-0.274257
0.0772665
-0.133013
0.0121458
-0.0139803
0.430247
-0.0169788
-0.00634537
0.0239335
0.0334123
-0.130992
-0.00597028
-0.274761
-0.0180762
-0.029289
0.010805
0.0523497
0.355404
-0.00620068
0.0184456
-0.00272719
-0.0339687
0.313113
-0.0409531
-0.107075
0.0156162
0.119075
-0.0537185
-0.171507
0.072604
0.0219094
-0.0152721
-0.0053813
-0.177983
0.0150973
-0.00647219
-0.0344511
-0.212086
0.0113788
0.193014
0.0738
0.0300907
-0.117261
-0.26851
-0.111217
-0.119695
-0.0423262
-0.0937131
0.0511678
0.350146
-0.159239
-0.0233862
-0.128147
-0.0869146
-0.114807
0.0758241
0.0325151
0.468815
-0.00556311
-0.154128
-0.132093
-0.0120601
0.0309513
-0.270735
-0.0933525
-0.0831731
0.0951286
0.0331247
-0.270609
-0.141927
-0.0076654
0.0183851
-0.0133639
0.0225616
0.0238821
0.0377239
0.183966
-0.144019
0.0457097
0.0523144
0.44682
0.0203627
-0.148034
0.0895183
-0.0228353
-0.0399793
0.0168875
-0.0965693
0.0772597
0.23908
0.0261261
-0.00592432
-0.209111
-0.237812
0.0148241
-0.0805462
0.215729
0.0505684
0.0908398
0.0169899
-0.0300724
-0.180718
-0.12757
-0.0641611
-0.123337
-0.026759
-0.262643
-0.111829
0.00246351
-0.169065
0.0723759
-0.121388
-0.130138
-0.100299
-0.213209
-0.154889
-0.107818
-0.0132734
-0.0232309
0.102546
-0.00920566
-0.0118213
-0.0532662
0.312426
-0.00825489
0.124392
-0.10313
0.113795
0.408012
-0.103636
-0.0272308
-0.184847
-0.220154
0.176934
0.10246
-0.0914138
-0.272729
-0.126786
0.0894954
-0.0107043
0.00865902
-0.00274226
-0.0458995
-0.118559
-0.112975
-0.0150936
-0.19625
0.016579
-0.0875427
-0.100992
0.308489
-0.124713
0.309667
0.394445
0.0686942
0.170891
0.010619
0.168708
0.0260709
-0.00788894
-0.0632503
-0.100184
0.0224836
0.099362
-0.150385
0.005764
-0.00556839
0.12739
-0.274245
-0.128104
-0.123503
0.205913
0.0167548
-0.0929734
0.198303
-0.0143617
0.0369222
0.0383274
0.00578168
0.0390588
-0.0506109
-0.138548
0.0285693
-0.00750691
0.235225
0.0125309
0.125604
0.146338
0.0298225
0.0213619
-0.274744
-0.0017672
0.0297425
-0.00369386
0.0859721
-0.00804871
-0.220886
-0.0170628
-0.155469
0.0121229
-0.010298
-0.0217835
-0.198364
-0.0770594
0.0394793
-0.0119144
-0.136833
0.106716
-0.0973705
0.00961505
-0.135391
0.0347917
-0.00573591
-0.223339
-0.0156474
0.0546624
0.0265294
-0.0170954
0.0942635
0.0275677
0.0189139
0.391569
0.495998
-0.274398
-0.0935393
-0.25993
0.00598727
-0.208651