/*--------------------------------*- C++ -*----------------------------------*\
| =========                 |                                                 |
| \\      /  F ield         | OpenFOAM: The Open Source CFD Toolbox           |
|  \\    /   O peration     | Version:  v2012                                 |
|   \\  /    A nd           | Website:  www.openfoam.com                      |
|    \\/     M anipulation  |                                                 |
\*---------------------------------------------------------------------------*/
FoamFile
{
    version     2.0;
    format      ascii;
    class       volScalarField;
    location    "950";
    object      omega_0;
}
// * * * * * * * * * * * * * * * * * * * * * * * * * * * * * * * * * * * * * //

dimensions      [0 0 -1 0 0 0 0];


internalField   nonuniform List<scalar> 
13917
(
0.0473734
0.0224794
5.0961
0.0255343
0.0221186
0.438307
5.01946
5.18971
4.68102
0.0845398
0.298606
0.104895
0.0256869
22.2166
0.0274521
0.0262558
0.0226187
0.077232
0.103347
0.0221183
0.0222688
4.98468
0.0221047
5.15983
0.0220455
4.91392
0.0419141
0.0552851
0.924088
0.150545
0.0517391
0.0315967
0.0366946
0.0257542
0.0220579
3.06572
0.0221124
4.47992
0.0293267
7.02476
0.0219451
0.0222864
0.0215948
0.0862051
0.0224285
0.0276142
0.0759558
0.110199
2.78028
0.0220245
0.0321627
0.0224124
3.10339
0.0262354
0.0226375
0.0315233
0.298371
0.0221172
0.0277413
0.0223417
6.39469
0.0224892
31.0361
0.0221074
0.40569
20.1131
0.0221101
0.022058
0.304896
0.0417118
0.0221259
4.80371
4.91504
0.0220498
2.88784
0.121581
6.90253
0.0237062
4.76205
0.0222402
0.0222086
0.0221172
0.385504
4.39152
3.69222
0.0235268
0.0221848
21.0336
0.0315841
0.0215871
4.52778
0.120258
0.0220088
0.0233969
21.2537
0.382801
0.2079
0.0990776
0.216282
0.112109
0.0218376
0.0325196
0.0854396
0.0245358
0.0218437
4.75554
0.577578
0.119287
0.0226401
0.0554783
4.2978
6.1362
0.13832
4.67539
0.0230651
3.44337
0.0220368
1.50208
5.94951
0.0261865
0.0222753
0.304641
5.81129
0.0523574
0.0219976
0.0231561
0.0223356
0.0220062
0.0216115
0.420175
4.46071
0.0229757
0.022467
0.0222759
6.87292
5.13112
0.0479548
0.119119
0.0221037
0.0260763
2.01266
0.0218504
0.0227
0.111138
0.0220587
5.22014
0.989613
0.0223572
0.021806
0.0321854
0.0867383
3.21362
0.145066
0.0464274
0.0310962
4.40805
0.0394984
4.97858
10.1869
6.96102
0.0246345
0.0422544
0.0222398
0.201343
0.135308
0.210519
0.0244665
0.0923584
0.0221099
0.0336115
0.0474163
7.32013
0.149505
0.023062
5.36927
0.0512703
4.45715
1.96297
5.2924
0.0220162
0.129921
0.0545305
0.0218438
0.0221766
0.0314256
4.91102
0.7155
5.1
0.048643
0.20226
3.77739
3.73816
0.626776
0.0221152
0.116979
0.0408863
0.022812
0.0220252
0.293098
16.5252
0.0310417
0.0220389
0.0850446
0.0864377
5.57855
6.27636
0.022059
0.0221357
0.0970641
4.98445
0.0225965
5.02551
8.16847
0.202942
0.0218484
0.650673
0.0830643
6.97103
0.0220067
7.40332
0.0220034
0.136337
0.0219226
4.45272
4.69906
0.0267833
4.48064
0.0317417
0.021852
2.51973
0.146266
0.0480138
5.09453
11.4022
0.0217888
0.0324505
4.33344
3.75533
0.0222325
0.0219681
5.55959
0.25469
0.0222668
0.656889
0.156451
0.0403659
0.0439738
0.0222322
0.0500536
8.98854
0.0222612
0.171404
0.148534
0.0222988
0.0220987
0.112856
4.48415
0.137092
0.0318277
0.0276531
0.0222713
7.74271
5.21149
0.51973
0.021858
5.20618
9.56539
5.0237
4.73061
0.131279
0.0222193
0.0219476
0.077008
4.85925
0.209622
0.0272382
6.24488
0.0631938
0.0216014
6.79362
0.0220949
5.3185
0.030071
0.022262
0.0293198
0.046075
0.0426087
0.87599
0.0351886
0.0224313
7.303
5.10883
4.93041
0.0220067
5.1737
0.0221768
0.0224228
0.0220426
1.44063
0.022107
0.151436
0.0424229
0.0220778
0.0857293
0.0240755
2.20682
0.0498899
0.110594
0.021937
0.0220863
4.45285
6.12366
0.0220326
0.0219373
7.07122
0.022007
4.62585
0.0219209
4.39324
0.0231745
0.835694
0.0457932
2.96079
0.0243115
7.21397
0.339889
0.0293389
0.255587
0.705585
0.0224705
4.47303
0.117666
8.39406
0.0250696
6.75922
0.0336651
3.74812
0.290572
0.134992
0.128082
5.11265
0.0222218
0.0496896
4.066
0.0222661
0.0242267
8.82272
0.368308
0.0230124
2.94191
0.835703
0.0218766
8.18795
3.17253
0.0220889
0.0219269
0.0221838
0.0218005
6.99811
5.33993
0.612814
4.13817
0.0220462
0.198172
5.87591
0.0625104
4.98835
4.51167
4.62999
0.0217867
0.429365
0.0219072
8.12107
0.0223364
3.70466
0.156962
0.0277905
0.0222046
0.0909669
0.145003
0.113514
6.74672
3.81208
10.5238
0.0528693
0.0777603
0.0219745
3.71125
4.95322
0.0221686
7.34271
0.0220664
5.25386
0.0231665
0.0222312
0.0240713
4.46641
0.0240063
4.23188
4.13052
0.251142
0.458147
0.0224577
0.504882
0.424011
0.0220549
0.411696
0.0222548
0.022058
0.150909
0.0222616
0.0220498
0.0219026
4.80166
0.0222508
5.78998
4.39082
4.83714
0.618002
4.29735
7.15869
0.0614916
0.0220499
0.360414
0.028881
0.0341988
0.0221093
5.25549
5.01409
4.22021
0.0261562
0.184654
0.0247083
0.0303027
0.113398
0.0236074
0.41792
0.0226367
0.0220985
4.35909
4.45282
4.46878
0.183208
6.20182
4.42752
4.09505
7.31246
0.0216432
0.0866478
0.0237014
0.022175
6.45248
0.0781012
0.0219359
0.0879724
0.0574896
7.88902
0.0220515
0.205129
8.69158
1.93541
5.0889
0.022258
0.0221703
0.0227668
0.0397261
0.0217896
4.7558
0.480444
0.0350064
3.79112
0.0313139
0.200957
3.97893
1.02265
0.237828
2.60878
0.204292
0.0842541
0.337923
0.0639255
0.287251
0.593316
0.0735221
0.1355
0.0219491
6.78327
0.0336121
0.0217501
0.0377424
0.023929
6.89126
4.74656
0.0219892
0.021623
4.85434
9.92282
0.0222618
6.28177
0.024029
0.408956
0.0220082
5.90959
5.45922
0.0321334
0.0228032
4.33625
0.53537
6.29243
0.0222695
7.94542
2.27405
7.12861
0.0217637
3.72329
4.29501
0.0629211
0.0219203
0.0225758
0.121124
6.16714
0.0218584
0.0219296
0.0219674
0.0219624
5.97692
6.53775
0.0619301
0.604983
0.0220093
0.0218442
0.180502
4.14233
0.042546
0.0221397
0.0220545
0.022075
6.81543
3.83411
0.0221783
0.0220783
0.38714
0.0634581
0.045777
0.022161
0.0241531
0.0298331
0.132311
0.561479
0.709067
0.359426
0.164869
6.19509
0.106296
0.0220142
7.46511
0.0220776
0.0246268
0.0269825
6.73976
0.0914091
0.0218509
1.66374
0.175468
10.6256
0.166783
0.0375165
0.0610478
0.0221959
4.68051
1.05119
4.81265
0.0225003
0.0365539
0.747946
4.43129
26.285
0.105248
0.220241
0.0261721
0.0259253
0.0221586
0.0590618
0.0933248
0.0221918
0.0823932
0.140876
4.85972
5.68614
0.025396
0.198409
5.43804
0.0306934
0.0225065
3.33007
5.11936
5.13548
0.588823
0.0216283
6.69445
0.119985
0.0219019
0.038457
0.124099
0.0353135
0.148282
4.79273
0.314994
0.0549527
4.68868
0.024442
9.69896
0.0222409
0.0221721
5.15167
5.03229
0.662893
0.0244312
0.0230137
0.022082
0.0641808
3.23149
0.196335
0.0263246
0.213791
0.0899122
0.0220168
4.60577
0.193314
0.354098
0.0219943
0.303491
0.0238523
5.77487
0.0863851
0.0887271
0.0372883
0.0218947
0.021755
0.0224018
0.142808
0.0279737
1.50575
6.45328
0.0915336
0.0218852
0.29526
0.736926
3.88455
0.0222157
0.0274985
0.0219373
0.0369089
0.028047
4.24644
0.0222331
14.8766
0.03635
0.301235
0.121896
4.90718
0.0943288
0.0224977
5.1977
22.2188
0.0221689
0.0268124
5.61876
0.487479
0.20987
0.0222376
0.0228648
0.589625
0.0280944
0.112192
0.1054
0.0217606
0.0865554
5.11661
0.0221912
0.0243507
0.0219866
6.79912
0.0222677
0.0257
6.56321
0.0239578
5.20429
0.0311706
0.0373623
0.0219797
0.0576744
0.0220492
0.0806525
0.0218991
0.109434
0.0240259
19.4109
3.00689
4.12659
0.022594
0.0222114
0.100039
0.0608232
6.30859
4.37173
0.0758855
0.0220592
3.42787
0.747759
0.3602
0.571166
0.0740318
4.68385
0.0460808
0.0590402
0.255814
0.220637
0.0745326
1.13787
0.0726832
0.0254966
0.133299
0.0295256
0.0218828
0.0364104
0.0552267
0.0312174
0.0220567
0.0219517
0.0910127
0.0250021
0.113407
0.0220613
0.0220768
0.022275
0.0239543
0.0215577
0.0283883
0.022006
6.12921
0.102822
0.316045
0.0218122
0.022249
0.0505338
0.0861538
0.0227711
6.18423
0.105697
9.15041
0.0366016
0.216034
0.0231696
0.0222706
0.0219457
0.0240831
7.88252
0.0222565
6.00255
0.0289366
5.2691
0.0555212
0.108216
0.29039
0.0217094
0.022291
0.104416
0.0220647
0.0226009
6.53127
0.0232238
0.022185
0.0330208
0.0219597
0.0216907
0.0316124
0.027963
8.48427
0.0406899
0.0221902
0.0219108
4.32762
0.145176
0.0223967
0.0225104
6.48914
5.54058
9.50733
0.0378254
0.0255098
0.0218007
0.0216685
0.0745514
0.0422921
2.24088
0.0254367
4.61479
0.0227006
0.0241382
10.1481
0.0220721
0.034046
0.0220908
0.0220832
0.0527816
0.0431394
0.023185
5.09784
5.01375
0.12606
0.0220127
0.0216296
0.197252
6.07811
0.0222613
6.10369
0.0216262
0.0521864
0.0219139
0.0219503
6.57398
0.0222923
1.96885
0.0495866
0.0222747
0.0216308
0.0220898
0.0219682
0.0241724
3.92013
0.0221115
0.0218899
4.65905
5.07819
0.0572441
0.0579925
0.104959
0.0284335
0.0218692
0.0285656
6.01796
0.116985
0.0221417
0.0227041
4.432
0.0497113
3.90295
0.0222684
0.0228872
8.71591
0.0456944
0.0233425
7.64405
1.63531
0.021962
0.23257
0.0219435
0.022244
0.0217998
4.72723
0.0215486
0.0222538
0.0218634
2.50461
0.0279067
0.404493
0.060827
0.0219454
0.0333932
0.0221777
4.05192
0.0219852
0.0221495
0.0221868
0.203179
0.0221789
0.322976
6.23338
5.03114
0.0269662
2.91493
5.58622
0.0220852
8.45406
5.68179
4.95575
4.31139
4.63111
36.3354
0.263351
0.0226169
4.76209
0.0453778
4.9064
0.0217494
0.0220066
0.0223972
0.0221712
0.0301713
0.0320678
5.7202
0.02199
0.0220859
5.75661
0.394199
0.0220872
0.0377475
0.0362492
0.0226957
2.84992
0.037655
0.0242072
0.0277762
6.35216
8.69853
1.29252
0.0218822
0.528037
0.175682
4.36794
4.59264
0.145348
0.0220091
0.0232746
0.0227045
0.0214932
0.0241147
0.0216337
0.0300254
0.0445899
3.8396
0.246035
0.022278
0.210864
4.06609
0.0500193
0.0223906
8.6056
0.0220414
0.0224993
0.0385455
4.14056
0.0221773
0.0219982
5.03152
1.92136
5.34283
0.185075
2.87088
0.0219736
0.359596
0.022443
0.0220177
0.0224321
4.84159
7.0224
0.0218896
0.0216283
0.0221236
5.57022
0.0237383
0.0370779
0.0220638
0.0228102
0.359651
0.0219766
0.0835084
0.496091
4.48388
0.0222351
0.10427
0.0256078
5.1589
4.13909
0.0220509
4.58687
0.11531
1.45163
0.022177
4.48889
0.0222468
0.0310217
0.0508171
0.185644
4.92843
0.415517
0.280926
5.0259
0.0218772
4.01745
0.0219369
0.0295644
5.02992
0.0221922
0.0222542
0.0235658
0.0226273
3.75736
0.0216979
0.0220965
0.0873343
0.0601838
0.0759368
0.602377
0.208956
7.52069
0.102344
0.048169
0.0577678
5.66328
0.0593811
11.0114
4.88583
0.0294433
0.021989
4.17668
0.364817
0.022362
0.188416
0.0435219
0.0230083
0.0310013
0.0227103
0.0507205
0.0222922
0.0726128
0.116101
0.0219139
0.0859411
0.021964
0.069961
0.0218958
0.0263122
0.0880833
0.0252867
0.0225388
0.0219025
2.13375
0.10983
5.29774
0.0220507
0.0224202
0.0924576
0.0220879
0.144471
0.111043
0.0230104
0.159078
0.021935
7.27139
0.0223298
0.0544656
7.28739
3.40208
0.0219809
0.0244982
7.51948
0.0220206
0.021949
4.09145
4.39786
0.024486
0.257485
0.022109
0.0225333
4.83927
0.0238935
0.021721
4.761
0.0219855
5.13794
0.0222028
0.0217214
0.0223839
0.213124
4.45704
0.0222021
0.022455
0.0219734
0.0272248
0.0220803
1.05378
0.0837074
0.022269
5.30981
0.0553748
5.51971
4.44972
3.44488
0.0218656
0.0223462
0.022172
0.952282
0.0275392
4.49455
6.15729
0.0242988
4.9878
2.38975
0.0739696
0.233743
0.0838994
0.396359
4.91393
0.0725921
7.75927
4.38898
0.103156
0.0264242
5.51333
0.0564734
0.0217667
0.0248312
9.26974
0.0430205
0.0219804
0.0604966
0.159538
0.0451906
5.38175
0.0247889
5.26922
0.0577649
0.342172
0.220571
0.572912
0.0351161
0.0219145
0.0230499
5.0752
0.0220235
0.0245493
0.0218506
0.024163
0.0220111
0.0375844
0.270239
1.81773
0.0476462
0.0564554
4.13293
0.490782
0.0220143
5.49563
4.65078
0.0217825
0.0219408
0.0384322
6.74617
0.0222563
0.106918
0.885498
0.0567349
0.0221029
0.0246561
0.0220177
0.189013
0.0443161
0.0219976
29.8871
4.72201
0.0478388
6.11518
0.104685
15.551
0.0238788
0.0290057
4.52437
5.92183
0.146586
1.8549
0.0324342
0.0222776
0.0222502
0.0224829
0.0220645
0.0227486
0.0617176
0.0219881
0.219891
0.021958
0.0340122
0.0218997
0.107536
0.209966
4.65698
0.0220652
0.570757
0.022247
4.65963
0.0220629
0.0257326
0.022136
0.906062
5.40316
0.233479
0.0219856
0.247939
0.0221732
0.0342338
4.52001
0.0221871
0.022452
0.057601
0.0384195
4.98995
0.0219906
0.0317472
0.0246291
0.0220638
0.0333676
0.0228664
0.0217644
0.0240129
8.02779
0.0263558
3.24861
5.18878
0.0742907
4.38947
0.0259203
0.0217705
0.033137
10.1644
0.0250728
0.0406593
0.0628117
17.4371
0.0219514
5.52394
0.0899103
0.109213
0.0217715
0.0216459
0.266106
0.02253
0.0222868
0.0341434
0.0217556
0.0248014
0.033297
0.115054
0.267789
4.99854
0.0288853
0.123708
1.43016
8.08184
0.0546475
0.321132
6.46107
0.0544514
9.60954
0.0237821
26.9633
5.51155
0.0217534
0.0222621
0.0219754
0.023542
0.0564368
0.0219105
0.0240795
0.144711
0.0246579
0.0377871
4.80808
0.0309612
0.0265903
4.64645
0.0233505
6.46263
0.0271611
0.0592058
0.0219406
8.26109
6.4733
0.0221754
0.023775
4.43596
0.0301666
6.21844
0.0220286
0.0219853
4.89283
0.0237212
0.0467194
6.38568
0.0220813
0.0774654
0.033787
0.021643
0.0219204
4.70597
5.84285
0.0225771
0.0252412
0.0221425
0.0293556
0.0357585
7.81973
0.0229232
2.5044
5.10897
0.34798
5.90764
0.0236008
0.191774
0.234732
0.0298183
0.0220815
0.0955847
4.63713
0.0237285
0.0497812
5.17326
3.71224
0.276027
0.0254335
0.0224568
0.0222483
0.0220787
7.97256
0.0840971
0.0260061
0.0239885
0.0266293
0.0222716
0.0220634
0.0220656
0.121113
0.0551168
5.33303
0.0502195
4.08623
4.19815
0.0326075
0.0753905
0.0218308
0.0307813
10.0059
0.022387
0.0245683
0.0779562
0.209699
0.0560944
4.21349
2.0474
0.0220436
4.65563
0.0216065
0.0227706
0.0503867
0.022275
0.0222558
0.303449
5.47707
0.0219892
4.49888
0.0223756
0.021852
0.0244742
2.60492
0.0332292
0.0271032
8.33692
0.0237774
2.13641
4.37599
0.0222463
0.0515723
0.0220176
6.30782
0.109319
0.0220644
4.73998
0.0805921
0.0846549
0.0222798
7.18769
0.0302133
0.38752
0.0242292
0.0799225
8.28748
0.0218774
1.53165
0.0221916
0.0885558
0.0543893
0.0222454
3.87449
0.0243322
0.206158
0.0818935
0.0988831
0.0446235
0.0474092
0.0228136
5.15519
0.0336876
7.1548
0.0313263
0.104211
0.0221849
0.0543179
0.0220972
0.10947
4.97648
0.023284
0.0219011
3.35927
0.0238737
1.88631
0.0231406
4.65776
0.350597
0.0407323
0.0220203
0.0219718
0.0221208
0.0216353
0.170937
0.0642097
0.0384444
0.0283282
0.0220884
6.32827
0.0254409
0.0390009
0.886339
0.0220767
7.43117
0.0771865
0.038905
1.31504
5.09337
7.48379
4.76817
8.92253
0.0219463
0.544144
4.86345
0.367363
0.0221767
0.0222744
0.197784
4.75531
6.0387
1.47301
0.0229825
0.0547945
0.0555419
4.35039
4.75049
0.0625474
0.230527
0.0250489
0.109477
0.145258
0.022169
0.167847
6.28234
0.0221403
5.16159
0.0222545
0.0222375
5.92484
4.40455
0.0218675
0.0231257
0.0230723
0.0219826
0.0569364
0.303534
0.024591
0.0220085
0.0221046
0.0597837
0.0321631
0.0315139
7.17779
0.02206
4.28042
7.17371
4.46281
0.181149
0.0711133
5.23385
0.0446265
4.72919
4.76356
10.7671
0.022793
4.15672
4.31249
0.0217844
0.0220588
0.156662
3.83493
7.43154
0.0219576
0.0221691
4.45455
15.7105
10.9873
0.0255299
0.024218
1.80797
0.022346
4.47086
4.57414
3.72659
12.4422
0.0221167
0.0219767
0.0219001
0.0265803
5.11541
0.059223
0.0296282
0.0227109
0.110171
7.38365
0.0596696
5.4608
4.73401
6.36105
2.12263
0.0220729
0.0221753
4.63869
0.0216808
0.0217606
0.0235835
3.08569
0.051284
5.46191
0.227476
0.0220541
4.28109
0.049054
0.0220126
5.58792
0.193172
0.025211
0.0225704
4.42537
3.90675
0.0221863
5.68832
5.0959
3.91738
12.4156
0.111745
0.02201
0.023314
4.45622
0.028833
4.7548
0.0521828
12.366
4.47998
0.0230662
0.0304333
0.0220254
0.0229131
3.73829
8.07721
0.0220804
4.35242
0.0635923
0.0221756
0.025491
0.0219697
0.341648
0.0230271
2.37737
0.0567116
0.0220025
0.0218878
0.0912655
10.8
0.053386
0.0252233
0.0539351
0.0220878
0.0243562
0.0333678
9.33294
4.8251
3.86528
0.0217409
0.0218807
0.0226794
0.194847
0.0219127
0.0227582
0.303586
0.0923631
4.6606
0.0217336
3.96051
4.74821
0.0222842
8.92841
0.204911
0.054078
2.04069
0.022603
3.75607
0.0307885
0.02343
0.0242463
0.0216753
0.479957
0.022793
0.0239364
0.0309725
4.2841
4.41417
0.0222476
0.0220301
0.0248831
0.022238
0.238601
0.0225241
0.127276
0.025369
4.77694
0.0237118
4.85261
0.0217464
4.15335
0.0230005
0.0216588
4.13655
0.391323
0.111215
3.40023
0.0463932
0.0577408
0.0220653
5.74674
0.0220763
0.0219184
0.0876378
0.101803
5.79536
4.1509
0.216201
5.37886
0.218204
8.51272
0.0219492
0.0279467
0.0345835
4.24638
0.0249958
4.18192
5.47295
0.0227617
0.0220977
0.0221284
3.15082
3.36944
0.0250098
0.0221223
0.0272513
0.0324478
0.0525462
2.7767
0.464475
0.0220704
0.553737
0.123996
10.5081
0.112763
0.0241563
0.0256499
4.24211
0.0218967
0.13844
5.03018
0.0230767
0.0277489
0.298182
0.127586
0.0230208
8.49181
0.0266407
4.67231
0.0596531
0.0321322
0.0238192
3.94064
0.0218826
0.115519
1.50711
3.73689
0.068976
0.0912921
0.0298744
0.0522723
0.0222674
3.73406
0.0320072
0.022311
0.0375502
0.022098
0.0222694
3.09538
0.0220874
0.0221796
0.0221688
0.248654
0.0223044
0.0376246
0.120945
0.428501
0.193191
0.0222553
0.316934
0.524221
0.448745
0.122622
0.0275937
0.330338
5.03032
1.75092
0.0222845
6.56312
4.61903
0.0222839
0.0261281
0.0216606
0.598838
0.160688
0.0224619
1.41123
4.23871
0.0218301
0.0222756
4.3432
5.03989
0.104113
0.0216841
9.70926
4.18415
3.16239
0.0220521
4.21517
0.132682
0.0788216
3.97759
0.0303814
0.0216743
0.0372688
0.350259
0.0423321
4.61757
3.9467
0.0218968
5.35388
0.689958
4.31931
0.0217449
0.0506659
0.0223392
0.0220096
4.41945
5.68455
2.87388
5.14132
0.0312703
0.0710863
0.0224337
3.80272
6.74498
0.0220657
0.0226781
0.032173
0.0220276
0.0762288
4.88249
5.45207
0.0726747
0.0231494
0.0226788
4.32664
0.0257863
0.0783699
0.0218703
0.0235407
2.02874
5.74441
5.08863
2.84127
0.0221736
3.54978
0.0225814
0.0522907
6.5429
6.5677
0.0220918
0.0222942
0.0511398
0.0262299
0.0222549
4.55305
4.21166
0.0218992
0.021517
0.0221964
0.0219869
2.66848
0.0218603
4.40138
0.172788
0.100894
0.0219923
0.0565957
3.90285
0.0455286
0.598788
3.88513
0.0224266
8.97853
0.0337691
0.0354744
0.483274
8.31255
4.44565
0.0952525
0.0219569
0.365554
0.0218749
0.0255307
0.0222845
4.26769
0.0335965
11.3288
0.703833
0.0688096
0.0221344
0.597687
0.0323169
0.0222707
0.285444
0.0216059
0.0548962
0.044364
0.0222556
7.00063
0.0241647
0.514053
0.0231598
0.0219689
3.78628
4.43678
0.0245036
0.0325644
0.0579161
0.0741225
0.0945054
0.0312833
0.0273365
0.0285833
0.839648
0.02566
4.30069
0.0686444
1.92503
0.186813
0.0236469
4.63486
0.0216152
5.03424
0.0244529
3.9952
9.99751
9.25712
6.92227
4.53904
0.0896109
0.0224018
4.76271
0.0996472
0.0220654
8.49686
5.22961
0.0235809
0.0259624
0.0363068
0.0363753
0.0440165
6.26122
0.022284
0.0391871
0.0501561
0.034556
0.0221678
0.144066
0.0216445
4.44029
0.0241492
0.22615
0.0394093
0.0546263
0.179182
5.63653
0.130347
0.0219063
0.344203
4.95211
14.7422
0.0231487
4.3669
0.0357889
1.79747
0.0220764
0.0255277
4.40989
0.0803092
4.78541
8.26291
0.0341368
4.12088
0.0221155
0.0216353
10.1595
0.0596922
0.025454
4.70644
0.0305915
0.0498934
0.0311127
0.0977605
0.022531
5.41071
5.25753
6.26984
4.08003
0.0287464
0.0733886
4.84777
0.0249139
0.0224811
0.112193
0.021716
0.358
4.54324
7.12616
7.01892
0.0876343
0.0232829
4.20819
0.0216107
0.124152
0.0222389
14.8252
0.0249693
0.0526899
4.55918
0.204572
0.0220363
0.0344405
5.2429
0.0221041
0.292422
0.0218856
7.43907
4.16544
0.200918
0.0829692
0.021968
0.327922
0.249775
0.0538068
0.0218892
0.0233819
0.0221481
0.0866649
0.022134
0.14513
0.0221523
0.021923
4.10568
0.0220162
0.030509
0.0288267
0.022276
4.43567
0.021989
0.0379695
4.31298
0.0741026
4.0925
0.0221033
3.87219
0.0793241
4.58687
0.0245979
0.225156
0.0227484
0.058088
0.215057
0.191037
0.526193
4.28288
0.455413
4.45023
0.0272874
0.195331
0.0457792
8.42805
0.0256519
0.0226436
0.0220741
0.0804818
0.0528693
5.86042
0.081019
4.96839
5.74684
0.0978896
0.022127
5.74455
0.238087
0.0226009
0.0245474
0.0221461
5.10247
0.0220685
9.58776
0.0219912
0.0329501
5.39236
0.0963174
0.022069
0.0220654
9.65231
0.0219904
0.0248835
0.0286136
0.0363081
0.0322251
0.0223897
0.259393
0.0828392
0.047329
0.83228
3.9196
4.44556
7.22251
0.0217608
0.0220494
0.120815
0.0232948
0.0502718
4.29878
4.54904
0.0216786
0.0220657
4.36892
5.29937
0.0217005
0.0219144
0.0270659
7.61544
4.79414
0.030249
0.0391269
0.0222067
2.40847
0.21668
0.150658
0.0322346
0.0491095
0.0224831
0.0481537
4.96624
0.0229284
0.0225755
0.0297014
5.05459
0.0261149
7.42488
0.0221185
4.3939
0.040792
0.0281285
0.0217998
0.0219591
1.73667
6.34497
0.058703
4.86234
5.64956
0.0227592
4.34562
0.232617
0.0219823
5.24147
3.0934
0.202843
0.022256
4.38003
4.19683
0.0222846
0.0438719
4.99471
0.053557
0.0221763
0.0219062
0.0230048
0.0262112
0.121629
5.24747
0.0782253
0.111954
0.0217548
0.022364
4.89493
0.021954
0.0595415
0.026853
0.022696
0.0712042
0.0220515
0.0244409
3.21221
0.0220169
4.73677
0.0220506
26.8091
4.57122
0.154012
0.0224875
0.0222928
4.16267
0.0216619
0.025942
0.0224257
0.561973
8.73864
0.0438482
4.46843
0.0457117
5.31888
0.0226149
0.113317
0.0219884
0.0221506
4.5925
4.44597
10.01
0.0251715
0.11122
0.112428
3.70596
4.26713
2.52523
0.048679
0.0216034
4.40298
0.0221408
0.0222329
3.02173
0.194516
0.0294217
0.228942
0.051674
0.0345533
0.0321987
4.17229
0.0267751
0.0220136
6.55516
0.0522872
0.0217646
4.3142
0.0220417
0.0221245
0.341409
0.227357
7.17456
0.021785
0.0254989
0.0219716
2.1879
0.0219707
0.550151
5.21533
4.49744
4.25833
34.5485
0.0308319
4.9231
0.864514
0.0222157
0.0324465
0.047159
0.0313145
1.26698
4.75193
3.8586
4.54741
2.30218
0.0222934
0.18483
0.022047
4.27323
0.0351263
0.0247666
0.0261369
0.023562
0.0219707
0.185172
3.8668
0.0217431
0.0252163
0.021879
5.51494
0.024987
4.00241
4.04842
11.1152
0.0221082
0.0219797
5.45933
0.371043
0.0221499
0.431249
0.0222325
0.217385
0.216565
0.159089
0.0792546
9.55738
0.021871
0.0219988
0.323706
4.22342
0.0345853
0.0554634
0.0220156
9.02968
0.0220488
0.0219706
0.0243068
0.0220629
4.19406
4.72341
5.06029
0.0940266
4.1393
7.04417
0.0216786
0.0414085
0.0217326
1.24776
0.0223462
0.0257983
0.0220455
0.0219527
0.0219316
2.9309
0.0240735
1.683
0.0216815
0.0325529
0.0234068
1.5214
0.0220681
0.0416234
0.0503
0.0894183
4.07768
0.0219516
5.19611
0.0937892
0.0519339
0.0220628
0.0219944
4.34854
15.7417
0.0223824
0.0220793
3.48805
1.08222
0.0387644
4.42845
0.0231189
3.76612
0.0419466
0.0217343
5.33286
0.0244917
4.82204
0.0220649
0.0234851
0.0221321
5.135
4.45678
0.0217005
0.248693
0.399327
0.0220655
0.0220452
0.0219521
0.269796
4.3074
0.0875361
0.0271444
0.0501288
0.0220544
0.0221271
0.0253847
0.0220213
0.307227
0.022128
0.102523
4.05296
0.043703
0.0216252
3.96238
0.123321
0.0220617
0.112765
0.039878
4.94686
0.0247256
6.18843
0.0794185
0.0221238
0.132921
0.130872
0.0273019
4.09626
0.0955156
0.0391029
5.04944
0.0220525
0.22217
0.0959369
0.181055
0.0219713
0.0220613
0.0216569
0.0331911
0.0883116
0.0865213
5.5747
4.29763
4.16084
0.0222686
2.0421
4.67545
4.33155
0.0220494
0.0221755
0.0826144
4.93557
0.0250581
0.0500566
33.1586
6.17357
22.2154
0.108509
0.351462
4.32892
8.3739
0.0216468
20.7734
1.66261
0.0228588
0.0230423
0.0234278
3.77051
0.149923
5.26759
0.0255565
10.4846
0.0224857
6.04713
4.58778
0.022371
0.0472814
4.50328
4.95222
0.0761586
0.023864
0.0244003
0.0224791
0.306523
0.205706
12.8699
4.30195
0.0218203
4.76349
0.271709
0.425021
0.0220361
0.0221681
0.589541
0.26692
0.022042
0.067824
0.0731974
0.0403303
4.34197
5.09682
3.8498
4.24691
0.026675
0.0217296
0.0664558
5.28322
7.86746
0.0222386
0.346719
0.0951632
0.387721
0.0233786
0.0222588
1.28495
5.69419
8.53636
1.66423
4.88279
0.0219931
0.264546
4.25387
0.0223405
0.0623369
0.184058
0.0217147
0.323923
4.78164
0.251854
0.0222578
5.87432
0.210275
21.023
0.0215188
0.025797
0.0224312
0.0247523
0.022372
0.0691564
0.0446912
0.0459595
0.29884
0.0466232
4.92947
0.0259713
0.037131
0.0314269
10.0695
0.0581243
4.94521
0.0309078
0.0286262
18.2399
0.0933941
0.0221178
0.0457181
5.79328
5.19824
5.82254
0.0220902
0.0219956
0.0220695
5.64176
0.0238333
2.4689
1.34687
0.268138
0.0364835
0.512588
5.74552
0.0223639
5.71369
0.0363523
0.0526055
0.0221041
0.022188
0.076025
4.0447
0.0220843
4.74691
0.814806
0.0973324
0.349046
0.0219894
0.0220407
0.0382274
0.0242928
19.3471
15.9391
0.097346
1.43057
0.0220806
0.0224036
0.0225784
0.0222475
4.34725
0.024785
4.55684
0.0889554
0.0234362
0.419255
12.8441
4.36793
8.9443
0.0254197
0.0219651
0.0221417
0.0254936
0.675635
0.26512
4.24734
0.0221644
0.0232504
0.190263
0.0222602
0.437723
0.0240068
0.172016
0.199281
0.0450658
0.0439369
0.0217835
0.0655345
0.0423237
0.266966
0.0813043
0.0468976
0.021892
0.338316
0.0219703
13.8469
4.65721
1.02913
0.0221571
0.114998
0.0221201
0.0715264
0.0241013
0.0238462
0.0289322
9.58635
4.83734
0.0815222
0.0544942
0.315793
0.101944
4.44893
4.10466
0.0333834
4.30412
0.551075
0.0219722
0.0569699
4.15218
0.0955102
0.0222402
0.0742316
2.2325
6.111
11.8949
0.0225941
5.12285
0.0221047
0.0220029
0.0638684
3.81751
0.0222642
4.82579
3.73841
0.602311
7.2932
0.388147
3.78845
0.868507
0.0217736
0.0272005
0.0217259
0.0464814
1.51294
6.57466
0.0251888
0.0470022
0.021719
3.98885
0.055738
0.064225
4.90558
0.101013
4.14489
3.88621
0.0220606
6.44579
0.0221236
0.0292069
0.0505951
4.78647
0.299847
0.028605
0.0249193
0.613631
0.0407262
4.94135
4.54655
0.0320028
4.15136
0.0690297
0.0222739
0.989213
0.0852432
0.0232494
9.16797
8.8416
0.0381118
0.0265181
0.21629
5.20829
0.0220267
0.0226471
0.0216942
0.0218058
0.0223868
3.77518
0.0338228
4.47341
0.0219691
0.0222394
0.807648
0.0227126
0.0241804
0.0220761
0.0220615
5.39505
0.0218703
4.11684
0.0223882
0.0245361
0.0471926
0.0222137
0.1359
0.0218904
0.0222657
0.021895
0.0327298
0.0941607
0.0276427
4.6315
0.0220466
0.0473136
0.0377076
4.13484
0.0228596
0.02227
0.0218724
0.0217482
3.87186
0.0219849
0.022106
0.0274409
11.0583
0.0219492
0.0456818
0.0350586
0.0221207
5.08075
4.08834
2.22701
5.112
0.0283981
0.187354
0.0222186
0.0988746
4.42038
0.0230125
5.15746
0.20621
4.87288
0.0328538
0.0220594
1.41836
0.050438
1.51058
4.90274
0.0216603
0.0220475
6.94053
4.16319
0.0955739
0.0644305
0.0237031
6.07018
5.44649
0.0215253
0.0219947
0.0225357
0.0221798
0.022251
0.0220631
0.0361499
4.22671
0.0335975
0.0222854
0.436256
0.0220146
1.72967
0.051026
0.0226181
0.0326722
0.0219702
0.56534
0.0257228
0.0513757
0.0220286
0.0227354
4.65493
5.01261
0.0221785
0.0808965
0.0461337
0.0335117
0.0242662
0.0222716
0.0240097
4.2653
1.00013
0.0597363
5.1073
0.0234164
18.6189
0.18517
0.0284179
20.8144
0.0233656
4.80681
5.26432
4.31919
10.0642
4.30646
4.68836
0.0217599
0.0313372
0.0249394
0.0217072
0.0218842
0.036892
0.0788739
0.0219196
0.0304707
0.220374
0.0866508
0.265988
0.387083
0.0392327
4.46933
7.96684
0.0346319
0.0250994
0.211753
5.14943
4.3789
0.0263092
0.0217022
0.021959
0.021879
0.0394879
4.61596
0.58219
0.0219327
5.02338
0.0220017
0.22108
4.56141
0.0796337
0.296207
0.0865876
0.317189
0.0230641
0.0338015
0.0219179
0.287718
0.0220428
0.0239757
0.0449316
0.28072
0.0221828
0.0246573
4.55326
0.0218401
0.0223621
0.0298802
3.89541
0.191221
4.84431
0.0388602
0.0221523
4.161
0.0378084
0.0246014
0.022058
0.0334216
0.0293802
0.0220657
0.0351784
5.29994
0.0244818
0.0217145
0.049241
0.0219324
0.0331492
0.0308889
0.0220865
0.0220227
3.85172
0.0217653
0.0220592
0.0216884
0.026629
0.0214895
5.08966
0.0289054
0.390199
0.0219722
0.0221463
0.0225506
4.41984
0.103443
0.022067
0.0216989
5.27009
0.025318
0.106979
0.0218968
0.284048
0.0241516
0.0215681
13.0445
0.0219667
0.022374
0.0221569
0.0223583
0.0244857
0.0221326
0.0220503
1.68083
1.46801
3.88843
0.341525
4.63503
0.0219576
3.83368
0.021981
4.67531
4.44806
0.0218171
6.11321
0.0219923
4.84651
8.01996
0.260373
4.42641
4.63493
1.50223
0.63379
3.93902
5.23912
0.0508998
0.0644078
5.66861
0.0238139
0.0216988
6.19386
0.0256668
0.0291389
9.83347
0.0235289
0.346937
4.45196
4.9346
3.30369
0.21309
0.0222528
0.0293382
0.0490435
0.0227432
5.26962
0.535055
0.11046
0.0220012
0.0220736
4.87678
0.0217524
3.55268
0.0220133
5.18374
3.79703
0.0344831
0.027793
0.0220916
6.62186
4.23854
0.0265239
0.0383011
0.0222864
0.0222858
0.0944112
0.0234309
0.0325765
0.0778811
0.0250714
0.0457635
0.0220646
0.0335979
8.97654
0.0234484
8.16711
0.0222192
3.21866
0.0546635
0.0220628
9.42387
0.219673
0.0219156
0.17348
0.0220634
5.14875
0.0223069
0.0220428
4.30528
0.0221563
0.184119
0.0246811
0.261599
0.0219926
0.0224914
0.0218955
0.0311849
0.024785
0.0224453
0.0228208
0.0255653
0.0226387
0.210605
0.0732782
0.039066
0.0234595
0.0217356
2.35068
11.3397
0.0229739
0.0227155
0.0228376
0.0421585
0.0224753
0.0403558
0.0215844
0.0222853
1.60195
0.0235962
0.0222847
0.0219529
4.7172
6.29691
0.0216076
0.0868313
0.0569955
0.481438
0.404302
4.23539
3.96189
2.82525
0.0241364
0.254523
0.0219418
0.0317821
4.19651
4.41444
0.15449
0.0242133
9.18625
0.0220619
0.0562804
4.48332
0.0223673
0.2376
0.024328
0.0240033
0.102088
0.242486
3.91351
4.22183
0.0219035
0.0216377
4.47236
4.59171
0.0223895
0.030515
0.207461
0.0220776
0.0220293
0.0253301
0.748712
0.0218221
4.90928
0.0307705
0.0226787
0.337362
0.119308
0.109764
0.172002
6.12
0.0248099
0.0464606
0.0275638
0.0241931
5.45688
0.0429391
4.39871
4.18097
0.0791475
4.84571
0.0560782
0.0548734
0.481221
0.0217727
4.02902
0.137892
0.0363797
0.0302056
0.0221854
0.0217389
4.47489
0.0509438
4.69029
4.55463
0.0221264
4.73956
0.0218705
0.0220269
0.0297169
7.22479
0.124476
0.0218387
4.14648
0.0220634
0.0245142
4.83908
0.0246941
4.29383
0.0222739
3.87714
6.68342
0.0698775
11.4881
0.0237365
4.33188
0.0217183
5.14483
4.52656
3.95725
3.71231
0.0219582
0.0220017
0.383749
4.70843
4.40152
4.55984
4.50342
0.0223799
3.72199
4.31821
0.0225904
10.3408
0.0316974
0.0376752
9.25449
0.0418742
4.93927
0.0220405
0.0417386
0.0468465
0.375842
3.96708
0.0403585
4.38295
4.79159
0.0221768
0.0251799
0.0244969
0.0277771
4.40417
0.0220398
0.0218056
0.0430682
4.65544
4.83183
0.0331148
4.58472
4.94907
0.0220408
4.75566
5.27688
0.294395
4.70322
0.0893946
0.0251547
0.0221807
0.232347
0.0297084
0.11598
5.99914
4.23602
0.0306406
0.122443
0.0261635
0.0578707
0.0216633
0.0636167
0.0251053
0.133025
4.90153
8.99722
3.68676
0.0217697
0.212389
0.102552
4.39025
0.0232869
3.72961
5.0232
4.13045
0.0227331
0.188721
5.17151
7.62921
4.26888
0.0401988
5.32377
12.1959
0.102593
0.112837
0.0262597
0.031008
3.75698
0.0465768
0.0221911
4.24739
0.0223735
0.0229245
0.207995
0.213922
0.0220458
0.11129
0.025723
4.51645
9.06035
0.024947
3.79524
0.0225749
0.0219403
0.0943024
4.80974
3.79179
4.33585
26.3788
4.44402
0.364201
0.0220035
11.0871
5.00119
0.0264474
0.183959
0.0223793
0.0224791
0.0229169
4.75769
4.51082
0.0660552
4.05605