/*--------------------------------*- C++ -*----------------------------------*\
| =========                 |                                                 |
| \\      /  F ield         | OpenFOAM: The Open Source CFD Toolbox           |
|  \\    /   O peration     | Version:  v2012                                 |
|   \\  /    A nd           | Website:  www.openfoam.com                      |
|    \\/     M anipulation  |                                                 |
\*---------------------------------------------------------------------------*/
FoamFile
{
    version     2.0;
    format      ascii;
    class       surfaceVectorField;
    location    "700";
    object      ddtCorrDdt0(Uf);
}
// * * * * * * * * * * * * * * * * * * * * * * * * * * * * * * * * * * * * * //

dimensions      [0 1 -2 0 0 0 0];


internalField   nonuniform List<vector> 
20580
(
(-0.00801665 0.00159009 1.88091e-18)
(-0.00828998 0.00161576 -3.33896e-18)
(-0.00804037 0.00135683 1.55657e-18)
(-0.00228541 0.00128395 1.72013e-19)
(-0.00227959 0.00131942 -3.25267e-19)
(-0.00233603 0.00131593 -3.15911e-19)
(-0.00228987 0.00123897 7.36148e-19)
(-0.00223179 0.0012469 4.16683e-19)
(-0.000124876 -0.00113112 -6.46518e-18)
(0.00108028 -0.00125076 4.34305e-19)
(4.58019e-05 -0.00115238 2.04202e-17)
(-4.82401e-05 1.27284e-05 1.3101e-18)
(-4.31725e-05 1.16564e-05 -2.49956e-18)
(-4.48815e-05 6.94643e-06 -3.36667e-18)
(-0.0023709 0.00176949 9.96926e-20)
(-0.00233544 0.00181164 -2.63656e-19)
(-0.00230112 0.00175026 6.58794e-19)
(-0.00270543 6.87046e-05 1.29041e-18)
(-0.00275257 6.06167e-05 -5.27619e-19)
(-0.000355275 2.65023e-05 -6.82549e-19)
(-0.00034656 2.70207e-05 -1.18223e-18)
(-0.000332483 1.74149e-05 -1.77416e-18)
(0.0314689 -0.00610339 -4.58504e-19)
(0.0309854 -0.00627206 3.39465e-18)
(0.0303237 -0.00559817 5.32334e-18)
(-6.52849e-05 0.000631688 1.05421e-18)
(-6.04078e-05 0.00061326 -3.18653e-18)
(-6.43621e-05 0.000605037 4.42736e-18)
(-0.00237877 0.00394658 3.68829e-18)
(-0.0023318 0.00386847 -7.2011e-18)
(-0.00229741 0.00393931 2.19628e-19)
(-6.79923e-05 0.000239658 1.81005e-18)
(-7.38735e-05 0.000248512 -1.32188e-18)
(-7.29184e-05 0.000253725 2.32584e-18)
(-0.00015443 0.00100948 1.30091e-19)
(-0.000161108 0.00102245 -5.11172e-18)
(-0.000158287 0.000999242 1.99641e-18)
(0.0302156 -0.00190001 -2.3854e-18)
(0.02982 -0.001844 -4.18789e-18)
(0.030556 -0.00187835 -3.96829e-19)
(-0.0039165 0.00113793 1.25105e-19)
(-0.00397305 0.00117524 -9.86507e-19)
(-0.00389413 0.0011943 -2.96896e-19)
(-0.00179509 0.00181128 1.29522e-18)
(-0.00205637 0.00206149 -3.51111e-18)
(-0.00147363 0.00205735 4.41651e-19)
(0.00251403 -0.000867516 -1.7516e-18)
(0.00128481 -0.000708924 3.20703e-17)
(0.001897 -0.000696956 2.49508e-17)
(-0.00113407 0.000685306 -9.97233e-19)
(-0.00116604 0.00069334 6.3506e-19)
(-0.00115174 0.000716682 -5.27652e-19)
(-0.0051885 0.00450896 4.51287e-18)
(-0.00525663 0.00443011 3.65351e-18)
(-0.00557769 0.00445484 1.10536e-17)
(-0.00797393 0.00189937 -1.24041e-19)
(-0.00773482 0.00158824 -1.40302e-18)
(-0.00418211 0.00165429 -6.65888e-20)
(-0.00409368 0.00167628 -1.41346e-18)
(-0.0041008 0.00158249 -1.41401e-18)
(-0.0010984 0.00218379 1.46144e-19)
(-0.00105523 0.00216187 5.06058e-18)
(-0.00108902 0.00212886 7.56779e-19)
(0.0112305 -0.00132042 1.67477e-17)
(0.0116953 -0.00190098 -4.2357e-18)
(0.0129087 -0.00264929 5.25615e-18)
(-1.18845e-06 4.2011e-06 8.07311e-20)
(-1.92499e-06 5.59359e-06 -3.54789e-18)
(-1.1896e-06 3.53193e-06 -1.74134e-18)
(-0.00618141 0.00897882 -3.39597e-19)
(-0.00637427 0.00806876 5.7226e-18)
(-0.00573729 0.00866631 3.12478e-18)
(-0.00394701 0.000430587 -2.45282e-18)
(-0.00391496 0.000464446 -1.18541e-18)
(-0.00389645 0.00041152 1.65602e-18)
(-0.00748168 -0.00933891 3.14681e-18)
(-0.0114224 -0.0098146 2.21699e-18)
(-0.0100214 -0.00996367 4.88012e-19)
(-0.0128755 0.00938277 -7.31211e-18)
(-0.0138116 0.00967052 -2.43081e-18)
(-0.00382186 0.00856421 -8.47948e-19)
(0.0174687 -0.00184763 2.17067e-18)
(0.0168559 -0.00147532 -1.81718e-18)
(0.0169647 -0.0017912 -6.55567e-19)
(-0.000640925 0.000384953 1.19101e-18)
(-0.000630023 0.000395304 1.16472e-18)
(-0.000618038 0.00037444 4.76971e-19)
(0.0137897 -0.00011987 1.64059e-17)
(0.0110093 -6.12448e-05 7.31934e-18)
(0.0161333 0.000328871 -1.22504e-17)
(-0.00271231 0.000107141 5.33845e-19)
(-0.00265785 7.59198e-05 8.83976e-19)
(-0.00800738 0.000470802 -1.29817e-18)
(-0.00793871 0.00014039 5.12748e-18)
(-0.00766914 0.000447232 3.2805e-18)
(0.0388017 0.00190062 -3.40534e-18)
(0.0384233 0.00228107 2.32643e-18)
(0.0402559 0.0022269 -1.18549e-18)
(-0.00233687 0.00324683 5.66123e-20)
(-0.00238912 0.0032334 -1.99138e-18)
(-0.00236745 0.00329921 1.44275e-18)
(0.0167115 -0.000260836 6.20393e-19)
(0.0172851 -0.000257575 -4.1442e-18)
(0.0167876 2.71642e-05 -7.27425e-18)
(-3.79623e-07 2.71959e-06 2.24907e-19)
(-1.17773e-06 5.03483e-06 1.07063e-18)
(-0.00849859 0.00753269 -1.54973e-17)
(-0.010107 0.00821187 3.04014e-19)
(-0.0107394 0.00797468 -4.59553e-18)
(0.0219338 0.0020064 -4.58821e-18)
(0.0238228 0.00223258 5.96994e-18)
(0.0268214 0.00220503 -6.91083e-19)
(-0.000514325 0.00108618 5.12034e-18)
(-0.000515358 0.00106388 -1.77321e-18)
(-0.000533459 0.00109212 -2.91757e-18)
(0.0286962 0.00398389 -2.83632e-18)
(0.0315631 0.0041144 6.82786e-18)
(0.0292971 0.00413116 -2.9126e-19)
(0.0181033 -0.00231456 1.54198e-18)
(0.01799 -0.00189462 2.59624e-18)
(-0.00143375 -0.000813386 -2.02343e-18)
(-0.00145874 -0.000786607 1.63639e-17)
(0.00125752 0.00364605 -2.45914e-18)
(0.00172635 0.00343382 1.14316e-17)
(0.00123458 0.00356446 1.23698e-18)
(0.0206826 -0.0048795 6.85519e-19)
(0.02099 -0.00529051 1.3943e-18)
(0.0199044 -0.00442672 -1.8749e-18)
(-0.000528748 0.000674011 3.54358e-19)
(-0.000511467 0.000673846 -1.42196e-18)
(-0.000510765 0.000650471 4.61302e-19)
(-0.00049618 -1.46938e-05 -1.63714e-19)
(-0.000493192 -1.2681e-05 6.11636e-19)
(-0.00200179 -0.00125857 -1.58223e-18)
(-0.00169591 -0.00121999 -2.42171e-18)
(-0.00201619 -0.000942656 -3.60394e-18)
(-0.00132512 0.00170382 1.94739e-18)
(-0.00129508 0.00164878 -6.89047e-19)
(-0.00135 0.00167111 -6.51903e-19)
(-0.000148109 0.000988136 3.31779e-19)
(-0.000144175 0.00101424 3.58839e-18)
(0.0113912 -0.000418487 -3.97954e-18)
(0.0113983 -0.000474903 2.62095e-18)
(0.0110669 -0.000420406 -1.80127e-17)
(-9.86477e-05 0.00109063 -3.8559e-18)
(-9.82531e-05 0.00106525 -4.82752e-18)
(-0.000109747 0.00109351 3.62824e-18)
(-0.0015705 0.00147296 1.37173e-19)
(-0.002012 0.00155851 -3.48217e-19)
(-0.00351675 0.000315601 -3.92155e-19)
(-0.00356106 0.000329288 1.02321e-19)
(-0.00355395 0.000292916 -1.89746e-18)
(0.0242569 -0.00195559 5.55521e-19)
(0.0251773 -0.00243737 1.78283e-18)
(0.0247833 -0.00193315 -2.30289e-18)
(-0.000512515 0.00110718 4.99052e-18)
(-0.00049563 0.00107944 4.27692e-18)
(-0.00834188 0.000468286 -3.34197e-18)
(-0.00805269 0.000752428 -7.55966e-18)
(0.0279114 0.00381137 -4.00736e-18)
(0.0266043 0.00363649 3.53404e-19)
(0.00186908 -0.00653263 1.28009e-18)
(0.00491872 -0.00688853 4.01501e-19)
(0.00450523 -0.0080931 -2.95335e-19)
(0.0246338 -0.000222022 -1.65512e-18)
(0.0254798 -0.000159787 8.32344e-20)
(0.025577 0.000237999 -6.75011e-20)
(-6.25015e-05 0.000230609 1.4616e-18)
(-6.34486e-05 0.00022599 3.88603e-18)
(-0.00311247 -0.00905517 -6.13557e-19)
(-0.00425794 -0.00892981 3.28257e-18)
(-1.76465e-05 0.000383078 -3.94353e-18)
(-1.84902e-05 0.000384862 -4.62424e-19)
(-1.67627e-05 0.000403762 -1.66377e-18)
(-0.00129847 0.00171981 7.16573e-19)
(-0.00134649 0.00173944 -8.15409e-19)
(0.000927696 0.00245879 -3.96497e-18)
(0.00093345 0.00256843 -4.03289e-18)
(0.000852701 0.00249838 2.47219e-18)
(0.000899076 0.00235491 2.31443e-18)
(0.00100162 0.00242557 -8.61937e-18)
(0.0236769 -0.000267201 -5.99811e-18)
(0.023012 -0.000712826 -5.9246e-19)
(9.92757e-05 0.00192335 3.33168e-17)
(0.000134831 0.001939 -2.45185e-20)
(-0.000793471 0.00113932 -4.29494e-18)
(-0.000768264 0.00113934 -1.17465e-18)
(-0.000770843 0.00111024 -2.20019e-18)
(0.00443598 -0.00102405 -2.18653e-18)
(0.00240351 -0.000768816 -1.64479e-17)
(0.00330567 -0.000813772 -7.84779e-18)
(0.0102574 0.000157593 -3.29288e-19)
(0.00834432 0.000479539 -1.06777e-17)
(0.0101283 0.000352383 -2.12511e-17)
(-0.00451875 0.00182139 2.88557e-18)
(-0.00449434 0.00190575 6.03554e-18)
(-0.00460661 0.00189934 2.39284e-18)
(-0.000265782 0.000898535 -4.2995e-20)
(-0.000256492 0.00090015 -9.52026e-19)
(-0.000269899 0.00092314 -1.83245e-18)
(0.0260255 -0.000175847 2.16919e-19)
(0.0246601 -0.00059808 -3.93506e-18)
(-0.00364559 0.00049147 -1.35086e-18)
(-0.00360328 0.000506417 -7.00812e-20)
(-0.00364765 0.000524898 1.32322e-18)
(-0.000879862 0.0018151 -2.00755e-18)
(-0.000848823 0.00178472 1.02829e-19)
(-0.000876135 0.00177 -1.98207e-18)
(0.00321486 -0.000815194 -2.30207e-17)
(0.00395047 -0.000880079 1.96802e-18)
(-0.000638726 0.000188626 1.28608e-18)
(-0.00063323 0.000200905 7.50528e-19)
(-0.000659718 0.000201376 4.0029e-19)
(-0.00629002 0.00943592 -1.04639e-18)
(-0.00314514 0.00829782 -1.10593e-18)
(-0.000266908 0.000548462 -4.07384e-19)
(-0.000254529 0.00052893 8.50748e-20)
(-0.000253295 0.000542366 -5.47954e-19)
(-0.000819562 0.00114557 -1.85107e-18)
(-0.000811747 0.00117345 1.78582e-18)
(-0.00233853 0.00510294 -7.32394e-19)
(-0.00232511 0.00515132 1.03878e-17)
(-0.00235708 0.00508789 3.8214e-18)
(-0.00228931 0.0031874 -6.79224e-19)
(-0.00224871 0.00326105 4.66313e-18)
(0.0304111 -0.00157775 2.68182e-19)
(0.0306239 -0.0016252 -2.73148e-18)
(0.031215 -0.00157206 1.37496e-18)
(0.0265081 -0.000268274 9.85747e-18)
(0.0268125 0.000186121 -1.09714e-18)
(0.0101616 0.000498022 1.18819e-17)
(0.0112732 0.000732453 -7.85758e-18)
(0.0143331 0.000381406 -2.08246e-17)
(-0.00111424 0.00223543 -2.72717e-18)
(-0.00114481 0.00219853 -4.68949e-18)
(0.0140292 -0.000385204 1.7992e-18)
(0.0135452 -0.000322667 -6.51286e-19)
(0.0142511 -0.000505313 -1.23474e-18)
(-9.905e-05 0.000666732 7.18259e-19)
(-0.000103578 0.000660305 -1.25639e-18)
(-9.47679e-05 0.000641574 2.05189e-18)
(0.015403 -0.000223992 -1.23534e-18)
(0.0113184 5.03257e-05 -9.33891e-18)
(-9.67661e-05 0.00111882 1.1433e-17)
(-8.62833e-05 0.00108972 4.97932e-18)
(-0.00271892 0.000142024 -1.80525e-18)
(-0.00276137 0.000134702 1.67982e-18)
(0.00543137 -0.000341277 -1.23189e-17)
(0.00573749 -0.000423394 -8.8279e-18)
(0.00877174 0.000405529 2.57818e-17)
(0.00703277 0.000145 1.49591e-17)
(0.0234019 0.000762979 2.98619e-18)
(0.022028 0.000697557 6.57622e-18)
(0.0204032 0.000340153 3.02848e-18)
(0.00114286 0.00357251 -6.58524e-19)
(0.0010595 0.00355133 5.49258e-18)
(0.0011064 0.00346212 1.10627e-18)
(-0.000430851 0.000706849 -2.06693e-18)
(-0.000416342 0.000707343 1.50868e-18)
(-0.000438208 0.00072969 -3.02565e-19)
(-0.00110285 -8.39724e-05 -5.17663e-19)
(-0.00114828 0.000391484 5.57769e-19)
(-0.00148187 0.000152628 1.89277e-18)
(0.0123352 -0.000709812 1.88002e-18)
(0.0124791 -0.000719658 4.44738e-18)
(0.0117093 -0.000867278 1.09464e-17)
(-0.00129455 0.00499318 4.4699e-18)
(-0.00134607 0.00510531 6.39533e-18)
(-0.00121896 0.00508096 4.3479e-18)
(-0.001061 -0.000527183 -1.94425e-18)
(-0.000550583 -0.000312777 -2.08975e-18)
(3.44249e-05 0.00203312 8.23404e-18)
(1.89123e-05 0.00201231 8.86826e-18)
(1.55284e-05 0.00203148 -8.14546e-18)
(6.2091e-05 0.00210007 1.43844e-17)
(4.8753e-05 0.00207293 6.52322e-18)
(7.55802e-05 0.00207799 -1.87918e-17)
(-0.000253787 0.000990925 1.29798e-18)
(-0.000260702 0.000986351 1.58414e-19)
(-0.000266283 0.00101748 9.25192e-18)
(-0.00059916 0.000666103 -8.03829e-19)
(-0.00061823 0.000689014 1.50117e-18)
(-0.000613755 0.000666103 1.36946e-18)
(-0.00412831 0.00232424 -1.29494e-18)
(-0.00409299 0.0024009 -8.44632e-19)
(-0.00420461 0.0023756 -2.06665e-19)
(-0.000577544 0.000639819 -1.65521e-18)
(-0.00057772 0.000667315 3.22976e-18)
(0.0100495 0.00022235 1.09572e-17)
(0.0132058 0.000189709 1.04263e-17)
(-0.00266981 0.000152339 -1.63897e-18)
(-0.0027273 0.00018069 -3.02885e-19)
(-0.00110316 0.000679994 -8.10888e-19)
(-0.00111552 0.000657965 -7.81036e-19)
(-0.00079989 0.00249295 -1.62138e-18)
(-0.000799955 0.0025453 -7.22156e-19)
(-0.000762539 0.0025001 3.24229e-18)
(-0.000548384 0.000679065 -2.11821e-19)
(-0.000550939 0.000702831 8.58551e-19)
(-0.00428107 0.00508017 -3.26191e-18)
(-0.00438072 0.00506636 -1.39653e-17)
(-0.00435828 0.00518473 -6.33152e-18)
(-0.00345497 0.00369996 -1.7354e-18)
(-0.00345624 0.00361641 5.95219e-19)
(-0.00337427 0.00364986 -3.77297e-18)
(-0.00694807 -0.00147842 -2.85972e-18)
(-0.00671331 -0.00168199 4.07857e-18)
(-0.0070841 -0.0017757 -3.06935e-19)
(-0.00347242 0.000298119 -2.38961e-19)
(-0.00347687 0.000332785 6.84798e-19)
(-0.000408644 0.000237293 8.21355e-20)
(-0.00040339 0.000243947 1.15368e-19)
(-0.000420975 0.000247916 2.47978e-20)
(-0.000366478 2.38167e-05 -2.17769e-20)
(-0.000366303 3.5729e-05 6.32068e-19)
(-0.00113104 -0.000987708 -6.44431e-18)
(-0.000349623 -0.00142044 1.03367e-18)
(0.00625291 -0.00126167 -5.48917e-18)
(0.00745415 -0.00122448 -2.11938e-17)
(0.000594003 0.00388745 -6.35358e-19)
(0.000673723 0.00382543 4.21765e-18)
(0.000721149 0.00389783 -4.83537e-18)
(-0.000937315 0.000555843 -1.33536e-18)
(-0.000902881 0.000547695 -1.06335e-18)
(-0.000916838 0.000530896 1.789e-18)
(-0.000677948 0.00111963 -1.94012e-18)
(-0.00070132 0.00113799 -3.30452e-18)
(-0.000685999 0.00115179 3.45283e-18)
(0.0302963 0.000984117 7.14032e-19)
(0.0307078 0.00132469 -3.99714e-18)
(0.0298599 0.00117882 -1.24123e-18)
(-0.00621727 0.00513581 1.00032e-19)
(-0.00598985 0.00513539 1.14885e-18)
(-0.00595249 0.00531586 -3.45136e-18)
(0.000204894 0.0018671 2.01374e-17)
(0.000201351 0.00187948 3.93434e-17)
(0.00023063 0.00188457 -2.18135e-17)
(-0.000448744 0.000709201 -9.35889e-19)
(-0.000423511 0.000683809 -8.6868e-19)
(-0.00143967 0.00377459 -1.77309e-18)
(-0.00149826 0.00372806 2.63464e-18)
(-0.00141447 0.00369196 2.87262e-18)
(0.0339116 0.00347504 -6.78495e-19)
(0.0325745 0.00324231 -2.5464e-18)
(0.0333366 0.00370025 -2.24928e-18)
(-0.00444281 0.00128631 2.55039e-18)
(-0.00453001 0.00128947 -2.81937e-18)
(-0.00444638 0.00136045 5.94081e-19)
(-0.00101588 0.00213456 -1.8183e-18)
(-0.00102074 0.00218781 -5.83306e-18)
(-0.00223201 0.00255133 6.31092e-20)
(-0.00230505 0.0025205 1.95721e-18)
(-0.00222581 0.00248384 -3.80291e-20)
(-0.00432215 0.00675928 2.04708e-18)
(-0.00489894 0.00678733 -1.03314e-17)
(0.0392766 0.00143551 -2.76448e-18)
(0.0380071 0.001572 -2.18606e-18)
(-0.0023962 0.00403536 6.5681e-18)
(-0.00245999 0.00396486 -2.17956e-18)
(0.0228529 0.00177757 -2.74412e-18)
(0.0206044 0.00158476 -3.27679e-19)
(0.0195697 0.00171554 -3.90191e-18)
(8.39715e-05 0.00195515 1.28883e-17)
(0.0118882 0.0005035 -3.3013e-18)
(0.00910176 0.000511369 6.57012e-18)
(-6.37418e-05 0.00198792 1.23839e-18)
(-4.67621e-05 0.00198551 1.31799e-17)
(-5.60935e-05 0.00197205 5.39331e-18)
(-0.00442066 0.00111042 -3.24438e-19)
(-0.0043444 0.00108084 -1.00988e-19)
(-0.00442434 0.00102798 1.04514e-19)
(-0.00235444 0.00507046 -1.26377e-17)
(-0.00237055 0.00511426 -1.9768e-17)
(-0.000306479 0.00140646 -2.79462e-18)
(-0.000292462 0.00138404 -1.76031e-18)
(-0.000305301 0.00137472 -3.55663e-18)
(-9.65955e-05 0.000674134 -7.3228e-20)
(-0.000104865 0.000691684 6.79085e-18)
(0.000401249 0.00210508 1.17482e-19)
(0.00041495 0.0020704 -2.07576e-17)
(0.000454052 0.00213316 3.32485e-18)
(-0.0149535 0.00854467 -2.54684e-18)
(-0.0168315 0.010314 -2.35375e-18)
(-0.0177343 0.00818511 -3.87204e-18)
(-0.000709842 0.00170563 3.69581e-18)
(-0.000709428 0.00173667 5.09089e-18)
(-0.000681849 0.00171334 1.33837e-18)
(-0.000642823 0.000176092 1.41767e-18)
(-0.000618852 0.000178375 -1.95352e-19)
(0.00756489 0.000216937 1.13695e-17)
(0.019997 -0.00367025 -1.49007e-18)
(0.020669 -0.00401449 1.28899e-18)
(0.019811 -0.00318828 3.39038e-18)
(-0.00141324 0.00382177 -4.18961e-19)
(-0.00148941 0.00383513 -1.99937e-18)
(-0.0012561 -0.000703965 -8.73458e-19)
(-0.000973881 -0.00092559 7.3228e-19)
(-0.00413821 0.00513743 2.23645e-18)
(-0.00419701 0.00497813 1.53081e-17)
(-0.00344827 0.00378299 -5.23424e-19)
(-0.00353522 0.00375114 -1.74719e-18)
(-0.0055021 0.0047041 -2.86589e-18)
(-0.00545396 0.00463548 -5.69355e-18)
(-0.00551361 0.00462757 -1.45718e-17)
(-0.000158669 0.00116015 -3.73528e-18)
(-0.000168735 0.00116365 -2.58197e-18)
(-0.000165723 0.00118855 6.17762e-19)
(-8.34566e-05 0.000849374 3.12768e-19)
(-7.64442e-05 0.000856846 -6.85887e-19)
(-7.5485e-05 0.000830048 3.53982e-19)
(-5.48606e-05 0.000184161 -1.521e-18)
(-5.4789e-05 0.000189472 -6.97836e-19)
(-4.91061e-05 0.000175004 -1.62332e-18)
(0.0204389 0.00162883 8.87351e-18)
(0.0184036 0.00156253 5.46445e-18)
(-0.00424522 0.00116308 -2.2122e-19)
(-0.00427412 0.0011086 -1.95813e-18)
(-0.00420926 0.00111023 5.12908e-20)
(-0.00246394 0.000441553 3.60687e-19)
(-0.00250432 0.000436316 1.84193e-19)
(-0.00249822 0.000472674 -2.86645e-19)
(-2.57922e-06 1.03295e-05 -9.89577e-19)
(-2.68833e-06 9.03642e-06 1.5028e-19)
(-4.01241e-06 1.24024e-05 2.73099e-18)
(0.0166831 -0.0008632 2.13415e-19)
(0.0167523 -0.00116684 -6.68366e-19)
(0.0172636 -0.00108963 7.44421e-19)
(-0.0041778 0.00224428 1.06306e-18)
(-0.00405852 0.00226414 -9.30231e-19)
(-0.00235247 -0.00126749 -6.42259e-19)
(-0.00214253 -0.00162926 7.37388e-19)
(0.0304496 -0.00194401 -2.1954e-18)
(0.0297485 -0.00170899 4.90825e-18)
(0.0305804 -0.00818605 -7.12942e-19)
(0.0294632 -0.00732743 -1.80635e-18)
(0.0299958 -0.00798799 2.04906e-18)
(0.0312181 -0.00801706 5.53787e-19)
(0.0319263 -0.00893641 -1.01047e-18)
(0.011036 -0.00025237 -1.40742e-18)
(0.0121449 -0.000157299 3.19107e-19)
(-0.000843088 0.00247944 -3.2054e-19)
(-0.000802796 0.00243782 -1.04495e-18)
(0.047834 -0.00166144 -3.27735e-19)
(0.0474326 -0.00215107 2.10137e-18)
(0.0492948 -0.0020321 3.02015e-18)
(-5.71935e-05 0.000222116 -1.05872e-18)
(-5.23161e-05 0.000213453 1.25844e-18)
(-5.25523e-05 0.000208297 2.3188e-18)
(-0.000416019 0.000229912 1.65996e-18)
(-0.000396333 0.000224278 -2.95178e-19)
(-0.00433221 0.00289935 -4.11988e-19)
(-0.00426321 0.00296954 -1.57277e-18)
(-0.00423362 0.00286364 1.01527e-18)
(-2.57564e-05 8.86124e-06 6.61046e-19)
(-2.32465e-05 1.1349e-05 7.23469e-21)
(-2.16364e-05 7.41215e-06 -7.61479e-19)
(0.0242708 0.000375613 5.20017e-20)
(0.0271811 0.000621763 -2.005e-19)
(-0.0124561 -0.00383973 -4.80215e-19)
(-0.0112975 -0.0037993 -4.32954e-19)
(-0.0119181 -0.00464543 1.7801e-18)
(-0.00244067 -0.00315608 -2.68279e-18)
(-0.00282892 -0.00346157 2.73919e-19)
(-0.0021653 -0.00364615 -3.34405e-19)
(-0.00042356 0.000224028 1.18792e-18)
(-0.000434311 0.000235502 3.89381e-18)
(-0.00364008 0.000429791 4.60549e-20)
(-0.00364267 0.000463118 1.03671e-19)
(-0.00359918 0.000441123 4.7038e-19)
(-0.00206937 -0.00279704 1.65911e-18)
(-0.00254421 -0.0026919 8.07159e-21)
(-0.00647755 0.00519152 6.13157e-18)
(-0.00633996 0.0049268 -1.73602e-19)
(0.00118096 0.00374634 -2.19609e-18)
(-0.000883935 0.00246292 6.67094e-19)
(-0.000885954 0.00240907 8.41118e-18)
(-0.000925331 0.00244372 -1.3226e-18)
(-0.00442976 0.00118593 -1.23916e-18)
(-0.00434188 0.00125663 -1.2973e-18)
(0.000750588 -0.000847454 2.37914e-17)
(0.000795658 -0.000827989 -1.83352e-17)
(0.0200217 -0.00403691 -1.38106e-18)
(0.0194979 -0.00344886 -4.14942e-18)
(-0.00777987 -8.81451e-05 -2.07534e-19)
(-0.00814023 -0.000120379 1.71772e-18)
(-0.000122562 0.0018809 -1.17126e-17)
(-0.00011603 0.00187195 5.28987e-21)
(-0.000113121 0.00189636 -6.37279e-18)
(-0.000184893 0.00112423 3.16208e-18)
(-0.000174206 0.00111936 3.36742e-18)
(-0.00017736 0.00109695 -5.41221e-18)
(-0.00058842 0.000499461 -8.8465e-19)
(-0.000592483 0.000518903 -1.3702e-18)
(-0.000613652 0.000512861 2.23727e-19)
(-0.00951374 0.00807956 -4.58003e-18)
(-0.00984923 0.00777507 2.85738e-18)
(-0.00425939 0.00122548 -5.46717e-19)
(-0.0041748 0.00120604 -2.1782e-20)
(0.0297142 -0.00156294 4.23848e-18)
(0.0286486 -0.00158441 -4.75509e-18)
(-0.00239532 0.00171841 -7.32092e-19)
(-0.00243309 0.00177893 -4.45734e-19)
(-0.000708298 0.00166876 -4.38592e-18)
(-0.000737409 0.00169518 2.58147e-18)
(-0.00122705 0.0007414 9.91028e-19)
(-0.00137651 0.00115974 -1.63432e-18)
(-0.00165322 0.000924183 3.20161e-19)
(-0.0076597 -0.000246802 -1.48445e-18)
(-0.00748754 -1.03831e-05 -4.30587e-18)
(-0.00160259 0.000539599 5.0858e-20)
(-0.00163125 0.000562876 -1.40449e-19)
(-0.00159292 0.000563975 -1.91161e-20)
(-0.00133068 0.000996703 -8.07175e-20)
(-0.00128829 0.000983817 -1.00023e-18)
(-0.00131288 0.000962828 3.15805e-19)
(0.000120997 0.0019423 -2.41863e-17)
(0.000124725 0.00195314 6.42558e-18)
(0.000148558 0.00196987 3.84612e-18)
(-0.00237441 0.00505318 -7.4376e-19)
(-0.0023831 0.00505553 -1.18226e-18)
(-0.00237003 0.00506223 -1.00121e-17)
(0.0221648 -0.00175884 4.36622e-18)
(0.0241591 -0.00205942 -3.90369e-19)
(0.0248152 -0.00211985 -1.19547e-18)
(0.0263183 0.00292661 -2.20801e-19)
(0.0254879 0.00267752 -2.15448e-18)
(0.0287365 0.00290382 -2.89348e-18)
(-0.00386092 0.00109821 2.8979e-18)
(-0.00393011 0.00107487 -1.57829e-18)
(0.001764 0.00252628 1.12766e-18)
(0.00214102 0.00184184 -2.28855e-18)
(0.00246768 0.00194176 8.73264e-18)
(0.0198595 -0.00144825 -1.81871e-18)
(0.0205566 -0.00152952 8.40381e-18)
(-0.00011602 0.00154371 8.05166e-18)
(-0.000111255 0.00151987 3.34529e-18)
(-0.000106964 0.00153805 5.94167e-18)
(-0.00427592 0.000673061 -3.39675e-19)
(-0.00428408 0.000724284 2.11279e-19)
(-0.00423177 0.00068785 -3.85989e-19)
(0.0322675 -0.00563815 1.1224e-19)
(0.0333591 -0.00600955 -9.47265e-19)
(0.032566 -0.00536197 8.55079e-19)
(-0.00210376 0.00182093 8.51999e-20)
(-0.00210833 0.00186417 -4.81509e-20)
(-0.00205773 0.00183565 -6.07467e-20)
(-0.00232481 0.00233923 9.31074e-19)
(-0.0025889 0.00259978 1.1498e-18)
(-0.0020113 0.00263041 1.22865e-18)
(-0.000659705 0.00110898 -3.37853e-18)
(-0.000668332 0.00109762 -3.87047e-18)
(-0.00238495 0.00503716 1.14698e-17)
(-4.36026e-06 5.03805e-05 5.09941e-19)
(-5.99025e-06 5.90111e-05 -1.81259e-18)
(-5.7531e-06 6.13615e-05 -1.40398e-18)
(-0.00246231 0.00323355 -3.87318e-19)
(-0.00255378 0.00325127 -1.96643e-18)
(-0.00247007 0.00332864 -4.91947e-19)
(-0.000905165 0.00191223 3.14616e-18)
(-0.000937387 0.00193075 5.75726e-19)
(-0.000914518 0.00195564 -9.55591e-19)
(-0.000140106 0.000967065 -2.32161e-18)
(-0.000147001 0.000958589 -1.38271e-18)
(-0.00942595 0.00335566 3.29392e-18)
(-0.00978764 0.00339108 -1.81934e-18)
(-0.00955444 0.00371975 3.75487e-18)
(-0.00150014 0.000821357 2.1222e-19)
(-0.00146757 0.000789152 -7.5681e-19)
(-0.00151793 0.000789652 4.87825e-20)
(0.000168758 0.00168029 -4.46141e-17)
(0.000211975 0.00164964 7.08311e-19)
(-0.000412941 0.000210877 -9.28083e-19)
(-0.000432688 0.000217471 -7.54962e-20)
(-0.00788909 0.0021332 -2.42521e-19)
(-0.00778286 0.00238804 -1.63402e-18)
(-0.00761266 0.0021056 -3.08424e-18)
(0.0302761 -0.00143045 -2.22331e-18)
(0.029679 -0.00154422 -2.46733e-18)
(0.0219612 0.000946054 3.01133e-18)
(0.0211915 0.00131473 -3.08167e-18)
(0.0247787 0.00116952 -3.08487e-18)
(-0.00012778 0.00190756 1.8191e-18)
(-0.000141148 0.00189171 -1.09111e-18)
(-0.00014042 0.00192077 1.49512e-17)
(-0.00425382 0.000624322 -7.26235e-19)
(-0.0043209 0.000647274 1.28148e-19)
(-2.13039e-06 3.26455e-05 -1.1356e-18)
(-1.28374e-06 2.42293e-05 2.46434e-18)
(-1.24522e-06 2.48869e-05 -2.39852e-18)
(0.000364449 0.00213773 1.70118e-18)
(0.000354257 0.00208044 -1.08186e-17)
(-0.000143518 0.000427111 2.96268e-18)
(-0.000134862 0.000406421 1.15397e-18)
(-0.00014535 0.000418121 -5.34194e-19)
(-0.00243989 0.00317838 -2.42567e-18)
(0.0153777 -0.00384499 2.20651e-18)
(0.0102144 -0.00250106 -1.49571e-17)
(0.0126635 -0.00276804 4.46772e-17)
(-0.000126083 0.0018947 7.1132e-18)
(-0.00012889 0.00186064 1.51625e-17)
(-0.00209193 0.00176282 5.50009e-20)
(-0.00215175 0.00179435 -3.99205e-19)
(-8.74493e-06 0.000332541 2.14185e-18)
(-8.4277e-06 0.000354337 1.89054e-18)
(0.024579 0.00293027 8.06609e-18)
(0.0267654 0.00316758 7.54669e-19)
(-0.000667019 0.000393611 -4.54618e-19)
(-0.000650671 0.000371591 7.76144e-19)
(0.00801412 0.000698683 -2.16845e-17)
(0.00522337 0.00202039 3.15269e-18)
(0.0249982 0.00242125 2.30562e-19)
(0.0243663 0.00213611 -1.93807e-18)
(0.0274045 0.00224839 2.44418e-18)
(-0.00125622 0.00486725 -5.59299e-18)
(-0.00138238 0.00490565 -3.60886e-18)
(-2.52083e-06 1.15475e-05 -8.09031e-19)
(-1.43821e-06 8.24572e-06 -2.41474e-18)
(0.00088892 0.00548648 -2.1012e-20)
(0.000506461 0.00592558 -2.85104e-17)
(0.000306401 0.00573211 2.99826e-18)
(0.0270724 -0.000314407 1.56153e-18)
(0.0276906 -0.000138015 -5.97547e-18)
(0.0278549 0.00022126 -1.01444e-17)
(0.0215331 -0.00524255 -2.29574e-19)
(0.0202706 -0.00440998 7.63909e-19)
(-0.00248364 0.00207696 -4.00221e-18)
(-0.00344034 0.00176763 1.68496e-19)
(-0.00339674 0.0018285 9.30045e-19)
(-0.00336513 0.00174475 -2.77529e-19)
(0.000430686 0.0020332 -4.17537e-18)
(0.000451056 0.00205086 -2.75149e-17)
(0.000428122 0.00206335 1.65808e-17)
(-0.00924291 0.00301091 -1.57801e-18)
(-0.00903066 0.0033013 8.8783e-19)
(-0.0036755 0.000417839 -8.75772e-20)
(-0.00363384 0.000398211 5.8264e-19)
(0.00101485 0.00364621 3.58126e-18)
(0.000943038 0.00355582 9.42041e-20)
(-0.000955197 0.00270547 -4.82087e-19)
(-0.000913116 0.00266356 6.12335e-20)
(-0.000958414 0.00265186 2.88671e-19)
(0.0180684 -0.00158108 -9.69696e-19)
(0.0180196 -0.00124238 2.80825e-19)
(0.0173902 -0.00115683 -4.09277e-19)
(-0.00605123 0.00397752 1.48912e-19)
(-0.00620157 0.00391382 -4.82757e-18)
(-0.00603901 0.00383496 -2.43134e-18)
(-0.000254499 1.81265e-05 -2.54883e-19)
(-0.000270488 2.54293e-05 -5.47467e-18)
(-0.000258449 3.53084e-05 3.61259e-18)
(-0.00278406 0.00129627 -6.14728e-19)
(-0.00273575 0.00125684 -2.51794e-19)
(-0.00271782 0.0013044 9.13583e-19)
(-0.000688544 0.000573268 -7.85048e-19)
(0.0165381 -0.000523235 4.16471e-18)
(0.01622 -0.000636815 4.19927e-18)
(0.0143672 0.000372682 2.36841e-18)
(0.0147743 0.000470047 1.01626e-18)
(0.0145966 0.000422028 -5.57873e-19)
(-0.000566729 0.000487135 8.28051e-20)
(-0.000584869 0.000483611 -3.6653e-19)
(0.000210951 0.00185836 -1.12513e-17)
(-0.000107544 0.000654461 -2.56604e-18)
(-0.000112228 0.000648365 2.97666e-18)
(-0.000103725 0.000630872 -1.09485e-19)
(-0.0098549 -0.000658018 -6.01713e-19)
(-0.00991111 -0.000208186 2.78407e-18)
(-0.0094875 -0.000414167 -8.43151e-19)
(-0.00585759 0.00500432 8.47006e-19)
(-0.00571196 0.00492154 -5.18235e-18)
(-0.00588579 0.00486255 -3.96569e-18)
(-0.00281644 0.00133523 -3.56864e-20)
(-0.00283341 0.00129199 -1.38421e-18)
(-0.00422074 0.00217702 3.41202e-19)
(-0.00428991 0.00223159 -1.68734e-18)
(-0.00592549 0.00405543 1.04876e-17)
(-0.00604685 0.00411796 8.50716e-18)
(-0.000281518 0.000797206 3.10766e-18)
(-0.00029776 0.000807707 1.03904e-18)
(-0.000281298 0.000776888 1.08757e-19)
(4.33606e-05 0.00205314 1.39704e-17)
(5.28922e-05 0.00203397 1.6718e-17)
(-0.00319635 -0.00123102 -1.69815e-18)
(-0.0028912 -0.00124865 2.07699e-19)
(-0.00308133 -0.000980864 7.85692e-20)
(-0.0173578 0.0102112 3.56087e-18)
(-0.0166762 0.0104429 -2.01074e-18)
(-0.0129815 0.00889378 2.22588e-18)
(-6.10737e-05 0.000379759 2.88782e-18)
(-5.7274e-05 0.000361133 -4.00345e-19)
(-5.48285e-05 0.000361985 -1.00697e-18)
(-0.000134234 0.000945534 -7.47991e-18)
(-0.000131362 0.000972464 -8.47483e-19)
(-0.000117474 0.00191935 -3.08571e-18)
(0.036746 -0.00608154 -4.44354e-19)
(0.0365031 -0.00656983 -2.61225e-18)
(0.0376202 -0.00655336 -2.7663e-18)
(-0.00201535 -0.000919218 -1.1977e-18)
(-0.00309078 -0.000907447 1.64689e-18)
(-0.00197083 -0.000927334 -1.17798e-17)
(-0.00441627 0.00159008 1.96884e-18)
(-0.00433485 0.00158817 -6.53578e-19)
(-0.00439409 0.00167153 -5.08917e-19)
(-0.000968259 0.000563406 -1.72923e-18)
(-0.000954822 0.000582111 -2.31682e-18)
(-0.00666577 0.00519977 -7.4337e-20)
(-0.00642604 0.0053737 1.95308e-18)
(-0.005547 0.00476625 5.82804e-18)
(-0.00563155 0.00485171 -3.6289e-18)
(-0.00565253 0.00473924 3.67953e-18)
(-0.00701658 -0.000654932 -2.39938e-18)
(-0.00677909 -0.000891438 2.79316e-18)
(-0.006685 -0.000594167 -1.18936e-18)
(-0.00427098 0.00209362 -5.63591e-19)
(-0.00415517 0.00211263 1.15237e-18)
(0.0369847 -0.00565799 1.37728e-19)
(0.0358834 -0.00567932 -2.78591e-19)
(0.0146766 -0.000254794 1.08177e-18)
(0.0150363 -0.000150905 -1.30743e-18)
(0.0136519 -0.000533546 -3.73732e-19)
(-0.00273534 0.00153879 -6.78885e-19)
(-0.00271093 0.0015786 -3.04058e-18)
(-0.00276996 0.00157051 1.5775e-19)
(-0.00369449 0.00110244 -5.17873e-19)
(-0.00375489 0.00112337 -3.06575e-18)
(-0.00372892 0.00106493 -2.39459e-19)
(-0.00688207 0.00989947 -4.50117e-18)
(-0.00660063 0.010255 -2.72309e-18)
(0.000729984 0.00919584 6.57305e-18)
(-0.00066104 0.000643859 -1.56784e-18)
(-0.000674455 0.000671285 5.57642e-20)
(-0.00064046 0.000648744 1.39708e-18)
(-5.40677e-05 0.000176143 3.71151e-18)
(-5.30258e-05 0.000171436 -1.56432e-19)
(-4.88478e-05 0.000163974 -4.02702e-20)
(-0.00718414 -0.000477436 -5.02704e-18)
(-0.00729266 -0.000765691 2.19343e-18)
(-0.00199268 0.00379211 5.45267e-18)
(-0.00204305 0.00374264 2.55898e-18)
(-0.00196705 0.00371725 2.18448e-18)
(-0.000693917 0.00039841 -9.98149e-19)
(-0.000717528 0.000403696 -8.56288e-19)
(-0.000699815 0.00038453 -6.28369e-19)
(-7.00878e-06 5.73436e-05 1.63638e-18)
(-6.21656e-06 5.81369e-05 -2.16077e-18)
(-4.34691e-06 4.85992e-05 -2.75404e-19)
(-0.000151044 0.000443232 2.03911e-18)
(-0.000141254 0.000432182 1.9696e-18)
(-9.69043e-05 1.76602e-05 1.15388e-18)
(-0.000104357 1.83404e-05 2.29607e-18)
(-9.55221e-05 1.04079e-05 4.36343e-18)
(-0.00349554 0.00150437 -1.20292e-18)
(-0.00354704 0.00155361 -9.57598e-20)
(-0.00357528 0.00148931 1.97947e-18)
(-6.18063e-05 0.000191543 3.33936e-18)
(0.0319132 -0.00591516 -1.60526e-18)
(0.0326405 -0.00656906 -1.18775e-18)
(-0.00426228 0.00170609 2.8219e-18)
(-0.00425619 0.00161367 -5.15361e-19)
(-0.000552684 0.000925778 2.21821e-19)
(-0.000536352 0.000923674 1.55364e-18)
(-0.000557601 0.000947053 -1.31685e-18)
(0.0162577 -0.000274356 1.43964e-18)
(0.0305074 0.000731244 2.49153e-18)
(0.0298774 0.000695563 2.44923e-18)
(-0.000138168 0.00110589 1.74428e-18)
(-0.000145595 0.00110736 6.81033e-19)
(-0.000137637 0.00108245 2.06999e-18)
(-0.00815572 0.00217328 2.40225e-18)
(0.0120155 -0.000453491 -6.40631e-19)
(0.0120473 -0.00059413 1.40385e-17)
(0.0121409 -0.00054292 4.92142e-18)
(-0.000304934 0.00143611 1.38671e-17)
(-0.000318022 0.00143339 -8.99434e-18)