/*--------------------------------*- C++ -*----------------------------------*\
| =========                 |                                                 |
| \\      /  F ield         | OpenFOAM: The Open Source CFD Toolbox           |
|  \\    /   O peration     | Version:  v2012                                 |
|   \\  /    A nd           | Website:  www.openfoam.com                      |
|    \\/     M anipulation  |                                                 |
\*---------------------------------------------------------------------------*/
FoamFile
{
    version     2.0;
    format      ascii;
    class       volScalarField;
    location    "700";
    object      omega;
}
// * * * * * * * * * * * * * * * * * * * * * * * * * * * * * * * * * * * * * //

dimensions      [0 0 -1 0 0 0 0];


internalField   nonuniform List<scalar> 
13851
(
0.0874217
0.0234154
0.0233399
5.73971
0.0220813
0.0245436
0.023554
0.0218245
3.13048
0.0220485
0.0507152
0.0220761
0.0221255
5.26424
0.0302584
0.105374
7.1919
0.0218963
0.18211
0.0870307
0.0325769
0.0250529
19.5054
0.0222638
0.503834
0.0499887
0.273099
0.692494
2.89854
0.0217632
7.01179
0.0235415
0.0868973
4.20548
0.0362742
2.87235
0.022274
0.925442
6.12673
0.0220551
4.36717
2.99003
19.9726
0.43128
3.16277
0.0218721
0.0216449
0.0958685
0.0230281
0.022118
6.4889
0.0221939
0.104567
0.0274495
5.07845
0.0220602
0.0880066
4.1987
0.958224
5.19341
0.022084
0.176827
0.0221003
0.0231225
0.182909
0.192004
6.93891
0.0654065
0.022065
5.99888
5.50752
0.0376698
0.0220196
6.23848
0.0281916
0.0233537
5.83013
0.0216842
0.482988
0.0219429
0.0220755
0.198656
0.0360511
4.84165
5.0989
6.52755
0.0251331
6.33931
0.0220328
7.27277
0.0222334
0.0235856
21.3337
5.8328
4.75438
0.269208
0.0219059
0.105412
5.70084
0.125159
0.108642
0.0423584
0.0452531
0.0220659
0.0218558
0.0367084
0.0218573
5.88579
0.0235749
0.0218776
0.0291295
0.0218697
0.103423
0.0466953
0.0878421
0.0270095
0.0217754
0.0217909
5.72595
6.93131
0.170902
0.0218007
0.0220633
3.4402
0.151562
0.115343
0.0219037
0.0476846
3.83707
0.0355894
0.0250065
0.0278697
0.646986
4.09158
0.0513566
4.9407
0.0628582
6.09089
0.0347067
0.0353895
0.190585
0.022618
0.022033
0.0983517
0.671992
0.0232228
0.0216788
6.0474
3.01031
0.0497236
0.107684
0.101148
0.0492595
0.147726
0.0222892
0.0220643
0.0220995
5.67058
0.0333266
0.0230669
0.0222429
2.8875
0.0359708
0.0959244
5.01721
3.26528
3.32313
5.33268
0.0286787
5.7175
0.0220995
0.0217791
0.0430554
0.0221389
5.03913
0.202694
0.113788
0.0217662
0.0282261
0.111364
0.146371
0.397977
0.0278238
0.035352
21.0725
2.98099
0.0873013
0.0292074
0.0222187
0.0218096
0.323521
0.0332933
7.24929
0.0245817
0.0230995
0.105081
0.0850198
0.0220493
0.022086
0.0694456
0.193583
4.57191
4.34028
0.0302534
2.23398
4.33025
0.0237502
0.0352055
3.17603
0.0242233
0.105837
0.0220497
0.197361
0.0222337
0.0367026
0.0238886
0.0220987
0.141291
0.0220863
3.95806
0.0217649
0.0867451
5.85567
4.98637
0.0289163
0.0356002
0.0222635
0.0870109
0.0220066
0.0363051
12.2553
0.029016
0.0242075
0.0221225
4.20818
0.0217586
10.4012
4.32233
0.110985
0.0222512
0.542909
5.11516
3.23728
0.104044
0.0282786
0.130462
0.126836
0.0283855
0.249928
0.03048
5.79391
0.0868936
0.0218355
0.0244238
0.10725
2.8502
4.1964
0.0218067
0.122596
0.0220293
0.123691
0.148906
0.0246611
0.0364354
0.0899224
0.0219732
0.0430912
0.0803446
0.455812
0.0220802
0.0220945
0.0290976
3.55876
7.12917
0.035293
0.0218119
0.14839
0.147947
0.0779336
0.0359398
3.46421
6.04017
0.0248979
0.0285201
1.68139
0.0218437
0.0220991
0.0800571
0.0458755
0.0217555
0.0222311
0.0219987
0.021997
0.0281517
0.0220921
3.1694
0.0337055
0.0219539
2.83017
3.47644
0.0222145
0.0881414
6.209
0.0227052
0.0222365
0.0348227
5.28925
9.28017
0.0462205
0.0220719
5.61584
0.0220915
0.0495303
5.14576
0.372743
0.0229828
1.05421
0.445425
6.15995
0.100617
0.0446993
5.37509
3.46598
0.627405
0.0221327
5.60706
19.8382
0.710171
0.642655
0.0237703
0.0459973
0.0290035
5.67078
0.0490246
0.0218707
0.0215731
0.0257803
5.66475
3.30154
0.0218382
4.76403
0.0292704
0.0280946
0.0231479
6.27431
0.145883
0.106181
0.0237027
0.023907
2.80048
0.0222278
0.153311
0.0248402
0.0347929
0.0297777
0.0220284
0.0219504
0.102639
0.13401
0.0873534
0.547666
2.84551
0.0232757
4.16338
0.149573
0.021721
0.587933
0.0611962
4.92676
0.025384
0.0536757
0.224328
0.53372
0.0997199
4.78714
0.0224255
0.193592
14.7329
0.0268612
4.45374
0.0282378
4.60927
0.0282801
0.0329656
0.0876119
0.169848
0.0220676
0.0246636
0.0490256
0.0283662
0.0218918
0.0355551
4.85554
0.0220131
0.0352805
6.31777
0.0233643
1.46155
0.035034
9.25123
0.0245449
0.0476033
1.65147
0.151995
0.0362447
5.04653
6.21432
0.480756
0.0219804
0.101143
0.028444
0.0526931
0.0218116
20.4439
5.09321
0.605114
0.023869
0.0889642
0.177535
6.67929
0.0216313
6.93753
0.18775
23.55
0.0312715
0.781475
0.0220427
0.0221261
6.09252
0.186233
0.0220454
0.0234431
0.0357689
0.021811
5.10661
0.0461704
0.0602281
0.0243402
0.0224342
0.0222196
0.531984
0.021953
0.0221966
3.74576
4.89296
0.0247436
0.166903
0.0221074
0.0220913
0.0235768
0.0894113
0.0349562
0.0219007
0.0225701
0.158974
0.022866
9.8221
0.0220716
0.025371
3.22513
0.0343534
0.021612
0.0221173
0.0242885
0.0221502
0.504409
3.69638
0.028427
10.2759
0.0235982
0.022051
3.61711
0.24999
0.0346031
0.0220277
3.42515
0.0341966
2.92509
0.0220665
0.0279463
0.102086
0.0292103
3.56246
0.196347
0.451626
0.0236239
0.102399
0.0219682
2.86199
0.0348732
0.0847568
0.0282625
0.0235427
0.0342698
0.043488
0.0220936
6.96081
3.52982
9.91137
6.69793
3.73413
4.75431
0.152625
0.027878
0.022206
2.40307
0.02205
0.0218913
0.0297826
5.1238
0.0232792
0.0226241
0.0741731
0.0368501
0.0220584
6.75808
0.0219109
3.91119
0.493433
0.0219381
0.0229366
0.186806
0.527338
0.0217608
2.04288
5.70795
0.0217202
6.21512
0.177923
0.086014
0.0236054
3.7585
5.12835
0.0217351
0.175091
0.0220618
0.0219106
3.54587
4.73378
0.0314155
0.0344521
0.0220525
0.0427936
3.93656
5.44372
0.0218054
5.89038
0.0218998
0.0220713
0.0365076
0.0254569
0.0216273
0.0233729
6.31385
0.157409
5.88127
0.0230843
0.0220248
3.57503
0.022177
0.101317
0.0252818
0.0281793
0.0282271
3.4613
5.06558
0.0244583
7.04568
0.0228392
0.0464634
3.04509
3.86761
0.0220678
0.0219733
0.0460209
5.9293
0.167898
0.0421389
6.16107
0.0255448
0.0278236
15.0582
7.36369
0.123291
3.79516
0.124992
2.95167
0.0222839
1.13445
0.282367
0.0220731
14.0669
6.79827
0.0286294
0.0353881
0.0220431
7.30354
0.0618494
13.3463
0.0219558
0.0221656
0.026551
0.0364068
0.0220815
4.85584
0.0221598
0.12009
0.0236853
0.0537319
0.0220624
0.0220592
0.0412485
6.06947
0.0362762
4.74722
0.0279981
0.0218188
0.0217647
0.043609
0.0225678
0.0670193
0.023554
0.0340784
0.970525
0.0221793
5.10051
0.0222531
0.0713315
6.23664
3.31038
0.028957
10.5557
0.0726456
0.179674
6.77152
0.0218539
7.42915
0.0292463
0.027388
6.65481
0.335474
0.0217296
0.0657033
0.0220354
2.85509
6.33908
0.0221223
0.0704306
5.28869
0.0222628
0.0222513
0.0506801
6.37397
3.71102
0.0222417
0.087674
0.0227388
0.0220574
1.21656
0.0888882
0.115917
0.0216148
0.0801657
0.0439057
0.0448085
0.0227035
0.0229715
0.0593828
0.0263798
0.0879855
0.0373346
0.0374215
0.104598
1.88908
0.179892
4.33266
1.78477
0.101926
3.70712
0.0371652
3.5788
0.0886065
0.021869
0.0274719
0.157283
0.0254629
0.021945
0.0219419
0.070996
5.35044
0.0254613
4.15419
0.0218223
3.76554
0.119986
6.53792
0.0656983
0.0246288
0.0233352
5.46838
0.114443
0.0356986
0.177802
0.0223271
1.60438
0.071562
0.121182
0.0281578
0.248855
0.0220388
0.0222446
0.0234573
0.0220566
3.0416
0.0219974
0.82893
3.47891
0.0672456
5.50456
5.2083
0.125273
0.187006
0.0286478
0.0221828
0.0220801
0.0216906
0.0217628
0.0221409
0.0465898
0.099079
0.0472753
0.511818
0.0228402
3.14276
0.0222934
6.16051
0.0343361
0.0222835
0.0221368
3.31337
0.0246486
3.93694
6.68646
0.0342386
0.0474411
0.0217094
4.09995
0.0240224
0.0233034
1.10844
0.0221857
0.0226043
0.0218318
0.0348099
5.12152
0.0265085
0.0282633
0.19606
5.12804
0.0290987
0.0259728
3.0324
0.0216896
2.9705
0.0222019
0.0228785
0.416077
0.0564045
0.0858537
0.0656597
0.0364578
0.0222274
0.0222935
0.0492812
0.0223202
0.0222353
0.02581
0.194625
0.02198
0.170185
1.36652
3.77912
0.0648597
8.94779
0.0363163
0.0221783
0.0993805
0.0218349
0.0246851
4.33331
2.82892
7.37785
3.15782
0.0221802
0.0221095
0.0618339
0.0228597
0.0218198
18.4074
0.127725
4.24848
0.0723688
0.0574121
0.0220584
0.0217681
1.0286
0.0603814
0.0230587
0.0222539
0.0863649
0.113751
4.29167
0.022278
0.0221505
6.28319
0.0226819
0.0282338
0.0218163
5.15989
0.0218842
5.63876
0.0220759
0.101562
0.0312718
0.0626621
0.028247
0.0220197
0.0234647
0.0220194
0.64152
0.0226711
3.34529
0.0223774
4.13995
3.62103
0.0273444
0.0220009
5.89486
3.76421
0.0247305
0.0564097
0.0220776
5.87046
0.0218842
0.156694
0.0220603
0.0220161
3.86085
0.0283286
0.022107
0.0277242
3.98035
4.46754
5.3389
0.021811
3.5153
0.0220722
0.0219876
0.0222849
0.0215378
0.022232
5.64963
4.45846
0.0220935
0.0221559
0.0316179
0.0218696
6.25009
0.100836
4.23633
5.58677
0.0234364
0.0874686
0.0220658
0.0325825
0.100068
0.0218411
0.0222102
0.601844
5.84081
0.0463624
16.4013
0.0443443
0.0221037
0.0326585
0.0572497
7.05972
0.0275368
3.18458
0.0616043
0.0222229
15.4338
15.3549
3.85736
0.322431
3.50798
0.0235535
0.126553
0.0221997
0.287167
0.0250614
0.0218723
5.45386
0.0227729
0.0220022
0.0220652
0.0226653
4.90825
0.153801
0.0218581
0.0332178
5.33602
0.0228303
15.085
0.023187
0.054017
4.70849
0.0220949
0.16627
0.0272015
0.0281325
5.40801
0.022752
0.19365
0.0470942
4.23054
0.0221048
3.97054
0.026702
3.70313
7.01576
5.27205
0.034284
0.0220379
0.0221832
0.0222629
0.0319587
0.0221256
3.65518
0.0271864
0.0276055
0.0288744
0.02348
0.02181
0.0250167
0.0256645
0.0229345
0.0256356
6.5312
0.540194
0.0263084
0.0433263
5.48422
0.0226661
5.83008
0.0216987
0.0309722
0.0226856
0.0219026
0.0397311
0.0220456
0.0218533
0.0440964
0.0220709
0.191935
0.0224614
15.163
0.261736
0.127935
0.157171
0.021985
5.2017
0.0984465
0.0222251
0.025646
0.0225415
6.37293
0.0231971
0.0432965
0.49605
6.88036
0.063975
0.0220424
3.39237
0.456676
3.54024
0.0271978
0.0218105
0.0217955
0.0462717
0.0220403
6.20082
0.102872
0.0221963
0.147195
0.192946
0.0218209
6.51065
6.03986
0.124311
0.0224409
3.38558
0.0462277
0.0220163
5.75447
0.02583
0.0218088
0.021927
0.0275885
0.0320712
3.27326
8.34263
0.0324377
3.32857
0.0283907
0.0220212
0.0832774
0.0219484
0.674357
0.0218155
0.0220442
0.0236038
0.0222871
3.53961
5.09754
0.189824
5.14885
8.15012
0.0287506
0.0220183
0.0224659
0.197004
0.0218054
0.0218873
0.0359514
0.424366
0.3742
0.0216765
0.0342886
0.0283433
0.0858268
15.6461
0.0217185
0.021618
0.0229368
0.487215
0.0257732
3.95757
0.0229739
0.0221621
0.0218101
0.0219186
0.0238404
0.123361
3.00075
3.22723
0.0288762
0.0220515
1.57997
0.0221548
0.853608
4.1624
0.0300733
5.39354
2.98611
7.44514
0.0404693
0.0274133
3.29594
0.0267672
0.032265
0.0632588
0.180855
0.0222994
4.25095
0.0220245
4.23698
0.528463
0.0217021
0.0236927
0.0407278
0.197106
0.0281937
0.0221419
0.0254005
0.023286
0.0242074
0.902957
0.0221626
3.75
5.14808
0.0220268
0.0269214
0.0317796
0.022079
2.78205
14.6634
5.27934
2.91716
0.0220335
0.0238992
0.0249535
0.0222868
0.186093
0.0283851
0.0222573
0.044397
0.0257992
4.43788
0.0313523
6.68988
0.0231715
0.022868
0.0496312
0.0604161
0.0491489
0.0219792
16.2058
3.57441
21.5505
4.64566
4.25219
3.24868
3.79374
0.0219835
0.0220254
0.021935
0.168886
0.0344758
0.04906
7.25176
0.0220611
0.0216734
0.02205
0.168249
0.0216708
0.0246508
0.0233427
3.83081
0.0228826
0.0218428
0.0220839
0.0219563
0.0221625
0.0332251
0.185687
0.032352
5.06693
0.0220326
0.0219181
3.81204
3.80077
6.00019
3.74119
0.0460624
3.71911
0.0218064
0.0534062
0.0228764
0.0220804
0.023349
5.38722
0.0225953
0.0611581
0.812548
0.0220943
0.0218933
0.0262527
0.127099
0.0222716
3.82164
0.0219213
0.175845
0.0221297
0.0220924
0.024764
0.0855925
0.0221349
0.336731
5.74495
0.165472
4.11993
0.0220442
6.03546
0.215537
0.0220471
0.538209
0.0222807
0.0416372
0.0222226
0.0220418
0.0219558
0.0220585
0.0223022
0.0271324
0.0459841
0.0220845
0.0221021
0.0595718
0.0217151
8.54597
0.0221309
0.0274932
0.0283637
4.44804
0.262206
0.0221465
0.127117
0.0218119
0.0268302
0.057074
3.6634
0.0354958
0.022272
0.0773837
0.0721701
0.0564652
0.264248
0.0340176
0.0910763
0.0419916
0.0469033
0.0228344
0.0218111
3.79839
6.01582
0.0237066
0.0220125
15.1285
0.0218248
0.0323786
0.021952
0.0634892
0.618435
0.0215795
6.5236
0.0244323
0.0221697
0.112206
0.0218736
0.040349
2.8262
0.0315677
3.82006
0.0219503
0.0222644
0.0437628
0.022225
0.0222478
0.0253461
0.0262614
0.0462149
0.0655486
0.0220869
0.0343243
0.0218035
0.0220586
0.022214
0.0220497
0.600651
0.0218367
0.0232362
0.174445
0.0218201
0.0220006
3.68449
0.0222509
14.9534
0.0227057
3.75002
0.143376
0.0494168
1.03299
0.0489116
1.54449
0.0221914
0.116648
0.0252778
0.0218014
0.0218768
0.0232319
0.0269124
0.0219485
0.0443998
0.0218966
0.0228369
15.9593
6.70332
2.62399
0.0232978
0.045508
4.23411
9.57654
0.0221714
0.024502
1.40818
0.0220444
0.0329126
0.659548
3.23734
0.0249235
0.0329036
0.0225989
0.197914
0.022285
0.0340067
0.584318
0.0221582
0.0218359
8.3853
0.034752
0.192389
4.23029
0.0708958
0.0224133
0.0219012
0.0221096
4.91622
0.289113
4.9055
0.0438663
0.022055
4.11757
0.0221122
0.102624
0.0268287
0.0227924
0.0326946
0.0220542
6.66998
7.97456
0.021704
0.046438
0.0351809
0.712181
0.0348433
0.0419726
0.189832
0.0283416
0.450332
0.0433185
0.0221147
0.0290868
0.0812918
3.78737
0.0220294
2.87519
0.0364115
0.044283
0.0222723
8.4786
0.0243392
0.023376
0.0218286
0.0335347
0.032364
0.0512125
0.0221255
0.0225297
0.0468993
22.6756
0.04662
0.0221577
0.022666
0.0290553
0.132069
0.02217
0.0663249
1.33451
0.0415854
3.46424
0.0317217
5.84455
0.190221
0.0219832
0.425163
0.0222385
0.0241501
0.0276074
0.0285138
0.0654955
0.0348332
0.0385995
0.0396969
0.0272297
0.0236834
0.0216653
0.0752196
0.0239911
0.0280938
0.259374
0.0248608
0.0285731
0.0219378
4.25601
0.0617542
0.0220845
0.0235547
0.0233516
5.32158
0.100661
0.0276144
3.16431
0.25554
0.423393
0.0607781
0.149221
0.0218822
0.283529
0.0218835
0.0269237
1.18452
2.76152
0.189579
0.64654
0.0221246
6.51778
0.0218787
0.0562957
0.0245797
3.6261
5.60846
0.0244363
0.0220214
0.18105
0.0428204
0.0220152
4.8542
0.0220772
0.0234716
0.0239903
0.0222219
0.0271832
0.0234123
0.0220545
0.0309948
0.244563
0.0313072
0.046653
0.0220116
5.16312
2.81054
0.0220018
0.180323
0.0245354
0.0287782
4.81436
0.0219982
0.0226336
0.0273524
4.00976
0.0220256
0.0221821
0.031669
3.503
0.0219849
0.0307524
0.031779
0.248945
0.0363277
0.0316025
0.145465
0.0220821
0.107887
0.0217158
5.70262
0.0269323
0.0220547
0.0249353
0.0654993
0.0221497
0.0220262
0.0888195
3.32537
0.0221445
5.16299
0.0221864
0.0217063
0.0453349
0.0220286
0.0218348
6.59108
0.0222732
0.0314549
0.110224
6.58711
0.252811
0.0217959
0.0240665
0.0277587
0.0220718
0.0220396
0.0220936
3.441
0.0221935
0.366643
0.0784298
0.0218306
0.0217242
0.0266474
0.0786592
0.176402
0.0504716
0.0465675
0.0234383
3.15402
0.0615064
0.0268106
0.0316422
0.0548028
0.0615886
23.7921
0.0309216
3.22661
4.02496
8.42221
0.0235207
0.0219295
0.0313146
0.0343951
0.0217849
0.0221526
0.105051
0.0222429
0.0221701
0.0220471
0.0216168
0.0228762
0.0219483
6.30945
0.0220182
0.914155
0.0220793
0.0720315
0.0223241
0.0790694
0.0649272
0.0220423
4.41243
0.0240403
0.0222245
0.0311661
0.0217947
0.0296378
0.0218977
3.12236
0.023614
0.0325088
0.0987466
4.4047
0.0269566
0.632685
0.263999
0.0432557
0.0219842
0.0225439
0.0908046
0.045519
6.37037
0.0217584
7.62965
0.0220472
0.0813447
9.68549
0.0307321
3.55133
0.0243944
0.027524
0.024266
7.94999
0.0276309
0.0221416
0.0424877
0.0871569
0.0229225
0.022038
0.0221424
5.88475
0.0222513
0.0263279
3.90978
0.0253008
0.0219793
0.0472555
0.0240706
4.41319
0.0216727
0.0220176
0.0218584
0.0260889
0.0221764
0.021997
0.0443691
3.62169
0.0219613
0.0221078
4.71232
0.0220885
6.20541
0.0230789
8.51575
0.0218338
0.023944
0.0218095
3.32461
4.11508
0.028771
0.0631286
0.026988
0.0219266
0.0221212
3.19483
0.0221365
0.0562819
0.0217938
0.0330485
0.0221886
5.04828
0.0218322
0.0338541
0.0218405
0.319923
0.47382
0.0217805
0.0396564
7.31169
0.0464484
3.82285
3.52513
0.155721
0.0234447
0.02842
0.0618577
0.586008
0.0220615
0.0307113
0.0277783
0.0219437
3.5395
10.1534
0.0469085
0.0954445
0.182747
0.0296716
3.58336
0.0217804
0.0217768
0.0665156
8.04293
0.127161
0.100295
0.405161
0.0218069
8.32028
3.31183
10.138
0.0222023
5.04933
8.33974
0.493303
3.40565
3.27415
0.0577903
0.0269853
0.10398
0.0255931
0.0219534
0.418372
0.0600445
0.0216523
4.16387
0.0221868
0.0279126
0.0322918
0.0264188
0.329927
0.0336937
6.59595
0.0336938
0.0261866
3.55791
5.18317
0.0862489
0.022409
0.0257828
0.0496285
0.0516989
0.021828
0.03652
0.056407
0.0913198
0.0219616
0.113416
0.0238406
0.0423798
3.82566
0.669627
0.0231417
0.096337
4.87575
0.02216
0.0226111
10.1736
0.188362
0.0235437
0.0236169
0.0220878
0.0598786
0.0239559
2.98493
0.0655744
0.0225029
0.0222231
0.063408
0.0276122
0.230043
5.62728
0.0218594
0.0220287
0.0258054
0.0221933
0.0233451
0.022688
0.0224519
0.0256793
0.0219252
0.0242739
0.022201
0.0349781
0.55138
0.0222639
5.12713
9.57825
0.021715
0.195899
0.0934299
0.0651779
0.022669
0.0599958
0.0248692
0.0741686
0.0261699
0.022828
0.0222091
6.29901
0.0255136
3.80352
0.0226709
0.0220425
0.0220161
0.0578484
0.0219547
0.0363923
0.0431093
1.13261
0.0219088
0.235352
0.603799
3.55296
0.0218003
0.0909339
0.851128
0.592813
0.363048
0.0225941
0.0221858
0.107701
0.381666
3.64452
0.0314263
0.174017
0.0222314
0.021814
0.0365405
0.0221942
0.0221579
0.102732
0.0222649
0.0836912
0.0218254
4.95178
4.92746
4.397
3.84169
3.66222
0.0221417
0.0221433
6.41393
0.0217685
0.0217889
0.0217063
0.0890977
4.29545
5.94483
0.0271863
0.0220023
0.0228037
0.034617
4.81676
0.0220351
3.56614
5.09515
0.0221875
0.0221799
3.57669
0.0539179
0.0227638
0.0220393
5.37052
3.84702
0.0219211
0.127833
0.0222529
3.46589
1.87524
0.022956
11.4771
6.75199
4.99335
0.021815
0.0220557
0.022244
0.0222866
3.90653
0.0218949
0.162664
0.161573
7.28089
0.0223884
0.045782
0.251122
0.0369996
6.2565
5.90491
0.0216491
0.024061
0.024148
0.102711
3.53627
0.0216051
4.8474
0.030084
0.0325062
0.0226886
0.0219444
0.163476
0.0324966
6.40437
0.0221941
0.0431161
0.0223259
0.0791602
0.0232865
3.5368
2.79151
0.175472
0.0666104
0.0219554
0.0234833
0.0569641
0.18136
3.49468
6.87683
0.0221488
3.66296
0.083479
6.20359
0.0248153
0.0344971
0.0315659
0.0219959
5.13301
0.0220658
0.0275613
3.01307
4.64988
0.442654
4.19854
0.0267639
0.035785
0.0217423
5.00569
0.0260237
1.03892
0.0217331
4.47068
0.0215838
0.0219945
0.0273556
0.0306665
0.0311552
0.0219567
3.21739
0.0332654
0.0218991
0.0319029
3.40802
0.382184
0.0220397
6.62893
0.0237338
0.028361
0.0274689
0.0216998
0.0462702
0.0219874
1.00045
0.067521
0.0247984
0.022028
0.196265
0.0312741
0.021733
4.70854
0.305276
0.143985
0.0216922
0.241092
0.0221407
0.0977614
0.0250966
0.0897622
0.33509
3.388
0.0341114
4.17502
0.0417463
0.0271943
0.021816
4.79429
0.0873326
0.0675596
0.0593586
0.0222434
3.59277
0.0610395
0.197854
0.170058
6.94286
3.17361
0.647325
4.78949
0.0276199
0.0308824
0.0220943
0.0219846
0.0216203
0.111048
0.0274124
0.0319971
6.42472
0.021927
0.0218534
0.0320587
0.087502
0.025239
0.0218006
4.70114
0.0233832
0.0350643
0.022175
5.72435
0.0281146
5.56975
0.0513741
0.0283716
0.0427
0.0220872
8.23295
0.246473
0.0493004
0.0220209
0.0219072
6.353
6.37442
2.82749
0.0218189
0.0503672
0.239468
0.0219619
0.0220029
0.0220321
4.15015
0.0895811
0.0306279
0.0251036
0.0242816
4.28572
0.066994
0.148311
0.0245383
0.0275511
0.0216126
0.0931918
0.043423
0.022014
3.16795
6.05638
3.85609
3.38078
7.13244
9.10872
6.44752
0.0231817
0.0218146
5.48633
4.36581
0.637508
0.0220455
0.0312265
0.0220591
0.0219566
3.4393
4.83507
0.0439177
0.0219969
0.194912
0.0606037
0.0362924
3.81896
0.385043
0.186149
0.0219125
3.53478
3.34707
0.196707
0.027437
0.0324227
0.0222002
0.0218658
0.0311881
0.0348113
0.0237757
0.0313098
0.0252094
0.024435
0.168438
3.61737
0.0303976
0.0323386
3.60734
0.172933
0.0221162
0.401168
0.662855
4.24849
0.0325783
0.0220288
0.0261194
0.0252247
0.0290783
0.0216978
0.0331591
0.026899
0.0341356
0.153645
0.0222304
0.0226935
3.25867
3.23238
5.09219
0.250447
0.0766275
0.0215691
0.0220554
0.0266407
0.021736
7.42065
0.0220436
0.0222728
0.021726
3.10312
9.59111
0.0224165
0.0436486
0.026221
0.033268
0.0265563
0.0347789
0.0312142
0.0309147
5.58867
0.0243776
4.00506
0.0322555
5.21167
0.0263758
0.0219329
0.021812
0.0616331
0.0891967
0.0218217
0.0365905
0.0264228
0.0440274
3.80185
11.8571
4.26548
0.0222726
0.309271
0.0282223
0.0317002
0.0220283
0.049347
0.023332
3.20451
1.44514
0.034293
0.0220784
3.21887
0.027219
3.89396
4.32227
0.168683
0.0237347
0.080762
4.27793
0.298409
3.24433
0.0440461
0.0219004
0.0326778
0.0218175
9.16764
0.0240997
0.0277978
0.187428
5.45266
0.0218757
0.0219426
4.97382
0.0330515
9.63202
0.0327315
0.0220392
0.0331657
0.13613
0.0423412
3.68392
0.0311717
0.284886
0.0239234
0.0222437
0.0219249
0.161931
0.0226772
0.0952851
0.0220599
0.0219553
0.157594
0.0243293
0.022002
0.0220322
0.0303382
0.273455
0.0326249
0.0312242
0.0261127
0.0439768
0.0220251
0.105069
0.026753
0.0327196
0.0666417
0.0254072
0.069659
0.0433682
0.0218026
0.0459621
11.1474
2.80966
0.0220005
0.832683
3.84006
0.0219545
0.022701
0.569937
3.66579
0.0278751
3.63203
0.188753
0.0219634
0.0566559
0.0216185
0.0242883
0.0437842
1.86696
0.369967
0.136353
0.243155
3.29623
3.45404
0.02281
3.23332
0.0220386
3.34591
3.55792
0.0220976
0.0220822
2.96999
0.0221365
0.0220852
0.223734
3.71511
0.13011
0.024342
3.65451
0.0221028
3.36946
3.40527
0.0221895
0.289314
0.654845
4.12159
3.06859
3.27379
3.17873
0.0218705
0.0232287
0.043624
0.044584
0.0220803
0.170905
0.0220404
3.16216
0.213363
0.0466967
0.197774
3.07754
0.210092
0.183362
0.0578381
7.25684
0.244518
0.0238524
0.0216517
3.48431
0.0326742
0.0217661
8.38249
0.0219687
3.57883
0.0221669
4.37766
0.0239631
0.0219744
10.8815
0.0274006
0.0341367
3.25462
5.97737
0.891196
0.0251412
0.0343877
0.02321
0.0311957
0.0794293
0.0314306
0.0222111
1.08924
0.0430444
0.0298244
3.50461
0.0315194
0.0346059
0.131582
0.0500298
0.0335898
0.0219695
0.117192
0.0218106
0.0790504
1.01194
3.87418
0.0218665
0.0314633
5.6494
0.0227083
0.0467327
0.0269872
0.0326257
5.60427
0.0426657
0.0234521
6.39989
0.0218779
3.20718
0.0221226
0.0225709
0.0785364
2.8619
0.0291223
0.344072
0.384286
0.0269647
0.0220751
0.135478
0.0347056
6.05443
0.0265322
4.39663
0.0884745
0.0269697
0.0261865
0.0795861
0.0310692
0.0702867
0.0424924
0.0356054
0.0234927
0.0219993
0.656518
0.0220083
0.0259666
0.0216311
0.0714548
0.026087
0.0422231
3.44823
0.0230937
0.131436
0.0215522
0.0221719
0.0221872
0.0222077
0.0245835
0.0219337
0.0574416
6.19212
0.0419249
0.0337027
0.0237291
0.0219808
0.436692
0.0220152
4.21675
4.54406
5.26404
0.0996454
0.0302612
0.0249028
0.022176
0.0289776
0.0869972
0.0344831
3.79348
0.0416978
7.48967
0.103661
0.0222097
0.0218377
2.86453
0.0219357
0.0261846
0.0621828
0.182559
0.0227601
3.87296
0.0221757
0.0245775
0.0220613
0.0225909
0.142078
0.0717705
0.0221156
0.0275868
0.0342493
0.0340823
0.0412176
0.333152
0.249254
0.16004
0.0951976
0.0244846
0.0226543
0.0410164
2.84286
6.16482
3.23764
0.0271698
1.08866
0.0718481
0.0224385
0.0219881
0.0449312
0.0221418
0.0276023
5.73078
0.0219567
0.0217927
0.251524
3.41602
0.0351073
0.440687
0.0221341
5.08736
0.0340589
5.26376
0.0290172
0.0220167
3.38124
0.0575366
0.0220337
0.060437
0.0222522
0.107924
0.0262501
0.05405
8.10326
0.0327919
4.87211
0.021922
8.07012
0.0221384
0.0245217
0.0223394
0.0362738
0.0221427
0.0508767
3.14624
0.643976
0.0365846
0.0289695
0.0716775
0.021875
0.0219111
0.0225901
2.10243
0.0239082
4.71162
4.15309
0.0958549
0.0222142
0.0968503
0.137947
0.0895128
0.0243549
4.0924
0.0219651
0.0215709
0.02195
0.469124
0.0219898
0.0220136
3.24128
0.0219683
0.100672
0.0878545
0.0217837
3.54318
0.025527
4.36882
0.021889
0.394346
0.0225637
0.068298
16.0168
0.0450539
0.0219359
0.0249562
4.34636
0.0275001
0.0982987
0.0268977
0.0248428
0.0992367
0.0275702
0.0220917
22.5984
0.0264209
0.0254889
0.105924
0.0219637
0.0218447
0.0221886
0.0269954
0.0221323
0.0251387
4.98244
17.7293
0.0906989
7.62717
0.0443477
0.0288656
5.69443
6.90039
0.0224537
8.25982
1.46109
3.38407
0.435394
0.0272144
4.3323
3.346
18.4164
0.431674
6.05735
0.0404263
0.0745893
0.0286305
0.0243265
0.0221006
0.683794
0.0222849
5.86768
0.106577
0.233332
0.0216179
0.0499348
0.0429153
0.0236516
0.0222932
0.0221181
0.1061
0.0229265
0.0221019
0.0318533
5.46784
0.0233248
0.10376
0.0218254
0.110698
0.0743982
0.0221649
0.0256274
0.0219371
4.36916
3.75728
0.0995975
1.24916
0.0306926
0.0574638
0.022134
0.0320781
0.0220348
0.0221832
0.0222326
4.36655
0.021772
0.034924
0.415085
0.0263482
0.0267694
0.0219935
6.67041
0.114584
17.9267
4.21145
0.102679
0.16698
3.80173
0.178474
0.855724
8.02523
0.107227
0.0339083
0.392033
5.3994
0.0220449
8.0659
0.105111
5.01945
0.0216327
0.0435816
6.75606
0.0222727
5.64554
0.0254193
5.63273
0.0220906
0.0221256
0.0489427
0.174636
0.0247029
0.04573
0.0217831
0.0220295
3.11398
5.22986
11.7438
0.0397741
0.0220821
0.0224611
0.0221334
0.0336036
0.80959
3.75434
3.81263
0.373031
0.0280016
0.0219497
0.0219803
5.39933
10.1831
0.164032
0.0263054
0.0240126
0.0750035
7.20921
9.22868
0.0215696
0.0219498
4.67322
0.0226804
0.182885
0.0273666
0.0220465
0.0297262
0.0438914
4.08285
4.47825
0.0222019
0.0217929
0.0238174
0.532036
6.4434
0.0222646
0.0878902
4.0612
0.021573
3.39855
3.45538
16.2257
0.0221122
8.90979
4.60578
0.0355512
0.230983
0.0235869
0.275401
0.179881
0.0240581
0.0219332
10.8232
0.318215
0.0218642
0.0884425
0.0883112
0.0263269
0.14865
4.34269
4.95384
5.70831
0.0254153
0.0236257
0.0226593
3.97719
4.47161
4.29768
6.37912
4.01117
0.021728
0.0334962
0.0220658
0.0221134
0.0243287
0.0219595
0.0220573
0.0222576
3.6864
6.84228
6.31326
0.0508646
0.109225
0.0363841
0.0218427
0.0219847
3.84824
0.022137
5.41107
3.17044
0.022179
0.0218612
2.96514
0.0224193
0.337291
0.0243869
0.0217518
0.0217252
3.85184
0.021691
5.4824
3.71887
0.0216038
0.0347247
0.0218806
0.0225647
0.021854
0.0838765
3.95547
0.0219631
4.67048
0.326451
0.0236444
0.0218538
0.0225852
0.0230686
0.0222253
0.246824
4.50056
6.208
0.0321879
11.5573
0.0222723
0.0242512
0.0220902
0.117819
0.0232518
4.46061
0.0218571
3.47032
0.231
5.48233
0.110783
0.0218538
0.034655
0.0218884
3.72964
0.0219808
0.0267629
0.0248701
0.0241396
0.0220722
0.0222507
0.0312478
4.64065
0.0222062
0.0225611
0.0231972
0.0316756
0.118883
0.0221867
7.40731
3.13507
0.0231887
4.21782
5.74208
3.58654
5.92256
0.0215749
0.0228611
3.76464
3.47678
0.089883
3.34186
3.69797
0.0296738
0.0365979
0.0267798
3.78767
0.0220327
0.0219622
5.15376
0.0798629
6.74074
0.0236894
0.0217263
0.022042
5.72849
0.0488572
0.0239274
0.150016
0.021814
0.0444314
0.0266862
0.0268351
0.0219622
0.0221871
0.0219113
0.0236526
0.855219
3.04737
0.0216096
0.0218766
4.95382
0.0220291
0.0562736
0.0260007
0.0255766
0.0310543
0.0222855
3.72852
0.02634
0.0253602
17.7952
0.0571571
0.0230403
0.0283031
0.0220328
0.0223656
11.8081
0.256481
2.91588
0.0221411
0.0221522
0.0463448
0.0268347
0.0220264
0.0312777
5.73759
0.0248187
0.0339411
0.0247128
0.0782589
0.0221175
0.0217381
6.33389
4.81551
4.71673
0.0219631
0.0955297
0.0216748
0.0220177
0.0507665
3.84988
0.0471646
0.0258035
0.0959797
0.0224887
0.0263458
0.0510528
0.619842
0.0221644
0.0216578
0.0225659
0.0241902
0.0252015
0.0219506
0.744962
14.6733
0.0220143
0.0308017
0.0224579
0.0216978
3.19475
5.60729
9.51121
0.0541063
0.0224158
0.0413584
5.1858
0.0659435
0.0717969
0.0324047
0.0287499
4.98725
0.14297
0.371778
0.0217634
0.0294558
0.0221348
0.0270742
8.24344
0.0216444
0.0364921
0.0254691
0.0281139
0.0229022
0.0217952
0.0218728
3.47995
0.0344751
0.0267695
0.0465766
0.0326393
0.575335
0.0298107
0.381868
0.021911
7.20738
4.14105
6.4703
0.0222645
0.0274177
0.0220832
0.0219407
9.87332
0.0346238
7.28026
0.0219883
0.0428845
0.103967
3.90111
0.0274995
0.0216874
6.69623
0.022285
0.0222842
0.0224653
0.0220311
10.5629
0.0218091
0.021861
0.0336385
0.0267996
0.109209
0.0951936
0.0323858
3.80808
0.0219831
0.109716
0.0217935
7.06651
0.0305457
0.311221
0.0880696
1.51508
0.07169
6.48986
0.0226859
6.39531
0.0311777
5.36426
0.127544
0.0278234
0.131663
0.0221288
11.9103
0.022709
0.0321283
0.0266469
2.75394
0.0987885
5.73755
0.0299217
0.0220152
4.99701
0.143962
0.0425562
0.0912394
9.13942
6.79666
0.0355776
0.157547
0.0326754
0.0218628
0.0405752
0.156574
0.0578685
21.9861
0.0863858
0.0217866
0.0219066
0.0979492
0.0220846
4.89913
0.0608199
0.0220871
3.10958
0.319731
3.50225
0.0806626
0.0219485
0.0284414
0.0256322
5.33425
3.01394
0.0255295
5.53623
0.0218492
0.0308729
0.400444
0.0219982
0.0328346
0.0219211
0.0249043
0.0222511
0.132049
0.234941
0.0294938
0.0283074
0.0217229
0.0941842
0.021863
0.021816
0.0318519
0.021914
0.130406
6.29831
0.564028
3.85671
0.0217793
8.32126
0.0221889
0.0366324
0.0909995
0.0219957
7.72354
0.0577893
0.0220173
0.0216863
0.0330981
0.0346061
0.131717
0.168192
0.0257665
0.0235076
3.55127
0.0443254
0.153057
0.381023
5.99452
3.6932
7.56681
0.435581
0.0221762
0.022113
0.0399977
0.0221783
0.041554
0.0309944
6.14253
7.91772
5.44451
0.0217217
0.0217744
0.0862456
0.188724
6.01749
0.425874
2.98875
0.0536898
0.0319012
0.422925
0.231472
0.0247411
5.74172
0.0321023
0.0267943
4.79052
0.0327425
0.0219462
4.33642
0.4807
0.0236535
0.094486
0.0233589
2.1702
5.41462
0.304997
0.0220129
0.021693
0.0853574
0.0220143
0.0218889
0.0220173
0.0217318
0.0220223
0.0220291
7.01797
0.02639
0.0438266
5.06479
0.0218911
0.0220374
0.0273966
0.0245181
0.024593
0.0220458
0.0533529
0.0281985
0.0261537
0.0750826
3.88268
0.0220571
0.0327007
0.0220694
0.0220355
0.0216149
0.0220821
4.68443
0.0218683
0.0220291
0.0220955
0.0383325
4.23704
4.91751
7.37829
0.42434
0.0339704
4.07118
6.40937
0.0219469
0.0402247
5.32304
0.15802
0.02211
0.025751
0.0338193
0.0365552
0.0220574
0.0333119
0.0550465
0.0425538
0.0216498
0.0424588
0.303724
0.0216083
0.425666
5.32538
0.0399119
0.564877
0.0309651
0.022091
0.0241829
0.0220141
0.162189
6.72329
0.0217042
0.0402351
0.0219674
0.0219772
0.0221815
0.0222857
0.0346045
0.0221717
0.0885999
0.0954202
0.0247038
0.0239581
0.0348906
0.0220472
0.0425498
0.0281317
0.0222582
0.0221014
0.0221394
5.37828
0.0220165
0.147107
0.0332464
0.0222527
0.0220271
0.0217737
4.0714
0.0244385
0.0413353
0.0420549
6.93589
0.0278144
3.69229
0.40754
0.0419022
0.0219651