/*--------------------------------*- C++ -*----------------------------------*\
| =========                 |                                                 |
| \\      /  F ield         | OpenFOAM: The Open Source CFD Toolbox           |
|  \\    /   O peration     | Version:  v2012                                 |
|   \\  /    A nd           | Website:  www.openfoam.com                      |
|    \\/     M anipulation  |                                                 |
\*---------------------------------------------------------------------------*/
FoamFile
{
    version     2.0;
    format      ascii;
    class       volVectorField;
    location    "650";
    object      cellDisplacement;
}
// * * * * * * * * * * * * * * * * * * * * * * * * * * * * * * * * * * * * * //

dimensions      [0 1 0 0 0 0 0];


internalField   nonuniform List<vector> 
13917
(
(0.0184846 0.102166 0)
(0.0131684 0.0926471 0)
(0.0177652 -0.0415687 0)
(0.0139715 -0.0454802 0)
(0.00209026 0.074281 0)
(0.0042532 0.148017 0)
(0.0175901 -0.0511023 0)
(0.0178986 -0.0343527 0)
(0.0186822 0.00781448 0)
(0.01936 0.102859 0)
(0.0176687 -0.0404251 0)
(0.0167181 -0.0626196 0)
(0.0139824 -0.0475019 0)
(0.0180835 -0.0244927 0)
(0.0131707 0.128885 0)
(0.0140207 0.122587 0)
(0.0129554 0.10047 0)
(0.0186032 0.0348649 0)
(0.016647 -0.0639494 0)
(0.00362821 0.0342869 0)
(0.000751898 0.0134638 0)
(0.0175715 -0.0521374 0)
(0.00471622 0.0549931 0)
(0.0178937 -0.0345522 0)
(0.00596467 0.0942339 0)
(0.0173539 -0.0637801 0)
(0.00457987 0.144143 0)
(0.0100465 0.144765 0)
(0.0196877 0.146126 0)
(0.0195552 0.0766367 0)
(0.0186967 0.0952697 0)
(0.0170894 0.100197 0)
(0.00764155 0.142229 0)
(0.00197174 0.136635 0)
(0.00485967 0.0990547 0)
(0.0175781 -0.0494495 0)
(0.00449074 0.0529018 0)
(0.0180858 -0.0245177 0)
(0.0145279 -0.0528722 0)
(0.0168783 -0.0895884 0)
(0.00104952 0.00580652 0)
(0.000339194 0.00538305 0)
(0.00641403 0.00356418 0)
(0.0129022 0.145762 0)
(0.0140746 0.0519214 0)
(0.0035117 0.138666 0)
(0.0185533 0.0331249 0)
(0.0183687 0.00940303 0)
(0.00701443 0.148153 0)
(0.000966582 0.00711827 0)
(0.0170706 0.0195331 0)
(0.0034376 0.123507 0)
(0.00619044 0.148166 0)
(0.00212771 0.137199 0)
(0.0129245 0.102034 0)
(0.0173933 0.0514306 0)
(0.0176904 -0.038913 0)
(0.00900545 0.105821 0)
(0.0168895 0.0631988 0)
(0.013903 0.0523765 0)
(0.0202402 0.0930376 0)
(0.0133095 0.0914566 0)
(0.0180688 -0.0253627 0)
(0.0038412 0.0364973 0)
(0.0051588 0.147949 0)
(0.0207918 0.126835 0)
(0.000687316 0.0773017 0)
(0.000850038 0.101126 0)
(0.01838 -0.00375677 0)
(0.0178569 0.114197 0)
(0.00215853 0.0721817 0)
(0.0186718 0.00728826 0)
(0.0189002 0.0193838 0)
(0.00595246 0.0926454 0)
(0.00922666 0.148122 0)
(0.0162688 -0.0816619 0)
(0.0186296 0.00494493 0)
(0.0155176 0.0463838 0)
(0.0171273 -0.0758795 0)
(0.00144592 0.0249208 0)
(0.00216227 0.0292163 0)
(0.000673368 0.074086 0)
(0.00754867 0.147858 0)
(0.0180926 -0.0241561 0)
(0.0204292 0.102044 0)
(0.0153981 0.0445405 0)
(0.00284892 0.0337575 0)
(0.0207883 0.127944 0)
(0.0169843 0.0189442 0)
(0.00669835 0.00284384 0)
(0.018654 0.0061575 0)
(0.0196098 0.0920244 0)
(0.0120765 0.0657974 0)
(0.0101954 0.124497 0)
(0.0208089 0.128936 0)
(0.00187723 0.148011 0)
(0.0180037 -0.0202121 0)
(0.0184417 0.016621 0)
(0.0168161 -0.077101 0)
(0.00871992 0.146829 0)
(0.00561001 0.0291687 0)
(0.00204705 0.1418 0)
(0.0121339 0.145883 0)
(0.015836 0.030193 0)
(0.00918823 0.0456377 0)
(0.0188036 0.0144732 0)
(0.0195667 0.145025 0)
(0.0184004 0.00975838 0)
(0.0131694 0.0995285 0)
(0.0188041 0.100505 0)
(0.0196252 0.0584556 0)
(0.0168939 -0.0887785 0)
(0.0168403 -0.066256 0)
(0.0187824 0.013288 0)
(0.00304861 0.129743 0)
(-0.000972097 0.148359 0)
(0.00661344 0.078058 0)
(0.00582418 0.148161 0)
(0.017528 -0.0545564 0)
(0.00361783 0.137079 0)
(0.000653433 0.0104232 0)
(0.0184004 -0.00235679 0)
(0.0177102 -0.0450966 0)
(0.00961336 0.144564 0)
(0.000912939 0.00616113 0)
(0.0100135 0.12374 0)
(0.0137857 0.0628379 0)
(0.000733686 0.00502658 0)
(0.00384854 0.0053127 0)
(0.00284484 0.148043 0)
(0.0176225 -0.0495653 0)
(0.00289976 0.129007 0)
(0.0141739 0.0538292 0)
(0.000598256 0.0110958 0)
(0.0193898 0.0477503 0)
(0.0178708 -0.0357553 0)
(0.0184731 0.104233 0)
(0.00847134 0.147022 0)
(0.00086367 0.0789444 0)
(0.00308547 0.136961 0)
(0.0176281 -0.0462251 0)
(0.0110362 0.0385791 0)
(0.00537452 0.125647 0)
(0.012293 0.14634 0)
(0.00103807 0.102215 0)
(0.0186624 0.00695631 0)
(0.0200306 0.145416 0)
(0.00356348 0.122587 0)
(0.0103769 0.0335783 0)
(0.0170488 0.105726 0)
(0.0177758 -0.0138963 0)
(-0.00199137 0.14837 0)
(0.0175347 -0.0377105 0)
(0.0176299 0.12707 0)
(0.0173615 0.078181 0)
(0.020851 0.125511 0)
(0.0177071 0.114524 0)
(0.0181403 -0.0203134 0)
(0.0186404 0.00558237 0)
(0.0194179 0.0492984 0)
(0.0075679 0.13266 0)
(7.39068e-05 0.144117 0)
(0.00153992 0.0220605 0)
(0.0179693 -0.0213585 0)
(0.0168604 -0.064501 0)
(0.01683 -0.0757395 0)
(0.0158027 0.0324332 0)
(0.0181032 0.000203387 0)
(0.0130913 0.0510539 0)
(0.00168161 0.142144 0)
(0.0179367 0.12344 0)
(0.0198396 0.0700714 0)
(0.0167435 -0.0717141 0)
(0.013344 0.106937 0)
(0.0184904 -0.00221167 0)
(0.0177998 0.130359 0)
(0.0176117 -0.050138 0)
(0.00581316 0.148174 0)
(0.0186394 0.00576376 0)
(0.010955 0.0838577 0)
(0.019627 0.0897636 0)
(0.0187907 0.0937617 0)
(0.0110621 0.0366597 0)
(0.00300931 0.0360779 0)
(0.0129527 0.135296 0)
(0.0173542 -0.0636656 0)
(0.0200022 0.0880165 0)
(0.020835 0.124922 0)
(0.0183174 0.0511082 0)
(0.0171072 -0.0635855 0)
(0.0179012 -0.0321319 0)
(0.020438 0.10264 0)
(0.0201305 0.0973499 0)
(0.00431123 0.0609837 0)
(0.00527867 0.147219 0)
(0.00477924 0.14383 0)
(0.000374111 0.00153969 0)
(0.0121936 0.0674895 0)
(0.0193493 0.143608 0)
(0.0208121 0.130948 0)
(0.0161907 -0.0142317 0)
(0.000903805 0.00674157 0)
(0.0179411 -0.00456544 0)
(0.0177211 -0.0154656 0)
(0.0188951 0.0190863 0)
(0.0190265 0.0280706 0)
(0.00464486 0.0979062 0)
(0.00909186 0.107167 0)
(0.0183867 0.0142189 0)
(0.0175349 -0.0539453 0)
(0.00552381 0.124767 0)
(0.0176371 -0.0485945 0)
(0.0189091 0.0197826 0)
(0.01713 -0.0620829 0)
(0.00919253 0.0470338 0)
(0.0164818 0.147437 0)
(0.0182548 0.011736 0)
(0.0194964 0.0514926 0)
(0.00808584 0.0835812 0)
(0.020245 0.093665 0)
(0.0107795 0.0826571 0)
(0.0193879 0.0672872 0)
(0.00124388 0.00706448 0)
(0.0182343 -0.0165659 0)
(0.0188463 0.0167835 0)
(0.0142615 0.122851 0)
(0.0207521 0.132572 0)
(0.0174611 0.0764325 0)
(0.00894747 0.0469119 0)
(0.0175545 -0.0504545 0)
(0.0166767 -0.0731928 0)
(0.0182697 0.0489337 0)
(0.0177984 -0.039657 0)
(0.018923 0.0205085 0)
(0.00360728 0.0157205 0)
(0.0172291 0.0995636 0)
(0.018661 0.00652382 0)
(0.020586 0.110406 0)
(0.00170116 0.0250174 0)
(0.00635974 0.0486083 0)
(0.0167231 -0.0979396 0)
(0.0181027 -0.0164842 0)
(0.000154846 0.00134099 0)
(0.0174285 -0.0559903 0)
(0.0189547 0.0365019 0)
(-0.000343135 0.143825 0)
(0.0183028 0.0977685 0)
(0.00169295 0.0235943 0)
(0.0171632 0.134339 0)
(0.0188067 0.014442 0)
(0.0129243 -0.00801459 0)
(0.0197987 0.093159 0)
(0.010376 0.147096 0)
(0.0136825 0.0608157 0)
(0.00869974 0.105522 0)
(0.0173753 -0.0389649 0)
(0.0167928 -0.0942392 0)
(0.0175067 -0.0378667 0)
(0.013281 0.135391 0)
(0.0134871 0.128348 0)
(0.000260704 0.00229025 0)
(0.0177059 -0.0453458 0)
(0.0193089 0.0421387 0)
(0.017207 -0.0676235 0)
(0.00895155 0.0482437 0)
(0.0191241 0.0317324 0)
(0.0181535 -0.0209501 0)
(0.0181336 -0.0208521 0)
(0.017109 -0.0769094 0)
(0.0163112 -0.0822254 0)
(0.00202756 0.0281759 0)
(0.00110112 0.00704565 0)
(0.0184883 0.0284819 0)
(0.0183699 -0.00949302 0)
(0.0186128 0.0124168 0)
(0.0167903 0.0613518 0)
(0.0190512 0.0292328 0)
(0.0156357 -0.0733742 0)
(0.00295418 0.00358341 0)
(0.0197662 0.0675543 0)
(0.00368025 0.0329779 0)
(0.0184647 -0.00365641 0)
(0.0160889 -0.0143174 0)
(0.000155185 0.00133994 0)
(0.0151063 0.124265 0)
(0.0175902 0.128193 0)
(0.00107797 0.144132 0)
(0.0174556 -0.0549371 0)
(0.016159 0.12842 0)
(0.0137841 0.0122402 0)
(0.019458 0.0527606 0)
(0.0178239 -0.0382654 0)
(0.0193069 0.0419273 0)
(0.00789628 0.08283 0)
(0.018262 -0.0140808 0)
(0.000759737 0.0533291 0)
(0.0137255 0.00936651 0)
(0.00646364 0.0758672 0)
(0.0202586 0.145485 0)
(0.000907968 0.00731941 0)
(0.0194217 0.067374 0)
(0.0181924 0.0986867 0)
(0.0129527 0.0490571 0)
(0.0179266 -0.00648356 0)
(0.0152446 0.0924609 0)
(0.00458458 0.14821 0)
(0.0176799 0.129841 0)
(0.0195496 0.0918625 0)
(0.0121872 0.0353904 0)
(0.00860175 0.104153 0)
(0.0196751 0.0611364 0)
(0.0178004 -0.040037 0)
(0.00683594 0.0790602 0)
(0.00122905 0.00746408 0)
(0.019785 0.0687483 0)
(0.0112589 0.0775993 0)
(0.018882 0.0184182 0)
(0.0120184 0.0358823 0)
(0.0182449 -0.0160086 0)
(0.0132339 -0.0343149 0)
(0.0204509 0.121703 0)
(0.0175342 0.00704397 0)
(0.011309 0.148107 0)
(0.00766496 0.131892 0)
(0.0194378 0.050652 0)
(0.0143101 0.147379 0)
(0.0151555 0.123131 0)
(0.0181343 -0.0146971 0)
(0.0202083 0.142492 0)
(0.0108641 0.112195 0)
(0.0178207 -0.038907 0)
(0.00422926 0.147196 0)
(0.0181664 -0.0202285 0)
(0.00435352 0.135219 0)
(0.0172245 -0.0709163 0)
(0.0174268 0.0967245 0)
(0.019997 0.0788438 0)
(0.0137516 0.147282 0)
(0.0187628 0.141326 0)
(0.018793 0.140665 0)
(0.0177578 -0.0420451 0)
(0.00173369 0.0331581 0)
(0.0181148 0.12291 0)
(0.0196344 0.0589689 0)
(0.00778482 0.11625 0)
(0.0135262 0.117144 0)
(0.0180846 -0.0244696 0)
(0.019528 0.144012 0)
(0.0135432 0.102477 0)
(0.017897 -0.0320508 0)
(0.0193427 0.146319 0)
(0.00478607 0.0273931 0)
(0.0175404 -0.0538088 0)
(0.0177119 -0.0421661 0)
(0.0038951 0.0350549 0)
(0.00815482 0.0577323 0)
(0.000636505 0.0507809 0)
(0.0104017 0.0318982 0)
(0.0194277 0.0513192 0)
(0.0185898 0.00311368 0)
(-0.00757571 0.148174 0)
(0.019679 0.0613691 0)
(0.006275 0.0869806 0)
(0.0198342 0.0926082 0)
(0.0209018 0.127606 0)
(0.0177669 -0.000853378 0)
(0.0176165 -0.0497245 0)
(0.0183714 -0.00936489 0)
(0.0188243 0.0155607 0)
(0.00584769 0.0257622 0)
(0.0171847 -0.0682828 0)
(0.00827648 0.054823 0)
(0.0202195 0.0925576 0)
(0.0138442 0.0544738 0)
(0.0122253 0.148109 0)
(0.0189978 0.038523 0)
(0.0151163 -0.0329172 0)
(0.00204197 0.0397466 0)
(0.0183511 0.0141356 0)
(0.0196737 0.0898119 0)
(0.018732 0.0293095 0)
(0.0205942 0.147745 0)
(0.0199921 0.0785521 0)
(0.0195068 0.0520479 0)
(0.0174275 0.134337 0)
(0.0192797 0.103116 0)
(0.00614854 0.0473111 0)
(0.0205755 0.109919 0)
(0.0174934 -0.056355 0)
(0.0100304 0.104479 0)
(0.0194318 0.0506602 0)
(0.0048547 0.0874407 0)
(0.0190998 0.0333995 0)
(0.0132914 -0.0319031 0)
(0.00149325 0.028842 0)
(0.0150457 0.0971267 0)
(0.016783 -0.0941134 0)
(0.0149391 0.0983794 0)
(0.0167914 -0.0942809 0)
(0.0210081 0.134095 0)
(0.0174867 -0.0479253 0)
(0.0130271 0.147648 0)
(0.0109656 0.110956 0)
(0.0156894 0.147436 0)
(0.013922 0.147546 0)
(0.00580534 0.0612652 0)
(0.0193852 0.144678 0)
(0.00783288 0.115191 0)
(0.00524877 0.0930263 0)
(0.0195681 0.0785671 0)
(0.000374366 0.00330206 0)
(0.00573553 0.0963488 0)
(0.00822338 0.0534578 0)
(0.0194267 0.0517891 0)
(0.00117584 0.020344 0)
(0.0172404 -0.0700499 0)
(0.0168986 -0.0875775 0)
(0.0210421 0.135038 0)
(0.0201404 0.0989193 0)
(0.0170399 -0.080919 0)
(0.0193559 0.0440753 0)
(0.0177043 -0.00227528 0)
(0.00617026 0.0850439 0)
(0.0192119 0.043546 0)
(0.0145464 -0.0504944 0)
(0.0174691 0.100289 0)
(0.00452866 0.0635406 0)
(0.0186114 0.00420963 0)
(0.0175286 -0.0543723 0)
(0.0168951 -0.0875058 0)
(0.0133953 0.125454 0)
(0.0189227 0.0317618 0)
(0.00400146 0.134681 0)
(0.0146474 -0.0531222 0)
(0.0186901 0.0275626 0)
(0.0141619 0.105779 0)
(0.0171235 -0.0715414 0)
(0.0131858 0.0978869 0)
(0.00109286 0.00883882 0)
(0.0188876 0.0187375 0)
(0.0175866 -0.0514721 0)
(0.0175735 -0.0521816 0)
(0.0199594 0.1102 0)
(0.0210533 0.135523 0)
(0.0178265 -0.0385829 0)
(0.0193614 0.0443585 0)
(0.0184585 -0.00449062 0)
(0.00374143 0.00708716 0)
(0.0184458 0.0213881 0)
(0.0142495 0.104409 0)
(0.00893809 0.109553 0)
(0.0190823 0.0313318 0)
(0.0185375 0.0304183 0)
(0.00127073 -0.00183571 0)
(0.0190124 0.0563916 0)
(0.0177775 0.00408153 0)
(0.0184002 -0.00788208 0)
(0.00600909 0.0627507 0)
(0.0183065 -0.00366589 0)
(0.0210688 0.138277 0)
(0.0205512 0.121549 0)
(0.0173191 -0.0659101 0)
(0.00102479 0.0184057 0)
(0.00994507 0.105649 0)
(0.000679404 0.00267339 0)
(0.0176132 0.116395 0)
(0.00555801 0.0240881 0)
(0.0172781 -0.0675977 0)
(-0.00655728 0.148129 0)
(0.0161193 0.127415 0)
(0.0206637 0.114891 0)
(0.0173455 0.0487101 0)
(0.0179287 -0.023754 0)
(0.0193647 0.0445533 0)
(0.0200106 0.145024 0)
(0.017453 -0.0491123 0)
(0.0176541 -0.0451125 0)
(0.0182849 -0.0052434 0)
(0.0190954 0.0664407 0)
(0.0190412 0.0337412 0)
(0.0168741 -0.039157 0)
(0.0173077 -0.0579777 0)
(0.00661664 0.14794 0)
(0.0165607 -0.0550136 0)
(0.0183291 0.0031777 0)
(0.00129158 0.00368537 0)
(0.019284 0.0421754 0)
(0.0172323 0.0234033 0)
(0.0107131 -0.00301375 0)
(0.0174498 0.116701 0)
(0.015652 0.0420354 0)
(0.0184208 -0.00664382 0)
(0.0187625 0.0122255 0)
(0.0110519 0.0769054 0)
(0.00241507 0.00299574 0)
(0.0174592 -0.0578915 0)
(0.0193653 0.0446193 0)
(0.000296426 0.00259018 0)
(0.0173172 -0.0660077 0)
(0.0149279 -0.00439465 0)
(0.0200358 0.0953405 0)
(0.011161 0.0805542 0)
(0.0190101 0.0254512 0)
(0.018547 0.00166475 0)
(0.0171127 0.103761 0)
(0.0145157 0.074911 0)
(0.0170446 -0.0806328 0)
(0.019981 0.0882592 0)
(0.0207333 0.118356 0)
(0.000331688 0.00294448 0)
(0.0188672 0.0175973 0)
(0.00458113 0.148208 0)
(0.0198345 0.0714385 0)
(0.0108257 -0.00103122 0)
(0.0204436 0.102751 0)
(0.0192979 0.0412177 0)
(0.017639 -0.00744473 0)
(0.00826798 0.0571323 0)
(0.0124253 0.105022 0)
(0.0160998 -0.0862234 0)
(0.0190954 0.0327591 0)
(0.00159253 -0.00260321 0)
(0.00789297 0.0562291 0)
(0.00249208 0.0172011 0)
(0.00262333 0.0178369 0)
(0.0191166 0.0313498 0)
(0.0191106 0.032971 0)
(0.0176368 -0.0057484 0)
(0.0199485 0.0848354 0)
(0.000808669 0.00510566 0)
(0.00536377 0.0283453 0)
(0.0188818 0.0300671 0)
(0.019041 0.0272363 0)
(0.0181694 0.0612345 0)
(0.0132613 0.0507414 0)
(0.00546662 0.0930745 0)
(0.0010606 0.0902906 0)
(0.0198129 0.0701028 0)
(0.0204188 0.101708 0)
(0.00284069 0.0311083 0)
(0.00204011 0.0902777 0)
(0.0171401 -0.0703694 0)
(0.0169077 -0.0367898 0)
(0.017479 0.00427893 0)
(0.00964699 0.105865 0)
(0.0148392 0.101344 0)
(0.0165379 0.108195 0)
(0.0182845 0.00135269 0)
(0.0200581 0.142272 0)
(0.0199882 0.0865251 0)
(0.0191945 0.0420223 0)
(0.0186555 0.0176168 0)
(0.0189997 0.0264943 0)
(0.0195162 0.0895018 0)
(0.00761627 0.0833502 0)
(0.018826 0.0154551 0)
(0.000873681 0.0890821 0)
(0.0137095 0.11764 0)
(0.0155743 -0.0151367 0)
(0.0192573 0.0407775 0)
(0.0186959 0.136503 0)
(0.00168647 0.00853015 0)
(0.0205197 0.120308 0)
(0.0195745 0.0738695 0)
(0.0211896 0.144024 0)
(0.0186865 0.0194765 0)
(0.0127316 0.13993 0)
(0.0178326 0.00425498 0)
(0.00216526 0.0428415 0)
(0.0192866 0.0407602 0)
(0.0204682 0.120293 0)
(0.0178585 -0.0367509 0)
(0.0129919 0.0970709 0)
(0.0178005 0.0529456 0)
(0.0199387 0.0834988 0)
(0.0183938 -0.00812251 0)
(0.0191339 0.0320886 0)
(0.0184732 0.0166571 0)
(0.0200187 0.109766 0)
(0.013754 0.123497 0)
(0.016336 0.0815574 0)
(0.00958557 0.107034 0)
(0.0162293 0.140964 0)
(0.0117995 0.146181 0)
(0.000780054 0.118199 0)
(0.0181959 0.00942894 0)
(0.00927126 0.14713 0)
(0.0178789 -0.0356306 0)
(0.0207187 0.117497 0)
(0.0154073 0.104711 0)
(0.0178914 -0.0251301 0)
(0.0185278 0.000787613 0)
(0.0156019 0.124038 0)
(0.00603592 0.123468 0)
(0.016949 0.148004 0)
(0.018979 0.0242114 0)
(0.0185337 -7.96942e-05 0)
(0.0198765 0.080653 0)
(0.00417104 0.00644138 0)
(0.0175622 -0.0526851 0)
(0.0161675 -0.0835466 0)
(0.00126646 0.00641084 0)
(0.0180123 0.0804241 0)
(0.0179291 -0.0159494 0)
(0.0078636 0.141783 0)
(0.0195139 0.0751462 0)
(0.0171754 -0.0733279 0)
(0.0190112 0.0325452 0)
(0.0166969 -0.0383692 0)
(0.0192635 0.0395153 0)
(0.0159472 0.0511549 0)
(0.0184733 -0.0036651 0)
(0.00154131 0.0233457 0)
(0.00301141 0.0332266 0)
(0.0182369 -0.0154868 0)
(0.0189572 0.0229891 0)
(0.0112055 0.147852 0)
(0.0159479 0.0485001 0)
(0.0133263 0.10541 0)
(0.00218399 0.0890319 0)
(0.0157489 -0.0719253 0)
(0.00815166 0.148135 0)
(0.0167935 -0.0760316 0)
(0.0164657 0.0807481 0)
(0.0174423 -0.0487378 0)
(0.0182945 0.0117662 0)
(0.0112354 0.0821113 0)
(0.0207406 0.133864 0)
(0.0167317 -0.077803 0)
(0.0168707 -0.0835985 0)
(0.00865516 0.0830076 0)
(0.0189479 0.0291356 0)
(0.015628 0.0452606 0)
(0.0210077 0.134731 0)
(0.0194043 0.100985 0)
(0.018733 0.135551 0)
(0.0178554 0.05484 0)
(0.00301192 0.017882 0)
(0.0105952 0.0101753 0)
(0.0139458 0.0625915 0)
(0.0191123 0.139436 0)
(0.00407544 0.138825 0)
(0.0195972 0.0623834 0)
(0.0203543 0.147727 0)
(0.0181231 0.00230103 0)
(0.00466721 0.0274266 0)
(0.0190895 0.0373083 0)
(0.0122652 0.147847 0)
(0.017681 -0.0442661 0)
(0.0128501 -0.00598292 0)
(0.00546738 0.137956 0)
(0.00777082 0.0567016 0)
(0.0157921 -0.0432939 0)
(0.0169959 0.0621668 0)
(0.0192764 0.0400363 0)
(0.00155221 0.0276941 0)
(0.0208071 0.13211 0)
(0.0159689 -0.03626 0)
(0.0176253 -0.0425224 0)
(0.0196391 0.0961755 0)
(0.0189632 0.0228424 0)
(0.018961 0.133792 0)
(0.012253 0.104347 0)
(0.0184468 -0.00518844 0)
(0.0191485 0.0330107 0)
(0.0110219 0.0993691 0)
(0.015461 -0.0172696 0)
(0.0186579 0.0076938 0)
(0.0198655 0.0812858 0)
(0.0185764 0.0109423 0)
(0.00042709 0.00370233 0)
(0.0146231 0.0736736 0)
(0.0203919 0.121826 0)
(0.0151277 -0.0350583 0)
(0.018756 0.0317617 0)
(0.0173505 -0.0383961 0)
(0.0107391 0.0088766 0)
(0.0176202 -0.0202131 0)
(0.0177932 -0.0400429 0)
(0.0126365 -0.0113108 0)
(0.0138888 -0.0372108 0)
(0.00258452 0.0183976 0)
(0.0177819 -0.0411896 0)
(0.000730003 0.0141389 0)
(0.013182 0.124909 0)
(0.0198593 0.0711677 0)
(0.0127506 0.119704 0)
(0.0189305 0.0215963 0)
(0.01736 0.0808513 0)
(0.00806353 0.142506 0)
(0.00270989 0.0190077 0)
(0.0181334 0.130378 0)
(0.00622353 0.0748092 0)
(0.0191171 0.0708515 0)
(0.00200292 0.0119509 0)
(0.0194238 0.127388 0)
(0.0149447 -0.0019474 0)
(0.021047 0.138654 0)
(0.0194778 0.147632 0)
(0.0190651 0.0285495 0)
(0.000684419 0.00293481 0)
(0.00182595 0.0361366 0)
(0.0194559 0.089205 0)
(0.0189632 0.0933262 0)
(0.0180152 -0.0285675 0)
(0.0188814 0.0185814 0)
(0.0186366 0.037539 0)
(0.00480071 0.0955131 0)
(0.0193972 0.0504478 0)
(0.0102438 0.147931 0)
(0.0168931 -0.0822145 0)
(0.0195967 0.063029 0)
(0.0183772 0.0237627 0)
(0.0170197 -0.081545 0)
(0.0183366 0.107399 0)
(0.0155975 -0.0721174 0)
(0.0192657 0.0486151 0)
(0.0190407 0.143785 0)
(0.0186265 0.0390621 0)
(0.0123037 0.147966 0)
(0.0186773 0.0437767 0)
(0.0146309 -0.0303027 0)
(0.0179534 -0.0159485 0)
(0.0154182 0.122408 0)
(0.0117254 0.000474953 0)
(0.0158076 -0.0411944 0)
(0.0188008 0.098391 0)
(0.0168827 0.10646 0)
(0.00593814 0.078042 0)
(0.00087509 0.00536955 0)
(0.0182091 0.00685426 0)
(0.0156711 0.0108806 0)
(0.0187976 0.0332591 0)
(0.0047675 0.0938225 0)
(0.00412723 0.0857777 0)
(0.000579231 0.0116449 0)
(0.0146144 0.103999 0)
(0.00758435 -0.00747092 0)
(0.0165138 0.101308 0)
(0.00266792 0.0195779 0)
(0.0190277 0.0264224 0)
(0.0165087 -0.0683539 0)
(-0.00847924 0.147903 0)
(0.00540525 0.0255958 0)
(0.00127579 0.0153695 0)
(0.0116237 0.143651 0)
(0.0191194 0.0651175 0)
(0.00225608 0.128068 0)
(0.0197037 0.0638872 0)
(0.0195573 0.113412 0)
(0.02022 0.0930598 0)
(0.0159406 -0.0385182 0)
(0.0189711 0.0326881 0)
(0.0148969 0.0234633 0)
(0.000806305 0.0120766 0)
(0.00239806 0.0160035 0)
(0.0151801 0.094271 0)
(0.020112 0.0848805 0)
(0.00111547 0.0132103 0)
(0.0189707 0.0245718 0)
(0.0166284 0.10213 0)
(0.0208861 0.126724 0)
(0.0173525 0.136197 0)
(0.0196118 0.112008 0)
(0.0175948 -0.0435866 0)
(0.00843936 0.0195226 0)
(4.85459e-05 0.000422415 0)
(0.0165878 -0.0668783 0)
(0.00228368 0.101321 0)
(0.00989236 0.117792 0)
(0.0196347 0.0603488 0)
(0.0135429 0.107224 0)
(0.000932699 0.0505583 0)
(0.0175939 0.0675797 0)
(0.00586183 0.0428916 0)
(0.00205063 0.0040868 0)
(0.0170201 0.102297 0)
(-0.000464993 0.139104 0)
(0.0180134 -0.0287466 0)
(0.0180401 0.102058 0)
(0.0125756 -0.0136468 0)
(0.00128831 0.00692834 0)
(0.0183971 -0.00791491 0)
(0.0190767 0.140197 0)
(0.0112898 0.107077 0)
(0.0130217 0.0954542 0)
(0.0196846 0.0629961 0)
(0.0186019 0.00471967 0)
(0.0196426 0.0593951 0)
(0.0129621 0.139404 0)
(0.0147549 -0.0279247 0)
(0.00367572 0.0166163 0)
(0.00242676 0.00458429 0)
(0.0166504 -0.0532541 0)
(0.0181635 0.101184 0)
(0.0179952 -0.0265397 0)
(0.00423952 0.135768 0)
(0.0178354 -0.0380702 0)
(0.0139882 0.0870708 0)
(0.0103037 0.127608 0)
(0.0196982 0.0623289 0)
(0.00462094 0.0870829 0)
(0.0172534 0.0211667 0)
(0.0104834 0.0975403 0)
(0.00135396 0.0107558 0)
(0.0187042 0.101766 0)
(0.00151858 0.144432 0)
(0.0151586 0.0499955 0)
(0.0189114 0.020506 0)
(0.0169355 -0.0865818 0)
(0.0196511 0.0940936 0)
(0.00780814 0.0840064 0)
(0.00891978 -0.00221745 0)
(0.0170166 -0.0666959 0)
(0.0189974 0.0261148 0)
(0.000452473 0.00403756 0)
(0.0189262 0.0226661 0)
(0.00874482 -0.000907103 0)
(0.0187011 0.0974926 0)
(0.011197 -0.0254883 0)
(0.0121492 0.00617984 0)
(0.0191197 0.0338135 0)
(0.0137199 0.0316672 0)
(0.016683 -0.0953811 0)
(0.018603 0.0841741 0)
(0.000548966 0.0120227 0)
(0.00677565 0.00838266 0)
(0.00171921 0.111275 0)
(0.00961072 0.0762739 0)
(0.0138981 -0.0345121 0)
(0.0189784 0.147883 0)
(0.0125955 -0.00439238 0)
(0.011876 0.0228944 0)
(0.0184783 -0.00330151 0)
(0.0186601 0.00675844 0)
(0.0167524 -0.0388931 0)
(0.0188853 0.0946733 0)
(0.0185919 0.0231384 0)
(0.0168269 0.0335902 0)
(0.0112046 0.0421971 0)
(0.00304493 0.138955 0)
(0.0188718 0.0178447 0)
(0.0195336 0.126632 0)
(0.00301697 0.0632997 0)
(0.0143651 0.0746295 0)
(0.0188625 0.0175746 0)
(0.0180593 0.0293869 0)
(0.0197096 0.0630539 0)
(0.000700531 0.0147422 0)
(0.00241565 0.128848 0)
(0.0178134 -0.0392109 0)
(0.0177972 0.0210519 0)
(0.0152786 0.0460404 0)
(0.0203215 0.0960654 0)
(0.0103555 0.148075 0)
(0.0095686 0.074721 0)
(0.0192478 0.0485913 0)
(0.0025613 0.0168389 0)
(0.0135852 0.0324251 0)
(0.00571024 0.0268254 0)
(0.019107 0.0307952 0)
(0.00729919 -0.00771787 0)
(0.0119708 -0.0328034 0)
(0.0112369 0.0402963 0)
(0.0166865 -0.095904 0)
(0.0146044 -0.0462645 0)
(0.0200258 0.0936081 0)
(-0.00351899 0.145885 0)
(0.0120481 -0.000939605 0)
(0.00440852 0.141844 0)
(0.00276113 0.0292852 0)
(0.0197044 0.0627451 0)
(0.00668551 0.0550318 0)
(0.012658 -0.00657619 0)
(0.00115251 0.0502538 0)
(0.0170599 -0.0655187 0)
(0.00110565 0.0524562 0)
(0.0189772 0.0303142 0)
(0.0168094 -0.0933719 0)
(0.0177457 -0.0424414 0)
(0.00559386 0.137467 0)
(0.0177412 -0.0405453 0)
(0.0198995 0.0734141 0)
(0.00877295 0.103036 0)
(0.0175761 -0.0519522 0)
(0.0202563 0.0936864 0)
(0.0198845 0.0725785 0)
(0.0170895 -0.0782558 0)
(0.0184567 -0.00448487 0)
(0.0211683 0.144768 0)
(0.0190739 0.0371043 0)
(0.0126493 0.104267 0)
(0.0171547 -0.0744724 0)
(0.0177985 0.0232619 0)
(0.0175133 -0.0553221 0)
(0.0107099 0.00112356 0)
(0.012158 0.063899 0)
(0.0115416 0.106581 0)
(0.00291256 0.0311916 0)
(0.0169692 0.0259709 0)
(0.0103664 0.139145 0)
(0.017858 -0.0367576 0)
(0.0120343 0.0620743 0)
(0.0024591 0.0864213 0)
(0.0208199 0.122971 0)
(0.0199304 0.14113 0)
(0.00142961 0.111053 0)
(-0.00198258 0.143216 0)
(0.0178526 0.067353 0)
(0.0145511 0.0409373 0)
(0.0198359 0.147488 0)
(-0.00140561 0.143406 0)
(0.00887013 0.13042 0)
(0.0146833 -0.0438757 0)
(0.0169353 -0.0866125 0)
(0.0197094 0.0629665 0)
(0.0046515 0.148177 0)
(0.011139 -0.0236103 0)
(0.019998 0.0900624 0)
(0.0195373 0.0725244 0)
(0.0202707 0.0933691 0)
(0.0188642 0.0177257 0)
(0.0165561 -0.0770961 0)
(0.0113183 0.0792995 0)
(0.0150179 0.0247138 0)
(0.0138763 0.0884628 0)
(0.00249343 -0.00430737 0)
(0.0148194 0.102847 0)
(0.00328172 0.00603275 0)
(0.0165888 0.10655 0)
(0.0182427 0.108416 0)
(0.0206235 0.112743 0)
(0.0183409 -0.00364697 0)
(0.0121061 -0.0307148 0)
(0.018934 0.0312077 0)
(0.0193218 0.0422397 0)
(0.0185989 0.100914 0)
(0.00622363 0.121215 0)
(0.0185446 0.000125152 0)
(0.0127642 0.0496042 0)
(0.00973467 0.116941 0)
(0.0070243 0.143033 0)
(0.0206659 0.115264 0)
(0.000513705 0.0527674 0)
(0.0086333 0.0843947 0)
(0.017682 -0.0461957 0)
(0.0177493 -0.039731 0)
(0.0184706 -0.00220504 0)
(0.0186355 0.0151419 0)
(0.0176006 -0.0481687 0)
(0.00911485 0.0768129 0)
(0.0191337 0.0384786 0)
(0.00648846 0.121992 0)
(0.00640227 0.0606057 0)
(0.00575108 0.122671 0)
(0.0173021 -0.0664081 0)
(0.0196312 0.058773 0)
(0.0119067 0.0163182 0)
(0.00704042 0.00770736 0)
(0.0106355 0.0986996 0)
(0.0186332 0.00626223 0)
(0.0144764 0.103549 0)
(0.0177867 0.0480455 0)
(0.00219626 0.0994572 0)
(0.0133437 0.101923 0)
(0.0191499 0.0398358 0)
(0.0121361 -0.00294467 0)
(0.0191361 0.0691453 0)
(0.0203025 0.133793 0)
(0.017535 -0.0542681 0)
(0.0135158 0.0610765 0)
(0.0192951 0.129716 0)
(0.015487 0.105932 0)
(0.0189999 0.024879 0)
(0.0193047 0.041311 0)
(0.0057185 0.0946028 0)
(0.0196364 0.0590465 0)
(0.0186208 0.0231171 0)
(0.00925568 0.148081 0)
(0.000899442 0.0532396 0)
(0.0168031 -0.0931557 0)
(0.000251671 0.0251695 0)
(0.0173479 0.0535731 0)
(0.0185762 0.107025 0)
(0.0186636 0.0169566 0)
(0.0174821 -0.0567346 0)
(0.0169614 -0.0796939 0)
(0.0167951 -0.0816228 0)
(0.0190272 0.0267984 0)
(0.00280597 0.0159298 0)
(0.0188445 0.0193392 0)
(0.0120602 0.00362047 0)
(0.0154478 0.121319 0)
(0.0177256 -0.0438704 0)
(0.00921076 0.10981 0)
(0.000260168 0.0220551 0)
(0.0150243 0.0873487 0)
(0.0144853 0.0468081 0)
(0.0206073 0.111759 0)
(0.00758605 0.0179768 0)
(0.00485423 0.0573487 0)
(0.0176817 -0.0184026 0)
(0.0189228 0.0856892 0)
(0.0180921 0.00713422 0)
(0.00904913 0.147931 0)
(0.0165988 -0.0845471 0)
(0.0202152 0.0904503 0)
(0.0159808 -0.0835798 0)
(0.0180112 0.0295712 0)
(0.0154694 -0.073701 0)
(0.0184633 -0.00425229 0)
(0.0168517 -0.0364379 0)
(0.0205032 0.108816 0)
(0.0173351 -0.0648255 0)
(0.0162309 -0.00572718 0)
(0.0120786 -0.00763334 0)
(0.0168141 -0.0929982 0)
(0.0169373 -0.0803332 0)
(0.00399121 0.122514 0)
(0.0189922 0.0355468 0)
(0.0182153 0.0597879 0)
(0.0138062 -0.0161917 0)
(0.0170179 0.0243366 0)
(0.0146088 0.0468721 0)
(0.0185885 0.105051 0)
(0.000108763 0.000986036 0)
(0.018321 0.0214146 0)
(0.0119299 0.14657 0)
(0.00813286 0.0551112 0)
(0.019055 0.060873 0)
(0.0123998 0.0239328 0)
(0.0178931 0.137435 0)
(0.00236298 0.0139524 0)
(0.00267884 0.13737 0)
(0.0184982 0.0235902 0)
(0.0157874 0.0117586 0)
(0.0140252 0.0161876 0)
(0.0119736 0.0188561 0)
(0.0181793 0.147762 0)
(0.0195854 0.102348 0)
(0.0188683 0.0182375 0)
(0.00597954 0.0975572 0)
(0.0134058 0.0856631 0)
(0.0181854 0.00455061 0)
(0.0102489 0.0978643 0)
(0.0192878 0.0587528 0)
(0.0196243 0.103796 0)
(0.0138414 -0.0138764 0)
(0.0189335 0.0343977 0)
(0.0122285 0.022632 0)
(0.0200836 0.0848826 0)
(0.00411509 0.121536 0)
(0.0165906 -0.0407127 0)
(0.0181011 -0.0235716 0)
(0.0187849 0.0162201 0)
(0.00906077 0.079856 0)
(0.014014 0.114755 0)
(0.0168219 -0.0926885 0)
(0.00636085 0.0593081 0)
(0.00776226 0.0589967 0)
(0.0202566 0.0926306 0)
(0.0191129 0.0311002 0)
(0.00421215 0.134042 0)
(0.0166514 -0.0863753 0)
(0.00365133 0.033863 0)
(0.0139625 0.0134811 0)
(0.0173304 -0.0648625 0)
(0.0151547 0.0909788 0)
(0.0085044 0.0213211 0)
(0.0184505 -0.00256228 0)
(0.0124555 0.0183251 0)
(0.0182938 -0.0119456 0)
(0.00242097 0.0324455 0)
(0.00827497 0.0219903 0)
(0.011189 0.108467 0)
(0.0166632 -0.0829769 0)
(0.017303 -0.0667557 0)
(0.00754221 0.114489 0)
(0.0104671 0.11379 0)
(0.00894443 0.0762395 0)
(0.0135401 0.12718 0)
(0.0012157 0.0095786 0)
(0.0126852 0.147906 0)
(0.0189651 0.0561977 0)
(0.000390778 0.00351242 0)
(0.0185634 0.0016492 0)
(0.017504 0.135259 0)
(0.018865 0.0201904 0)
(0.017808 -0.0395983 0)
(0.0156741 0.148041 0)
(0.0116963 0.0153992 0)
(0.00629425 0.120093 0)
(0.0107174 0.101345 0)
(0.0197159 0.14575 0)
(0.01306 0.12989 0)
(0.017344 -0.0646038 0)
(0.0198065 0.0681867 0)
(0.00809644 0.131478 0)
(0.0177026 -0.0451332 0)
(0.00926057 0.148116 0)
(0.0182483 0.0165869 0)
(0.0166363 -0.0857641 0)
(0.0187968 0.133435 0)
(0.00882149 0.147854 0)
(0.0175107 -0.0551682 0)
(0.0181208 0.137364 0)
(0.0204846 0.113029 0)
(0.0180753 -0.0251001 0)
(0.0169385 -0.0538085 0)
(0.0136913 0.124811 0)
(0.0184263 -0.00634056 0)
(0.0108671 0.144659 0)
(0.0108468 0.00293557 0)
(0.0159465 0.0300149 0)
(0.0205101 0.108558 0)
(0.0175553 0.124268 0)
(0.0110017 0.0750372 0)
(0.0183127 0.130095 0)
(0.0193161 0.0585935 0)
(0.0183441 0.105498 0)
(0.0182607 -0.0151595 0)
(0.0147595 0.109684 0)
(0.0190299 0.0270485 0)
(0.015917 -0.0636446 0)
(0.0167221 -0.0896734 0)
(0.0190658 0.0382316 0)
(0.0200518 0.0932239 0)
(0.0177619 0.0665077 0)
(0.0120746 0.0241363 0)
(0.0135349 0.104101 0)
(0.017741 -0.0427946 0)
(0.00698914 0.0750274 0)
(0.00888502 0.131221 0)
(0.00158465 0.00479444 0)
(0.0149895 0.100191 0)
(0.0123806 0.0584018 0)
(0.0144464 0.137354 0)
(0.0172674 -0.0593052 0)
(0.0123742 0.148042 0)
(0.0143476 0.141284 0)
(-0.00303031 0.145661 0)
(0.0169211 -0.0860336 0)
(0.0200747 0.141386 0)
(0.0125463 0.052288 0)
(0.01858 0.00341537 0)
(0.0171501 -0.0743652 0)
(0.00999477 0.0304195 0)
(0.00789755 0.0586377 0)
(0.0179582 0.0611642 0)
(0.0201309 0.0858626 0)
(0.000455765 0.0214568 0)
(0.018894 0.041509 0)
(0.0204427 0.13912 0)
(0.0186581 0.117889 0)
(0.00530443 0.110891 0)
(0.0147004 -0.0205302 0)
(0.0126067 0.0144886 0)
(0.0190235 0.0376555 0)
(0.0175093 0.126463 0)
(0.00278721 0.0201599 0)
(0.021048 0.139933 0)
(0.0170664 -0.0790925 0)
(0.0171252 0.133303 0)
(0.0189498 0.0237983 0)
(0.0169137 -0.05577 0)
(0.0207311 0.126059 0)
(0.0128078 0.118451 0)
(0.0169248 0.0344409 0)
(0.0173103 -0.0655325 0)
(0.01885 0.0182525 0)
(0.0166267 -0.0756106 0)
(0.0189047 0.147625 0)
(0.0172861 0.0972551 0)
(0.000586042 0.00864201 0)
(0.0133793 0.0152135 0)
(0.0133135 0.089524 0)
(0.00515739 0.103587 0)
(0.00560027 0.126428 0)
(0.0184533 0.127674 0)
(0.00887142 0.0815244 0)
(0.0177173 -0.0350966 0)
(0.00602918 0.0447782 0)
(0.0176858 0.0683953 0)
(0.0118307 0.00297208 0)
(0.0195842 0.110129 0)
(0.017391 -0.0505764 0)
(0.0204592 0.112889 0)
(0.00865606 0.101635 0)
(0.0200363 0.0914817 0)
(0.0134336 0.018074 0)
(0.0174923 -0.0557946 0)
(0.00504933 0.0894964 0)
(0.00140421 0.13646 0)
(0.00319866 0.0643049 0)
(0.0180251 -0.024459 0)
(0.0189777 0.0236409 0)
(0.0168515 -0.0766852 0)
(0.0090699 0.0813829 0)
(0.0183777 -0.00149505 0)
(0.0115415 0.0953323 0)
(0.0175126 0.0982882 0)
(0.0189687 0.0231617 0)
(0.0134544 0.0361714 0)
(0.00537831 0.122928 0)