/*--------------------------------*- C++ -*----------------------------------*\
| =========                 |                                                 |
| \\      /  F ield         | OpenFOAM: The Open Source CFD Toolbox           |
|  \\    /   O peration     | Version:  v2012                                 |
|   \\  /    A nd           | Website:  www.openfoam.com                      |
|    \\/     M anipulation  |                                                 |
\*---------------------------------------------------------------------------*/
FoamFile
{
    version     2.0;
    format      ascii;
    class       surfaceVectorField;
    location    "650";
    object      ddtCorrDdt0(Uf);
}
// * * * * * * * * * * * * * * * * * * * * * * * * * * * * * * * * * * * * * //

dimensions      [0 1 -2 0 0 0 0];


internalField   nonuniform List<vector> 
20673
(
(0.0170894 -0.0128243 1.98118e-17)
(0.0168526 -0.0139008 -2.13634e-18)
(0.0159827 -0.0130087 2.37121e-17)
(0.00337875 -0.00207624 -1.74976e-18)
(0.0033495 -0.00195551 -1.77906e-18)
(0.00348781 -0.00200385 -1.36487e-18)
(0.0153979 0.0943423 -2.97721e-17)
(0.0172214 0.0961249 -2.23575e-18)
(0.0103711 0.100145 2.78169e-17)
(0.0014959 -0.00162368 -3.14796e-18)
(0.0013912 -0.00145506 2.91098e-18)
(0.00132819 -0.00162131 -4.7464e-19)
(0.000179636 0.00315088 -4.23677e-19)
(0.000162197 0.00318059 1.55107e-18)
(0.000202881 0.00333219 2.84765e-18)
(0.00250715 0.0280779 -1.48545e-17)
(0.00271369 0.0282876 3.39524e-19)
(0.00276103 0.0284643 -3.59351e-17)
(-0.023416 0.0975528 7.81613e-18)
(-0.0157682 0.0963715 9.0355e-18)
(-0.0241923 0.102867 -2.37025e-17)
(0.0386537 0.0876247 2.19201e-17)
(0.0420372 0.085156 3.16936e-17)
(0.0444966 0.0848106 2.00638e-17)
(0.105346 -0.0451258 -2.06047e-17)
(0.107976 -0.0469691 1.88559e-17)
(0.115358 -0.0429714 -7.87107e-18)
(0.0276547 -0.0204103 4.57728e-18)
(0.0284201 -0.0220379 -2.23865e-17)
(0.0295644 -0.0204872 -1.16337e-17)
(-0.0396642 0.143811 7.0083e-18)
(-0.0328996 0.149099 4.01328e-17)
(-0.0396058 0.151063 1.11797e-17)
(0.034185 0.0308728 1.14633e-17)
(0.0366553 0.033701 2.92034e-17)
(0.0315327 0.0336191 3.85881e-17)
(0.00168624 -0.00154994 3.43251e-18)
(0.128947 0.00590668 -2.98654e-17)
(0.15281 0.00884678 -3.17199e-17)
(0.131636 0.0050088 -3.11172e-17)
(0.00818256 0.00303266 9.69283e-20)
(0.00805948 0.00331634 -4.89416e-18)
(0.00781628 0.00304301 -3.42204e-18)
(0.0082797 0.000820326 -4.61451e-19)
(0.00796897 0.00100527 -9.97853e-20)
(0.00791206 0.000572959 -1.06472e-19)
(0.00399912 -0.00146303 1.25438e-18)
(0.00395063 -0.00161185 3.14798e-19)
(0.0038502 -0.00145971 2.92353e-19)
(-0.0187485 -0.0194788 -1.61852e-18)
(-0.0179965 -0.0208432 -1.05847e-17)
(-0.0197395 -0.0204162 2.4688e-17)
(0.0367108 0.0277391 -4.04116e-17)
(0.0321956 0.0282404 -3.34538e-17)
(0.000289801 0.00096422 1.2755e-20)
(0.00027728 0.000909512 -8.54436e-20)
(0.000239065 0.000867433 -1.16343e-19)
(4.87993e-06 6.18486e-05 -8.91321e-19)
(5.83315e-06 8.8181e-05 -2.07907e-18)
(5.36014e-06 6.04113e-05 -2.65875e-18)
(-0.0278036 0.0978571 2.03342e-17)
(-0.0232128 0.0934294 1.85569e-17)
(0.000464919 0.00178905 -6.94583e-19)
(0.000522994 0.00187699 2.43929e-19)
(0.000511334 0.00180451 -2.44106e-20)
(0.0326951 0.0928937 -1.62419e-18)
(0.0361753 0.0908646 -2.33851e-17)
(0.00128196 0.00295501 -1.08396e-18)
(0.00125714 0.00300573 2.89207e-18)
(0.00133469 0.00298049 8.90082e-19)
(-0.0850234 0.111231 2.34004e-17)
(-0.0876009 0.106984 -2.29294e-17)
(-0.080468 0.105679 3.91052e-17)
(0.00213613 0.0145444 -4.69607e-18)
(0.00239736 0.0149771 1.02538e-18)
(0.0016547 0.0148159 -3.08665e-17)
(0.00548923 0.0169986 2.36044e-17)
(0.00591131 0.0171798 1.25661e-17)
(0.00557964 0.0176342 2.27708e-17)
(0.0114824 0.0348621 -2.08795e-18)
(0.0122848 0.0358397 7.30067e-19)
(0.0111598 0.0365246 -6.15787e-19)
(0.0148919 -0.0490239 -6.53604e-18)
(0.0125002 -0.0488 -8.65235e-18)
(0.0137104 -0.0514689 1.08617e-17)
(0.0151369 -0.0179291 7.44546e-18)
(0.0156701 -0.0168419 3.86972e-20)
(0.0144392 -0.0168168 1.08817e-17)
(0.00928151 -0.00743006 -4.04016e-18)
(0.00936277 -0.00695119 -1.67802e-18)
(0.00882509 -0.00713368 -3.9593e-18)
(0.00411335 0.0118536 -9.32197e-18)
(0.00422954 0.0123009 2.01962e-17)
(0.00374642 0.0121425 6.16633e-18)
(0.000277569 0.00714529 3.13892e-18)
(6.56132e-05 0.00703438 3.46905e-18)
(0.000270712 0.00692103 4.13256e-18)
(0.000992337 0.00342919 4.72432e-19)
(0.00105688 0.00345724 -1.27113e-18)
(0.0010706 0.00337869 -2.24454e-18)
(-0.0527706 0.159467 -8.34876e-18)
(-0.048949 0.156603 4.98723e-17)
(-0.0485245 0.154887 1.51356e-17)
(0.000421701 0.00174809 1.00109e-18)
(0.000419404 0.00168799 -2.3678e-19)
(0.136427 0.0286725 2.13383e-17)
(0.140361 0.0255349 -2.61437e-17)
(0.13536 0.02713 1.6471e-17)
(0.0032325 -0.00103514 -1.4906e-18)
(0.00361502 -0.000993858 -6.10597e-19)
(-0.273874 0.0351612 5.03601e-18)
(-0.260639 0.0201407 7.72415e-18)
(-0.288245 0.035321 8.88973e-18)
(0.000829057 3.04326e-05 9.53609e-19)
(0.000830395 1.47247e-05 -3.34658e-18)
(0.000793328 2.15398e-05 9.56316e-19)
(-5.48942e-08 3.76559e-05 -2.03382e-18)
(-7.16969e-07 2.04059e-05 -1.41712e-18)
(-1.44729e-06 2.01239e-05 -1.1026e-18)
(-0.000303997 -0.000554397 -5.28958e-19)
(-0.000268554 -0.000583105 -6.00807e-19)
(-0.0003024 -0.000524171 1.02699e-19)
(0.00715311 0.0207284 -8.54648e-18)
(0.00748954 0.0206002 4.13847e-17)
(0.00748853 0.0214863 7.79562e-17)
(0.00124798 -0.00287427 9.41819e-19)
(0.00128997 -0.00297547 3.0557e-18)
(0.00118936 -0.00295041 2.69878e-18)
(0.00137354 0.00835169 -1.69325e-18)
(0.00101336 0.00841243 -9.06064e-18)
(0.00116548 0.00805374 2.54832e-18)
(-0.0204081 -0.0178506 -1.77337e-17)
(-0.0180156 -0.0178286 9.33346e-18)
(-0.0418583 -0.00499881 2.64869e-18)
(-0.0391551 -0.0055932 -2.1177e-19)
(-0.0403169 -0.00290954 -2.17359e-17)
(0.0122551 0.0331674 -1.18814e-18)
(0.0059534 0.0311951 7.14662e-17)
(0.00788053 0.0311989 1.25818e-16)
(0.000444606 9.80403e-05 -1.21208e-18)
(0.000477734 8.47661e-05 1.7713e-19)
(0.000473375 0.000126372 -1.00873e-18)
(-0.00336829 -0.00339902 -2.0016e-18)
(-0.00358188 -0.00373256 -9.97755e-18)
(-0.00369436 -0.00321175 -8.65225e-18)
(0.000851585 0.00471175 4.46014e-18)
(0.00075392 0.00473686 -5.61472e-18)
(0.000891902 0.00472313 1.07904e-18)
(0.0144012 0.0348768 -1.08484e-16)
(0.0144765 0.042515 -1.30633e-16)
(0.000474741 0.00739545 5.63458e-18)
(0.000148675 0.00743621 -4.67728e-18)
(0.00415244 -0.00144138 -6.75305e-19)
(0.00403248 -0.00130203 -1.38459e-18)
(-0.000815448 -0.00815049 1.08453e-17)
(-0.000422 -0.00842013 -1.17648e-17)
(-0.000819167 -0.00869223 7.67788e-18)
(-0.0487618 0.139442 -1.74291e-17)
(-0.0357671 0.134189 -3.18284e-17)
(0.00263779 0.00216815 7.62878e-19)
(0.00252805 0.00229489 -1.56071e-18)
(0.00260072 0.00210334 2.85767e-18)
(0.00152743 -0.00705503 -5.31116e-18)
(0.00152202 -0.00741201 2.9437e-19)
(0.00186446 -0.00724913 -5.56238e-18)
(0.00130474 -0.00279878 2.34378e-18)
(0.00122184 -0.00277884 2.27985e-18)
(0.122652 -0.128955 -3.70418e-18)
(0.0539165 -0.121867 -1.48733e-17)
(0.0914593 -0.139312 9.60514e-18)
(0.00330684 -0.00217826 7.52939e-19)
(0.00345534 -0.00221812 2.75202e-18)
(0.125735 0.00617754 -2.52262e-17)
(0.000308812 0.00101466 -1.20934e-19)
(0.00034643 0.00103064 -2.85807e-20)
(0.00318281 0.0284744 7.75566e-18)
(0.00296013 0.0276226 2.27686e-17)
(0.0321041 0.0341257 -6.98607e-18)
(0.022491 0.0299353 -6.02965e-18)
(-0.11725 0.000680038 -3.91654e-17)
(-5.0655e-05 0.00335671 6.11267e-18)
(-4.37289e-05 0.00351932 -3.50628e-18)
(-6.64175e-05 0.00392288 -4.06996e-19)
(-8.09253e-05 0.00390603 3.74139e-18)
(-0.108761 0.000920234 -1.24411e-17)
(-0.111654 0.00592688 -5.6429e-17)
(-0.116493 -0.00112846 2.16652e-17)
(0.0169309 -0.00572318 3.20172e-18)
(0.0169644 -0.00629544 -3.85248e-18)
(0.0176706 -0.00581938 3.96987e-18)
(0.00015457 0.00292683 -4.38588e-19)
(0.000205961 0.00311823 -7.55492e-19)
(0.0968723 -0.0464356 8.01808e-18)
(0.102759 -0.0417675 -2.34043e-17)
(0.159181 -0.0269862 -2.45111e-17)
(0.15498 -0.0301767 5.08912e-18)
(0.151842 -0.0308098 3.13248e-18)
(0.00130507 0.0028194 4.47781e-19)
(0.00116107 0.0028929 1.91583e-18)
(0.00305761 0.0311446 -1.65303e-17)
(0.00221337 0.0296711 -1.08477e-17)
(0.00102906 0.0315447 -3.46157e-17)
(0.0599255 0.00641056 6.09519e-19)
(0.0558371 0.00476431 -9.44855e-18)
(0.0553816 0.00928713 1.29463e-18)
(0.208483 -0.0112518 8.11938e-18)
(0.200732 -0.0116987 4.00612e-18)
(0.20954 -0.00925169 3.44305e-17)
(0.000806898 -0.00392327 -4.12652e-18)
(0.000786468 -0.00404099 -1.9873e-18)
(0.000923835 -0.00405467 9.8222e-19)
(-0.155971 0.118047 1.0181e-18)
(-0.147691 0.116725 -4.97005e-17)
(-0.151023 0.123391 -2.64526e-17)
(1.77881e-05 0.000159234 -1.6753e-18)
(2.11887e-05 0.000226723 1.66897e-19)
(1.90144e-05 0.000221569 -6.33165e-19)
(3.83754e-05 0.000335538 -7.71959e-19)
(4.37085e-05 0.000425363 1.31786e-18)
(3.48786e-05 0.000305854 4.22894e-19)
(-3.39522e-05 0.00318297 -1.77857e-18)
(0.00340473 0.0282416 -1.85589e-17)
(0.00415107 0.0282523 1.78703e-17)
(0.00364433 0.0273881 -2.58031e-17)
(0.136174 0.0337305 -1.51988e-17)
(0.139639 0.0272692 -7.33099e-17)
(-0.168472 0.0484972 1.02447e-16)
(-0.149698 0.0498303 -4.20145e-17)
(-0.157145 0.0469316 1.01213e-16)
(0.000825433 -0.00380453 3.90348e-18)
(0.000693655 -0.00379336 9.20781e-20)
(0.000102897 0.000698116 2.30957e-19)
(0.000100088 0.000674175 -6.10006e-19)
(7.62052e-05 0.000552755 -4.17929e-20)
(0.0343231 0.0393007 6.76829e-17)
(0.0821964 0.0489213 -5.41039e-17)
(-0.00320238 -0.00302343 -3.08234e-18)
(-0.00302199 -0.00345662 7.58483e-18)
(-0.000331073 -0.0005334 4.59223e-19)
(-0.00029835 -0.000591381 -3.63478e-18)
(0.1812 -0.0176088 1.07405e-17)
(0.185498 -0.0163359 -2.31379e-18)
(0.1859 -0.0145928 1.97471e-18)
(0.0277517 -0.037931 1.92138e-17)
(0.0272281 -0.0351372 2.35548e-17)
(0.0296951 -0.0356037 1.16225e-17)
(0.00175749 -0.00192309 3.78155e-18)
(0.00166436 -0.00193109 1.74951e-18)
(0.00168998 -0.0018706 -2.77235e-19)
(0.00435152 0.00265614 1.3102e-18)
(0.00445005 0.00276517 -3.00583e-18)
(0.00454431 0.00253598 -1.75487e-18)
(0.0709175 0.0460717 2.21178e-17)
(-0.0156216 0.0377593 2.44557e-17)
(0.00247059 0.0281211 -5.62887e-19)
(0.00218965 0.0273109 -8.14461e-19)
(0.0020455 0.0281301 -3.99889e-17)
(-0.0695254 0.0600596 1.15382e-17)
(-0.0734292 0.0567003 6.51014e-17)
(-0.0748227 0.0637212 -2.31866e-17)
(-0.0335121 -0.00945041 -6.49351e-18)
(-0.0347086 -0.011296 -1.10237e-17)
(-0.0324337 -0.0115092 -1.96651e-17)
(0.113763 0.0384343 4.31909e-18)
(0.137424 0.0352749 1.03456e-17)
(0.120212 0.025929 5.07743e-18)
(0.00392009 0.0226503 -8.23073e-18)
(0.00364799 0.0218708 1.85475e-17)
(0.00442333 0.0221418 -3.05369e-17)
(0.000871857 -0.000270516 9.40752e-19)
(0.000851584 -0.00034043 3.63056e-19)
(0.00088698 -0.000316387 -4.13777e-20)
(0.000237362 0.0116174 1.79821e-17)
(0.000620208 0.0112885 -3.17517e-18)
(0.000116536 0.0111588 -1.94804e-18)
(0.00659764 0.0212335 -2.71909e-17)
(0.00658584 0.0200561 -4.54192e-17)
(-1.79701e-05 -0.00361717 6.17671e-18)
(-0.000148142 -0.00361694 1.06513e-17)
(-9.99501e-05 -0.00340177 -7.78671e-18)
(0.0010732 -0.00107922 4.84212e-19)
(0.00103374 -0.00106529 2.04163e-18)
(0.00104552 -0.00113293 1.20297e-18)
(0.0905008 -0.0662568 -2.36081e-18)
(0.0898454 -0.0691511 1.00048e-18)
(0.0877249 -0.0692697 1.94076e-17)
(0.0161665 0.0332098 -3.1488e-19)
(0.0148924 0.0339648 2.16294e-19)
(0.0168001 0.0348199 1.87752e-18)
(-0.0443752 -0.00454689 6.13952e-18)
(-0.0430836 -0.00760163 5.44311e-18)
(0.00389976 -0.00177883 -3.22062e-18)
(0.00406542 -0.00177802 -4.50202e-19)
(0.0182327 -0.0167995 -4.8976e-18)
(0.0185545 -0.0156664 -1.0602e-17)
(0.0196244 -0.0166377 -6.74685e-18)
(0.0673725 -0.0355537 -5.78549e-18)
(0.0378358 -0.0333177 -2.63675e-17)
(0.0498069 -0.0396779 -4.29714e-18)
(-0.266679 0.0468189 -8.31895e-18)
(-0.262753 0.0459421 5.3381e-19)
(0.0527848 0.0451756 -6.90549e-18)
(0.0560804 0.0422267 2.61087e-18)
(0.0577321 0.0477672 -7.63492e-19)
(0.0923568 -0.0630051 1.47327e-17)
(0.0981078 -0.0622476 -3.04539e-17)
(0.000672359 0.00511232 5.3124e-18)
(0.000782577 0.00510926 -8.91413e-19)
(0.000663398 0.00518126 -3.70288e-18)
(0.001261 0.03592 5.15656e-17)
(0.0015382 0.0370899 7.41617e-17)
(0.000849472 0.0349862 8.48522e-18)
(0.00117041 0.00204901 -1.62353e-19)
(0.00124046 0.0020371 1.14784e-18)
(0.00119791 0.00211642 -1.10897e-18)
(0.0057655 0.0336219 2.8547e-17)
(0.00491032 0.032761 -1.82457e-17)
(0.00500266 0.0320325 2.40756e-18)
(-0.0151293 0.0307051 -3.6765e-19)
(-0.0210348 0.0319348 -9.20558e-17)
(-0.0134867 0.0364197 1.15086e-17)
(0.00104056 0.00720108 -4.17261e-18)
(0.00125992 0.00741354 1.7637e-17)
(0.00134049 0.00708338 3.50077e-18)
(3.18236e-06 5.09402e-05 -1.31583e-19)
(3.44066e-06 5.45612e-05 7.31114e-19)
(-0.106111 -0.00505718 6.25876e-18)
(-0.101544 0.00150659 -1.75669e-17)
(0.0403423 0.0242617 -4.04352e-18)
(0.0405045 0.0290772 -2.3455e-19)
(0.0458362 0.027567 -3.41296e-17)
(0.00493653 0.0165631 -1.56819e-17)
(0.00565578 0.0162976 -1.77655e-17)
(0.000616985 6.37532e-05 -8.42857e-19)
(0.000635989 8.80465e-05 1.13619e-19)
(0.000645159 5.56341e-05 -7.92596e-19)
(0.00412782 0.00272959 3.5713e-18)
(0.00426151 0.0024858 -1.70637e-18)
(0.00166606 -0.0027093 4.42562e-18)
(0.00171902 -0.00279224 1.26566e-18)
(0.00176323 -0.00271469 -2.60665e-19)
(0.000591132 6.74874e-05 -1.91939e-19)
(0.000545359 3.44972e-05 6.56023e-19)
(-0.000124252 -0.000400451 -1.88898e-19)
(-0.000177809 -0.000380478 2.00659e-18)
(-0.000156521 -0.000350783 -2.54877e-18)
(0.0026214 0.0294376 -1.9463e-17)
(0.014139 0.0532293 -6.03993e-18)
(0.0197403 0.0495316 4.85237e-17)
(0.0151675 0.0478367 1.86826e-17)
(0.00050143 0.00509725 3.30434e-18)
(0.000702615 0.00505414 2.98449e-18)
(0.00133977 -0.00305383 -6.28303e-19)
(0.00138659 -0.00297696 -2.27776e-18)
(4.55039e-06 6.53572e-05 3.89938e-18)
(1.75853e-06 4.47629e-05 3.23502e-18)
(-0.0207667 -0.0851743 -3.44684e-18)
(-0.0214481 -0.0831143 -2.73056e-17)
(-0.024394 -0.0863453 1.55216e-17)
(0.0266992 0.0978587 2.24594e-17)
(0.0289562 0.0942593 1.63367e-17)
(0.0181468 -0.0126458 4.26916e-18)
(0.0172169 -0.0118784 -2.71615e-18)
(0.00422391 0.0234106 -7.37745e-18)
(0.00373706 0.0230779 3.18871e-17)
(-1.18202e-05 0.00351869 -8.38056e-18)
(-3.29251e-05 0.00363713 -1.1007e-17)
(0.000749782 0.00732014 8.7174e-18)
(0.00080365 0.00704381 -4.4687e-18)
(-0.0458331 0.155767 4.46368e-18)
(-0.0497489 0.159471 -9.04279e-18)
(-0.0512923 0.159801 1.88016e-17)
(0.000686733 -0.00162374 4.87129e-19)
(0.000742316 -0.0016438 -1.25422e-19)
(0.000720847 -0.0015814 -2.29143e-20)
(0.00175785 0.00446177 1.13231e-18)
(0.00183404 0.00448867 7.96662e-18)
(0.00163199 0.00456203 -2.59585e-18)
(0.00660308 0.0223976 4.46337e-17)
(0.00657495 0.0228448 -2.94876e-17)
(0.00695194 0.0227298 1.3666e-17)
(-1.12323e-05 0.00392741 5.06554e-18)
(-6.02461e-05 0.00395818 4.12817e-18)
(0.0782562 -0.0447807 8.69487e-18)
(0.0838183 -0.0461078 4.74195e-18)
(0.0783613 -0.0498638 -5.92839e-18)
(0.0145891 0.0386992 1.65505e-19)
(0.0149948 0.0374578 -1.10894e-18)
(0.013668 0.0366528 -2.56818e-18)
(0.000976094 0.00466813 4.47436e-18)
(0.000811266 0.00471502 2.16094e-18)
(0.0005425 -0.00145545 -1.99129e-18)
(0.000597445 -0.00147916 1.54812e-18)
(0.000577468 -0.00141447 3.85106e-19)
(0.0103971 -0.00648385 -7.07557e-18)
(0.0103949 -0.00597774 -4.56537e-18)
(0.0110027 -0.00627258 -1.54995e-18)
(-0.0223362 0.0202474 -3.77896e-19)
(-0.0246407 0.0217413 -2.19722e-17)
(-0.0237457 0.0184539 1.22322e-17)
(0.000285231 0.0363663 -1.43503e-17)
(0.00146155 0.0371358 -7.71425e-17)
(-0.00982116 0.0659797 -1.24382e-17)
(-0.0149378 0.0683637 4.89812e-18)
(-0.00915217 0.0708591 1.99381e-18)
(0.0200822 0.00255742 1.29862e-17)
(0.0195323 0.00190647 4.00004e-18)
(0.020604 0.0015135 1.54897e-17)
(0.00415306 -0.00967602 -1.19305e-17)
(0.00458769 -0.00945381 -3.81928e-18)
(0.00414007 -0.00912567 -5.22962e-18)
(-0.124827 -0.00120138 3.66285e-17)
(-0.105426 -0.00625057 -1.45743e-17)
(-0.0752917 -0.00156587 -1.15027e-16)
(0.0166003 -0.00482243 2.41982e-18)
(0.0160039 -0.00574747 1.7722e-18)
(0.0209111 0.0771046 -8.62413e-18)
(0.0181497 0.0739581 -8.11157e-18)
(0.0144306 0.0804547 -4.25155e-18)
(0.210611 -0.0124589 -4.15537e-17)
(0.207838 -0.018867 -2.4703e-17)
(-0.0248313 -0.0872853 1.34301e-18)
(-0.0170016 -0.0860158 -7.56657e-18)
(0.00336973 0.00501601 4.68516e-18)
(0.00352356 0.00523151 6.05698e-18)
(0.00323653 0.00524736 2.8587e-18)
(-0.000399002 0.0146888 1.11626e-17)
(0.00012538 0.0146789 -3.98645e-17)
(-8.65863e-05 0.0153855 -4.38518e-17)
(2.00924e-05 0.000185201 2.51143e-19)
(1.96855e-05 0.0001726 2.72238e-18)
(1.5328e-05 0.000118728 3.17643e-18)
(-0.0649614 0.0655499 -1.66442e-17)
(-0.0634528 0.0577309 -2.4322e-17)
(0.0482647 0.048844 4.11118e-18)
(0.0480074 0.0428775 2.36996e-17)
(0.105963 0.0369747 8.24273e-18)
(0.108831 0.0441368 2.97718e-17)
(5.81171e-05 -0.00379975 2.63341e-19)
(8.77046e-05 -0.00360703 7.55641e-19)
(-0.0316805 0.00568424 1.02392e-18)
(-0.0313576 0.00794864 3.76148e-18)
(-0.0340475 0.00705642 -3.15123e-18)
(0.00112718 -0.00233686 2.15504e-18)
(0.00116425 -0.00240882 -1.11458e-19)
(0.00121549 -0.00234677 2.28131e-18)
(-6.02239e-05 0.0118413 -1.27082e-17)
(0.000437892 0.0119536 1.91245e-17)
(0.0214116 -0.000885141 -2.00156e-18)
(0.0207462 -6.44964e-05 7.16097e-18)
(0.0204788 -0.00116444 1.15557e-17)
(-0.0931434 -0.015076 -3.95973e-17)
(-0.0995413 -0.00837565 2.21689e-17)
(-0.0820372 -0.0137926 -2.05469e-17)
(0.0681834 0.0337103 6.32444e-18)
(0.07227 0.0372381 6.7746e-18)
(0.0660921 0.0392119 -7.18742e-18)
(0.00477131 -0.00139836 -1.04149e-18)
(0.00495608 -0.0013934 1.52689e-19)
(0.00485812 -0.00122279 -1.4083e-19)
(0.070559 -0.00445054 -2.8337e-17)
(0.0714293 -0.0112416 1.97932e-18)
(0.0642927 -0.00856123 5.48966e-18)
(0.0212227 0.0048237 3.64262e-18)
(0.0215524 0.0056373 2.49018e-18)
(0.0222612 0.0047711 1.01629e-17)
(0.00645797 0.0562929 -2.37818e-17)
(0.0108711 0.0594778 -1.88639e-18)
(0.00727827 0.0344201 1.71392e-17)
(0.00649171 0.0330232 3.49255e-17)
(0.0773455 -0.0396128 8.71701e-18)
(0.0742568 -0.0434928 -5.55559e-18)
(0.00230513 -0.000478493 6.00405e-19)
(0.00233949 -0.000626955 4.02126e-19)
(0.00237491 -0.000455431 9.36079e-19)
(0.028134 -0.0404854 -2.53741e-17)
(0.0257824 -0.0397229 -7.73908e-18)
(0.0159955 -0.0192122 9.77088e-18)
(0.0144826 -0.0191664 3.07896e-18)
(0.000648333 -0.00166662 2.98574e-19)
(0.000631884 -0.00160243 -1.41178e-18)
(0.000116255 0.000743377 6.91859e-19)
(0.000142647 0.000850375 1.48815e-18)
(0.00912176 0.00671631 8.68573e-18)
(0.00867843 0.00690107 1.0147e-17)
(0.00875391 0.00637438 -1.55084e-19)
(-0.0883205 0.117449 1.15925e-17)
(-0.0807424 0.115758 -4.0239e-17)
(0.0495247 -0.0728281 -2.55845e-17)
(0.0496094 -0.0773069 3.7813e-17)
(0.0540794 -0.0755867 -3.47739e-17)
(-0.147293 -0.000126288 3.59727e-17)
(-0.203914 -0.00870943 9.79158e-17)
(-0.00499788 -0.0154394 9.20773e-18)
(-0.00417692 -0.0158123 2.94388e-19)
(-0.00499701 -0.0163318 6.14464e-18)
(0.0772163 0.0850116 9.88532e-18)
(0.080864 0.0816209 2.89383e-17)
(0.0886244 0.0891143 4.77637e-18)
(-0.0221535 0.124298 -1.83416e-17)
(-0.0198152 0.125023 1.21178e-17)
(-0.0166803 0.120075 1.50969e-17)
(-0.176039 0.0408514 -1.52133e-17)
(-0.177926 0.0469769 1.99432e-16)
(0.0696218 -0.0519398 9.04413e-17)
(0.0668605 -0.0551939 7.40937e-18)
(0.0714066 -0.0567177 5.65836e-17)
(0.000488025 0.00227072 -1.22074e-18)
(0.000427901 0.00213763 -3.79291e-19)
(0.000425348 0.00219469 -8.02845e-19)
(0.00226562 0.0229189 2.89751e-17)
(0.00292323 0.0229818 -8.66887e-18)
(0.00255036 0.0237635 2.93893e-17)
(0.00195652 0.0139759 9.61073e-18)
(0.0025595 0.014108 -1.49769e-18)
(0.000605383 -2.08335e-05 -1.07068e-18)
(0.000624144 -1.98623e-05 -4.50467e-19)
(0.00184159 -0.00191345 4.01004e-19)
(0.00181289 -0.00198984 5.63659e-19)
(0.0192586 0.0316541 2.32515e-18)
(0.0189658 0.0299783 2.12493e-18)
(0.0207926 0.0305728 2.19996e-18)
(0.0817342 0.0587882 -1.92552e-17)
(0.088915 0.0532241 -4.21579e-17)
(0.016968 0.0385526 4.08827e-18)
(-0.000588359 0.000957641 2.03475e-18)
(-0.000601758 0.00127063 -1.56639e-18)
(-0.000911914 0.00100517 6.75261e-19)
(0.000417481 0.000122332 -8.4494e-20)
(0.0004194 7.64885e-05 -1.24916e-19)
(-0.026836 0.0121528 -9.06415e-18)
(-0.024884 0.0105292 -1.01086e-17)
(-0.0277968 0.0093875 2.33262e-17)
(-0.0208522 0.0223279 1.66797e-17)
(-0.0201269 0.0190777 -1.46199e-18)
(0.165976 -0.0225204 -3.12243e-17)
(0.162882 -0.0244452 4.05342e-18)
(-0.0841975 -0.0943196 5.86191e-19)
(-0.090427 -0.0942647 -1.257e-18)
(-0.0638329 -0.0828241 -1.29861e-17)
(0.000949153 0.00340577 -5.92932e-19)
(0.000924586 0.00346996 1.76778e-19)
(0.00265856 0.00226704 -2.47748e-18)
(0.00273568 0.00206345 -3.27803e-18)
(-0.0321901 -0.00759251 -1.59014e-17)
(-0.0344177 -0.00695775 6.94298e-18)
(-0.0395828 0.108014 1.16984e-17)
(-0.0427703 0.113651 2.28409e-17)
(-0.0360762 0.111023 9.61709e-18)
(0.00169777 0.00442729 -4.2127e-18)
(0.00189602 0.00437343 -5.8441e-18)
(-0.0114786 0.094003 6.20185e-18)
(-0.0052154 0.0920293 -3.55214e-17)
(-0.0114276 0.098276 7.16588e-18)
(0.168645 -0.0211564 4.1442e-18)
(0.16625 -0.0221564 1.63967e-17)
(0.170771 -0.0170105 8.80107e-18)
(0.0697957 0.0829317 2.81538e-17)
(0.0713486 0.0916958 -4.4386e-18)
(0.00108387 -0.00100898 -1.53691e-18)
(0.00112199 -0.00107122 -7.56579e-19)
(0.007754 0.0286856 2.40156e-17)
(0.00814765 0.0296594 -2.1378e-17)
(0.00737328 0.0302264 -4.49054e-17)
(-0.0278178 -0.00308967 1.35773e-17)
(-0.0293928 -0.00439507 8.75305e-18)
(-0.0272794 -0.00509522 -1.43107e-17)
(-0.0121636 -0.0667848 5.22596e-18)
(-0.00316615 -0.0849981 -2.58993e-18)
(0.00940297 -0.0720678 -2.87097e-17)
(0.00164495 0.00179782 1.17785e-18)
(0.00168417 0.00173578 4.29336e-19)
(0.00169584 0.00181028 5.54109e-19)
(0.156169 -0.122186 -1.40402e-17)
(0.149363 -0.118559 -3.47784e-17)
(0.00225857 -0.000278555 -1.35419e-18)
(0.00222628 -0.000459896 -1.52732e-18)
(0.00181301 -0.0492315 8.52356e-18)
(0.000441821 -0.0473502 -5.46287e-19)
(0.00281111 -0.0471069 2.53813e-17)
(0.000820603 3.75469e-05 2.05438e-18)
(0.000825767 3.73486e-05 1.03929e-18)
(0.162574 0.0184965 -2.01787e-17)
(0.164595 0.0156048 6.3266e-18)
(0.159898 0.0185684 -2.8277e-17)
(0.0891087 -0.0711453 9.91486e-19)
(0.0889571 -0.0723737 -1.83834e-17)
(0.089359 -0.0725587 -2.49752e-17)
(0.00864599 0.000996624 -1.03293e-19)
(0.0085471 0.000543565 -2.79185e-19)
(0.0533112 0.0443993 1.36762e-17)
(0.0768101 0.057593 2.58708e-17)
(0.0562645 0.0421628 -1.52553e-18)
(0.00415202 -0.0102512 1.12135e-18)
(0.00364571 -0.00991303 -1.07988e-17)
(0.00111995 -0.000922582 -3.63527e-19)
(0.00107586 -0.000916268 -4.64328e-18)
(-0.0573125 0.163324 -1.98982e-17)
(-0.0559764 0.161297 -5.30596e-17)
(0.0694482 0.0283106 3.47808e-18)
(0.0644704 0.0305745 1.8241e-18)
(-0.00502051 -0.0145176 2.26209e-18)
(-0.00579568 -0.0150246 4.05903e-18)
(0.017354 0.0998231 -9.76386e-18)
(0.0173704 0.098281 -2.66301e-17)
(0.0113239 0.103642 2.63567e-17)
(0.164318 -0.0196399 2.67866e-17)
(0.16372 -0.0170603 -3.16529e-18)
(0.000658686 -0.000282239 -1.08895e-18)
(0.000621662 -0.000311556 3.48791e-19)
(0.000623825 -0.000257994 2.14791e-19)
(0.00915801 -0.00793257 2.69077e-18)
(0.00976142 -0.00772999 8.9067e-18)
(0.175713 -0.0206438 -1.25173e-17)
(0.176089 -0.0190491 4.7221e-19)
(-0.110093 0.0470631 2.24488e-17)
(-0.0999078 0.044053 2.8625e-17)
(-0.102024 0.0469721 -2.71044e-18)
(2.02857e-05 0.000188665 -9.18788e-19)
(2.48319e-05 0.000272277 -2.00513e-18)
(0.000962835 0.000721028 2.25012e-19)
(0.00100225 0.000693289 -3.27323e-19)
(0.00100551 0.000744531 -2.50485e-20)
(-0.340328 0.0357366 -8.43635e-18)
(-0.340137 0.0426138 3.4944e-19)
(-0.0880804 0.0481937 -3.97879e-18)
(-0.084809 0.0538321 -2.60163e-17)
(-0.0931224 0.0544555 -1.85817e-17)
(3.92053e-08 -4.03755e-07 5.10731e-20)
(1.18167e-07 -3.39112e-08 1.792e-20)
(1.93934e-07 -4.45105e-07 -5.45189e-20)
(-0.0711772 0.176271 3.13433e-17)
(-0.0747505 0.179195 -8.79959e-18)
(-0.0726761 0.179255 8.54713e-18)
(-0.0310908 -0.0405869 3.49685e-19)
(-0.0333532 -0.0393911 3.37539e-18)
(-0.0310743 -0.0377257 1.69801e-17)
(-0.000593116 0.0142251 3.17425e-17)
(-0.000981596 0.014731 2.98302e-17)
(0.0132944 -0.0127885 5.90846e-18)
(0.0139963 -0.0133316 -3.61736e-18)
(0.012954 -0.0135901 1.38917e-17)
(3.27275e-05 0.000248578 -2.89251e-19)
(1.75009e-05 0.000153366 7.14347e-19)
(0.0194008 0.00871063 8.92443e-19)
(0.0186581 0.00778255 1.45767e-18)
(0.0182988 0.00888664 9.76595e-19)
(0.186972 -0.0181122 -4.52963e-18)
(0.187473 -0.0180602 -3.6428e-17)
(0.183435 -0.0168786 -4.13147e-18)
(-0.000136929 -0.00128243 -1.80195e-18)
(-0.000149865 -0.00124073 1.11369e-18)
(-0.000119599 -0.00130105 -4.48756e-19)
(0.0376058 -0.043954 -1.0021e-17)
(0.0374052 -0.0410807 1.66462e-17)
(0.0349358 -0.0432716 2.95023e-17)
(0.00470702 0.0239167 1.07276e-17)
(0.00538927 0.023994 1.01507e-17)
(0.00504114 0.0246635 1.56668e-17)
(0.00161175 -0.00262979 2.87382e-18)
(0.0015677 -0.00269645 1.86765e-18)
(0.00242621 0.00239936 -7.20376e-19)
(0.00245009 0.00247295 -4.9389e-18)
(-0.00242717 0.046819 -1.98659e-17)
(-0.00477291 0.0499177 5.65697e-18)
(-0.000332262 0.0500985 -1.29539e-17)
(-0.311322 0.0557735 6.94943e-18)
(-0.319625 0.0504593 7.89191e-18)
(-0.310725 0.0513249 -1.3473e-17)
(-0.00496736 0.064211 -4.46712e-18)
(-0.0107419 0.0614813 1.59582e-17)
(0.00955269 0.00659658 1.99885e-18)
(0.00939996 0.00720426 5.62288e-19)
(0.0083227 0.00261297 6.00344e-18)
(0.00859331 0.00296683 9.99772e-19)
(3.71295e-07 -1.33642e-07 3.80403e-20)
(2.17989e-07 -2.76951e-07 2.89392e-20)
(1.1052e-07 4.97628e-07 -5.01824e-21)
(0.0406393 0.0202605 -1.6265e-17)
(0.0354503 0.0214294 5.24622e-18)
(0.236416 -0.00281405 -2.54293e-17)
(0.207774 -0.00918367 -1.51484e-18)
(0.195852 -0.0180847 3.08635e-17)
(-0.0947909 0.187916 -3.97288e-18)
(-0.0934451 0.186133 -3.17317e-18)
(-0.0985358 0.186496 3.81202e-17)
(0.00115619 -0.000838738 1.25873e-18)
(0.0011641 -0.000944585 1.65579e-19)
(0.111253 -0.0302485 8.77392e-18)
(0.105712 -0.0344239 5.51658e-18)
(0.103809 -0.031947 4.10287e-18)
(0.162214 0.0070329 1.98993e-17)
(0.158973 0.008318 6.30979e-18)
(0.166121 0.00507331 -3.87351e-17)
(0.0277488 0.0746993 -1.26765e-18)
(0.0233204 0.0804075 -7.34462e-18)
(-0.16119 0.117179 7.10088e-18)
(-0.159801 0.113442 1.23412e-17)
(0.0637585 0.00918009 1.16562e-17)
(0.0642812 0.00389469 -6.14796e-18)
(4.50425e-05 0.000350055 -1.21995e-18)
(0.000728601 5.62352e-05 -5.51192e-20)
(0.000705058 6.45727e-05 8.74894e-19)
(0.000730195 8.32877e-05 1.12231e-18)
(-0.0213038 -0.0166915 -4.40322e-18)
(-0.0206196 -0.0152724 4.24379e-17)
(-0.022399 -0.015326 1.62743e-17)
(0.180191 0.00509081 -1.57478e-17)
(0.182514 0.00509387 5.32395e-18)
(0.183952 0.0036561 -1.04213e-17)
(-0.0656796 -0.0209217 9.56451e-19)
(-0.0637904 -0.0242537 -1.50659e-17)
(-0.0683651 -0.0238348 1.66116e-17)
(0.00155333 -0.00671379 -8.24651e-18)
(0.00123389 -0.00682041 3.82135e-19)
(-0.0799749 -0.0942734 2.2092e-17)
(-0.0936902 -0.102078 3.80223e-17)
(0.0209412 0.00451781 -5.80162e-18)
(0.0198738 0.0036206 -9.61862e-18)
(-0.000221102 -0.00026167 5.08343e-18)
(-0.000185998 -0.000304184 4.07769e-19)
(-0.000235273 -0.00028946 -4.54837e-19)
(-0.0111375 -0.123806 2.18539e-17)
(-0.0162499 -0.122249 2.76239e-18)
(-0.035142 -0.1304 3.5522e-17)
(0.000350695 0.000898065 7.3206e-20)
(0.000340308 0.000851821 -9.27851e-20)
(0.000301319 0.000840178 3.54369e-20)
(0.0707716 0.00184418 1.0659e-18)
(0.0787008 -0.00103837 -2.40137e-17)
(-0.00059128 0.000587363 1.06204e-18)
(-0.000282555 0.000821587 -2.80641e-18)
(-9.9351e-08 -3.63921e-07 4.02908e-20)
(4.06146e-08 2.09347e-07 6.87152e-20)
(0.0103434 0.000782734 -2.56902e-19)
(0.0107427 0.00105418 8.77012e-19)
(0.0102079 0.00114386 -2.93894e-19)
(0.0205919 0.00307322 -5.6125e-18)
(0.0196763 0.00316677 -3.08493e-18)
(0.000475696 0.0149973 -1.35772e-17)
(0.000458105 0.0143567 -1.86664e-17)
(-0.069427 0.17335 -5.10672e-18)
(-0.067964 0.173305 3.5797e-17)
(0.0139759 0.00256426 -1.07856e-18)
(0.0145762 0.0027897 -3.84294e-19)
(0.0139303 0.00314422 4.82062e-19)
(9.71989e-05 -0.00196506 -5.79002e-18)
(0.000128264 -0.00207162 -5.67862e-18)
(0.000128883 -0.00203303 -3.00699e-18)
(-0.030045 -0.0852703 1.32428e-17)
(-0.0273605 -0.0865731 -2.29704e-17)
(-0.0323151 -0.088167 -1.87912e-17)
(0.0170896 0.101115 -1.07289e-17)
(0.0230154 0.0960928 -2.36997e-18)
(0.248253 0.000117067 -9.16667e-18)
(0.247275 -0.00318193 -6.75556e-18)
(0.00161436 0.00186827 -5.30911e-20)
(0.00157557 0.00179138 2.78456e-19)
(0.0361423 0.0523785 -7.2729e-18)
(0.0318242 0.0497357 -9.12979e-19)
(0.0391284 0.0453922 -6.25662e-18)
(1.00878e-05 0.0014271 -1.27582e-18)
(8.70334e-07 0.00149316 -1.89617e-18)
(-2.51817e-05 0.00169439 -5.6783e-19)
(7.33589e-05 -0.00186099 1.16183e-18)
(7.96382e-05 -0.00188305 4.58133e-19)
(0.00109292 0.00207625 -1.93743e-18)
(0.00113085 0.00199377 -3.66915e-19)
(0.0153532 0.0410434 -2.49331e-17)
(0.0135557 0.0397897 3.38047e-18)
(0.000177542 0.000155623 1.04912e-19)
(0.000198998 0.000135553 -1.80579e-19)
(0.000153972 0.000118759 -4.80597e-20)
(0.00304181 -0.0510255 8.13766e-18)
(0.00064514 -0.0511959 -3.31487e-17)
(0.0135823 -0.011871 -2.69171e-17)
(0.0126036 -0.0122234 -1.47408e-17)
(0.00108884 -0.0022525 -1.93958e-18)
(0.00103733 -0.0023117 2.797e-18)
(-0.0286546 0.0132304 -3.37834e-18)
(-0.0260388 0.0139837 -9.37539e-18)
(0.00478144 -0.0037394 9.54552e-19)
(0.00452477 -0.00378594 -4.22952e-18)
(0.00473426 -0.00400731 -4.16513e-18)
(0.00769383 0.036492 1.2417e-17)
(0.00530168 0.0372698 -2.1319e-17)
(0.0116564 0.0349478 -1.44748e-17)
(0.0208954 0.00390973 -1.26981e-18)
(0.0202725 0.00466793 -1.65579e-19)
(0.0248209 -0.0349437 3.30129e-18)
(0.0264936 -0.0330089 -1.0644e-17)
(0.000631323 -0.00197079 1.16197e-18)
(0.000655012 -0.00203113 2.56611e-18)
(0.000582824 -0.00199726 1.36264e-18)
(0.00239422 0.00233248 1.3345e-18)
(0.00232629 0.00248661 3.1238e-18)
(0.0468654 -0.0274321 -2.06231e-18)
(0.025544 -0.0252814 9.53278e-18)
(0.0194305 -0.0244463 3.06594e-17)
(0.0665713 0.0212145 2.87343e-17)
(0.0716082 0.0203761 -2.85899e-18)
(0.0716143 0.0256652 1.36461e-17)
(0.00130186 0.00203951 -4.93457e-19)
(0.00128184 0.00197285 9.51311e-19)
(0.000775849 4.0412e-05 -5.23955e-19)
(0.000800795 4.97582e-05 4.71908e-21)
(0.000772071 7.21852e-05 -2.04226e-19)
(-0.00796694 -0.127137 -1.80826e-17)