/*--------------------------------*- C++ -*----------------------------------*\
| =========                 |                                                 |
| \\      /  F ield         | OpenFOAM: The Open Source CFD Toolbox           |
|  \\    /   O peration     | Version:  v2012                                 |
|   \\  /    A nd           | Website:  www.openfoam.com                      |
|    \\/     M anipulation  |                                                 |
\*---------------------------------------------------------------------------*/
FoamFile
{
    version     2.0;
    format      ascii;
    class       pointVectorField;
    location    "850";
    object      pointDisplacement;
}
// * * * * * * * * * * * * * * * * * * * * * * * * * * * * * * * * * * * * * //

dimensions      [0 1 0 0 0 0 0];


internalField   nonuniform List<vector> 
14332
(
(0 0 0)
(0.0157783 -0.148539 0)
(0 0 0)
(0.0157783 -0.148539 0)
(0 0 0)
(0 0 0)
(0 0 0)
(0 0 0)
(0 0 0)
(0 0 0)
(0 0 0)
(0 0 0)
(0 0 0)
(0 0 0)
(0 0 0)
(0 0 0)
(0 0 0)
(0 0 0)
(0 0 0)
(0 0 0)
(0 0 0)
(0 0 0)
(0 0 0)
(0 0 0)
(0 0 0)
(0 0 0)
(0 0 0)
(0 0 0)
(0 0 0)
(0 0 0)
(0 0 0)
(0 0 0)
(0 0 0)
(0 0 0)
(0 0 0)
(0 0 0)
(0 0 0)
(0 0 0)
(0 0 0)
(0 0 0)
(0 0 0)
(0 0 0)
(0 0 0)
(0 0 0)
(0 0 0)
(0 0 0)
(0 0 0)
(0 0 0)
(0 0 0)
(0 0 0)
(0 0 0)
(0 0 0)
(0 0 0)
(0 0 0)
(0 0 0)
(0 0 0)
(0 0 0)
(0 0 0)
(0 0 0)
(0 0 0)
(0 0 0)
(0 0 0)
(0 0 0)
(0 0 0)
(0 0 0)
(0 0 0)
(0 0 0)
(0 0 0)
(0 0 0)
(0 0 0)
(0 0 0)
(0 0 0)
(0 0 0)
(0 0 0)
(0 0 0)
(0 0 0)
(0 0 0)
(0 0 0)
(0 0 0)
(0 0 0)
(0 0 0)
(0 0 0)
(0 0 0)
(0 0 0)
(0 0 0)
(0 0 0)
(0 0 0)
(0 0 0)
(0 0 0)
(0 0 0)
(0 0 0)
(0 0 0)
(0 0 0)
(0 0 0)
(0 0 0)
(0 0 0)
(0 0 0)
(0 0 0)
(0 0 0)
(0 0 0)
(0 0 0)
(0 0 0)
(0 0 0)
(0 0 0)
(0 0 0)
(0 0 0)
(0 0 0)
(0 0 0)
(0 0 0)
(0 0 0)
(0 0 0)
(0 0 0)
(0 0 0)
(0 0 0)
(0 0 0)
(0 0 0)
(0 0 0)
(0 0 0)
(0 0 0)
(0 0 0)
(0 0 0)
(0 0 0)
(0 0 0)
(0 0 0)
(0 0 0)
(0 0 0)
(0 0 0)
(0 0 0)
(0 0 0)
(0 0 0)
(0 0 0)
(0 0 0)
(0 0 0)
(0 0 0)
(-0.0175658 -0.147921 0)
(-0.0157133 -0.147956 0)
(-0.0138609 -0.14799 0)
(-0.0120084 -0.148024 0)
(-0.010156 -0.148059 0)
(-0.00830355 -0.148093 0)
(-0.0064511 -0.148127 0)
(-0.00459865 -0.148162 0)
(-0.0027462 -0.148196 0)
(-0.000893749 -0.14823 0)
(0.000958701 -0.148265 0)
(0.00281115 -0.148299 0)
(0.0046636 -0.148333 0)
(0.00651605 -0.148368 0)
(0.0083685 -0.148402 0)
(0.0102209 -0.148436 0)
(0.0120734 -0.148471 0)
(0.0139258 -0.148505 0)
(0.0158126 -0.146687 0)
(0.015847 -0.144834 0)
(0.0158813 -0.142982 0)
(0.0159156 -0.141129 0)
(0.0159499 -0.139277 0)
(0.0159843 -0.137425 0)
(0.0160186 -0.135572 0)
(0.0160529 -0.13372 0)
(0.0160872 -0.131867 0)
(0.0161216 -0.130015 0)
(0.0161559 -0.128162 0)
(0.0161902 -0.12631 0)
(0.0162246 -0.124457 0)
(0.0162589 -0.122605 0)
(0.0162932 -0.120752 0)
(0.0163275 -0.1189 0)
(0.0163619 -0.117048 0)
(0.0163962 -0.115195 0)
(0.0164305 -0.113343 0)
(0.0164648 -0.11149 0)
(0.0164992 -0.109638 0)
(0.0165335 -0.107785 0)
(0.0165678 -0.105933 0)
(0.0166022 -0.10408 0)
(0.0166365 -0.102228 0)
(0.0166708 -0.100376 0)
(0.0167051 -0.0985231 0)
(0 0 0)
(0 0 0)
(0 0 0)
(0 0 0)
(0 0 0)
(0 0 0)
(0 0 0)
(0 0 0)
(0 0 0)
(0 0 0)
(0 0 0)
(0 0 0)
(0 0 0)
(0 0 0)
(0 0 0)
(0 0 0)
(0 0 0)
(0 0 0)
(0 0 0)
(0 0 0)
(0 0 0)
(0 0 0)
(0 0 0)
(0 0 0)
(0 0 0)
(0 0 0)
(0 0 0)
(0 0 0)
(0 0 0)
(0 0 0)
(0 0 0)
(0 0 0)
(0 0 0)
(0 0 0)
(0 0 0)
(0 0 0)
(0 0 0)
(0 0 0)
(0 0 0)
(0 0 0)
(0 0 0)
(0 0 0)
(0 0 0)
(0 0 0)
(0 0 0)
(0 0 0)
(0 0 0)
(0 0 0)
(0 0 0)
(0 0 0)
(0 0 0)
(0 0 0)
(0 0 0)
(0 0 0)
(0 0 0)
(0 0 0)
(0 0 0)
(0 0 0)
(0 0 0)
(0 0 0)
(0 0 0)
(0 0 0)
(0 0 0)
(0 0 0)
(0 0 0)
(0 0 0)
(0 0 0)
(0 0 0)
(0 0 0)
(0 0 0)
(0 0 0)
(0 0 0)
(0 0 0)
(0 0 0)
(0 0 0)
(0 0 0)
(0 0 0)
(0 0 0)
(0 0 0)
(0 0 0)
(0 0 0)
(0 0 0)
(0 0 0)
(0 0 0)
(0 0 0)
(0 0 0)
(0 0 0)
(0 0 0)
(0 0 0)
(0 0 0)
(0 0 0)
(0 0 0)
(0 0 0)
(0 0 0)
(0 0 0)
(0 0 0)
(0 0 0)
(0 0 0)
(0 0 0)
(0 0 0)
(0 0 0)
(0 0 0)
(0 0 0)
(0 0 0)
(0 0 0)
(0 0 0)
(0 0 0)
(0 0 0)
(0 0 0)
(0 0 0)
(0 0 0)
(0 0 0)
(0 0 0)
(0 0 0)
(0 0 0)
(0 0 0)
(0 0 0)
(0 0 0)
(0 0 0)
(0 0 0)
(0 0 0)
(0 0 0)
(0 0 0)
(0 0 0)
(0 0 0)
(0 0 0)
(0 0 0)
(0 0 0)
(0 0 0)
(0 0 0)
(-0.0175658 -0.147921 0)
(-0.0157133 -0.147956 0)
(-0.0138609 -0.14799 0)
(-0.0120084 -0.148024 0)
(-0.010156 -0.148059 0)
(-0.00830355 -0.148093 0)
(-0.0064511 -0.148127 0)
(-0.00459865 -0.148162 0)
(-0.0027462 -0.148196 0)
(-0.000893749 -0.14823 0)
(0.000958701 -0.148265 0)
(0.00281115 -0.148299 0)
(0.0046636 -0.148333 0)
(0.00651605 -0.148368 0)
(0.0083685 -0.148402 0)
(0.0102209 -0.148436 0)
(0.0120734 -0.148471 0)
(0.0139258 -0.148505 0)
(0.0158126 -0.146687 0)
(0.015847 -0.144834 0)
(0.0158813 -0.142982 0)
(0.0159156 -0.141129 0)
(0.0159499 -0.139277 0)
(0.0159843 -0.137425 0)
(0.0160186 -0.135572 0)
(0.0160529 -0.13372 0)
(0.0160872 -0.131867 0)
(0.0161216 -0.130015 0)
(0.0161559 -0.128162 0)
(0.0161902 -0.12631 0)
(0.0162246 -0.124457 0)
(0.0162589 -0.122605 0)
(0.0162932 -0.120752 0)
(0.0163275 -0.1189 0)
(0.0163619 -0.117048 0)
(0.0163962 -0.115195 0)
(0.0164305 -0.113343 0)
(0.0164648 -0.11149 0)
(0.0164992 -0.109638 0)
(0.0165335 -0.107785 0)
(0.0165678 -0.105933 0)
(0.0166022 -0.10408 0)
(0.0166365 -0.102228 0)
(0.0166708 -0.100376 0)
(0.0167051 -0.0985231 0)
(-0.00169067 -0.148216 0)
(0.000108384 -0.0037141 0)
(0.0160696 -0.132796 0)
(0.0166863 -0.0995293 0)
(0.0163757 -0.116343 0)
(0.00018797 -0.00409082 0)
(-0.0163233 -0.147926 0)
(4.83234e-05 -0.00307587 0)
(2.92784e-06 -0.00193823 0)
(-1.24879e-05 -0.000834853 0)
(0.000391256 -0.00563463 0)
(-4.50588e-06 -0.00137807 0)
(1.66912e-05 -0.00225024 0)
(0.011051 -0.148442 0)
(0.000476804 -0.00468508 0)
(-1.22022e-05 -0.000921823 0)
(0.000655415 -0.0040782 0)
(-5.65325e-06 -0.000924742 0)
(0.000869248 -0.00274632 0)
(0.0158561 -0.143833 0)
(-9.63814e-06 -0.000808297 0)
(-6.68375e-06 -0.000860602 0)
(-5.99967e-06 -0.000542767 0)
(-4.64282e-06 -0.000531226 0)
(-4.4772e-06 -0.000431583 0)
(7.57259e-05 -0.00346714 0)
(-1.54932e-06 -0.00147847 0)
(-0.00901452 -0.148082 0)
(0.0162087 -0.125334 0)
(0.0165166 -0.108704 0)
(-3.3799e-06 -0.00036405 0)
(-2.44637e-06 -0.000245044 0)
(0.000412492 -0.00494968 0)
(0.000338739 -0.00580495 0)
(0.000547916 -0.00438611 0)
(0.000819402 -0.00387651 0)
(0.000157416 -0.00415376 0)
(3.67839e-05 -0.00309129 0)
(9.42007e-06 -0.00199855 0)
(-7.26213e-06 -0.00103046 0)
(-6.76503e-06 -0.00135183 0)
(-1.16458e-05 -0.000821299 0)
(-8.68665e-06 -0.000691457 0)
(-2.66915e-06 -0.0002793 0)
(0.00371799 -0.148314 0)
(0.0159682 -0.13822 0)
(-1.4283e-06 -0.000147179 0)
(-1.38731e-06 -0.000141246 0)
(0.00102401 -0.00173183 0)
(0.000242239 -0.00469426 0)
(0.000137877 -0.00414194 0)
(9.27139e-05 -0.00365602 0)
(5.69718e-05 -0.00304678 0)
(2.60584e-05 -0.00271138 0)
(-5.09849e-06 -0.00122023 0)
(-3.66293e-06 -0.00164727 0)
(6.2447e-06 -0.00212153 0)
(-4.01308e-06 -0.000443857 0)
(2.12541e-07 -0.00159464 0)
(-1.02282e-05 -0.000745209 0)
(-5.71066e-06 -0.000493249 0)
(-4.66427e-06 -0.000438743 0)
(-3.6478e-06 -0.000358574 0)
(-5.37548e-06 -0.000653698 0)
(-6.93002e-07 -7.09332e-05 0)
(-0.00262019 -0.120484 0)
(-0.00225838 -0.119761 0)
(-0.00217376 -0.120894 0)
(-0.00181635 -0.120102 0)
(-0.00170124 -0.12121 0)
(-0.00136221 -0.120346 0)
(-0.00121578 -0.12142 0)
(-0.000895624 -0.120492 0)
(-0.000722486 -0.121539 0)
(-0.000421048 -0.120534 0)
(-0.000224325 -0.121543 0)
(5.70915e-05 -0.120469 0)
(0.00027347 -0.121438 0)
(0.000540605 -0.120295 0)
(0.000773702 -0.121228 0)
(0.00102715 -0.12002 0)
(0.001281 -0.120894 0)
(0.00150112 -0.119673 0)
(0.00178125 -0.12042 0)
(0.00195693 -0.119168 0)
(0.00226901 -0.119821 0)
(0.00240494 -0.118435 0)
(0.00274058 -0.11909 0)
(0.00285212 -0.117598 0)
(0.00319986 -0.11821 0)
(0.00328577 -0.116695 0)
(0.00363272 -0.117165 0)
(0.00369967 -0.115662 0)
(0.00404815 -0.116091 0)
(0.00410069 -0.114541 0)
(0.00446751 -0.114926 0)
(0.00448718 -0.113321 0)
(0.00486137 -0.113549 0)
(0.00484749 -0.11193 0)
(0.00522083 -0.112017 0)
(0.00449218 -0.111723 0)
(0.00482618 -0.110297 0)
(0.00448439 -0.110101 0)
(-0.000535197 -0.0343951 0)
(-0.000522959 -0.033304 0)
(0.0048046 -0.10864 0)
(0.00446787 -0.108461 0)
(-0.000508799 -0.0335879 0)
(-0.000497458 -0.0325457 0)
(0.00477688 -0.106962 0)
(0.00444365 -0.106795 0)
(-0.000483828 -0.0328217 0)
(-0.000472693 -0.031775 0)
(-0.000459136 -0.0320594 0)
(-0.000449067 -0.031002 0)
(0.00474041 -0.105263 0)
(0.00441337 -0.105105 0)
(-0.000435549 -0.0312417 0)
(-0.000426477 -0.0302154 0)
(0.00469968 -0.103539 0)
(0.00437847 -0.103393 0)
(-0.000413122 -0.0303998 0)
(-0.000404864 -0.0294053 0)
(-0.000417075 -0.0292088 0)
(0.00465155 -0.101789 0)
(0.00433763 -0.10164 0)
(0.00496106 -0.101994 0)
(-0.000391686 -0.0295444 0)
(-0.000384231 -0.0285779 0)
(0.00460116 -0.0999835 0)
(0.00429025 -0.0998507 0)
(-0.000371348 -0.028686 0)
(-0.000376625 -0.0295955 0)
(-0.000364521 -0.0277387 0)
(-1.34227e-05 -0.122541 0)
(0.00525304 -0.113666 0)
(0.00561117 -0.112031 0)
(0.00565407 -0.113692 0)
(0.00599753 -0.11208 0)
(0.00606468 -0.113611 0)
(0.00638661 -0.111932 0)
(0.00648535 -0.113377 0)
(0.00679502 -0.111519 0)
(0.0069084 -0.113009 0)
(0.00720716 -0.111031 0)
(0.00733268 -0.112503 0)
(0.00761545 -0.110403 0)
(0.00775434 -0.111892 0)
(0.00802041 -0.109635 0)
(0.00817436 -0.111104 0)
(0.00842158 -0.108738 0)
(0.00859077 -0.110116 0)
(0.00881636 -0.107707 0)
(0.00900177 -0.108999 0)
(0.00920611 -0.106489 0)
(0.00940481 -0.107691 0)
(0.00959012 -0.105058 0)
(0.00980241 -0.106166 0)
(0.00997194 -0.103393 0)
(0.00975441 -0.102334 0)
(0.0101294 -0.100479 0)
(0.0103485 -0.101536 0)
(0.0104881 -0.0985238 0)
(0.0107099 -0.0994569 0)
(0.0108172 -0.0964258 0)
(0.0110587 -0.0971138 0)
(0.0111412 -0.0940855 0)
(0.0114071 -0.0945036 0)
(0.0114523 -0.0914355 0)
(0.0117394 -0.0915769 0)
(0.0117725 -0.088441 0)
(0.0120453 -0.0884597 0)
(0.0120965 -0.0853768 0)
(0.0123459 -0.0852651 0)
(0.0123876 -0.0820889 0)
(0.0126455 -0.0817269 0)
(0.0126639 -0.0784274 0)
(0.0129282 -0.0777952 0)
(0.0129326 -0.0744284 0)
(0.0131958 -0.0735867 0)
(0.0131897 -0.0702195 0)
(0.0134565 -0.0691622 0)
(0.0134353 -0.0658241 0)
(0.0137042 -0.0645694 0)
(0.0136671 -0.0612829 0)
(0.0139344 -0.0598014 0)
(0.0138836 -0.0566116 0)
(0.0141478 -0.0549276 0)
(0.0140857 -0.0518483 0)
(0.00991214 -0.0994526 0)
(0.011876 -0.0850176 0)
(0.0134039 -0.0624447 0)
(0.00743367 -0.114088 0)
(-0.000351982 -0.0278148 0)
(-0.000345667 -0.0268864 0)
(0.00453698 -0.0981548 0)
(0.00423587 -0.0980369 0)
(0.0139707 -0.063021 0)
(-0.000333368 -0.0269283 0)
(-0.000327505 -0.0260201 0)
(0.00446035 -0.0963136 0)
(0.004175 -0.0961969 0)
(-0.000315505 -0.0260261 0)
(-0.000310017 -0.0251434 0)
(-0.000321123 -0.0251172 0)
(0.00438493 -0.0944396 0)
(0.00410816 -0.094328 0)
(-0.000298422 -0.025109 0)
(-0.000293322 -0.0242584 0)
(0.012606 -0.0855789 0)
(0.00430796 -0.0925527 0)
(0.00403756 -0.0924241 0)
(0.00456958 -0.0925369 0)
(0.00960925 -0.108861 0)
(-0.000282211 -0.0241847 0)
(-0.000286053 -0.0249487 0)
(-0.000277413 -0.0233692 0)
(0.00422628 -0.0906283 0)
(0.00396047 -0.0904985 0)
(-0.00026675 -0.023271 0)
(-0.000262195 -0.0224779 0)
(-0.000251904 -0.0223601 0)
(-0.000247633 -0.0215853 0)
(0.00413869 -0.0886786 0)
(0.00387632 -0.0885586 0)
(-0.000237666 -0.0214557 0)
(-0.000233687 -0.0206931 0)
(-0.000242975 -0.0208014 0)
(0.00404256 -0.086704 0)
(0.00378863 -0.0865725 0)
(-0.000229277 -0.0199347 0)
(-0.000237933 -0.0200359 0)
(-0.000220419 -0.0198011 0)
(0.00394103 -0.0847015 0)
(0.00369901 -0.084575 0)
(0.00354418 -0.0862796 0)
(0.00346376 -0.0843514 0)
(0.00330622 -0.0859801 0)
(0.00323303 -0.084078 0)
(0.00307216 -0.0857076 0)
(0.00300799 -0.0837291 0)
(0.00315928 -0.0820407 0)
(0.00293938 -0.0816883 0)
(0.00279169 -0.083259 0)
(0.00272889 -0.0812859 0)
(-0.000216159 -0.0190637 0)
(-0.000207819 -0.0189158 0)
(0.00286494 -0.0795992 0)
(0.0026627 -0.0792067 0)
(0.00252644 -0.0808495 0)
(0.00246829 -0.078759 0)
(0.00130446 -0.118857 0)
(-0.000203944 -0.0182259 0)
(-0.000195741 -0.0180385 0)
(0.00233062 -0.0803386 0)
(0.00228053 -0.0782464 0)
(0.00240552 -0.0766238 0)
(0.00222469 -0.0761237 0)
(0.00209871 -0.0776976 0)
(0.00205111 -0.075569 0)
(0.00192358 -0.0770844 0)
(0.00188452 -0.0749553 0)
(0.00175807 -0.0764031 0)
(0.00172472 -0.0742885 0)
(0.0016007 -0.0756751 0)
(0.00157181 -0.0735766 0)
(0.00168652 -0.072142 0)
(0.00153797 -0.0714511 0)
(0.00399928 -0.0996312 0)
(-0.000191933 -0.0173147 0)
(-0.00018391 -0.0171607 0)
(0.00142559 -0.0728321 0)
(0.00139629 -0.0707282 0)
(0.00149938 -0.0692924 0)
(0.00136309 -0.068591 0)
(0.00126129 -0.0699723 0)
(0.00123355 -0.0678524 0)
(0.00113317 -0.0691795 0)
(0.00111031 -0.0670804 0)
(-0.000179716 -0.0164628 0)
(-0.000172618 -0.0162924 0)
(-0.000176995 -0.0170243 0)
(0.00120161 -0.065703 0)
(0.00108333 -0.0649568 0)
(0.000992815 -0.0662839 0)
(0.000970907 -0.064185 0)
(0.000881114 -0.0654611 0)
(0.000864182 -0.0633814 0)
(0.000775641 -0.0646077 0)
(0.000763032 -0.0625491 0)
(0.0006765 -0.0637254 0)
(0.000667511 -0.0616938 0)
(0.000747368 -0.0604673 0)
(0.000654813 -0.0596399 0)
(0.000577453 -0.0608234 0)
(0.000567922 -0.0588013 0)
(-0.000168768 -0.0156163 0)
(-0.000176191 -0.0158382 0)
(-0.000161807 -0.0154242 0)
(0.00063865 -0.0575626 0)
(0.000555451 -0.0567563 0)
(0.000486285 -0.0579481 0)
(0.000477341 -0.0559327 0)
(0.000409603 -0.0570726 0)
(0.000404103 -0.055088 0)
(0.000336424 -0.0562107 0)
(0.000335144 -0.0542296 0)
(0.00039585 -0.0530896 0)
(0.000329996 -0.0522613 0)
(0.000270745 -0.0533498 0)
(0.000268434 -0.0514186 0)
(0.000210755 -0.0524462 0)
(0.000210984 -0.0505632 0)
(0.000262849 -0.0494764 0)
(0.000208205 -0.0486658 0)
(0.000157376 -0.0497022 0)
(0.000157258 -0.0478466 0)
(0.00010759 -0.0488221 0)
(0.000109851 -0.0470126 0)
(-0.000158 -0.0147674 0)
(-0.00015137 -0.0145662 0)
(0.000155216 -0.0459797 0)
(0.00011011 -0.0451922 0)
(6.57002e-05 -0.0461736 0)
(6.79552e-05 -0.044394 0)
(2.47247e-05 -0.0453337 0)
(2.89502e-05 -0.0435881 0)
(-1.31543e-05 -0.0444869 0)
(-7.16417e-06 -0.0427783 0)
(3.15799e-05 -0.041835 0)
(-2.75135e-06 -0.041063 0)
(-4.04601e-05 -0.0419646 0)
(-3.43663e-05 -0.0402841 0)
(-7.07838e-05 -0.0411398 0)
(-6.33143e-05 -0.039498 0)
(-2.98216e-05 -0.0386067 0)
(-5.74185e-05 -0.03786 0)
(0.00209338 -0.121124 0)
(-0.00555171 -0.141123 0)
(-0.0053405 -0.14049 0)
(-0.00448967 -0.140975 0)
(-0.00437573 -0.140327 0)
(-0.00345775 -0.140737 0)
(-0.003443 -0.140003 0)
(-0.00245225 -0.14042 0)
(-0.00246183 -0.139747 0)
(-0.0015191 -0.140062 0)
(-0.0016287 -0.13938 0)
(-0.000674755 -0.139643 0)
(-0.000502089 -0.140314 0)
(0.000286825 -0.139851 0)
(0.000532218 -0.140502 0)
(0.00127658 -0.139938 0)
(0.00161103 -0.140603 0)
(0.00227682 -0.139937 0)
(0.00270395 -0.140564 0)
(0.00325134 -0.139842 0)
(0.00374269 -0.140401 0)
(0.00420268 -0.139603 0)
(0.00473097 -0.140145 0)
(0.00511677 -0.139265 0)
(0.00566704 -0.139777 0)
(0.00461333 -0.138729 0)
(-0.00253657 -0.139066 0)
(0.0059645 -0.138817 0)
(0.00653371 -0.139281 0)
(-0.00014756 -0.0139478 0)
(-0.00014128 -0.0137196 0)
(-0.000802586 -0.138967 0)
(0.00162314 -0.0777487 0)
(-2.65981e-05 -0.0369309 0)
(-5.2822e-05 -0.0362241 0)
(0.00419533 -0.084728 0)
(-9.83642e-05 -0.0403082 0)
(0.00674489 -0.138269 0)
(0.00732288 -0.138652 0)
(0.00116593 -0.0635245 0)
(0.0023379 -0.0744528 0)
(-0.000137784 -0.0131411 0)
(-0.00013146 -0.0128809 0)
(-0.000135262 -0.0134979 0)
(0.00407634 -0.082703 0)
(0.00432995 -0.0826278 0)
(0.00419417 -0.0805848 0)
(0.00444451 -0.0804276 0)
(0.00429423 -0.0783513 0)
(0.00454237 -0.0781177 0)
(0.00437601 -0.076004 0)
(0.00461956 -0.0756711 0)
(0.00443627 -0.0735376 0)
(0.00467178 -0.0731013 0)
(-0.00587942 -0.141735 0)
(0.00745298 -0.137574 0)
(0.00804082 -0.137869 0)
(-2.45e-05 -0.0352573 0)
(-4.92986e-05 -0.0345909 0)
(0.00786451 -0.108173 0)
(0.00068139 -0.0657383 0)
(0.0044723 -0.0709375 0)
(0.004701 -0.0704327 0)
(0.00491451 -0.0725638 0)
(0.00493296 -0.0698242 0)
(0.00515893 -0.0718849 0)
(0.00516575 -0.0690834 0)
(0.00540371 -0.071077 0)
(0.00539971 -0.0682165 0)
(0.00564941 -0.0701411 0)
(0.00563312 -0.0672233 0)
(0.00589499 -0.0690578 0)
(0.00586176 -0.0660997 0)
(0.0061368 -0.0678328 0)
(0.00608598 -0.0648296 0)
(0.00637432 -0.0664691 0)
(0.00631009 -0.0633952 0)
(0.00660775 -0.0649452 0)
(0.00652936 -0.0618077 0)
(0.00683596 -0.0632655 0)
(0.00674157 -0.0600911 0)
(0.00705815 -0.0614307 0)
(0.0069471 -0.0582237 0)
(0.00727293 -0.0594365 0)
(0.00714499 -0.0562087 0)
(0.00747932 -0.0572765 0)
(-0.000128246 -0.012314 0)
(-0.00013501 -0.0126129 0)
(-0.000122079 -0.0120445 0)
(0.00733542 -0.0540451 0)
(0.00767815 -0.0549474 0)
(0.00809214 -0.136712 0)
(0.00868708 -0.136915 0)
(0.00746714 -0.136532 0)
(0.00751654 -0.0517378 0)
(0.00786769 -0.0524562 0)
(-2.33665e-05 -0.0335891 0)
(-4.6692e-05 -0.0329642 0)
(-7.20395e-05 -0.0339197 0)
(-6.80248e-05 -0.032332 0)
(0.00768742 -0.0492999 0)
(0.00804652 -0.0498025 0)
(-0.000118952 -0.0115004 0)
(-0.00011316 -0.0112211 0)
(0.00448663 -0.0682437 0)
(0.00868174 -0.135711 0)
(0.00925733 -0.135796 0)
(0.00784565 -0.0467005 0)
(0.00821359 -0.0469826 0)
(0.00801633 -0.0556564 0)
(-9.27008e-05 -0.0332417 0)
(-8.74028e-05 -0.03169 0)
(-6.47403e-05 -0.0307522 0)
(-8.30139e-05 -0.0301478 0)
(0.00799259 -0.0439338 0)
(0.0083676 -0.044039 0)
(0.00324222 -0.141121 0)
(0.0069021 -0.0663889 0)
(-6.20863e-05 -0.0291826 0)
(-7.92536e-05 -0.028622 0)
(0.00812979 -0.0410401 0)
(0.00850855 -0.040997 0)
(0.00873888 -0.0440092 0)
(0.0088852 -0.0408101 0)
(0.0086376 -0.0378525 0)
(0.00902503 -0.0375075 0)
(0.00875479 -0.0346021 0)
(0.00914748 -0.0340419 0)
(0.00885641 -0.0312559 0)
(0.00925398 -0.0304457 0)
(0.00921268 -0.134559 0)
(0.00975747 -0.134537 0)
(0.00981497 -0.135764 0)
(0.0103013 -0.134419 0)
(0.0101964 -0.133149 0)
(0.0107126 -0.132896 0)
(0.0108654 -0.134185 0)
(0.0112311 -0.132506 0)
(0.0110634 -0.131217 0)
(0.0115394 -0.130624 0)
(0.0117314 -0.13191 0)
(0.0119912 -0.129905 0)
(0.012194 -0.131116 0)
(0.0124181 -0.129059 0)
(0.0126311 -0.130187 0)
(0.0128166 -0.128078 0)
(0.0130316 -0.129017 0)
(0.0131869 -0.126874 0)
(0.0133984 -0.127715 0)
(0.0135347 -0.125429 0)
(0.0137506 -0.126266 0)
(0.0138597 -0.123736 0)
(0.0140808 -0.124358 0)
(0.0141628 -0.121768 0)
(0.0143828 -0.122114 0)
(0.0144423 -0.119562 0)
(0.0146548 -0.119733 0)
(0.0146989 -0.117096 0)
(0.0149011 -0.117184 0)
(0.0149407 -0.114427 0)
(0.015128 -0.114408 0)
(0.0151648 -0.111607 0)
(0.0153364 -0.111435 0)
(0.015368 -0.108607 0)
(0.0155282 -0.108307 0)
(0.0155561 -0.105465 0)
(0.0157048 -0.105057 0)
(0.0157304 -0.102214 0)
(0.0158711 -0.101635 0)
(0.0158923 -0.0987828 0)
(0.0160227 -0.0980603 0)
(0.0160402 -0.0953217 0)
(0.0161599 -0.0944908 0)
(0.0161752 -0.0918233 0)
(0.0162901 -0.0908672 0)
(0.0163046 -0.0881755 0)
(0.0161818 -0.0891069 0)
(0.0154028 -0.105837 0)
(0.0142352 -0.119261 0)
(0.0129971 -0.125923 0)
(0.0113792 -0.129294 0)
(0.0163976 -0.0898714 0)
(0.0158464 -0.104601 0)
(0.00894258 -0.0278105 0)
(0.0093388 -0.0267354 0)
(0.00955068 -0.0332791 0)
(0.00536634 -0.0652862 0)
(-0.000110099 -0.0107107 0)
(-0.000104635 -0.0104291 0)
(0.00901174 -0.0242762 0)
(0.00940338 -0.0229964 0)
(-0.000104756 -0.0310199 0)
(-0.000470229 -0.0332296 0)
(0.00906319 -0.02071 0)
(0.00945747 -0.0192405 0)
(0.015095 -0.117186 0)
(-5.99711e-05 -0.027626 0)
(-7.59541e-05 -0.0271089 0)
(-0.000101592 -0.00994081 0)
(-9.64191e-05 -0.00965662 0)
(-9.88472e-05 -0.010097 0)
(0.00620861 -0.0602873 0)
(0.0129199 -0.13111 0)
(0.00714734 -0.139702 0)
(-9.34336e-05 -0.00919126 0)
(-9.79886e-05 -0.00943804 0)
(-5.82457e-05 -0.0260841 0)
(-7.30603e-05 -0.0256078 0)
(-8.84973e-05 -0.00890022 0)
(0.0069868 -0.05298 0)
(-0.000605195 -0.119522 0)
(-5.6813e-05 -0.0245588 0)
(-7.04803e-05 -0.024125 0)
(-4.19115e-05 -0.0249845 0)
(-8.65655e-05 -0.0251238 0)
(-8.2922e-05 -0.0236811 0)
(-9.87743e-05 -0.0246315 0)
(-9.4181e-05 -0.0232273 0)
(-8.56203e-05 -0.00846213 0)
(-8.09571e-05 -0.00816941 0)
(-0.000109748 -0.0241306 0)
(-0.000104307 -0.0227645 0)
(-8.98622e-05 -0.0218417 0)
(-9.91916e-05 -0.0214179 0)
(0.00427171 -0.0687297 0)
(0.00426929 -0.0659966 0)
(0.00406318 -0.0664903 0)
(0.00404714 -0.0636917 0)
(0.00385067 -0.0641551 0)
(0.00382372 -0.0612813 0)
(0.00364225 -0.0616932 0)
(0.00760824 -0.0437608 0)
(0.0041193 -0.106625 0)
(0.0113175 -0.0976091 0)
(0.00360647 -0.0587762 0)
(0.00343538 -0.0591702 0)
(-8.57541e-05 -0.0204764 0)
(-9.43103e-05 -0.0200918 0)
(-0.000107544 -0.020986 0)
(-0.000101975 -0.0196984 0)
(0.00854659 -0.0286694 0)
(-7.81753e-05 -0.00775624 0)
(-7.37494e-05 -0.00746407 0)
(-8.96088e-05 -0.0187876 0)
(-9.66232e-05 -0.0184321 0)
(2.0702e-06 -0.0342077 0)
(0.00339088 -0.0562232 0)
(0.00322747 -0.0566128 0)
(0.00354491 -0.0558355 0)
(-4.18943e-05 -0.0234341 0)
(-2.69906e-05 -0.023805 0)
(-0.000115001 -0.0205483 0)
(-7.10317e-05 -0.00707232 0)
(-6.68811e-05 -0.00678561 0)
(-6.90183e-05 -0.00711607 0)
(-8.50428e-05 -0.0175065 0)
(-9.14305e-05 -0.0171881 0)
(0.00317241 -0.0535969 0)
(0.00301873 -0.0539952 0)
(-0.0021123 -0.122096 0)
(-2.83896e-05 -0.0222307 0)
(-1.36134e-05 -0.0225422 0)
(-6.42412e-05 -0.00641401 0)
(-6.81993e-05 -0.0066817 0)
(-6.01551e-05 -0.00611737 0)
(-8.05558e-05 -0.0162498 0)
(-8.63384e-05 -0.0159679 0)
(-0.0017911 -0.0981373 0)
(-0.00158662 -0.097185 0)
(-0.00155891 -0.0985743 0)
(-0.00135544 -0.097571 0)
(-0.00132542 -0.0989384 0)
(-0.00111954 -0.0978903 0)
(-0.00107867 -0.0994089 0)
(-0.000873032 -0.0981297 0)
(-0.000791218 -0.0994786 0)
(-0.000621127 -0.098228 0)
(-0.000526509 -0.0995264 0)
(-0.000364318 -0.0982446 0)
(-0.000454817 -0.0968244 0)
(-0.000256921 -0.0994934 0)
(-0.000105801 -0.0981722 0)
(1.68852e-05 -0.0993693 0)
(0.00015516 -0.097963 0)
(0.000291522 -0.0991443 0)
(0.000149912 -0.100595 0)
(0.000418306 -0.0976635 0)
(0.000434099 -0.100333 0)
(0.000294562 -0.101794 0)
(0.000588185 -0.101487 0)
(0.000449058 -0.102959 0)
(0.0029536 -0.050899 0)
(0.00281122 -0.051309 0)
(0.00613324 -0.115156 0)
(0.0143376 -0.124491 0)
(0.00589996 -0.0719231 0)
(-5.71784e-05 -0.00571581 0)
(-5.37512e-05 -0.00547558 0)
(-1.63837e-05 -0.020948 0)
(-1.95696e-06 -0.0211986 0)
(-7.61091e-05 -0.0150196 0)
(-8.13193e-05 -0.0147737 0)
(-9.14672e-05 -0.0156743 0)
(-8.59338e-05 -0.0145142 0)
(-7.02901e-05 -0.0152518 0)
(-9.59501e-05 -0.0153682 0)
(-8.9968e-05 -0.0142416 0)
(-8.04871e-05 -0.0133811 0)
(-8.41191e-05 -0.013142 0)
(0.00384873 -0.0940665 0)
(-9.98063e-05 -0.0150503 0)
(0.01535 -0.0720099 0)
(0.0151564 -0.0727396 0)
(0.015127 -0.0763879 0)
(0.000751954 -0.102607 0)
(0.000614576 -0.104088 0)
(-2.0734e-05 -0.046168 0)
(0.000337356 -0.0581806 0)
(-0.000241383 -0.0221978 0)
(-0.000485547 -0.0314665 0)
(0.000151944 -0.0441099 0)
(0.000873006 -0.101099 0)
(-0.000936652 -0.0580774 0)
(-0.000758898 -0.04788 0)
(-0.000678993 -0.0431326 0)
(0.00061941 -0.0554673 0)
(0.00910875 -0.0438493 0)
(0.00273472 -0.0481458 0)
(0.00260596 -0.0485603 0)
(0.00266926 -0.0516409 0)
(0.00247801 -0.0489009 0)
(0.00253026 -0.0519026 0)
(0.00235055 -0.0491743 0)
(0.00239361 -0.0520893 0)
(0.002224 -0.0493623 0)
(0.00225906 -0.0522002 0)
(0.00209923 -0.0494728 0)
(0.00205593 -0.0465688 0)
(0.00194054 -0.0466949 0)
(0.00197694 -0.0495496 0)
(0.00182825 -0.0467914 0)
(0.00286354 -0.047651 0)
(0.00664752 -0.110034 0)
(0.00240629 -0.0457537 0)
(0.000272586 -0.0965178 0)
(0.000533661 -0.0961323 0)
(0.000381927 -0.0949872 0)
(0.000640316 -0.0945368 0)
(0.000486911 -0.0933885 0)
(-0.000180361 -0.0119184 0)
(-0.0001923 -0.012763 0)
(-0.000180683 -0.0121616 0)
(-0.00016901 -0.0113222 0)
(-0.000169254 -0.0115494 0)
(-0.000180519 -0.0123831 0)
(-0.000169033 -0.0117549 0)
(-0.000158012 -0.0109277 0)
(-0.000157761 -0.011119 0)
(-0.000179853 -0.0125809 0)
(-0.000146954 -0.0102976 0)
(-0.000146703 -0.0104763 0)
(-0.000136085 -0.00966025 0)
(-0.000135864 -0.00982813 0)
(-0.000146038 -0.0106331 0)
(-0.00013525 -0.00997405 0)
(-0.000135912 -0.00947199 0)
(-0.000144962 -0.0107663 0)
(-0.000134249 -0.0100968 0)
(-5.0954e-05 -0.00512137 0)
(-0.000124716 -0.00931267 0)
(-0.000123808 -0.00942659 0)
(-4.77707e-05 -0.0048747 0)
(-4.98023e-05 -0.00515026 0)
(0.00178297 -0.0438639 0)
(0.0016816 -0.0439909 0)
(0.00171879 -0.0468369 0)
(0.00158246 -0.0440672 0)
(0.010885 -0.0932978 0)
(0.00869628 -0.0185683 0)
(0.0126634 -0.0753581 0)
(0.0140335 -0.0492096 0)
(0.00247711 -0.116833 0)
(0.0149304 -0.076923 0)
(0.0148965 -0.0805335 0)
(-7.50993e-05 -0.012276 0)
(-7.8368e-05 -0.0120701 0)
(-0.00194142 -0.118953 0)
(-5.98148e-06 -0.0195847 0)
(7.88839e-06 -0.0197824 0)
(0.0150933 -0.0800659 0)
(0.0148593 -0.084103 0)
(0.014657 -0.0844677 0)
(0.0146147 -0.087934 0)
(0.0144056 -0.0882114 0)
(0.0143512 -0.0917306 0)
(0.0141407 -0.0917244 0)
(0.0140658 -0.095364 0)
(0.0138622 -0.094941 0)
(0.0137695 -0.0986377 0)
(0.00192235 -0.139235 0)
(0.00161197 -0.0468282 0)
(0.00148518 -0.0440914 0)
(0.000927448 -0.103689 0)
(0.000793605 -0.105179 0)
(0.00144757 -0.0412736 0)
(0.00136011 -0.0413351 0)
(0.00138986 -0.0440756 0)
(0.00127428 -0.0413461 0)
(0.00129704 -0.0440133 0)
(0.00119034 -0.0413106 0)
(0.00120682 -0.0439172 0)
(0.00110857 -0.041244 0)
(0.00108542 -0.0385912 0)
(0.00101179 -0.0385688 0)
(0.00102908 -0.0411451 0)
(0.000940157 -0.0385102 0)
(0.0135666 -0.0980035 0)
(0.0134653 -0.10159 0)
(-0.000143484 -0.0108746 0)
(-4.53289e-05 -0.00456338 0)
(-4.83399e-05 -0.00479376 0)
(1.35445e-05 -0.0214306 0)
(2.26835e-05 -0.0199618 0)
(3.00385e-05 -0.0216417 0)
(3.83802e-05 -0.0201086 0)
(4.75112e-05 -0.0218413 0)
(5.49301e-05 -0.0202284 0)
(6.62014e-05 -0.0220255 0)
(-0.000114437 -0.00865031 0)
(-0.000113637 -0.00875701 0)
(7.23909e-05 -0.0203254 0)
(8.6068e-05 -0.022181 0)
(0.000951972 -0.0410056 0)
(0.000870429 -0.0384091 0)
(0.000854215 -0.0359008 0)
(0.000791167 -0.0358131 0)
(0.000802706 -0.0382738 0)
(0.000729886 -0.035721 0)
(0.000737305 -0.0381037 0)
(0.000670826 -0.0355999 0)
(0.000674466 -0.0378983 0)
(0.000614006 -0.0354432 0)
(0.000605993 -0.0330953 0)
(0.000555017 -0.0329913 0)
(0.00055921 -0.0352582 0)
(0.000505839 -0.0328575 0)
(0.000506445 -0.0350452 0)
(0.000458446 -0.0326941 0)
(-4.20636e-05 -0.00429729 0)
(0.000454213 -0.0304714 0)
(0.000411911 -0.0303569 0)
(0.000412933 -0.0325034 0)
(0.000371109 -0.0302141 0)
(0.000734612 -0.0929038 0)
(0.000584712 -0.0917653 0)
(-0.00114744 -0.0965219 0)
(9.06826e-05 -0.0204022 0)
(-6.97658e-05 -0.0112009 0)
(-7.26929e-05 -0.0110275 0)
(-8.1173e-05 -0.0118496 0)
(-7.51876e-05 -0.0108378 0)
(-8.35006e-05 -0.0116138 0)
(-7.72522e-05 -0.0106325 0)
(0.00111922 -0.10472 0)
(-6.93029e-05 -0.0098565 0)
(-7.11355e-05 -0.00968082 0)
(0.00358191 -0.118671 0)
(0.000987035 -0.10623 0)
(0.000645526 -0.10664 0)
(-0.00330832 -0.132261 0)
(-0.00326201 -0.131307 0)
(-0.00266744 -0.131867 0)
(-0.00264115 -0.130912 0)
(-0.0020532 -0.131414 0)
(0.0150581 -0.0836713 0)
(0.00131477 -0.0384694 0)
(-0.0108716 -0.146493 0)
(-0.010306 -0.146137 0)
(-0.00914207 -0.146493 0)
(-0.00867369 -0.146188 0)
(-0.00752002 -0.14649 0)
(-0.00708498 -0.146194 0)
(-0.00582841 -0.146475 0)
(-0.00548921 -0.146147 0)
(-0.00404273 -0.146416 0)
(-0.00388014 -0.146046 0)
(-0.00236 -0.146278 0)
(-0.00237114 -0.146643 0)
(-0.000729305 -0.146465 0)
(-0.000560175 -0.146811 0)
(0.000986786 -0.146597 0)
(-0.00236616 -0.145889 0)
(0.00128933 -0.146929 0)
(0.00275914 -0.146684 0)
(0.00233547 -0.14633 0)
(0.00398779 -0.146374 0)
(0.00462638 -0.146764 0)
(0.00562143 -0.14636 0)
(0.00497392 -0.145995 0)
(0.00642698 -0.145939 0)
(0.00716372 -0.146281 0)
(0.00775639 -0.145824 0)
(0.00855235 -0.146147 0)
(0.00894392 -0.145629 0)
(0.00976375 -0.145928 0)
(0.00998066 -0.145332 0)
(0.01079 -0.145591 0)
(0.0108529 -0.144917 0)
(0.0116296 -0.145119 0)
(0.0115755 -0.144366 0)
(0.0122863 -0.144472 0)
(-0.00682585 -0.145853 0)
(-0.00771692 -0.146754 0)
(0.0121617 -0.143682 0)
(0.0127833 -0.143642 0)
(0.0115645 -0.143565 0)
(0.0091806 -0.145055 0)
(0.00578284 -0.145562 0)
(0.0132568 -0.100804 0)
(0.0131496 -0.104252 0)
(0.000369144 -0.0322733 0)
(0.000367107 -0.0280311 0)
(2.73051e-06 -0.0181647 0)
(-0.000104419 -0.00798866 0)
(-0.000103745 -0.00808965 0)
(-0.000112499 -0.00884088 0)
(-0.000102749 -0.00816828 0)
(0.00344335 -0.0619425 0)
(-0.00320227 -0.130351 0)
(-3.99271e-05 -0.00402607 0)
(-3.67226e-05 -0.003757 0)
(0.000772183 -0.0332093 0)
(0.0142927 -0.0956501 0)
(0.0142127 -0.0882866 0)
(0.0129403 -0.103377 0)
(0.0128205 -0.1067 0)
(0.0013262 -0.105712 0)
(0.00144022 -0.10415 0)
(-8.53656e-05 -0.0113637 0)
(-0.00260532 -0.129946 0)
(-0.000111028 -0.00890062 0)
(-0.00010144 -0.00822334 0)
(-9.33005e-05 -0.00750085 0)
(-9.21651e-05 -0.00755303 0)
(0.0125971 -0.142839 0)
(0.0131578 -0.142614 0)
(0.0126171 -0.105773 0)
(0.012477 -0.10891 0)
(0.0122827 -0.107876 0)
(0.0121196 -0.110856 0)
(0.000836255 -0.107701 0)
(0.000484968 -0.108055 0)
(-0.000690422 -0.100811 0)
(-6.35073e-05 -0.00890618 0)
(-6.51451e-05 -0.00875996 0)
(0.000330684 -0.0279405 0)
(0.000323983 -0.0257148 0)
(0.00081788 -0.0912447 0)
(0.000675112 -0.0901244 0)
(0.000446536 -0.0906189 0)
(0.000543416 -0.0889805 0)
(0.000327578 -0.089433 0)
(0.000421102 -0.0878101 0)
(0.000219093 -0.0882262 0)
(0.000305574 -0.0866042 0)
(0.000111647 -0.0869983 0)
(0.000193752 -0.0854205 0)
(1.54848e-05 -0.0857161 0)
(9.73528e-05 -0.0842084 0)
(-7.21173e-05 -0.0844079 0)
(1.63876e-05 -0.082882 0)
(-0.000154276 -0.0830893 0)
(-6.68851e-05 -0.0815515 0)
(-0.000232431 -0.0817591 0)
(-0.000147534 -0.0802441 0)
(0.000970582 -0.0923431 0)
(-0.000304578 -0.0804113 0)
(-0.000219862 -0.0789159 0)
(0.000123235 -0.0812207 0)
(-0.000370746 -0.0790482 0)
(-0.000286848 -0.0775745 0)
(-0.000142296 -0.0773836 0)
(-0.000210357 -0.0760614 0)
(-0.000347846 -0.0762206 0)
(-0.000272087 -0.0747269 0)
(-0.000168138 -0.0859496 0)
(0.000371264 -0.0848522 0)
(-0.000402655 -0.0748537 0)
(-0.000328165 -0.0733796 0)
(-0.000202903 -0.073207 0)
(-0.000259331 -0.0718781 0)
(-0.000379598 -0.0720252 0)
(-0.000311641 -0.0705494 0)
(-0.000425921 -0.0706657 0)
(-0.000358533 -0.0692158 0)
(-0.000467108 -0.0693023 0)
(-0.000401202 -0.0678663 0)
(-0.000503578 -0.0679279 0)
(-0.000440254 -0.0665104 0)
(-0.000339565 -0.0664026 0)
(-0.000380942 -0.0650682 0)
(-0.000475257 -0.0651626 0)
(-0.000418421 -0.0637406 0)
(-0.000326969 -0.063592 0)
(-0.000365151 -0.0622845 0)