/*--------------------------------*- C++ -*----------------------------------*\
| =========                 |                                                 |
| \\      /  F ield         | OpenFOAM: The Open Source CFD Toolbox           |
|  \\    /   O peration     | Version:  v2012                                 |
|   \\  /    A nd           | Website:  www.openfoam.com                      |
|    \\/     M anipulation  |                                                 |
\*---------------------------------------------------------------------------*/
FoamFile
{
    version     2.0;
    format      ascii;
    class       surfaceVectorField;
    location    "800";
    object      Uf_0;
}
// * * * * * * * * * * * * * * * * * * * * * * * * * * * * * * * * * * * * * //

dimensions      [0 1 -1 0 0 0 0];


internalField   nonuniform List<vector> 
20642
(
(0.24049 -0.00483383 -3.92023e-21)
(0.246695 -0.00351641 9.25814e-21)
(0.255248 -0.00157814 8.75427e-22)
(1.06652 0.0158421 2.07966e-22)
(1.06674 0.0160234 -3.57688e-23)
(1.06671 0.0158502 1.73236e-22)
(1.0055 0.017068 -1.43947e-20)
(1.00737 0.0166894 3.79054e-21)
(0.961974 0.0190581 -1.49596e-20)
(1.05724 -0.00280996 -2.95194e-21)
(1.05768 -0.00236616 -1.60205e-21)
(1.05678 -0.00244794 -1.03135e-22)
(1.05409 0.0176356 6.10281e-23)
(1.05459 0.0181046 -1.2543e-22)
(1.05458 0.0178532 1.15015e-22)
(1.06612 0.0156311 2.69136e-22)
(1.06631 0.0157286 1.78923e-22)
(1.07814 -0.00166258 1.44552e-21)
(1.07728 -0.00161713 -3.94131e-21)
(1.07793 -0.0010414 0)
(1.08085 0.0201143 -3.24149e-23)
(1.06526 0.0236524 -9.37411e-21)
(1.0707 0.0222963 1.15516e-21)
(1.07794 -0.012738 0)
(1.0778 -0.0121205 -3.86374e-21)
(1.07871 -0.0123556 0)
(0.0044805 -0.0494869 -2.9524e-22)
(0.0130518 -0.0493632 1.94652e-20)
(1.07747 0.0193932 -3.07184e-22)
(1.07594 0.0188848 -8.27842e-23)
(1.04901 0.00171398 -1.55742e-21)
(1.04972 0.00192123 -5.35368e-22)
(1.04942 0.00148069 -1.24861e-21)
(1.02129 -4.633e-05 -1.738e-21)
(1.02122 -9.39118e-05 -8.67514e-22)
(0.488928 0.0196304 -1.14089e-21)
(0.451023 0.0154031 -2.70181e-23)
(0.4887 0.0198387 -2.90199e-23)
(1.06153 0.0147604 -1.76903e-22)
(1.06217 0.0149101 -1.19468e-21)
(1.0618 0.0146467 -2.46216e-22)
(0.23237 -0.00626201 2.36282e-20)
(0.219104 -0.00912371 -1.7976e-20)
(0.998217 0.000449831 1.74008e-22)
(0.998449 0.000450519 -2.83086e-22)
(0.998024 0.00020383 2.79274e-22)
(1.07241 0.0195679 2.00352e-23)
(1.06842 0.0196575 6.49161e-22)
(1.06754 0.0193912 -5.05404e-22)
(1.10693 0.00890925 6.69936e-21)
(1.10724 0.00887236 1.32491e-21)
(1.10707 0.00928368 4.4115e-21)
(0.242717 0.0160281 2.55178e-20)
(0.260184 0.0189738 0)
(0.2611 0.0158822 -7.28288e-22)
(1.07096 0.0139662 1.49228e-21)
(1.07148 0.0142452 5.97537e-23)
(1.07104 0.0142796 4.50665e-21)
(1.0432 0.0113551 -4.00379e-22)
(1.04311 0.0110672 3.11745e-22)
(1.04392 0.0115399 1.45458e-22)
(1.09341 0.00471149 -4.9688e-21)
(1.09354 0.00410161 0)
(1.0942 0.00486844 7.37516e-21)
(1.04324 0.0116526 -4.96598e-24)
(1.04257 0.0111861 4.31066e-22)
(1.06306 0.00321193 -3.94299e-21)
(1.06377 0.0032067 8.55645e-22)
(1.06343 0.00352447 -7.3258e-22)
(1.07122 0.0152492 -2.21317e-21)
(1.07113 0.0149275 -6.52646e-23)
(1.07067 0.0149599 -3.12817e-21)
(0.470051 0.0321138 -1.90247e-21)
(0.519184 0.0331979 -9.40068e-22)
(0.523044 0.0324358 1.32431e-21)
(0.00399036 -0.0438082 -4.23314e-22)
(1.07114 0.0175956 1.04937e-21)
(1.07125 0.0172709 1.32919e-22)
(1.07063 0.0171767 3.91981e-22)
(0.992011 0.00140812 -1.41483e-23)
(0.992163 0.00131171 -7.05935e-23)
(0.991823 0.00132813 -7.43126e-24)
(0.0042651 -0.031617 5.09275e-22)
(0.0169812 -0.0359621 0)
(1.10393 0.00159005 -1.04421e-21)
(1.10453 0.0014673 -5.46053e-21)
(1.10426 0.00201152 -4.32819e-21)
(1.05723 0.00132694 -4.75756e-21)
(1.0564 0.00131838 7.16422e-22)
(1.05667 0.000932514 3.65991e-21)
(0.279879 0.00297173 4.80303e-21)
(0.292286 0.00527987 -4.03903e-21)
(0.290462 0.00489197 -7.36435e-21)
(1.03068 0.0143912 0)
(1.0301 0.0142557 -3.38445e-23)
(1.03104 0.0147457 8.35613e-23)
(1.04634 0.0221998 8.01577e-23)
(1.01549 0.0215407 -1.56664e-22)
(1.06096 0.00999621 3.87821e-22)
(1.06137 0.00989759 -1.7183e-22)
(1.06164 0.0102747 -1.48927e-21)
(1.01194 0.000296796 -3.03578e-22)
(1.01723 0.000665629 -1.82781e-22)
(1.01138 0.000255023 1.0028e-22)
(1.07904 -0.00168558 -4.11956e-21)
(1.0783 -0.00224338 -1.98813e-21)
(1.07616 0.0139876 0)
(1.07674 0.0143211 2.99877e-21)
(1.07658 0.0138163 4.92155e-21)
(0.994504 0.000200853 3.40923e-22)
(0.995243 0.000150316 1.53084e-21)
(0.992326 -2.44227e-06 8.26295e-23)
(1.01972 0.016477 1.00401e-22)
(1.02057 0.0169481 1.4458e-23)
(1.02037 0.0166436 -5.79239e-22)
(1.07227 -0.0131674 4.44616e-21)
(1.07184 -0.0123635 4.55933e-21)
(1.07114 -0.013199 0)
(1.10737 0.00717835 3.14165e-21)
(1.10752 0.00692003 -1.06421e-21)
(1.10788 0.00732014 0)
(1.10688 0.00706824 6.76955e-21)
(1.10718 0.00744511 -5.03015e-21)
(0.81657 0.0388238 -7.39787e-21)
(0.853077 0.0363367 3.65631e-21)
(0.795924 0.0414691 -4.99195e-21)
(1.07043 0.0135789 0)
(1.0709 0.0135428 2.63228e-21)
(0.134326 0.0482521 -9.57441e-21)
(0.167943 0.0477891 1.04238e-20)
(0.162237 0.0482541 -4.48264e-21)
(0.59445 0.0106885 4.60967e-23)
(0.580016 0.013271 -1.21816e-20)
(0.638687 0.0143147 -1.40331e-21)
(1.03062 0.0141654 0)
(1.03139 0.0146045 0)
(1.04863 0.00201174 0)
(1.04828 0.00155485 0)
(1.10027 0.022501 -1.07859e-20)
(1.10183 0.0234933 0)
(1.09852 0.0225982 0)
(0.135611 -0.00733979 1.56601e-20)
(0.175613 -0.00697933 1.04987e-20)
(0.133368 -0.00807484 -1.74311e-20)
(1.04696 0.00657757 0)
(1.04624 0.00638252 0)
(1.04658 0.00673278 0)
(1.04855 0.00640404 -4.19678e-21)
(1.04781 0.00623343 -3.97288e-22)
(1.04809 0.00599585 -4.02986e-21)
(1.09921 0.0217309 6.17049e-21)
(1.10282 0.0227108 -8.38339e-21)
(0.0984325 -0.00537365 -2.18033e-20)
(1.09317 0.00528794 7.74093e-21)
(1.09261 0.00454016 -4.26627e-21)
(1.01885 0.0159934 2.43179e-22)
(1.01904 0.0162972 4.07485e-22)
(0.768579 0.0403891 6.70549e-21)
(0.832719 0.0374224 0)
(0.202022 0.0459777 -5.81029e-21)
(0.17743 0.0461164 -5.26027e-21)
(0.170518 0.0462669 -5.27042e-21)
(1.04239 0.0179659 -1.01796e-21)
(1.04235 0.0179768 -2.10028e-22)
(1.0415 0.018107 -1.08945e-21)
(0.988143 9.24572e-05 8.91444e-22)
(0.987704 -3.88666e-05 -1.02674e-22)
(0.986692 -3.16146e-05 2.53055e-23)
(1.06265 0.0027745 5.79719e-22)
(1.06226 0.00315368 -2.33297e-22)
(0.509669 0.0269804 -3.83696e-21)
(0.508713 0.0280503 0)
(0.486935 0.0282934 1.11669e-20)
(0.994744 -0.0014442 -5.44893e-23)
(0.996 -0.00127203 3.12592e-23)
(0.995385 -0.000730781 1.00644e-22)
(1.07104 0.0179193 4.62459e-22)
(1.07119 0.0182259 9.00323e-22)
(1.0704 0.0178368 3.94783e-22)
(1.06148 0.0192028 0)
(1.02724 0.0242005 0)
(1.07853 0.019645 1.37193e-21)
(0.221192 -0.00478045 -1.01801e-20)
(0.210356 -0.00598597 -2.48164e-21)
(0.207167 -0.00621535 -2.42446e-21)
(0.615485 0.0279027 1.07226e-20)
(0.628536 0.0271085 4.85666e-21)
(0.587454 0.0268979 5.18051e-21)
(0.270525 0.00141524 -1.03345e-21)
(0.26882 0.00137509 2.10925e-20)
(1.04671 -0.00668931 -8.27948e-22)
(1.04762 -0.00692765 -3.07303e-21)
(1.04719 -0.00633418 3.00292e-22)
(1.01802 0.015545 -1.56623e-23)
(1.01871 0.0157173 -5.39378e-22)
(1.07202 0.0145662 -2.62628e-21)
(1.07197 0.0142159 1.40209e-21)
(1.06345 0.00620456 0)
(1.0641 0.00622818 0)
(1.06372 0.00648911 -7.88649e-24)
(1.05206 0.015826 -6.78157e-23)
(1.05265 0.016103 -8.21609e-23)
(1.05229 0.0157253 -1.79364e-22)
(1.01721 0.0150843 3.71258e-22)
(1.01731 0.0153588 2.45977e-22)
(1.06316 0.00572323 1.84579e-21)
(1.06263 0.00610419 0)
(1.0577 0.00151151 -5.12141e-22)
(1.0579 0.00117859 -4.13969e-21)
(1.05098 0.0104089 -2.27604e-22)
(1.05059 0.010534 8.60923e-23)
(1.05015 0.0101487 4.7153e-22)
(1.00079 0.000554244 1.26168e-23)
(1.00051 0.000550034 -9.86899e-23)
(0.999727 0.000239369 -6.07963e-23)
(1.04619 -0.0070593 -3.73152e-21)
(1.04577 -0.00646386 0)
(0.593186 0.0264597 1.76693e-20)
(0.62971 0.0264515 6.57961e-21)
(0.624262 0.0266989 -2.40106e-22)
(1.02927 0.00130146 0)
(1.02945 0.00144419 5.87112e-22)
(1.0292 0.00145881 0)
(0.979625 0.0227218 -4.49115e-22)
(0.920586 0.0251044 -5.93431e-21)
(0.915944 0.0236323 2.26145e-22)
(1.10358 0.000962222 -1.79879e-21)
(1.1032 0.00163101 5.37841e-21)
(1.02903 0.000818648 2.51101e-22)
(1.02887 0.000881463 -1.48403e-22)
(1.02839 0.000634081 2.47925e-21)
(1.07562 0.0135749 5.14086e-21)
(1.0757 0.0140705 0)
(0.997861 0.000422951 1.94111e-22)
(0.998572 0.000694122 -4.38565e-23)
(0.998314 0.0012054 6.9019e-23)
(0.997845 0.00108872 -3.2295e-23)
(0.998348 0.00143973 8.54055e-23)
(1.07331 -0.0128529 -6.85421e-21)
(0.611749 0.00793309 -1.0569e-21)
(0.559104 0.00416269 -9.86921e-22)
(1.02571 0.0131527 0)
(1.02591 0.013471 0)
(1.02505 0.0130057 0)
(1.05256 0.008319 1.63427e-21)
(1.0521 0.00842949 -4.57679e-22)
(1.05288 0.00866533 2.42328e-21)
(1.07165 0.0180013 -2.23332e-21)
(0.575508 0.027387 6.3092e-22)
(0.634517 0.0286078 3.90018e-22)
(0.627209 0.02882 1.23377e-21)
(1.00736 0.000705584 -3.94248e-24)
(1.0077 0.000680487 9.21862e-24)
(1.00499 0.000356268 6.55091e-27)
(1.02914 0.000940918 1.63506e-21)
(1.02915 0.000771816 -6.07325e-22)
(0.988299 0.0251178 3.08351e-23)
(1.04791 0.0217516 4.44698e-21)
(1.00392 0.024278 -1.02828e-21)
(0.98959 2.07395e-05 9.15096e-23)
(0.989664 6.14749e-05 8.7956e-23)
(0.991979 -4.8502e-06 1.04108e-22)
(0.989355 2.97847e-05 0)
(0.988534 0.000248978 1.37889e-22)
(1.05175 0.0106017 -1.0976e-21)
(1.05122 0.0102498 -1.53724e-21)
(1.01176 0.0015013 2.28584e-22)
(1.012 0.00141274 1.91731e-24)
(1.01063 0.00107135 8.49438e-23)
(1.05131 0.015491 0)
(1.05168 0.0158383 -2.19306e-23)
(0.607808 0.0262004 6.02466e-21)
(0.604434 0.0273527 7.39845e-22)
(0.571845 0.0294619 1.74981e-21)
(0.29783 0.0340153 -4.48308e-21)
(0.296255 0.0324942 -1.02041e-20)
(0.281433 0.0349873 0)
(1.04237 0.0180869 3.46476e-22)
(1.04344 0.0178168 -9.76534e-22)
(1.02077 0.0172556 4.67195e-22)
(1.02143 0.0174121 -1.79944e-22)
(0.42751 0.0294944 -2.08459e-21)
(0.421921 0.0303596 -7.06056e-22)
(1.02753 -0.00097551 6.93181e-22)
(1.02747 -0.0012981 -4.91408e-22)
(0.306256 0.00775478 1.23694e-20)
(0.295663 0.00607645 4.63338e-21)
(1.07126 0.0169721 4.62208e-22)
(1.07184 0.0173223 3.39965e-22)
(0.506623 0.0270521 -8.47824e-21)
(0.535883 0.0276847 8.20303e-21)
(1.06426 0.00764957 3.13848e-21)
(1.06488 0.00762825 7.78582e-22)
(1.06409 0.00725907 -4.30668e-21)
(1.10641 0.00895987 -5.32373e-21)
(1.10664 0.00854324 1.12734e-20)
(0.992897 0.000660407 -4.55455e-24)
(0.993137 0.000911865 -4.54075e-24)
(0.993217 0.000742101 -2.13803e-24)
(1.07995 0.0114533 2.52559e-21)
(1.08026 0.0116911 -3.0751e-21)
(1.10092 0.00893434 5.15819e-21)
(1.04233 -0.00865925 2.54374e-21)
(1.04289 -0.0083509 1.02192e-21)
(1.04202 -0.00816317 -2.47366e-21)
(1.00186 0.000859526 0)
(1.00099 0.000508547 1.46485e-23)
(1.017 0.0145159 -2.54797e-23)
(1.01685 0.0142161 2.11044e-22)
(1.01616 0.0140451 -9.02493e-23)
(1.07124 0.0184978 -9.0931e-22)
(1.07187 0.0186262 5.21127e-22)
(1.10328 0.0134697 -1.10711e-20)
(1.10281 0.0141714 -6.14937e-22)
(1.10235 0.013262 8.73394e-21)
(0.18131 -0.00575337 -1.05906e-21)
(0.195835 -0.00396761 -9.1733e-21)
(0.184628 -0.00585162 -2.4649e-21)
(0.570515 0.0268737 -5.89986e-21)
(0.565954 0.0278586 6.88008e-21)
(1.06228 0.00240832 2.1555e-21)
(1.06191 0.00202086 -6.14277e-21)
(1.06152 0.00234845 3.76112e-21)
(1.07207 0.0148933 -1.1272e-22)
(1.07255 0.0148665 1.60924e-21)
(1.0313 0.0114783 -2.46476e-23)
(1.0308 0.0114472 0)
(1.03054 0.0111263 0)
(1.10335 0.0127561 -1.59378e-20)
(1.10414 0.0135155 -1.70654e-21)
(1.08936 -0.00623591 0)
(1.08969 -0.00559739 -1.58322e-21)
(1.09025 -0.00621536 0)
(0.867667 0.0360249 0)
(0.918554 0.0331519 0)
(0.852899 0.0369833 0)
(0.381918 0.019925 -1.05357e-20)
(0.360223 0.0185042 -2.5409e-21)
(0.365228 0.0184704 -1.46638e-20)
(1.06448 0.00809367 4.32512e-21)
(1.06368 0.00772388 -3.03668e-22)
(1.1058 0.00338909 0)
(1.10576 0.00388854 0)
(1.10643 0.00361229 -3.70514e-21)
(0.389748 0.0261579 -6.61479e-23)
(0.433358 0.0287279 -1.89373e-22)
(0.160178 0.0415315 1.32991e-20)
(0.185668 0.0425501 1.01759e-20)
(0.189414 0.0415033 -3.59417e-21)
(0.153848 -0.00347341 -9.99883e-21)
(0.15152 -0.00377077 1.79949e-21)
(0.166202 -0.0020578 -1.90817e-20)
(1.07133 0.0158519 9.24938e-22)
(1.0713 0.0155187 -3.50636e-22)
(1.0708 0.0155729 9.27303e-22)
(1.01162 0.00036704 -1.15074e-21)
(0.634774 0.0237945 2.18537e-23)
(0.664275 0.0249724 2.76981e-22)
(0.63791 0.0220663 -3.10262e-22)
(1.01711 0.0148019 -8.44375e-24)
(1.01642 0.0146073 -7.02678e-23)
(0.602056 0.0271604 -1.90491e-21)
(0.646365 0.0260479 3.91789e-21)
(1.03487 0.00752318 9.4435e-24)
(1.03435 0.00740318 -9.1125e-22)
(1.03489 0.00777043 1.14e-21)
(1.04454 -0.00547376 7.36976e-22)
(1.04529 -0.0056061 0)
(1.04508 -0.00513817 0)
(1.02429 0.0196928 6.6205e-24)
(1.02353 0.0195473 -1.81154e-22)
(1.02333 0.0192093 -2.78089e-22)
(0.637183 0.0271838 4.25843e-21)
(0.598325 0.0290074 6.23873e-21)
(0.763353 0.00589867 4.69979e-22)
(0.177068 0.048927 -9.16017e-21)
(0.189546 0.0493782 -9.66575e-21)
(0.158305 0.0485197 -1.04721e-20)
(1.04743 0.00641349 1.62341e-21)
(1.04778 0.00677111 0)
(1.07517 0.013246 -7.05125e-22)
(1.07471 0.012926 -8.14957e-21)
(1.07473 0.0133398 -6.69204e-21)
(0.989056 0.000104423 9.46787e-22)
(0.988803 8.484e-05 9.32486e-23)
(0.987667 0.000101865 -2.24119e-22)
(1.04382 -0.00533094 2.15571e-21)
(1.04402 -0.00578296 1.06627e-22)
(0.532907 0.0277825 -5.4632e-22)
(0.526949 0.024238 -3.66338e-22)
(1.04505 0.0137346 -7.59904e-23)
(1.04587 0.0140034 0)
(1.04538 0.0139818 0)
(1.01154 0.00155862 8.58402e-23)
(1.01211 0.00174685 -8.93081e-23)
(0.350327 0.0186136 -6.1847e-21)
(0.344816 0.0177906 1.29787e-20)
(0.33149 0.0165841 5.69558e-21)
(0.992225 0.000278594 6.12792e-23)
(0.992046 0.000280229 -4.99989e-22)
(0.993723 0.000118264 1.20508e-22)
(0.992651 0.000535316 0)
(0.992888 0.000416791 0)
(1.03142 0.00373355 2.55154e-21)
(1.0319 0.00392122 -2.4062e-22)
(1.03149 0.00396769 3.2013e-21)
(0.42332 0.0376152 6.31888e-21)
(0.433236 0.0371631 -9.27718e-21)
(0.404209 0.0367715 4.5665e-21)
(1.0634 0.0127458 1.0774e-21)
(1.0632 0.0124183 1.29669e-21)
(1.06274 0.012524 -1.02846e-21)
(0.631198 0.0249468 4.46769e-22)
(0.265599 0.04386 -2.52794e-21)
(0.264155 0.0443719 -2.42774e-21)
(0.289562 0.0423776 -1.44512e-20)
(0.80714 0.0289066 -2.87506e-21)
(0.868722 0.029228 3.1785e-21)
(0.872235 0.029568 -1.48001e-21)
(0.137917 -0.00690266 -4.62194e-21)
(0.16027 0.0489488 2.16331e-20)
(0.18617 0.0482194 1.07107e-20)
(0.160995 0.048863 2.59026e-21)
(0.986359 0.000450013 -1.00111e-23)
(0.986518 0.000499365 3.17244e-24)
(0.986372 0.000446256 -1.08368e-24)
(1.07132 0.0161622 -9.4519e-22)
(1.07182 0.0161527 1.04085e-21)
(1.04382 0.0119368 3.22597e-22)
(1.0444 0.0121956 -2.85339e-22)
(1.04465 0.0120832 -7.61069e-24)
(0.387523 0.0184177 -7.05133e-21)
(0.389318 0.0195286 -1.34529e-22)
(0.368116 0.0172341 -6.15877e-21)
(1.07716 -0.0133036 2.28982e-21)
(0.261615 0.0438096 4.02904e-21)
(0.229862 0.0453417 -1.3146e-21)
(0.241527 0.0450086 9.34066e-21)
(1.08989 0.0179083 1.61808e-21)
(1.09019 0.0173918 -4.35911e-21)
(1.09059 0.018133 7.38437e-21)
(0.990355 0.000151247 1.11663e-22)
(0.989478 0.000254842 -9.08046e-23)
(0.990693 0.000119113 -1.40727e-22)
(1.05784 -0.00317192 0)
(1.05694 -0.00322297 4.37075e-22)
(1.10055 0.0242589 0)
(1.07967 0.0264024 0)
(1.10018 0.0245684 0)
(1.08894 -0.00688165 -1.16529e-20)
(1.08846 -0.00625517 5.60259e-21)
(1.064 0.0129542 5.28109e-22)
(1.06358 0.0129952 -2.77014e-22)
(1.07154 -0.0117578 4.55274e-21)
(1.07055 -0.0117444 4.07439e-21)
(1.07117 -0.0110358 0)
(1.043 0.0118027 3.55692e-22)
(1.04836 0.00222473 -1.4342e-21)
(1.04902 0.00235854 3.95812e-21)
(0.940857 0.031344 7.93973e-21)
(0.969751 0.0284758 6.94884e-21)
(0.922854 0.0331154 8.34854e-21)
(1.07744 0.0112722 6.89248e-21)
(1.04102 0.014081 1.4455e-22)
(0.87113 0.0345176 2.57689e-21)
(0.805463 0.0369944 0)
(1.04765 0.00210105 -4.2651e-23)
(1.04802 0.00247011 -2.31205e-21)
(0.89759 0.0341077 8.90551e-21)
(0.953023 0.0307342 1.00265e-20)
(0.992189 0.00150151 -2.91311e-23)
(0.991805 0.00148778 -5.78674e-24)
(1.03414 0.0219279 -1.74048e-22)
(1.03749 0.0216511 -7.9638e-22)
(1.0891 0.0178879 3.67582e-21)
(1.08958 0.018669 -5.3492e-21)
(1.10652 0.00693425 -1.06977e-20)
(1.10677 0.00660951 1.04898e-20)
(1.08426 0.0217882 5.47984e-21)
(1.10444 0.0198303 5.6894e-21)
(1.10345 0.0211223 -1.55945e-22)
(0.250396 -0.00205946 -4.69545e-21)
(0.262537 0.00183469 -8.54915e-21)
(0.253599 5.65403e-05 -3.43859e-21)
(1.0264 0.0133414 0)
(1.02565 0.0129249 -1.24493e-23)
(0.191467 -0.00503658 -1.64802e-21)
(0.202404 -0.00364319 8.64552e-21)
(0.187845 -0.00559323 -3.50949e-21)
(1.07153 0.00526262 7.96763e-23)
(1.07173 0.00570444 2.78769e-21)
(1.071 0.00546626 4.47947e-21)
(0.404841 0.0213644 8.62804e-21)
(0.399864 0.021171 -5.28939e-21)
(1.0296 0.0141908 6.79499e-23)
(1.029 0.0138418 -2.74257e-22)
(1.04423 0.0134606 -6.54055e-23)
(1.0447 0.0134655 2.06485e-23)
(1.06972 0.0129207 -7.03717e-22)
(1.07014 0.012775 -5.50355e-22)
(1.06947 0.012498 -3.08036e-21)
(0.213069 -0.00642146 5.29872e-21)
(0.212228 -0.00617266 -9.02852e-21)
(0.225828 -0.00482298 -1.30763e-21)
(0.154502 -0.00403592 0)
(0.136417 -0.00505875 -3.06694e-20)
(1.05873 0.0102362 -1.31811e-21)
(1.05937 0.0104594 7.67519e-22)
(1.05893 0.010563 2.90727e-21)
(0.514698 0.0382137 -8.23029e-21)
(0.560531 0.0360997 -2.05583e-21)
(0.510988 0.0367467 -4.89288e-21)
(1.06837 0.0156766 0)
(1.068 0.0156556 0)
(1.0679 0.0153433 -2.02526e-21)
(1.07561 0.0131365 2.71702e-21)
(1.01782 0.0149954 1.75865e-22)
(1.10107 0.0241919 -8.88363e-21)
(1.05011 0.010608 -1.0907e-21)
(1.05092 0.0108326 2.81182e-22)
(1.02486 0.00867531 -5.8839e-24)
(1.02428 0.00834126 8.46103e-23)
(1.0244 0.00863571 -3.21433e-23)
(1.05541 0.0191096 0)
(1.05487 0.0185178 1.94661e-22)
(1.05535 0.0189582 1.42709e-22)
(1.05451 0.019425 -4.15973e-22)
(1.05538 0.0199757 0)
(0.199615 0.0466099 6.51663e-21)
(1.10524 0.00317648 0)
(1.10587 0.00291698 0)
(1.07174 0.0155054 -2.29517e-21)
(0.398704 0.0302937 -4.58411e-21)
(0.39577 0.0310824 0)
(0.417983 0.0308898 3.58708e-23)
(1.02345 0.0010489 1.00985e-21)
(1.02221 0.00094702 -1.58613e-21)
(1.02434 0.000970746 1.4644e-22)
(1.00331 0.00812191 0)
(1.00379 0.00838664 -1.2395e-22)
(1.00331 0.00790957 -3.48315e-23)
(1.00329 0.00831373 0)
(1.00285 0.00787673 -1.13285e-22)
(0.16009 0.048646 4.50216e-22)
(1.01251 0.0257681 1.22387e-20)
(1.05683 0.0243799 5.68203e-21)
(1.04671 0.0259571 -6.2927e-21)
(0.857025 0.0362233 0)
(0.813957 0.0375792 5.55595e-21)
(0.867726 0.0352595 5.07957e-21)
(1.03015 -0.00102879 -1.18049e-22)
(1.03047 -0.00114422 -1.48133e-21)
(1.03011 -0.001215 -1.30153e-21)
(0.988582 9.01634e-05 -3.97088e-23)
(0.99113 7.30861e-05 -1.04869e-22)
(0.347751 0.0239986 -1.18377e-21)
(0.353257 0.0225602 -1.99146e-21)
(0.194467 -0.00485077 -1.78418e-21)
(1.00241 0.00694022 -1.87497e-22)
(1.00262 0.00717694 0)
(1.00292 0.00719925 2.58024e-22)
(1.00224 0.00665485 -3.41927e-22)
(1.00191 0.0066663 3.18904e-23)
(0.992874 0.000375739 -7.53086e-22)
(0.995881 7.8714e-05 -8.92008e-22)
(1.00329 0.00851215 -2.12239e-22)
(1.0038 0.00878991 0)
(1.00327 0.0087098 1.2257e-23)
(1.00286 0.00826903 -1.04643e-22)
(0.258993 -0.000828407 -9.90353e-21)
(0.268097 0.000981786 -2.2004e-20)
(0.218039 0.0461134 1.30647e-21)
(0.213778 0.0460562 1.21688e-21)
(0.237789 0.0440127 -8.69117e-22)
(1.04678 0.0108856 7.65631e-22)
(1.04605 0.0106842 7.14661e-23)
(1.04648 0.0106011 8.3397e-22)
(0.987502 0.000793042 -8.89502e-24)
(0.987728 0.000853521 -7.68247e-24)
(0.98759 0.000843211 2.09546e-23)
(1.09624 0.0159189 9.05092e-21)
(1.09543 0.0163711 5.88415e-21)
(1.09538 0.0155414 6.19261e-21)
(0.253783 0.000123032 -1.82359e-20)
(0.244873 -0.00152028 -2.6131e-20)
(0.256782 0.000368158 -1.67076e-20)
(0.993903 0.000459554 -6.97633e-25)
(0.994238 0.000260281 -1.52765e-22)
(0.993991 0.000253824 1.88901e-22)
(1.03019 -0.000861413 -1.08359e-21)
(1.02991 -0.000939363 1.46727e-21)
(0.516791 0.035365 2.05224e-21)
(0.46304 0.0352502 4.58824e-21)
(0.598632 0.027098 -5.05957e-21)
(0.593604 0.0268041 -2.6405e-21)
(0.636974 0.0262424 9.19813e-21)
(0.985683 0.0266844 -3.92996e-21)
(0.402721 0.0296459 -1.45097e-20)
(0.382807 0.0293576 3.71613e-21)
(1.0911 0.0220641 -6.10016e-21)
(1.09023 0.0220948 -4.78407e-21)
(1.09081 0.0228284 -9.62499e-21)
(1.03487 0.00730967 -7.98917e-22)
(1.03537 0.00763968 4.16475e-22)
(0.213365 0.0471603 1.10922e-20)
(0.213489 0.046844 0)
(1.097 0.0157136 3.00494e-21)
(1.09688 0.0165753 3.2635e-21)
(1.0713 0.0167115 7.08353e-22)
(1.07076 0.0167085 4.10464e-22)
(1.1021 0.00744942 1.53605e-20)
(1.10254 0.00784004 1.53827e-21)
(1.10278 0.00732736 1.98842e-20)
(1.05809 0.0100402 -2.1316e-22)
(1.05852 0.00990121 -1.28892e-21)
(0.226231 0.0455823 2.45472e-21)
(1.0434 -0.00812004 -1.42364e-21)
(1.0431 -0.00768932 1.42171e-22)
(1.04389 -0.00782872 -4.51647e-21)
(1.08158 0.0128221 5.41805e-21)
(1.08184 0.0131876 -2.46513e-22)
(1.08213 0.0128711 6.26483e-21)
(1.08996 0.0168046 -1.73871e-21)
(1.08982 0.0159678 -2.41642e-21)
(1.08917 0.0164222 -1.3948e-23)
(1.04743 0.0114533 8.54884e-22)
(1.04706 0.0111123 7.60154e-23)
(1.04673 0.0112639 -4.15802e-22)
(0.995114 1.43825e-05 -3.87261e-22)
(1.06304 0.00244114 -2.90031e-21)
(1.05255 0.0164014 1.70671e-22)
(1.05199 0.0162386 3.01784e-22)
(1.05228 0.0162052 3.23198e-22)
(1.02782 0.0151045 1.01196e-22)
(1.02848 0.0151876 -9.91007e-23)
(1.02877 0.0155027 -1.2441e-22)
(0.22069 -0.000420715 -1.72375e-22)
(0.211867 -0.00200403 8.51279e-21)
(0.208401 -0.00207044 -9.9906e-21)
(0.457818 0.00463838 -2.24051e-21)
(0.464682 0.00988884 1.62188e-21)
(0.477839 0.01015 -2.46602e-24)
(1.01903 0.0144983 -8.36701e-24)
(1.01888 0.014202 -2.34863e-22)
(1.01816 0.0140337 1.75952e-23)
(1.00241 0.00653419 -1.06662e-23)
(1.002 0.00623668 2.987e-22)
(1.04634 0.0140371 0)
(1.04666 0.0142777 0)
(1.00285 0.0068119 -1.96444e-22)
(1.00255 0.00640063 5.87993e-22)
(1.04376 -0.00853822 3.00564e-21)
(1.0273 -0.000130294 -3.42363e-21)
(1.02071 -1.19937e-05 5.37923e-22)
(1.08526 0.00662278 3.89801e-21)
(1.08594 0.00693873 -2.15497e-21)
(1.08542 0.00731551 -1.03085e-21)
(1.01922 0.0148164 2.44423e-22)
(1.01994 0.0149918 2.45739e-22)
(0.154341 -0.00203249 -5.09395e-21)
(0.167292 -0.000196704 -5.16368e-21)
(0.297364 0.0354947 2.12439e-21)
(0.313175 0.0338553 -2.25509e-20)
(1.04364 0.00286764 0)
(1.04324 0.00252429 1.14491e-21)
(1.04291 0.00282251 0)
(1.05083 0.0158628 9.47746e-23)
(1.05148 0.0161192 -2.2478e-22)
(1.05126 0.0159879 -1.2756e-22)
(0.725612 0.0422839 1.83231e-21)
(0.734184 0.0402165 -8.59267e-22)
(0.676855 0.0419283 2.16709e-21)
(0.999063 0.00746137 -1.97913e-22)
(0.999057 0.00761983 -2.90772e-22)
(0.998667 0.00721097 2.43291e-22)
(1.08028 0.0174822 3.06698e-21)
(1.07669 0.0160886 -3.77545e-22)
(1.07995 0.0189968 -1.3375e-21)
(0.233264 0.00147825 1.00149e-20)
(0.229629 0.00122052 -1.42639e-20)
(0.999081 0.00731318 3.37206e-23)
(0.999491 0.00773863 -3.08872e-22)
(0.233697 -0.00309431 -1.74797e-20)
(0.230249 -0.003353 2.80102e-21)
(1.02714 0.0150115 2.37668e-22)
(1.02688 0.0146898 3.35651e-23)
(0.450609 0.037659 5.01774e-21)
(0.419485 0.0375975 0)
(0.990266 0.000150626 -8.13817e-23)
(0.992484 5.35436e-05 1.09242e-22)
(1.06023 0.0144054 -3.6718e-22)
(1.05988 0.0145134 8.4822e-22)
(1.05951 0.0142196 3.32868e-23)
(1.04788 0.0116651 -2.52855e-22)
(1.04812 0.0115412 6.07112e-22)
(1.03407 0.00807731 1.90631e-22)
(1.03357 0.0080745 -5.09346e-22)
(1.03341 0.0078221 -5.39271e-22)
(1.10234 0.0135028 2.42884e-21)
(1.10924 0.0115812 8.39938e-21)
(1.10395 0.0121046 1.38132e-20)
(1.01653 0.000958769 8.6945e-22)
(1.01668 0.000875609 -1.56603e-23)
(1.01326 0.000555039 2.1226e-22)
(0.749614 0.0305334 -1.42718e-21)
(0.749189 0.0305768 2.4243e-21)
(1.07374 0.00837308 2.82201e-21)
(1.0739 0.00888109 2.71952e-21)
(1.0732 0.00852798 4.41642e-21)
(1.02495 0.019877 -5.48138e-22)
(1.02514 0.0201672 -9.34766e-23)
(0.626146 0.039073 -1.08959e-21)
(0.617703 0.036072 5.58461e-22)
(0.688686 0.0358306 4.03504e-22)
(0.143465 -0.00353956 0)
(0.994083 0.000675172 -1.13188e-23)
(0.9938 0.000638205 9.66851e-23)
(1.09303 0.00921806 -5.49766e-21)
(1.09386 0.00937179 -1.35994e-20)
(1.09342 0.0086056 2.23684e-21)
(1.05318 0.0169059 7.15385e-22)
(1.05281 0.0166423 -9.44525e-23)
(1.05264 0.01665 5.23631e-22)
(1.06471 0.00842453 5.74706e-21)
(1.06491 0.00880297 -2.34563e-22)
(1.06416 0.00850297 1.25087e-21)
(1.05362 0.0172962 -2.60271e-22)
(1.05351 0.0171691 -1.57597e-22)
(1.06291 0.00537505 -2.54961e-23)
(1.06359 0.00543623 1.51504e-21)
(1.02615 0.0137758 0)
(1.02638 0.0140645 0)
(1.02549 0.013653 -9.5135e-23)
(1.01778 0.00121574 -3.04388e-22)
(1.01603 0.000915499 -2.81909e-22)
(1.09587 0.0245697 0)
(1.07589 0.0257971 -8.51624e-21)
(1.0994 0.0246921 0)
(1.0559 0.0252251 -4.25162e-22)
(1.0571 0.0266129 -2.2514e-21)
(1.05392 0.0257167 -4.56436e-22)
(1.08135 0.0122361 2.11257e-21)
(1.08096 0.0126253 -1.06155e-21)
(1.06267 0.00496958 -6.00307e-21)
(1.06222 0.00526694 -1.7069e-21)
(1.03019 -0.0007357 -2.50197e-22)
(1.02998 -0.000655411 1.52053e-21)
(1.03018 -0.000607209 1.91386e-21)
(0.355982 0.018642 -1.25274e-20)
(0.37157 0.0196921 -1.30348e-20)
(0.209885 -0.00738936 1.55537e-20)
(0.192713 -0.00689193 1.58907e-21)
(1.02926 0.0113237 2.54726e-24)
(1.02875 0.0112733 2.1835e-23)
(1.02851 0.0109572 4.83876e-23)
(1.00014 0.0095784 0)
(1.00028 0.00959971 -1.05554e-22)
(0.99975 0.00923078 1.00769e-22)
(1.06527 0.00836748 2.06352e-21)
(1.01105 0.0211156 3.12715e-22)
(1.01931 0.017964 6.63432e-22)
(1.04238 0.0202972 -5.14113e-22)
(1.11305 0.00566623 -4.3499e-21)
(1.11358 0.00633784 -1.21281e-20)
(1.11373 0.00537323 -3.19791e-20)
(0.322398 0.0295694 6.23896e-21)
(0.313958 0.0279629 2.88088e-21)
(0.305935 0.0297009 -4.64818e-21)
(0.279119 0.0432338 0)
(0.292297 0.0419629 -5.4083e-21)
(0.997368 -0.0021307 -1.10486e-23)
(0.99662 -0.00170845 2.42667e-23)
(0.996158 -0.00250774 1.79391e-23)
(0.971811 0.0312083 -3.29499e-21)
(0.98514 0.0289146 6.51093e-22)
(1.05017 0.0156511 1.11521e-22)
(1.05045 0.0157655 1.20175e-22)
(0.665717 0.0268757 0)
(0.634087 0.0267159 -8.03772e-21)
(0.958518 0.0255458 3.10432e-22)
(0.998309 0.0256859 -4.15474e-21)
(0.994343 0.0179994 -1.2687e-21)
(1.03899 0.0138373 -5.16535e-21)
(1.02612 0.000167656 -4.86899e-22)
(1.019 -3.65498e-05 -7.04912e-22)
(1.06089 0.0145925 2.88764e-24)
(1.06125 0.0148905 -5.55843e-22)
(0.572803 0.0346242 -1.04013e-21)
(1.0451 0.0130495 -3.93297e-23)
(1.04475 0.0127608 2.05606e-22)
(1.0456 0.0130632 -3.8298e-22)
(1.06699 0.0162155 -7.33024e-22)
(1.06703 0.0160368 -1.15641e-22)
(1.10606 0.0068506 -2.09194e-20)
(1.10634 0.00728671 -1.31706e-20)
(0.996727 0.000451226 7.20815e-23)
(0.996448 0.00040193 -1.77035e-22)
(0.996741 0.000194334 7.06549e-23)
(0.404243 0.019939 4.86944e-21)
(0.382731 0.0178381 -5.7389e-22)
(1.02911 0.001051 1.41838e-21)
(1.02916 0.00120574 -9.22899e-22)
(1.02899 0.00118392 -1.92972e-21)
(1.09811 -0.00862935 -2.35042e-21)
(1.09903 -0.00869561 3.61946e-22)
(0.998792 0.00861161 -2.21e-22)
(0.998375 0.00834771 -9.9818e-23)
(0.998873 0.00871851 -1.03207e-22)
(0.200214 0.0152852 4.26717e-21)
(0.204112 0.00969716 -3.75981e-21)
(1.02147 0.00471478 1.93955e-22)
(1.02109 0.00464191 1.05265e-23)
(1.0211 0.004394 5.69928e-22)
(1.08124 0.011827 0)
(1.08065 0.0116242 0)
(1.08111 0.0113534 3.62653e-22)
(1.0688 0.0159338 9.61604e-22)
(1.06868 0.0156056 0)
(0.998053 -0.00216868 0)
(0.997787 -0.00147795 0)
(0.997213 0.000772015 -8.46583e-23)
(0.99713 0.000523863 8.26452e-23)
(1.10301 0.00687847 -4.08339e-21)
(1.10332 0.00647535 -2.77228e-21)
(1.10269 0.00643923 -1.16353e-20)
(0.62926 0.0273968 4.17176e-21)
(0.670429 0.0275597 -2.41053e-20)
(0.633114 0.0273822 -5.2704e-21)
(1.05197 0.00768633 -9.68956e-22)
(1.0523 0.00803355 1.16287e-21)
(1.05145 0.00776805 -2.47032e-22)
(1.0454 0.0132924 2.31381e-22)
(1.04458 0.0129923 3.97799e-22)
(0.316919 0.00913286 2.74264e-21)
(0.320133 0.00991087 7.52283e-21)
(0.618103 0.0293158 -2.25728e-21)
(0.625258 0.0281676 1.9182e-20)
(0.66231 0.0277699 -9.41994e-21)
(0.440701 0.0406978 -1.91391e-21)
(0.461724 0.039669 -6.93536e-21)
(0.425437 0.0417723 2.94689e-21)
(0.537656 0.0234671 2.49224e-22)
(0.492459 0.0202819 2.58499e-22)
(0.99915 0.00719533 3.68375e-22)
(0.998678 0.00691768 1.86415e-22)
(1.04709 0.0101557 9.81277e-22)
(1.04634 0.00995881 1.94589e-21)
(1.04677 0.00987257 1.05738e-21)
(0.588998 0.0267742 -2.60372e-21)
(0.584611 0.0267777 -1.23747e-20)
(0.627587 0.0259701 1.80495e-23)
(1.00678 0.0285158 1.92913e-21)
(0.947231 0.0338638 -5.1842e-21)
(0.999619 0.00750035 -1.62728e-22)
(0.999272 0.007117 1.50291e-22)
(1.05361 0.0172765 -2.34283e-22)
(1.04736 0.00419199 -8.05088e-22)
(1.04807 0.00431162 2.16474e-21)
(1.04758 0.00446587 1.42461e-21)
(1.07504 0.0169852 1.34245e-21)
(1.07515 0.0172387 1.11828e-21)
(1.07547 0.0171856 9.85053e-22)
(1.0818 0.011977 0)
(1.10547 0.018534 -4.78219e-21)
(1.1033 0.0176721 -8.83425e-21)
(1.10244 0.0184074 5.58596e-21)
(1.08628 0.0221936 6.00046e-21)
(1.08567 0.0216126 3.40261e-21)
(1.08631 0.0217451 -1.77121e-22)
(1.08096 0.0173284 1.39466e-21)
(1.07941 0.0183159 -7.28762e-23)
(1.09716 -0.00677921 0)
(1.09693 -0.00623191 1.07932e-20)
(1.09774 -0.00640221 0)
(0.288208 0.00711331 -4.62022e-22)
(0.276805 0.00419032 -1.01726e-20)
(0.285134 0.00557764 5.56439e-22)
(1.03211 0.0118195 2.4238e-23)
(1.03178 0.0114951 9.18825e-23)
(1.05253 0.00760955 1.75331e-21)
(1.05166 0.00734686 3.92147e-22)
(1.05465 0.018242 -3.42048e-22)
(1.0551 0.0185552 -9.24301e-23)
(1.05303 0.0145128 -9.93706e-21)
(1.06689 0.0131915 -4.70102e-21)
(1.02192 0.0159354 -4.96059e-21)
(0.994705 0.000331665 1.16377e-22)
(0.995589 0.000119668 1.85412e-22)
(0.99484 0.000323599 0)
(0.233267 -0.0053027 1.06146e-20)
(1.09738 -0.00742114 0)
(1.09651 -0.00715848 0)
(0.938176 0.0143062 -1.35455e-21)
(0.954502 0.0120497 -5.05539e-22)
(1.04899 0.00665834 -7.34403e-22)
(1.04921 0.00644535 2.18689e-21)
(1.07964 0.0249093 -1.45413e-21)
(1.05249 0.0247907 8.57741e-21)
(1.08736 0.0252691 2.30138e-22)
(1.00054 0.00993902 -1.08511e-22)
(1.00006 0.00954066 -1.98902e-22)
(0.626749 0.00638659 3.01174e-22)
(0.644112 0.00519188 -4.56764e-22)
(0.591284 0.00085745 6.77731e-22)
(1.01813 0.01658 -8.75677e-24)
(1.01876 0.0167398 4.03008e-22)
(1.0179 0.0162692 4.9896e-22)
(0.844014 0.0367057 0)