/*--------------------------------*- C++ -*----------------------------------*\
| =========                 |                                                 |
| \\      /  F ield         | OpenFOAM: The Open Source CFD Toolbox           |
|  \\    /   O peration     | Version:  v2012                                 |
|   \\  /    A nd           | Website:  www.openfoam.com                      |
|    \\/     M anipulation  |                                                 |
\*---------------------------------------------------------------------------*/
FoamFile
{
    version     2.0;
    format      ascii;
    class       volScalarField;
    location    "950";
    object      k;
}
// * * * * * * * * * * * * * * * * * * * * * * * * * * * * * * * * * * * * * //

dimensions      [0 2 -2 0 0 0 0];


internalField   nonuniform List<scalar> 
13851
(
0.000158681
0.0157039
0.000219504
0.000157532
0.000220794
0.000181702
0.000150176
0.000198577
0.000138505
0.000224163
0.00569433
0.0207525
0.0118091
0.0266188
0.000144425
0.000183745
0.000166496
0.000172087
0.000331339
0.000138436
0.000157026
0.000218453
0.000178929
0.000147873
0.000183426
0.000199404
0.000163801
0.00165408
0.000158366
0.000163586
0.000184141
0.000167502
0.000217643
0.00674712
0.000146799
0.000139612
0.026611
0.000278176
0.000229234
0.00631586
0.000148302
0.00013758
0.00382975
0.00507989
0.00464894
0.0157117
0.00400751
0.000305861
0.000164549
0.000169333
0.000216772
0.000257082
0.00623185
0.000146626
0.000152038
0.000138076
0.000144264
0.00832103
0.000162826
0.000151
0.000283733
0.0327733
0.000189919
0.000228093
0.000224401
0.000162162
0.033816
0.00335512
0.000184548
0.000171629
0.0294934
0.0511586
0.021051
0.000147624
0.000142152
0.000140942
0.000217132
0.029513
0.000198979
0.0306651
0.000153183
0.0025041
0.000146059
0.0119147
0.000190873
0.0170627
0.000174325
0.000479227
0.00016779
0.000152411
0.000153274
0.000165397
0.00326968
0.00017345
0.00016716
0.000149556
0.000221701
0.044318
0.000178735
0.000150149
0.0165887
0.000201407
0.000155188
0.000162019
0.000206093
0.000172887
0.000205011
0.000135223
0.0667215
0.000183769
0.000150863
0.000153277
0.000164378
0.000158503
0.000149616
0.0184442
0.0441889
0.000134127
0.000150753
0.000153402
0.00373518
0.000161726
0.0141889
0.0134605
0.000287855
0.000166579
0.000142475
0.000200216
0.000156225
0.000248324
0.000147982
0.000139028
0.0348649
0.00014588
0.0186552
0.000140272
0.000134046
0.0465708
0.0374802
0.0328416
0.0159509
0.000153313
0.000151759
0.000145699
0.000160806
0.00508353
0.00028476
0.000247102
0.000149931
0.00469321
0.000216944
0.000151193
0.0262076
0.000145197
0.00015915
0.000160512
0.000143185
0.00015999
0.000255993
0.000216248
0.000143237
0.000172861
0.00800552
0.000138841
0.000173155
0.000141844
0.000345596
0.000185114
0.000155755
0.0322014
0.0255094
0.00013646
0.000143468
0.0325912
0.000138755
0.000545489
0.000199009
0.000151347
0.000388682
0.000136487
0.00016973
0.0530781
0.000145441
0.000220879
0.000136781
0.000158875
0.000162649
0.000149132
0.000226144
0.000220171
0.00401964
0.00705389
0.000156513
0.000184992
0.0328941
0.000158473
0.000150889
0.00530105
0.00015076
0.000141301
0.000170034
0.0234387
0.000158459
0.000145445
0.000213608
0.000145738
0.0299436
0.000166915
0.0494159
0.000139046
0.0631165
0.000154668
0.00724947
0.000135357
0.000144466
0.00642005
0.000191313
0.0143952
0.000143879
0.0511923
0.000167426
0.000153514
0.0481067
0.000248759
0.0692008
0.000166597
0.000177763
0.000209042
0.00886676
0.000135721
0.000198088
0.00021835
0.000136414
0.000155516
0.000211275
0.000190402
0.0285375
0.000227591
0.000145613
0.000145647
0.000182412
0.000493966
0.00015175
0.00021726
0.000187591
0.0645626
0.000202079
0.00722608
0.000160882
0.000169105
0.000158659
0.000715738
0.000153873
0.000161159
0.000201663
0.000195909
0.000218467
0.0484218
0.0086995
0.000145356
0.000144607
0.000169563
0.00115397
0.000150476
0.00182968
0.000158434
0.000153627
0.000172344
0.0450831
0.000848488
0.000158475
0.000159188
0.000191785
0.000196953
0.000182331
0.000139155
0.00214
0.00320297
0.0759629
0.0056852
0.000151682
0.000137862
0.000204068
0.000199703
0.00242582
0.00114456
0.000139688
0.00014448
0.000187012
0.00332074
0.000262301
0.000161875
0.00015117
0.000187949
0.00341499
0.00219626
0.000171926
0.016792
0.000139421
0.0652262
0.000171903
0.000166138
0.0745779
0.000151953
0.000173984
0.0567073
0.000139447
0.000194783
0.000173744
0.000161051
0.0375617
0.000172363
0.000153521
0.0471495
0.000138783
0.000169802
0.000195581
0.0766055
0.000251681
0.000144022
0.000202095
0.000144186
0.0213201
0.00016106
0.000171006
0.000146436
0.000250911
0.000176242
0.00015867
0.000144468
0.000151767
0.000153248
0.00528007
0.0221105
0.0340387
0.000174826
0.0750054
0.0134139
0.000144006
0.000185996
0.000262366
0.00016716
0.000198337
0.000243006
0.000126817
0.000157568
0.016762
0.060646
0.00014468
0.00332449
0.00340925
0.000209353
0.000158608
0.000200324
0.00918887
0.000143913
0.0175555
0.000146304
0.000144177
0.000177399
0.000135477
0.000142288
0.0610936
0.00431594
0.00014839
0.00019301
0.000140725
0.0182884
0.000191499
0.00620326
0.0342888
0.000148716
0.000194657
0.000174077
0.00406197
0.000146688
0.000134369
0.000161585
0.0156804
0.000145465
0.0374632
0.000167527
0.000249629
0.0265347
0.00568616
0.00565095
0.000156235
0.000139772
0.000151723
0.000172841
0.000201745
0.0284716
0.000184934
0.0698036
0.058092
0.000140877
0.000145545
0.0322536
0.0354342
0.000218228
0.0443767
0.000162154
0.000175429
0.000152031
0.0070073
0.000137216
0.000182766
0.000155632
0.000149595
0.000208446
0.000139167
0.000141732
0.000226912
0.000197585
0.0285682
0.000172029
0.000204588
0.0001708
0.000720914
0.00017165
0.000212107
0.000165293
0.00651809
0.000133828
0.000138953
0.000160212
0.000245764
0.00684103
0.000245577
0.000170496
0.0228346
0.00671656
0.000173111
0.000155008
0.000211719
0.000146265
0.00102293
0.000198474
0.000213108
0.00418449
0.000214155
0.0449604
0.000151691
0.00408433
0.00457483
0.0167464
0.000133482
0.000178384
0.000199961
0.00201877
0.000136797
0.000153378
0.000213208
0.000246867
0.000177992
0.0280993
0.000165422
0.00014715
0.00662523
0.000174471
0.000137079
0.00207832
0.000139645
0.00015854
0.000137369
0.000191514
0.000158314
0.000138218
0.000151281
0.0443755
0.000146379
0.000187781
0.000139918
0.000162846
0.00646086
0.000159241
0.00014764
0.000158052
0.000159025
0.000463317
0.000153414
0.000177129
0.000145218
0.000150585
0.0197706
0.042645
0.000146249
0.000163223
0.000171815
0.000609185
0.0122582
0.000147288
0.00460032
0.000147112
0.000220443
0.00015029
0.0102616
0.00013527
0.00596182
0.000217407
0.000137875
0.000163223
0.039615
0.000199192
0.0020134
0.000149325
0.0124154
0.000155999
0.000138157
0.000139252
0.000149284
0.0422428
0.000211825
0.000260446
0.000838124
0.00019043
0.000144198
0.0197867
0.00574931
0.000170026
0.000173394
0.000333047
0.0131228
0.0613206
0.000154224
0.0107439
0.0157417
0.0220062
0.00017383
0.000163668
0.0120378
0.00410025
0.000194169
0.00621555
0.00240771
0.000160653
0.00259873
0.0394301
0.000133698
0.00298823
0.000212429
0.0353318
0.000161518
0.000144098
0.000142815
0.000146924
0.00022563
0.00018865
0.000235253
0.0286302
0.00013879
0.00581462
0.0424591
0.000177155
0.00551142
0.000187204
0.000135823
0.000138715
0.0020172
0.0249209
0.000159525
0.000227395
0.000185642
0.000137806
0.000174235
0.0100969
0.000288309
0.000241937
0.0442755
0.0423686
0.000147544
0.000149641
0.0217353
0.057321
0.000263794
0.000184584
0.000190516
0.000136173
0.000143472
0.000196344
0.000137071
0.000161219
0.0001363
0.000139887
0.0406505
0.000225969
0.000167949
0.000136867
0.0349997
0.00482535
0.000139742
0.000144472
0.000151042
0.000150718
0.014597
0.00719637
0.00725231
0.0224911
0.0126911
0.000181884
0.0292243
0.045261
0.000158425
0.000185289
0.000135813
0.000186927
0.000186216
0.0376011
0.0106289
0.000226829
0.000176204
0.000138035
0.000182956
0.000151724
0.00208347
0.000216879
0.000144979
0.000175941
0.000136769
0.000171687
0.000246494
0.000150664
0.000145857
0.000191498
0.000151022
0.000221097
0.000260862
0.000244077
0.000183581
0.000271194
0.00013789
0.000211328
0.000159927
0.0209344
0.000154371
0.000148342
0.0627668
0.000161177
0.0246328
0.0613947
0.0123246
0.00186588
0.000137152
0.0564598
0.000153534
0.000139789
0.00013498
0.000139933
0.000170836
0.000172821
0.000188834
0.00013626
0.0123865
0.00021879
0.0170875
0.000141813
0.000139413
0.000164453
0.000256608
0.0317874
0.000201786
0.000172338
0.000154327
0.000150587
0.000142687
0.000143941
0.00141628
0.0328263
0.000150741
0.000136108
0.000149341
0.000143862
0.000254985
0.0073903
0.000183904
0.0423104
0.0122206
0.000145476
0.000257925
0.0166061
0.000187289
0.0203955
0.000153132
0.000169968
0.000201108
0.000170187
0.00670486
0.000145937
0.01282
0.00020315
0.000177576
0.0491401
0.000142138
0.000158771
0.00018943
0.000138233
0.000168305
0.000303628
0.0328352
0.000215787
0.00108612
0.00591866
0.000135552
0.00014151
0.0197423
0.0002216
0.000193401
0.0615981
0.000138152
0.000170434
0.000133952
0.012195
0.0274303
0.000168389
0.000152613
0.00630638
0.000164512
0.000162389
0.00590394
0.000198811
0.0475499
0.000138489
0.000150579
0.0297322
0.00462546
0.000262041
0.000150743
0.0575424
0.000146031
0.00656072
0.000242405
0.000217389
0.000166953
0.012524
0.000157039
0.000153733
0.0209394
0.000148655
0.000158664
0.000158985
0.000137729
0.0066776
0.000181935
0.000242573
0.000167907
0.00462072
0.000138236
0.000292588
0.000147846
0.000157111
0.000142861
0.000144778
0.00014508
0.0560225
0.000142597
0.000135629
0.000190793
0.000150014
0.0358657
0.000200166
0.000151539
0.000214657
0.000256626
0.00424583
0.000139347
0.00018976
0.0421145
0.000153655
0.054805
0.000177026
0.000137483
0.000162309
0.00452577
0.000187467
0.000169556
0.000139493
0.000135389
0.00464185
0.000222092
0.000204758
0.000170901
0.000162093
0.000151703
0.000151184
0.00022629
0.0050641
0.000225209
0.00769016
0.000150292
0.000221076
0.000224317
0.0773152
0.000167867
0.0372895
0.000569985
0.000150057
0.0182624
0.000206889
0.0353605
0.0331395
0.0495805
0.0046223
0.000193494
0.000137609
0.000171823
0.00898255
0.0136101
0.000145359
0.000154636
0.000212323
0.00499888
0.000137503
0.00601189
0.00013793
0.000148225
0.00700208
0.0296434
0.005936
0.000139674
0.000144266
0.00535438
0.000901316
0.000248571
0.000155288
0.0375163
0.000280635
0.0315625
0.000204731
0.000192429
0.000153593
0.00015013
0.0214843
0.000198145
0.0342665
0.000162584
0.000184348
0.00729992
0.036541
0.0383301
0.000147366
0.00017909
0.000139597
0.000184622
0.000158433
0.0290088
0.000169736
0.0585525
0.000137088
0.000213586
0.000144335
0.000252761
0.00018288
0.000178626
0.0431666
0.000194606
0.000193528
0.000149048
0.000213788
0.000704518
0.000195468
0.000161533
0.0254526
0.000149216
0.0328434
0.00481863
0.000151812
0.0646252
0.0164566
0.038349
0.00461903
0.000161734
0.000145441
0.045688
0.000170787
0.0167756
0.0501403
0.000141914
0.000157712
0.000235706
0.00533816
0.0381597
0.000150664
0.000141217
0.0225676
0.0490464
0.000241709
0.000168298
0.00015378
0.00490074
0.00923822
0.000225924
0.000135788
0.00019411
0.000138396
0.000153572
0.00448773
0.000151857
8.10136e-05
0.00162014
0.000148549
0.000152188
0.000145722
0.000159281
0.0304442
0.0382189
0.000177613
0.0368769
0.000144208
0.000177689
0.000144822
0.000138571
0.000151399
0.000148319
0.0390043
0.000146457
0.000201419
0.000147712
0.000169924
0.00496142
0.00423061
0.000149398
0.0197138
0.000206418
0.00324031
0.000183132
0.000183718
0.0294504
0.00017164
0.000189035
0.0283315
0.00202155
0.00660071
0.000193174
0.00501264
0.000153776
0.000192602
0.000201898
0.0383096
0.000141467
0.0320829
0.000141268
0.000142073
0.0289032
0.000170044
0.00248448
0.000167731
0.000139422
0.000173419
0.000139592
0.000144318
0.000157304
0.000152729
0.0116435
0.000142165
0.000527009
0.00877902
0.000209039
0.0316897
0.000149778
0.000149722
0.000224323
0.000147227
0.000139319
0.000221199
0.000152911
0.000140386
0.000152958
0.00017457
0.0356096
0.0311826
0.000193878
0.0458769
0.00461314
0.000143467
0.000742024
0.000175749
0.000142027
0.0021772
0.000172416
0.00492451
0.000142644
0.00437126
0.00496504
0.0108648
0.000136449
0.0109143
0.000180467
0.000163548
0.000159335
0.000138033
0.0135865
0.000205375
0.000684836
0.000141555
0.000145321
0.00018631
0.000151923
0.000242844
0.00481326
0.000148009
0.000525624
0.00533743
0.000155418
0.000148008
0.000195251
0.00016314
0.000162293
0.000245883
0.00019497
0.000153185
0.000153334
0.028441
0.000140594
0.0338946
0.00928947
0.0161906
0.000213101
0.000154213
0.000145907
0.00015178
0.00533136
0.00327137
0.000136434
0.000160662
0.00014124
0.000220148
0.00013894
0.000140792
0.000153791
0.000183361
0.0219553
0.000190167
0.000176234
0.000145246
0.000200462
0.00525351
0.00015499
0.0202611
0.000569416
0.000221858
0.000141671
0.000195542
0.000144154
0.000173721
0.000151327
0.0291171
0.000250802
0.00693624
0.000162423
0.00663016
0.000144581
0.000206849
0.000151914
0.00040176
0.000200548
0.000142284
0.000182819
0.000198617
0.0443188
0.000158751
0.0021284
0.000173709
0.0327948
0.000218591
0.0510164
0.000227505
0.000221371
0.000268907
0.0445707
0.00542129
0.0250693
0.000146722
0.000242675
0.000138682
0.000161847
0.000169415
0.000151436
0.0450517
0.000177873
0.000173374
0.00480286
0.000281734
0.000350189
0.000144085
0.000162132
0.000169574
0.000147228
0.000172991
0.0224441
0.0122348
0.0189712
0.000141343
0.000171707
0.000156129
0.0124048
0.0423653
0.000194828
0.000145748
0.000152353
0.0111609
0.000197954
0.00182003
0.0255629
0.000162581
0.000141424
0.0256838
0.000171997
0.000196398
0.000175404
0.0590625
0.00543665
0.000241108
0.000212789
0.000155612
0.00016221
0.000148139
0.00631693
0.000194487
0.0429212
0.00575265
0.000169148
0.000281554
0.000158384
0.0590418
0.00107481
0.00017392
0.000241212
0.0509142
0.000245547
0.0575321
0.000147251
0.000148537
0.0302582
0.00505659
0.00974456
0.000156476
0.000149504
0.00014863
0.0360884
0.000281355
0.000152638
0.00017384
0.000223679
0.0249133
0.0221078
0.00169801
0.000145536
0.0530943
0.000165705
0.000147386
0.000281757
0.032093
0.000150281
0.000141152
0.00359535
0.0544565
0.00016035
0.000141215
0.0315685
0.00016932
0.00245067
0.00014134
0.0109783
0.000148547
0.000202122
0.0219242
0.041697
0.000157276
0.00490205
0.00247066
0.0108752
0.00297627
0.0324871
0.000162802
0.000143944
0.000404911
0.000158598
0.000144199
0.000147018
0.00447346
0.000145137
0.0235266
0.000141388
0.000154014
0.027421
0.000212495
8.76106e-05
0.000159172
0.000384124
0.000139134
0.000182295
0.0359689
0.0190156
0.00014
0.000212625
0.00245637
0.000151543
0.000138268
0.0480893
0.000185525
0.000186372
0.000257458
0.0333168
0.000207303
0.0339931
0.0558562
0.000163957
0.00624306
0.00407466
0.000139499
0.00021267
0.000152862
0.000257916
0.000143917
0.000143245
0.029668
0.048793
0.000159668
0.027203
0.000205081
0.032994
0.000175617
0.0001734
0.000146375
0.000206937
0.000165453
0.000159199
0.000157799
0.0562774
0.0478989
0.00101017
0.0563052
0.000189627
0.0628245
0.0600966
0.000181556
0.000148183
0.000143702
0.00292158
0.000142546
0.00205861
0.000153193
0.000154602
0.000160409
0.00825201
0.0737185
0.0143101
0.000152584
0.0295884
0.000166796
0.000176382
0.000141807
0.000172296
0.0079144
0.00017235
0.0459661
0.0217043
0.000172782
0.000247059
0.000144832
0.000192111
0.000151749
0.000280695
0.000150842
0.00015874
0.000152083
0.000151227
0.000278924
0.000154894
0.000186448
0.000161116
0.000187237
0.000276347
0.0316489
0.00014394
0.000199688
0.000209272
0.000190008
0.000181587
0.0204136
0.000242418
0.000180615
0.000162411
0.000154635
0.000166038
0.000147165
0.00556512
0.000144359
0.000141944
0.000150594
0.0494758
0.000172235
0.000161051
0.000163085
0.000190039
0.000209028
0.0461832
0.000793086
0.000187489
0.000148032
0.000163808
0.000154002
0.000142894
0.000223225
0.0587403
0.000198303
0.000177692
0.00021784
0.0339385
0.000152817
0.000154483
0.0560315
0.00015783
0.000166187
0.00384519
0.0765857
0.000148805
0.000200989
0.000145057
0.0679359
0.000271823
0.000194714
0.000245993
0.0151751
0.000156425
0.0700893
0.00199622
0.000151065
0.00836359
0.000221986
0.000154067
0.00818423
0.000150098
0.000145762
0.000137538
0.000281461
0.000164369
0.000252033
0.000158913
0.000155379
0.000177307
0.00388837
0.0143476
0.0718677
0.00362923
0.000153964
0.000275686
0.000244743
0.00750413
0.00021737
0.00492294
0.000142737
0.000162965
0.000138158
0.000196003
0.000186855
0.000144936
0.0297865
0.000242762
0.000183016
0.000158885
0.000139491
0.000191694
0.000203527
0.000185671
0.00018016
0.0002128
0.000212567
0.00020765
0.000237831
0.0107962
0.000188322
0.0697999
0.00014414
0.000140484
0.000872676
0.0173191
0.00684068
0.000178798
0.000147531
0.0287634
0.00357859
0.000142484
0.000170152
0.00014027
0.000193261
0.000215498
0.00105595
0.00691263
0.0129153
0.000157995
0.0335991
0.0248526
0.000145341
0.000212395
0.0357371
0.00693811
0.000162863
0.000217678
0.00013566
0.000159451
0.000156832
0.000167789
0.0705095
0.039817
0.00601484
0.0275801
0.00015735
0.000184223
0.00020354
0.000179646
0.000148644
0.000137967
0.0361282
0.000142117
0.0611521
0.000187031
0.000186755
0.000252879
0.00789108
0.031659
0.0349422
0.000192723
0.000141444
0.000238566
0.0269571
0.0090439
0.000166215
0.000139894
0.000138219
0.000210358
0.000179547
0.000279024
0.0133272
0.000156932
0.000137722
0.000253449
0.000163375
0.0296815
0.0126517
0.000141332
0.000216826
0.000150603
0.0743103
0.000144023
0.064139
0.000154086
0.000156587
0.000173188
0.000150561
0.000188838
0.000178547
0.000198829
0.00993704
0.0482084
0.000167731
0.00017854
0.000146106
0.0309022
0.0113938
0.000143937
0.000143689
0.00211159
0.000133665
0.0433179
0.000206102
0.000179189
0.000213928
0.00020174
0.000188043
0.000154789
0.000149504
0.000214367
0.0564057
0.000144068
0.000193903
0.0243879
0.00410369
0.000255759
0.000183113
0.0352312
0.000166944
0.000280117
0.000144419
0.00366254
0.00378907
0.00805052
0.00999449
0.0198794
0.000177328
0.000163589
0.000141017
0.0247208
0.000671729
0.0547892
0.00932704
0.000172187
0.00796596
0.0181934
0.000185026
0.000158225
0.000150645
0.046537
0.000168879
0.000213877
0.000160109
0.000151951
0.000138574
0.000151172
0.0421497
0.00546757
0.000180654
0.011839
0.00489023
0.00016314
0.000145527
0.000138615
0.000161666
0.0623768
0.01528
0.00016841
0.000161537
0.000198115
0.000218747
0.000196616
0.00517119
0.000179135
0.067002
0.00017771
0.000173193
0.000144874
0.000160084
0.00021588
0.00547288
0.00354842
0.0507665
0.000214394
0.0315945
0.000154842
0.000165171
0.000180318
0.00665984
0.0186759
0.0132425
0.000173378
0.000161924
0.000148387
0.000142263
0.000144374
0.000138109
0.00565323
0.000177156
0.00656291
0.000181707
0.0312945
0.000204031
0.0643589
0.00016147
0.000169121
0.00984948
0.000190298
0.000240727
0.0500567
0.000138001
0.000167379
0.000172785
0.0145576
0.00569321
0.000185328
0.000174562
0.00714186
0.000151639
0.000194716
0.000169458
0.0180861
0.00356863
0.000163714
0.000149652
0.00364118
0.000261275
0.000248064
0.0139671
0.00025614
0.000162004
0.000140799
0.000561767
0.0566968
0.000218768
0.000179432
0.0424133
0.0282034
0.000141262
0.000146334
0.000164529
0.0543209
0.0474508
0.000144813
0.0364153
0.000154302
0.000144111
0.000151808
0.0251837
0.000282104
0.000162958
0.00651566
0.000158853
0.000158586
0.000142343
0.00749099
0.000152686
0.0317791
0.000159448
0.0113597
0.000152305
0.000144036
0.000242796
0.00533246
0.0029053
0.000187213
0.00521588
0.000149474
0.000150112
0.000146673
0.000197275
0.000211975
0.000211904
0.000184789
0.0471424
0.000164896
0.000244118
0.000217969
0.00691733
0.00014726
0.0436138
0.0522938
0.00016587
0.00631823
0.000210748
0.0149361
0.000151245
0.000212349
0.000143514
0.000239854
0.0276836
0.0002108
0.0629004
0.000160904
0.000197867
0.000156949
0.0377113
0.000142626
0.000140085
0.00970154
0.00022326
0.0168858
0.0326027
0.000209453
0.000175821
0.000137454
0.00141974
0.000172146
0.000158563
0.00028061
0.000156142
0.000195618
0.000148477
0.00164673
0.000153152
0.00501864
0.0037681
0.000172317
0.000206264
0.000204673
0.0747874
0.000148215
0.0218269
0.0250886
0.000138571
0.00014667
0.000159335
0.000152578
0.000192127
0.00014358
0.000186573
0.000218347
0.00649245
0.000189448
0.000150405
0.000153446
0.00013843
0.0401566
0.000150427
0.0001478
0.000208653
0.000162765
0.0027549
0.0611886
0.00022653
0.00016018
0.000184522
0.000158297
0.000154261
0.000166615
0.000144786
0.000163359
0.0062155
0.0670572
0.00433986
0.000158043
0.00773705
0.000195362
0.000152624
0.00594053
0.0413686
0.000144813
0.000161739
0.00014372
0.0507129
0.0149088
0.00209406
0.000144623
0.000163978
0.000154058
0.000149907
0.000249643
0.000151287
0.000166099
0.00469171
0.0657613
0.000137792
0.000163088
0.000161022
0.0191729
0.000139805
0.0132062
0.00706334
0.000167475
0.00299884
0.0324618
0.00244132
0.000153324
0.00216787
0.000200473
0.000156197
0.000137292
0.000140956
0.061085
0.00663167
0.00896898
0.00018148
0.0688823
0.000151175
0.000257148
0.000144878
0.000160742
0.000156006
0.00013768
0.0169972
0.000156351
0.0344151
0.0277533
0.0124698
0.000199152
0.000200929
0.0140619
0.0545697
0.000145308
0.00440354
0.000138184
0.000134883
0.000145019
0.00102105
0.000148029
0.0101749
0.000170707
0.00289274
0.000186181
0.00683621
0.0113787
0.00021508
0.000137461
0.000204487
0.000217601
0.0160765
0.00014729
0.000140323
0.000157966
0.0288518
0.000149866
0.00526255
0.00932887
0.000193678
0.000208927
0.000147615
0.00473513
0.000152497
0.064256
0.000136441
0.00540239
0.000180022
0.000149732
0.00982191
0.0109683
0.000137637
0.000210032
0.000165665
0.00820472
0.000162636
0.000223164
0.00311856
0.000152834
0.000204168
0.0409085
0.000155183
0.000894366
0.000153636
0.000218533
0.000182485
0.00773719
0.0394819
0.000150206
0.0438877
0.000156868
0.000196686
0.0391345
0.00903171
0.000185071
0.0442152
0.000282718
0.000149686
0.00500705
0.000266814
0.000179646
0.000156193
0.030279
0.000137817
0.0106361
0.00192588
0.000233529
0.000143868
0.000174853
0.043022
0.000197116
0.0316078
0.000154572
0.000163192
0.000210171
0.0286506
0.000168972
0.0579487
0.0185678
0.0107143
0.000151882
0.0237278
0.000647295
0.0194123
0.000144973
0.000211169
0.000147684
0.0617562
0.000160266
0.004567
0.0049142
0.000153223
0.000146593
0.000144806
0.0185144
0.0541599
0.01766
0.0119088
0.000142053
0.0390925
0.0494287
0.000264559
0.00700328
0.0448267
0.000182705
0.00990786
0.000161074
0.000168056
0.049283
0.0122968
0.000161101
0.0253339
0.000152106
0.000146917
0.0263043
0.0397004
0.0698604
0.0252642
0.000180433
0.000153107
0.000157627
0.0528589
0.0102449
0.000143961
0.000195993
0.00619119
0.00014687
0.000150801
0.0335344
0.0325961
0.000160038
0.000145183
0.000155722
0.00015756
0.000137992
0.000152522
0.000144072
0.000168897
0.000234283
0.0343081
0.000176862
0.0350034
0.000150423
0.000165811
0.0483175
0.0524661
0.000173697
0.000212937
0.00014379
0.000188145
0.000154884
0.00016689
0.000212301
0.000143459
0.00369284
0.000182035
0.000140566
0.000164692
0.00093321
0.0247667
0.0382093
0.000147248
0.000164918
0.0567629
0.0120993
0.000163719
0.000146712
0.000145664
0.00582316
0.000150996
0.000144023
0.000174513
0.000146403
0.0494213
0.000176143
0.000152838
0.000164617
0.000143426
0.000151292
0.0221859
0.000189408
0.000215886
0.00769819
0.00018614
0.000153578
0.000143622
0.000149867
0.000147326
0.000152477
0.000157321
0.000213585
0.0400079
0.000152582
0.000238326
0.03783
0.00200044
0.000146898
0.000140239
0.000161308
0.0213239
0.00014671
0.000243106
0.0180751
0.000185589
0.000158208
0.0252306
0.000146358
0.00016452
0.000139192
0.000146661
0.000150202
0.000140958
0.000166033
0.013417
0.000204033
0.000191454
0.000185805
0.000191658
0.000197084
0.000181743
0.0401186
0.00764065
0.000236412
0.0133802
0.0366352
0.000244747
0.00492109
0.000152752
0.00014902
0.0250106
0.000143252
0.000164959
0.0316225
0.000166541
0.015781
0.00024121
0.000139775
0.000232911
0.000150445
0.000165835
0.000144809
0.00100652
0.0188324
0.0343353
0.0165138
0.000150616
0.000138555
0.000216517
0.029273
0.0502979
0.000235626
0.0253903
0.00014099
0.0365
0.0465759
0.000187576
0.000162603
0.000150973
0.000148553
0.000160015
0.000149928
0.000148417
0.000164166
0.0476605
0.000219932
0.0447153
0.000189652
0.000114019
0.000141712
0.000144222
0.000145393
0.000150232
0.000140295
0.000152446
0.000194114
0.00412247
0.0136809
0.0682148
0.000160873
0.0125123
0.000248622
0.058426
0.0516687
0.000150898
0.000140523
0.00377582
0.000150743
0.000137812
0.00813711
0.0498736
0.0306943
0.000148294
0.00015055
0.000154208
0.000190431
0.00031734
0.000138249
0.000161403
0.00112379
0.000175316
0.00724631
0.000190022
0.0308976
0.000152922
0.00996972
0.0306091
0.000186134
0.0500577
0.000241193
0.0464067
0.000144876
0.000167275
0.000140739
0.000178382
0.0264428
0.000179301
0.00702363
0.000149267
0.000143386
0.000145043
0.066582
0.000196252
0.000240266
0.00391283
0.000138307
0.000194929
0.00886327
0.000204623
0.000150188
0.000154029
0.000150841
0.000190836
0.000146292
0.000141312
0.0712634
0.067847
0.0624511
0.00026134
0.000319995
0.0118425
0.00021404
0.0720052
0.000243049
0.000143724
0.00017765
0.000133859
0.000152155
0.0556136
0.0536644
0.000148994
0.00599066
0.0685887
0.000176345
0.00015215
0.000172657
0.0287789
0.0302565
0.0484642
0.000272543
0.0506351
0.000133662
0.000142269
0.000232415
0.00511313
0.0530805
0.000145251
0.00026551
0.0102522
0.00018237
0.0306582
0.000153313
0.00127793
0.0110979
0.0586864
0.000217327
0.000180977
0.0284885
0.000270328
0.0590419
0.0639157
0.0489152
0.000244313
0.0135313
0.000150794
0.000158087
0.000198619
0.0388154
0.00377047
0.0462748
0.000145239
0.000235617
0.000212485
0.000148859
0.0396674
0.000144968
0.000262036
0.0357155
0.000144611
0.0232476
0.0192418
0.063776
0.0222219
0.000124644
0.000182146
0.000144402
0.058203
0.000148971
0.000148794
0.000194058
0.000163514
0.0528881
0.000164097
0.000168376
0.000164519
0.000140707
0.00358368
0.000159704
0.000245199
0.00513021
0.00013784
0.0457471
0.000232859
0.000152345
0.00803974
0.000480885
0.000143811
0.00021774
0.000155001
0.0680091
0.000188003
0.000149836
0.000250166
0.000160013
0.0632962
0.051134
0.000217014
0.0210214
0.000163781
0.000145883
0.0293847
0.000163448
0.000147594
0.0273646
0.000190925
0.000140918
0.00014041
0.000243923
0.00015904
0.0351442
0.000119104
0.000170181
0.0143159
0.00020157
0.000210136
0.000144956
0.0656123
0.0312866
0.0194622
0.000145162
0.000146194
0.000216924
0.000179442
0.00336934
0.000147872
0.00732255
0.000145721
0.0002329
0.000143365
0.000181629
0.000252158
0.000245721
0.046134
0.0213173
0.0395351
0.0489963
0.000135084
0.018538
0.0237684
0.0365425
0.000141398
0.000280725
0.0302595
0.0106027
0.000248772
6.99228e-05
0.00252369
0.0699059
0.000195208
0.000117842
0.000137541
0.000198802
0.000193183
0.000144577
0.000214383
0.0158464
0.000167583
0.011593
0.0408841
0.000143718
0.000140515
0.000167169
0.000144814
0.0165199
0.000138312
0.000140037
0.0756409
0.00350169
0.000179408
0.000233587
0.000149269
0.000222291
0.00773283
0.052536
0.00832713
0.000167684
0.0519371
0.000154974
0.00013906
0.000160259
0.042733
0.0172048
0.000171824
0.00334865
0.000156494
0.00014066
0.000144991
0.000152807
0.000171128
0.0180012
0.0311238
0.00017641
0.0424495
0.0344873
0.000199372
0.0213146
0.000147504
0.000178623
0.000188986
0.000146112
0.000274164
0.000172288
0.000163929
0.0333914
0.0527635
0.000138522
0.000190342
0.000178473
0.000213666
0.0213042
0.0203298
0.0678555
0.00014984
0.000221919
0.0666238
0.000221693
0.000249012
0.000183118
0.0275472
0.0745389
0.0724282
0.000137838
0.0121402
0.000147737
0.00015763
0.000146805
0.00020916
0.072347
0.025678
0.00722752
0.00968905
0.000206857
0.000137653
0.000140067
0.000150696
0.000152956
0.000196374
0.0716509
0.0708
0.000218061
0.000329674
0.000152187
0.00020658
0.000138396
0.0623329
0.000207524
0.000149355
0.00024245
0.000234123
0.000492693
0.0437772
0.000243139
0.00450307
0.000166552
0.0211289
0.000458544
0.0442006
0.000668724
0.00015479
0.000206259
0.000150008
0.0326795
0.00733794
0.000193357
0.0362328
0.000189618
0.0373248
0.000212817
0.000241465
0.00018921
0.000140888
0.000252314
0.000207435
0.000164646
0.000206012
0.00018097
0.000183246
0.00915685
0.00027012
0.00016035
0.000179266
0.000188929
0.000181335
0.000152773
0.019631
0.000237205
0.00451442
0.010311
0.00014794
0.050759
0.000145351
0.000162029
0.000161896
0.0506287
0.000189283
0.0601055
0.0234186
0.000208672
0.000182868
0.000247178
0.0310457
0.000276423
0.0208604
0.00015791
0.000195691
0.000146415
0.0537955
0.00552348
0.000158218
0.000160432
0.000188388
0.00016972
0.000165266
0.000198494
0.000190718
0.000151421
0.000183731
0.0276449
0.0185491
0.000221349
0.000193869
0.000139307
0.0318623
0.000182699
0.000210167
0.000197227
0.000193311
0.00817624
0.000138015
0.000168779
0.000161456
0.000182691
0.000145688
0.051166
0.00564229
0.00135949
0.000187834
0.0453569
0.00556599
0.000168954
0.0325981
0.000211163
0.00205886
0.00910752
0.000189359
0.000164221
0.000191364
0.000213375
0.000157562
0.00177058
0.0438138
0.00469935
0.000140935
0.0106393
0.000279861
0.000201702
0.00014445
0.000196806
0.000143658
0.000179841
0.00490343
0.000177734
0.000177108
0.000141094
0.000140723
0.000285801
0.0421279
0.000148948
0.000173799
0.000514796
0.000137834
0.000163725
0.0536765
0.000237094
0.000234737
0.000146395
0.000173037
0.000229892
0.000153906
0.000144028
0.0267335
0.000177863
0.0514379
0.00022273
0.00017049
0.0722889
0.000235736
0.000259008
0.000141516
0.00365707
0.000178093
0.000171712
0.0290924
0.000193179
0.00015155
0.000222207
0.000165705
0.000158547
0.000142066
0.000224024
0.000147625
0.000206218
0.000936503
0.000231842
0.000140972
0.000144345
0.000179877
0.0218831
0.000250489
0.044041
0.00023327
0.0567687
0.000138761
0.000219487
0.000168237
0.00014332
0.00360352
0.000134343
0.000166271
0.000193132
0.000164967
0.000216854
0.044208
0.000169762
0.000190955
0.000221206
0.0330001
0.0286938
0.000235939
0.00035352
0.000139562
0.000207134
0.000185987
0.0115012
0.00708356
0.0620447
0.0167037
0.0656181
0.000140521
0.000229717
0.000144844
0.000156562
0.000151152
0.00509172
0.000249568
0.000212001
0.00014359
0.0149748
0.000173446
0.0384586
0.000150027
0.000208959
0.000179232
0.000213045
0.000195291
0.000235315
0.000159212