/*--------------------------------*- C++ -*----------------------------------*\
| =========                 |                                                 |
| \\      /  F ield         | OpenFOAM: The Open Source CFD Toolbox           |
|  \\    /   O peration     | Version:  v2012                                 |
|   \\  /    A nd           | Website:  www.openfoam.com                      |
|    \\/     M anipulation  |                                                 |
\*---------------------------------------------------------------------------*/
FoamFile
{
    version     2.0;
    format      ascii;
    class       volScalarField;
    location    "200";
    object      omega_0;
}
// * * * * * * * * * * * * * * * * * * * * * * * * * * * * * * * * * * * * * //

dimensions      [0 0 -1 0 0 0 0];


internalField   nonuniform List<scalar> 
13851
(
0.130009
0.0237008
0.0235912
5.45756
0.022083
0.0256006
0.0231239
0.0218287
5.09497
0.0220414
0.0707637
0.0220809
0.0221073
6.76654
0.0349918
0.123793
9.55523
0.0218376
0.296232
0.130456
0.0402688
0.0260145
23.973
0.0222638
5.03692
0.0602066
0.245141
0.418111
4.29896
0.0217438
5.4555
0.023137
0.126618
5.83575
0.0457317
4.16646
0.0222741
9.94063
6.62327
0.0220464
6.80037
4.30898
21.3418
0.756618
4.43627
0.0218717
0.0215255
0.120482
0.0232487
0.022102
9.42669
0.0221671
0.123851
0.0281824
6.45096
0.0220442
0.129136
6.75501
0.249545
6.73261
0.0220886
0.225837
0.0220973
0.0233932
0.247054
0.265236
8.45013
0.0687138
0.0220612
5.22746
5.3493
0.0496825
0.0220097
7.81983
0.0298657
0.02361
7.92899
0.0216436
3.87565
0.0219475
0.0220726
0.404241
0.0449597
6.38327
6.65839
5.3897
0.0261761
7.4943
0.0220282
5.45914
0.0222099
0.0232334
29.0681
5.30509
6.27434
0.434872
0.0219054
0.127466
8.71047
0.216694
0.131783
0.0440528
0.0473745
0.0220532
0.0218504
0.0485514
0.0218539
5.35749
0.0232331
0.0218236
0.031093
0.0218669
0.183159
0.0670676
0.121901
0.0275224
0.0217689
0.021788
5.68837
5.28063
0.266924
0.0217595
0.0220588
5.54788
0.229637
0.129198
0.0219042
0.0596787
6.36172
0.045217
0.0259266
0.0316561
6.16279
5.88097
0.0720509
6.23443
0.0661373
5.35485
0.0358982
0.0441255
0.382229
0.0225967
0.0220279
0.113038
3.61558
0.0233817
0.021638
5.29966
4.48841
0.0621629
0.131047
0.176876
0.0725493
0.23882
0.0222635
0.0220537
0.0221033
6.33834
0.0407633
0.0228681
0.022243
4.23981
0.0475975
0.1207
6.42403
5.01014
5.02392
7.90376
0.0305677
5.82523
0.022104
0.021773
0.0609817
0.0221393
6.49975
0.253364
0.142162
0.0217578
0.0297221
0.138939
0.223231
0.705529
0.029716
0.044486
24.1979
4.45719
0.126573
0.0296245
0.0221952
0.0218008
1.62279
0.0406983
8.90727
0.0256421
0.0232412
0.125655
0.122454
0.0219229
0.0220483
0.0741649
0.392545
6.61735
6.78081
0.035008
3.14727
6.40819
0.0237347
0.0425346
5.20814
0.0250941
0.122687
0.0220443
0.402357
0.0222354
0.046825
0.0243418
0.0220811
0.202957
0.0220049
3.81206
0.0217563
0.131467
7.24916
6.35355
0.0292769
0.0430793
0.0222643
0.0977737
0.0220119
0.0460102
6.92896
0.0292546
0.0250693
0.0221183
6.66763
0.0217366
19.4776
6.78616
0.186348
0.0222513
1.56843
6.70458
4.32051
0.122381
0.0322702
0.154744
0.185553
0.0297316
0.40436
0.0330133
7.25022
0.140935
0.0218456
0.0251897
0.128755
4.20581
5.29024
0.0217991
0.135639
0.0220249
0.170891
0.230428
0.0255144
0.0480605
0.143523
0.0219701
0.0449257
0.103753
0.402479
0.0220824
0.0220806
0.0294302
5.31501
7.4805
0.0452757
0.0217691
0.222568
0.23391
0.11091
0.0473178
5.41967
8.62528
0.0261036
0.0318317
10.7677
0.0218359
0.0221027
0.114385
0.0603839
0.0217284
0.0222326
0.0220029
0.0220013
0.0317949
0.0220961
5.16915
0.0425193
0.0219481
4.17221
5.47688
0.0221873
0.132768
9.43315
0.0227209
0.0222168
0.0447799
6.79837
8.26164
0.0665805
0.0220731
5.47014
0.0220962
0.0730792
7.66705
0.397593
0.0227784
10.2937
2.08912
5.45396
0.176401
0.0455974
6.55448
5.86907
0.43478
0.022106
6.82013
21.4776
0.896581
0.787015
0.0237551
0.0665912
0.0297913
6.7608
0.0516539
0.0218732
0.0214882
0.027482
5.38327
3.23223
0.0218297
6.17878
0.0300729
0.0319965
0.0229438
7.81945
0.22075
0.126141
0.024063
0.0245735
3.93418
0.0222029
0.242643
0.0259609
0.0447111
0.0304283
0.0220237
0.0219454
0.179306
0.238452
0.140271
3.76846
3.94522
0.0234587
6.66097
0.19816
0.0216563
0.399561
0.0910814
7.44274
0.0268644
0.063264
0.227005
5.60364
0.17214
5.93858
0.0224573
0.262327
17.5526
0.0296919
5.64526
0.0325127
6.96002
0.0313839
0.0353212
0.141723
0.325357
0.0220524
0.0257381
0.0657061
0.029918
0.0218912
0.0454932
3.95149
0.0220053
0.0429863
6.39482
0.0237311
5.83013
0.0396615
8.61264
0.025615
0.0566889
2.47334
0.234596
0.0479973
6.03185
7.83305
1.34834
0.0219725
0.176876
0.0329218
0.062403
0.0217796
23.0813
4.83214
5.15841
0.0245021
0.144238
0.231901
7.16793
0.0215546
8.64686
0.36876
23.9075
0.0340445
0.848194
0.0220316
0.0221271
7.43087
0.235131
0.0220394
0.0237577
0.043869
0.0218101
4.23614
0.0666641
0.0892022
0.0246669
0.0224677
0.0221965
4.01414
0.0219486
0.0221762
0.37355
3.81258
0.0255163
0.209062
0.022104
0.0220949
0.0240532
0.141827
0.0388772
0.0218982
0.022618
0.249887
0.0229133
9.0746
0.0220759
0.0257971
4.42737
0.0359124
0.021557
0.0221217
0.0246478
0.0220035
1.31408
1.1886
0.0324978
7.63158
0.0240729
0.022056
5.9912
0.22694
0.0356276
0.0220172
5.71098
0.0347859
7.94222
0.0220561
0.0318739
0.178638
0.0318507
6.08338
0.233489
4.27184
0.02375
0.181385
0.0219652
4.24997
0.0397108
0.12232
0.0326436
0.0238577
0.0358154
0.0611723
0.0220947
7.771
5.97419
9.41036
6.23876
1.03616
6.21725
0.238519
0.0282189
0.0222084
10.1195
0.0220449
0.0218924
0.0303323
6.67145
0.0234655
0.0226081
0.0954063
0.0489016
0.0220497
8.21374
0.0219117
6.24047
1.19998
0.0219429
0.022887
0.370594
0.402457
0.0217364
10.8475
15.5528
0.0215912
5.85332
0.288517
0.131902
0.0237248
0.413296
6.79395
0.0216002
0.326495
0.0220582
0.0219119
0.34124
7.03116
0.0391034
0.0382482
0.0220463
0.051655
6.32588
6.3649
0.0216802
7.72007
0.0218973
0.0220691
0.0484253
0.0256083
0.0215482
0.0236206
5.98324
0.295338
5.77211
0.0232025
0.0220208
5.18588
0.0221803
0.178096
0.0259815
0.0300721
0.0322926
3.8677
7.22577
0.0254129
8.67765
0.02264
0.0673597
4.32028
5.13976
0.0220632
0.0219695
0.0475574
5.84043
0.191243
0.0506396
14.1221
0.0256784
0.0304737
9.02676
8.38127
0.178571
6.2034
0.160537
4.03527
0.0223045
0.249846
0.454881
0.0220778
22.3538
7.57457
0.0305494
0.0444534
0.0220347
6.84729
0.0827316
16.9328
0.0219499
0.0221659
0.0266387
0.0483102
0.0220858
6.46318
0.0221603
0.157425
0.0238396
0.0640333
0.0220455
0.0220497
0.0474608
8.22291
0.0481476
6.13157
0.0318828
0.0218184
0.0216988
0.0615175
0.0226189
0.109334
0.0238639
0.0350076
0.245431
0.0221821
6.33204
0.0222541
0.0855626
7.5502
4.75277
0.0289726
17.488
0.0920647
0.327776
7.53785
0.0217252
8.2453
0.0300495
0.0308125
5.98193
0.576957
0.0216651
0.105877
0.0218982
4.05859
8.55087
0.0221297
0.0739785
4.63698
0.022264
0.0222529
0.0606843
7.94562
0.354826
0.0222243
0.143245
0.0227564
0.0220484
0.244146
0.145017
0.199494
0.0215447
0.10402
0.0472327
0.0525681
0.0226762
0.0230928
0.0772402
0.0264674
0.112391
0.0493756
0.0496725
0.144708
3.48046
0.296839
2.59296
10.3459
0.125583
5.21466
0.0402964
0.341113
0.134838
0.0218271
0.02987
0.257244
0.0267774
0.0219505
0.0219474
0.0860813
6.22291
0.0259761
6.63482
0.0218221
0.354166
0.163314
10.0706
0.106276
0.0257575
0.0235761
8.48615
0.197308
0.038653
0.235982
0.0223428
7.91872
0.0865332
0.158991
0.0324042
0.551633
0.0220275
0.0222458
0.0234516
0.0220469
4.39561
0.0220009
0.236978
5.31754
0.109429
6.48884
7.85569
0.164492
0.354767
0.0287553
0.0221804
0.0220643
0.0216554
0.0217004
0.0221414
0.0676761
0.174947
0.051131
0.417029
0.0229785
5.1354
0.0222936
5.27409
0.0420804
0.0222838
0.0221333
4.83541
0.0257858
0.354189
7.46589
0.0420484
0.0664994
0.0215733
6.06044
0.0242968
0.0235095
0.246138
0.0221838
0.0226064
0.0217454
0.0400472
6.44614
0.0291127
0.0325939
0.398933
6.13272
0.0292679
0.0268045
4.17594
0.0216532
4.16769
0.0222023
0.0229123
3.19592
0.0754462
0.121013
0.102305
0.0484186
0.0222279
0.0222937
0.073178
0.0223383
0.0222352
0.0262553
0.390597
0.021984
0.30015
4.30512
0.36514
0.100496
5.80823
0.0369099
0.0221759
0.170301
0.0218369
0.0257469
1.84089
3.89834
8.28478
4.06828
0.0221857
0.0221021
0.0724031
0.0229451
0.0218051
24.4095
0.1724
5.41108
0.0865157
0.0775511
0.0220484
0.0217499
7.36581
0.0902747
0.0231558
0.0222532
0.12012
0.209925
6.74865
0.0222494
0.0221522
7.79559
0.0226554
0.0324341
0.0218154
6.78751
0.0219175
6.92792
0.0220744
0.165012
0.0379016
0.0730299
0.0325572
0.0220097
0.0238024
0.0220224
0.229807
0.0226506
4.21943
0.0223914
0.382013
5.81505
0.0308108
0.022004
5.61259
1.25067
0.0258847
0.0750306
0.0220654
7.11135
0.0218377
0.259942
0.0220643
0.0220192
0.35877
0.0324427
0.0221116
0.0284803
6.58106
5.56061
5.17359
0.0218051
5.12089
0.0220754
0.0219913
0.0222626
0.021462
0.0222343
5.93735
2.50845
0.0220214
0.0221564
0.0394626
0.021867
5.25207
0.175072
5.54893
6.64865
0.0237797
0.112197
0.0220705
0.0404093
0.12849
0.0217093
0.0222105
1.97264
8.52059
0.0651933
20.2343
0.0584296
0.0221016
0.0415637
0.0759752
9.53895
0.0305999
0.320445
0.0923132
0.0222243
14.5068
12.9279
4.92625
1.5426
0.325774
0.0236886
0.149752
0.0221809
0.335478
0.0262677
0.0218752
5.53186
0.0228806
0.022005
0.0220608
0.0227462
6.55497
0.246633
0.0218614
0.0425353
6.84902
0.022974
19.4745
0.0232144
0.0734317
7.00526
0.022099
0.205346
0.0295785
0.0323358
6.16901
0.0228586
0.390613
0.0556726
6.72674
0.0219087
4.92477
0.0295205
5.45453
9.82445
6.56439
0.041764
0.022027
0.022196
0.0222638
0.0337852
0.0221242
6.21494
0.0288748
0.0279803
0.0290139
0.023622
0.0218042
0.0247782
0.0272926
0.0228943
0.0269726
7.41924
0.22375
0.0284915
0.0515814
5.5306
0.0226553
5.45485
0.0216703
0.0330208
0.0226607
0.0218901
0.0457239
0.0220506
0.0218561
0.0452578
0.0220604
0.370291
0.0224852
23.5341
0.378489
0.193874
0.285763
0.0219127
6.25173
0.151401
0.0222268
0.0271901
0.0225255
5.5856
0.0232041
0.0449535
0.405395
7.1655
0.0878731
0.0220104
4.11106
0.380096
0.321594
0.0295118
0.0218085
0.0216627
0.0667807
0.0220281
7.76177
0.180331
0.022199
0.198374
0.37888
0.0217381
7.34446
7.66436
0.168675
0.0224905
4.00264
0.067287
0.0220214
7.19627
0.0266333
0.0217466
0.021928
0.0288598
0.0342594
5.29105
5.76493
0.0364942
5.115
0.0305973
0.0220137
0.0875723
0.0219544
3.86478
0.0216944
0.0220468
0.0238876
0.0223073
5.56172
6.58463
0.191582
7.5164
8.4402
0.0291772
0.0220075
0.0224925
0.396541
0.0216753
0.0218424
0.0441961
3.99965
0.202736
0.0215984
0.039279
0.0327603
0.134915
19.6363
0.0215824
0.0215352
0.0227451
3.99995
0.0262018
6.41014
0.0230833
0.0221636
0.0217449
0.0219197
0.0242829
0.165142
3.95561
4.9119
0.0290642
0.0220564
5.59594
0.0220016
1.04726
5.95461
0.0305486
6.77033
4.37401
5.42801
0.0475789
0.0303294
5.12703
0.0294986
0.0337621
0.0748528
0.334169
0.0223236
5.54412
0.022016
1.26194
4.96792
0.0216746
0.0238446
0.0466273
0.40453
0.0320368
0.0221431
0.0262129
0.0232359
0.0244043
1.34126
0.0221638
1.69001
6.4035
0.0220183
0.0293152
0.0341347
0.0220839
3.88663
18.5013
6.3851
3.91744
0.022039
0.0244091
0.026179
0.0222615
0.190227
0.0322051
0.022257
0.056227
0.0258974
0.406841
0.0379291
8.1654
0.0231529
0.0230142
0.0520344
0.0918612
0.072975
0.0219742
19.289
5.54383
27.2098
5.87568
1.63684
5.0917
5.47396
0.0219799
0.022022
0.021832
0.188374
0.0386926
0.0728754
8.47006
0.0218779
0.0216465
0.022044
0.170375
0.0216254
0.0254064
0.0235433
0.393821
0.0229017
0.0218452
0.0220875
0.0219522
0.022163
0.0344694
0.18858
0.0338826
2.82935
0.0220315
0.0219198
6.284
5.75211
6.97537
0.361279
0.0489012
0.34942
0.0218046
0.0632763
0.0230207
0.02208
0.0231746
6.26333
0.0225663
0.0933055
7.55461
0.0219594
0.0218813
0.0264553
0.166907
0.0222721
0.361851
0.0218183
0.175027
0.0221264
0.0220241
0.0259238
0.101524
0.0221139
0.251708
5.35538
0.157571
5.66255
0.0220327
8.06654
0.298337
0.0220484
5.30146
0.0222555
0.0430335
0.0222
0.0217846
0.0219606
0.0220485
0.0223169
0.0272702
0.0633811
0.0220585
0.0220976
0.0622684
0.0216357
9.19696
0.0221268
0.0310125
0.0301177
6.023
0.398419
0.0221485
0.169077
0.0218107
0.0273174
0.0725006
0.359388
0.043821
0.0222725
0.0999708
0.0787891
0.0778925
0.363133
0.0357921
0.155327
0.0509492
0.0629193
0.0228674
0.0217753
0.361047
6.0925
0.0242785
0.0220173
18.2444
0.0218248
0.0404816
0.0219577
0.0872359
7.09927
0.0214782
7.29494
0.0254108
0.022171
0.139181
0.0218758
0.0412475
3.87476
0.0393083
0.362529
0.0219554
0.0222651
0.0442323
0.022227
0.0222468
0.0260107
0.0285397
0.0643447
0.0926043
0.0220726
0.0393011
0.0217722
0.0220634
0.0222162
0.0220519
2.21291
0.0217341
0.0232526
0.207052
0.0218199
0.0220058
5.40554
0.0222501
22.732
0.0226657
4.78485
0.213153
0.0528389
5.70901
0.0691309
2.24341
0.0221468
0.211784
0.0267166
0.021764
0.0218754
0.0232388
0.0296259
0.0219455
0.0553062
0.0219015
0.0229805
19.551
9.37163
4.76947
0.0231458
0.0473951
6.28559
5.77265
0.0221744
0.0251374
2.26762
0.0219698
0.0409069
4.96581
4.82768
0.0254951
0.0387825
0.0226598
0.401034
0.0222855
0.0358815
0.575297
0.02214
0.0218392
9.30209
0.0444751
0.197662
5.61185
0.0870531
0.0223922
0.0219058
0.0220604
6.06616
0.441192
1.37973
0.0584575
0.0220467
6.10346
0.0221104
0.181981
0.0267971
0.0225765
0.0410671
0.0220585
7.44695
8.38362
0.0215307
0.0658218
0.0396156
5.25011
0.0452008
0.0498848
0.194448
0.0302932
0.217725
0.05306
0.0221131
0.031858
0.0848126
0.428504
0.0220348
0.305238
0.0479262
0.0522645
0.0222729
8.44343
0.0250103
0.0235095
0.0218165
0.0395459
0.0382687
0.0573546
0.0221294
0.022574
0.0587034
30.3532
0.0635157
0.0221585
0.0226359
0.0316134
0.223511
0.0221731
0.0974766
10.2846
0.0485897
4.56545
0.0337184
9.20318
0.381878
0.0219801
1.86735
0.0222385
0.0247411
0.0297299
0.032539
0.107081
0.0405438
0.0434653
0.0454602
0.0305492
0.0240005
0.0216202
0.0870273
0.024435
0.028734
0.389549
0.025905
0.0302224
0.0219436
5.07822
0.088544
0.0220735
0.0238759
0.023332
6.81015
0.17785
0.0296783
4.34667
0.338624
1.36292
0.0955019
0.208084
0.0218863
0.328921
0.021825
0.0269771
10.7375
3.86939
0.363759
2.51879
0.0221225
8.04574
0.0218833
0.0737808
0.0250732
0.344402
6.01017
0.0240893
0.0220238
0.34822
0.0438905
0.0220186
5.55205
0.0220709
0.0236026
0.0244245
0.0221963
0.0303498
0.0233926
0.022043
0.0345826
0.542275
0.0376339
0.0637408
0.0220137
7.79601
3.82295
0.0220049
0.218194
0.0250041
0.0292315
1.23537
0.0220014
0.0226416
0.0278851
5.95549
0.0220297
0.0221832
0.0396086
0.311602
0.0219878
0.0320652
0.0341251
0.383812
0.047179
0.0394251
0.193929
0.0220759
0.12411
0.0216968
7.15896
0.0297591
0.022049
0.0249773
0.104674
0.0221511
0.0219458
0.139079
3.49538
0.0219858
6.72176
0.0221887
0.0216831
0.0649435
0.0220344
0.0217297
7.37668
0.0222741
0.0385473
0.136318
5.7162
0.369652
0.0216576
0.0240668
0.0281079
0.0220757
0.0220274
0.0220968
0.3371
0.0221967
0.209139
0.108015
0.0218266
0.021645
0.0294078
0.107991
0.214792
0.0569958
0.0646777
0.0236512
5.11335
0.0824055
0.0271319
0.0366193
0.0683464
0.097211
17.0459
0.0327975
4.18493
0.391977
5.52494
0.0238025
0.0219247
0.0382632
0.0345726
0.0217181
0.0219849
0.144698
0.0222438
0.022177
0.0220515
0.0215439
0.0227717
0.0218819
8.14925
0.0220209
8.94161
0.0220832
0.0926189
0.022343
0.111366
0.0829034
0.0220319
2.63003
0.024046
0.0222268
0.0364245
0.0217629
0.0307293
0.0218362
3.81956
0.0239747
0.0412535
0.107669
2.36782
0.0282962
0.212704
0.384465
0.0521782
0.0219111
0.0225671
0.11833
0.0659016
9.03111
0.0217293
5.32645
0.0220408
0.0921626
9.40116
0.0362662
0.337158
0.0250395
0.0310227
0.0246681
8.28619
0.0309308
0.0221423
0.0496792
0.145346
0.0230993
0.0220366
0.0221438
6.53486
0.0222531
0.0275726
5.87924
0.0259547
0.0219742
0.0581765
0.024671
0.4874
0.0216452
0.0220107
0.021862
0.0261755
0.0221387
0.0219329
0.0584841
5.90913
0.0219598
0.0221034
1.03621
0.0218756
6.80152
0.0226369
8.17954
0.0218235
0.024209
0.021808
4.29905
5.48718
0.0302754
0.0739442
0.0271151
0.0219223
0.0221175
3.7464
0.0221372
0.0728899
0.0217326
0.0357824
0.0221913
2.55893
0.0218336
0.0393812
0.0218547
0.607909
1.25051
0.0217503
0.0449994
7.98701
0.0623488
0.346008
0.339283
0.286203
0.0234366
0.0328463
0.0968654
0.407499
0.0218106
0.0327886
0.0281489
0.0219379
4.44879
5.9881
0.0646057
0.150318
0.36092
0.0333457
5.03495
0.0217107
0.0217485
0.107014
8.61138
0.220352
0.176807
0.370074
0.0218046
8.47242
4.5951
10.0469
0.0222031
6.93395
5.6822
1.33935
4.22864
5.19227
0.0762401
0.0299866
0.18091
0.025655
0.0219485
1.76735
0.0887607
0.0216031
5.80422
0.0221899
0.0292715
0.0396746
0.0267127
0.47749
0.0349932
6.835
0.0382886
0.0262158
0.394722
7.17759
0.137015
0.0223895
0.0258707
0.0737728
0.0605838
0.0218284
0.0483445
0.0644664
0.156457
0.0219575
0.194564
0.0241646
0.0502028
0.468986
0.219507
0.0231179
0.148653
5.86137
0.0221398
0.0226696
9.35528
0.376665
0.024002
0.0241002
0.0220926
0.0781347
0.0241074
4.2425
0.107419
0.0224858
0.0222234
0.0675516
0.0295547
0.312615
7.99227
0.021858
0.0220326
0.0274908
0.0221953
0.0237061
0.0227679
0.0224871
0.025817
0.0219271
0.0246833
0.0221832
0.0412483
0.410046
0.0222645
3.7851
13.6675
0.0216954
0.270008
0.148928
0.0936225
0.0226733
0.0876861
0.0260419
0.0828078
0.0283353
0.022989
0.0222096
8.9303
0.0253192
0.362876
0.0226574
0.0220352
0.0220219
0.0738534
0.0219551
0.0478485
0.0541607
1.93562
0.021914
0.278296
4.61777
5.59382
0.0217976
0.153177
1.10554
4.67693
0.90656
0.0225734
0.0221889
0.187784
0.360743
0.3596
0.0382963
0.221222
0.0222315
0.0217666
0.0403347
0.0221971
0.0221415
0.180867
0.0222658
0.0937082
0.0218108
7.04448
3.99485
0.444369
0.497348
5.58155
0.0221216
0.0221468
7.18763
0.0217388
0.0217587
0.0216813
0.135305
6.08806
8.27091
0.027563
0.0218185
0.0229416
0.0374418
6.16423
0.0220378
0.343663
7.09319
0.0221903
0.0221784
4.94281
0.0691273
0.0225113
0.0220398
5.01584
5.90716
0.0218536
0.174984
0.0222541
5.57523
3.62186
0.0225293
6.74175
7.97943
1.90112
0.0218009
0.0218128
0.0222458
0.0222862
5.71826
0.0218971
0.277686
0.212034
10.6458
0.0224033
0.06006
0.326079
0.0489542
6.96209
5.63217
0.0216165
0.0246028
0.0247809
0.118602
4.35003
0.0215354
5.96022
0.0321354
0.038459
0.0226816
0.0219483
0.310887
0.0401112
5.29057
0.0221969
0.0569185
0.0223462
0.113871
0.0235024
5.85818
0.389518
0.317349
0.0817623
0.0219517
0.0237179
0.0819287
0.244941
5.20643
7.64776
0.02215
0.350231
0.095556
7.18361
0.0244615
0.0439193
0.0392958
0.0219581
3.04436
0.0220705
0.0309276
3.94841
6.94415
1.83203
6.38329
0.0282338
0.0467961
0.0216905
7.1237
0.0272022
3.37112
0.021676
1.25598
0.0214876
0.0220005
0.0306077
0.0314536
0.0325459
0.021952
4.58824
0.0379866
0.0218999
0.0376378
4.51975
0.716509
0.0220297
5.88607
0.0241582
0.0306952
0.0287659
0.0216803
0.0659463
0.0219929
9.83664
0.0853309
0.0247777
0.0220257
0.402002
0.038784
0.0216725
0.968707
0.480342
0.21664
0.0215205
0.374267
0.0221425
0.164064
0.025739
0.130129
1.02474
4.78865
0.0348527
6.26852
0.0502433
0.0283986
0.0218122
2.23537
0.123455
0.109378
0.0619305
0.0222436
0.357397
0.0922946
0.405966
0.201149
7.69771
4.53344
5.62264
6.375
0.0288548
0.0317029
0.0220971
0.021947
0.0215554
0.155569
0.0289994
0.0329759
6.32893
0.0219296
0.0218559
0.0359014
0.144463
0.0265753
0.0218028
6.70226
0.0237747
0.0401801
0.0221647
7.04139
0.0287478
5.73798
0.057516
0.0326974
0.0532517
0.0220898
8.68941
0.311014
0.0723372
0.0220107
0.0219103
7.78671
5.42552
4.12378
0.0217593
0.0737046
0.336103
0.0219019
0.022008
0.0220215
6.15383
0.105976
0.0344012
0.0249034
0.0247041
1.54129
0.0947918
0.220281
0.0244616
0.0310024
0.0215344
0.139277
0.0561533
0.0220086
3.58323
5.73317
6.44766
3.19459
5.44103
9.14847
7.19846
0.0231627
0.0216991
5.0068
6.39971
3.2359
0.022039
0.0382326
0.0220494
0.0219555
0.330237
6.97912
0.0603933
0.0220013
0.245754
0.0912899
0.0482247
5.42938
1.31414
0.223123
0.0219157
5.93213
0.327234
0.401917
0.0289236
0.0408874
0.0221828
0.0218696
0.0384752
0.0454126
0.0242154
0.0361564
0.026559
0.0248751
0.180711
5.01142
0.0315386
0.0374412
5.61488
0.168845
0.0221121
0.491381
1.08143
5.22516
0.0408471
0.0219974
0.0283719
0.0265657
0.0300945
0.0216776
0.0334045
0.0287202
0.0406522
0.277711
0.0222307
0.0228051
4.64591
4.00933
7.0223
0.321357
0.0979525
0.0214777
0.0220476
0.0294574
0.0216878
8.00298
0.0220367
0.0222738
0.0217016
3.66081
20.4591
0.0223949
0.0577614
0.0280414
0.0354729
0.0293034
0.0353083
0.0375408
0.0372466
5.47595
0.0251
6.0512
0.0390031
6.92171
0.0288375
0.021936
0.0218081
0.0906005
0.140653
0.0218217
0.0396093
0.0289963
0.0600204
0.446884
6.37099
0.401485
0.0222736
0.433599
0.0296735
0.0363179
0.0220268
0.0715773
0.0235729
4.07822
2.31186
0.0397224
0.0220791
3.91921
0.0273865
5.31595
6.40111
0.183027
0.0241099
0.131878
0.658553
0.421314
5.3363
0.0610547
0.0218817
0.039694
0.0217394
9.79693
0.0244741
0.031385
0.245638
6.73292
0.0218531
0.0219397
5.48087
0.0416784
9.07334
0.032888
0.0220411
0.0423851
0.189666
0.043875
0.359778
0.035705
0.402541
0.0246628
0.0222457
0.0219228
0.307688
0.0226604
0.139679
0.0220483
0.0219423
0.299505
0.0247255
0.0219695
0.0220377
0.0350666
0.381755
0.0375576
0.0386146
0.0263867
0.0616692
0.0220179
0.175008
0.0295995
0.0415637
0.0719028
0.0252935
0.0909999
0.0459877
0.0217296
0.0627356
6.64865
3.81901
0.0219345
2.91386
5.25803
0.0219516
0.0226746
0.953616
5.39015
0.0279964
4.92182
0.367983
0.0217954
0.0772496
0.0215562
0.0250774
0.0617531
11.0473
0.585335
0.191155
0.301299
3.29543
5.76422
0.0225755
5.05215
0.0220342
0.324505
5.75026
0.0221012
0.0220837
3.97052
0.0221183
0.022086
0.249976
4.41813
0.205454
0.0246514
5.63943
0.0221042
3.78319
4.93734
0.0221905
0.272233
5.0438
6.02036
4.27048
4.81681
4.15264
0.0218746
0.0232207
0.0615602
0.0610344
0.0220801
0.167525
0.0220388
4.70974
0.229413
0.0499471
0.205701
4.61571
0.223425
0.186285
0.0608426
9.49623
0.541402
0.0241049
0.0216053
0.342707
0.0347124
0.0217384
8.28811
0.0219668
0.351588
0.0221454
6.68885
0.0241265
0.0219733
21.5568
0.0275338
0.0356732
4.19546
6.72626
2.88943
0.0256568
0.037778
0.0232722
0.0343804
0.122548
0.0356583
0.0222101
1.86874
0.0600395
0.0327726
4.63491
0.0390102
0.0371272
0.233988
0.0746433
0.0393075
0.0219685
0.212937
0.021806
0.119662
0.236154
5.71392
0.0218702
0.0388877
5.31137
0.0226948
0.0663417
0.0278558
0.0413553
5.49482
0.0588057
0.0234635
16.6131
0.0218818
3.83309
0.0221268
0.0226083
0.116446
4.11091
0.032272
0.414089
0.68687
0.0284909
0.0220432
0.173958
0.0450819
6.35951
0.0266222
14.4079
0.137412
0.0281634
0.0284812
0.110549
0.037375
0.0766937
0.0581667
0.0383082
0.0239127
0.0218219
2.90412
0.022001
0.0280962
0.0215743
0.0991843
0.0283245
0.0568464
5.24587
0.0230665
0.215306
0.0214876
0.0221523
0.0221902
0.0222073
0.0246523
0.0219397
0.0780477
8.76026
0.0554783
0.0430649
0.0238351
0.0219683
0.213991
0.0220046
0.352232
0.456133
5.94982
0.127475
0.0347745
0.0252703
0.0221794
0.0297593
0.0998873
0.0428455
5.91933
0.0541407
6.06102
0.128267
0.0222105
0.0218391
3.86727
0.0219333
0.0282804
0.0668131
0.356707
0.0226292
6.17553
0.0221741
0.0255053
0.0220512
0.0225877
0.177319
0.0949387
0.022112
0.0290452
0.035394
0.0430263
0.0518406
0.592565
0.403184
0.301602
0.115723
0.0240977
0.0227564
0.0504632
4.00647
6.79681
4.21554
0.0292003
0.844702
0.0918947
0.022434
0.0219942
0.0533157
0.0221458
0.0286908
6.73401
0.021957
0.0217489
0.551323
0.327091
0.0406404
1.71809
0.0221153
6.42932
0.0424063
7.04831
0.029495
0.022007
3.88221
0.0601129
0.0220235
0.0751555
0.0222537
0.177364
0.0285693
0.0563661
8.31923
0.0336251
1.67736
0.0219269
5.87854
0.0221161
0.0255676
0.0223731
0.0467578
0.0221444
0.0566962
3.98153
1.18351
0.0486637
0.0318535
0.0797268
0.0218613
0.0219523
0.0225489
0.334175
0.0242654
6.89042
5.66601
0.156258
0.0222167
0.161612
0.249379
0.147056
0.0239915
6.10757
0.0219614
0.0214876
0.0219488
3.63702
0.0219582
0.0220039
4.10577
0.0219685
0.17705
0.104562
0.021668
5.42942
0.0254442
6.75684
0.0218699
0.379907
0.022637
0.0735463
9.05688
0.0633979
0.0219377
0.0251861
0.424541
0.028597
0.166114
0.0296896
0.025976
0.157743
0.0289324
0.0218742
26.6435
0.0289013
0.0257365
0.122606
0.0219603
0.021842
0.0221893
0.027344
0.0221134
0.0257764
2.22864
12.6787
0.106464
8.01427
0.0529329
0.0296663
6.84574
5.59964
0.0224286
11.231
9.32669
4.67427
2.02127
0.0304772
0.446155
4.36974
17.6104
1.97069
6.59209
0.043149
0.0859141
0.029397
0.0243422
0.0221892
1.66864
0.0222854
5.37684
0.131319
0.379188
0.0215759
0.0684364
0.0463965
0.0236327
0.0222932
0.0221188
0.129661
0.022837
0.0219621
0.0348953
5.91139
0.0235799
0.177151
0.0218258
0.132362
0.0857636
0.0221457
0.0266033
0.0219429
6.59191
5.07705
0.155822
10.2504
0.0330652
0.0867316
0.0221329
0.036299
0.0220708
0.0221884
0.0222343
2.48135
0.0217522
0.0384457
0.886294
0.0277587
0.029195
0.0219943
6.70016
0.2112
13.4431
5.66598
0.182199
0.29124
5.00912
0.335449
0.229787
10.1643
0.131997
0.0344209
1.41094
7.23772
0.0220436
5.37837
0.168576
4.62894
0.0215952
0.0587481
6.99964
0.0222735
5.34644
0.0254704
8.1183
0.0220926
0.0221101
0.0698754
0.240928
0.0248388
0.0657
0.0217356
0.0219833
4.18882
3.97576
6.69263
0.0464573
0.0218522
0.0224371
0.0221374
0.035984
1.25656
4.92939
0.382422
1.0753
0.0317777
0.0219532
0.0219839
6.95593
6.2063
0.311743
0.0263926
0.0245349
0.0855205
5.26715
6.03436
0.0214727
0.0219532
6.40808
0.0227885
0.279361
0.0278915
0.0220379
0.0322033
0.0469466
5.74687
6.02946
0.0222024
0.021745
0.0244071
0.210025
7.2822
0.0222657
0.142216
5.97026
0.0214856
0.327638
3.74018
11.8244
0.0221112
5.57596
6.2742
0.0388054
0.341484
0.0233535
0.324377
0.333859
0.0246003
0.0219354
6.27958
0.473287
0.0217972
0.135982
0.153072
0.0284485
0.245288
6.01531
4.66107
7.32786
0.0259821
0.0235668
0.0225886
6.48329
6.40311
6.16591
6.39389
5.87168
0.0216782
0.0399335
0.0220684
0.0221162
0.0247026
0.0219657
0.0220592
0.0219578
4.02685
13.8654
8.60001
0.0580886
0.190564
0.0358135
0.021839
0.0219877
5.62746
0.0221406
6.5912
4.25161
0.0221805
0.0218316
4.58877
0.022446
0.628098
0.0252936
0.0217406
0.0216717
5.84837
0.0216549
5.96612
5.6189
0.021537
0.0455717
0.0218603
0.0225026
0.0217305
0.122354
0.351188
0.021969
6.69944
0.51867
0.0238497
0.0218173
0.0225868
0.0232881
0.0222275
0.552821
6.72109
6.50175
0.035087
6.47705
0.0222731
0.0247971
0.0218459
0.193847
0.0233163
1.23848
0.0218595
4.37112
0.268111
7.15162
0.136292
0.0218556
0.0436069
0.0218805
5.79659
0.0218578
0.0283512
0.0260732
0.0249021
0.0220767
0.0222513
0.0324527
6.43774
0.0221865
0.0226355
0.0234546
0.0333578
0.151396
0.0221897
5.36602
3.90097
0.0234842
5.22983
5.26302
0.341152
6.32908
0.0215132
0.0229452
0.361187
4.80492
0.149683
3.58799
4.161
0.0322952
0.0486553
0.0289435
4.74133
0.0220346
0.0219661
3.4676
0.125179
5.26191
0.0239499
0.0216693
0.0220449
5.6523
0.0674861
0.0232785
0.26026
0.0217583
0.0556868
0.0295221
0.0296976
0.0217414
0.0221902
0.0219168
0.0240964
1.52893
5.33226
0.0215473
0.021852
6.66714
0.022021
0.0644676
0.0260536
0.0256131
0.0335719
0.022286
4.73476
0.028268
0.0253401
24.6753
0.0829759
0.0231272
0.0288144
0.022022
0.0223849
6.90166
0.303746
4.1085
0.0221077
0.022156
0.0621216
0.0271262
0.0220287
0.034812
5.67306
0.0256066
0.041136
0.025193
0.114875
0.0221167
0.0216136
5.21999
0.981175
0.708416
0.0219594
0.148753
0.021512
0.0220197
0.0605553
4.82615
0.0655237
0.0277569
0.152546
0.022443
0.0280699
0.0529904
0.806377
0.0221565
0.0216182
0.0225446
0.023369
0.0251345
0.0219544
1.39372
9.76542
0.021967
0.0319784
0.0224214
0.02157
5.07398
5.64804
5.83394
0.0702066
0.0223954
0.0525766
7.19534
0.106066
0.0878338
0.0338658
0.0296451
6.48882
0.198807
0.891834
0.0217554
0.0303879
0.0221133
0.0301022
8.32694
0.0216098
0.0402932
0.0255153
0.0297322
0.0229559
0.0217143
0.0218762
4.89604
0.0446377
0.0290605
0.0655106
0.0346444
1.94997
0.0310322
0.514718
0.0219133
6.15003
6.12861
7.40693
0.0222647
0.0307999
0.0220852
0.0219384
6.20179
0.0453037
5.87809
0.0219894
0.0454427
0.11937
5.554
0.0279472
0.021573
7.5068
0.0222855
0.0222843
0.0224941
0.0220341
6.18051
0.0217938
0.021861
0.0360514
0.0271853
0.149964
0.138103
0.0332569
5.88329
0.0217383
0.194045
0.021686
5.70798
0.0336832
0.540527
0.152087
2.98
0.102951
6.1834
0.0227509
7.15356
0.0323944
5.9829
0.217732
0.027971
0.243531
0.022116
7.19422
0.0227899
0.0375579
0.0270689
7.78314
0.130439
5.54429
0.0308495
0.0220081
6.17228
0.262686
0.0497028
0.156174
9.33027
6.57598
0.0388576
0.30058
0.0416863
0.0218631
0.0482214
0.288161
0.0704854
27.2291
0.129598
0.0217726
0.0218271
0.147702
0.0220869
1.81139
0.0726969
0.0220855
3.74216
0.458716
0.333595
0.114207
0.0218815
0.028914
0.0257419
6.20682
4.02652
0.0257095
6.29356
0.0218221
0.0315639
1.19684
0.0219978
0.0403708
0.0219266
0.0259771
0.0222514
0.171445
0.351931
0.0300911
0.0291573
0.0216763
0.153401
0.0218434
0.0218123
0.0329052
0.0219193
0.238733
6.84027
3.62295
6.42793
0.0217622
5.7878
0.0221904
0.037293
0.142429
0.0218658
8.60737
0.0710771
0.0220078
0.0215596
0.0419727
0.0374088
0.19135
0.187325
0.0258378
0.023757
5.86537
0.0594884
0.263422
0.999791
14.7547
1.00845
5.81561
1.45965
0.0221549
0.0221154
0.0467321
0.0221698
0.051071
0.0331933
7.80855
6.19186
7.60861
0.0216086
0.0217288
0.126428
0.252816
5.53518
1.43826
3.8856
0.0559319
0.0327295
1.33892
0.267831
0.0250507
6.97501
0.033187
0.0296554
5.6838
0.038128
0.0217752
0.836017
1.0689
0.023711
0.152108
0.0230903
4.05664
5.55785
0.558578
0.0220093
0.0216656
0.132497
0.0220118
0.0218268
0.0220164
0.0217073
0.0220227
0.0220301
5.98858
0.0277703
0.046757
5.48666
0.0218961
0.0220398
0.0309231
0.0244672
0.0253635
0.0220486
0.0669977
0.0304023
0.0263821
0.087528
5.93041
0.0220604
0.041402
0.0220732
0.0220326
0.0215296
0.0220863
6.61515
0.0218426
0.0220196
0.0220999
0.0434783
6.14523
5.48118
6.33391
1.65679
0.0439565
5.95478
7.15299
0.0219533
0.0424391
4.0529
0.200787
0.0221143
0.0262665
0.0400888
0.0380514
0.0220627
0.0358365
0.0583009
0.0449124
0.0216088
0.054055
0.49637
0.021549
1.80723
7.19129
0.042545
0.708267
0.0352104
0.0220917
0.0248833
0.0220057
0.250133
6.41856
0.0216191
0.043579
0.021966
0.0219817
0.0221675
0.0222861
0.0372574
0.0221739
0.136023
0.157593
0.0256041
0.0243931
0.0454988
0.0220466
0.0448982
0.0302139
0.0222671
0.022104
0.0221432
7.2105
0.0220068
0.253715
0.0375631
0.0222542
0.0220172
0.0216554
6.05763
0.025162
0.0429448
0.0525095
6.79317
0.028134
6.26204
1.67748
0.0434856
0.0219686
0.223624
0.0383675
6.2778
0.0720112
5.69497
0.0215355
0.0497543
0.0487637
6.53698
0.0219969
0.0425777