/*--------------------------------*- C++ -*----------------------------------*\
| =========                 |                                                 |
| \\      /  F ield         | OpenFOAM: The Open Source CFD Toolbox           |
|  \\    /   O peration     | Version:  v2012                                 |
|   \\  /    A nd           | Website:  www.openfoam.com                      |
|    \\/     M anipulation  |                                                 |
\*---------------------------------------------------------------------------*/
FoamFile
{
    version     2.0;
    format      ascii;
    class       pointVectorField;
    location    "200";
    object      pointDisplacement;
}
// * * * * * * * * * * * * * * * * * * * * * * * * * * * * * * * * * * * * * //

dimensions      [0 1 0 0 0 0 0];


internalField   nonuniform List<vector> 
14246
(
(0 0 0)
(0.0144718 -0.10462 0)
(0 0 0)
(0.0144718 -0.10462 0)
(0 0 0)
(0 0 0)
(0 0 0)
(0 0 0)
(0 0 0)
(0 0 0)
(0 0 0)
(0 0 0)
(0 0 0)
(0 0 0)
(0 0 0)
(0 0 0)
(0 0 0)
(0 0 0)
(0 0 0)
(0 0 0)
(0 0 0)
(0 0 0)
(0 0 0)
(0 0 0)
(0 0 0)
(0 0 0)
(0 0 0)
(0 0 0)
(0 0 0)
(0 0 0)
(0 0 0)
(0 0 0)
(0 0 0)
(0 0 0)
(0 0 0)
(0 0 0)
(0 0 0)
(0 0 0)
(0 0 0)
(0 0 0)
(0 0 0)
(0 0 0)
(0 0 0)
(0 0 0)
(0 0 0)
(0 0 0)
(0 0 0)
(0 0 0)
(0 0 0)
(0 0 0)
(0 0 0)
(0 0 0)
(0 0 0)
(0 0 0)
(0 0 0)
(0 0 0)
(0 0 0)
(0 0 0)
(0 0 0)
(0 0 0)
(0 0 0)
(0 0 0)
(0 0 0)
(0 0 0)
(0 0 0)
(0 0 0)
(0 0 0)
(0 0 0)
(0 0 0)
(0 0 0)
(0 0 0)
(0 0 0)
(0 0 0)
(0 0 0)
(0 0 0)
(0.0144547 -0.10331 0)
(0.0144375 -0.102 0)
(0.0144204 -0.10069 0)
(0.0144032 -0.0993804 0)
(0.014386 -0.0980705 0)
(0.0143689 -0.0967606 0)
(0.0143517 -0.0954507 0)
(0.0143346 -0.0941408 0)
(0.0143174 -0.0928309 0)
(0.0143002 -0.091521 0)
(0.0142831 -0.0902111 0)
(0.0142659 -0.0889012 0)
(0.0142487 -0.0875913 0)
(0.0142316 -0.0862814 0)
(0.0142144 -0.0849715 0)
(0.0141973 -0.0836616 0)
(0.0141801 -0.0823517 0)
(0.0141629 -0.0810419 0)
(0.0141458 -0.079732 0)
(0.0141286 -0.0784221 0)
(0.0141115 -0.0771122 0)
(0.0140943 -0.0758023 0)
(0.0140771 -0.0744924 0)
(0.01406 -0.0731825 0)
(0.0140428 -0.0718726 0)
(0.0140256 -0.0705627 0)
(0.0140085 -0.0692528 0)
(0.0139913 -0.0679429 0)
(0.0139742 -0.066633 0)
(0.013957 -0.0653231 0)
(0.0139398 -0.0640132 0)
(0.0139227 -0.0627033 0)
(0.0139055 -0.0613934 0)
(0.0138884 -0.0600835 0)
(0.0138712 -0.0587736 0)
(0.013854 -0.0574637 0)
(0.0138369 -0.0561539 0)
(0.0138197 -0.054844 0)
(0.0138026 -0.0535341 0)
(0.0137854 -0.0522242 0)
(0.0137682 -0.0509143 0)
(0.0137511 -0.0496044 0)
(0.0137339 -0.0482945 0)
(0.0137167 -0.0469846 0)
(0.0136996 -0.0456747 0)
(0.0136824 -0.0443648 0)
(0.0136653 -0.0430549 0)
(0.0136481 -0.041745 0)
(0.0136309 -0.0404351 0)
(0.0136138 -0.0391252 0)
(0.0135966 -0.0378153 0)
(0.0135795 -0.0365054 0)
(0.0135623 -0.0351955 0)
(0.0135451 -0.0338856 0)
(0.013528 -0.0325758 0)
(0.0135108 -0.0312659 0)
(0.0134937 -0.029956 0)
(0.0134765 -0.0286461 0)
(0.0134593 -0.0273362 0)
(0.0134422 -0.0260263 0)
(0.013425 -0.0247164 0)
(0.0134078 -0.0234065 0)
(0.0133907 -0.0220966 0)
(0.0133735 -0.0207867 0)
(0.0133564 -0.0194768 0)
(0.0133392 -0.0181669 0)
(0.013322 -0.016857 0)
(0.0133049 -0.0155471 0)
(0.0132877 -0.0142372 0)
(0.0132706 -0.0129273 0)
(0.0132534 -0.0116174 0)
(0.0132362 -0.0103075 0)
(0.0132191 -0.00899765 0)
(0.0132019 -0.00768776 0)
(0.0131848 -0.00637786 0)
(0.0131676 -0.00506797 0)
(0.0131504 -0.00375807 0)
(0.0131333 -0.00244818 0)
(0.0131161 -0.00113828 0)
(0.0130989 0.000171612 0)
(0.0130818 0.00148151 0)
(0.0130646 0.0027914 0)
(0.0130475 0.0041013 0)
(0.0130303 0.00541119 0)
(0.0130131 0.00672108 0)
(0.012996 0.00803098 0)
(0.0129788 0.00934087 0)
(0.0129617 0.0106508 0)
(0.0129445 0.0119607 0)
(0.0129273 0.0132706 0)
(0.0129102 0.0145805 0)
(0.012893 0.0158903 0)
(0.0128759 0.0172002 0)
(0.0128587 0.0185101 0)
(0.0128415 0.01982 0)
(0.0128244 0.0211299 0)
(0.0128072 0.0224398 0)
(0.01279 0.0237497 0)
(0.0127729 0.0250596 0)
(0.0127557 0.0263695 0)
(0.0127386 0.0276794 0)
(0.0127214 0.0289893 0)
(0.0127042 0.0302992 0)
(0.0126871 0.0316091 0)
(0.0126699 0.032919 0)
(0.0126528 0.0342289 0)
(0.0126356 0.0355388 0)
(0.0126184 0.0368487 0)
(0.0126013 0.0381586 0)
(0.0125841 0.0394684 0)
(0.0125669 0.0407783 0)
(0.0125498 0.0420882 0)
(0.0125326 0.0433981 0)
(0.0125155 0.044708 0)
(0.0124983 0.0460179 0)
(0.0124811 0.0473278 0)
(0.012464 0.0486377 0)
(0.0124468 0.0499476 0)
(0.0124297 0.0512575 0)
(0.0124125 0.0525674 0)
(0.0123953 0.0538773 0)
(0.0123782 0.0551872 0)
(0.012361 0.0564971 0)
(0.0123439 0.057807 0)
(0.0123267 0.0591169 0)
(0.0123095 0.0604268 0)
(0.0122924 0.0617367 0)
(0.0122752 0.0630466 0)
(0.012258 0.0643564 0)
(0.0122409 0.0656663 0)
(0.0122237 0.0669762 0)
(0.0122066 0.0682861 0)
(0.0121894 0.069596 0)
(0.0118521 -0.104654 0)
(0.0131619 -0.104637 0)
(0 0 0)
(0 0 0)
(0 0 0)
(0 0 0)
(0 0 0)
(0 0 0)
(0 0 0)
(0 0 0)
(0 0 0)
(0 0 0)
(0 0 0)
(0 0 0)
(0 0 0)
(0 0 0)
(0 0 0)
(0 0 0)
(0 0 0)
(0 0 0)
(0 0 0)
(0 0 0)
(0 0 0)
(0 0 0)
(0 0 0)
(0 0 0)
(0 0 0)
(0 0 0)
(0 0 0)
(0 0 0)
(0 0 0)
(0 0 0)
(0 0 0)
(0 0 0)
(0 0 0)
(0 0 0)
(0 0 0)
(0 0 0)
(0 0 0)
(0 0 0)
(0 0 0)
(0 0 0)
(0 0 0)
(0 0 0)
(0 0 0)
(0 0 0)
(0 0 0)
(0 0 0)
(0 0 0)
(0 0 0)
(0 0 0)
(0 0 0)
(0 0 0)
(0 0 0)
(0 0 0)
(0 0 0)
(0 0 0)
(0 0 0)
(0 0 0)
(0 0 0)
(0 0 0)
(0 0 0)
(0 0 0)
(0 0 0)
(0 0 0)
(0 0 0)
(0 0 0)
(0 0 0)
(0 0 0)
(0 0 0)
(0 0 0)
(0 0 0)
(0 0 0)
(0.0144547 -0.10331 0)
(0.0144375 -0.102 0)
(0.0144204 -0.10069 0)
(0.0144032 -0.0993804 0)
(0.014386 -0.0980705 0)
(0.0143689 -0.0967606 0)
(0.0143517 -0.0954507 0)
(0.0143346 -0.0941408 0)
(0.0143174 -0.0928309 0)
(0.0143002 -0.091521 0)
(0.0142831 -0.0902111 0)
(0.0142659 -0.0889012 0)
(0.0142487 -0.0875913 0)
(0.0142316 -0.0862814 0)
(0.0142144 -0.0849715 0)
(0.0141973 -0.0836616 0)
(0.0141801 -0.0823517 0)
(0.0141629 -0.0810419 0)
(0.0141458 -0.079732 0)
(0.0141286 -0.0784221 0)
(0.0141115 -0.0771122 0)
(0.0140943 -0.0758023 0)
(0.0140771 -0.0744924 0)
(0.01406 -0.0731825 0)
(0.0140428 -0.0718726 0)
(0.0140256 -0.0705627 0)
(0.0140085 -0.0692528 0)
(0.0139913 -0.0679429 0)
(0.0139742 -0.066633 0)
(0.013957 -0.0653231 0)
(0.0139398 -0.0640132 0)
(0.0139227 -0.0627033 0)
(0.0139055 -0.0613934 0)
(0.0138884 -0.0600835 0)
(0.0138712 -0.0587736 0)
(0.013854 -0.0574637 0)
(0.0138369 -0.0561539 0)
(0.0138197 -0.054844 0)
(0.0138026 -0.0535341 0)
(0.0137854 -0.0522242 0)
(0.0137682 -0.0509143 0)
(0.0137511 -0.0496044 0)
(0.0137339 -0.0482945 0)
(0.0137167 -0.0469846 0)
(0.0136996 -0.0456747 0)
(0.0136824 -0.0443648 0)
(0.0136653 -0.0430549 0)
(0.0136481 -0.041745 0)
(0.0136309 -0.0404351 0)
(0.0136138 -0.0391252 0)
(0.0135966 -0.0378153 0)
(0.0135795 -0.0365054 0)
(0.0135623 -0.0351955 0)
(0.0135451 -0.0338856 0)
(0.013528 -0.0325758 0)
(0.0135108 -0.0312659 0)
(0.0134937 -0.029956 0)
(0.0134765 -0.0286461 0)
(0.0134593 -0.0273362 0)
(0.0134422 -0.0260263 0)
(0.013425 -0.0247164 0)
(0.0134078 -0.0234065 0)
(0.0133907 -0.0220966 0)
(0.0133735 -0.0207867 0)
(0.0133564 -0.0194768 0)
(0.0133392 -0.0181669 0)
(0.013322 -0.016857 0)
(0.0133049 -0.0155471 0)
(0.0132877 -0.0142372 0)
(0.0132706 -0.0129273 0)
(0.0132534 -0.0116174 0)
(0.0132362 -0.0103075 0)
(0.0132191 -0.00899765 0)
(0.0132019 -0.00768776 0)
(0.0131848 -0.00637786 0)
(0.0131676 -0.00506797 0)
(0.0131504 -0.00375807 0)
(0.0131333 -0.00244818 0)
(0.0131161 -0.00113828 0)
(0.0130989 0.000171612 0)
(0.0130818 0.00148151 0)
(0.0130646 0.0027914 0)
(0.0130475 0.0041013 0)
(0.0130303 0.00541119 0)
(0.0130131 0.00672108 0)
(0.012996 0.00803098 0)
(0.0129788 0.00934087 0)
(0.0129617 0.0106508 0)
(0.0129445 0.0119607 0)
(0.0129273 0.0132706 0)
(0.0129102 0.0145805 0)
(0.012893 0.0158903 0)
(0.0128759 0.0172002 0)
(0.0128587 0.0185101 0)
(0.0128415 0.01982 0)
(0.0128244 0.0211299 0)
(0.0128072 0.0224398 0)
(0.01279 0.0237497 0)
(0.0127729 0.0250596 0)
(0.0127557 0.0263695 0)
(0.0127386 0.0276794 0)
(0.0127214 0.0289893 0)
(0.0127042 0.0302992 0)
(0.0126871 0.0316091 0)
(0.0126699 0.032919 0)
(0.0126528 0.0342289 0)
(0.0126356 0.0355388 0)
(0.0126184 0.0368487 0)
(0.0126013 0.0381586 0)
(0.0125841 0.0394684 0)
(0.0125669 0.0407783 0)
(0.0125498 0.0420882 0)
(0.0125326 0.0433981 0)
(0.0125155 0.044708 0)
(0.0124983 0.0460179 0)
(0.0124811 0.0473278 0)
(0.012464 0.0486377 0)
(0.0124468 0.0499476 0)
(0.0124297 0.0512575 0)
(0.0124125 0.0525674 0)
(0.0123953 0.0538773 0)
(0.0123782 0.0551872 0)
(0.012361 0.0564971 0)
(0.0123439 0.057807 0)
(0.0123267 0.0591169 0)
(0.0123095 0.0604268 0)
(0.0122924 0.0617367 0)
(0.0122752 0.0630466 0)
(0.012258 0.0643564 0)
(0.0122409 0.0656663 0)
(0.0122237 0.0669762 0)
(0.0122066 0.0682861 0)
(0.0121894 0.069596 0)
(0.0118521 -0.104654 0)
(0.0131619 -0.104637 0)
(0.0121813 0.0702321 0)
(0.0124936 0.0464742 0)
(0.0127976 0.0231092 0)
(0.0131068 -0.000439737 0)
(0.013417 -0.0240731 0)
(0.0137257 -0.0476387 0)
(0.0140346 -0.0712916 0)
(0.0143427 -0.0948161 0)
(0.013571 -0.0358848 0)
(0.013262 -0.0122663 0)
(0.0123358 0.0584532 0)
(0.0141884 -0.0829798 0)
(0.0126437 0.0349136 0)
(0.0129536 0.0113256 0)
(0.0138787 -0.05935 0)
(0.0113436 -0.10467 0)
(0.000493853 -0.0027925 0)
(0.000363386 -0.00478264 0)
(0.000631286 -0.00235832 0)
(0.000796405 -0.000807391 0)
(0.000316463 -0.00612092 0)
(0.000213105 -0.00750605 0)
(0.000655021 0.000854057 0)
(0.0144226 -0.101322 0)
(0.000408263 -0.00283645 0)
(0.000334065 -0.00359137 0)
(0.000263901 -0.00254346 0)
(0.0141205 -0.0777983 0)
(0.0128839 0.0166136 0)
(0.0139475 -0.0646678 0)
(0.0125763 0.040097 0)
(0.0134856 -0.0293302 0)
(0.0136583 -0.0424917 0)
(0.0133312 -0.0175498 0)
(0.0131761 -0.00570583 0)
(0.0124209 0.0518693 0)
(0.0142766 -0.0896358 0)
(0.0127305 0.0283287 0)
(0.0130396 0.00475084 0)
(0.0122665 0.0638026 0)
(0.0137945 -0.0529025 0)
(0.000298237 -0.00232226 0)
(0.000359146 -0.00557288 0)
(0.000622425 -0.00295148 0)
(0.000613158 -0.00136254 0)
(0.00016843 -0.00151232 0)
(0.000202309 -0.00166748 0)
(0.000110643 -0.000944893 0)
(0.000288537 -0.00668138 0)
(0.000132479 -0.00682871 0)
(0.000357834 -0.00429449 0)
(0.000635626 -0.00193402 0)
(0.000652537 0.000230371 0)
(0.00047345 -0.00293467 0)
(0.000301258 -0.0030524 0)
(0.000384988 -0.00284782 0)
(0.000219524 -0.00203171 0)
(0.000115159 -0.00101266 0)
(5.30288e-05 -0.000460311 0)
(0.000301671 -0.00635964 0)
(0.000597863 -0.0120123 0)
(0.000628144 -0.0116426 0)
(0.000889552 -0.0170632 0)
(0.000932615 -0.0165795 0)
(0.00117643 -0.0215678 0)
(0.00122814 -0.0209842 0)
(0.00146337 -0.0256814 0)
(0.0015173 -0.0249749 0)
(0.00174605 -0.0293317 0)
(0.00179863 -0.0284936 0)
(0.00201878 -0.0324737 0)
(0.00207059 -0.0315212 0)
(0.00228428 -0.0352589 0)
(0.00233566 -0.0341922 0)
(0.00254469 -0.0377275 0)
(0.00248607 -0.0388608 0)
(0.00274105 -0.0411139 0)
(0.0026724 -0.0422636 0)
(0.00292395 -0.044326 0)
(0.00284371 -0.0454643 0)
(0.00309432 -0.0473663 0)
(0.00300285 -0.048498 0)
(0.00325194 -0.0502434 0)
(0.00315307 -0.0514171 0)
(0.0033999 -0.0529634 0)
(0.00330348 -0.0541636 0)
(0.00354097 -0.0555373 0)
(0.00343494 -0.056685 0)
(0.0036702 -0.0579544 0)
(0.00355223 -0.0590816 0)
(0.00379168 -0.060249 0)
(0.00366421 -0.0613282 0)
(0.00390474 -0.0624566 0)
(0.00376355 -0.0634682 0)
(0.00400795 -0.0645281 0)
(0.00385921 -0.0655332 0)
(0.00410789 -0.0664799 0)
(0.00395073 -0.0674775 0)
(0.00420445 -0.0683269 0)
(0.00404077 -0.0693202 0)
(0.00430107 -0.0700926 0)
(0.00413015 -0.0710918 0)
(0.00445705 -0.0690507 0)
(0.00456206 -0.0707344 0)
(0.00471078 -0.0696462 0)
(0.0048228 -0.0712579 0)
(0.00496525 -0.0701218 0)
(0.00508484 -0.0716723 0)
(0.00522191 -0.0704809 0)
(0.00535372 -0.0719782 0)
(0.00547791 -0.0707199 0)
(0.00561851 -0.0720902 0)
(0.0057304 -0.0708715 0)
(0.00587307 -0.0721202 0)
(0.00598093 -0.070891 0)
(0.00613513 -0.0721695 0)
(0.00622969 -0.0707791 0)
(0.00640021 -0.0720575 0)
(0.00647884 -0.070579 0)
(0.00665766 -0.0717693 0)
(0.00552743 -0.073515 0)
(0.00672395 -0.0702474 0)
(0.00690854 -0.0713699 0)
(0.00696223 -0.0697844 0)
(0.00715312 -0.0708452 0)
(0.00719552 -0.0692007 0)
(0.00739389 -0.070199 0)
(0.00742212 -0.0684949 0)
(0.00762586 -0.0694011 0)
(0.00723114 -0.0674999 0)
(0.00763753 -0.0676909 0)
(0.0078425 -0.0684571 0)
(0.00783761 -0.066734 0)
(0.00805012 -0.0673871 0)
(0.00802655 -0.0656023 0)
(0.00824253 -0.0661215 0)
(0.00820828 -0.0643459 0)
(0.00842145 -0.064801 0)
(0.00838022 -0.0629535 0)
(0.00859728 -0.0633451 0)
(0.00853816 -0.061411 0)
(0.0087602 -0.0616692 0)
(0.00832028 -0.0611533 0)
(0.00683919 -0.0728864 0)
(0.00868162 -0.0597235 0)
(0.00890421 -0.0598455 0)
(0.00881257 -0.0579046 0)
(0.00903033 -0.0578886 0)
(0.00912672 -0.0597435 0)
(0.00924667 -0.0577598 0)
(0.00914687 -0.0558316 0)
(0.00935751 -0.0556223 0)
(0.00946269 -0.0575292 0)
(0.00956648 -0.0552657 0)
(0.00945411 -0.0533496 0)
(0.00965662 -0.0528707 0)
(0.00977323 -0.0547724 0)
(0.00985695 -0.052249 0)
(0.00973327 -0.0503559 0)
(0.0099284 -0.049585 0)
(0.00979841 -0.0477094 0)
(0.00998871 -0.046779 0)
(0.010117 -0.0486843 0)
(0.0101746 -0.045765 0)
(0.0100398 -0.0438089 0)
(0.0102198 -0.0426531 0)
(0.0103842 -0.0447753 0)
(0.0103938 -0.0412924 0)
(0.010253 -0.0393963 0)
(0.0104112 -0.0379935 0)
(0.0105669 -0.0396178 0)
(0.0105624 -0.0361503 0)
(0.0103955 -0.0344695 0)
(0.0105628 -0.032845 0)
(0.010711 -0.0342309 0)
(0.0107064 -0.0309397 0)
(0.0105544 -0.0295122 0)
(0.0106873 -0.0274915 0)
(0.0105303 -0.0261729 0)
(0.0106565 -0.0240009 0)
(0.0108132 -0.0252299 0)
(0.0107741 -0.0216626 0)
(0.010615 -0.0205053 0)
(0.0107246 -0.0180819 0)
(0.0105633 -0.0170219 0)
(0.0106651 -0.0145117 0)
(0.0108251 -0.0155109 0)
(0.010757 -0.0118522 0)
(0.0105965 -0.0110088 0)
(0.0106806 -0.00832209 0)
(0.0108389 -0.00906565 0)
(0.0107544 -0.00549754 0)
(0.0105959 -0.00486806 0)
(0.0106623 -0.00199743 0)
(0.0105035 -0.00146352 0)
(0.0105638 0.00141322 0)
(0.0107178 0.00100468 0)
(0.0106128 0.00440492 0)
(0.0104596 0.00471793 0)
(0.0105006 0.00773432 0)
(0.0106516 0.00749725 0)
(0.0105318 0.010872 0)
(0.0103807 0.0109692 0)
(0.0104044 0.0141254 0)
(0.0102537 0.014059 0)
(0.0102713 0.0171609 0)
(0.0101209 0.0170076 0)
(0.0101325 0.0200593 0)
(0.0102786 0.020318 0)
(0.0101343 0.0231538 0)
(0.00998875 0.0228599 0)
(0.00998632 0.0258759 0)
(0.010128 0.0262328 0)
(0.00997519 0.0288919 0)
(0.00983378 0.0284795 0)
(0.00981624 0.0314449 0)
(0.00967685 0.0309495 0)
(0.00965228 0.0338844 0)
(0.00299342 -0.0431244 0)
(0.00804752 -0.06918 0)
(0.00386164 -0.0702547 0)
(0.00393683 -0.0720178 0)
(0.00366634 -0.0711293 0)
(0.00373168 -0.0729108 0)
(0.0034598 -0.0719539 0)
(0.00603898 -0.0694891 0)
(0.00187416 -0.0950336 0)
(0.0020779 -0.0957143 0)
(0.002461 -0.0951509 0)
(0.00272095 -0.0957962 0)
(0.00306167 -0.095169 0)
(0.0033601 -0.0957965 0)
(0.00366482 -0.0951069 0)
(0.00399338 -0.0957192 0)
(0.00330402 -0.0578067 0)
(0.00424512 -0.0949786 0)
(0.00460528 -0.0955415 0)
(0.00178018 -0.0943748 0)
(0.00479934 -0.0947672 0)
(0.00517729 -0.0952667 0)
(0.00367517 -0.0964169 0)
(0.00532479 -0.0944698 0)
(0.00571163 -0.0949233 0)
(0.00446446 -0.0942226 0)
(0.00581674 -0.0940947 0)
(0.00620545 -0.0945026 0)
(0.00612499 -0.0953289 0)
(0.00661711 -0.0948585 0)
(0.00666049 -0.094002 0)
(0.00707018 -0.0943 0)
(0.00707747 -0.0934139 0)
(0.00747959 -0.0936519 0)
(0.00749482 -0.0945425 0)
(0.00788997 -0.0938367 0)
(0.00364267 -0.0543493 0)
(0.00792711 -0.0947313 0)
(0.00830573 -0.0939612 0)
(0.00824187 -0.0930472 0)
(0.00864285 -0.093092 0)
(0.00872962 -0.0940027 0)
(0.00904851 -0.0930511 0)
(0.00893752 -0.0921362 0)
(0.0093198 -0.0920235 0)
(0.00945363 -0.0929215 0)
(0.00969508 -0.0918218 0)
(0.00984779 -0.092698 0)
(0.0100602 -0.0915131 0)
(0.00990463 -0.0906411 0)
(0.0102459 -0.0902462 0)
(0.0104092 -0.0910841 0)
(0.0105692 -0.089742 0)
(0.0107407 -0.0905395 0)
(0.0108677 -0.0891609 0)
(0.011052 -0.0898553 0)
(0.0111424 -0.0884295 0)
(0.0113362 -0.0890332 0)
(0.0114007 -0.0874919 0)
(0.0115969 -0.0880529 0)
(0.0116435 -0.0863742 0)
(0.011834 -0.0868856 0)
(0.0118617 -0.0851231 0)
(0.0120449 -0.0855678 0)
(0.0120538 -0.0837728 0)
(0.0122318 -0.0840869 0)
(0.012227 -0.0822474 0)
(0.0123989 -0.0823875 0)
(0.012384 -0.08052 0)
(0.0125499 -0.0805187 0)
(0.0125266 -0.0786212 0)
(0.0126848 -0.0784771 0)
(0.0126522 -0.0766191 0)
(0.0127989 -0.0762837 0)
(0.0127558 -0.0744476 0)
(0.012893 -0.0739849 0)
(0.0128452 -0.0720937 0)
(0.0129711 -0.0715269 0)
(0.0129197 -0.0696289 0)
(0.0130354 -0.0689349 0)
(0.012979 -0.0670279 0)
(0.0130869 -0.0662588 0)
(0.0130297 -0.0643291 0)
(0.0131279 -0.0634955 0)
(0.0130688 -0.0615654 0)
(0.0131589 -0.0606487 0)
(0.0130979 -0.0587147 0)
(0.0131808 -0.0577462 0)
(0.0131183 -0.0558223 0)
(0.0131939 -0.054791 0)
(0.0131329 -0.0529309 0)
(0.0131992 -0.0517933 0)
(0.0131392 -0.0500073 0)
(0.0131985 -0.0487307 0)
(0.0131376 -0.0470018 0)
(0.0131925 -0.045612 0)
(0.0131317 -0.0439007 0)
(0.013182 -0.0424599 0)
(0.0131215 -0.0407597 0)
(0.0131671 -0.039284 0)
(0.0131077 -0.0376309 0)
(0.013148 -0.036113 0)
(0.0130891 -0.0344699 0)
(0.0131257 -0.0329562 0)
(0.013067 -0.0313079 0)
(0.0131005 -0.0297973 0)
(0.0130419 -0.0281777 0)
(0.0130726 -0.0266082 0)
(0.0130141 -0.0250432 0)
(0.0130422 -0.023355 0)
(0.012984 -0.0218644 0)
(0.0130106 -0.0201404 0)
(0.0129515 -0.0186865 0)
(0.0129758 -0.0169745 0)
(0.0129173 -0.0155457 0)
(0.0129375 -0.0137575 0)
(0.0128795 -0.0123801 0)
(0.0128966 -0.0105204 0)
(0.0128391 -0.0092029 0)
(0.0128542 -0.00733101 0)
(0.0127971 -0.00606039 0)
(0.0128106 -0.00414014 0)
(0.0127505 -0.00290172 0)
(0.0127646 -0.00091812 0)
(0.012703 0.000337815 0)
(0.0127174 0.00229801 0)
(0.0126575 0.00352644 0)
(0.0126683 0.00551183 0)
(0.0126088 0.00666373 0)
(0.0126165 0.00871623 0)
(0.0125562 0.00981174 0)
(0.012563 0.0118867 0)
(0.0125016 0.0129405 0)
(0.0125072 0.015047 0)
(0.0124444 0.0160884 0)
(0.0124494 0.0182171 0)
(0.0123863 0.0192032 0)
(0.0123884 0.021347 0)
(0.0123241 0.0222429 0)
(0.0123245 0.0244077 0)
(0.012259 0.0252899 0)
(0.0122587 0.0274505 0)
(0.0121922 0.0282855 0)
(0.0121897 0.0304638 0)
(0.01212 0.0312136 0)
(0.0121168 0.0334572 0)
(0.0120432 0.034166 0)
(0.01204 0.0364393 0)
(0.0119631 0.0370779 0)
(0.0119585 0.0393541 0)
(0.0118805 0.0399318 0)
(0.0118732 0.0422019 0)
(0.0117948 0.0427272 0)
(0.0117846 0.0450144 0)
(0.0117045 0.0453988 0)
(0.0116913 0.0477374 0)
(0.0116081 0.0480124 0)
(0.0115938 0.0503576 0)
(0.0115068 0.0505997 0)
(0.011491 0.0529068 0)
(0.0115807 0.0526418 0)
(0.0114756 0.0551665 0)
(0.0113824 0.0553867 0)
(0.0113638 0.0576509 0)
(0.0120334 0.0389882 0)
(0.0123841 0.0235946 0)
(0.0126202 0.0108083 0)
(0.0128194 -0.00224515 0)
(0.0129967 -0.0152808 0)
(0.0131278 -0.0282056 0)
(0.0129524 -0.0235168 0)
(0.0130596 -0.0389935 0)
(0.0130586 -0.053588 0)
(0.0128556 -0.0678521 0)
(0.0123725 -0.0786641 0)
(0.0132246 -0.0409013 0)
(0.0126344 0.00187012 0)
(0.0120468 0.0318631 0)
(0.0123778 0.0172932 0)
(0.0114471 -0.0858657 0)
(0.0132608 -0.0536798 0)
(0.01163 0.0454463 0)
(0.0101076 -0.0893812 0)
(0.0131836 -0.0654814 0)
(0.0129486 -0.0758268 0)
(0.00350468 -0.0737335 0)
(0.00324523 -0.0726996 0)
(0.0128228 -0.0113739 0)
(0.0124018 -0.0842748 0)
(0.0112575 -0.0904622 0)
(0.00325319 -0.0744348 0)
(0.00297284 -0.0731475 0)
(0.00298927 -0.0750804 0)
(0.002721 -0.0739711 0)
(0.00272611 -0.0757077 0)
(0.00245534 -0.0745122 0)
(0.00246322 -0.0727491 0)
(0.00219839 -0.0731008 0)
(0.00222709 -0.0713012 0)
(0.00195609 -0.0716201 0)
(0.00200522 -0.06961 0)
(0.00171814 -0.069995 0)
(0.00212616 -0.0749522 0)
(0.00325334 -0.07606 0)
(0.00178027 -0.0678587 0)
(0.00149704 -0.0682145 0)
(0.00155849 -0.066035 0)
(0.00128613 -0.066322 0)
(0.00120171 -0.0684691 0)
(0.00100387 -0.0665063 0)
(0.00090034 -0.0686127 0)
(0.0010762 -0.0642527 0)
(0.00139354 -0.0263661 0)
(0.00414494 -0.10233 0)
(0.0040187 -0.101923 0)
(0.0050457 -0.101999 0)
(0.00524175 -0.102408 0)
(0.00605588 -0.102034 0)
(0.0063404 -0.102444 0)
(0.00703023 -0.102018 0)
(0.00741573 -0.102414 0)
(0.00794789 -0.101959 0)
(0.00841684 -0.102319 0)
(0.00880033 -0.101853 0)
(0.00930571 -0.102161 0)
(0.00956526 -0.101653 0)
(0.0100766 -0.101918 0)
(0.0102307 -0.101365 0)
(0.0107318 -0.101585 0)
(0.00672542 -0.101586 0)
(0.0107876 -0.100978 0)
(0.0112691 -0.101151 0)
(0.00977298 -0.101111 0)
(0.00509807 -0.0689401 0)
(0.0112421 -0.100479 0)
(0.0116946 -0.100581 0)
(0.00862836 -0.0656501 0)
(0.00289267 -0.0495242 0)
(0.0116101 -0.0998671 0)
(0.0120189 -0.0998809 0)
(0.00788551 -0.102743 0)
(0.0068152 0.0171075 0)
(0.00709579 0.0177265 0)
(0.00700389 0.0150992 0)
(0.00671604 0.0146154 0)
(0.00690171 0.0125914 0)
(0.00718882 0.0129382 0)
(0.00708089 0.0104336 0)
(0.00736424 0.0106652 0)
(0.00725097 0.00814146 0)
(0.0069578 0.00803281 0)
(0.00712331 0.00573273 0)
(0.00741276 0.00569178 0)
(0.00728296 0.00328146 0)
(0.00698024 0.0034664 0)
(0.0071361 0.00104632 0)
(0.00743552 0.000718717 0)
(0.00728241 -0.00146602 0)
(0.00757795 -0.00191305 0)
(0.00741821 -0.0040572 0)
(0.0071158 -0.00350297 0)
(0.00724499 -0.00605424 0)
(0.00754498 -0.00668554 0)
(0.0073656 -0.00865861 0)
(0.00705795 -0.00787776 0)
(0.00717323 -0.0104481 0)
(0.00748224 -0.0113235 0)
(0.00728219 -0.0130933 0)
(0.00697023 -0.0120268 0)
(0.00707 -0.014577 0)
(0.00737484 -0.0158363 0)
(0.00715813 -0.0171752 0)
(0.0068526 -0.0158711 0)
(0.00693742 -0.0183521 0)
(0.0072328 -0.0197716 0)
(0.00700888 -0.0208155 0)
(0.00729533 -0.0223332 0)
(0.00707043 -0.0232646 0)
(0.0067777 -0.0216874 0)
(0.00683687 -0.0240134 0)
(0.00713317 -0.0257921 0)
(0.00688776 -0.0263745 0)
(0.00659541 -0.0245834 0)
(0.00663359 -0.026739 0)
(0.00689758 -0.0285754 0)
(0.00665368 -0.0288469 0)
(0.00638117 -0.027 0)
(0.00640359 -0.0290082 0)
(0.00666391 -0.0309184 0)
(0.00641246 -0.0309566 0)
(0.00666224 -0.0329227 0)
(0.00640723 -0.0328391 0)
(0.00615369 -0.0308322 0)
(0.00614683 -0.0326074 0)
(0.00638692 -0.0346578 0)
(0.00612512 -0.0343055 0)
(0.00635167 -0.0363954 0)
(0.0060893 -0.0359138 0)
(0.00629899 -0.037991 0)
(0.00603505 -0.0373837 0)
(0.0062185 -0.0393718 0)
(0.0059582 -0.0387104 0)
(0.00576688 -0.03662 0)
(0.00569658 -0.0378668 0)
(0.00587457 -0.0399795 0)
(0.00561123 -0.0389873 0)
(0.00577495 -0.0410769 0)
(0.00551253 -0.0399893 0)
(0.00566654 -0.0420959 0)
(0.00540457 -0.0408899 0)
(0.00554959 -0.0430506 0)
(0.00528132 -0.0416447 0)
(0.0051362 -0.0395042 0)
(0.00501117 -0.0401111 0)
(0.00486426 -0.0379882 0)
(0.00473743 -0.0384636 0)
(0.00458811 -0.0363487 0)
(0.00446138 -0.036711 0)
(0.0043079 -0.0345797 0)
(0.0041836 -0.0348578 0)
(0.00588613 -0.0305709 0)
(0.00541392 -0.0438021 0)
(0.0040242 -0.0327237 0)
(0.00390263 -0.0329024 0)
(0.00414054 -0.0323011 0)
(0.00374177 -0.0308108 0)
(0.00362199 -0.0308613 0)
(0.00376784 -0.0328976 0)
(0.00346088 -0.0288157 0)
(0.00348809 -0.0307278 0)
(0.00362152 -0.0327287 0)
(0.00654929 -0.0384186 0)
(0.00583351 -0.044356 0)
(0.00333885 -0.0303847 0)
(0.003455 -0.0322968 0)
(0.0101144 0.0292858 0)
(0.0106817 0.0106445 0)
(0.0101003 0.0139951 0)
(0.00953613 0.030421 0)
(0.0119637 0.0655509 0)
(0.0120141 0.065112 0)
(0.012021 0.0634732 0)
(0.012068 0.0629551 0)
(0.0120735 0.0613977 0)
(0.0121182 0.0608072 0)
(0.0121234 0.0592503 0)
(0.012166 0.0586335 0)
(0.0121721 0.0570604 0)
(0.0122119 0.0564246 0)
(0.0122188 0.0548411 0)
(0.0122565 0.0541702 0)
(0.0122635 0.0526189 0)
(0.012299 0.0519258 0)
(0.0123065 0.0503969 0)
(0.0123394 0.0497054 0)
(0.0123477 0.0481706 0)
(0.0123787 0.0474739 0)
(0.0123875 0.045939 0)
(0.0124174 0.0452181 0)
(0.0124264 0.043698 0)
(0.0124547 0.0429795 0)
(0.0124639 0.04147 0)
(0.0124905 0.0407515 0)
(0.0125005 0.0392353 0)
(0.012526 0.0384959 0)
(0.0125367 0.0369728 0)
(0.0125616 0.0362056 0)
(0.0125723 0.0347108 0)
(0.0125966 0.0339085 0)
(0.0126067 0.0325002 0)
(0.0126298 0.0316839 0)
(0.01264 0.0302942 0)
(0.0126623 0.0294848 0)
(0.0126729 0.028074 0)
(0.0126946 0.0272731 0)
(0.0127053 0.0258813 0)
(0.0127268 0.0250437 0)
(0.0127373 0.0236638 0)
(0.0127587 0.0227973 0)
(0.0127697 0.0213951 0)
(0.0127904 0.0205516 0)
(0.0128019 0.0191019 0)
(0.0128217 0.0183136 0)
(0.0128344 0.0168223 0)
(0.0128531 0.0160631 0)
(0.0128659 0.0146428 0)
(0.0128844 0.0138214 0)
(0.0128962 0.0124882 0)
(0.0129152 0.0115935 0)
(0.0129266 0.0102716 0)
(0.0129457 0.00936103 0)
(0.0129575 0.00800927 0)
(0.0129761 0.00712978 0)
(0.012988 0.00576748 0)
(0.0130062 0.00490552 0)
(0.0130182 0.00353701 0)
(0.0130362 0.00267592 0)
(0.0130482 0.00130723 0)
(0.0130658 0.000477525 0)
(0.0130778 -0.000893945 0)
(0.0130949 -0.00169841 0)
(0.0131069 -0.00307598 0)
(0.0131243 -0.00390611 0)
(0.0131361 -0.00526022 0)
(0.013154 -0.00614841 0)
(0.0131652 -0.00745354 0)
(0.0131831 -0.00835361 0)
(0.0131939 -0.00963395 0)
(0.0132121 -0.0105467 0)
(0.0132226 -0.0118286 0)
(0.0132409 -0.0127389 0)
(0.0132515 -0.0140557 0)
(0.0132696 -0.0149315 0)
(0.0132803 -0.0162581 0)
(0.0132984 -0.0171324 0)
(0.0133088 -0.0184127 0)
(0.013327 -0.0193219 0)
(0.0133369 -0.0205521 0)
(0.0133553 -0.0214988 0)
(0.0133653 -0.0227402 0)
(0.0133839 -0.0236955 0)
(0.013394 -0.0249729 0)
(0.0134122 -0.0258966 0)
(0.013422 -0.0271742 0)
(0.0134402 -0.028075 0)
(0.01345 -0.0293731 0)
(0.0134681 -0.0302516 0)
(0.0134781 -0.0315878 0)
(0.0134962 -0.0324604 0)
(0.0135055 -0.0337373 0)
(0.0135239 -0.0346408 0)
(0.0135318 -0.0358204 0)
(0.012204 0.0580187 0)
(0.0135507 -0.0367517 0)
(0.0135579 -0.0379406 0)
(0.0135774 -0.0388807 0)
(0.0135846 -0.0401128 0)
(0.0136045 -0.0410455 0)
(0.0136111 -0.0422886 0)
(0.0124078 0.0467334 0)
(0.0136313 -0.0432115 0)
(0.0136376 -0.0444724 0)
(0.0136579 -0.0453833 0)
(0.0136637 -0.0466491 0)
(0.0136844 -0.0475615 0)
(0.0136893 -0.0488061 0)
(0.0125876 0.0353334 0)
(0.0137106 -0.0497433 0)
(0.0137145 -0.050939 0)
(0.0137365 -0.0519355 0)
(0.0137391 -0.0530688 0)
(0.0137618 -0.0540857 0)
(0.0137626 -0.0551674 0)
(0.0127141 0.0265318 0)
(0.0137863 -0.0561888 0)
(0.0137858 -0.0572714 0)
(0.0138107 -0.0582948 0)
(0.0138085 -0.059387 0)
(0.0128407 0.0174249 0)
(0.0138343 -0.0603932 0)
(0.0138303 -0.0615156 0)
(0.0138569 -0.0624812 0)
(0.0138516 -0.0636381 0)
(0.013879 -0.0645705 0)
(0.0138725 -0.0657321 0)
(0.012993 0.00631601 0)
(0.013901 -0.0667182 0)
(0.0138923 -0.0678332 0)
(0.013922 -0.0688663 0)
(0.01391 -0.0698982 0)
(0.0139408 -0.0709089 0)
(0.013926 -0.071936 0)
(0.0125105 0.0377327 0)
(0.0129368 0.009012 0)
(0.0121744 0.0555755 0)
(0.0134894 -0.0330909 0)
(0.0133179 -0.0196154 0)
(0.0131205 -0.004638 0)
(0.013143 -0.00486334 0)
(0.0127453 0.0223715 0)
(0.0139588 -0.0729531 0)
(0.0139404 -0.0739751 0)
(0.0136673 -0.0479342 0)
(0.013975 -0.0750242 0)
(0.0139521 -0.0759979 0)
(0.0139883 -0.0770908 0)
(0.0139604 -0.0780185 0)
(0.0138004 -0.0604332 0)
(0.0139178 -0.0749192 0)
(0.0132577 -0.0136121 0)
(0.0139992 -0.079136 0)
(0.0139646 -0.0800345 0)
(0.012355 0.0466148 0)
(0.0119756 0.0637058 0)
(0.0133721 -0.0224106 0)
(0.0140064 -0.0811931 0)
(0.0139636 -0.0820536 0)
(0.0140065 -0.0832395 0)
(0.0139561 -0.0840646 0)
(0.0134578 -0.0289906 0)
(0.0140007 -0.085227 0)
(0.0139411 -0.0860419 0)
(0.0135412 -0.0355044 0)
(0.0139069 -0.0828431 0)
(0.0139916 -0.0872288 0)
(0.0139162 -0.0879711 0)
(0.0136232 -0.0418825 0)
(0.0139707 -0.0892208 0)
(0.0138764 -0.0898573 0)
(0.0137054 -0.048533 0)
(0.013933 -0.0911129 0)
(0.0138094 -0.057217 0)
(0.0138812 -0.063424 0)
(0.00317348 -0.0298099 0)
(0.00306144 -0.0280198 0)
(0.00779301 -0.0651021 0)
(0.0126484 0.028868 0)
(0.00326664 -0.0315478 0)
(0.00355053 -0.0341722 0)
(0.0128518 0.015072 0)
(0.0139499 -0.0698876 0)
(0.0130297 0.00215074 0)
(0.0132308 -0.013091 0)
(0.013403 -0.0262512 0)
(0.0135616 -0.0389855 0)
(0.0138614 -0.0669391 0)
(0.0137356 -0.0539797 0)
(0.0119089 -0.0991285 0)
(0.0115199 -0.099141 0)
(0.010691 0.0465249 0)
(0.0107129 0.0438296 0)
(0.0108316 0.0438118 0)
(0.01085 0.0410693 0)
(0.0109657 0.0409964 0)
(0.0109803 0.0382869 0)
(0.0110942 0.0380864 0)
(0.0110987 0.0354137 0)
(0.0112177 0.0349368 0)
(0.0112109 0.032253 0)
(0.0113334 0.0316635 0)
(0.0113243 0.0289774 0)
(0.0114425 0.0283872 0)
(0.0114342 0.0257331 0)
(0.0115448 0.025091 0)
(0.0115346 0.0225406 0)
(0.0116408 0.0217086 0)
(0.0116235 0.0192393 0)
(0.0117308 0.0182383 0)
(0.0117053 0.0157654 0)
(0.0118123 0.0146723 0)
(0.0117848 0.0122631 0)
(0.0118901 0.0110093 0)
(0.0118589 0.00873025 0)
(0.0119654 0.00739932 0)
(0.0119277 0.00515934 0)
(0.0120329 0.00383772 0)
(0.0119915 0.00154163 0)
(0.0118837 0.00291665 0)
(0.0119445 -0.000678344 0)
(0.0120508 -0.00212442 0)
(0.0120018 -0.00430365 0)
(0.0121047 -0.00582843 0)
(0.0120511 -0.00795357 0)
(0.0121517 -0.00953738 0)
(0.0120893 -0.0116086 0)
(0.0121923 -0.0132494 0)
(0.0121247 -0.0152977 0)
(0.0122267 -0.0169714 0)
(0.0121576 -0.0189432 0)
(0.012254 -0.020703 0)
(0.0121763 -0.0225382 0)
(0.0122738 -0.0244452 0)
(0.0121894 -0.0261921 0)
(0.0122865 -0.0281412 0)
(0.0122017 -0.0297803 0)
(0.0122916 -0.0317545 0)
(0.0121976 -0.0332378 0)
(0.0122868 -0.0353242 0)
(0.0121811 -0.0367273 0)
(0.0122722 -0.0388325 0)
(0.0121637 -0.0401375 0)
(0.012249 -0.0422558 0)
(0.0121354 -0.0434271 0)
(0.0122161 -0.045608 0)
(0.0120979 -0.0466527 0)
(0.012172 -0.0488692 0)
(0.0120459 -0.0497488 0)
(0.0121152 -0.0520038 0)
(0.011976 -0.0527379 0)
(0.0120458 -0.0550053 0)
(0.0118985 -0.0556509 0)
(0.01183 -0.0534597 0)
(0.0117469 -0.0562019 0)
(0.0118097 -0.0584451 0)
(0.011652 -0.058887 0)
(0.0117071 -0.0611518 0)
(0.0115429 -0.061435 0)
(0.0115887 -0.063735 0)
(0.0114205 -0.0638328 0)
(0.0114567 -0.0661305 0)
(0.0112853 -0.0660645 0)
(0.0113118 -0.0683201 0)
(0.0111377 -0.0681131 0)
(0.0111534 -0.07032 0)
(0.0109761 -0.0699947 0)
(0.0120757 -0.0343579 0)
(0.0109793 -0.0721785 0)
(0.0107982 -0.0717569 0)
(0.0120956 -0.0207252 0)
(0.0112564 -0.0638052 0)
(0.0116795 0.0131706 0)
(0.0114383 0.0228584 0)
(0.0110784 0.0332837 0)
(0.0107999 -0.0695773 0)
(0.010621 -0.0712275 0)
(0.0106078 -0.073354 0)
(0.0104304 -0.0727248 0)
(0.010406 -0.0747842 0)
(0.0102277 -0.0740526 0)
(0.0101859 -0.0760656 0)
(0.0100106 -0.0752107 0)
(0.00994694 -0.0770651 0)
(0.00978028 -0.0762137 0)
(0.0097005 -0.0779676 0)
(0.0120082 -0.0444885 0)
(0.0119918 -0.00977636 0)
(0.0118331 0.000738052 0)
(0.0116 -0.0566715 0)
(0.0138232 -0.0884986 0)
(0.0137646 -0.0902771 0)
(0.0137124 -0.0889088 0)
(0.0136381 -0.0906194 0)
(0.0140077 -0.0761247 0)