/*--------------------------------*- C++ -*----------------------------------*\
| =========                 |                                                 |
| \\      /  F ield         | OpenFOAM: The Open Source CFD Toolbox           |
|  \\    /   O peration     | Version:  v2012                                 |
|   \\  /    A nd           | Website:  www.openfoam.com                      |
|    \\/     M anipulation  |                                                 |
\*---------------------------------------------------------------------------*/
FoamFile
{
    version     2.0;
    format      ascii;
    class       surfaceVectorField;
    location    "200";
    object      Uf;
}
// * * * * * * * * * * * * * * * * * * * * * * * * * * * * * * * * * * * * * //

dimensions      [0 1 -1 0 0 0 0];


internalField   nonuniform List<vector> 
20580
(
(1.0857 0.10071 -1.68493e-21)
(1.08415 0.103719 -2.36672e-20)
(1.08299 0.100164 3.48547e-20)
(1.06689 -0.0065083 -6.39345e-21)
(1.06772 -0.00742169 2.42938e-21)
(1.06863 -0.00583791 2.76257e-21)
(1.06575 -0.00505888 9.06797e-21)
(1.06489 -0.00668127 -1.32927e-20)
(-0.217504 -0.0332798 5.9298e-20)
(-0.188855 -0.036637 -3.43231e-20)
(-0.217025 -0.0348353 -9.17254e-20)
(1.00244 -0.000597788 2.05137e-22)
(1.0022 -0.000557464 -9.88669e-23)
(1.00231 -0.000331495 -1.56195e-22)
(1.08165 -0.0163381 -2.23595e-20)
(1.08207 -0.0185225 6.94496e-21)
(1.07967 -0.0180151 -2.1008e-20)
(1.04296 0.0243084 -3.35042e-22)
(1.04298 0.0254228 4.98723e-21)
(1.01352 -0.0007155 1.29855e-21)
(1.01326 -0.000744136 -1.58655e-21)
(1.01263 -0.000458708 0)
(0.630496 0.0742953 6.69967e-22)
(0.637814 0.0737508 4.88267e-22)
(0.598229 0.0686866 2.24139e-23)
(0.991158 -0.010834 2.16581e-21)
(0.991513 -0.0101559 1.04566e-21)
(0.991978 -0.0107188 -1.52765e-22)
(1.18968 -0.0589906 5.08859e-20)
(1.18334 -0.0606847 -1.68905e-20)
(1.18841 -0.0657672 -4.268e-20)
(1.00179 -0.00933652 1.14144e-21)
(1.002 -0.00963456 -3.68976e-22)
(1.00185 -0.00975819 -3.3485e-22)
(0.98185 -0.0222812 2.01375e-21)
(0.981587 -0.0231889 -5.1783e-22)
(0.982759 -0.0227471 -2.99125e-21)
(0.339964 0.0311297 7.54874e-21)
(0.321429 0.024749 -9.44196e-21)
(0.34366 0.0345492 1.32399e-21)
(1.08036 0.0388913 6.03232e-21)
(1.08202 0.0397741 1.48923e-20)
(1.08168 0.0376169 5.24198e-21)
(1.04053 0.0689248 0)
(1.04041 0.068377 -1.25313e-21)
(1.03991 0.0690151 0)
(-0.392684 -0.0252262 1.11317e-19)
(-0.41994 -0.0239131 2.76873e-20)
(-0.407105 -0.0203881 -6.19184e-20)
(1.03376 -0.0129209 6.54707e-21)
(1.03452 -0.0127207 -6.24209e-21)
(1.03442 -0.0136356 0)
(1.17067 0.137972 -1.34533e-20)
(1.17574 0.137064 2.3791e-21)
(1.17605 0.142689 2.31167e-20)
(1.08824 0.101819 -2.8484e-21)
(1.0874 0.0985413 1.77043e-20)
(1.09572 0.0402937 -1.74629e-20)
(1.09605 0.0378742 2.84162e-22)
(1.09361 0.0390202 1.69191e-20)
(1.05133 -0.083897 1.27337e-20)
(1.04794 -0.0849439 -3.22507e-21)
(1.0491 -0.0810903 -6.92159e-21)
(0.698657 -0.345748 1.13568e-19)
(0.539527 -0.280042 -8.87411e-21)
(0.393622 -0.218255 3.34884e-20)
(1.00007 -0.000240325 5.87333e-24)
(1.00011 -0.000316309 2.37772e-23)
(1.00007 -0.000201908 2.30162e-22)
(1.36006 0.0812079 -4.13915e-20)
(1.35862 0.0786665 -4.50533e-20)
(1.29209 0.0915823 3.04776e-20)
(1.04961 0.0614417 -5.74418e-21)
(1.04893 0.0618813 4.31425e-21)
(1.04972 0.0622319 1.1444e-20)
(1.0356 0.0909707 6.28371e-21)
(1.0352 0.0920606 -7.67271e-21)
(1.03461 0.0903079 1.04422e-21)
(1.11238 0.173239 -7.40804e-21)
(1.10671 0.171634 -2.1507e-21)
(1.11556 0.177257 -1.90772e-20)
(0.785778 0.0575665 9.29787e-23)
(0.755054 0.0558414 2.21075e-21)
(0.746367 0.0553609 6.35069e-21)
(1.02076 -0.00953506 1.54238e-21)
(1.02048 -0.00998922 -8.99351e-22)
(1.02018 -0.00943219 2.86882e-21)
(-0.10531 -0.0343713 1.13336e-20)
(-0.140139 -0.0343233 -2.27525e-20)
(-0.0859808 -0.0332731 1.44346e-20)
(1.04378 0.0241483 1.56624e-20)
(1.04289 0.0235314 -8.1443e-22)
(1.07622 0.0973436 -3.08274e-21)
(1.07423 0.0963056 9.34495e-21)
(1.07661 0.0950673 -3.72234e-20)
(0.741998 0.12252 -1.95536e-20)
(0.727491 0.122907 5.42795e-21)
(0.801876 0.131895 -2.27412e-20)
(1.14432 -0.0541224 -1.85263e-20)
(1.14505 -0.0497276 -1.13014e-21)
(1.14822 -0.0541019 0)
(0.775963 0.0552958 0)
(0.813548 0.0574074 0)
(0.783449 0.0545332 0)
(1.00002 -0.000157245 0)
(1.00007 -0.000287884 0)
(1.35353 -0.104969 0)
(1.27026 -0.0979425 -3.57126e-20)
(1.25496 -0.087822 0)
(-0.00121315 0.030648 -3.16926e-21)
(0.0237183 0.034551 0)
(0.069601 0.0365374 0)
(1.00915 -0.037504 0)
(1.00983 -0.0365721 0)
(1.01035 -0.0377159 0)
(0.427285 0.120032 6.56849e-21)
(0.504672 0.131523 -1.75818e-20)
(0.446522 0.121553 -1.84224e-20)
(0.815136 0.0601382 -9.50745e-24)
(0.824061 0.059612 -2.31482e-21)
(-0.343695 -0.0216221 -4.87499e-21)
(-0.34816 -0.0224782 -4.02669e-21)
(1.15609 -0.490316 -5.70554e-20)
(1.14674 -0.497746 -4.03762e-20)
(1.14125 -0.505631 -2.38443e-20)
(0.853707 0.0669465 9.78017e-22)
(0.844458 0.0669917 0)
(0.809806 0.0635317 -5.33648e-21)
(1.01651 -0.021217 3.33875e-21)
(1.01581 -0.0214088 -7.35157e-22)
(1.01601 -0.0205543 3.6337e-21)
(1.01676 0.000472184 8.86341e-21)
(1.01656 0.000387586 -7.85647e-22)
(1.04447 0.0749166 -1.1878e-20)
(1.0436 0.0747852 -5.30122e-21)
(1.04444 0.0739837 -2.10424e-20)
(1.05123 -0.0486344 1.69864e-21)
(1.04904 -0.0472317 -2.02716e-21)
(1.05153 -0.0465472 5.61766e-21)
(0.982147 -0.0211964 2.8552e-21)
(0.980726 -0.0215748 -3.49697e-21)
(-0.289348 0.00310187 2.69437e-21)
(-0.284535 0.00249209 -2.93705e-20)
(-0.337501 -0.00368233 -1.75317e-21)
(0.973435 -0.0159283 4.78529e-21)
(0.974664 -0.0159851 -1.23758e-20)
(0.973962 -0.0171573 -2.72791e-21)
(1.04071 0.0695747 0)
(1.04121 0.0688807 1.22641e-20)
(1.05253 0.0387946 1.06347e-20)
(1.05309 0.0396009 -8.3388e-21)
(1.05197 0.0397613 1.42754e-20)
(0.418003 0.0283097 -9.32252e-24)
(0.441033 0.0343116 -2.50801e-24)
(0.410711 0.0283957 -6.46858e-21)
(1.00869 -0.0384493 0)
(1.0081 -0.037237 0)
(1.07532 0.100161 0)
(1.07863 0.0984843 1.65065e-20)
(0.403252 0.117181 1.95455e-21)
(0.362553 0.104002 -5.80908e-21)
(1.03231 0.0785808 0)
(1.03219 0.0780572 1.12632e-21)
(1.03227 0.0793617 -8.6082e-21)
(0.115536 0.0238299 -8.68022e-21)
(0.133674 0.0258211 1.93481e-20)
(0.146845 0.0325321 9.26845e-22)
(1.00161 -0.00902748 1.21336e-21)
(1.00174 -0.00892298 1.20305e-21)
(1.03639 0.0900552 -5.21994e-21)
(1.03683 0.0916235 1.58031e-20)
(0.995624 -0.00495735 4.63906e-21)
(0.995737 -0.00538162 1.59662e-21)
(0.995228 -0.00540921 3.83432e-21)
(1.05065 -0.0503776 -2.83547e-21)
(1.05298 -0.0494482 -6.57816e-21)
(0.898288 -0.486157 -3.08205e-22)
(0.923942 -0.479606 2.88913e-22)
(0.905141 -0.462121 -6.14826e-21)
(0.870734 -0.491723 -1.01437e-21)
(0.892447 -0.517332 -6.08611e-22)
(0.0974897 0.0185521 -3.31246e-21)
(0.0829513 0.013167 2.52547e-21)
(0.705188 -0.144883 0)
(0.69941 -0.16185 -2.10407e-20)
(1.02411 -0.0362123 1.9147e-21)
(1.02301 -0.0367048 2.96741e-21)
(1.02329 -0.035343 -1.51361e-22)
(-0.157371 -0.0385036 9.7787e-20)
(-0.192952 -0.0346915 -4.93046e-20)
(-0.179686 -0.0362311 2.64592e-20)
(-0.183932 -0.0254915 9.74619e-21)
(-0.224772 -0.0240153 8.42043e-20)
(-0.186602 -0.0268002 -4.08221e-20)
(1.1013 0.0478713 -4.14181e-21)
(1.1035 0.0468841 -2.72089e-20)
(1.10326 0.049949 -1.19552e-20)
(0.996389 -0.0279584 0)
(0.995522 -0.0277029 0)
(0.995802 -0.0287944 0)
(0.145249 0.0272694 3.60283e-21)
(0.111129 0.0160671 2.90325e-20)
(1.05879 0.0402794 -1.18724e-20)
(1.05907 0.0390914 1.00358e-21)
(1.05994 0.0399549 8.06917e-21)
(1.02918 -0.0705817 6.3788e-22)
(1.02664 -0.0697698 -2.04358e-21)
(1.0286 -0.067816 2.30019e-21)
(-0.369274 -0.0252703 2.81521e-20)
(-0.34886 -0.0239822 -1.91196e-20)
(1.0201 -0.00372197 2.44853e-21)
(1.02005 -0.00409056 -3.24379e-21)
(1.02059 -0.00390183 7.66521e-21)
(1.35598 0.0899885 -1.31852e-20)
(1.34475 0.0806474 2.98133e-20)
(1.00665 -0.0187416 -5.13412e-22)
(1.00641 -0.0181471 2.85051e-22)
(1.00609 -0.0185541 1.64687e-22)
(1.02543 -0.0359788 1.07398e-21)
(1.02484 -0.0374982 0)
(1.31627 -0.0196409 3.77175e-21)
(1.31507 -0.0118231 -2.93704e-22)
(1.32253 -0.0176065 -1.07989e-19)
(1.1401 -0.0549049 -4.16392e-20)
(1.14317 -0.0592281 8.02147e-21)
(0.304862 0.0276277 2.96475e-21)
(0.320088 0.0311243 7.50584e-21)
(0.335061 0.0378987 -7.60827e-21)
(0.154572 0.0270891 -2.05789e-20)
(0.176001 0.0356125 -1.96718e-20)
(-0.159697 -0.030368 0)
(-0.15 -0.02995 -6.971e-20)
(-0.110993 -0.0321805 -3.74051e-20)
(1.05385 -0.0862 4.20059e-21)
(1.05432 -0.0823469 6.16271e-21)
(0.54127 0.0282619 -1.55705e-20)
(0.50635 0.0229085 -3.20001e-21)
(0.544769 0.0282603 2.79288e-21)
(0.992251 -0.0145887 -3.4612e-21)
(0.992767 -0.0149849 5.67732e-21)
(0.992783 -0.0141837 2.12856e-22)
(-0.0849465 -0.0358202 3.64947e-20)
(-0.131135 -0.0330585 2.46685e-20)
(0.97135 -0.016074 1.01522e-20)
(0.972589 -0.0141933 -3.73677e-21)
(1.04465 0.0239194 -2.76883e-21)
(1.04459 0.024933 4.30443e-21)
(-0.358765 -0.0114497 -1.70657e-21)
(-0.358147 -0.0138963 4.97622e-20)
(-0.171963 -0.0312415 0)
(-0.203616 -0.029868 6.21616e-20)
(0.0045968 0.0475606 6.46051e-22)
(-0.0234427 0.0384915 2.26463e-21)
(-0.0509751 0.0341896 -6.27051e-20)
(1.14547 -0.465751 -3.85641e-20)
(1.13455 -0.445727 2.03529e-21)
(1.12106 -0.459901 2.20086e-21)
(1.01185 -0.0233344 2.2242e-22)
(1.01118 -0.0234402 -4.16965e-22)
(1.01192 -0.0241117 -8.66144e-23)
(1.04154 0.0724812 1.96649e-21)
(1.04128 0.0716663 -4.14134e-22)
(1.04214 0.0718381 -2.42923e-22)
(-0.152489 0.0159822 -2.60468e-20)
(-0.146133 0.0146147 4.03157e-20)
(-0.190386 0.00526012 -3.98438e-20)
(1.268 -0.164146 9.06209e-20)
(1.27795 -0.163354 -3.60914e-20)
(1.2732 -0.172913 -6.18792e-21)
(1.04173 0.0733607 -5.45631e-21)
(1.04076 0.0731155 6.38393e-21)
(0.815033 -0.139591 3.6652e-20)
(0.812478 -0.128967 -4.53822e-21)
(0.823964 -0.132848 1.65455e-20)
(0.824918 -0.172889 -2.21843e-20)
(0.822078 -0.161114 -6.84595e-20)
(0.811521 -0.170495 9.98476e-22)
(0.991404 -0.029663 -1.66719e-21)
(0.992457 -0.0298524 4.70587e-21)
(0.991738 -0.031 0)
(1.0191 -0.0200339 -9.48601e-22)
(1.01969 -0.0206354 0)
(1.01962 -0.0197608 0)
(1.11538 0.034614 -3.4536e-21)
(1.118 0.0334598 -3.68386e-20)
(1.11764 0.0372144 -4.65723e-20)
(1.01851 -0.0193617 -2.70334e-21)
(1.01834 -0.0203252 4.68162e-21)
(-0.181077 -0.0265024 5.30227e-20)
(-0.140889 -0.0287284 7.29306e-20)
(1.04453 0.022907 -1.1661e-20)
(1.04554 0.0236011 -9.83396e-21)
(1.03308 -0.0131656 8.42696e-21)
(1.03318 -0.0123308 1.79098e-21)
(1.04276 -0.12325 1.15794e-20)
(1.04563 -0.127525 -2.70096e-21)
(1.03991 -0.127224 6.8875e-22)
(1.01718 -0.021092 -4.28921e-21)
(1.0172 -0.0219232 1.5743e-21)
(1.22344 0.0631202 1.01236e-20)
(1.22014 0.0679186 -2.14724e-22)
(1.22641 0.0672636 1.15812e-21)
(1.1714 0.0060957 -3.87883e-20)
(1.16706 0.00621173 -1.60501e-20)
(1.16911 0.00198288 -5.06052e-20)
(1.06286 0.089965 0)
(1.06139 0.0890368 0)
(1.06115 0.0911652 0)
(1.052 0.0378589 -3.96783e-21)
(1.05306 0.0377032 -5.66114e-22)
(1.01466 -0.00688247 5.47866e-21)
(1.01451 -0.00713643 1.4455e-21)
(1.01502 -0.00714301 3.78245e-21)
(1.0138 -0.000609867 1.23703e-21)
(1.01385 -0.000940056 -2.81777e-21)
(-0.245775 -0.0298439 1.60817e-20)
(-0.221572 -0.033841 1.32115e-19)
(-0.127574 -0.0409157 4.36574e-21)
(-0.113409 -0.0418616 2.57103e-20)
(1.16316 -0.364046 4.45045e-20)
(1.15359 -0.376254 -1.98655e-20)
(1.17083 -0.376401 0)
(1.02843 -0.0115184 2.54166e-21)
(1.02757 -0.0117121 5.54737e-21)
(1.02776 -0.0109901 -2.90549e-21)
(1.01843 -0.0372522 0)
(1.01953 -0.0376834 -1.11458e-21)
(1.01862 -0.0386273 0)
(0.305573 0.0600921 -5.30736e-21)
(0.336202 0.0683012 1.71924e-20)
(0.298504 0.0620895 4.6694e-21)
(1.13309 0.133129 -1.49205e-20)
(1.13722 0.134367 -7.06255e-21)
(1.13245 0.137848 -2.4375e-20)
(0.612079 -0.232418 5.90303e-21)
(0.635094 -0.223992 -7.04385e-20)
(0.632759 -0.254551 5.5173e-21)
(1.01263 -0.0233876 -1.19813e-22)
(1.01194 -0.0226031 1.06789e-21)
(1.16389 -0.13118 -1.46585e-20)
(1.16046 -0.124438 8.31953e-21)
(1.15756 -0.131762 -1.65752e-20)
(0.548034 0.112216 3.099e-23)
(0.485723 0.1036 -1.5513e-23)
(0.533591 0.112464 1.96869e-21)
(1.08723 0.0492984 1.19948e-23)
(1.08789 0.0515758 2.49214e-20)
(1.08935 0.0489335 1.37921e-20)
(1.04451 -0.0851515 0)
(1.04651 -0.0881774 -6.64872e-21)
(1.10713 -0.0432584 -1.26728e-20)
(1.10747 -0.039336 4.70902e-20)
(1.10397 -0.0418032 1.94948e-20)
(1.42868 -0.115942 4.15194e-20)
(1.42318 -0.103669 6.13622e-20)
(0.76611 0.122262 -1.54864e-20)
(0.693514 0.11712 -1.17857e-20)
(1.19492 -0.0584145 5.35514e-20)
(1.19037 -0.0542223 4.85378e-20)
(-0.00816167 0.0417361 -7.6693e-22)
(-0.0517424 0.0382362 1.57886e-20)
(-0.0695057 0.0356373 -2.47006e-20)
(0.722193 -0.142028 2.62929e-20)
(-0.146447 -0.0290725 2.34607e-20)
(-0.185119 -0.0278877 -9.32658e-20)
(0.858423 -0.104623 0)
(0.848868 -0.103981 2.58305e-20)
(0.853335 -0.0961062 -1.26667e-20)
(1.08323 0.0505585 0)
(1.08177 0.049087 -1.11878e-20)
(1.08117 0.0512103 6.1505e-22)
(1.31774 -0.0279905 1.62439e-21)
(1.30898 -0.0222018 -6.13367e-20)
(0.978029 -0.0482882 -7.9089e-21)
(0.977944 -0.046266 -2.29256e-21)
(0.979829 -0.0468643 -6.75162e-21)
(0.991666 -0.0142472 1.9581e-21)
(0.991641 -0.0151595 -3.74932e-21)
(0.762735 -0.327029 -3.61308e-20)
(0.746104 -0.343127 6.104e-21)
(0.770646 -0.345351 -3.32588e-20)
(1.30999 0.143519 -4.40853e-20)
(1.30622 0.142763 -3.02445e-20)
(1.30316 0.148907 -4.15887e-20)
(1.01524 -0.0687481 3.15666e-22)
(1.01523 -0.0707782 -2.04866e-25)
(1.01288 -0.0700482 8.31717e-22)
(1.02012 -0.00336064 -2.04116e-21)
(1.01966 -0.00358264 -9.93795e-21)
(-0.18645 -0.0313114 3.40623e-20)
(0.610295 0.0499621 -9.84231e-21)
(0.61429 0.0524342 7.56952e-22)
(0.579283 0.0457859 3.60753e-21)
(1.16859 -0.135951 0)
(1.1701 -0.128924 2.77827e-20)
(1.04238 0.0735744 2.65783e-21)
(1.04169 0.0742337 1.50703e-20)
(1.2268 0.0578485 -7.24608e-20)
(1.21991 0.0588035 4.85945e-20)
(1.17563 0.00597393 -1.81527e-20)
(1.1734 0.0102157 2.23792e-20)
(1.15988 0.130384 -3.46065e-20)
(1.16477 0.129306 -4.95704e-22)
(1.16124 0.125431 -7.10706e-20)
(0.973917 -0.0252275 -1.89828e-21)
(0.974695 -0.0265698 4.29342e-21)
(0.972903 -0.0267369 6.22849e-21)
(0.984068 -0.0125502 5.68157e-21)
(0.983344 -0.0119087 0)
(0.984377 -0.0116251 8.14204e-21)
(1.00185 -0.00763973 -1.25401e-22)
(1.00176 -0.00780712 -1.38658e-21)
(1.00163 -0.00732993 2.39578e-21)
(-0.0233047 0.0249472 1.89339e-21)
(-0.0579161 0.0211997 -2.71472e-21)
(1.08278 0.0460286 4.00482e-21)
(1.08187 0.047672 -1.17464e-20)
(1.08154 0.0457816 -2.28838e-21)
(1.04945 0.0151989 1.0671e-21)
(1.04968 0.0159409 6.57963e-21)
(1.05046 0.0152446 -7.62294e-21)
(1.00014 -0.000576933 6.78407e-24)
(1.00015 -0.000505928 3.49439e-22)
(1.00022 -0.000683469 2.53503e-22)
(0.764841 0.0534261 6.17818e-22)
(0.759342 0.0551847 0)
(0.799205 0.0567666 0)
(1.11292 0.0367104 3.16649e-20)
(1.11281 0.0327169 3.58455e-20)
(1.04563 0.0749484 6.53257e-21)
(1.04481 0.0759217 1.76441e-20)
(0.357168 0.0355608 0)
(0.333827 0.0271888 5.00296e-21)
(0.748958 0.0812523 4.63751e-21)
(0.710807 0.0778583 -4.09559e-22)
(0.755881 0.0802331 7.28872e-22)
(0.736123 0.0820234 -2.61602e-21)
(0.791992 0.0861885 3.59959e-21)
(-0.297923 0.00224917 0)
(-0.253786 0.00859287 0)
(1.04551 -0.119279 -8.71411e-22)
(1.04027 -0.119041 2.59913e-21)
(1.05751 0.193933 1.69981e-20)
(1.0663 0.193692 1.67854e-20)
(0.996182 0.187506 -1.2682e-20)
(1.00144 -0.00873977 8.10084e-23)
(1.00128 -0.00843721 9.63821e-22)
(1.00137 -0.0083201 0)
(1.01488 -0.00659009 -6.68097e-21)
(1.01436 -0.00655464 -3.43369e-22)
(1.13388 0.0409535 4.35487e-21)
(1.13639 0.0385703 2.49388e-20)
(1.13292 0.0373361 2.49159e-20)
(1.00136 -0.000445818 -4.35346e-23)
(1.00123 -0.000569793 -1.46216e-23)
(1.00115 -0.000375767 -3.735e-23)
(0.0250448 0.0525665 1.53175e-20)
(0.0654286 0.0554507 6.605e-20)
(1.04749 0.111231 0)
(1.04793 0.109512 0)
(1.04623 0.109218 0)
(1.04425 0.0798956 -1.76647e-21)
(1.04479 0.0810423 -1.30845e-21)
(1.0432 0.080688 6.10161e-22)
(1.01509 -0.00632898 -4.37337e-21)
(1.01539 -0.00661424 -4.53905e-21)
(1.05665 0.0407813 -5.41242e-22)
(1.05777 0.0405446 -1.25255e-20)
(1.05684 0.039693 8.13846e-21)
(1.0437 0.0787842 0)
(1.04509 0.079031 0)
(1.12794 0.133379 1.08807e-21)
(1.13147 0.128776 4.45313e-20)
(1.1726 -0.474084 -1.74062e-20)
(1.04777 -0.11513 -1.27272e-20)
(1.04513 -0.11119 -7.1491e-21)
(1.0497 -0.110999 1.43176e-21)
(1.08492 0.0500195 0)
(1.0858 0.0475832 0)
(-0.38305 -0.0228331 -4.75234e-20)
(-0.378634 -0.0210473 0)
(0.632391 0.0538617 1.58869e-21)
(0.602958 0.0471833 -3.95116e-21)
(1.07272 0.0951164 1.52165e-20)
(1.07191 0.0973746 2.38649e-21)
(0.896341 -0.0756504 -4.21567e-21)
(0.891668 -0.0717278 -7.59197e-22)
(0.890951 -0.0787068 -2.46815e-20)
(0.978469 -0.0274639 -5.67476e-22)
(0.9778 -0.0262972 1.16043e-20)
(0.979302 -0.0261671 7.05345e-21)
(1.01933 -0.0140023 -1.66875e-21)
(1.01946 -0.0146293 0)
(1.02008 -0.0141689 4.18458e-21)
(1.3077 0.134529 -4.09927e-20)
(1.29755 0.139063 -4.07813e-20)
(1.08464 0.0460049 8.68127e-21)
(1.08365 0.0440924 -2.39176e-20)
(0.305647 0.0231297 -1.30388e-20)
(0.289162 0.0187029 -1.597e-20)
(1.08062 -0.0139854 0)
(1.08309 -0.01443 -1.01666e-20)
(1.01514 -0.0664484 1.4867e-22)
(1.01754 -0.0674568 8.10409e-22)
(1.04108 0.0710003 8.37735e-22)
(1.04085 0.0702144 0)
(1.04166 0.0702385 -1.06486e-20)
(1.07125 0.0940167 -1.84571e-20)
(1.0733 0.0929308 -1.3661e-20)
(1.04039 -0.00154547 4.73689e-21)
(1.04133 -0.00166938 -9.46993e-22)
(1.04075 -0.00242865 6.44619e-21)
(1.04168 -0.0198307 0)
(1.04049 -0.0201713 0)
(1.04083 -0.0190031 7.16982e-22)
(0.706951 -0.175774 -2.37945e-20)
(0.728294 -0.178534 0)
(0.717824 -0.1932 6.82556e-21)
(1.31962 -0.035143 0)
(1.32063 -0.0433919 -8.41908e-20)
(1.31203 -0.0384007 -6.68065e-20)
(0.0854352 0.0696809 0)
(0.116757 0.0744586 -1.29495e-20)
(0.144117 0.0789323 0)
(0.353343 0.112384 -4.54098e-21)
(0.328649 0.109543 5.87308e-21)
(0.413383 0.122283 -1.18774e-20)
(1.07879 0.0376669 0)
(1.07876 0.0398774 0)
(0.976957 -0.750578 -2.04648e-20)
(0.976334 -0.808197 -6.43949e-21)
(1.03105 -0.806748 6.54821e-20)
(0.0351349 0.063555 -2.16878e-20)
(0.0618167 0.0672857 3.55507e-20)
(0.9374 -0.0276711 -3.94397e-21)
(0.939695 -0.0263816 8.02334e-21)
(0.936876 -0.0246855 -2.48047e-20)
(1.07117 0.0527068 -3.62175e-21)
(1.0726 0.052362 -2.61576e-20)
(1.07134 0.0515435 -1.58294e-20)
(0.609774 0.0748945 -3.43858e-21)
(0.640885 0.0798853 -4.72645e-21)
(0.594302 0.0738695 1.08636e-20)
(1.07776 -0.0264693 -5.44462e-21)
(1.07942 -0.0274411 -1.2988e-20)
(1.07707 -0.0285338 4.348e-21)
(1.04025 0.06779 -1.45269e-21)
(1.04004 0.0673644 1.31624e-20)
(1.03965 0.0679503 -1.72547e-20)
(1.01767 -0.0371063 0)
(1.01826 -0.0364698 1.77413e-21)
(1.32542 -0.0321808 -5.00378e-20)
(1.00014 -0.00242688 -1.74284e-21)
(1.0002 -0.00281385 0)
(1.00018 -0.0028975 -2.19016e-21)
(1.14626 -0.0446473 -7.94534e-21)
(1.1475 -0.0407466 3.9194e-20)
(1.15033 -0.0456265 2.28492e-20)
(1.03189 -0.0757731 2.15066e-21)
(1.03446 -0.0757274 1.98082e-21)
(1.03331 -0.0782381 -4.13013e-21)
(0.982692 -0.0201405 2.92296e-21)
(0.983495 -0.020848 -9.0826e-22)
(1.08738 0.120485 0)
(1.08515 0.122109 0)
(1.08812 0.123441 -1.36515e-20)
(1.04301 -0.0109238 5.05897e-21)
(1.04196 -0.0105756 -3.14627e-22)
(1.04291 -0.00973871 5.17527e-21)
(0.197143 -0.601698 6.88225e-21)
(0.153528 -0.651134 6.98195e-21)
(1.01484 -0.00597812 4.98906e-21)
(1.01536 -0.00605893 3.52814e-21)
(1.09102 0.102525 -1.17706e-21)
(1.09404 0.103229 2.8214e-21)
(1.09295 0.0999675 0)
(0.292246 0.0269888 1.80329e-21)
(0.271617 0.0191769 0)
(-0.026228 0.0392985 2.44257e-20)
(-0.0410221 0.0391023 6.87539e-21)
(0.0263626 0.0463404 3.32162e-20)
(0.903319 -0.08414 -9.02035e-21)
(0.908569 -0.0821567 2.57709e-20)
(0.907477 -0.0882528 -1.42443e-20)
(1.06972 0.0531747 0)
(1.0709 0.0539977 0)
(1.00007 -0.00162109 -1.31674e-21)
(1.00003 -0.00122114 6.86161e-22)
(1.00004 -0.00124443 -1.53163e-21)
(0.772256 -0.311935 -9.57122e-21)
(0.751492 -0.306819 1.67847e-20)
(1.00255 -0.0147939 0)
(1.00252 -0.0141938 1.63874e-21)
(1.00288 -0.0145989 1.07487e-21)
(1.14188 -0.0448226 -3.37459e-24)
(-0.00596467 -0.0552212 -1.58181e-19)
(-0.0735652 -0.051258 -3.35582e-20)
(-0.0510003 -0.0531287 0)
(0.9 -0.0805979 1.47815e-21)
(0.901293 -0.0739331 2.81201e-21)
(1.07575 -0.0251233 1.04774e-20)
(1.07813 -0.0238741 -4.60746e-21)
(0.996442 -0.00302491 -9.76903e-24)
(0.996085 -0.00336789 -1.90185e-22)
(0.302096 0.104054 -2.2289e-20)
(0.368519 0.112617 4.35282e-21)
(1.02139 -0.00954139 -2.50186e-21)
(1.02097 -0.00899115 -3.28076e-21)
(0.898613 -0.42233 1.11528e-20)
(1.04307 -0.503864 -5.06819e-20)
(0.313421 0.107013 2.3148e-20)
(0.292787 0.103979 -1.52538e-20)
(0.369815 0.115294 5.46107e-22)
(1.25769 -0.164677 4.13895e-20)
(1.26283 -0.155325 1.05485e-21)
(1.00014 -0.000644067 0)
(1.00008 -0.000465639 0)
(1.35373 -0.322625 -2.60454e-21)
(1.3786 -0.319154 -1.34208e-19)
(1.38592 -0.335918 3.17244e-21)
(0.165539 0.0274058 -2.21943e-21)
(0.179006 0.0289615 1.11853e-21)
(0.197978 0.0381617 -1.28557e-20)
(0.898927 0.0698785 -2.79281e-22)
(0.861237 0.0661239 9.56945e-22)
(1.04082 0.0677615 1.62588e-22)
(1.09534 0.0175382 -1.59408e-20)
(1.0966 0.0153973 5.0732e-21)
(1.09378 0.0159499 -9.85442e-21)
(0.737703 -0.379901 -1.25495e-20)
(0.729541 -0.359805 4.34895e-20)
(0.71179 -0.376387 -1.14868e-20)
(1.08672 0.117529 0)
(1.08967 0.1186 1.23356e-20)
(1.05636 0.0418663 -1.70385e-20)
(1.05551 0.0410245 5.13591e-21)
(1.14642 -0.432533 2.25562e-20)
(1.12706 -0.429673 -2.12715e-20)
(1.06609 -0.126081 -6.11551e-21)
(1.06101 -0.126902 1.8027e-21)
(1.0631 -0.122247 1.07479e-20)
(0.489502 0.0280189 -7.15486e-21)
(0.46658 0.025928 -3.10325e-21)
(0.465625 0.0246835 -3.4373e-21)
(1.13492 0.103297 -2.96358e-21)
(1.13035 0.104477 5.37887e-20)
(1.13277 0.0995275 2.35468e-20)
(1.01043 -0.000518872 -1.25364e-21)
(1.01095 -0.000726153 -3.03402e-21)
(1.01051 -0.00112864 3.99113e-22)
(1.07443 0.0066845 -5.00145e-21)
(1.07259 0.00638699 -6.41071e-21)
(1.07375 0.00477285 7.3103e-21)
(1.04048 0.0716027 -1.67318e-22)
(0.763654 0.0529171 5.9222e-22)
(0.733119 0.053266 7.71203e-21)
(0.588646 0.0304584 -2.49962e-21)
(0.611378 0.0329536 1.45584e-20)
(0.596038 0.0305822 9.82153e-21)
(1.01873 -0.013791 -6.99979e-21)
(1.01927 -0.013482 6.79988e-22)
(0.594092 -0.247632 4.68415e-20)
(0.993218 -0.015322 -3.11847e-21)
(0.9937 -0.0156468 1.3461e-22)
(0.993742 -0.0149082 -3.11532e-21)
(1.06468 0.105891 1.08201e-20)
(1.06663 0.107215 -1.60542e-20)
(1.06701 0.104768 -1.8216e-20)
(1.14185 0.132989 8.77381e-21)
(1.14649 0.132811 -4.26611e-20)
(1.14272 0.128946 2.87956e-20)
(1.07582 0.00656082 -2.29904e-21)
(1.07478 0.00770337 5.52434e-21)
(1.11099 0.0381448 -2.74799e-21)
(1.11284 0.0400405 -2.57884e-20)
(1.13905 0.103446 6.04092e-21)
(1.13635 0.107826 -2.37442e-21)
(1.00112 -0.0257694 5.04182e-21)
(1.00187 -0.0263972 4.72749e-21)
(1.00174 -0.0252437 1.27406e-21)
(0.81839 -0.149649 -2.09685e-20)
(0.805994 -0.146187 4.06992e-20)
(1.04906 0.0749434 6.44293e-21)
(1.04772 0.0749545 -3.87179e-21)
(1.04859 0.0738865 1.21044e-20)
(1.08671 0.162166 8.53838e-21)
(1.08981 0.164813 -3.52018e-20)
(1.09455 0.15968 -1.11946e-20)
(0.99822 -0.0107446 2.69914e-21)
(0.998489 -0.0104301 3.79489e-22)
(0.998251 -0.0101565 -9.19495e-22)
(0.98319 -0.0192337 -3.13338e-21)
(0.981821 -0.0194847 0)
(0.898395 -0.0862223 2.0614e-20)
(0.732478 0.0957472 -1.97893e-21)
(0.745708 0.0957645 -4.4161e-21)
(0.791974 0.101837 5.6133e-21)
(-0.276738 -0.0267614 0)
(-0.305218 -0.0238399 0)
(-0.281023 -0.028022 0)
(1.09482 0.0464269 4.92642e-21)
(1.0949 0.0445216 0)
(1.09673 0.0456095 5.04251e-21)
(1.02919 -0.0113839 -1.5824e-21)
(1.02901 -0.0121468 -4.53374e-22)
(1.12472 0.132882 1.88283e-21)
(1.12397 0.136292 -2.02703e-20)
(1.15527 0.131294 3.31714e-20)
(1.15065 0.132115 -8.92937e-21)
(1.15191 0.127509 3.41573e-20)
(1.06856 0.0893908 4.8291e-21)
(1.06676 0.0882606 -1.23681e-20)
(1.06859 0.0874043 1.14537e-20)
(1.10846 0.0398996 0)
(1.10875 0.0363043 0)
(0.720577 0.0944748 -5.69647e-21)
(0.679219 0.0880743 6.14342e-21)
(-0.0702757 0.0195243 1.56019e-20)
(-0.0621014 0.0185731 4.74367e-20)
(-0.10463 0.00976992 1.10893e-21)
(1.0803 0.000591361 -7.88016e-21)
(1.08123 -0.000957232 8.29887e-21)
(1.08218 0.00115955 -2.28521e-20)
(1.07749 0.0333676 1.62101e-20)
(1.07847 0.0343729 3.24502e-20)
(1.07657 0.0347383 5.06555e-20)
(1.26754 -0.154396 2.02006e-21)
(1.23922 -0.141703 2.2498e-21)
(1.08133 -0.121913 -1.86579e-22)
(1.0212 -0.0183303 1.77535e-21)
(1.02174 -0.019023 -2.75249e-21)
(1.0206 -0.0188151 1.13634e-21)
(1.0019 -0.00741556 -1.25633e-21)
(1.00195 -0.00721385 1.2517e-22)
(1.00173 -0.00695396 -1.17752e-21)
(1.0701 0.0904522 -2.55821e-20)
(1.06801 0.0913578 4.01874e-21)
(1.17654 -0.0857469 2.52386e-20)
(1.17318 -0.0810763 -2.73753e-20)
(1.17038 -0.0865648 4.68575e-21)
(1.02202 -0.00941174 1.01822e-21)
(1.02257 -0.0093371 -1.56427e-21)
(1.02211 -0.00891571 6.55629e-21)
(1.00026 -0.00278438 -6.80572e-22)
(1.00022 -0.00280111 1.37236e-21)
(1.00015 -0.00239193 1.4916e-21)
(1.00257 -0.0152093 0)
(1.00228 -0.0148404 -5.33326e-22)
(1.00456 -0.000755328 4.97212e-22)
(1.00487 -0.000774094 -9.574e-22)
(1.00456 -0.000451634 -2.07348e-21)
(1.08736 0.0228707 -1.67002e-22)
(1.08927 0.0235645 -2.89028e-21)
(1.08762 0.0251441 5.48765e-21)
(1.00208 -0.00791938 6.4849e-22)
(0.622111 0.074812 -3.61189e-21)
(0.665769 0.0798647 0)
(1.09738 0.0414572 -1.62856e-20)
(1.09489 0.042202 -1.51194e-20)
(1.01441 -0.0306346 0)
(1.01364 -0.0307943 0)
(1.01442 -0.0314094 5.76763e-22)
(0.74249 0.0496746 -7.9912e-21)
(0.303963 0.0588138 -9.79973e-21)
(0.277221 0.0546203 4.5141e-21)
(0.975019 -0.0212234 1.03951e-20)
(0.975689 -0.0224868 -3.72647e-21)
(0.976528 -0.0213142 -1.19234e-20)
(1.08926 0.105391 2.58635e-20)
(-0.226395 0.0085883 5.38046e-22)
(-0.271266 0.000959151 5.1621e-20)
(-0.220319 0.00780113 -3.23661e-20)
(0.976299 -0.0496586 -1.86588e-21)
(0.978657 -0.0502432 -2.95401e-21)
(0.974077 -0.0199037 -9.7182e-21)
(0.973057 -0.0215622 1.22723e-20)
(1.09962 0.0419111 0)
(1.09851 0.0443559 5.46838e-21)
(0.264301 0.0245907 0)
(0.256727 0.0261559 1.07673e-20)
(0.288102 0.0326714 0)
(0.322348 -0.00370366 1.25247e-20)
(0.236865 -0.00551732 1.08866e-19)
(0.303538 -0.00757544 -5.52338e-21)
(1.12656 0.0539903 -5.73523e-21)
(1.12981 0.0555622 -7.7154e-21)
(1.12911 0.0517727 -1.01475e-21)
(1.00272 -0.000574895 -4.21694e-22)
(1.00261 -0.000819667 -1.2736e-22)
(1.05472 0.194169 -2.26385e-20)
(1.11311 0.19786 -5.56919e-20)
(1.00149 -0.00917487 -1.34598e-21)
(1.13292 0.0569518 1.69077e-20)
(1.1358 0.0547534 -9.10029e-22)
(1.13632 0.0589684 2.11264e-20)
(-0.236289 0.00794654 -8.13238e-20)
(-0.192987 0.0175252 -3.68333e-20)
(1.0805 0.157385 -1.93446e-21)
(1.08317 0.159831 3.44193e-20)
(1.08772 0.155587 1.62974e-20)
(1.04921 0.0140737 5.44757e-21)
(1.04837 0.0147925 7.40789e-21)
(1.29063 -0.170752 0)
(1.37456 -0.183342 0)
(1.42642 -0.12515 5.73986e-20)
(1.39805 -0.117913 1.20368e-20)
(1.3977 -0.129642 1.20098e-20)
(-0.156612 -0.0225954 2.136e-20)
(-0.144721 -0.0207608 -8.46297e-20)
(-0.106952 -0.0223684 4.89542e-20)
(1.22979 0.0533536 -3.8961e-20)
(1.22678 0.0484888 3.94111e-21)
(1.23307 0.0484515 8.77111e-20)
(0.789461 -0.119963 -2.40574e-21)
(0.789017 -0.108262 1.75866e-20)
(0.776871 -0.113875 1.28245e-20)
(0.0342102 0.0457274 -1.73906e-20)
(0.0550839 0.049874 -5.22595e-20)
(0.36948 0.0779461 9.07014e-21)
(0.403467 0.0856901 6.74625e-21)
(0.358021 0.078049 1.0024e-20)
(1.11603 0.169539 2.47308e-20)
(1.11728 0.175399 1.01484e-20)
(1.04287 -0.0196029 -4.50613e-21)
(1.04248 -0.020941 0)
(-0.347114 -0.0253631 1.40888e-20)
(-0.314976 -0.0276156 -9.58317e-20)
(-0.304212 -0.0267498 -1.26009e-19)
(0.40786 0.0189448 0)
(0.409285 0.0175523 0)
(0.495798 -0.499979 1.38853e-20)
(0.461814 -0.474062 -5.35459e-21)
(0.465006 -0.523139 5.67204e-20)
(0.524521 -0.477462 -3.55599e-22)
(0.535815 -0.52077 -2.34853e-21)
(0.9354 -0.0292428 -5.45185e-22)
(0.937009 -0.0301086 2.62306e-21)
(1.13496 0.0479088 -3.18683e-20)
(1.13452 0.0444941 -5.43776e-20)
(1.13791 0.046226 1.29839e-21)
(0.955132 -0.124108 5.47131e-21)
(0.958263 -0.119132 5.58321e-23)
(0.961504 -0.124908 2.21159e-21)
(0.558473 0.0313199 -5.08218e-21)
(0.53241 0.027139 6.52133e-21)
(0.799659 -0.16775 2.2948e-20)
(0.796122 -0.154644 2.22679e-20)
(0.783907 -0.165731 2.79259e-20)
(1.00852 -0.00169995 -1.48479e-21)
(1.00849 -0.00201513 -3.88561e-22)
(1.00885 -0.00187756 1.07596e-21)
(1.01684 0.000478998 4.53612e-21)
(1.01683 0.000385616 -8.17518e-22)
(1.07835 -0.0653761 -2.68996e-21)
(1.08161 -0.0652453 -6.74911e-21)
(1.0794 -0.0681113 -8.83417e-21)
(-0.200018 -0.0265512 3.47721e-20)
(-0.170049 -0.0249987 0)
(0.264198 -0.629346 -2.28328e-20)
(1.02171 -0.0178285 2.15639e-21)
(1.02071 -0.0177326 -3.68252e-22)
(-0.0731976 0.035898 -3.8831e-20)
(0.943603 -0.122367 4.7277e-21)
(0.949871 -0.123696 0)
(0.946872 -0.117884 -3.39009e-21)
(1.10685 -0.04617 -2.47363e-20)
(1.11001 -0.0437759 -2.27575e-20)
(1.05027 0.0168671 -1.81292e-21)
(1.04925 0.0167203 1.50703e-20)
(0.266641 0.022725 1.11275e-21)
(0.23728 0.0203014 -5.61941e-21)
(1.11924 0.132663 7.76378e-22)
(1.12321 0.128386 -2.26109e-23)
(1.04012 0.0702409 1.45273e-20)
(1.03054 -0.0729602 0)
(1.02891 -0.075212 0)
(1.07397 -0.0242126 1.02067e-20)
(1.07373 -0.0262713 -2.87404e-20)
(0.829773 0.0539619 -1.35908e-21)
(0.833257 0.0532541 -2.19454e-20)
(0.80341 0.0522701 -4.58967e-21)
(0.977775 -0.0288427 -1.41249e-20)
(0.979325 -0.0285964 -1.21937e-20)
(1.15764 0.135281 1.14677e-23)
(1.0784 0.000202308 1.48797e-20)
(1.07921 0.00247771 -6.71499e-21)
(1.1008 0.0396502 0)
(1.102 0.0427998 1.13406e-20)
(0.94104 -0.127791 4.11259e-21)
(0.937156 -0.121382 -4.02698e-21)
(0.992694 -0.0157701 0)
(1.01561 -0.0306615 0)
(1.01469 -0.0297281 1.29725e-22)
(1.26279 -0.0241619 1.30831e-20)
(1.26544 -0.0302553 1.05468e-20)
(1.27062 -0.0220828 -8.46829e-21)
(1.28845 -0.163456 -7.50506e-20)
(1.28237 -0.154536 1.16617e-20)
(1.12734 0.104923 2.03061e-20)
(1.12322 0.105249 -9.80241e-20)
(1.12573 0.100886 -5.69704e-20)
(1.43075 -0.130531 2.13293e-20)
(0.822228 0.053565 1.62976e-20)
(0.856187 0.0551935 4.85085e-21)
(1.01727 -0.0715895 0)
(1.01522 -0.0730798 0)
(0.261568 0.0971017 -6.23563e-21)
(1.06808 0.11415 1.36811e-21)
(1.06606 0.112467 -9.81875e-21)
(1.06469 0.115104 2.23065e-21)
(1.02583 -0.00459674 2.23705e-23)
(1.02564 -0.00401108 -3.87333e-21)
(1.02516 -0.00442478 -3.96913e-21)