/*--------------------------------*- C++ -*----------------------------------*\
| =========                 |                                                 |
| \\      /  F ield         | OpenFOAM: The Open Source CFD Toolbox           |
|  \\    /   O peration     | Version:  v2012                                 |
|   \\  /    A nd           | Website:  www.openfoam.com                      |
|    \\/     M anipulation  |                                                 |
\*---------------------------------------------------------------------------*/
FoamFile
{
    version     2.0;
    format      ascii;
    class       volScalarField;
    location    "600";
    object      k_0;
}
// * * * * * * * * * * * * * * * * * * * * * * * * * * * * * * * * * * * * * //

dimensions      [0 2 -2 0 0 0 0];


internalField   nonuniform List<scalar> 
13917
(
0.0227374
0.000264187
0.0130076
0.000152272
0.000197146
0.000258983
0.00016239
0.000510929
0.000157426
0.00513553
0.000494743
0.000150055
0.000165789
0.000846258
0.000179196
0.0179634
0.000152728
0.000332305
0.000277444
0.0175067
0.000190364
0.000147622
0.000177592
0.000147658
0.000157451
0.000197677
0.000981947
0.0043923
0.000237579
0.000144603
0.00298288
0.000191218
0.000152851
0.0367748
0.000149356
0.000588305
0.000161764
0.000161519
0.000162326
0.00019444
0.000153799
0.000154448
0.000155425
0.000248589
0.000246046
0.00787651
0.000187072
0.0152153
0.00698656
0.000149662
0.000149782
0.000252785
0.00695261
0.000148477
0.000149438
0.000243981
0.00196388
0.000177806
0.000153936
0.0059396
0.0410374
0.00160357
0.000149727
0.000156657
0.054818
0.00361648
0.000261288
0.000620717
0.000317246
0.0183289
0.0495416
0.0339099
0.000148807
0.000150384
0.000192676
0.000160044
0.000161152
0.000149846
0.000159
0.00015323
0.000151403
0.000151874
0.000148599
0.0414375
0.000141861
0.000381319
0.000188715
0.000146012
0.000194284
0.000151728
0.000140617
0.000155704
0.00616216
0.000144546
0.000152376
0.000249884
0.000645201
0.000153564
0.00014519
0.000323142
0.000150473
0.000148921
0.000151951
0.000145773
0.00016135
0.0207888
0.0362446
0.00194645
0.000164597
0.00102911
0.000144899
0.0387869
0.000232211
0.0153824
0.0541744
0.000161795
0.000252698
0.000142253
0.00370473
0.000147291
0.000150261
0.000145335
0.000271265
0.000236101
0.0161216
0.0434234
0.000155869
0.000196106
0.00014646
0.000237004
0.000163546
0.000349432
0.0309865
0.000161683
0.00020388
0.000905857
0.0392705
0.0118315
0.000204718
0.000161102
0.0148001
0.000147324
0.019585
0.000142977
0.000148014
0.000187345
0.0484539
0.00232881
0.0155552
0.000148927
0.000189185
0.000148747
0.000147669
0.000147335
0.000552782
0.000154861
0.000145015
0.0284456
0.000150092
0.000144651
0.000141875
0.0567485
0.000170529
0.0149279
0.039374
0.000388096
0.00682008
0.0233482
0.000131179
0.000209575
0.000148585
0.037439
0.000157216
0.0434651
0.000216901
0.000147609
0.000152219
0.000191243
0.000163006
0.000172965
0.00015546
0.000148087
0.000149784
0.0162926
0.00699903
0.000353709
0.000149515
0.0160602
0.000145317
0.000326378
0.000217991
0.00023304
0.00116829
0.023208
0.000144813
0.0172001
0.000165151
0.0306052
0.000148536
0.00015296
0.000181298
0.0186771
0.0108017
0.000159893
0.000670177
0.000207326
0.000189984
0.000147151
0.000217046
0.000151373
0.000141823
0.000163431
0.000265189
0.0150854
0.000200925
0.000201324
0.0558047
0.000153358
0.000138531
0.000138452
0.0191391
0.00640131
0.0233078
0.000143835
0.000151349
0.00677067
0.0149026
0.000137379
0.000137175
0.000153493
0.000139045
0.000138966
0.032005
0.0143132
0.000148324
0.000131872
0.00021229
0.0292912
0.000151949
0.000143824
0.0007658
0.0178508
0.0109917
0.0550385
0.000249147
0.000143036
0.0275412
0.000213554
0.000223156
0.000204226
0.000158708
0.0140823
0.000147599
0.000193416
0.000210031
0.000148992
0.000153581
0.000156515
0.000197978
0.000148558
0.0222823
0.0204486
0.000143795
0.000136978
0.000155442
0.000136999
0.000147617
0.000166394
0.000177608
0.000145097
0.013021
0.0402893
0.000147047
0.000169393
0.00966616
0.000137545
0.000285231
0.0252265
0.000137736
0.0230781
0.000147253
0.0569059
0.000149125
0.000169729
0.000149501
0.000143062
0.00322219
0.000157122
0.000453587
0.000172184
0.0213335
0.000169407
0.000524794
0.0104478
0.000145488
0.000186837
0.000198684
0.000163041
0.000195211
0.000158781
0.000145126
0.000154458
0.000224375
0.000274395
0.000191131
0.000158048
0.000143721
0.0291893
0.0159049
0.000145441
0.000410716
0.000163179
0.00854
0.000262778
0.0438193
0.0447189
0.00270669
0.00032531
0.000168255
0.0410531
0.00866125
0.00982876
0.000164841
0.000176822
0.000775649
0.000150882
0.000292721
0.000233353
0.000153079
0.0383398
0.000142308
0.000167435
0.000140546
0.00595905
0.000139813
0.000187225
0.00021005
0.00211139
0.000150886
0.000203757
0.0233906
0.000151854
0.000151086
0.041635
0.0215667
0.0516713
0.000638223
0.000137268
0.000148243
0.0163495
0.000318838
0.000137507
0.000203878
0.000149273
0.000226471
0.000188681
0.000266992
0.000255529
0.000281419
0.000167258
0.0343922
0.0001469
0.000151927
0.000231548
0.0126548
0.000153793
0.0198886
0.000166936
0.00794423
0.000149755
0.000301546
0.000457653
0.00895879
0.000158813
0.02303
0.0113761
0.000217133
0.000147399
0.0469107
0.000144419
0.0389322
0.00473042
0.000158633
0.00690414
0.000151572
0.00373849
0.000139521
0.0212556
0.00496785
0.000159528
0.00680735
0.000260666
0.000156843
0.0513896
0.000380554
0.000157629
0.0042588
0.00014787
0.000259592
0.0111821
0.000142554
0.000159846
0.000157858
0.000142661
0.000140412
0.000147338
0.0377455
0.000388189
0.000150799
0.000148415
0.000146704
0.00019042
0.0155781
0.000138332
0.000131355
0.000259735
0.000301882
0.000143271
0.000158913
0.044176
0.0182756
0.00391528
0.000285659
0.0381136
0.000145808
0.000137924
0.000185184
0.000140332
0.000138682
0.000148808
0.000138234
0.000145032
0.0196939
0.000148292
0.00019869
0.0148688
0.000187604
0.000142108
0.000147439
0.0524188
0.00018153
0.0132408
0.000139717
0.000144067
0.000146268
0.000139578
0.00016121
0.000152517
0.0419084
0.000297423
0.0195139
0.00014402
0.000167607
0.000398353
0.000150662
0.000248002
0.0508268
0.000148977
0.0333839
0.000142513
0.000143495
0.000146417
0.000151598
0.000141172
0.000150378
0.0301763
0.0427036
0.000140895
0.000524181
0.000260378
0.000148702
0.00019169
0.000194132
0.047824
0.0001606
0.0224518
0.00712839
0.00668323
0.000152473
0.00290869
0.000563214
0.000157899
0.048099
0.000142067
0.000148071
0.000152421
0.000158709
0.000187261
0.00218503
0.000180651
0.000182037
0.000176564
0.000301148
0.000216631
0.000150759
0.00110426
0.000174273
0.000172025
0.0424237
0.000141949
0.000219963
0.000547428
0.000139934
0.0254157
0.000144266
0.000139559
0.000190347
0.000140033
0.000151549
0.000241211
0.0230054
0.0271285
0.000141815
0.000152682
0.000198826
0.0422176
0.0109455
0.000149897
0.000149039
0.000141588
0.000203753
0.0130352
0.000147486
0.00015214
0.000152629
0.000142345
0.000210933
0.000169124
0.000144678
0.000181644
0.000139955
0.000146799
0.000157224
0.0432532
0.000136587
0.000156318
0.000148851
0.000166762
0.000198206
0.000235778
0.000211962
0.000349418
0.000156363
0.000288811
0.0312688
0.0198581
0.016818
0.000144303
0.000146364
0.000120321
0.000145547
0.0531519
0.000138141
0.0122154
0.000164865
0.038135
0.000303828
0.000155633
0.0172726
0.000140849
0.000185841
0.000152137
0.000160277
0.038879
0.000138853
0.00108999
0.0001524
0.000155161
0.000146631
0.000806188
0.000214833
0.000136332
0.000247953
0.000191491
0.00325834
0.0461031
0.0270312
0.0452628
0.00013663
0.0167699
0.000141745
0.0406466
0.000342739
0.000172974
0.000539128
0.00015023
0.000174183
0.000155033
0.000139269
0.00015246
0.000164995
0.0437573
0.000142384
0.000184417
0.000147688
0.000136193
0.000149503
0.00336214
0.0558759
0.0157322
0.000198063
0.000168524
0.0434848
0.0303677
0.000139841
0.0503532
0.000163383
0.000215996
0.000145516
0.0449242
0.000142193
0.000211549
0.000148279
0.00286554
0.000176503
0.0563539
0.000144325
0.000176256
0.000149689
0.000151667
0.0368577
0.000350369
0.000152076
0.000239036
0.000143708
0.000153287
0.000150974
0.0403218
0.000142428
0.000203368
0.000137949
0.000150702
0.0120639
0.000149238
0.000275109
0.000152267
0.000139858
0.0402736
0.00018637
0.000149378
0.00481479
0.000689039
0.0164183
0.000446465
0.00014059
0.000184887
0.039647
0.00047622
0.00018111
0.000161819
0.000217788
0.000150472
0.000146489
0.00305031
0.00020407
0.000163547
0.0384892
0.000176411
0.0151353
0.0153846
0.000272171
0.000182764
0.00125877
0.0257164
0.000145427
0.000232371
0.00289258
0.000139918
0.000144334
0.000149223
0.000185057
0.000152268
0.0171678
0.000163339
0.000143251
0.000221624
0.00014325
0.0471284
0.000146937
0.000146512
0.0229737
0.000193888
0.00814686
0.000149507
0.000164976
0.000146198
0.000151357
0.000164547
0.000143392
0.0130402
0.000176989
0.00477849
0.00719393
0.000232992
0.0261179
0.000152798
0.000151857
0.000150498
0.0272476
0.01968
0.000166304
0.0148124
0.0166384
0.000139919
0.000145983
0.000161317
0.0237157
0.00843493
0.000177609
0.000151232
0.000156419
0.000218684
0.000164774
0.000266418
0.000163678
0.00015185
0.00015342
0.000152468
0.000164567
0.000176604
0.000409632
0.000164587
0.000187163
0.0134737
0.000169301
0.0156714
0.000160376
0.00021461
0.000163528
0.000473469
0.00015033
0.000182476
0.0553707
0.00613119
0.000145824
0.000164682
0.000156014
0.000144271
0.000147929
0.000181219
0.000360326
0.00168118
0.000275465
0.000140245
0.000489469
0.000157442
0.000158872
0.000211159
0.000148814
0.000185753
0.000629643
0.000136106
0.000193486
0.000234446
0.000163642
0.000143861
0.000141463
0.000146507
0.0159189
0.00015265
0.000148695
0.000167026
0.000143602
0.00014299
0.000266073
0.000450841
0.000224563
0.0231312
0.00021989
0.0146442
0.000147906
0.000163033
0.040356
0.000171453
0.00803105
0.000150787
0.000143798
0.000149518
0.000166477
0.000238509
0.000143878
0.00666667
0.000152886
0.000650683
0.000160541
0.000160192
0.00014084
0.000205826
0.000171831
0.0553796
0.000224776
0.000155322
0.0431161
0.000153927
0.0212798
0.000154512
0.000516393
0.000160675
0.000143126
0.000145561
0.0433145
0.000165127
0.0163394
0.0211351
0.000144139
0.000164051
0.000131559
0.000136324
0.00906331
0.00013221
0.026984
0.000156241
0.0007812
0.000248136
0.00884298
0.000137619
0.000143808
0.000273975
0.00014051
0.000147972
0.000156622
0.000146351
0.000167152
0.000137491
0.000267457
0.000151834
0.0207905
0.0200015
0.0090463
0.0181349
0.031752
0.0185605
0.00900178
0.000139469
0.000151897
0.000147563
0.000154137
0.000141646
0.000165089
0.000142958
0.0129765
0.000148373
0.0339951
0.000152199
0.000161057
0.00026048
0.000144862
0.000199604
0.000153965
0.000171368
0.00016295
0.000144213
0.0225497
0.000210387
0.00553454
0.000145432
0.00014498
0.000149504
0.000153229
0.0428328
0.00013968
0.000353727
0.000141945
0.00737828
0.000166933
0.00014287
0.000184188
0.00147942
0.000139821
0.00642182
0.0501531
0.000161599
0.000204717
0.0001403
0.00031981
0.000150169
0.000152799
0.0304814
0.000146424
0.000152639
0.000221656
0.0277623
0.000161073
0.0108534
0.0446644
0.000161502
0.000154776
0.000146613
0.0374273
0.000144779
0.000263192
0.00014919
0.0250115
0.00016965
0.0105604
0.000148324
0.000136742
0.00588485
0.000155863
0.000175677
0.0304411
0.000156292
0.000140534
0.00789697
0.000161032
0.000151796
0.000203233
0.000157147
0.0539329
0.00019435
0.000194269
0.000275219
0.000156387
0.0289519
0.000153065
0.000197769
0.000144474
0.018448
0.00722035
0.000149791
0.000150775
0.00015568
0.000150012
0.000147251
0.000144238
0.000143822
0.000145332
0.000170828
0.000136113
0.000155396
0.000197049
0.0347414
0.0551916
0.000211585
0.00014945
0.00564335
0.000142436
0.038063
0.01263
0.0045187
0.000139132
0.000139585
0.000147296
0.000146769
0.000138724
0.000146422
0.000143155
0.0001843
0.000140556
0.00959479
0.00812948
0.000141339
0.0435747
0.000144581
0.00014734
0.00154664
0.0424071
0.000225079
0.000146533
0.00875221
0.000147145
0.000147935
0.000821332
0.000152999
0.00288764
0.000152975
0.00117439
0.000142116
0.000145119
0.000181506
0.00744226
0.0001559
0.0333672
3.89162e-05
0.000157499
0.000155665
0.000145076
0.000141177
0.000214166
0.000162604
0.000163089
0.0295275
0.010271
0.0059177
0.000219467
0.000143666
0.0236291
0.00014517
0.0426487
0.000206707
0.000159838
0.000155112
0.015839
0.0305724
0.0107302
0.000131002
0.000995756
0.000147696
0.00014303
0.000163185
0.000151301
0.000148919
0.000404581
0.025465
0.000145317
0.000158784
0.028007
0.000151481
0.000137614
0.010251
0.0517567
0.000153523
0.000143604
0.000162017
0.000147267
0.000147437
0.000183433
0.000168097
0.000147168
0.00173064
0.000149743
0.000468507
0.011027
8.97495e-05
0.0209155
0.000149701
0.00015195
0.000389819
0.0283469
0.00314313
0.000557603
0.000186492
0.00015025
0.000153159
0.000165014
0.0545149
0.000214521
0.000152961
0.000178489
0.000142753
0.00636548
0.000204367
0.000246609
0.000181584
0.0291201
0.00900403
0.0406106
0.0416464
0.00016196
0.0287118
0.000137934
0.000203591
0.000213826
0.00939072
0.000159663
0.000161742
0.000163229
0.0166101
0.000156795
0.0478422
0.000176879
0.00023539
0.04722
0.000143672
0.000216236
0.000158533
0.000147149
0.000238615
0.000308623
0.000138119
0.000139567
0.000155202
0.0143636
0.00014064
0.000156325
0.000154858
0.00015307
0.000147458
0.000255712
0.000189869
0.00015252
0.000144845
0.000267193
0.000339117
0.000236268
0.0292527
0.000150123
0.000144736
0.0279791
0.000149033
0.000157372
0.0429326
0.0215095
0.000167982
0.000206231
0.000170979
0.0112269
0.000325419
0.000184656
0.0486559
0.000146863
0.000213358
0.0398801
0.00602793
0.0113826
0.0125454
0.000144941
0.000146514
0.000165798
0.000147757
0.000147105
0.00044812
0.000146346
0.000184441
0.000137133
0.000179674
0.0513
0.000157262
0.0420433
0.0326524
0.000144847
0.000195336
0.000170017
0.000155783
0.000144333
0.0207973
0.000197976
0.027747
0.000170987
0.0336069
0.000236844
0.000161237
0.00924315
0.000175922
0.000109585
0.000143068
0.00148633
0.000144414
0.000166517
0.00019525
0.000167263
0.000150364
0.000180363
0.00636679
0.000142022
0.000345067
0.00196189
0.000147853
0.000142183
0.000188874
0.00622173
0.0391746
0.000141954
0.000160597
0.00155032
0.00961659
0.00905333
0.000148425
0.000140615
0.000144964
0.000145081
0.000164388
0.000160587
0.00899374
0.000153162
0.000157902
0.000424349
0.00160113
0.000211711
0.0533756
0.0366218
0.000149611
0.000146497
0.000140247
0.000154866
0.000189994
0.0220979
0.00577708
0.000260219
0.000180924
0.000175799
0.000154904
0.00327132
0.000165776
0.000240938
0.000145064
0.000282166
0.00324818
0.000140475
0.000149107
0.0442779
0.000188317
0.000223534
0.0342673
0.000257936
0.000146215
0.00607527
0.00015928
0.000142782
0.0517672
0.00151381
0.000145188
0.000171418
0.000247915
0.000185321
0.000152699
0.000137418
0.000142343
0.000141818
0.000144144
0.000171016
0.000209277
0.016322
0.000186158
0.000161959
0.000163432
0.000237182
0.000144271
0.000188388
0.0173917
0.000393364
0.0353626
0.00015532
0.000137422
0.0188032
0.000141415
0.00203627
0.00015528
0.00019955
0.000150757
0.000141781
0.0160922
0.00016436
0.000154616
0.000144874
0.00600088
0.0308517
0.0289634
0.000151172
0.000146237
0.0108685
0.00014437
0.000145891
0.000308255
0.00827441
0.000168844
0.000170048
0.000152356
0.020344
0.000142906
0.000158234
0.000150304
0.000137227
0.000382946
0.000142905
0.00014151
0.000407567
0.000181196
0.00342855
0.00142454
0.000142228
0.000165967
0.000142993
0.000145587
0.00015663
0.000153669
0.000148577
0.000353261
0.000148307
0.000206454
0.000234862
0.00027684
0.000147487
0.000130435
0.000146772
0.0182989
0.000137527
0.0144652
0.00019244
0.000156313
0.000177323
0.00016962
0.000166348
0.000147053
8.94142e-05
0.000141437
0.000140404
0.00785508
0.000230678
0.000200973
0.000144508
0.000148074
0.00016389
0.000291878
0.000142684
0.0552111
0.000184784
0.000145316
0.000143466
0.000138528
0.000186245
0.000435399
0.0302086
0.00678526
0.00640543
0.000299017
0.000247876
0.000158866
0.0569936
0.000137089
0.000137116
0.000163024
0.00542871
0.000138819
0.0421977
0.000146708
0.000145896
0.000310254
0.00243188
0.0115909
0.00682002
0.00016314
0.000338403
0.000455346
0.000144098
0.0573108
0.000144649
0.000147624
0.00276377
0.000137851
0.0455621
0.00580509
0.000141808
0.00014557
0.000144243
0.0275863
0.000150474
0.000137468
0.000198084
0.000142299
0.000142639
0.000169975
0.00014486
0.000171059
0.000149138
0.000163456
0.000139043
0.000561416
0.00423371
0.00013925
0.000139349
0.00015325
0.000143333
0.000156372
0.00015081
0.000145649
0.000149282
0.00014455
0.000154092
0.000147038
0.000276638
0.00013852
0.000206051
0.000147166
0.000294145
0.00014141
0.000148379
0.000143067
0.000138122
0.000190299
0.00016719
0.000157409
0.00506179
0.000523162
0.0301698
0.0530232
0.000204704
0.0166974
0.000146565
0.000146683
0.000593444
0.0406017
0.000171438
0.0277388
0.000139593
0.000243438
0.0162131
0.000156533
0.000211289
0.00222805
0.00103375
0.000144096
0.000172343
0.000141499
0.0103088
0.000157754
0.0444119
0.0170989
0.000149566
0.00285375
0.000470722
0.00015427
0.038005
0.00550855
0.000157436
0.000140431
0.00326633
0.0242379
0.000144126
0.000163463
0.000148809
0.000495156
0.000244857
0.000147319
0.000141872
0.0162107
0.000144916
0.000144852
0.000151626
0.000139795
0.0341327
0.000177494
0.000165679
0.0252629
0.000144177
0.000227984
0.000148527
0.00348873
0.000200181
0.00997229
0.00014093
0.000162941
0.000142768
0.000147892
0.000155018
0.000146663
0.0454149
0.000154975
0.00014041
0.000142134
0.00532812
0.000140363
0.00715279
0.0370953
0.0104604
0.000148172
0.000143039
0.000143003
0.00942665
0.000149263
0.0149891
0.000144747
0.000588307
0.000156807
0.000169237
0.0165269
0.00014746
0.00015133
0.0238021
0.000252286
0.0434841
0.00015278
0.0364807
0.0133113
0.00014636
0.0307418
0.000147444
0.00016452
0.0342954
0.000157739
0.000223774
0.0289839
0.000183547
0.000192713
0.000147116
0.0197433
0.00014485
0.00851846
0.000142989
0.0234836
0.000144983
0.000145455
0.000160153
0.00074687
0.000143653
0.000421043
0.000230128
0.0091337
0.000143385
0.000177569
0.0386479
0.0159615
0.00447235
0.000213884
0.000141336
0.000255673
0.000519975
0.000160818
0.0450619
0.000136995
0.00079119
0.01885
0.000144268
0.00983121
0.000143482
0.0351428
0.029117
0.000159792
0.000157709
0.00773416
0.0147762
0.000144698
0.000155011
0.000140032
0.000146974
0.0447586
0.000211028
0.00707795
0.000150875
0.00016845
0.0458092
0.000297535
0.0107941
0.00794697
0.000141841
0.000144342
0.000477852
0.0402734
0.00447782
0.0175805
0.000339955
0.000194669
0.000352557
0.0425932
0.0448046
0.0125748
0.000140432
0.000210905
0.000185879
0.000220058
0.000146214
0.000158372
0.000207885
0.000297259
0.013238
0.000164514
0.000601535
0.0265509
0.000212949
0.000144532
0.000144633
0.0156285
0.000143471
0.0275104
0.000170315
0.000183939
0.000397973
0.00154104
0.000139122
0.000177229
0.000165493
0.000146628
0.0268134
0.000201089
0.0239479
0.00014286
0.0353772
0.0294636
0.000767048
0.000138071
0.000168171
0.000184541
0.000269938
0.000273182
0.000191859
0.0457277
0.000362831
0.000133001
0.000165154
0.000158787
0.000286092
0.0139389
0.000142553
0.000138856
0.000155173
0.00223528
0.000291562
0.000143816
0.000207929
0.000302819
0.000140446
0.000972515
0.000160701
0.0255575
0.000170058
0.0111554
0.0133471
0.000165646
0.000162727
0.0442002
0.000142099
0.000219337
0.0391893
0.000166699
0.00025309
0.000161212
0.000180967
0.0371108
0.0385986
0.000146941
0.00516467
0.000333061
0.000137861
0.000263609
0.000197883
0.000277648
0.045305
0.000474511
0.016293
0.000258405
0.0393329
0.000168777
0.000187304
0.000142998
0.000149254
0.000147394
0.000141165
0.0145356
0.000276808
0.000138059
0.000281687
0.000393749
0.000141943
0.00877075
0.0558886
0.000147075
0.000148823
0.000145068
0.000153767
0.000170282
0.000144849
0.0315451
0.00016551
0.000206583
0.000168456
0.000220137
0.000308336
0.00021005
0.00171256
0.000146611
0.000154451
0.000137803
0.000142544
0.0379718
0.000211938
0.000176821
0.0375067
0.000151158
0.000149916
0.000189819
0.000140043
0.000143893
0.000248652
0.000162213
0.0333235
0.00275724
0.0422177
0.000147011
0.0333713
0.000143412
0.0118528
0.000138906
0.000368651
0.0186386
0.000144588
0.00135962
0.0267396
0.000185692
0.000152313
0.000143517
0.00017228
0.0490559
0.000139462
0.000149872
0.000154893
0.000161785
0.000384107
0.000156066
0.000163594
0.000141545
0.000156207
0.0455581
0.000175348
0.000157014
0.000292487
0.0157343
0.045268
0.0141069
0.000157528
0.000152627
0.0388644
0.000146471
0.000192086
0.000147693
0.0412457
0.000159343
0.000151065
0.00021119
0.0562416
0.000144278
0.000140861
0.000136946
0.000257795
0.00887255
0.000268
0.000144644
0.000158895
0.000140652
0.022399
0.000151696
0.0431306
0.000180202
0.000150946
0.00770164
0.000211236
0.00625776
0.000150489
0.000145575
0.00017484
0.000217005
0.000313707
0.000149405
0.000150227
0.000157839
0.0452114
0.000145722
0.00015326
0.04056
0.000156843
0.000227118
0.000159708
0.000145976
0.000146261
0.000204238
0.000154532
0.00461532
0.0053285
0.00013422
0.000815082
0.000150752
0.000252688
0.000201524
0.000154385
0.000138742
0.000134065
0.000144768
0.00726583
0.000172247
0.0169591
0.045818
0.000141621
0.000286546
0.000193866
0.031394
0.000145139
0.00656415
0.0402759
0.0393164
0.000144337
0.000155736
0.000151547
0.00877979
0.0398557
0.00018427
0.0001453
0.000166962
0.0268515
0.00014884
0.000155889
0.00015559
0.000236528
0.0409176
0.000137219
0.053174
0.000178183
0.000144439
0.0480968
0.000180216
0.00109643
0.014133
0.00018401
0.000166348
0.000153974
0.000171252
0.000151285
0.000345278
0.000209973
0.000145914
0.00015899
0.0114634
0.00623601
0.000139253
0.000268414
0.0311817
0.00297213
0.000147138
0.000147756
0.00872133
0.0362275
0.015218
0.000144075
0.0275983
0.000187623
0.000134953
0.0169241
0.000170411
0.000147377
0.0030252
0.000146587
0.00021787
0.000142437
0.000133079
0.000148379
0.000136925
0.0554157
0.000137549
0.000142004
0.000204718
0.000157287
0.000162304
0.000309496
0.000146875
0.000144719
0.000156157
0.000153809
0.00634946
0.00644695
0.0274485
0.00798226
0.000240647
0.0125595
0.00180277
0.0556227
0.0135415
0.0572554
0.000141747
0.000183629
0.000145315
0.000146311
0.000142994
0.000155496
0.000351661
0.000181662
0.000198007
0.000141723
0.000144363
0.000178654
0.000149914
0.00014949
0.00014666
0.0197621
0.000177122
0.0151337
0.000146761
0.0067534
0.000150767
0.000151149
0.000149985
0.000169113
0.000141808
0.000217847
0.0402419
0.000200021
0.019671
0.000346137
0.000161173
0.000168224
0.00789915
0.000264911
0.000139733
0.000142331
0.00013423
0.0461334
0.000133229
0.0152022
0.00136895
0.000209051
0.000856396
0.0030227
0.000188548
0.025171
0.000144703
0.000136798
0.00604975
0.0183824
0.000145887
0.000147072
0.0130782
0.000140517
0.00310494
0.000156558
0.000151152
0.000165774
0.000146772
0.000205386
0.0434773
0.0345646
0.000159971
0.00014687
0.000251053
0.000154516
0.000228929
0.000141001
0.000295683
0.00021133
0.0001496
0.000147001
0.000134629
0.000305566
0.000121653
0.000393915
0.0386281
0.000174407
0.0391513
0.000197194
0.000230841
0.0390195
0.000143639
0.0481666
0.000153477
0.0184261
0.0179999
0.0453159
0.0483873
0.000152972
0.000200231
0.00455614
0.000147495
0.0278073
0.000146494
0.000147014
0.000159664
0.000151876
0.00016416
0.000559231
0.0133408
0.0389248
0.000163588
0.000197788
0.000154522
0.000152778
0.000148203
0.000264214
0.000211621
0.038597
0.000196951
0.000138505
0.000140143
0.00014936
0.000385788
0.00016118
0.000151315
0.000163429
0.000265945
0.00016472
0.000214284
0.000205802
0.0519451
0.000173894
0.000166151
0.000145144
0.000159514
0.00292404
0.00089477
0.000209915
0.000139955
0.0477113
0.000173094
0.000143825
0.000186655
0.0447331
0.0104325
0.000186318
0.00014064
0.0470243
0.00015015
0.000140485
0.000138961
0.0021085
0.0467091
0.000161268
0.0376704
0.0537164
0.000167325
0.000199938
0.00020599
0.0246713
0.000176618
0.0418549
0.00015006
0.000676323
0.000174063
0.0308423
0.000170748
0.000141367
0.0431561
0.000147034
0.000153387
0.0333526
0.0168865
0.016234
0.00492199
0.000156748
0.000154457
0.0455492
0.000143471
0.000142355
0.000146751
0.000187509
0.000144963
0.000195345
0.000167067
0.0032738
0.0264093
0.000152133
0.026311
0.000166253
0.0396427
0.0222987
0.000146736
0.000149644
0.000159066
0.000371106
0.000359038
0.000201129
0.0429153
0.049094
0.000326865
0.000171958
0.0161788
0.0351592
0.000107167
0.03954
0.000147352
0.000146292
0.000146573
0.000153135
0.000143418
0.000166152
0.0327163
0.000196864
0.00655568
0.0141625
0.00719746
0.0418493
0.0447704
0.000173339
0.0331308
0.000254162
0.000197235
0.000138674
0.000147446
0.000192367
0.0190435
0.000154693
0.0558894
0.0458795
0.000142551
0.000147939
0.000150518
0.000267088
0.000150717
0.000205074
0.0483219
0.000138947
0.000144059
0.000141977
0.000152978
0.000222147
0.0379654
0.000195003
0.0251533
0.000266471
0.00014227
0.00709546
0.000308726
0.000152666
0.0245116
0.0296866
0.0359452
0.00344131
0.0260793
0.000146571
0.0338271
0.0366511
0.000274899
0.0369838
0.000143097
0.000157471
0.000160026
0.000155159
0.0391422
0.000203095
0.000149496
0.000167997
0.00646218
0.0327546
0.000169419
0.000117737
0.026804
0.0463665
0.000149011
0.000172735
0.000256007
0.000143811
0.00014436
0.0111015
0.000141868
0.000421204
0.00647562
0.0353096
0.000141675
0.000248168
0.000506997
0.000143659
0.000136055
0.00532005
0.00901956
0.000153142
0.000212181
0.00406425
0.000395818
0.0366456
0.0332338
0.000165202
0.00772679
0.00811996
0.000180315
0.000141542
0.00081158
0.000136632
0.000137196
0.0318015
0.000193052
0.000232753
0.000158722
0.000188817
0.000143601
0.000137918
0.000151922
0.000153001
0.0446791
0.000158117
0.0290509
0.0113355
0.00019616
0.000198235
0.0481073
0.0345514
0.0440434
0.000149209
0.000159575
0.000180646
0.000164594
0.00171288
0.00531655
0.000151707
0.0340304
0.0258184
0.00016838
0.000217991
0.000203929
0.00022848
0.00024022
0.000154619
0.000262492
0.000292713
0.000336642
0.000371745
0.000241031
0.000212316
0.000176122
0.000141361
0.000170548
0.000218328
0.000141746
0.0241176
0.0293646
0.000763427
0.0471096
0.000135444
0.00013977
0.000947549
0.053234
0.000152597
0.000160026
0.000185758
0.0383707
0.0140517
0.000146609
0.000189033
0.000161895
0.0183481
0.00662725
0.000156326
0.0376607
0.0340467
0.000235575
0.0459839
0.00023313
0.00497003
0.032508
0.000131141
0.0272346
0.0282195
0.000154075
0.000218035
0.000249527
0.000164339
0.000142504
0.000408254
0.0132949
0.000143539
0.000143736
0.0352291
0.0239565
0.000226264
0.000149533
0.00746581
0.000191064
0.0446001
0.0168582
0.000147546
0.000144159
0.000152382
0.00015557
0.0446417
0.01279
0.0574239
0.000210109
0.0199977
0.0129511
0.000156633
0.00014118
0.0314209
0.000142408
0.0369383
0.000149691
0.045139
0.000153755
0.000152516
0.0127726
0.000145326
0.000253277
0.00638357
0.00016399
0.000157722
0.000154351
0.000353066
0.0303741
0.00027902
0.041651
0.000161759
0.000158219
0.000163728
0.000226312
0.0224478
0.039597
0.000251548
0.00297368
0.000279398
0.0495246
0.000175696
0.000141726
0.00013915
0.000138701
0.0330494
0.000366805
0.0109224
0.000198747
0.000378944
0.000142923
0.00727739
0.000325078
0.0180995
0.00014456
0.00015516
0.000133219
0.0378467
0.000256184
0.00101632
0.0325385
0.000279772
0.0180971
0.000134403
0.000170934
0.000277933
0.0333632
0.0257536
0.000146669
0.000322513
0.000149362
0.000156541
0.000292189
0.0116645
0.00209192
0.000147814
0.000240276
0.000366894
0.0400167
0.0175528
0.042048
0.0333616
0.000144849
0.000199809
0.000150745
0.000337409
0.000145971
0.000275083
0.000154896
0.000186632
0.00563097
0.00689276
0.000161522
0.00027946
0.0297459
0.000236266
0.000156742
0.0317371
0.000225944
0.00015387
0.000159672
0.0372406
0.000169414
0.000277959
0.0326413
0.00893147
0.0263228
0.0001618
0.0558583
0.0413567
0.0125942
0.00041198
0.000170995
0.000247218
0.000233055
0.0423194
0.01605
0.000152015
0.0375259
0.00150624
0.0238394
0.000172255
0.033303
0.00103829
0.0305529
0.000158656
0.00816551
0.000161093
0.0357822
0.000295024
0.0444403
0.0113244
0.0001404
0.000133378
0.0320354
0.0290109
0.000240798
0.000151653
0.00020081
0.000187751
0.0517228
0.000421308
0.0267581
0.000166534
0.0238102
0.0002691
0.00626523
0.000151794
0.017823
0.0416274
0.000161223
0.000206191
0.000134935
0.000159012
0.000148116
0.00762142
0.000142676
0.000147273
0.0343998
0.0343825
0.000138501
0.0255757
0.000153204
0.000147167
0.000143864
0.000142968
0.000149392
0.0227638
0.0356059
0.000138747
0.000494365
0.000192435
0.000172762
0.0448548
0.000211754
0.000164978
0.000162561
0.000143329
0.00705206
0.000187534
0.023869
0.00016582
0.0371749
0.0381909
0.000208328
0.00980106
0.0209276
0.000139743
0.0237797
0.000196621
0.000192918
0.000269702
0.000143536
0.000815407
0.000345605
0.0001475
0.00782614
0.000144126
0.0371363
0.000342051
0.0356486
0.000356245
0.000362295
0.0363391
0.0001479
0.000145765
0.000187607
0.000156126
0.000149535
0.000149769
0.000170516
0.0001428
0.00014249
0.000154892
0.000203228
0.000157347
0.000171662
0.000156035
0.000215931
0.000219269
0.000158685
0.0332191
0.00015758
0.000143276
0.000220713
0.000168326
0.000155902
0.000143157
0.000436546
0.000154361
0.0294221
0.000155069
0.000254612
0.000143701
0.000147481
0.000265645
0.0287389
0.000196727
0.000192017
0.000135926
0.043138
0.000148381
0.000142128
0.000203226
0.000157281
0.000598333
0.0312582
0.000235313
0.000291437
0.000199209
0.0244214
0.000145759
0.000148811
0.00021433
0.00762509
0.000184364
0.000250389
0.0449768
0.000171957
0.000148129
0.000164467
0.009292
0.000180853
0.000147732
0.000232315
0.000217655
0.0001992
0.000149142
0.000147431
0.0106195
0.000202891
0.0143152
0.0115356
0.000157719
0.000198181
0.000149141
0.000170156
0.0326236
0.000149063
0.00448981
0.00460926
0.000223424
0.00725345
0.000146924
0.000145239
0.000142901
0.0350049
0.00249436
0.000158562
0.000269378
0.000246742
0.000148876
0.000145879
0.000390939
0.0286152
0.0105058
0.0280497
0.000324385
0.000161999
0.0292034
0.000265123
0.000162968
0.000400471
0.000212083
0.000417648
0.000147379
0.000216901
0.000293852
0.000153556
0.000441051
0.00019312
0.000265945
0.000170208
0.000340955
0.000142777
0.0152002
0.00015667
0.000139788
0.000142122
0.000140005
0.000154911
0.000153898
0.000142597
0.000156119
0.00014825
0.000153194
0.00629914
0.000204764
0.000152059
0.000200926