/*--------------------------------*- C++ -*----------------------------------*\
| =========                 |                                                 |
| \\      /  F ield         | OpenFOAM: The Open Source CFD Toolbox           |
|  \\    /   O peration     | Version:  v2012                                 |
|   \\  /    A nd           | Website:  www.openfoam.com                      |
|    \\/     M anipulation  |                                                 |
\*---------------------------------------------------------------------------*/
FoamFile
{
    version     2.0;
    format      ascii;
    class       volScalarField;
    location    "600";
    object      omega;
}
// * * * * * * * * * * * * * * * * * * * * * * * * * * * * * * * * * * * * * //

dimensions      [0 0 -1 0 0 0 0];


internalField   nonuniform List<scalar> 
13917
(
6.39822
0.0887706
2.33845
0.0224349
0.0385346
0.0904212
0.0273499
0.164183
0.0248038
16.6628
0.180468
0.021886
0.0239371
0.300292
0.0347393
8.36113
0.0220003
0.126148
0.255457
10.2491
0.0488423
0.0216128
0.043299
0.0216195
0.0243274
0.0544328
0.49182
16.5617
0.08123
0.0205843
14.443
0.067835
0.0225858
3.38087
0.0217274
0.25991
0.0259584
0.0233343
0.0272947
0.056334
0.0222142
0.022389
0.0237721
0.199455
0.199592
1.61996
0.0452808
4.06671
0.913505
0.0217728
0.0218402
0.2204
17.1601
0.0216873
0.0218047
0.22802
12.8698
0.0435339
0.0222753
1.63585
2.31279
0.292745
0.0214011
0.0239588
2.58211
0.260978
0.0927858
0.509824
0.133496
6.89077
2.53118
3.66126
0.0217668
0.0217418
0.0511423
0.0254346
0.0250195
0.021689
0.0249377
0.0227038
0.0222332
0.0220212
0.0217442
2.57467
0.0211352
0.167786
0.0629898
0.0216242
0.0561583
0.0218531
0.0207054
0.0238497
0.879032
0.0211292
0.0223973
0.0892556
0.366125
0.0222521
0.0215244
0.185193
0.0216341
0.0214922
0.0223253
0.0214114
0.0250527
2.75162
4.84703
0.396811
0.0240202
0.447068
0.0215201
3.25459
0.0779378
4.15478
2.57834
0.0263385
0.205312
0.0208744
1.90635
0.0216619
0.021791
0.0211662
0.0996394
0.161207
6.20756
2.58838
0.023632
0.0547521
0.0212949
0.162759
0.0290771
0.285702
2.73944
0.0262395
0.0949578
0.795605
2.09135
5.69579
0.0599668
0.023292
1.15648
0.0213955
2.76862
0.0211305
0.0216882
0.0349166
2.53601
0.441641
4.15429
0.0217423
0.0503774
0.0213817
0.0216624
0.0216691
0.517592
0.0226536
0.0213417
2.76206
0.0217237
0.0211109
0.0210999
2.62274
0.0305751
1.17865
3.18365
0.232615
22.707
3.90364
0.0196031
0.0647075
0.0217444
2.74083
0.0247209
2.19845
0.105224
0.0214283
0.0224352
0.279069
0.028681
0.0322881
0.0237483
0.0216638
0.0218379
2.01663
2.02116
0.283798
0.021799
2.03023
0.0206492
0.148624
0.105435
0.164416
1.11937
6.44149
0.0211567
6.02202
0.0287955
2.71081
0.0216228
0.0223285
0.0404539
6.72532
7.04509
0.0249895
0.426564
0.0575511
0.0510151
0.0213817
0.306778
0.0222226
0.0209176
0.0930705
0.221981
4.04384
0.0877839
0.0580063
2.72248
0.022416
0.020413
0.0204041
4.24705
1.79594
2.08304
0.0213798
0.0216131
1.86374
7.10765
0.0203428
0.0203271
0.02217
0.0204401
0.0204317
3.91914
4.87141
0.0217536
0.0196355
0.108209
3.99508
0.0218347
0.0213778
0.462201
2.7989
1.95787
2.75836
0.168497
0.0211369
3.71619
0.111747
0.0732989
0.0936272
0.0244763
4.86611
0.0216787
0.057528
0.0909693
0.0218573
0.022211
0.0239175
0.0357921
0.0216373
4.33358
1.20872
0.0210306
0.0203223
0.0227365
0.0203244
0.0216826
0.0239767
0.0410799
0.021191
4.56156
4.35447
0.0215377
0.0267322
1.75155
0.0202784
0.15085
3.804
0.0202957
5.20301
0.0214779
2.57621
0.0215839
0.0294978
0.0219321
0.0211131
1.54365
0.022628
0.267058
0.034144
1.19423
0.0427621
0.346633
5.99685
0.021184
0.0558522
0.0367987
0.0269881
0.0375117
0.0248728
0.0212147
0.0222635
0.253965
0.0516522
0.0551092
0.024517
0.0213619
2.74262
9.47101
0.0211868
0.151155
0.0270856
0.858545
0.243893
3.68977
2.20653
0.245328
0.251131
0.026456
2.56054
0.860897
2.30016
0.0238146
0.033375
0.462919
0.0221034
0.106876
0.16503
0.0220001
2.7291
0.0211847
0.0340002
0.0204797
16.4156
0.020803
0.0503748
0.0597853
0.223128
0.0217098
0.0925865
2.69147
0.0222687
0.0221032
3.06276
2.71994
2.30721
0.389768
0.0202644
0.0217378
2.82437
0.254352
0.0202875
0.0387673
0.0217717
0.0866598
0.0526205
0.222241
0.159173
0.15111
0.0337371
3.8886
0.0213407
0.0222935
0.0398242
2.14768
0.0220618
7.67545
0.0334482
0.364643
0.0218542
0.217764
0.149672
1.11047
0.0229434
2.0802
1.74053
0.0651239
0.0215652
2.44297
0.0209026
3.1034
1.59207
0.0229301
0.978738
0.0223009
0.325123
0.0206534
9.11149
0.352182
0.0249543
1.7893
0.13029
0.023766
2.5723
0.507533
0.0241878
1.81041
0.0216698
0.131316
2.30504
0.0212116
0.0259355
0.0244751
0.0210952
0.0209155
0.0213932
2.07717
0.228478
0.0220411
0.0215221
0.0214723
0.0596027
1.33014
0.0203161
0.0196236
0.243392
0.215022
0.0211345
0.0246994
2.13198
2.17042
0.264796
0.272425
2.54793
0.0211222
0.020286
0.0430614
0.0209073
0.0203459
0.0218296
0.0203146
0.0210178
4.22039
0.0217274
0.0619191
4.1552
0.0565558
0.0209399
0.021643
2.60099
0.0404415
7.46717
0.0204205
0.021364
0.0210959
0.0204704
0.0256838
0.022504
2.09783
0.0454668
2.78684
0.0213579
0.0321635
0.0691457
0.0221116
0.167833
2.28041
0.0217272
2.42559
0.0209744
0.0212511
0.0214434
0.0223275
0.0208663
0.0221663
2.75773
2.29176
0.020845
0.34835
0.240371
0.0218198
0.0640507
0.0774718
2.93272
0.0264501
2.72911
0.389075
0.389982
0.022536
0.246611
0.10096
0.0241669
2.27394
0.0208489
0.0216355
0.0224163
0.0253756
0.0468433
1.426
0.0502717
0.0208146
0.0290122
0.115336
0.0852629
0.0220343
0.333416
0.0376905
0.0341314
2.7762
0.0211454
0.0900148
0.623644
0.0208377
2.88344
0.021341
0.0204678
0.059544
0.0204562
0.0222431
0.247072
2.74973
2.45221
0.0210989
0.0225933
0.0250949
2.19087
1.67914
0.021889
0.0217529
0.0210807
0.0794401
0.693414
0.0214078
0.0218518
0.0222836
0.021078
0.0336248
0.0320286
0.0211014
0.0514363
0.0208397
0.0214952
0.0241729
3.4829
0.0203821
0.0239574
0.0216798
0.0313117
0.0806248
0.090882
0.0943287
0.203342
0.0238049
0.107859
2.6989
4.27352
3.6923
0.0210826
0.0214243
0.036874
0.0214514
2.59063
0.0203169
0.796828
0.0286623
2.65456
0.169008
0.023789
4.99689
0.0208346
0.0594678
0.0221158
0.0235006
2.66964
0.0203656
1.37949
0.0217132
0.0226007
0.0214503
1.1715
0.0345392
0.020286
0.199827
0.0640181
0.413033
2.52736
2.72057
3.02557
0.0203881
7.03314
0.0206315
2.15403
0.1548
0.0247057
0.142199
0.0215881
0.037371
0.0235365
0.020401
0.0221468
0.0238058
2.51145
0.0211525
0.0558307
0.0215929
0.0202749
0.0215885
1.50383
2.43315
6.31509
0.080947
0.0316811
2.33749
3.80177
0.0206786
2.28169
0.0236063
0.135608
0.0214435
2.43968
0.0210616
0.0339933
0.0217092
0.359566
0.0400585
2.60464
0.0210943
0.0390966
0.0217536
0.0218093
3.66247
0.21275
0.0221457
0.35505
0.0213611
0.0225586
0.0216487
3.34237
0.0211582
0.0375447
0.0203004
0.0219239
2.14895
0.0214783
0.248037
0.0221339
0.0208178
2.23445
0.0591723
0.021812
17.957
0.887002
1.37449
0.597851
0.0208148
0.0383311
3.85376
0.674988
0.039648
0.0260159
0.0352577
0.0218889
0.0213252
0.249701
0.0929777
0.0276064
2.93159
0.0399749
1.29658
1.82153
0.051299
0.0454689
0.980179
4.63404
0.021241
0.0417936
0.246083
0.0208273
0.0211529
0.0215515
0.0186489
0.0223529
6.74579
0.0296701
0.0211404
0.135396
0.0210016
3.40836
0.0214393
0.0212934
2.78487
0.0719314
0.42237
0.0218489
0.0225381
0.0212658
0.0222282
0.0289216
0.0211209
6.73122
0.0386022
0.487317
0.405069
0.0418447
2.72118
0.0226125
0.0220211
0.0218855
3.60544
2.30428
0.0296425
6.7541
0.835639
0.020813
0.0212379
0.0256641
2.70085
0.432587
0.0410157
0.0221987
0.0239932
0.142526
0.0250568
0.229815
0.0299422
0.0222766
0.0227626
0.0221004
0.028935
0.0289136
0.573518
0.0278683
0.0274773
6.55349
0.0231759
0.830113
0.0253237
0.0588417
0.0277904
0.653622
0.0217554
0.0534045
2.42396
0.287281
0.0214785
0.0279387
0.0228231
0.0213537
0.0216883
0.0408988
0.0578243
1.16832
0.236377
0.0207813
0.716755
0.0247889
0.0254599
0.42356
0.0218256
0.0591931
0.359674
0.0202954
0.0719672
0.136558
0.0296992
0.0210856
0.0208959
0.0213203
8.40482
0.0225359
0.0217173
0.0335544
0.0211384
0.0210007
0.215516
0.274847
0.0664768
2.31963
0.0794345
2.84933
0.0216913
0.0255844
2.36555
0.0245181
0.609098
0.0217442
0.0211234
0.0218296
0.0289597
0.0957937
0.0210859
0.357632
0.0222567
0.169677
0.0254497
0.0261987
0.0205079
0.0972324
0.0305819
2.49298
0.0717691
0.0222479
3.70122
0.0229186
4.64534
0.0233369
0.138058
0.0240623
0.0209755
0.0214599
2.7167
0.0292852
1.3621
2.30012
0.0213474
0.0300719
0.0196138
0.071682
0.593936
0.0196553
3.82943
0.0239573
0.207457
0.198714
0.825438
0.0204141
0.0211923
0.183131
0.0208016
0.0216323
0.0238101
0.021408
0.0336871
0.0204032
0.138208
0.0222665
6.81299
4.74866
0.937645
2.81456
2.40731
8.67415
0.834271
0.0207535
0.022364
0.0216105
0.0229705
0.0210828
0.0292401
0.0211826
1.26027
0.0216799
2.5192
0.0224
0.027542
0.155528
0.02113
0.0620469
0.0229244
0.0248211
0.0275085
0.0208965
2.73432
0.105935
0.361625
0.0211836
0.0215067
0.0218768
0.0223079
2.85416
0.0207768
0.213764
0.0210477
0.375863
0.0280958
0.0211408
0.0562866
0.327929
0.0207886
0.386803
2.29288
0.0256923
0.0947236
0.0207694
0.183549
0.0215555
0.0222729
4.44
0.0214677
0.0225478
0.135163
4.87788
0.0223343
0.793119
2.39326
0.023388
0.0229931
0.0214328
2.53296
0.0214835
0.240213
0.02176
2.85201
0.0294273
1.68565
0.0215239
0.020149
0.373816
0.0227928
0.0230599
2.68687
0.0236159
0.0209089
0.814501
0.0233238
0.0224
0.0916624
0.0240002
2.59507
0.0568007
0.0770194
0.370778
0.0239464
2.87613
0.0225792
0.0803482
0.0214066
4.08175
0.387827
0.0219015
0.021329
0.0226947
0.0219038
0.0210338
0.0209721
0.0210646
0.02145
0.0335016
0.0202961
0.0233097
0.0789162
3.61737
2.55315
0.110516
0.0218802
0.369863
0.0211418
2.36384
0.684551
20.2719
0.0204174
0.0207639
0.021731
0.0215148
0.0203866
0.0210989
0.0212296
0.0476775
0.020915
10.0869
0.809886
0.0209501
2.69519
0.0214163
0.0214012
0.317112
3.22815
0.0954535
0.0213212
0.432023
0.0214181
0.0214716
1.10326
0.0225959
0.880826
0.0226434
0.295661
0.0209456
0.0211709
0.0407794
0.838951
0.0236101
3.4571
0.0815233
0.0227017
0.0233626
0.0215068
0.0208735
0.121756
0.0291473
0.0273833
3.34276
9.45579
0.796683
0.137298
0.0210294
3.49776
0.0211575
2.10421
0.0858785
0.0259653
0.0233146
1.76482
2.60034
2.67219
0.0161988
0.239231
0.0211158
0.0211906
0.0297796
0.0221624
0.0217297
0.309038
5.15213
0.0211834
0.025726
4.07582
0.0216342
0.0203015
0.788
3.03604
0.0227686
0.0208185
0.0270782
0.0216238
0.0214087
0.0407169
0.0289059
0.0215863
0.409832
0.0189766
0.0600408
0.649495
0.0610164
4.02921
0.0218764
0.0223407
0.166401
5.02124
0.303663
0.194127
0.0441362
0.0220321
0.0227015
0.0225308
2.48367
0.0330215
0.0223688
0.0467968
0.0211079
0.301591
0.0942008
0.205581
0.0527434
2.10475
0.440142
2.09122
2.84588
0.0233592
2.11012
0.0203222
0.0789649
0.109833
0.59869
0.0255837
0.0235905
0.027621
1.34536
0.0237715
2.73785
0.0398114
0.141247
2.25037
0.0211166
0.13476
0.0245858
0.0215599
0.03858
0.0511901
0.0202661
0.0207151
0.0233396
2.74993
0.0209093
0.0236061
0.0235091
0.0225863
0.021566
0.156093
0.0678518
0.0223434
0.0211284
0.12935
0.11858
0.0695839
2.82361
0.0219365
0.0214598
2.43253
0.0217428
0.024019
2.80697
3.82466
0.0324325
0.081411
0.0311982
8.60178
0.200713
0.0440963
2.51656
0.0213413
0.112053
3.39088
1.98255
0.654041
1.29685
0.0209822
0.0214659
0.0239378
0.0215933
0.0215344
0.645152
0.0214523
0.0502412
0.020457
0.0488679
2.7194
0.024014
2.17272
2.42204
0.021461
0.0793421
0.0299924
0.0234828
0.0213535
3.57107
0.0807969
4.49591
0.0325646
3.20446
0.137842
0.0223935
0.967666
0.0389991
0.0652285
0.0211508
0.85789
0.0213627
0.0290025
0.0529631
0.0284356
0.0220578
0.0499566
1.48442
0.0211137
0.377195
0.416392
0.0216227
0.021116
0.0324424
2.58154
2.30836
0.0208738
0.0271661
0.264698
0.82663
7.11142
0.0216751
0.0209252
0.0209902
0.0215119
0.0238881
0.0253384
2.65674
0.0223239
0.0246623
0.154129
0.243583
0.110799
2.91812
2.93009
0.0218731
0.0214621
0.0208856
0.0231336
0.0680195
2.75301
0.359368
0.158105
0.0396897
0.0429609
0.0234935
0.316331
0.028412
0.188008
0.0211724
0.163788
0.300143
0.0207435
0.0218034
2.89497
0.0551468
0.169562
3.50696
0.233004
0.0212697
1.47893
0.0231485
0.0212387
2.30485
0.355301
0.0211895
0.0330869
0.195472
0.0460618
0.0225518
0.0203917
0.0211293
0.0209106
0.0213524
0.0336489
0.0762943
5.14632
0.0468448
0.0268805
0.0287347
0.135931
0.021075
0.047347
1.98256
0.525397
4.83661
0.0232409
0.0203822
3.91008
0.0210145
0.26979
0.0234112
0.0626025
0.022018
0.0210574
2.5047
0.0283567
0.0230115
0.0214982
1.48323
2.46732
3.87514
0.0219916
0.0214271
1.21317
0.0210818
0.0211586
0.203707
0.577385
0.0310027
0.0334746
0.0224462
2.69348
0.0212477
0.0243811
0.0220564
0.0203681
0.509479
0.0212412
0.0208882
0.326729
0.0506048
1.20347
1.59409
0.0211762
0.0299931
0.0210029
0.0212045
0.0234608
0.022478
0.0216839
0.437506
0.0216655
0.0949909
0.0375882
0.060396
0.0216424
0.0335985
0.0213362
3.52702
0.0202315
1.28577
0.0698182
0.0227409
0.0454078
0.0331944
0.0303904
0.0215221
0.0862012
0.02094
0.020732
0.370682
0.0653144
0.0291696
0.0212917
0.0215319
0.0230683
0.114322
0.0211074
2.77916
0.0502175
0.021204
0.0213282
0.0205667
0.0516409
0.0512348
2.43843
0.579423
0.30914
0.0687182
0.162674
0.0244305
2.47679
0.0204498
0.0201993
0.0272926
0.346441
0.0205957
3.00138
0.0215075
0.021425
0.210576
1.17824
9.24333
0.365707
0.0275872
0.238072
0.0598454
0.0209401
2.5022
0.0214265
0.0214155
1.11121
0.0205029
2.88245
0.348545
0.0210337
0.0214667
0.0209687
2.71179
0.0217259
0.0203913
0.0809232
0.0211826
0.0209713
0.0205443
0.0210324
0.0373986
0.0217796
0.0249834
0.0207083
0.358993
0.767208
0.0207305
0.0207394
0.0226886
0.0213108
0.0239909
0.0219882
0.0212894
0.0218044
0.0214503
0.0228861
0.0215417
0.103937
0.0205589
0.0976338
0.0215479
0.104789
0.0208267
0.0216591
0.0211117
0.0202833
0.0508688
0.0282412
0.0246501
1.45221
0.072681
2.80084
2.91609
0.0946066
2.84226
0.0214764
0.0215132
0.354386
2.06441
0.0236704
3.9188
0.0206647
0.201266
0.814954
0.0240246
0.109217
0.693075
0.960108
0.0212258
0.0389094
0.0209654
0.56325
0.0246286
2.78905
9.48549
0.0218081
0.594524
0.296527
0.0221546
2.13489
0.315243
0.0241534
0.0209335
0.269228
3.74063
0.020945
0.0288605
0.0218066
0.289768
0.240573
0.0215505
0.0208618
2.6506
0.0211377
0.0214658
0.0222787
0.0207339
2.11548
0.0338213
0.0295919
3.36983
0.0213585
0.0877116
0.0217458
0.268961
0.0715675
0.566196
0.0207842
0.0277774
0.0208865
0.0216445
0.0235646
0.021488
2.22519
0.0231939
0.0207843
0.0211272
0.313951
0.0209187
0.529157
2.05638
0.775214
0.0216014
0.0209635
0.0212468
0.80044
0.0218053
2.77689
0.0213026
0.348631
0.023831
0.0246305
2.46138
0.0215788
0.0218373
3.8674
0.202823
2.98744
0.0222256
2.65166
2.01947
0.0214664
3.55453
0.0216083
0.0268953
3.21112
0.0240313
0.0682811
4.62513
0.039781
0.0708666
0.0216235
2.67508
0.021449
0.56711
0.0212522
5.25431
0.021468
0.0215506
0.0239148
0.192017
0.021018
0.0542666
0.102636
1.65643
0.0212531
0.0369948
2.70135
1.34846
1.34514
0.109297
0.0208151
0.210431
0.309788
0.0253225
2.33748
0.0201697
0.826004
7.37348
0.0210751
7.00392
0.0213305
2.6418
2.06829
0.0253119
0.0238863
0.549952
0.829292
0.0214799
0.0233283
0.0207496
0.0215282
2.58835
0.0916569
2.34137
0.0219323
0.0311219
2.84679
0.053057
0.79938
2.62209
0.0211327
0.0214073
0.621668
2.06336
1.39816
0.860382
0.415759
0.0552789
0.103764
2.66933
2.9497
0.679649
0.0209334
0.107826
0.0516973
0.105233
0.0214681
0.0252658
0.0827712
0.173177
0.792936
0.0241021
0.261026
3.42292
0.0660288
0.021444
0.0214489
1.3603
0.0209991
2.74856
0.032579
0.0236147
0.474924
0.215073
0.0207149
0.0399215
0.0296423
0.0215045
2.70623
0.0266226
2.72443
0.0209557
3.31704
2.44628
0.893054
0.020278
0.0305034
0.0407949
0.154929
0.196853
0.0688774
2.58691
0.2452
0.0197071
0.0286309
0.0231851
0.259091
7.32828
0.0208042
0.0206864
0.0233144
1.06856
0.160661
0.0210505
0.0750932
0.342296
0.0209106
0.144359
0.0253215
2.71852
0.0297705
0.54566
2.798
0.0296127
0.0261977
2.36682
0.0211044
0.07106
4.45345
0.0240436
0.125265
0.0277784
0.0502872
2.02992
2.64217
0.0216045
0.819271
0.224516
0.0205099
0.246197
0.0799756
0.185334
2.23753
0.307098
0.820015
0.194486
4.37955
0.0310442
0.0627226
0.0207547
0.021803
0.0215648
0.0209236
2.47204
0.163447
0.020269
0.0972409
0.498669
0.0210907
0.602244
2.59938
0.0209112
0.0217449
0.0209738
0.0227756
0.0365058
0.0214475
3.36752
0.0296804
0.0935941
0.0290411
0.104046
0.0903622
0.0543868
0.546908
0.0214983
0.0229702
0.0202355
0.0209168
2.67822
0.12119
0.0362741
2.78611
0.0219702
0.0219778
0.0447917
0.0207044
0.0210631
0.119883
0.0269399
3.90528
1.12439
2.14183
0.0216406
1.9241
0.0212566
2.51928
0.0206906
0.405566
1.8091
0.0214166
0.775499
4.14006
0.0441706
0.0223922
0.0209994
0.033448
2.24348
0.0207023
0.0218847
0.0223633
0.0234215
0.493961
0.022692
0.0277693
0.021096
0.0224591
2.36482
0.0380155
0.0238652
0.27983
1.37419
2.7411
1.35775
0.0229879
0.022474
4.27034
0.021482
0.0699111
0.0216774
2.5989
0.0234258
0.022029
0.0413029
2.54099
0.0214091
0.0207728
0.0204356
0.247338
10.9604
0.208716
0.0214835
0.0244602
0.0209155
3.43055
0.021669
2.49353
0.0496236
0.0219567
1.67118
0.0558477
0.368712
0.0220961
0.0211205
0.0365883
0.065177
0.204621
0.0218067
0.0219648
0.0231575
3.04528
0.0215195
0.0223189
2.63486
0.0238177
0.0363684
0.0255839
0.0212402
0.021346
0.111732
0.023317
1.13705
0.30825
0.0199621
0.640905
0.0220269
0.187905
0.0684517
0.0225229
0.0203339
0.0199423
0.0214352
0.982345
0.038983
3.56464
3.60635
0.0209575
0.0415793
0.0550894
2.5208
0.0214431
0.519047
2.64829
2.58823
0.0212503
0.0236016
0.0222285
0.83662
2.68025
0.0236973
0.0215313
0.0308163
3.75513
0.0217384
0.0236745
0.0233198
0.187344
2.41588
0.020473
2.67053
0.0342033
0.0214337
2.24636
0.0496289
0.970974
1.36783
0.0428155
0.0277148
0.0223308
0.0311796
0.0221568
0.121401
0.0708844
0.0213209
0.0251293
2.37359
1.49505
0.0206842
0.188508
1.8979
1.04413
0.0215025
0.0216171
0.389325
2.56378
1.34824
0.0211543
1.83875
0.0630414
0.0200177
5.17463
0.0322305
0.0216057
1.19216
0.021414
0.0390642
0.020911
0.0198646
0.0216323
0.0204295
2.57781
0.0202359
0.0211441
0.0954737
0.0245992
0.0259503
0.311541
0.021506
0.0214864
0.0236445
0.0228094
0.316731
0.303337
2.50505
1.03748
0.0588724
0.660231
0.459311
2.76364
1.7172
2.57374
0.0209285
0.0397069
0.0214629
0.0214572
0.0209681
0.0229429
0.427622
0.0516254
0.0558192
0.0210668
0.0214127
0.0477444
0.0218862
0.0218738
0.0214889
3.28188
0.038602
9.0807
0.0216275
0.344105
0.022051
0.0220121
0.0220016
0.0352516
0.021029
0.124193
3.21809
0.060401
4.06278
0.128487
0.023167
0.0310867
0.42901
0.201402
0.0204173
0.0209007
0.0199588
3.575
0.0198563
1.35261
0.393006
0.102038
0.297021
0.846631
0.0625406
2.72021
0.0210094
0.0204312
0.388464
2.71913
0.0214442
0.021624
1.32681
0.0209447
1.44598
0.0228428
0.0215884
0.0283773
0.0215647
0.0939175
3.24946
3.68722
0.0256485
0.0215168
0.12579
0.0230966
0.119809
0.0209095
0.301194
0.116567
0.0218803
0.0215531
0.0200056
0.208828
0.0608877
0.509036
2.16875
0.0359722
2.57455
0.0796612
0.171012
2.61994
0.0212784
3.35989
0.0227678
3.29881
2.48945
3.59108
2.58916
0.0221231
0.0716803
0.354845
0.0215009
4.74813
0.0214714
0.0215602
0.0257601
0.0223205
0.0289519
0.818115
2.63786
2.81575
0.0277988
0.0582637
0.0230437
0.0222203
0.0217104
0.231927
0.111215
2.02583
0.0618404
0.0203093
0.0207668
0.0219177
0.514409
0.0255324
0.0222761
0.0274457
0.133411
0.0294435
0.0654711
0.059606
3.02663
0.035632
0.030507
0.0214491
0.0257278
1.13424
0.241112
0.0699219
0.0206917
2.22735
0.0358377
0.0211337
0.0539222
2.97391
0.54305
0.0453046
0.0209545
2.68243
0.0219594
0.0209173
0.0203481
0.985109
2.39678
0.0231635
2.11662
2.53709
0.0241209
0.0631211
0.0813605
2.72104
0.0379896
2.67258
0.0219643
0.107055
0.0503031
2.67883
0.0340018
0.0208051
2.87889
0.0216892
0.0226879
2.45888
2.75221
1.4195
1.49865
0.0242758
0.0231043
2.49709
0.0211207
0.0211786
0.0216052
0.0528198
0.0214276
0.0454096
0.0240872
0.334666
2.58109
0.0223936
4.65095
0.0240009
3.04542
3.95559
0.0215866
0.0218339
0.0254078
0.243698
0.442815
0.0829332
3.04677
2.96755
0.226846
0.0251967
2.72303
5.03365
0.0475078
2.47418
0.0215692
0.0213688
0.0216101
0.0225963
0.0213072
0.0305652
3.70439
0.0427187
0.350449
4.62995
2.61852
2.09824
2.7272
0.0316806
2.69251
0.202802
0.0796124
0.0206655
0.0215152
0.0698474
4.74966
0.0226997
2.44344
2.77369
0.0209816
0.0216554
0.0219486
0.145229
0.0220602
0.0937695
3.35078
0.0206537
0.021419
0.020948
0.0226145
0.141876
3.35477
0.0517893
2.66524
0.194439
0.0211391
0.331782
0.216086
0.0219085
2.50462
2.54055
1.99401
1.27234
4.07621
0.0213954
2.56587
3.28378
0.302705
2.58782
0.0209701
0.0240213
0.0253354
0.0234731
2.60917
0.0844458
0.0218074
0.0308894
0.402066
3.39946
0.0247018
0.038349
2.77247
2.71626
0.0217815
0.0335711
0.191116
0.0213445
0.0214304
1.67137
0.0210798
0.591933
0.324812
2.63134
0.0210153
0.116855
0.709287
0.0211123
0.020092
1.46273
1.67885
0.022275
0.0553088
1.62326
0.522826
2.72099
2.07666
0.0286006
0.340308
0.427465
0.0427836
0.0210952
0.231989
0.0203923
0.0201969
3.96226
0.0535849
0.151218
0.0250754
0.0302076
0.0210133
0.0204515
0.0223458
0.02265
2.18967
0.0246908
2.0578
6.62645
0.0611548
0.0818276
2.217
2.66128
2.16793
0.0213447
0.0255591
0.0428882
0.0282364
1.11795
0.365816
0.0222867
2.12837
3.65648
0.0304911
0.128172
0.0932499
0.156178
0.186527
0.0231645
0.239903
0.296191
0.368858
0.448539
0.192321
0.111543
0.0292292
0.0210661
0.0339092
0.127679
0.0210409
2.04243
2.70475
0.756732
2.8352
0.0200474
0.0206677
0.132895
2.52014
0.02252
0.0249948
0.0597011
2.49625
1.37021
0.0214796
0.0426414
0.0268159
4.08297
0.388013
0.024021
2.33616
3.36032
0.167493
2.67564
0.155077
0.440897
2.70581
0.0195982
2.69999
3.30462
0.0228901
0.103749
0.163823
0.0267808
0.0209215
0.261659
1.08563
0.0209626
0.0209883
1.99729
2.54575
0.12021
0.0218062
2.29973
0.327936
2.80851
4.17137
0.0216263
0.0213971
0.0224689
0.022635
2.64862
1.31238
2.6259
0.108269
2.47605
0.686563
0.0226416
0.0210183
3.44973
0.020904
2.68023
0.0214289
2.6941
0.0228787
0.0224502
0.789376
0.0214906
0.20797
0.515483
0.0237608
0.0240394
0.0230897
0.422587
3.9447
0.268198
2.93222
0.023511
0.022706
0.0282421
0.117992
2.75087
2.58669
0.160627
1.8463
0.270282
2.50107
0.0222671
0.0208398
0.0206719
0.0206675
2.33442
0.141382
0.540031
0.0600061
0.463714
0.0210931
0.351218
0.1853
4.30133
0.0214737
0.0233592
0.0198779
3.13048
0.0184867
0.184385
2.30634
0.262717
2.44474
0.0199802
0.0349458
0.276132
2.36198
2.52555
0.0216486
0.32205
0.0219022
0.022883
0.164084
1.23763
0.963724
0.0216744
0.137731
0.268008
2.05318
6.24307
2.637
2.64409
0.0211311
0.0760906
0.0219031
0.34766
0.0212845
0.191782
0.0231491
0.05366
0.299486
0.53137
0.0233221
0.150851
3.26881
0.187735
0.0236976
2.4219
0.159483
0.0222928
0.0234125
2.61982
0.0321896
0.223864
2.45017
0.555976
5.09144
0.0232291
2.54523
3.21892
1.29154
0.25494
0.0339155
0.197647
0.161371
2.62375
1.40881
0.0223595
2.48748
0.479211
2.04241
0.0329614
3.34385
0.672574
2.55666
0.0253746
1.07307
0.0259384
3.67435
0.329899
2.47838
8.30977
0.0209236
0.0198723
3.50849
2.68863
0.0299565
0.0222696
0.0618961
0.0396683
2.55145
0.215818
3.33521
0.0293385
3.39993
0.222313
0.872355
0.0223094
1.99925
2.6208
0.0234094
0.102558
0.0200223
0.0251152
0.0216777
0.337739
0.0211355
0.0216449
2.70055
2.57916
0.0206456
2.71344
0.0226867
0.0214991
0.0213107
0.0209562
0.0218257
2.5252
2.7424
0.0205857
0.293025
0.0697844
0.03971
2.41778
0.112409
0.0283907
0.0283878
0.0213113
0.329249
0.0412401
2.73168
0.0240232
2.59941
2.45366
0.096305
2.63984
3.47044
0.0207931
4.38482
0.0684505
0.0714902
0.05899
0.0211398
0.245299
0.424366
0.021627
0.923605
0.0214293
2.63054
0.372935
2.02849
0.428235
0.428922
2.69328
0.0216077
0.021264
0.0612869
0.0236585
0.0218292
0.0218595
0.0319552
0.0210749
0.0211917
0.0231972
0.0635063
0.0241521
0.0323332
0.0228146
0.0555486
0.141406
0.0247424
2.65386
0.0243275
0.0212512
0.135472
0.0347303
0.0227745
0.0210809
0.267335
0.0232918
3.61394
0.0235184
0.213962
0.0213196
0.0214785
0.143814
2.71362
0.0780747
0.0497074
0.0201858
2.8258
0.0216998
0.0211477
0.0922531
0.0243255
0.886602
3.23278
0.164903
0.184462
0.061248
5.09605
0.0213778
0.021708
0.093281
0.338693
0.0556328
0.178608
2.59915
0.0329918
0.0216427
0.0287246
2.32163
0.0510629
0.0216463
0.165678
0.135784
0.0806387
0.0218036
0.0216602
1.82767
0.0828392
2.66442
0.649361
0.0240096
0.081431
0.0217823
0.036577
2.05882
0.0217467
1.48093
0.335361
0.126989
0.901081
0.0215857
0.0212951
0.0212544
2.6868
1.83825
0.0245083
0.144283
0.200548
0.0217597
0.0213522
0.275637
2.69588
1.88929
3.38413
0.241907
0.0277809
2.48595
0.244421
0.02819
0.0823525
0.117382
0.088369
0.0215782
0.135125
0.30059
0.0227559
0.247979
0.0558997
0.117342
0.0319278
0.37552
0.0210755
4.39111
0.024276
0.0208104
0.0208767
0.0207652
0.0231908
0.0228697
0.0209335
0.0239853
0.0216473
0.022644
0.313958
0.095303
0.0223877
0.081563
0.0266123
0.0493029
0.0204227
0.0401129
0.0330278
2.54881
0.0216044
0.0216068
0.105646
0.485227
0.0216753
0.0216108
0.202634
0.0234771
0.159459
0.0748581
0.0217453
4.08606
0.0237132
0.0226871
0.122279
2.73513
0.0223348
0.0749144
0.0209683
0.0253952
0.021621
0.0323424
0.0211546
0.0216224
0.527154
0.0731179
13.4603
0.0625139
0.0215524
0.0353413
3.2043
0.0770768
0.450281
0.169714
0.0216645
0.0731433
0.866054
2.04835
0.582296
0.0292995
3.61205
0.372121
0.0385082
0.0217831
0.120029
0.0226029
0.0502659
2.79386
0.0215448
0.22674
0.0218672
2.97488
0.115303
0.0227692
0.0723727
3.10019
0.567993
0.0242764
0.0935636
0.0313735
0.0206263
1.22092
0.0204808
0.0476179
0.0210597
0.0269319
2.5424
0.0805373
0.0206531
0.037268
2.27468
0.0215659
0.0220116
0.0321203
0.027726
0.0214887
0.0242651
0.0258579
0.0221922
0.0210527
0.0611932
0.160132
0.698272
0.0210013
0.0549524
3.38006
4.96199
0.0217004
0.0215847
0.0245762
0.135989
0.0224156
0.0210567
0.0211688
0.0208451
0.0289764
0.0285781
0.0240496
0.0687506
0.0243425
0.0204345
0.0242508
0.0628125
0.0579176
0.169868
0.022474
0.0355076
3.66725
0.0386376
0.0243391
4.88137
3.46186
0.142063
0.0800735
0.426261
0.0214393
0.266013
0.0319459
4.07581
0.021431
0.0212304
2.6433
0.0208177
0.311531
1.9784
0.0221702
9.15026
0.0338006
0.0285429
0.0316397
0.118524
0.0373141
0.0288319
0.30441
0.020889
0.0240306
4.22602
0.0227843
0.0213732
0.0380291
3.54111
0.0225359
0.0225422
2.72877
0.0233447
0.0316579
0.0524723
0.0203418
8.04513
0.0246515
0.022682
0.17876
0.0509669
2.55547
0.0234567
0.840845
0.0358664
0.150395
1.959
0.0215588
0.0345907
0.1176
0.0224263
1.62175
0.0225293
0.023105
3.33797
0.0220975
0.0346666
0.14768
0.788038
0.0284774
0.0297177
0.0225682
0.0237638
0.11613
0.0265899
0.0279559
0.160468
0.0469407
0.0219441
3.645
0.0369693
0.0204391
0.0234827
0.0212415
0.020723
0.0203465
0.0215191
0.0215305
0.037669
0.0243088
0.092817
0.0202555
0.020418
0.0230592
0.109331
0.02075
0.0379916
0.132281
0.0365687
0.0357264
0.0213515
0.0231307
0.0258788
0.0569126
0.0358241
0.0250069
2.47398
0.0216101
1.37352
0.0245804
0.116127
0.1455
0.0214707
0.0549606
0.029964
3.49443
2.86142
0.0250396
0.0218483
0.0235049
0.0270086
0.0428296
0.0217971
0.163685
0.0681444
0.0179378
0.10483
0.100681
0.140351
0.0358829
0.560093
0.65366
0.0318699
0.569452
0.0231927
0.298233
0.0228351
0.0212601
0.10178
0.129805
0.0214158
0.0770655
0.0214539
0.0217133
0.0214559
0.0222074
0.0214962
0.0214271
0.0214262
0.0221018
0.862372
0.0225935
0.0213735
0.0222976
0.0230725
0.432012
2.8706
0.150439
0.0259559
3.48357
0.0214661
0.0213872
0.358554
0.0345085
0.0222564
0.0222912
0.0216954
0.524986
0.021667
0.0250366
0.0224206
0.0482933
4.18827
0.0214639
0.11024
0.0818593
0.0249192
0.0625021
0.0211472
0.0217812
0.0960463
1.25753
0.0232438
0.0532717
1.09017
0.156977
0.0209376
1.8595
0.0231305
0.0197053
0.331659
2.66273
0.0214812
0.0207347
0.0230802
0.0330503
0.050409
0.0214436
0.0228154
0.0588713
0.02177
0.0366546
0.0260122
1.08423
0.0204901
2.51763
2.48463
0.0525925
0.0212754
0.12181
0.0210349
0.024515
0.021606
0.0498747
0.0202196
0.0201937
0.0562798
0.121267
2.56985
0.0219496
0.0200484
0.0234218
0.0207488
3.04105
0.0233821
0.0234893
0.022407
0.091858
0.0434986
0.0239384
0.0232813
0.0394013
0.0216146
0.0215596
0.0236871
0.0223893
0.186449
0.0211167
0.03712
0.0220534
0.0215634
0.0625724
0.153597
3.34654
0.0214479
0.118648
0.552754
2.61
2.68469
0.0342449
0.0215148
0.0265096
0.0376896
2.13173
0.0218743
0.0269241
0.0309246
0.0278336
0.0202852
0.0495889
0.0509729
0.95131
0.0223462
0.0217536
0.156872
0.829134
0.0201307
0.0256357
0.0317132
0.019958
0.0229367
0.0406242
0.0221401
0.0214974
0.0218003
0.0250794
0.109132
0.047114
0.0230028
0.02104
0.0221711
0.233543
0.0199053
0.0207922
0.029567
0.134184
0.0269438
5.81285
0.0266219
0.0214385
0.021566
0.0239795
0.0212038
0.0379783
0.879564
0.0208296
0.0209817
0.0222257
0.0213153
0.0219194
0.0702079
2.26808
0.0227207
0.186567
0.0232958
0.0213267
2.32356
0.0247548
2.66965
0.021878
0.0216135
0.020746
0.021527
0.0230656
0.027668
0.322383
0.206033
0.0344812
0.0591422
0.0217309
0.0509773
0.0214508
0.0245532
0.0289641
2.18127
2.5859
0.0217401
3.73215
0.171257
0.042686
0.236231
0.0200368
0.0214308
0.021551
0.0236441
2.42655
0.0207211
0.076696
2.42762
0.0224555
0.127812
0.0199397
0.0440482
0.371131
0.362708
0.0218005
0.379136
0.199597
2.46554
0.0297777
2.89209
0.0230402
0.173419
0.184447
0.0204828
0.0875768
0.0430607
0.0236965
0.541262
0.0275713
0.0209055
0.024675
0.325945
0.0217969
0.220388
0.0215891
0.0198799
0.0268093
0.0301197
0.021585
0.126911
0.03069
0.0256975
0.0199408
0.0214252
0.498152
0.13536
0.231249
0.0372804
0.0262586
0.0344231
0.0281479
0.021418
0.0233363
0.0514584
0.0241545
0.0247048
0.0203754
0.0275584
2.49127
0.0220593
2.67141
0.715493
0.02168
0.021751
0.0203061
0.0362719
0.0604618
0.0200979
0.0258672
0.0230151
0.0217999
0.0211333
0.0220532
0.0215011
0.0214983
0.316798
0.0228764
0.0320611
0.0214674
0.469616
0.0765327
0.0214709
0.374182
0.021567
0.0246349
0.0343909
0.344524
0.0357078
0.0209807
0.0213761
0.051025
0.0640988
0.489875
0.0225718
0.0640102
0.212984
0.0221281
0.0214623
0.15377
0.069819
0.0334065
0.021722
0.0243981
0.0232589
0.0241635
0.0208258
1.09083
0.0245646
0.0246732
0.0206238
0.0339886
0.0203838
2.30382
0.0215666
0.0372782
0.0210321
0.0284628
0.0206988
0.282614
0.0199989
2.10874
0.072049
0.14238
0.0208285
0.0226916
0.0200965
0.0775324
0.0200268
0.0268127
0.256192
2.60886
0.0220906
0.138366
2.57397
0.0215637
2.33134
0.0217437
0.0342027
0.0208167
0.0208923
0.0218904