/*--------------------------------*- C++ -*----------------------------------*\
| =========                 |                                                 |
| \\      /  F ield         | OpenFOAM: The Open Source CFD Toolbox           |
|  \\    /   O peration     | Version:  v2012                                 |
|   \\  /    A nd           | Website:  www.openfoam.com                      |
|    \\/     M anipulation  |                                                 |
\*---------------------------------------------------------------------------*/
FoamFile
{
    version     2.0;
    format      ascii;
    class       pointVectorField;
    location    "600";
    object      pointDisplacement;
}
// * * * * * * * * * * * * * * * * * * * * * * * * * * * * * * * * * * * * * //

dimensions      [0 1 0 0 0 0 0];


internalField   nonuniform List<vector> 
14386
(
(0 0 0)
(-1.44371e-05 -0.000115483 0)
(0 0 0)
(-1.44371e-05 -0.000115483 0)
(0 0 0)
(0 0 0)
(0 0 0)
(0 0 0)
(0 0 0)
(0 0 0)
(0 0 0)
(0 0 0)
(0 0 0)
(0 0 0)
(0 0 0)
(0 0 0)
(0 0 0)
(0 0 0)
(0 0 0)
(0 0 0)
(0 0 0)
(0 0 0)
(0 0 0)
(0 0 0)
(0 0 0)
(0 0 0)
(0 0 0)
(0 0 0)
(0 0 0)
(0 0 0)
(0 0 0)
(0 0 0)
(0 0 0)
(0 0 0)
(0 0 0)
(0 0 0)
(0 0 0)
(0 0 0)
(0 0 0)
(0 0 0)
(0 0 0)
(0 0 0)
(0 0 0)
(0 0 0)
(0 0 0)
(0 0 0)
(0 0 0)
(0 0 0)
(0 0 0)
(0 0 0)
(0 0 0)
(0 0 0)
(0 0 0)
(0 0 0)
(0 0 0)
(0 0 0)
(0 0 0)
(0 0 0)
(0 0 0)
(0 0 0)
(0 0 0)
(0 0 0)
(0 0 0)
(0 0 0)
(0 0 0)
(0 0 0)
(0 0 0)
(0 0 0)
(0 0 0)
(0 0 0)
(0 0 0)
(0 0 0)
(0 0 0)
(0 0 0)
(0 0 0)
(0 0 0)
(0 0 0)
(0 0 0)
(0 0 0)
(0 0 0)
(0 0 0)
(0 0 0)
(0 0 0)
(0 0 0)
(0 0 0)
(0 0 0)
(0 0 0)
(0 0 0)
(0 0 0)
(0 0 0)
(0 0 0)
(0 0 0)
(0 0 0)
(0 0 0)
(0 0 0)
(0 0 0)
(0 0 0)
(0 0 0)
(0 0 0)
(0 0 0)
(0 0 0)
(0 0 0)
(0 0 0)
(0 0 0)
(0 0 0)
(0 0 0)
(0 0 0)
(0 0 0)
(0 0 0)
(0 0 0)
(0 0 0)
(0 0 0)
(0 0 0)
(0 0 0)
(0 0 0)
(0 0 0)
(0 0 0)
(0 0 0)
(0 0 0)
(0 0 0)
(0 0 0)
(0 0 0)
(0 0 0)
(0 0 0)
(0 0 0)
(0 0 0)
(0 0 0)
(0 0 0)
(0 0 0)
(0 0 0)
(0 0 0)
(0 0 0)
(0 0 0)
(-1.44365e-05 -7.65075e-05 0)
(-1.44365e-05 -7.79511e-05 0)
(-1.44366e-05 -7.93946e-05 0)
(-1.44366e-05 -8.08381e-05 0)
(-1.44366e-05 -8.22817e-05 0)
(-1.44366e-05 -8.37252e-05 0)
(-1.44366e-05 -8.51688e-05 0)
(-1.44367e-05 -8.66123e-05 0)
(-1.44367e-05 -8.80559e-05 0)
(-1.44367e-05 -8.94994e-05 0)
(-1.44367e-05 -9.09429e-05 0)
(-1.44368e-05 -9.23865e-05 0)
(-1.44368e-05 -9.383e-05 0)
(-1.44368e-05 -9.52736e-05 0)
(-1.44368e-05 -9.67171e-05 0)
(-1.44368e-05 -9.81606e-05 0)
(-1.44369e-05 -9.96042e-05 0)
(-1.44369e-05 -0.000101048 0)
(-1.44369e-05 -0.000102491 0)
(-1.44369e-05 -0.000103935 0)
(-1.44369e-05 -0.000105378 0)
(-1.4437e-05 -0.000106822 0)
(-1.4437e-05 -0.000108265 0)
(-1.4437e-05 -0.000109709 0)
(-1.4437e-05 -0.000111153 0)
(-1.4437e-05 -0.000112596 0)
(-1.44371e-05 -0.00011404 0)
(-1.29935e-05 -0.000115483 0)
(-1.155e-05 -0.000115483 0)
(0 0 0)
(0 0 0)
(0 0 0)
(0 0 0)
(0 0 0)
(0 0 0)
(0 0 0)
(0 0 0)
(0 0 0)
(0 0 0)
(0 0 0)
(0 0 0)
(0 0 0)
(0 0 0)
(0 0 0)
(0 0 0)
(0 0 0)
(0 0 0)
(0 0 0)
(0 0 0)
(0 0 0)
(0 0 0)
(0 0 0)
(0 0 0)
(0 0 0)
(0 0 0)
(0 0 0)
(0 0 0)
(0 0 0)
(0 0 0)
(0 0 0)
(0 0 0)
(0 0 0)
(0 0 0)
(0 0 0)
(0 0 0)
(0 0 0)
(0 0 0)
(0 0 0)
(0 0 0)
(0 0 0)
(0 0 0)
(0 0 0)
(0 0 0)
(0 0 0)
(0 0 0)
(0 0 0)
(0 0 0)
(0 0 0)
(0 0 0)
(0 0 0)
(0 0 0)
(0 0 0)
(0 0 0)
(0 0 0)
(0 0 0)
(0 0 0)
(0 0 0)
(0 0 0)
(0 0 0)
(0 0 0)
(0 0 0)
(0 0 0)
(0 0 0)
(0 0 0)
(0 0 0)
(0 0 0)
(0 0 0)
(0 0 0)
(0 0 0)
(0 0 0)
(0 0 0)
(0 0 0)
(0 0 0)
(0 0 0)
(0 0 0)
(0 0 0)
(0 0 0)
(0 0 0)
(0 0 0)
(0 0 0)
(0 0 0)
(0 0 0)
(0 0 0)
(0 0 0)
(0 0 0)
(0 0 0)
(0 0 0)
(0 0 0)
(0 0 0)
(0 0 0)
(0 0 0)
(0 0 0)
(0 0 0)
(0 0 0)
(0 0 0)
(0 0 0)
(0 0 0)
(0 0 0)
(0 0 0)
(0 0 0)
(0 0 0)
(0 0 0)
(0 0 0)
(0 0 0)
(0 0 0)
(0 0 0)
(0 0 0)
(0 0 0)
(0 0 0)
(0 0 0)
(0 0 0)
(0 0 0)
(0 0 0)
(0 0 0)
(0 0 0)
(0 0 0)
(0 0 0)
(0 0 0)
(0 0 0)
(0 0 0)
(0 0 0)
(0 0 0)
(0 0 0)
(0 0 0)
(0 0 0)
(0 0 0)
(0 0 0)
(0 0 0)
(-1.44365e-05 -7.65075e-05 0)
(-1.44365e-05 -7.79511e-05 0)
(-1.44366e-05 -7.93946e-05 0)
(-1.44366e-05 -8.08381e-05 0)
(-1.44366e-05 -8.22817e-05 0)
(-1.44366e-05 -8.37252e-05 0)
(-1.44366e-05 -8.51688e-05 0)
(-1.44367e-05 -8.66123e-05 0)
(-1.44367e-05 -8.80559e-05 0)
(-1.44367e-05 -8.94994e-05 0)
(-1.44367e-05 -9.09429e-05 0)
(-1.44368e-05 -9.23865e-05 0)
(-1.44368e-05 -9.383e-05 0)
(-1.44368e-05 -9.52736e-05 0)
(-1.44368e-05 -9.67171e-05 0)
(-1.44368e-05 -9.81606e-05 0)
(-1.44369e-05 -9.96042e-05 0)
(-1.44369e-05 -0.000101048 0)
(-1.44369e-05 -0.000102491 0)
(-1.44369e-05 -0.000103935 0)
(-1.44369e-05 -0.000105378 0)
(-1.4437e-05 -0.000106822 0)
(-1.4437e-05 -0.000108265 0)
(-1.4437e-05 -0.000109709 0)
(-1.4437e-05 -0.000111153 0)
(-1.4437e-05 -0.000112596 0)
(-1.44371e-05 -0.00011404 0)
(-1.29935e-05 -0.000115483 0)
(-1.155e-05 -0.000115483 0)
(-2.19177e-05 -6.91435e-05 0)
(-1.58122e-05 -0.000112027 0)
(-1.4767e-05 -7.98242e-05 0)
(-1.4897e-05 -9.29518e-05 0)
(-2.48391e-05 -8.0804e-05 0)
(-1.35249e-05 2.64561e-05 0)
(-1.03159e-05 3.10072e-05 0)
(-1.67295e-05 -2.24778e-05 0)
(-3.01574e-05 -0.00013616 0)
(-7.61304e-06 3.19413e-05 0)
(-3.32305e-05 -0.000170082 0)
(-5.78597e-06 5.72003e-05 0)
(-3.47474e-05 -0.000154326 0)
(-3.53908e-05 -0.000103446 0)
(-5.26627e-06 2.8196e-05 0)
(-1.54467e-05 -0.000119336 0)
(-4.96368e-06 4.8124e-05 0)
(-4.17732e-06 2.60581e-05 0)
(-4.16553e-06 3.94258e-05 0)
(-3.15645e-06 2.0474e-05 0)
(-2.90839e-06 2.71755e-05 0)
(-2.01558e-05 -5.27329e-05 0)
(-1.70132e-05 8.96217e-06 0)
(-1.17887e-05 3.26944e-05 0)
(-1.55919e-05 -0.000104709 0)
(-1.59948e-05 -9.3359e-05 0)
(-1.8369e-06 1.22577e-05 0)
(-1.8281e-06 1.53978e-05 0)
(-3.57772e-05 -0.000175828 0)
(-3.64724e-05 -0.000134806 0)
(-3.41999e-05 -0.000169534 0)
(-2.84422e-05 -0.00010867 0)
(-2.17959e-05 -6.73518e-05 0)
(-7.09999e-06 3.37379e-05 0)
(-8.87206e-06 3.00157e-05 0)
(-5.4905e-06 5.3179e-05 0)
(-5.45091e-06 5.26628e-05 0)
(-4.95911e-06 3.03937e-05 0)
(-1.64347e-05 -0.000122616 0)
(-1.19321e-06 8.75638e-06 0)
(-9.77423e-07 7.7822e-06 0)
(-3.21535e-05 -7.21236e-05 0)
(-2.56703e-05 -8.60181e-05 0)
(-2.30463e-05 -7.25811e-05 0)
(-2.10909e-05 -6.59358e-05 0)
(-2.19523e-05 -4.26304e-05 0)
(-1.56993e-05 -6.5737e-06 0)
(-1.34355e-05 1.69096e-05 0)
(-1.28821e-05 3.30064e-05 0)
(-1.14239e-05 3.18139e-05 0)
(-2.35064e-06 1.54392e-05 0)
(-5.33064e-06 5.22701e-05 0)
(-8.33664e-06 3.15808e-05 0)
(-6.33478e-06 6.11327e-05 0)
(-2.45334e-06 2.20414e-05 0)
(-2.93346e-06 2.7407e-05 0)
(-3.75143e-06 2.33769e-05 0)
(-7.21238e-06 3.24807e-05 0)
(-3.96835e-07 2.98188e-06 0)
(-0.000215914 -0.000911918 0)
(-0.000222915 -0.000931812 0)
(-0.000220196 -0.000981423 0)
(-0.000226943 -0.000997295 0)
(-0.000224379 -0.0010439 0)
(-0.000217446 -0.00102332 0)
(-0.000221825 -0.00108262 0)
(-0.000228478 -0.00109963 0)
(-0.000225994 -0.0011343 0)
(-0.000219138 -0.00111329 0)
(-0.000223294 -0.00115845 0)
(-0.000230099 -0.0011761 0)
(-0.000227619 -0.00119396 0)
(-0.00023443 -0.00120721 0)
(-0.000232421 -0.00121856 0)
(-0.000225493 -0.00119945 0)
(-0.00023084 -0.00121788 0)
(-0.000237804 -0.00123507 0)
(-0.000236748 -0.00123177 0)
(-0.000228817 -0.0012066 0)
(-0.000235831 -0.00122163 0)
(-0.000242556 -0.00124213 0)
(-0.000241611 -0.0012303 0)
(-0.000234716 -0.00121063 0)
(-0.000240448 -0.00121475 0)
(-0.000233275 -0.00119712 0)
(-0.000239306 -0.0011981 0)
(-0.000246309 -0.00121228 0)
(-0.000245374 -0.00119388 0)
(-0.000238103 -0.00117955 0)
(-0.000244248 -0.00117437 0)
(-0.000236773 -0.00116025 0)
(-0.000242953 -0.0011538 0)
(-0.000235323 -0.00113757 0)
(-0.00024148 -0.00113027 0)
(-0.000248606 -0.00114611 0)
(-0.000247159 -0.00112269 0)
(-0.000239983 -0.00110564 0)
(-0.000245629 -0.00109875 0)
(-0.000238467 -0.00108249 0)
(-0.000244106 -0.00107608 0)
(-0.000236896 -0.00106111 0)
(-0.000242536 -0.00105523 0)
(-0.000235565 -0.00104225 0)
(-0.000241042 -0.00103728 0)
(-0.000234393 -0.00102474 0)
(-0.000239501 -0.00102049 0)
(-0.000232977 -0.0010054 0)
(-0.000238109 -0.00100255 0)
(-0.000231189 -0.00098407 0)
(-0.000236557 -0.000984152 0)
(-0.000229061 -0.00096244 0)
(-0.000234651 -0.000965792 0)
(-0.000227129 -0.000941938 0)
(-0.000233207 -0.000946577 0)
(-0.000225962 -0.000920239 0)
(-0.000232587 -0.000926286 0)
(-0.000225661 -0.000897902 0)
(-0.000232519 -0.000906167 0)
(-0.000226038 -0.000876154 0)
(-0.000233173 -0.000885558 0)
(-0.000227294 -0.000854345 0)
(-0.000235029 -0.000863419 0)
(-0.000229818 -0.00083132 0)
(-0.000238454 -0.000839546 0)
(-0.000233675 -0.000807049 0)
(-0.000243116 -0.000814409 0)
(-0.000238404 -0.00078331 0)
(-0.000247837 -0.00079087 0)
(-0.00024315 -0.000762518 0)
(-0.000252384 -0.000771033 0)
(-0.000247784 -0.000745563 0)
(-0.000257285 -0.000754921 0)
(-0.000252882 -0.000733228 0)
(-0.000262616 -0.000742476 0)
(-0.00025847 -0.000724452 0)
(-0.000268384 -0.000732641 0)
(-0.000264648 -0.00071708 0)
(-0.000275003 -0.000724292 0)
(-0.000271734 -0.00071043 0)
(-0.000282586 -0.000716645 0)
(-0.000279713 -0.00070334 0)
(-0.000290639 -0.000708424 0)
(-0.000288203 -0.000695405 0)
(-0.000298886 -0.000699963 0)
(-0.000297087 -0.000688312 0)
(-0.000307174 -0.000692301 0)
(-0.00030545 -0.000682108 0)
(-0.000315161 -0.000684293 0)
(-0.000313367 -0.000674545 0)
(-0.000323541 -0.000674256 0)
(-0.000322303 -0.000665348 0)
(-0.000333133 -0.00066332 0)
(-0.0003332 -0.000656312 0)
(-0.000344178 -0.0006542 0)
(-0.000343567 -0.00065924 0)
(-0.00035442 -0.00065067 0)
(-0.000285934 -0.000730742 0)
(-0.000247906 -0.000846768 0)
(-0.000243151 -0.00100509 0)
(-0.000253725 -0.00113898 0)
(-0.000352805 -0.000655421 0)
(-0.000363668 -0.000647045 0)
(-0.000345426 -0.000649808 0)
(-0.000361011 -0.000652359 0)
(-0.000371693 -0.000643179 0)
(-0.000368552 -0.000648215 0)
(-0.000379 -0.000637446 0)
(-0.000375506 -0.000641352 0)
(-0.000385855 -0.000628583 0)
(-0.000381999 -0.000630304 0)
(-0.000392188 -0.000615483 0)
(-0.000388028 -0.000614995 0)
(-0.000397851 -0.000598453 0)
(-0.000402536 -0.00060192 0)
(-0.000407481 -0.000581674 0)
(-0.000412035 -0.000588055 0)
(-0.00041625 -0.000564155 0)
(-0.000411331 -0.000559722 0)
(-0.000419569 -0.000538916 0)
(-0.000420578 -0.000572354 0)
(-0.000414475 -0.000536551 0)
(-0.000422321 -0.000512257 0)
(-0.00041716 -0.000512365 0)
(-0.000424698 -0.000484618 0)
(-0.000419413 -0.000487031 0)
(-0.000426838 -0.00045651 0)
(-0.000421786 -0.000460827 0)
(-0.000428951 -0.000429047 0)
(-0.000424403 -0.000435073 0)
(-0.000431231 -0.000403122 0)
(-0.000427041 -0.000410885 0)
(-0.000433504 -0.000379758 0)
(-0.000437692 -0.000373859 0)
(-0.000439591 -0.000349336 0)
(-0.000443551 -0.000345866 0)
(-0.000444857 -0.000318871 0)
(-0.000448524 -0.000318944 0)
(-0.000449212 -0.00029058 0)
(-0.000445622 -0.000291149 0)
(-0.000449513 -0.000260965 0)
(-0.000445752 -0.000261182 0)
(-0.000449361 -0.000229615 0)
(-0.00045273 -0.000295419 0)
(-0.000445268 -0.000229383 0)
(-0.000448778 -0.000196229 0)
(-0.000444337 -0.000195588 0)
(-0.000447786 -0.000160258 0)
(-0.000442838 -0.000160173 0)
(-0.000446233 -0.000122177 0)
(-0.000440855 -0.000121973 0)
(-0.00044415 -8.19675e-05 0)
(-0.000449476 -8.61636e-05 0)
(-0.000447325 -4.34149e-05 0)
(-0.000452395 -5.20325e-05 0)
(-0.000450219 -7.33413e-06 0)
(-0.000444849 4.714e-07 0)
(-0.00044757 3.60192e-05 0)
(-0.000442185 4.42124e-05 0)
(-0.000445389 8.23558e-05 0)
(-0.000439325 8.65861e-05 0)
(-0.000441916 0.000123199 0)
(-0.000452682 2.66184e-05 0)
(-0.000435935 0.000128046 0)
(-0.000438416 0.000166271 0)
(-0.000432098 0.000171879 0)
(-0.000434402 0.000212957 0)
(-0.000427889 0.000218712 0)
(-0.000429982 0.000261375 0)
(-0.000334104 -0.000648909 0)
(-0.00042316 0.00026682 0)
(-0.000424886 0.000309672 0)
(-0.000431401 0.000302053 0)
(-0.000425939 0.000350128 0)
(-0.000431924 0.000340533 0)
(-0.000426358 0.000389107 0)
(-0.000420227 0.000398634 0)
(-0.000420588 0.000437058 0)
(-0.000414434 0.00044753 0)
(-0.000414875 0.000485791 0)
(-0.000426143 0.000424966 0)
(-0.000408585 0.000496411 0)
(-0.000409004 0.000535981 0)
(-0.000402626 0.00054599 0)
(-0.000402903 0.000587043 0)
(-0.00039645 0.000594857 0)
(-0.000396641 0.000636332 0)
(-0.000389978 0.000640375 0)
(-0.000390223 0.000682745 0)
(-0.000383355 0.000682761 0)
(-0.000383529 0.000725833 0)
(-0.000389964 0.000725188 0)
(-0.000383181 0.000768907 0)
(-0.000389124 0.00076737 0)
(-0.000382328 0.000812187 0)
(-0.000376365 0.000811406 0)
(-0.000375359 0.000855307 0)
(-0.000380931 0.00085519 0)
(-0.000373815 0.000898558 0)
(-0.000368251 0.000898089 0)
(-0.000366646 0.000941573 0)
(-0.000361082 0.000940435 0)
(-0.000359397 0.0009835 0)
(-0.000353727 0.000980658 0)
(-0.000351908 0.00102273 0)
(-0.00035716 0.00102421 0)
(-0.000349574 0.00106232 0)
(-0.000344289 0.00106028 0)
(-0.000341991 0.00109969 0)
(-0.000336657 0.00109706 0)
(-0.000334356 0.00113537 0)
(-0.000328965 0.00113183 0)
(-0.000326591 0.0011683 0)
(-0.000331557 0.00116896 0)
(-0.000323728 0.00120019 0)
(-0.000318729 0.0011985 0)
(-0.000315912 0.00122955 0)
(-0.000310888 0.00122678 0)
(-0.000308103 0.00125601 0)
(-0.000303055 0.00125217 0)
(-0.000300241 0.00127908 0)
(-0.00030488 0.00127965 0)
(-0.000296995 0.00130139 0)
(-0.000292343 0.00129943 0)
(-0.000289142 0.00132124 0)
(-0.000284495 0.00131823 0)
(-0.000281325 0.00133849 0)
(-0.000276671 0.00133379 0)
(-0.000273517 0.00135241 0)
(-0.000277826 0.00135578 0)
(-0.000270053 0.00136889 0)
(-0.000265757 0.00136403 0)
(-0.000262375 0.0013802 0)
(-0.000258062 0.00137362 0)
(-0.000254751 0.00138856 0)
(-0.000347015 -0.000645829 0)
(-0.00033551 -0.000642039 0)
(-0.00034886 -0.000643112 0)
(-0.000337543 -0.000637036 0)
(-0.000250437 0.00137999 0)
(-0.000247182 0.00139312 0)
(-0.000251127 0.00140029 0)
(-0.000243596 0.00140249 0)
(-0.00023965 0.00139343 0)
(-0.000247086 0.00140864 0)
(-0.000239645 0.00140876 0)
(-0.00024254 0.0014123 0)
(-0.000235398 0.00141143 0)
(-0.000228444 -0.00102875 0)
(-0.000420537 -0.00044343 0)
(-0.000382816 0.00064033 0)
(-0.000420953 0.000221731 0)
(-0.00026103 -0.000702696 0)
(-0.00021936 -0.000916064 0)
(-0.000233398 -0.000754053 0)
(-0.000437588 -0.000163087 0)
(-8.24378e-05 -0.000432948 0)
(-7.88711e-05 -0.00042347 0)
(-8.45502e-05 -0.000466504 0)
(-8.08225e-05 -0.000456312 0)
(-8.66184e-05 -0.000498356 0)
(-8.2804e-05 -0.000487602 0)
(-7.72098e-05 -0.000446247 0)
(-7.90857e-05 -0.000476468 0)
(-8.49233e-05 -0.00051427 0)
(-8.10726e-05 -0.000499736 0)
(-8.70901e-05 -0.000535098 0)
(-8.32051e-05 -0.000517068 0)
(-7.40252e-05 -0.000440489 0)
(-8.92867e-05 -0.00055214 0)
(-8.54562e-05 -0.000532213 0)
(-9.15978e-05 -0.000567309 0)
(-8.77358e-05 -0.000546436 0)
(-9.39101e-05 -0.000581648 0)
(-9.00938e-05 -0.000561189 0)
(-8.38786e-05 -0.000527312 0)
(-8.64201e-05 -0.000543055 0)
(-8.02168e-05 -0.000512133 0)
(-8.28992e-05 -0.000527186 0)
(-7.66553e-05 -0.000498888 0)
(-7.94306e-05 -0.000510058 0)
(-8.55076e-05 -0.000540007 0)
(-8.20833e-05 -0.000518301 0)
(-7.30221e-05 -0.000482124 0)
(-8.81504e-05 -0.000551148 0)
(-8.47938e-05 -0.000524932 0)
(-9.77969e-05 -0.000603415 0)
(-9.10628e-05 -0.000559619 0)
(-8.80778e-05 -0.000530202 0)
(-9.47058e-05 -0.000564807 0)
(-9.21372e-05 -0.000534358 0)
(-8.50999e-05 -0.000502312 0)
(-8.95362e-05 -0.00050681 0)
(-8.22348e-05 -0.000476883 0)
(-8.68742e-05 -0.000480171 0)
(-7.93398e-05 -0.00045209 0)
(-8.40718e-05 -0.000453475 0)
(-7.6405e-05 -0.000427429 0)
(-8.11883e-05 -0.000428107 0)
(-7.3173e-05 -0.000403901 0)
(-7.82854e-05 -0.000405238 0)
(-7.00081e-05 -0.000382049 0)
(-7.5826e-05 -0.000383356 0)
(-6.80052e-05 -0.000361487 0)
(-7.45222e-05 -0.000362293 0)
(-6.7808e-05 -0.000341022 0)
(-7.55178e-05 -0.000343544 0)
(-6.87959e-05 -0.00032138 0)
(-7.54962e-05 -0.000323858 0)
(-7.042e-05 -0.000302139 0)
(-7.74103e-05 -0.000307357 0)
(-7.3047e-05 -0.000284158 0)
(-8.00235e-05 -0.000291383 0)
(-7.60091e-05 -0.00026843 0)
(-8.28143e-05 -0.000277495 0)
(-7.85095e-05 -0.000255509 0)
(-8.44587e-05 -0.000266405 0)
(-7.99646e-05 -0.000246217 0)
(-8.47458e-05 -0.000258682 0)
(-8.02941e-05 -0.000240026 0)
(-8.44457e-05 -0.000254228 0)
(-7.97706e-05 -0.000236419 0)
(-8.32393e-05 -0.000252364 0)
(-7.82067e-05 -0.000235503 0)
(-8.12059e-05 -0.000252423 0)
(-7.6434e-05 -0.000236318 0)
(-7.98585e-05 -0.000253016 0)
(-7.66581e-05 -0.000237572 0)
(-8.12966e-05 -0.000253778 0)
(-8.0931e-05 -0.000239217 0)
(-8.63728e-05 -0.000256025 0)
(-8.88208e-05 -0.000242277 0)
(-9.45404e-05 -0.000260774 0)
(-9.88086e-05 -0.000247648 0)
(-0.000104477 -0.000267667 0)
(-0.000110075 -0.000254636 0)
(-8.25028e-05 -0.000330264 0)
(-8.92696e-05 -0.000273042 0)
(-0.000115657 -0.000275055 0)
(-9.15334e-05 -0.000273368 0)
(-8.63935e-05 -0.000430864 0)
(-6.21674e-05 -0.000360374 0)
(-9.89992e-05 -0.000569468 0)
(-0.000378823 -0.000632293 0)
(-9.30477e-05 -0.000229099 0)
(-0.00023874 -0.000934371 0)
(-6.5076e-05 -0.000276032 0)
(-7.34863e-05 -0.000219745 0)
(-0.000101181 -0.00060329 0)
(-0.000105497 -0.000607338 0)
(-0.000107605 -0.000644231 0)
(-0.000111724 -0.000645841 0)
(-0.000114137 -0.000684682 0)
(-0.000118027 -0.000686029 0)
(-0.00012076 -0.000724876 0)
(-0.000124606 -0.000727509 0)
(-0.000127449 -0.000764241 0)
(-0.000131252 -0.000768013 0)
(-0.000133997 -0.000802196 0)
(-0.000128386 -0.000728689 0)
(-0.000135174 -0.000769749 0)
(-0.00013223 -0.000729957 0)
(-0.000139268 -0.000771124 0)
(-0.000136558 -0.000731539 0)
(-0.000143764 -0.000772628 0)
(-0.000141634 -0.000732534 0)
(-0.000452142 -0.000323182 0)
(-0.000456299 -0.000304559 0)
(-0.000148657 -0.000774022 0)
(-0.000146898 -0.000734103 0)
(-0.0001511 -0.000813752 0)
(-7.4156e-05 -0.000234715 0)
(-0.000219469 -0.000845543 0)
(-0.000228941 -0.00114275 0)
(-0.000284716 -0.000680602 0)
(-0.000309458 -0.000702039 0)
(-0.000355096 0.000937301 0)
(-0.000253407 0.00136405 0)
(-0.000227949 0.0014077 0)
(-0.000279501 0.00131207 0)
(-0.000305504 0.00122119 0)
(-0.000378862 0.000896608 0)
(-0.000328242 0.00119694 0)
(-0.000301189 0.00129889 0)
(-0.000401925 0.000505276 0)
(-0.000423648 -0.00041993 0)
(-0.000417642 -0.000453209 0)
(-0.000420745 -0.00042901 0)
(-0.000415104 -0.000462873 0)
(-0.000417594 -0.00043734 0)
(-0.000412227 -0.00047085 0)
(-0.000413822 -0.00044451 0)
(-0.000408605 -0.000477242 0)
(-0.000409382 -0.000450979 0)
(-0.000404326 -0.000480203 0)
(-0.00040484 -0.000451943 0)
(-0.000399377 -0.000479928 0)
(-0.00039958 -0.000451079 0)
(-0.000393559 -0.000481868 0)
(-0.000393267 -0.000456215 0)
(-0.000386342 -0.000493304 0)
(-0.000386724 -0.000465153 0)
(-0.000380117 -0.000499387 0)
(-0.000380175 -0.000476676 0)
(-0.000373918 -0.000510659 0)
(-0.000373227 -0.000491801 0)
(-0.000367137 -0.000526245 0)
(-0.000365922 -0.000510938 0)
(-0.000367528 -0.000542747 0)
(-0.000360924 -0.000558596 0)
(-0.000361004 -0.000576319 0)
(-0.000354772 -0.000591433 0)
(-0.000354865 -0.000611391 0)
(-0.00034907 -0.000624927 0)
(-0.000349193 -0.000647234 0)
(-0.000343526 -0.000659409 0)
(-0.000343532 -0.000685175 0)
(-0.000337869 -0.000696925 0)
(-0.000337103 -0.000670745 0)
(-0.000337914 -0.000724796 0)
(-0.000332446 -0.000735141 0)
(-0.000332384 -0.000764678 0)
(-0.000327156 -0.000772946 0)
(-0.000327143 -0.000804292 0)
(-0.000322033 -0.000811933 0)
(-0.000322325 -0.000844279 0)
(-0.000317129 -0.000850682 0)
(-0.000317738 -0.000884205 0)
(-0.000312331 -0.000887177 0)
(-0.000313217 -0.000921662 0)
(-0.00031114 -0.000852864 0)
(-0.000326603 -0.000836571 0)
(-0.000307624 -0.000919733 0)
(-0.000308853 -0.000954338 0)
(-0.000303193 -0.000947452 0)
(-0.000304962 -0.000980647 0)
(-0.000310095 -0.000986662 0)
(-0.000306739 -0.00101155 0)
(-0.00031108 -0.00101339 0)
(-0.00030807 -0.0010371 0)
(-0.000303401 -0.00103377 0)
(-0.000304864 -0.00105717 0)
(-0.000311484 -0.00103223 0)
(-0.000299577 -0.00105223 0)
(-0.00030116 -0.00107363 0)
(-0.000295208 -0.00106468 0)
(-0.000297064 -0.00108378 0)
(-0.000290599 -0.00107083 0)
(-0.000292677 -0.00108727 0)
(-0.000298392 -0.0010981 0)
(-0.000293961 -0.00109958 0)
(-0.000298835 -0.00111003 0)
(-0.000294341 -0.00110973 0)
(-0.000289088 -0.0010956 0)
(-0.000289479 -0.00110335 0)
(-0.000298294 -0.00112182 0)
(-0.000283682 -0.00108604 0)
(-0.000284219 -0.00109348 0)
(-0.00034871 -0.000673026 0)
(-0.000371645 -0.00047281 0)
(-0.000364168 -0.000495562 0)
(-0.000369629 -0.000455518 0)
(-0.000361977 -0.000478037 0)
(-0.000277867 -0.00107509 0)
(-0.000278857 -0.00108726 0)
(-0.000367172 -0.000436282 0)
(-0.000359191 -0.00045663 0)
(-0.000364166 -0.000410806 0)
(-0.000355878 -0.000428339 0)
(-0.000360799 -0.000378106 0)
(-0.00035223 -0.000393492 0)
(-0.00035713 -0.000339898 0)
(-0.0003484 -0.000354045 0)
(-0.000343518 -0.00040714 0)
(-0.000339524 -0.000365462 0)
(-0.000334744 -0.000417395 0)
(-0.00033053 -0.000372789 0)
(-0.000325837 -0.000422864 0)
(-0.000321428 -0.000374279 0)
(-0.000326166 -0.000324502 0)
(-0.000316859 -0.000322249 0)
(-0.000321643 -0.000272237 0)
(-0.000311939 -0.000270427 0)
(-0.000317012 -0.000220372 0)
(-0.000307041 -0.000221922 0)
(-0.000312249 -0.000172312 0)
(-0.000302057 -0.000177099 0)
(-0.000307133 -0.000127649 0)
(-0.000296675 -0.000134602 0)
(-0.000301663 -8.4808e-05 0)
(-0.000291031 -9.27777e-05 0)
(-0.00029598 -4.22122e-05 0)
(-0.000285279 -5.07313e-05 0)
(-0.000290234 9.30864e-07 0)
(-0.000279478 -8.90068e-06 0)
(-0.000284549 4.32068e-05 0)
(-0.00031657 -0.000422631 0)
(-0.000273633 3.04748e-05 0)
(-0.000278782 8.2693e-05 0)
(-0.000267735 6.71228e-05 0)
(-0.000272445 0.000119118 0)
(-0.000261754 0.00010451 0)
(-0.000266354 0.000156698 0)
(-0.000296597 -0.000226013 0)
(-0.000255618 0.000142682 0)
(-0.000260407 0.000195203 0)
(-0.000249149 0.000177823 0)
(-0.000254263 0.000231974 0)
(-0.00024258 0.000209277 0)
(-0.000247613 0.00026313 0)
(-0.000235804 0.000238187 0)
(-0.000240794 0.000292781 0)
(-0.000228906 0.000268593 0)
(-0.000233857 0.000325029 0)
(-0.000274163 -5.98053e-05 0)
(-0.000221877 0.000302226 0)
(-0.00022682 0.000359429 0)
(-0.000238395 0.000387208 0)
(-0.000231278 0.000420587 0)
(-0.00021972 0.000391662 0)
(-0.000224093 0.000452195 0)
(-0.000212507 0.000421637 0)
(-0.000216867 0.000483473 0)
(-0.000228143 0.000517024 0)
(-0.000220921 0.0005489 0)
(-0.00020966 0.000514136 0)
(-0.000213703 0.000579628 0)
(-0.000202477 0.000543406 0)
(-0.000206483 0.000608096 0)
(-0.000195325 0.000570116 0)
(-0.000199269 0.00063265 0)
(-0.00018819 0.000592284 0)
(-0.000192068 0.000651647 0)
(-0.000202828 0.000693527 0)
(-0.000195581 0.000710426 0)
(-0.000184923 0.000666096 0)
(-0.000188439 0.000725282 0)
(-0.000177889 0.000678355 0)
(-0.000181433 0.000738767 0)
(-0.000170991 0.000689172 0)
(-0.000174526 0.000748638 0)
(-0.00018465 0.000798528 0)
(-0.000177672 0.000805381 0)
(-0.00016769 0.00075341 0)
(-0.000170764 0.000807498 0)
(-0.000160935 0.000754244 0)
(-0.000163971 0.000806366 0)
(-0.000154297 0.000752569 0)
(-0.000157294 0.000802483 0)
(-0.000166625 0.000855187 0)
(-0.00015987 0.000849199 0)
(-0.000150722 0.000795198 0)
(-0.000153297 0.000840039 0)
(-0.000144309 0.000785486 0)
(-0.000146732 0.000828586 0)
(-0.000155472 0.000881815 0)
(-0.000148902 0.000870699 0)
(-0.000139 0.000810156 0)
(-0.000142542 0.000859884 0)
(-0.000150789 0.000909266 0)
(-0.000144564 0.000898292 0)
(-0.00013687 0.0008512 0)
(-0.000138339 0.000883047 0)
(-0.000145679 0.000930249 0)
(-0.0001395 0.000912051 0)
(-0.000132114 0.000863185 0)
(-0.000133312 0.000889881 0)
(-0.000140397 0.000937268 0)
(-0.000134251 0.000914221 0)
(-0.000140945 0.000959622 0)
(-0.000134886 0.000937074 0)
(-0.000128153 0.000890668 0)
(-0.000128844 0.000913861 0)
(-0.000135254 0.000957827 0)
(-0.000129244 0.000934592 0)
(-0.000135268 0.000975808 0)
(-0.000129313 0.000952186 0)
(-0.000123278 0.000910929 0)
(-0.000123345 0.000926867 0)
(-0.000129127 0.00096665 0)
(-0.000123136 0.000939576 0)
(-0.000128733 0.000979029 0)
(-0.000122675 0.000950405 0)
(-0.000117173 0.000911183 0)
(-0.000116675 0.000920495 0)
(-0.00012199 0.00095961 0)
(-0.000115992 0.000927864 0)
(-0.000110713 0.000887564 0)
(-0.000121073 0.000966562 0)
(-0.000115059 0.000932651 0)
(-0.000119908 0.000970798 0)
(-0.000113897 0.000934692 0)
(-0.000118492 0.000972412 0)
(-0.000112443 0.000933916 0)
(-0.000116802 0.000970909 0)
(-0.000110665 0.000929718 0)
(-0.000114937 0.00096634 0)
(-0.00010858 0.000921867 0)
(-0.000104423 0.000885271 0)
(-0.000112745 0.00095768 0)
(-0.000106377 0.000912016 0)
(-0.000110303 0.000945627 0)
(-0.00010406 0.000899724 0)
(-0.000107712 0.000930791 0)
(-0.000101444 0.000883977 0)
(-0.000104861 0.000912579 0)
(-0.000116629 0.000990371 0)
(-0.000124637 0.00100828 0)
(-9.85266e-05 0.000864806 0)
(-0.000101778 0.000891123 0)
(-9.51153e-05 0.000835518 0)
(-0.000231884 0.000583268 0)
(-0.000250134 8.70277e-05 0)
(-9.54314e-05 0.000842425 0)
(-9.85245e-05 0.00086683 0)
(-0.000104866 0.000914893 0)
(-0.000101463 0.000889271 0)
(-0.000107825 0.000937295 0)
(-0.00010425 0.000910274 0)
(-0.000266877 0.000251354 0)
(-9.79076e-05 0.000861562 0)
(-0.000100522 0.000881357 0)
(-0.000271955 -0.00107018 0)
(-0.000273367 -0.00108514 0)
(-0.000280036 -0.00110121 0)
(-0.000274862 -0.00109572 0)
(-0.000281444 -0.00111255 0)
(-0.000276467 -0.00110117 0)
(-0.000282704 -0.00112123 0)
(-0.000277861 -0.00110486 0)
(-0.00028372 -0.00112787 0)
(-0.000279037 -0.00110773 0)
(-0.000272922 -0.00108512 0)
(-0.000274352 -0.00108459 0)
(-0.000279922 -0.00110993 0)
(-0.000275951 -0.00108614 0)
(-0.000270097 -0.00105884 0)
(-0.000272367 -0.00105807 0)
(-0.000277668 -0.00108914 0)
(-0.000274766 -0.00105856 0)
(-0.000268901 -0.00102395 0)
(-0.000271776 -0.00101892 0)
(-0.000276922 -0.00105483 0)
(-0.000274113 -0.00100768 0)
(-0.000278348 -0.00104303 0)
(-0.000275514 -0.000989939 0)
(-0.000270677 -0.000952474 0)
(-0.000271838 -0.000929821 0)
(-0.000275286 -0.000963144 0)
(-0.000271227 -0.000898848 0)
(-0.000267255 -0.000865567 0)
(-0.00026663 -0.000830556 0)
(-0.000269605 -0.000859533 0)
(-0.000265507 -0.00078838 0)
(-0.000267873 -0.000815445 0)
(-0.000264483 -0.000742446 0)
(-0.000261676 -0.000715556 0)
(-0.000261056 -0.000667254 0)
(-0.000263587 -0.00069237 0)
(-0.0002602 -0.000612862 0)
(-0.00025723 -0.000587228 0)
(-9.41942e-05 0.000832123 0)
(-9.66593e-05 0.000851306 0)
(-0.000300526 9.59094e-06 0)
(-0.000265815 -0.00106675 0)
(-0.000264054 -0.00105009 0)
(-0.00022332 0.000217118 0)
(-0.000110644 0.000958277 0)
(-0.000403335 -0.00050572 0)
(-9.03408e-05 0.00080145 0)
(-9.26758e-05 0.000820432 0)
(-0.00018394 0.000532702 0)
(-0.000257446 -0.00104338 0)
(-0.000255467 -0.00102784 0)
(-8.63615e-05 0.000769702 0)
(-8.85694e-05 0.000788011 0)
(-9.48693e-05 0.000837783 0)
(-8.40298e-05 0.000750357 0)
(-0.000288179 -0.00105002 0)
(-0.000248684 -0.00101811 0)
(-0.00024627 -0.00100303 0)
(-0.000321886 -0.000171155 0)
(-0.000365569 -0.000323631 0)
(-0.000239327 -0.000989545 0)
(-0.000236262 -0.000975402 0)
(-0.000283246 0.000139079 0)
(-0.000150938 0.00070082 0)
(-0.00018747 0.000853086 0)
(-0.000433012 8.93652e-05 0)
(-0.000249082 -0.0010698 0)
(-0.000155757 -0.000814796 0)
(-0.00015871 -0.000854399 0)
(-0.000261531 -0.000777765 0)
(-0.00022943 -0.000942421 0)
(-7.03161e-05 -0.00047323 0)
(-6.66748e-05 -0.000458118 0)
(-6.4189e-05 -0.000451925 0)
(-6.06607e-05 -0.000439361 0)
(-5.85503e-05 -0.000435297 0)
(-5.50803e-05 -0.000422499 0)
(-5.33917e-05 -0.000420722 0)
(-5.00452e-05 -0.000405959 0)
(-4.88336e-05 -0.000404617 0)
(-4.55895e-05 -0.000389453 0)
(-4.49487e-05 -0.000387713 0)
(-4.18984e-05 -0.000371972 0)
(-4.15711e-05 -0.000369638 0)
(-3.88346e-05 -0.000353715 0)
(-3.86373e-05 -0.000350156 0)
(-3.62814e-05 -0.000333082 0)
(-3.60248e-05 -0.000327424 0)
(-3.40909e-05 -0.00030895 0)
(-3.36269e-05 -0.000303167 0)
(-3.5663e-05 -0.000318664 0)
(-3.31314e-05 -0.000296057 0)
(-3.52215e-05 -0.000308612 0)
(-3.28203e-05 -0.000287055 0)
(-3.47713e-05 -0.000293666 0)
(-3.25327e-05 -0.000270202 0)
(-3.44137e-05 -0.000270068 0)
(-3.21659e-05 -0.000244545 0)
(-3.40999e-05 -0.000241141 0)
(-3.18402e-05 -0.000215828 0)
(-3.37228e-05 -0.000210889 0)
(-3.1412e-05 -0.000185932 0)
(-3.32232e-05 -0.000181485 0)
(-3.0896e-05 -0.000157919 0)
(-3.26083e-05 -0.000156272 0)
(-3.028e-05 -0.000135256 0)
(-3.20044e-05 -0.000284358 0)
(-3.2725e-05 -0.000288751 0)
(-2.92809e-05 -0.000161207 0)
(-3.08365e-05 -0.000265583 0)
(-3.16804e-05 -0.000272491 0)
(-3.00265e-05 -0.000251482 0)
(-3.09292e-05 -0.00026056 0)
(-2.92875e-05 -0.000239618 0)
(-3.01176e-05 -0.000248399 0)
(-2.83515e-05 -0.000227249 0)
(-2.90001e-05 -0.000233538 0)
(-2.76486e-05 -0.000216908 0)
(-2.67439e-05 -0.000205592 0)
(-2.61278e-05 -0.000194279 0)
(-3.09344e-05 -0.000251984 0)
(-2.97397e-05 -0.00023573 0)
(-2.53544e-05 -0.00018477 0)
(-2.48239e-05 -0.000175091 0)
(-3.16688e-05 -0.000251311 0)
(-3.06019e-05 -0.000236002 0)
(-2.41625e-05 -0.000166548 0)
(-2.35889e-05 -0.00015989 0)
(-4.67739e-05 -0.000384176 0)
(-3.63344e-05 -0.000263787 0)
(-9.04856e-05 -0.000509571 0)
(-0.000130394 -0.000795766 0)
(-0.000137175 -0.000833117 0)
(-0.000133744 -0.000825417 0)
(-0.000140975 -0.000861551 0)
(-0.000137604 -0.00085251 0)
(-0.000144723 -0.00088404 0)
(-0.000141482 -0.000875538 0)
(-0.000148296 -0.000903155 0)
(-0.000145165 -0.000896386 0)
(-0.000152166 -0.000923729 0)
(-0.000148858 -0.000918236 0)
(-0.00015588 -0.000946724 0)
(-0.000152608 -0.00094016 0)
(-0.000154537 -0.0009263 0)
(-0.000159527 -0.000969593 0)
(-0.000156452 -0.000960552 0)
(-0.000163444 -0.000989779 0)
(-0.000160532 -0.00097769 0)
(-0.000153737 -0.000944643 0)
(-0.000157887 -0.000958225 0)
(-3.25774e-05 -0.000249738 0)
(-3.17469e-05 -0.0002347 0)
(-2.96363e-05 -0.000220774 0)
(-3.11455e-05 -0.000219211 0)
(-2.89374e-05 -0.000205943 0)
(-3.0939e-05 -0.00020403 0)
(-2.87183e-05 -0.000191795 0)
(-3.12631e-05 -0.000189715 0)
(-2.92237e-05 -0.000177903 0)
(-3.21987e-05 -0.000176262 0)
(-8.46077e-05 -0.000269365 0)
(-2.29712e-05 -0.000151517 0)
(-2.23079e-05 -0.000147881 0)
(-2.29921e-05 -0.000155895 0)
(-2.16992e-05 -0.000143827 0)
(-0.000151265 -0.000920437 0)
(-0.000155365 -0.00093041 0)
(-3.35148e-05 -0.00020327 0)
(-0.000229003 -0.000955871 0)
(-0.00022527 -0.000942474 0)
(-0.00023204 -0.000963821 0)
(-0.000399067 -0.000421322 0)
(-0.00014863 -0.000888926 0)
(-0.000152732 -0.000895011 0)
(-0.000145634 -0.00085186 0)
(-0.000149984 -0.000853228 0)
(-0.000156992 -0.00089735 0)
(-0.000154237 -0.000849723 0)
(-0.000164789 -0.00099296 0)
(-0.000147151 -0.00080621 0)