/*--------------------------------*- C++ -*----------------------------------*\
| =========                 |                                                 |
| \\      /  F ield         | OpenFOAM: The Open Source CFD Toolbox           |
|  \\    /   O peration     | Version:  v2012                                 |
|   \\  /    A nd           | Website:  www.openfoam.com                      |
|    \\/     M anipulation  |                                                 |
\*---------------------------------------------------------------------------*/
FoamFile
{
    version     2.0;
    format      ascii;
    class       volVectorField;
    location    "600";
    object      ddt0(U);
}
// * * * * * * * * * * * * * * * * * * * * * * * * * * * * * * * * * * * * * //

dimensions      [0 1 -2 0 0 0 0];


internalField   nonuniform List<vector> 
13851
(
(-0.000810479 0.000151706 2.21395e-18)
(-0.000381834 0.000327555 1.32502e-19)
(-0.000371334 0.000321189 1.81907e-19)
(0.000792184 -0.000626574 1.11908e-17)
(-1.15703e-05 2.32385e-07 -2.08409e-19)
(-0.000396085 0.000398379 -4.23935e-19)
(-0.000433493 0.000267422 -2.36474e-20)
(-5.57575e-05 5.22055e-06 3.79411e-20)
(0.00955298 -0.000698107 -9.6021e-19)
(-2.7059e-05 7.51613e-05 -3.81436e-18)
(-0.000503837 0.000899531 7.15095e-20)
(-1.35236e-05 1.45456e-05 -1.07327e-18)
(-5.02198e-05 0.00014704 -1.71809e-18)
(0.00807041 -0.000539029 2.25348e-18)
(-0.000585969 0.000317072 -6.78726e-20)
(-0.000721434 0.000235831 3.42922e-18)
(0.000442216 7.71266e-05 9.31581e-18)
(-0.000188041 0.000189454 5.54947e-19)
(-0.00146274 0.000278712 -1.48751e-18)
(-0.000812432 0.000160255 -1.81651e-18)
(-0.000633735 0.000350394 1.51334e-18)
(-0.000167691 0.000431017 2.92926e-18)
(0.00580361 -0.00167244 -5.90576e-19)
(-2.15089e-06 -2.98464e-07 3.49059e-18)
(-0.000793025 0.00129481 8.43033e-18)
(-0.000597447 0.000226861 -4.65361e-19)
(-0.000584058 0.000183278 -6.04108e-19)
(-0.000776234 -0.00022547 -1.05869e-18)
(0.00962495 -9.24806e-05 2.10224e-18)
(-0.000102032 9.72806e-05 8.08231e-19)
(0.00626402 -0.000252083 -5.76372e-18)
(-0.00042605 0.000265795 1.01459e-19)
(-0.000772206 0.000149863 3.89479e-18)
(0.0117432 -0.000763091 2.03035e-19)
(-0.000454849 0.000708526 -1.28012e-18)
(0.00981761 -8.29071e-05 -2.08883e-19)
(-7.38862e-07 -2.86834e-07 -3.29498e-18)
(-0.00088513 0.00240209 1.33242e-17)
(0.0134016 0.000520919 2.92709e-19)
(-8.83373e-05 0.000176309 -3.71221e-18)
(0.0125487 -0.00110323 -3.77577e-18)
(0.0100015 -0.000118828 -1.89105e-18)
(-0.00248613 -9.58416e-05 2.20025e-17)
(0.000698573 0.00069311 -2.69559e-18)
(0.0102919 -0.000224486 4.80401e-20)
(-8.27708e-05 0.000115044 -1.69536e-18)
(-0.000128749 1.27886e-05 -6.74203e-19)
(-0.000667254 0.000259281 3.07282e-19)
(-0.000222272 0.000350477 -1.99531e-18)
(-4.78481e-05 0.000145853 1.30413e-18)
(0.0068132 -0.00011134 -4.96841e-18)
(-5.63744e-05 0.000161568 1.04774e-17)
(-0.000712379 0.000238724 -1.55254e-18)
(-0.000494656 0.000291108 2.2848e-19)
(0.00739478 -0.000331099 9.26885e-19)
(-8.64777e-05 0.000176084 3.40064e-18)
(-0.000780257 0.000141308 -4.31551e-18)
(0.0122779 -0.000973159 4.58521e-18)
(-0.000746893 0.000439804 1.32942e-20)
(0.00840325 -0.000501393 2.32783e-19)
(-1.30798e-05 1.2198e-05 -5.39251e-18)
(-0.000516637 0.000179756 2.39973e-19)
(-1.48292e-05 3.44368e-05 -2.90187e-18)
(-0.000225529 0.000358737 2.18653e-18)
(0.000607636 0.000335764 1.17749e-18)
(0.000670364 0.000305821 1.03455e-18)
(0.00800247 -0.000486465 6.62892e-20)
(3.38403e-05 -6.32744e-05 -2.25485e-17)
(-0.000124691 0.000209481 -3.8851e-18)
(0.0019085 -0.000321879 -7.21601e-18)
(0.00387521 4.42447e-05 1.00507e-17)
(-0.000693246 0.000350315 -3.19938e-18)
(-5.32704e-05 0.00013338 1.94106e-18)
(0.00819325 -0.000470837 1.12676e-19)
(-0.000516605 0.000288659 3.58266e-19)
(-0.000137311 0.000335458 3.70038e-18)
(0.000789194 0.000130195 1.11065e-17)
(-0.000114692 7.63633e-05 -3.51595e-18)
(-0.000754123 0.00143269 -4.8179e-18)
(-4.16752e-05 7.79036e-05 1.63508e-18)
(-0.000131208 0.000215942 9.50885e-18)
(-0.0008739 0.0015458 6.74898e-20)
(-0.000448414 0.000701454 6.31511e-20)
(0.00816044 -0.000492443 3.78426e-19)
(0.00843337 -0.000471028 -3.48657e-19)
(0.00558878 -0.000170951 -3.57551e-18)
(-0.000173861 0.00044313 5.87554e-19)
(0.00764353 -0.000233524 -8.62726e-19)
(-3.08369e-05 8.17636e-05 -4.59441e-21)
(0.0063923 -0.000437322 -2.28175e-18)
(-5.67227e-05 0.000162779 3.09924e-18)
(-0.000427846 0.000268477 -1.28346e-19)
(0.00351455 -3.85185e-05 6.10071e-18)
(0.00369616 -0.00023377 -4.79658e-18)
(0.0111985 0.000190901 -2.21417e-18)
(0.000614014 0.000717384 -4.22629e-18)
(-6.89961e-05 0.000114905 1.39054e-18)
(-0.000697765 0.000265102 9.25573e-20)
(0.00832906 -0.000384611 -2.78858e-18)
(-8.84448e-05 0.00131781 -3.90565e-18)
(-0.000695997 0.000274709 1.79147e-18)
(3.9403e-05 0.000118335 -5.69473e-18)
(9.62203e-05 0.000132947 -2.67229e-17)
(-5.51368e-05 0.000146747 -5.77118e-18)
(-9.53149e-05 0.000125662 -1.2929e-18)
(-0.000697586 0.000421838 3.09906e-18)
(-9.34001e-05 0.000120858 1.53118e-20)
(0.00482038 -9.85259e-05 -1.79967e-17)
(-0.000424432 0.00026671 4.94407e-20)
(-0.000185302 0.000183845 -1.5783e-18)
(-8.49069e-05 0.000488298 -6.13047e-18)
(-8.59893e-05 0.000120102 -4.02948e-19)
(-0.0012274 0.000816132 1.70128e-19)
(-0.000745818 0.000698641 -3.22985e-19)
(-0.000686483 0.000165425 6.4667e-19)
(-0.000495103 0.000291044 -3.81735e-19)
(-6.50397e-05 5.18293e-05 -2.28546e-18)
(-6.03198e-05 7.03812e-06 1.19015e-18)
(0.0005364 -0.000614621 -2.60587e-17)
(0.00283718 -0.000457746 -2.85931e-17)
(0.000470643 0.000833831 1.11562e-19)
(-0.000153042 0.00014953 2.64327e-18)
(-0.000113059 0.000200296 -2.39204e-18)
(0.00950041 -0.000539831 -3.81222e-19)
(-0.00117085 0.00011573 3.44278e-18)
(0.000210012 -0.000184637 4.97054e-17)
(-7.20066e-05 0.000113284 6.3105e-18)
(-0.000221404 0.00086242 1.55738e-18)
(0.0112179 -0.000757937 -1.37086e-19)
(-0.000658171 0.000311356 6.2946e-19)
(-0.000156929 0.000428094 -1.52668e-19)
(-0.000414003 0.00053624 1.60607e-19)
(6.76265e-05 0.00169294 1.19058e-17)
(0.0117809 -0.000761152 5.04563e-20)
(-0.000530538 0.000910976 -1.88571e-18)
(0.0111233 0.0002513 1.7677e-18)
(4.4761e-05 -5.64522e-05 5.39209e-17)
(0.0048179 -6.07925e-05 1.7638e-17)
(-9.73871e-06 0.000158719 1.06104e-17)
(-0.000631704 0.000299481 1.11935e-18)
(-0.000805193 0.00153679 6.02911e-18)
(-6.34922e-05 0.000201966 -2.05321e-18)
(-3.22426e-05 8.58808e-05 -5.60249e-19)
(0.00039874 3.56468e-05 1.21402e-17)
(-0.000969255 0.00096746 -4.90963e-19)
(-0.000106975 0.000303749 -1.84716e-18)
(-0.000114492 7.3199e-05 1.09245e-18)
(0.00425533 -0.00034928 -1.55942e-18)
(0.00834336 -0.000287057 3.43199e-21)
(-0.000216005 0.000891459 -1.82383e-18)
(-0.000687275 0.000273328 -2.96135e-19)
(-0.00117545 0.000834242 -1.77372e-18)
(-0.000766415 0.000714064 -1.64487e-18)
(-0.00130364 0.000270483 -6.65566e-18)
(-5.77319e-05 0.000168855 -8.8391e-18)
(-3.99702e-05 0.00012228 4.26165e-18)
(-1.10256e-05 7.29411e-06 -1.11149e-17)
(0.012027 0.000626806 1.74747e-18)
(-0.00061395 0.000307594 2.94208e-19)
(-0.000393169 0.000261984 6.95529e-20)
(-3.0975e-06 -5.54575e-07 -4.46614e-18)
(0.00969993 -8.41516e-05 1.24867e-18)
(-0.0006985 0.000412946 -1.47352e-18)
(-0.000662934 0.000255169 6.48707e-19)
(0.00805765 -0.000511149 -8.78878e-19)
(0.0102912 -0.000690536 -1.83498e-19)
(0.0103834 -0.0007113 2.23405e-19)
(0.00693662 -0.000136819 1.06396e-17)
(-9.33113e-05 0.000481849 6.03781e-18)
(-0.0031946 -0.000520548 -2.13421e-19)
(-1.16989e-05 9.25972e-06 -7.9538e-19)
(-6.4829e-05 4.98857e-05 -2.29047e-20)
(-0.000773012 0.000474976 -2.1178e-18)
(-9.26924e-06 -4.83531e-08 2.66258e-19)
(0.0124588 0.000267385 3.45396e-18)
(-0.000690237 -8.81396e-06 1.65538e-18)
(-0.000637357 0.000248849 8.39796e-19)
(-6.91338e-05 5.21315e-05 -6.54761e-19)
(-0.000508345 0.000288022 4.15039e-19)
(-0.000649708 0.000253011 -1.23125e-18)
(-0.00114892 0.000123811 -2.35827e-18)
(0.000663727 0.000750599 5.0172e-18)
(-0.000115309 0.000481946 1.11428e-18)
(-0.000646151 0.000308705 1.90321e-19)
(-0.00182984 -2.85423e-05 1.44306e-17)
(0.00844148 -0.000223804 -1.51937e-18)
(-0.000762977 0.000146454 -4.27715e-19)
(-4.17245e-05 0.000198593 1.0043e-17)
(-5.46209e-05 0.000161192 -2.29653e-18)
(-9.49163e-05 0.000106035 -2.77733e-18)
(-0.00133452 0.000986258 -2.38136e-18)
(-0.00061661 0.000310622 -1.22059e-19)
(0.00770529 -0.00048275 -7.22939e-19)
(-0.000406073 0.000395336 2.23873e-21)
(-0.000110731 0.000300102 4.93499e-18)
(-0.000706303 0.000255019 1.11134e-19)
(-0.00074904 0.000154006 1.3247e-20)
(-0.000268867 0.000209033 1.09228e-18)
(-0.000217504 0.000238926 1.73254e-19)
(0.000115785 -1.97761e-06 -1.4743e-17)
(-0.000714376 0.0015842 2.4091e-18)
(0.0125942 -0.000199059 -8.15221e-19)
(0.0125946 -0.0009664 9.05873e-19)
(-0.000578391 0.000314008 4.84893e-19)
(0.000995223 0.0008213 5.65119e-18)
(0.0116854 -0.000157868 1.03627e-18)
(-8.19261e-05 0.000203382 8.37712e-18)
(-0.000602903 0.000280654 1.16644e-19)
(0.00974093 -0.000806562 4.7385e-19)
(-0.000359072 0.000406339 2.47206e-19)
(-0.000748685 0.000212222 1.56623e-18)
(-0.000108036 0.000194409 -1.02525e-18)
(-0.000753999 0.00160465 -9.59119e-18)
(-2.17408e-06 -1.8803e-06 1.7548e-18)
(-0.000497101 0.000699423 -5.37426e-18)
(-0.000141682 0.000368687 -1.60063e-18)
(-4.61965e-05 0.000140769 7.24822e-19)
(-0.000891508 6.32455e-05 1.04606e-18)
(-0.000248118 0.000228158 9.76244e-19)
(0.000390941 -0.00136364 3.2872e-17)
(-6.77509e-05 5.04071e-05 2.22113e-18)
(-0.000845833 0.000165191 7.96056e-19)
(0.0079141 -0.00048912 -3.91285e-19)
(0.0115951 0.000202555 2.34749e-18)
(-3.07981e-05 0.000211072 -2.9118e-17)
(-0.000602992 0.000279605 -1.86355e-19)
(-2.32278e-06 -1.56349e-06 -1.64918e-18)
(0.00035601 3.8869e-05 -3.56847e-18)
(-2.48675e-05 4.51478e-05 3.46243e-18)
(-0.000472141 0.000690164 4.19373e-18)
(0.00595794 -0.00118934 1.44765e-18)
(-4.26102e-05 0.000210513 -2.32174e-17)
(-0.000362341 0.000399248 -8.64775e-20)
(-1.19321e-05 2.9756e-05 -1.80706e-18)
(0.0123716 -0.000937939 1.53798e-19)
(-0.00010645 0.000100249 6.12861e-19)
(0.0017422 0.000696475 -3.3216e-17)
(0.0126132 -0.000901062 -1.05232e-18)
(-0.000113045 0.00127934 8.66488e-18)
(-1.58712e-06 -5.66171e-07 6.08536e-18)
(0.000705144 0.00136238 4.4536e-18)
(0.00840685 -0.000460314 5.62639e-19)
(0.0104607 -0.000201853 8.93315e-19)
(-0.000721435 0.000216486 -2.01461e-18)
(-0.000545112 0.000388037 -1.31795e-18)
(0.000491857 -4.13196e-05 9.61225e-18)
(-0.000890398 7.95824e-05 2.4076e-20)
(-0.000511086 0.00028778 -5.28751e-19)
(0.000600116 0.000724682 8.51854e-18)
(-0.000116166 0.000542593 1.49923e-18)
(0.00703491 -0.00020576 4.90048e-19)
(-0.00103504 0.00027206 -2.68502e-18)
(-4.16767e-05 4.52355e-06 7.04349e-18)
(-0.000439846 0.000334686 -1.28186e-20)
(-0.000707579 0.000267439 -1.57085e-18)
(0.00961889 -9.17365e-05 -1.52065e-18)
(0.00817932 -0.000113523 -1.78344e-19)
(-9.1034e-05 0.00010176 6.46147e-19)
(0.000176063 -0.0002569 -6.75538e-17)
(-2.96565e-05 7.95249e-05 -3.2814e-18)
(-0.000748404 8.08457e-05 3.04168e-19)
(-0.0012102 0.000154474 -1.3453e-18)
(-0.000450541 0.000337812 6.9337e-20)
(-0.000706412 0.000398833 -2.70724e-18)
(-0.00105907 0.000272355 2.91215e-18)
(-5.15133e-05 0.000117043 4.67513e-18)
(5.74956e-05 0.000115445 1.66206e-17)
(-0.000655713 0.000238894 1.20855e-19)
(-0.000903245 -0.000129335 -8.43715e-20)
(-1.67864e-05 2.63531e-05 6.14584e-18)
(-4.5045e-05 0.000139548 -1.18321e-18)
(-3.84035e-05 0.000207877 -1.321e-18)
(0.0108645 -0.00104791 -4.7463e-19)
(0.000119551 -0.00030827 8.39898e-17)
(-0.000658879 0.000338856 -6.97682e-19)
(-0.00015808 0.000155661 -2.15316e-18)
(-0.00113716 9.54357e-05 1.74808e-18)
(-0.00125055 0.000212333 -8.91807e-19)
(-0.000711899 0.000175237 -1.09195e-18)
(-0.000689173 0.000392783 2.58011e-18)
(0.0107314 -0.00101577 3.12484e-19)
(0.00846392 -0.000444599 2.53342e-19)
(-0.000453889 0.000367702 -1.37356e-20)
(-0.000555081 0.000317481 8.35607e-19)
(0.000143529 0.00180301 6.79747e-18)
(-0.000107772 0.000130028 -2.26337e-18)
(-1.09248e-05 6.6614e-06 7.97786e-20)
(-0.000718359 0.000168018 1.5049e-19)
(-0.000391412 0.000871409 -1.61526e-18)
(-0.00011585 0.000107864 4.38653e-18)
(-4.21108e-06 -1.80613e-06 1.11644e-18)
(-2.72603e-05 4.79077e-05 -1.8648e-18)
(-1.82733e-05 1.22065e-06 -3.40177e-18)
(-0.000556941 0.000356101 1.54522e-18)
(-1.16228e-05 8.00939e-06 6.78695e-18)
(0.00978239 -0.000755703 1.01235e-18)
(-0.000641558 0.000347739 5.28886e-19)
(-9.21121e-05 0.000155544 3.51037e-18)
(0.00954992 -7.37702e-05 1.17435e-18)
(0.00933134 -0.000511941 3.49558e-19)
(-5.51577e-05 0.000160604 3.71555e-18)
(-0.000832784 0.000154881 -2.19215e-19)
(0.00778187 -0.000272231 3.58927e-18)
(-6.24618e-05 0.000208503 -1.45663e-17)
(-5.54466e-05 0.000163265 -2.70375e-18)
(-0.00066002 0.000352566 -4.28956e-19)
(0.00815552 -0.000457681 -5.62363e-19)
(0.013462 0.000993037 -3.05886e-18)
(-0.000806779 0.000416542 1.51288e-18)
(-1.24639e-05 4.91233e-07 1.89834e-18)
(-0.00423241 -0.000477585 2.43679e-19)
(-1.1977e-05 1.13304e-05 -4.21037e-19)
(-0.000847672 0.000430657 -2.42757e-19)
(0.00797727 -0.000276695 -4.04745e-18)
(-0.000971803 -6.54746e-05 1.66846e-18)
(-0.000388695 0.000258373 -2.13715e-19)
(-0.000899813 0.00185404 -4.65565e-18)
(3.73007e-05 0.00182776 -7.9556e-18)
(0.00683656 0.000337944 4.60118e-18)
(-0.00113604 0.00091637 -1.95379e-18)
(-9.55595e-06 6.37217e-05 -8.34618e-18)
(0.0126847 0.000233653 -2.94867e-18)
(0.0101062 -0.000593055 1.70479e-19)
(-0.000914694 -0.000194979 1.14155e-18)
(-0.000223099 0.000245999 -5.49703e-19)
(0.000559601 -0.000132365 -2.90397e-17)
(0.00320692 -3.12552e-05 -1.14406e-18)
(0.000560942 -0.00067614 -4.77976e-17)
(0.000698045 -0.000467791 4.8829e-17)
(-8.39364e-05 0.000208449 -1.12305e-17)
(-0.000805493 0.000461478 -2.29598e-18)
(-1.87099e-06 0.000313555 -2.52222e-18)
(0.00760966 -0.000140418 -6.43858e-19)
(8.158e-05 7.53967e-05 1.68043e-17)
(-3.32778e-05 8.24766e-06 -6.55023e-19)
(-0.000126734 1.5062e-05 1.41177e-18)
(-0.000274465 0.000491956 3.97547e-19)
(0.00513705 0.000306364 -1.10696e-17)
(0.000377808 -0.00134463 -2.76296e-19)
(-0.000106555 0.000127223 2.66635e-18)
(0.0111048 0.000222685 2.16447e-18)
(2.4004e-06 0.000293192 -7.08368e-18)
(-0.00040428 0.000548711 3.34313e-20)
(-0.000398391 0.000262674 3.54038e-21)
(0.0080383 -0.00044698 6.99662e-19)
(-0.00109528 9.91897e-05 -1.65768e-18)
(-0.000712828 0.000255038 -1.68653e-18)
(-0.000138182 0.000355469 7.2122e-19)
(-0.000355817 0.000388757 1.50558e-19)
(0.00991501 -9.59862e-05 4.06335e-18)
(-5.51405e-05 0.000163836 1.83634e-18)
(-0.00130644 0.000232674 1.30328e-18)
(-0.000452716 0.000360706 -1.47313e-20)
(-0.000664794 0.000359616 1.87534e-18)
(5.19969e-06 0.000288808 3.67179e-18)
(-3.12671e-05 8.35822e-05 6.29425e-18)
(-9.26436e-05 0.00015508 2.76209e-18)
(-0.000762602 0.0012561 -9.61019e-18)
(-0.000108616 0.00136294 3.59599e-18)
(-0.00101304 0.000237233 2.04885e-19)
(0.000300266 0.00192559 -3.98163e-18)
(0.00997577 -0.00010354 -4.99391e-18)
(-0.000110437 0.000311313 -5.93374e-18)
(0.0122186 -0.000839168 -1.24627e-18)
(-0.000801385 5.0671e-05 -7.53496e-19)
(-0.000157152 0.000117571 4.95357e-19)
(-0.000804155 -6.09727e-05 -2.34894e-18)
(-0.000804366 0.000237063 8.34442e-19)
(0.00851239 -0.00039121 4.21959e-18)
(-0.000270364 0.000478134 8.88681e-19)
(-0.000588793 0.000197062 -1.23515e-18)
(-0.000634196 0.000403655 -1.61212e-18)
(-7.24018e-05 0.00222529 1.07492e-18)
(-0.000672553 0.00125532 -2.25702e-17)
(0.00751431 -0.000189095 -9.89552e-19)
(-0.000234961 0.000292966 -8.87279e-19)
(-0.000731147 -3.35355e-05 -1.86783e-18)
(-0.00289242 -3.89253e-05 3.85455e-17)
(-0.000508089 0.000413431 4.38299e-20)
(0.00730821 -0.000248384 -2.2363e-18)
(-0.000540078 0.000438406 -3.08191e-19)
(0.0133477 -0.000957528 9.34125e-20)
(-0.000553315 0.000318672 -1.73077e-18)
(-0.000508154 0.000279757 2.09913e-19)
(-0.00105975 0.000321036 -4.19908e-18)
(-0.000219579 0.00151589 -2.1798e-18)
(-4.05399e-05 0.000122636 -1.15956e-17)
(-0.000428893 0.000374705 -1.64309e-19)
(-0.000390344 0.000894359 -1.54292e-18)
(-0.00051595 0.000287797 -9.67717e-19)
(-8.0916e-05 0.000122312 3.98004e-18)
(-0.00065506 0.000332649 1.22359e-18)
(0.00630332 -0.000518393 2.82085e-20)
(-5.23455e-05 0.000132111 4.34377e-19)
(-0.000607582 0.000282783 -7.56849e-19)
(0.000223947 -0.000466207 -1.56896e-17)
(-0.00032503 0.00035936 -6.55224e-19)
(4.32202e-05 0.00135427 1.14703e-17)
(-0.000552414 0.000267155 -2.04882e-18)
(0.0133999 0.00143839 1.254e-18)
(-0.000366871 0.000416803 -4.37352e-20)
(-0.000588854 0.000227694 9.83793e-19)
(0.0010515 0.00051638 -3.36148e-18)
(-0.00121121 0.0001405 3.81974e-19)
(-0.000676862 0.000443323 2.07325e-18)
(0.00799309 -0.000133998 7.04472e-19)
(0.00818478 -0.000463652 -3.54261e-19)
(0.000622981 0.00128452 -2.78344e-18)
(-5.07901e-05 0.000118012 -8.74265e-19)
(-0.000821348 0.00122242 1.03378e-17)
(-0.000530236 0.000466737 3.3894e-19)
(-0.00059086 0.000205962 -7.91289e-19)
(-0.000141478 0.000148675 -1.84047e-18)
(-0.00221911 -1.22964e-05 2.81179e-17)
(0.00736636 -0.000782979 4.18985e-19)
(-0.000613528 0.00200682 -2.16826e-17)
(-0.000357296 0.00038101 -2.40479e-19)
(-0.00108101 0.000302637 4.29975e-18)
(-0.000528097 0.000102885 -1.81697e-18)
(-0.00011518 -0.000395071 -9.49628e-17)
(-0.00014955 7.88659e-05 -2.20909e-19)
(-0.000181533 -0.00011858 -2.92256e-17)
(-0.000315007 0.00157603 -3.1258e-18)
(0.00717297 -0.00310607 8.6181e-18)
(-0.000116082 0.000562268 -2.56719e-18)
(-0.00099674 3.51852e-05 -1.14757e-18)
(-4.21548e-05 0.000118514 -2.29061e-18)
(-9.35506e-06 -3.80898e-08 1.93683e-18)
(0.0071181 -0.000304766 -2.66834e-19)
(-0.000557972 6.55017e-05 6.64351e-19)
(-2.82114e-05 8.09748e-05 7.76125e-19)
(-0.000377134 0.000331842 -2.07331e-20)
(-0.000617317 0.000283193 -8.15848e-19)
(-5.61617e-05 4.79062e-05 1.9505e-19)
(0.00334895 -0.000487765 1.75634e-19)
(-0.000811049 0.000447283 -2.24579e-19)
(-0.000809175 0.000243602 1.68316e-19)
(-0.000442995 0.000294999 -1.5248e-19)
(-0.000239828 0.000291135 6.35485e-20)
(-5.59193e-05 0.00016796 9.68468e-18)
(-0.000106456 0.0020658 -8.67249e-18)
(-8.70854e-05 0.000150657 -3.49003e-18)
(-5.47606e-05 0.000163649 -1.5343e-17)
(-0.000443816 0.000945117 1.20599e-18)
(0.00466995 -0.000329106 -4.67417e-20)
(-0.000154901 0.000413533 -1.55387e-18)
(-0.000565384 0.000346325 -2.76701e-19)
(-1.21e-05 3.2939e-05 3.02417e-18)
(-1.19987e-05 7.19179e-06 7.0794e-19)
(-0.000333396 0.000368867 2.50109e-19)
(-0.00103609 0.000233663 -4.56784e-19)
(-0.000546269 0.000265672 9.44723e-19)
(-8.15736e-05 0.000129472 3.70854e-18)
(-0.000287336 0.000298625 5.44962e-20)
(0.000446271 0.000858873 -1.71219e-18)
(-0.000347022 0.000288119 -1.06719e-18)
(0.0117347 0.00215022 -1.63712e-17)
(-1.39979e-05 1.20842e-05 2.50185e-18)
(-0.000478361 0.000289895 -5.27066e-19)
(0.0103743 -0.000266044 -3.28905e-19)
(7.20388e-05 0.000348592 7.22697e-18)
(-0.000108254 1.58906e-05 1.07317e-18)
(-1.13661e-05 7.21866e-06 -2.21801e-18)
(-0.000427358 0.000296109 1.87846e-19)
(-0.000285495 0.000218428 -3.32597e-19)
(0.000707844 0.00112948 1.20743e-18)
(0.00546248 0.000273762 9.77047e-19)
(-0.000560894 0.000385697 1.0863e-18)
(0.00132894 -0.00209817 1.62546e-17)
(-0.000344312 0.000369335 1.7108e-20)
(-1.82313e-05 2.84654e-05 2.71448e-18)
(0.0108926 -0.000716246 2.1146e-19)
(-0.000590625 0.000369677 1.02074e-18)
(4.18814e-05 0.000218259 -3.58627e-18)
(-5.99481e-05 0.000145101 -1.55393e-18)
(0.00984883 -0.000564564 -2.43534e-19)
(-2.19428e-06 0.000174487 -3.30967e-18)
(0.00111675 0.00127841 -2.07958e-17)
(-5.41345e-05 0.0001446 2.39613e-18)
(-0.000433 0.0005279 -1.52733e-19)
(-0.000719479 0.0012719 2.08604e-17)
(-0.000540767 0.000289341 3.58892e-19)
(0.0105223 -0.000633902 -6.0894e-20)
(-0.000555865 0.00011285 2.25909e-18)
(-0.000414716 0.00167208 1.92622e-17)
(-6.41197e-05 0.000262997 -5.36028e-18)
(-0.00115733 0.000902897 3.11914e-18)
(-5.6686e-05 0.000122327 2.5497e-18)
(0.00950137 -8.03097e-05 -3.5142e-19)
(-0.000552029 0.000268036 1.91881e-18)
(-0.000738433 0.000154591 -6.6891e-19)
(-0.000532184 0.000455448 -5.51502e-19)
(-0.000138759 0.00034864 -2.09784e-18)
(5.71708e-05 0.000357699 -7.48759e-18)
(-0.000783189 0.00045867 -4.9194e-19)
(-1.0804e-05 2.21065e-07 -1.6443e-18)
(-0.000347823 -0.000147313 3.04388e-17)
(0.0106397 -0.000672848 -6.33523e-19)
(0.0112812 0.00143881 7.63292e-18)
(0.000754858 -0.000303104 1.48824e-17)
(0.00411525 0.000451013 -4.71111e-19)
(0.00377585 0.000409422 -1.80329e-17)
(-0.00125736 0.000178681 1.2468e-18)
(-3.33367e-05 0.000232913 -2.53615e-18)
(-4.68398e-06 7.14974e-08 2.31242e-18)
(0.000576108 0.00105546 -1.91333e-17)
(-2.51234e-05 7.38145e-05 2.97428e-18)
(-7.68882e-05 0.000118076 -1.70067e-18)
(-7.25001e-06 0.000234935 -1.00363e-17)
(0.0130057 0.000224894 -7.2256e-18)
(-0.000376847 0.000304613 7.22152e-21)
(-6.2923e-05 0.000194564 7.21068e-18)
(0.000257963 0.000752113 1.47115e-19)
(-0.000660108 0.000557392 1.65957e-18)
(-2.78884e-05 8.83129e-05 1.01695e-17)
(-0.00268122 0.00214394 1.01218e-17)
(-6.21438e-05 0.00010879 -7.14956e-19)
(0.0113457 -0.00075945 1.09598e-19)
(0.000672136 0.00113582 5.29713e-18)
(-4.33381e-05 8.08733e-05 1.46101e-18)
(-0.000373428 0.000272864 -6.20953e-19)
(-0.000518649 0.0016056 -4.50118e-18)
(-0.000715957 -0.000103716 5.49586e-19)
(-0.000110874 0.000105645 1.94512e-19)
(0.000593145 0.00315659 2.7036e-18)
(0.00137509 0.000800443 1.59864e-17)
(-0.00021407 0.000126612 4.00688e-19)
(0.0100295 0.000572494 2.22002e-18)
(-0.00142492 0.000267864 1.81939e-18)
(-0.000876738 0.000172923 -1.46375e-19)
(-6.28892e-05 0.000256506 5.07211e-18)
(-0.00107395 0.000884143 -9.41747e-19)
(0.00856079 -0.000509793 1.33896e-18)
(-0.000216494 0.000130371 -1.72429e-18)
(-0.00146457 0.000898611 -1.52327e-18)
(-0.000116596 0.000203296 4.70058e-18)
(-6.49626e-05 0.000112497 -3.69519e-18)
(-0.00252145 0.000724645 -8.53278e-19)
(0.0135747 -0.000931097 1.00882e-18)
(-0.000584753 0.000498748 -8.17283e-20)
(-0.000539025 0.000267843 -7.04039e-19)
(-2.59695e-05 7.71655e-05 1.24248e-18)
(-0.000604631 0.000246585 1.46538e-19)
(0.0114236 -0.000784785 4.22117e-19)
(0.011974 0.000345864 -2.4833e-19)
(-0.000223637 0.000153464 -1.18139e-18)
(0.0014519 0.000103517 -8.56053e-18)
(-8.0835e-05 0.000124815 -2.20913e-18)
(-0.000120212 0.000209958 -2.51614e-18)
(-0.00069727 0.000437592 -2.06066e-18)
(-0.000474851 0.000289271 4.11731e-19)
(-0.000154287 7.9615e-05 -3.56989e-19)
(-0.000130776 0.000330433 -4.45026e-19)
(0.0105908 0.000576022 1.42769e-17)
(-0.000250869 0.00147796 -7.46574e-18)
(0.00926967 0.000639441 2.41868e-18)
(-0.0003686 0.000299522 -2.59885e-19)
(-3.12159e-05 8.12267e-05 -3.75904e-18)
(0.0108116 -0.00104397 -6.8609e-19)
(-7.63119e-06 2.63856e-06 4.28996e-18)
(-0.000885255 0.00118308 4.32685e-19)
(-0.000475646 0.00029726 3.4422e-19)
(-0.000521796 0.000290151 -6.35417e-19)
(-0.000548008 0.000403656 -3.01924e-19)
(0.0104367 -0.000195478 -6.70614e-19)
(0.00863429 -0.000448808 7.1557e-19)
(-0.000411975 0.000380798 2.18852e-19)
(0.00020479 -0.000190075 8.62617e-18)
(-0.000377508 0.000254755 -2.29841e-19)
(-0.000815003 0.000549397 -1.14038e-18)
(0.0101189 -0.000136515 1.45368e-18)
(0.00771543 -0.000412446 4.44035e-19)
(-0.000101603 0.000192401 3.342e-18)
(-5.39427e-05 0.000121402 -2.08521e-18)
(0.000109888 0.000133805 2.58541e-17)
(0.00976602 0.000645907 -1.61002e-17)
(-0.000745693 0.000369845 2.89541e-19)
(-0.00059619 0.000247918 -3.95128e-19)
(0.000890352 0.000448376 -2.10336e-17)
(-0.000473538 0.000290594 -4.44271e-19)
(-0.000540071 0.0003153 1.36975e-18)
(0.00802669 -0.00134393 -4.07327e-18)
(-0.000206226 0.00148298 -5.09134e-18)
(0.000412833 0.00079818 -1.58734e-18)
(0.0111575 -0.000696733 -3.342e-19)
(-0.000656157 0.00013424 1.35763e-18)
(0.0101641 -9.27437e-05 6.47086e-19)
(-0.000214106 0.000274472 -1.70488e-18)
(-0.00073088 0.000470227 -6.50169e-20)
(-0.00170794 0.000153786 -9.60533e-20)
(-1.53476e-05 2.05214e-05 6.61022e-19)
(0.00582298 -9.28285e-05 -4.8831e-18)
(0.0101577 0.000372915 -1.53626e-18)
(-0.000108449 0.000491116 -6.68166e-18)
(-0.000643565 0.000301731 -7.08564e-19)
(-7.59746e-05 0.000163004 -4.96509e-19)
(0.00306518 -0.000244131 1.81861e-17)
(-8.12112e-05 0.000972077 -4.73516e-18)
(0.00564159 -0.000982132 1.20052e-17)
(-8.48733e-05 0.00015211 -1.90236e-18)
(-7.0694e-06 -1.82558e-07 4.35957e-18)
(-6.57306e-05 0.000206595 -1.54156e-17)
(-0.000648173 0.000564285 -5.59237e-19)
(-1.40436e-05 1.09425e-05 8.43042e-19)
(0.0118656 0.000248582 7.12813e-18)
(-7.15533e-06 -9.45117e-08 -4.19801e-18)
(-0.000667161 0.000131704 -9.06573e-19)
(-5.74851e-05 0.000250137 -9.82796e-18)
(-0.000602034 0.000206029 1.06848e-18)
(-5.54929e-05 0.000143895 -7.35501e-18)
(-2.92329e-05 9.30356e-05 -1.29177e-18)
(-0.00012717 0.000740971 -3.52749e-19)
(0.00163217 0.000108568 1.04371e-17)
(-0.000675601 0.000468757 3.70508e-19)
(0.0105471 0.000263252 -5.58019e-18)
(-0.000431334 0.000538443 7.38772e-20)
(-5.68111e-05 5.29113e-05 -3.39048e-18)
(-0.000170601 0.000140121 1.6598e-18)
(-0.000785339 0.000490899 1.8249e-18)
(-0.000279613 0.000297636 -3.86295e-19)
(-0.000962361 0.000767868 2.70601e-18)
(-0.00039368 0.000321128 2.6433e-19)
(2.91515e-05 0.000214119 -1.35149e-17)
(-0.000796627 0.000472507 -8.92752e-20)
(-5.28797e-06 3.04252e-06 -6.28448e-19)
(0.00829639 -0.00023663 1.01752e-18)
(-2.23102e-06 -1.7365e-06 -2.86774e-18)
(-0.000636623 0.000177644 2.74391e-19)
(9.74416e-05 -0.000242078 -2.96942e-17)
(0.0103639 -0.000559904 1.7877e-19)
(-9.33848e-05 0.000186447 -5.42262e-17)
(0.00419862 0.000335203 -1.02575e-18)
(0.000256417 0.000723881 3.56799e-19)
(0.00016293 0.0013139 3.14867e-18)
(0.0113881 0.000264417 -1.00585e-18)
(-0.000235318 0.000167452 -4.51237e-19)
(0.000750923 0.00247352 -5.78781e-18)
(3.06359e-07 0.00030529 -5.23127e-19)
(-0.000517515 0.000420666 -1.00554e-20)
(0.00110043 -0.000256498 -1.48053e-17)
(-0.00197993 0.00105139 6.55773e-19)
(-0.000159447 0.000121503 -1.49359e-18)
(-0.000944312 0.000767615 -1.79919e-18)
(-0.000267828 0.000204655 1.32435e-18)
(0.0098816 -7.31364e-05 -2.65922e-19)
(0.00587439 -5.54272e-05 1.17803e-18)
(-0.000144576 0.000231174 9.9726e-19)
(0.000105784 -0.000121274 1.26109e-17)
(0.00255662 -0.00018755 -1.19012e-18)
(-2.99337e-06 -1.85111e-06 5.66261e-18)
(-3.06301e-06 -1.8097e-06 -4.79858e-18)
(-0.000597943 0.00022281 -5.58917e-19)
(0.0077577 -0.000218506 -2.9739e-19)
(-0.00198981 0.000873226 -1.93304e-19)
(-5.53979e-05 0.000161973 3.9467e-18)
(-0.00109012 0.000364958 -1.04335e-18)
(-0.000338059 0.000282763 3.36167e-19)
(-3.28926e-05 0.000100222 -6.55566e-18)
(-0.00087476 0.000491917 -9.17621e-20)
(-0.00109121 0.000342136 1.47656e-18)
(-0.000185913 0.0013268 -4.61693e-18)
(-0.00014129 6.77175e-05 -1.89592e-18)
(-0.000653896 0.000237275 -6.24229e-19)
(0.000165609 0.000324283 1.19114e-18)
(-0.000573811 0.00023331 9.28335e-19)
(-6.90044e-05 0.000190892 -9.35578e-18)
(-0.000109581 0.000289303 5.61632e-18)
(-8.21497e-05 0.000937567 4.89305e-18)
(-6.23187e-05 0.000210058 2.83059e-17)
(-0.000656004 0.000247493 4.68303e-18)
(-0.000681184 0.000343322 2.02403e-18)
(-0.000693753 0.000358853 4.83289e-19)
(0.000379332 0.000748824 3.66598e-19)
(0.000398624 0.00125024 1.41184e-17)
(-0.0014909 0.000320859 1.22348e-18)
(0.00568483 -0.000772389 -4.13624e-19)
(-0.00283273 0.00341993 8.91889e-18)
(-0.000683134 0.000267446 -8.38497e-19)
(0.00849078 -0.000526884 2.32495e-19)
(1.18903e-05 0.000556626 2.83749e-18)
(-0.00162734 0.000745765 5.59664e-19)
(-0.000868142 0.000159233 -1.17514e-18)
(-0.000168067 0.000178801 3.27095e-19)
(-0.000532202 0.000316948 8.23828e-19)
(-0.00139835 0.00035117 -2.44161e-19)
(-0.000225797 0.000470861 2.74081e-18)
(-4.11759e-05 7.31952e-05 -4.09743e-18)
(-3.91251e-05 6.89863e-05 6.59855e-18)
(-0.000649068 0.000193856 3.19273e-18)
(0.00734891 -0.000245561 6.97177e-19)
(-0.000482997 0.000291287 4.72183e-19)
(0.0121486 -0.000776327 4.36732e-20)
(-5.71975e-05 5.44583e-05 2.67623e-18)
(-0.00229277 0.000892196 -1.1956e-18)
(0.000465456 0.000590624 -1.25342e-18)
(0.00750589 -0.000346953 1.61073e-18)
(-0.000920587 0.000794725 7.48287e-18)
(-0.000374044 0.000421539 6.93669e-20)
(-0.000378468 0.000318734 9.07006e-20)
(0.00769601 -0.000300931 -1.43344e-18)
(-0.000219044 0.00133363 5.26489e-18)
(-3.96115e-06 0.00054743 -1.13456e-18)
(-0.000559554 7.79767e-05 -9.8469e-19)
(-0.000233319 0.000280578 -4.81624e-18)
(8.71267e-05 0.00118492 -2.02188e-18)
(-0.000645385 0.000186998 -4.46848e-18)
(-0.000679539 0.000115207 -7.07933e-19)
(-0.000492481 0.000490015 1.96779e-19)
(-0.000399752 0.00172409 -1.39883e-17)
(-4.03229e-05 0.000116975 -3.10867e-18)
(-2.11505e-06 -1.88111e-06 2.17315e-18)
(-8.03378e-05 0.000201246 1.18033e-18)
(-3.34812e-05 0.000104292 3.81109e-18)
(0.0100305 -0.000159062 -2.88352e-20)
(-1.78176e-05 1.47559e-06 5.28789e-18)
(-0.00088976 0.000473004 -3.40696e-19)
(0.0107334 -0.00100454 6.65434e-19)
(-0.000927947 0.000821422 -5.71916e-18)
(0.0124751 0.000317792 1.27438e-18)
(0.00846835 -0.000372671 2.21753e-18)
(-0.000683766 0.000107169 1.72924e-19)
(0.000149714 0.00136645 -6.82162e-18)
(-8.62427e-05 0.000186576 -4.5822e-18)
(-5.68639e-06 1.07446e-05 1.40397e-18)
(-4.34605e-05 0.00013408 1.13289e-17)
(-0.00010573 7.20103e-05 -3.50162e-18)
(-0.000167155 0.000136874 -2.31743e-18)
(-7.83015e-06 -1.84864e-08 3.16531e-18)
(-0.000819581 0.000511422 -2.35618e-18)
(-0.00120026 0.000748952 -5.37028e-18)
(0.000186091 0.000326706 -7.58091e-18)
(-0.0010339 -0.000209234 2.22084e-19)
(-0.000141646 0.00031011 -1.29162e-18)
(0.00954121 -0.000745679 -3.77532e-19)
(-9.35658e-07 -3.75799e-07 1.11141e-17)
(0.0012894 -0.000639313 4.09608e-17)
(-0.000406424 0.000689389 1.79261e-18)
(-2.72399e-06 -7.68082e-07 -1.22492e-17)
(-9.79229e-06 2.30956e-05 -2.30716e-18)
(0.0103867 -0.000640594 5.52972e-19)
(-0.000400373 0.000407394 6.59645e-20)
(-0.00152243 0.000204512 1.2253e-18)
(0.00972348 0.000527831 2.36174e-18)
(-0.000629402 0.000301758 3.38233e-19)
(-0.000760399 0.000296341 -1.45127e-19)
(-0.000215028 0.000122935 9.06414e-19)
(0.0117336 -0.00077559 -2.73347e-19)
(-7.13202e-05 0.000297109 -2.85715e-18)
(-0.000382211 0.000310438 -1.30116e-19)
(-0.000801846 0.000494667 1.98342e-19)
(-6.17689e-06 9.49278e-06 -3.31854e-18)
(-6.22102e-05 0.000198423 5.88525e-19)
(-0.000201952 0.000166122 1.59087e-18)