/*--------------------------------*- C++ -*----------------------------------*\
| =========                 |                                                 |
| \\      /  F ield         | OpenFOAM: The Open Source CFD Toolbox           |
|  \\    /   O peration     | Version:  v2012                                 |
|   \\  /    A nd           | Website:  www.openfoam.com                      |
|    \\/     M anipulation  |                                                 |
\*---------------------------------------------------------------------------*/
FoamFile
{
    version     2.0;
    format      ascii;
    class       volVectorField;
    location    "800";
    object      ddt0(U);
}
// * * * * * * * * * * * * * * * * * * * * * * * * * * * * * * * * * * * * * //

dimensions      [0 1 -2 0 0 0 0];


internalField   nonuniform List<vector> 
13917
(
(-0.0135755 0.00153118 -4.93526e-18)
(0.00272572 0.00166188 5.60142e-19)
(0.000624658 0.00118388 7.55318e-18)
(0.000667264 0.000377738 1.07247e-18)
(0.00241807 0.000359733 1.1033e-19)
(0.00243782 0.00183083 -5.15276e-20)
(0.000701987 0.000846365 1.49076e-17)
(0.0075801 -0.00301525 -8.53037e-19)
(0.0010579 0.000967556 1.87858e-18)
(6.05845e-05 0.000900924 -3.02252e-18)
(0.00681537 -0.00247705 -1.46539e-18)
(0.000547387 0.000250304 9.41127e-19)
(0.000503476 4.37804e-06 2.29535e-18)
(-0.0331267 -0.0282604 2.46372e-19)
(0.000442677 0.00105134 5.21014e-19)
(-0.0128907 0.00142177 7.17165e-18)
(-0.000812555 -6.95039e-07 -3.68188e-20)
(0.00496158 -0.00264014 -4.62241e-19)
(0.000312615 0.00198157 -1.1033e-17)
(-0.0114429 0.00120997 2.14741e-17)
(0.00044365 -0.000742613 1.37913e-18)
(0.000329577 0.0004512 2.07573e-19)
(0.000261834 0.00142271 6.44199e-18)
(0.000322867 0.000468536 -1.58151e-19)
(0.000573659 0.000332814 -3.07023e-18)
(0.000700058 -0.00103803 2.73327e-18)
(-0.00111798 0.00507933 -2.97359e-18)
(0.000206494 0.000655304 -1.31083e-18)
(0.00202725 -0.00205566 -2.81038e-18)
(-0.000438716 -0.000747351 6.66272e-21)
(-0.000363164 0.000905209 -1.09444e-18)
(0.000412373 0.00199173 4.5786e-18)
(0.000593012 0.000315655 -3.7252e-18)
(-0.0130252 0.000653189 -7.36643e-18)
(-0.000728598 0.000869284 1.69386e-19)
(0.00944441 -0.00284709 1.1735e-18)
(0.00066862 0.00013028 3.50249e-18)
(0.000142333 1.0741e-05 -5.07719e-19)
(0.000685716 0.000876583 -1.36877e-17)
(-0.000339758 -0.00015257 1.43777e-18)
(-0.000496553 -8.04189e-06 -2.02476e-19)
(-0.0018672 0.000620167 -1.16911e-19)
(0.000852769 0.000767355 1.01907e-17)
(0.000156137 0.0018755 -5.29889e-18)
(0.000302865 0.00189393 -1.83702e-18)
(-0.00155642 0.00118582 -6.97444e-18)
(0.000475542 -0.000614996 -9.45135e-19)
(0.00103188 0.00195907 -7.96377e-18)
(0.0186776 0.026068 -8.9388e-19)
(-0.000677674 0.000865326 -8.80393e-20)
(0.000522522 0.000244076 -1.36685e-19)
(-0.000834079 0.00141319 -3.5517e-18)
(-0.00832161 0.000790553 -2.35603e-18)
(0.000479338 0.000253895 2.93359e-18)
(0.000494422 0.000247182 1.06661e-18)
(-0.00080122 0.00146821 -4.55883e-19)
(0.0020744 0.000297401 7.02584e-18)
(0.000280285 0.00139079 -9.82206e-18)
(-0.00185071 0.000477487 2.89149e-19)
(-0.00157607 0.00111153 7.31614e-18)
(-0.00135779 -0.000281728 1.0196e-18)
(-0.00118393 0.00496792 -3.58983e-19)
(-0.000262945 -4.18259e-05 -6.08129e-22)
(0.000564589 0.000330032 2.84558e-18)
(-0.00682487 0.00438239 -1.11082e-17)
(-0.00414841 -0.0063603 -9.61162e-21)
(0.00272444 -0.00231448 -8.838e-19)
(0.00986667 -0.00157204 -3.55465e-19)
(0.00563175 -0.00327495 7.53131e-19)
(-0.0119999 0.000756869 -5.13377e-18)
(0.00464467 0.00268221 -9.46837e-18)
(-0.0130738 0.00079737 -1.68104e-18)
(0.000645623 0.000266447 -7.48866e-18)
(-0.00170051 0.000436985 -1.7837e-19)
(0.00032943 -0.000785967 -2.15599e-19)
(0.000551626 0.000211159 -6.38308e-18)
(0.000995222 0.00032661 1.83166e-19)
(-0.00166259 0.000347831 1.24268e-20)
(0.000562443 0.000220745 -3.26102e-18)
(0.000613011 0.000319264 -2.85079e-18)
(0.000473243 0.000342499 -2.78926e-18)
(-0.000753901 4.0455e-06 7.04664e-20)
(0.000584114 0.000255891 2.44748e-18)
(0.00264225 -0.00179 1.02842e-17)
(0.000425419 7.14348e-05 -2.08742e-19)
(0.000562414 -0.00880524 -2.11934e-18)
(0.000528943 0.00197491 -1.47242e-17)
(0.000441107 3.60165e-05 2.55054e-19)
(-0.000272662 -0.000207232 1.89072e-19)
(-0.000885377 -8.97361e-07 -2.28804e-20)
(-0.000950969 -6.55484e-06 9.0655e-20)
(0.00100742 0.000794872 -1.61025e-17)
(0.0198358 0.0299264 -1.18851e-20)
(-0.000907265 0.000611291 -1.03555e-19)
(0.000540692 0.000270556 -9.47491e-19)
(0.0022034 -0.00242738 -2.46983e-19)
(-0.00740472 0.0017444 -1.22334e-18)
(-0.000505972 1.57425e-05 6.05067e-20)
(0.000427867 3.96032e-05 3.04541e-18)
(-0.00330866 0.000340056 -4.86063e-19)
(-0.000508292 -2.6668e-05 -2.31578e-20)
(-0.000533046 -3.36075e-05 2.59523e-20)
(0.000483785 0.000343485 4.36993e-18)
(-0.000510413 3.80367e-05 -8.92111e-20)
(0.0010141 0.000447104 -1.58269e-19)
(-0.00224679 0.00299978 1.00269e-17)
(-0.0110637 0.00209963 -3.81292e-18)
(-0.00215892 0.00526111 -1.10266e-20)
(-0.00204697 0.000710692 2.75055e-19)
(0.000781305 0.00590492 -1.64394e-18)
(0.000332052 2.07299e-05 -1.31889e-18)
(-0.0131492 0.000849265 3.21795e-17)
(0.00157698 -0.00209733 -2.61346e-18)
(0.000262776 0.00168554 -7.10332e-18)
(-0.00541517 0.00404841 1.31645e-17)
(0.000473845 0.000153524 6.14398e-18)
(0.000229343 0.00194941 6.69229e-18)
(-0.00090696 -3.47239e-05 2.77465e-20)
(0.000695524 0.00162238 -1.18861e-17)
(0.000491829 0.000202959 -7.83621e-19)
(-0.000815213 6.00996e-06 -1.15527e-19)
(-0.00142609 0.000361966 -8.96134e-20)
(0.00300033 -0.00275416 -2.27338e-18)
(-0.000207882 0.00175539 -1.10478e-17)
(-0.00694981 0.000432058 -2.08116e-18)
(0.00407692 -0.00210442 6.61424e-18)
(0.000591302 0.000343875 2.24466e-18)
(0.000280645 -0.000916462 5.08828e-18)
(-0.000263172 0.000583897 2.65088e-20)
(-0.000142782 0.00178651 1.36757e-17)
(0.00102331 0.00141053 9.89723e-18)
(-0.000599679 0.000781314 -2.92123e-18)
(-0.00950384 0.00181337 -4.73968e-18)
(0.000492385 0.000143737 4.58702e-19)
(0.00053226 0.00199656 -3.3362e-18)
(0.00132368 0.00696056 2.56989e-18)
(-0.000318372 0.000694642 1.72375e-17)
(-0.00448334 0.00104582 -3.1898e-18)
(0.000886131 -0.00128057 -1.18957e-18)
(0.000254606 8.03371e-06 2.40211e-19)
(-0.0554525 -0.0508888 3.76154e-19)
(-0.00155935 0.000336489 4.09785e-21)
(-0.00156865 0.00290883 -1.24401e-17)
(0.000257927 0.000327053 -3.20759e-19)
(0.000571997 0.00024063 4.17557e-18)
(-0.00406565 0.000594398 2.07688e-19)
(0.00460461 0.00203891 5.45955e-18)
(-0.00573082 0.0274626 -1.31347e-19)
(-0.000313179 0.00139349 2.67914e-17)
(0.000479326 0.0002533 -2.38321e-18)
(-0.000103771 -0.000199823 2.84588e-18)
(-0.00048391 -4.24578e-05 6.79209e-20)
(0.0005669 0.000229164 -4.97391e-18)
(0.000512347 0.000201488 4.60682e-18)
(-0.00715691 0.00290666 1.84863e-18)
(0.000403176 0.000849009 2.69946e-19)
(-0.000526742 4.497e-05 1.2507e-19)
(-0.00969024 0.00272589 -9.3809e-18)
(-0.000764068 -1.82792e-05 1.05176e-20)
(-0.000896249 -2.5163e-05 1.44746e-19)
(0.000320542 0.000171848 -2.14684e-18)
(-0.00811995 0.00280476 8.51846e-18)
(0.000974969 0.000183337 -1.00971e-19)
(-0.053713 -0.0544916 -2.44537e-19)
(-0.0100061 0.000652905 6.10138e-18)
(-0.00420572 0.00108363 5.41291e-19)
(-0.00559659 0.000578391 -1.01119e-17)
(-0.00115788 0.000180533 8.84694e-18)
(-0.000221827 -0.000204738 -5.69182e-21)
(0.00089181 -0.00150458 4.61161e-19)
(0.000380795 0.000505565 -1.93957e-19)
(-0.00912503 -0.00163518 -3.52433e-18)
(0.00109132 0.000956279 4.79876e-18)
(-0.00521501 0.000821868 -7.62823e-18)
(-0.000543545 0.00101168 1.88719e-18)
(-0.000677747 -3.52773e-05 -8.91833e-21)
(0.00068889 0.000384235 -3.28578e-18)
(-0.00102155 0.00136 3.86492e-18)
(0.0008634 0.00137908 -1.29959e-18)
(0.00104531 0.000164239 -3.81858e-18)
(0.000944568 0.000746727 1.25357e-17)
(0.000353931 0.000503317 3.43557e-20)
(0.000520808 0.000241826 5.92143e-18)
(-0.00118844 0.00190691 3.88786e-18)
(0.000765329 0.00169939 3.13523e-18)
(-0.000485312 0.000939988 4.16442e-19)
(0.000531889 0.000240137 -4.07838e-18)
(-0.00121724 0.0018299 9.77292e-18)
(-0.000481646 -0.000732364 1.0746e-20)
(0.00108372 -0.00775998 -2.86132e-18)
(-0.000569034 0.000975588 2.97101e-18)
(0.000226924 0.00189501 7.47281e-18)
(-0.000742761 0.00190325 9.70718e-18)
(-0.0130926 0.00161309 9.95103e-18)
(-0.000875949 0.000632644 5.12867e-20)
(-0.00772388 0.00034267 6.66099e-18)
(0.000393865 0.000402819 -2.13414e-18)
(-0.00898922 0.0020137 -4.80398e-18)
(-0.0007548 0.000819828 -1.19505e-19)
(0.000367905 0.000786187 -6.53748e-20)
(0.000498943 -0.000400776 -3.78954e-18)
(-0.0124438 0.000928484 9.22031e-18)
(-0.00446178 0.000973072 -3.88578e-19)
(0.000697295 0.000231559 6.51196e-19)
(-0.000157651 0.00365204 -1.94854e-18)
(0.00195648 -0.000490036 7.79234e-19)
(-0.000169946 -0.000157792 -1.8989e-18)
(-0.00150685 0.000397104 1.97637e-19)
(-0.000955309 0.00142124 -4.24196e-18)
(0.00046769 0.000349947 -1.30572e-18)
(-0.000303691 0.000413071 2.01544e-20)
(0.00432454 0.000523987 -6.25803e-20)
(0.00496221 0.00024063 2.7641e-19)
(-4.70027e-05 0.0016469 7.10131e-18)
(0.000349188 0.00199588 3.35406e-18)
(0.000671508 -0.00119989 -3.25978e-18)
(-0.0109332 0.0044778 2.35441e-17)
(0.00025458 2.12126e-05 -7.21804e-19)
(-0.00120646 -1.20971e-05 1.98916e-19)
(-0.00120815 -2.45771e-05 -1.33203e-19)
(0.00055277 0.000759567 -2.47249e-20)
(-0.00093596 0.0018908 3.70274e-19)
(-0.00135725 0.00175995 -1.54921e-18)
(0.000423825 5.98864e-05 3.0374e-18)
(-0.000222753 -2.38426e-05 9.88384e-21)
(0.00440572 0.00766403 -1.34173e-18)
(-0.0083019 0.000518754 1.76731e-18)
(-0.00112162 -1.09516e-05 1.34823e-19)
(-0.00111521 -1.20695e-05 -1.45209e-19)
(-0.00045601 7.1649e-06 -5.31664e-20)
(-0.00123482 -2.81243e-05 -5.17328e-20)
(-0.00123768 -4.16974e-05 9.45067e-20)
(-0.0132345 0.00101989 1.33497e-18)
(-0.00611579 0.00162293 2.60882e-17)
(0.000403794 0.000364132 2.29198e-18)
(-0.00025554 -0.000337688 4.81662e-21)
(-0.000335497 0.00134068 -5.80939e-18)
(-0.0119411 0.00018491 -9.30843e-18)
(-0.000852151 -1.66258e-05 -5.61217e-20)
(0.000438491 5.66183e-05 -3.83523e-18)
(0.000191832 0.00424334 1.85541e-18)
(-0.00153767 0.00290403 2.62581e-18)
(-0.00102443 0.00191568 -7.39968e-18)
(-0.0114052 0.00432624 -1.07505e-17)
(-0.000807398 0.00102612 1.36434e-17)
(0.000254277 0.000320643 -1.27515e-18)
(-0.00553249 0.000131107 3.91108e-19)
(-0.000344412 0.00139501 4.00182e-18)
(0.00151504 -0.00179017 6.68916e-19)
(0.000314525 0.00178749 5.30354e-18)
(0.00067985 0.000234037 1.31326e-18)
(-0.00469891 0.00159734 -1.17587e-17)
(0.000526635 0.000220773 5.12368e-18)
(-0.00027749 0.000506187 -4.50751e-18)
(-0.000428817 0.000994645 -1.10663e-18)
(0.000422524 0.000373906 -6.23083e-19)
(-0.000258475 -1.61496e-07 2.51756e-19)
(0.000588444 0.000342614 -3.22567e-18)
(0.00157614 0.00199988 2.82056e-19)
(-0.00119112 0.000643347 2.64684e-19)
(-0.0066212 -0.000174019 1.09191e-17)
(-0.00568613 -0.0102283 -7.42014e-19)
(-0.00121621 0.000456851 2.41411e-20)
(-0.0010947 -2.62509e-06 -5.96516e-20)
(0.000483004 0.000845424 -2.43131e-19)
(-0.00109371 6.7232e-06 6.05549e-20)
(0.000528241 0.000218099 -2.66464e-18)
(0.000514956 7.68051e-06 -2.12981e-18)
(0.000187454 0.000962264 -6.45993e-18)
(-0.00125591 0.000504108 1.65084e-20)
(-0.00525015 0.00143423 2.3307e-18)
(-0.010698 0.00226483 2.78214e-18)
(0.000490679 0.000214345 -6.29027e-18)
(0.00122754 0.00125257 -5.68348e-20)
(-0.00194124 0.000801657 -4.39594e-18)
(-0.00118503 -0.000247926 2.93676e-20)
(-0.00274467 -0.000134124 -2.43054e-18)
(-0.00627431 -0.000497848 -4.03262e-18)
(-0.00119809 -0.000235781 -1.9414e-19)
(-0.0120133 0.000559817 9.17834e-18)
(-0.00115933 0.000590446 2.26874e-20)
(-0.00762537 0.00255786 -2.80274e-18)
(-0.000609575 -2.58633e-05 -7.29653e-20)
(0.000343374 0.000746849 -2.29448e-20)
(0.000411824 0.00037454 3.31607e-19)
(0.000180779 0.000359381 -4.25132e-19)
(4.96235e-05 0.00230943 -8.62116e-18)
(-6.90906e-05 2.03415e-05 -1.01055e-18)
(-0.00458226 0.0016816 2.73734e-18)
(0.000186305 0.000270634 -1.64834e-18)
(-0.00424567 -0.0151155 -1.20713e-19)
(-0.00442351 0.00121617 2.26331e-19)
(-0.00105783 0.00274135 1.95336e-18)
(-0.00473659 0.0012209 1.70117e-18)
(-0.000910713 -2.06846e-05 -6.65489e-20)
(9.00868e-05 0.00132874 7.83021e-19)
(0.00203206 0.00144404 -2.30224e-19)
(0.000513399 0.000100123 3.8496e-19)
(0.00227817 0.000688134 -1.16625e-19)
(0.000556402 0.000245819 -4.05033e-18)
(-0.000998347 0.000609495 -1.93537e-19)
(-0.000114523 2.93584e-05 -3.50499e-21)
(-0.00105663 0.00122269 -5.92374e-18)
(-0.00485796 -0.00407418 -1.58619e-19)
(-0.00020626 0.000496404 2.09954e-18)
(0.000562715 0.000253005 4.55237e-18)
(0.000460691 5.40989e-05 -3.24844e-18)
(-0.00966167 0.00256988 4.2643e-18)
(-0.0121512 0.00103054 3.97351e-19)
(-0.000344664 0.0005711 -4.33481e-20)
(-0.00501667 -0.00319182 -4.66694e-20)
(0.000498358 0.000113908 -2.75415e-18)
(0.0184169 0.00597209 -2.76758e-19)
(-0.000422815 0.00209629 -3.67766e-18)
(-0.011559 0.00262921 -1.25299e-18)
(-0.00620342 0.00123733 1.45726e-17)
(-0.0017717 -0.00678752 7.37506e-21)
(-0.000732985 0.000839498 -5.73699e-18)
(0.00102396 0.00133352 1.11648e-20)
(0.00248359 -0.00121993 5.51974e-18)
(0.0252317 0.0046983 3.22574e-19)
(0.000488654 0.00113696 -1.69626e-17)
(0.000517208 6.80672e-06 -2.48745e-18)
(0.000340945 0.000969002 -1.47647e-20)
(-0.00118274 0.00421707 9.0909e-19)
(0.00041739 0.000589521 5.09231e-19)
(0.00312201 0.00169327 9.82441e-20)
(0.000249447 0.00189643 -9.84908e-18)
(-0.00081759 3.67213e-07 8.15301e-20)
(-0.00924169 -0.00210665 1.51779e-17)
(0.000479623 5.52203e-05 4.44687e-18)
(0.00105223 0.00191613 3.65008e-18)
(-0.00108438 -0.000325286 -1.99156e-19)
(-0.00786977 0.00103607 -4.59626e-18)
(-0.000138388 0.000203698 -7.03216e-19)
(-0.000116714 0.000525287 -3.72965e-18)
(0.00193001 -0.000692185 5.88228e-20)
(-0.000570915 -0.00579734 5.06984e-22)
(-0.000923918 -1.2566e-05 2.78937e-20)
(0.000320778 0.00182239 -1.32476e-17)
(-0.00254012 0.0018704 -5.49891e-18)
(0.000522894 0.000259388 -2.83657e-18)
(0.000416558 0.000633189 1.75718e-19)
(-0.0129167 0.000602059 -3.47255e-18)
(-0.00242539 0.00252667 -7.23248e-18)
(-0.00529478 0.00156137 -8.86164e-18)
(-0.0220085 -0.0282844 1.46783e-18)
(-0.00116549 -0.000211634 1.24567e-19)
(0.00041658 0.000340996 -5.39162e-19)
(-0.00158784 0.00275735 2.57314e-20)
(-0.000785852 0.000767629 -6.7056e-19)
(-0.00117918 -0.000198928 -9.93391e-20)
(0.00238944 0.0012056 1.93046e-19)
(0.000517789 0.000235537 5.79543e-18)
(-0.000663268 -0.00176802 1.17053e-19)
(-0.000111347 0.000541126 -1.61169e-19)
(-0.000531717 0.00177464 5.25885e-18)
(-0.000838423 0.000855425 -3.03914e-18)
(-0.00277618 -0.000437587 2.69454e-18)
(0.000886466 0.00180055 2.19847e-19)
(-0.0134535 0.00176857 1.19041e-17)
(-0.000226707 0.000599279 -3.07213e-20)
(0.000517869 0.000252673 3.89332e-19)
(0.00282346 0.000225758 -2.54521e-19)
(0.000337906 0.00245037 -2.16641e-17)
(-0.000792638 -6.6479e-06 -1.85626e-20)
(-0.0130283 0.00153489 -1.09244e-17)
(0.0010805 0.00180428 2.65038e-20)
(-0.0033194 0.0128774 2.77861e-20)
(0.000545331 0.000250087 5.63561e-18)
(-0.000862401 0.000830334 -6.97734e-18)
(-0.00535464 -0.00197243 -4.73188e-20)
(0.0117992 0.0319399 4.15908e-18)
(-0.00197092 6.3829e-05 1.10904e-19)
(-0.0013135 0.00183901 -1.58997e-17)
(-0.00192925 0.00106844 4.24169e-18)
(0.00213352 -0.000914616 5.47479e-19)
(0.000502441 0.000218716 -2.57055e-18)
(0.000375999 0.00399368 -2.48972e-18)
(-0.00109317 -0.000183982 7.25637e-20)
(-0.00958986 0.00028749 -5.98354e-18)
(-0.000779487 0.0019532 -9.31742e-19)
(-0.00193538 -9.26167e-05 -3.22185e-19)
(0.0109665 0.0296304 6.62786e-19)
(0.000429363 0.000368434 7.25066e-19)
(0.0052113 0.0198883 8.28001e-19)
(-0.000823854 0.000353863 4.27497e-20)
(-0.011811 0.00138713 -1.91956e-17)
(0.0057448 0.0201934 -1.24199e-18)
(0.00061093 0.000144862 -7.49255e-19)
(0.00657409 0.00710731 -1.1894e-19)
(-0.00234788 -0.000877716 2.03977e-20)
(0.000636238 0.000252271 -7.27838e-19)
(-0.00775976 0.000921764 2.76567e-18)
(-0.00167372 0.00300276 1.59894e-17)
(0.000598312 0.000182876 -1.34679e-18)
(-0.000115335 0.00234648 4.69661e-18)
(0.00042767 0.000318663 5.08637e-19)
(-0.00257169 -0.00121348 -8.81069e-19)
(0.000697716 0.00136107 -6.68995e-18)
(0.00043989 4.78265e-05 -4.33519e-18)
(0.000849351 0.000929394 -7.38059e-18)
(0.000570597 0.000272914 -9.61883e-19)
(0.000184573 0.000329437 -3.37571e-19)
(0.000125066 0.000172809 -4.681e-19)
(-0.000206656 0.000610165 -8.95388e-20)
(0.000367883 0.000698873 -1.51555e-18)
(-0.00349584 0.00127466 1.92599e-18)
(0.000482345 0.000251616 1.21001e-18)
(-0.000256704 0.000642078 -7.10757e-20)
(0.000332252 0.000457973 -8.11574e-19)
(-3.82104e-05 0.00114274 9.31743e-19)
(0.0118824 0.00396667 -3.6038e-19)
(-0.00113407 -0.000353868 -1.56706e-19)
(-0.000226605 -0.000187322 3.32486e-22)
(-0.000302985 0.00206747 3.7464e-18)
(-0.000845922 0.000851496 1.93671e-18)
(0.000224357 0.000366595 2.93865e-19)
(0.000627107 0.000156055 -2.64801e-18)
(-0.00573771 0.00206288 1.00199e-17)
(-0.00814085 0.000589533 -1.02537e-18)
(-0.00387237 -0.0074574 -2.61774e-20)
(0.000339375 0.00198669 -2.53255e-18)
(0.00121404 -0.00068592 -2.566e-18)
(-0.00150097 4.01251e-05 -3.47554e-19)
(-0.00114235 -0.000327159 6.94791e-21)
(0.000746497 -0.000542717 -3.06039e-19)
(0.000136225 0.000164435 1.73109e-18)
(-0.00115008 -0.000355834 3.60127e-21)
(0.000422134 0.000366442 -9.06105e-19)
(-0.00116 -0.00032592 3.49087e-19)
(-0.00149733 1.60372e-05 1.27187e-19)
(-0.00487044 0.000896904 -1.56431e-17)
(0.000436491 0.00031717 1.16975e-18)
(-0.000422162 3.10429e-06 2.11399e-18)
(-0.00541637 0.00151049 1.54208e-18)
(7.64809e-05 0.0012839 -1.24479e-18)
(-0.000277986 0.000428336 -1.31155e-19)
(0.000567181 0.000222403 3.15668e-19)
(-0.00760574 0.00105421 -5.46414e-18)
(0.000566327 -0.000455986 9.6007e-19)
(-0.00685585 0.000635948 3.38334e-18)
(-0.00109468 -0.000360289 -2.15068e-20)
(0.000425824 0.000123223 -5.7281e-19)
(-0.00101292 -0.000166044 -7.37458e-20)
(-0.00127158 -4.87867e-05 2.72682e-19)
(0.00067808 0.00015347 -4.16344e-18)
(0.000453356 0.000360674 6.74314e-19)
(-0.005538 0.00200854 -1.26607e-17)
(-0.000664498 -0.00393529 2.25195e-20)
(-0.00175786 0.0030322 2.21213e-18)
(0.00043697 0.000123837 -5.43486e-18)
(0.000752319 0.00135623 -8.48671e-18)
(-0.00303784 -0.00422416 -2.70263e-19)
(0.000451019 0.000347517 1.8591e-18)
(-0.000772716 0.00107286 -7.02225e-18)
(-0.00541879 0.00165341 1.82698e-17)
(0.00051976 0.000233683 1.73422e-21)
(0.000687467 0.0091653 -4.79308e-20)
(-0.000240584 0.000439345 -1.42457e-19)
(0.000128112 5.63449e-05 6.17395e-19)
(0.000288907 0.000461139 1.08794e-18)
(0.000418626 0.00036464 -1.18189e-18)
(-0.000324061 0.000381857 -1.85658e-19)
(0.00041192 2.72166e-05 -1.51335e-18)
(-0.00967957 0.00211528 4.0617e-18)
(-0.00417899 0.000195068 7.87312e-18)
(-0.000348372 0.00036519 4.02503e-19)
(-0.000493318 0.00282671 -7.73363e-19)
(-4.02748e-05 0.0019719 1.99171e-18)
(0.000454469 1.67682e-05 -4.43088e-19)
(1.36094e-05 0.00133068 1.61309e-18)
(0.000334543 0.00263338 1.15133e-17)
(-0.0087184 0.000982948 1.3958e-18)
(0.000813414 0.00101803 9.889e-18)
(-0.0021787 0.00276488 1.64301e-18)
(0.00523018 0.0187437 1.19462e-19)
(0.00549236 0.0182879 3.89416e-19)
(0.000431938 0.000355552 -1.11054e-18)
(-0.00312132 -0.00600732 1.80842e-20)
(-0.00457229 -0.00470167 1.21784e-19)
(0.000658637 0.000251166 -3.26825e-18)
(-0.00128324 0.00194032 2.63219e-18)
(-0.00095237 -3.81271e-06 -2.19134e-19)
(0.000478077 0.000249195 7.08058e-19)
(0.000543856 0.000261891 8.58433e-19)
(0.000946826 0.000947926 1.17772e-17)
(0.000200367 -0.000509934 2.41956e-18)
(0.000703389 0.0018861 -7.39056e-18)
(0.000445677 0.00163788 4.69605e-18)
(-0.00230146 0.00222224 -4.3138e-19)
(0.00145369 0.00138527 2.27893e-19)
(0.00407819 -0.00308022 -7.35971e-19)
(-0.00079376 0.000219086 -6.96702e-20)
(0.000494484 0.0002557 -7.70733e-19)
(-0.0359488 -0.028141 -1.58923e-18)
(0.000381402 0.00108974 9.51636e-18)
(0.000204026 0.000307343 3.57018e-18)
(-0.00887552 0.000138849 9.49704e-19)
(0.000487033 6.32717e-05 -1.82017e-18)
(-0.000840799 0.000246315 -6.79497e-18)
(-0.00109139 0.00137214 2.91445e-18)
(-1.67345e-05 0.000147101 2.22612e-19)
(-0.00924576 0.00282209 8.83452e-18)
(0.000142228 5.4106e-05 1.65424e-18)
(-0.00127124 -6.43937e-05 -1.18893e-19)
(-4.89113e-05 0.0011926 3.54414e-18)
(-0.00110104 -0.000379056 1.13716e-19)
(0.000234728 2.58185e-05 -3.58095e-19)
(-0.000988358 0.00116724 -7.01469e-19)
(-0.00979739 0.00330685 1.08119e-17)
(0.00826403 0.00843252 -1.3397e-18)
(0.000341534 0.000161515 4.35543e-19)
(0.000760639 0.000459841 -7.14895e-18)
(-0.000924904 0.00182365 2.74657e-19)
(-0.00132292 0.00179852 -1.061e-17)
(-0.00204962 -0.000481742 -5.99294e-18)
(0.000493243 0.000257885 5.35325e-18)
(0.000480104 0.000247892 -8.56494e-19)
(0.000337248 0.000147777 2.61326e-18)
(-0.000336107 0.00100895 -3.44846e-18)
(-0.00176737 -0.00219595 -3.92049e-19)
(-0.000324663 0.000628883 -2.75093e-19)
(-0.000870863 -1.10644e-05 -4.03018e-20)
(0.000309761 0.000785555 2.00368e-20)
(0.000202668 0.000311174 -9.54217e-19)
(-0.00021283 -0.000380527 7.97671e-21)
(0.000355012 0.000613878 -5.52395e-18)
(-0.000951412 -1.06322e-05 -1.20893e-19)
(0.00038145 0.00162118 -4.07742e-18)
(-2.93276e-06 0.000137547 -3.05364e-19)
(0.000344484 0.000428813 2.11126e-18)
(0.000550866 0.000274873 4.31773e-18)
(-0.0124797 0.00264282 1.36417e-17)
(-0.00086759 5.08429e-05 2.1676e-20)
(0.000825203 0.000658898 -2.9227e-18)
(-0.00115487 0.000702827 -4.17519e-19)
(0.000737713 0.0013268 1.16589e-18)
(-0.000154382 0.00147435 -3.5334e-18)
(1.21357e-05 -0.00276096 1.62423e-18)
(-0.000506776 0.00101382 1.22166e-18)
(-0.00322342 0.000883079 7.8984e-19)
(0.000547992 0.000248771 -1.82885e-18)
(0.00367709 -0.00253021 2.88752e-18)
(-0.00858857 0.00160755 5.31717e-18)
(-0.00671749 0.00117566 6.32843e-18)
(-0.00608463 0.00180101 9.05367e-18)
(-0.000440701 0.000556175 -1.1233e-20)
(0.000259543 0.000484913 -6.61986e-19)
(-0.00244159 0.00273891 -6.58784e-20)
(0.000476105 0.00018357 -2.52975e-18)
(-0.00586714 0.00297619 -4.44074e-21)
(-0.00119092 -0.000276372 4.78762e-20)
(-0.00998241 -0.00880208 2.50615e-20)
(0.000421756 0.000417947 1.11556e-18)
(-0.00599965 -0.00246151 -1.93511e-18)
(-0.00289617 0.000120204 8.84546e-19)
(0.000823592 0.000771399 -1.51003e-17)
(0.000268112 0.000219506 -6.9224e-18)
(-0.000371257 0.00037109 5.14378e-20)
(0.000627414 0.00236144 -6.36659e-18)
(-0.000587982 2.10099e-05 5.49051e-21)
(-0.00137383 -2.43906e-05 4.18012e-20)
(-0.00783671 -0.00261517 -1.03328e-17)
(-0.00111258 -0.000367407 -5.34496e-20)
(-0.000609228 0.00126251 -4.0884e-18)
(-0.0003048 -2.37099e-05 1.24112e-20)
(0.000483722 1.26155e-05 -2.95335e-19)
(0.000283169 0.000483904 5.80065e-20)
(0.000611647 0.0018636 6.25159e-18)
(8.53047e-05 -0.000538137 1.49826e-19)
(-0.00103794 1.84837e-05 1.69222e-19)
(0.000200571 0.00188062 -1.0502e-18)
(1.67883e-05 0.00128074 6.69685e-18)
(0.0324172 0.0467793 -8.99182e-19)
(0.00356713 0.00171534 -1.43874e-17)
(-0.00937302 0.00315742 -7.77144e-18)
(-0.00905245 0.000938125 3.26816e-19)
(-0.000854288 4.99772e-05 -3.12994e-20)
(-0.00964473 0.000601273 1.64864e-17)
(-0.00040869 -7.13015e-05 -2.88156e-20)
(-0.00129698 0.000407113 -7.53242e-18)
(-0.00727063 0.0208811 2.36317e-19)
(-0.00142808 -0.000270498 -1.17645e-20)
(-0.00615331 0.000135058 -2.08531e-21)
(-0.000516108 -3.41281e-05 -2.03575e-21)
(0.000352175 0.00106891 -4.70973e-18)
(0.00104435 0.000715726 7.80725e-18)
(-0.00112714 -0.000377103 -1.19172e-20)
(-0.000531873 2.06461e-05 -7.45777e-20)
(0.00052148 7.33659e-06 -5.49027e-19)
(0.00235867 0.00171931 1.28831e-17)
(0.000343844 0.000170798 1.96043e-18)
(0.000550044 0.00198839 -1.31862e-17)
(0.000460849 0.000249342 4.82019e-19)
(-0.00103061 1.20613e-05 -1.30371e-19)
(-0.000838088 -2.53619e-05 -2.39637e-19)
(-0.00132995 0.00121681 9.03176e-18)
(-0.00407673 0.00284522 -5.74559e-18)
(-0.000528338 0.000221532 1.47993e-17)
(0.000267639 0.00176266 5.72499e-18)
(0.00039657 0.000638559 8.24967e-18)
(-0.00149552 0.00319946 -3.80771e-18)
(-0.0114429 -0.000120227 5.73374e-18)
(-0.000848042 0.000369488 -3.1264e-20)
(-0.00282684 0.00178814 -1.03099e-18)
(0.000504258 6.2563e-06 2.14761e-18)
(-8.47198e-05 0.00283489 -1.37117e-17)
(0.000464331 0.000184456 2.08641e-18)
(0.00063825 0.00375757 4.97277e-18)
(0.000182527 0.000305947 1.11301e-19)
(-0.000567424 -0.000499869 1.46611e-19)
(0.000544076 0.000248943 -1.49731e-18)
(0.0292988 0.0473008 -8.32988e-19)
(0.000216021 0.00103126 1.98931e-18)
(-0.00952805 0.00499366 -4.6519e-18)
(-0.000920938 2.73925e-06 -1.32876e-21)
(0.000261699 0.000944903 -1.26294e-17)
(-0.000464336 0.000766846 2.2317e-20)
(-0.000425016 -1.44305e-05 4.06597e-20)
(-0.0133722 0.00195811 -7.9959e-19)
(-0.00496994 -5.83585e-05 2.09993e-19)
(-0.000499909 0.000867306 -7.15283e-20)
(-0.000578024 0.00182075 5.76617e-18)
(0.000429939 5.9275e-05 9.16696e-19)
(-0.00103247 0.000149332 -2.85214e-19)
(-0.000419806 -2.64206e-05 -4.31384e-20)
(-0.0134285 0.00205684 5.83108e-18)
(0.000352829 0.000165303 -3.38476e-18)
(0.00195544 0.00191336 -3.27646e-19)
(-0.00117578 -0.000285014 1.47873e-19)
(-0.000492278 0.000826218 -2.9554e-20)
(0.000266989 0.00246705 5.86828e-18)
(-0.000483444 -3.63355e-05 -5.76203e-20)
(-0.000323413 0.00190356 -2.58611e-18)
(-0.000683886 7.75903e-06 1.04668e-20)
(-0.000104943 0.000191467 5.54906e-19)
(-0.000247476 -5.8869e-05 -1.31255e-17)
(0.000671826 0.00201016 8.72404e-18)
(0.000491965 0.000257404 -2.61849e-18)
(-0.00390038 0.000933057 1.93024e-17)
(-0.000663278 0.00138143 -1.16975e-18)
(0.00801351 0.00726957 1.25705e-20)
(-0.00115528 0.00132214 4.8459e-18)
(-0.000381953 0.000354638 -9.64776e-20)
(0.000391252 0.00122967 4.66705e-19)
(-0.0123331 0.0023493 4.21491e-18)
(-0.00153205 0.00223272 -1.42251e-17)
(0.000724081 -0.000437184 8.28749e-19)
(0.000639373 0.000121737 -4.50321e-19)
(-0.000841471 -0.00067977 -4.64112e-19)
(-0.000727369 1.02422e-05 -1.2968e-20)
(-9.72005e-05 0.000577681 -1.31158e-19)
(-0.00199055 -0.00785785 -1.24221e-21)
(-0.000171185 0.0014783 1.47071e-17)
(0.000445476 0.000279931 1.1369e-18)
(-0.00695525 -0.000385032 -1.33823e-17)
(0.000281261 0.00106453 -5.36141e-18)
(0.0127995 0.00810593 -3.53532e-19)
(-0.00282425 -0.000327663 -2.16937e-18)
(-0.00600767 -0.00269251 -4.61636e-19)
(-2.14953e-07 0.00063577 8.36337e-18)
(-0.000616339 0.00195355 -6.59855e-18)
(-0.0124318 0.000499419 -1.01771e-17)
(-0.000968284 0.000638827 2.3029e-20)
(-0.00376138 0.00131512 -3.32573e-19)
(-0.00167803 -0.00827061 1.48731e-20)
(-8.52562e-05 0.00018516 -5.59045e-19)
(-0.000859055 1.07206e-05 2.92415e-20)
(-0.000827216 -2.47575e-05 2.00507e-20)
(-0.000743486 0.0022622 4.44538e-19)
(0.000324465 2.62704e-05 -8.65093e-19)
(-0.0100384 0.000529185 1.68032e-18)
(0.00108188 0.00160197 -6.32321e-18)
(-0.000370109 5.75615e-05 9.3722e-21)
(0.000304549 0.00189478 -5.45202e-18)
(-0.000928525 5.20741e-06 -9.07439e-20)
(-0.0115125 0.00293361 1.11829e-17)
(-0.00117486 0.000539699 -5.71789e-20)
(-0.000284615 0.000593589 5.90034e-20)
(-0.00989492 0.00333903 3.45536e-18)
(-5.19643e-05 0.00147049 -1.47008e-19)
(-0.00258892 0.0106347 -1.25139e-19)
(0.000624261 0.000290872 1.8107e-19)
(-0.00212099 -0.000280557 1.42389e-19)
(-0.000409281 0.000621271 -5.75546e-20)
(0.000664321 0.000388771 9.82898e-19)
(0.000561538 0.000935979 -2.37292e-18)
(0.000127676 0.000397434 -1.3732e-18)
(-0.00493442 0.000658235 8.1694e-19)
(0.000119292 0.000257389 4.64836e-18)
(-0.0446676 -0.0619177 -1.7319e-19)
(0.00116034 0.0188325 1.25321e-19)
(-0.00369962 0.000648352 2.52008e-19)
(-0.00923871 0.00328321 -3.41335e-18)
(0.000738383 0.000457446 -3.9391e-18)
(-0.000470914 2.36708e-05 4.08015e-20)
(-0.000442659 0.000792825 -1.06009e-20)
(-0.00650286 -0.000793287 -2.60983e-18)
(0.00833464 0.00713701 2.65331e-19)
(0.000394529 0.00039593 9.17434e-19)
(-0.00635232 0.00054473 2.31671e-18)
(0.0273605 0.0270987 -1.42739e-18)
(-0.000126243 0.000216892 -3.79431e-19)
(-0.000326188 0.00058746 -2.94597e-20)
(0.000706316 0.000168626 1.3434e-18)
(-0.00270028 0.00220346 6.87453e-18)
(0.00634947 0.0083004 4.83371e-19)
(0.000161842 0.00100307 7.51723e-18)
(0.000687028 0.000376747 1.65824e-18)
(0.000803469 0.000655207 7.5759e-18)
(-5.16962e-05 0.00290098 1.26643e-17)
(0.000897807 0.00119372 1.89995e-20)
(-0.000425303 0.00181232 -6.64999e-18)
(0.00108512 0.00160302 8.3775e-18)
(0.000529326 0.000274139 -1.24701e-18)
(0.000597613 0.000314693 4.77601e-18)
(-0.00044693 2.33852e-05 3.13121e-20)
(0.000569418 0.000907403 1.6253e-19)
(0.00135208 0.00171219 -2.85874e-19)
(-0.00163579 0.00296854 8.84735e-18)
(0.000537318 5.10289e-05 -4.93259e-20)
(0.000404681 6.73835e-05 -1.15782e-20)
(-0.00553503 0.000570453 -1.01785e-17)
(-0.00118175 -0.00126884 8.06021e-21)
(0.0161401 0.0222328 1.98609e-18)
(0.000627524 0.000143189 2.32078e-18)
(0.00192505 0.00104884 -3.79605e-19)
(0.000474448 0.000522839 1.26051e-18)
(-0.00137187 0.00220283 1.5065e-17)
(-0.000838514 5.19941e-06 5.29257e-20)
(0.000803726 0.00233527 2.56733e-18)
(-0.00314304 0.00310009 -3.80466e-18)
(0.00163524 -0.00837781 -3.75808e-21)
(0.000478023 0.000187293 -1.86547e-19)
(0.000513337 6.55659e-05 -9.10676e-19)
(0.000322166 1.75297e-05 7.38758e-19)
(0.000465043 0.000152769 7.10209e-18)
(0.000565765 0.000235235 2.57384e-18)
(-0.000660206 -0.00114935 5.79417e-20)
(-0.00156228 -0.00481311 1.15259e-20)
(-0.00132437 0.00117219 8.70008e-19)
(-0.000419287 0.00188283 1.11843e-18)
(-0.000425102 0.000341906 -1.35937e-19)
(-0.00170701 0.00281783 -3.15786e-18)
(0.0010785 0.000952537 -7.19588e-19)
(0.000889648 0.000950672 -6.35518e-18)
(-0.000558673 0.00190114 -5.45301e-18)
(0.000421988 0.000346568 8.84862e-19)
(0.000565277 0.00232618 2.005e-17)
(-0.00625822 0.00228589 -1.71717e-18)
(-0.00095761 3.4912e-05 2.19398e-20)
(-9.03542e-06 0.00149278 -2.76724e-18)
(-0.000725673 0.000950879 -5.71218e-18)
(0.00107442 0.00156072 7.51695e-18)
(-0.000141099 0.000485263 7.02915e-20)
(-0.000276882 0.000390533 -6.78155e-20)
(-0.000114997 0.000579558 7.91353e-20)
(-0.0118491 0.000881215 3.05699e-18)
(0.000591119 0.000306433 7.84829e-18)
(-0.00123981 0.000457783 6.0031e-20)
(0.00105005 0.00185725 -1.30012e-17)
(0.000144032 0.000404809 9.74024e-19)
(-0.000303053 0.000470089 -5.27945e-19)
(-0.000687191 0.00146413 -7.74926e-18)
(-0.00558763 0.00137466 -4.80445e-19)