/*--------------------------------*- C++ -*----------------------------------*\
| =========                 |                                                 |
| \\      /  F ield         | OpenFOAM: The Open Source CFD Toolbox           |
|  \\    /   O peration     | Version:  v2012                                 |
|   \\  /    A nd           | Website:  www.openfoam.com                      |
|    \\/     M anipulation  |                                                 |
\*---------------------------------------------------------------------------*/
FoamFile
{
    version     2.0;
    format      ascii;
    class       volVectorField;
    location    "100";
    object      ddt0(U);
}
// * * * * * * * * * * * * * * * * * * * * * * * * * * * * * * * * * * * * * //

dimensions      [0 1 -2 0 0 0 0];


internalField   nonuniform List<vector> 
13917
(
(0.00310586 0.00124651 3.60398e-18)
(0.000497054 0.000635126 -1.5257e-19)
(-0.00785078 0.00485327 6.70872e-18)
(0.00117907 -0.00243178 -6.68518e-18)
(-0.00013581 0.000568408 6.07442e-19)
(0.000147016 0.00637651 -8.85187e-17)
(-0.0127866 0.00169679 -4.73376e-18)
(-0.00484142 0.00563943 -1.40479e-18)
(-0.00146739 -0.0237776 -2.97964e-17)
(0.0060051 0.00227364 -6.55183e-18)
(-0.000471527 -0.00415293 6.56503e-18)
(0.000255922 -0.0046156 -1.09495e-18)
(0.00138937 -0.00248629 1.022e-17)
(0.00733383 -0.000952281 3.40848e-18)
(0.000943578 0.00244619 4.43125e-18)
(0.00106471 0.00202189 3.19737e-18)
(0.000480326 0.000882674 1.40272e-18)
(0.0046337 -0.00500323 -2.92975e-19)
(0.000106796 -0.00456004 7.88502e-19)
(-0.000360486 0.000132343 -1.97244e-18)
(-8.48245e-06 0.000103569 7.29687e-18)
(-0.0138658 0.00137533 1.51479e-18)
(-0.000331665 0.000320181 1.21341e-18)
(-0.00334169 0.00542728 -4.48569e-18)
(-0.000258419 0.00106633 -3.01162e-19)
(-0.0133857 -0.00215338 5.79689e-18)
(0.000484469 0.00402193 -1.2314e-17)
(0.00112226 0.00448509 6.37411e-18)
(0.00103823 0.00679399 -9.89263e-19)
(0.0101383 -0.000984613 -1.67265e-17)
(0.00544976 0.00085117 -2.99744e-18)
(0.00237484 0.00081091 -6.04378e-18)
(0.000634955 0.00369181 -3.00071e-17)
(0.000137161 0.00274028 5.27094e-19)
(-9.65746e-05 0.00119928 -2.19607e-18)
(0.000880264 -0.00208202 3.88019e-18)
(-0.000350391 0.000288744 -8.21833e-19)
(0.00417489 3.40142e-06 6.07155e-18)
(0.00148819 -0.0027953 1.84134e-18)
(-0.0121797 -0.00264251 2.99972e-18)
(-0.000895679 1.06063e-05 6.74784e-19)
(4.73061e-05 4.41375e-05 -1.24124e-18)
(-0.000133506 -0.000284272 1.98709e-19)
(0.00128599 0.0051579 5.53109e-17)
(0.000499624 -0.00047338 8.68071e-19)
(0.000250797 0.00302579 2.69693e-17)
(0.00404594 -0.00496277 6.51675e-19)
(0.00295735 -0.0068983 8.45073e-18)
(0.00128736 0.00858648 -1.94998e-16)
(-0.00075109 2.5888e-05 2.73775e-18)
(0.00203903 -0.00249672 -4.89472e-18)
(0.000111506 0.00170305 -1.22094e-17)
(0.00138854 0.00914604 1.58368e-16)
(0.000167456 0.00280682 1.17876e-17)
(0.000473848 0.000921889 -5.99036e-19)
(0.00248321 -0.00160528 4.51596e-19)
(-0.000690941 -0.00425983 -2.63736e-18)
(8.74929e-05 0.00105195 8.10078e-19)
(0.00180016 -0.000924961 -1.25023e-17)
(0.00020893 -0.000429746 -5.28538e-19)
(-0.0712571 0.00385282 1.93688e-17)
(0.000495605 0.000602865 5.92023e-19)
(0.005057 -0.000852023 4.64284e-18)
(-0.000401945 0.000151869 2.60601e-18)
(0.00037702 0.00633547 6.98206e-17)
(-0.0272393 -0.00381951 3.34883e-18)
(9.27227e-05 0.000625166 1.61959e-18)
(0.000125002 0.00129366 -5.50528e-18)
(-0.00151752 -0.00946668 -7.29121e-18)
(0.00298234 0.00207672 9.9788e-18)
(-8.98898e-05 0.000500699 2.15854e-18)
(-0.0031745 -0.0238679 2.69081e-17)
(-0.0312362 -0.00804861 3.25381e-18)
(-0.000128227 0.00104062 1.48735e-19)
(0.00126889 0.00825269 -8.3574e-17)
(0.000501675 -0.00490989 4.2838e-18)
(-0.00976517 -0.0048826 2.78221e-18)
(0.0012109 -0.000946577 8.31816e-18)
(-0.0102106 -0.00500161 -3.55714e-18)
(-9.15978e-06 0.00015563 -1.79351e-18)
(-0.000166314 0.000144347 2.35944e-18)
(0.000103863 0.000558272 2.88818e-18)
(0.000714051 0.0062309 -1.08797e-16)
(0.00354849 -2.37413e-06 -1.18537e-17)
(-0.011408 0.00188723 2.77472e-17)
(0.0011686 -0.000949352 -1.3419e-18)
(-0.000279023 0.000132136 -1.51347e-18)
(-0.0129572 0.000912786 -2.26361e-17)
(0.00268926 -0.00242664 1.09646e-18)
(-8.72366e-05 -0.000307766 9.92232e-19)
(-0.0124358 -0.0102041 1.04293e-18)
(0.00832542 0.00154271 1.43052e-17)
(0.000129425 0.000131356 6.33837e-19)
(0.000537306 0.0018511 -5.62635e-18)
(-0.0164762 -7.26468e-05 1.13227e-17)
(0.000369271 0.00637828 -5.57358e-17)
(-0.000323774 -0.00621992 7.43423e-18)
(0.0037645 -0.00646541 5.78702e-18)
(0.000509715 -0.00582398 -4.28977e-18)
(0.000860569 0.00528698 4.18284e-18)
(-0.000539805 2.87483e-05 -8.05584e-20)
(0.000269881 0.00353892 -7.20538e-17)
(0.00123973 0.00503927 -6.59349e-17)
(0.00134997 -0.00140949 2.59474e-18)
(-0.000283916 4.92408e-05 2.56153e-19)
(-0.00700503 -0.0283431 -2.59195e-19)
(0.001423 0.00666841 7.21938e-18)
(0.00255724 -0.00713136 -1.23133e-17)
(0.000491087 0.000848274 -2.26707e-20)
(0.00397286 0.0013164 2.83107e-17)
(-0.0395693 0.00942801 -3.2349e-17)
(-0.0128219 -0.00279601 -3.23624e-18)
(0.000711226 -0.00493198 1.8703e-17)
(-0.00599191 -0.0274878 7.40949e-18)
(0.000206284 0.00204728 9.65625e-18)
(-0.000526368 0.00866813 3.41816e-17)
(-0.000232937 0.000742874 -7.49018e-19)
(0.000904566 0.0079262 3.87177e-17)
(-0.0102537 -0.000559097 2.70917e-18)
(0.000285955 0.00279266 -3.72001e-18)
(5.77239e-05 7.83427e-05 -7.64887e-19)
(-0.000477011 -0.00970991 6.63203e-18)
(-0.00509282 5.41284e-05 2.44557e-18)
(0.000914307 0.004403 -1.48668e-17)
(-0.000785702 2.02384e-05 7.03607e-19)
(0.000473713 0.00179225 -7.31935e-19)
(0.000490281 -0.000161499 1.09139e-18)
(-0.000828559 1.77366e-05 -2.51053e-19)
(-0.000304787 -0.000125574 -5.02241e-19)
(0.000476334 0.00645051 1.11432e-16)
(-0.00793224 0.00101552 -2.49451e-18)
(0.00020246 0.0020092 -4.70739e-18)
(0.000598913 -0.000452515 -3.78228e-19)
(2.64519e-05 8.75279e-05 -8.61293e-18)
(0.0197699 -0.0153045 1.12776e-17)
(-0.00244875 0.00544068 -4.20126e-18)
(0.00334808 0.00145076 8.42059e-18)
(0.000713105 0.00510023 -2.64965e-17)
(0.000108429 0.000667354 2.85014e-18)
(0.000253726 0.00277592 -1.947e-17)
(-0.000107673 -0.00222278 3.34854e-18)
(-8.99999e-06 -0.000247233 1.54486e-18)
(0.000176215 0.00178978 2.24067e-17)
(0.00135975 0.00540672 2.16461e-18)
(0.000133956 0.00132121 6.23558e-18)
(-0.0103715 -0.0243457 -3.95441e-19)
(0.000851497 0.00674373 -8.05819e-19)
(0.000153938 0.0016831 1.21617e-17)
(1.27454e-05 -0.000252926 9.40384e-19)
(0.00229128 0.00116269 1.52861e-17)
(0.00129864 -0.00530212 -3.1183e-18)
(-0.000230646 0.00882653 4.71772e-17)
(0.000404391 -0.00504859 -4.69906e-18)
(0.00228585 0.00326119 4.67057e-19)
(0.00230766 -0.000424201 3.29459e-18)
(-0.00974459 -0.000962552 1.36372e-16)
(0.00279275 0.00204241 -7.33383e-18)
(-0.0074719 -0.00412031 -5.50931e-18)
(-0.0100144 -0.00380943 -3.43618e-18)
(0.0215125 -0.0147606 -1.08594e-17)
(0.000449386 0.00238407 -1.9228e-17)
(2.02187e-05 0.00403781 -1.30945e-17)
(1.33665e-05 0.000132271 5.50346e-18)
(-0.000626256 -0.00605886 -6.97582e-18)
(0.000703039 -0.00489086 -1.01908e-17)
(0.000567823 -0.00571209 1.03256e-17)
(0.00138516 -0.0013564 -2.19363e-18)
(0.0023224 -0.00592561 -2.3811e-17)
(0.000320406 -0.000311435 1.14779e-18)
(-3.76706e-05 0.00357091 6.55647e-17)
(0.00247017 0.00300829 2.34068e-18)
(-0.0283634 0.00554729 9.24505e-17)
(0.000661659 -0.00511581 1.57803e-17)
(0.000652485 0.00111123 -1.21002e-18)
(-0.0152464 -0.0146006 -3.59434e-18)
(0.00214199 0.00363458 4.39213e-21)
(-0.00900897 0.00122118 -3.43447e-19)
(0.000703249 0.00823961 7.58317e-17)
(-0.0114954 -0.0227204 3.69472e-18)
(-9.71794e-06 0.000470895 1.06569e-18)
(0.00869841 0.00128998 2.33568e-18)
(0.00521188 0.000695901 -1.86727e-18)
(-9.46847e-06 -0.000284182 -1.68306e-18)
(-0.000314201 0.000143053 3.05295e-18)
(0.00107762 0.00306314 -3.98039e-18)
(-0.0119104 -0.00260191 -1.08291e-17)
(0.0139722 0.0040486 -1.28139e-17)
(-0.0166932 -0.00222951 -1.16866e-16)
(0.00494665 -0.00259635 1.14571e-17)
(0.0010817 -0.00502784 -1.9086e-18)
(0.00188316 -0.00258052 5.57423e-18)
(-0.0162529 0.00144909 -1.13707e-17)
(0.0108493 0.00564945 8.45943e-18)
(-0.000318908 0.000366862 7.54909e-19)
(0.000631659 0.00531079 2.18471e-17)
(0.000468349 0.00394842 -4.31941e-17)
(-0.000960938 2.25218e-06 -1.79951e-20)
(6.03288e-05 0.000145581 5.42981e-19)
(0.00155888 0.00623262 -8.65748e-18)
(0.00344608 0.00707552 6.31934e-17)
(0.00216215 -0.00271188 1.0607e-17)
(-0.000769379 2.20239e-05 -6.63336e-19)
(0.00266028 -0.00547184 1.60524e-17)
(0.00114341 -0.00518693 3.71968e-18)
(-0.0310265 -0.00636059 -3.28769e-17)
(0.00649017 -0.0207873 -2.97522e-17)
(-0.000145659 0.00118376 -4.14084e-18)
(8.24724e-05 0.00107548 -2.07259e-18)
(0.00389087 -0.00637358 2.63587e-17)
(-0.0104064 0.0002256 -6.9381e-18)
(0.00016544 0.00176244 -1.80647e-17)
(-0.0125051 0.00251943 6.70858e-18)
(-0.0312248 -0.00396516 -9.40795e-18)
(0.000842777 -0.00496231 2.18793e-18)
(-0.000223076 6.4787e-05 -3.298e-19)
(0.0017776 0.00676136 1.37384e-16)
(0.00271414 -0.00572169 -5.17796e-18)
(-0.046975 0.00387266 -3.6487e-17)
(-0.000144522 0.000716287 -5.03777e-19)
(-0.0720218 0.00256081 -4.32659e-17)
(-2.69705e-05 0.000457348 -1.17466e-18)
(0.00981482 -0.00290408 -6.79826e-19)
(-0.000889568 1.38502e-05 -6.50205e-19)
(0.00458213 -0.00284341 2.4125e-18)
(-0.00781516 -0.0285719 6.90072e-18)
(0.00116003 0.00205519 -8.86416e-19)
(0.00482912 0.00816519 3.55744e-17)
(0.00254937 -0.000538056 -6.36886e-18)
(-0.000283834 7.04757e-05 6.43411e-20)
(0.00101675 -0.00241787 -5.28503e-18)
(0.000361812 -0.0051083 -5.44643e-18)
(0.0043667 -0.00267199 -3.08621e-18)
(-0.00307671 0.00516633 7.80356e-18)
(-0.0313811 -0.0031598 4.81908e-19)
(-0.000660789 1.21125e-06 -1.14416e-20)
(0.00260441 0.00079289 -4.12101e-18)
(-0.0124472 -0.0118787 -3.41603e-19)
(-0.00642809 -0.000453869 -2.1271e-17)
(-0.000153935 0.000140922 -2.86655e-18)
(-0.000431302 0.000277878 3.18449e-19)
(-0.00972555 -0.00338639 1.54357e-17)
(-0.0010125 -0.00676272 4.1605e-18)
(-6.5815e-05 6.69887e-06 1.3085e-18)
(0.00157755 -0.00361836 -1.80983e-17)
(0.00686639 -0.00803704 4.53438e-18)
(-0.000124723 0.00398823 8.14757e-18)
(0.00450531 0.000878305 1.0155e-17)
(-9.07038e-05 0.000135061 -1.70901e-19)
(0.00181103 0.00386917 1.03864e-19)
(-0.0232748 -0.0033177 1.21656e-17)
(0.000477171 -0.00122787 -1.35859e-18)
(0.00929957 0.00241583 1.42704e-17)
(0.00102574 0.00561153 -1.01895e-16)
(0.000482025 -0.000193099 1.26892e-18)
(5.77358e-05 0.00106251 7.09913e-18)
(0.00121779 -0.00493996 2.62299e-18)
(-0.0106954 -0.0039617 -1.59009e-18)
(0.000815934 -0.00504349 6.64304e-18)
(0.00113516 0.00310282 1.46525e-17)
(0.00102612 0.00241881 -4.1553e-18)
(-3.03734e-05 1.21222e-05 -1.59062e-19)
(-0.00575375 -0.00041416 -3.74245e-18)
(-0.0131908 -0.0219641 -5.50984e-18)
(0.00222355 -0.00513475 1.06522e-17)
(-0.000316156 8.19932e-05 -5.78561e-21)
(-0.0457041 -0.00346242 -3.01998e-17)
(0.00770088 -0.0012361 5.95719e-19)
(-0.00810023 -0.00341254 2.15591e-18)
(-0.0106436 -0.00487654 3.33468e-18)
(0.000489577 -0.00503528 6.30273e-18)
(-7.7794e-05 0.000147929 5.2424e-18)
(-0.000852069 2.02739e-05 -3.24291e-19)
(0.00451628 -0.00518815 9.7644e-18)
(0.0031069 -0.00470017 8.9151e-18)
(0.00242693 -0.0100461 -1.44934e-17)
(0.00180201 -0.000953748 1.0495e-17)
(0.00665447 -0.0214425 -1.78827e-18)
(0.00122309 -0.00366833 1.14112e-17)
(-0.000346715 -9.30733e-05 -1.72225e-18)
(-0.00163358 -0.000720851 -5.82126e-17)
(-0.000390448 0.000139566 -2.46284e-18)
(-0.0154497 -0.0134686 4.44793e-18)
(0.00274732 -0.00264045 -7.18715e-18)
(-0.00016622 6.50908e-06 -1.47966e-18)
(0.00125047 0.00225556 2.5137e-18)
(0.00198066 0.00328361 -1.33049e-18)
(5.62478e-06 0.0040103 -8.97159e-18)
(0.00138722 -0.00335009 1.72767e-17)
(0.00150655 0.00282433 5.4098e-19)
(0.000565982 -0.00110884 -2.72272e-18)
(0.0183705 -0.0112792 3.78013e-17)
(-0.00299425 0.00519928 -2.21081e-18)
(-0.0261071 -0.0194913 1.70307e-17)
(-0.000160035 0.000727789 -2.8411e-20)
(-0.00973514 -0.00641688 -1.95844e-18)
(7.84614e-05 0.000307444 5.44921e-18)
(0.000523564 -0.00113647 3.77904e-18)
(-0.000238955 0.000706526 1.42392e-18)
(0.00107477 0.00700241 6.23838e-19)
(-0.00062055 1.84496e-05 2.25178e-20)
(0.0101939 -0.00299128 -7.27245e-18)
(0.00418381 0.000919693 -1.3257e-17)
(0.000304541 -0.000326216 1.8695e-18)
(0.00253291 -0.00551929 -1.41698e-17)
(0.00108623 0.000497299 -1.08201e-18)
(0.000876887 0.00863382 6.95953e-17)
(0.00218856 0.00357459 -3.49735e-18)
(0.00793096 0.00132913 8.39478e-18)
(0.000298847 -0.000466863 -1.99427e-18)
(4.13802e-05 0.00103997 -6.2655e-18)
(-0.0365065 0.00797406 -2.38518e-17)
(-0.00220464 6.47199e-05 6.6202e-18)
(-0.000206363 0.000750613 1.12633e-18)
(-0.00087783 1.62237e-05 -5.15784e-19)
(0.00691312 -0.00122351 5.42109e-17)
(1.60135e-05 0.000364338 3.61542e-19)
(-0.0294413 -0.0093258 2.86963e-18)
(0.000232553 -0.000432818 1.83427e-18)
(0.00401189 -0.00332204 5.30207e-18)
(0.000851517 -0.00189132 3.39863e-18)
(0.0056391 0.00700387 -6.25667e-19)
(0.00255534 -0.00362954 -4.80497e-18)
(0.00150293 0.00816589 -8.86967e-17)
(0.00046398 0.00232041 1.7089e-17)
(0.0160871 -0.0128687 2.77628e-17)
(0.00167616 0.00651306 1.39219e-16)
(0.00126588 0.00217351 1.44797e-18)
(-0.000968592 -0.00702855 1.12048e-17)
(0.00166364 0.00678264 2.44789e-17)
(0.00030665 0.00123305 -6.95162e-19)
(-0.00245945 0.00175097 -5.12217e-18)
(0.000435379 0.00519014 5.90353e-17)
(0.00757471 -0.00113716 7.89707e-19)
(0.000306279 0.00257109 1.59853e-17)
(-0.0149343 -0.00161708 -1.27562e-18)
(0.00274384 0.000605552 6.82018e-18)
(-0.027317 0.00963707 3.46843e-17)
(0.00151027 0.00639116 2.86321e-17)
(0.00164672 0.00552361 -4.55986e-18)
(0.00157057 0.00543417 7.04541e-18)
(-0.00944155 0.00445416 2.21884e-18)
(-5.86711e-05 0.00018953 7.98279e-19)
(0.00284082 0.00308304 -3.12075e-18)
(-0.0393957 0.010616 -6.74987e-17)
(0.000135725 0.00135641 1.191e-18)
(0.000811337 0.00160962 -4.9722e-18)
(0.00661953 -0.000708544 3.57817e-19)
(0.00118038 0.00633906 1.23319e-17)
(0.000622702 0.000945794 -1.30161e-20)
(-0.00416408 -0.00258427 2.88733e-18)
(0.00146117 0.00687105 -3.12694e-19)
(-0.000612558 4.74021e-05 -1.43283e-19)
(-0.0101954 -0.000765752 -8.96647e-20)
(-0.00034286 -0.00177437 1.48779e-17)
(-0.000428265 0.000158434 2.2546e-18)
(-0.000310416 0.000229288 -4.69319e-19)
(0.000174666 0.000297374 -4.60089e-18)
(-4.91373e-05 -0.000286746 1.64612e-18)
(0.0186124 -0.0117121 -2.08071e-17)
(-0.0130584 -0.0199272 1.9738e-17)
(-0.00092874 0.00681039 2.74426e-17)
(-0.0353369 0.00892608 -3.92604e-17)
(-0.000194327 0.000918672 -3.06889e-19)
(0.0101174 0.00257645 -1.15563e-17)
(-0.00100745 0.000686799 -4.56201e-17)
(0.0027941 -0.00459397 1.61197e-17)
(-0.0130057 0.00217922 -1.19656e-18)
(0.00230534 -0.00555858 -1.23667e-17)
(-0.006756 -0.0281149 3.26747e-19)
(-0.000524378 -8.07122e-07 -9.8021e-20)
(0.00226158 -0.0052417 -5.53538e-18)
(-0.000336592 0.000172129 -1.11034e-19)
(-0.0621065 0.00259458 -2.60776e-17)
(0.000203524 -0.000372404 3.79732e-18)
(0.00187508 0.00873634 7.32503e-17)
(0.00721773 -0.00803502 1.1156e-17)
(0.00149483 -0.00253325 1.81479e-17)
(-0.000122514 0.000206234 -1.17422e-18)
(0.00308692 -0.00609181 2.21265e-17)
(0.00924699 0.00143799 3.2963e-17)
(0.00448172 -0.00698127 2.6097e-19)
(0.00443746 0.0106644 7.40565e-18)
(-0.0231085 0.00900732 5.94769e-17)
(-0.0482139 0.00381208 1.01987e-17)
(0.00205555 0.00398058 -1.14073e-18)
(0.0056016 0.00214184 2.73154e-17)
(-0.000453708 0.000277076 -1.52775e-18)
(-0.0079354 -0.000450569 2.34376e-17)
(-0.0142676 3.14895e-06 -1.81246e-18)
(9.56828e-05 0.000977957 6.33e-21)
(0.0153259 -0.0128586 2.29833e-19)
(-0.00012772 0.000932646 5.54923e-18)
(0.00993556 -0.0168768 -1.57425e-17)
(0.00089036 -0.00185536 -4.21479e-18)
(-6.77577e-05 0.000179876 -2.06625e-18)
(0.00115289 0.000724701 2.23639e-18)
(-0.0048695 -0.00893368 2.30999e-18)
(0.00116865 0.000776826 1.01936e-18)
(-0.0100698 -0.00448507 -3.68985e-18)
(-0.00738609 0.000537934 7.33822e-17)
(0.000109572 -0.00437424 2.17992e-19)
(0.00174057 0.00684077 -4.04273e-17)
(0.000308621 0.00118704 -1.9987e-18)
(0.00137312 0.00674071 -1.41591e-16)
(0.00168234 0.00691243 -1.52634e-16)
(-0.000389062 0.000471644 8.81204e-19)
(0.00123413 0.00637724 1.09677e-18)
(8.36637e-05 0.00134789 1.87645e-18)
(-0.000116865 0.00106774 -2.01325e-18)
(0.0100043 -0.000645157 2.40725e-17)
(-0.000100579 1.72649e-05 7.73118e-20)
(-5.82466e-05 0.00111664 4.96925e-18)
(-0.000218277 0.00016264 1.14371e-19)
(0.0185321 -0.0110286 -2.85962e-17)
(-4.37428e-06 0.00013966 -6.49359e-20)
(-0.0147913 -0.00156653 4.036e-18)
(-0.00483453 -0.00949623 8.92972e-18)
(0.000563612 8.45662e-05 8.41913e-17)
(0.0104383 0.0056496 9.23173e-18)
(-0.0126518 -0.00342459 3.34867e-18)
(-0.0507372 0.002497 4.80325e-18)
(0.00234138 -0.0045054 -2.58412e-17)
(-0.000192741 0.000879069 -1.58428e-18)
(0.011202 -0.0104527 9.05029e-18)
(0.00137168 -0.00274388 -5.19417e-18)
(0.00279331 0.000872754 -8.06186e-20)
(-0.000296281 0.000410702 -4.18855e-18)
(-0.0122079 -0.0215564 -1.57097e-17)
(-0.0129456 0.000213771 7.78533e-18)
(-0.00271274 -0.0101689 5.5273e-19)
(0.000942102 0.00216536 -4.30176e-18)
(0.00651666 -0.00929694 1.33009e-17)
(0.00021244 0.00249929 3.91852e-18)
(0.00153709 -0.00283662 3.69357e-18)
(0.00480666 -0.00692235 -1.16003e-17)
(0.000836141 0.00109504 2.76241e-20)
(0.00253262 -0.00576395 1.0477e-17)
(0.000457084 0.000794489 -4.39488e-19)
(-0.00057808 2.1936e-05 1.50823e-18)
(-0.0286319 -0.0111128 1.41233e-17)
(-0.00923598 0.000970989 -1.75107e-18)
(-0.0100473 0.00101286 1.8774e-18)
(0.00661122 0.00468706 -1.13493e-17)
(0.0021315 -0.000426022 -9.05421e-17)
(-0.00303891 0.00220702 -6.68482e-18)
(-0.0448447 0.00197611 -6.56437e-18)
(0.00137236 -0.00365519 -2.19855e-17)
(-0.000402832 -0.000103885 4.53006e-20)
(0.004143 -0.00583092 6.3704e-18)
(0.000868525 0.00104144 -6.01203e-20)
(0.000160592 0.00115479 -3.82636e-19)
(0.00892175 -0.0197577 -1.96959e-17)
(0.00405833 -0.00521627 -1.18001e-17)
(2.39052e-05 -5.30264e-05 -6.09955e-19)
(0.00685717 -0.00377452 -1.46195e-17)
(0.00184691 -0.00434012 3.72154e-18)
(0.00412374 -0.00300808 -3.07595e-18)
(-0.000359895 0.000493628 6.65658e-19)
(0.000564831 -0.00819708 3.30249e-17)
(-0.0123576 -0.0066394 7.38878e-17)
(0.0053388 0.00717281 6.68293e-17)
(-0.0134956 -0.00122244 8.19809e-21)
(-7.16938e-06 0.000131666 -6.10174e-19)
(1.5255e-05 0.00101085 -9.60822e-19)
(-0.000879434 7.85496e-08 3.58988e-19)
(0.00264815 0.00218161 -5.18164e-18)
(-0.000463219 -4.47907e-06 -1.3377e-19)
(-0.00831396 -0.00410739 -4.6317e-18)
(-0.000712258 0.00661476 -2.10705e-17)
(0.0016446 0.002744 -1.86055e-18)
(-0.00990892 -0.000658651 -2.10986e-17)
(0.00238504 -0.00168558 4.95501e-18)
(-0.0007399 -0.00582698 9.74222e-18)
(-0.0445968 0.000948656 -4.48082e-18)
(0.00111108 0.0069672 2.12774e-18)
(0.000351396 -0.00444437 1.96412e-19)
(-0.000137929 -0.00186681 7.98131e-19)
(0.000867895 -0.00813553 -3.4701e-17)
(0.0076414 -0.00246072 -4.67097e-18)
(0.00813959 -0.0119148 -1.81255e-17)
(0.00175296 -0.00419203 -7.85234e-20)
(0.000827354 -0.00455054 8.90291e-18)
(0.000556226 0.00631721 1.26961e-16)
(0.0013543 -0.00421105 -2.96855e-18)
(0.00205767 -0.00742271 -1.54865e-17)
(-0.000710975 -1.16355e-05 1.86515e-19)
(0.0140798 -0.0176808 -3.2529e-17)
(0.00269616 -0.00250874 6.96126e-18)
(0.000121042 -0.000753792 1.83573e-18)
(0.00229999 0.00212023 6.59783e-18)
(0.00111833 -0.00109044 -6.43502e-18)
(0.00310413 -0.00344588 9.23867e-18)
(-0.00618481 -0.0276002 -8.76744e-18)
(-9.73141e-06 0.000356406 -1.39058e-19)
(-0.000400449 -7.44945e-05 4.5679e-19)
(-0.00620892 -0.00182842 -2.78918e-18)
(-0.0515539 0.00240468 -1.37748e-17)
(-0.000137275 1.3111e-05 -5.39597e-19)
(-0.014281 -0.00130651 -5.38442e-18)
(0.00134078 -0.00175329 3.42687e-18)
(0.0099558 0.00443115 7.92179e-17)
(-3.89888e-05 0.000416011 2.39957e-19)
(-0.0390013 -0.00443094 -1.27143e-17)
(-0.00684748 -0.0145302 -8.5714e-18)
(0.00227259 0.00104538 -1.03943e-17)
(0.000778287 1.83975e-05 3.19967e-18)
(-0.0120433 -0.0036934 2.68225e-19)
(0.0124181 0.00354042 4.00074e-18)
(-0.000782399 0.000689334 1.59087e-16)
(-2.05318e-05 1.61415e-05 -4.55384e-19)
(-0.0280002 -0.00399806 6.05091e-18)
(0.000354715 0.00855953 2.90975e-17)
(-0.00400426 -0.00106032 -8.24217e-17)
(6.9125e-05 -0.000744011 -2.27593e-18)
(-0.00847996 0.00141791 -7.85653e-17)
(-0.0408457 -0.0126037 3.07722e-17)
(0.00240811 -0.00454743 -7.55175e-18)
(-0.000285133 0.000210364 -1.06987e-18)
(0.000480855 0.00101954 -1.30178e-18)
(9.36416e-05 -0.00485966 2.66455e-18)
(0.0100265 -0.0179597 -9.67114e-19)
(0.000152762 -6.96306e-05 9.68957e-19)
(-0.000351626 0.000231358 -2.67087e-19)
(-0.000675794 7.59679e-05 1.11983e-20)
(-0.000672726 7.48402e-05 8.98214e-19)
(-0.0474569 -0.00209808 2.74527e-17)
(0.00988851 -0.0192341 3.80877e-17)
(0.0021334 -0.00447988 2.47192e-18)
(0.0145795 0.00309017 4.49399e-17)
(-0.000801752 1.68435e-05 9.95963e-20)
(-0.000561245 3.01477e-05 8.87015e-20)
(0.00616911 -0.00915389 -5.50995e-18)
(-0.0268346 -0.0177196 -1.70095e-18)
(0.00398528 -0.00174462 1.91533e-18)
(0.00047756 -0.000346099 -1.26756e-18)
(-0.00014679 0.00106279 1.68816e-18)
(0.000105027 0.000989768 4.2907e-18)
(-0.0141376 -0.000372331 8.99628e-18)
(-0.0244117 0.000845447 2.95696e-17)
(-0.000229763 0.000113665 1.27501e-18)
(-2.50251e-05 0.000982201 -4.82084e-18)
(0.00222209 -0.00555932 -7.58814e-18)
(0.0018225 -0.00417734 -2.02065e-18)
(0.00234541 -0.00364197 -8.21293e-18)
(8.39488e-05 0.00102381 -3.96004e-18)
(0.000948358 0.000871512 2.09409e-18)
(0.00181344 0.00126702 -4.94219e-18)
(0.00207426 -0.00720182 1.06974e-17)
(0.00143515 0.00654583 -1.7908e-17)
(0.0144326 0.00387741 -1.07949e-17)
(0.011359 -0.0111468 -1.54054e-17)
(0.00276286 -0.00899872 -6.43147e-19)
(0.00529815 -0.0211624 3.52212e-17)
(0.00796544 0.000968254 7.67656e-18)
(-0.000163363 0.000768175 1.43192e-18)
(-0.0252279 -0.00437706 -1.65686e-17)
(0.000109122 0.000949115 -5.87178e-18)
(0.000904031 0.0016496 3.81562e-18)
(0.000676413 -0.00230834 -3.32015e-18)
(0.0133923 -0.0181096 2.05588e-17)
(0.00193889 0.00489843 6.76661e-18)
(-0.000813422 7.02943e-06 -1.11155e-19)
(0.00578222 0.00712935 -6.2089e-17)
(0.0112584 -0.00154808 2.81127e-17)
(-0.0078911 -0.00275295 3.34211e-17)
(0.00314361 -0.00900765 6.1634e-18)
(0.000997506 0.00372593 -3.64006e-18)
(0.00284793 -0.00450154 2.75925e-18)
(-0.000116752 0.000220382 4.67825e-18)
(-0.029174 -0.018254 -5.58139e-18)
(0.00587827 0.00701865 -1.48214e-17)
(-0.00742171 0.0041165 3.26887e-18)
(0.000451731 0.000766007 2.61474e-19)
(0.00277585 -0.00186577 -5.84414e-18)
(0.0154701 0.00289674 -3.91359e-17)
(0.00126724 -0.00649103 2.13492e-19)
(-0.0307717 0.000730433 1.42383e-18)
(0.00452572 -0.00678133 -9.98784e-18)
(0.00711361 0.00493124 9.474e-19)
(0.00103369 0.00206526 -5.42367e-18)
(0.00196461 -6.29922e-05 5.83257e-18)
(0.000131602 0.00106009 3.52663e-19)
(0.00146505 0.00452128 8.91805e-18)
(0.00107092 0.00518504 -1.54669e-17)
(0.000122382 0.00160065 -4.5875e-18)
(0.00309108 -0.00563134 8.42455e-18)
(0.000888508 0.00543056 2.48214e-17)
(-0.00751845 0.0042785 -8.28229e-19)
(-0.00129398 0.000652181 -7.87788e-17)
(0.00117996 0.00102944 -1.46152e-18)
(-0.000451806 -0.00570643 -6.6686e-18)
(-0.00684067 -0.0138545 6.02913e-19)
(0.00135077 0.00231158 1.05891e-19)
(0.000291814 0.00169576 -1.31597e-17)
(0.00223117 0.00794046 4.46178e-17)
(-0.00110446 -0.0306021 -1.54974e-17)
(-0.00968735 -0.0178683 3.598e-18)
(0.014787 0.00165534 2.34564e-17)
(-0.000344964 -0.00013363 6.92929e-19)
(-0.00950319 -0.00056728 5.7467e-18)
(0.000426564 -0.00481328 -8.46142e-18)
(-0.000924698 6.32886e-06 -2.20123e-19)
(0.00328745 -0.000453491 -2.32109e-17)
(0.000726709 -0.00599905 5.58662e-18)
(0.000713242 0.0036353 1.62899e-17)
(0.00991488 -0.00128031 1.49755e-17)
(-0.0112353 -0.00432132 -3.76202e-18)
(0.00728255 -0.0116398 8.96704e-18)
(0.00159506 -0.00392953 -7.4119e-19)
(-0.0283536 -0.0194486 -8.99229e-17)
(0.00161843 -0.000953876 -7.83195e-18)
(0.00118611 -0.00305446 2.09071e-17)
(-5.14392e-05 0.000140667 -1.46341e-18)
(-0.000251687 0.000119 -3.45856e-18)
(-0.00958534 -0.00571701 3.20987e-18)
(-0.00248763 -0.0309301 1.51595e-17)
(0.0013083 0.00680811 -8.28506e-17)
(0.00156413 -0.00102155 1.89786e-18)
(0.000615182 0.00104844 -9.54188e-19)
(-2.84176e-05 0.000941654 1.18277e-19)
(0.00125912 -0.00374814 1.37022e-18)
(0.00154777 0.00877076 1.39196e-16)
(0.000523076 -0.00563874 -7.69579e-18)
(0.00190448 -0.000124137 -6.93109e-18)
(0.000387953 -0.0045445 2.02663e-17)
(0.00324722 -0.00599909 -1.75443e-17)
(4.27232e-05 0.000435868 -3.81791e-19)
(0.00396494 0.00793731 -5.67445e-18)
(0.000273302 -0.00566689 6.92235e-18)
(0.00182021 -0.00770882 5.99081e-18)
(-0.00014936 0.00062051 1.72072e-18)
(0.00590699 -0.0116969 -3.92251e-18)
(0.001151 -0.00100366 -8.36073e-18)
(-0.0121436 -0.0020395 -9.78247e-17)
(0.00628283 0.00215006 6.36855e-18)
(0.00202389 0.0048085 2.99251e-19)
(0.00326781 -0.00183163 5.03299e-18)
(-0.000737671 3.90169e-05 -7.95505e-20)
(7.91617e-05 -0.000595301 6.85809e-19)
(0.000535816 -0.00019637 -5.20593e-19)
(0.00177256 0.00554311 1.94539e-19)
(0.000314962 0.0030619 -5.74977e-17)
(0.0180276 -0.00573239 -7.53029e-18)
(0.00184013 0.00687989 -8.84776e-18)
(0.00240625 -0.00586274 1.3951e-19)
(-0.000623687 5.65483e-05 3.19702e-19)
(0.00876755 -0.0110052 1.9895e-17)
(0.00143824 0.00719599 2.31681e-17)
(0.00017907 -0.00119123 1.90869e-17)
(-0.000164767 -0.00117837 1.18363e-18)
(0.000313825 0.00293516 2.42216e-18)
(-0.000324714 0.000254814 1.1978e-19)
(0.00121459 -0.00316204 -5.15998e-18)
(0.00199844 -0.00100736 1.8832e-17)
(-0.0406397 -0.0127332 4.46897e-18)
(-7.21181e-05 0.000168868 2.10495e-18)
(0.00792896 0.0111127 4.22791e-17)
(0.00148037 -0.00313136 -1.79082e-18)
(-0.000253745 -0.00410781 -6.7053e-19)
(0.0080015 0.00215014 -2.10908e-17)
(-0.0355705 -0.00750054 -1.49144e-17)
(0.00226863 0.00481428 3.09277e-18)
(0.000384037 0.000990263 2.44035e-18)
(0.000446698 -0.00534986 -1.00997e-17)
(-0.0505459 0.00206457 -5.26994e-18)
(0.000234816 0.00080296 -3.2127e-18)
(0.00137959 -0.00230649 6.63857e-18)
(-0.00453433 -0.0174338 -2.27538e-17)
(0.0142055 0.00157493 1.04358e-17)
(0.00225158 -0.00973301 1.47682e-17)
(-0.000214417 1.50767e-05 1.2384e-18)
(0.00078904 -2.98368e-05 -2.44431e-18)
(0.00545418 0.00677672 -4.1076e-17)
(0.00152683 -0.00258614 -1.69912e-17)
(0.00474441 -0.00669919 1.05599e-17)
(0.00100046 -0.00489767 3.25768e-19)
(0.000361778 -0.000622838 5.83251e-19)
(0.00128761 -0.00507631 -1.18617e-17)
(-0.00663294 0.00519665 -1.33654e-17)
(0.000348094 -0.00122345 -8.51763e-19)
(0.00120197 -0.00217319 -9.28606e-19)
(-0.000643152 8.7818e-05 1.70798e-18)
(-0.00288829 -0.000139067 -1.72192e-18)
(3.33317e-05 0.000109457 2.26858e-18)
(0.000869446 0.00212463 4.0381e-18)
(-0.0269707 0.00587723 7.34012e-17)
(0.000687314 0.00170981 1.65228e-18)
(2.80544e-05 -0.0303613 -1.05214e-17)
(0.00227159 -0.000307293 -8.06462e-18)
(0.000771837 0.00377578 -3.3374e-17)
(-0.000624711 8.82135e-05 -1.12659e-18)
(0.00220618 0.00384154 2.34874e-18)
(-0.000235635 0.000687657 -8.87573e-19)
(0.00715127 -0.00186298 -4.2529e-18)
(-0.000771361 2.62202e-05 -6.72784e-19)
(0.00344179 0.00484253 -5.40632e-18)
(0.00167042 -0.00171883 7.30489e-22)
(-0.0275892 -0.0120292 1.91232e-17)
(0.00230953 0.00798396 -3.98325e-18)
(-0.0279944 -0.0175327 1.59435e-17)
(-0.000888356 5.90049e-07 -5.71516e-20)
(-9.45267e-05 0.000204036 -2.9692e-18)
(0.00756484 0.000805272 -1.1526e-18)
(0.00525816 0.000732669 -3.40673e-18)
(0.00459141 -0.000180371 -6.99938e-18)
(-0.00982152 -0.0254504 -1.55531e-17)
(0.00487147 -0.00478259 7.02531e-18)
(-0.00021948 0.00111935 -2.59618e-19)
(0.0165997 -0.0111677 2.09338e-17)
(0.00181158 0.00724173 1.16633e-17)
(0.00192078 -0.00744938 -4.58738e-18)
(0.0155798 -0.00530222 1.83441e-17)
(0.00446109 -0.00512461 9.55139e-19)
(-0.00897414 -0.00664504 -8.13899e-18)
(0.00343089 0.00168893 1.93842e-17)
(0.00110677 -0.00361389 -1.3785e-19)
(0.0110957 -0.00841908 -6.58229e-19)
(0.00152694 0.00605067 8.38432e-19)
(0.0053978 -0.00458399 -6.14333e-18)
(0.00192391 0.0072289 2.44757e-17)
(0.00559992 -0.00421183 -5.07957e-18)
(0.00120466 -0.00225101 -1.16122e-18)
(0.00126873 -0.00614378 -6.25001e-18)
(0.00134147 0.00213597 1.42662e-18)
(0.000344239 -0.000861648 3.82459e-18)
(0.00177063 -0.00314321 2.45333e-18)
(0.0044006 0.00113635 4.63856e-18)
(0.00209352 0.00117559 -2.51421e-18)
(-0.00024361 0.000744035 7.41892e-18)
(-0.000776402 1.07933e-05 -8.14347e-20)
(0.00219704 -0.00593973 4.41789e-18)
(0.00141903 -0.00176193 4.36503e-18)
(0.0056269 -0.00680505 -7.73497e-18)
(-0.000132432 0.00107932 -1.35394e-19)
(-0.000179899 0.000870363 -7.50644e-19)
(2.52832e-05 9.39148e-05 1.19205e-18)
(0.0011017 0.000990033 1.40919e-18)
(4.50569e-06 -0.000467059 2.42313e-18)
(0.00178198 0.000856277 -7.96374e-18)
(-0.000646099 9.71872e-05 -1.45734e-18)
(-0.0392716 -0.00235181 2.37888e-17)
(0.000406515 -0.00455588 -4.83164e-18)
(-0.000798583 0.00653543 5.7533e-17)
(-0.000525531 1.09095e-05 7.13419e-20)
(-6.01634e-05 9.46359e-05 -1.77163e-19)
(0.000983304 0.00432949 -1.4675e-17)
(0.00736742 -0.00269827 -1.54041e-17)
(0.00017039 0.00195194 3.38127e-18)
(-0.0242558 0.000886995 -2.12942e-17)
(0.00541695 0.00377617 -6.64061e-18)
(-0.0353044 0.00642857 -2.62745e-17)
(0.0017206 -0.00316398 2.71294e-18)
(0.00725143 -0.0101328 -3.31606e-17)
(0.000914169 -0.00122457 5.22013e-18)
(1.2819e-05 8.63723e-05 -2.78588e-18)
(-0.000734847 6.22845e-05 8.59471e-19)
(0.00112937 0.000570757 1.32127e-18)
(-0.0118599 0.00350868 -2.12523e-17)
(-3.14611e-05 8.27209e-05 -8.90631e-19)
(0.0043964 -0.0227017 -1.70164e-17)
(0.00171106 0.000874583 -5.16308e-18)
(-0.00168947 0.000625899 1.93051e-18)
(0.00179613 0.00415221 -3.52463e-19)
(0.00584805 0.00380288 -1.04404e-17)
(-0.00054062 -0.00415367 -1.79643e-18)
(-0.000139374 -0.000277075 -1.14589e-20)
(2.61131e-05 2.60335e-06 -1.23743e-18)
(8.81915e-05 -0.00459769 8.51013e-18)
(8.70898e-05 0.0012798 -8.97657e-18)
(0.000342777 0.00144793 -7.27855e-19)
(0.0149772 -0.00660034 2.03928e-17)
(0.000769179 0.00113396 1.19105e-18)
(-5.28819e-05 0.000280336 1.9576e-19)
(0.00272765 -0.00102025 7.66279e-18)
(-0.000421674 0.000223454 -2.13289e-18)
(-0.000510422 -4.65989e-05 -1.47842e-19)
(0.00230139 0.000941565 3.4384e-18)