/*--------------------------------*- C++ -*----------------------------------*\
| =========                 |                                                 |
| \\      /  F ield         | OpenFOAM: The Open Source CFD Toolbox           |
|  \\    /   O peration     | Version:  v2012                                 |
|   \\  /    A nd           | Website:  www.openfoam.com                      |
|    \\/     M anipulation  |                                                 |
\*---------------------------------------------------------------------------*/
FoamFile
{
    version     2.0;
    format      ascii;
    class       surfaceScalarField;
    location    "100";
    object      meshPhiCN_0;
}
// * * * * * * * * * * * * * * * * * * * * * * * * * * * * * * * * * * * * * //

dimensions      [0 3 -1 0 0 0 0];
oriented        oriented;


internalField   nonuniform List<scalar> 
20673
(
-0.00164551
-0.000442475
0.00206537
0.00196144
0.00117765
-0.00317725
0.000481649
-0.000309302
-0.000174108
0.00154899
-0.000367639
-0.00115533
0.00438246
-0.00463507
0.000230251
0.00124303
-0.00130748
6.46874e-05
0.000497967
-9.30224e-06
-0.000486907
-0.000239625
0.000296275
-5.66613e-05
0.000160614
-0.000166326
6.06084e-06
0.00148478
1.27553e-05
-0.00150477
-0.000644759
0.000194402
0.000452388
-0.000664788
0.00101655
-0.000346716
0.000780343
0.000230192
-0.000187029
-4.28608e-05
0.00258852
-0.00386237
0.00125815
-0.00104902
-0.00230729
0.0033326
-0.00417212
0.00177486
0.00235963
0.000961353
-0.000375897
-0.000587899
0.000514119
-0.00117433
-0.00206555
0.00237324
-0.000374505
-0.000755666
7.62511e-05
0.000677602
0.000105306
0.00039305
-0.000186679
-0.00274506
0.00287739
1.94194e-05
-0.000258411
0.00454956
-0.00454611
-4.48507e-05
-0.000608045
0.000491097
0.000117391
0.000939694
0.00134384
-0.00228227
-0.000525323
0.00167146
-0.00114364
-0.000882691
0.00146159
-0.000579516
-0.000394643
0.0012318
-0.000840041
-0.000549826
-0.00130801
0.00185522
-0.00097631
-0.0014617
0.0024192
0.00204309
0.000576509
-0.00261927
0.000850677
-0.00334096
0.00249078
-0.00215403
-0.00246941
0.00459907
-0.000118166
-0.000340775
0.000458908
-0.0027481
0.00250694
-0.000225439
6.48323e-05
0.000160567
-0.00147439
0.00138805
-0.000631624
0.000553211
7.90884e-05
-0.000363384
-0.00018751
0.000358943
7.40041e-06
-0.000245354
0.000246179
-0.000178141
-0.000544121
0.000691916
-0.00203415
0.00174018
0.000296535
0.00147778
-0.00261704
0.00110547
0.00342469
-0.0031416
-0.000283062
0.000178974
0.000776525
-0.000291502
-7.43412e-05
0.000368719
-0.00105689
0.000963269
9.30834e-05
-2.96431e-05
0.000418332
-0.000532159
0.000890838
-0.0006894
-0.0002054
0.00295013
-0.00452368
0.00156926
-0.00117743
0.000120135
0.00317423
-0.00232282
-0.00284945
-0.00135863
0.00131314
7.5884e-05
-0.0014013
-0.00011785
-0.000524945
-0.00394853
-0.00140722
0.00531437
0.00230175
-0.00143663
-0.000891677
-0.000935567
0.00237038
0.000776691
-0.000875623
9.95337e-05
0.00396807
-0.00205126
7.00039e-05
-0.00260278
0.000472984
0.00143317
-0.000190061
0.000130335
0.00093396
-0.00106525
-0.000283672
0.00444503
0.0043686
0.000452278
-0.000223564
0.000209286
1.5955e-05
0.00145653
0.000733006
-0.00220349
-7.08432e-05
0.00443505
5.89817e-06
0.000155105
-0.00013096
0.000201555
-7.02546e-05
0.00499974
-0.000490906
-0.00096511
-1.84387e-05
0.000983012
0.00144636
-0.000503144
-0.000929503
-0.000129364
6.59354e-06
0.000122781
0.00219856
-0.00144653
-0.000771718
0.000691899
4.61952e-05
-0.000736389
-0.000140136
-0.00146496
0.00160197
-0.00209577
0.000585578
0.00148086
0.00369446
-0.00125911
0.00133888
-7.85174e-05
-2.30395e-05
-0.000202322
0.000827668
-0.000918246
9.01417e-05
0.00101373
0.00116573
-0.00201936
0.00209479
-0.000120157
-0.000720842
0.000850362
0.000721362
0.000178608
0.000401434
-0.00059849
9.90597e-06
-0.000122874
0.000113847
-0.000273031
0.00171668
-0.00144831
-0.00371275
0.00172545
0.00193171
0.0013726
-0.00394729
0.0025581
0.00031863
-0.0010402
0.00106393
0.000311356
-0.00137455
-5.09655e-05
-0.000230426
0.000285344
0.000440185
-0.000366146
-7.12544e-05
-0.00116156
0.000889278
0.00027569
-0.0010041
-0.00102421
0.00203193
0.00111779
0.000906706
-0.00212971
-0.00159867
0.00288813
-0.00128754
-0.00137387
-0.000657787
9.1045e-05
-0.00108047
0.000979343
-0.00223638
0.00275143
-0.000585241
0.000107477
-0.000225859
0.000119237
0.00152223
-0.00155913
3.56311e-05
3.14607e-05
-0.000322984
0.00430832
-0.00257533
0.00133189
0.000461195
-0.00180922
0.000425266
-0.000509689
8.4752e-05
-0.000747237
0.000116182
-0.00109778
0.000297737
0.000806696
0.000212594
-0.000104464
-0.00083677
0.00338019
-0.00254275
-0.00114436
0.000757678
0.000386638
0.00298893
0.00134979
-0.00439278
-6.48928e-05
-0.00101206
0.00107754
0.000200539
0.000188512
-0.000389124
-0.00338156
0.00080726
0.00257459
0.000693098
-0.000676523
-0.000203035
-1.59699e-05
0.00033314
-0.000109836
-0.000223006
-0.00218867
0.00166513
0.000202657
-0.000545735
0.000203188
-0.00271
0.00406316
0.00267711
-0.0016498
-0.0010615
-0.000249871
0.000289068
-0.000860107
0.000145137
0.000641978
-0.000243221
-0.000257612
-5.74777e-05
0.000315295
-0.00399412
0.00315813
-0.00192353
-0.000725324
-0.000725146
-2.71369e-05
-0.000282676
0.000529818
-0.000246132
-0.000256039
0.00027655
-0.00205541
0.000391754
0.000530202
-0.00153292
0.00447987
-2.39767e-05
-0.00265718
-0.00072359
0.000178978
0.000340277
-0.000519528
0.00120733
-0.00251856
0.00126221
0.00427049
0.000317155
-0.00459737
-0.000156554
-0.00143996
0.0016003
0.00427458
0.000101061
0.000206142
-7.45534e-05
-0.0001306
-0.000796712
0.00149097
-0.000696077
0.0048005
-0.00185396
0.00112201
-0.00222089
0.00105207
0.0019048
0.000599803
-0.00252608
0.000172252
0.000158438
-0.000329322
-0.000527656
-0.000616779
-0.000632167
1.96492e-05
0.000617066
-0.00253582
0.00226088
0.000264159
-0.000427301
-0.00173164
0.00213511
0.00127286
-0.000414326
-0.000858621
-0.00118203
0.00262167
0.000280228
-0.000256793
-2.29778e-05
-2.09307e-05
-0.000108647
0.000236799
-0.0005184
0.00296037
0.000616369
-0.00358302
-0.00178135
0.0026244
-0.000842854
-0.00142795
0.00170523
-0.000277088
0.000268132
-0.000317229
-6.70435e-05
-0.00102262
-0.000957439
-0.000200624
-0.0010204
0.00110243
-0.000264902
0.000352703
-8.45365e-05
0.00295879
-0.00197395
-0.00102911
-0.00270322
0.00110383
-0.000835833
-0.00148919
0.00231026
-4.21576e-05
-0.000383486
0.000425865
-0.000479034
0.0010748
-0.000588997
0.0041193
-0.0019747
-0.00217767
0.000180029
-0.000144369
-3.51952e-05
0.00217384
-0.00214065
-4.24415e-05
0.000153494
-0.000411533
-0.00102069
0.000955507
0.000171322
3.55772e-05
0.00338956
0.000269096
-0.00371424
-0.00144523
0.00116801
-0.00202439
0.00146655
-0.00111437
0.00227261
-0.0025059
0.000441863
0.000451239
-0.00275925
0.00230025
-0.000241339
-0.000366495
0.000960224
-0.000162692
-0.000798605
0.000331156
0.000940113
0.0010117
4.25103e-05
-0.00105078
-0.000802036
0.000162639
0.00064308
-0.000427948
0.000403628
3.99915e-05
0.000797196
3.05515e-05
-9.88043e-05
0.00101312
-0.000915862
-0.000569415
0.00359576
-0.00308555
-0.00170448
0.00167363
3.22125e-05
-0.00124579
0.00218642
-4.7873e-05
-0.000159774
-0.00228799
-0.00147458
-0.00137381
-5.4211e-05
0.00142568
3.74382e-05
0.000844693
-0.000883378
-4.55759e-05
0.000449273
-0.000386007
-0.000405442
0.000265706
0.000334052
2.54436e-05
-0.000349371
0.000343393
-0.000170768
6.84288e-05
-0.000199363
-0.000359917
0.000114174
0.000247144
0.00220989
-0.00438648
-0.00452028
0.00053364
0.000363969
8.1921e-05
0.000602739
-0.000225999
-0.000376198
-0.000612138
0.00487113
0.000410898
3.98519e-05
-0.000449471
-0.000218318
0.000148254
7.00623e-05
-0.000904649
0.000107161
0.000573214
-0.0028761
-0.00111869
0.00154556
-0.000422704
0.000461854
-0.000316841
-0.000146709
-0.00045507
0.000337798
0.000117436
-0.000440897
0.00324863
-0.00285043
0.000828686
-5.16834e-05
-0.00135091
0.00467597
-0.00101172
0.000785461
0.000224834
-0.000685927
0.000165638
-0.00019428
6.4611e-05
0.000129792
0.000118133
-0.000240288
0.000122797
-0.00328525
0.00221543
-0.00054212
-0.00102347
0.00156244
-0.00193885
0.0014932
-0.00267813
0.00317188
-0.000434854
0.000316934
0.000625451
-0.00109868
0.00102781
-1.66684e-05
-0.000269369
0.000401692
-0.000132824
-0.000116755
-0.000101555
-0.000748648
-0.000540358
0.00116097
0.00125459
-0.00224611
-0.000131116
0.000142207
0.000802812
-0.000765744
-3.75297e-05
-0.00154876
9.71773e-05
0.00156504
0.00160694
-0.00325334
-1.58386e-05
-0.000614198
-0.000289039
8.0046e-05
0.000211662
9.80102e-05
-7.40259e-06
-0.000101656
0.000353677
0.000357018
-0.000709111
-0.000629974
2.353e-05
0.000606977
0.000360635
-0.00214302
0.0011907
-0.00198313
0.000787232
0.000243374
0.00144383
-0.000984329
0.00260582
-0.0016331
-5.7688e-05
0.000158426
-0.000100504
-0.000283592
0.000641045
-0.000358065
-0.00134724
-5.06672e-06
0.00134786
-0.00178479
0.00163421
0.000153185
0.00173364
0.000907949
0.00329848
-0.00474184
-0.000703829
0.000172987
0.000539696
-0.000779106
0.000571735
0.000207405
-4.48022e-05
-0.000581106
0.00229697
-0.00185209
0.00323194
-0.000659378
-0.00018218
0.000194274
-1.78346e-05
0.000132664
0.000200389
-0.000451041
0.000454165
-1.96624e-06
-0.000716253
-6.26836e-06
0.000723195
0.000188889
-0.00293342
-0.000163712
0.000249546
-6.92573e-05
-0.000213692
6.5999e-05
0.000148209
6.86282e-05
0.000211967
0.000122494
0.000569893
0.000331143
0.00112705
-0.00186919
0.000517181
-0.000113712
-0.00059443
-0.000705509
0.000631898
7.5153e-05
-7.79447e-05
0.000148938
-7.08409e-05
0.000405607
-0.000237031
-0.00016719
0.00113975
0.0011383
-0.000127652
-0.000231077
0.000556162
-0.00146319
0.000470322
-0.0005268
-1.46364e-05
0.000200769
0.000349467
-0.00055061
-0.00201546
0.00227072
-0.000319179
0.000156382
2.38868e-05
-0.000404677
0.000394493
7.20863e-05
3.22283e-06
0.00372752
-0.00169212
-0.00205519
-0.00166346
-0.00088367
0.00138949
0.00123454
0.000536274
-0.000182141
0.00306183
-0.000863952
-0.00221268
0.000723527
-0.000907715
0.000170266
0.00057606
1.84198e-05
-0.000592984
-0.000365746
9.56655e-05
-0.000100897
-0.000351443
-0.00361141
0.00312242
0.000257328
-0.000192562
-6.34629e-05
-0.00297182
0.00342789
-0.00044691
0.000936729
-0.000228202
-0.00183129
0.00476454
0.000433972
-0.00123187
-0.000777918
0.000372559
0.000284649
-0.000823162
-0.000189929
-0.00111246
0.00229517
0.00153997
0.00137266
1.53908e-05
0.000327287
-0.00260575
0.0034735
-0.000901176
1.00352e-05
-0.000574691
0.000564601
0.00184545
0.000319009
0.0011628
0.000548183
0.00170282
-0.00204222
0.000309154
0.00482949
-0.00156787
0.000525922
-0.000147207
-0.000377956
0.000202659
7.96063e-05
-0.000282149
-0.00271343
0.00401725
0.000400181
3.54626e-05
-0.000602159
-0.000466689
0.000667885
0.00260133
-0.0044894
0.00182874
0.00012241
7.96566e-05
0.00244501
-0.000781295
-0.000130656
-6.34211e-05
-0.000987944
-8.3676e-05
0.00109293
-0.000210102
0.001373
-0.00116631
0.000478822
-2.89618e-05
-0.000446287
0.000911422
-0.000971366
5.9641e-05
0.00420897
-0.00125524
0.000680424
-0.000443636
-0.000312962
-0.000872699
0.00118935
0.00123518
0.00247218
-0.000255804
-3.11656e-05
0.00122007
0.000106872
-0.00132986
0.00452411
-0.00240431
-0.00215062
-0.000340428
0.000136069
0.000204588
-0.00055221
-0.00115143
-0.000111131
-0.000102172
-0.0016822
-0.00187521
0.00355667
-0.000476478
0.000452336
2.43811e-05
0.0014064
-0.00228099
0.000858405
-0.000633932
2.21396e-05
0.000612766
-0.00157384
0.00126571
0.00230145
-0.00108776
-0.00121756
0.000737451
0.00155854
0.000253376
0.000228794
-0.000242386
-0.00170864
0.0019415
0.00150887
-0.00235766
0.000466868
-4.07951e-05
0.00437745
-0.000645853
-0.0037518
-0.00183231
0.00371563
-0.00190992
-0.000208152
2.17454e-05
-0.00158897
0.000212146
0.00308061
-0.00468075
0.00155747
-0.000338535
-9.28502e-05
-0.00124796
0.000365733
-0.000108083
-0.00184643
0.00182835
-0.000196791
0.00039694
-0.000301812
0.000474946
-0.000171815
-0.00237347
0.000290593
0.00160908
0.00195675
-0.00364279
-0.0029953
4.69802e-05
-0.00102888
0.00210489
0.000570437
7.86461e-06
-0.000165462
0.000167625
-1.48171e-06
0.00118816
-0.00150051
0.000309897
2.08448e-05
0.00050601
0.00316777
-0.00510134
0.00188982
-0.00132611
-2.27649e-05
0.000572804
0.0002391
-0.000811854
0.000346109
-0.000353976
1.54693e-05
0.000403031
-0.000151808
7.39866e-05
-0.000106934
0.00221574
-0.00127418
-0.00103124
9.32606e-05
-0.000808092
0.00327726
-0.00102972
-0.00231673
0.000846182
-1.67314e-05
-0.00240519
0.00142749
0.000941616
-3.0484e-05
-0.0006915
6.15333e-05
0.00112257
-0.00064537
-0.000455363
-0.00144673
-0.000572711
0.00200357
0.000460119
-9.65726e-05
-0.00118001
-0.000267634
0.000642616
-0.00017957
-0.000466207
9.79544e-05
-0.000819667
0.000724562
-0.000147436
-0.000485581
-0.000163324
-0.00029154
-0.00240341
0.00141006
0.00171146
-0.000233368
0.00249976
-0.00100514
0.000354989
0.000447613
0.000216353
-0.000515143
0.000298923
-0.0056705
0.00250872
0.00311815
0.000580936
0.000100428
-0.00498531
0.000856289
0.00409474
-0.000353674
0.000444815
-9.03813e-05
-0.000977183
9.32224e-06
0.00149642
-0.0017498
-0.00149252
0.00256057
-0.00109
0.00035734
-0.000761002
0.000403842
-0.0028691
0.0013515
-0.000498836
-0.000279825
0.000774312
-0.0010546
0.000279657
-0.000246037
-0.00014417
0.000391317
0.00162218
-0.00128031
-0.000337183
0.00249634
0.00199763
0.000173337
-0.00128906
0.000753604
-0.000500067
0.00338783
-0.00295976
-6.91164e-05
-0.000317032
0.00466938
0.00483978
-0.000614752
-0.00424861
-0.000999466
0.00060241
-0.000247689
4.70078e-05
0.00374077
0.00150248
-0.00527889
0.000305552
0.00291854
0.000631429
-5.81799e-05
-0.00116784
0.00102574
6.0411e-05
-0.000536477
-0.000849429
0.000608955
0.000240666
-0.00107181
0.000866742
0.000205124
-0.000961495
0.0008614
-0.00068566
0.000385293
0.000300447
-0.000388358
0.000276332
0.000114337
0.000342853
7.4956e-06
-0.00130456
0.00442748
-0.000210057
0.000629559
-0.000416965
-0.000558038
-0.000896019
0.00158204
0.000688234
-0.00228658
-0.0033851
0.00276472
6.55494e-06
0.000298347
0.000305117
-0.000548225
-0.000300434
0.00135065
0.00197105
-0.00333909
0.000561188
-0.000410342
-0.000149814
0.00244381
-0.00412802
-7.34048e-06
0.00142484
0.000586763
5.60468e-05
0.00372119
-0.000544186
-0.00320657
-0.000837165
0.000163971
0.000674878
0.00277199
0.00149629
-0.000457745
-0.000414154
0.000209353
-8.61915e-05
-0.000215383
0.000368476
0.000164197
-0.000380328
-0.00123996
0.00143587
-0.000201627
-0.000279622
-0.000792198
-8.26256e-05
-0.000257611
0.000315036
-6.53879e-06
-0.000309667
-9.70067e-05
-3.52196e-05
0.00013221
0.000832566
-0.000495662
-0.00041715
-0.000529847
0.000468167
6.40444e-05
0.000255962
0.00343601
0.00144379
0.00315071
-0.00462531
-0.000159474
-0.000256838
0.000417699
-0.000529819
0.000136284
-7.99493e-05
-2.81167e-05
0.0011424
-0.000992701
-0.000153004
-0.000231105
-0.000179873
0.000405525
-0.000149027
5.31498e-05
9.58134e-05
0.00236069
-0.00291706
0.000263604
-2.59722e-05
-0.000234035
0.000989648
-0.000964959
-2.54293e-05
0.00113853
-0.00128613
0.000145241
0.000460314
-0.000307825
-0.000152289
-0.00109346
-0.00303765
-0.00267382
0.000112775
-0.000336298
0.00100457
-0.0022001
0.000718744
0.00139804
0.000301374
-0.000661351
0.000360159
-7.08075e-05
0.00125679
0.00117537
0.00187084
0.000862999
-0.000118507
-0.000744166
0.00161016
-0.000309983
-2.58297e-05
0.00029553
-1.65374e-05
0.000330956
0.000684611
0.000805564
-0.000714397
0.000471176
0.000445918
-0.000266807
0.000207405
6.21291e-05
-0.000776476
-0.000584644
0.0013613
0.000635877
-0.000350245
-0.000283945
-0.000727432
0.000140883
0.000599432
-0.000368277
-0.000336329
0.000707024
0.000174005
0.000226322
-0.000945583
0.000731061
0.000283311
-9.55014e-05
-0.000185615
-0.00037309
-5.45743e-05
0.000286248
0.000381855
-0.00046449
8.28915e-05
-0.000117907
0.000849507
-0.000727868
-0.000725287
0.000291434
0.00042481
-0.00147645
0.0024641
-0.000425281
0.00196291
-0.00155865
-6.30224e-05
-8.60293e-05
0.000169826
4.33553e-05
0.00402164
-0.00147741
3.16117e-05
0.000363523
0.000248662
-0.000573902
0.000325268
-0.000143568
-0.000243574
1.35724e-05
0.000155281
0.000145262
0.000315172
-0.000530454
0.000511246
2.81542e-05
8.14643e-05
-0.00104457
0.000957898
-0.00473552
0.00251771
0.00215352
-0.000159993
0.00022887
-7.26064e-05
0.000166642
-0.000204494
3.85654e-05
0.00269892
-0.000816346
6.17235e-05
0.00201908
-0.00210704
-0.000286958
-0.000398628
3.82703e-05
0.000918888
0.000558335
0.000208751
-0.000766901
-0.000225606
-2.61396e-05
0.000126622
6.4484e-05
-0.000190961
-0.00101062
-0.000124507
0.000679037
-0.000554598
-0.000313781
-0.000424876
-0.000664406
-0.00025392
1.10137e-05
0.000311002
-0.0003232
-0.000252227
0.000344604
-8.52927e-05
0.00329593
-0.00175859
0.00246568
0.00133841
-0.00383383
-0.00105989
-0.000491931
0.000139135
9.42333e-05
8.6873e-05
-0.00174595
0.00361949
-0.00016993
-0.000893955
0.000949437
0.00084331
-0.00112768
-0.000229011
6.99063e-05
0.00023621
-0.000394451
9.40969e-05
-0.000617777
-0.000412124
0.00102918
6.11683e-05
0.000293305
0.00180392
-0.000768991
0.000481306
8.15046e-05
-0.00019623
0.000313491
-0.000114764
-0.000556397
-0.000864906
0.0014163
-0.00246369
0.000459697
0.000840435
0.003963
-0.00399459
0.00415604
-0.000154772
-0.000590604
0.000766021
3.1251e-05
-0.00165746
0.00201877
-0.000398929
0.00387919
-0.00399961
0.000114523
-0.000742721
-0.000684446
-2.97555e-05
0.000371584
0.000108812
-0.00555399
0.00247566
-0.0033092
0.00135386
0.00192805
0.00256553
-0.000167461
-0.00242104
8.77909e-05
0.000198725
0.00138267
-0.000166026
-0.000781858
0.000351505
-0.000558227
-0.000287558
-0.000101708
0.000386353
-0.000244551
0.00035986
0.00153175
-0.000373955
0.00136456
0.00267633
-0.00408571
-0.00017244
0.000114976
-0.000155518
0.00129553
-0.00315094
0.000372167
0.000106257
-0.000489501
-6.04243e-05
0.000442916
0.00212251
-0.00160893
-0.00052034
0.000651075
-0.000270194
-0.000501535
0.00112425
1.17085e-05
0.00102251
-0.000235643
-0.000789394
0.000525804
-0.000944164
0.000418229
6.90673e-05
-0.000359172
0.00314712
-0.00104301
-0.00210773
0.000175545
-0.000401187
0.00138749
-0.00284892
0.000250403
-0.000351698
0.000911397
-0.000284462
-8.99641e-07
0.000285397
0.0041088
-0.00138099
-0.00151757
0.000212834
0.0012924
0.000447374
-0.000859478
-8.24559e-05
-6.93186e-05
-1.85224e-05
0.000200047
8.81957e-05
-0.000446816
-0.0014058
0.000162213
-0.00363723
0.00130867
-0.000936425
-0.00136974
0.00229176
-0.00365438
-0.00193248
-0.0021615
0.00206957
8.89525e-05
-0.00152855
0.00437754
0.000186013
0.000279288
-0.00125223
3.00401e-05
-0.000314867
0.000806697
-0.000248071
-0.00343595
0.00136194
0.00204383
-0.000324428
0.000301067
0.00018478
-1.87917e-05
0.00349514
-0.00217128
-0.00134305
-0.00201736
0.00510682
-0.00309766
-0.00114872
0.000404339
0.000745088
5.87572e-05
-0.000264879
0.000208073
-0.000169816
0.000145085
2.52319e-05
0.000961742
-0.00106159
9.82599e-05
-0.000219528
-0.000707845
0.000136191
-0.000333298
-0.00154762
0.000142755
0.00035174
0.00174523
1.1009e-05
-0.00177069
0.000194147
-0.000323924
0.00013194
-0.00096025
0.00300444
0.00116927
5.92761e-05
0.000533448
-0.000707501
0.000174984
0.00018834
0.000447921
0.000720811
-3.11092e-05
-0.000676345
0.000404624
-0.000154537
0.000754101
0.000988119
-0.00175269
-0.000128863
3.17385e-05
-0.00139958
-0.000159028
-0.00213251
0.000444092
0.000102545
0.000156703
0.000222021
-0.000161245
0.00131825
-0.00141627
0.000101188
0.00164523
-0.00090141
0.00265125
0.00143008
1.32768e-05
0.00385903
0.00133056
-0.000758897
-2.38707e-06
-0.00024081
-0.000712455
0.00129259
-0.00224564
-0.000155452
-0.000555178
0.000146015
-0.00312572
-0.00165856
0.000531526
-0.00107571
0.000884695
-0.00112106
-0.000876995
-0.000181482
0.00106068
-0.00482629
0.00232451
0.00244841
-0.000499072
0.000325063
0.000173028
-0.0018921
-0.000109429
0.000883212
-0.00150081
0.0015061
0.000395508
0.00171921
-0.000478793
-0.00104488
-0.00144659
0.000238771
0.00107762
-0.000390408
0.00109968
-0.000731339
-0.00272188
0.0010388
-0.00207154
0.00163217
0.000433625
0.000636916
0.0027877
0.000712182
3.71475e-05
-0.000749276
-0.000724029
0.000822011
-0.000359707
9.71248e-05
0.0016109
-0.00183734
0.000630864
-0.000392454
-0.000237632
0.000220701
0.00110042
-0.000358031
-0.000104777
0.000463988
0.000308478
-0.000627857
0.00199323
0.00108099
-0.00307632
-0.00361332
0.00178836
-0.0011777
0.000736016
0.000450251
-0.00187309
0.000418874
-0.000271674
0.00028114
-0.00162449
0.000146971
-0.000987279
0.000881142
-0.000753387
-0.000116901
-0.000293563
0.000489925
7.33112e-05
0.00121006
-0.00128729
-0.000211015
0.000136415
7.41287e-05
0.00162897
-0.00191235
0.000275653
0.00416552
-0.0017341
-8.40176e-05
0.000135814
-5.18293e-05
-0.000199988
0.000149364
0.0014984
0.0027691
-0.00430853
0.000505858
-0.000124566
0.000162972
-0.000213684
5.27498e-05
0.000943472
1.69857e-05
0.000202943
0.000204079
-0.000270464
0.000214181
1.90292e-05
-0.00203662
0.0020718
2.15589e-05
0.0013476
0.000557479
0.000583562
-0.000790434
0.000607115
-0.000592179
-0.000104097
0.000579546
-0.000970508
-0.000102565
0.000397448
-0.000291216
9.12842e-05
0.000627587
-0.000289161
-0.000341281
-0.0012833
0.00107794
0.000236097
-0.000130599
-0.001082
0.00109193
-0.000120337
0.000323034
-0.000845715
0.000125081
-0.00214965
0.00348167
0.000409541
-0.000451473
0.00363695
-0.00143611
-0.00222289
1.08105e-05
0.000213703
-0.00245777
0.000701376
-0.00158773
0.00216541
-0.00113085
-0.000964248
0.00225747
-0.00130445
-0.00432552
0.00244606
-0.000538435
0.00140406
-0.000869357
-0.000964274
-4.73176e-05
0.000852765
-0.00054987
-0.00125309
0.00179618
-0.000525611
1.23991e-05
-1.30816e-05
0.0010017
0.00109727
-0.000654145
-0.000441117
-0.000265065
7.00322e-05
6.06367e-05
-0.000428489
-0.00229683
0.00110308
0.000422782
0.000802621
0.000821821
-0.00163393
0.000218835
-0.00018766
-3.09269e-05
0.000225169
-5.60697e-05
-0.000168702
0.000359115
-0.000737365
0.00346161
-0.00521368
0.00171873
7.31355e-05
0.00055885
-0.00127983
-0.000130513
-7.75862e-05
-0.000797378
0.000757753
-4.86988e-05
0.000575882
-0.000545222
-2.57171e-05
0.000391904
-0.000739666
0.000347456
-1.37669e-05
0.00179404
-0.0017937
-0.000617505
-0.000829142
0.000660253
-0.000111131
-0.000548379
-0.00143412
0.00137778
-0.000488488
0.000849419
0.000879976
0.00042547
-0.00130318
-0.000349516
-0.000626496
0.0009769
-0.000216911
-0.000560524
0.000792593
0.000350801
-0.000150631
0.00293775
-0.00171889
-0.000736799
0.000203319
0.00053041
-0.000248098
-0.000911294
0.00182275
-0.000504035
-0.00195143
0.00252983
0.00290552
-0.00484148
0.00188722
0.000314746
0.000208762
0.000192134
-0.000403311
-0.000768126
0.000608143
0.000159416
-0.000326325
-0.000464089
0.00455269
-0.00111456
0.00421656
-0.000314474
-0.00393163
-0.000815793
-2.65951e-05
0.00047543
0.002955
-0.00345397
9.49891e-05
0.000327545
-0.000418822
-0.00271355
0.00208423
0.000604878
-2.98944e-06
0.0010921
-0.001198
-3.50783e-06
-0.000160645
0.000545015
0.000684513
-0.00122115
-0.000204873
0.00138476
-0.0020553
-2.48452e-05
0.00196701
0.000792529
-0.000922838
0.00012077
0.00232863
-0.000134444
-0.00219382
0.0003178
-0.00109731
0.00133045
0.00268036
-0.00400927
0.000693539
-0.000536274
-0.000158106
-0.000194206
0.00154535
-0.00135752
-3.7936e-07
0.000846871
0.000645403
0.000544964
-0.000160364
-0.000382605
-0.00130002
0.000719959
0.000569074
0.000360632
-0.000739906
0.000382018
-0.000350408
0.00106254
-8.43434e-05
-0.00254723
0.000196105
0.000343333
-0.000539312
-5.74801e-05
0.000844457
-0.000100441
-0.000218711
0.000321396
-0.00259387
-0.000140006
0.000844004
-0.000271174
0.00215203
-0.000330253
-0.00182962
0.00112249
-0.00132137
-0.000561892
0.000268695
-0.00111477
0.00166411
-0.000594607
-4.27124e-05
4.74628e-05
0.0010635
-0.000178708
-0.00406202
0.00424
0.0018088
-0.00443975
0.00260644
-0.000661924
0.000545432
0.000115717
0.00159769
-0.00360059
0.00308591
-0.00281139
-0.000282256
-0.00176506
0.00126063
0.000491441
-0.00320284
0.00190298
0.00121326
-0.00040139
-0.00012921
0.000443623
0.00121798
0.00278284
4.14136e-05
0.000177566
-0.000946617
-0.00126406
0.00219412
0.000253563
0.000372847
0.000384338
-0.000768422
7.0078e-05
-0.000152282
-0.00133916
0.0020354
-0.00458452
0.00251089
0.00294508
0.00112986
0.000155998
0.000536262
-0.000201263
0.000165066
3.86715e-05
0.000457168
-0.000402742
-5.44751e-05
0.00151891
0.00162455
0.00048715
-0.000691528
-0.00146976
0.000601947
6.85777e-05
-0.000544032
0.000923814
-0.00068538
-0.00207116
0.000331084
-0.000304597
-2.53736e-05
-0.00331426
0.00143784
-0.000164827
0.000301201
-0.00166396
0.00323761
-0.00160668
-0.00392543
0.00150276
0.00240992
0.000224663
0.000127045
-0.000351544
-0.00493703
-8.21711e-05
-0.000673088
0.000564817
-0.00282966
-0.00152065
0.00430744
0.000800627
-0.000707636
-0.000197789
0.00188525
-0.00144327
-0.000883525
0.00227464
-0.00104307
-0.000952831
0.00197572
0.000185318
-0.000173729
0.000610601
-0.000191178
-0.000419154
-0.00137992
-0.00228291
-0.000113556
-0.000399891
0.000508407
0.000558473
-0.0010275
0.000474666
-0.000345911
-0.000266504
2.09348e-05
-0.000325834
0.000131098
0.000196238
-0.000557134
0.000433945
0.000508712
-0.000960155
0.000402326
0.000574923
0.000861863
-0.000928402
6.17419e-05
-0.000255046
0.00127735
-0.00169269
0.000392502
0.000925113
-0.000362442
0.00161078
-0.00132714
-0.000294493
0.000879944
-2.99206e-05
-0.000842326
-0.000313088
-0.000668398
0.000931293
-0.00501875
0.00337325
0.00164679
0.00459608
-0.00217172
-0.00248458
-0.000416915
-0.000838075
-0.000627882
0.00116403
-0.000534286
0.000301129
0.000296503
-0.000627484
-0.00177744
0.00111113
0.000634937
0.000148725
-4.74577e-05
-0.000101232
-0.000162551
8.86951e-05
2.97332e-05
0.000701284
-0.00123862
-0.00045049
-5.84429e-05
0.000507159
-0.00130932
0.000451014
0.000849898
0.00129632
-0.00259554
0.0012504
-0.000778819
-0.0023629
0.000195088
0.000838177
-0.00139367
0.00325475
-9.83985e-05
-0.0031794
-0.00116702
0.00314592
0.00013622
8.98008e-05
0.000749227
-0.000727441
-2.6807e-05
-0.00045056
4.78603e-06
0.000447149
6.29063e-05
-0.00266096
0.00028616
-0.000206418
7.07428e-05
0.000506367
-0.000570345
-0.000981681
0.00197394
0.000201731
0.000402369
-0.000606276
-0.00100747
-4.39583e-05
0.00105274
0.00215687
0.00237567
0.000580744
7.97882e-05
0.000574056
-0.00103216
-0.000569036
0.00182761
-0.000262824
-0.0018774
0.000203015
4.88873e-05
0.000371859
-0.000272548
-0.000161482
-0.00127329
0.000397157
-0.000717043
0.00105443
-0.00032099
-0.000959186
0.00103583
0.000682897
0.00132746
0.00027132
0.000445668
-0.000713556
-0.00171026
-0.00107914
0.00279082
-0.00185616
0.00194303
-0.000129429
-0.000428722
0.0017189
0.00107107
-0.00285661
0.000593857
-0.00295608
0.00281209
0.000134816
0.000725156
0.000126275
-0.00031051
0.000455833
0.00017308
-0.000628852
0.000465697
-0.000320114
-0.000145038
0.00323029
-0.00123892
-0.000416118
0.000115926
0.000454092
2.56876e-05
-0.00047896
0.0030795
0.00171274
0.000349219
-0.000212956
-0.000406854
-0.000468704
1.82377e-05
0.000436579
-0.000658102
0.000508679
0.000149424
5.37989e-05
9.50194e-05
-0.000552206
0.001077
0.000131854
0.000500451
-0.00262401
0.00393199
0.000580917
-0.000583978
0.000659552
0.00047523
-0.00025854
-0.000908698
0.000576103
0.00338151
-0.00170701
-0.00223423
0.00422993
0.000111684
-0.000402618
-0.000458969
0.000860948
-0.00187459
-0.00110865
0.00298079
-0.000295661
0.00012571
0.000170028
0.00158559
0.00174583
0.000155593
-0.00372265
0.00355851
0.000897896
-0.000577203
-0.000320496
-0.00131519
-8.00726e-05
0.00139174
-0.00224617
-0.00276664
0.00255553
0.00187309
-0.00122804
-0.000657052
-0.00225132
0.00110819
0.00111419
0.000198128
0.000900002
0.000992765
0.0015622
-0.00237699
-0.0014953
0.0038636
0.000333468
-0.00103428
0.000435189
0.000175449
-0.00018749
0.000412202
-0.00105615
4.43899e-05
-0.000378677
-0.000568666
-0.000940659
0.000978611
0.000917075
0.000103346
0.000646634
-0.000611154
-3.72329e-05
-0.00010383
0.000527381
0.000670833
-0.00119143
-0.00203081
-0.000539494
-0.000774135
-0.00306037
0.00136792
-0.000262028
0.000152949
-0.0028556
0.000500848
0.000262177
-0.000177822
0.00272259
0.00106257
-0.0010836
-0.000269624
-0.000597731
0.000867937
-0.000270567
8.71089e-05
0.000185777
0.000785755
-0.000921397
0.000136463
-6.65371e-05
-0.000263192
0.000328085
0.00142789
0.00109099
0.0034875
-0.00459344
9.16598e-05
1.15046e-05
-0.000103076
-0.0011878
0.00268367
-0.00219112
0.0039744
-0.00185246
-0.000756037
0.00260974
0.000826251
3.66104e-05
-0.000112975
-0.00267874
-0.00219813
8.15312e-05
0.000334523
-0.000414758
-0.000192117
-0.000222421
-5.58959e-05
0.000189407
-0.000133214
-0.000227827
-0.000133752
0.00036246
-0.00043981
9.94654e-05
0.00034665
-0.00285109
0.0024569
0.000176765
0.000257829
-0.000432247
-0.00339593
0.00447374
0.0042503
-0.00182659
-0.00249599
-0.00509026
0.00306425
-0.000387068
0.000688713
0.000346706
0.000110505
-0.000990425
0.00130517
-0.000334594
0.000617972
-0.000971286
-0.00435038
0.00147902
-3.58172e-05
0.00318411
-0.00142314
0.00140423
1.25299e-05
-0.00439002
0.0042106
-0.00124357
0.00427921
0.000531865
0.000611367
-0.000341266
-0.0011231
-0.00161828
0.00140481
0.000209481
0.000221549
-0.000452317
0.000230427
-0.0012622
0.00295261
-6.55034e-05
0.00156156
-0.00150342
-0.000743591
-0.0027207
9.15396e-05
0.000135329
0.000184451
-0.000252171
-0.000224574
-0.000284543
-0.000531041
7.70303e-05
-0.00107764
7.14111e-05
0.000616614
0.000701011
-0.000343627
0.00131954
0.000147711
0.00118962
-0.00112552
0.00166469
0.000339798
-0.00201893
-0.000328099
-0.000301583
0.000550426
-0.000828834
0.000835107
-4.72139e-06
-0.000639069
0.000985759
-0.000343528
0.000219423
6.96024e-05
-0.000288114
-0.00128082
0.000978675
0.000162822
-0.000348598
0.000184005
0.000163093
0.00070326
0.000156437
0.0016491
0.00127585
0.000276109
9.21725e-05
-0.000366605
-0.00287854
0.00429438
0.00140486
-8.32692e-05
-0.00184827
-0.00135167
0.00316617
-0.00220281
3.87836e-05
0.00213441
0.000383645
-0.000652969
0.000957009
-0.0017576
0.000745959
0.000907806
-0.00370864
0.000241441
0.00147573
-0.000279947
-0.00120266
0.000196384
-0.000441275
0.000249115
-5.22943e-05
-0.00122514
0.000447186
-0.00120517
0.000763931
0.000223708
-0.000583967
0.000364638
0.00154269
-0.00101707
0.000695303
5.00935e-05
-0.00167802
-0.00011885
-0.00064399
-0.00113089
0.000937509