/*--------------------------------*- C++ -*----------------------------------*\
| =========                 |                                                 |
| \\      /  F ield         | OpenFOAM: The Open Source CFD Toolbox           |
|  \\    /   O peration     | Version:  v2012                                 |
|   \\  /    A nd           | Website:  www.openfoam.com                      |
|    \\/     M anipulation  |                                                 |
\*---------------------------------------------------------------------------*/
FoamFile
{
    version     2.0;
    format      ascii;
    class       surfaceScalarField;
    location    "100";
    object      meshPhi;
}
// * * * * * * * * * * * * * * * * * * * * * * * * * * * * * * * * * * * * * //

dimensions      [0 3 -1 0 0 0 0];
oriented        oriented;


internalField   nonuniform List<scalar> 
20673
(
-0.00163927
-0.000435037
0.00205722
0.00191904
0.00113304
-0.00309535
0.000483912
-0.000309589
-0.000174109
0.00169434
-0.000341413
-0.00132955
0.00437046
-0.00464729
0.000255341
0.00124257
-0.00130692
6.45597e-05
0.000497803
-9.2853e-06
-0.000486804
-0.000238241
0.000294926
-5.68461e-05
0.000158228
-0.000165761
7.57636e-06
0.00148556
1.34549e-05
-0.00150692
-0.000652757
0.000193571
0.000460929
-0.000694418
0.00104349
-0.000345779
0.000894408
0.000230108
-0.000186962
-4.28422e-05
0.00258973
-0.00385448
0.00124803
-0.00103451
-0.00230549
0.00331457
-0.00410006
0.0017507
0.00230801
0.000855418
-0.000368791
-0.000490567
0.000517645
-0.00120941
-0.00207168
0.00236289
-0.000363568
-0.000758433
8.09172e-05
0.000677333
0.00010524
0.000392921
-0.000184799
-0.00274701
0.00287646
1.99757e-05
-0.000257959
0.0045622
-0.0045692
-3.42651e-05
-0.000608157
0.000491079
0.000117462
0.000938341
0.00134485
-0.00228245
-0.000529048
0.00167324
-0.00114158
-0.000882692
0.00146115
-0.000579152
-0.000393874
0.00121929
-0.000827456
-0.000553451
-0.0013137
0.00185283
-0.000949999
-0.00144624
0.00237255
0.00204023
0.00058037
-0.00262023
0.000854637
-0.00333907
0.00248431
-0.00217824
-0.00245822
0.00461486
-0.000119178
-0.000340988
0.000459806
-0.00275424
0.00251424
-0.000225334
6.47876e-05
0.000160502
-0.00157812
0.0015242
-0.000631385
0.000553024
7.90402e-05
-0.000328092
-0.000165465
0.00032123
1.00801e-05
-0.000247373
0.000247439
3.06394e-05
-0.000477176
0.000424736
-0.00203504
0.00173949
0.000298137
0.00129391
-0.00235925
0.00103266
0.00342479
-0.00313774
-0.000287352
0.000198783
0.000648156
-0.000211388
-0.000118172
0.000330907
-0.00105729
0.000962277
9.50589e-05
-2.61063e-05
0.000392655
-0.000503477
0.000636927
-0.000584613
-6.67618e-05
0.00292147
-0.00450689
0.0015801
-0.00117686
0.000119576
0.00317275
-0.0023179
-0.00279451
-0.00134487
0.00120798
1.97251e-05
-0.00124035
-0.000115058
-0.000535728
-0.00390153
-0.00140396
0.00526127
0.00214271
-0.00130751
-0.000862313
-0.000887381
0.00214657
0.000779733
-0.00087911
9.92131e-05
0.00385173
-0.00198334
6.99752e-05
-0.00260535
0.000463586
0.00143274
-0.000190025
0.000129955
0.000933268
-0.00106429
-0.000325073
0.00448204
0.00440248
0.000418354
-0.000236869
0.00020637
3.08788e-05
0.00144681
0.000734911
-0.00219691
-9.58198e-05
0.00444882
3.55524e-06
0.000154818
-0.000130973
0.000201362
-7.02217e-05
0.00502513
-0.000504975
-0.000965529
-1.62911e-05
0.00098189
0.00146216
-0.000515851
-0.000937864
-0.000129326
6.62865e-06
0.000122737
0.00190954
-0.00120504
-0.000729204
0.000691394
4.61673e-05
-0.000735899
-0.000144991
-0.00146157
0.00160462
-0.00210155
0.00058698
0.001487
0.00368128
-0.00125745
0.00134092
-8.19497e-05
-2.30288e-05
-0.000202241
0.000829138
-0.000919303
8.99888e-05
0.000824158
0.00106128
-0.00203837
0.00211209
-0.000117061
-0.000720349
0.0008494
0.000613901
2.03408e-05
0.000393645
-0.00037102
8.60278e-06
-0.000122411
0.000114
-0.000273487
0.00172014
-0.00145201
-0.00348593
0.00163474
0.0017929
0.00135364
-0.0039258
0.00255477
0.000318138
-0.00103929
0.0010631
0.000311571
-0.00137391
-7.28307e-05
-0.000227082
0.000301234
0.000401531
-0.000291511
-0.000110296
-0.00117019
0.000897494
0.000275596
-0.00100327
-0.00102509
0.00203205
0.000994356
0.000828921
-0.00192076
-0.00159879
0.00288955
-0.00129007
-0.00137333
-0.000659175
-2.54119e-05
-0.000823918
0.000836845
-0.00206736
0.00251134
-0.000513195
0.0001102
-0.000222191
0.000112085
0.00152132
-0.00155889
3.61995e-05
8.57556e-05
-0.000296559
0.00422235
-0.00251735
0.00133773
0.000457162
-0.00180779
0.000423957
-0.000508704
8.4821e-05
-0.000746972
0.000116161
-0.00111304
0.000296986
0.000821385
0.000210489
-0.000100322
-0.000848756
0.00337709
-0.00252904
-0.00114396
0.000757499
0.000386465
0.00297662
0.00134634
-0.00438343
-6.64726e-05
-0.00101098
0.00107785
0.000200478
0.000188436
-0.000388994
-0.00337991
0.000811179
0.00256867
0.000698654
-0.000678452
-0.000196601
-3.74036e-05
0.000333028
-0.00010981
-0.000222922
-0.00219075
0.00166378
0.000191698
-0.000513657
0.00019026
-0.00270757
0.00404099
0.00247483
-0.00149945
-0.00101293
-0.00023387
0.000271163
-0.000641895
0.000175381
0.000413394
-0.000243495
-0.000257551
-5.74401e-05
0.000315189
-0.00398865
0.00313909
-0.00169742
-0.000695105
-0.000722908
-3.06844e-05
-0.000282341
0.00052566
-0.000243118
-0.000255959
0.000276129
-0.00204266
0.000387228
0.000530476
-0.00153263
0.00448122
1.07616e-05
-0.00265148
-0.000728021
0.000181122
0.000340566
-0.000522547
0.00110901
-0.00223001
0.00107534
0.00424113
0.00033138
-0.00458319
-0.000157999
-0.00143915
0.00160106
0.00427377
0.00013336
0.00020308
-7.06667e-05
-0.000132253
-0.000795987
0.00149011
-0.00069607
0.004785
-0.00186825
0.00103079
-0.00194341
0.000869723
0.00188931
0.000584552
-0.00249903
9.30352e-05
0.000234683
-0.000328791
-0.000527402
-0.000616594
-0.000670401
3.51209e-05
0.000637485
-0.00253327
0.00225464
0.000267657
-0.000385581
-0.00167228
0.00203277
0.00127206
-0.000414135
-0.000858016
-0.00118263
0.00261125
0.000284733
-0.000258234
-2.6116e-05
-2.09303e-05
-0.000108612
0.000233326
-0.00051537
0.00294584
0.000624033
-0.00357672
-0.00178139
0.00262497
-0.000843403
-0.00143134
0.00171037
-0.000278869
0.000270461
-0.000344025
-6.11376e-05
-0.00104657
-0.000967324
-0.000200141
-0.000892849
0.000854866
-0.000309828
0.000313541
-2.73418e-06
0.00266242
-0.00173983
-0.000969662
-0.00270345
0.00110406
-0.000829654
-0.00149032
0.00230488
-4.21957e-05
-0.000383348
0.000425624
-0.000487607
0.00108517
-0.000592298
0.00405888
-0.00193841
-0.00215681
0.000180725
-0.000143132
-3.72166e-05
0.00216838
-0.00213931
-3.85738e-05
0.000153428
-0.000411413
-0.00102108
0.000954327
0.000172191
3.08284e-05
0.003272
0.000268307
-0.0035998
-0.00144642
0.00116847
-0.0020362
0.00146724
-0.000922916
0.00198644
-0.00252328
0.000442327
0.000458093
-0.00275989
0.00229377
-0.000241551
-0.000366458
0.000965747
-0.000163896
-0.000801375
0.000331036
0.000939437
0.000939053
9.17515e-06
-0.000954818
-0.000807833
0.000161694
0.000648774
-0.000420747
0.000391139
3.06097e-05
0.000798411
3.0732e-05
-9.9213e-05
0.00100927
-0.000911743
-0.000565275
0.00360543
-0.0031
-0.00170434
0.00167272
3.30558e-05
-0.00124711
0.00218648
-3.5575e-05
-0.000135973
-0.00216845
-0.00137045
-0.00137303
-5.55214e-05
0.00142618
3.70716e-05
0.000843977
-0.000882463
-0.000358902
0.000636125
-0.000271616
-0.000382288
0.000251201
0.000412608
-8.95102e-05
-0.000317683
0.000352941
-0.000263759
6.84416e-05
-0.000199391
-0.000348484
0.000120193
0.000228061
0.00220932
-0.0044065
-0.00448148
0.000539017
0.000281398
0.000120306
0.000602791
-0.000226224
-0.000376156
-0.000626311
0.00485493
0.000410682
3.98167e-05
-0.00044932
-0.00021836
0.000148345
7.00478e-05
-0.000916155
0.000111699
0.000507139
-0.00264045
-0.00111905
0.00154551
-0.000422508
0.000412584
-0.000229885
-0.000184549
-0.000454919
0.00033764
0.000117413
-0.000438158
0.00321032
-0.00281879
0.000830662
-5.11309e-05
-0.00131336
0.00451642
-0.000983259
0.000768488
0.000212767
-0.000617253
0.00014778
-0.000194305
6.46588e-05
0.000129745
0.000120193
-0.000236005
0.000115794
-0.00326786
0.0022109
-0.000541973
-0.00102207
0.0015606
-0.00183923
0.00143356
-0.00247974
0.00290826
-0.000436566
0.000317155
0.000627815
-0.00111085
0.000912145
1.9249e-05
-0.000269328
0.000401803
-0.00013219
-0.000116726
-0.000101512
-0.000665109
-0.000447827
0.00099955
0.00124008
-0.00221036
-0.000131761
0.000140398
0.000802597
-0.000765528
-3.75412e-05
-0.00155261
9.84966e-05
0.0015312
0.00155918
-0.00317252
-1.5809e-05
-0.000613988
-0.00029368
6.84932e-05
0.000226012
9.73971e-05
-6.82382e-06
-0.000101915
0.000356285
0.000357549
-0.000712672
-0.000593492
5.29766e-05
0.000538497
0.000361025
-0.00214352
0.00117808
-0.00197825
0.000784516
0.000244207
0.001449
-0.000977935
0.00260245
-0.00163655
-5.7688e-05
0.000158369
-0.000100465
-0.000610957
0.000552287
6.87025e-05
-0.00135155
-4.34664e-06
0.00135128
-0.00178473
0.0016337
0.000153803
0.00157066
0.000868594
0.00325996
-0.00470281
-0.00075819
0.000205617
0.000557657
-0.000778782
0.000571497
0.000207344
-6.02647e-05
-0.000606439
0.00229918
-0.00184765
0.00322302
-0.000650289
-0.000182778
0.000193435
-1.69389e-05
0.000132628
0.000200313
-0.00044942
0.000453133
-3.75106e-06
-0.000718717
-5.50954e-06
0.000724841
0.000160328
-0.0027065
-0.000211589
0.000261297
-4.92859e-05
-0.000213628
6.59717e-05
0.000148171
7.21131e-05
0.000212759
0.000122431
0.000569517
0.000337182
0.00113293
-0.0018731
0.000481789
-0.000105869
-0.000554709
-0.000630868
0.000511797
0.000115248
-7.7816e-05
0.000148858
-7.07703e-05
0.000369712
-0.000243551
-0.000127716
0.00103447
0.00108495
-0.000130877
-0.000217821
0.000594069
-0.0015247
0.000282309
-0.000386833
5.5315e-05
0.000195032
0.000346802
-0.000542254
-0.00200366
0.00224217
-0.00030674
0.000155884
2.4792e-05
-0.000589555
0.000238264
7.20179e-05
2.52053e-06
0.00371585
-0.00168185
-0.00205486
-0.00165849
-0.000886319
0.00138971
0.00123485
0.000538129
-0.000181799
0.00305379
-0.000857159
-0.00221192
0.000675667
-0.000661642
-2.17858e-05
0.000568902
1.4862e-05
-0.000584284
-0.000365549
9.62919e-05
-0.000101073
-0.000349591
-0.00357933
0.00308851
0.000258903
-0.000196247
-6.19257e-05
-0.00297637
0.00341032
-0.000416352
0.000697333
-2.90738e-05
-0.0018275
0.00474139
0.000433939
-0.00123128
-0.000749577
0.000355891
0.000277042
-0.000807559
-0.000177143
-0.00111298
0.0022732
0.0013434
0.00127268
0.000101583
0.0003156
-0.00254492
0.00336725
-0.00086143
1.13261e-05
-0.000574907
0.000563735
0.00184472
0.000313994
0.00116469
0.000549718
0.00140029
-0.00176525
0.000332319
0.00478527
-0.0015645
0.00052419
-0.000146616
-0.00037719
0.000202582
7.95946e-05
-0.000282066
-0.00270049
0.00399555
0.000369026
3.33512e-05
-0.000554586
-0.000461947
0.000657489
0.00248655
-0.00431061
0.00176171
0.000121927
7.9776e-05
0.00209261
-0.000732459
-0.000130624
-6.34582e-05
-0.00107356
-0.000196324
0.00129288
-0.000209184
0.00137079
-0.00116504
0.000456981
-0.000141859
-0.000313705
0.000910537
-0.000971537
6.12436e-05
0.00419949
-0.00126078
0.000673152
-0.000440756
-0.000311518
-0.000874247
0.00118959
0.00123663
0.002458
-0.000273277
-1.99139e-05
0.00121848
0.000107421
-0.00132904
0.00448407
-0.00239298
-0.00212322
-0.000340436
0.000136112
0.000204526
-0.000552633
-0.00115079
-0.000111113
-0.000102133
-0.00168576
-0.00186654
0.00355111
-0.00047593
0.000451973
2.44129e-05
0.00137024
-0.00224303
0.000850986
-0.000631245
2.1553e-05
0.000609993
-0.00157324
0.00126471
0.00230234
-0.00109009
-0.00121646
0.000739361
0.00155705
0.000253622
0.000230782
-0.000250496
-0.00170219
0.00194353
0.00150977
-0.00235279
0.000465583
-4.11637e-05
0.0043411
-0.0006282
-0.00373398
-0.0018106
0.00368691
-0.00190455
-0.00020807
2.17398e-05
-0.00158896
0.00021286
0.00301759
-0.00460144
0.00153792
-0.00033339
-8.66116e-05
-0.00124765
0.000365352
-0.000105418
-0.00166733
0.00165734
-0.00019671
0.000396803
-0.000302038
0.000476199
-0.000173842
-0.00235411
0.000278598
0.00154326
0.00187952
-0.00350114
-0.00295551
1.43342e-05
-0.000847158
0.0018359
0.000556867
1.13121e-05
-0.000163407
0.000168202
-4.7191e-06
0.0011869
-0.00149872
0.000309588
2.0214e-05
0.000504407
0.00317278
-0.0051206
0.0019017
-0.00133001
-2.30843e-05
0.000572585
0.00023895
-0.000811536
0.000228687
-0.00034121
0.00011246
0.000402787
-0.000151742
7.40737e-05
-0.000101877
0.00195631
-0.00114533
-0.000894438
9.27849e-05
-0.000810111
0.00311369
-0.00098355
-0.00220549
0.000847934
-1.71697e-05
-0.00219128
0.00127084
0.000941533
-3.08847e-05
-0.000628208
3.21258e-05
0.00131061
-0.000860648
-0.000432968
-0.0014387
-0.000583283
0.00200617
0.000415545
-0.000135733
-0.00118189
-0.000267395
0.000577922
-0.000191463
-0.000390896
9.79081e-05
-0.000819406
0.000724361
-0.000146222
-0.000484539
-0.000163282
-0.00029144
-0.00240039
0.00141306
0.00171203
-0.000234279
0.00243319
-0.000972744
0.000354916
0.000447455
0.000216401
-0.000515148
0.000298856
-0.00560161
0.00248409
0.00307167
0.00057598
9.70603e-05
-0.00501387
0.000873224
0.00410705
-0.000329253
0.000426485
-9.75348e-05
-0.00117786
0.000125677
0.00149079
-0.00175164
-0.0014717
0.0025027
-0.00105638
0.000356979
-0.000760362
0.000403602
-0.00281172
0.00131114
-0.000498592
-0.000279684
0.000773958
-0.00105421
0.000279586
-0.000254166
-0.000143182
0.000398206
0.00162221
-0.00127779
-0.000341329
0.00246432
0.00198806
0.000172967
-0.00128895
0.000750755
-0.000501891
0.00336171
-0.00293049
-7.00046e-05
-0.000328535
0.00464367
0.00487365
-0.000628724
-0.0042687
-0.000991089
0.000595494
-0.000247026
4.50447e-05
0.00374547
0.00152276
-0.00530201
0.000293239
0.00276237
0.000617684
-6.21654e-05
-0.00117079
0.00102512
6.0151e-05
-0.000535424
-0.000848078
0.000608165
0.000240178
-0.00107148
0.000866445
0.00020509
-0.000960106
0.000859353
-0.000685501
0.000385263
0.000300338
-0.000384812
0.000270447
0.000114443
0.00033613
-0.000105862
-0.00131694
0.00444236
-0.000187421
0.000595727
-0.000408351
-0.000557757
-0.00100225
0.00156794
0.000670942
-0.00226142
-0.00339321
0.00277628
8.79139e-06
0.000298298
0.000305149
-0.00054751
-0.000299807
0.00133758
0.00197143
-0.00332775
0.000519463
-0.000357162
-0.00016384
0.00243325
-0.00412166
4.508e-05
0.00150669
0.000485961
8.9664e-05
0.00366677
-0.000544545
-0.00315488
-0.000838408
0.000163726
0.000676236
0.00270518
0.001473
-0.000439101
-0.000401391
0.000208478
-8.64222e-05
-0.000215222
0.000368235
0.000164115
-0.000380194
-0.00124091
0.00143761
-0.000202252
-0.000279563
-0.000791927
-8.27405e-05
-0.000257608
0.000311946
-4.70521e-06
-0.000306936
-9.69902e-05
-3.51691e-05
0.000132158
0.000599371
-0.000312197
-0.000351182
-0.000477323
0.000370702
0.000105606
0.000260208
0.003374
0.00144278
0.00311412
-0.00458991
-0.000162267
-0.000242342
0.000404434
-0.000437771
0.000186703
-5.81509e-05
-8.99164e-05
0.00106858
-0.000949151
-0.000125525
-0.000103968
-0.00024325
0.000348339
-0.000148972
5.31471e-05
9.57632e-05
0.00232873
-0.00288576
0.000286473
-6.05527e-05
-0.0002243
0.000989445
-0.000964811
-2.53817e-05
0.0011375
-0.00128453
0.000144566
0.000461052
-0.000308
-0.000152761
-0.00109059
-0.00300855
-0.00263609
9.30837e-05
-0.000271621
0.000996753
-0.00219389
0.000651341
0.00121379
0.000301769
-0.00066204
0.000360269
-7.07236e-05
0.00125568
0.0011666
0.00187101
0.000862545
-0.000118392
-0.000743869
0.00142285
-0.000225634
-4.22581e-05
0.000312116
-1.74371e-05
0.000329376
0.000684065
0.000805253
-0.000727761
0.000475646
0.00044748
-0.000267
0.000200514
9.00701e-05
-0.00073541
-0.000575258
0.00130816
0.000595313
-0.000316199
-0.000279999
-0.000779795
0.000108682
0.000679108
-0.000373919
-0.000336987
0.000712597
0.000175717
0.00026039
-0.00100552
0.000753009
0.000242422
-3.94238e-05
-0.000203265
-0.000289629
-2.15107e-05
0.000206405
0.000378594
-0.000457962
7.90293e-05
2.27335e-05
0.000622178
-0.000646991
-0.00055179
0.000455338
9.36708e-05
-0.00147614
0.00245496
-0.000428045
0.00170192
-0.00130013
-6.29739e-05
-8.60153e-05
0.000164948
4.55582e-05
0.00385357
-0.00142671
-2.14345e-05
0.000253201
0.000249232
-0.00057459
0.000325259
-0.000143408
-0.000241192
1.19499e-05
0.000155717
0.000145609
0.000315496
-0.000572727
0.000340328
0.000234694
8.27578e-05
-0.00103945
0.000955091
-0.00456313
0.00242909
0.00206606
-0.000161291
0.000235322
-7.40683e-05
0.000158472
-0.00020264
4.42137e-05
0.0026616
-0.000798978
8.22941e-05
0.00189826
-0.00200893
-0.000286889
-0.000398498
4.0526e-05
0.000923846
0.000558179
0.00020865
-0.000766647
-0.000226615
-2.51621e-05
0.000126543
6.44773e-05
-0.000190894
-0.00100967
-0.000119701
0.00066881
-0.000549108
-0.000414598
-0.00014596
-0.000665279
-0.000253966
1.07771e-05
0.000312186
-0.000322708
-0.000387879
0.000351535
3.95318e-05
0.00315379
-0.001683
0.00242272
0.00132752
-0.00378274
-0.00106745
-0.00047269
0.000142591
0.000161987
7.44588e-05
-0.0016794
0.00347625
-0.000163396
-0.000844274
0.000898641
0.000792818
-0.00106512
-0.000279574
6.76111e-05
0.000220189
-0.000382606
-5.01945e-05
-0.000616944
-0.00040587
0.00102446
5.69052e-05
0.00027373
0.00161911
-0.000701757
0.000417166
0.000101669
-0.000196406
0.00031164
-0.000115209
-0.000491071
-0.000827428
0.00130911
-0.00223571
0.000455172
0.000859056
0.00397859
-0.00402937
0.00415671
-0.000122142
-0.000581125
0.000767485
3.08991e-05
-0.00167769
0.00203638
-0.000397323
0.00386365
-0.00401267
0.000142822
-0.00074447
-0.000789175
1.7205e-05
0.000281814
0.000175751
-0.00549159
0.00243943
-0.00325575
0.00133856
0.00188564
0.00254002
-0.000173651
-0.0023919
2.13247e-05
0.000221338
0.00138152
-0.000166631
-0.000779768
0.000342697
-0.000528993
-0.000289702
-6.20102e-05
0.00035068
-0.000223084
0.000343024
0.00153317
-0.000373705
0.00135637
0.00265472
-0.00406002
-0.000172372
0.000114883
-0.000195188
0.00129523
-0.00313042
0.000133927
0.000415454
-0.000548041
-5.59951e-05
0.00043433
0.00212244
-0.00160613
-0.000523382
0.00057907
-0.000235778
-0.000449221
0.00112273
1.21296e-05
0.00100805
-0.000236533
-0.000773198
0.000525092
-0.000943469
0.000417985
3.04694e-05
-0.000321258
0.003146
-0.00103924
-0.00211053
0.000245321
-0.000348506
0.00139534
-0.00284889
0.000250729
-0.000352185
0.000910774
-0.000284943
-1.41909e-06
0.000287013
0.00401933
-0.00136264
-0.00139522
0.00023014
0.00114683
0.000444404
-0.000850721
-8.23398e-05
-6.93006e-05
-1.52927e-06
0.000210408
0.000116398
-0.000409398
-0.00140691
0.00016253
-0.00362259
0.00129419
-0.000887295
-0.00133534
0.00219621
-0.00362201
-0.00190412
-0.00216349
0.00206816
9.22331e-05
-0.00152939
0.00437644
0.000230587
0.000180705
-0.00125182
3.04694e-05
-0.000314988
0.000806434
-0.000247966
-0.00338451
0.00133306
0.00201924
-0.000347237
0.000305253
0.000185004
-2.79743e-05
0.00348484
-0.00216027
-0.00134465
-0.00202526
0.00508886
-0.00307271
-0.00114836
0.000404443
0.000744762
6.50899e-05
-0.000258281
0.000194375
-0.000170146
0.000143618
2.70788e-05
0.000950027
-0.00105094
9.93657e-05
-0.000216359
-0.000476775
0.000136156
-0.000333178
-0.00157267
0.000125265
0.000315173
0.00168611
-4.68739e-06
-0.00169967
0.000252622
-0.000353071
0.000100353
-0.000963443
0.00300479
0.00115439
6.24171e-05
0.000533162
-0.000707294
0.000174946
0.000191451
0.000402616
0.000848233
-0.000103929
-0.000734174
0.000407199
-0.000156942
0.000719799
0.000845219
-0.00158477
-0.000128815
3.17204e-05
-0.00140082
-0.000161225
-0.00215288
0.000443555
0.000101332
0.000159102
0.00021842
-0.000151715
0.00131809
-0.00141241
9.64576e-05
0.00146045
-0.00075987
0.0026183
0.0013991
-1.60499e-05
0.0038728
0.00138131
-0.000776139
-3.19091e-06
-0.000245625
-0.000717616
0.00125439
-0.00216624
-0.000163331
-0.000561664
0.000184133
-0.00302261
-0.00159238
0.000530447
-0.00107469
0.000887644
-0.00112849
-0.000876742
-0.00018169
0.00106048
-0.0047487
0.00228502
0.00240754
-0.000464348
0.000285293
0.000178125
-0.00165842
-0.000109447
0.000882828
-0.00150367
0.00150893
0.000398475
0.00171602
-0.000468986
-0.000936517
-0.00132574
0.000220761
0.000984852
-0.000126908
0.000744845
-0.000635068
-0.00252408
0.000988218
-0.0020713
0.00162981
0.000435346
0.000640682
0.00278379
0.000693721
4.09495e-05
-0.000734788
-0.000723798
0.000821746
-0.000318004
9.40081e-06
0.00146507
-0.00167879
0.000585234
-0.000377112
-0.000210147
0.000217165
0.00110258
-0.000358183
-0.000105626
0.000464713
-9.77124e-05
-0.00050833
0.00198517
0.00108448
-0.00307215
-0.00348672
0.00172915
-0.00129579
0.00085599
0.00045333
-0.00174304
0.000417375
-0.000269976
0.000281168
-0.00162632
0.000153135
-0.00098644
0.00096879
-0.000896543
-5.86023e-05
-0.000302276
0.000497519
7.30701e-05
0.00121411
-0.0012916
-0.000213395
0.000139791
7.36488e-05
0.00162544
-0.00191165
0.000278459
0.0041035
-0.0017182
-8.40273e-05
0.000135753
-5.17454e-05
-0.000215346
0.000214458
0.00148066
0.00271353
-0.00423976
0.000592087
-0.00045786
0.000168518
-0.000208
4.10091e-05
0.000934851
1.36943e-05
0.000211685
0.000156892
-0.000268407
0.00021396
1.69498e-05
-0.00192398
0.00197753
2.07309e-05
0.0013463
0.000572528
0.000753616
-0.000709608
0.000512526
-0.000617854
-0.000136208
0.00053382
-0.000666826
-3.51817e-05
0.000419676
-0.000385031
9.27915e-05
0.000603647
3.63722e-05
-0.000629899
-0.00144924
0.00130286
0.000174395
-0.00012822
-0.00102722
0.00103953
-0.000120309
0.000322925
-0.000848842
0.000131883
-0.00214919
0.00346688
0.000409132
-0.000451241
0.00361353
-0.00141945
-0.00221739
1.81724e-05
0.000202103
-0.00235448
0.000656683
-0.00158589
0.00216741
-0.00107441
-0.000958626
0.00225329
-0.00130625
-0.00432045
0.00243857
-0.000513754
0.00136174
-0.00085517
-0.000879049
-4.45952e-05
0.000776887
-0.000546449
-0.00125275
0.00179243
-0.000402082
-0.000167572
-1.31211e-05
0.00100146
0.00109694
-0.000653903
-0.000440993
-0.000264127
6.77031e-05
4.9677e-05
-0.000360801
-0.00230095
0.00110395
0.000423285
0.00080441
0.00082318
-0.00163837
0.000218799
-0.000187599
-3.09527e-05
0.0002225
-5.84654e-05
-0.000164178
0.000270734
-0.00064339
0.00346767
-0.00523902
0.00174105
7.68191e-05
0.000539773
-0.0012844
-0.000126315
-7.73871e-05
-0.000797508
0.00074368
-5.21765e-05
0.000505401
-0.000421438
-8.53118e-05
0.000391472
-0.000738841
0.000347161
-1.72835e-05
0.00179
-0.00178688
-0.000663463
-0.000849003
0.000623754
-9.50353e-05
-0.000529876
-0.00143503
0.00137736
-0.000464049
0.000735287
0.000880182
0.000423289
-0.00130233
-0.000271274
-0.000590955
0.000861969
-9.98923e-05
-0.00080122
0.000913878
0.000385946
-0.000129027
0.0029272
-0.00170775
-0.000622581
0.000397573
0.000222146
-0.000225529
-0.00104663
0.00183491
-0.000510836
-0.00193513
0.00249502
0.00290765
-0.00485517
0.00189509
0.000289511
0.000253393
0.000100056
-0.00035391
-0.0004868
0.000529683
-4.3324e-05
-0.000319794
-0.000391489
0.00457792
-0.00113182
0.0042205
-0.000301015
-0.00394678
-0.000813397
-3.07953e-05
0.000475677
0.0028979
-0.00340011
-0.000183612
0.000548798
-0.000354846
-0.00266254
0.00205072
0.000583912
-7.86939e-06
0.00104541
-0.00114357
1.09156e-06
-0.000162379
0.000566549
0.000690794
-0.00125175
-0.000204759
0.00138296
-0.0018152
-3.86298e-05
0.00174869
0.000800102
-0.00092857
0.000119459
0.00232779
-0.00013189
-0.00219556
0.000317684
-0.0010586
0.00134105
0.00266283
-0.00400395
0.000686843
-0.000529499
-0.000158146
-0.000193315
0.00154605
-0.00135924
1.12677e-08
0.000847643
0.000759853
0.000506836
-0.000169457
-0.000337847
-0.00101672
0.000644984
0.000363067
0.000361095
-0.000743936
0.000385715
-0.000330396
0.000998954
-9.49554e-05
-0.00247974
0.000196015
0.000343233
-0.000539116
-5.62795e-05
0.000851057
-0.000108213
-0.000200065
0.000308066
-0.00255607
-0.000130449
0.000843543
-0.00027099
0.0021539
-0.000335076
-0.00182695
0.00112398
-0.0013222
-0.000572381
0.000269631
-0.000971168
0.00134924
-0.000420631
-4.2951e-05
4.73501e-05
0.00108676
-0.000211218
-0.00403483
0.00424317
0.00178354
-0.00440692
0.00259773
-0.000657102
0.000539968
0.000116145
0.00158331
-0.0035528
0.00308541
-0.00277642
-0.000307897
-0.00165575
0.00119807
0.000442819
-0.00309982
0.00184299
0.00116556
-0.000254472
-0.000116744
0.000304919
0.00119166
0.00278291
4.14096e-05
0.000177517
-0.000940065
-0.00126169
0.00218385
2.83411e-05
0.000584329
0.00034545
-0.000686986
7.0112e-05
-0.000152202
-0.00133755
0.00202193
-0.00453608
0.00247318
0.00286908
0.00111193
0.00015611
0.000529389
-0.0001978
0.000170462
2.89797e-05
0.00045692
-0.000402572
-5.44899e-05
0.00151405
0.00162814
0.000722
-0.000810726
-0.00128349
0.000513583
8.26243e-05
-0.000392144
0.000977709
-0.000709253
-0.00206841
0.000330281
-0.000304928
-2.45619e-05
-0.00330761
0.00143953
-0.000164767
0.000301135
-0.00161982
0.00312218
-0.00153965
-0.00390871
0.00148685
0.00240829
0.000224492
0.000127013
-0.000351407
-0.0049515
-9.40895e-05
-0.000496989
0.000523215
-0.00277399
-0.00150175
0.00422901
0.000766014
-0.000681218
-0.000186097
0.00187864
-0.00143548
-0.000883878
0.00227517
-0.000877355
-0.000894552
0.0017473
0.00018388
-0.000165198
0.000610386
-0.000191123
-0.000418985
-0.00138427
-0.00226277
-0.000312272
-0.000124456
0.000437487
0.000564567
-0.00103668
0.000475488
-0.000331553
-0.000266305
1.89336e-05
-0.000313166
0.000135074
0.000177819
-0.000476535
0.000159865
0.000507449
-0.00113813
0.000351338
0.000807848
0.000739939
-0.000622536
-0.000127628
-0.000253104
0.000989728
-0.00142096
0.000412254
0.000924971
-0.000362271
0.00158657
-0.00130504
-0.000296751
0.000884422
-3.5403e-05
-0.00083997
-0.000112806
-0.000567985
0.000649978
-0.00501683
0.00334625
0.00166945
0.00444696
-0.002107
-0.00240069
-0.000359969
-0.00106305
-0.00062761
0.00116365
-0.000534158
0.000544984
-4.2944e-05
-0.000500989
-0.00141275
0.000968318
0.000418299
0.000148557
-4.7204e-05
-0.000101266
-0.000160593
9.00784e-05
8.90301e-05
0.000763305
-0.00124656
-0.000361722
-9.50693e-05
0.000454585
-0.00106759
0.000308022
0.000736496
0.00119809
-0.0023205
0.00107567
-0.000775238
-0.00236284
0.000194949
0.000838675
-0.0013908
0.00326941
-0.000111182
-0.00318049
-0.00112919
0.0029838
0.000130691
9.20432e-05
0.000589895
-0.000626252
3.16538e-05
-0.000447687
3.69702e-06
0.000444626
7.04725e-05
-0.0026465
0.000286066
-0.000206343
-3.74378e-05
0.000452601
-0.000411451
-0.000912542
0.00171164
0.000203764
0.000405704
-0.00060934
-0.00100649
-4.59285e-05
0.00105273
0.00208616
0.00229722
0.000557995
6.37972e-05
0.000536708
-0.000968937
-0.000553762
0.00152508
-0.000216063
-0.00167832
0.000211141
5.021e-05
0.000273469
-0.000440936
-7.04365e-05
-0.00108086
0.000396939
-0.000738218
0.00116449
-0.000411705
-0.000951357
0.0010325
0.000683876
0.00132584
0.000440748
0.000142436
-0.000585407
-0.00170925
-0.00108073
0.00279086
-0.00187758
0.00195801
-0.00012483
-0.000427004
0.00167122
0.00105515
-0.00279237
0.000450876
-0.00293739
0.00282417
0.000108984
0.000729192
0.000149074
-0.000273802
0.000455696
0.000172999
-0.00062863
0.000465322
-0.000319706
-0.000145061
0.00322606
-0.00124314
-0.000420847
0.00011916
0.000453539
2.54773e-05
-0.000478532
0.00304173
0.00170322
0.000349102
-0.000212873
-0.000407912
-0.00047123
1.84243e-05
0.000435437
-0.000657796
0.000508578
0.000149358
5.36658e-05
9.51215e-05
-0.000551894
0.00107601
0.000109776
0.000474542
-0.00257837
0.00387271
0.000580544
-0.000522509
0.000487763
0.000475182
-0.000258468
-0.000677321
0.000248753
0.00315672
-0.00157555
-0.00219829
0.00417753
0.000105945
-0.000212442
-0.000455636
0.00065406
-0.00186932
-0.00111316
0.00297991
-0.000295571
0.000125662
0.000169976
0.00149714
0.00160741
0.00018062
-0.0037372
0.00354844
0.000897456
-0.000576965
-0.000320335
-0.00131308
-8.0954e-05
0.0013902
-0.00227074
-0.00274236
0.00255585
0.00174754
-0.00117331
-0.000589525
-0.00193089
0.000899711
0.00100578
0.000198083
0.000899735
0.000992299
0.00156285
-0.00236228
-0.00149991
0.00385293
0.00043364
-0.00115749
0.00043502
0.000175407
-0.000187416
0.000411884
-0.00105631
4.55469e-05
-0.00030832
-0.000812056
-0.000941515
0.000980786
0.000900053
0.000106383
0.000641033
-0.000605049
-3.59374e-05
-0.0001056
0.000533622
0.000671918
-0.00120116
-0.00194397
-0.000334887
-0.000693736
-0.00296381
0.00131137
-0.000298473
0.000243854
-0.00280469
0.000392871
0.000154045
-0.000168855
0.00268557
0.00105667
-0.00108168
-0.000269449
-0.000597491
0.000867478
-0.000279517
0.000112347
0.000167697
0.000994356
-0.00104429
0.000149226
-6.01468e-05
-0.000260138
0.000320942
0.00142885
0.00110419
0.00345676
-0.00457716
9.16136e-05
1.15487e-05
-0.000103053
-0.00110997
0.00240786
-0.00218902
0.00394586
-0.00185085
-0.00075868
0.00261081
0.000825841
3.65254e-05
-8.20932e-05
-0.00263474
-0.00216805
8.121e-05
0.000334104
-0.000414696
-0.000191329
-0.000229194
-6.33725e-05
0.000190587
-0.000127601
-0.000236825
-9.44983e-05
0.000331004
-0.000441102
0.000100352
0.000337268
-0.00277705
0.00239131
0.000153583
0.000253895
-0.000406848
-0.00337049
0.00446047
0.00419789
-0.00180494
-0.00246256
-0.00507325
0.00303824
-0.000387109
0.000688989
0.000346413
0.000110484
-0.000854981
0.000969157
-0.000133256
0.000530145
-0.000667409
-0.00428073
0.00146083
-2.7422e-05
0.00312827
-0.00130017
0.00122619
5.73607e-05
-0.00440504
0.00419073
-0.00123249
0.0042011
0.000497705
0.000494325
-5.09682e-05
-0.00109141
-0.00161487
0.00140047
0.000210071
0.000221474
-0.000452211
0.000230342
-0.00119604
0.00272182
-6.2633e-05
0.00155778
-0.00150234
-0.000725622
-0.0026899
9.07853e-05
0.000144676
0.000182157
-0.000242064
-0.000224323
-0.000284052
-0.000474463
0.000111191
-0.00107794
7.18673e-05
0.000640347
0.00070047
-0.000343351
0.00126594
0.000157298
0.00104922
-0.00104086
0.00166129
0.000335596
-0.00201133
-0.000298939
-0.000301691
0.000550636
-0.000828936
0.000834807
-4.54219e-06
-0.000642271
0.000988025
-0.000343448
0.000208934
7.43407e-05
-0.000282961
-0.00116273
0.000884197
0.000151756
-0.00033605
0.000184684
0.000150309
0.000393768
0.000336243
0.00163817
0.00127547
0.000275645
9.1934e-05
-0.000367241
-0.00284496
0.00425785
0.00137582
-9.5111e-05
-0.00176524
-0.00131979
0.0030484
-0.00189753
-1.268e-05
0.00188111
0.000383528
-0.00065272
0.000829198
-0.00143087
0.000553135
0.0009051
-0.00370963
0.000314447
0.0014643
-0.000275304
-0.00119871
0.000249905
-0.000382243
0.00013177
-6.05252e-05
-0.00122253
0.000452025
-0.00121465
0.00076741
0.00021366
-0.000573662
0.000360188
0.00157071
-0.00102966
0.000602733
-1.83251e-05
-0.00175608
-0.000118786
-0.000694779
-0.00113042
0.000937277