/*--------------------------------*- C++ -*----------------------------------*\
| =========                 |                                                 |
| \\      /  F ield         | OpenFOAM: The Open Source CFD Toolbox           |
|  \\    /   O peration     | Version:  v2012                                 |
|   \\  /    A nd           | Website:  www.openfoam.com                      |
|    \\/     M anipulation  |                                                 |
\*---------------------------------------------------------------------------*/
FoamFile
{
    version     2.0;
    format      ascii;
    class       volScalarField;
    location    "100";
    object      omega;
}
// * * * * * * * * * * * * * * * * * * * * * * * * * * * * * * * * * * * * * //

dimensions      [0 0 -1 0 0 0 0];


internalField   nonuniform List<scalar> 
13917
(
0.036706
0.0220072
3.94519
0.0223584
0.0221072
0.438525
4.40864
3.79754
5.65433
0.0586333
0.11547
0.0499981
0.0223943
17.3943
0.025525
0.0243587
0.0221065
0.0453503
0.0489123
0.0221124
0.0222667
4.41058
0.0220901
3.18223
0.0219994
4.21054
0.0410792
0.0530822
0.713624
0.0898268
0.0387816
0.0262901
0.0353686
0.0256714
0.022019
0.226413
0.0220992
5.0135
0.0232417
6.56071
0.0218846
0.0222857
0.021555
0.0807527
0.0218509
0.027291
0.0445352
0.0574546
2.82573
0.0220183
0.0245406
0.0223348
3.27499
0.0259793
0.0221207
0.0248078
0.114765
0.021987
0.0236881
0.0218306
11.9724
0.0220058
25.0699
0.0221008
0.407086
15.2099
0.0221053
0.0220534
0.129345
0.0338796
0.0221149
5.05735
6.06507
0.022006
2.91576
0.0580166
6.65312
0.0222062
4.02811
0.0222364
0.022204
0.0221126
0.376951
5.11392
6.43124
0.0221348
0.0221793
9.2574
0.0243478
0.0215436
5.84052
0.0785501
0.0217989
0.0227929
13.1372
0.378494
0.0913461
0.0530494
0.0988664
0.107659
0.021806
0.0324089
0.0813951
0.0223772
0.0217674
5.15821
0.430647
0.0603592
0.0221054
0.0415374
6.74242
6.21107
0.063429
5.23294
0.0229528
3.2599
0.0219999
1.48684
5.75529
0.0259426
0.0222738
0.128588
5.23533
0.049911
0.0219756
0.0226554
0.0218569
0.0219832
0.021587
0.417137
4.45537
0.0228626
0.021868
0.0222742
0.422172
2.87176
0.037124
0.113562
0.0220981
0.0258485
0.198094
0.0217026
0.0225228
0.0995175
0.0220534
1.86014
0.755717
0.0222799
0.0216871
0.0268766
0.0445776
3.24508
0.0661621
0.0390698
0.0252513
7.22443
0.0326728
0.31482
7.71107
0.429232
0.0240193
0.0416994
0.0222364
0.0872911
0.0622611
0.0971466
0.0223629
0.0481691
0.0217718
0.0334005
0.0392392
8.60023
0.0688075
0.0223445
0.654588
0.0430392
4.4962
1.94992
1.49381
0.0218675
0.0828717
0.0400482
0.0216939
0.0221703
0.0292017
3.96523
0.278517
9.5056
0.03194
0.0909506
0.215266
7.13299
0.268343
0.0221006
0.121054
0.0399368
0.0222388
0.0218044
0.222812
5.39691
0.0238745
0.0220339
0.0445611
0.0438841
6.07087
0.338227
0.0220221
0.0219965
0.0517633
3.84298
0.0224336
4.48719
7.13482
0.0912664
0.0217764
0.572545
0.0453102
7.72375
0.0219486
12.1301
0.0218685
0.0800957
0.0218815
5.25712
5.36274
0.0246259
1.78599
0.0255053
0.0217815
0.223076
0.0672516
0.0315917
2.84593
8.54071
0.0217619
0.0266812
6.07287
5.8553
0.0222285
0.0219429
5.39969
0.102403
0.0222668
0.179463
0.0822059
0.0405091
0.0340616
0.0222284
0.0429977
7.76207
0.0216661
0.106057
0.139801
0.0218415
0.021982
0.0532248
3.88921
0.0625933
0.029482
0.0256181
0.0222712
7.3878
5.3108
0.189868
0.0217909
6.39333
7.99505
0.320281
4.02174
0.0614543
0.0222148
0.021932
0.0444678
5.35223
0.0958352
0.0234728
0.364936
0.0325903
0.0215824
4.33917
0.0220887
0.743811
0.023622
0.022262
0.026348
0.0388184
0.04192
0.184346
0.0310699
0.0217524
0.333246
2.54387
6.37378
0.0219507
0.329217
0.0221728
0.0217459
0.0220083
1.09002
0.0221055
0.0865785
0.0333554
0.0217598
0.0445308
0.0226147
2.37426
0.0418773
0.0716017
0.0216969
0.0219751
6.62464
6.25582
0.0219931
0.0219073
4.29776
0.0218467
6.15063
0.0216987
5.36276
0.021825
0.428473
0.0285413
3.05414
0.023745
0.390334
0.307099
0.026326
0.102295
0.497962
0.0221445
4.67417
0.122586
6.71728
0.0247121
6.88144
0.0271933
7.34516
0.246424
0.104727
0.101905
4.26369
0.0222164
0.0405756
7.02814
0.0221195
0.023043
7.20051
0.271387
0.0222693
0.192363
0.657979
0.0218519
6.37458
0.210707
0.0220822
0.0218788
0.0221805
0.0216806
0.312349
1.08343
0.689248
6.83667
0.0220042
0.1195
7.43419
0.0344781
4.5176
5.39524
5.63973
0.0217514
0.184029
0.0218575
11.1546
0.0218331
3.81845
0.0823422
0.0229343
0.022198
0.049119
0.0892745
0.0611637
9.39748
6.86102
11.4259
0.0448828
0.0553448
0.0219514
6.04791
4.44154
0.0219844
0.379662
0.0220352
0.234537
0.021825
0.0222265
0.0226748
3.7092
0.0226525
3.69131
7.99855
0.103573
0.456566
0.0221273
0.479261
0.413543
0.0220332
0.302103
0.0221034
0.0220183
0.0901004
0.0222616
0.0220044
0.0218531
0.265151
0.0222477
6.03758
3.40783
5.81398
0.269162
3.84744
7.61996
0.0340526
0.0220116
0.144552
0.0231375
0.0276775
0.0220925
1.44498
4.15972
2.9945
0.024382
0.0908718
0.0244644
0.0234716
0.0607432
0.0225575
0.187631
0.0220899
0.0220963
6.44977
4.44029
4.47173
0.117957
6.83594
4.74852
7.362
6.70669
0.0216178
0.0479077
0.022599
0.0220225
0.325311
0.0452057
0.0217169
0.0546734
0.0328464
6.5799
0.0220286
0.0912245
16.2806
0.668975
4.74588
0.0222551
0.0219926
0.0221971
0.0328998
0.0217535
3.49675
0.541765
0.0308584
6.52265
0.0247598
0.0889755
7.8328
0.768181
0.0999505
0.204168
0.0908663
0.0538194
0.13333
0.0334573
0.114896
0.584909
0.036993
0.0655682
0.0217832
0.383565
0.0250664
0.0215594
0.0316066
0.0222545
6.64603
5.25932
0.021846
0.0215939
3.1402
10.208
0.0222618
6.33349
0.0221088
0.202583
0.021856
6.38623
0.316796
0.0268124
0.0220365
3.88776
0.227007
8.11095
0.0222694
6.852
2.43193
5.11909
0.021569
6.07528
7.81309
0.0343697
0.0218714
0.022123
0.0580716
0.264865
0.0216739
0.021887
0.0219569
0.0219509
6.63994
0.322469
0.0339541
0.268968
0.0219544
0.0218143
0.089269
7.68432
0.029833
0.0217759
0.0220138
0.0220688
5.32366
8.05451
0.0221735
0.022065
0.179998
0.0332546
0.0285204
0.0219927
0.0227459
0.0256573
0.0641238
0.394901
0.276791
0.145968
0.0811896
0.345334
0.0706
0.0219622
6.75741
0.0220728
0.0232692
0.0228125
0.380229
0.0719268
0.0218178
0.665303
0.101499
15.6444
0.0817419
0.0347605
0.0341562
0.0221894
6.77517
0.461492
5.13871
0.0220385
0.0267667
0.268615
5.48622
27.3688
0.0560491
0.136701
0.0243168
0.0232525
0.0219963
0.0523446
0.0859293
0.0221818
0.0447108
0.133069
5.1352
7.45436
0.0233534
0.0859852
0.297106
0.0273317
0.0223391
3.54917
3.22576
2.58454
0.244281
0.0216007
6.38676
0.0567507
0.0218443
0.028746
0.0592762
0.0340727
0.0876808
4.08306
0.129354
0.0304806
6.81921
0.0224512
7.79838
0.0222372
0.0221669
0.327842
3.22805
0.636089
0.0224382
0.0222969
0.0220672
0.03311
3.37819
0.0918961
0.0233732
0.0939786
0.0481218
0.0218588
1.80508
0.0894341
0.192603
0.0219277
0.125134
0.0222406
12.1717
0.0600512
0.0715248
0.0270183
0.0218758
0.0215981
0.0218734
0.112865
0.0276345
0.2492
7.59636
0.0477251
0.0218618
0.128321
0.663813
0.250698
0.0216592
0.0269277
0.0218956
0.0251654
0.0237954
7.81337
0.0222284
3.33865
0.0250715
0.114956
0.0799353
6.17601
0.0743798
0.0220885
5.53226
17.6464
0.0219525
0.0227567
0.325797
0.206515
0.0952125
0.0222376
0.0220545
0.323909
0.023004
0.0609161
0.0506248
0.0215963
0.0435854
3.77923
0.0216405
0.0220971
0.0219771
5.99319
0.0222655
0.0240899
7.89651
0.0229819
2.77147
0.0253742
0.0360895
0.0219694
0.0476464
0.0220178
0.0527587
0.0218818
0.0800129
0.0221096
29.0817
3.05609
7.75654
0.0221276
0.0222061
0.0661713
0.0439795
5.60296
6.90481
0.0450658
0.0220239
0.253712
0.665926
0.190667
0.224425
0.0422231
3.84399
0.0363113
0.0315113
0.126026
0.176697
0.0444638
1.10756
0.0442562
0.0223882
0.0625361
0.0263914
0.0215991
0.0250562
0.0415045
0.0263713
0.022025
0.021919
0.0480073
0.0224195
0.0616544
0.0220261
0.022052
0.0222733
0.0226923
0.021495
0.0246411
0.0219976
6.45743
0.0488047
0.363933
0.0217801
0.022247
0.0471192
0.0547485
0.0226997
6.58617
0.0731339
8.92553
0.0251268
0.103598
0.0219697
0.0222688
0.0219332
0.0226406
9.90381
0.0222549
0.383772
0.024862
6.86634
0.0471042
0.0741689
0.112864
0.0216403
0.022291
0.0498315
0.0220477
0.0222739
3.38962
0.0224047
0.0221805
0.0257879
0.0219373
0.0216434
0.0263694
0.0284925
8.40948
0.0324841
0.0216381
0.0218633
5.69851
0.110521
0.0220722
0.0220346
4.48428
0.316736
10.6088
0.0347617
0.0224038
0.0217735
0.0216311
0.0377993
0.0333169
0.179327
0.0250562
4.67948
0.0220571
0.0233517
11.3916
0.022042
0.025109
0.0219325
0.0220802
0.0403738
0.0427865
0.0220639
2.76218
4.50976
0.080994
0.0219572
0.021534
0.0889872
0.377131
0.0222612
0.315967
0.0215384
0.039
0.0215416
0.021627
0.288103
0.0217643
0.236658
0.036245
0.0222731
0.0215861
0.0220767
0.0218813
0.0220591
4.19382
0.0216398
0.0216577
5.78335
3.21462
0.0313338
0.0427508
0.0571936
0.0235758
0.0217156
0.0280213
6.11297
0.0843275
0.0221286
0.0220043
6.59677
0.0310566
7.31221
0.0222661
0.0227998
7.23895
0.0289976
0.0220981
9.80648
1.73677
0.021879
0.115012
0.0219304
0.0217565
0.0217666
6.44168
0.0214896
0.0216089
0.021708
0.302318
0.0229246
0.200968
0.063402
0.0216098
0.0327478
0.0221736
6.91679
0.0219577
0.0216428
0.0221813
0.0921994
0.0221737
0.128879
6.05718
2.30856
0.0264046
0.210482
7.14445
0.0219683
7.33206
11.7731
6.70661
3.87829
5.96276
37.5205
0.120757
0.0221336
4.09194
0.0290162
4.57574
0.0215702
0.0217916
0.0220718
0.0221668
0.0240303
0.0304973
5.42344
0.0217847
0.0220706
7.44849
0.279332
0.0220782
0.0379334
0.0270778
0.0218928
2.87337
0.0398043
0.0235223
0.0228987
6.08372
9.6406
1.29723
0.0215388
0.229479
0.101072
6.21432
5.96061
0.0672087
0.0218495
0.0220032
0.0220601
0.0214684
0.0227411
0.0216128
0.0257498
0.0354795
6.92483
0.102832
0.02162
0.100274
7.52462
0.0380622
0.0222581
7.36848
0.021754
0.0222125
0.0374719
7.93959
0.0221742
0.0219266
4.58292
0.18318
0.280579
0.0876995
0.227592
0.0219023
0.144472
0.0222816
0.0219932
0.0222887
3.81964
8.03137
0.0216405
0.0215795
0.0219414
0.326414
0.0225984
0.0268223
0.0220476
0.0221934
0.141563
0.0216118
0.0536438
0.327066
4.44968
0.0218273
0.0785646
0.0235091
6.2202
7.26057
0.022007
6.65723
0.0608104
1.45176
0.0221728
3.76733
0.0222454
0.0247294
0.0393767
0.0878427
3.61834
0.202498
0.124546
3.78684
0.0218565
0.208184
0.0216191
0.0263265
4.70082
0.0220266
0.0222529
0.0223779
0.021893
6.43099
0.021641
0.0220806
0.0444535
0.042636
0.0414326
0.595422
0.0979775
9.59374
0.0494057
0.0305096
0.0309208
5.70952
0.03198
14.4154
4.20699
0.0235032
0.0216037
3.63724
0.191883
0.0222819
0.0936409
0.0300309
0.021827
0.0242528
0.0219103
0.0393836
0.0222921
0.0414158
0.106166
0.0218658
0.0543745
0.0216739
0.0569034
0.0218764
0.0260725
0.0489932
0.0224965
0.0217876
0.0216493
2.11617
0.0737623
1.84451
0.0220004
0.0219599
0.0486868
0.0219351
0.0816388
0.0737722
0.0218285
0.0823439
0.0216652
9.94513
0.0222428
0.0301595
6.57619
0.198908
0.0219087
0.0231016
6.74044
0.0219952
0.0219076
6.11748
6.68461
0.0241576
0.119604
0.0221029
0.0217785
3.68515
0.0225267
0.0216497
0.207033
0.0216648
0.296318
0.0221975
0.0216565
0.0220793
0.0999997
4.14118
0.0220756
0.0221538
0.021904
0.0251306
0.0220771
0.992768
0.0516393
0.0222688
1.04528
0.0474036
0.221586
4.80052
3.67523
0.0216331
0.022204
0.0219642
0.728063
0.025673
4.19976
7.53077
0.0237042
4.77573
2.34607
0.0415263
0.111436
0.0655772
0.383643
3.32303
0.0605327
1.07311
5.20658
0.0492656
0.0245223
5.58529
0.0532981
0.0215807
0.0224644
15.0628
0.0360496
0.0218405
0.049466
0.0888203
0.0355854
5.4119
0.0231741
2.29729
0.0311555
0.187743
0.106348
0.244937
0.026511
0.0216652
0.0223032
3.21459
0.0219849
0.0238541
0.0217457
0.0227539
0.0217742
0.0342143
0.111875
1.90625
0.0438838
0.0592277
2.56936
0.339784
0.0217567
0.316151
3.49865
0.0216764
0.0218981
0.027736
8.61109
0.0222544
0.0602582
0.59484
0.0446126
0.0220426
0.0222156
0.0216623
0.0940485
0.0373276
0.0219885
32.1184
3.91097
0.0409316
0.333385
0.049861
3.22615
0.0229075
0.0237569
1.53188
0.330936
0.0680066
1.76509
0.0265589
0.0222763
0.0217177
0.021993
0.0220159
0.0225691
0.0495304
0.0219182
0.0931571
0.0219368
0.0262049
0.0216079
0.073528
0.0918361
0.729257
0.0219615
0.242408
0.0217211
0.867455
0.0220289
0.0256657
0.0221225
0.163486
6.18836
0.105159
0.0219096
0.103166
0.0219324
0.0277192
6.36903
0.0217513
0.02231
0.0410813
0.0287249
4.65605
0.0219182
0.0286558
0.0221622
0.0220342
0.0316315
0.0222358
0.0217341
0.0234452
7.20907
0.023497
0.197338
2.24371
0.0447362
4.08853
0.023321
0.0217402
0.0297173
9.15771
0.0222884
0.0345551
0.0337443
2.87986
0.0218675
6.11063
0.0554313
0.0605099
0.0216651
0.0216026
0.121001
0.022359
0.0222859
0.0334475
0.0215869
0.0241529
0.0265527
0.0548664
0.27382
4.25879
0.0231446
0.0582279
0.265592
7.7437
0.0305038
0.257222
8.363
0.033639
14.0681
0.0236694
18.7173
5.93054
0.021549
0.0222619
0.0219482
0.0219708
0.0407779
0.0215995
0.0239002
0.0672021
0.0225513
0.0342335
5.75147
0.0297269
0.022913
5.61045
0.022105
6.2972
0.0228324
0.0525916
0.0218564
7.67167
7.72136
0.0219305
0.0220369
3.60432
0.0290828
8.11406
0.0220212
0.0216581
5.03476
0.0220722
0.0432425
11.0349
0.0220648
0.0477635
0.0272042
0.0215959
0.0218956
3.94183
7.36547
0.0219723
0.0225598
0.0220038
0.0252305
0.0368456
7.05887
0.0225172
2.58679
0.326011
0.189418
0.354316
0.0220548
0.0914545
0.188881
0.0286692
0.0220565
0.0469952
5.57197
0.0231854
0.0447082
3.35721
3.63835
0.294333
0.0251815
0.0221446
0.0222463
0.0220712
9.41701
0.0452437
0.02265
0.0220853
0.0232822
0.0222699
0.0219281
0.022042
0.0573829
0.030215
0.849015
0.0459176
6.14074
3.67127
0.0292959
0.0423149
0.0217984
0.0273025
8.92777
0.0219748
0.0230164
0.0420521
0.0951179
0.0562829
3.29909
0.18643
0.0217615
4.99834
0.0215643
0.0219161
0.0445604
0.0222734
0.0216593
0.131493
2.98572
0.0216698
2.65482
0.0219493
0.0216242
0.0229412
2.70671
0.0272764
0.0228057
14.5366
0.0224474
0.177964
3.89969
0.0222462
0.0470973
0.0220092
6.39785
0.0611248
0.0220474
3.73757
0.0452928
0.0777085
0.0222784
8.26855
0.0286384
0.394395
0.0220799
0.0693286
7.83538
0.0216491
1.46029
0.0220674
0.0553835
0.0514224
0.0222453
5.76001
0.0231731
0.0930429
0.0505631
0.0956377
0.0386727
0.0423282
0.0224621
3.41099
0.0309192
7.35091
0.029172
0.0500083
0.0218226
0.0398999
0.0220266
0.0521979
3.13537
0.0224284
0.0217781
3.46204
0.0222255
0.243408
0.0220796
2.94097
0.192587
0.0325906
0.0219807
0.0219272
0.0221081
0.0216085
0.0882357
0.0536221
0.0388951
0.0245761
0.0220821
0.359539
0.0225976
0.031617
0.267325
0.0220173
15.7282
0.0421634
0.025576
1.27046
5.62161
0.349711
2.27208
3.20357
0.021858
0.342222
6.62862
0.343697
0.0221731
0.0222098
0.0874979
3.85526
5.95403
0.551896
0.0217729
0.0495388
0.034079
3.9232
5.57867
0.0338711
0.0984977
0.0232928
0.0735514
0.0676736
0.0221648
0.0924164
4.81697
0.0221301
0.326324
0.0222531
0.0217614
5.56408
5.72053
0.0218408
0.0218059
0.0221226
0.021675
0.0459368
0.135651
0.0222038
0.0219827
0.0220977
0.0320345
0.0260103
0.0258785
0.325369
0.0220174
6.23268
9.2377
5.9273
0.14861
0.0463358
0.267133
0.0291651
4.0306
0.27644
2.93208
0.0221945
9.08696
3.85653
0.0217561
0.0220294
0.0952811
7.1047
8.68175
0.0216019
0.0219423
4.41451
2.96533
2.17869
0.0232024
0.0238336
1.85882
0.0221052
4.7828
8.28904
0.24425
1.27978
0.0220453
0.021899
0.021882
0.02597
4.86029
0.0325413
0.0235113
0.0226296
0.0813634
9.02993
0.0320189
0.740441
6.32636
5.4201
2.17878
0.0220462
0.022172
2.51798
0.021634
0.0215828
0.0227452
2.84613
0.0319983
10.9173
0.115998
0.0220181
7.25798
0.0356825
0.0217809
7.37352
0.166946
0.0251221
0.021755
5.89454
7.72049
0.0221802
4.55765
0.325276
8.62926
1.2828
0.0754545
0.0218854
0.0221288
1.51013
0.0241049
1.82074
0.0378611
1.21418
0.207641
0.0228101
0.0282872
0.0218678
0.0225843
7.05465
7.76529
0.0220699
6.0193
0.0344745
0.0219531
0.024461
0.0219207
0.131271
0.022115
2.30991
0.0498025
0.0218746
0.021868
0.0910565
9.26648
0.0335221
0.0233557
0.0388236
0.0220242
0.0224613
0.0247777
10.8
4.50671
7.42743
0.0216979
0.0218613
0.0221619
0.0921671
0.0218571
0.0221868
0.131407
0.047626
0.242095
0.0215437
7.78879
4.45431
0.0222843
11.1003
0.0906006
0.0302973
2.06437
0.0221185
6.2547
0.0288257
0.0228503
0.0237582
0.0216308
0.174969
0.0222558
0.0220179
0.0307864
3.76665
4.13956
0.0222461
0.0220212
0.0228121
0.0218337
0.114384
0.0223923
0.0740594
0.0225733
5.51511
0.0220115
5.05549
0.0216966
7.76916
0.0220492
0.021613
9.39074
0.316555
0.114492
0.236216
0.043659
0.0341245
0.0220451
6.86514
0.0220672
0.0218641
0.0872802
0.0484906
11.8768
6.23772
0.103712
3.96382
0.115532
0.43079
0.0217245
0.0235469
0.0251208
6.6722
0.02485
7.12739
4.97806
0.0217837
0.0220727
0.0219497
1.38522
3.34199
0.0224941
0.0221073
0.0250014
0.0262717
0.0325228
0.303766
0.297126
0.0220632
0.637953
0.0775272
8.62523
0.0617587
0.0227969
0.0230145
7.33521
0.0218792
0.0799182
3.71796
0.0225138
0.0243081
0.135534
0.136554
0.0226237
7.56248
0.0233076
0.20613
0.0316282
0.029405
0.0220954
7.43724
0.0218495
0.0926555
1.46119
7.47453
0.0435156
0.0599361
0.0236099
0.0463003
0.0222658
7.65754
0.0243349
0.0217411
0.0269827
0.0220912
0.0222692
2.92301
0.0220647
0.0221793
0.0219747
0.0998785
0.0222455
0.0309333
0.0574359
0.211832
0.103442
0.0222537
0.228782
0.465871
0.196881
0.0774581
0.0274512
0.126587
1.93958
0.568232
0.0222845
2.30154
3.27815
0.0222839
0.0231507
0.0216245
0.735879
0.0962452
0.0217405
1.29617
6.93285
0.0217991
0.0222075
3.49674
4.7283
0.0497252
0.0216295
7.31516
3.63304
3.30598
0.0220206
6.70762
0.0623143
0.0682627
6.66936
0.0243718
0.0216356
0.0273448
0.170128
0.0281354
3.6628
7.98842
0.0217702
2.28822
0.499337
6.2577
0.0216924
0.0522038
0.0223077
0.0218799
5.85371
0.337482
0.190486
0.328474
0.0283434
0.0440351
0.0220572
7.92454
6.97542
0.0220515
0.0220049
0.0317001
0.0216143
0.0422175
5.21262
6.23389
0.0445252
0.0220911
0.0217657
6.06259
0.0246154
0.0445482
0.0217517
0.0226756
0.647656
0.347503
0.233754
2.97689
0.0221707
0.219697
0.0221236
0.0465267
11.0368
8.52587
0.0220694
0.0222938
0.0291729
0.0255262
0.0221804
5.89685
6.90301
0.0216901
0.0214826
0.0221909
0.0219632
2.72943
0.0216155
3.45664
0.0876644
0.0482374
0.0217669
0.0446969
8.25484
0.0291813
0.433567
7.47336
0.0221469
7.46835
0.0329155
0.0356682
0.348803
8.59871
6.33759
0.0462085
0.0218689
0.239485
0.0216245
0.0252309
0.0221778
3.25
0.0308559
0.711282
0.19181
0.0418845
0.0221243
0.259495
0.0246401
0.0222704
0.257313
0.0215814
0.0300984
0.0303091
0.0221396
10.176
0.0229619
0.571984
0.0226571
0.0219252
7.64366
4.72426
0.0239612
0.0326218
0.0316291
0.0529454
0.0457421
0.0239292
0.0252067
0.0236814
0.17214
0.0247253
3.04429
0.05727
0.195101
0.0883471
0.0220705
5.8748
0.0215948
4.04233
0.0241472
7.11166
0.971309
3.46457
1.36065
0.23611
0.0743222
0.0217276
5.3332
0.0817686
0.0220443
9.74083
1.89785
0.0231206
0.0226254
0.0284402
0.0284308
0.0280453
6.26743
0.022284
0.0256835
0.0291997
0.0310485
0.0221644
0.0650022
0.0215667
2.99748
0.0234005
0.119115
0.0289935
0.0340426
0.114755
0.341695
0.0784479
0.0217914
0.229556
4.87101
25.2026
0.0219141
1.97674
0.0262672
1.79253
0.0220673
0.0240275
5.18726
0.039923
6.52848
8.95665
0.0331106
7.76121
0.0218897
0.0215527
10.2352
0.0593617
0.0239175
5.61619
0.0254113
0.0444573
0.0284871
0.0645721
0.0219497
0.538034
2.13841
7.97789
0.197334
0.0240809
0.052618
6.60388
0.0235941
0.0222126
0.0751798
0.0216628
0.288571
9.62045
7.82108
6.28367
0.0442351
0.0219477
6.59374
0.0215721
0.0588085
0.0222351
26.4606
0.0231849
0.0455815
4.51177
0.101887
0.0220259
0.030947
10.6631
0.0220814
0.112673
0.0217227
7.2116
7.17599
0.0893414
0.0792789
0.0219473
0.168632
0.102764
0.0340195
0.0217292
0.0219357
0.022147
0.0433424
0.0221231
0.0657965
0.0221397
0.0217067
9.05989
0.0217638
0.0253213
0.0233329
0.0222747
4.57504
0.021778
0.0319309
5.81925
0.0374577
2.83945
0.022055
7.60508
0.0392095
6.01971
0.0230422
0.0958968
0.0217636
0.0345938
0.0924602
0.0856059
0.205957
6.62178
0.186683
1.65579
0.0268527
0.0847701
0.0401048
0.445113
0.0247622
0.0217385
0.0220181
0.0413596
0.0439567
0.337172
0.0446421
2.65486
1.36137
0.101285
0.0219398
0.370754
0.19749
0.0224203
0.0238483
0.0220407
0.542992
0.0220269
10.1843
0.0217603
0.0246085
6.72737
0.0742786
0.0220382
0.0220133
7.7142
0.0217978
0.0236157
0.0237291
0.0307727
0.0258714
0.0220318
0.116585
0.0812191
0.0426625
0.250467
6.27572
4.51881
7.44781
0.0217136
0.0219605
0.0973015
0.0219623
0.046347
2.23865
4.76267
0.0216269
0.0220442
3.86916
0.245223
0.0216411
0.0217898
0.0263492
15.395
3.91817
0.0250014
0.0317395
0.0221992
0.285168
0.094619
0.140274
0.0317125
0.0424556
0.0224133
0.0342644
0.24415
0.0227054
0.0218849
0.0249453
4.13859
0.024769
9.36269
0.0221057
5.10542
0.0347729
0.0281576
0.0217638
0.0219141
0.751676
3.36139
0.0578393
4.43709
11.8521
0.022407
5.84941
0.107792
0.0218087
0.334003
0.201481
0.0900201
0.0222537
4.0994
6.18259
0.0217191
0.0379207
4.73181
0.0419166
0.021983
0.0217063
0.0220581
0.0227961
0.0732206
0.222385
0.077619
0.0704104
0.0216818
0.0220965
1.56763
0.0217708
0.0447976
0.026507
0.0217063
0.0443297
0.0220189
0.0233426
0.240618
0.0219956
6.61305
0.0220139
12.6044
4.56734
0.0822389
0.0221037
0.0222927
6.99585
0.0216199
0.0233648
0.0223146
0.315262
0.462864
0.0300599
4.68352
0.040451
0.280547
0.0225511
0.0557992
0.0216381
0.0221389
6.25455
4.82529
0.8593
0.0230924
0.0572619
0.0564909
6.07281
6.13419
0.213974
0.0358633
0.0215686
6.52315
0.0217496
0.0217997
0.199731
0.0865726
0.0277437
0.196901
0.0459379
0.0302075
0.0258756
7.60128
0.0232714
0.0219886
8.51136
0.0455709
0.0216699
3.88156
0.0220324
0.02211
0.130735
0.142721
13.7631
0.0216889
0.0244606
0.0218896
2.25029
0.0218027
0.537593
0.33565
4.4232
3.75791
33.4505
0.0301675
6.42724
0.869782
0.0222098
0.0297729
0.0425267
0.0300167
1.23863
5.60364
6.75073
4.22865
2.43728
0.0220794
0.0834456
0.0220407
5.92326
0.02616
0.0222745
0.0231667
0.0222395
0.0218286
0.0857837
6.89685
0.0217037
0.0228859
0.0218599
5.89056
0.0227737
8.50968
3.0697
0.851742
0.0220939
0.0218338
5.35015
0.37529
0.0221386
0.285171
0.0222282
0.13224
0.185177
0.0814989
0.041796
5.95191
0.0217492
0.0216289
0.157734
3.71211
0.0273651
0.0440084
0.0218956
9.5117
0.0220019
0.0219487
0.022579
0.0219646
6.21174
5.29456
0.278931
0.045807
7.14345
0.346101
0.021638
0.0273375
0.0216654
1.2686
0.021749
0.0243753
0.0219805
0.0219099
0.0216574
2.7661
0.0220712
1.71781
0.0214947
0.0326528
0.0224714
1.58527
0.0220428
0.0279228
0.0292213
0.064952
9.75881
0.0219044
4.90089
0.0625796
0.043529
0.0217881
0.0219315
4.00666
19.7674
0.0217524
0.0217535
0.185607
0.170125
0.03839
5.39589
0.0225518
0.215353
0.0273759
0.021681
0.655333
0.02212
4.16462
0.0220195
0.0222656
0.0221193
5.37063
4.38938
0.0216483
0.242174
0.158095
0.0220602
0.0217427
0.0218731
0.261499
5.83769
0.0584132
0.0227805
0.0358489
0.0220252
0.0220127
0.0228887
0.0220017
0.141455
0.0220358
0.0490577
0.573893
0.0328613
0.021604
1.67482
0.0604233
0.0220347
0.0740178
0.0272438
0.268126
0.0245377
12.2468
0.0507721
0.0219205
0.0792848
0.0785934
0.0234678
8.39468
0.0464771
0.0256035
0.282217
0.0218781
0.141729
0.08705
0.118392
0.0219312
0.0219319
0.0216174
0.0329405
0.0437169
0.0430566
0.961251
6.10441
3.1549
0.0222667
1.89168
4.51216
6.17357
0.0219804
0.021942
0.0443144
4.2637
0.023725
0.0297913
32.5862
6.12275
15.0331
0.114666
0.136236
3.85424
0.426289
0.0215621
10.274
0.182293
0.0220172
0.0219262
0.0224861
7.557
0.0873419
2.31199
0.0232413
2.05372
0.0219228
0.318994
4.3102
0.0221209
0.0292458
6.60685
1.60405
0.0499548
0.022339
0.0233541
0.0223555
0.214719
0.0916849
1.14418
6.09335
0.0216912
6.42722
0.156076
0.237781
0.0220288
0.0221649
0.264907
0.273839
0.0219182
0.0450134
0.073294
0.0390011
2.85192
4.43148
8.20415
6.28974
0.0248728
0.0215946
0.0666001
4.91083
9.19407
0.0217403
0.270574
0.0905478
0.453943
0.0218624
0.0222563
1.20886
0.35594
0.885599
1.68308
4.3814
0.0219477
0.253313
6.27998
0.0221964
0.0627241
0.0911068
0.0216536
0.129381
5.49047
0.24139
0.0222552
5.35757
0.096191
28.9773
0.021479
0.0225577
0.0220042
0.022182
0.0219844
0.0495051
0.0387477
0.0413894
0.332029
0.0291024
5.5697
0.0249749
0.0251638
0.0266326
10.6816
0.0581591
6.72319
0.0268094
0.0275437
23.3225
0.0969647
0.0220593
0.0412699
0.361757
3.31044
0.249774
0.0219129
0.0218625
0.0218561
0.290696
0.0228098
2.51204
1.32879
0.258387
0.0299351
0.217761
7.2914
0.0219859
3.84836
0.0323524
0.0509554
0.0218468
0.0217196
0.0470134
7.57307
0.0220799
6.49319
0.486285
0.0963165
0.170531
0.0218038
0.0220204
0.0269382
0.0221179
27.5588
27.0467
0.0816352
0.757885
0.0218937
0.0219022
0.0219424
0.0222458
10.1225
0.0224127
6.54443
0.086794
0.0218752
0.371446
1.24554
4.03273
10.71
0.0226267
0.0216198
0.0221291
0.0223546
0.742606
0.245004
7.57356
0.0221545
0.0219161
0.156739
0.0222602
0.175985
0.0235607
0.149388
0.170378
0.0398848
0.038231
0.0216788
0.0413946
0.0366222
0.202349
0.0816133
0.0409812
0.0218589
0.229987
0.0218413
2.15438
4.29558
0.940164
0.0220316
0.108607
0.0219659
0.0421399
0.0223983
0.0220169
0.0279369
11.105
4.01229
0.0783973
0.0450126
0.216803
0.0727156
3.44994
7.34349
0.0299147
6.83528
0.333491
0.0217716
0.0570857
7.06415
0.0990906
0.0222359
0.0484303
2.23508
0.277426
8.92159
0.021871
0.255458
0.0220998
0.021895
0.0332274
0.213774
0.0222639
4.50863
7.80179
0.180603
12.6246
0.371912
8.06511
0.251954
0.0216843
0.0237364
0.0215703
0.0417043
0.193413
0.292608
0.0239641
0.0400224
0.0215448
7.31717
0.0323786
0.0427555
4.29288
0.0997127
7.94296
8.35437
0.0219221
8.37589
0.0221185
0.0279786
0.0466345
4.54043
0.115533
0.0275596
0.0222259
0.578028
0.0317262
4.04359
6.73362
0.0320781
3.60064
0.035232
0.022273
1.16223
0.0577186
0.0228717
11.4501
17.2712
0.0270462
0.0258531
0.0985911
6.74655
0.0219244
0.0219722
0.0216449
0.0217254
0.0223428
5.80155
0.0305104
5.35623
0.0219529
0.0217334
0.850964
0.0218754
0.0229898
0.0220531
0.0220246
0.297949
0.0216755
5.77122
0.0217323
0.0223372
0.039127
0.0221861
0.14635
0.0216821
0.0222651
0.0217141
0.0258682
0.0885803
0.0230502
4.42173
0.021873
0.0424129
0.0269016
7.23155
0.0227496
0.0222687
0.0215466
0.02163
0.324706
0.0218635
0.0217577
0.0233545
0.690703
0.0219312
0.0417807
0.0315587
0.0219604
1.78647
8.63997
0.196393
1.24923
0.0232469
0.0848029
0.0221263
0.101367
0.252622
0.0218829
0.292369
0.0987769
0.575283
0.0298721
0.0220253
1.58612
0.0408366
0.727436
5.10637
0.0214894
0.0219564
8.98339
3.60137
0.0467904
0.0540836
0.022721
12.6345
0.58182
0.021481
0.0219559
0.0218502
0.0221728
0.022248
0.0220341
0.0354334
6.5851
0.0298468
0.0221509
0.428001
0.0219783
0.772873
0.0445114
0.0216989
0.0255735
0.0218902
0.344444
0.0244892
0.0517756
0.0219289
0.0219901
6.58817
6.64728
0.0221772
0.0410109
0.0440572
0.0298565
0.0238055
0.0222712
0.0220427
1.35837
0.512022
0.0317553
0.55574
0.0219544
26.486
0.0863275
0.0248012
17.7795
0.0229299
5.23914
1.68209
3.92554
0.821813
6.49097
4.46663
0.0215289
0.0256259
0.0247159
0.021565
0.0216156
0.0263843
0.0761607
0.0216731
0.0289566
0.0931003
0.0737283
0.339145
0.170452
0.0311471
1.53473
5.05034
0.0338171
0.024889
0.0969585
10.3122
5.20409
0.0251498
0.0215404
0.0218165
0.0217078
0.029036
4.72741
0.345068
0.0215831
6.64482
0.021974
0.106167
3.36914
0.0818368
0.179217
0.0897958
0.322443
0.0227166
0.0332927
0.0218373
0.23308
0.0219272
0.0224722
0.0290759
0.114115
0.0221763
0.0244603
6.10869
0.0218091
0.0218519
0.0287315
6.64493
0.103308
0.233106
0.0387349
0.0221493
3.63651
0.0372119
0.0226598
0.0220107
0.0294043
0.0254556
0.022024
0.0247231
5.61831
0.0230873
0.0215906
0.0464746
0.0218573
0.0310368
0.0298316
0.0220631
0.0219879
5.65637
0.0216765
0.0220244
0.0216206
0.0252972
0.0214507
6.73354
0.0246012
0.193345
0.0219574
0.0217386
0.0217209
6.71415
0.0495402
0.02204
0.0215168
1.57181
0.0250367
0.0560472
0.0218395
0.12846
0.022951
0.021532
1.40952
0.0215934
0.0222083
0.0221456
0.021741
0.0240229
0.0221277
0.0220316
1.64316
1.53858
5.68168
0.191002
10.8022
0.0217967
8.05309
0.0219627
3.6807
10.3965
0.021788
12.4353
0.021975
4.35617
12.8068
0.27649
6.41037
5.16495
0.767615
0.26362
7.78396
2.54674
0.0404629
0.0334791
5.78821
0.0233535
0.0216248
0.325842
0.0230299
0.0278255
9.29849
0.0226679
0.216566
4.55887
4.1606
0.301514
0.0911922
0.0222517
0.0276823
0.048078
0.0220012
4.27783
0.336836
0.10915
0.0218586
0.0220683
9.39608
0.0216427
0.643685
0.0217378
11.3071
6.46519
0.034133
0.0253261
0.0219514
11.6321
2.70993
0.0248847
0.0317045
0.0222857
0.0222855
0.045518
0.0230439
0.0319085
0.0634648
0.023839
0.0282419
0.0220344
0.0314671
17.4486
0.0219874
9.92139
0.021791
0.255769
0.0548655
0.0220316
4.65679
0.0952216
0.0218133
0.152695
0.0220342
0.233445
0.0221426
0.0219991
3.37143
0.0221448
0.0897441
0.022737
0.104481
0.0217486
0.022252
0.0218424
0.029549
0.0239483
0.0222105
0.0224831
0.0253543
0.0223508
0.0932467
0.0614088
0.025579
0.0234022
0.0215219
2.33257
3.01173
0.0226743
0.0224388
0.0225597
0.0360497
0.022069
0.0328818
0.0215404
0.0222853
0.174658
0.0232112
0.0222847
0.0218799
6.54148
13.142
0.0215753
0.0675921
0.059276
0.20845
0.164366
8.92099
6.88031
0.576991
0.0223101
0.103406
0.0219228
0.0313074
9.37348
6.53236
0.13132
0.0238223
17.2163
0.0220351
0.0432885
0.350622
0.0221469
0.101554
0.0229977
0.0228504
0.0687226
0.112111
2.3452
3.70788
0.0217594
0.0215476
6.20118
4.57122
0.0221499
0.0283688
0.0916061
0.0220682
0.0220111
0.0234787
0.267447
0.0217388
5.89111
0.0288974
0.0219631
0.185484
0.0562393
0.052099
0.106507
5.82152
0.0242756
0.0305556
0.0274497
0.0235328
11.8949
0.0278265
1.14554
6.95651
0.0632249
3.94983
0.0427881
0.0452924
0.325056
0.0216897
7.35807
0.0806056
0.0324555
0.028584
0.0221771
0.0215927
3.24924
0.0404199
3.39384
0.70004
0.0221144
6.16346
0.0218174
0.0219204
0.0283036
13.0695
0.0578651
0.0215373
1.62359
0.0219567
0.0234261
4.24685
0.0231501
3.8077
0.0222727
7.01838
0.40743
0.0688756
0.809266
0.0231991
3.9653
0.0215226
6.88882
6.29995
6.1582
7.05576
0.0219408
0.021698
0.221998
4.32991
4.07658
4.03403
4.14161
0.0220034
7.33929
3.90879
0.0223131
1.14004
0.0316533
0.0309797
11.992
0.0367247
3.88944
0.0218466
0.0362266
0.030304
0.185585
8.14472
0.0351802
4.03908
2.94542
0.0221713
0.0243361
0.0234328
0.0235235
4.10956
0.0220052
0.0217311
0.0377377
4.55392
4.55835
0.0262953
4.14176
4.34996
0.021922
10.9284
6.44989
0.132409
4.23806
0.0603457
0.023982
0.022172
0.145815
0.0250447
0.0739297
11.7792
6.12681
0.0282031
0.0570594
0.0256467
0.0312925
0.0216366
0.0329937
0.0245438
0.0836863
2.37846
1.47054
3.8307
0.0215588
0.0981849
0.0491292
6.72729
0.0232654
6.84335
2.93997
7.20394
0.0217208
0.170723
5.07518
11.4456