/*--------------------------------*- C++ -*----------------------------------*\
| =========                 |                                                 |
| \\      /  F ield         | OpenFOAM: The Open Source CFD Toolbox           |
|  \\    /   O peration     | Version:  v2012                                 |
|   \\  /    A nd           | Website:  www.openfoam.com                      |
|    \\/     M anipulation  |                                                 |
\*---------------------------------------------------------------------------*/
FoamFile
{
    version     2.0;
    format      ascii;
    class       volScalarField;
    location    "100";
    object      p;
}
// * * * * * * * * * * * * * * * * * * * * * * * * * * * * * * * * * * * * * //

dimensions      [0 2 -2 0 0 0 0];


internalField   nonuniform List<scalar> 
13917
(
-0.0874133
-0.000775185
-0.0552294
-0.0295333
0.0277284
0.456436
-0.0540915
-0.0560095
-0.0844795
-0.14522
-0.0646964
-0.0546851
-0.0298908
-0.0511509
0.0442642
0.0219566
0.00506482
-0.106847
-0.0542032
0.0116401
0.0209252
-0.0511038
0.0162311
-0.0601105
0.0270872
-0.05132
0.216277
0.227118
0.0763959
-0.191315
-0.100817
-0.043636
0.169562
0.109675
0.0317533
-0.0586191
0.0162734
-0.0532897
-0.0346051
-0.0491815
0.00218471
0.0196541
-0.00750561
0.25214
-0.0185965
0.126024
-0.104069
-0.096413
0.506596
0.00679076
-0.0569445
0.0580181
0.509959
0.113801
0.00633246
-0.0602926
-0.0654859
0.0257867
-0.0482467
-0.0174465
-0.459855
-0.00224671
-0.0520314
0.0117649
0.447051
-0.449981
0.0286643
0.036049
-0.0906436
-0.0550344
0.0273181
-0.0872706
-0.105155
0.0263877
0.491675
-0.0501954
-0.0690437
-0.0313694
-0.0512269
0.0206955
0.0178301
0.0281189
0.431947
-0.0533458
-0.481014
-0.0304008
0.0158608
-0.394792
-0.0554094
-0.00778845
-0.0715257
-0.182461
-0.00507952
0.0469623
-0.418066
0.449966
-0.0771583
-0.100262
-0.0530769
0.328384
0.000702893
0.16737
0.261159
-0.0372204
-0.00187753
-0.099383
0.0464391
-0.0980293
0.00326443
-0.104673
-0.339519
-0.0492232
-0.0551661
-0.0946923
0.0745254
0.514213
0.018275
0.497535
-0.0531528
0.112178
0.0197271
-0.0920974
-0.0511757
0.221137
0.00531604
0.0456427
-0.014492
0.00554013
-0.00577409
0.457196
-0.0545749
0.0722501
-0.0188656
0.0212047
-0.226047
-0.0585077
-0.0853386
0.342972
0.0289769
0.111502
-0.060289
-0.00838627
0.0605056
0.287204
0.036641
-0.0871979
0.0149686
0.0562147
-0.00779303
-0.0397556
-0.0745754
0.510017
-0.0664967
-0.0254316
-0.0559293
-0.476988
-0.0498484
-0.0687586
-0.0680363
-0.232564
0.0803727
0.216921
0.0184776
-0.0763826
-0.0555641
-0.0533794
-0.0365034
-0.0853826
-0.0133132
0.172945
-0.0455548
-0.404079
-0.0537989
0.00732639
-0.0777904
-0.0197962
-0.0522116
0.504601
-0.0876566
0.00605869
-0.187947
-0.106347
-0.00888612
0.0160963
0.0756426
-0.0530542
-0.298023
-0.47359
-0.0900156
-0.0566374
-0.0654038
-0.481528
-0.301302
0.0198429
0.361604
0.208122
-0.00121531
-0.00508905
0.029325
-0.388387
-0.0469709
0.00705588
-0.0801318
-0.073494
-0.102881
-0.150544
0.0314705
0.0265947
-0.0974615
-0.0527164
0.0584063
-0.0540302
-0.103245
-0.0571248
-0.00152691
0.308016
-0.0916259
-0.291083
0.0158932
-0.446139
0.00625265
-0.174051
0.00258079
-0.0506039
-0.103645
0.0209218
-0.336754
-0.058783
-0.000974269
-0.0587262
-0.0532889
-0.0881292
-0.0549086
-0.106036
-0.000829194
-0.0469362
-0.0724454
-0.484446
0.0188971
0.00726849
-0.0495278
-0.079303
0.00989402
-0.0576211
-0.135821
0.209609
-0.0815806
0.0181679
0.0152808
-0.0865687
-0.0204375
-0.214657
0.343212
-0.0143562
0.0264617
-0.0645867
-0.0495604
-0.0662155
0.0740712
0.0405606
0.0101599
-0.0506184
-0.221766
-0.0545924
-0.00050495
-0.160693
-0.0510096
-0.0678501
-0.048218
-0.0504183
0.0182161
0.00431742
-0.101712
-0.0562592
-0.109005
-0.0465246
-0.154458
-0.0457581
-0.0057324
-0.354021
0.0105775
-0.0752678
-0.0455948
0.00984605
0.0144247
-0.0204108
0.217033
-0.0576448
0.0110185
-0.0226484
-0.232575
-0.0560036
-0.219872
0.0161716
-0.0714151
0.0258012
-0.0226663
0.0179114
-0.0217173
0.00853146
-0.179734
-0.0768979
-0.0130625
-0.0795926
-0.0175544
0.515076
-0.0175959
-0.17495
-0.0125991
0.025729
-0.35563
-0.0527732
0.0179585
0.00354259
-0.355039
0.00238477
-0.102073
-0.0119209
-0.0518365
-0.0239827
-0.293044
-0.0683348
0.471144
0.0767576
-0.238055
0.344454
0.0122539
-0.0809502
-0.0933418
0.0251105
-0.0528527
0.357893
-0.0505344
0.0986856
-0.0499457
-0.0527906
-0.445361
0.340796
0.0243991
0.0121191
-0.0560806
0.0218236
-0.052451
-0.344818
0.0396527
0.0170957
-0.0520386
0.0232221
0.00267393
-0.0660114
0.113786
0.00228611
-0.0508074
-0.0613112
0.0106674
0.00521059
0.0256287
-0.00814353
-0.224415
-0.0842578
0.412606
-0.360581
0.0229382
-0.222818
-0.470521
-0.0750479
-0.0519834
-0.0582489
-0.0987138
-0.00128693
-0.0545848
0.00373846
-0.444506
-0.0166403
0.46017
-0.139961
-0.0373042
0.0221924
-0.0958053
-0.19557
-0.117232
-0.135154
-0.440823
-0.293065
0.00896499
-0.136943
0.00742381
-0.48608
-0.0517197
0.0213648
-0.232764
0.0266851
-0.161849
-0.0241052
0.0217871
-0.0132254
-0.0497484
-0.0115938
-0.0504774
-0.45906
-0.0621664
0.379855
0.0233264
0.325879
0.361704
0.0145107
0.054207
0.0382257
0.0279764
-0.191997
0.0102358
0.0285705
0.00342795
-0.220814
0.0206703
-0.0503261
-0.0491153
-0.462126
-0.297134
-0.0501245
-0.238799
-0.0734111
0.0224614
-0.171068
-0.034468
-0.0526398
0.0198864
-0.0835383
-0.0541896
-0.050525
0.0334037
-0.135032
0.0955985
-0.0354739
-0.114629
0.000380803
-0.053762
0.00224287
0.00860354
-0.103895
-0.0528635
-0.0525106
-0.213886
-0.462535
-0.0524799
-0.242498
-0.0584639
-0.00514061
-0.100139
-0.00140795
0.029123
-0.16008
-0.10382
-0.00697684
-0.133671
-0.0752966
-0.0556357
0.0143964
-0.0899387
-0.460176
-0.330899
-0.0507903
0.0209915
0.0225514
-0.00151031
-0.0447758
-0.00133591
-0.0518917
0.419495
0.00921068
-0.482425
-0.0593104
-0.0746169
-0.245876
0.00642795
-0.0617137
-0.0605402
-0.0887956
-0.137387
-0.14936
-0.0580508
-0.0581503
0.445171
-0.0540922
-0.0938343
-0.00350244
-0.201087
-0.0599986
-0.0132001
-0.039719
-0.0332431
-0.0571667
-0.0970428
0.0028685
-0.00561426
-0.0538357
-0.240894
0.0100615
-0.0503635
-0.0325089
-0.273027
0.00386264
-0.129631
-0.0913751
-0.0422977
-0.016598
-0.0492535
-0.285152
-0.481993
0.010357
-0.096277
0.511467
-0.368334
-0.0133053
-0.48431
-0.21837
-0.0722799
0.00463462
0.0112211
-0.0489553
-0.161853
-0.00708604
0.00543559
0.00561276
0.00536051
-0.156394
-0.165024
-0.0722398
-0.290928
0.00412117
0.0010367
-0.131015
-0.139758
-0.0826867
-0.0142216
0.02749
0.0317398
-0.362577
-0.479476
0.0144264
0.031558
-0.0540903
-0.0586659
-0.0671888
0.0237149
-0.00922966
-0.0278223
-0.0918613
-0.0724566
-0.301276
-0.170663
-0.112054
-0.145637
-0.172202
0.0172731
-0.0898386
0.0314059
0.0161835
-0.0396244
-0.194195
-0.0239194
0.00107576
-0.327447
-0.200895
-0.450805
-0.114553
0.116858
-0.0769603
0.0224391
-0.218645
-0.307406
-0.0553539
0.00275538
-0.0705551
-0.295287
-0.057622
-0.156564
-0.10187
-0.224196
0.0260991
-0.0353145
0.0248822
0.0940934
0.280081
0.0503314
-0.0891271
0.346754
-0.0543096
-0.482957
-0.012688
-0.0737879
-0.0907419
0.00879565
0.0546724
0.342395
-0.134982
-0.0751846
-0.278541
-0.00566284
-0.0511503
-0.0494746
0.00106883
-0.0745408
-0.0780642
0.161559
-0.186084
-0.0498804
-0.145943
-0.055867
-0.20855
-0.0355151
-0.0581884
0.0192443
0.0145957
-0.0700851
-0.127482
0.420128
-0.0358606
0.00597107
0.0311059
-0.0466023
0.501906
-0.0532954
-0.0375011
-0.0618383
-0.09319
0.00426008
-0.319366
-0.0527387
-0.0516389
0.0138
-0.139184
-0.0326793
-0.459028
-0.150641
-0.0322823
-0.0719154
0.00311334
-0.0118142
-0.0155238
-0.0201369
0.127161
-0.247482
0.0719526
-0.0862464
0.00269196
-0.15559
0.413454
-0.0599889
-0.019976
0.117735
0.00599481
-0.0453659
-0.0503937
-0.215727
0.021088
-0.37082
-0.0465905
-0.0640577
-0.183513
-0.117445
-0.0556828
0.0116805
-0.0587371
-0.160345
0.0138274
-0.0387364
-0.100162
-0.270789
-0.106874
0.00991583
-0.0177045
-0.273252
-0.0377623
-0.118464
-0.0644072
-0.0122628
-0.0713978
-0.057454
-0.0194689
-0.0281964
0.0061766
-0.051661
0.0215804
0.0335542
-0.412166
0.0259497
-0.126219
-0.055198
0.173378
0.00590635
-0.0324185
0.0182767
-0.137991
0.00327624
-0.113909
-0.0323454
-0.45364
0.18085
-0.146683
-0.000755419
0.022166
-0.164628
-0.117948
-0.051671
-0.109904
-0.109325
0.0302085
-0.213135
0.438047
-0.0518375
-0.243812
-0.0965531
-0.0504354
-0.079086
-0.0454207
-0.175455
0.0517848
-0.108271
0.432439
-0.110611
-0.0327793
-0.0786257
0.00785027
-0.0154722
-0.0452913
-0.105316
-0.0353846
0.0203777
0.00380807
-0.0897002
-0.0376605
-0.121612
0.0294961
0.0276549
0.0218235
-0.00477333
-0.0091708
-0.0313723
0.00672063
-0.131462
-0.0528949
0.376235
-0.000286093
0.0158864
0.188095
-0.140638
0.0696144
-0.337416
-0.153386
-0.426578
-0.0464834
-0.14051
-0.028843
0.0190664
0.00504181
-0.0159533
-0.458018
0.0155918
-0.139958
-0.0325335
-0.472289
0.0209086
-0.161059
-0.0637447
-0.00698674
0.00997458
-0.053575
0.0359429
0.0359465
-0.314899
0.00625631
0.0255893
-0.0633659
0.00641206
-0.00475439
-0.041208
0.1328
-0.0509828
-0.0695274
-0.0194088
0.00180415
-0.0584791
-0.0102298
0.0183495
0.00179925
-0.330984
-0.0955341
-0.343978
0.110544
-0.0335542
-0.000467895
-0.00490409
-0.0550967
-0.0743421
-0.0694228
0.10214
-0.0543737
-0.00848448
0.0548614
-0.355401
0.0270431
-0.0606406
0.0148873
0.00821995
-0.0987513
0.224255
-0.0273094
-0.121024
-0.0495494
-0.186591
0.0169488
-0.0102137
-0.0558619
-0.144687
0.010457
-0.134474
-0.00991917
-0.10015
-0.015432
-0.0162326
-0.165086
-0.0199266
-0.0503483
-0.0993162
0.0223616
-0.00709061
0.0426285
0.00772264
-0.02794
0.230978
-0.0188051
-0.013474
-0.0658277
-0.0837725
-0.0566902
-0.112217
-0.10848
-0.050783
-0.00811478
0.129264
-0.0987808
-0.125558
0.0242484
-0.0153959
-0.105366
-0.0827348
-0.371231
0.0221511
0.071786
-0.0515078
-0.0745797
-0.0290456
-0.476828
0.468628
0.0072356
-0.171631
0.00478113
-0.019084
-0.000470755
-0.156072
-0.00894708
-0.0182088
-0.00862714
-0.0497547
-0.0343693
-0.277327
0.274353
-0.0165843
0.166242
0.0138288
-0.367882
0.00886916
-0.0192257
0.0254772
-0.0562289
0.0256697
-0.142634
-0.0506692
-0.0566885
0.113727
-0.061951
-0.421353
0.0243685
-0.0506773
-0.473885
-0.418308
-0.0500432
-0.0645706
-0.461691
-0.153176
0.00948342
-0.05
-0.0743361
-0.0528901
-0.0128376
-0.00594449
0.0168433
0.0140308
-0.0544749
0.120264
-0.050568
-0.00596596
0.0301869
-0.477926
-0.0719212
0.0424791
0.193975
-0.0708385
-0.023804
0.114843
0.198389
0.068186
-0.0347753
-0.0491926
-0.361762
0.496695
-0.0152126
-0.282831
-0.194993
-0.473026
-0.105199
-0.0522214
0.0027845
-0.0297042
-0.00715638
-0.00709986
-0.00753393
-0.00509979
-0.0295187
-0.0750036
-0.482761
-0.0907688
-0.0186164
-0.13673
-0.227653
-0.0937532
0.050359
-0.0611573
-0.0121103
0.0350921
0.186014
-0.483386
0.0257015
0.0144699
-0.0526046
-0.0627535
-0.0868662
-0.111011
-0.0590993
0.00958608
-0.162999
0.0511358
0.0121206
0.0535502
-0.0513387
-0.342493
-0.0144057
-0.00740391
0.0150196
-0.0970912
-0.00370344
-0.0710883
0.035067
0.00352552
-0.16469
-0.0170334
-0.140404
-0.189759
-0.0520401
-0.0132988
-0.0964089
-0.0128656
-0.125389
-0.219999
0.0277517
-0.345946
-0.11015
0.473585
0.0257804
-0.0498418
0.024411
-0.0589844
-0.0891116
-0.113031
-0.0535008
-0.052193
-0.0521223
-0.144937
0.00247365
-0.125972
-0.0162176
0.00530514
-0.0551617
0.0285154
0.024393
-0.01717
-0.0223578
-0.481577
-0.00616055
0.0165735
-0.0727732
-0.117219
-0.085281
0.441501
-0.0513911
-0.469097
-0.0483725
-0.0808484
-0.0445061
-0.0598552
-0.0578955
-0.459961
-0.0488408
-0.046444
-0.0171907
-0.04987
-0.0521775
0.0555422
-0.140877
-0.0847604
-0.0257494
-0.0555502
-0.0233146
-0.090695
0.0107535
-0.0939846
0.301634
0.00427435
-0.135063
-0.0150313
0.0173321
0.00309951
0.114969
-0.102914
-0.0388138
-0.0236886
-0.0143305
0.281497
-0.16877
-0.116823
0.0284798
-0.00519716
-0.0885972
0.0159389
-0.166644
-0.171968
-0.0257079
-0.135068
-0.0146172
-0.430171
0.0537309
-0.0544368
-0.0521042
-0.119452
0.0110977
0.0105483
-0.04834
0.0117924
0.00692877
-0.471609
-0.158793
0.0919158
-0.051268
0.0112744
-0.0235343
-0.0529696
-0.0171837
-0.00674237
-0.0889183
-0.015927
-0.0756359
0.0178065
-0.00628405
0.0201335
-0.0517841
-0.0506653
0.0380874
0.0282293
0.00989115
0.0369661
0.00809609
0.42102
-0.129501
0.010595
-0.0803085
0.0120734
-0.128275
-0.0532054
0.387537
-0.0139045
0.0482832
0.0164074
0.0600425
0.0488993
-0.0510833
-0.394444
0.0740548
-0.0539741
0.487404
-0.0910799
-0.0513257
-0.0479199
0.429741
-0.0536458
0.00822773
-0.370471
-0.0540618
-0.0579011
0.0297904
-0.0575574
0.220682
-0.0129723
-0.0383163
-0.465607
-0.0298378
0.00228735
-0.0414069
-0.171138
-0.0796116
-0.0543974
-0.00182124
-0.145005
-0.0479214
-0.0508043
-0.151013
-0.290322
-0.0681976
-0.0139368
0.0037253
-0.0569908
0.0157896
0.0711439
-0.00323446
-0.0113954
-0.00840165
0.0778455
-0.0579006
0.447091
0.12409
0.266152
-0.0502633
-0.0872571
-0.0105868
-0.0928328
-0.0509065
-0.0075104
0.00636203
-0.0750428
-0.459462
0.0243619
-0.128297
-0.179439
-0.0843014
0.0390123
-0.0323744
-0.0170684
-0.14462
-0.0237366
0.00645478
-0.450551
-0.0509354
0.011852
-0.137482
-0.0573538
-0.401071
0.0236306
-0.0524406
-0.0526916
-0.122915
-0.0527318
0.234725
-0.0490381
0.0188346
-0.0202658
-0.00283922
0.0337062
0.0619869
-0.053936
0.0124372
-0.0680271
0.0066638
-0.0658347
-0.0155656
-0.161271
-0.0611548
-0.355091
0.0237926
-0.293152
-0.0201401
-0.0543171
0.0270952
0.108797
0.0240378
-0.0714081
-0.120313
-0.0532491
0.0117215
-0.0930856
0.00915912
-0.0543105
-0.119789
-0.017788
0.0545987
-0.112679
-0.0740665
-0.0534433
0.013077
0.030021
-0.0290264
0.0200033
0.125405
0.00770053
-0.00176029
0.067944
-0.085601
-0.0338308
-0.0687
-0.0786655
-0.111455
-0.0507793
-0.031512
-0.0015813
0.0355826
-0.176372
-0.0318664
-0.0235199
-0.0668536
-0.373109
0.00598386
-0.458207
-0.136664
-0.124113
-0.00760543
-0.00660222
-0.0519278
0.053295
0.0228078
0.173206
-0.0123503
0.0816696
-0.0576914
-0.0654977
0.435437
-0.0530009
-0.0349964
-0.0709547
-0.0505741
-0.0479819
-0.0575427
0.167906
-0.470132
-0.0899186
-0.470535
0.0879544
-0.424917
-0.46036
-0.0135068
0.0110135
0.00839301
-0.0292237
-0.111061
-0.0159406
0.0890651
-0.0511709
-0.0361425
0.0727408
-0.0752183
0.126244
-0.0443292
-0.0793892
-0.0285799
-0.0506097
-0.0390643
0.104189
0.00477913
-0.139879
-0.38558
0.00818164
-0.0307496
-0.0491569
0.12386
-0.482876
0.00754658
-0.0164653
-0.0558468
-0.0319842
0.153579
-0.460386
0.0306979
-0.122085
-0.0553089
-0.00692747
0.00314245
-0.0499135
-0.429395
-0.0128895
-0.040045
0.0281248
-0.0314003
0.187316
-0.0588002
0.0477283
0.409336
-0.0697876
-0.0513258
-0.124933
-0.0313988
-0.05139
0.0798884
0.118017
0.0269738
-0.0651387
-0.0621187
0.0650267
0.17914
-0.0583097
0.445756
0.419067
0.106071
0.0266562
0.0244651
0.0315447
-0.391135
-0.0883234
-0.0404219
-0.031705
-0.0443087
0.0180095
0.0157708
0.0354347
-0.0715502
-0.047209
-0.0780945
0.128362
-0.461452
-0.0500323
0.0296689
-0.0936125
0.000326727
0.00565017
-0.134834
0.00057832
-0.00538477
-0.084616
-0.104289
0.260767
-0.0491145
-0.0631904
-0.0114285
-0.0553247
-0.007376
-0.0244877
0.064552
0.0228723
-0.0201671
-0.0960381
-0.200014
-0.0160622
-0.0512835
-0.00388718
-0.0139844
-0.00550163
0.432896
-0.0484747
-0.038277
-0.477592
-0.0188344
-0.0706638
-0.0499821
0.0100256
0.122698
0.00728439
-0.0514324
-0.127923
0.0365691
-0.050954
-0.0981569
0.239947
0.0182725
-0.375436
0.0914162
0.407779
-0.0286429
0.146666
-0.182007
-0.0136869
0.31326
0.0369378
-0.138573
0.208465
0.00988989
-0.483311
0.0255974
-0.102357
-0.126124
0.341204
0.0177858
0.066802
0.0467284
-0.0574076
0.0588219
-0.0507338
0.08234
-0.0653759
-0.0113633
-0.106445
0.0368281
-0.0486094
-0.0547811
0.00375782
-0.00294046
0.484042
-0.0328008
-0.0501928
-0.0254975
-0.0520571
-0.0511087
-0.0670862
0.015276
0.00971971
0.0277334
-0.00538689
-0.149666
0.0381679
0.201322
-0.0331114
0.0102526
-0.159728
-0.0405869
-0.0620225
-0.0505721
0.0353736
-0.45921
-0.0875836
-0.0435252
0.498905
-0.0647073
-0.245309
-0.0538953
-0.391053
0.00518423
-0.191651
-0.465989
0.44258
0.0132359
0.0524043
-0.068337
-0.0524079
-0.050333
-0.340372
-0.0225509
0.113177
-0.0907474
-0.0509782
-0.458823
-0.0689217
-0.0817738
-0.00377654
-0.16514
-0.0516556
0.013424
-0.176039
-0.322162
0.0264797
-0.0745066
0.0143026
-0.0186826
-0.0528232
-0.0631645
0.00213919
-0.0232744
-0.0199372
-0.0156998
-0.0493451
-0.100488
-0.0323936
0.0104204
0.0120644
-0.0562476
-0.0542776
-0.0497548
-0.236834
0.0326196
-0.0760289
-0.481798
-0.0532083
0.098722
-0.125555
-0.0838926
-0.0773302
-0.0533938
-0.0676722
-0.407296
0.00564319
-0.349507
-0.0516555
-0.00111345
0.0192805
-0.19664
-0.417939
-0.421112
-0.0167904
0.011389
-0.0515351
-0.385787
-0.397538
-0.02751
0.0874714
0.503531
0.0291449
-0.0530218
-0.476713
-0.0606577
-0.386185
0.0395092
0.0103408
0.00334196
0.106704
-0.0509398
-0.0660154
-0.0454611
0.0675588
-0.108648
-0.426904
-0.0554234
-0.118372
-0.477606
-0.0522597
0.449233
0.0280594
0.0126692
-0.0528826
-0.00593503
-0.0128063
0.024173
0.51848
-0.0851866
-0.475101
-0.185354
0.0225517
-0.111304
-0.0969347
-0.00762079
-0.484779
0.215874
0.104858
-0.0236353
-0.460818
-0.324298
0.0252515
-0.272957
-0.0683758
-0.478054
-0.38968
-0.168734
0.00897409
-0.0268751
-0.31887
-0.0520423
-0.0545309
-0.104264
-0.389571
-0.0914141
0.065154
0.0712965
0.00514521
0.0519976
-0.454329
-0.0501868
0.0314744
-0.483173
-0.0705431
0.0126519
0.0708302
0.00960516
-0.129211
-0.018694
0.502516
0.0891706
0.00725771
0.00266723
0.327967
-0.0595646
-0.0913167
-0.00681831
-0.106559
0.0365896
-0.0345971
-0.0564984
-0.397886
-0.0507786
-0.378218
-0.00356528
0.00270319
0.00931575
-0.0522802
0.00382986
0.00752243
-0.0941075
-0.0834255
-0.0685084
-0.0130288
-0.269076
-0.0505649
0.0100255
-0.442729
-0.0871446
-0.058407
0.475257
0.00815021
-0.483863
0.0839811
0.0494501
0.0810262
-0.00581472
-0.0568237
-0.000339391
-0.0283281
0.154939
-0.049342
-0.0509733
0.0145704
0.00660276
-0.031006
-0.0123647
-0.153827
0.056844
-0.156605
-0.0400808
-0.0609882
-0.0302264
-0.0548711
-0.0040007
-0.162294
-0.0233768
-0.00641111
-0.480615
0.321043
0.350588
-0.0599734
0.160178
-0.085728
0.0345913
-0.294288
0.0319255
0.00439903
0.329816
-0.0514638
-0.477023
-0.462057
-0.142854
-0.214028
-0.186571
-0.299665
-0.00694991
-0.0499021
-0.0580326
-0.100348
0.102269
-0.199193
-0.0513792
-0.0247241
0.0429364
0.016314
-0.32673
0.461289
-0.0387394
0.019348
0.0229129
-0.0533571
-0.086881
-0.274507
-0.159804
0.00970524
0.39585
-0.174672
-0.108139
-0.124775
-0.00384268
-0.0383073
-0.108637
0.00333685
-0.161449
-0.054686
0.0312273
-0.0318268
-0.098039
0.343831
0.0518447
-0.0518081
-0.0434822
-0.121762
-0.0476377
0.0524161
-0.0328293
-0.339333
0.00258892
0.0569337
0.50278
-0.448397
-0.114227
-0.155257
-0.0466056
0.104442
0.0241255
-0.455813
-0.0537815
-0.020841
-0.0722453
0.0110322
0.010875
0.517172
0.0266314
0.00932619
0.0188614
-0.0785402
0.0545661
-0.0539729
-0.0732177
-0.280887
-0.181302
0.0244248
-0.0446051
0.214143
-0.261764
-0.1759
0.126962
-0.122887
-0.0586359
-0.336765
0.0108935
-0.296703
-0.0513448
0.0106091
-0.0413608
-0.00560893
0.437405
-0.201671
-0.022905
0.496319
-0.153471
0.000313928
0.0527307
-0.049189
-0.0515822
-0.0521421
-0.00645433
-0.431455
-0.049585
0.441
0.0189943
-0.0941359
-0.0510605
0.133069
-0.431322
-0.0572531
-0.00535768
-0.0730796
-0.252685
-0.0749582
-0.0505328
-0.25398
-0.00359992
-0.153289
-0.00961458
-0.465465
-0.00428805
0.249751
0.0573204
0.00804994
-0.0519152
-0.105259
-0.113573
-0.0727713
0.0349755
-0.112737
0.00151213
-0.381499
-0.050121
0.0346513
-0.0141281
0.160483
-0.0178428
-0.0905874
-0.0558543
-0.278469
-0.113875
-0.0247432
-0.0240429
-0.0589325
0.0703063
-0.0987025
-0.00447249
0.0221564
-0.343427
-0.110748
-0.0875739
0.333622
0.0121421
-0.156941
8.84951e-05
0.0920971
-0.445097
-0.476945
0.0260077
0.0199863
-0.0537438
0.100058
0.050723
-0.0542917
-0.12741
-0.0116324
-0.00704802
0.0250237
0.0090817
0.284262
-0.0145596
-0.0485119
-0.144437
-0.0501537
-0.00832869
-0.0858853
-0.271381
-0.0764827
-0.0310703
-0.483736
0.0296972
-0.111447
0.160381
0.184283
-0.0153936
-0.251356
-0.464048
-0.0541202
0.00639995
-0.172755
-0.0145539
0.103782
0.0475786
-0.0512607
0.064667
-0.38518
-0.05528
-0.106738
0.0268931
-0.293258
-0.0579003
0.0112012
0.429105
-0.00602926
-0.0440227
-0.0858291
0.0458289
-0.426813
0.0119951
0.441119
0.0468637
0.00922137
-0.480406
-0.0531164
0.0823877
0.167106
-0.0584145
-0.132755
-0.0638684
-0.0472257
0.0332069
-0.0513231
-0.0617891
0.0838477
-0.0501535
0.0299397
-0.059624
-0.0509773
-0.0318713
-0.0545053
-0.00560726
-0.0553465
0.0909554
-0.353922
-0.381265
-0.398554
-0.305983
-0.166572
0.081924
-0.0223059
-0.0548489
0.0878198
0.0361408
-0.370318
-0.0764721
0.0646303
-0.03956
-0.0644807
-0.0670761
-0.0680277
-0.10606
0.00991408
-0.044563
-0.0595182
0.0417023
0.0128591
-0.0622296
-0.00917823
-0.0513362
0.057434
-0.193859
-0.0769539
-0.0921102
-0.208321
-0.101756
-0.179683
-0.00158705
-0.143737
-0.0543263
-0.473495
-0.0282971
-0.0516957
-0.0685629
0.492209
0.0318612
0.036974
-0.0545464
-0.0532337
-0.479252
-0.303554
0.157774
-0.131938
0.00436485
-0.00957597
-0.244432
0.281965
0.0302296
-0.0685606
-0.0472988
0.0840163
0.0511591
-0.162184
-0.0128356
-0.0898109
-0.060992
-0.476044
-0.115667
-0.0516539
-0.135692
-0.472452
0.0306296
0.0359431
-0.168711
-0.00445359
0.210498
-0.480688
-0.0506187
-0.051561
-0.0701112
-0.0292583
-0.07672
-0.00708396
-0.0739967
0.0199988
-0.459381
-0.0104881
0.0311353
-0.0522672
-0.15012
0.00889804
0.0353205
-0.460832
0.0440657
-0.090391
-0.00828457
-0.399816
-0.235851
-0.0825953
0.312862
0.00654219
-0.050856
-0.0633193
-0.0934368
-0.00774489
-0.0286669
0.00906966
-0.0687714
0.0264574
-0.0628444
0.0478044
-0.0114029
-0.34382
-0.00987879
-0.0487295
-0.0451637
0.0175819
-0.0521158
-0.00679297
-0.0348036
-0.0583905
-0.0519803
-0.0496573
0.0409485
-0.358033
-0.0523395
-0.0680159
-0.00258615
-0.0707274
-0.0239553
-0.087818
-0.0644872
-0.0613457
-0.234291
-0.108323
-0.22943
-0.34393
0.116895
-0.0675213
0.0332795
-0.29764
0.0806783
-0.0231607
0.0351177
-0.0708804
-0.015821
-0.118686
-0.0923646
-0.0557151
-0.198222
0.338624
0.0138208
-0.112808
0.180473
0.0573475
0.0747431
0.0358783
-0.060697
0.0358808
-0.0496378
-0.00906504
-0.0552477
-0.302327
-0.0482776
0.0278728
0.0340251
-0.0921237
-0.00432016
0.0338626
-0.0520489
-0.0299863
-0.0578069
0.0108338
-0.0529023
0.328206
0.112789
-0.26727
-0.463822
-0.0520846
-0.161101
-0.00326637
0.0237618
0.0446649
-0.0294274
0.143657
-0.0510569
-0.0524693
-0.00631633
0.0339042
-0.0497731
-0.0883949
-0.00632351
-0.00207371
0.110904
-0.47659
-0.0501286
-0.0520313
-0.0590032
0.0215316
-0.263318
-0.0635298
0.328912
0.160902
0.0282216
0.0582871
-0.0950913
-0.17751
0.0642505
-0.0210978
-0.0468193
-0.0542006
0.062017
-0.443103
0.0166841
-0.0546141
-0.0164946
0.131506
-0.000970222
0.00816154
-0.301559
-0.303683
0.272339
-0.0496708
-0.481071
0.0425418
-0.0644704
-0.0517139
-0.00288974
-0.0733571
-0.0640701
-0.0861527
0.0241979
-0.0508483
-0.470565
-0.021047
0.0142553
-0.0501109
-0.081962
0.0201012
-0.0107057
-0.0225233
-0.0429174
-0.163553
-0.135139
0.31843
-0.168848
-0.00420548
0.0260629
-0.0555008
-0.00601669
-0.103105
0.119475
-0.0210065
-0.115587
0.0209641
0.033917
-0.202258
0.010582
-0.306188
0.023905
-0.392488
-0.0524221
-0.145894
0.016815
0.011412
-0.11
-0.00606182
-0.0298815
0.0562425
-0.258532
-0.3123
-0.0838377
-0.0528939
0.0586103
-0.0843148
0.065526
-0.078969
-0.0168475
0.0226882
-0.483867
-0.0534467
-0.370247
-0.0233498
-0.092369
-0.0852302
-0.484928
-0.0651695
-0.176196
-0.0970651
-0.00693175
-0.125367
-0.0164658
-0.016001
-0.135121
-0.0646435
0.0871189
0.28032
0.0730603
0.000839681
-0.0566325
-0.128464
-0.0454135
0.0109393
-0.476963
0.054953
-0.00734279
-0.0489037
0.00885842
0.0202824
-0.125814
-0.221276
-0.47199
-0.00660644
0.0745479
0.00913695
0.396802
-0.00261769
0.456667
-0.0748716
-0.0524631
-0.0495557
-0.458951
0.14932
-0.168666
0.478656
0.0214951
0.0582274
0.104044
0.125127
0.495998
-0.0641197
-0.437478
-0.0510429
0.510155
0.029959
-0.0826695
0.00810276
-0.481328
-0.0683494
-0.0344981
-0.0404307
-0.0266594
0.000956839
-0.0979925
-0.427326
-0.00317951
-0.0349127
0.00263983
-0.0856953
-0.0339439
-0.24423
-0.0492441
-0.376766
0.0276156
0.00132656
-0.0533487
0.431541
0.0246428
-0.127687
0.0196453
-0.234264
0.160851
-0.129199
-0.0786732
-0.422309
-0.00501013
-0.0173579
-0.0572185
-0.0496537
-0.0601939
-0.0770806
0.0107202
-0.0507514
0.0254945
0.00472265
-0.0272483
0.024368
-0.460111
-0.0551053
-0.0752839
-0.049908
-0.122977
-0.203937
-0.00545248
-0.0674653
-0.00603442
0.487552
-0.021768
0.0502579
0.0262574
0.00732156
-0.0148876
-0.209047
-0.0301781
0.428184
-0.0123853
0.163556
-0.00452196
0.486151
0.0179815
-0.0732276
-0.0586803
-0.126642
-0.442987
0.00756204
-0.0514863
-0.159238
-0.00630244
-0.00687508
0.0138434
-0.0504484
-0.426033
-0.0220966
-0.013742
-0.0925539
-0.0661634
0.201723
-0.0544011
0.033339
-0.0645475
-0.066098
-0.00469944
-0.0743054
-0.0275463
-0.0501487
0.0344617
-0.0239702
0.0201749
-0.0548689
-0.0521082
-0.00575356
0.384198
-0.0623375
0.00862736
-0.0133021
0.00146316
0.405026
-0.0595675
-0.152137
-0.0360873
-0.0991606
0.0179466
0.0320532
-0.0371722
0.010433
-0.10534
0.0370399
-0.0595254
-0.355734
-0.0839539
-0.0053204
-0.0502318
-0.0878458
0.0182603
-0.175265
-0.0709824
-0.0732078
0.0988905
-0.465764
-0.131795
0.0102571
-0.176798
-0.169458
-0.0471521
-0.245698
-0.0591881
-0.0421227
-0.0734871
0.00586722
-0.212125
0.283918
-0.199289
0.0093446
0.0167248
-0.00592988
0.169773
-0.0634563
-0.0665254
-0.153382
-0.479471
-0.0497725
0.0194369
0.501482
-0.0517291
-0.0596369
0.0269407
0.0103503
-0.0859344
-0.0513944
0.0369987
-0.0675322
-0.449773
-0.0635145
-0.427032
0.34286
-0.132414
-0.0499312
-0.303591
-0.00951685
-0.365354
-0.120815
-0.0211519
-0.0280086
0.00290798
-0.421229
-0.183367
-0.0641191
-0.0256699
-0.399141
-0.0139137
-0.130258
-0.0505411
0.0303104
-0.0716928
-0.170828
-0.0567921
-0.132645
-0.0298925
0.0367334
0.057502
-0.1195
-0.058402
-0.392163
-0.0602385
-0.00803471
-0.481899
-0.245773
-0.0508297
0.00784457
0.0123168
-0.0497832
0.419147
0.0145002
-0.122957
0.306361
0.193948
-0.0507346
-0.0569841
-0.328292
-0.0691682
0.0443119
-0.0110404
0.295125
-0.0505411
-0.41725
-0.0195165
0.185298
0.324118
0.382211
-0.0241498
0.0188495
0.36715
-0.107142
-0.355221
0.406896
-0.050131
0.0121377
0.417418
-0.0719498
0.0467339
0.283526
-0.137081
-0.00606086
-0.105701
-0.0595612
0.425192
0.0202898
-0.0498361
-0.111448
-0.455576
-0.00828275
-0.0382731
0.0019891
-0.0284117
0.0027664
-0.128807
0.0273798
0.094445
0.387331
-0.0712854
-0.0631882
0.0780015
-0.0414427
-0.0328323
-0.296213
0.273334
-0.454764
-0.0181227
0.110915
-0.440172
0.33361
0.0417175
0.0768086
-0.116861
-0.0631372
-0.172602
0.0103641
0.00541961
0.00100144
-0.10153
0.0160102
0.466526
0.488346
0.401773
-0.0520641
-0.260289
-0.438224
0.0042569
-0.254353
0.0270378
0.224814
-0.0028034
-0.019157
-0.119322
-0.203966
0.00913007
-0.474478
-0.256429
0.328415
-0.251531
-0.00334441
0.0125944
-0.0708685
-0.0306402
-0.460301
-0.455015
0.0334012
-0.282423
0.00732678
-0.0127374
-0.0161802
0.0244949
-0.44176
-0.0377742
-0.395025
0.297826
-0.0243811
0.444873
-0.393595
-0.0506234
-0.423065
-0.0407584
-0.0167693
0.0249129
-0.0303386
0.467561
0.355469
-0.164397
0.0239644
-0.0284354
0.123811
0.00992609
-0.0562732
0.077668
0.173188
0.239502
0.0434114
0.00517395
-0.00714329
-0.110377
0.00239323
0.00310692
0.324727
0.0484757
0.00302545
-0.150453
0.00278489
-0.371375
-0.051132
0.487499
0.0330883
0.314333
0.0210999
-0.102162
-0.0323777
-0.0291595
0.116266
-0.387581
-0.050203
0.317949
-0.0299317
-0.110757
-0.135404
-0.0498755
-0.156181
0.0234952
-0.165663
-0.233105
-0.00676349
0.268643
-0.0958325
0.334203
0.0214349
-0.130033
0.432581
-0.138665
-0.0594941
-0.0227187
-0.0788171
0.0287717
0.0107536
-0.0538139
-0.0640381
0.011761
-0.0505748
-0.458058
-0.0570611
-0.463934
0.413533
-0.387702
-0.268299
-0.00642905
-0.0411533
-0.0120293
0.130505
-0.15666
-0.170112
0.0497378
-0.00114537
-0.0126719
-0.330887
-0.0757311
-0.118198
-0.0514996
0.350887
-0.48013
-0.279987
0.0146071
-0.482065
0.0278503
0.107842
0.139309
-0.051899
-0.0665187
0.106884
-0.0291686
0.280377
-0.0734558
-0.0521087
-0.460197
0.162955
-0.049659
-0.053675
0.0242833
0.47842
-0.150425
0.0614434
-0.43998
-0.471135
-0.0725166
0.104177
-0.0543281
-0.468575
0.0160211
-0.0165914
-0.00564345
-0.00424174
0.0587274
-0.481109
0.0477119
-0.0557705
0.00625458
-0.0197834
0.45008
-0.0247503
-0.00692176
0.0183116
0.028833
-0.0871076
-0.0116
-0.481296
-0.0220908
-0.0364824
-0.0371653
0.0513129
0.365387
-0.0120149
0.0131911
-0.0095173
-0.0610535
0.299703
-0.04369
-0.0515451
0.00518704
0.0853471
-0.0711101
-0.168254
0.0697037
0.0173414
-0.0152944
-0.00962013
-0.28448
0.00578212
-0.0146418
-0.0481305
-0.372946
0.00551841
0.176202
0.0419081
0.0197115
-0.0583824
-0.482172
-0.0613872
-0.0586776
-0.0449521
-0.0584866
0.0452066
0.347835
-0.20946
-0.0275519
-0.0776261
-0.0502311
-0.0568397
0.047207
0.0277964
0.485658
-0.0571056
-0.296369
-0.060382
-0.0119655
0.0226141
-0.483797
-0.0498218
-0.0630337
0.0497335
0.0143755
-0.477953
-0.0933598
-0.00849927
0.0115175
-0.0219734
0.0177965
0.0199679
0.034731
0.177767
-0.0699382
0.012385
0.0451316
0.451986
0.0136937
-0.2902
0.0488037
-0.0212785
-0.0631868
0.00863119
-0.214157
0.060052
0.246224
0.0170519
-0.0188054
-0.348981
-0.439398
0.00926213
-0.0660158
0.202993
0.0185752
0.0830308
0.0115763
-0.028977
-0.336556
-0.259079
-0.0468928
-0.0615678
-0.0290865
-0.460208
-0.102202
-0.0257585
-0.151412
0.0618958
-0.0554682
-0.0640705
-0.0500574
-0.367909
-0.0968785
-0.0521548
-0.0137435
-0.0520101
0.09953
-0.0116127
-0.0150825
-0.0685066
0.304584
-0.0136864
0.108389
-0.0699562
0.0648543
0.418241
-0.0560733
-0.0668101
-0.34347
-0.388604
0.170127
0.101655
-0.0540134
-0.479776
-0.0549458
0.0738031
-0.0122451
-0.000276239
-0.00931408
-0.077329
-0.0526686
-0.235634
-0.0163174
-0.288707
0.0101046
-0.0502655
-0.0506756
0.314727
-0.239381
0.319033
0.376877
0.0589081
0.164777
0.00286883
0.112662
0.0164995
-0.0253398
-0.0760738
-0.0587603
0.0177465
0.0959689
-0.0895005
0.000679159
-0.0161026
0.113438
-0.480869
-0.181877
-0.0742791
0.202956
0.0112157
-0.0498377
0.193443
-0.0319642
0.0318826
0.00473415
-0.0238663
0.0349325
-0.0425905
-0.0599365