/*--------------------------------*- C++ -*----------------------------------*\
| =========                 |                                                 |
| \\      /  F ield         | OpenFOAM: The Open Source CFD Toolbox           |
|  \\    /   O peration     | Version:  v2012                                 |
|   \\  /    A nd           | Website:  www.openfoam.com                      |
|    \\/     M anipulation  |                                                 |
\*---------------------------------------------------------------------------*/
FoamFile
{
    version     2.0;
    format      ascii;
    class       volScalarField;
    location    "700";
    object      omega;
}
// * * * * * * * * * * * * * * * * * * * * * * * * * * * * * * * * * * * * * //

dimensions      [0 0 -1 0 0 0 0];


internalField   nonuniform List<scalar> 
13851
(
0.0778118
0.0227747
0.0227094
6.48445
0.0220811
0.0237062
0.0225966
0.0217902
4.1721
0.022047
0.0504039
0.022075
0.0221106
6.04813
0.0277137
0.0851413
8.60079
0.021781
0.160307
0.0778148
0.0298446
0.0245324
20.8599
0.0222638
0.400743
0.0425868
0.17902
0.292343
3.68568
0.0217297
8.55764
0.0225959
0.0765227
5.44472
0.0350087
3.62871
0.022274
0.795602
8.46941
0.0219957
6.18132
3.80862
22.2516
0.462278
4.04313
0.0218454
0.0215707
0.0794315
0.022685
0.0221046
7.28043
0.0221841
0.0847646
0.0251199
5.74559
0.022
0.0778196
6.12725
0.206544
6.17889
0.022083
0.15602
0.0221006
0.0227653
0.187838
0.197064
7.9892
0.0650493
0.0219749
6.82867
7.08604
0.0343168
0.0219978
7.0446
0.0257265
0.0230592
7.21161
0.0216459
0.379596
0.0219338
0.02198
0.199724
0.0348464
5.63091
5.98881
8.19976
0.0245888
6.71861
0.0220292
8.83996
0.0222224
0.0226302
24.0896
7.27701
7.17526
0.283579
0.0218829
0.0859001
7.32126
0.131353
0.0885556
0.0421655
0.0451059
0.0220397
0.0218199
0.033896
0.0218248
7.55503
0.0226258
0.0217721
0.028504
0.0218396
0.102202
0.0453524
0.0758296
0.0248348
0.0217598
0.0217622
6.50552
7.72915
0.176715
0.0217311
0.0219845
4.61715
0.130605
0.117175
0.0218811
0.0470019
5.52566
0.0320799
0.0244859
0.026759
0.600312
5.41681
0.050691
7.40837
0.0625871
7.69912
0.0346862
0.0316548
0.192753
0.0225354
0.0220295
0.0994276
0.350872
0.0229785
0.0216413
7.49431
3.71751
0.0491383
0.0877475
0.100681
0.0479993
0.131584
0.0222645
0.0220627
0.0220988
8.21468
0.0301299
0.0223819
0.0222429
3.65073
0.0332512
0.0794703
5.68434
4.35141
4.41452
6.39622
0.028041
1.54789
0.0220988
0.0217641
0.0405625
0.0221389
7.54545
0.170243
0.0934073
0.0217498
0.0257167
0.0912649
0.127192
0.426599
0.0271658
0.0317566
24.1141
3.68449
0.0768067
0.0290391
0.0221942
0.0217788
0.341581
0.0301141
8.10871
0.0237279
0.0228727
0.0853854
0.0746114
0.0218241
0.0219155
0.0698159
0.197249
6.88114
6.30267
0.0276387
2.41269
6.55345
0.0237021
0.0311935
4.28662
0.0235183
0.0851277
0.0219751
0.199963
0.0222337
0.0354038
0.0235155
0.0220873
0.118668
0.0218781
3.94924
0.0217485
0.0779379
6.36732
7.47038
0.0286686
0.0314938
0.0222635
0.0869827
0.022003
0.0349847
12.6254
0.0288747
0.0234894
0.022123
6.19234
0.0217229
11.3079
6.36304
0.115009
0.0222512
0.595082
6.06621
4.06018
0.0841884
0.0265146
0.133083
0.108698
0.0258142
0.26308
0.029777
6.51113
0.0809605
0.0218242
0.0234464
0.0872368
3.60824
4.72449
0.021778
0.124347
0.022025
0.103985
0.129869
0.0235994
0.0335214
0.0836672
0.0219558
0.0428565
0.0675783
0.267448
0.0220788
0.0220845
0.0288841
4.78168
8.04313
0.0320629
0.0217364
0.127558
0.130439
0.0682012
0.0330794
4.7542
7.24588
0.0238669
0.0263169
1.4292
0.0218051
0.0220985
0.0701211
0.0453009
0.0217141
0.0222311
0.0219946
0.0219961
0.026264
0.0220915
4.27168
0.030765
0.02191
3.5618
4.58762
0.0221966
0.0788883
6.93444
0.0226149
0.0222231
0.0317819
6.0352
10.0872
0.0433198
0.0220717
1.46794
0.0220906
0.0466863
6.09693
0.264754
0.0223254
0.931112
0.442818
8.09916
0.10069
0.0445497
7.90766
4.8861
0.29093
0.0219472
6.91444
19.0464
0.732404
0.670948
0.0237302
0.0434959
0.0286159
6.05528
0.0489553
0.021867
0.0215246
0.025063
7.46145
3.30715
0.0217995
7.1954
0.028901
0.0269709
0.0224199
7.01051
0.126132
0.0860884
0.0233809
0.0232538
3.48607
0.0221997
0.135116
0.0237984
0.0317703
0.029394
0.0220244
0.021905
0.104829
0.139643
0.0808058
0.54276
3.54156
0.0230262
6.20642
0.121146
0.0216526
0.266308
0.0560149
6.30338
0.0246899
0.0452938
0.168083
0.479064
0.102313
5.28717
0.0221726
0.175622
17.1306
0.0254719
5.01861
0.0266741
6.61602
0.0261418
0.0288439
0.0823858
0.179908
0.0220651
0.0237171
0.0485156
0.0258463
0.0218635
0.0321992
3.95835
0.0219909
0.0313634
7.1289
0.0228355
1.59564
0.0305492
9.81222
0.0237744
0.0406247
1.77249
0.132246
0.0336619
5.44744
6.90756
0.521286
0.0219629
0.10368
0.0269564
0.0445261
0.0217483
23.1602
4.42388
0.448528
0.0232083
0.0832959
0.156893
7.65268
0.0215737
8.35246
0.199088
24.5627
0.0305135
0.319164
0.0220336
0.0221261
6.65194
0.159238
0.022044
0.0228022
0.0317398
0.0217997
3.52726
0.0434898
0.0552012
0.0232384
0.0221769
0.0222205
0.479149
0.0219109
0.0221999
2.95377
3.75934
0.0242707
0.14668
0.0221077
0.0220906
0.023001
0.082608
0.0303928
0.0218697
0.0222327
0.16477
0.0223654
10.2624
0.0220705
0.023833
4.09563
0.0338748
0.0215762
0.0221168
0.0232217
0.0218746
0.552788
3.5078
0.0265989
10.3149
0.0230027
0.022049
5.13353
0.168111
0.0343213
0.0219982
4.73165
0.0340806
3.21797
0.022043
0.0267838
0.104907
0.0265868
5.1117
0.162911
0.427251
0.0234267
0.101868
0.0219484
3.6145
0.0304813
0.0744107
0.0267625
0.0232293
0.0337638
0.0407824
0.0220934
8.06612
5.02065
10.2551
7.06756
3.49509
6.16018
0.13367
0.0276643
0.0222059
2.70376
0.0220495
0.0218649
0.0295225
7.60128
0.0226363
0.0225545
0.0751977
0.0347437
0.0220605
3.08683
0.0218913
5.51542
0.538424
0.0219278
0.0223578
0.194575
0.272186
0.0217218
1.25046
6.33702
0.0216062
8.52883
0.156567
0.0777203
0.0234135
2.69421
6.16025
0.021614
0.165506
0.0219776
0.02189
2.32581
6.69291
0.0296015
0.0300349
0.0220525
0.0368411
5.58528
7.96527
0.0216686
7.17736
0.0218703
0.021983
0.0338064
0.0238259
0.0215689
0.0230836
8.68391
0.165316
8.13602
0.0225123
0.02202
4.74668
0.0221769
0.10373
0.0238525
0.0257594
0.0265313
4.07681
6.3367
0.0235991
8.46282
0.0222464
0.0443786
3.87049
4.4428
0.0219951
0.0219531
0.0463521
8.28202
0.137741
0.0362602
6.82158
0.023882
0.025764
15.6837
4.30495
0.126576
5.40617
0.102115
3.68917
0.0220846
0.20858
0.275669
0.0220718
15.722
5.99643
0.0279659
0.0317891
0.0219957
7.38471
0.0613162
14.1741
0.0219147
0.0221655
0.0264144
0.0344526
0.0220806
7.3491
0.0221598
0.0997883
0.0235105
0.045462
0.0220338
0.0220614
0.0402435
7.45545
0.033818
7.09898
0.0268356
0.0218064
0.0216829
0.0410865
0.0222344
0.0659837
0.0228423
0.0337779
0.205371
0.0221791
5.65162
0.0222531
0.0591092
7.55188
4.29318
0.0282927
11.4584
0.0730264
0.191412
6.10498
0.0217016
4.71843
0.0288652
0.025924
6.95659
0.282079
0.0216587
0.0645382
0.02181
3.58086
7.55155
0.0220091
0.0704948
3.23906
0.0222629
0.0222513
0.043058
7.08973
1.09172
0.0222295
0.0828601
0.0222828
0.0220594
0.211541
0.083735
0.12049
0.0215654
0.06758
0.0433999
0.0381536
0.0226757
0.0227649
0.0587109
0.0262281
0.0733707
0.0340007
0.034202
0.106367
2.03818
0.159367
3.89812
1.10104
0.0837717
4.38119
0.0363984
2.75686
0.0797095
0.0217781
0.0255048
0.140221
0.0248395
0.0219367
0.0219341
0.0590276
5.64053
0.0239138
6.22024
0.02181
1.54612
0.122155
6.91514
0.0648702
0.023843
0.0227013
6.31311
0.118616
0.0349328
0.163312
0.022098
1.74802
0.0594927
0.100424
0.0268152
0.251011
0.0220288
0.0222446
0.0234237
0.022058
3.88941
0.0219965
0.194671
4.72155
0.066299
8.00054
6.71876
0.103415
0.198728
0.0285712
0.0221826
0.0220709
0.0216557
0.0216838
0.0221408
0.0443094
0.0979853
0.0468466
0.285094
0.022605
4.19175
0.0222934
6.76862
0.0331818
0.0222835
0.0221369
4.33061
0.0238069
0.329766
5.84598
0.0307826
0.0434234
0.021594
5.5087
0.0237652
0.0226633
0.206644
0.0221854
0.0225291
0.0217136
0.0305001
5.76513
0.0255239
0.0268371
0.204191
7.57467
0.0289451
0.0255799
3.81242
0.0216555
3.74633
0.0222019
0.0223648
0.361182
0.0493642
0.0745731
0.0659005
0.0339071
0.0222272
0.0222935
0.0472892
0.022102
0.022235
0.0241013
0.204615
0.0219784
0.181223
1.51204
0.260023
0.0652109
10.2128
0.0363268
0.0221782
0.102249
0.0218238
0.0237258
3.36349
3.50618
4.5267
3.90086
0.0220432
0.0219994
0.0620903
0.022677
0.0217762
19.6628
0.106009
4.78139
0.0599016
0.0502893
0.0220585
0.0217348
1.10099
0.0555399
0.0224847
0.0222535
0.0746017
0.114831
6.38453
0.0222554
0.0221503
7.02964
0.0226573
0.0266093
0.0218057
7.57249
0.0218658
6.92913
0.0220756
0.10505
0.0288358
0.0624735
0.0268563
0.0219999
0.0228311
0.0220185
0.189084
0.0226318
3.71669
0.0221244
0.236048
5.07047
0.0261572
0.022
6.51876
3.58133
0.0238055
0.0491444
0.0220698
6.38565
0.0217856
0.140753
0.0220585
0.0220151
0.287279
0.0265878
0.0221063
0.025312
5.81997
4.69435
4.01003
0.0217846
4.26571
0.0220709
0.0219862
0.0222589
0.0214987
0.022232
4.49906
3.63797
0.0218877
0.0221559
0.0297432
0.021839
6.67252
0.104174
4.6932
8.02257
0.0228214
0.0730752
0.0220642
0.0298798
0.100958
0.0216898
0.0222101
0.661718
7.00609
0.0423147
19.1322
0.0393839
0.0221039
0.0309025
0.0498554
8.39604
0.025774
0.238578
0.0567919
0.0222229
16.2406
16.1322
4.33351
0.331012
2.21412
0.0233504
0.129182
0.0222029
0.217482
0.0244659
0.0218686
4.37323
0.022559
0.0220014
0.0219935
0.0224694
7.41021
0.136349
0.0218444
0.0313399
6.09024
0.0225474
17.6396
0.0231026
0.0477415
6.83879
0.0220941
0.154233
0.026434
0.0268495
5.60182
0.0225324
0.193911
0.0400526
6.05272
0.0218216
4.38615
0.0253708
4.61803
8.32762
5.87743
0.03072
0.02202
0.0220489
0.0222629
0.0281578
0.0221254
5.28143
0.0266256
0.0273597
0.0287329
0.0232804
0.0217851
0.0234893
0.0250119
0.0223599
0.025065
6.64493
0.185094
0.0249366
0.0425199
4.22608
0.0225928
7.709
0.0216698
0.0302658
0.022647
0.0218406
0.0387906
0.0220435
0.0218398
0.0440269
0.0220699
0.204934
0.0221626
17.2023
0.224678
0.111423
0.148326
0.0218212
7.70154
0.0888556
0.0222251
0.0249933
0.0224799
8.40739
0.0231209
0.0430854
0.272122
7.72037
0.0636698
0.0218992
4.10744
0.247518
2.67312
0.0264383
0.0217971
0.0216568
0.0433695
0.0220263
7.1697
0.104746
0.0221962
0.120194
0.205258
0.0217089
6.20549
7.39744
0.103837
0.0221749
4.05585
0.0439439
0.0220147
6.43925
0.0254243
0.0217166
0.0219112
0.0253214
0.0282888
4.4641
9.91268
0.028839
4.46474
0.0260046
0.0220126
0.0832093
0.0219415
0.702343
0.0216787
0.0220436
0.0233233
0.0220791
4.87707
5.8403
0.130667
6.42842
7.91124
0.0285216
0.0219912
0.0221687
0.19694
0.0216659
0.0218029
0.0348205
0.385399
0.170352
0.0216181
0.0333805
0.0268987
0.0785758
18.3247
0.0216006
0.0215585
0.0223032
0.444434
0.0240597
5.64944
0.0227725
0.022162
0.0217147
0.0219011
0.0234856
0.102696
3.71109
4.26801
0.0287931
0.0220496
1.77297
0.0218742
0.324632
5.20819
0.0298068
6.70421
3.82083
8.69589
0.0348054
0.0256444
4.20298
0.0253166
0.0317397
0.0632313
0.192059
0.0221024
4.5111
0.0220161
3.05077
0.450255
0.0216735
0.0235109
0.0397884
0.202283
0.0263603
0.0221417
0.0239504
0.0232385
0.0231268
0.949256
0.0221624
3.7458
5.73138
0.0220175
0.025256
0.0280846
0.0220778
3.46053
16.1247
7.81072
3.36047
0.0220312
0.0234868
0.0242835
0.0222522
0.131237
0.026475
0.0222569
0.038757
0.0256684
0.334046
0.0288759
7.26213
0.0231397
0.0225989
0.0490416
0.0563403
0.0463583
0.0219647
17.0098
4.70625
22.8837
6.20603
3.55585
4.36897
4.64668
0.0219709
0.0220207
0.0217723
0.135041
0.0301171
0.0464587
8.53063
0.021801
0.0216508
0.0220497
0.126427
0.0216309
0.0235487
0.0230712
1.94436
0.0227779
0.0218324
0.0220828
0.0219247
0.0221625
0.0328414
0.129215
0.0318072
1.45445
0.0220296
0.021899
5.46279
5.19512
6.32328
0.423448
0.045736
1.44161
0.021794
0.052781
0.0226078
0.0220801
0.0225393
6.66377
0.0221843
0.0568459
0.842042
0.0218474
0.0218352
0.0260963
0.104487
0.0222716
1.99292
0.0217621
0.123664
0.0221299
0.0218902
0.0238187
0.0864073
0.0221169
0.186629
7.35414
0.115357
5.32929
0.0220359
7.36458
0.185596
0.0220448
0.464003
0.0222496
0.0413437
0.0222005
0.0217565
0.021953
0.0220612
0.0221573
0.0270343
0.041538
0.0219272
0.0221028
0.0595784
0.0216366
7.00782
0.0221314
0.0260486
0.0258901
5.36489
0.243503
0.0221462
0.104963
0.0218017
0.0247024
0.0564145
0.401667
0.0316172
0.022272
0.0652236
0.0719632
0.0499324
0.195331
0.0334584
0.0892403
0.0362492
0.0418777
0.0227301
0.0217442
0.254619
6.75318
0.0232409
0.0220106
17.6318
0.0218116
0.0299194
0.0219456
0.0635097
0.558889
0.0215157
7.6353
0.0235931
0.0221696
0.0919266
0.0218699
0.0396907
3.30709
0.0296053
0.3147
0.0219474
0.0222644
0.0435904
0.022225
0.0222475
0.0238786
0.0249923
0.0419602
0.066372
0.022056
0.0335036
0.0217441
0.0220569
0.0222139
0.0220478
0.653691
0.0217061
0.0231463
0.145891
0.0218069
0.0219986
4.94173
0.0222505
16.9131
0.0222449
4.72261
0.122433
0.0492663
1.11013
0.0481964
1.64967
0.0219678
0.116012
0.0245989
0.0217356
0.0218493
0.0231505
0.0254057
0.0219186
0.0437179
0.02189
0.0225555
18.4242
7.71244
2.85438
0.0225172
0.0457759
5.45723
9.84214
0.0221712
0.0234295
1.52313
0.0218585
0.0315372
0.692402
4.25041
0.0236224
0.0295067
0.0224202
0.207247
0.022285
0.0334396
0.312053
0.0221156
0.0217942
6.12898
0.0332092
0.135416
5.34066
0.0591697
0.0223577
0.021895
0.0219097
6.29661
0.264509
0.454642
0.042992
0.0220552
5.52312
0.0221124
0.102842
0.0266885
0.0222115
0.0301617
0.0220522
5.95521
7.40735
0.0215686
0.0429017
0.0306126
0.743041
0.0330949
0.0360202
0.133735
0.0259198
0.181498
0.0373653
0.0221148
0.0264863
0.0811405
3.10929
0.0220269
0.237739
0.0346992
0.0377673
0.0222723
8.75671
0.0233624
0.0231751
0.0217874
0.0325513
0.0312233
0.0507156
0.0221255
0.0223703
0.0462311
25.8764
0.0459831
0.0221575
0.0226304
0.0264151
0.121693
0.0221697
0.0674346
1.18956
0.0405868
4.37622
0.0279916
7.35048
0.189762
0.0219695
0.406229
0.0222385
0.0237142
0.0255091
0.0266398
0.0640771
0.0305973
0.037649
0.0387089
0.026075
0.0233972
0.0216265
0.0753689
0.0231056
0.0277398
0.230479
0.0243135
0.0279642
0.0219293
4.54734
0.0616881
0.0220554
0.0228479
0.0233385
6.04907
0.102954
0.0255068
4.00997
0.187097
0.442638
0.0579339
0.156665
0.0218712
0.289635
0.0217935
0.0268502
1.06097
3.42473
0.179945
0.698831
0.0221244
7.19465
0.0218679
0.0488184
0.0242468
1.25401
4.85287
0.0231262
0.0220208
0.174017
0.0423418
0.0220112
6.4017
0.0220786
0.0232644
0.0231033
0.0222028
0.0261639
0.0233915
0.0220526
0.0301463
0.250514
0.0287495
0.0459933
0.022007
6.49763
3.47386
0.0220007
0.151452
0.0241985
0.0285495
0.894575
0.0219969
0.0225318
0.0270406
5.58926
0.0220225
0.0221821
0.0298834
2.6012
0.0219836
0.0302471
0.0310199
0.224251
0.0348397
0.0299048
0.118477
0.0220834
0.110125
0.0216945
6.62704
0.0260142
0.0220548
0.0235031
0.0649503
0.0221495
0.0218414
0.0813037
3.81253
0.0218647
5.83306
0.0221863
0.0216817
0.0426305
0.0220262
0.0217039
4.39247
0.0222732
0.0291457
0.0900965
8.67841
0.217175
0.0216542
0.0240357
0.0275492
0.022071
0.0220252
0.0220926
0.285599
0.0221934
0.177881
0.0676399
0.0217846
0.0216433
0.0255484
0.0678507
0.149745
0.0501329
0.0457818
0.0231406
4.2343
0.0612214
0.0246622
0.0285671
0.0542177
0.0600496
24.2653
0.0275038
3.65002
0.250781
8.49055
0.0228067
0.0218817
0.0300089
0.0340302
0.0216966
0.0218653
0.106825
0.0222429
0.0220318
0.0220451
0.0215651
0.0222997
0.0218039
7.71345
0.0220176
0.554852
0.0220785
0.0722995
0.0221129
0.0689546
0.064812
0.0220251
3.75298
0.0240093
0.0222245
0.0283618
0.0217369
0.0291565
0.0217804
3.77643
0.0232502
0.0304583
0.0996281
3.64403
0.0264222
0.183213
0.228826
0.0424008
0.0218213
0.0221969
0.0911815
0.0434464
7.70607
0.021714
8.35692
0.021983
0.0813342
9.97449
0.029671
1.14621
0.0239554
0.0260138
0.023936
7.79503
0.0266237
0.0221416
0.0415438
0.0835272
0.0226021
0.0220351
0.0221423
8.39627
0.0222514
0.0258183
5.32041
0.0249339
0.0219631
0.0464422
0.0236562
0.864014
0.0216493
0.0220084
0.0218502
0.0260287
0.0219614
0.0218369
0.0393844
5.10417
0.0219457
0.0221084
0.409515
0.0218045
7.23058
0.022314
9.22437
0.0217922
0.0236786
0.0217982
3.73208
5.23955
0.0281832
0.0629777
0.0268606
0.021892
0.0221213
3.81221
0.0221364
0.0485947
0.0217224
0.0289535
0.0221885
1.29588
0.0218211
0.0300109
0.0218143
0.341547
0.514091
0.0217281
0.0386659
6.35378
0.0413966
1.22938
0.793504
0.165014
0.023398
0.0268687
0.0589739
0.282134
0.0217707
0.0273537
0.0275496
0.0218899
3.93282
10.8535
0.0424927
0.086813
0.17925
0.0287997
4.69812
0.0216913
0.021728
0.0662192
6.71249
0.119992
0.101363
0.23985
0.0217931
8.34321
3.88661
9.99412
0.0222023
6.38252
9.74694
0.536999
3.57986
4.24727
0.0501673
0.0259576
0.102282
0.0255147
0.0219178
0.404542
0.0546611
0.0216123
5.08029
0.0221867
0.0273859
0.0295425
0.0261755
0.264155
0.0333124
7.4428
0.02973
0.0261223
0.265638
7.1971
0.0794038
0.0224129
0.0256667
0.0473865
0.05107
0.021819
0.0347028
0.055973
0.0907422
0.0219359
0.108702
0.0235178
0.0414476
3.22352
0.186799
0.0231276
0.0985409
6.30057
0.0221171
0.0224387
10.6979
0.194073
0.0230858
0.0230077
0.0220867
0.0592176
0.0229804
3.78352
0.0645177
0.0224375
0.0222231
0.0638422
0.027004
0.190363
6.71803
0.0218321
0.0220257
0.0251216
0.0221932
0.0228291
0.0224955
0.0221859
0.0255296
0.0219079
0.0239413
0.0221911
0.030801
0.276475
0.0222639
2.79636
11.5649
0.0216927
0.201106
0.0961344
0.066229
0.0225667
0.0543175
0.0238517
0.0735832
0.0248147
0.0225272
0.0222091
7.60773
0.0238017
0.384358
0.0225738
0.0220402
0.022013
0.0572591
0.0219399
0.0333469
0.0376002
1.23228
0.0218994
0.168398
0.537296
4.75404
0.0217873
0.09163
0.892819
0.515314
0.314583
0.0225951
0.0220755
0.114334
0.233102
0.225833
0.0290301
0.153381
0.0222314
0.0217348
0.035623
0.0221941
0.0221625
0.104429
0.0222649
0.0836341
0.0217815
6.74822
3.82115
0.37179
2.97753
4.77937
0.0221311
0.0221429
3.26973
0.0217205
0.0217347
0.0216794
0.0912955
5.62056
7.25497
0.0269139
0.0217656
0.0225387
0.0337796
5.36615
0.0220343
0.822038
6.78929
0.0221873
0.0221796
4.21613
0.0465887
0.0221835
0.0220367
3.52474
5.28818
0.0217888
0.106662
0.0222529
4.67472
2.05015
0.0222465
11.5589
8.03886
0.531687
0.021775
0.0217709
0.0222441
0.0222864
5.24986
0.0218705
0.172787
0.158559
8.50184
0.0221305
0.0451947
0.18299
0.0350262
2.74211
8.0591
0.0216248
0.0231824
0.0232647
0.0825688
4.3539
0.0215576
5.33062
0.0294162
0.0292452
0.0225874
0.0219423
0.163556
0.0312075
6.80394
0.022194
0.042335
0.0220996
0.0695216
0.0226596
5.00042
0.265956
0.186171
0.0559815
0.0219312
0.0231928
0.0515172
0.186296
4.68454
5.3715
0.0221486
1.03503
0.0843704
8.15441
0.0233664
0.0330297
0.0299543
0.0218663
1.44249
0.0220643
0.0259206
3.425
6.52183
0.448879
5.75636
0.0262327
0.0328036
0.0216791
6.85663
0.0255288
0.347659
0.0216671
1.9436
0.021522
0.0219903
0.0257738
0.0303661
0.0305977
0.0219191
3.85967
0.029436
0.0218747
0.0308797
3.90698
0.41317
0.0220324
8.86099
0.0233359
0.0259819
0.0252394
0.0216812
0.0452503
0.0219829
0.918182
0.0675738
0.0234059
0.0220242
0.202462
0.0293875
0.0216652
0.774617
0.27392
0.123829
0.0215602
0.216259
0.0221405
0.101764
0.0237406
0.0911597
0.314964
4.03121
0.0339037
5.67109
0.0409725
0.026701
0.0217945
2.48983
0.088528
0.0660615
0.0593246
0.0222434
2.30432
0.0611477
0.201784
0.141889
6.36988
3.79925
0.617481
6.17927
0.0271421
0.0305528
0.0220934
0.0218557
0.0215738
0.0955395
0.026807
0.0314847
8.84801
0.0219122
0.0218463
0.0285163
0.083156
0.0240798
0.0217763
7.03016
0.0228791
0.0306705
0.0221059
7.00475
0.0277639
4.35772
0.0507365
0.0267638
0.0419426
0.0220862
9.28953
0.177694
0.0482165
0.0219742
0.0219046
7.01771
8.11143
3.54993
0.0217261
0.0493102
0.199411
0.0218177
0.0220009
0.0219482
5.59033
0.0908063
0.0297649
0.023551
0.0232361
3.21399
0.0671266
0.12675
0.0232486
0.0259766
0.0215575
0.0945145
0.042645
0.0220059
3.7265
8.30392
5.68153
3.76822
8.44053
9.1087
3.89888
0.0231578
0.0216811
1.21233
5.6224
0.346396
0.0219979
0.0289804
0.0220609
0.0219406
0.729034
6.57295
0.0399067
0.0219926
0.165832
0.0562019
0.033973
4.61814
0.34571
0.154663
0.0219101
5.01743
0.275656
0.203921
0.025256
0.0301691
0.0221966
0.0218538
0.0296488
0.0329212
0.0233963
0.0282671
0.0240415
0.024087
0.131355
4.26539
0.0298971
0.0289432
4.79769
0.118934
0.0221166
0.418873
0.70935
4.63202
0.0311136
0.0218877
0.0248647
0.0245816
0.0285578
0.0216782
0.032972
0.0250555
0.0304102
0.161864
0.0222303
0.0224277
3.90115
3.9447
7.35185
0.181565
0.0644094
0.0215123
0.0220571
0.0254209
0.0216784
7.23214
0.0220417
0.0222728
0.0216947
3.69808
10.7109
0.0223624
0.0388831
0.0255173
0.0325698
0.0254494
0.0346387
0.0286895
0.0296891
6.38954
0.0234147
5.36452
0.0311114
7.53984
0.0254219
0.0219311
0.0217919
0.056226
0.0820362
0.0218125
0.03594
0.0254253
0.0429681
2.76835
11.8067
0.619018
0.0222727
0.240303
0.0276714
0.030747
0.0220245
0.0483695
0.0230735
3.5778
1.56175
0.0333392
0.0220774
3.89969
0.0271017
4.54367
5.60773
0.133986
0.0233939
0.076971
1.61165
0.227293
4.3442
0.0427237
0.0218255
0.0314384
0.0217104
7.85269
0.0237742
0.0267348
0.167847
7.95954
0.0218081
0.0219123
6.64417
0.0315247
9.9471
0.0326229
0.0220368
0.0313895
0.113168
0.0419399
0.36405
0.0302647
0.215484
0.0233598
0.0222438
0.021893
0.16793
0.0226301
0.0972187
0.0220591
0.0218779
0.165317
0.0232552
0.0218765
0.0220299
0.0293598
0.204852
0.029125
0.0295947
0.0258915
0.0423475
0.0219906
0.108687
0.0255391
0.030479
0.0666871
0.0237404
0.0693371
0.043093
0.0217028
0.041307
12.1119
3.26651
0.021837
0.919132
4.51687
0.0219325
0.022668
0.609919
4.53848
0.0277768
4.21148
0.182263
0.0217496
0.0498402
0.0215743
0.0234189
0.0418166
1.48801
0.390069
0.146838
0.175263
3.71787
4.8206
0.0222172
4.12266
0.0220359
0.257833
4.92255
0.0220967
0.022082
3.40965
0.0221331
0.0220844
0.158909
4.52778
0.116005
0.0232387
4.85198
0.0221027
3.95855
4.10658
0.0221894
0.19602
0.577307
5.65204
3.6122
3.98801
3.58753
0.0218581
0.0231733
0.0412855
0.0404164
0.0220794
0.120073
0.0220379
3.88519
0.151462
0.0463195
0.139935
3.80262
0.148627
0.129127
0.0577618
8.75642
0.25139
0.0229624
0.0216146
0.297081
0.0319319
0.0217212
8.91463
0.0219525
0.321266
0.0221604
6.04899
0.0229845
0.0219623
11.9142
0.0272441
0.033722
3.6603
1.22926
0.98555
0.023726
0.02993
0.0230663
0.0279069
0.0723654
0.028266
0.0222108
1.19236
0.0399779
0.0290166
4.01468
0.029382
0.0338887
0.137619
0.0477634
0.0298343
0.0219573
0.117652
0.0217891
0.0712241
0.202908
4.97952
0.0218586
0.0300122
6.50686
0.0222493
0.0457095
0.0248879
0.0309744
2.66093
0.0392266
0.0233851
6.80855
0.0218713
3.85571
0.022122
0.0222219
0.0700717
3.60017
0.028336
0.35567
0.410815
0.0250168
0.0219138
0.137464
0.0329295
8.51907
0.0264192
4.91747
0.0805232
0.0249445
0.025019
0.0805854
0.0298931
0.0700412
0.0388733
0.034939
0.0230071
0.0217662
0.703469
0.0219917
0.024999
0.021592
0.0623243
0.0250208
0.0382449
4.34576
0.0230824
0.119422
0.0215164
0.0221602
0.0221871
0.0222073
0.0233026
0.0219265
0.0504789
7.52917
0.0376139
0.0310264
0.0228413
0.0218936
0.180529
0.0219807
0.627853
0.265154
6.52445
0.0830573
0.0292962
0.0235619
0.0221758
0.0285732
0.0875653
0.0332429
5.32672
0.0370675
9.46951
0.0850887
0.0222096
0.0218296
3.31328
0.0219074
0.0247821
0.0627416
0.177239
0.0222298
5.44861
0.0221755
0.0240319
0.0220638
0.0225059
0.144138
0.0614465
0.0219918
0.0253636
0.0343139
0.031055
0.0361647
0.357562
0.262703
0.167627
0.0780309
0.0231454
0.0223952
0.0357283
3.5527
2.73475
4.02247
0.0252565
0.30907
0.060758
0.0221279
0.0219836
0.0383783
0.0221414
0.0252867
6.96577
0.0219433
0.021723
0.250471
0.919479
0.0307898
0.45462
0.0221259
5.73654
0.032771
7.49089
0.0289095
0.0219748
4.00776
0.0577727
0.0220222
0.0604076
0.0222522
0.112132
0.0253523
0.0542745
8.21731
0.0323968
1.03996
0.0219111
9.71502
0.0221185
0.0237694
0.0221865
0.0349044
0.0221426
0.0503614
3.85932
0.705226
0.0341765
0.0281978
0.0712681
0.02182
0.0218716
0.0221799
0.248488
0.0230286
6.3669
4.87762
0.0987147
0.0222142
0.0996215
0.139367
0.0846302
0.0230725
5.39695
0.0219419
0.0215195
0.0219301
0.450018
0.0218663
0.0219959
3.9871
0.021957
0.101232
0.0886495
0.0216598
4.83619
0.0238335
6.11547
0.0218201
0.245296
0.0223315
0.0683939
16.1704
0.0415312
0.021922
0.0235549
0.774505
0.0252262
0.100972
0.0254475
0.0242136
0.102537
0.0270261
0.0218038
25.9623
0.0254863
0.0238733
0.0852506
0.0219467
0.0218151
0.0221885
0.0247938
0.0221071
0.024775
1.25325
17.0017
0.0920827
8.5651
0.0379323
0.0259924
8.03647
8.82942
0.0224134
9.85667
0.650414
3.96336
0.424762
0.0261425
0.673278
4.18446
19.313
0.416969
3.76733
0.0399468
0.0746714
0.0282264
0.0231504
0.0220889
0.743941
0.0222849
6.4783
0.10762
0.245203
0.0215897
0.0447231
0.0424504
0.0236309
0.0222931
0.022118
0.107356
0.022337
0.0218489
0.0282479
7.86585
0.0227186
0.110354
0.0218158
0.112257
0.0744234
0.0221355
0.0251709
0.0219303
5.96514
4.85327
0.0908889
1.31024
0.029967
0.0535814
0.0221341
0.0286047
0.0220306
0.0220422
0.0222325
3.75576
0.0217362
0.0303043
0.450905
0.025786
0.0251644
0.0219862
8.87796
0.116031
18.6501
4.89503
0.103399
0.152382
4.3493
0.169407
0.195625
9.601
0.108255
0.0337269
0.357758
7.13887
0.0220426
8.09084
0.108403
4.34337
0.0216063
0.0391877
8.69205
0.0222727
6.41177
0.0253637
6.5865
0.0220902
0.0221305
0.0481066
0.179492
0.0233915
0.0443915
0.0217118
0.0218764
3.58794
1.87895
12.4916
0.0341798
0.0217936
0.0224346
0.022133
0.0328093
0.863175
4.7873
0.244092
0.326678
0.0269259
0.0219474
0.0219789
6.51208
10.0936
0.165625
0.0262307
0.023612
0.0747615
7.82682
8.94329
0.0215096
0.0219399
6.11053
0.0223944
0.189833
0.0270554
0.0220028
0.0290161
0.0434011
5.0648
6.08308
0.0222019
0.0217193
0.0233023
0.183503
8.20812
0.0222646
0.0894098
5.64086
0.0215185
0.706947
4.02317
17.0011
0.0221121
9.10505
6.03873
0.0346648
0.241214
0.0226596
0.281085
0.169238
0.0231792
0.0219178
10.7259
0.25356
0.0217746
0.0800032
0.0889797
0.0249065
0.133576
5.92955
4.42687
7.55277
0.0238894
0.0235671
0.0221927
5.70985
5.80614
5.68989
6.88709
5.15013
0.021671
0.0299511
0.0220653
0.022113
0.0240423
0.0219539
0.0220555
0.0220176
4.32799
7.53584
7.65498
0.0504614
0.105483
0.0362939
0.0218147
0.0219836
4.84864
0.0221366
5.92175
3.97915
0.0221788
0.021787
3.79216
0.0222822
0.366412
0.0236933
0.021734
0.0216652
5.12277
0.0216554
7.87542
4.84215
0.0215587
0.032298
0.0218137
0.0221521
0.021704
0.0849055
0.328832
0.0219578
6.14168
0.344555
0.0233673
0.0217733
0.0224786
0.0227087
0.0222253
0.250586
5.65181
7.07498
0.0284745
12.1878
0.0222722
0.0232703
0.0217927
0.122392
0.0231131
2.60248
0.0218504
3.86081
0.162511
6.80885
0.090555
0.0218473
0.0333214
0.0218407
5.03996
0.0218451
0.0261958
0.0242141
0.0233661
0.0219903
0.0222506
0.0307943
5.93039
0.022196
0.0223191
0.0226461
0.0309776
0.0973824
0.0221866
7.51239
3.81809
0.0227296
5.1392
6.52596
1.18031
1.91884
0.0215374
0.0226806
1.19193
4.48704
0.0913239
3.85972
4.39553
0.0289315
0.0343158
0.0250777
4.21181
0.0220296
0.0219605
1.70621
0.0735114
7.1483
0.0228839
0.0216696
0.0220394
6.44441
0.043891
0.0232739
0.158958
0.0217257
0.0386238
0.0254111
0.0255058
0.0217227
0.022187
0.0219025
0.0229663
0.932347
3.324
0.0215666
0.0218053
7.42704
0.021967
0.0555573
0.025978
0.0255036
0.0276972
0.0222856
4.16994
0.0248294
0.025306
21.0558
0.0519547
0.022853
0.0256202
0.0220232
0.0222335
12.6431
0.261317
3.46585
0.021949
0.0221519
0.045744
0.0266226
0.0220229
0.0280257
7.90368
0.0243345
0.0328311
0.0243909
0.0694442
0.0221174
0.0216225
6.97927
0.38842
0.329438
0.0219443
0.0862969
0.0215532
0.0220136
0.0431102
4.81328
0.0429366
0.0249347
0.0877742
0.0221213
0.0247499
0.0509114
0.675494
0.0219998
0.0216252
0.0225231
0.0234551
0.023634
0.0219411
0.820607
14.0922
0.0218625
0.030359
0.0224423
0.0215908
4.1279
3.33748
10.0739
0.0469432
0.0224194
0.0364333
7.09912
0.0651785
0.0598842
0.0319025
0.0283028
6.36311
0.118262
0.407347
0.0217488
0.0290035
0.0221304
0.0260799
8.59334
0.021619
0.0355607
0.025403
0.0275265
0.0227378
0.0216915
0.021866
4.53654
0.0317277
0.0251152
0.0428107
0.0318965
0.333247
0.0292408
0.398202
0.0218924
9.29471
5.35618
2.3588
0.0222645
0.025889
0.0220828
0.021905
11.0418
0.0320915
9.27564
0.0219809
0.0424561
0.0835237
5.17326
0.0272077
0.0215916
4.07351
0.022285
0.0222842
0.0223236
0.0220279
11.3915
0.0217685
0.0218376
0.0328463
0.0265335
0.111063
0.0959816
0.0320446
5.26304
0.0217243
0.116257
0.0216718
9.02979
0.0297571
0.336996
0.0866468
1.6548
0.0635087
8.80522
0.0222951
5.26033
0.0307242
6.56268
0.132432
0.027794
0.137395
0.022074
12.7977
0.0223214
0.0310377
0.0263698
3.05482
0.0833732
7.77203
0.02947
0.0220046
6.38229
0.149444
0.0363139
0.0911883
8.6175
8.95539
0.0346961
0.164373
0.0308068
0.021837
0.0397755
0.165214
0.0576979
22.6701
0.0890731
0.021747
0.0217693
0.0996628
0.0220842
0.512042
0.0607357
0.0220868
3.73669
0.255221
1.06699
0.0810866
0.0218032
0.0281529
0.0254845
7.84358
3.74706
0.0253781
6.72008
0.0217812
0.0305659
0.421795
0.0219909
0.0315329
0.0219128
0.0243491
0.022251
0.133896
0.205563
0.0292286
0.0278389
0.02167
0.0977632
0.0218016
0.0217937
0.0314366
0.0219047
0.136488
8.49966
0.584418
5.57891
0.0217457
9.82245
0.0221888
0.036735
0.0936675
0.0217892
5.12515
0.0575212
0.0219692
0.0215823
0.0314921
0.0337651
0.135156
0.136012
0.02567
0.023241
4.99165
0.0397707
0.140212
0.412946
6.65403
3.49508
9.45498
0.453796
0.022168
0.0221126
0.0391305
0.0221103
0.0408164
0.027605
7.48504
9.74333
6.66714
0.0216173
0.0217082
0.0869079
0.171381
7.98943
0.441161
3.67624
0.0533429
0.0315751
0.443249
0.165189
0.0234514
7.99529
0.0317504
0.0255231
6.3253
0.0292961
0.0217362
2.3934
0.52432
0.022778
0.0977098
0.0228922
2.36061
4.5569
0.32281
0.0220059
0.0216664
0.0776278
0.022008
0.0217711
0.0220121
0.0216997
0.022018
0.0220256
9.15971
0.0258654
0.0433625
6.84435
0.0218814
0.0220345
0.0260552
0.0232378
0.0235232
0.0220435
0.0528088
0.0275109
0.0259731
0.0752781
5.34878
0.0220552
0.0303635
0.0220678
0.0220325
0.0215545
0.0220808
7.05867
0.0217974
0.0220195
0.0220946
0.0373382
6.35569
6.50283
9.37033
0.421754
0.0315247
5.75566
4.73939
0.0219405
0.0397211
0.97602
0.151436
0.0221093
0.0240681
0.0300933
0.0367556
0.0220558
0.0291365
0.0546385
0.0422447
0.0216173
0.0417409
0.282365
0.0215679
0.41551
7.33932
0.039466
0.611081
0.0300384
0.0220904
0.02332
0.0220012
0.167311
8.97326
0.0216242
0.0396087
0.0219537
0.021976
0.0221301
0.0222857
0.0338357
0.0221715
0.0917052
0.0988164
0.0241924
0.0236118
0.0330338
0.0220451
0.0422504
0.025768
0.0221219
0.0221007
0.022139
7.02142
0.0220019
0.134874
0.0293482
0.0222526
0.0219964
0.0216508
5.46197