/*--------------------------------*- C++ -*----------------------------------*\
| =========                 |                                                 |
| \\      /  F ield         | OpenFOAM: The Open Source CFD Toolbox           |
|  \\    /   O peration     | Version:  v2012                                 |
|   \\  /    A nd           | Website:  www.openfoam.com                      |
|    \\/     M anipulation  |                                                 |
\*---------------------------------------------------------------------------*/
FoamFile
{
    version     2.0;
    format      ascii;
    class       volScalarField;
    location    "600";
    object      nut;
}
// * * * * * * * * * * * * * * * * * * * * * * * * * * * * * * * * * * * * * //

dimensions      [0 2 -1 0 0 0 0];


internalField   nonuniform List<scalar> 
13851
(
0.00656019
0.0223911
0.00252075
0.00660874
0.0023842
0.00297459
0.00677135
0.00439348
0.00688048
0.00227637
0.00916784
0.0191432
0.00584592
0.00893047
0.00674087
0.00560273
0.00658514
0.00594764
0.00198726
0.00687212
0.00663729
0.00239201
0.00678995
0.00691987
0.00677571
0.00421468
0.00666855
0.000198743
0.00659813
0.006581
0.00530694
0.00655452
0.00294476
0.0207684
0.00687463
0.00153377
0.000230994
0.000551289
0.00205639
0.0215408
0.00684297
0.00691395
0.00137763
0.0157134
0.0152494
0.00378252
0.0157271
0.0295995
0.00664894
0.00506566
0.00299462
0.00179529
0.00263206
0.00678321
0.0068402
0.00692313
0.00685628
0.00595711
0.00660754
0.00678945
0.000206924
0.00672426
0.00349997
0.00206095
0.00416153
0.00626934
0.000117766
0.01593
0.00485485
0.00596829
0.00169685
0.00171169
0.0214913
0.00678816
0.00674639
0.00691755
0.00305861
0.0026756
0.0037033
0.00216028
0.00681617
0.0130738
0.00675435
0.00330216
0.0032297
0.0191106
0.00342977
0.0201261
0.006549
0.00683264
0.00152509
0.00497034
0.0161884
0.00632806
0.0065734
0.00697589
0.00218781
0.0098578
0.00726863
0.00698716
0.00668145
0.00362681
0.00678786
0.00594151
0.00681008
0.00349893
0.00342364
0.00684483
0.00466722
0.00378336
0.00697012
0.00680021
0.00513083
0.006946
0.00695184
0.0195439
0.0101471
0.00681955
0.00688817
0.00683879
0.00118776
0.00609859
0.00662339
0.0171947
0.0278838
0.0064434
0.0282099
0.00331647
0.00666568
0.00155686
0.0068377
0.00676192
0.00251681
0.00675146
0.0189807
0.00676005
0.00681881
0.00149734
0.0126145
0.0132807
0.00703335
0.00684657
0.00646737
0.00699474
0.00673153
0.0171676
0.00592077
0.00135873
0.00676913
0.013346
0.00328277
0.00685476
0.00827559
0.00685306
0.00677222
0.00674091
0.00686402
0.00671901
0.00179743
0.00312397
0.00697479
0.00635074
0.00567444
0.00675974
0.00613838
0.00699346
0.00583306
0.00491614
0.00668672
0.00335378
0.00189659
0.00678055
0.00686214
0.0133056
0.00675435
0.0290668
0.00359851
0.00650056
0.00213627
0.00688458
0.00647138
0.00219248
0.0067464
0.00235462
0.00678999
0.00688598
0.00624562
0.00681267
0.00202527
0.00227126
0.0165967
0.0038253
0.00670785
0.00490816
0.00760075
0.00678288
0.0065313
0.0241669
0.00655566
0.00690952
0.0064289
0.00343856
0.00682644
0.00676378
0.00291497
0.00674839
0.013241
0.00657638
0.00813492
0.00694136
0.00938066
0.00679769
0.0198162
0.00685287
0.00700885
0.00560142
0.00360169
0.00481738
0.00673049
0.00863169
0.00655948
0.00681764
0.00988307
0.00171627
0.0102142
0.0068449
0.00612437
0.006803
0.00626062
0.00686404
0.0045951
0.00611471
0.00677282
0.00674128
0.00342864
0.00433351
0.0124019
0.0049462
0.00700471
0.00676521
0.00434107
0.0138822
0.00686276
0.00269447
0.00680042
0.0104691
0.00361563
0.015342
0.00672827
0.00645933
0.00551705
0.0138589
0.00682391
0.00671907
0.00377412
0.014047
0.00246014
0.002093
0.000200287
0.00673677
0.00699996
0.00609362
0.029361
0.0069058
0.00529334
0.00678343
0.00682481
0.00637803
0.00946469
0.00552827
0.00553651
0.00677296
0.0180002
0.00377715
0.00569811
0.00676668
0.0143941
0.00519871
0.00984652
0.00817236
0.00685479
0.00691619
0.00682517
0.0038985
0.0297165
0.0287432
0.00691306
0.00672804
0.0186532
0.00999167
0.00136013
0.00664958
0.00679334
0.00463541
0.00945885
0.00453989
0.00622903
0.0194673
0.00677562
0.0104436
0.00552766
0.00659661
0.00974934
0.00683922
0.00339324
0.0103626
0.00690438
0.00416713
0.00631289
0.00667404
0.012014
0.00620387
0.00682559
0.0101874
0.00694051
0.00643295
0.00628497
0.00934192
0.0021135
0.00673154
0.00358167
0.00673058
0.000905029
0.00516463
0.0068126
0.00687527
0.00215738
0.00620014
0.00677875
0.00672729
0.00683884
0.00682828
0.0114001
0.00561005
0.00450664
0.00549127
0.00927644
0.0102151
0.00673699
0.00503554
0.00136071
0.00459054
0.00343588
0.00208336
0.00211144
0.00600145
0.0257347
0.0103832
0.00674756
0.00493726
0.00490715
0.00466191
0.00677998
0.00327517
0.00659723
0.00686962
0.0249242
0.0068771
0.0067291
0.00680396
0.0068553
0.00683702
0.0101965
0.021013
0.00678999
0.00461675
0.0069835
0.0195211
0.00491409
0.0267612
0.00427659
0.00679628
0.00344514
0.00629467
0.0271666
0.0068303
0.00682047
0.00536173
0.00465459
0.00678118
0.0121152
0.00464574
0.00195997
0.00184056
0.00473943
0.0048449
0.00587454
0.0067572
0.00682846
0.00565835
0.00412833
0.00878431
0.00464214
0.00987689
0.0103392
0.00698351
0.00673831
0.00366102
0.00323552
0.00393933
0.0102803
0.00527092
0.00623003
0.00697257
0.00957682
0.0068395
0.00569092
0.00597026
0.00676767
0.00682702
0.00690396
0.00699756
0.00220477
0.00367699
0.00184622
0.00586944
0.00359294
0.00497261
0.011974
0.00634815
0.00584386
0.00662281
0.00536547
0.00681776
0.00689459
0.0068986
0.00182957
0.0209797
0.00162057
0.0051183
0.00103808
0.0220461
0.00366319
0.00689922
0.0035509
0.00682275
0.0115874
0.00678188
0.00972147
0.0143666
0.00308038
0.00706287
0.00646266
0.00522074
0.0159678
0.00353137
0.00679805
0.00608873
0.00384207
0.00541052
0.0067987
0.00682853
0.00345956
0.00178702
0.00531416
0.0168611
0.00684706
0.00686677
0.00432924
0.00602611
0.00689938
0.0213151
0.00675593
0.006562
0.0068155
0.00465398
0.0067559
0.00692234
0.00651192
0.010001
0.00675646
0.00461179
0.00675097
0.00552956
0.00483284
0.00692824
0.00685708
0.00695171
0.00696534
0.0281536
0.00682429
0.00295056
0.00674425
0.0069416
0.00850315
0.00630892
0.00675149
0.00538719
0.00632765
0.0165672
0.00383556
0.00686505
0.0213573
0.00683045
0.00233537
0.00677904
0.0072055
0.00680767
0.00222675
0.00246728
0.00691726
0.00537831
0.00715669
0.00447423
0.0167454
0.00686222
0.0233606
0.00686189
0.00675537
0.00678095
0.00676111
0.00508289
0.00308053
0.00188684
0.00095949
0.00380816
0.00698056
0.00906344
0.0198178
0.00645561
0.00570984
0.0143811
0.0193579
0.00895907
0.00683616
0.0073551
0.00242681
0.00350573
0.0061044
0.00527215
0.0217047
0.00513545
0.0129161
0.0217057
0.0117187
0.00669677
0.0118245
0.00370308
0.00681581
0.00530956
0.00315413
0.0040717
0.00670607
0.00674386
0.00685546
0.00680102
0.00215225
0.00473938
0.0193901
0.017181
0.00675995
0.0033704
0.006965
0.00515095
0.0186474
0.00465367
0.00686582
0.00689367
0.00497718
0.00943236
0.00676586
0.00278612
0.00151786
0.00692095
0.00437606
0.0256334
0.00168276
0.0020633
0.00568089
0.0035605
0.00683778
0.00676842
0.0204772
0.0103778
0.00197764
0.00545303
0.00288669
0.00687564
0.00675527
0.0100523
0.00689726
0.00671499
0.00687999
0.0067364
0.00416281
0.00207787
0.00543055
0.00689493
0.0111936
0.0243941
0.00677419
0.00684413
0.00688466
0.00681997
0.00512318
0.0177198
0.0179045
0.00485864
0.0205779
0.00445083
0.00234988
0.00692032
0.0059088
0.00485524
0.00686509
0.00629009
0.00549536
0.00955767
0.0280959
0.00282133
0.0061804
0.00685488
0.0056207
0.00644893
0.016469
0.0027217
0.00674222
0.00539053
0.00679189
0.00640742
0.0014929
0.00678363
0.00682197
0.00490392
0.00679887
0.00231978
0.00119173
0.00171865
0.00554626
0.00190805
0.00684292
0.00226351
0.00533899
0.00470743
0.00680639
0.0069645
0.00398196
0.00662223
0.00165491
0.0104454
0.00622579
0.0218286
0.00682688
0.0022324
0.00679258
0.0067424
0.00680557
0.00673903
0.00638124
0.00573416
0.00485266
0.00687555
0.0107888
0.00228112
0.0108
0.00685387
0.00679356
0.00680257
0.00136226
0.00823133
0.00392167
0.00637913
0.00678578
0.00696401
0.00680719
0.00687949
0.000185003
0.0163054
0.0067941
0.00687231
0.00676208
0.00687787
0.00642751
0.00466258
0.00555867
0.00914244
0.0228949
0.00681434
0.00191132
0.00442719
0.00483047
0.0187827
0.00681786
0.00606153
0.00417609
0.00599601
0.0217715
0.00674953
0.0212314
0.00678398
0.00444556
0.0083854
0.00689375
0.00669475
0.00314053
0.00676157
0.00651789
0.0256822
0.0119122
0.00276511
0.00431811
0.0064866
0.00685846
0.00684223
0.00898662
0.00159772
0.00406298
0.0104076
0.00692481
0.0068583
0.006817
0.0216178
0.000399025
0.00641728
0.00681819
0.00480734
0.00665347
0.00680406
0.00325966
0.0185501
0.0090782
0.00693801
0.00679007
0.00261751
0.00154592
0.00170316
0.0065156
0.0062181
0.00675209
0.00497813
0.00151561
0.00286208
0.00654719
0.0054399
0.00570253
0.0062358
0.000389364
0.00694777
0.00538153
0.00674016
0.0068394
0.00394277
0.00581772
0.00206445
0.00551859
0.00504034
0.00685866
0.0275826
0.00686688
0.00571926
0.00680033
0.00680602
0.00678727
0.010364
0.0068469
0.00684148
0.0164876
0.00677183
0.0044382
0.00675645
0.00647347
0.00343996
0.00795698
0.0208846
0.00677002
0.00907159
0.00962625
0.00682369
0.0096243
0.00486803
0.00682534
0.00483509
0.00202356
0.00801684
0.00642538
0.00676715
0.00685092
0.0170758
0.00260263
0.00339758
0.00628353
0.00477306
0.00681892
0.00650593
0.00283847
0.0227936
0.00210756
0.0289544
0.00678615
0.0022713
0.00271054
0.00870514
0.00643064
0.015556
0.000609194
0.00677253
0.0018911
0.00223942
0.00951192
0.0112673
0.0103197
0.0176669
0.00488044
0.0068285
0.00573591
0.00638628
0.00172327
0.00688356
0.00692679
0.00334693
0.00415555
0.00690391
0.00259142
0.00691089
0.00678117
0.00458614
0.00264281
0.0067571
0.0067447
0.00672933
0.00223692
0.000730052
0.0021065
0.00633173
0.00692074
0.00164332
0.00942094
0.0035012
0.00425726
0.00682608
0.00677504
0.020205
0.00458244
0.00262006
0.00510497
0.00467526
0.00365997
0.00907199
0.00561065
0.00675661
0.0050629
0.00677176
0.00547759
0.00670493
0.018429
0.00267261
0.00953839
0.00689158
0.0033924
0.0067775
0.000447134
0.0044225
0.0050646
0.00930826
0.00423842
0.00441784
0.00693927
0.00325381
0.029193
0.00244429
0.00670125
0.00196615
0.00693154
0.010543
0.0212873
0.00682549
0.00985882
0.00547602
0.00526295
0.0165959
0.00522837
0.00688115
0.00860189
0.00683168
0.0223517
0.00822419
0.00684474
0.00678437
0.00138659
0.0237943
0.0158371
0.00679929
0.00679461
0.0190199
0.0082465
0.00176982
0.00647625
0.00648877
0.0211917
0.00612607
0.00278534
0.00684521
0.00484998
0.00675651
0.00691206
0.00449439
0.00698637
0.00945349
0.0100575
0.00678679
0.00642226
0.00688059
0.00673671
0.00220859
0.00650754
0.00613766
0.0152129
0.00677242
0.00612605
0.00688618
0.00675868
0.00683228
0.00678552
0.0047413
0.00675354
0.00398309
0.00676025
0.00640783
0.00432801
0.00164186
0.00687021
0.0205996
0.00321674
0.000510808
0.00574381
0.00574268
0.00170693
0.00640863
0.0046001
0.0186707
0.0288364
0.00294193
0.00447003
0.0109856
0.00681643
0.00418559
0.00381743
0.0156573
0.00680176
0.0144667
0.00684168
0.006853
0.00971761
0.00649082
0.00429097
0.00651777
0.00678405
0.00465496
0.00677895
0.00672889
0.00667982
0.00681486
0.000998349
0.0068447
0.000471972
0.00614993
0.00326594
0.012527
0.00677161
0.0069003
0.00615231
0.00680753
0.00676906
0.00303736
0.00680812
0.00690942
0.00681246
0.0068029
0.00458944
0.0162028
0.00265972
0.0102212
0.000264201
0.00675767
0.028094
0.0062044
0.00683598
0.0186299
0.00375078
0.0242213
0.00675022
0.0165084
0.0238256
0.00744886
0.00675598
0.00636977
0.00589762
0.00667809
0.00661766
0.00691458
0.0137908
0.0018164
0.0292548
0.00690487
0.00674965
0.0257174
0.00682355
0.00719697
0.0205946
0.021465
0.00180787
0.0174717
0.00692231
0.00679877
0.00327867
0.00550607
0.00623063
0.00133763
0.00435534
0.0068097
0.00651261
0.0154364
0.00691113
0.00453286
0.00265058
0.0229125
0.000955443
0.00684919
0.00699106
0.0068319
0.0127577
0.018315
0.00676021
0.00691587
0.00691269
0.00288677
0.0069421
0.00691833
0.00681864
0.00513841
0.000561276
0.00447705
0.00546615
0.00678908
0.0044138
0.0069649
0.00680305
0.00165361
0.00841533
0.00301034
0.00699545
0.00363049
0.00674488
0.00680712
0.00683839
0.00276878
0.0020997
0.0222057
0.00618578
0.00490798
0.00674459
0.00679621
0.00684132
0.0259915
0.0242988
0.00698066
0.00525178
0.00350884
0.00621782
0.0069473
0.0232564
0.00636636
0.0128376
0.00274721
0.00874545
0.00279366
0.00302764
0.00194106
0.00755163
0.0172483
0.00355628
0.00686369
0.00111221
0.00693896
0.00669251
0.00575288
0.00681394
0.00741357
0.00606311
0.00633095
0.0207006
0.00128699
0.0280537
0.00673101
0.00671256
0.00636251
0.00697226
0.00555678
0.0200944
0.0154986
0.0226312
0.00673339
0.00592104
0.00624586
0.0228154
0.010142
0.00337611
0.00700059
0.00680394
0.00734581
0.00457718
0.0123122
0.0100637
0.00419847
0.00699976
0.00293561
0.00564003
0.0040378
0.00623539
0.00966627
0.0147861
0.00148538
0.00208892
0.00677855
0.00573388
0.00677707
0.00266693
0.00397318
0.0068279
0.00479494
0.00533144
0.00171235
0.00678552
0.0094338
0.000258738
0.00678276
0.00624607
0.0088656
0.00792272
0.00456446
0.00679126
0.00680459
0.00241915
0.00759136
0.00682655
0.00683002
0.00676533
0.00679129
0.00479043
0.00179903
0.00681676
0.00429388
0.00245419
0.0123261
0.00276463
0.0280626
0.00674048
0.00564909
0.00662009
0.00686
0.0017546
0.00746711
0.00677341
0.0068507
0.00109267
0.00936018
0.00653275
0.00673392
0.0144583
0.00678494
0.00483051
0.00673384
0.0260118
0.00681
0.00432401
0.0214242
0.0099817
0.00679761
0.00152032
0.0103027
0.0110678
0.00349429
0.0133384
0.00426106
0.00675299
0.0077733
0.0069344
0.00673068
0.0069825
0.0236134
0.0068133
0.000334699
0.00685026
0.00620591
0.00257933
0.00324704
0.00893313
0.00676745
0.00590597
0.00677451
0.00501254
0.00194453
0.00794778
0.00675634
0.00298111
0.016193
0.0068425
0.006923
0.00865861
0.00509498
0.00540277
0.00188834
0.0124209
0.0240074
0.00127171
0.00385664
0.00409065
0.00625386
0.0186701
0.0205022
0.00294289
0.00679569
0.00197427
0.00675595
0.00676026
0.0156618
0.00855977
0.00668342
0.00743063
0.00232324
0.00412844
0.00447523
0.00349792
0.006805
0.00296338
0.00500657
0.00673967
0.00679225
0.0101635
0.00971179
0.0236623
0.00883801
0.00494652
0.0101192
0.0100534
0.00502824
0.00679919
0.00683911
0.010637
0.0067681
0.000496793
0.00683957
0.00681686
0.00665833
0.00717154
0.0086786
0.00805862
0.00681312
0.00307355
0.00647852
0.0059175
0.00674056
0.0067856
0.00560303
0.00628621
0.00698709
0.0193997
0.00401809
0.00216876
0.00673547
0.00481548
0.00683539
0.00182843
0.00655001
0.00677693
0.00682261
0.00685109
0.00162248
0.00681367
0.00550342
0.00671037
0.00542356
0.000106776
0.00234614
0.00686279
0.00388757
0.00678751
0.00268513
0.00625969
0.00992242
0.00122178
0.00483592
0.00670307
0.00683825
0.00565715
0.00682427
0.00488317
0.00672798
0.00689996
0.00655685
0.010333
0.00638055
0.00635589
0.005297
0.00676263
0.00374424
0.010295
0.00511191
0.00474348
0.00677321
0.00511721
0.00679093
0.00689421
0.00121064
0.00963788
0.00675445
0.00579269
0.00150298
0.00330415
0.0068155
0.00681726
0.00904803
0.00679189
0.00500212
0.000141347
0.00815829
0.00681558
0.00615165
0.00675679
0.0103244
0.00198486
0.00492254
0.00210068
0.0082468
0.00680041
0.0079121
0.0133392
0.00684457
0.00782885
0.00299966
0.00683616
0.00559066
0.0067815
0.00687694
0.00688518
0.00129862
0.00475145
0.00159678
0.00677155
0.00680082
0.00486532
0.0208678
0.000216796
0.00869441
0.0152039
0.00681415
0.00197023
0.00134636
0.00472835
0.0028683
0.00387608
0.00677052
0.00531682
0.00691331
0.0173673
0.00509884
0.00675594
0.0154503
0.00113245
0.00579362
0.00566468
0.0069442
0.00676046
0.00386033
0.00556232
0.0227584
0.00284993
0.00326891
0.00340249
0.00167032
0.0155366
0.002572
0.00909484
0.00686813
0.00689841
0.00126836
0.00868063
0.00366952
0.00375779
0.00690145
0.00207157
0.0167181
0.00688492
0.00612238
0.00673507
0.00420914
0.00316799
0.00566643
0.00382003
0.000345072
0.00678881
0.00936567
0.00182175
0.00673812
0.00229949
0.0125759
0.004309
0.006696
0.00325453
0.00686188
0.00687444
0.00675425
0.00649123
0.00963547
0.00759036
0.00360367
0.00224907
0.00678843
0.00545312
0.00377167
0.00677824
0.00681318
0.00690525
0.00928379
0.00677192
0.00867052
0.00514236
0.00381322
0.00146479
0.00115463
0.00323883
0.0039453
0.00413166
0.00699184
0.00626291
0.00354498
0.00206254
0.00660294
0.00673564
0.00677303
0.00302277
0.00598047
0.0017588
0.0134166
0.00678848
0.00689963
0.00212705
0.00523318
0.00203017
0.0248022
0.00673622
0.00268203
0.00684839
0.0100471
0.00700323
0.0103542
0.00668706
0.00679178
0.00543461
0.00681573
0.00280266
0.005465
0.0038708
0.006942
0.00996561
0.006554
0.00605277
0.00679869
0.00376149
0.0075845
0.00682281
0.00700606
0.0174963
0.00681703
0.00551226
0.00676617
0.00521134
0.00310796
0.0221051
0.00491731
0.00665898
0.00676134
0.0034377
0.00999071
0.00675694
0.016475
0.00638326
0.0267549
0.00315216
0.00549003
0.00472257
0.0054235
0.00174549
0.00674247
0.0137947
0.0158462
0.00427948
0.00644881
0.0154695
0.006425
0.00416293
0.00685888
0.00125218
0.0182539
0.0103046
0.00666224
0.00630398
0.0145362
0.0204222
0.00534518
0.00673296
0.00678398
0.00684328
0.00646745
0.00346682
0.00692644
0.00684074
0.00675201
0.00682163
0.0101081
0.00120944
0.00586424
0.0075246
0.00446692
0.00655046
0.00675307
0.00693892
0.00561912
0.0101378
0.00114034
0.00645114
0.0067586
0.0189364
0.00280579
0.00368267
0.00158337
0.00595466
0.00957037
0.00550924
0.00577813
0.00674733
0.00693702
0.00268595
0.0234908
0.0110403
0.00808413
0.0031404
0.00813499
0.006102
0.00663367
0.00679077
0.00403049
0.00886209
0.0194762
0.00393062
0.00671873
0.00677866
0.00676589
0.00672886
0.00690468
0.0023817
0.0060939
0.00292851
0.00567623
0.0100893
0.0103076
0.0104433
0.00490535
0.00627957
0.00698914
0.00488857
0.0188092
0.00751502
0.00675304
0.00485335
0.00635225
0.00368252
0.0025595
0.0053818
0.00468909
0.0157719
0.00689767
0.0037151
0.00685395
0.00724083
0.0203371
0.00667428
0.00676438
0.0130132
0.00495622
0.00152134
0.0223224
0.00195571
0.0055683
0.00678605
0.0170279
0.00924261
0.00270134
0.0050885
0.0102324
0.011119
0.00685833
0.0067494
0.00665268
0.0101033
0.0101392
0.00674071
0.00403408
0.00681337
0.0068488
0.00683679
0.00203437
0.00287396
0.00481661
0.0033324
0.00671556
0.00677969
0.00677709
0.00225738
0.00683721
0.00807476
0.00649064
0.0229797
0.00680574
0.00676005
0.00171568
0.00218507
0.0180981
0.00532214
0.0102189
0.00691253
0.00679009
0.00675168
0.00473084
0.00287947
0.00293077
0.00502844
0.00832652
0.00664247
0.00146675
0.00277799
0.0154522
0.00683463
0.00637053
0.00871368
0.00542638
0.0275527
0.00363844
0.0075191
0.00680758
0.00304517
0.00688149
0.0187608
0.00158169
0.00261971
0.00973885
0.00662697
0.00426838
0.00676868
0.00464387
0.00700734
0.00673527
0.0235566
0.00236153
0.00856312
0.00190102
0.00372964
0.00618555
0.0068834
0.0251854
0.00553189
0.00673029
0.0017761
0.00670449
0.00396793
0.00678261
0.0275141
0.00683569
0.017457
0.00889248
0.00541245
0.00425236
0.00375444
0.00997065
0.00686107
0.0197913
0.015102
0.00675865
0.00675997
0.00675405
0.0068069
0.00511269
0.00677835
0.00650733
0.00317516
0.00489548
0.00269642
0.00685236
0.00682164
0.0069415
0.00438625
0.0067941
0.0068329
0.000316868
0.0064094
0.0241468
0.00948897
0.00283843
0.00644447
0.00560568
0.00678167
0.00681488
0.00458201
0.00700368
0.00658688
0.0040665
0.0104875
0.000845911
0.00678524
0.00520852
0.0193202
0.00680716
0.00484828
0.00919516
0.00673934
0.0067184
0.00673087
0.00431212
0.00793286
0.0297144
0.00701081
0.00666763
0.00642891
0.00676887
0.00166605
0.0068443
0.0045629
0.00232119
0.00901251
0.00677677
0.00668741
0.00637822
0.00766878
0.00694614
0.00770816
0.00466606
0.00625244
0.0278965
0.00409099
0.0126072
0.00658276
0.0290178
0.00726232
0.00679884
0.00686866
0.00676507
0.00969884
0.00412332
0.0055686
0.00678251
0.00965919
0.00680906
0.00133916
0.0069653
0.00671982
0.00680374
0.00677014
0.00823254
0.0067933
0.0155056
0.0104156
0.00750646
0.00444649
0.00439396
0.00768589
0.0100007
0.00682029
0.00175907
0.00693193
0.00682744
0.00674774
0.00553973
0.00689572
0.00713969
0.00558831
0.00447927
0.00492845
0.00467929
0.00759122
0.00210016
0.00676057
0.00369497
0.0028197
0.00791336
0.00682503
0.00678522
0.00687296
0.0145551
0.00682839
0.00638313
0.00672427
0.00424613
0.00353133
0.00682536
0.0156032
0.00681209
0.010315
0.00676849
0.0029682
0.0047499
0.00677805
0.0070352
0.0070905
0.00684572
0.00366119
0.00658916
0.00512625
0.00489067
0.00263243
0.00436263
0.00681925
0.00367757
0.00912521
0.00673506
0.00559097
0.00645596
0.00316045
0.00488313
0.00502526
0.00667154
0.00678545
0.0063222
0.00680167
0.0041456
0.00999398
0.00647116
0.00514978
0.00762361
0.00122936
0.00676476
0.00639826
0.00199813
0.00505679
0.00679702
0.0101889
0.00686298
0.0025585
0.00478838
0.00196701
0.00672934
0.00557259
0.00671653
0.00384902
0.00960118
0.00681509
0.00668651
0.00139271
0.0100539
0.00508715
0.010143
0.0218907
0.00733208
0.00684085
0.00990552
0.00751627
0.00864247
0.00673635
0.00633807
0.00686988
0.0100765
0.00554943
0.0180155
0.00916746
0.00682306
0.00699071
0.00673803
0.00823368
0.00148201
0.00701912
0.00765838
0.00676567
0.00766907
0.00926982
0.00190525
0.00470536
0.00748721
0.00520214
0.00212882
0.00673196
0.00538082
0.00366134
0.00803314
0.00644386
0.00668664
0.00682707
0.00675675
0.0132989
0.00661246
0.00729651
0.0012422
0.00582256
0.00681956
0.0068718
0.00843282
0.00684788
0.00675044
0.00430031
0.026922
0.00675219
0.00680956
0.00856763
0.0111332
0.00673939
0.00673577
0.00680232
0.00675438
0.0229236
0.00680877
0.00686644
0.00643637
0.00200314
0.00993441
0.00605865
0.00892776
0.00679051
0.00652856
0.00913492
0.00956938
0.00606824
0.00309697
0.00673013
0.00520316
0.00665633
0.00635897
0.00323414
0.00688682
0.0299666
0.00556033
0.00691446
0.00656589
0.00815122
0.0156715
0.00526136
0.00675414
0.00678072
0.00939491
0.0204108
0.00667285
0.00684139
0.00673527
0.00650602
0.00681336
0.00684492
0.00625044
0.00675867
0.00908123
0.00392642
0.00682112
0.00663648
0.00701498
0.00684216
0.0166353
0.0104026
0.00289619
0.00544108
0.0029655
0.00681983
0.00673024
0.00678192
0.00687057
0.00681569
0.00690841
0.0027927
0.0101435
0.00657115
0.00188768
0.00549142
0.00472459
0.0068246
0.00673492
0.00672235
0.0120862
0.00686925
0.0056039
0.000203015
0.00398392
0.00649521
0.00192325
0.00699506
0.00458722
0.00679025
0.00698323
0.00682079
0.00692335
0.00480556
0.00703078
0.0030621
0.00517965
0.0132543
0.00890325
0.0195488
0.00499642
0.00670818
0.00525212
0.0016559
0.0113856
0.00856725
0.00215875
0.0110778
0.00681149
0.0068861
0.0195461
0.00681533
0.00663165
0.0140536
0.00515713
0.0199307
0.00127992
0.00687061
0.00617216
0.00680371
0.00461607
0.00697514
0.00497802
0.00893105
0.00953557
0.0202512
0.00681298
0.00691271
0.00328309
0.00836409
0.00899698
0.00182298
0.000508436
0.00677095
0.00074047
0.00649053
0.00402664
0.00660997
0.00681936
0.00693208
0.00665579
0.0068523
0.00686031
0.00665437
0.00870361
0.00279795
0.00692484
0.00496245
0.00573986
0.00152913
0.0067406
0.00684274
0.00653584
0.00679429
0.00680805
0.0127996
0.0105005
0.0252499
0.00982689
0.00635229
0.00779134
0.00135394
0.0100377
0.00791104
0.00684029
0.00692534
0.00827988
0.00682194
0.00685884
0.0267714
0.00903781
0.00142065
0.00677496
0.00679901
0.00620079
0.0051619
0.00867948
0.00692965
0.00648002
0.000469542
0.00680166
0.018459
0.00520989
0.0150854
0.00681742
0.00034573
0.00898747
0.00527376
0.00837873
0.00211076
0.00694237
0.00700602
0.00649778
0.00684702
0.00599716
0.00246889
0.00678998
0.00478129
0.00659413
0.00680467
0.00673295
0.010146
0.00393378
0.00202475
0.0280957
0.00677435
0.00442696
0.00589791
0.00372191
0.00686397
0.00652754
0.00683033
0.00400647
0.00685711
0.00690921
0.0102251
0.00871407
0.0102294
0.00322973
0.00110457
0.00764611
0.00344408
0.00967578
0.00152767
0.00701077
0.00677802
0.00681862
0.00683797
0.00848975
0.0087857
0.0069658
0.0036866
0.0104839
0.00528244
0.0065938
0.0067973
0.0101709
0.00857444
0.00861285
0.0141715
0.00893551
0.00681603
0.000463081
0.00187421
0.00679456
0.00387866
0.0067459
0.00197047
0.00690932
0.0055902
0.00971067
0.00682768
0.00498107
0.00733987
0.0097092
0.00327255
0.00584882
0.00264144
0.00198077
0.0096076
0.0104585
0.00912138
0.00214634
0.00927755
0.00680433
0.00614219
0.00386975
0.00437575
0.00988386
0.00662356
0.00687675
0.00185837
0.00289521
0.0069195
0.00857962
0.00674061
0.00190013
0.00450439
0.00673599
0.0158584
0.0115076
0.0103554
0.0100873
0.00438282
0.00749373
0.00688745
0.00840399
0.00661798
0.00684225
0.00419101
0.00667937
0.00853884
0.00666493
0.00675165
0.00664823
0.00692483
0.0100004
0.00675094
0.00209521
0.00607085
0.00675767
0.00601832
0.00184335
0.00655037
0.00461741
0.000302476
0.00672919
0.00661518
0.00681755
0.0104774
0.0054333
0.00694963
0.00220206
0.00674492
0.00844249
0.00878888
0.00294113
0.0174748
0.00615769
0.00673651
0.0142741
0.00651814
0.00687017
0.00164922
0.00480256
0.00675813
0.006917
0.00160037
0.00675891
0.00459681
0.000486345
0.0052275
0.00751764
0.0043341
0.00325202
0.00688372
0.00855637
0.00215011
0.00912419
0.00673851
0.00700118
0.0023774
0.00588104
0.0245237
0.00686536
0.0267648
0.00686803
0.00246578
0.00683291
0.00530631
0.000485558
0.00216361
0.00645218
0.0180559
0.00933015
0.0084762
0.00682897
0.000516997
0.000390177
0.00368859
0.00681382
0.000174124
0.00224979
0.00625852
0.00216498
0.00196794
0.0301818
0.00868662
0.00442275
0.000369763
0.00676757
0.00375749
0.00466748
0.00673939
0.00344409
0.0082763
0.00507273
0.00697615
0.000494152
0.00674817
0.00684663
0.00542107
0.0067422
0.0196613
0.00693451
0.00688172
0.0090123
0.00119716
0.00527759
0.00195605
0.00693983
0.00248867
0.00489523
0.00865949
0.00572601
0.00578646
0.00874386
0.00658427
0.00678081
0.00650357
0.00689669
0.00108906
0.000476524
0.00122853
0.00680451
0.00690085
0.00674397
0.00680969
0.00642662
0.00780307
0.000416629
0.00614609
0.00857435
0.00447756
0.00638912
0.00248769
0.00675925
0.0060718
0.00377191
0.00674719
0.00602393
0.00637443
0.00667053
0.00675372
0.00860577
0.00694315
0.00442146
0.00605016
0.00309732
0.00867553
0.0165397
0.00905865
0.00682011
0.00302865
0.00977291
0.00303012
0.00219338
0.00499128
0.0102093
0.00745145
0.00990471
0.00691115
0.0088376
0.00698468
0.00662917
0.0067656
0.00331513
0.00792694
0.00183658
0.0260199
0.00520387
0.00336779
0.00683863
0.0067355
0.0068047
0.0068861
0.00423507
0.00913392
0.0103694
0.00318886
0.0261215
0.00683833
0.00370631
0.00676367
0.0101764
0.00274452
0.00683314
0.00123833
0.00195074
0.0180124
0.00587078
0.00156239
0.00173349
0.00655721
0.00937878
0.000560557
0.00421682
0.0184434
0.00661214
0.00381173
0.00678906
0.0092412
0.0040592
0.00466624
0.0110688
0.000476417
0.0131691
0.00313267
0.00119291
0.00445864
0.00673405
0.00212113
0.00347276
0.00664899
0.00380442
0.00592391
0.00570764
0.00561129
0.00162337
0.00670071
0.00592095
0.00491577
0.0056488
0.00652578
0.017364
0.00178744
0.00434775
0.000975713
0.00676999
0.00800189
0.00673392
0.00644897
0.00668438
0.00816913
0.00502833
0.00960579
0.00297657
0.00356551
0.00380881
0.00210329
0.0164193
0.00189576
0.0179766
0.00678396
0.00428673
0.00686397
0.00845585
0.0255209
0.00678923
0.00688365
0.00509622
0.00648435
0.0065989
0.00443059
0.00439425
0.00681174
0.00538455
0.00299347
0.00604888
0.000784486
0.00424288
0.00695671
0.0160283
0.00493799
0.00369877
0.0188408
0.00451248
0.0195539
0.00687859
0.00676212
0.0064464
0.00545762
0.0067832
0.00774661
0.00540822
0.0078633
0.00501891
0.00862553
0.00117492
0.00631036
0.0165638
0.00362237
0.00121333
0.0035789
0.00410299
0.00666047
0.00464198
0.00275398
0.00627835
0.000474471
0.00561935
0.0208914
0.00673428
0.00113195
0.00357386
0.0169937
0.00674391
0.00398846
0.00687354
0.00588353
0.00977368
0.00605043
0.00611716
0.00676156
0.00674276
0.0102247
0.00702305
0.00686164
0.0146921
0.00124513
0.00685154
0.00592594
0.00833335
0.00161889
0.00205019
0.00675437
0.00633667
0.00183562
0.00692671
0.00685597
0.0120688
0.00610452
0.00785259
0.00296599
0.00645738
0.00740999
0.00177371
0.00133712
0.00675683
0.0261278
0.00514754
0.00640327
0.0178666
0.00421361
0.00684178
0.00253095
0.00662035
0.00609396
0.00699344
0.020628
0.00677337
0.00290692
0.00725834
0.00191903
0.00691692
0.00198977
0.00522376
0.00667659
0.000830892
0.00619654
0.00199469
0.00940975
0.00674768
0.00271628
0.00629244
0.00674715
0.0249964
0.0114082
0.00575546
0.010755
0.00599021
0.00254613
0.00611647
0.00626907
0.00527852
0.0267099
0.00892404
0.0159848
0.0030076
0.00590415
0.00687078
0.00288624
0.00521296
0.0265239
0.0200471
0.0101955
0.0166031
0.0102902
0.00674277
0.0137298
0.00673567
0.0067959
0.00681067
0.02642
0.000607496
0.00248894
0.00682433
0.000878007
0.00631664
0.00519814
0.00682395
0.00331895
0.00525372
0.00350063
0.00480333
0.00209462
0.00677065
0.000307743
0.00115794
0.006762
0.00690972
0.00118385
0.00345983
0.00685392
0.00601573
0.00678535
0.00687543
0.00371341
0.00541267
0.00566577
0.0012082
0.00287038
0.0149726
0.00669369
0.0226187
0.00368134
0.0164241
0.00583946
0.00576099
0.0260962
0.00568025
0.00408233
0.00320757
0.00384506
0.0066428
0.00683776
0.00956632
0.00518378
0.00669276
0.00584562
0.00590455
0.00695454
0.00632857
0.010484
0.0068331
0.00482845
0.00963474
0.0021397
0.00270531
0.0102566
0.0159714
0.0103501
0.0105476
0.0237582
0.00379617
0.0251712
0.00676494
0.00566461
0.00679461
0.00677239
0.0063428
0.0203675
0.00560511
0.00685864
0.0136575
0.00225614
0.0066773
0.00554445
0.00370685
0.00678825
0.00673407
0.016675
0.00592177
0.00450998
0.00513157
0.00669679
0.00226424
0.00329207
0.00597009
0.00469219
0.00267994
0.00876275
0.00374236
0.00727225
0.00636903
0.00329486
0.00127646
0.00177628
0.00319979
0.0157313
0.00322093
0.00633583
0.00388302
0.0028435
0.00654042
0.00289121
0.00681908
0.00674179
0.00697478
0.00661169
0.00783576
0.00697972
0.00224251
0.00641479
0.00669841
0.00658984
0.00148277
0.0067275
0.00340565
0.00680893
0.0065794
0.00652511
0.00692021
0.00214348
0.00670876
0.00693829
0.00679999
0.00595097
0.00678755
0.0193331
0.00631352
0.00845717
0.00626144
0.0115464
0.00298979
0.00278701
0.00385804
0.00448252
0.00587276
0.00568587
0.0201676
0.00806667
0.0108292
0.00320098
0.00509945
0.00662707
0.0140764
0.004756
0.00750075
0.00666803
0.0259247
0.00180218
0.0226445
0.0237884
0.00700329
0.00673521