/*--------------------------------*- C++ -*----------------------------------*\
| =========                 |                                                 |
| \\      /  F ield         | OpenFOAM: The Open Source CFD Toolbox           |
|  \\    /   O peration     | Version:  v2012                                 |
|   \\  /    A nd           | Website:  www.openfoam.com                      |
|    \\/     M anipulation  |                                                 |
\*---------------------------------------------------------------------------*/
FoamFile
{
    version     2.0;
    format      ascii;
    class       volScalarField;
    location    "750";
    object      omega_0;
}
// * * * * * * * * * * * * * * * * * * * * * * * * * * * * * * * * * * * * * //

dimensions      [0 0 -1 0 0 0 0];


internalField   nonuniform List<scalar> 
13851
(
0.287942
0.0278029
0.0275671
3.84184
0.0220871
0.0316503
0.0282482
0.0219646
3.43298
0.022082
0.0980298
0.0220991
0.0222396
5.9913
0.0562965
0.271778
7.29432
0.0223803
6.07204
0.288932
0.0641976
0.0295933
21.4385
0.0222638
6.64912
0.113204
4.27371
5.21982
3.43519
0.021885
3.25367
0.0282584
0.279606
3.57445
0.0615601
3.45442
0.0222742
9.52828
3.20782
0.0223851
3.3771
3.50138
16.9274
1.0735
3.57271
0.022036
0.0216677
0.264263
0.0253317
0.0222278
7.8586
0.0222872
0.27179
0.0446077
6.41023
0.0223738
0.286344
3.35894
4.04649
6.91932
0.0221054
4.23189
0.0221161
0.025583
0.310318
0.338936
10.4608
0.0732832
0.0225755
3.50101
3.37505
0.0790756
0.0221548
8.38845
0.0482784
0.0253772
5.91933
0.0217602
6.83923
0.0220202
0.0226165
3.83076
0.0597399
5.91186
6.54759
3.26489
0.0300879
6.58085
0.0220827
3.25583
0.0223362
0.0284848
22.6025
3.34165
3.30231
0.601887
0.0220487
0.282247
7.79892
0.329747
0.288089
0.0461271
0.0507134
0.0222273
0.0220483
0.0741341
0.0220461
3.30632
0.0284769
0.0223124
0.0353182
0.0220403
0.420875
0.10059
0.267421
0.0424839
0.0218404
0.0218957
4.06566
3.42724
0.360387
0.0220626
0.0225133
3.71949
5.06562
0.140496
0.0220499
0.0783298
3.40391
0.0743022
0.0295113
0.0414549
10.2979
3.54294
0.101431
3.28598
0.0705238
3.28923
0.0386192
0.0739322
3.14472
0.0230661
0.0220846
0.127994
6.05053
0.0247886
0.0217491
3.31191
3.54654
0.0817749
0.288174
0.372809
0.10776
4.49281
0.0224535
0.022121
0.0221156
3.21523
0.0672763
0.0265831
0.022243
3.4399
0.0731043
0.263363
6.24022
3.48072
3.51217
6.45487
0.0348675
4.36178
0.0221191
0.0218362
0.0949009
0.0221402
3.25859
4.60737
0.304398
0.0218265
0.0482372
0.301215
4.22658
1.01736
0.0340329
0.0737255
18.9378
3.51484
0.278402
0.0308579
0.0223773
0.0219557
6.29263
0.0671744
10.3381
0.0318245
0.0245854
0.276658
0.266663
0.0229662
0.0229295
0.0805309
2.67104
3.29942
3.34078
0.0564791
3.34609
3.35999
0.0241124
0.0732778
3.4327
0.0301114
0.26863
0.0224788
3.50013
0.0222385
0.0633859
0.0266906
0.0221937
3.53634
0.0230317
3.62785
0.0218212
0.289777
8.60275
3.27361
0.0304827
0.0745013
0.0222657
0.1075
0.0220522
0.0623762
4.26734
0.0302279
0.0301419
0.0221308
3.34368
0.021884
22.2217
3.33251
0.281609
0.0222516
8.69885
6.25689
3.63986
0.268955
0.0478014
0.179057
1.41868
0.0485271
0.564735
0.038319
7.17459
0.307266
0.0219126
0.0320578
0.282219
3.40838
4.70794
0.021946
0.144756
0.0220795
0.891779
4.68339
0.0330105
0.0740985
0.315994
0.0220988
0.047742
0.209275
5.16451
0.0221085
0.0221909
0.0306076
3.54217
5.61612
0.0729608
0.022116
4.70935
4.5739
0.230276
0.0734835
3.49843
8.38315
0.033707
0.0498605
10.5168
0.0220476
0.0221139
0.239511
0.0829412
0.0218962
0.0222357
0.0220461
0.0220135
0.0478823
0.0221086
3.43207
0.067779
0.0222087
3.41612
3.87564
0.0223357
0.294532
8.32576
0.0232729
0.0223661
0.070901
7.07901
3.73413
0.108323
0.0220759
4.45323
0.0221125
0.117546
6.48521
5.11385
0.0263272
11.3151
10.9202
3.2076
0.352501
0.0482681
3.23651
3.48729
5.27956
0.0230916
4.96071
25.6032
1.00734
0.856005
0.024131
0.105825
0.0322087
6.11538
0.0529901
0.0218969
0.0215733
0.0331233
3.26623
3.07694
0.0220383
3.31729
0.0324044
0.0418547
0.0269522
9.17087
4.18658
0.276696
0.0262102
0.0290626
3.45499
0.0223941
5.02352
0.0335118
0.0709111
0.0326608
0.0220811
0.0222075
0.333325
0.391115
0.308784
10.9186
3.49236
0.0249375
3.34017
3.90724
0.0218934
5.06654
0.167789
6.39005
0.0322469
0.119991
3.98196
8.25936
0.296861
6.02764
0.0238824
4.64171
14.0268
0.0416019
5.2836
0.0465184
3.33256
0.0489295
0.0634993
0.303821
0.737541
0.0221193
0.0325846
0.0892852
0.0486347
0.0220628
0.073967
4.08255
0.0221577
0.0735811
4.69381
0.0271149
12.1793
0.0712591
3.91562
0.0311742
0.10636
2.78572
4.80923
0.0725854
5.81186
8.27157
4.26855
0.0220962
0.303756
0.046416
0.119679
0.0220736
18.2165
4.00261
7.4666
0.0289941
0.317741
4.33997
5.35317
0.0217035
6.51554
1.17292
18.8582
0.0399443
5.53876
0.0221221
0.0221293
8.06133
4.40678
0.0220831
0.0278612
0.0749627
0.0218695
4.15501
0.10707
0.163123
0.031844
0.0239113
0.0222785
8.66088
0.0221915
0.0222594
4.2013
4.16973
0.0287043
3.80783
0.0221211
0.0221062
0.0278527
0.312602
0.0702917
0.022085
0.02456
0.344155
0.0258484
4.23347
0.0220932
0.0361381
3.59861
0.0393724
0.0216229
0.0221358
0.0316369
0.0233175
4.10992
4.10836
0.0483414
6.78435
0.0279872
0.0220848
3.42769
3.95676
0.0378285
0.0222086
3.53845
0.0367623
18.6309
0.0222227
0.0422111
0.311846
0.0521366
3.41698
4.33227
7.75345
0.024891
0.402014
0.0221061
3.41272
0.0710924
0.266551
0.046184
0.0258391
0.0393772
0.0957533
0.0220972
5.92924
3.41964
4.49259
4.97424
4.15346
4.42662
4.95988
0.0295479
0.022216
18.2351
0.0220831
0.0220564
0.0320153
3.25216
0.02747
0.0230198
0.122209
0.0711439
0.0220796
4.753
0.022041
3.43896
3.2691
0.022021
0.0261782
1.57336
5.113
0.021898
7.81072
18.3783
0.0219556
3.1978
5.9616
0.287765
0.0248371
4.22113
6.66385
0.021992
5.97546
0.0225358
0.0220483
4.10779
3.33195
0.0564427
0.069196
0.0220827
0.0937309
3.42568
3.22765
0.0221958
5.68861
0.0220724
0.0225801
0.073637
0.0361997
0.0216993
0.0253687
3.19765
0.65187
3.21233
0.0266682
0.0220784
3.57041
0.0221913
0.312991
0.0359816
0.0484139
0.0472496
3.81847
6.77122
0.0315883
6.60007
0.0257784
0.105172
3.53227
4.72398
0.0224756
0.0221087
0.0509796
3.21024
2.93552
0.0927331
21.1964
0.0365479
0.0469761
5.34886
4.64649
0.238626
3.42493
0.75304
3.54733
0.0234419
4.04795
5.71081
0.0221017
18.7544
3.81593
0.0350398
0.07386
0.0223111
6.383
0.112098
12.7993
0.0221914
0.0221666
0.0273863
0.0694406
0.022101
3.27651
0.0221611
0.481816
0.0249124
0.121284
0.0222219
0.0220804
0.0586909
6.08489
0.0720808
3.32532
0.0422108
0.0218817
0.0220159
0.0953054
0.0245346
0.179129
0.0284108
0.0370047
3.98188
0.0221928
5.83061
0.0222559
0.16746
5.63217
3.57572
0.0292292
15.4004
0.11667
0.547776
3.7352
0.02233
4.42054
0.0324615
0.0434443
4.56712
6.68868
0.021919
0.170577
0.022926
3.46993
6.8212
0.0227839
0.0805321
4.1487
0.0222659
0.0222559
0.11521
7.48569
4.24812
0.0223743
0.304371
0.0253637
0.0220848
3.96236
0.315958
0.31979
0.0216635
0.211518
0.052396
0.0975305
0.0229076
0.0242992
0.103422
0.0272463
0.232718
0.0792966
0.0788443
0.192009
5.63258
6.07221
4.18326
8.2013
0.276321
4.41865
0.0466963
4.1316
0.299619
0.0222553
0.0456137
5.30922
0.0315758
0.0220188
0.022011
0.168782
7.44232
0.0364864
3.3408
0.0218874
4.26198
0.207036
8.83824
0.170763
0.0314785
0.0275683
7.37951
0.317038
0.0448798
4.40535
0.0236336
14.6146
0.16917
0.622861
0.0445403
5.35789
0.0221224
0.0222483
0.0237937
0.022086
3.50988
0.022012
3.88511
3.51524
0.174698
3.22644
6.9976
0.739937
0.694979
0.0293502
0.0221876
0.0221615
0.0217631
0.0220073
0.0221426
0.106874
0.381227
0.056751
5.25222
0.0243651
3.43749
0.0222945
3.60346
0.0549183
0.022285
0.0221453
3.55995
0.0319095
4.43754
3.84619
0.070342
0.114383
0.0219303
3.51746
0.0259008
0.0275107
3.97593
0.0221917
0.0230777
0.0222454
0.071248
6.43416
0.0378532
0.0455518
1.47604
3.26338
0.030191
0.0291767
3.56306
0.0217548
3.52603
0.0222029
0.0259012
6.7507
0.140512
0.265618
0.15185
0.0727527
0.022233
0.0222942
0.112842
0.0235666
0.0222395
0.0377941
1.03719
0.0220006
0.460537
12.1613
4.37825
0.145972
3.38896
0.0389086
0.022184
0.283834
0.0219013
0.0326903
4.27989
3.49593
4.39724
3.65869
0.0229424
0.0227264
0.0861995
0.0239993
0.0220248
22.1799
1.19034
5.12127
0.169221
0.143977
0.0220972
0.0218932
14.2229
0.164029
0.0266446
0.0222559
0.263151
0.498005
3.33017
0.0224308
0.0221563
8.60039
0.0228684
0.0469001
0.0218696
3.25322
0.0220333
5.09382
0.0221021
0.248465
0.0592259
0.0858503
0.0452447
0.0221471
0.027827
0.0220329
3.78365
0.0229452
4.01188
0.023802
4.70286
3.4573
0.0418
0.0220142
4.0264
4.15203
0.0326445
0.139157
0.0221616
7.38329
0.0223092
4.94319
0.0220917
0.0220301
4.43403
0.0477049
0.0221275
0.0453158
3.36848
5.44528
4.03894
0.0219409
4.1035
0.0221036
0.0220061
0.0224544
0.0215246
0.0222397
3.94135
4.22749
0.0230457
0.0221574
0.0570682
0.0220444
3.66039
0.298789
5.19789
3.22712
0.0277345
0.234841
0.0220963
0.0640795
0.159494
0.0223055
0.0222114
10.6241
6.89263
0.111629
15.9303
0.102926
0.0221208
0.0594018
0.142668
7.23327
0.0455198
4.31649
0.16845
0.0222272
8.69042
7.14901
4.88092
6.46223
4.07125
0.0248792
0.173464
0.0222566
4.86954
0.0307547
0.0218997
3.93386
0.0241516
0.0220143
0.0224836
0.0238542
3.26867
5.036
0.0219461
0.0606524
6.89122
0.0246549
15.5072
0.023788
0.133216
3.31366
0.0221122
3.38604
0.0353428
0.0439082
6.13188
0.0241356
3.43214
0.104843
3.38287
0.0231664
4.67268
0.0407264
4.33124
7.81692
6.15427
0.0704756
0.0221579
0.022954
0.0222659
0.0598424
0.0221399
3.40311
0.0328721
0.0294813
0.029914
0.0248168
0.0219314
0.0340578
0.032641
0.0261784
0.0310874
3.57605
3.68283
0.0396265
0.0658432
4.02086
0.02309
3.22974
0.0217597
0.0379541
0.0229507
0.0222229
0.0559497
0.0220816
0.021939
0.0475385
0.0221288
0.84153
0.0241706
19.6817
5.33227
1.80862
3.84233
0.0227038
3.24912
0.36764
0.02223
0.0322731
0.0228941
3.19355
0.0237105
0.0475881
5.03947
5.38656
0.121785
0.0227507
3.75149
5.06105
4.10347
0.0352191
0.0218748
0.0221718
0.108652
0.022138
8.10649
0.343113
0.0222075
3.47244
1.01332
0.022205
3.66713
5.73813
0.891866
0.0240265
3.77268
0.105711
0.0220423
6.92468
0.0291067
0.0221377
0.0220383
0.0455501
0.0605626
3.44648
3.29402
0.0634597
3.49709
0.0490915
0.0220919
0.0909104
0.0220132
12.5991
0.022222
0.022055
0.0256347
0.0234966
3.49448
5.89145
3.18488
6.91379
3.9251
0.0306285
0.022177
0.0241713
4.75619
0.0221954
0.022103
0.0581313
6.59734
3.0122
0.0217233
0.0486
0.0458567
0.293481
15.6565
0.0219547
0.0216818
0.0261647
8.07402
0.0378341
3.41107
0.02426
0.0221668
0.0221532
0.0220399
0.0266722
0.697604
3.5976
3.51336
0.0297507
0.0220868
14.7405
0.0233272
5.45194
5.01866
0.0326302
4.83474
3.48174
3.33223
0.0860998
0.0449633
3.7518
0.0415762
0.0374996
0.0897147
0.608637
0.0234391
5.82723
0.0220939
4.31808
7.74093
0.0217641
0.0249481
0.0572332
2.73941
0.0478325
0.0221461
0.0363233
0.0235379
0.0312767
1.63078
0.0221764
4.11386
6.54082
0.0221058
0.0428604
0.0602939
0.0221064
3.44635
17.7491
3.24075
3.56019
0.0220702
0.0271015
0.0312026
0.0224888
3.21368
0.0486313
0.0222601
0.101897
0.0267169
4.60027
0.0595034
8.5126
0.0234545
0.0246101
0.0544183
0.164225
0.117965
0.0220821
17.6355
4.07284
25.6443
4.02253
4.25541
3.46925
4.61684
0.0220765
0.0220773
0.0225479
2.55444
0.0696986
0.116568
6.53578
0.0230149
0.0217037
0.0220829
1.06445
0.0217394
0.0331069
0.0251212
4.27779
0.0235281
0.0219054
0.0221131
0.02215
0.0221641
0.0373714
2.84087
0.0376443
4.38957
0.0220771
0.0220479
3.41458
3.51647
7.64964
4.30682
0.0534265
4.23741
0.021867
0.077491
0.0246029
0.0221068
0.0277888
4.45715
0.0248508
0.167511
13.0112
0.0231203
0.0221976
0.0274127
0.976402
0.0222731
4.27162
0.0225235
1.60826
0.0221395
0.0230298
0.0328681
0.117542
0.0222554
4.32539
3.32769
0.360923
3.59394
0.0221183
5.99793
4.88533
0.0220856
7.98047
0.022471
0.0440849
0.0223729
0.0229229
0.0219854
0.0220785
0.0231145
0.0282711
0.110353
0.0228828
0.0221144
0.066984
0.0218995
4.71949
0.0221387
0.0439813
0.0487617
5.50212
5.36637
0.022163
1.04654
0.021861
0.0420218
0.0952935
4.26696
0.0742091
0.0222734
0.201787
0.0851142
0.143295
5.47443
0.0396157
0.314032
0.0927592
0.112195
0.023505
0.0220772
4.40604
4.45965
0.0274503
0.0220393
14.2798
0.0218964
0.0626315
0.0220129
0.119256
9.09898
0.0216254
5.50466
0.0314293
0.022174
0.298725
0.0218983
0.0418879
3.45807
0.0575538
4.3967
0.0219817
0.0222664
0.0459799
0.0222329
0.0222496
0.0360302
0.0389942
0.11113
0.125878
0.0222731
0.0485614
0.0220375
0.0220903
0.0222232
0.0220878
11.6714
0.0222657
0.0238188
3.70081
0.0218896
0.0220286
3.55247
0.0222534
18.2648
0.0252321
3.68675
3.86584
0.0578375
14.3069
0.0985557
2.56378
0.0233159
0.618643
0.0319993
0.0220587
0.0220359
0.0237676
0.0423079
0.0221305
0.0728066
0.0219477
0.0246383
15.6272
7.7583
6.70121
0.0276294
0.0501202
5.18608
3.68216
0.0221856
0.0325263
2.6929
0.0228827
0.0541611
12.3727
3.52549
0.0344218
0.0657393
0.0236396
1.17985
0.0222869
0.0400224
5.44833
0.0223982
0.0220008
4.9205
0.0607427
3.713
3.62618
0.171407
0.0227322
0.0219509
0.0231076
4.22947
5.73364
4.62989
0.0814219
0.0220967
4.35748
0.0221277
0.384773
0.0273172
0.0256568
0.0639707
0.022089
3.73672
3.98408
0.0219291
0.110902
0.0713633
12.5902
0.0630927
0.0916297
3.51889
0.0488053
3.56068
0.0964224
0.022131
0.052004
0.0887579
4.21219
0.0220677
4.27272
0.0674321
0.0972851
0.0222739
3.81493
0.0317242
0.0246733
0.0220307
0.0494625
0.0481807
0.0658041
0.0221367
0.0234433
0.0777227
23.6228
0.0887517
0.0221715
0.0229088
0.0518936
1.64105
0.0221844
0.133759
11.3219
0.0602804
3.66982
0.0597168
8.34178
3.84093
0.0220834
9.56146
0.0222386
0.02761
0.0461119
0.0488116
0.178671
0.0716768
0.0524965
0.056282
0.0406884
0.0257833
0.0217292
0.100688
0.030262
0.030851
5.32887
0.0299289
0.0340187
0.0220122
5.29573
0.123796
0.0222682
0.0284025
0.0235665
7.0957
0.320198
0.0461358
3.59773
5.33512
6.90774
0.164664
3.51769
0.0219599
0.346182
0.0220901
0.027614
10.5028
3.44841
6.43681
10.6777
0.0221376
8.67543
0.0219565
0.139533
0.0272623
4.18121
3.87547
0.031669
0.0220313
6.11637
0.0460281
0.0220643
3.65503
0.0220911
0.0247965
0.0302536
0.0223521
0.0397172
0.0236995
0.0221014
0.0415689
4.20802
0.0596701
0.0887571
0.0220614
6.8223
3.49949
0.0220167
4.10279
0.0271623
0.0307623
4.50454
0.0220141
0.0232269
0.029759
3.95719
0.0220691
0.0221855
0.0566276
4.0702
0.0220003
0.0353943
0.0396288
5.27741
0.0649742
0.0557218
3.1365
0.0220948
0.142417
0.0217663
7.79866
0.0379338
0.0220828
0.0340099
0.161584
0.0221547
0.0228426
0.306767
3.83924
0.0233023
7.3028
0.0221937
0.0217612
0.10444
0.0220657
0.0222661
4.06961
0.0222759
0.0591641
0.295721
3.18612
5.27602
0.0221717
0.0245364
0.0294819
0.0220886
0.0221403
0.0221203
4.02582
0.0222044
3.36765
0.222835
0.0219943
0.0219207
0.0391377
0.222292
3.99308
0.0664224
0.0920597
0.0253627
3.43265
0.111884
0.0417217
0.061176
0.0881629
0.159799
12.1915
0.0569211
3.85301
4.7279
3.67024
0.028358
0.0221984
0.0509828
0.0355689
0.0220716
0.0233277
0.191215
0.0222456
0.0229527
0.0220829
0.0216713
0.0259785
0.0225661
6.0634
0.0220288
7.49448
0.022096
0.118389
0.0235292
0.23086
0.107612
0.0221628
4.16482
0.0243906
0.022232
0.0592689
0.0220211
0.0336696
0.022385
3.69347
0.0261993
0.0607432
0.112722
4.24887
0.031851
3.37939
5.3995
0.0669802
0.0226935
0.0245301
0.152521
0.102332
7.17178
0.0219103
3.43913
0.0224178
0.101711
4.51069
0.0459814
4.10998
0.028053
0.0444854
0.0267441
3.8583
0.0392811
0.0221439
0.06245
0.297537
0.0250347
0.0220807
0.0221473
3.20849
0.0222568
0.0307802
3.51187
0.0282355
0.0220875
0.0762403
0.0275881
4.50425
0.0217063
0.0220904
0.0219142
0.0267243
0.023272
0.0227177
0.103328
3.44078
0.0220716
0.0221192
4.72133
0.0231023
5.09098
0.0264518
3.64746
0.0220427
0.0258268
0.0218614
4.11538
3.63173
0.0340733
0.0873335
0.027641
0.0221302
0.0221322
3.73874
0.0221388
0.138056
0.0219248
0.0642158
0.0222007
4.46047
0.0218936
0.0685508
0.0219709
0.93763
4.47761
0.0219789
0.0545747
3.89475
0.111256
4.31053
4.08748
0.48033
0.023812
0.0468293
0.167336
5.14466
0.0229863
0.05683
0.0296161
0.0222384
4.25788
3.63653
0.112577
0.366034
5.23174
0.0401721
3.59434
0.0220624
0.0219614
0.169855
4.29201
1.23347
0.336755
5.02146
0.0218715
3.87406
3.97624
5.10403
0.0222047
5.16485
3.32096
4.4518
4.27672
3.65636
0.142148
0.0388571
0.418586
0.0264678
0.0221644
9.80414
0.164446
0.0217098
5.40432
0.0221977
0.032582
0.0634143
0.0280827
6.4363
0.0380622
5.0389
0.0675099
0.0268509
4.7986
3.29688
0.298999
0.0225152
0.0265287
0.115418
0.0737353
0.0218761
0.068753
0.0740578
0.301739
0.0221246
0.661551
0.0261167
0.0634808
4.22042
3.62413
0.0233648
0.215
4.00781
0.0223888
0.0236613
4.42038
1.91762
0.0270072
0.0280754
0.0221135
0.103851
0.0302592
3.516
0.176716
0.022878
0.022224
0.0726051
0.0339947
4.97692
6.44995
0.0220139
0.0220707
0.0329253
0.0221998
0.0270092
0.0238879
0.0239979
0.026703
0.0220454
0.0267618
0.0223143
0.0724165
5.20356
0.0222654
4.22052
10.5918
0.0217686
0.340024
0.217157
0.12715
0.0232566
0.163186
0.033455
0.0917647
0.0392689
0.024795
0.0222106
6.94667
0.0358843
4.37209
0.0231886
0.0220868
0.022058
0.0962609
0.0220625
0.0745327
0.0971521
2.43953
0.0219821
4.9967
9.29155
3.89535
0.0218622
0.277767
1.24247
8.90052
7.10717
0.0227295
0.0228016
0.29484
4.97323
4.35449
0.0594415
4.14028
0.0222316
0.0221187
0.0482162
0.0222042
0.0222069
0.348553
0.0222673
0.102755
0.0220316
3.3399
4.14312
4.63229
4.23559
4.18122
0.0222358
0.0221618
4.20403
0.0219431
0.0219945
0.0217655
0.192
3.53772
6.42066
0.0290898
0.0228125
0.0245051
0.0437487
6.7318
0.0220469
4.13084
3.35191
0.0221992
0.0221871
4.22469
0.128634
0.0255261
0.022081
4.09534
4.13624
0.0224657
1.31471
0.0222563
3.75886
5.56573
0.0259886
4.16764
6.08346
4.60018
0.021998
0.0229836
0.0222497
0.0222869
3.54248
0.0220534
0.420527
3.64207
8.62342
0.023835
0.0823375
5.26823
0.0705046
4.27119
3.21348
0.0216724
0.030522
0.0308403
0.253942
3.73186
0.0216473
6.18535
0.0369017
0.0647485
0.0232436
0.0219663
2.05501
0.0535868
3.65706
0.0222034
0.0775008
0.0236317
0.238189
0.0274308
3.4324
4.81578
0.538274
0.157777
0.022106
0.0254325
0.148441
0.309407
3.54034
3.96866
0.0221532
4.21727
0.107994
3.25414
0.0330164
0.059365
0.0548899
0.0226154
4.424
0.0220974
0.0452653
3.6457
3.35389
10.7876
3.46175
0.031791
0.0733165
0.0219267
3.33891
0.0305074
5.77552
0.0219181
4.3999
0.0216326
0.0220447
0.0440461
0.0336004
0.0360381
0.0221824
3.81013
0.0666667
0.0220539
0.0481292
4.22677
1.08589
0.0221077
3.18674
0.0266143
0.0491812
0.0450976
0.0217331
0.0949179
0.0220414
10.0733
0.108399
0.0335098
0.0220771
2.16447
0.0565709
0.0219175
4.57721
5.81061
4.01496
0.0218991
5.2257
0.0221578
0.26029
0.0349544
0.180803
6.21822
4.0544
0.0364478
3.48419
0.0648873
0.0314283
0.0219238
4.32922
0.168614
0.181151
0.0658635
0.022244
4.15496
0.139084
3.28136
3.46583
3.75005
3.76615
10.9244
4.57932
0.0319722
0.0339868
0.02212
0.0226029
0.0216695
0.402465
0.0329298
0.0358062
3.20121
0.0220326
0.0218978
0.06249
0.301585
0.0352644
0.0219009
3.28255
0.0270306
0.0717001
0.0225664
5.16509
0.0308211
3.98169
0.0665315
0.0470909
0.0705973
0.0221144
6.63956
5.25112
0.1064
0.022283
0.0219293
7.90839
3.25987
3.42617
0.0221677
0.107707
5.09404
0.0226013
0.0220315
0.0224817
3.50466
0.12152
0.0414993
0.0342917
0.0316292
4.30358
0.133431
4.66328
0.0323784
0.0449254
0.0216687
0.198128
0.0768926
0.0220867
3.76434
3.20337
3.37635
3.89699
3.3155
4.37032
4.09889
0.0234431
0.0222189
4.41052
4.86118
5.94429
0.0223233
0.0584275
0.0220904
0.0220692
3.97863
3.36414
0.102161
0.0220461
4.53849
0.164407
0.0714349
4.64996
7.69065
4.21474
0.0219338
3.42419
3.96026
1.72692
0.045145
0.0617102
0.0222788
0.0219474
0.0534313
0.0642072
0.0266421
0.0604911
0.0352899
0.0270607
1.88362
4.35068
0.0346617
0.0640213
3.97084
1.16346
0.0221263
0.535129
1.40073
4.80047
0.056064
0.0227301
0.038603
0.0314765
0.0331599
0.0217338
0.0347889
0.0429939
0.0697462
0.476833
0.0222315
0.0243683
3.86953
3.70419
3.26999
5.32511
0.197528
0.0216008
0.0220818
0.0397642
0.0219026
3.74635
0.0220862
0.0222755
0.021816
3.72017
21.6612
0.0227237
0.100637
0.0332708
0.0402395
0.03869
0.0371555
0.0592824
0.0491304
3.89852
0.0317354
4.62353
0.0510877
3.25587
0.0368567
0.0219512
0.0219106
0.167527
0.31028
0.0218679
0.045475
0.0374191
0.0851051
4.23828
4.07313
4.53944
0.0222754
6.1382
0.0331612
0.044637
0.0220767
0.103897
0.025202
3.8552
2.74524
0.0495481
0.0221064
3.71689
0.0281953
4.79732
5.06406
2.20668
0.0262321
0.258414
4.4311
5.94634
3.50987
0.0882482
0.0222763
0.0512191
0.022185
5.09656
0.0265794
0.04061
4.52842
3.23539
0.0222025
0.0221271
3.48331
0.0567205
4.19418
0.0339152
0.0220819
0.0597125
2.47924
0.0476335
4.26116
0.0440479
5.78002
0.0286668
0.0222495
0.0221172
0.96394
0.0229946
0.195149
0.0221056
0.0223635
0.652972
0.0317866
0.022612
0.0220677
0.043936
5.63019
0.0645513
0.0543
0.027695
0.0909034
0.0222333
0.270054
0.0402327
0.0626979
0.0764386
0.0357428
0.118397
0.0499964
0.0221422
0.11014
3.71357
3.45331
0.0227337
12.6334
4.65585
0.0220946
0.0229381
1.26364
4.42215
0.0287288
4.46771
5.95044
0.0226779
0.142462
0.0216608
0.0312072
0.0927663
9.86258
0.766255
2.61391
5.13072
3.86565
3.55856
0.0256597
3.67748
0.0220826
3.90688
3.71317
0.0221235
0.0220877
3.61691
0.0222086
0.0221113
4.79737
3.76554
2.09415
0.031813
4.03057
0.0221074
3.80901
4.04592
0.0221927
4.54088
9.66685
4.16208
3.77921
3.86944
3.837
0.0219539
0.0235999
0.0943632
0.104186
0.022107
0.913599
0.022082
3.72769
4.5804
0.0548823
4.06851
3.61608
4.49271
2.87657
0.0657647
7.20406
3.40509
0.0297834
0.0217016
4.08068
0.0396696
0.0219266
3.70505
0.0220834
4.18481
0.0222433
3.41306
0.0302995
0.0220663
26.1731
0.0283869
0.0389093
3.93012
4.56734
8.71324
0.0352758
0.0685955
0.0240883
0.0588659
0.25249
0.0602858
0.0222158
2.34502
0.095788
0.0386099
4.35759
0.0584946
0.0426271
0.376883
0.117135
0.0681558
0.0220626
0.569432
0.0219157
0.247602
3.88816
4.45788
0.0219198
0.0530636
3.67426
0.0252858
0.0975242
0.0428224
0.0582997
4.19562
0.095669
0.0239046
16.6749
0.0219247
3.72855
0.02214
0.0245992
0.242024
3.46212
0.0387265
0.452432
0.998455
0.0431917
0.0228844
0.205876
0.063038
3.20642
0.0273164
22.1299
0.303321
0.0430197
0.0381857
0.149681
0.0486549
0.0823847
0.0954919
0.0437718
0.0270542
0.0228085
11.6655
0.0221248
0.0361644
0.021651
0.196665
0.0372189
0.094912
4.02274
0.023265
1.90487
0.0215477
0.022279
0.0221971
0.0222138
0.0327485
0.0219987
0.146113
8.38916
0.0941134
0.0671522
0.029345
0.0224344
3.46418
0.0222095
4.49646
4.68515
4.1806
0.289994
0.0428738
0.0341255
0.0221902
0.032188
0.11168
0.0565774
3.84849
0.0931655
3.20394
0.28245
0.0222123
0.0218833
3.50289
0.0221107
0.0395232
0.0710811
5.74303
0.0254832
3.45142
0.0221832
0.0293223
0.0220913
0.0230789
0.204853
0.187717
0.0228044
0.0456819
0.0369011
0.0689926
0.0908391
0.840142
0.565583
0.77198
0.242518
0.0317576
0.0242597
0.0894562
3.47413
4.22167
3.6646
0.0442437
5.36799
0.180956
0.0241611
0.0220384
0.0986048
0.0221597
0.0454319
4.93157
0.0220563
0.0220466
6.57153
3.94392
0.0720868
9.74644
0.0222229
6.43392
0.0557076
3.26073
0.0310698
0.0222548
3.79275
0.063256
0.0221223
0.0967419
0.0222574
0.267964
0.0360255
0.0575493
3.79976
0.0362368
4.52154
0.0220079
3.25606
0.0222644
0.030902
0.0232373
0.0636402
0.0221483
0.0652215
3.67109
1.78869
0.0723842
0.0375775
0.0881384
0.0221502
0.0221407
0.0248104
4.56115
0.0300066
3.40978
5.12277
0.238242
0.0222236
0.252261
0.499094
0.318272
0.0312885
4.76328
0.0221163
0.0215963
0.022084
8.39202
0.0225942
0.0221286
3.68893
0.0220578
0.346864
0.122039
0.022123
3.50172
0.0360894
3.39207
0.0222341
4.97627
0.0239732
0.0782573
5.46932
0.105412
0.0220385
0.0343195
4.50954
0.0450033
0.270315
0.0420104
0.0306011
0.232687
0.0324842
0.0231024
20.7713
0.0371534
0.0365061
0.270876
0.0220779
0.0220095
0.0221908
0.0422235
0.0222895
0.0280889
4.42406
10.1598
0.120595
6.07273
0.0982368
0.0495743
3.23201
3.21176
0.0226978
8.63809
7.06125
4.03804
10.2815
0.0404764
4.54648
3.68
11.0361
9.9181
4.08288
0.0480851
0.0999033
0.0318339
0.0316221
0.0223016
4.87348
0.0222864
3.76619
0.153692
0.533779
0.0216325
0.121484
0.0520049
0.0239177
0.0222937
0.0221204
0.149692
0.0261188
0.0231492
0.0611997
3.23243
0.0274362
0.272517
0.0218766
0.149527
0.0983154
0.0223452
0.0295888
0.0219988
3.43522
3.63343
0.384077
15.0431
0.0383893
0.151759
0.0221477
0.0627813
0.0221787
0.0229783
0.0222397
4.17013
0.0219044
0.0698232
1.86414
0.0313957
0.0422002
0.022062
3.21824
0.482964
7.61698
4.99116
0.371608
5.92416
4.56484
5.94924
3.80612
7.77224
0.153699
0.0346423
7.91738
3.32374
0.0220838
3.69939
0.246655
4.04163
0.0216514
0.100864
3.23712
0.0222748
3.75315
0.0259375
6.68832
0.0220986
0.022165
0.100488
0.304675
0.0332011
0.0969286
0.0220353
0.0227554
3.79838
4.32039
3.84378
0.0850294
0.0230771
0.0226613
0.022149
0.0415563
1.56159
3.66095
4.73764
7.26364
0.0412309
0.0219714
0.0219976
6.673
4.17226
1.86028
0.0273236
0.0271282
0.0969297
3.47932
4.2536
0.0216044
0.0220337
4.66666
0.0244616
0.373656
0.0297169
0.0223001
0.037404
0.0517214
4.95116
4.11199
0.0222034
0.0220514
0.0278112
3.403
3.26742
0.0222683
0.225047
4.00884
0.021606
3.92612
3.83945
6.94384
0.0221287
3.69538
4.53863
0.0458337
0.454525
0.028657
0.344153
6.30833
0.0304923
0.0220436
4.09284
6.47901
0.0220505
0.301066
0.276177
0.0399035
4.4543
4.14616
3.97161
3.28721
0.0364375
0.0239223
0.0251451
3.39812
4.81265
4.56111
5.07664
4.61664
0.0218839
0.0680002
0.0220758
0.022124
0.0265704
0.0220164
0.0220911
0.0225259
3.84184
20.9769
6.47515
0.0675371
0.574799
0.0375404
0.0219922
0.0219991
4.61712
0.022156
5.82074
3.62503
0.0221913
0.022196
3.42489
0.0232424
1.13278
0.0301835
0.0218062
0.0218879
4.34312
0.0217678
3.23115
4.23442
0.0216388
0.0678063
0.0222021
0.0247544
0.022333
0.169551
4.45838
0.0220166
3.44922
0.694445
0.0254188
0.0221973
0.0231757
0.025451
0.0222335
5.38956
5.32261
4.79349
0.0617411
3.82546
0.0222753
0.0313894
0.023084
0.284684
0.0241273
4.35873
0.0218987
4.15321
4.96224
5.23548
0.295411
0.021892
0.0583141
0.0221453
4.04659
0.0222122
0.0323614
0.03098
0.0302852
0.0225695
0.0222526
0.0354516
3.50644
0.0223171
0.0240284
0.0269153
0.0377551
0.394231
0.0221985
3.73198
3.68246
0.0263869
3.70203
3.6205
4.14204
4.31396
0.0215848
0.023983
4.27722
3.63854
0.258296
3.83146
3.81807
0.037707
0.0717269
0.0424631
4.39552
0.0220765
0.0219824
4.35092
0.256264
3.5709
0.0290715
0.0218103
0.0220822
4.05114
0.119922
0.0249777
0.40044
0.0221425
0.101486
0.0402849
0.0412144
0.0226669
0.0221976
0.0219822
0.0285771
2.05475
7.54762
0.0216469
0.022208
3.26401
0.0223726
0.0756869
0.0264604
0.0261514
0.0579013
0.0222866
4.33843
0.0402423
0.0257067
19.5146
0.149812
0.0241577
0.0471228
0.0221079
0.0231394
3.8705
0.325267
3.56179
0.0231227
0.0221685
0.0860456
0.0284329
0.0220737
0.0593748
3.22396
0.028787
0.0527076
0.0272511
0.23805
0.0221338
0.0219961
3.52679
4.65431
4.66769
0.0220867
0.361157
0.0218508
0.0220694
0.11436
3.7016
0.113469
0.0349415
0.374519
0.0244554
0.0404575
0.0544299
0.89761
0.0230644
0.0217038
0.0228416
0.0251743
0.0348108
0.0220301
2.33502
5.8787
0.0227344
0.0350907
0.0225618
0.0218952
3.57943
4.12216
3.64008
0.129997
0.0225258
0.0916995
3.31407
0.167306
0.17211
0.0372214
0.0322492
4.65139
3.81391
2.54237
0.021813
0.0331279
0.0221945
0.0386146
3.75078
0.0216657
0.0482096
0.0259703
0.033623
0.0238907
0.022129
0.021919
3.6037
0.0690145
0.0423258
0.11165
0.0395597
5.93794
0.0345082
0.59494
0.0220351
3.19856
4.94167
4.42468
0.022265
0.0439006
0.0220911
0.022157
3.46238
0.0682874
3.19539
0.0220584
0.0494471
0.259639
3.56937
0.0296703
0.0218622
4.12898
0.0222866
0.0222851
0.0232628
0.0220748
3.64863
0.0219905
0.0219983
0.0416565
0.0287476
0.196925
0.192445
0.0352615
3.49213
0.0227343
0.313245
0.0221482
3.19258
0.0400039
0.806522
0.29265
4.85831
0.203842
3.19787
0.0250099
3.87793
0.0356086
4.23484
0.337065
0.0288336
0.438976
0.0224298
3.9205
0.0250715
0.0467773
0.0286784
12.5722
0.302215
3.2316
0.0336162
0.0220985
4.30832
0.467499
0.0911766
0.29663
4.5668
3.21111
0.0459123
0.690925
0.0604869
0.0220155
0.0616572
0.537488
0.0879002
28.381
0.181227
0.0219051
0.0224517
0.211815
0.0220933
4.67763
0.0871037
0.022109
3.70585
6.32721
4.05074
0.156842
0.0225731
0.0306345
0.0265675
3.23796
3.58825
0.0267023
4.55635
0.0221508
0.0335603
7.44272
0.022064
0.0527393
0.0219902
0.0300228
0.0222521
0.207243
5.10684
0.0318987
0.0318679
0.0218667
0.22924
0.0221538
0.0219312
0.0356359
0.0219891
0.413285
3.21673
11.8512
3.39433
0.0219108
3.2643
0.0221998
0.0387548
0.205693
0.0227839
4.56732
0.0900734
0.0222882
0.0218697
0.0577975
0.0436942
0.252436
2.62385
0.0264598
0.0254
3.58012
0.103166
4.25728
3.94022
20.3797
4.1323
3.20606
9.64728
0.0222613
0.0221225
0.0589295
0.022563
0.066841
0.0574452
5.82668
3.22255
7.09772
0.0219506
0.0219996
0.176505
4.58914
3.20553
10.7826
3.60934
0.0582282
0.0349941
10.2312
4.9307
0.0335408
3.23647
0.0358371
0.0407225
3.78115
0.0651123
0.022637
4.37994
2.3847
0.029097
0.226916
0.0245234
6.38496
3.96269
5.70338
0.022079
0.0217444
0.286438
0.0220745
0.0223795
0.0220729
0.0218254
0.0220739
0.0220755
3.18844
0.031414
0.0512817
3.41188
0.0219646
0.0220804
0.0427429
0.0323795
0.0328335
0.0220846
0.0880436
0.0351257
0.0275234
0.102891
4.08512
0.0220922
0.0631242
0.0221013
0.022081
0.0216786
0.0221111
3.28843
0.0221995
0.0221075
0.0221216
0.0535554
3.4462
3.54018
3.21353
10.509
0.0668371
3.85187
3.9456
0.0220084
0.0464594
4.54855
3.16653
0.0221329
0.0377595
0.0690954
0.0392927
0.0220868
0.0645183
0.0624468
0.0486118
0.0216919
0.0718582
5.80863
0.0216393
10.1636
3.28462
0.0472454
0.780253
0.04298
0.0221159
0.030804
0.0221057
0.341067
3.20492
0.0218786
0.0492575
0.0220679
0.0219961
0.0224686
0.0222867
0.0427844
0.0221854
0.194329
0.243597
0.0293013
0.0266253
0.0642262
0.0220853
0.0481988
0.0483703
0.0230293
0.022126
0.022154
3.34471
0.0221165
3.37219
0.0663187
0.0222578
0.0222113
0.0220987
4.46125
0.0281378
0.0459758
0.0695049
3.22788
0.0293866
3.40822
9.49932
0.046642
0.0220411
1.14847
0.0496797
5.06658
0.0958086
3.21744
0.0219524
0.0644358
0.0621671
3.38596
0.0221081
0.0691039
3.24628
0.0220077
4.43109
6.28962
4.46469
0.0220792
0.0221007
3.42705
0.0220864
3.79596
0.384512
3.30321
4.37109
0.0219192
0.576473
1.4245
4.28849
0.0269478
8.89622
0.0231839
0.0294668
0.0221067
4.39774
5.01129
0.0548717
4.12512
0.0221443
3.28374
3.96621
4.28967
0.0220786
0.0220981
3.22928
0.0992919
0.0219604
0.0220834
1.35521
8.21831
0.0220915
0.02205
0.022117
0.0221543
0.0245561
0.022009
0.0238688