/*--------------------------------*- C++ -*----------------------------------*\
| =========                 |                                                 |
| \\      /  F ield         | OpenFOAM: The Open Source CFD Toolbox           |
|  \\    /   O peration     | Version:  v2012                                 |
|   \\  /    A nd           | Website:  www.openfoam.com                      |
|    \\/     M anipulation  |                                                 |
\*---------------------------------------------------------------------------*/
FoamFile
{
    version     2.0;
    format      ascii;
    class       surfaceScalarField;
    location    "850";
    object      meshPhiCN_0;
}
// * * * * * * * * * * * * * * * * * * * * * * * * * * * * * * * * * * * * * //

dimensions      [0 3 -1 0 0 0 0];
oriented        oriented;


internalField   nonuniform List<scalar> 
20580
(
-0.000200108
0.00010933
9.2151e-05
0.00036611
-0.00030833
-6.30913e-05
0.000194338
0.000167965
-0.000323384
0.000380902
-5.76657e-05
-6.60588e-05
-6.41923e-05
8.39516e-05
0.000159451
-0.000539029
0.000374114
-0.000627959
0.000668307
-4.06938e-05
-7.34685e-05
7.48704e-05
-0.000113157
-2.17055e-05
0.000134875
0.000335094
-0.00191694
0.001573
-0.000205354
0.000530459
-0.000328012
0.000160556
0.000918935
-0.00109865
-0.00159151
0.000311657
0.00127451
2.52018e-05
5.78029e-05
-8.31166e-05
7.11052e-05
0.000122833
-0.000192605
-0.000446738
3.38706e-05
0.000416102
0.000237169
-0.000210924
-2.60581e-05
0.000517447
1.6092e-05
-0.000542404
0.000122627
-4.80096e-05
-7.47839e-05
-7.34093e-05
-0.000124759
9.1459e-05
-0.000164595
7.42401e-05
-0.000248322
-0.000813149
0.00104964
0.000433461
-0.000247381
-0.000186622
-5.78843e-05
2.24882e-06
4.66464e-05
0.000268662
-7.47733e-05
-0.000194451
-0.000551384
0.00044802
0.000105723
-0.000270559
0.000108226
0.000162614
-6.97781e-05
6.96349e-05
1.85712e-07
-0.00026809
0.000206191
6.20891e-05
4.96187e-05
-0.000673731
0.00060403
-1.22047e-05
-0.000258218
0.000270412
9.26663e-05
-0.0007088
2.53679e-05
0.000135566
-0.000160512
0.000103213
-2.35921e-05
-7.95087e-05
0.000253069
0.000217552
-0.000471481
0.000208643
-0.000320335
0.000111295
-2.35841e-06
-5.87499e-05
0.000382027
-0.000272386
-0.000110218
-0.000173682
1.51367e-05
0.000158479
-0.00164026
0.00120614
0.000417548
-4.71087e-05
-7.65494e-06
5.48566e-05
-0.000179363
-8.87634e-05
0.000117539
0.000132838
0.000691901
-0.00051151
-0.000182299
-0.000108502
-0.000120244
0.000228787
-8.23184e-05
-0.00104202
0.00110067
4.61291e-06
-0.000135851
-0.000231545
0.00033367
-0.000101861
-0.00124298
0.000410545
0.000817182
-8.99435e-05
-0.00150566
2.0457e-05
7.29095e-05
-9.32905e-05
-0.00192943
0.000567587
0.00135705
5.99997e-06
-0.000449526
-0.000625533
0.000338873
0.000293198
0.000148156
-0.000156287
8.22135e-06
-0.00109855
-0.000553638
0.000138929
-0.000113149
-5.97173e-05
1.24613e-05
-0.000354049
0.000267661
8.69995e-05
-4.75865e-06
5.1669e-05
-4.73016e-05
-0.000925029
0.00106503
-0.000113784
-0.000156381
-0.00169672
0.00177733
-8.7801e-05
-0.000638116
-0.000617674
-0.000678532
0.000355377
0.000321707
-0.000466706
-0.000213154
-4.08051e-05
3.60139e-05
-0.000147832
0.000644003
-0.000314104
-0.000925384
0.00122296
0.000329822
-0.000316872
-1.29841e-05
0.000114089
-0.00023783
0.000123708
0.000119384
-0.000151877
3.26226e-05
0.00174182
-0.00121515
-0.000537732
1.6343e-05
3.49763e-05
0.000367926
-0.000467127
0.000103976
-0.000438344
-0.000749932
0.00117579
9.93615e-06
0.000226992
0.000456729
-0.000256242
-0.000219807
3.62663e-05
0.000231178
-0.000170838
0.00146341
-0.00131792
0.000805448
-0.0011358
0.000233966
8.47052e-05
-0.000319286
0.000626469
-0.000376701
3.05551e-05
7.37004e-05
-0.000104408
5.52844e-05
-3.92721e-05
-0.000226176
-9.11884e-05
0.00031727
-0.000986259
0.00072782
6.6068e-06
0.000177844
-0.000184448
-0.00164277
0.0016059
2.59116e-05
0.000205522
-0.000217749
-0.00029493
-0.00163787
-0.000525833
0.000628542
2.13812e-05
9.80707e-05
2.8622e-05
-0.000254925
0.000171273
-8.00295e-05
-9.12305e-05
-0.000394479
0.000618696
-0.000225974
0.00195078
-0.000899039
-0.00107492
0.000144586
0.000304047
-0.000447204
-1.68964e-05
6.68066e-05
-4.99634e-05
0.000547936
-0.000218104
-0.000331975
-0.000229197
0.000374584
0.000379585
-0.000941788
0.000562584
0.000910844
-0.000175519
-0.000735101
-0.00163745
0.0017999
-0.00017162
0.000230736
-0.00100937
0.000758442
0.000214148
-0.00015173
-6.30413e-05
0.00112526
-0.000918982
-0.000107739
0.000221791
-0.000602777
8.7024e-05
-3.15795e-05
0.000538466
0.00113616
-0.000337563
-0.000806882
0.00114969
-0.00125836
0.000114387
8.77779e-05
-0.000201498
-0.000299708
0.00029043
7.46036e-06
-0.000231559
2.65141e-05
0.000207383
-0.000261091
-0.000358385
0.000870062
-0.000471084
-0.000421837
7.5338e-05
-0.000153461
-0.000256519
-6.69555e-05
2.87117e-05
0.000300897
0.000662887
-0.000187451
-0.000477892
-0.000601454
-0.000146367
0.000729963
0.000708326
0.000394216
-0.0011162
7.92778e-05
-5.08071e-05
-2.81215e-05
9.56944e-05
-9.29018e-05
-2.9726e-06
-0.000628689
7.47355e-06
0.00062242
0.000656261
0.00126717
-0.000615962
0.000517077
9.4594e-05
2.14773e-05
5.39756e-05
-7.53976e-05
-8.18451e-06
0.000136003
-0.000128407
0.000278517
-0.00110234
-0.000710223
8.06819e-05
0.000621554
0.000144275
0.000237568
4.12231e-06
9.92234e-05
-0.000442695
0.000235098
0.000130287
-1.17946e-05
-0.000118377
0.000643736
0.000136006
-0.000227275
0.00110315
-0.000410388
-0.000692922
-2.24324e-05
-0.000186348
0.000210852
-0.000133881
0.000368275
-0.000249838
-0.00116359
0.00140642
-0.0018242
0.000172441
1.53502e-05
-0.000539221
0.000524272
0.00018524
-0.000154161
-3.13325e-05
0.00137971
-0.000651747
-0.000739642
0.000212278
0.000229601
-0.000229711
7.63468e-06
-0.000157984
0.000150152
-0.000579975
-3.87358e-05
-0.000373216
0.000144533
-0.000140903
0.000256534
-0.000289323
-1.17501e-05
4.41361e-05
-0.000117801
7.35795e-05
-0.00129499
0.00181894
-0.000528726
0.00191405
-0.00165567
-0.000262885
0.00114178
-0.00116484
-2.57808e-06
-5.39518e-05
-0.000119828
-0.000163436
0.000189645
-2.44451e-05
-0.000404142
0.000364311
4.45387e-05
-0.00013051
0.000112002
6.10357e-06
0.000265534
1.25296e-05
-0.00027759
0.000127147
8.30071e-05
-0.000391637
0.000160467
-6.44102e-05
8.94965e-05
-0.00019521
0.000160666
3.49479e-05
2.32286e-07
-0.000194902
-8.39912e-05
0.000104635
0.000828234
0.000299232
9.19002e-05
-3.30205e-05
-5.9131e-05
-6.93595e-05
-0.000950141
0.000999591
0.00027373
0.000566801
5.93896e-05
-0.000200352
0.000140597
6.48254e-05
-0.000146841
4.61401e-05
6.21323e-05
0.000108379
5.72511e-05
-0.000184819
0.000128568
-0.000168295
-0.000134027
0.000302671
0.0007675
-0.00052064
0.000460024
5.79368e-05
-0.00051134
0.000188887
-0.000356915
8.04938e-05
1.45722e-05
0.000296139
-0.00103911
0.00027597
0.000754852
0.000192305
-0.000200403
0.000117115
0.000100522
-0.000125665
0.000133098
-3.5528e-05
0.000171624
0.00129012
-0.0011303
-0.000160781
0.00116769
-0.00185487
0.000681934
0.00110261
-0.00103164
-9.45142e-05
5.47651e-05
0.00013094
1.90166e-05
-0.000179991
-3.12819e-05
8.89706e-05
0.000445949
-0.000291972
0.000453246
0.000914652
6.98812e-05
0.000393274
-0.000460708
0.000104375
-0.000138881
0.000196301
-2.36091e-05
-0.000174989
-0.000722389
-5.07983e-05
0.000756437
-0.000885308
0.000390493
0.000495956
-0.000163577
-0.000194429
0.000357798
-6.65294e-05
-2.0872e-05
8.74081e-05
5.79037e-05
-5.88641e-05
1.96192e-06
-0.000157927
0.000231245
0.00038253
-0.000377515
-5.87124e-06
-9.32847e-05
2.67006e-05
0.000848871
0.000596473
-0.0014464
0.000376828
-8.68211e-05
-0.000288202
0.00011989
-0.000150246
3.04117e-05
0.000583105
-0.000579191
-9.98796e-06
-0.000508111
0.000104603
0.000405518
-0.000429128
0.00112576
-0.000297142
-3.19335e-05
0.000487822
-0.000461674
0.000383594
9.41482e-05
-0.00048013
0.00017932
0.000846507
-0.00103611
-0.00166006
0.00156552
-7.03476e-05
0.0001066
-3.50758e-05
-0.000563749
0.000356395
0.00019826
7.01096e-05
0.000271662
0.000534968
0.000206003
0.000155695
-6.1883e-05
-9.34315e-05
-6.3183e-05
9.34198e-05
-3.47387e-05
-9.78573e-05
0.00013298
-0.00120816
0.000344478
0.000862391
0.000118413
0.00026002
-4.24723e-06
0.000212971
-0.000215269
0.000588
-0.000572479
-0.00154807
9.79409e-05
0.00142709
0.000600338
0.000432338
-0.000300794
-0.000131644
0.000953428
0.000335096
0.000548163
2.76134e-05
0.000127269
0.00149824
5.756e-07
5.77673e-05
-0.000642829
0.000670694
0.000276025
0.000156571
5.02186e-05
-6.07701e-05
1.02942e-05
0.000191341
0.000354082
-0.000125292
-1.11238e-05
0.000421783
6.71567e-05
-0.000489994
-1.1847e-05
5.99197e-05
-4.82005e-05
-0.000266806
0.000158325
-0.00047062
5.42072e-05
-0.000175323
0.000123388
0.000507602
1.00173e-05
-0.000517181
3.60808e-05
-0.00010345
0.000540189
-7.42528e-05
0.000232086
0.000384292
-0.000423278
-0.00058726
0.00100262
-0.000186064
1.7973e-05
0.000167984
-0.000123931
8.84449e-05
3.39687e-05
0.000146732
-3.59945e-05
-0.000166319
-4.66079e-05
0.00018442
-0.00014298
0.000375477
3.58531e-05
0.000229608
0.00019482
-0.000297114
0.00010211
0.000287325
0.000796681
4.83081e-05
-0.00158811
0.00158608
-6.86174e-06
0.000166409
-1.52484e-05
-0.000151095
5.27933e-05
-9.50551e-05
4.29148e-05
-0.000129244
8.52576e-05
0.000178473
-5.48365e-05
-0.000103187
-2.07221e-05
-0.00198673
0.000589965
0.0013808
0.000828318
-0.000447787
-0.000172159
0.000353671
-0.000180581
9.3376e-05
-5.99612e-05
-3.26054e-05
-0.000400487
0.00166285
-0.00127957
-5.87699e-05
-0.0016051
-0.000255984
6.76679e-05
8.21842e-05
-0.000150312
0.000254271
-0.000337169
8.30289e-05
0.000168573
-7.40769e-05
-9.40957e-05
7.46182e-07
-0.000615961
8.6104e-05
-6.19788e-06
-0.00010576
4.94912e-05
5.62698e-05
5.13013e-05
0.000185564
-0.000235194
0.000118156
5.79832e-05
-6.19401e-05
0.000129494
-3.13675e-05
5.45382e-05
-2.31273e-05
0.000311274
-0.000160068
-0.000154901
-0.000250151
8.86123e-05
0.000163352
0.000155965
0.000178108
-0.000334383
0.00146657
-0.000872145
-0.000618759
-0.00103812
0.00104164
-2.77291e-05
-0.000120031
0.00017252
-0.000608656
0.000396285
0.000209217
-0.000147615
-0.000504089
0.000634118
0.000382864
-0.000482389
8.74582e-05
-0.000395643
-0.00117319
-9.96735e-05
-5.99498e-05
0.000105242
-5.79126e-06
-0.000124868
0.00014322
7.71287e-05
2.21038e-05
-0.000135243
-4.84698e-05
0.000142064
0.00155996
-0.000474729
-0.00110253
0.000244421
5.25322e-05
2.68745e-05
-0.00180664
0.00127829
0.000522879
8.35377e-05
1.3132e-05
-6.99342e-05
5.70812e-05
-0.00136369
0.00110768
-0.00150199
-0.000308245
-0.000170361
0.00012132
0.000108746
-2.98597e-05
-7.85508e-05
0.000247985
-0.000236431
-1.17774e-05
0.000146726
-0.000103808
-4.23767e-05
7.8806e-05
-0.000191582
3.9793e-05
5.19591e-05
-0.00101258
0.000160418
-7.06382e-05
-8.95058e-05
-6.15311e-05
7.51834e-05
0.000100785
-6.3333e-05
-3.6216e-05
-0.000279272
-0.000119544
-0.000152632
0.000308065
-0.000434161
0.000286072
0.000147423
-0.000315372
5.96826e-05
0.000255065
-6.38699e-05
0.000245945
-0.000181879
0.000985951
-0.000424526
-0.000560418
7.97936e-07
0.000129357
7.44077e-05
-5.99668e-05
-1.4524e-05
-6.00378e-06
-6.36403e-05
-7.12949e-05
-0.000663937
-0.000255691
4.48694e-05
0.000210809
-0.000153993
-3.55697e-05
0.000432138
-0.000462514
3.12113e-05
-3.44255e-05
0.000467654
-0.000138896
0.000987433
6.70292e-05
0.000111461
-0.000178339
-0.00127028
0.000414782
0.000850907
-0.000145771
0.000152409
0.00101214
-0.000479223
-0.00053215
0.000297572
-0.00033662
-1.05965e-05
0.000169808
-0.000134303
0.000881323
-0.000102272
-0.000783866
-0.000221486
-9.42334e-05
0.000376935
0.000392481
0.00104706
-0.000114769
-0.00123661
0.000942917
0.000289415
-0.000248084
-0.000467136
0.000229207
0.000139228
4.55226e-05
6.32643e-05
7.61278e-05
9.29961e-06
0.000402071
0.00130214
-0.0011363
0.000577619
-3.72588e-05
-0.000236519
-3.82214e-05
0.000275048
-0.000522232
0.00168497
-6.1661e-05
0.000156646
0.000147596
-9.97636e-05
-7.11546e-05
-0.000250783
-0.000989366
8.51325e-06
0.000178552
0.00136267
0.000427862
-0.000111099
-0.000317836
-0.000481824
0.0002622
-0.000105813
9.3593e-05
1.14288e-05
-0.000290388
9.0327e-05
-0.000326674
0.000331241
-0.000990973
-8.21957e-06
-0.000119347
-1.31506e-05
0.000132051
-0.000354801
0.000216534
0.000131007
7.36619e-05
2.731e-05
-0.000166234
0.00011086
5.62561e-05
-7.2551e-05
5.55843e-05
0.00065848
0.000213999
-0.000266739
0.000527926
-0.000231741
-0.000122139
9.11181e-05
0.000191371
-0.000282641
-0.00024833
-0.000162298
0.000410616
0.00015742
5.30847e-05
-0.000210559
0.000581239
0.000119058
-0.000710465
0.000143029
-8.53357e-05
0.000292037
-0.000174482
-0.000247321
-2.82576e-05
0.000272643
-4.86118e-05
-0.000137435
0.000249903
-0.000313103
6.01827e-05
-5.62164e-05
-1.04436e-05
6.66489e-05
-6.53029e-05
-0.000185856
-0.0006383
0.000200315
4.03852e-05
-0.000101945
6.27749e-05
0.00051067
-0.000198357
-0.000313618
0.000552103
0.00135716
0.000157884
-0.00038532
0.000223403
-0.000294654
-0.000316972
0.000430721
0.000987678
-0.00121541
0.000210395
5.3511e-05
0.000116136
-0.000124716
6.63277e-05
5.83801e-05
0.000850357
0.00088302
0.000224446
-0.000309459
-0.000258108
-9.51178e-05
0.000353326
-0.000527858
-8.00719e-05
0.00059966
-0.000547342
0.00038542
0.000160617
-0.000515866
9.52086e-05
0.000423832
0.000262064
-1.42474e-05
-0.000313108
-0.00027264
-0.000176998
-0.000372003
-0.000178236
0.000559369
-4.02287e-05
2.21986e-05
-0.000167474
0.000146749
-6.2743e-05
0.000257404
4.31427e-05
-7.34367e-05
0.000494333
-0.000899095
-0.00110105
6.4357e-05
0.000360728
0.000430811
-0.000174804
-0.000258993
0.000288764
-0.000552827
0.000115754
0.000608298
-0.000739415
0.000162354
7.38783e-05
-5.3776e-05
7.70151e-05
-2.31505e-05
0.000177219
6.9553e-05
-0.000246892
0.0004874
8.26584e-05
-6.27756e-05
0.000242061
-4.57235e-06
-0.000236341
-8.56252e-05
0.000339948
0.000241537
-0.000191572
-4.74861e-05
-4.1638e-05
-0.0002142
-0.000359837
-8.08164e-05
0.000439216
0.000239231
-0.000434119
0.000194527
0.000381897
-0.000811229
8.14996e-05
-0.00012678
4.50742e-05
0.00176082
-0.00123594
-0.000532577
-3.36092e-05
6.39349e-05
0.000126657
2.15851e-05
0.000179507
-0.000196907
1.8093e-05
0.00165168
-0.00132406
-6.76965e-05
-0.000244701
-6.6325e-05
0.000292815
0.000846566
-0.000124753
-0.000752146
-7.5398e-05
2.17978e-05
-7.94345e-05
0.00014701
-0.000100213
-6.51669e-05
-0.00030983
0.000124484
0.000188539
0.000730084
-0.000161797
-0.00107349
-0.000635307
0.00170785
-0.000216985
0.00030785
-0.00178396
0.00128863
-0.00173899
0.000664611
0.00035011
-0.000200174
-0.000149949
-5.3257e-05
-7.14599e-05
-0.00078897
0.00105695
0.000329973
-0.000213823
-0.000116014
-0.00160934
-8.947e-05
2.95174e-05
0.000985449
3.11748e-05
-0.000567381
-1.85909e-05
-0.000296378
-0.000228289
0.000527334
0.00081258
-0.00125925
0.000430937
-0.000243391
0.000624384
-0.000389413
0.000382757
0.000278464
0.000140796
0.000151057
-0.000295241
9.58721e-05
0.00013521
-0.000230666
0.00133827
-0.000905295
-0.000462028
0.000237763
-0.000464602
0.000230843
0.000129538
-0.000249776
0.00109949
-0.000667295
-0.00043494
1.63784e-05
-7.03244e-05
5.67956e-05
-3.82642e-05
0.00101128
-0.000992549
-0.00010274
-0.00020045
0.000209618
-4.57459e-05
-0.000162512
0.000554536
-0.000184778
-0.000370905
-0.000245351
-3.82578e-05
0.000283703
0.000154752
-9.97929e-05
6.42002e-05
-0.000299348
0.000236175
0.000510606
-0.00136205
4.9234e-05
0.00129277
1.54753e-05
7.35854e-05
-8.90801e-05
9.85266e-05
-0.000381741
-0.000580914
0.000961887
0.000562467
0.000860226
-0.00143376
2.38184e-05
0.000297368
0.000805438
-3.03055e-06
0.000360806
-0.000358625
-0.000337564
-0.00130692
-0.000563206
0.000608089
-5.00807e-05
-0.000360495
-0.000282956
-9.24083e-05
0.000378493
-7.74883e-05
1.75008e-05
6.85837e-05
0.000173924
-0.00011401
0.000292051
-0.000567407
0.00110268
-0.000540539
-0.000203848
-0.0017871
0.00156538
0.000204706
0.000219105
4.77033e-05
-0.000559251
-6.97278e-05
0.000174927
8.77898e-05
0.00033786
0.000851027
0.00050032
0.000595543
0.000170706
5.11006e-05
-0.00015248
0.000168349
0.000124211
-0.000292596
7.79454e-05
-6.24951e-05
0.000294288
-0.000198256
0.000269465
-0.000331063
6.1454e-05
0.000104804
0.000154505
2.49942e-05
-0.00017949
-4.52119e-05
-0.000411209
0.00123916
-0.000830006
1.57162e-05
-0.000795041
0.000768634
-0.000350655
-0.00019697
-0.00173786
-0.00018515
-0.000320411
0.00128877
-0.00113705
0.000334285
0.000801041
-0.000156393
4.78853e-05
0.000107926
0.000121441
-0.000285527
0.00016225
0.000960992
0.00049975
-0.00146641
-0.000109696
0.000554868
-0.000448075
6.03164e-05
-0.000253174
0.000192549
1.20424e-05
0.00146984
-0.00148455
-0.000203271
0.000172433
3.08923e-05
-0.000373603
-0.000938465
0.00129242
8.2552e-05
-1.93376e-05
-6.32499e-05
6.71341e-06
0.000546393
-0.00127316
0.00108124
-0.000218653
9.40042e-05
0.00012418
-0.000104957
-0.000272007
0.000375755
3.11941e-05
-0.000811327
0.000303079
-2.52253e-05
-0.000278253
-0.000448507
9.75008e-05
0.000184965
0.000149659
-0.000333231
-6.52234e-05
-0.000148018
0.000213513
7.45133e-05
4.7952e-05
0.000121417
-6.00432e-05
-6.18063e-05
-0.00118664
0.000613072
-0.000315636
0.000115455
4.71559e-05
-3.67984e-06
-4.34426e-05
-9.68728e-05
0.000285949
0.000199397
-0.000201747
1.91391e-06
-8.83178e-05
-0.00120723
0.00127746
-0.00129313
0.000203026
0.000171566
-0.000374747
-5.58316e-06
-5.06195e-05
5.04994e-05
-0.000329348
0.000276799
0.000271705
-0.000564693
0.00165008
-8.87404e-05
-0.0015663
-0.000237742
-0.00015043
0.000388669
7.91383e-05
-5.75959e-05
-0.000152867
4.95405e-06
0.000147784
-0.000160244
0.000234456
-9.606e-05
0.000110004
8.35264e-05
-0.000193605
-0.00042244
-0.00102748
-0.000130167
0.000533995
1.30997e-05
-0.000541876
3.60259e-05
0.000208004
-0.00122024
0.000460605
-0.000120001
-9.82153e-05
0.000218536
0.000278257
0.000231138
-0.000184903
0.000289677
-0.000172605
0.0015813
-4.89506e-06
6.04277e-05
9.95922e-05
-0.000160223
-0.00105851
0.000836195
0.000206777
-0.00037597
0.0003679
5.72802e-06
9.92944e-05
0.000215215
-0.00031041
0.000327765
0.000107938
-0.00043149
5.60961e-05
0.000158537
-0.000215449
8.8095e-05
0.00016227
-0.000250447
-5.67302e-05
2.54576e-05
-0.000273687
-0.000131855
0.000400869
6.47979e-05
0.000227219
0.000377504
-0.000122333
-0.000250888
-0.000223925
0.000221082
1.3947e-06
8.6622e-05
-0.000265996
-4.04191e-05
-0.000115886
0.000992463
0.00027186
-0.00128021
-0.00121041
0.000795844
0.000115089
7.02445e-05
-0.000168432
0.000402703
-0.000242437
-0.000160037
-0.000458612
0.0002218
0.000358369
-0.000362282
0.000111232
0.000428157
-0.00025456
0.000190229
0.000239521
0.000192521
-5.9624e-05
0.00021022
-0.000150315
0.00054136
0.00016704
-0.000711483
2.16442e-05
6.09297e-05
-0.000276072
8.63134e-05
0.000189752
0.00028032
-0.000107162
-0.000173149
-4.31976e-05
-0.00071649
0.000747752
-6.50455e-06
0.000275213
0.000108282
-2.69148e-05
-2.33058e-05
0.00122736
-0.00122317
-0.000101179
0.000122663
-6.95913e-06
0.000118062
-0.000111153
-0.000219762
0.000170517
0.000112292
0.00125447
-0.00138075
-0.000322151
0.000386455
0.000357736
0.000220318
-0.000579976
0.000284949
0.000121556
-0.000406953
-0.000876128
-0.000923956
-8.3106e-05
0.00010928
-5.53601e-05
0.00105843
0.000237118
-0.00129666
-0.000232119
0.000291531
0.00018704
0.00112152
-9.49395e-05
6.19824e-05
-0.000173731
-7.95931e-05
-0.000196971
0.00091145
0.000372847
-0.00128972
0.000508634
-0.00021754
0.000752284
0.00103775
-0.00118184
0.00119177
-0.000768447
0.000852712
-9.05411e-05
0.000207636
-9.76969e-05
2.84188e-05
-0.000198586
0.00017097
-0.00010937
-0.000488785
-0.000877409
0.000124393
0.000726909
2.73203e-05
-0.000293205
0.000260089
-0.000159078
-4.19231e-05
0.000315031
-0.000565438
0.000178789
8.03947e-05
-0.000260112
-0.000182392
0.000276514
-9.62688e-05
0.000504008
-0.000886498
0.000332718
-0.00033794
0.00103618
-4.55631e-05
-0.00100059
0.000123681
0.000155937
-0.000279624
-0.000318943
0.00030906
-6.49554e-07
0.000530568
-0.000527782
-0.000203451
0.00026822
9.89535e-05
-0.000217212
0.000117952
0.00108499
0.000464894
-0.000180641
0.000495075
-0.000608035
-0.000264969
-0.000292357
0.000555724
8.60289e-05
-9.29351e-05
0.000146484
-0.000231893
9.37871e-05
-9.31337e-05
-0.000109906
-0.000331921
-0.000272408
2.33557e-05
0.000418774
-0.000149414
-0.000192634
0.000171762
2.05745e-05
-0.000255217
-0.000104341
-0.000103887
0.000281401
-4.11562e-07
0.000194622
0.000109156
0.000171149
8.70529e-05
-0.000118392
3.13325e-05
0.00141197
-0.000573041
-0.000853046
-0.000240272
-3.37257e-05
-2.88836e-05
6.26345e-05
6.61211e-05
0.000277545
-0.000351526
-0.000371412
0.000430579
7.45482e-05
0.00037538
-0.000128771
0.0002524
0.000114803
0.000194197
-0.000308997
-0.000397191
-0.00110677
3.68628e-05
-0.000114196
7.84247e-05
0.000276102
-0.00013934
0.00109943
0.000588292
-0.00169171
-0.000247722
-5.33194e-05
0.00030135
-6.38884e-05
0.000241624
0.000249194
-0.000492793
0.000196144
6.77993e-06
-0.000199456
-0.000302521
0.0001317
-0.000485764
0.000899959
-0.000416662
0.000565449
-0.000351684
-0.000211273
-0.00073752
0.00137119
-0.000635543
-0.000838311
0.00128015
-0.000311525
0.000665582
0.000218935
0.00083817
-0.00026403
-0.000127709
-2.66653e-05
0.000146769
-0.000107859
-4.4252e-05
-0.00019254
0.00073092
-0.000143305
0.000502906
6.15079e-05
-0.00010954
-0.00010462
-4.11867e-05
0.000145739
0.000340943
-3.8289e-05
-5.96973e-05
-0.000313219
-2.13464e-05
0.000106645
-8.53038e-05
0.00103479
-0.000845846
-0.000194738
0.000325019
-0.000121956
5.95312e-05
-0.000612133
0.000621689
-2.05127e-05
-4.31778e-05
-0.000211434
-6.9072e-05
0.000130424
0.000955852
-0.000310029
-0.000655171
0.00147356
-3.56119e-05
-0.000116841
-0.00127064
0.00136304
0.000444245
9.24031e-05
-0.000535584
0.000197579
-4.01652e-05
-0.000205714
0.0004472
-4.77148e-05
-1.32303e-05
-0.000816216
-8.98034e-05
0.000286432
-0.000171554
0.000550871
3.77057e-05
-0.000590991
9.13562e-06
-7.01478e-05
-0.000346799
0.000241684
-0.000539041
0.00022066
-0.000128027
0.000318749
8.67987e-05
-7.73515e-05
0.000455798
-0.000215626
0.000298382
0.000729743
0.000175695
0.000148296
0.000568212
8.65218e-05
0.000394224
-0.000482193
0.00044531
0.000152248
-0.000232351
-9.08132e-05
0.000426099
-0.000338663
0.000287037
6.79952e-05
-0.000355818
0.000992168
0.000762592
-0.000356173
0.00158313
-0.000988188
-0.000901801
0.00199743
0.000160043
-0.000247488
8.74428e-05
4.92123e-05
-0.000191455
0.000140199
-0.000388234
0.000142213
-0.000120319
-0.000227674
-0.000138685
2.55065e-06
0.000136054
6.00995e-05
6.68083e-06
-6.18442e-05
0.000211746
-0.000449369
0.000183124
0.000482382
0.000602491
0.0013096
-0.0015483
0.00148589
0.000460743
-9.69432e-05
-0.000383372
0.000298809
-0.000281152
-0.000113503
0.000200871
-1.64053e-05
-0.000185399
0.000217149
-0.000231142
1.30447e-05
0.000382071
-0.000869877
1.59678e-06
6.7938e-05
0.000705536
-0.00113118
0.000416181
0.000142095
-0.000150046
0.000147871
0.000133072
0.000247631
-0.000585831
0.000169624
0.000412734
-0.000209174
5.13072e-05
0.00146062
-0.00152244
4.93e-05
0.00011585
8.36144e-05
-0.000200005
-0.000453098
-9.22151e-05
-0.000207576
0.000220415
-1.28901e-05
-3.32316e-05
0.000119709
3.68441e-06
2.49713e-05
-9.68653e-05
7.37369e-05
0.000160514
-0.00036952
0.000214187
6.67803e-05
-9.03247e-05
0.00131702
-0.000513368
-0.000810539
-0.000123772
-0.000164757
0.000279708
-0.00130265
0.00125235
3.36025e-05
-0.00164646
0.000475261
0.000186223
-0.000314841
0.000123644
-0.00045669
0.000366161
9.31081e-05
8.16861e-05
0.000117615
-0.000199296
-0.000625006
0.000144096
0.000475534
-0.000249316
-0.000138612
0.000386423
-7.39601e-06
-0.000353808
-2.35729e-05
-0.000129503
-0.000616322
-0.000514139
0.00123094
-0.000560707
-0.000676659
0.000191702
-0.000287173
9.55959e-05
9.00974e-05
0.000355233
-0.000128579
-0.000291114
0.000263368
8.78875e-06
-0.000115629
0.000263468
-0.000218615
0.000207581
1.04299e-05
0.000219017
8.95544e-05
-0.000309047
-0.000238607
9.76719e-06
0.000351388
-0.000426854
7.31306e-05
-0.000137627
-0.000307177
-0.000585352
0.00088521
-0.000130262
0.000128941
-3.36325e-05
-0.000190941
0.000665944
-0.000720911
-0.000603155
0.000291391
-8.21879e-05
-0.000393649
0.00048242
0.000463877
-0.00040611
-5.96414e-05
0.000645729
0.000145341
-0.000819962
-0.000176511
-0.000350444
0.000525133
0.000470554
1.53673e-05
0.000266243
-0.000281425
0.000400062
-5.09792e-05
-0.000355033
0.000287798
6.7147e-05
-0.000982826
0.000572361
-4.24722e-05
-0.000197414
-0.000234183
0.00043079
-0.000384715
0.000933862
-0.000575183
-0.000122057
0.00027645
-0.000194034
8.91074e-05
0.000291722
-0.000329583
-0.00015249
-0.000174854
-0.000112494
-0.00143167
0.000326973
0.00108521
0.000438748
0.00095968
-1.87154e-05
-0.000602552
0.000618624
-0.000429303
-0.000842194
0.00126087
-0.00102434
0.000861375
0.000143585
-0.000414255
0.000166326
1.78665e-05
0.000149736
0.000159426
-2.43243e-05
-0.000134922
0.000427336
-7.13772e-05
0.000291842
0.000972542
0.00071152
-0.00168838
-0.000737918
4.86675e-05
0.00028866
0.000169578
-0.000458756
-1.37827e-05
-8.56158e-05
0.000170563
-0.000528179
0.000586045
-6.42424e-05
-0.000151113
0.000179247
-5.0773e-05
0.000263262
-0.000212511
-5.81841e-05
0.000422407
-0.0017215
-3.0462e-05
0.000611683
-0.000601263
-9.27142e-05
0.00017426
0.000697473
-0.00143731
0.000212906
-0.000262159
4.73085e-05
0.00080373
8.91633e-06
-0.000138272
3.25596e-05
0.000105371
-1.67455e-06
9.89713e-05
-3.88592e-05
0.00026607
0.00152403
-0.00170232
0.000169451
0.000539035
-0.000350405
0.000143965
-0.000133215
-1.24369e-05
0.000214493
0.00049234
-0.000709327
-0.000341481
0.00024718
-0.00147291
-0.000268794
0.000406863
-0.000142168
-0.000125453
-0.000582315
0.000669904
-0.000375533
0.000175963
0.000199686
-0.00163557
0.000602871
0.00102865
-0.000171354
-0.000125802
-0.000719068
0.000517034
0.000190183
-9.251e-05
0.000124108
-3.17373e-05
-0.000107416
1.77692e-05
8.95575e-05
-0.000442922
6.90113e-05
0.000370413
0.000544591
-0.00015111
-0.000429409
0.000441319
-0.000232774
-0.000208689
0.000106231
-0.000287123
0.000180782
0.00010513
-0.000382328
0.000375974
-0.00028699
-0.0016621
0.000109166
-0.000220538
0.000217146
3.47813e-06
5.32356e-05
-0.000677568
3.5697e-05
-0.000104978
-0.00023666
0.00147557
-0.00125766
0.000409457
-0.000563486
3.31019e-05
-0.000240564
-0.000117747
0.00102106
-0.00107803
-0.000103288
0.000446805
-2.43635e-05
-3.39618e-05
5.84456e-05
-0.000498613
0.000289142
0.00020895
-6.2261e-05
2.83491e-05
0.00112907
-0.000861862
-0.00010688
8.55384e-05
-0.00151166
0.00109619
-9.62722e-05
0.000706018
0.000708962
0.00110425
1.35853e-05
0.000177213
0.000565191
3.50625e-05
-0.000608401
5.10761e-05
8.30994e-06
-5.84929e-05
0.000141733
-0.000160019
1.84589e-05
-0.000266137
-0.000308878
-0.000192058
-1.04165e-05
0.000284992
-0.000236477
0.00106718
6.90932e-05
0.000195108
0.000245896
-0.000359725
2.34759e-05
-0.000130708
0.000131428
7.39915e-05
-0.000346416
8.93814e-05
0.00121716
-0.0012586
-3.35764e-05
-0.000130127
0.000731185
-0.000183119
-5.65354e-05
0.000223421
-0.000265293
-3.73455e-05
-0.000434452
-7.80813e-05
0.000511585
0.000122599
-3.54978e-05
0.000120835
-9.79003e-05
-9.37937e-05
6.59917e-05
0.00017798
-0.000240128
0.000368362
0.00139914
-3.37131e-05
0.000342789
-0.000311946
0.000120361
0.000260141
6.80079e-05
0.000114023
-0.000182108
0.000124226
-0.000126052
-8.40253e-05
0.000257492
-0.000173386
-9.30679e-05
7.98731e-05
0.000487731
-0.000115698
-0.000248086
0.000393426
-0.000145636
-0.000329789
8.14306e-05
0.000190389
-7.62584e-05
-0.000114195
-0.000137464
0.000155956
0.000211855
-0.000367617
0.00128483
-0.000187866
1.47167e-05
0.000493014
-0.000121633
0.000133513
-1.16734e-05
0.000286516
0.000659929
6.71252e-05
0.000179117
-5.74415e-05
5.74136e-05
-1.1625e-07
0.000678404
0.000448398
-0.0011365
0.000121261
0.00038564
0.00139699
-0.000420589
-0.000651421
0.001317
-9.08775e-05
-4.33983e-05
0.00119414
-0.000203816
-0.00101316
-0.000317428
0.000281287
2.80027e-05
-9.14908e-05
-0.00111708
0.000837528
0.000267789
0.000263946
-0.000163431
-0.00138742
0.000345236
0.00103813
0.000222495
-7.39184e-06
-0.000205944
6.71637e-05
1.25462e-06
-6.84082e-05
-0.00100656
0.000251862
0.000151355
-0.000238357
-0.000446564
0.000678119
-6.20796e-05
-0.00038455
-0.000356994
-0.000142242
0.00114384
-0.000350671
0.000352382
-2.72761e-06
0.000391672
3.47287e-05
-5.90379e-05
-0.000302612
0.00026276
4.28402e-05
0.000228122
-0.000157205
-7.08821e-05
0.000274052
-0.000305383
7.23738e-05
-5.89376e-05
-1.35459e-05
0.000107822
4.28674e-05
-0.000150794
0.00016249
6.56052e-05
0.000259007
-5.34459e-05
-0.000203945
-0.00164423
0.00127627
0.000358448
-0.00100063
-0.000449131
-0.000299616
-5.74177e-05
0.000349758
-0.000454483
-0.000447236
0.00170012
-0.00126264
-2.32876e-05
-0.000775202
0.00104249
-0.00124721
0.000417785
0.000826626
-0.000992476
0.000375911
0.0010153
0.00026181
0.000156059
0.000950405
-0.000651739
0.000235893
0.00042386
-0.000523351
-0.000474052
0.000988764
-0.000119046
-9.97547e-05
-0.000950919
-4.47393e-05
0.00011166
-8.1406e-05
-2.98852e-05
-0.000389146
0.000148749
0.000240685
-0.000155134
0.000227605
-7.46727e-05
-0.000526971
0.000671794
-0.000149235
-5.11984e-05
-6.32801e-06
-0.000692168
0.000280421
-0.000221293
-0.000335532
0.00040966
-0.000305458
0.000980786
-0.000682413
-0.00121341
-0.000425616
0.001028
-0.000106246
-0.000938187
-0.000583292
-0.000271156
0.000850237
-0.00136353
-1.77355e-05
0.00111369
5.5719e-05
0.00060946
0.000376893
-0.00150395
-0.00015508
1.00795e-05
0.000451412
-0.00029318
0.000599084
-2.29244e-05
0.000121828
-9.88086e-05
-7.00565e-05
7.45912e-05
-4.54376e-06
2.85853e-05
-8.31256e-05
5.39917e-05
0.00017684
2.24856e-05
-0.000323745
-0.000133429
0.000450023
-0.000133815
-0.000109109
6.72508e-05
4.21803e-05
-4.90161e-06
-0.000840754
0.00150354
-0.00100964
0.000270391
9.67027e-06
0.000734783
0.000589943
-0.00132806
0.000652963
1.72942e-05
5.65384e-05
0.00011672
-0.0003749
-0.000227515
-0.000425392
0.000651065
-0.000714728
0.000774407
-7.41099e-05
-0.000178843
-6.33568e-05
8.02442e-05
0.000327473
-0.000730316
0.000484915
0.000819691
-0.000720598
-8.08231e-05
0.000242729
-0.000168058
0.000107746
3.94433e-05
0.00100092
0.000478876
-0.00148762
-1.22075e-06
4.85008e-05
-0.000314177
-0.000839039
0.000844978
-0.000151604
3.17952e-05
-0.000369128
0.000438257
-7.02482e-05
-9.16792e-05
0.000272716
8.77044e-05
2.40216e-05
0.000201802