/*--------------------------------*- C++ -*----------------------------------*\
| =========                 |                                                 |
| \\      /  F ield         | OpenFOAM: The Open Source CFD Toolbox           |
|  \\    /   O peration     | Version:  v2012                                 |
|   \\  /    A nd           | Website:  www.openfoam.com                      |
|    \\/     M anipulation  |                                                 |
\*---------------------------------------------------------------------------*/
FoamFile
{
    version     2.0;
    format      ascii;
    class       pointVectorField;
    location    "250";
    object      pointDisplacement;
}
// * * * * * * * * * * * * * * * * * * * * * * * * * * * * * * * * * * * * * //

dimensions      [0 1 0 0 0 0 0];


internalField   nonuniform List<vector> 
14246
(
(0 0 0)
(0.021268 -0.147836 0)
(0 0 0)
(0.021268 -0.147836 0)
(0 0 0)
(0 0 0)
(0 0 0)
(0 0 0)
(0 0 0)
(0 0 0)
(0 0 0)
(0 0 0)
(0 0 0)
(0 0 0)
(0 0 0)
(0 0 0)
(0 0 0)
(0 0 0)
(0 0 0)
(0 0 0)
(0 0 0)
(0 0 0)
(0 0 0)
(0 0 0)
(0 0 0)
(0 0 0)
(0 0 0)
(0 0 0)
(0 0 0)
(0 0 0)
(0 0 0)
(0 0 0)
(0 0 0)
(0 0 0)
(0 0 0)
(0 0 0)
(0 0 0)
(0 0 0)
(0 0 0)
(0 0 0)
(0 0 0)
(0 0 0)
(0 0 0)
(0 0 0)
(0 0 0)
(0 0 0)
(0 0 0)
(0 0 0)
(0 0 0)
(0 0 0)
(0 0 0)
(0 0 0)
(0 0 0)
(0 0 0)
(0 0 0)
(0 0 0)
(0 0 0)
(0 0 0)
(0 0 0)
(0 0 0)
(0 0 0)
(0 0 0)
(0 0 0)
(0 0 0)
(0 0 0)
(0 0 0)
(0 0 0)
(0 0 0)
(0 0 0)
(0 0 0)
(0 0 0)
(0 0 0)
(0 0 0)
(0 0 0)
(0 0 0)
(0.0212337 -0.145984 0)
(0.0211994 -0.144132 0)
(0.0211651 -0.14228 0)
(0.0211308 -0.140427 0)
(0.0210964 -0.138575 0)
(0.0210621 -0.136723 0)
(0.0210278 -0.134871 0)
(0.0209935 -0.133018 0)
(0.0209592 -0.131166 0)
(0.0209248 -0.129314 0)
(0.0208905 -0.127462 0)
(0.0208562 -0.125609 0)
(0.0208219 -0.123757 0)
(0.0207876 -0.121905 0)
(0.0207533 -0.120053 0)
(0.0207189 -0.118201 0)
(0.0206846 -0.116348 0)
(0.0206503 -0.114496 0)
(0.020616 -0.112644 0)
(0.0205817 -0.110792 0)
(0.0205473 -0.108939 0)
(0.020513 -0.107087 0)
(0.0204787 -0.105235 0)
(0.0204444 -0.103383 0)
(0.0204101 -0.10153 0)
(0.0203757 -0.0996781 0)
(0.0203414 -0.0978258 0)
(0.0203071 -0.0959736 0)
(0.0202728 -0.0941213 0)
(0.0202385 -0.0922691 0)
(0.0202041 -0.0904168 0)
(0.0201698 -0.0885646 0)
(0.0201355 -0.0867123 0)
(0.0201012 -0.0848601 0)
(0.0200669 -0.0830079 0)
(0.0200325 -0.0811556 0)
(0.0199982 -0.0793034 0)
(0.0199639 -0.0774511 0)
(0.0199296 -0.0755989 0)
(0.0198953 -0.0737466 0)
(0.0198609 -0.0718944 0)
(0.0198266 -0.0700421 0)
(0.0197923 -0.0681899 0)
(0.019758 -0.0663376 0)
(0.0197237 -0.0644854 0)
(0.0196893 -0.0626331 0)
(0.019655 -0.0607809 0)
(0.0196207 -0.0589287 0)
(0.0195864 -0.0570764 0)
(0.0195521 -0.0552242 0)
(0.0195177 -0.0533719 0)
(0.0194834 -0.0515197 0)
(0.0194491 -0.0496674 0)
(0.0194148 -0.0478152 0)
(0.0193805 -0.0459629 0)
(0.0193461 -0.0441107 0)
(0.0193118 -0.0422584 0)
(0.0192775 -0.0404062 0)
(0.0192432 -0.038554 0)
(0.0192089 -0.0367017 0)
(0.0191745 -0.0348495 0)
(0.0191402 -0.0329972 0)
(0.0191059 -0.031145 0)
(0.0190716 -0.0292927 0)
(0.0190373 -0.0274405 0)
(0.0190029 -0.0255882 0)
(0.0189686 -0.023736 0)
(0.0189343 -0.0218837 0)
(0.0189 -0.0200315 0)
(0.0188657 -0.0181793 0)
(0.0188313 -0.016327 0)
(0.018797 -0.0144748 0)
(0.0187627 -0.0126225 0)
(0.0187284 -0.0107703 0)
(0.0186941 -0.00891803 0)
(0.0186597 -0.00706578 0)
(0.0186254 -0.00521354 0)
(0.0185911 -0.00336129 0)
(0.0185568 -0.00150905 0)
(0.0185225 0.000343199 0)
(0.0184881 0.00219544 0)
(0.0184538 0.00404769 0)
(0.0184195 0.00589994 0)
(0.0183852 0.00775218 0)
(0.0183509 0.00960443 0)
(0.0183165 0.0114567 0)
(0.0182822 0.0133089 0)
(0.0182479 0.0151612 0)
(0.0182136 0.0170134 0)
(0.0181793 0.0188657 0)
(0.0181449 0.0207179 0)
(0.0181106 0.0225701 0)
(0.0180763 0.0244224 0)
(0.018042 0.0262746 0)
(0.0180077 0.0281269 0)
(0.0179733 0.0299791 0)
(0.017939 0.0318314 0)
(0.0179047 0.0336836 0)
(0.0178704 0.0355359 0)
(0.0178361 0.0373881 0)
(0.0178017 0.0392404 0)
(0.0177674 0.0410926 0)
(0.0177331 0.0429448 0)
(0.0176988 0.0447971 0)
(0.0176645 0.0466493 0)
(0.0176301 0.0485016 0)
(0.0175958 0.0503538 0)
(0.0175615 0.0522061 0)
(0.0175272 0.0540583 0)
(0.0174929 0.0559106 0)
(0.0174585 0.0577628 0)
(0.0174242 0.0596151 0)
(0.0173899 0.0614673 0)
(0.0173556 0.0633195 0)
(0.0173213 0.0651718 0)
(0.0172869 0.067024 0)
(0.0172526 0.0688763 0)
(0.0172183 0.0707285 0)
(0.017184 0.0725808 0)
(0.0171497 0.074433 0)
(0.0171153 0.0762853 0)
(0.017081 0.0781375 0)
(0.0170467 0.0799898 0)
(0.0170124 0.081842 0)
(0.0169781 0.0836942 0)
(0.0169437 0.0855465 0)
(0.0169094 0.0873987 0)
(0.0168751 0.089251 0)
(0.0168408 0.0911032 0)
(0.0168065 0.0929555 0)
(0.0167721 0.0948077 0)
(0.0167378 0.09666 0)
(0.0167035 0.0985122 0)
(0.0175636 -0.147905 0)
(0.0194158 -0.147871 0)
(0 0 0)
(0 0 0)
(0 0 0)
(0 0 0)
(0 0 0)
(0 0 0)
(0 0 0)
(0 0 0)
(0 0 0)
(0 0 0)
(0 0 0)
(0 0 0)
(0 0 0)
(0 0 0)
(0 0 0)
(0 0 0)
(0 0 0)
(0 0 0)
(0 0 0)
(0 0 0)
(0 0 0)
(0 0 0)
(0 0 0)
(0 0 0)
(0 0 0)
(0 0 0)
(0 0 0)
(0 0 0)
(0 0 0)
(0 0 0)
(0 0 0)
(0 0 0)
(0 0 0)
(0 0 0)
(0 0 0)
(0 0 0)
(0 0 0)
(0 0 0)
(0 0 0)
(0 0 0)
(0 0 0)
(0 0 0)
(0 0 0)
(0 0 0)
(0 0 0)
(0 0 0)
(0 0 0)
(0 0 0)
(0 0 0)
(0 0 0)
(0 0 0)
(0 0 0)
(0 0 0)
(0 0 0)
(0 0 0)
(0 0 0)
(0 0 0)
(0 0 0)
(0 0 0)
(0 0 0)
(0 0 0)
(0 0 0)
(0 0 0)
(0 0 0)
(0 0 0)
(0 0 0)
(0 0 0)
(0 0 0)
(0 0 0)
(0 0 0)
(0 0 0)
(0.0212337 -0.145984 0)
(0.0211994 -0.144132 0)
(0.0211651 -0.14228 0)
(0.0211308 -0.140427 0)
(0.0210964 -0.138575 0)
(0.0210621 -0.136723 0)
(0.0210278 -0.134871 0)
(0.0209935 -0.133018 0)
(0.0209592 -0.131166 0)
(0.0209248 -0.129314 0)
(0.0208905 -0.127462 0)
(0.0208562 -0.125609 0)
(0.0208219 -0.123757 0)
(0.0207876 -0.121905 0)
(0.0207533 -0.120053 0)
(0.0207189 -0.118201 0)
(0.0206846 -0.116348 0)
(0.0206503 -0.114496 0)
(0.020616 -0.112644 0)
(0.0205817 -0.110792 0)
(0.0205473 -0.108939 0)
(0.020513 -0.107087 0)
(0.0204787 -0.105235 0)
(0.0204444 -0.103383 0)
(0.0204101 -0.10153 0)
(0.0203757 -0.0996781 0)
(0.0203414 -0.0978258 0)
(0.0203071 -0.0959736 0)
(0.0202728 -0.0941213 0)
(0.0202385 -0.0922691 0)
(0.0202041 -0.0904168 0)
(0.0201698 -0.0885646 0)
(0.0201355 -0.0867123 0)
(0.0201012 -0.0848601 0)
(0.0200669 -0.0830079 0)
(0.0200325 -0.0811556 0)
(0.0199982 -0.0793034 0)
(0.0199639 -0.0774511 0)
(0.0199296 -0.0755989 0)
(0.0198953 -0.0737466 0)
(0.0198609 -0.0718944 0)
(0.0198266 -0.0700421 0)
(0.0197923 -0.0681899 0)
(0.019758 -0.0663376 0)
(0.0197237 -0.0644854 0)
(0.0196893 -0.0626331 0)
(0.019655 -0.0607809 0)
(0.0196207 -0.0589287 0)
(0.0195864 -0.0570764 0)
(0.0195521 -0.0552242 0)
(0.0195177 -0.0533719 0)
(0.0194834 -0.0515197 0)
(0.0194491 -0.0496674 0)
(0.0194148 -0.0478152 0)
(0.0193805 -0.0459629 0)
(0.0193461 -0.0441107 0)
(0.0193118 -0.0422584 0)
(0.0192775 -0.0404062 0)
(0.0192432 -0.038554 0)
(0.0192089 -0.0367017 0)
(0.0191745 -0.0348495 0)
(0.0191402 -0.0329972 0)
(0.0191059 -0.031145 0)
(0.0190716 -0.0292927 0)
(0.0190373 -0.0274405 0)
(0.0190029 -0.0255882 0)
(0.0189686 -0.023736 0)
(0.0189343 -0.0218837 0)
(0.0189 -0.0200315 0)
(0.0188657 -0.0181793 0)
(0.0188313 -0.016327 0)
(0.018797 -0.0144748 0)
(0.0187627 -0.0126225 0)
(0.0187284 -0.0107703 0)
(0.0186941 -0.00891803 0)
(0.0186597 -0.00706578 0)
(0.0186254 -0.00521354 0)
(0.0185911 -0.00336129 0)
(0.0185568 -0.00150905 0)
(0.0185225 0.000343199 0)
(0.0184881 0.00219544 0)
(0.0184538 0.00404769 0)
(0.0184195 0.00589994 0)
(0.0183852 0.00775218 0)
(0.0183509 0.00960443 0)
(0.0183165 0.0114567 0)
(0.0182822 0.0133089 0)
(0.0182479 0.0151612 0)
(0.0182136 0.0170134 0)
(0.0181793 0.0188657 0)
(0.0181449 0.0207179 0)
(0.0181106 0.0225701 0)
(0.0180763 0.0244224 0)
(0.018042 0.0262746 0)
(0.0180077 0.0281269 0)
(0.0179733 0.0299791 0)
(0.017939 0.0318314 0)
(0.0179047 0.0336836 0)
(0.0178704 0.0355359 0)
(0.0178361 0.0373881 0)
(0.0178017 0.0392404 0)
(0.0177674 0.0410926 0)
(0.0177331 0.0429448 0)
(0.0176988 0.0447971 0)
(0.0176645 0.0466493 0)
(0.0176301 0.0485016 0)
(0.0175958 0.0503538 0)
(0.0175615 0.0522061 0)
(0.0175272 0.0540583 0)
(0.0174929 0.0559106 0)
(0.0174585 0.0577628 0)
(0.0174242 0.0596151 0)
(0.0173899 0.0614673 0)
(0.0173556 0.0633195 0)
(0.0173213 0.0651718 0)
(0.0172869 0.067024 0)
(0.0172526 0.0688763 0)
(0.0172183 0.0707285 0)
(0.017184 0.0725808 0)
(0.0171497 0.074433 0)
(0.0171153 0.0762853 0)
(0.017081 0.0781375 0)
(0.0170467 0.0799898 0)
(0.0170124 0.081842 0)
(0.0169781 0.0836942 0)
(0.0169437 0.0855465 0)
(0.0169094 0.0873987 0)
(0.0168751 0.089251 0)
(0.0168408 0.0911032 0)
(0.0168065 0.0929555 0)
(0.0167721 0.0948077 0)
(0.0167378 0.09666 0)
(0.0167035 0.0985122 0)
(0.0175636 -0.147905 0)
(0.0194158 -0.147871 0)
(0.0166869 0.0994207 0)
(0.0173107 0.0658044 0)
(0.0179209 0.0327652 0)
(0.0185389 -0.000551695 0)
(0.0191583 -0.0339471 0)
(0.0197756 -0.0672679 0)
(0.0203945 -0.100723 0)
(0.0210105 -0.133983 0)
(0.0194672 -0.0506619 0)
(0.0188485 -0.0172511 0)
(0.0169961 0.0827434 0)
(0.0207013 -0.117246 0)
(0.0176123 0.0494601 0)
(0.0182313 0.0161009 0)
(0.0200823 -0.0838448 0)
(0.0168326 -0.147925 0)
(0.000714091 -0.00398394 0)
(0.000542979 -0.00679234 0)
(0.000905169 -0.00339743 0)
(0.0011292 -0.00125285 0)
(0.000483391 -0.00868096 0)
(0.000344111 -0.0106315 0)
(0.000917865 0.00111077 0)
(0.0211733 -0.143182 0)
(0.000593576 -0.00403282 0)
(0.00049451 -0.00510246 0)
(0.000389199 -0.0036169 0)
(0.0205655 -0.109917 0)
(0.0180923 0.0235805 0)
(0.0202206 -0.091352 0)
(0.017477 0.056787 0)
(0.0192957 -0.0413836 0)
(0.0196408 -0.0599942 0)
(0.018987 -0.0247232 0)
(0.0186767 -0.00797542 0)
(0.0171674 0.0734382 0)
(0.0208766 -0.126658 0)
(0.0177852 0.0401519 0)
(0.0184032 0.00681202 0)
(0.0168568 0.0903032 0)
(0.0199134 -0.0747134 0)
(0.000435259 -0.00329817 0)
(0.000541395 -0.00791178 0)
(0.000896489 -0.00422627 0)
(0.000873716 -0.00200258 0)
(0.000247785 -0.00215154 0)
(0.00029597 -0.00236805 0)
(0.000162242 -0.00134272 0)
(0.000446625 -0.00946952 0)
(0.000225811 -0.00966493 0)
(0.000532282 -0.00609995 0)
(0.00090895 -0.00280541 0)
(0.00091822 0.000228365 0)
(0.000686118 -0.00417947 0)
(0.000444956 -0.00433815 0)
(0.000560924 -0.00404661 0)
(0.000323312 -0.0028901 0)
(0.000169259 -0.00144058 0)
(7.78678e-05 -0.000654546 0)
(0.000463579 -0.00901633 0)
(0.000915777 -0.0170315 0)
(0.000956947 -0.0165128 0)
(0.00135848 -0.0241947 0)
(0.0014172 -0.0235158 0)
(0.0017914 -0.0305833 0)
(0.0018618 -0.0297633 0)
(0.00222219 -0.0364163 0)
(0.00229497 -0.0354219 0)
(0.00264427 -0.0415915 0)
(0.00271429 -0.0404105 0)
(0.00304927 -0.0460456 0)
(0.00311749 -0.0447028 0)
(0.00344198 -0.0499941 0)
(0.0035089 -0.04849 0)
(0.0038257 -0.0534942 0)
(0.00374887 -0.0550914 0)
(0.00412376 -0.0582863 0)
(0.00403275 -0.0599059 0)
(0.00440183 -0.0628318 0)
(0.00429431 -0.0644348 0)
(0.00466122 -0.0671344 0)
(0.00453775 -0.0687276 0)
(0.00490162 -0.0712055 0)
(0.00476792 -0.0728575 0)
(0.00512744 -0.0750536 0)
(0.00499746 -0.0767434 0)
(0.00534271 -0.0786947 0)
(0.00519886 -0.0803104 0)
(0.00554034 -0.0821141 0)
(0.00537943 -0.0837002 0)
(0.00572627 -0.0853598 0)
(0.00555152 -0.0868773 0)
(0.00589966 -0.0884814 0)
(0.00570493 -0.0899027 0)
(0.00605817 -0.0914098 0)
(0.00585262 -0.0928215 0)
(0.00621131 -0.0941686 0)
(0.00599374 -0.0955697 0)
(0.00635909 -0.0967791 0)
(0.00613228 -0.0981739 0)
(0.00650657 -0.0992744 0)
(0.00626951 -0.100677 0)
(0.00672217 -0.0978111 0)
(0.00688114 -0.100191 0)
(0.00708611 -0.0986622 0)
(0.00725471 -0.10094 0)
(0.00745044 -0.0993445 0)
(0.00762954 -0.101536 0)
(0.00781724 -0.099863 0)
(0.00801349 -0.101979 0)
(0.00818243 -0.100212 0)
(0.00839048 -0.102149 0)
(0.00854213 -0.100438 0)
(0.00875246 -0.102203 0)
(0.00889826 -0.100478 0)
(0.00912524 -0.102285 0)
(0.00925109 -0.100332 0)
(0.00950134 -0.10214 0)
(0.00960395 -0.100063 0)
(0.00986554 -0.101747 0)
(0.0082696 -0.104152 0)
(0.0099503 -0.0996098 0)
(0.0102198 -0.101199 0)
(0.0102861 -0.0989719 0)
(0.0105642 -0.100474 0)
(0.010614 -0.0981648 0)
(0.0109024 -0.0995796 0)
(0.0109316 -0.097187 0)
(0.0112272 -0.0984726 0)
(0.0106538 -0.0957762 0)
(0.0112327 -0.0960717 0)
(0.0115291 -0.0971604 0)
(0.011511 -0.0947412 0)
(0.0118175 -0.0956717 0)
(0.0117722 -0.0931656 0)
(0.0120828 -0.0939087 0)
(0.0120224 -0.0914156 0)
(0.0123286 -0.0920689 0)
(0.0122577 -0.0894751 0)
(0.012569 -0.0900398 0)
(0.0124721 -0.0873237 0)
(0.0127895 -0.0877023 0)
(0.0121606 -0.086945 0)
(0.0101307 -0.103327 0)
(0.0126648 -0.0849687 0)
(0.0129822 -0.0851572 0)
(0.0128389 -0.0824293 0)
(0.0131484 -0.082425 0)
(0.013298 -0.0850315 0)
(0.0134552 -0.0822623 0)
(0.0133003 -0.0795524 0)
(0.0135985 -0.079277 0)
(0.0137611 -0.0819561 0)
(0.0138934 -0.0787948 0)
(0.0137205 -0.0761023 0)
(0.0140054 -0.0754494 0)
(0.0141844 -0.0781209 0)
(0.0142864 -0.0745966 0)
(0.0140974 -0.0719361 0)
(0.0143699 -0.0708745 0)
(0.0141721 -0.0682374 0)
(0.0144365 -0.0669525 0)
(0.0146323 -0.0696306 0)
(0.0146941 -0.0655494 0)
(0.0144889 -0.062799 0)
(0.014737 -0.0611953 0)
(0.0149856 -0.0641887 0)
(0.0149752 -0.0593065 0)
(0.0147618 -0.0566336 0)
(0.0149777 -0.054673 0)
(0.015211 -0.0569612 0)
(0.0151809 -0.0520958 0)
(0.0149315 -0.0497422 0)
(0.0151592 -0.0474706 0)
(0.0153801 -0.0494199 0)
(0.0153511 -0.0448083 0)
(0.0151245 -0.042799 0)
(0.0153 -0.0399769 0)
(0.0150672 -0.0381175 0)
(0.015232 -0.0350781 0)
(0.0154639 -0.0368111 0)
(0.0153837 -0.0317974 0)
(0.0151487 -0.0301647 0)
(0.0152883 -0.0267645 0)
(0.0150513 -0.0252718 0)
(0.0151791 -0.0217452 0)
(0.0154138 -0.0231523 0)
(0.0152916 -0.0180048 0)
(0.0150574 -0.0168166 0)
(0.0151583 -0.0130317 0)
(0.0153888 -0.0140779 0)
(0.0152436 -0.0090497 0)
(0.0150139 -0.00816285 0)
(0.0150881 -0.00411564 0)
(0.0148588 -0.00336253 0)
(0.014924 0.000705833 0)
(0.0151457 0.000131814 0)
(0.0149723 0.00493813 0)
(0.0147525 0.00537744 0)
(0.0147893 0.00964003 0)
(0.0150054 0.00931025 0)
(0.014811 0.0140845 0)
(0.0145959 0.0142164 0)
(0.014607 0.0186891 0)
(0.0143937 0.0185905 0)
(0.0143965 0.0229853 0)
(0.0141844 0.0227645 0)
(0.0141789 0.0270874 0)
(0.0143842 0.0274582 0)
(0.014159 0.0314755 0)
(0.0139548 0.0310596 0)
(0.0139291 0.0353424 0)
(0.0141274 0.0358489 0)
(0.0138911 0.0396272 0)
(0.0136936 0.0390432 0)
(0.0136469 0.0432544 0)
(0.013453 0.0425529 0)
(0.0133967 0.0467191 0)
(0.00449365 -0.0611391 0)
(0.0118256 -0.0981869 0)
(0.00588323 -0.0994852 0)
(0.00600033 -0.101976 0)
(0.00561098 -0.100712 0)
(0.00571428 -0.103228 0)
(0.00532258 -0.101867 0)
(0.00897218 -0.098506 0)
(0.00320092 -0.134387 0)
(0.00349465 -0.13535 0)
(0.00403566 -0.134559 0)
(0.00440909 -0.135472 0)
(0.00488989 -0.13459 0)
(0.00531818 -0.135479 0)
(0.00574778 -0.134509 0)
(0.00621926 -0.135375 0)
(0.00501953 -0.0818883 0)
(0.00657341 -0.134334 0)
(0.00709 -0.13513 0)
(0.00306348 -0.133455 0)
(0.00736192 -0.134042 0)
(0.00790383 -0.134748 0)
(0.00577022 -0.136357 0)
(0.00810929 -0.133628 0)
(0.00866395 -0.13427 0)
(0.00688135 -0.133271 0)
(0.00880873 -0.133105 0)
(0.00936606 -0.133682 0)
(0.0092564 -0.134843 0)
(0.00995604 -0.134186 0)
(0.0100125 -0.132983 0)
(0.0105995 -0.133405 0)
(0.0106043 -0.13216 0)
(0.0111802 -0.132499 0)
(0.0112077 -0.133749 0)
(0.0117677 -0.132762 0)
(0.00548022 -0.0770228 0)
(0.0118267 -0.134018 0)
(0.0123628 -0.132942 0)
(0.0122653 -0.131659 0)
(0.0128389 -0.131726 0)
(0.0129692 -0.133004 0)
(0.0134187 -0.131674 0)
(0.0132536 -0.13039 0)
(0.0137996 -0.130237 0)
(0.0139974 -0.131497 0)
(0.0143352 -0.129959 0)
(0.01456 -0.131188 0)
(0.0148556 -0.129532 0)
(0.0146266 -0.128309 0)
(0.0151122 -0.127761 0)
(0.0153523 -0.128936 0)
(0.0155716 -0.127061 0)
(0.0158232 -0.128179 0)
(0.015995 -0.126253 0)
(0.016264 -0.127227 0)
(0.016383 -0.125235 0)
(0.0166651 -0.126082 0)
(0.016746 -0.123929 0)
(0.0170313 -0.124717 0)
(0.0170855 -0.122372 0)
(0.0173623 -0.12309 0)
(0.0173888 -0.120628 0)
(0.0176546 -0.121254 0)
(0.0176539 -0.118746 0)
(0.0179111 -0.119189 0)
(0.0178905 -0.11662 0)
(0.0181377 -0.116819 0)
(0.0181024 -0.11421 0)
(0.0183399 -0.11421 0)
(0.0182925 -0.111557 0)
(0.0185182 -0.111354 0)
(0.0184578 -0.108755 0)
(0.0186655 -0.108282 0)
(0.0185902 -0.105715 0)
(0.0187837 -0.10506 0)
(0.0187012 -0.102413 0)
(0.0188779 -0.101607 0)
(0.0187901 -0.0989481 0)
(0.0189514 -0.0979593 0)
(0.0188564 -0.0952918 0)
(0.019006 -0.0941958 0)
(0.0189097 -0.0914965 0)
(0.0190448 -0.0903049 0)
(0.018946 -0.0876022 0)
(0.0190687 -0.0862913 0)
(0.0189672 -0.083589 0)
(0.019079 -0.0822041 0)
(0.0189756 -0.0795205 0)
(0.0190765 -0.0780453 0)
(0.0189757 -0.0754511 0)
(0.0190623 -0.0738269 0)
(0.0189636 -0.0713363 0)
(0.0190391 -0.0695135 0)
(0.0189396 -0.067103 0)
(0.019008 -0.0651131 0)
(0.0189088 -0.0627305 0)
(0.01897 -0.0606706 0)
(0.0188715 -0.0583083 0)
(0.0189258 -0.0562012 0)
(0.0188291 -0.0538973 0)
(0.0188755 -0.0517324 0)
(0.0187795 -0.0494447 0)
(0.0188206 -0.0472867 0)
(0.0187249 -0.0449902 0)
(0.0187615 -0.0428285 0)
(0.0186664 -0.0405778 0)
(0.0186983 -0.0383281 0)
(0.0186037 -0.03616 0)
(0.0186312 -0.0337397 0)
(0.0185375 -0.0316768 0)
(0.0185624 -0.0292028 0)
(0.0184679 -0.0271934 0)
(0.0184896 -0.0247396 0)
(0.018396 -0.0227646 0)
(0.0184113 -0.0202112 0)
(0.0183189 -0.0183042 0)
(0.0183292 -0.0156472 0)
(0.0182378 -0.0138217 0)
(0.018245 -0.0111438 0)
(0.0181547 -0.009385 0)
(0.0181593 -0.0066422 0)
(0.018065 -0.00493247 0)
(0.0180698 -0.00209753 0)
(0.0179732 -0.000361357 0)
(0.0179787 0.00244425 0)
(0.0178847 0.00414277 0)
(0.0178849 0.00697881 0)
(0.0177922 0.00857052 0)
(0.0177872 0.0115068 0)
(0.0176936 0.0130254 0)
(0.0176872 0.0159914 0)
(0.0175926 0.017445 0)
(0.0175844 0.0204524 0)
(0.0174878 0.0218926 0)
(0.0174783 0.0249396 0)
(0.0173816 0.0263027 0)
(0.0173679 0.0293682 0)
(0.0172704 0.0306042 0)
(0.0172542 0.0336936 0)
(0.017155 0.0349128 0)
(0.0171377 0.0379992 0)
(0.0170373 0.0391579 0)
(0.0170169 0.04227 0)
(0.0169127 0.043306 0)
(0.0168908 0.0465074 0)
(0.0167815 0.0474838 0)
(0.0167594 0.0507287 0)
(0.0166461 0.0516031 0)
(0.0166219 0.0548522 0)
(0.0165075 0.0556442 0)
(0.0164797 0.0588862 0)
(0.016365 0.0596086 0)
(0.0163327 0.062876 0)
(0.0162167 0.0633993 0)
(0.0161799 0.0667368 0)
(0.0160606 0.0671036 0)
(0.0160222 0.0704508 0)
(0.0158976 0.0707727 0)
(0.0158574 0.0740679 0)
(0.015986 0.0737122 0)
(0.0158182 0.077293 0)
(0.0156851 0.0775844 0)
(0.0156414 0.0808185 0)
(0.0167301 0.0543677 0)
(0.0173444 0.0325752 0)
(0.0177762 0.0145001 0)
(0.0181573 -0.0039361 0)
(0.0185066 -0.0223224 0)
(0.0187886 -0.0405507 0)
(0.0185048 -0.034044 0)
(0.0187702 -0.0558496 0)
(0.0188739 -0.0763982 0)
(0.0186851 -0.0964606 0)
(0.0180721 -0.111616 0)
(0.0190194 -0.0584527 0)
(0.0178648 0.00176467 0)
(0.0168043 0.0442003 0)
(0.0173843 0.0235742 0)
(0.0168004 -0.121657 0)
(0.0191641 -0.0764515 0)
(0.0161112 0.0634468 0)
(0.014908 -0.126548 0)
(0.0191392 -0.0930837 0)
(0.0188769 -0.107634 0)
(0.00539685 -0.10438 0)
(0.00502243 -0.102912 0)
(0.0182311 -0.0169201 0)
(0.018156 -0.119455 0)
(0.0165629 -0.128079 0)
(0.005044 -0.105361 0)
(0.00463851 -0.103534 0)
(0.00467325 -0.106262 0)
(0.00428602 -0.104687 0)
(0.0043035 -0.107138 0)
(0.00391226 -0.105442 0)
(0.00391305 -0.102953 0)
(0.00353938 -0.103441 0)
(0.00356943 -0.1009 0)
(0.00318686 -0.101341 0)
(0.00324461 -0.0985032 0)
(0.00283971 -0.099036 0)
(0.00344781 -0.106052 0)
(0.00505385 -0.107654 0)
(0.00291512 -0.0960195 0)
(0.00251564 -0.0965113 0)
(0.00258986 -0.0934332 0)
(0.00220555 -0.093828 0)
(0.00209858 -0.0968598 0)
(0.00180677 -0.0940773 0)
(0.00167246 -0.0970519 0)
(0.00189596 -0.0908943 0)
(0.0021267 -0.0373785 0)
(0.00646826 -0.144691 0)
(0.00628615 -0.144118 0)
(0.00774984 -0.144222 0)
(0.00803074 -0.144797 0)
(0.00919046 -0.144268 0)
(0.00959753 -0.144843 0)
(0.0105824 -0.14424 0)
(0.0111344 -0.144795 0)
(0.0118952 -0.144154 0)
(0.0125675 -0.144657 0)
(0.0131154 -0.144002 0)
(0.0138407 -0.14443 0)
(0.0142106 -0.143719 0)
(0.0149448 -0.144087 0)
(0.015163 -0.143313 0)
(0.0158829 -0.143619 0)
(0.0101457 -0.143635 0)
(0.0159595 -0.14277 0)
(0.0166514 -0.143009 0)
(0.0145056 -0.142959 0)
(0.00763215 -0.0976846 0)
(0.0166085 -0.142072 0)
(0.0172586 -0.142213 0)
(0.0126286 -0.0932727 0)
(0.00438717 -0.0701716 0)
(0.0171329 -0.141216 0)
(0.0177196 -0.141234 0)
(0.0118071 -0.145254 0)
(0.00950056 0.0231765 0)
(0.00989299 0.0240194 0)
(0.00978165 0.0203161 0)
(0.00937786 0.0196677 0)
(0.00965483 0.0167874 0)
(0.0100585 0.017242 0)
(0.00992354 0.0137208 0)
(0.0103227 0.0140113 0)
(0.0101804 0.0104661 0)
(0.00976641 0.0103512 0)
(0.0100169 0.00708106 0)
(0.0104266 0.00698698 0)
(0.0102598 0.00359867 0)
(0.00983018 0.0038974 0)
(0.0100673 0.000468792 0)
(0.0104933 -2.90173e-05 0)
(0.0102915 -0.0030932 0)
(0.010713 -0.00375917 0)
(0.0105015 -0.00676003 0)
(0.0100696 -0.00594146 0)
(0.0102698 -0.00954495 0)
(0.0106992 -0.0104723 0)
(0.0104583 -0.0132275 0)
(0.0100172 -0.0120901 0)
(0.0101975 -0.0157184 0)
(0.0106415 -0.0169876 0)
(0.0103698 -0.0194441 0)
(0.00992081 -0.0179037 0)
(0.0100795 -0.021491 0)
(0.0105196 -0.0233004 0)
(0.0102218 -0.0251439 0)
(0.00978059 -0.0232713 0)
(0.00991715 -0.0267606 0)
(0.0103448 -0.028793 0)
(0.0100345 -0.0302229 0)
(0.0104502 -0.0323916 0)
(0.0101377 -0.0336636 0)
(0.00971298 -0.03141 0)
(0.0098119 -0.0346779 0)
(0.0102431 -0.0372137 0)
(0.0098993 -0.0379936 0)
(0.00947388 -0.0354407 0)
(0.0095419 -0.0384665 0)
(0.00992748 -0.0410782 0)
(0.00958398 -0.0414222 0)
(0.00918645 -0.0387945 0)
(0.00923109 -0.0416107 0)
(0.00961184 -0.0443249 0)
(0.00925617 -0.0443409 0)
(0.00962246 -0.0471319 0)
(0.00926091 -0.0469774 0)
(0.00888918 -0.044128 0)
(0.0088909 -0.0466147 0)
(0.00924395 -0.0495234 0)
(0.00887119 -0.0489925 0)
(0.0092054 -0.0519552 0)
(0.00883099 -0.0512441 0)
(0.00914127 -0.0541872 0)
(0.00876384 -0.0533005 0)
(0.00903638 -0.0561156 0)
(0.00866374 -0.0551545 0)
(0.00837946 -0.0521933 0)
(0.00828801 -0.0539352 0)
(0.00855358 -0.0569269 0)
(0.00817436 -0.0554984 0)
(0.00841961 -0.0584563 0)
(0.00804108 -0.0568951 0)
(0.00827269 -0.059877 0)
(0.00789408 -0.05815 0)
(0.00811326 -0.0612077 0)
(0.00772445 -0.0591991 0)
(0.00750538 -0.0561693 0)
(0.00733238 -0.0570111 0)
(0.00711097 -0.0540055 0)
(0.00693464 -0.0546629 0)
(0.00670993 -0.0516676 0)
(0.00653305 -0.0521661 0)
(0.00630247 -0.0491468 0)
(0.0061285 -0.0495274 0)
(0.00850894 -0.043722 0)
(0.00792592 -0.0622513 0)
(0.00588965 -0.0465033 0)
(0.0057189 -0.0467442 0)
(0.0060513 -0.0459184 0)
(0.00547837 -0.04378 0)
(0.00530934 -0.0438407 0)
(0.00552824 -0.046726 0)
(0.00506882 -0.0409413 0)
(0.00511915 -0.0436415 0)
(0.00532019 -0.0464759 0)
(0.00949836 -0.0548201 0)
(0.00852373 -0.0630769 0)
(0.00490598 -0.0431458 0)
(0.00508199 -0.045854 0)
(0.0140856 0.0401887 0)
(0.0150253 0.0137713 0)
(0.0141767 0.018498 0)
(0.0132574 0.0418074 0)
(0.0164233 0.092318 0)
(0.0164974 0.0917203 0)
(0.0165201 0.089381 0)
(0.0165901 0.0886698 0)
(0.0166103 0.0864392 0)
(0.0166776 0.0856295 0)
(0.0166973 0.0833989 0)
(0.0167617 0.0825559 0)
(0.0167829 0.0803028 0)
(0.0168437 0.0794316 0)
(0.016866 0.0771644 0)
(0.0169239 0.0762468 0)
(0.0169461 0.0740278 0)
(0.0170011 0.073076 0)
(0.017024 0.0708877 0)
(0.0170755 0.0699343 0)
(0.0170994 0.0677378 0)
(0.0171484 0.0667757 0)
(0.0171728 0.0645864 0)
(0.0172201 0.063602 0)
(0.0172447 0.0614297 0)
(0.0172898 0.060448 0)
(0.0173149 0.0582817 0)
(0.0173577 0.0572936 0)
(0.0173839 0.0551182 0)
(0.0174253 0.0541009 0)
(0.0174525 0.0519208 0)
(0.0174932 0.0508676 0)
(0.0175201 0.0487281 0)
(0.0175602 0.0476252 0)
(0.0175857 0.0456076 0)
(0.0176243 0.0444821 0)
(0.0176497 0.0424913 0)
(0.0176871 0.0413732 0)
(0.0177135 0.0393492 0)
(0.0177499 0.0382427 0)
(0.0177762 0.0362441 0)
(0.0178127 0.0350854 0)
(0.0178386 0.0330996 0)
(0.0178751 0.0319073 0)
(0.0179019 0.0298956 0)
(0.017937 0.0287372 0)
(0.017965 0.0266558 0)
(0.0179985 0.0255759 0)
(0.0180284 0.0234357 0)
(0.0180601 0.022396 0)
(0.0180895 0.0203629 0)
(0.0181215 0.0192317 0)
(0.0181488 0.0173197 0)
(0.018182 0.0160841 0)
(0.0182088 0.014187 0)
(0.0182423 0.0129302 0)
(0.0182699 0.010991 0)
(0.0183023 0.00978132 0)
(0.01833 0.0078289 0)
(0.0183618 0.00664306 0)
(0.0183898 0.00467907 0)
(0.0184213 0.00349373 0)
(0.0184493 0.00152901 0)
(0.0184799 0.000390287 0)
(0.0185079 -0.00157573 0)
(0.0185376 -0.00268024 0)
(0.0185657 -0.00466021 0)
(0.0185962 -0.00580314 0)
(0.0186237 -0.0077479 0)
(0.0186554 -0.00897213 0)
(0.0186817 -0.0108458 0)
(0.0187134 -0.0120884 0)
(0.0187389 -0.0139281 0)
(0.0187712 -0.0151871 0)
(0.0187962 -0.0170271 0)
(0.0188287 -0.0182823 0)
(0.0188542 -0.0201747 0)
(0.0188861 -0.021382 0)
(0.0189118 -0.0232879 0)
(0.0189435 -0.0244898 0)
(0.0189685 -0.026325 0)
(0.0190006 -0.0275793 0)
(0.0190244 -0.0293432 0)
(0.0190573 -0.0306537 0)
(0.0190813 -0.0324315 0)
(0.0191144 -0.0337548 0)
(0.0191388 -0.0355813 0)
(0.0191713 -0.0368596 0)
(0.0191952 -0.0386877 0)
(0.0192274 -0.0399313 0)
(0.0192516 -0.041795 0)
(0.0192835 -0.0430073 0)
(0.0193082 -0.0449204 0)
(0.0193401 -0.046124 0)
(0.0193633 -0.0479513 0)
(0.0193959 -0.0492041 0)
(0.0194163 -0.0508945 0)
(0.0168198 0.0817124 0)
(0.0194499 -0.0521881 0)
(0.0194695 -0.053891 0)
(0.0195041 -0.0551986 0)
(0.0195239 -0.0569648 0)
(0.019559 -0.0582581 0)
(0.0195781 -0.0600412 0)
(0.0171946 0.0657601 0)
(0.0196134 -0.0613165 0)
(0.0196322 -0.0631263 0)
(0.0196676 -0.0643895 0)
(0.0196858 -0.0662026 0)
(0.0197219 -0.0674676 0)
(0.0197386 -0.0692499 0)
(0.0175361 0.0496662 0)
(0.0197757 -0.0705542 0)
(0.0197906 -0.0722622 0)
(0.0198291 -0.0736478 0)
(0.0198415 -0.0752659 0)
(0.0198813 -0.0766825 0)
(0.0198908 -0.0782289 0)
(0.0177828 0.0372201 0)
(0.0199321 -0.0796557 0)
(0.0199397 -0.081205 0)
(0.0199828 -0.0826348 0)
(0.019988 -0.0841984 0)
(0.0180316 0.0243484 0)
(0.0200322 -0.085604 0)
(0.0200352 -0.0872144 0)
(0.0200802 -0.0885574 0)
(0.0200815 -0.0902213 0)
(0.0201273 -0.0915159 0)
(0.0201271 -0.0931822 0)
(0.0183319 0.00866228 0)
(0.0201749 -0.0945543 0)
(0.020171 -0.0961496 0)
(0.0202208 -0.0975869 0)
(0.0202117 -0.0990634 0)
(0.020263 -0.100474 0)
(0.0202497 -0.101937 0)
(0.0174101 0.0529656 0)
(0.0182333 0.012379 0)
(0.0167979 0.0781768 0)
(0.0193359 -0.0470639 0)
(0.0189908 -0.0280485 0)
(0.0185974 -0.00690078 0)
(0.0186294 -0.00712272 0)
(0.0178604 0.0312436 0)
(0.0203038 -0.103355 0)
(0.0202853 -0.104809 0)
(0.019701 -0.068045 0)
(0.0203422 -0.106273 0)
(0.020317 -0.107666 0)
(0.0203765 -0.109189 0)
(0.0203436 -0.110518 0)
(0.0199846 -0.0856993 0)
(0.0202601 -0.106159 0)
(0.0188586 -0.0194882 0)
(0.020407 -0.112071 0)
(0.0203643 -0.11336 0)
(0.0171219 0.0655139 0)
(0.0164545 0.0896887 0)
(0.0190877 -0.0319151 0)
(0.0204325 -0.114971 0)
(0.0203776 -0.116206 0)
(0.0204474 -0.117858 0)
(0.0203815 -0.119039 0)
(0.0192588 -0.041196 0)
(0.0204536 -0.120659 0)
(0.0203743 -0.121821 0)
(0.0194266 -0.0503976 0)
(0.0203024 -0.117338 0)
(0.0204551 -0.123477 0)
(0.0203525 -0.124539 0)
(0.0195914 -0.0594136 0)
(0.0204397 -0.126281 0)
(0.0203092 -0.127193 0)
(0.0197588 -0.0688192 0)
(0.0203994 -0.128945 0)
(0.0199724 -0.0810933 0)
(0.0201216 -0.0898693 0)
(0.00466858 -0.0423224 0)
(0.0044992 -0.039787 0)
(0.0114369 -0.0924468 0)
(0.017673 0.0404439 0)
(0.00481096 -0.0447832 0)
(0.00522867 -0.0485094 0)
(0.0180668 0.0209375 0)
(0.020268 -0.0990057 0)
(0.0184171 0.00269053 0)
(0.0188181 -0.018845 0)
(0.0191617 -0.0374101 0)
(0.019483 -0.0553903 0)
(0.0201204 -0.0949075 0)
(0.0198437 -0.0765753 0)
(0.0175568 -0.140185 0)
(0.0169989 -0.140203 0)
(0.0147765 0.0647984 0)
(0.0148276 0.0609485 0)
(0.0149957 0.0609398 0)
(0.0150422 0.0570293 0)
(0.0152064 0.0569434 0)
(0.0152474 0.053079 0)
(0.0154102 0.0528118 0)
(0.0154368 0.0489969 0)
(0.0156089 0.048337 0)
(0.0156195 0.0445029 0)
(0.0157974 0.0436895 0)
(0.0158044 0.0398637 0)
(0.015976 0.0390573 0)
(0.0159839 0.0352796 0)
(0.0161455 0.0343889 0)
(0.0161501 0.030758 0)
(0.0163068 0.0296015 0)
(0.0163006 0.0260891 0)
(0.0164601 0.0246942 0)
(0.0164424 0.021171 0)
(0.0166023 0.0196452 0)
(0.0165814 0.0162078 0)
(0.0167403 0.0144497 0)
(0.0167131 0.0111986 0)
(0.016874 0.009337 0)
(0.0168371 0.00614592 0)
(0.0169961 0.00429946 0)
(0.0169543 0.00103475 0)
(0.016791 0.00295655 0)
(0.0169036 -0.00211847 0)
(0.0170653 -0.00414112 0)
(0.0170113 -0.00723811 0)
(0.0171689 -0.00937362 0)
(0.0171079 -0.0123918 0)
(0.0172627 -0.0146072 0)
(0.0171885 -0.0175424 0)
(0.017347 -0.0198356 0)
(0.0172652 -0.0227385 0)
(0.0174227 -0.0250785 0)
(0.017338 -0.0278731 0)
(0.0174883 -0.0303408 0)
(0.0173901 -0.0329467 0)
(0.0175431 -0.0356206 0)
(0.0174347 -0.0380907 0)
(0.0175873 -0.0408191 0)
(0.0174776 -0.0431376 0)
(0.0176199 -0.0459004 0)
(0.0174961 -0.0480036 0)
(0.0176382 -0.0509173 0)
(0.017497 -0.0529059 0)
(0.0176421 -0.0558432 0)
(0.0174959 -0.05769 0)
(0.017633 -0.0606509 0)
(0.0174786 -0.062309 0)
(0.0176094 -0.0653571 0)
(0.0174476 -0.0668328 0)
(0.0175693 -0.0699297 0)
(0.0173948 -0.0711763 0)
(0.01751 -0.0743288 0)
(0.0173158 -0.0753684 0)
(0.0174317 -0.0785396 0)
(0.0172255 -0.0794494 0)
(0.0171118 -0.0763865 0)
(0.0170123 -0.0802228 0)
(0.0171182 -0.0833552 0)
(0.0168955 -0.0839739 0)
(0.0169905 -0.0871394 0)
(0.0167575 -0.0875344 0)
(0.0168396 -0.0907493 0)
(0.0165996 -0.0908801 0)
(0.016668 -0.0940903 0)
(0.0164224 -0.0939919 0)
(0.0164766 -0.0971431 0)
(0.0162261 -0.0968476 0)
(0.0162646 -0.0999307 0)
(0.0160086 -0.0994699 0)
(0.0173296 -0.0495903 0)
(0.0160291 -0.102521 0)
(0.0157669 -0.101925 0)
(0.017262 -0.0304025 0)
(0.0163647 -0.0908349 0)
(0.0164251 0.0174756 0)
(0.0160109 0.031193 0)
(0.0154242 0.0459521 0)
(0.0157535 -0.0988801 0)
(0.0155097 -0.101179 0)
(0.0155063 -0.10415 0)
(0.015248 -0.103265 0)
(0.0152282 -0.106143 0)
(0.0149679 -0.105114 0)
(0.0149228 -0.107927 0)
(0.0146661 -0.106727 0)
(0.0145885 -0.109318 0)
(0.0143443 -0.108122 0)
(0.014243 -0.110572 0)
(0.0173039 -0.0638076 0)
(0.0170363 -0.0149754 0)
(0.0167349 -0.000137492 0)
(0.0168053 -0.0808771 0)
(0.0202232 -0.1253 0)
(0.0201522 -0.127797 0)
(0.0200676 -0.125891 0)
(0.0199734 -0.128291 0)
(0.0203968 -0.10781 0)
(0.0140038 -0.109357 0)
(0.0138753 -0.111859 0)
(0.0198903 -0.126325 0)
(0.0197753 -0.128637 0)
(0.0136464 -0.11045 0)
(0.0134881 -0.112881 0)
(0.0166738 0.0978251 0)
(0.0166946 0.0961817 0)
(0.0167251 0.0953596 0)
(0.016747 0.0937149 0)
(0.0167756 0.0929001 0)
(0.0167981 0.0912668 0)
(0.0168252 0.0904454 0)