/*--------------------------------*- C++ -*----------------------------------*\
| =========                 |                                                 |
| \\      /  F ield         | OpenFOAM: The Open Source CFD Toolbox           |
|  \\    /   O peration     | Version:  v2012                                 |
|   \\  /    A nd           | Website:  www.openfoam.com                      |
|    \\/     M anipulation  |                                                 |
\*---------------------------------------------------------------------------*/
FoamFile
{
    version     2.0;
    format      ascii;
    class       volScalarField;
    location    "600";
    object      omega;
}
// * * * * * * * * * * * * * * * * * * * * * * * * * * * * * * * * * * * * * //

dimensions      [0 0 -1 0 0 0 0];


internalField   nonuniform List<scalar> 
13851
(
0.256423
0.0271247
0.0269171
3.64564
0.022085
0.0301707
0.028043
0.0219674
2.82155
0.0220706
0.0842391
0.0220926
0.0222178
5.3638
0.0504382
0.394777
6.49414
0.0223878
5.69574
0.255899
0.0566087
0.0286395
21.8142
0.0222638
6.7306
0.101093
4.06312
4.85414
2.75522
0.0218979
3.12142
0.0280273
0.253934
2.85606
0.0552899
2.74832
0.0222741
9.93654
2.87483
0.0223541
2.79819
2.75542
16.1828
0.858934
2.77952
0.0220263
0.0217155
0.205314
0.0249407
0.0222045
6.82051
0.0222583
0.377925
0.0417725
5.74214
0.0223429
0.257957
2.79179
3.89422
5.96711
0.0220991
4.06855
0.0221069
0.0251252
0.269423
0.292914
8.83722
0.0706214
0.0225227
3.35262
3.07404
0.0683199
0.022139
7.22415
0.0444655
0.0250021
5.17951
0.021787
6.86654
0.0220105
0.0225615
1.77931
0.0540349
5.20383
5.62171
3.06809
0.0290536
6.17525
0.022071
3.13472
0.0223003
0.028184
20.6437
3.08942
2.86173
0.491246
0.0220387
0.479256
6.73856
0.260044
0.61207
0.0447794
0.0492567
0.0222062
0.0220412
0.0643658
0.0220378
3.04238
0.0281708
0.022324
0.0341765
0.0220321
0.306649
0.0848416
0.25029
0.0400322
0.0218459
0.0219026
3.82406
3.4147
0.299529
0.0220796
0.0224629
3.16861
4.74087
0.133396
0.0220406
0.0703604
2.78735
0.0647668
0.0285746
0.0383741
10.3899
2.83316
0.0866696
2.85958
0.0678781
3.05558
0.0377633
0.0646381
1.36066
0.022985
0.0220726
0.118208
5.98504
0.0245156
0.0217754
3.08933
3.04675
0.0731787
0.619145
0.282349
0.0905605
3.82962
0.0224216
0.0221025
0.0221107
2.86234
0.0592764
0.0263672
0.022243
2.74874
0.0635076
0.237777
5.45101
2.76727
2.77344
5.54441
0.0337485
3.87561
0.022113
0.0218423
0.0803124
0.0221397
2.83443
4.33995
1.22354
0.0218339
0.0445389
0.926471
4.19135
0.806514
0.03294
0.0643266
17.9079
2.99905
0.251982
0.0303663
0.0223464
0.0219579
6.19045
0.0591774
8.92754
0.0303261
0.0243213
0.4405
0.241506
0.0229836
0.0228781
0.0772734
1.18494
2.82155
2.79113
0.0505866
3.13781
2.87133
0.0239814
0.0645034
2.81467
0.0289043
0.414919
0.0224359
1.60561
0.0222363
0.0566611
0.0261174
0.0221745
4.29598
0.023005
3.71337
0.0218291
0.254303
7.44903
2.84732
0.0300938
0.0655444
0.0222645
0.101209
0.0220431
0.0558329
5.00485
0.0298409
0.0289298
0.0221234
2.79425
0.0218984
20.6915
2.79403
0.225737
0.0222514
3.68611
5.31983
2.8073
0.289172
0.0432393
0.164347
2.65521
0.0448292
0.458506
0.0368139
6.52855
0.249877
0.0219083
0.0306103
0.517318
2.75644
4.46506
0.0219477
0.138383
0.0220684
2.53982
4.32411
0.0314765
0.0643244
0.261572
0.0220835
0.0462447
0.201005
4.80637
0.0220995
0.0221686
0.0301491
2.79521
5.28852
0.0635577
0.0221304
4.51139
4.07793
0.20836
0.0638422
2.78161
7.21727
0.0318596
0.0451594
10.9365
0.0220433
0.0221094
0.217738
0.0726069
0.021912
0.0222335
0.0220375
0.0220088
0.0433243
0.0221036
2.79901
0.0594558
0.0221865
2.75566
3.3188
0.0223069
0.259773
7.16642
0.0231647
0.0223336
0.0618459
6.12501
3.92331
0.0907947
0.0220747
3.96217
0.0221062
0.0980857
5.57115
4.75361
0.0261097
11.3592
9.33315
2.97816
0.270015
0.0472192
2.83712
2.92569
4.93345
0.0230203
4.4081
23.0881
0.92302
0.800184
0.0239942
0.0888854
0.0315529
5.7014
0.0525961
0.0218954
0.0216062
0.0314183
3.00112
3.15137
0.0220354
2.87272
0.0317168
0.038757
0.0266749
7.93063
4.26376
0.444526
0.025721
0.0280595
2.74434
0.0223645
4.41341
0.0317512
0.0618803
0.0322882
0.0220698
0.0221854
0.25176
0.300314
0.254345
10.677
2.75333
0.0246315
2.80105
4.40786
0.0219325
4.68829
0.141382
5.50282
0.0306601
0.108247
3.88285
8.48464
0.228321
5.59236
0.0237142
4.34647
12.9243
0.0380298
4.8262
0.0421726
2.7977
0.0443354
0.0582237
0.24859
0.47441
0.0221029
0.0309623
0.0779101
0.0448173
0.0220518
0.0643925
3.2583
0.0221406
0.0646352
4.48067
0.0264688
9.11537
0.0640152
4.18386
0.0297653
0.0950922
2.54642
4.4912
0.0631627
5.57862
7.13859
2.48088
0.0220844
0.231509
0.0421333
0.107745
0.0220847
17.226
3.24889
7.63924
0.0280152
0.258355
4.15515
5.00843
0.0217464
5.87797
0.645697
20.2165
0.0382568
5.27496
0.0221085
0.0221281
7.25997
4.20103
0.0220713
0.0271596
0.0657263
0.0218712
3.38942
0.0897995
0.137563
0.0306811
0.0237422
0.0222538
8.84948
0.0221723
0.0222321
3.3803
3.3416
0.0278904
3.88829
0.0221124
0.0221017
0.027072
0.261076
0.0636123
0.0220728
0.0243229
0.284837
0.0254844
4.73882
0.0220873
0.0344066
2.79021
0.0381767
0.0216505
0.0221293
0.0304854
0.0233187
2.33441
3.20698
0.0436811
7.00157
0.0271924
0.0220762
2.78854
3.89711
0.0369877
0.0221885
2.98621
0.0360379
13.152
0.022202
0.0389418
0.237815
0.0474365
2.83506
4.13475
7.89036
0.0246401
0.294666
0.0220907
2.7628
0.063732
0.239697
0.0419063
0.0253999
0.0381508
0.0812345
0.0220959
5.42521
2.80327
5.09295
4.82915
3.26261
3.85153
4.49341
0.0291389
0.0222106
15.3077
0.0220714
0.0220456
0.0314292
2.82414
0.0268599
0.0229425
0.109086
0.062099
0.022068
4.87838
0.0220305
2.79185
2.03767
0.0220112
0.0258429
0.786296
4.73461
0.021913
8.41036
17.0978
0.0220297
2.9139
5.56991
0.248203
0.0245922
3.42947
5.76707
0.022071
4.05955
0.0224853
0.0220367
3.50303
2.80202
0.0503937
0.0624699
0.0220709
0.0828552
2.79
2.84781
0.022262
5.0733
0.0220609
0.0225279
0.0639579
0.0346735
0.0217438
0.0250038
2.91587
0.431312
2.90664
0.0261919
0.0220673
2.80545
0.0221846
0.237352
0.0340777
0.0444502
0.0427628
2.91022
5.8018
0.0301398
5.93424
0.0256172
0.088159
2.7638
4.22798
0.0224318
0.0220937
0.0501382
2.90147
3.69585
0.081915
17.4881
0.0349993
0.0428176
6.40328
4.80402
0.203149
2.78766
2.65716
2.76987
0.0233133
3.87752
5.45728
0.0220934
16.3169
3.53898
0.0339062
0.0645301
0.0222812
6.54967
0.0972969
14.1996
0.0221721
0.0221662
0.0271243
0.06079
0.0220954
2.8374
0.0221606
2.28317
0.0246545
0.108947
0.0222027
0.0220688
0.0544263
5.4034
0.0627602
2.88256
0.0389693
0.0218824
0.0220533
0.0808326
0.0242958
0.143152
0.0276423
0.0362176
3.85579
0.022186
5.76153
0.0222545
0.157336
5.04759
2.78783
0.0288642
16.262
0.104726
0.399822
3.43214
0.0223924
4.49409
0.0317712
0.0396095
4.54789
6.56717
0.0219553
0.138477
0.0229527
2.74904
5.96042
0.0227109
0.0780647
3.43998
0.0222641
0.0222534
0.103
7.47886
3.61185
0.0223402
0.246745
0.0250634
0.022072
3.8275
0.255106
0.245808
0.0217015
0.203073
0.0503429
0.0873103
0.0228454
0.0240719
0.090709
0.0269961
0.233588
0.0684762
0.0681012
0.164907
4.22284
5.63982
3.24619
8.69043
0.321876
3.89724
0.0445822
3.44093
0.262003
0.0222616
0.0416356
4.45564
0.0301664
0.0220094
0.0220022
0.158341
6.92715
0.0346525
2.80964
0.0218878
3.54409
0.182526
7.63066
0.13732
0.0300076
0.0269303
6.29543
0.244753
0.0428566
4.17683
0.0234958
11.2625
0.159812
2.27937
0.0406669
2.59472
0.0221089
0.0222464
0.0236635
0.0220731
2.7608
0.0220079
3.80931
2.78444
0.140413
2.84236
5.99577
3.18508
0.473081
0.0290412
0.0221822
0.0221441
0.0217861
0.0220407
0.022142
0.0894137
0.27988
0.0543814
4.90191
0.024104
2.83632
0.0222938
3.53975
0.050141
0.0222837
0.0221381
2.78353
0.0303634
3.74249
3.54498
0.0618057
0.0965104
0.0220064
2.8247
0.0255168
0.0268979
3.84312
0.022186
0.0229918
0.0222811
0.0636729
5.93043
0.0351097
0.041451
0.772198
2.86499
0.0298511
0.0286053
2.77161
0.021777
2.75994
0.0222025
0.0255417
6.73833
0.123012
0.24436
0.123289
0.0632662
0.0222288
0.0222938
0.0943467
0.0234286
0.0222359
0.0358779
0.619389
0.0219964
0.35292
7.68323
3.80965
0.120641
3.49258
0.0382577
0.0221782
0.219684
0.0219006
0.0310575
3.33229
2.75492
4.49654
2.81524
0.0228552
0.0226676
0.0796748
0.0238085
0.0220269
22.2492
3.12679
4.65829
0.160943
0.126411
0.0220832
0.0219044
12.0316
0.138146
0.02615
0.0222535
0.243791
0.346657
2.80068
0.0223972
0.0221543
7.85795
0.0228095
0.0424671
0.0218711
2.8212
0.022016
4.52545
0.0220915
0.19692
0.0526473
0.0795572
0.0412236
0.022132
0.0271298
0.0220298
3.76977
0.0228778
3.71265
0.0236515
4.08519
2.78375
0.0382802
0.0220108
3.91317
3.23512
0.0309888
0.122487
0.0221424
7.07545
0.0223128
3.98468
0.0220835
0.0220269
3.83332
0.0431532
0.0221208
0.0425132
2.79394
5.54328
3.34506
0.0219418
3.58379
0.0220938
0.0220023
0.022426
0.0215521
0.0222356
3.34258
3.31188
0.0230122
0.0221568
0.0509158
0.0220349
3.67314
0.229471
4.65553
2.84122
0.02703
0.230953
0.0220876
0.0564217
0.14345
0.0223714
0.0222109
5.62091
5.92503
0.0940066
14.4508
0.088574
0.0221113
0.0529058
0.125546
6.4381
0.0413195
3.96933
0.141962
0.0222252
10.56
8.88451
4.4722
6.3615
3.50764
0.0246204
0.158883
0.0222285
4.52686
0.0294601
0.0218978
3.28135
0.0239219
0.0220114
0.0224372
0.0236686
2.82808
4.27573
0.0219411
0.0538819
5.97561
0.024366
14.0555
0.0236525
0.115071
2.80244
0.0221069
3.71816
0.0339338
0.0402065
6.03208
0.0239198
1.56968
0.0937869
2.79218
0.0232242
4.37133
0.0373758
3.74255
6.79783
5.84498
0.0620288
0.0221413
0.0228649
0.0222639
0.0551499
0.0221313
2.81163
0.0319072
0.0290935
0.029586
0.0245577
0.0219328
0.0330913
0.0310443
0.0258353
0.030001
3.18969
3.72923
0.0365691
0.060273
3.37212
0.0230127
2.97215
0.0217799
0.0366741
0.0228805
0.0222078
0.0521777
0.0220724
0.021935
0.0468852
0.0221113
0.530867
0.0239817
17.09
5.01448
2.33631
2.01302
0.0227002
2.8514
0.333388
0.0222277
0.0308215
0.0228313
2.96777
0.0235841
0.0465492
4.65135
5.13306
0.104234
0.0227099
2.86768
4.69473
3.45171
0.0337318
0.0218767
0.0222437
0.0910411
0.0221242
7.04223
0.257
0.0222017
4.34455
0.600147
0.0222436
3.28362
5.09751
2.68496
0.0238281
2.88041
0.088693
0.0220364
6.3042
0.0284885
0.022164
0.0220279
0.042203
0.0556185
2.77883
3.27567
0.0572508
2.77251
0.0448681
0.0220803
0.0892464
0.0220045
10.0304
0.0222824
0.0220521
0.0252356
0.0233607
2.78605
5.61889
3.94297
5.94688
3.99236
0.0301272
0.0221596
0.0239816
2.184
0.0222641
0.0221342
0.0529349
6.6338
3.55444
0.0217618
0.045728
0.041701
0.246803
14.0276
0.0220328
0.0217267
0.0259685
8.22286
0.0359279
2.78785
0.0240366
0.022165
0.0221821
0.0220292
0.0260989
2.7468
2.79204
2.77093
0.0295066
0.022077
10.704
0.0233357
5.19564
4.32968
0.0321716
4.35741
2.75547
3.26933
0.0764639
0.0409466
3.22768
0.0380956
0.0364227
0.0816869
0.430318
0.0233065
5.5905
0.0220824
3.3771
7.91085
0.0217836
0.0246903
0.0533058
1.24128
0.043248
0.0221446
0.0343025
0.0234555
0.0302527
1.41985
0.0221686
3.1699
6.03147
0.0220933
0.0392274
0.0552284
0.0220982
2.74283
15.9921
2.8419
3.1614
0.0220616
0.026465
0.0298001
0.0224507
3.88723
0.0439342
0.0222574
0.0886466
0.0264929
3.85324
0.0528732
7.40318
0.0233463
0.0243248
0.0531467
0.136579
0.0982426
0.0220703
16.017
3.48757
25.284
3.48799
3.30434
2.76885
3.99974
0.0220647
0.0220664
0.0225765
3.69855
0.0626711
0.0972286
5.91306
0.0230718
0.021722
0.0220708
3.41565
0.0217683
0.0315794
0.0247955
3.49279
0.0234052
0.0219039
0.0221034
0.0221326
0.0221635
0.0363785
3.88472
0.0365668
3.63549
0.0220665
0.0220367
2.78763
2.8038
7.11898
3.70192
0.0520345
3.55714
0.021869
0.0707991
0.0243205
0.0220961
0.0273964
3.98635
0.0246375
0.139583
12.487
0.02313
0.0221841
0.0270827
2.96812
0.0222723
3.49207
0.0225534
3.65101
0.0221319
0.0229931
0.0311702
0.108507
0.0222334
4.0834
3.05776
3.2851
2.85681
0.0221049
5.30572
4.56725
0.0220752
8.17398
0.0224323
0.0439373
0.0223445
0.0230453
0.0219808
0.022066
0.0230081
0.0280268
0.093446
0.0228284
0.0221057
0.0645177
0.0219471
5.17418
0.0221314
0.0399794
0.0448148
4.73692
5.04821
0.022155
2.99673
0.0218629
0.0396132
0.0846573
3.7415
0.0649894
0.0222727
0.193473
0.0815384
0.124396
5.17417
0.0384737
0.245468
0.0816466
0.0958996
0.0233743
0.0220896
3.84221
4.2629
0.0267171
0.0220337
13.2855
0.0218969
0.055243
0.0220044
0.102491
9.47933
0.021673
5.00302
0.0299944
0.0221725
1.01728
0.0218969
0.0420049
3.02101
0.0512704
3.78492
0.0219767
0.0222654
0.0452094
0.0222283
0.022247
0.0341545
0.036
0.0938736
0.107543
0.0222493
0.0456335
0.0220493
0.0220819
0.0222181
0.0220767
7.25017
0.0223142
0.0236845
3.9053
0.0218902
0.0220228
2.80827
0.0222504
16.1957
0.0249889
2.86357
4.2782
0.0558287
12.237
0.0840241
2.32195
0.0232405
0.41179
0.0304088
0.0220738
0.0220273
0.0236387
0.0386457
0.022114
0.0656288
0.0219425
0.0243509
14.4489
6.75598
5.57142
0.027227
0.0487563
4.45126
4.06112
0.0221787
0.0311131
2.3845
0.0228644
0.0492704
11.3614
2.77147
0.03278
0.0585176
0.0234838
0.675235
0.0222854
0.0389028
5.15917
0.0223672
0.0220042
5.42976
0.0542492
3.9915
2.88152
0.160465
0.0226775
0.021946
0.0230562
3.75177
5.47634
3.93676
0.0710192
0.0220828
3.75195
0.0221187
0.284373
0.027055
0.0255232
0.0563553
0.0220798
3.41087
4.0357
0.0220252
0.0932649
0.0643004
11.3907
0.055928
0.0812317
3.94177
0.0447427
3.68744
0.0848248
0.0221215
0.0472761
0.086847
3.35862
0.0220589
3.97072
0.0593826
0.0867686
0.0222731
3.90447
0.0303697
0.0244404
0.0220304
0.0461692
0.0449847
0.062126
0.022132
0.0233082
0.0695745
21.5125
0.0767177
0.0221635
0.0228409
0.0472794
0.996756
0.0221777
0.112447
11.438
0.0559056
2.83218
0.0549304
7.19889
1.73785
0.0220703
9.31929
0.0222386
0.0268843
0.0422512
0.0440891
0.141871
0.0638128
0.0492808
0.0523831
0.0374692
0.02537
0.0217575
0.0930676
0.0291998
0.0302977
5.00501
0.0287594
0.0330012
0.0220029
4.93036
0.104834
0.0222421
0.0276215
0.0234574
6.16342
0.242981
0.0422427
2.78817
5.023
3.69558
0.134726
3.70968
0.0219542
0.330931
0.022128
0.0273828
10.9134
2.74433
4.51245
6.9234
0.0221292
7.54089
0.0219507
0.1228
0.0267102
3.59112
3.26851
0.0310755
0.0220288
3.8047
0.0446942
0.0220542
3.25042
0.0220815
0.0245399
0.0292046
0.0223254
0.0367714
0.0235904
0.0220863
0.0395973
1.8527
0.0530417
0.0767634
0.0220522
5.86933
2.75969
0.0220134
4.04656
0.0266188
0.0302841
3.70809
0.0220109
0.0231276
0.0292644
3.39717
0.0220592
0.0221842
0.0505785
3.46029
0.0219974
0.0344413
0.0381282
4.94934
0.0576699
0.049916
4.26292
0.0220855
0.130958
0.0217812
6.63152
0.0353984
0.0220717
0.0328247
0.130738
0.0221529
0.0228293
0.261373
2.94025
0.0233122
6.1566
0.0221906
0.0217784
0.087883
0.0220572
0.0223134
3.7998
0.0222743
0.052536
0.814204
2.96574
4.95325
0.0222467
0.0243577
0.0290883
0.0220839
0.0221262
0.0221108
3.67639
0.0221994
3.60857
0.206034
0.0220026
0.0219656
0.0360687
0.206226
3.99898
0.0626634
0.0788552
0.0250178
2.79228
0.0969193
0.0394769
0.0548293
0.0787728
0.13011
13.6853
0.0523292
3.51716
4.12995
3.90501
0.0276067
0.022179
0.0465381
0.0350819
0.0221046
0.0233482
0.16492
0.0222443
0.0228665
0.0220732
0.0217109
0.0257222
0.0225654
5.3812
0.022026
7.7667
0.0220913
0.105468
0.0233953
0.210547
0.095367
0.0221458
3.25146
0.0242331
0.022228
0.0533343
0.0220353
0.0328298
0.0223958
2.84325
0.0257125
0.0537835
0.10961
3.31921
0.0309781
3.60244
5.08719
0.0611264
0.0226875
0.0243084
0.134048
0.0860846
6.17317
0.0219287
3.48891
0.0223774
0.0957926
5.0799
0.0429693
3.60913
0.027236
0.0403719
0.0262535
3.85286
0.0367705
0.0221431
0.0575967
0.239541
0.0247087
0.0220699
0.0221455
2.86158
0.0222539
0.0299971
2.81008
0.0276663
0.0220749
0.0686778
0.0268694
3.66289
0.0217256
0.0220789
0.0219122
0.0264504
0.0231948
0.0227024
0.0887319
2.78431
0.0220602
0.0221108
4.05991
0.0231758
4.63722
0.0264727
3.6761
0.02204
0.0254518
0.0218635
3.74318
2.87252
0.0330589
0.0806215
0.027529
0.0221145
0.0221242
2.8694
0.0221379
0.122066
0.0219625
0.0586162
0.0221944
3.72651
0.021893
0.0611426
0.0219663
0.714601
2.47783
0.0219944
0.0511297
3.76547
0.0949887
3.58772
3.62477
0.357131
0.0236747
0.0424625
0.137227
4.76554
0.0230968
0.0521417
0.0292161
0.0222161
3.95272
4.04637
0.0955001
0.317006
2.48128
0.0383404
2.81328
0.0220983
0.0219754
0.13579
4.47247
0.756148
0.254575
4.65901
0.0218737
3.95534
3.52786
5.81744
0.0222036
4.46893
3.32473
2.44985
4.24139
3.12618
0.12594
0.0360515
0.313205
0.0262529
0.0221466
9.41666
0.138192
0.0217402
4.63191
0.0221927
0.0317581
0.0559087
0.0276606
6.28268
0.0370016
4.75473
0.0606624
0.0264823
4.27048
2.82095
0.248286
0.0224693
0.026291
0.0963196
0.0674651
0.0218766
0.0603233
0.0695397
0.232363
0.0221087
0.473903
0.0256698
0.0584613
3.34344
3.67831
0.0232735
0.173236
3.57373
0.0223613
0.0234987
5.03132
0.910413
0.0263488
0.0272682
0.0221055
0.0915285
0.0293841
2.7572
0.140568
0.0228113
0.0222236
0.0698109
0.0328893
4.65787
5.58321
0.0220078
0.022061
0.0313101
0.0221972
0.0263808
0.0236963
0.0238142
0.0264289
0.0220343
0.0262661
0.0222848
0.0642121
4.84567
0.0222646
3.46293
9.32993
0.0217842
0.296424
0.17572
0.107963
0.02316
0.138352
0.0316869
0.0868742
0.0362614
0.0244775
0.02221
6.03417
0.0346801
3.74142
0.0231094
0.0220737
0.0220492
0.0855081
0.0220501
0.0646979
0.084705
2.09351
0.021975
4.69291
9.49146
3.33003
0.0218653
0.213386
1.13494
9.14029
7.05669
0.0226701
0.0227296
0.229134
4.61433
3.87576
0.0527815
4.0217
0.0222315
0.0221362
0.0456764
0.0221998
0.0221823
0.261323
0.022266
0.0970693
0.0220325
2.81644
3.32069
3.91623
3.38107
3.58122
0.0222148
0.0221539
3.93903
0.0219601
0.0220087
0.0217837
0.157083
2.84822
5.56716
0.0286117
0.0228804
0.0242292
0.0418541
5.86471
0.0220439
3.62463
2.83361
0.0221934
0.022181
3.75426
0.112892
0.0254386
0.0220703
3.40846
3.54
0.0224752
3.14659
0.0222546
3.20145
4.45555
0.0260112
4.86297
5.44988
3.92252
0.022001
0.0230898
0.0222464
0.0222862
2.81943
0.0220411
0.325625
3.75082
7.52771
0.0236819
0.0721987
4.95384
0.0616548
3.97676
2.9264
0.0216932
0.0293807
0.029606
0.264366
2.86529
0.0216845
5.73644
0.0355944
0.0574388
0.0231552
0.0219627
0.962626
0.0487275
3.65611
0.0221994
0.0680868
0.0234913
0.215137
0.0268161
2.78581
4.35741
0.397436
0.146277
0.0220927
0.0250755
0.126328
0.267376
2.79114
3.74914
0.0221517
3.61993
0.100817
2.89603
0.032218
0.0531957
0.0493156
0.0225886
3.71291
0.0220883
0.0410155
3.31855
2.80537
7.8893
2.81122
0.0309291
0.0637427
0.0219581
2.82518
0.0297241
5.68441
0.0219507
3.50778
0.0216804
0.0220354
0.0400963
0.0329097
0.0350465
0.0221626
3.34989
0.0596795
0.0220433
0.0447886
3.83448
0.840291
0.0220947
2.95327
0.0260589
0.0449125
0.0418972
0.0217477
0.0807536
0.0220317
10.4563
0.0969666
0.0324058
0.0220662
1.02022
0.0504562
0.0219539
3.80643
5.56848
4.26505
0.021998
4.89507
0.0221493
0.203062
0.0332737
0.152243
6.07367
3.59243
0.0357641
2.818
0.0592673
0.0306581
0.0219243
3.48257
0.143544
0.145976
0.0639186
0.0222437
3.5437
0.114375
1.51027
3.85504
3.48845
3.30233
10.7956
3.97079
0.0311868
0.033251
0.0221106
0.0225763
0.0217056
0.826626
0.0319549
0.0353044
2.9156
0.0220226
0.0218963
0.0563409
0.243572
0.0331418
0.0219041
2.81318
0.026386
0.0641368
0.0225173
4.59522
0.0302786
3.35929
0.0627786
0.0426514
0.0634592
0.022105
6.28454
4.94327
0.0895235
0.0222574
0.0219267
7.13402
3.05008
2.74982
0.0221922
0.0907276
4.76843
0.0225927
0.0220255
0.0224417
2.82409
0.112724
0.0395307
0.0332643
0.0304348
3.35794
0.113244
4.61218
0.0314402
0.0407284
0.0217104
0.163775
0.0678694
0.0220747
2.89402
2.91795
2.81331
2.9894
3.22235
4.7848
3.80226
0.0233407
0.0222767
3.83703
4.16767
5.84766
0.0222902
0.0519295
0.0220768
0.0220577
3.61052
2.81925
0.0867683
0.0220371
4.29377
0.138027
0.0622616
4.05118
7.72679
4.09782
0.0219311
2.79251
3.68631
0.858864
0.0418046
0.0545151
0.022252
0.0219424
0.0481844
0.0566503
0.0260797
0.0540519
0.0331604
0.0265072
3.5918
3.87277
0.033789
0.0571168
3.39289
3.54662
0.0221184
0.500987
1.17683
4.45345
0.0504985
0.0226896
0.0356859
0.0300075
0.0323837
0.0217492
0.0342063
0.0396168
0.0617852
0.351263
0.0222311
0.0241126
3.41261
2.83997
2.81145
5.01695
0.189126
0.0216439
0.0220694
0.0366179
0.0219308
3.58998
0.0220732
0.0222741
0.0218337
2.86617
20.4078
0.0226694
0.086559
0.0317919
0.0387888
0.0357624
0.0365024
0.0527721
0.0450956
3.60608
0.0303872
3.94728
0.0468924
2.81936
0.0343068
0.0219483
0.0219119
0.141594
0.26155
0.0218689
0.0435279
0.0347492
0.0735129
3.41826
4.73335
3.75912
0.0222739
5.93127
0.0322421
0.042177
0.0220657
0.0879009
0.0248525
3.56917
2.44311
0.046278
0.0220963
2.84881
0.0278553
4.23092
4.34967
3.59539
0.025731
0.210708
3.54993
5.70695
2.95223
0.07574
0.0222639
0.0472031
0.0222187
5.72802
0.0260913
0.0377459
4.26389
2.83591
0.0221957
0.0221109
3.10289
0.0510607
4.66233
0.0337317
0.0220707
0.0531857
3.66503
0.0461391
3.70444
0.0416097
5.51475
0.0276958
0.0222463
0.0221011
0.556084
0.0229207
0.163252
0.0220915
0.0223369
0.426483
0.0305834
0.0225813
0.0220595
0.0412957
5.34397
0.0578333
0.0488132
0.0273559
0.077557
0.0222082
0.213352
0.0369228
0.0553308
0.0740819
0.0344808
0.104401
0.0476808
0.0221756
0.0935361
4.22801
3.05112
0.0227196
8.65213
4.14385
0.022081
0.0228667
1.04881
3.82728
0.0284147
3.99113
3.73644
0.0227473
0.124467
0.0216955
0.0298593
0.0788981
10.4549
0.64885
3.5275
4.81695
2.97068
3.0006
0.0255345
3.15669
0.0220711
3.64618
3.15361
0.0221144
0.022086
3.22454
0.022187
0.0221015
4.52227
2.89644
1.85681
0.030686
3.44833
0.0221057
2.90676
3.55253
0.0221915
4.24724
9.78958
3.56814
3.3486
3.38294
3.46599
0.0219482
0.0234949
0.0801157
0.0886756
0.0220968
3.51722
0.0220712
3.23858
4.35985
0.0528799
4.09785
3.12247
4.30443
3.83042
0.0631134
6.41158
1.55088
0.0288989
0.0217303
3.69033
0.0382616
0.0219423
3.73171
0.0220702
3.71476
0.022219
2.80685
0.0294044
0.0220548
23.3807
0.0281022
0.037779
3.59295
4.30889
5.4713
0.0335851
0.0621694
0.0239161
0.0534669
0.215913
0.0542938
0.0222112
2.0191
0.0813747
0.037061
3.96132
0.0519874
0.0408859
0.28885
0.0976114
0.0605735
0.0220515
0.385023
0.0219179
0.21485
3.79184
3.82934
0.0219173
0.0480022
3.42727
0.0250166
0.0826729
0.0400673
0.0521052
3.61243
0.0814399
0.0237699
16.5251
0.0219214
2.85862
0.022134
0.0243635
0.212612
2.74817
0.0370599
0.421707
0.789453
0.039953
0.0228343
0.186847
0.0557949
2.88341
0.0270441
18.393
0.26041
0.0400193
0.0353144
0.129
0.0448436
0.0790133
0.0814005
0.0420669
0.0263821
0.0228745
8.07264
0.0221106
0.0336848
0.02168
0.176711
0.0345252
0.0812873
3.48003
0.0231742
1.27122
0.0215748
0.0222522
0.0221927
0.0222088
0.0316548
0.0219908
0.127422
7.22488
0.080878
0.0588242
0.0286044
0.0224024
3.64947
0.0221894
3.6929
3.99445
3.72906
0.258876
0.0405808
0.0327108
0.0221835
0.0315323
0.104448
0.0512975
3.29016
0.0804286
3.05708
0.475328
0.0222112
0.0218829
3.10158
0.0220949
0.0364987
0.0690296
3.15361
0.0252914
2.79374
0.0221768
0.0282895
0.0220773
0.0230031
0.187206
0.171953
0.0227369
0.0421931
0.0363748
0.0605104
0.0792297
0.664477
0.45847
0.483542
0.199044
0.0311991
0.0240275
0.078444
2.74891
3.86595
2.81852
0.0406224
5.0562
0.16793
0.0239905
0.0220296
0.0879607
0.0221525
0.0422343
4.40745
0.0220446
0.0220667
3.73563
3.57044
0.0642581
6.45365
0.0222
5.78699
0.0506054
2.81915
0.0307393
0.0222304
2.89407
0.0618685
0.0221088
0.0865085
0.0222542
0.210343
0.0336605
0.057402
3.80619
0.0355715
3.76176
0.0219987
3.19062
0.0222441
0.0295459
0.0231133
0.0567384
0.0221463
0.0616382
2.82376
1.36109
0.0629677
0.0360677
0.0836231
0.0221422
0.0221204
0.0246102
4.17921
0.0290261
2.82928
4.48718
0.189454
0.0222186
0.199693
0.352126
0.255942
0.0307886
4.09721
0.0221005
0.0216357
0.0220711
8.5549
0.0225637
0.0221145
2.83094
0.0220472
0.261632
0.112375
0.0221849
2.78623
0.0347668
2.8005
0.0222224
4.59774
0.0237692
0.0757991
6.67017
0.0890066
0.022028
0.0329391
3.67704
0.0419694
0.209066
0.0383794
0.0293214
0.187004
0.0316062
0.0231833
19.5072
0.0345763
0.034852
0.308357
0.0220658
0.0220055
0.02219
0.0399252
0.0222648
0.0275192
3.65083
11.7606
0.112408
5.76488
0.0872824
0.0462679
2.84548
3.03721
0.022651
7.68934
7.37656
3.59373
9.61785
0.0372552
3.75253
2.82822
13.2522
9.53097
3.65
0.0463296
0.0925267
0.0311844
0.0307031
0.0222451
2.89035
0.0222854
3.64725
0.141913
0.430953
0.0216561
0.103547
0.0498808
0.0237923
0.0222932
0.0221195
0.138793
0.0258355
0.0231626
0.0556321
2.88448
0.0268042
0.213704
0.021877
0.139589
0.0914225
0.0223152
0.0288828
0.0219909
2.8132
2.84127
0.340409
14.1199
0.0368884
0.125766
0.0221392
0.0564119
0.0221213
0.0228934
0.0222355
3.24177
0.0219159
0.0634088
1.2279
0.0305405
0.0386983
0.0220505
2.93576
0.338161
9.61478
4.42012
0.276918
4.883
4.12293
3.85785
3.75541
7.01854
0.142292
0.035173
7.98054
2.84572
0.0220731
3.86788
0.199194
3.26143
0.0216736
0.0861939
2.94541
0.0222737
3.53372
0.0257365
5.75728
0.0220962
0.022144
0.0853732
0.263654
0.032027
0.0820204
0.022059
0.0227255
3.40068
3.61574
4.51769
0.0755933
0.0231627
0.0226101
0.0221433
0.0399345
1.34183
2.85283
4.18889
7.24847
0.0382654
0.0219681
0.021994
5.8351
4.49752
0.88461
0.0270764
0.0264793
0.0903518
3.50034
4.49519
0.0216494
0.0220236
4.02116
0.0242037
0.311678
0.029228
0.0222716
0.0360045
0.0497638
4.24506
3.56418
0.0222028
0.0220737
0.0270226
3.58836
2.92845
0.022266
0.17986
3.43685
0.0216474
3.59793
2.92512
8.32426
0.0221203
3.9942
3.91636
0.0436638
0.385366
0.028235
0.327918
4.75934
0.0293431
0.0220327
4.56692
6.30865
0.0220926
0.260578
0.212258
0.0368247
3.61596
3.56599
3.1933
2.86024
0.0345706
0.023826
0.0249352
2.78744
4.12955
3.89082
4.84783
3.99008
0.0219144
0.0602204
0.022073
0.0221207
0.0261019
0.0220079
0.0220814
0.0226691
2.93551
16.6393
5.7103
0.0634797
0.406837
0.0364741
0.0219879
0.021996
3.99089
0.0221481
5.49743
2.79888
0.0221842
0.022195
2.81534
0.0231206
0.799805
0.0289926
0.0218159
0.0219192
3.72809
0.0217922
2.88367
3.62972
0.0216743
0.059339
0.0221951
0.0245787
0.0223932
0.141541
3.79158
0.0220083
2.84149
0.58168
0.0250959
0.0222025
0.0230844
0.0250644
0.0222289
2.38413
4.55707
4.48112
0.0562709
4.46321
0.0222733
0.0301343
0.0231854
0.226323
0.0239531
3.44783
0.0218972
3.83709
4.67747
4.6052
0.842917
0.021891
0.0524922
0.0221331
3.4717
0.0222796
0.0314119
0.0296505
0.0290812
0.0225148
0.0222517
0.0345958
2.86407
0.0222887
0.0238215
0.026333
0.0365678
1.8313
0.0221926
3.8376
2.83318
0.0258534
2.91574
3.43578
3.59657
3.89833
0.0216147
0.023792
3.59552
2.81949
0.200792
2.92817
2.92271
0.0362716
0.0624706
0.0390241
4.1803
0.0220659
0.0219787
3.61952
0.216556
3.59855
0.0282616
0.0218444
0.0220719
3.82263
0.10172
0.0253054
0.305796
0.022164
0.088628
0.0370279
0.0377028
0.0227771
0.0221928
0.021975
0.027716
1.70601
6.35127
0.021681
0.0222034
2.82071
0.0223396
0.0706804
0.026265
0.025911
0.052904
0.0222859
4.0157
0.0371934
0.0255168
17.3926
0.126674
0.0239661
0.0442642
0.0220948
0.0230329
4.55831
0.307535
3.108
0.0230539
0.0221616
0.0748193
0.0280815
0.0220629
0.0537683
2.91515
0.0279658
0.0485456
0.026733
0.211192
0.0221251
0.0220686
3.46862
3.95344
3.96713
0.0220745
0.318066
0.0219403
0.0220578
0.102447
2.87928
0.0960134
0.0327367
0.320295
0.0242894
0.0374782
0.0534903
0.828516
0.0229797
0.0217296
0.0227824
0.0255836
0.0336148
0.0220202
1.71911
7.33529
0.0227058
0.0341933
0.0225199
0.0219663
3.04407
3.52379
4.00572
0.11371
0.0224776
0.079683
2.82682
0.134189
0.162061
0.0361595
0.03156
4.06857
4.451
1.51384
0.0218206
0.0323929
0.0221745
0.0359084
3.76754
0.021687
0.0456764
0.0258093
0.0326299
0.0237185
0.0221677
0.0219156
2.8079
0.0603134
0.0388562
0.0940674
0.0381656
5.79412
0.0336102
0.542753
0.0220248
2.9971
4.25112
4.2639
0.0222647
0.0399836
0.0220887
0.0221386
3.69087
0.0596987
3.04294
0.0220478
0.0475989
0.236239
2.82817
0.0292239
0.0219264
3.92102
0.0222855
0.0222843
0.023147
0.0220647
4.0933
0.0219961
0.0219914
0.0400127
0.0283398
0.171149
0.161534
0.0346638
2.79769
0.0228621
0.239589
0.0222032
3.03235
0.0382549
0.624002
0.229339
3.65294
0.1805
2.92266
0.0247168
3.49768
0.0347014
3.79796
0.261086
0.0283633
0.319045
0.0223954
4.63151
0.0247652
0.043892
0.0282487
9.8834
0.286858
2.9398
0.0328783
0.022086
3.82123
0.338039
0.0814245
0.22856
5.06284
2.9482
0.0437201
0.446562
0.053705
0.0220084
0.0567312
0.386449
0.0801168
24.7405
0.150212
0.0219189
0.022469
0.174177
0.0220907
4.03632
0.0804712
0.022099
2.85409
6.15399
3.59266
0.133173
0.0225763
0.0301706
0.026294
2.85702
2.78552
0.0264435
4.07886
0.0221531
0.0328851
3.58552
0.0220525
0.0482841
0.0219826
0.0288818
0.0222517
0.186503
4.76972
0.0313922
0.0311951
0.0218954
0.183647
0.0221506
0.0219316
0.0347057
0.0219812
0.303228
2.88796
11.2006
2.78885
0.0219207
3.22044
0.0221932
0.0380522
0.167749
0.0228148
4.79237
0.0812303
0.0222634
0.021942
0.0518192
0.0418178
0.215058
3.6464
0.026208
0.0250387
3.02736
0.0882685
2.92073
2.06175
17.437
3.25347
3.08009
5.29405
0.0222389
0.0221195
0.054527
0.0225157
0.0606293
0.0526412
5.17306
3.11672
6.09799
0.0220132
0.022023
0.147956
4.30786
2.95432
7.43518
2.79995
0.0569526
0.034245
6.01259
4.63477
0.0321796
2.84784
0.0349326
0.0373144
3.33684
0.0581353
0.0227122
3.46312
1.56636
0.0284071
0.180787
0.0246688
5.11514
3.29179
5.46751
0.0220672
0.0217638
0.243194
0.0220629
0.0223881
0.0220617
0.0218429
0.0220629
0.0220649
2.98029
0.0305543
0.0493342
3.04249
0.0219586
0.02207
0.0390575
0.0314313
0.0313124
0.0220743
0.0785953
0.0339274
0.0272253
0.0945785
3.50386
0.0220824
0.0556671
0.0220919
0.0220699
0.0217244
0.0221019
2.82412
0.0221951
0.022095
0.0221128
0.0501822
2.95434
3.16118
3.01971
9.52862
0.0584934
3.30706
3.58882
0.0219999
0.0450406
3.97531
3.6725
0.0221247
0.0357869
0.0611777
0.0380187
0.0220789
0.0590797
0.0601595
0.0465813
0.0217181
0.0641158
5.57024
0.0216718
9.562
2.82659
0.0455799
0.719945
0.0407877
0.022106
0.0295608
0.0220936
0.28483
2.94165
0.0219296
0.0470951
0.0220568
0.0219912
0.0224295
0.0222861
0.041028
0.0221782
0.157058
0.190327
0.0282465
0.0260517
0.0567434
0.0220748
0.0465895
0.0443017
0.0229381
0.0221166
0.0221488
2.85413
0.0221034
1.95914
0.059567
0.0222548
0.0221908
0.0221644
3.82296
0.0273586
0.0445881
0.0624586
2.96824
0.0289669
2.84153
9.19709
0.0451691
0.0220304
0.69115
0.0458808
4.34986
0.0846491
3.07544
0.0220542
0.0588663
0.0571747
2.78793
0.0220941
0.0606368
2.98712
0.0220051
4.71688
7.68621
3.90472
0.0220658
0.0221432
2.83409
0.0220757
3.37353
0.287186
2.97489
3.74556
0.0219162
0.400046
0.929737
3.64879
0.0263039
8.71634
0.0230731
0.0286419
0.0220967
3.51709
4.62759
0.0496509
3.53486
0.0221265
3.27615
3.56225
3.49346
0.0221046
0.0220878
2.89701
0.0897834
0.0219559
0.0220724
0.933824
8.17836
0.0220811
0.0220446