/*--------------------------------*- C++ -*----------------------------------*\
| =========                 |                                                 |
| \\      /  F ield         | OpenFOAM: The Open Source CFD Toolbox           |
|  \\    /   O peration     | Version:  v2012                                 |
|   \\  /    A nd           | Website:  www.openfoam.com                      |
|    \\/     M anipulation  |                                                 |
\*---------------------------------------------------------------------------*/
FoamFile
{
    version     2.0;
    format      ascii;
    class       pointVectorField;
    location    "50";
    object      pointDisplacement;
}
// * * * * * * * * * * * * * * * * * * * * * * * * * * * * * * * * * * * * * //

dimensions      [0 1 0 0 0 0 0];


internalField   nonuniform List<vector> 
14246
(
(0 0 0)
(0.0251389 -0.171177 0)
(0 0 0)
(0.0251389 -0.171177 0)
(0 0 0)
(0 0 0)
(0 0 0)
(0 0 0)
(0 0 0)
(0 0 0)
(0 0 0)
(0 0 0)
(0 0 0)
(0 0 0)
(0 0 0)
(0 0 0)
(0 0 0)
(0 0 0)
(0 0 0)
(0 0 0)
(0 0 0)
(0 0 0)
(0 0 0)
(0 0 0)
(0 0 0)
(0 0 0)
(0 0 0)
(0 0 0)
(0 0 0)
(0 0 0)
(0 0 0)
(0 0 0)
(0 0 0)
(0 0 0)
(0 0 0)
(0 0 0)
(0 0 0)
(0 0 0)
(0 0 0)
(0 0 0)
(0 0 0)
(0 0 0)
(0 0 0)
(0 0 0)
(0 0 0)
(0 0 0)
(0 0 0)
(0 0 0)
(0 0 0)
(0 0 0)
(0 0 0)
(0 0 0)
(0 0 0)
(0 0 0)
(0 0 0)
(0 0 0)
(0 0 0)
(0 0 0)
(0 0 0)
(0 0 0)
(0 0 0)
(0 0 0)
(0 0 0)
(0 0 0)
(0 0 0)
(0 0 0)
(0 0 0)
(0 0 0)
(0 0 0)
(0 0 0)
(0 0 0)
(0 0 0)
(0 0 0)
(0 0 0)
(0 0 0)
(0.0250928 -0.169032 0)
(0.0250468 -0.166886 0)
(0.0250007 -0.164741 0)
(0.0249547 -0.162595 0)
(0.0249086 -0.16045 0)
(0.0248626 -0.158305 0)
(0.0248165 -0.156159 0)
(0.0247705 -0.154014 0)
(0.0247244 -0.151868 0)
(0.0246784 -0.149723 0)
(0.0246323 -0.147577 0)
(0.0245863 -0.145432 0)
(0.0245402 -0.143286 0)
(0.0244941 -0.141141 0)
(0.0244481 -0.138995 0)
(0.024402 -0.13685 0)
(0.024356 -0.134704 0)
(0.0243099 -0.132559 0)
(0.0242639 -0.130413 0)
(0.0242178 -0.128268 0)
(0.0241718 -0.126122 0)
(0.0241257 -0.123977 0)
(0.0240797 -0.121831 0)
(0.0240336 -0.119686 0)
(0.0239876 -0.117541 0)
(0.0239415 -0.115395 0)
(0.0238955 -0.11325 0)
(0.0238494 -0.111104 0)
(0.0238034 -0.108959 0)
(0.0237573 -0.106813 0)
(0.0237113 -0.104668 0)
(0.0236652 -0.102522 0)
(0.0236192 -0.100377 0)
(0.0235731 -0.0982313 0)
(0.0235271 -0.0960858 0)
(0.023481 -0.0939403 0)
(0.023435 -0.0917948 0)
(0.0233889 -0.0896494 0)
(0.0233429 -0.0875039 0)
(0.0232968 -0.0853584 0)
(0.0232508 -0.0832129 0)
(0.0232047 -0.0810675 0)
(0.0231586 -0.078922 0)
(0.0231126 -0.0767765 0)
(0.0230665 -0.074631 0)
(0.0230205 -0.0724856 0)
(0.0229744 -0.0703401 0)
(0.0229284 -0.0681946 0)
(0.0228823 -0.0660492 0)
(0.0228363 -0.0639037 0)
(0.0227902 -0.0617582 0)
(0.0227442 -0.0596127 0)
(0.0226981 -0.0574673 0)
(0.0226521 -0.0553218 0)
(0.022606 -0.0531763 0)
(0.02256 -0.0510308 0)
(0.0225139 -0.0488854 0)
(0.0224679 -0.0467399 0)
(0.0224218 -0.0445944 0)
(0.0223758 -0.0424489 0)
(0.0223297 -0.0403035 0)
(0.0222837 -0.038158 0)
(0.0222376 -0.0360125 0)
(0.0221916 -0.0338671 0)
(0.0221455 -0.0317216 0)
(0.0220995 -0.0295761 0)
(0.0220534 -0.0274306 0)
(0.0220074 -0.0252852 0)
(0.0219613 -0.0231397 0)
(0.0219153 -0.0209942 0)
(0.0218692 -0.0188487 0)
(0.0218231 -0.0167033 0)
(0.0217771 -0.0145578 0)
(0.021731 -0.0124123 0)
(0.021685 -0.0102668 0)
(0.0216389 -0.00812138 0)
(0.0215929 -0.0059759 0)
(0.0215468 -0.00383043 0)
(0.0215008 -0.00168496 0)
(0.0214547 0.000460518 0)
(0.0214087 0.00260599 0)
(0.0213626 0.00475146 0)
(0.0213166 0.00689694 0)
(0.0212705 0.00904241 0)
(0.0212245 0.0111879 0)
(0.0211784 0.0133334 0)
(0.0211324 0.0154788 0)
(0.0210863 0.0176243 0)
(0.0210403 0.0197698 0)
(0.0209942 0.0219153 0)
(0.0209482 0.0240607 0)
(0.0209021 0.0262062 0)
(0.0208561 0.0283517 0)
(0.02081 0.0304971 0)
(0.020764 0.0326426 0)
(0.0207179 0.0347881 0)
(0.0206719 0.0369336 0)
(0.0206258 0.039079 0)
(0.0205797 0.0412245 0)
(0.0205337 0.04337 0)
(0.0204876 0.0455155 0)
(0.0204416 0.0476609 0)
(0.0203955 0.0498064 0)
(0.0203495 0.0519519 0)
(0.0203034 0.0540974 0)
(0.0202574 0.0562428 0)
(0.0202113 0.0583883 0)
(0.0201653 0.0605338 0)
(0.0201192 0.0626792 0)
(0.0200732 0.0648247 0)
(0.0200271 0.0669702 0)
(0.0199811 0.0691157 0)
(0.019935 0.0712611 0)
(0.019889 0.0734066 0)
(0.0198429 0.0755521 0)
(0.0197969 0.0776976 0)
(0.0197508 0.079843 0)
(0.0197048 0.0819885 0)
(0.0196587 0.084134 0)
(0.0196127 0.0862794 0)
(0.0195666 0.0884249 0)
(0.0195206 0.0905704 0)
(0.0194745 0.0927159 0)
(0.0194285 0.0948613 0)
(0.0193824 0.0970068 0)
(0.0193364 0.0991523 0)
(0.0192903 0.101298 0)
(0.0192442 0.103443 0)
(0.0191982 0.105589 0)
(0.0191521 0.107734 0)
(0.0191061 0.10988 0)
(0.01906 0.112025 0)
(0.019014 0.114171 0)
(0.0208479 -0.171269 0)
(0.0229934 -0.171223 0)
(0 0 0)
(0 0 0)
(0 0 0)
(0 0 0)
(0 0 0)
(0 0 0)
(0 0 0)
(0 0 0)
(0 0 0)
(0 0 0)
(0 0 0)
(0 0 0)
(0 0 0)
(0 0 0)
(0 0 0)
(0 0 0)
(0 0 0)
(0 0 0)
(0 0 0)
(0 0 0)
(0 0 0)
(0 0 0)
(0 0 0)
(0 0 0)
(0 0 0)
(0 0 0)
(0 0 0)
(0 0 0)
(0 0 0)
(0 0 0)
(0 0 0)
(0 0 0)
(0 0 0)
(0 0 0)
(0 0 0)
(0 0 0)
(0 0 0)
(0 0 0)
(0 0 0)
(0 0 0)
(0 0 0)
(0 0 0)
(0 0 0)
(0 0 0)
(0 0 0)
(0 0 0)
(0 0 0)
(0 0 0)
(0 0 0)
(0 0 0)
(0 0 0)
(0 0 0)
(0 0 0)
(0 0 0)
(0 0 0)
(0 0 0)
(0 0 0)
(0 0 0)
(0 0 0)
(0 0 0)
(0 0 0)
(0 0 0)
(0 0 0)
(0 0 0)
(0 0 0)
(0 0 0)
(0 0 0)
(0 0 0)
(0 0 0)
(0 0 0)
(0 0 0)
(0.0250928 -0.169032 0)
(0.0250468 -0.166886 0)
(0.0250007 -0.164741 0)
(0.0249547 -0.162595 0)
(0.0249086 -0.16045 0)
(0.0248626 -0.158305 0)
(0.0248165 -0.156159 0)
(0.0247705 -0.154014 0)
(0.0247244 -0.151868 0)
(0.0246784 -0.149723 0)
(0.0246323 -0.147577 0)
(0.0245863 -0.145432 0)
(0.0245402 -0.143286 0)
(0.0244941 -0.141141 0)
(0.0244481 -0.138995 0)
(0.024402 -0.13685 0)
(0.024356 -0.134704 0)
(0.0243099 -0.132559 0)
(0.0242639 -0.130413 0)
(0.0242178 -0.128268 0)
(0.0241718 -0.126122 0)
(0.0241257 -0.123977 0)
(0.0240797 -0.121831 0)
(0.0240336 -0.119686 0)
(0.0239876 -0.117541 0)
(0.0239415 -0.115395 0)
(0.0238955 -0.11325 0)
(0.0238494 -0.111104 0)
(0.0238034 -0.108959 0)
(0.0237573 -0.106813 0)
(0.0237113 -0.104668 0)
(0.0236652 -0.102522 0)
(0.0236192 -0.100377 0)
(0.0235731 -0.0982313 0)
(0.0235271 -0.0960858 0)
(0.023481 -0.0939403 0)
(0.023435 -0.0917948 0)
(0.0233889 -0.0896494 0)
(0.0233429 -0.0875039 0)
(0.0232968 -0.0853584 0)
(0.0232508 -0.0832129 0)
(0.0232047 -0.0810675 0)
(0.0231586 -0.078922 0)
(0.0231126 -0.0767765 0)
(0.0230665 -0.074631 0)
(0.0230205 -0.0724856 0)
(0.0229744 -0.0703401 0)
(0.0229284 -0.0681946 0)
(0.0228823 -0.0660492 0)
(0.0228363 -0.0639037 0)
(0.0227902 -0.0617582 0)
(0.0227442 -0.0596127 0)
(0.0226981 -0.0574673 0)
(0.0226521 -0.0553218 0)
(0.022606 -0.0531763 0)
(0.02256 -0.0510308 0)
(0.0225139 -0.0488854 0)
(0.0224679 -0.0467399 0)
(0.0224218 -0.0445944 0)
(0.0223758 -0.0424489 0)
(0.0223297 -0.0403035 0)
(0.0222837 -0.038158 0)
(0.0222376 -0.0360125 0)
(0.0221916 -0.0338671 0)
(0.0221455 -0.0317216 0)
(0.0220995 -0.0295761 0)
(0.0220534 -0.0274306 0)
(0.0220074 -0.0252852 0)
(0.0219613 -0.0231397 0)
(0.0219153 -0.0209942 0)
(0.0218692 -0.0188487 0)
(0.0218231 -0.0167033 0)
(0.0217771 -0.0145578 0)
(0.021731 -0.0124123 0)
(0.021685 -0.0102668 0)
(0.0216389 -0.00812138 0)
(0.0215929 -0.0059759 0)
(0.0215468 -0.00383043 0)
(0.0215008 -0.00168496 0)
(0.0214547 0.000460518 0)
(0.0214087 0.00260599 0)
(0.0213626 0.00475146 0)
(0.0213166 0.00689694 0)
(0.0212705 0.00904241 0)
(0.0212245 0.0111879 0)
(0.0211784 0.0133334 0)
(0.0211324 0.0154788 0)
(0.0210863 0.0176243 0)
(0.0210403 0.0197698 0)
(0.0209942 0.0219153 0)
(0.0209482 0.0240607 0)
(0.0209021 0.0262062 0)
(0.0208561 0.0283517 0)
(0.02081 0.0304971 0)
(0.020764 0.0326426 0)
(0.0207179 0.0347881 0)
(0.0206719 0.0369336 0)
(0.0206258 0.039079 0)
(0.0205797 0.0412245 0)
(0.0205337 0.04337 0)
(0.0204876 0.0455155 0)
(0.0204416 0.0476609 0)
(0.0203955 0.0498064 0)
(0.0203495 0.0519519 0)
(0.0203034 0.0540974 0)
(0.0202574 0.0562428 0)
(0.0202113 0.0583883 0)
(0.0201653 0.0605338 0)
(0.0201192 0.0626792 0)
(0.0200732 0.0648247 0)
(0.0200271 0.0669702 0)
(0.0199811 0.0691157 0)
(0.019935 0.0712611 0)
(0.019889 0.0734066 0)
(0.0198429 0.0755521 0)
(0.0197969 0.0776976 0)
(0.0197508 0.079843 0)
(0.0197048 0.0819885 0)
(0.0196587 0.084134 0)
(0.0196127 0.0862794 0)
(0.0195666 0.0884249 0)
(0.0195206 0.0905704 0)
(0.0194745 0.0927159 0)
(0.0194285 0.0948613 0)
(0.0193824 0.0970068 0)
(0.0193364 0.0991523 0)
(0.0192903 0.101298 0)
(0.0192442 0.103443 0)
(0.0191982 0.105589 0)
(0.0191521 0.107734 0)
(0.0191061 0.10988 0)
(0.01906 0.112025 0)
(0.019014 0.114171 0)
(0.0208479 -0.171269 0)
(0.0229934 -0.171223 0)
(0.0189914 0.115213 0)
(0.019827 0.0762711 0)
(0.0206491 0.0380092 0)
(0.0214772 -0.000584016 0)
(0.0223071 -0.0392617 0)
(0.0231355 -0.0778551 0)
(0.023968 -0.116618 0)
(0.0247936 -0.155136 0)
(0.0227231 -0.0586273 0)
(0.0218922 -0.019923 0)
(0.0194061 0.0958945 0)
(0.0243782 -0.135749 0)
(0.0202337 0.0573476 0)
(0.0210628 0.0187036 0)
(0.0235477 -0.0970455 0)
(0.0199907 -0.171274 0)
(0.000832426 -0.00457461 0)
(0.00064921 -0.00783903 0)
(0.00105026 -0.00391437 0)
(0.0013023 -0.00147586 0)
(0.000585797 -0.0100183 0)
(0.000429689 -0.0122706 0)
(0.0010546 0.00124548 0)
(0.0250135 -0.165792 0)
(0.000695295 -0.00463292 0)
(0.000587062 -0.00588082 0)
(0.000460396 -0.00416493 0)
(0.0241961 -0.127259 0)
(0.020877 0.0273683 0)
(0.0237351 -0.105762 0)
(0.0200514 0.0658314 0)
(0.0224922 -0.0478777 0)
(0.0229548 -0.069433 0)
(0.022078 -0.0285782 0)
(0.0216616 -0.00918026 0)
(0.0196377 0.0851269 0)
(0.0246112 -0.146641 0)
(0.0204649 0.0465662 0)
(0.0212938 0.00794786 0)
(0.0192179 0.104642 0)
(0.0233208 -0.0864821 0)
(0.0005106 -0.00378448 0)
(0.000651317 -0.00913837 0)
(0.00104286 -0.00486016 0)
(0.00101047 -0.00232338 0)
(0.000292383 -0.00247528 0)
(0.000347533 -0.00271612 0)
(0.00019083 -0.00154142 0)
(0.000545221 -0.0109252 0)
(0.000289648 -0.0111546 0)
(0.000634291 -0.0070356 0)
(0.00105317 -0.00324041 0)
(0.00105666 0.00023144 0)
(0.000801618 -0.00480106 0)
(0.000527119 -0.00499677 0)
(0.000657759 -0.00464716 0)
(0.000381976 -0.00332693 0)
(0.000199492 -0.00165614 0)
(9.16663e-05 -0.00075177 0)
(0.000563633 -0.0104028 0)
(0.00111155 -0.0196538 0)
(0.00115809 -0.0190603 0)
(0.00164636 -0.0279265 0)
(0.0017128 -0.0271488 0)
(0.00216768 -0.0353064 0)
(0.00224712 -0.0343641 0)
(0.0026848 -0.0420433 0)
(0.00276622 -0.0408961 0)
(0.00318966 -0.0480176 0)
(0.00326698 -0.0466513 0)
(0.00367226 -0.0531562 0)
(0.00374671 -0.0516006 0)
(0.00413888 -0.0577094 0)
(0.00421115 -0.0559663 0)
(0.00459361 -0.0617443 0)
(0.00451008 -0.0635949 0)
(0.00495383 -0.0672793 0)
(0.00485373 -0.0691553 0)
(0.00529018 -0.0725317 0)
(0.00517074 -0.074388 0)
(0.00560424 -0.0775052 0)
(0.00546615 -0.0793499 0)
(0.00589562 -0.0822124 0)
(0.00574579 -0.0841246 0)
(0.00616942 -0.0866618 0)
(0.00602404 -0.0886183 0)
(0.0064304 -0.0908732 0)
(0.00626877 -0.0927451 0)
(0.00667037 -0.0948306 0)
(0.00648879 -0.0966684 0)
(0.00689619 -0.0985877 0)
(0.0066981 -0.100346 0)
(0.00710676 -0.102201 0)
(0.00688496 -0.103848 0)
(0.00729917 -0.10559 0)
(0.00706457 -0.107228 0)
(0.00748463 -0.108785 0)
(0.00723601 -0.110412 0)
(0.00766342 -0.111811 0)
(0.00740413 -0.113432 0)
(0.00784158 -0.114705 0)
(0.00757047 -0.116335 0)
(0.0080875 -0.113004 0)
(0.00827867 -0.115765 0)
(0.00851181 -0.113988 0)
(0.00871396 -0.116631 0)
(0.00893594 -0.114778 0)
(0.00915011 -0.117322 0)
(0.00936233 -0.115379 0)
(0.00959622 -0.117836 0)
(0.00978623 -0.115784 0)
(0.0100333 -0.118034 0)
(0.0102033 -0.116046 0)
(0.0104525 -0.118098 0)
(0.0106155 -0.116093 0)
(0.0108842 -0.118194 0)
(0.0110232 -0.115926 0)
(0.0113189 -0.118028 0)
(0.0114305 -0.115617 0)
(0.011739 -0.117575 0)
(0.00989952 -0.120361 0)
(0.0118295 -0.115095 0)
(0.0121469 -0.116943 0)
(0.0122156 -0.114361 0)
(0.0125427 -0.116109 0)
(0.0125918 -0.113433 0)
(0.0129305 -0.11508 0)
(0.0129553 -0.112309 0)
(0.0133017 -0.113806 0)
(0.0126287 -0.110665 0)
(0.013299 -0.111026 0)
(0.0136459 -0.112295 0)
(0.0136157 -0.109494 0)
(0.0139736 -0.110581 0)
(0.0139117 -0.107679 0)
(0.0142737 -0.10855 0)
(0.0141941 -0.105664 0)
(0.0145508 -0.106431 0)
(0.0144587 -0.103429 0)
(0.0148209 -0.104095 0)
(0.0146982 -0.100952 0)
(0.015067 -0.101404 0)
(0.0143365 -0.1005 0)
(0.0120512 -0.119413 0)
(0.0149121 -0.0982396 0)
(0.0152802 -0.0984726 0)
(0.0151039 -0.0953151 0)
(0.0154623 -0.0953262 0)
(0.0156454 -0.0983441 0)
(0.0158171 -0.0951556 0)
(0.0156274 -0.0920191 0)
(0.0159718 -0.0917184 0)
(0.0161702 -0.0948196 0)
(0.0163118 -0.0911794 0)
(0.0161015 -0.0880633 0)
(0.0164293 -0.0873284 0)
(0.0166465 -0.0904204 0)
(0.0167521 -0.0863647 0)
(0.0165233 -0.0832852 0)
(0.0168358 -0.0820816 0)
(0.0165968 -0.0790293 0)
(0.0168995 -0.0775687 0)
(0.0171362 -0.0806672 0)
(0.0171939 -0.0759705 0)
(0.0169459 -0.0727899 0)
(0.0172289 -0.0709592 0)
(0.0175282 -0.0744218 0)
(0.0174997 -0.0687986 0)
(0.0172425 -0.0657072 0)
(0.0174872 -0.0634476 0)
(0.0177663 -0.0661012 0)
(0.0177149 -0.0604714 0)
(0.0174171 -0.0577444 0)
(0.0176742 -0.0551431 0)
(0.0179377 -0.0574023 0)
(0.0178886 -0.052094 0)
(0.0176184 -0.0497716 0)
(0.0178135 -0.0465283 0)
(0.0175366 -0.0443776 0)
(0.0177186 -0.0408849 0)
(0.0179944 -0.0428891 0)
(0.0178852 -0.0371084 0)
(0.0176064 -0.0352269 0)
(0.0177588 -0.031303 0)
(0.017478 -0.0295777 0)
(0.0176162 -0.0255152 0)
(0.0178942 -0.0271439 0)
(0.017736 -0.0212032 0)
(0.0174595 -0.0198299 0)
(0.0175658 -0.0154616 0)
(0.0178376 -0.0166683 0)
(0.0176536 -0.010869 0)
(0.0173832 -0.00984618 0)
(0.017458 -0.00517976 0)
(0.0171885 -0.00431022 0)
(0.0172528 0.000379972 0)
(0.017513 -0.000283084 0)
(0.0172971 0.00525948 0)
(0.0170396 0.00576865 0)
(0.0170703 0.0106919 0)
(0.0173232 0.0103105 0)
(0.0170829 0.0158345 0)
(0.0168315 0.0159876 0)
(0.016832 0.0211542 0)
(0.0165835 0.0210423 0)
(0.0165745 0.0261179 0)
(0.0163279 0.0258662 0)
(0.0163094 0.0308589 0)
(0.0165475 0.031284 0)
(0.0162737 0.0359288 0)
(0.0160371 0.0354512 0)
(0.0159952 0.040402 0)
(0.0162247 0.0409875 0)
(0.0159391 0.0453587 0)
(0.0157107 0.0446847 0)
(0.0156448 0.0495577 0)
(0.0154209 0.0487484 0)
(0.0153441 0.0535715 0)
(0.00539096 -0.0705719 0)
(0.0139925 -0.113492 0)
(0.00711881 -0.114956 0)
(0.00726188 -0.117845 0)
(0.00680647 -0.116381 0)
(0.00693377 -0.119301 0)
(0.00647539 -0.117724 0)
(0.0106943 -0.113803 0)
(0.00408968 -0.155561 0)
(0.00442981 -0.156685 0)
(0.00505751 -0.155759 0)
(0.00549044 -0.156825 0)
(0.00604785 -0.155794 0)
(0.00654459 -0.156831 0)
(0.00704259 -0.155698 0)
(0.00758975 -0.156709 0)
(0.00606572 -0.0945733 0)
(0.00800035 -0.155494 0)
(0.00860018 -0.156423 0)
(0.00392943 -0.154474 0)
(0.00891536 -0.155153 0)
(0.00954472 -0.155977 0)
(0.0070688 -0.157855 0)
(0.00978269 -0.154671 0)
(0.0104269 -0.155419 0)
(0.00835711 -0.154255 0)
(0.0105943 -0.154061 0)
(0.0112415 -0.154734 0)
(0.0111148 -0.156088 0)
(0.0119265 -0.155322 0)
(0.0119913 -0.15392 0)
(0.0126727 -0.154413 0)
(0.0126772 -0.152963 0)
(0.0133458 -0.153359 0)
(0.0133788 -0.154817 0)
(0.0140278 -0.153669 0)
(0.00658439 -0.0889371 0)
(0.0140976 -0.155133 0)
(0.0147188 -0.153882 0)
(0.0146038 -0.152388 0)
(0.0152696 -0.152472 0)
(0.0154231 -0.15396 0)
(0.0159427 -0.152416 0)
(0.0157486 -0.150921 0)
(0.0163819 -0.150749 0)
(0.0166143 -0.152218 0)
(0.0170031 -0.150434 0)
(0.0172673 -0.151867 0)
(0.0176067 -0.149946 0)
(0.0173373 -0.14852 0)
(0.0178999 -0.147893 0)
(0.0181824 -0.149264 0)
(0.0184316 -0.14709 0)
(0.0187278 -0.148395 0)
(0.0189214 -0.146164 0)
(0.0192377 -0.147301 0)
(0.0193693 -0.144994 0)
(0.0197006 -0.145984 0)
(0.0197872 -0.143491 0)
(0.0201221 -0.144413 0)
(0.0201769 -0.141699 0)
(0.0205018 -0.14254 0)
(0.0205239 -0.139691 0)
(0.0208358 -0.140426 0)
(0.020826 -0.137524 0)
(0.0211274 -0.138048 0)
(0.0210941 -0.135075 0)
(0.021383 -0.135318 0)
(0.0213324 -0.132301 0)
(0.0216095 -0.132314 0)
(0.0215448 -0.129244 0)
(0.0218076 -0.12902 0)
(0.0217281 -0.126013 0)
(0.021969 -0.125477 0)
(0.0218722 -0.122506 0)
(0.0220962 -0.121756 0)
(0.0219907 -0.118697 0)
(0.0221948 -0.117769 0)
(0.0220833 -0.114694 0)
(0.0222688 -0.113555 0)
(0.0221486 -0.110467 0)
(0.0223202 -0.109206 0)
(0.0221985 -0.106086 0)
(0.0223528 -0.104711 0)
(0.0222282 -0.101591 0)
(0.0223676 -0.100075 0)
(0.0222399 -0.0969559 0)
(0.0223666 -0.0953542 0)
(0.0222367 -0.0922556 0)
(0.0223502 -0.0905425 0)
(0.0222237 -0.0875452 0)
(0.0223201 -0.08566 0)
(0.0221965 -0.0827887 0)
(0.0222793 -0.0806784 0)
(0.022155 -0.0778989 0)
(0.022229 -0.0755939 0)
(0.022105 -0.0728439 0)
(0.0221705 -0.0704558 0)
(0.0220471 -0.0677223 0)
(0.0221044 -0.0652714 0)
(0.0219835 -0.0626133 0)
(0.0220314 -0.0601026 0)
(0.0219116 -0.0574684 0)
(0.0219532 -0.0549667 0)
(0.0218336 -0.0523154 0)
(0.02187 -0.0498028 0)
(0.0217512 -0.0472088 0)
(0.0217819 -0.0445962 0)
(0.0216641 -0.0420996 0)
(0.0216889 -0.0392913 0)
(0.0215727 -0.0369162 0)
(0.0215942 -0.034041 0)
(0.0214772 -0.0317306 0)
(0.0214948 -0.0288759 0)
(0.0213791 -0.0266068 0)
(0.0213891 -0.0236399 0)
(0.0212751 -0.0214506 0)
(0.0212786 -0.0183633 0)
(0.0211661 -0.0162651 0)
(0.021166 -0.0131527 0)
(0.0210549 -0.0111302 0)
(0.0210518 -0.00794603 0)
(0.0209362 -0.00598473 0)
(0.0209331 -0.00269429 0)
(0.0208148 -0.000703321 0)
(0.0208126 0.00255275 0)
(0.0206975 0.00450152 0)
(0.0206892 0.00779049 0)
(0.0205759 0.00961729 0)
(0.0205609 0.0130262 0)
(0.0204468 0.0147716 0)
(0.0204302 0.0182174 0)
(0.0203151 0.0198852 0)
(0.0202962 0.0233779 0)
(0.020179 0.0250313 0)
(0.0201584 0.0285712 0)
(0.0200415 0.0301334 0)
(0.0200159 0.0336944 0)
(0.0198985 0.035109 0)
(0.01987 0.0386931 0)
(0.0197508 0.040089 0)
(0.019721 0.0436711 0)
(0.0196007 0.0449972 0)
(0.0195672 0.0486113 0)
(0.019443 0.0497921 0)
(0.0194077 0.0535066 0)
(0.0192778 0.0546164 0)
(0.0192419 0.0583904 0)
(0.0191071 0.0593959 0)
(0.0190684 0.0631896 0)
(0.0189327 0.0640973 0)
(0.0188903 0.0678607 0)
(0.0187551 0.0686769 0)
(0.0187074 0.0724691 0)
(0.0185713 0.0730598 0)
(0.018518 0.0769358 0)
(0.0183785 0.0773479 0)
(0.0183233 0.0812353 0)
(0.018178 0.0815926 0)
(0.0181213 0.0854149 0)
(0.0182712 0.0850186 0)
(0.0180659 0.089157 0)
(0.0179111 0.0894779 0)
(0.0178505 0.0932326 0)
(0.0191959 0.0626374 0)
(0.0199784 0.037416 0)
(0.0205388 0.0165022 0)
(0.021041 -0.00480479 0)
(0.0215072 -0.0260675 0)
(0.021895 -0.0471655 0)
(0.0215417 -0.0396679 0)
(0.0219207 -0.0648855 0)
(0.0221073 -0.0886468 0)
(0.021952 -0.111812 0)
(0.021288 -0.129301 0)
(0.0222218 -0.067887 0)
(0.0206816 0.00174008 0)
(0.0193143 0.0508104 0)
(0.0200531 0.0269661 0)
(0.0198423 -0.140861 0)
(0.022448 -0.0886895 0)
(0.0184487 0.0731004 0)
(0.0176591 -0.146479 0)
(0.0224725 -0.107923 0)
(0.0222139 -0.124736 0)
(0.00656909 -0.12064 0)
(0.00613055 -0.118938 0)
(0.0211679 -0.0198622 0)
(0.0214139 -0.138366 0)
(0.0195884 -0.148296 0)
(0.00616294 -0.121781 0)
(0.00568731 -0.119663 0)
(0.00573575 -0.12283 0)
(0.00528196 -0.121004 0)
(0.00530947 -0.123848 0)
(0.00485058 -0.121881 0)
(0.00484411 -0.118994 0)
(0.00441194 -0.119562 0)
(0.00443908 -0.116615 0)
(0.00399634 -0.117127 0)
(0.00405457 -0.113835 0)
(0.00358616 -0.114455 0)
(0.00431339 -0.122592 0)
(0.00618118 -0.124443 0)
(0.00366431 -0.110955 0)
(0.00320222 -0.111527 0)
(0.00327896 -0.107958 0)
(0.00283436 -0.108419 0)
(0.00271963 -0.111934 0)
(0.00237281 -0.108711 0)
(0.00222621 -0.112161 0)
(0.00246661 -0.105022 0)
(0.00257681 -0.0431518 0)
(0.00788045 -0.167564 0)
(0.00767094 -0.166898 0)
(0.00936978 -0.167014 0)
(0.00969464 -0.167682 0)
(0.0110442 -0.167063 0)
(0.0115177 -0.16773 0)
(0.0126643 -0.167027 0)
(0.0133075 -0.16767 0)
(0.0141933 -0.166924 0)
(0.0149774 -0.167506 0)
(0.0156148 -0.166744 0)
(0.016461 -0.16724 0)
(0.0168905 -0.166414 0)
(0.0177476 -0.16684 0)
(0.018 -0.165943 0)
(0.0188407 -0.166297 0)
(0.0121555 -0.166325 0)
(0.0189277 -0.165314 0)
(0.019736 -0.165592 0)
(0.0172325 -0.165534 0)
(0.00914116 -0.112851 0)
(0.0196832 -0.164507 0)
(0.0204426 -0.16467 0)
(0.0149023 -0.107834 0)
(0.00529615 -0.0810227 0)
(0.0202929 -0.163518 0)
(0.0209779 -0.16354 0)
(0.0140917 -0.168201 0)
(0.010889 0.0264093 0)
(0.0113406 0.0273715 0)
(0.0112231 0.0230954 0)
(0.0107576 0.0223613 0)
(0.0110869 0.0190274 0)
(0.011553 0.0195377 0)
(0.0114072 0.0154818 0)
(0.0118687 0.0158036 0)
(0.0117145 0.0117213 0)
(0.0112353 0.0116014 0)
(0.011535 0.00782549 0)
(0.01201 0.0077055 0)
(0.0118264 0.00381014 0)
(0.0113278 0.00416562 0)
(0.011612 0.000208924 0)
(0.0121073 -0.000378029 0)
(0.0118822 -0.00390481 0)
(0.012373 -0.00468686 0)
(0.0121364 -0.00813149 0)
(0.0116333 -0.00717048 0)
(0.0118764 -0.0113276 0)
(0.0123767 -0.0124117 0)
(0.0121062 -0.0155734 0)
(0.0115914 -0.0142483 0)
(0.0118113 -0.0184267 0)
(0.0123299 -0.0199067 0)
(0.0120225 -0.0227164 0)
(0.0114971 -0.020925 0)
(0.0116922 -0.025052 0)
(0.0122082 -0.0271503 0)
(0.0118685 -0.029252 0)
(0.0113513 -0.0270792 0)
(0.0115204 -0.0310901 0)
(0.0120225 -0.0334473 0)
(0.0116675 -0.0350705 0)
(0.0121562 -0.0375854 0)
(0.0117982 -0.0390273 0)
(0.0112988 -0.036414 0)
(0.0114241 -0.0401727 0)
(0.0119318 -0.0431111 0)
(0.0115362 -0.0439863 0)
(0.0110353 -0.0410291 0)
(0.0111242 -0.0445083 0)
(0.0115791 -0.0475307 0)
(0.0111828 -0.0479042 0)
(0.0107141 -0.0448635 0)
(0.0107751 -0.0480978 0)
(0.0112248 -0.0512369 0)
(0.0108134 -0.0512321 0)
(0.0112468 -0.0544597 0)
(0.0108282 -0.0542591 0)
(0.0103885 -0.0509647 0)
(0.0103995 -0.0538204 0)
(0.0108179 -0.0571833 0)
(0.0103856 -0.0565525 0)
(0.0107826 -0.0599775 0)
(0.0103479 -0.0591407 0)
(0.0107172 -0.0625426 0)
(0.0102785 -0.061505 0)
(0.0106038 -0.0647587 0)
(0.0101704 -0.0636366 0)
(0.00983102 -0.0602138 0)
(0.0097324 -0.0622166 0)
(0.0100504 -0.0656754 0)
(0.0096075 -0.0640133 0)
(0.00990207 -0.0674342 0)
(0.00945944 -0.0656191 0)
(0.00973855 -0.0690691 0)
(0.0092952 -0.0670628 0)
(0.00956037 -0.0706014 0)
(0.00910417 -0.0682702 0)
(0.0088395 -0.0647652 0)
(0.00864387 -0.0657346 0)
(0.00837688 -0.0622593 0)
(0.00817679 -0.0630173 0)
(0.00790621 -0.0595548 0)
(0.00770492 -0.0601306 0)
(0.0074276 -0.0566406 0)
(0.00722922 -0.0570811 0)
(0.00994804 -0.0504762 0)
(0.00934888 -0.0718024 0)
(0.00694247 -0.0535859 0)
(0.0067472 -0.0538654 0)
(0.00712584 -0.0529103 0)
(0.00645884 -0.0504396 0)
(0.00626472 -0.0505108 0)
(0.00652789 -0.0538465 0)
(0.00597671 -0.0471603 0)
(0.00604527 -0.0502833 0)
(0.00628774 -0.0535611 0)
(0.0111319 -0.0632896 0)
(0.0100412 -0.0727735 0)
(0.00579842 -0.0497157 0)
(0.0060116 -0.0528481 0)
(0.0161642 0.0460089 0)
(0.0173338 0.0154719 0)
(0.0163308 0.0209389 0)
(0.0151953 0.0478899 0)
(0.0187159 0.106712 0)
(0.0188032 0.106035 0)
(0.0188373 0.103318 0)
(0.0189203 0.102509 0)
(0.0189513 0.0999131 0)
(0.0190315 0.0989913 0)
(0.019062 0.0963952 0)
(0.0191389 0.0954396 0)
(0.0191711 0.0928179 0)
(0.019244 0.0918283 0)
(0.0192775 0.0891902 0)
(0.0193476 0.088139 0)
(0.0193809 0.0855563 0)
(0.0194476 0.084471 0)
(0.0194813 0.0819301 0)
(0.0195438 0.0808483 0)
(0.0195789 0.078291 0)
(0.0196389 0.0771881 0)
(0.0196749 0.0746284 0)
(0.019733 0.0734974 0)
(0.0197688 0.0709722 0)
(0.0198244 0.0698492 0)
(0.0198606 0.0673344 0)
(0.0199134 0.0662049 0)
(0.0199511 0.0636782 0)
(0.0200024 0.0625146 0)
(0.0200411 0.059984 0)
(0.0200918 0.0587776 0)
(0.0201301 0.0562901 0)
(0.0201804 0.0550245 0)
(0.0202167 0.0526778 0)
(0.0202652 0.0513863 0)
(0.0203014 0.0490705 0)
(0.0203486 0.0477852 0)
(0.0203861 0.0454287 0)
(0.0204322 0.0441561 0)
(0.0204694 0.0418301 0)
(0.0205157 0.0405008 0)
(0.0205526 0.0381875 0)
(0.020599 0.036821 0)
(0.0206369 0.0344746 0)
(0.0206817 0.0331435 0)
(0.0207213 0.0307176 0)
(0.0207638 0.029477 0)
(0.0208058 0.0269858 0)
(0.0208461 0.0257924 0)
(0.020887 0.0234283 0)
(0.020928 0.0221271 0)
(0.0209661 0.0199016 0)
(0.0210088 0.0184812 0)
(0.0210462 0.0162749 0)
(0.0210893 0.0148306 0)
(0.0211277 0.0125766 0)
(0.0211695 0.0111855 0)
(0.0212082 0.00891528 0)
(0.0212492 0.00755069 0)
(0.0212882 0.00526535 0)
(0.0213291 0.00389941 0)
(0.021368 0.00161436 0)
(0.0214075 0.000303664 0)
(0.0214465 -0.00198457 0)
(0.0214849 -0.00325459 0)
(0.0215242 -0.00555963 0)
(0.0215635 -0.00687416 0)
(0.0216019 -0.00913526 0)
(0.0216429 -0.0105419 0)
(0.0216796 -0.012723 0)
(0.0217206 -0.0141498 0)
(0.0217563 -0.0162938 0)
(0.021798 -0.0177372 0)
(0.0218333 -0.0198813 0)
(0.0218751 -0.0213201 0)
(0.0219111 -0.023527 0)
(0.0219521 -0.0249064 0)
(0.0219882 -0.0271197 0)
(0.0220291 -0.0284985 0)
(0.022064 -0.0306307 0)
(0.0221056 -0.0320735 0)
(0.0221391 -0.0341258 0)
(0.0221817 -0.0356322 0)
(0.0222154 -0.0376997 0)
(0.0222583 -0.0392186 0)
(0.0222926 -0.0413415 0)
(0.0223345 -0.0428088 0)
(0.0223683 -0.0449344 0)
(0.0224098 -0.0463614 0)
(0.022444 -0.0485276 0)
(0.022485 -0.0499176 0)
(0.02252 -0.0521402 0)
(0.022561 -0.0535216 0)
(0.0225939 -0.0556444 0)
(0.022636 -0.057085 0)
(0.0226652 -0.0590508 0)
(0.0192087 0.0944814 0)
(0.0227087 -0.0605426 0)
(0.022737 -0.0625214 0)
(0.0227817 -0.0640263 0)
(0.0228104 -0.0660782 0)
(0.0228556 -0.0675636 0)
(0.0228837 -0.0696409 0)
(0.0196961 0.0760189 0)
(0.0229291 -0.0711065 0)
(0.0229569 -0.0732139 0)
(0.0230023 -0.0746674 0)
(0.0230295 -0.0767781 0)
(0.0230757 -0.0782342 0)
(0.023101 -0.0803078 0)
(0.0201456 0.0573994 0)
(0.0231485 -0.0818069 0)
(0.0231713 -0.0837906 0)
(0.0232207 -0.0853821 0)
(0.0232403 -0.0872613 0)
(0.0232914 -0.0888906 0)
(0.0233074 -0.0906904 0)
(0.0204739 0.0429825 0)
(0.0233604 -0.0923384 0)
(0.0233742 -0.0941394 0)
(0.0234293 -0.0957921 0)
(0.0234403 -0.0976066 0)
(0.0208065 0.0280643 0)
(0.0234967 -0.0992305 0)
(0.0235052 -0.101102 0)
(0.0235624 -0.102656 0)
(0.0235692 -0.104587 0)
(0.023627 -0.106081 0)
(0.023632 -0.108013 0)
(0.0212078 0.00989938 0)
(0.0236923 -0.109596 0)
(0.0236927 -0.111448 0)
(0.0237556 -0.113106 0)
(0.0237495 -0.11482 0)
(0.023814 -0.116447 0)
(0.0238029 -0.118141 0)
(0.0199884 0.0611809 0)
(0.0210805 0.0141727 0)
(0.0191956 0.0903479 0)
(0.0225591 -0.0546275 0)
(0.0220957 -0.0326371 0)
(0.0215684 -0.00816352 0)
(0.0216065 -0.00838904 0)
(0.0205841 0.0360263 0)
(0.0238707 -0.119777 0)
(0.0238535 -0.121457 0)
(0.0230531 -0.0789223 0)
(0.0239247 -0.123146 0)
(0.0238994 -0.124757 0)
(0.0239738 -0.126519 0)
(0.0239395 -0.128055 0)
(0.0234409 -0.0993463 0)
(0.0238282 -0.123017 0)
(0.0219138 -0.0227008 0)
(0.0240186 -0.12985 0)
(0.0239726 -0.131343 0)
(0.0196127 0.0756942 0)
(0.0187606 0.103662 0)
(0.0222211 -0.0370803 0)
(0.0240575 -0.133204 0)
(0.0239972 -0.134636 0)
(0.0240841 -0.136544 0)
(0.0240107 -0.137912 0)
(0.0224505 -0.0478112 0)
(0.0241001 -0.139783 0)
(0.0240111 -0.141129 0)
(0.0226758 -0.058459 0)
(0.0239128 -0.135948 0)
(0.0241109 -0.143041 0)
(0.0239944 -0.144272 0)
(0.0228972 -0.0688904 0)
(0.0241019 -0.146285 0)
(0.0239523 -0.147342 0)
(0.0231231 -0.0797882 0)
(0.0240635 -0.149367 0)
(0.0234123 -0.0939994 0)
(0.0236151 -0.104167 0)
(0.0055226 -0.0487711 0)
(0.00531771 -0.0458385 0)
(0.0135213 -0.106835 0)
(0.0203354 0.0466855 0)
(0.0056961 -0.051618 0)
(0.00619088 -0.0559209 0)
(0.0208586 0.0240849 0)
(0.0238153 -0.114741 0)
(0.0213265 0.00295192 0)
(0.0218646 -0.0219987 0)
(0.0223251 -0.0434672 0)
(0.0227575 -0.0642627 0)
(0.0236293 -0.110006 0)
(0.0232471 -0.0887875 0)
(0.0207846 -0.162326 0)
(0.0201335 -0.162345 0)
(0.0168974 0.0745447 0)
(0.0169678 0.0700875 0)
(0.0171629 0.0700857 0)
(0.0172286 0.0655499 0)
(0.0174194 0.0654594 0)
(0.0174786 0.060978 0)
(0.0176683 0.0606785 0)
(0.0177105 0.0562567 0)
(0.0179122 0.0555038 0)
(0.0179359 0.0510617 0)
(0.018145 0.0501322 0)
(0.0181644 0.0457008 0)
(0.0183662 0.0447779 0)
(0.0183867 0.0404017 0)
(0.0185774 0.0393807 0)
(0.0185935 0.0351785 0)
(0.0187796 0.0338497 0)
(0.0187825 0.0297865 0)
(0.0189726 0.0281832 0)
(0.0189624 0.0241028 0)
(0.0191534 0.0223471 0)
(0.0191392 0.0183644 0)
(0.0193301 0.0163356 0)
(0.0193078 0.0125662 0)
(0.0195016 0.0104166 0)
(0.0194679 0.00670914 0)
(0.0196594 0.0045825 0)
(0.01962 0.000803593 0)
(0.0194234 0.00301972 0)
(0.0195698 -0.00283834 0)
(0.0197648 -0.00517115 0)
(0.0197109 -0.00875693 0)
(0.0199015 -0.0112216 0)
(0.0198393 -0.0147175 0)
(0.020027 -0.0172712 0)
(0.0199491 -0.0206644 0)
(0.0201415 -0.0233108 0)
(0.0200547 -0.0266674 0)
(0.0202461 -0.0293702 0)
(0.0201554 -0.0325981 0)
(0.0203389 -0.0354478 0)
(0.0202318 -0.038455 0)
(0.0204192 -0.0415433 0)
(0.0202998 -0.0443951 0)
(0.0204869 -0.0475463 0)
(0.0203656 -0.050226 0)
(0.0205407 -0.053417 0)
(0.0204024 -0.0558487 0)
(0.0205778 -0.0592163 0)
(0.020419 -0.0615083 0)
(0.0205981 -0.0649047 0)
(0.0204329 -0.0670337 0)
(0.0206028 -0.0704525 0)
(0.0204274 -0.0723628 0)
(0.0205903 -0.0758796 0)
(0.0204058 -0.0775754 0)
(0.0205582 -0.0811536 0)
(0.0203584 -0.0825878 0)
(0.0205032 -0.0862296 0)
(0.0202798 -0.0874267 0)
(0.0204259 -0.0910857 0)
(0.0201881 -0.092131 0)
(0.0200449 -0.0885931 0)
(0.019942 -0.0930108 0)
(0.0200764 -0.0966322 0)
(0.0198187 -0.0973343 0)
(0.0199405 -0.100993 0)
(0.0196702 -0.101436 0)
(0.0197773 -0.105148 0)
(0.0194981 -0.105283 0)
(0.0195894 -0.108991 0)
(0.0193029 -0.10886 0)
(0.0193776 -0.112501 0)
(0.0190849 -0.112142 0)
(0.019141 -0.115705 0)
(0.0188415 -0.115156 0)
(0.0202125 -0.0576765 0)
(0.0188767 -0.118682 0)
(0.0185698 -0.117979 0)
(0.0200742 -0.0355213 0)
(0.0192242 -0.105214 0)
(0.0189531 0.0198206 0)
(0.0184303 0.035672 0)
(0.0177048 0.0527269 0)
(0.0185429 -0.11446 0)
(0.0182683 -0.117102 0)
(0.0182753 -0.120537 0)
(0.0179723 -0.119502 0)
(0.01796 -0.122829 0)
(0.0176543 -0.121629 0)
(0.0176124 -0.124883 0)
(0.0173104 -0.123483 0)
(0.01723 -0.12648 0)
(0.0169426 -0.125087 0)
(0.0168342 -0.127922 0)
(0.0202279 -0.0740824 0)
(0.0197633 -0.0176997 0)
(0.0193669 -0.00055425 0)
(0.0197027 -0.0937533 0)
(0.0238458 -0.145154 0)
(0.0237709 -0.148042 0)
(0.023666 -0.14584 0)
(0.0235638 -0.148614 0)
(0.0239935 -0.124923 0)
(0.0165526 -0.126505 0)
(0.0164128 -0.129402 0)
(0.0234605 -0.146343 0)
(0.0233336 -0.149015 0)
(0.0161427 -0.12776 0)
(0.015968 -0.130576 0)
(0.0189834 0.113249 0)
(0.0190132 0.111334 0)
(0.0190511 0.110395 0)
(0.0190822 0.108479 0)
(0.0191177 0.107549 0)
(0.0191497 0.105647 0)
(0.0191835 0.104709 0)
(0.0192161 0.102809 0)
(0.0192485 0.101871 0)
(0.0192819 0.0999662 0)
(0.019313 0.0990311 0)
(0.0193456 0.0972025 0)
(0.0193765 0.0962083 0)
(0.0194071 0.094484 0)
(0.0194396 0.0933868 0)