/*--------------------------------*- C++ -*----------------------------------*\
| =========                 |                                                 |
| \\      /  F ield         | OpenFOAM: The Open Source CFD Toolbox           |
|  \\    /   O peration     | Version:  v2012                                 |
|   \\  /    A nd           | Website:  www.openfoam.com                      |
|    \\/     M anipulation  |                                                 |
\*---------------------------------------------------------------------------*/
FoamFile
{
    version     2.0;
    format      ascii;
    class       volScalarField;
    location    "350";
    object      ddt0(omega);
}
// * * * * * * * * * * * * * * * * * * * * * * * * * * * * * * * * * * * * * //

dimensions      [0 0 -2 0 0 0 0];


internalField   nonuniform List<scalar> 
13917
(
0.0297123
-0.000788641
-0.0672991
-9.78561e-05
-0.000202467
-0.000784216
-0.000419618
-0.0364678
-0.000301681
0.0406069
-0.0304878
-6.40954e-05
-0.000119719
-0.0282502
-0.000524271
0.0321608
-1.60898e-05
-0.00252919
-0.00483055
0.181586
-0.000857217
-7.15212e-05
-0.00142018
-7.16797e-05
-0.000202777
-0.000911484
0.00452162
-0.127582
-0.00110123
9.12455e-06
0.0763713
-0.00216889
-0.000109118
0.00612712
3.76494e-06
-0.0897295
-0.000279904
0.00025495
-0.000418134
-0.00114191
-2.26527e-05
8.95639e-05
-0.00018756
-0.00506787
-0.00501646
-0.00274079
-0.000783015
0.245524
0.0223248
3.25718e-06
-6.20845e-05
-0.0054456
0.0405434
-7.13668e-05
-7.65971e-05
-0.0127291
-5.87139
-0.00143086
9.18448e-05
-0.00208125
0.0363582
8.31031e-05
4.89744e-05
-0.000185395
0.021434
0.000554725
-0.00108604
-0.130893
-0.00010596
0.0281529
0.0187543
0.00401573
-4.42206e-05
8.28559e-05
-0.000909741
-0.000249487
-0.000170241
8.32811e-05
-0.000229261
-0.000116791
-0.000133592
8.69041e-06
-4.11807e-05
0.0445478
-1.22715e-05
-0.0254337
-0.00209472
-2.55798e-05
-0.00112211
-3.46346e-06
2.37058e-05
-0.000209345
0.0126533
1.14111e-05
-0.000127294
-0.00106943
-0.00859577
0.000124724
-2.23603e-05
0.0219311
1.21682e-05
1.18152e-05
-0.000136208
4.40268e-05
-0.000168068
0.0332091
0.043084
9.56277e-05
0.000103588
0.00524949
-1.13429e-05
0.00760028
-0.00106314
0.242854
0.0212618
-0.00028221
-0.00569533
2.3565e-05
-0.670996
-2.76013e-05
4.66349e-05
6.4287e-05
-0.000872254
-0.00447849
0.00884173
0.0454652
-0.00016917
-0.00097329
-1.60688e-05
-0.00472762
-0.00072584
-0.0124747
0.0608816
-0.000278631
-0.00294777
0.0025222
0.0236209
-0.013061
-0.000968165
0.000254065
0.0179961
7.44239e-05
0.0234138
-2.87668e-05
-3.7508e-05
0.000120399
0.019313
-0.00842229
0.278341
-7.41392e-05
-0.000992402
1.89463e-05
-3.43403e-05
-2.81264e-05
-0.0096993
-0.0001059
4.19382e-05
0.057205
-6.97456e-06
1.60873e-05
-1.64735e-05
0.0111244
-0.000425765
0.0266704
0.0203765
0.00470589
0.0152475
0.0960626
4.87479e-06
-0.0010193
-7.98156e-05
0.0510041
-0.00029646
0.0171893
-0.00266107
4.96505e-06
-9.79581e-05
-0.377482
-0.000675515
-0.000463012
-0.00019282
-7.32635e-05
-6.20657e-05
-0.0380287
-0.513613
-0.0111838
-6.05851e-05
-0.0297734
1.33408e-05
0.0401214
-0.00251128
-0.00448933
-0.375178
0.0145313
1.07256e-05
0.00438899
-0.000396899
0.0667937
7.3476e-06
-9.40578e-05
-0.000678606
0.0158881
-0.0146567
-0.000254706
0.00701883
-0.000827808
-0.00101165
7.36955e-05
-0.221309
-0.000131038
-1.04991e-05
-0.000145628
2.65162e-06
0.240418
-0.00281572
-0.000963406
0.0135331
1.3231e-06
2.92562e-05
2.87839e-05
0.126352
-0.155824
-0.00836954
-1.00268e-05
4.59635e-05
0.0031945
-0.0186297
2.31186e-05
2.20465e-05
-2.1427e-05
3.23371e-05
3.16451e-05
0.0039496
0.133247
-9.17792e-05
4.68368e-06
-0.00293731
0.00399827
-2.90018e-06
-1.03864e-05
0.00697778
0.017669
-0.0534457
0.0138756
-0.000166011
-2.88365e-05
0.0638323
-0.00292642
-0.00103039
-0.002904
-0.00023408
0.166411
-3.06358e-05
-0.0013308
-0.00218146
-0.000100061
-1.87361e-05
-0.000183963
-0.00022968
1.97516e-05
0.00302622
0.0201129
5.46488e-05
2.0131e-05
-0.00011223
1.99963e-05
-3.05967e-05
-0.000122266
-0.00105777
6.20843e-05
0.0010907
0.0310434
-4.13785e-05
-0.00018737
0.00403078
2.95672e-05
0.00644424
0.00582227
3.01135e-05
0.0118269
2.40383e-05
0.0117094
2.27554e-06
-0.000420979
-0.000106207
-2.71999e-05
-0.183047
0.000136392
0.00266622
-0.000563757
-0.00210598
0.000102116
0.0050986
-0.00634236
1.86831e-05
-0.00167364
-0.000219299
-0.000306093
-0.000211078
-0.000226022
1.57798e-05
7.96392e-05
-0.340889
0.000328808
-0.00127391
-0.000211678
-1.0867e-05
0.0613574
0.0631498
-1.00176e-05
0.00045861
-0.000309779
-0.145583
-0.00910816
0.017668
0.0116233
-0.000175986
-0.0296092
-0.000185365
0.0374669
-0.202412
-0.0942876
-0.000119519
-0.000499464
0.00581049
-9.17145e-05
-0.000763568
-0.00419439
-2.00496e-05
0.0501944
-1.46471e-05
-0.00112034
5.09955e-05
-0.0355313
-1.31359e-05
-0.00115161
-0.00085707
-0.000268351
2.18307e-05
-0.00291112
0.0348227
-0.000115164
-9.11757e-05
0.00992468
0.0284869
0.0107269
-0.0223511
2.7515e-05
-9.04903e-05
0.0144341
-0.0368095
2.79929e-05
-0.000203571
-6.54945e-05
-0.00150271
-0.00119473
0.00114969
0.000575347
0.00429826
-0.00112847
0.00662826
-1.96098e-05
-0.000115894
-0.00035191
-0.160943
-1.92922e-05
0.0172572
-0.00110628
-0.0293521
-8.26618e-05
-0.195481
0.000297674
-0.00720648
0.000108298
-0.015356
0.00321897
-0.00093062
-4.48796e-05
-0.0136928
6.5198e-05
0.0248883
-0.288951
0.000109593
0.00787349
-0.000127522
-0.00327998
8.95185e-06
0.156148
0.0028733
-0.000239457
0.00708946
0.00165882
-0.000203285
0.00718502
-0.714167
-0.000204258
-0.276286
-8.29496e-05
-0.000585275
-0.0768101
-1.45499e-05
-0.00036553
-0.00020871
-2.53073e-05
-1.40871e-05
-2.36783e-05
0.0279905
0.00676318
-9.66944e-05
-2.23214e-05
-6.07529e-05
-0.0016218
-0.0475904
3.69198e-05
5.86605e-06
-0.00824389
-0.244307
-2.96736e-05
-0.000228752
0.00451218
-0.0336408
-0.0022201
-0.00420957
0.0317879
6.98046e-05
3.33013e-05
-0.000707859
-1.39837e-05
3.73971e-05
-9.96206e-05
3.40729e-05
6.49746e-05
0.0818152
-8.71065e-05
-0.00129905
0.00426407
-0.00165855
-1.16483e-05
-3.34181e-05
0.00707207
-0.000676495
0.0107049
4.63069e-05
-1.54534e-05
7.48058e-05
3.47802e-05
-0.000271094
-0.000136737
0.00415915
0.000147993
0.0285435
-1.52084e-05
-0.00089813
9.01997e-05
-0.000125049
-0.00366671
0.00972486
-6.08688e-05
-0.0132071
-1.36572e-05
-1.72904e-05
-5.64474e-05
-0.000129919
-1.00941e-05
-3.43665e-05
0.0579847
0.0238003
-9.06435e-06
0.00479058
-0.00760542
-3.05114e-05
-0.00188969
-0.00265116
0.00724117
-0.000407419
0.0402654
0.039791
-0.0062315
-0.000139046
0.000180248
0.000115751
-0.000223417
0.0113603
2.41055e-05
-6.39626e-05
-0.0001282
-0.00033243
-0.000849134
-0.522914
-0.00171476
9.79875e-05
-0.000207907
-0.0019295
-0.00170498
-9.7743e-05
-0.0257323
-0.000991281
-0.000581025
0.0211824
-1.34945e-05
-0.00184803
-0.220403
-1.41607e-05
0.0414206
-1.62203e-05
3.49051e-05
-0.00166958
4.59492e-05
-1.59878e-05
-0.217064
0.0578284
0.00948133
-1.60776e-05
-0.000108371
0.000111439
0.0103085
0.00058131
-8.74879e-05
-7.45679e-05
-1.49007e-05
-0.00201737
-0.00742132
-1.43145e-05
-3.88353e-06
-8.93514e-05
-2.35604e-05
1.75718e-05
-0.000554285
2.5417e-05
-0.00175119
-1.42628e-05
-6.42627e-05
-0.000195413
0.0133176
8.01307e-06
-0.00020519
1.94041e-05
-0.000833687
-0.00249
-0.00110103
-0.00227884
0.00872958
-0.000178368
-0.00157131
0.0696092
0.0754802
0.0110662
-5.61267e-06
-5.26626e-05
8.63058e-05
-2.70643e-05
0.0241362
3.22715e-05
0.0428098
-0.000394702
0.0653802
-0.00756367
-0.000184837
-0.736087
-9.07023e-06
-0.00200674
0.000130703
4.78139e-05
0.0620051
4.01797e-05
-0.91891
4.14697e-05
-6.66892e-05
-5.63643e-05
-0.544818
3.15754e-05
1.5246e-05
-0.00524337
-0.00184124
-0.0279456
0.0169995
0.0658682
0.00893036
7.91285e-06
0.0285352
2.40186e-05
0.0226768
0.0590568
6.51642e-05
0.000288399
1.56854e-05
-0.000964035
-0.000178923
4.10622e-05
0.000133013
-0.000101377
0.0119775
-1.77781e-05
-0.00185818
-6.1539e-05
1.42958e-05
3.00559e-06
-0.00692902
0.0160782
0.0325799
-0.00256784
-0.000548616
-0.0158081
0.00464398
1.2144e-05
0.0123209
-9.50466e-05
-0.00489357
-2.70158e-05
-0.0104927
-2.23763e-05
6.28698e-06
-3.85591e-05
-0.0217385
-0.00106281
0.0195321
2.9687e-05
-0.000968141
-5.03421e-06
9.72969e-06
0.00643666
0.00457116
-1.08988e-06
-0.0143597
-1.0269e-05
6.37718e-05
2.5629e-05
0.00677984
-1.80649e-05
-0.000219975
3.16264e-05
-1.54748e-06
-0.157916
2.1452e-05
-0.00174814
2.03559e-05
-1.31952e-05
0.0397064
-0.0019751
-8.24049e-05
0.140896
-1.57678
-0.0254363
-0.199184
-8.13872e-06
-0.000557694
0.015025
-0.425109
-0.000645594
-0.000280659
-2.40654e-05
5.49013e-05
-2.9199e-05
-0.00110624
-0.00272781
-0.000338734
0.0387349
-0.00108291
0.00865391
0.0011584
0.000394168
-0.00104793
-0.173984
0.00509972
1.55771e-05
-1.74459e-05
-0.00180571
-1.3343e-05
5.3954e-05
3.71931e-06
0.000109071
-2.81114e-05
0.0325443
-0.000808794
1.07191e-05
-0.00345025
2.64652e-05
0.0149637
2.441e-05
-1.552e-05
0.0517201
-0.00226338
0.00781392
-5.22165e-05
0.000108336
-6.98157e-06
-7.96738e-05
-0.000514714
-2.7407e-05
0.00544485
-0.000725712
-0.0319782
0.0171389
-1.73248e-05
0.0672076
-0.000109201
0.000116232
-4.43374e-06
0.00897792
0.00959013
-0.000425002
0.0196023
0.0080112
-1.31605e-05
-1.24194e-05
-0.000273299
0.0440206
0.0151714
-0.00107927
-7.91316e-05
-0.000205919
-0.00521248
-0.000162971
-0.00027311
-0.000823302
-0.000122202
-0.000120188
0.000120336
-0.000516704
-0.000212153
-0.276525
-0.00033332
0.0001144
-0.00344565
8.25559e-05
0.0259258
-0.000253583
-0.000735582
-0.000374776
-0.312454
2.36618e-05
-0.00183393
0.0146234
0.0263611
-2.77576e-05
-0.000337922
2.08876e-05
-1.97462e-05
-3.54112e-05
-0.000375208
-9.8041e-06
-0.0141631
-0.00138191
-7.20245e-06
-0.159229
-0.00029798
-0.000336973
-0.0244405
-9.98515e-05
-0.00199309
-0.0025251
1.06586e-05
-0.00228798
-0.00452622
-0.000814059
-1.93157e-05
-1.14097e-05
-2.71045e-05
0.0402963
-0.000106875
2.94554e-05
-0.00110107
-2.90862e-05
-1.21527e-05
0.00614576
-0.00124455
0.000632484
-0.0297775
-0.00129327
0.0117448
-3.54072e-05
-0.000179147
-0.0294202
6.90425e-05
-0.000416895
1.21112e-06
5.38642e-05
-5.21112e-05
-0.000372491
-0.00103214
-1.90634e-05
0.00178332
-7.78877e-05
0.100263
-0.000256482
-0.000402736
5.11991e-05
-0.00296374
-0.000451807
0.0109175
0.00105717
-1.41807e-05
0.0194806
-0.000129707
0.000271992
-0.000163317
-0.000828647
-0.000147583
-2.45861e-06
-2.56274e-05
0.0402722
-0.000520197
-0.0325905
-0.0407827
-1.85055e-05
-0.000829806
4.63687e-06
8.11091e-06
0.0178028
4.94007e-06
0.057455
-0.000207504
-0.00247761
-0.00493783
0.00875327
2.03706e-05
6.90279e-05
-0.0290546
-8.13926e-06
-6.8393e-05
-0.000185212
-4.88094e-05
-0.00110838
1.96192e-05
0.05695
-0.000122098
0.0338875
0.000585642
-0.0988252
0.0253344
-0.0143593
0.0547719
-0.0997576
-1.18832e-05
6.95529e-05
-3.76387e-05
-0.000135792
-1.56708e-05
-0.000517325
-2.27833e-05
-0.0737135
-7.14266e-05
0.0169555
-9.77866e-05
-0.000591409
-0.000701191
-2.61449e-06
-0.00127885
-0.000129567
3.97321e-05
-0.000384179
6.93411e-05
0.0664616
-0.0030216
-0.000702479
-9.68811e-06
-9.87883e-06
-8.32655e-05
-8.41873e-05
0.0174329
-1.23031e-05
0.00791244
-2.06524e-05
0.0562728
-0.000383843
-2.7309e-05
-0.00193379
0.00011684
-1.23804e-05
0.0133603
0.0129348
-0.000285072
-0.00293229
-5.62407e-06
0.0146261
6.89257e-05
-8.39699e-05
0.0062766
6.37271e-05
-0.000106227
-0.00337682
0.0113297
0.000105612
-0.00268707
-0.0214844
0.000106465
-0.000140778
-5.2582e-05
0.0254623
-1.27305e-05
-0.00628354
-5.26894e-05
0.0439904
-0.000424209
-0.000114276
-2.4061e-05
2.97197e-05
0.00396468
-3.13164e-05
5.81502e-05
0.0740372
-0.000187275
-1.43314e-05
-0.017701
0.000107645
7.1485e-05
-0.002766
-0.000197496
0.0229972
-0.00118779
-0.00257998
-0.192331
-0.000203492
0.0422421
-0.000142527
-0.00249647
-1.59649e-05
-0.000904746
0.0547409
-5.36544e-05
7.26742e-05
4.11008e-05
-8.76469e-05
7.50115e-05
6.28966e-05
5.26608e-05
-2.34476e-05
-0.000604893
1.0803e-05
-0.000169092
-0.00235199
0.0258238
0.00936754
-0.00305988
-8.37227e-05
-0.000608872
-2.02954e-05
-0.0331067
-0.000752262
0.00459585
3.31522e-05
-1.19594e-05
-2.74338e-05
-6.50229e-05
3.20701e-05
6.9746e-05
-1.95541e-05
-0.00111683
-1.42909e-05
0.596037
-0.0503958
-1.63761e-05
0.0435623
-1.6228e-05
-2.4559e-05
4.6124e-05
0.00772151
-0.00181699
6.78467e-06
0.00862643
3.24455e-06
-2.07267e-05
-0.0917401
6.45625e-05
-0.0205922
-0.000111544
0.0428562
-1.19236e-05
6.37044e-05
-0.000696357
-0.00213493
-0.000170353
0.0061517
0.000103733
4.90289e-05
-0.000145494
-1.36266e-05
-1.03729e-05
-0.00353338
-0.000743046
-0.000326925
0.0135529
0.454509
0.000638323
-0.00433195
5.43686e-05
0.0109311
6.44378e-05
0.00651058
-0.0022
-0.000368596
-0.000154464
0.00138892
0.0181827
-0.0225905
7.35897e-05
-0.00307398
7.74105e-05
-2.30553e-05
-0.000807545
-0.000116857
-5.07673e-05
-0.00431256
0.00416818
6.37895e-05
-0.000381459
0.00354378
3.09578e-05
2.75891e-05
0.0463334
0.0107162
-0.000123191
2.80996e-05
-0.000393569
-3.26277e-05
-1.61153e-05
-0.000425045
-0.00039711
-3.40828e-05
0.00674867
9.54347e-05
0.000223876
0.00993901
7.03661e-05
0.0030104
-5.36015e-05
-9.44394e-05
0.00067201
0.013818
-0.0035029
0.000420763
-0.000745362
-6.09279e-05
-0.000114892
0.000113146
0.00962864
0.000111556
-9.98599e-05
-0.00162481
-2.63701e-05
0.0418118
-0.00281832
-0.00755111
-0.0018238
0.000619782
-0.00235638
0.00528811
0.0260129
0.000281704
-0.00121314
2.94943e-05
-0.00195133
-0.00285565
0.019193
-0.000283019
4.81512e-05
-0.00035699
0.000788447
-0.000201589
0.00826935
-0.000935776
-0.0045022
0.00835648
5.12027e-05
-0.00447766
-0.000221132
-6.84126e-05
8.85138e-05
0.000120189
3.74871e-05
-5.26792e-06
-0.000154477
-0.00716409
-1.4611e-05
-0.000188917
-0.000176869
-0.00014245
-4.8285e-05
0.000324713
-0.00239327
-0.000100084
-7.47218e-06
0.0774365
0.000491939
-0.000776879
0.0481322
-6.20264e-05
-1.48494e-05
0.00547344
2.98178e-05
-0.000208323
0.0269518
0.00534894
-0.000250772
-0.00195813
-0.000436954
0.0255391
0.00743222
-0.000791467
0.0107455
-1.16513e-05
-0.00319108
0.0142863
-0.607916
0.0109977
-0.0238214
6.36474e-05
-6.08381e-05
-9.16162e-05
-5.04387e-05
-6.75028e-05
-0.216233
6.27808e-05
-0.00140743
4.10408e-06
-0.00166215
0.00669461
-0.00019949
0.0106174
-0.0300035
-1.59706e-05
-0.00268272
-0.000425329
-0.000173685
-2.06733e-05
0.00951244
-0.00252947
0.00401764
-0.000495511
0.0835122
-0.00476467
9.992e-05
-0.0948342
-0.000941427
0.000102608
-2.90773e-05
-0.0127492
-2.05913e-05
-0.000374336
-0.000911875
-0.000380637
-6.20578e-05
-0.00172058
0.00026791
-1.75461e-05
-0.0339865
0.0585302
-6.81678e-05
-1.96268e-05
0.000117131
-0.0371762
-0.0243186
1.27292e-06
-0.000549491
2.67788e-05
-0.0460379
-0.0218718
-4.55245e-05
-1.49123e-05
6.3406e-05
-1.34907e-05
3.85769e-05
-0.000262843
-0.0275219
-8.97457e-05
-0.000246522
0.000153659
7.72858e-05
-0.00313511
0.0101976
0.0635694
-5.31455e-05
1.19097e-05
-1.47991e-05
-0.000161999
-0.00238749
0.0681966
-0.000276872
-0.000483889
-0.000648368
-0.00150169
-0.000179203
-0.000162164
-0.000355402
-0.00659845
7.90495e-06
0.0596124
-0.000680841
5.23043e-06
-4.60639e-05
0.0150115
-0.00151063
8.74803e-05
0.0307402
-0.209753
-7.77643e-06
-0.000300703
8.70482e-06
-1.28558e-05
0.0121693
-0.0158157
7.74007e-06
-0.000222037
-0.00556507
-0.000872321
-0.000107146
2.00745e-05
-2.02656e-05
-1.02369e-05
-1.78701e-05
-0.000620619
-0.00154972
-0.00149092
-0.000897188
-0.000355367
-0.000658101
-0.00405943
-5.68726e-06
-0.00084601
-0.0115165
-0.261906
0.0393379
-0.000185754
2.05988e-05
0.00187413
-1.55788e-05
-0.00082637
-0.000157382
-0.00130159
-8.64278e-05
-1.49999e-05
0.00637903
-0.000401891
-0.000176717
-1.19192e-05
0.00697033
-0.00203647
0.00308918
-7.12467e-05
-5.90591e-05
-0.00937515
1.74026e-05
7.10796e-05
-0.155941
-0.0140151
-0.000454645
-0.000810517
-0.000100097
0.0179677
-1.31839e-05
-0.000223867
-6.16506e-05
1.9636e-05
0.138994
-1.40685e-05
-8.91969e-06
-0.00298493
-0.0017063
0.00533188
-0.78399
-1.21216e-05
-0.000610647
-1.22514e-05
-5.93714e-06
-0.000146536
-5.55794e-05
-5.79513e-05
0.0499618
-4.52893e-05
-0.00262804
4.82998e-05
0.000188407
-3.35329e-05
0.000172499
-2.08892e-05
0.0151267
3.72975e-05
0.00945209
-0.00217943
-6.04863e-05
-0.00158744
-0.000808428
-0.000632743
-5.08248e-05
-4.25044e-06
-1.5652e-05
5.69552e-06
0.0416167
-0.00079422
5.75164e-05
3.90169e-05
7.72825e-07
8.64779e-05
-0.00126015
-2.58521e-05
0.0123713
-0.00140608
6.28796e-05
-1.10072e-05
1.24147e-05
-0.00139568
0.000706576
0.00358349
-0.000204114
0.0472762
0.00017774
-0.0016905
-0.000260779
0.0153616
4.74802e-06
3.43224e-05
-0.000320707
-0.00163123
1.1995e-05
0.011408
-6.46419e-05
5.00939e-05
-0.118909
-0.0063116
0.0498212
-6.47486e-05
-0.000362797
-0.0309825
0.00056593
6.18788e-05
0.0156294
-1.63585e-05
6.19504e-06
-0.000334224
1.0399e-05
0.0140344
0.00204794
-1.98782e-05
-2.54878e-05
6.27606e-05
0.069807
-5.92686e-06
2.03763e-05
-0.00244074
-1.37065e-05
-1.06549e-05
0.000127747
6.61504e-05
-0.00132619
-4.94901e-05
-0.000163086
-1.1193e-05
0.00578829
-7.29886e-05
-1.15676e-05
-1.1517e-05
-0.000120205
-1.1374e-05
-0.00020776
-7.55291e-05
2.89024e-05
-5.01735e-05
-2.22718e-05
-0.000147212
-4.03161e-05
-0.00198992
1.26355e-05
-0.00295447
-6.56123e-05
-0.000958923
2.7772e-06
-5.48094e-05
-2.7068e-05
3.94286e-05
-0.000986561
-0.000386921
-0.000261311
0.0047637
-8.08602e-06
0.0508782
0.0112337
-0.00289727
0.0227635
-6.32757e-05
-3.69557e-05
0.00198593
0.00439006
8.88443e-05
0.000674623
8.14712e-06
-0.00720129
-0.0136779
-0.000205336
-0.00327328
-0.050622
0.00837993
6.53256e-05
-0.00137387
-1.71528e-05
-0.000154451
-0.000243316
0.0249756
0.255013
-6.47452e-05
-0.000490529
0.00303448
-1.94755e-05
0.00941573
0.0216658
-0.000201368
-1.37825e-05
0.00297132
0.00774124
6.15551e-05
-0.000673774
-9.61896e-05
0.00283138
-0.36651
-5.55897e-05
1.28048e-06
5.67555e-05
-2.91895e-06
-1.60824e-05
-8.6392e-05
-6.22528e-06
0.00734162
-0.000491513
-0.000517586
0.0151573
-1.78624e-05
-0.00132141
-4.04244e-05
-0.0023617
-0.00178317
0.000415685
4.32122e-06
-0.000459566
1.84485e-05
7.72764e-05
-0.000171528
-4.88373e-05
0.0113312
-0.000156985
-5.67447e-06
-1.73638e-05
0.0258733
-1.40508e-05
0.0123997
0.00491766
0.0366539
-5.47273e-05
-2.19801e-06
-1.47968e-05
-0.019631
-8.30505e-05
-0.000593832
7.49605e-05
-0.0163736
-0.000193743
3.858e-05
8.08521e-05
-6.53441e-05
-2.12258e-06
0.00520307
-0.00578934
0.0108879
3.2706e-05
0.0688391
-0.0433498
-6.1436e-05
0.00534814
-7.53565e-05
-0.000352736
0.0524166
-0.000238395
-0.000914878
0.0112282
-0.000605643
-0.00235119
-3.01276e-05
0.0118282
-1.75183e-05
0.0168567
-1.39911e-05
0.0144392
-1.73728e-05
-1.54821e-05
-0.00014191
0.0589079
-3.8129e-06
3.70134e-05
-0.00181967
-0.0427181
-2.00284e-05
-0.00058579
0.0561297
-0.0697793
-0.000615304
-0.00306194
2.76498e-06
-0.00430018
-0.0181925
-0.000277091
-0.00964083
3.19756e-05
-0.224486
0.0306378
-1.02323e-06
-0.0194553
-1.08095e-05
0.0706893
0.00578243
-0.000244558
-0.000154619
0.0209912
0.0368065
-1.19921e-05
-0.000152692
-4.57913e-06
-6.21155e-05
0.0437429
-0.00222667
-0.0405624
-5.82253e-05
-0.000480084
0.0160295
2.92609e-05
0.0175625
-0.0328567
-1.32115e-05
-1.41614e-05
-1.0373
0.00339369
2.29237e-05
0.00458378
0.0117509
-0.00106279
-0.00268056
0.050198
0.00969979
-0.0106294
-1.42113e-05
-0.00312939
-0.00139767
-0.00248348
-3.79251e-05
-0.000330896
-0.00197004
0.027773
0.026826
0.000104505
-0.0325657
0.0124028
-0.00101094
-1.33854e-05
-1.47281e-05
0.00861289
1.0559e-06
0.0600225
-0.000526634
0.000141666
-0.0253054
-0.000374305
-1.12996e-05
-0.000962942
-0.000578568
-3.93359e-05
0.0730224
0.000104105
0.0682149
1.71862e-05
0.00820255
-0.00892238
-0.979003
4.02331e-05
-0.000427412
-0.000629012
-0.00103082
-0.0317369
-0.00213194
0.0407203
-0.0135804
5.33397e-06
-0.000373784
3.38902e-05
-0.00120459
0.00516692
2.16276e-05
-1.08021e-05
-0.000154562
-0.00167828
-0.0134587
1.42564e-05
-0.00152769
-0.0242365
-1.44374e-05
-0.000106849
-0.000265602
0.0695248
-0.000412235
0.000990001
-0.00392269
-0.000515069
-0.000306483
-0.0188232
-1.95514e-05
-0.00103302
0.0354929
-8.46031e-05
0.00304467
-0.000607627
-0.00168388
0.00290619
0.0646387
-2.96254e-05
0.0323306
-0.0127957
9.44874e-06
-0.00771915
-0.00240208
-0.0756439
0.0106767
0.00267902
0.00265002
-0.00255138
0.0271319
-0.000455308
-0.00218936
3.3214e-05
-4.77038e-05
-4.57883e-05
-1.5443e-05
-0.00142944
0.033238
3.77244e-05
-0.000935075
-0.178495
-1.8855e-05
0.00959797
0.0200935
7.07372e-06
-7.9045e-05
4.23275e-05
-0.000157977
-0.00129462
-1.73335e-05
0.0776273
-0.000571993
-0.00248682
-0.000400897
-0.00243449
-0.00248885
-0.000708769
-0.0186671
-3.98412e-05
-0.000166678
3.49365e-05
1.27103e-05
0.061701
-0.00393107
-0.000564103
0.0650438
-6.50779e-05
-0.000111293
-0.00068658
6.87139e-06
5.30067e-05
-0.00422023
-0.000335049
0.00482358
0.00771635
0.0157374
-2.82688e-05
0.0129451
-2.00478e-05
-0.00725888
-1.08903e-05
-0.0117198
0.00113503
-1.84973e-05
-0.0038499
0.000376796
-0.000745924
-3.64582e-05
1.58494e-05
-0.000507855
0.00975713
-5.13734e-06
-5.82077e-05
9.81002e-05
0.000255939
-0.545123
-6.12628e-05
-0.000360451
-1.26415e-05
0.00018322
-0.0139195
-0.00086857
-0.000212114
-0.00265441
-0.00495577
0.0293945
-0.0270594
-2.88672e-05
-0.000150562
0.0279083
-4.13621e-05
-0.00227424
-3.26644e-05
0.0530647
-9.86412e-06
-8.09123e-05
-0.000282671
0.0111569
-1.33567e-05
4.53244e-06
5.66509e-06
-0.0128757
0.295104
-0.0296022
-1.18404e-05
-0.000261893
-1.47339e-05
0.0142351
5.10548e-05
0.00372218
-0.00165727
-6.49644e-05
-0.0109651
-0.000734086
-0.00140746
-6.45519e-05
6.99798e-05
-0.000661391
-0.000922949
-0.0958677
-5.11363e-05
-0.000100946
-5.33038e-06
0.00957032
-1.33153e-05
-5.15549e-05
0.0596252
-0.000194862
0.000127819
-0.000277806
-1.27819e-05
1.91294e-05
-0.0239258
-0.000161845
-0.0512123
0.0243029
1.8735e-05
-0.0400489
-8.53083e-05
-0.00327126
-0.00149937
-5.86571e-05
4.30035e-05
1.76704e-05
-1.74863e-05
-0.000438925
-0.00138175
0.0159512
0.0138103
-1.6639e-05
-7.83111e-05
-0.00107166
0.0153921
-2.15648e-05
0.00129497
0.0609293
0.0514376
1.83907e-05
-0.000167539
-8.66728e-05
-0.0986689
0.0567555
0.000132435
-1.43784e-05
-0.000632635
0.101817
-4.59557e-05
-0.000171546
-0.000198606
-0.0061914
-0.0214241
2.38201e-06
0.00682693
-0.000487645
-1.33233e-05
0.0118626
-0.00166226
-0.0383431
-0.0468346
-0.000740823
-0.00038383
-5.40923e-05
-0.00043928
-0.000117094
-0.00212072
-0.00125257
2.86547e-05
-0.00026018
-0.0357587
0.00249831
-4.22194e-06
-0.00804515
0.00956692
-0.0183965
3.47657e-05
-4.0809e-05
0.0328048
0.0395322
-0.0589783
-2.90818e-05
0.00891451
-0.0021736
2.30232e-05
0.00129284
-0.000479722
-7.77818e-05
-0.0120741
-4.78504e-05
0.000198673
-4.10434e-07
1.25101e-05
-5.84018e-05
5.86002e-06
0.0203005
3.67918e-05
-1.64107e-05
-0.00294221
-0.000263074
-0.000304832
0.0215289
-5.35273e-05
-1.12349e-05
-0.000178299
-0.000137276
0.0496136
0.0401833
0.0113014
0.00346265
-0.000619809
-0.00227754
-0.000808178
0.011525
0.00458727
0.0179341
-1.27843e-05
-0.000603498
-2.21766e-05
-6.06671e-05
1.63092e-05
5.72275e-05
0.0334901
-0.00174924
-0.000965835
-1.83407e-05
-1.40354e-05
-0.00161155
-5.98203e-05
-9.61131e-05
-5.60635e-05
0.0209727
-0.000721332
0.0279707
-2.45115e-05
0.0456274
-0.000105266
-7.6191e-05
-0.000107478
-0.00122668
-1.97309e-05
-0.00347857
0.00716256
-0.0011427
0.00193382
0.00333595
0.000395863
-0.000480186
-0.00172562
-0.0282355
4.72726e-05
1.97339e-05
1.86394e-05
0.0158241
1.26526e-05
-0.031144
0.000334681
-0.00279661
-0.0279319
-0.00898327
-0.0020849
0.0710493
6.61019e-05
2.42045e-06
-0.00111932
0.0108337
-3.44993e-05
-2.99744e-05
-0.0348203
-1.42398e-05
-0.0353795
-5.63305e-05
5.17414e-05
-0.000354585
-3.09492e-05
-0.00252469
0.00910231
0.00387863
-0.000284903
4.52624e-05
-0.0044325
-0.000140378
-0.00277624
-1.47674e-05
-0.00295995
-0.00360842
-9.64374e-05
-7.31379e-05
2.12847e-05
-0.195629
0.001994
-0.193264
0.00791221
-0.000627089
0.0453793
-0.00246373
-0.00554565
0.06177
-2.0718e-05
0.0109374
-0.000122871
0.0208254
0.00680813
0.0113999
0.035228
-4.87687e-05
-0.00174399
-0.00114848
-4.97301e-05
0.0115578
-5.14193e-05
-3.52778e-05
-0.000338581
-9.14399e-05
-0.000616476
-0.118753
-0.00910904
0.0430137
-0.000368479
-0.00109317
-0.000151556
-7.06245e-05
-3.81606e-05
-0.339133
-0.0029834
0.0041167
-0.00139158
4.07976e-05
-7.17714e-06
-0.000100462
-0.0770968
-0.000278613
-0.000115312
-0.000326549
0.00500219
-0.00066532
-0.000961224
-0.00052591
0.00930491
-0.000608989
-0.000745061
-2.1516e-05
-0.000339929
-0.00223113
0.000628524
-0.00118916
7.26593e-06
0.0111142
-0.000793823
-2.72508e-05
-0.0015076
0.0102119
-0.00265911
-0.00079058
-1.45279e-05
0.0102361
-0.000100732
-1.43255e-05
4.39029e-05
0.000836732
-0.0158593
0.000387836
0.00927406
0.0175208
-6.8445e-05
-0.000499239
-0.00200841
0.0672486
-0.000693188
0.0524248
-0.000106337
0.000510727
0.000119542
0.0751702
-0.000801952
1.7147e-05
0.0187091
-2.74112e-05
-0.000131734
-0.0396515
0.00406701
0.0248547
0.000158415
-0.000238361
-0.000140651
0.00223839
-2.74414e-05
-1.39158e-05
-2.72809e-05
-0.00138005
-2.1e-05
-0.000639975
-7.62859e-05
0.000301266
0.0268137
-9.51301e-05
0.00977516
-8.57912e-05
0.0136896
0.00365752
-2.90354e-05
-5.5084e-05
-0.000312534
-0.00585303
0.0543181
-0.00235305
0.00943889
0.00627021
-0.0209688
4.20929e-06
-0.00186067
0.0506915
0.000956487
-0.00279614
-6.4991e-05
-4.21617e-05
-2.48835e-05
-0.000151393
-1.55779e-05
-0.000756762
0.00516702
-0.000572157
0.0407825
0.136386
-0.0303624
0.0105472
0.0331411
-0.00043367
0.0687107
-0.00442594
-0.00247708
-1.03849e-05
-5.36638e-05
-0.00228827
0.00455629
-0.000110811
0.0140832
0.0233322
-1.38163e-05
-3.92688e-05
3.77646e-05
0.000754299
-0.000111912
-0.00262117
0.0131234
-3.37538e-06
-9.47317e-06
-1.40158e-05
-0.000113018
-0.00378798
0.00556577
-0.000861294
0.0438264
-0.0255812
-1.80828e-05
0.0392432
-0.150511
-2.56464e-06
0.0125733
0.0205046
0.00250389
-0.000591175
0.00107029
-4.45346e-05
0.0394986
0.00823417
-0.117594
0.0516649
1.02854e-05
-0.000210776
-0.000247476
-0.000171017
0.0588034
-0.00234549
-5.41116e-05
-0.000465795
0.0108557
0.00813947
7.28802e-06
0.000176903
0.0552549
0.0306002
-4.67546e-05
-0.000513937
-0.00162959
-1.3942e-05
-1.23326e-05
0.00091803
-1.88463e-05
-0.332789
0.0400531
0.0685168
-1.89525e-05
-0.00419693
-0.0852702
-2.53265e-05
2.71795e-05
0.00969695
0.000160639
-7.80122e-05
-0.000674569
-0.162166
-0.210592
0.0562587
0.00813751
-0.00036876
0.0639701
0.010753
-0.000922751
-1.25149e-05
-0.0115884
6.21456e-06
3.46772e-05
0.00289578
-0.00101905
-0.00533433
-0.000259287
-0.000196369
6.45541e-07
1.97747e-05
-9.23164e-05
-0.000112367
0.0107906
-0.000238688
0.00666317
-0.00413804
-0.00136916
-0.00257455
0.00853218
0.0717669
0.00989057
7.0877e-05
-0.0002869
-0.000941006
-0.000353537
-0.0691308
0.0346852
-8.74742e-05
0.00596543
0.00857538
-0.000429707
-0.00376705
-0.0028415
-0.00445154
-0.00578916
-0.000144772
-0.00699979
-0.0143162
-0.00179738
-0.042723
-0.00588325
-0.0034318
-0.000206849
-1.47149e-05
-0.000779794
-0.00344912
-1.9586e-05
0.00167659
0.0696506
-0.0234015
0.0149716
2.48596e-05
1.24048e-05
0.000410562
0.0130983
-0.000103718
-0.000258224
-0.00208189
0.0579684
-0.0485105
-4.8961e-05
-0.000635111
-0.000324514
-0.546001
0.0278402
-0.000218274
-0.0344824
0.00832071
-0.00384448
0.0391931
-0.00503859
-0.000573664
0.0662311
4.68164e-06
0.0744806
0.0163074
-0.000146025
-0.00257509
-0.00116326
-0.000348714
-8.42048e-07
-0.00706538
0.0296136
5.72124e-05
5.6839e-05
0.0020344
0.0204127
-0.00294145
-7.16675e-05
-0.0709901
-0.0378801
0.0221749
0.00255102
-3.55397e-05
-1.31573e-05
-0.000100733
1.67375e-05
0.0478586
-0.0130921
0.0159041
-0.00303901
0.00730406
0.00206674
4.05086e-05
-1.57382e-05
0.00842948
1.2847e-05
0.0634295
4.26027e-05
0.0388418
-0.000126046
-0.000142463
0.00885111
-1.79439e-05
-0.00533284
0.050364
-0.000122756
-0.000239301
-0.000139908
0.0201747
0.00435891
-0.116065
0.0175172
0.000170106
0.000187906
-0.000466728
-0.00312545
0.0688617
0.0525514
-0.00620725
-0.53085
-0.0161567
0.00531188
5.57524e-05
2.2093e-05
-4.04774e-06
-1.05046e-05
-0.0374244
-0.00156656
0.000801046
-0.00115065
-0.0554142
-2.54421e-05
0.0275664
-0.0378044
-0.503975
-1.12051e-05
-0.000154116
1.31569e-05
0.0113185
-1.69226e-06
0.169059
-0.0390358
-0.0161951
-0.00408829
1.99501e-05
-0.000998081
-0.142319
-0.0340363
0.0181261
-2.56523e-05
0.0262643
-0.000106186
-1.79463e-05
-0.0279507
-0.00758939
-0.00175351
-8.50471e-05
-0.00477796
-0.00953446
0.0109727
0.0027576
0.0567921
0.071548
-8.09032e-06
-0.00208226
-5.24302e-05
-0.0102096
8.43797e-06
-0.0314834
-0.000194741
-0.00152387
-0.065258
0.0519549
0.000300067
0.0265001
0.0168545
-0.00616935
-0.000229092
-0.0420216
-0.00509656
0.000109938
-5.13153e-05
0.0641533
-0.000547225
-0.311651
-0.00967774
0.000716636
0.0114445
0.000399882
0.0173215
0.00709951
-0.0312712
-0.00105238
-0.000713969
-0.000102064
-0.00392531
0.0552235
0.0256654
-9.36084e-05
0.00272513
-0.001467
-0.00196723
-0.000494232
0.046102
-0.00316555
0.0296781
-0.000335843
0.00319149
-0.000268436
0.00539558
-0.156529
-0.00132663
0.015104
-1.38009e-05
1.3267e-05
0.00573822
0.0753168
5.84402e-05
-8.82607e-05
-0.00120587
-0.000571564
0.0211663
-0.00908167
0.0157117
-0.000390241
0.0147299
-0.199583
0.0158054
-9.02813e-05
-0.00782111
0.0318833
0.000248034
-0.00307108
2.29321e-05
-0.000255567
-3.99481e-05
0.0551121
-2.532e-05
-3.06401e-05
0.064803
0.0441298
-9.79083e-06
0.0725245
-0.00011685
-5.39014e-05
-1.96047e-05
1.90855e-06
-5.11412e-05
0.0163919
0.054008
1.21019e-05
-0.025443
-0.00221358
-0.00140192
-0.0196809
-0.00329824
-0.000358979
-0.000662882
-1.09479e-05
0.0382192
-0.000609106
0.0713456
-1.79309e-05
0.0569109
-0.011584
-0.00261992
-0.0260785
0.0138641
-1.30271e-05
-0.0039038
-0.00181456
-0.00235394
0.000599894
-2.91405e-05
0.000690789
0.0388853
-3.54759e-05
0.00875389
-9.47883e-06
0.0667078
0.00775672
0.00370795
-0.0109717
-0.0645781
0.0624161
-5.40413e-05
9.2013e-06
-0.00199309
-0.000174205
-5.42834e-05
-5.63044e-05
-0.000470942
-2.38266e-05
-1.40459e-05
-0.000150127
-0.00115513
-0.000197102
-0.000474343
-4.64481e-05
-0.000494858
-0.00449
-0.000222206
0.0734805
-0.000202399
-1.86486e-05
-0.00390566
-0.00119729
-2.9699e-05
-2.35273e-05
-0.0268651
-0.000161892
0.00556811
-0.000178684
-0.00860053
-1.53016e-05
-4.55827e-05
0.0449655
0.0673836
-0.00233505
-0.000859052
1.95883e-05