/*--------------------------------*- C++ -*----------------------------------*\
| =========                 |                                                 |
| \\      /  F ield         | OpenFOAM: The Open Source CFD Toolbox           |
|  \\    /   O peration     | Version:  v2012                                 |
|   \\  /    A nd           | Website:  www.openfoam.com                      |
|    \\/     M anipulation  |                                                 |
\*---------------------------------------------------------------------------*/
FoamFile
{
    version     2.0;
    format      ascii;
    class       surfaceVectorField;
    location    "350";
    object      Uf;
}
// * * * * * * * * * * * * * * * * * * * * * * * * * * * * * * * * * * * * * //

dimensions      [0 1 -1 0 0 0 0];


internalField   nonuniform List<vector> 
20642
(
(0.295082 -0.0131313 6.31782e-21)
(0.301397 -0.0121654 -4.91143e-21)
(0.310917 -0.0103077 2.88652e-21)
(1.08022 0.011821 2.41408e-22)
(1.08003 0.0113159 -9.31531e-22)
(1.07943 0.0119804 -3.83744e-22)
(1.05011 -0.0140143 6.31407e-21)
(1.05155 -0.0133608 9.99791e-21)
(1.00897 -0.0106437 1.34039e-20)
(1.05974 -0.0074894 1.63228e-21)
(1.06037 -0.00711374 -4.43051e-22)
(1.05938 -0.00700848 1.12212e-22)
(1.05816 0.0236632 -2.07318e-22)
(1.05838 0.0240264 5.42021e-22)
(1.05843 0.0241219 1.35188e-21)
(1.07997 0.0126232 4.09096e-22)
(1.08094 0.0120328 3.23396e-22)
(1.08259 -0.0117648 0)
(1.08175 -0.0114214 0)
(1.08265 -0.0110335 2.65812e-21)
(1.08071 0.0149962 -1.73964e-21)
(1.07101 0.0164824 7.35056e-21)
(1.07594 0.0193128 -2.61251e-21)
(1.07785 -0.0226413 2.1815e-21)
(1.07794 -0.0220243 -9.92405e-22)
(1.07875 -0.0225354 2.06399e-21)
(0.00463744 -0.0557554 -6.97182e-21)
(0.0143043 -0.0579846 -2.61396e-20)
(1.07483 0.0165271 3.76789e-21)
(1.0743 0.0130667 8.81765e-22)
(1.0521 -0.000745555 -5.5945e-22)
(1.05296 -0.000613494 1.46979e-22)
(1.05248 -0.00110616 -5.88713e-22)
(1.02148 -0.000108184 5.6727e-23)
(1.02136 -0.000149501 0)
(0.499625 0.052346 0)
(0.462958 0.0520528 -6.34489e-23)
(0.503041 0.0558904 0)
(1.07333 0.0174866 -3.16913e-24)
(1.07459 0.0174895 -1.96334e-22)
(1.07366 0.0167935 -3.12366e-23)
(0.28651 -0.0141727 4.23051e-21)
(0.270725 -0.0168222 -2.917e-21)
(0.992679 0.000462469 -5.96742e-22)
(0.992934 0.000476111 2.58246e-22)
(0.994154 0.000214665 5.67766e-22)
(1.07318 0.0183265 3.51209e-21)
(1.07325 0.019066 6.35053e-22)
(1.07228 0.0167285 1.12792e-22)
(1.1211 -0.0110631 5.91899e-21)
(1.12235 -0.0112943 2.991e-21)
(1.12192 -0.010099 2.09107e-21)
(0.286908 0.00354345 -1.88446e-20)
(0.31325 0.00692492 6.39927e-23)
(0.314465 0.0047388 -1.70322e-20)
(1.0831 0.0115834 -4.05126e-22)
(1.08401 0.0119445 7.21573e-22)
(1.0833 0.0122019 -8.9162e-22)
(1.04632 0.0149431 -1.00992e-22)
(1.04628 0.0144523 -1.11778e-23)
(1.04724 0.0151536 3.53474e-23)
(1.10125 -0.0109378 0)
(1.10109 -0.0116202 -7.1184e-21)
(1.10208 -0.0110726 2.56188e-23)
(1.04628 0.0154852 -3.82047e-23)
(1.04552 0.0147806 5.11035e-22)
(1.06852 -0.00176069 5.06143e-21)
(1.06933 -0.00195205 3.46626e-21)
(1.06909 -0.0014416 -6.73656e-22)
(1.08355 0.0141706 5.17718e-22)
(1.08347 0.0135181 6.30337e-22)
(1.08265 0.0136933 7.74983e-22)
(0.490985 0.0026318 -6.16968e-23)
(0.540136 0.00575896 -1.10145e-21)
(0.54649 0.00514496 2.23968e-21)
(0.00601555 -0.0483781 4.08761e-20)
(1.08071 0.018577 3.81772e-22)
(1.08156 0.0181532 -1.09425e-21)
(1.08041 0.0174507 4.59649e-22)
(0.978662 -5.67552e-06 2.60893e-23)
(0.978498 -0.000212083 -1.1922e-23)
(0.978729 -0.000295785 1.92459e-24)
(-0.00278435 -0.0371516 -1.72888e-21)
(0.0106097 -0.0423292 -8.07982e-21)
(1.11023 -0.0194623 1.9501e-20)
(1.1107 -0.0199975 1.37282e-20)
(1.11093 -0.0192034 -1.27998e-20)
(1.06119 -0.00273212 -3.64295e-22)
(1.06027 -0.00259574 -2.37137e-21)
(1.06043 -0.00310294 4.33364e-22)
(0.337086 -0.00663396 1.03227e-20)
(0.349662 -0.00470244 -2.25866e-21)
(0.347994 -0.00510911 8.51042e-21)
(1.02431 0.0215614 2.12245e-22)
(1.02351 0.0212816 1.63573e-22)
(1.02431 0.0221506 -3.24116e-22)
(1.05539 0.0116627 2.23391e-21)
(1.02957 0.0139999 -6.64679e-21)
(1.06896 0.00812787 3.76903e-22)
(1.0694 0.0078441 1.10187e-21)
(1.06988 0.00835769 -4.36467e-22)
(1.01189 0.000370864 -1.86714e-22)
(1.01688 0.000788054 -3.9671e-22)
(1.01145 0.00032537 6.06403e-22)
(1.0835 -0.0120589 -7.37548e-21)
(1.08251 -0.0124182 4.68164e-21)
(1.09049 0.00779897 -1.76308e-21)
(1.09154 0.00790321 -1.56404e-21)
(1.0908 0.00716552 7.38901e-22)
(0.991601 0.000294772 -1.75519e-22)
(0.992842 0.000202236 -2.0033e-21)
(0.988012 -7.64725e-05 -1.87475e-22)
(1.0043 0.0197727 -1.37547e-22)
(1.00472 0.0204493 4.09827e-22)
(1.00497 0.0202086 2.25467e-22)
(1.07207 -0.021568 0)
(1.07191 -0.0206901 2.91203e-21)
(1.07093 -0.0213242 0)
(1.12002 -0.0165804 2.27245e-21)
(1.11975 -0.017308 6.11566e-21)
(1.12056 -0.0170633 -1.15192e-20)
(1.11918 -0.0160195 -6.07373e-21)
(1.12022 -0.0155929 -3.8762e-21)
(0.841193 0.0238316 -7.96341e-21)
(0.878057 0.0206104 2.70997e-21)
(0.821668 0.0270655 -5.11599e-21)
(1.0822 0.0110764 3.16722e-22)
(1.0829 0.0108037 6.16491e-22)
(0.160125 0.0541597 -9.25358e-21)
(0.206439 0.0541445 0)
(0.199377 0.0551756 7.15664e-21)
(0.640277 -0.0636974 2.55046e-22)
(0.619527 -0.0597974 1.31484e-21)
(0.678778 -0.0518446 0)
(1.02449 0.0211951 -4.0119e-22)
(1.02512 0.0219929 -7.03154e-23)
(1.05177 -0.000348185 -1.83917e-21)
(1.05126 -0.000828137 -1.23296e-21)
(1.11148 0.00416367 9.20309e-21)
(1.11347 0.00459714 1.76922e-22)
(1.11031 0.00427807 0)
(0.182645 -0.0125784 -2.6724e-21)
(0.233472 -0.0137883 -9.49279e-21)
(0.180468 -0.0133063 -8.56996e-21)
(1.05114 0.00610675 -1.46867e-22)
(1.05024 0.00593582 -1.35212e-22)
(1.05072 0.00641142 -5.39803e-22)
(1.05296 0.00558732 -9.08849e-22)
(1.05205 0.00545502 -5.23483e-22)
(1.05233 0.00506645 -5.73322e-22)
(1.11151 0.00362234 -2.42516e-22)
(1.11249 0.00430984 4.17801e-21)
(0.103765 -0.0148044 -2.94175e-20)
(1.10129 -0.0102012 0)
(1.10035 -0.0107511 7.11586e-21)
(1.00385 0.0190851 -5.71339e-22)
(1.00362 0.0193016 -7.33519e-22)
(0.793046 0.0262661 5.79426e-21)
(0.856074 0.0220141 -9.55319e-22)
(0.230607 0.0497736 -5.31644e-21)
(0.201416 0.0512778 -1.25196e-21)
(0.195384 0.0514948 0)
(1.03344 0.0326965 2.66821e-22)
(1.03414 0.0323866 -2.53939e-22)
(1.03299 0.0318139 0)
(0.984144 9.49787e-06 -1.14987e-21)
(0.983494 -0.000176498 -2.48174e-22)
(0.98222 -0.000233461 -2.20931e-23)
(1.06787 -0.00220239 -1.75331e-21)
(1.06758 -0.00164912 1.11917e-21)
(0.565294 0.0139227 0)
(0.56398 0.0155032 0)
(0.542723 0.0158263 0)
(0.976678 0.00525997 4.00604e-23)
(0.975672 0.00499248 5.71926e-22)
(0.976263 0.00466348 -7.56437e-24)
(1.07989 0.0188873 3.07185e-22)
(1.07905 0.0191578 -3.01722e-23)
(1.07881 0.0179037 7.79905e-23)
(1.0692 0.00623923 3.38095e-21)
(1.03784 0.0104502 -4.12287e-21)
(1.07609 0.0206059 1.02835e-21)
(0.277981 -0.0126538 0)
(0.266321 -0.0133601 -5.92492e-21)
(0.263411 -0.0134781 -1.25093e-20)
(0.670731 0.0113062 5.64891e-21)
(0.683243 0.0108024 5.68428e-21)
(0.642766 0.0114446 4.10477e-21)
(0.327518 -0.00790422 3.96905e-21)
(0.325942 -0.00789547 5.40332e-21)
(1.04717 -0.00986829 5.92498e-22)
(1.0481 -0.0102323 1.07712e-21)
(1.04777 -0.00955944 0)
(1.00343 0.0184687 3.47786e-22)
(1.00413 0.0189002 0)
(1.08497 0.01235 3.4478e-21)
(1.0848 0.0116444 1.68446e-21)
(1.07027 0.00200895 3.56224e-21)
(1.07105 0.00184009 3.5206e-22)
(1.07075 0.00235842 1.34925e-21)
(1.05639 0.0220707 3.89875e-22)
(1.05705 0.0224792 7.20652e-22)
(1.05679 0.0219338 6.8193e-22)
(1.00302 0.0178493 -1.43243e-22)
(1.00274 0.0180128 3.30786e-22)
(1.06974 0.00145084 -6.98717e-22)
(1.06929 0.00206928 1.55596e-21)
(1.06181 -0.00256906 1.16722e-21)
(1.06192 -0.00302783 4.57659e-22)
(1.05683 0.0115852 2.60615e-24)
(1.05634 0.0119231 -4.73426e-22)
(1.05574 0.0113338 -2.98508e-23)
(0.995497 0.000585502 -2.25629e-23)
(0.995128 0.000580037 -4.04133e-22)
(0.99596 0.000257801 2.54288e-22)
(1.04652 -0.0101823 2.1653e-21)
(1.04619 -0.00951132 -3.65394e-22)
(0.653051 0.00550537 3.93665e-21)
(0.689028 0.00447605 -3.10517e-21)
(0.684363 0.00424651 -3.17094e-21)
(1.03024 0.00127121 -4.82113e-23)
(1.03045 0.00140265 -4.20805e-23)
(1.03019 0.00145568 3.02585e-24)
(1.01638 0.0379336 -1.91643e-23)
(0.962671 0.0416397 4.49804e-21)
(0.955935 0.0401551 -2.391e-23)
(1.10936 -0.0198927 3.86132e-21)
(1.10956 -0.0189513 -5.12192e-21)
(1.02991 0.000792212 -1.84605e-23)
(1.02975 0.000872053 -3.94177e-23)
(1.02926 0.000614381 -3.75528e-22)
(1.08947 0.00758921 3.74098e-21)
(1.09004 0.00837271 0)
(0.992453 0.000420201 -1.81722e-22)
(0.992267 0.000728842 -4.86968e-22)
(0.991126 0.00124472 9.91083e-23)
(0.990735 0.00111 1.3214e-22)
(0.991009 0.00145574 2.44083e-22)
(1.07315 -0.0215091 -2.2713e-21)
(0.665546 -0.0650681 4.43205e-21)
(0.612857 -0.0777515 -2.21179e-21)
(1.01825 0.0189939 1.90462e-22)
(1.01808 0.0194525 2.12762e-23)
(1.01741 0.0186723 3.46116e-22)
(1.05828 0.00766866 0)
(1.05775 0.00795598 0)
(1.05878 0.0081504 0)
(1.08117 0.0199459 3.61074e-22)
(0.610304 0.00858595 2.43735e-21)
(0.668669 0.0105478 -6.26232e-22)
(0.664111 0.0133196 -2.68986e-21)
(1.00326 0.00082731 -2.0163e-22)
(1.00369 0.000807835 2.05422e-22)
(1.00208 0.000405333 -3.27656e-22)
(1.03004 0.000915669 3.4756e-22)
(1.03002 0.000736739 1.43927e-22)
(1.01579 0.0151818 -1.16571e-21)
(1.07592 0.0145138 8.0397e-24)
(1.03336 0.0166122 1.90559e-21)
(0.984937 -4.18207e-05 -1.16205e-21)
(0.984991 1.69849e-05 -1.15751e-22)
(0.98843 -3.45187e-05 -1.25599e-22)
(0.984654 -3.24261e-05 -3.34384e-22)
(0.983285 0.000220245 1.38441e-22)
(1.05785 0.0117736 1.03132e-22)
(1.05712 0.0112376 -4.77069e-22)
(1.00747 0.00181171 -2.92104e-23)
(1.00783 0.00171107 3.64803e-22)
(1.00667 0.00127857 7.06528e-23)
(1.05552 0.0216012 -8.76553e-22)
(1.05586 0.0220926 -3.91464e-22)
(0.67772 0.00253442 -5.94632e-21)
(0.674063 0.00376013 -9.55624e-21)
(0.641935 0.00683728 -1.11937e-20)
(0.356697 0.0278694 -2.60036e-21)
(0.355335 0.0252243 2.68792e-22)
(0.341114 0.0287504 1.24465e-20)
(1.0324 0.0328577 2.60825e-22)
(1.03383 0.0334979 3.95306e-22)
(1.00446 0.0206694 0)
(1.00515 0.0211316 -2.11763e-22)
(0.44854 -0.00193836 1.22518e-21)
(0.440511 -0.00104304 -1.44205e-21)
(1.02716 -0.00120433 -5.74138e-23)
(1.02709 -0.00158402 -1.22389e-22)
(0.363789 -0.00261553 -5.98649e-21)
(0.352916 -0.00392515 -1.49428e-21)
(1.08209 0.0176849 -3.5555e-22)
(1.0828 0.0187881 -2.78441e-22)
(0.562617 0.0135606 0)
(0.591297 0.0139848 0)
(1.0719 0.00374151 2.27693e-23)
(1.07264 0.00350552 -2.4095e-21)
(1.07153 0.00324755 3.38296e-21)
(1.1198 -0.0107118 -3.93777e-21)
(1.12016 -0.011759 -4.70172e-21)
(0.986237 0.000626689 -1.15994e-22)
(0.986103 0.00081354 0)
(0.986388 0.000681292 -1.94135e-22)
(1.11225 -0.015938 -3.41904e-23)
(1.11269 -0.017217 2.00451e-21)
(1.12526 -0.0184403 -1.43974e-20)
(1.042 -0.0112505 -1.85996e-21)
(1.04267 -0.0110215 -9.28291e-22)
(1.04177 -0.0106831 -1.06534e-21)
(0.995792 0.000927317 -2.35518e-22)
(0.995889 0.000537748 2.21267e-22)
(1.00355 0.0174248 3.54465e-22)
(1.00377 0.0171663 3.93814e-22)
(1.00308 0.0167703 3.20651e-22)
(1.07811 0.0191242 -3.5154e-22)
(1.07934 0.0206651 -8.4665e-23)
(1.11506 -0.0037023 -2.06394e-21)
(1.11452 -0.00295068 -3.97637e-22)
(1.11402 -0.00395915 3.73921e-21)
(0.240607 -0.0131002 0)
(0.255725 -0.0117783 0)
(0.243802 -0.0132529 0)
(0.630257 0.0067915 4.06915e-21)
(0.626249 0.00744222 4.13124e-21)
(1.0673 -0.00256589 -4.92206e-21)
(1.06672 -0.00294928 -2.34776e-21)
(1.06641 -0.00246395 9.9081e-22)
(1.08514 0.0130656 1.78821e-21)
(1.08596 0.0127656 -1.06084e-21)
(1.02921 0.0166514 -1.15753e-22)
(1.02849 0.0166132 -2.33919e-22)
(1.02842 0.0160693 4.62199e-22)
(1.11523 -0.00455773 -4.68005e-21)
(1.11601 -0.00361832 6.23564e-21)
(1.09174 -0.0201777 -3.09184e-21)
(1.09236 -0.0196655 -4.69454e-21)
(1.09263 -0.020434 4.92309e-21)
(0.882214 0.0186111 -5.59678e-22)
(0.933237 0.0157079 -2.39188e-21)
(0.867718 0.0198108 -1.03167e-21)
(0.449066 0.00388122 4.5063e-21)
(0.427107 0.00335422 2.65639e-21)
(0.431717 0.00309497 -2.63875e-21)
(1.07235 0.00428256 0)
(1.07126 0.00402756 1.54654e-23)
(1.11349 -0.019121 1.44202e-20)
(1.11397 -0.0186108 5.81323e-21)
(1.11433 -0.0194207 -1.43403e-20)
(0.411198 -0.00711565 1.27728e-21)
(0.45718 -0.00216911 -3.03247e-22)
(0.177402 0.0478306 -8.78918e-21)
(0.207589 0.047426 0)
(0.209906 0.0462133 -5.0132e-22)
(0.215945 -0.00989348 1.79816e-21)
(0.213788 -0.0101891 9.65351e-22)
(0.229093 -0.00897683 -2.25777e-21)
(1.08346 0.0154656 -8.1193e-23)
(1.0836 0.0147674 1.0638e-22)
(1.08263 0.0149133 -2.30383e-22)
(1.0115 0.000435899 2.5651e-23)
(0.700159 0.0634853 -8.67024e-23)
(0.738435 0.0649345 -7.94279e-23)
(0.704772 0.0739912 9.81338e-22)
(1.00329 0.0176479 -7.16576e-22)
(1.00262 0.0172095 -2.35373e-22)
(0.672235 0.00400023 1.59158e-20)
(0.715664 0.00147362 1.63697e-20)
(1.03655 0.00941029 9.07832e-23)
(1.03593 0.00930753 -2.85491e-22)
(1.03653 0.00980148 -3.47156e-22)
(1.04511 -0.00826561 2.93341e-22)
(1.04589 -0.00852717 -8.64861e-22)
(1.04579 -0.00799173 1.34117e-21)
(1.00465 0.0235544 -8.37155e-23)
(1.00393 0.0229101 -2.11822e-23)
(1.00433 0.0228106 2.59843e-22)
(0.692568 0.00949126 0)
(0.654203 0.0121752 -4.08807e-21)
(0.908776 0.102768 -1.82442e-22)
(0.218071 0.0541624 1.52261e-20)
(0.234242 0.0533601 -5.29844e-21)
(0.190944 0.0508959 -3.61433e-21)
(1.05165 0.00578361 6.24809e-22)
(1.05216 0.00625558 0)
(1.08862 0.00743304 7.24509e-22)
(1.08775 0.0072599 -4.32058e-21)
(1.08816 0.00798716 -2.88059e-21)
(0.984497 6.53953e-05 0)
(0.984051 2.89244e-05 1.00369e-22)
(0.982394 -1.34904e-05 -9.63102e-23)
(1.04437 -0.00801127 2.99365e-22)
(1.04447 -0.00851075 1.53053e-23)
(0.565658 0.00566761 7.01244e-21)
(0.562335 0.00500598 -1.85279e-20)
(1.04762 0.0194732 3.28766e-22)
(1.04862 0.0198906 2.01374e-22)
(1.04793 0.0199761 3.30237e-22)
(1.00709 0.00189193 4.21483e-22)
(1.00772 0.00220673 -2.80396e-22)
(0.417775 0.0039394 0)
(0.412507 0.003383 8.48823e-23)
(0.398611 0.00266888 -6.63439e-21)
(0.986807 0.000251782 -1.75766e-22)
(0.986643 0.000256325 -8.72442e-25)
(0.989834 0.000126629 -1.74648e-22)
(0.986232 0.000515477 -5.48992e-23)
(0.986955 0.000433511 -1.10649e-22)
(1.03279 0.00414612 -1.93567e-22)
(1.03333 0.00434084 1.07098e-22)
(1.03287 0.00445908 1.26059e-23)
(0.473436 0.0329736 -6.32605e-21)
(0.483987 0.0319174 -5.42239e-21)
(0.455095 0.0326334 5.04758e-21)
(1.07307 0.01161 0)
(1.07268 0.0111914 -3.53192e-22)
(1.07224 0.011495 -3.37276e-22)
(0.695896 0.050035 0)
(0.309414 0.0458934 3.21677e-21)
(0.309058 0.046709 8.36724e-22)
(0.334558 0.0436024 1.40183e-20)
(0.837498 0.0144293 -2.32415e-21)
(0.897238 0.0159203 1.81929e-21)
(0.903257 0.0180137 4.89787e-23)
(0.184723 -0.0120448 3.88319e-21)
(0.19365 0.055176 -2.03344e-20)
(0.223369 0.0536165 -1.87416e-20)
(0.193509 0.0550657 6.92913e-21)
(0.981069 -0.000632076 3.51828e-24)
(0.981049 -0.000688912 -1.07736e-23)
(0.981122 -0.000736565 0)
(1.08322 0.0161255 -9.0742e-22)
(1.08429 0.0161384 8.20401e-23)
(1.04691 0.0159774 1.4416e-22)
(1.04756 0.0164084 6.26224e-23)
(1.04798 0.0161427 -4.19192e-23)
(0.45126 0.00256578 2.12807e-21)
(0.453515 0.00346197 2.9749e-21)
(0.431758 0.0021145 -1.73375e-21)
(1.07688 -0.0229779 7.24899e-21)
(0.294292 0.0447851 3.66995e-21)
(0.260848 0.0478298 -1.06466e-21)
(0.27145 0.0471277 -9.18197e-22)
(1.10409 0.00249127 1.35624e-21)
(1.10411 0.00206647 1.82308e-21)
(1.10464 0.00242929 3.63425e-23)
(0.985413 0.000108416 -1.06284e-24)
(0.983798 0.00018109 1.00103e-22)
(0.985873 7.31021e-05 -1.70849e-22)
(1.06029 -0.00801301 0)
(1.05927 -0.00787791 0)
(1.11335 0.00507202 5.36933e-21)
(1.09734 0.00684338 1.2494e-20)
(1.11293 0.00535098 5.82257e-21)
(1.09101 -0.0206303 1.60934e-21)
(1.09083 -0.0198648 -3.17813e-21)
(1.07385 0.0117037 0)
(1.07345 0.0119189 2.55961e-22)
(1.07179 -0.0200226 2.90616e-21)
(1.07082 -0.0197562 0)
(1.07169 -0.0192275 3.15061e-21)
(1.04586 0.0158212 4.75769e-23)
(1.05152 -2.77817e-05 -6.12638e-22)
(1.05232 4.79383e-05 -3.62198e-21)
(0.976017 0.0159641 -7.00883e-21)
(1.00506 0.0127365 3.20893e-21)
(0.958892 0.0183749 -1.12659e-20)
(1.11036 -0.0148613 1.50272e-20)
(1.07976 -0.0131841 -2.09743e-21)
(0.885558 0.0169676 2.26668e-21)
(0.819927 0.0194837 -4.2256e-22)
(1.05069 -6.69661e-05 1.51437e-21)
(1.05122 0.000332949 1.37885e-21)
(0.932537 0.0193958 -1.30494e-20)
(0.986867 0.0146566 -3.82778e-21)
(0.978671 0.000287124 1.63022e-23)
(0.978891 0.000156629 2.69052e-23)
(1.06115 0.0351261 3.13281e-22)
(1.06678 0.0356599 3.36926e-23)
(1.10361 0.00273674 4.26891e-21)
(1.10419 0.00307138 -4.51224e-21)
(1.11845 -0.0156227 -2.9898e-21)
(1.11826 -0.0164368 -9.05816e-22)
(1.10759 0.00472365 1.11546e-20)
(1.11955 0.00316379 -1.61371e-21)
(1.11842 0.00387636 5.50999e-21)
(0.304913 -0.0109074 -1.15516e-20)
(0.317815 -0.00737994 -9.07142e-21)
(0.307989 -0.00906982 4.64544e-21)
(1.01905 0.0193879 -3.18274e-22)
(1.01843 0.0186729 -1.39649e-22)
(0.250319 -0.0124592 0)
(0.261882 -0.0115543 -7.79301e-21)
(0.246875 -0.0130352 0)
(1.07898 -0.00181437 3.93761e-21)
(1.07945 -0.00137053 0)
(1.07851 -0.00137678 -1.08832e-21)
(0.472198 0.00438436 -5.04922e-21)
(0.467619 0.00442358 9.03253e-21)
(1.02269 0.0211186 6.82024e-22)
(1.02248 0.0205579 6.50205e-23)
(1.04662 0.0190417 -2.63061e-22)
(1.04729 0.0189485 -2.85557e-22)
(1.08097 0.0100903 -1.88726e-22)
(1.08151 0.00967752 1.19812e-22)
(1.0805 0.00944765 -1.44133e-21)
(0.268522 -0.0139249 -6.80411e-21)
(0.267979 -0.0135702 1.40615e-20)
(0.282006 -0.0127731 2.37027e-20)
(0.216275 -0.0103326 8.36727e-21)
(0.196844 -0.010696 -3.44235e-21)
(1.06642 0.00915943 0)
(1.06727 0.00931406 -4.98326e-22)
(1.06679 0.0096195 -2.36891e-22)
(0.531648 0.0118484 1.39825e-22)
(0.577883 0.0111897 2.88507e-21)
(0.526584 0.011411 5.22847e-22)
(1.07879 0.0142892 -2.91728e-22)
(1.0784 0.014021 -2.71322e-22)
(1.0784 0.0138738 -5.19393e-22)
(1.08902 0.0069105 1.93139e-21)
(1.004 0.0180916 -1.78417e-22)
(1.11393 0.00505245 1.95092e-21)
(1.05572 0.0121926 1.20315e-22)
(1.0568 0.0124224 1.64292e-22)
(1.0223 0.0122265 2.79317e-23)
(1.02173 0.0117154 -3.41731e-22)
(1.02166 0.0121715 -3.45999e-22)
(1.05826 0.0226233 1.65838e-22)
(1.05866 0.0223538 1.51542e-22)
(1.05828 0.023321 -6.04224e-22)
(1.05806 0.021727 2.73626e-22)
(1.05746 0.0231706 -5.94105e-22)
(0.246398 0.0522363 0)
(1.11268 -0.0189235 9.07254e-22)
(1.11306 -0.0195879 1.15097e-20)
(1.08445 0.0146506 -6.41472e-22)
(0.454524 0.0216495 7.50263e-21)
(0.451342 0.0230969 -2.27142e-22)
(0.473217 0.0222468 7.55061e-21)
(1.02368 0.00120691 -2.62075e-23)
(1.02258 0.00103945 0)
(1.02459 0.00114316 2.15108e-23)
(0.993364 0.00841339 4.48097e-24)
(0.993732 0.00873656 -2.08955e-22)
(0.993537 0.00824671 1.74449e-22)
(0.993197 0.00856513 -2.91429e-22)
(0.993028 0.00810244 1.96285e-22)
(0.19423 0.0550182 -1.0455e-22)
(1.04651 0.00934184 9.29191e-21)
(1.08743 0.00741586 1.24901e-20)
(1.07716 0.00855403 -3.45632e-21)
(0.891741 0.0221496 -5.15527e-21)
(0.848567 0.0242002 4.91419e-21)
(0.901208 0.0206693 0)
(1.03039 -0.00155796 2.6588e-23)
(1.03072 -0.00173787 7.66613e-24)
(1.03029 -0.00177282 -2.12198e-22)
(0.984787 2.17997e-05 1.79768e-23)
(0.988043 5.05687e-05 -7.71908e-23)
(0.366822 -0.0117084 0)
(0.375104 -0.0126424 0)
(0.253128 -0.012269 -1.05989e-20)
(0.993223 0.00725002 -3.47394e-22)
(0.993252 0.00746954 -4.22963e-22)
(0.993613 0.00755475 8.17313e-23)
(0.993242 0.00697324 -9.96447e-24)
(0.992852 0.00693756 -1.59151e-23)
(0.988833 0.000506324 -4.01073e-22)
(0.993816 0.000143142 1.41347e-21)
(0.993026 0.00872044 2.46841e-22)
(0.993387 0.00905034 1.55598e-22)
(0.992847 0.00886792 1.89618e-22)
(0.992706 0.00841509 9.75002e-23)
(0.315695 -0.00975898 -1.44534e-20)
(0.324892 -0.00818339 -5.37501e-21)
(0.268356 0.051323 7.77349e-21)
(0.262284 0.0517308 2.26733e-21)
(0.289462 0.0480313 1.77576e-20)
(1.0513 0.0134223 1.63815e-24)
(1.05035 0.0131874 -6.9534e-23)
(1.05093 0.0129554 2.65714e-23)
(0.980711 -0.000906481 0)
(0.98064 -0.00089295 -1.17434e-23)
(0.980676 -0.000765325 0)
(1.10839 -0.000671034 4.53022e-21)
(1.10779 -0.000130384 -3.3913e-22)
(1.10753 -0.000842113 -4.0207e-21)
(0.311496 -0.008992 -2.88563e-21)
(0.302201 -0.0102427 7.97252e-21)
(0.31433 -0.00876536 3.96676e-21)
(0.987887 0.000444117 -2.76286e-22)
(0.989128 0.000226772 2.44025e-22)
(0.988888 0.000231913 0)
(1.03048 -0.00137115 2.26439e-22)
(1.03014 -0.0014179 1.26034e-22)
(0.535914 0.00832408 1.73909e-21)
(0.479559 0.00670916 -8.64784e-23)
(0.668988 0.00435932 -2.68775e-21)
(0.664203 0.0045269 -7.06458e-21)
(0.706841 0.00266496 -7.52044e-21)
(1.02176 0.011003 -4.34226e-21)
(0.458638 0.0204243 0)
(0.439051 0.0206605 0)
(1.10654 0.00468465 3.93289e-21)
(1.10602 0.00487547 4.19465e-21)
(1.10622 0.00524473 1.21765e-20)
(1.03658 0.00908269 -8.77029e-24)
(1.03716 0.00952733 -3.37194e-22)
(0.254683 0.0516778 -9.41164e-21)
(0.253672 0.0510245 -2.90698e-21)
(1.10899 -0.000987597 9.61e-21)
(1.10904 -0.000224428 7.76089e-21)
(1.0826 0.0172178 1.70372e-22)
(1.0815 0.0169065 2.04264e-22)
(1.11239 -0.0114773 -2.30358e-20)
(1.11322 -0.0110785 5.19936e-21)
(1.11328 -0.0119718 -1.90596e-20)
(1.06557 0.00903703 -4.78257e-22)
(1.06603 0.00870089 3.33322e-22)
(0.27916 0.049723 0)
(1.04327 -0.0108644 1.05136e-21)
(1.04303 -0.0103637 0)
(1.04385 -0.0106457 0)
(1.09457 0.00236353 -9.99882e-22)
(1.09518 0.00264796 2.25622e-21)
(1.09512 0.00211155 -4.42069e-21)
(1.10364 0.001677 4.89684e-21)
(1.10315 0.00108103 2.87451e-21)
(1.1029 0.0016437 -2.94557e-21)
(1.05205 0.0143847 0)
(1.05162 0.0138214 2.9723e-23)
(1.05114 0.0141604 0)
(0.99267 3.26573e-06 1.58602e-22)
(1.06818 -0.00270829 -1.02323e-21)
(1.05754 0.0231716 -7.38918e-22)
(1.05667 0.0232488 -3.21268e-22)
(1.05734 0.0234757 3.1549e-22)
(1.01832 0.0219408 -2.6763e-22)
(1.01918 0.0222322 -3.02718e-22)
(1.01905 0.0226847 -7.70032e-22)
(0.2812 -0.0091809 -1.99221e-22)
(0.271888 -0.0103349 -9.58925e-21)
(0.268647 -0.0103268 -1.91305e-21)
(0.4896 -0.0539387 7.78515e-22)
(0.486487 -0.0361072 1.46618e-22)
(0.502232 -0.0455633 7.53613e-22)
(1.00645 0.0182849 -3.5619e-22)
(1.00668 0.0180068 1.7805e-22)
(1.00591 0.0176101 1.79642e-22)
(0.993508 0.00689753 -2.92081e-22)
(0.993185 0.00655001 -5.43698e-22)
(1.0493 0.0198268 -1.47351e-22)
(1.0496 0.020303 -6.84965e-22)
(0.993855 0.00722808 -1.03536e-22)
(0.993737 0.0068062 1.79791e-22)
(1.04354 -0.0113496 -3.56502e-22)
(1.02759 -0.000232337 -7.30287e-23)
(1.02095 -6.50807e-05 2.89933e-22)
(1.09409 -0.00574117 -2.80196e-21)
(1.09489 -0.00570997 3.81587e-21)
(1.09461 -0.0051246 -5.92052e-21)
(1.00625 0.0186052 3.93985e-23)
(1.00703 0.0190252 -7.67942e-22)
(0.217987 -0.00878085 2.58383e-20)
(0.2315 -0.00743005 6.57094e-21)
(0.355944 0.0307162 0)
(0.371261 0.0278861 0)
(1.04637 0.00149403 9.94937e-22)
(1.04583 0.00111765 1.21621e-21)
(1.04555 0.00153184 -6.2067e-22)
(1.05484 0.0226499 -2.46436e-22)
(1.05568 0.0228573 0)
(1.05532 0.0226057 -2.48527e-22)
(0.749945 0.0289808 4.84702e-21)
(0.757324 0.0265632 -8.76404e-21)
(0.701032 0.0294832 -3.71868e-21)
(0.988828 0.00704098 2.4125e-22)
(0.98867 0.0071631 -2.53502e-22)
(0.988554 0.00676433 0)
(1.10753 0.0123727 -1.01872e-21)
(1.10418 0.00980557 0)
(1.10632 0.0128599 -1.50836e-21)
(0.294025 -0.00780125 8.92359e-21)
(0.290617 -0.00796885 -5.50108e-21)
(0.988984 0.00692612 2.17707e-22)
(0.989118 0.00733799 -9.2624e-24)
(0.290807 -0.0113903 2.35808e-21)
(0.287541 -0.0116309 -9.43179e-21)
(1.01745 0.0216225 7.4471e-22)
(1.01759 0.0211868 0)
(0.49979 0.0324445 -9.7596e-21)
(0.468842 0.0335108 -4.82616e-21)
(0.985362 0.000112015 -1.10422e-24)
(0.988812 4.39901e-05 1.71623e-22)
(1.07094 0.0172506 1.98895e-23)
(1.07041 0.0178326 3.0195e-23)
(1.06967 0.0171133 -6.7081e-24)
(1.0526 0.0147531 2.98831e-23)
(1.05298 0.0144498 0)
(1.03538 0.0104483 1.05841e-22)
(1.03473 0.0104971 6.81536e-23)
(1.03461 0.0100918 -1.63369e-22)
(1.12358 -0.00180762 4.75886e-21)
(1.12533 -0.00351671 3.96424e-21)
(1.12497 -0.00344593 3.6062e-21)
(1.01504 0.00117663 -1.72202e-22)
(1.01533 0.00108469 -2.65348e-22)
(1.01226 0.000670268 -2.05656e-22)
(0.78166 0.0148471 -4.38327e-22)
(0.778625 0.0132942 -2.87476e-21)
(1.08327 0.00125101 3.98617e-21)
(1.08374 0.00177777 2.56399e-21)
(1.08278 0.00167945 2.53814e-21)
(1.0053 0.0241649 0)
(1.00481 0.0242536 0)
(0.642622 0.0166541 -6.75266e-22)
(0.635336 0.0128561 5.9402e-21)
(0.705962 0.0144348 -1.96793e-21)
(0.206188 -0.0097781 6.63631e-21)
(0.987441 0.000651411 -5.97211e-23)
(0.987196 0.000601501 -4.77622e-23)
(1.10297 -0.00613221 6.63301e-21)
(1.10386 -0.00623422 1.27876e-20)
(1.10309 -0.00690408 4.04684e-21)
(1.0578 0.0230678 6.84891e-22)
(1.05765 0.0230929 -9.04396e-23)
(1.05714 0.0230875 1.64487e-23)
(1.07279 0.00468089 -2.92609e-21)
(1.0732 0.00519361 -1.39758e-21)
(1.07214 0.00498311 -1.13502e-21)
(1.05794 0.0233187 -5.13315e-22)
(1.05769 0.0234456 -3.04343e-22)
(1.06929 0.00105031 -5.7124e-23)
(1.07012 0.000934723 -3.17353e-21)
(1.01798 0.0198898 -4.81427e-22)
(1.01785 0.0203114 -3.61266e-23)
(1.01714 0.0195801 -2.30853e-22)
(1.01605 0.00153844 2.49082e-22)
(1.01442 0.00112793 4.42117e-23)
(1.10974 0.00539319 9.31319e-22)
(1.09381 0.00632456 -3.60611e-21)
(1.11252 0.00548478 -4.06626e-21)
(1.05062 0.043575 3.85801e-22)
(1.04856 0.0451659 0)
(1.04849 0.0423508 4.42549e-22)
(1.09393 0.00184082 -3.59106e-21)
(1.09388 0.00247486 -4.25342e-21)
(1.06884 0.000580248 3.11579e-21)
(1.06846 0.00107357 1.21558e-21)
(1.03052 -0.00122065 -1.43865e-22)
(1.0303 -0.00108467 -1.74096e-22)
(1.03057 -0.00106398 -2.39385e-22)
(0.42319 0.00372102 2.46516e-21)
(0.43937 0.00417065 0)
(0.264643 -0.0148157 -2.26562e-20)
(0.245592 -0.0136249 -2.07118e-20)
(1.02632 0.0164351 2.50718e-22)
(1.02559 0.0163564 1.83337e-22)
(1.02557 0.0158376 6.41345e-22)
(0.982605 0.00704296 1.72798e-22)
(0.982664 0.00687177 0)
(0.982658 0.00688616 8.659e-23)
(1.07341 0.00442964 -1.21943e-21)
(1.04956 -0.00752776 -1.83146e-24)
(1.05823 -0.0085225 2.80643e-21)
(1.06142 -0.00190093 -1.99673e-21)
(1.11925 -0.0237945 4.59491e-21)
(1.12017 -0.0240568 1.50731e-20)
(1.11912 -0.0241692 5.65443e-21)
(0.380325 0.0215034 1.3691e-23)
(0.372121 0.0191807 -6.56597e-21)
(0.3646 0.0215967 2.66196e-21)
(0.313807 0.0436133 -7.51759e-21)
(0.325784 0.0417292 4.91233e-21)
(0.973709 0.00536164 -3.06742e-24)
(0.974869 0.00524529 -2.11559e-23)
(0.974757 0.0061959 1.36795e-22)
(0.986737 0.0136533 -2.2635e-21)
(0.999975 0.0114318 -1.89363e-21)
(1.05397 0.0224622 -2.45197e-22)
(1.05436 0.0228004 -6.18147e-23)
(0.72425 0.00400512 7.51128e-21)
(0.692723 0.00518511 -7.79e-21)
(1.01445 -0.00807791 1.13359e-21)
(1.03798 -0.00368428 0)
(1.04009 -0.0139539 -2.43431e-22)
(1.08083 -0.0181304 1.07075e-22)
(1.02625 8.16363e-05 0)
(1.01909 -7.36576e-05 0)
(1.07216 0.0173847 2.56959e-23)
(1.07295 0.0181988 2.43658e-23)
(0.593796 0.00914712 3.48347e-21)
(1.04814 0.0179433 -2.31018e-22)
(1.04782 0.0174305 1.59321e-22)
(1.04883 0.0179014 -4.41798e-23)
(1.07951 0.0111123 -1.01337e-21)
(1.08055 0.0105781 -4.01267e-22)
(1.11765 -0.0152019 2.32711e-22)
(1.11861 -0.0146875 -2.8039e-21)
(0.991037 0.00048284 -8.60505e-22)
(0.990998 0.000438974 2.58322e-22)
(0.992747 0.000225961 1.25819e-22)
(0.468022 0.00339974 2.92253e-21)
(0.446037 0.00220147 2.10137e-21)
(1.03004 0.00103085 -9.45884e-23)
(1.03011 0.0011801 -1.89515e-22)
(1.02993 0.00118401 -2.02582e-22)
(1.09881 -0.0257875 4.07476e-21)
(1.09963 -0.0262374 6.20968e-21)
(0.986262 0.00774353 4.49053e-25)
(0.985983 0.00745123 0)
(0.98607 0.00781489 0)
(0.22698 0.00373989 5.43961e-21)
(0.234905 -0.00138415 -1.66491e-20)
(1.01994 0.00634941 -1.32623e-22)
(1.01945 0.00625659 0)
(1.01957 0.00590183 2.54717e-22)
(1.09348 0.00146912 -2.11582e-21)
(1.09278 0.00156048 -5.29477e-22)
(1.093 0.00103361 -2.20206e-21)
(1.07909 0.0146792 7.14576e-23)
(1.07921 0.0144009 2.47655e-22)
(0.972608 0.00488708 -1.99451e-23)
(0.973594 0.00409309 6.54617e-24)
(0.990601 0.000717634 -2.91395e-22)
(0.991117 0.000495824 -3.09539e-22)
(1.11336 -0.0127356 -2.04909e-21)
(1.11347 -0.0134992 8.87381e-21)
(1.1126 -0.0131537 5.21384e-21)
(0.697531 0.00223398 4.26828e-21)
(0.737994 0.00110393 -1.34306e-20)
(0.700815 0.00191933 -1.22044e-20)
(1.05739 0.00683527 -4.97733e-24)
(1.05788 0.00729025 -1.79384e-22)
(1.05678 0.00707883 2.28521e-22)
(1.04843 0.0184027 0)
(1.04743 0.0179423 0)
(0.374713 -0.00163682 -4.38073e-21)
(0.377795 -0.000825107 1.94859e-21)
(0.687177 0.00491733 4.84285e-21)
(0.69395 0.00332864 1.62443e-20)
(0.730907 0.00205913 1.6951e-20)
(0.480711 0.0363815 -1.36944e-20)
(0.502252 0.0346951 -6.18777e-21)
(0.466322 0.0379719 3.19831e-21)
(0.548365 0.0522909 1.46842e-21)
(0.500529 0.047276 -1.42689e-21)
(0.989182 0.00684331 -1.55308e-23)
(0.988845 0.00654135 -1.42071e-22)
(1.05176 0.0120094 1.53368e-22)
(1.05081 0.0117987 0)
(1.05137 0.0115609 9.73494e-23)
(0.659759 0.00490333 0)
(0.655555 0.00528632 -9.03167e-21)
(0.69791 0.00327353 8.03392e-21)
(1.02206 0.0107786 9.48764e-22)
(0.962338 0.0164313 -1.07833e-21)
(0.989501 0.007171 4.34049e-23)
(0.989404 0.00681333 1.10275e-22)
(1.05832 0.0231088 -1.11272e-21)
(1.05098 0.00268564 5.7553e-23)
(1.05183 0.00273127 -1.89228e-21)
(1.05131 0.00301913 1.06315e-22)
(1.09201 0.0170436 4.80111e-21)
(1.09254 0.0180097 -8.71373e-22)
(1.09341 0.0171822 1.6121e-21)
(1.09412 0.00133233 -1.7535e-22)
(1.11591 0.00141639 4.69515e-21)
(1.11558 0.000500131 4.68885e-21)
(1.11473 0.00102676 0)
(1.10435 0.00576188 0)
(1.1039 0.00568763 -2.3872e-21)
(1.10404 0.00556326 0)
(1.10732 0.013262 2.21911e-21)
(1.10719 0.0146618 -1.37793e-21)
(1.09886 -0.0236992 -1.90217e-21)
(1.09894 -0.0231749 -5.85606e-22)
(1.09963 -0.0236787 -1.78779e-22)
(0.344724 -0.00259952 -7.89241e-21)
(0.332958 -0.00523398 0)
(0.34168 -0.00401116 0)
(1.03006 0.0172176 -1.11926e-22)
(1.02991 0.0166576 -6.67281e-25)
(1.05804 0.00659161 1.74466e-22)
(1.05691 0.00639082 1.61047e-22)
(1.0583 0.0238501 3.23989e-22)
(1.05842 0.0244837 0)
(1.09091 -0.00298584 1.58827e-21)
(1.103 -0.00505434 1.87042e-20)
(1.06306 -0.00236811 6.31917e-21)
(0.9895 0.000346562 -2.21415e-22)
(0.991946 0.000125532 -2.88764e-22)
(0.989488 0.000338657 -2.91603e-24)
(0.28567 -0.0133152 -2.5383e-21)
(1.09877 -0.0244075 -6.93004e-21)
(1.09804 -0.0238177 -1.51987e-24)
(0.944806 0.0659472 6.58362e-24)
(0.95191 0.0617683 0)
(1.05357 0.00589134 2.77526e-22)
(1.05375 0.00553134 -5.12353e-22)
(1.09589 0.00734614 0)
(1.06812 0.00688523 2.89694e-21)