/*--------------------------------*- C++ -*----------------------------------*\
| =========                 |                                                 |
| \\      /  F ield         | OpenFOAM: The Open Source CFD Toolbox           |
|  \\    /   O peration     | Version:  v2012                                 |
|   \\  /    A nd           | Website:  www.openfoam.com                      |
|    \\/     M anipulation  |                                                 |
\*---------------------------------------------------------------------------*/
FoamFile
{
    version     2.0;
    format      ascii;
    class       surfaceScalarField;
    location    "300";
    object      meshPhi;
}
// * * * * * * * * * * * * * * * * * * * * * * * * * * * * * * * * * * * * * //

dimensions      [0 3 -1 0 0 0 0];
oriented        oriented;


internalField   nonuniform List<scalar> 
20642
(
-2.98601e-12
-1.39768e-13
9.02752e-12
-2.54163e-11
3.01038e-11
-2.14566e-11
1.1785e-11
8.3272e-12
4.25031e-12
-8.60359e-12
7.98439e-11
-6.13549e-11
-1.1318e-10
9.3044e-11
-1.69019e-11
-3.52579e-11
1.53897e-11
5.94387e-12
6.30459e-11
8.33679e-13
2.72e-11
2.20937e-11
-1.78893e-11
2.76822e-11
7.54847e-12
-2.53859e-11
6.10138e-06
-2.23348e-11
-1.23358e-11
-1.20266e-12
1.24572e-10
-8.75624e-11
-2.67802e-11
-1.22735e-09
-3.28163e-10
-1.51283e-11
-5.28587e-12
-6.84834e-13
-6.76151e-11
8.29644e-11
-1.3653e-11
-2.8089e-13
5.23457e-13
-2.72353e-11
-3.73397e-11
2.24087e-10
3.07818e-11
-1.91569e-12
-3.08766e-11
-1.53079e-11
9.02877e-12
1.40436e-12
9.92166e-14
-1.01166e-12
-7.44713e-13
-9.64322e-11
5.2912e-11
7.71162e-12
-5.41364e-11
1.39996e-10
4.51699e-10
3.65601e-11
6.91906e-11
1.27236e-10
3.19841e-10
2.94692e-10
-1.59677e-10
-2.94372e-11
2.69274e-11
4.19573e-11
-1.15385e-11
-4.95466e-11
8.41888e-12
9.06211e-12
-5.64198e-13
5.56193e-06
4.0233e-11
4.75234e-12
1.80556e-11
-9.51432e-14
-6.97471e-11
6.46748e-11
5.53275e-06
-1.6753e-11
9.84142e-12
-9.27245e-12
1.60547e-11
2.25019e-10
-5.21481e-11
-2.35385e-11
1.43369e-12
-5.37459e-13
-6.11004e-13
5.78232e-12
8.64154e-11
2.80716e-10
1.15175e-12
2.76995e-11
1.22712e-10
-1.02548e-11
4.16293e-11
4.94772e-10
-2.03099e-09
5.11449e-10
7.66659e-11
-1.17565e-11
-1.98691e-11
1.08356e-10
1.44878e-11
-9.10626e-12
-4.01486e-11
1.65409e-10
-9.11758e-11
1.31053e-10
-2.94593e-11
-5.84248e-11
8.78018e-12
2.88787e-10
9.85643e-12
4.98275e-12
3.3184e-11
-5.85514e-12
3.26939e-11
1.06023e-11
2.43557e-12
1.15984e-11
1.31369e-12
-1.83601e-11
8.76757e-13
4.52638e-12
-3.20073e-12
3.23153e-12
3.81698e-11
-2.21772e-11
-2.11531e-11
3.23339e-10
6.76251e-12
1.90613e-10
-5.64189e-12
-1.07089e-11
-6.17066e-12
-3.90477e-06
-5.31888e-13
-1.10712e-06
-8.42756e-11
1.4003e-10
1.25528e-11
3.17934e-10
3.42951e-12
-1.99943e-11
-1.76173e-11
9.07164e-13
4.92759e-06
4.25511e-11
2.05575e-10
-1.15717e-10
6.03774e-11
1.26172e-11
1.8934e-11
6.91689e-13
3.32356e-12
2.84387e-12
3.71327e-11
1.55467e-10
-1.42972e-10
1.19306e-12
1.37699e-13
-4.50626e-12
-1.53942e-11
-7.98818e-11
-5.22328e-12
-2.61817e-13
-2.07896e-13
4.18632e-11
-1.69105e-11
1.08444e-11
-1.58417e-11
2.38441e-11
-3.29062e-11
-1.19183e-13
-2.01912e-12
-1.93179e-11
5.07903e-13
7.09749e-14
1.75608e-13
-1.88007e-12
3.68765e-12
8.90457e-12
6.78621e-13
2.74315e-13
1.48648e-10
-4.15002e-11
-1.79165e-11
-1.40482e-10
-4.4365e-11
4.0775e-11
-2.19189e-11
2.10722e-11
-8.46171e-11
-2.76707e-11
-5.22204e-11
1.07706e-10
-4.60804e-11
-2.54604e-10
5.64595e-11
3.50001e-11
1.70215e-11
5.69528e-11
2.51028e-11
8.8027e-11
6.32236e-11
3.36247e-12
-9.12479e-11
-3.12673e-11
2.79495e-10
3.36969e-11
2.95065e-10
9.27459e-12
2.67411e-12
-3.4947e-12
1.94976e-09
-5.62557e-10
-4.84605e-10
-1.78825e-11
-1.96668e-11
2.53879e-11
3.0595e-12
-1.57366e-11
-9.15004e-10
-1.90205e-09
1.1878e-09
1.1929e-10
2.5947e-12
6.71281e-11
-5.67e-11
7.63831e-11
2.33275e-10
-4.4054e-10
9.17252e-11
-6.50798e-12
2.51257e-11
-6.87427e-11
3.43776e-10
-2.48684e-10
1.56166e-12
2.73971e-11
-2.75914e-11
8.18891e-12
2.46703e-11
8.00377e-12
-2.99291e-11
-4.76323e-10
-2.56738e-10
4.56098e-10
-2.46821e-09
3.03923e-10
2.94893e-11
-2.6867e-11
1.49947e-11
-1.48335e-11
-9.35207e-12
1.89661e-11
1.64551e-12
-1.0853e-11
3.48362e-10
-5.72062e-11
-7.00945e-10
-5.60327e-11
4.82898e-10
-7.49097e-11
4.52271e-11
9.15516e-12
3.64691e-13
1.92782e-13
-3.83617e-12
1.67027e-12
1.52136e-12
-3.5033e-11
1.74665e-10
4.22679e-11
5.63642e-11
-2.0163e-12
1.06994e-11
6.12701e-12
-6.50138e-10
6.02035e-14
1.66643e-13
6.01266e-11
-9.55728e-12
-2.18858e-13
-5.94614e-12
1.31324e-11
8.04695e-11
1.91963e-10
2.09763e-12
-3.98759e-12
5.61404e-11
-2.07671e-10
7.69392e-13
-3.0867e-12
-2.74163e-12
5.02292e-12
2.64632e-11
-2.01454e-10
1.12772e-10
1.44123e-10
4.28524e-11
2.77122e-10
-8.96163e-11
-1.3288e-10
6.50704e-12
-4.28932e-12
6.98738e-12
4.56948e-12
6.27535e-12
-2.19158e-13
1.5925e-12
1.1037e-12
-2.48304e-12
4.83548e-12
1.5546e-11
-3.24963e-11
-3.75107e-11
6.2923e-12
1.83567e-11
-6.80643e-11
-2.09529e-11
1.54967e-10
-3.06688e-12
2.78683e-11
-3.08019e-11
-3.58807e-11
-1.13253e-11
-1.38267e-12
-2.35475e-12
1.58406e-11
-6.78994e-13
1.72518e-12
1.07891e-12
1.09277e-10
1.93213e-10
-2.98531e-11
-5.51504e-12
8.34911e-12
3.49085e-12
-3.28193e-13
1.30581e-13
1.04051e-11
-1.65151e-12
1.34546e-12
2.39083e-13
-2.59675e-12
2.98421e-11
-6.66653e-12
-6.0226e-11
-6.07433e-10
6.40619e-12
-5.78838e-12
7.34517e-12
-9.45696e-11
-1.61827e-10
1.63463e-13
8.87382e-12
8.05888e-11
-3.21511e-10
5.4126e-10
1.49498e-10
-6.01273e-11
9.27786e-12
1.68197e-10
1.19663e-11
-1.76941e-10
3.98207e-12
6.09712e-12
-2.9244e-11
-4.13352e-12
2.43113e-13
1.75146e-12
-1.9835e-11
2.21522e-10
-7.54183e-11
2.24388e-11
-2.67493e-12
3.19309e-11
8.77134e-12
1.19958e-11
1.4072e-10
4.771e-11
-1.31732e-12
2.78357e-11
-4.51188e-11
9.56521e-11
9.19805e-12
5.06915e-11
-7.70174e-10
-1.63897e-12
-1.23773e-13
3.424e-13
-4.31262e-11
-6.54447e-11
1.57221e-10
7.67248e-12
-2.55098e-12
1.26424e-11
4.20769e-10
1.25679e-10
-5.53591e-12
-1.73906e-12
8.64803e-12
7.78046e-11
7.26046e-12
-7.31695e-11
-1.96002e-11
-1.80885e-12
1.2937e-12
6.88237e-13
3.05395e-11
-1.93173e-11
-3.70305e-11
3.58338e-07
2.32355e-12
-1.93208e-12
-5.17356e-13
2.74426e-11
-1.32195e-11
-1.55383e-12
4.94355e-12
-2.68879e-12
-6.04561e-10
4.39764e-11
3.52253e-10
-2.35808e-13
-7.20303e-13
2.04885e-13
6.11286e-11
-2.23534e-12
-7.2318e-13
9.24774e-12
7.93267e-12
-1.87032e-11
1.30228e-11
-2.12022e-12
9.38396e-11
-3.4983e-11
6.91618e-12
-7.49286e-12
2.45357e-12
2.09795e-11
-5.00076e-12
-8.5627e-12
4.81898e-11
2.44281e-13
4.35296e-11
-9.18025e-11
2.84489e-10
-5.64412e-12
7.698e-11
1.15436e-10
-4.75153e-11
5.26758e-12
-1.63265e-13
3.84909e-12
-3.02693e-12
2.35575e-12
6.85521e-12
9.21099e-12
1.84783e-10
-1.92317e-11
1.19349e-11
-1.48325e-12
-5.70287e-11
5.12062e-11
-3.297e-11
-9.96136e-13
-1.85548e-11
2.03383e-11
-3.03859e-12
3.31641e-11
5.92855e-12
-4.99907e-12
-3.924e-12
5.8609e-13
1.17366e-12
2.42562e-12
3.96718e-10
-4.44905e-10
3.89247e-13
-1.06285e-12
6.43143e-13
-1.41827e-11
8.43639e-11
1.73049e-11
-9.5071e-14
-2.96318e-13
-1.26355e-11
6.88507e-11
7.2435e-11
-4.79763e-13
-1.52712e-11
-4.2002e-11
2.23394e-11
-5.97399e-13
-2.41049e-14
1.54001e-12
-3.77453e-13
-1.77931e-13
6.21258e-11
-2.92803e-11
-8.246e-12
-4.49591e-12
-2.78038e-11
2.26509e-11
4.36328e-11
-1.58967e-11
-1.20896e-11
1.20996e-11
1.74339e-10
2.58373e-12
-6.13337e-11
2.60163e-10
3.43106e-10
-7.7927e-10
1.03299e-10
-9.4635e-12
-1.77993e-11
1.84087e-11
3.23273e-11
-1.58191e-11
-6.19825e-13
1.10559e-11
-5.56373e-12
9.96801e-13
1.15288e-12
1.41553e-12
-7.8588e-13
-7.12151e-10
1.52141e-09
-9.13396e-10
3.69795e-12
3.16553e-10
2.17712e-10
-2.22776e-12
4.88232e-10
3.86025e-12
5.82184e-12
-1.51382e-12
1.40064e-12
-2.38855e-12
1.62909e-11
-3.79875e-12
1.24539e-09
-1.40389e-09
1.34284e-10
-5.77425e-13
-1.24688e-12
3.63385e-12
1.7158e-11
-1.67775e-13
-2.23853e-11
-2.24536e-10
-9.62874e-11
8.11014e-12
2.96224e-11
7.01668e-11
1.92092e-11
-3.8783e-12
4.83972e-10
8.05045e-11
4.25687e-10
-7.63756e-13
-2.11662e-13
3.20554e-12
-2.99838e-12
-8.63038e-13
2.55432e-10
-1.7721e-10
-9.35916e-11
2.06036e-11
-1.90465e-11
6.21385e-12
2.43226e-11
6.19587e-12
-5.00064e-11
1.11265e-13
1.52382e-13
-6.45069e-14
1.11548e-10
3.25816e-11
-1.07467e-11
-2.82316e-10
1.90842e-09
-4.67515e-12
8.53898e-12
9.41267e-13
3.43323e-14
-2.13973e-12
9.2079e-13
-3.72408e-14
4.14847e-12
-2.30841e-12
-2.75985e-12
-1.42588e-12
2.06723e-12
2.95092e-10
3.50594e-12
-3.724e-12
-8.28799e-12
1.57432e-11
5.28875e-12
4.09951e-11
-3.23688e-11
2.51855e-11
7.20107e-13
1.72939e-11
1.50428e-11
7.14189e-13
-3.31566e-11
9.98344e-11
-2.23838e-10
4.93775e-11
-2.39768e-11
-1.71462e-11
1.30882e-11
-3.43731e-12
-6.87229e-12
-3.10896e-12
-8.41437e-11
-8.37792e-11
8.6297e-12
2.05746e-11
3.03519e-11
-7.59799e-11
1.02751e-11
-1.4094e-10
-4.61914e-11
1.42243e-10
4.79539e-13
3.66152e-13
8.06729e-14
1.7764e-12
4.17731e-12
-6.09256e-12
1.06189e-10
-4.75377e-11
-1.01429e-10
1.06491e-11
-2.27309e-11
-2.71557e-11
1.32605e-10
6.08218e-11
-8.18662e-11
-3.37879e-10
-4.3793e-09
8.20604e-10
6.87936e-11
1.71463e-11
1.102e-11
7.96311e-11
9.42025e-11
5.19716e-13
-3.41448e-13
-2.47124e-12
-2.04975e-12
3.05238e-10
-6.70014e-11
-1.52261e-10
-1.1625e-10
1.08354e-10
-2.6117e-11
2.45671e-12
3.83051e-13
1.37442e-11
-5.1733e-12
1.58179e-10
2.13476e-10
1.51079e-11
2.5568e-11
-4.1167e-12
2.02548e-14
3.16308e-13
-2.03408e-11
3.51472e-10
2.6705e-13
1.08192e-13
5.4846e-11
-2.01026e-10
-1.88715e-12
-1.18609e-12
-1.28328e-11
5.19894e-11
5.75706e-11
1.00691e-12
-9.49216e-12
-2.81973e-11
-2.94978e-11
3.87175e-10
5.36615e-11
-5.68716e-10
-4.65534e-12
-7.74857e-12
-1.96641e-12
-7.62809e-10
-4.03173e-10
9.67125e-10
9.4736e-12
2.55391e-12
1.06329e-11
6.32959e-11
7.62243e-11
-5.55553e-12
9.49524e-11
3.14751e-11
5.68992e-12
1.14646e-11
1.15924e-12
-3.29257e-11
1.10869e-11
9.91177e-12
5.53723e-11
-1.11089e-11
4.40846e-11
4.40488e-12
-2.91928e-11
-6.60202e-13
1.05956e-11
1.16862e-10
1.7693e-11
-6.01095e-11
1.07062e-10
-6.26858e-11
-7.76503e-11
2.86589e-10
-1.58038e-10
-1.19906e-09
4.08788e-10
-9.7385e-13
4.28639e-11
8.6149e-13
-1.73434e-11
8.41549e-11
-1.91863e-11
1.93945e-11
1.89802e-11
1.4344e-11
8.86625e-12
-1.30981e-09
2.13469e-09
-5.08514e-10
5.90021e-13
-1.64518e-12
-1.50598e-13
-2.81453e-13
-1.02688e-10
-1.90594e-11
1.74391e-10
8.64891e-12
1.9995e-11
8.3366e-11
2.05635e-10
3.09688e-11
8.44277e-12
-4.59717e-11
8.06501e-12
7.87351e-12
3.63482e-12
-2.08892e-12
1.08904e-12
1.31036e-12
4.74839e-12
-3.8309e-12
3.26077e-11
1.62166e-11
1.27296e-10
-2.03543e-12
1.33069e-11
-1.73005e-10
4.16498e-11
7.60634e-13
-2.22967e-13
3.7496e-11
-1.10511e-11
-4.94288e-13
1.94853e-11
-1.67148e-09
2.56036e-10
-8.69654e-11
5.63258e-12
1.86507e-11
1.73088e-11
-1.58145e-10
2.90068e-10
-9.27932e-12
2.40196e-11
2.23251e-12
3.34097e-11
-2.52833e-10
-7.82094e-11
2.56941e-10
-4.17385e-13
-2.01492e-13
2.99853e-09
-1.48971e-09
-9.77821e-10
6.51148e-13
-8.9477e-12
-5.37811e-12
3.69445e-11
4.80421e-11
-1.7261e-12
4.0379e-12
4.7273e-10
1.0929e-10
-3.45413e-10
6.03937e-12
-2.05203e-11
-3.49434e-11
4.74823e-11
-1.67872e-11
3.09296e-11
-2.06586e-11
-2.59794e-10
4.00465e-11
-1.80084e-12
2.14033e-12
-7.57131e-12
2.78276e-13
6.83457e-12
1.91686e-12
-2.6659e-11
1.28748e-10
1.96027e-11
2.35068e-10
-3.57752e-11
-2.40556e-14
5.68917e-13
-4.22056e-12
-1.83852e-13
1.60893e-11
-2.75765e-12
-4.83792e-13
8.39079e-12
-2.00432e-12
-2.19608e-11
9.85961e-12
1.9175e-10
7.37718e-11
-7.15397e-11
-5.67457e-11
1.4732e-12
1.32879e-12
-1.06872e-12
-5.05905e-12
1.20459e-11
2.92898e-10
-6.62386e-11
1.6475e-10
9.5947e-11
-1.07732e-10
-1.0729e-11
-6.97807e-11
3.52707e-11
6.67741e-12
-6.80282e-12
1.83462e-11
-5.4743e-12
-7.25073e-12
2.35364e-11
-1.88483e-11
-4.57741e-12
-7.56019e-12
7.50039e-12
1.05848e-11
8.69157e-13
-2.18146e-11
-1.01935e-12
6.53784e-13
1.92704e-13
-6.53469e-11
2.19384e-12
5.11847e-11
9.46237e-11
4.09196e-11
-1.1026e-11
-2.19116e-12
-9.41045e-13
1.44864e-11
-1.40461e-10
1.12535e-10
4.24392e-11
4.85651e-12
-1.33061e-11
1.70937e-11
1.74832e-11
-6.58385e-11
2.13067e-12
-9.3461e-11
1.49829e-12
1.40639e-11
-2.43749e-12
3.7878e-11
8.54019e-11
5.12028e-12
-9.07549e-12
9.37022e-12
4.0732e-11
7.67082e-11
-1.60597e-10
1.50724e-11
2.39733e-11
1.76179e-11
-8.27115e-12
1.22228e-10
5.04287e-11
-1.79407e-12
-3.53035e-12
5.2212e-12
6.80274e-11
5.42696e-12
-3.3007e-11
-1.7394e-12
8.66069e-13
6.21559e-12
7.18307e-11
-6.48434e-11
-4.13211e-12
-9.90215e-12
1.43038e-10
3.4044e-11
5.47113e-11
-1.01602e-10
-7.51387e-11
1.59477e-10
-5.62344e-11
-1.52138e-10
-1.4315e-12
-3.58543e-13
5.12077e-11
-5.64891e-12
6.10106e-11
-2.57956e-11
1.40453e-11
1.02936e-11
-1.82816e-13
-1.89566e-12
2.54396e-11
4.87821e-12
-1.41201e-11
1.88761e-11
3.6397e-11
3.57124e-12
4.72008e-12
1.43256e-15
1.37547e-11
-3.52203e-12
4.20907e-13
-3.08124e-11
-1.25682e-11
-5.86281e-12
-1.52204e-12
-1.10989e-11
-3.40707e-11
2.57046e-11
6.65885e-12
2.62785e-11
2.9113e-11
3.2141e-12
2.22692e-10
-7.98803e-12
6.28327e-11
-3.67359e-11
-1.31755e-11
-4.72839e-11
-3.75494e-10
5.74699e-10
1.03971e-10
5.82751e-13
1.33191e-10
1.19868e-10
8.03202e-11
-1.62208e-11
1.33319e-10
-3.79516e-11
6.54659e-12
9.6276e-11
1.00368e-11
8.25688e-11
-3.5229e-11
-4.24858e-11
2.60816e-10
-1.7578e-10
4.33658e-11
-7.77362e-11
4.16454e-11
-5.93974e-11
1.43432e-11
2.01366e-11
3.76832e-11
-5.60338e-11
-9.72464e-12
8.45584e-11
2.35394e-10
2.42101e-12
2.15729e-11
6.31249e-12
4.50391e-11
-1.9755e-12
3.55908e-12
-3.35669e-11
1.21614e-10
-5.52557e-12
8.71687e-11
-5.50882e-12
9.78897e-13
3.58987e-12
-1.9576e-12
8.17526e-13
9.26118e-13
-6.96553e-11
-1.36511e-11
4.00352e-12
-3.87601e-12
-2.13708e-12
6.94584e-13
-1.21525e-10
1.24634e-11
1.20539e-10
1.29598e-11
-6.51988e-12
1.26067e-10
2.35509e-11
-9.1449e-12
1.41013e-12
1.88849e-11
6.42819e-11
3.0998e-10
5.47364e-11
1.22909e-10
-8.35947e-12
-2.75687e-11
-3.33649e-11
2.84303e-12
-3.96201e-12
-2.8462e-14
3.09401e-11
-2.16751e-12
-6.91172e-12
1.70388e-12
2.81079e-12
-9.03268e-14
3.78362e-13
-1.223e-11
7.4731e-12
-8.38807e-11
1.31317e-10
-2.33265e-11
2.38844e-10
-3.3104e-13
7.40225e-12
4.65509e-11
-7.46999e-11
4.4814e-13
1.7821e-12
-1.20776e-11
1.15654e-10
1.00498e-10
2.71346e-10
-4.8744e-10
4.90465e-10
-2.07745e-11
6.44051e-11
8.19064e-12
1.84938e-10
-9.78829e-12
2.01532e-10
-2.05827e-11
1.6164e-10
3.87303e-11
-2.59699e-12
-2.39717e-12
1.42931e-11
1.28729e-11
-3.70786e-11
-1.09666e-12
7.73807e-10
-3.76308e-10
-3.6485e-11
-1.6286e-11
-2.4489e-12
6.18253e-11
5.13766e-12
-4.00635e-11
-4.86914e-11
2.08198e-11
-1.92882e-12
-7.2245e-12
-1.64429e-12
5.36193e-12
6.52754e-11
2.64673e-11
3.1958e-12
-6.19657e-12
-4.19725e-12
-4.98703e-10
2.04126e-10
-1.7083e-11
6.47234e-11
-1.22571e-09
1.27382e-09
6.24059e-11
-1.08971e-10
1.24655e-10
3.37626e-11
-3.24458e-10
-1.67752e-10
4.65041e-10
1.8943e-09
8.1638e-10
-1.96619e-09
3.46097e-12
4.11111e-12
3.37788e-11
-3.84343e-10
7.68619e-12
4.82946e-11
9.76354e-12
5.23843e-13
-2.10933e-12
6.62147e-10
-1.85134e-10
3.15485e-10
-2.78501e-11
7.13581e-12
-1.4952e-12
1.56868e-11
3.22778e-11
-1.30102e-13
-6.68013e-12
4.39215e-12
1.11839e-10
1.19738e-10
-8.07499e-11
5.45506e-12
-4.66219e-11
2.52012e-12
-2.51424e-11
-2.23418e-11
2.82076e-11
2.9674e-10
1.22856e-10
7.54284e-11
-1.6899e-11
-8.57595e-12
4.74023e-12
-1.79716e-12
6.10922e-13
-3.56582e-10
3.74861e-10
5.83804e-11
2.79332e-11
1.10771e-10
-2.2488e-11
-2.92195e-11
3.32494e-11
8.69075e-11
-1.25929e-11
-3.21278e-11
-1.02588e-11
2.07883e-12
3.96927e-12
-6.14398e-12
5.74671e-12
-4.33575e-12
1.14292e-10
-1.27188e-10
-4.92503e-11
3.30809e-11
4.04753e-11
-7.6353e-12
-9.2134e-12
2.99043e-11
-4.24016e-12
-1.58524e-11
4.76841e-11
8.41256e-11
-5.24721e-12
-1.04447e-11
4.09532e-11
2.13636e-11
-6.73551e-11
1.0344e-10
4.51271e-11
1.65991e-12
1.05384e-12
-3.07267e-12
4.45431e-10
2.46539e-12
-3.13758e-12
5.96499e-12
5.73299e-12
1.31385e-10
1.47989e-11
9.91502e-11
4.06872e-14
-3.71553e-13
-1.0193e-13
-4.33891e-10
5.90406e-10
-2.39482e-10
3.40906e-10
-1.06691e-11
-1.04271e-11
-1.09702e-10
2.64841e-10
1.05199e-09
-1.57185e-09
1.01327e-11
1.43344e-11
2.48518e-12
-2.09619e-12
-6.30039e-12
-4.94928e-12
-1.52308e-12
1.17479e-10
-1.24607e-11
-2.20795e-11
6.56315e-11
-8.68953e-11
1.07165e-10
-7.89804e-11
-3.36574e-11
-1.37956e-12
6.75046e-12
-4.67058e-12
5.25317e-12
-2.35104e-12
-4.77554e-12
-1.59898e-10
7.68903e-11
1.06984e-10
2.66504e-10
-9.06039e-11
7.0453e-11
3.75105e-11
1.87511e-11
-6.07903e-12
-7.84222e-12
-7.11578e-12
1.58439e-11
-8.24945e-12
-1.45685e-11
-1.48239e-11
1.51116e-10
4.06305e-11
1.04662e-10
1.08631e-12
6.64854e-11
4.51627e-11
-1.42986e-10
-5.55003e-12
-3.52772e-11
-5.76835e-11
1.29625e-11
1.31323e-11
-4.75379e-11
-1.12466e-10
-8.25607e-12
3.23009e-12
1.6077e-11
1.16127e-10
2.58972e-10
-3.23559e-10
-4.96438e-12
-2.57191e-11
-8.13987e-13
1.60435e-12
-7.68381e-13
-1.00641e-12
3.64583e-10
-4.9966e-10
9.73028e-12
-8.61225e-12
-3.87757e-11
1.70145e-10
-1.60937e-10
7.4687e-11
5.77872e-12
1.79974e-11
5.73157e-11
-8.37847e-13
2.17805e-11
2.66076e-11
-1.83284e-11
1.77811e-12
2.51723e-12
1.91038e-12
8.37247e-11
9.77139e-12
2.47819e-11
-2.24266e-11
-1.49992e-14
1.10371e-13
2.1974e-12
3.62847e-13
6.78261e-14
2.2767e-13
-7.53715e-12
8.73867e-12
1.07815e-10
1.33115e-10
4.51881e-11
-1.83855e-10
4.39699e-11
6.67863e-11
-2.92731e-11
7.85191e-11
-5.54273e-11
1.32573e-12
3.12305e-13
1.27394e-12
-5.89446e-12
1.55868e-10
4.48086e-12
-2.45227e-11
6.96603e-12
5.87264e-11
3.44602e-11
7.66332e-12
-1.42097e-12
-1.22548e-12
-4.22395e-13
1.23518e-10
-2.10796e-12
-8.42687e-13
1.84383e-12
-3.41926e-11
7.76143e-11
4.63153e-12
3.45182e-11
-3.37388e-11
1.66573e-10
-6.28427e-10
1.75534e-10
-4.81191e-11
-8.78518e-11
1.06412e-12
4.84597e-13
-1.10965e-11
1.82921e-10
2.29639e-11
-1.60094e-11
-1.49865e-12
-8.77352e-12
-4.08138e-12
2.31419e-11
-1.34921e-11
1.69245e-09
2.84015e-10
-5.60356e-12
1.64464e-12
-8.26962e-11
-1.43226e-11
-3.2336e-11
-6.16648e-11
1.6438e-10
2.48234e-11
-7.95943e-12
1.47396e-12
-2.94606e-13
2.52897e-11
-3.57184e-11
-1.69822e-11
1.00146e-11
-6.83794e-13
4.82333e-13
-2.04689e-13
-1.3605e-12
8.08193e-13
-4.13484e-12
-1.66741e-11
7.38413e-11
1.96676e-13
1.44879e-13
-1.52473e-12
3.19306e-12
-2.21793e-12
1.26152e-12
2.35616e-12
1.11121e-12
3.76463e-12
-1.62512e-11
4.13884e-11
1.0157e-10
3.74459e-12
-1.56599e-11
2.14093e-11
4.37094e-11
-2.9452e-11
-2.54673e-11
4.67222e-11
6.01999e-11
8.82342e-11
3.3682e-10
-6.14191e-10
1.93825e-10
1.54483e-09
-3.21226e-09
-7.11726e-10
4.55165e-12
2.43209e-12
1.50546e-10
4.29535e-11
-1.16631e-11
3.20398e-11
-8.39583e-12
-5.83169e-12
1.06694e-10
-1.66219e-11
2.33111e-11
-1.01241e-10
1.7862e-11
1.65026e-11
1.31657e-11
-2.33927e-13
2.32683e-13
-2.45168e-12
-1.53378e-13
2.51226e-12
-4.91862e-12
-3.48699e-12
7.87278e-12
-2.37875e-11
9.65453e-12
-1.06051e-11
6.09921e-12
9.80163e-13
-3.56893e-13
1.68551e-13
4.1181e-11
-5.72176e-12
-8.32313e-13
-2.49756e-12
2.86643e-12
8.89313e-10
-3.51153e-09
8.08419e-12
1.01021e-11
7.29587e-12
-1.45791e-10
8.33531e-11
-5.25933e-12
2.24395e-12
7.11899e-11
-3.85867e-11
-5.15548e-11
-1.66974e-11
-1.53981e-11
-7.7209e-11
-3.9528e-11
-4.04796e-13
6.92876e-12
1.45247e-10
9.53517e-13
9.76002e-13
1.90139e-12
-1.43602e-10
1.17835e-10
-8.97651e-11
2.63028e-11
2.61267e-11
2.38091e-10
-1.66116e-10
-9.49342e-11
-2.23788e-12
1.97143e-11
-1.60076e-12
1.46439e-12
-4.732e-12
-9.26442e-12
3.89936e-11
-1.40867e-11
-3.86373e-11
2.39453e-11
1.1001e-11
6.24493e-12
-1.27005e-09
3.6106e-11
7.61849e-11
-8.33148e-11
5.5136e-11
-1.88697e-12
-8.40556e-13
-9.1946e-13
1.46603e-10
2.80702e-11
5.05153e-11
-7.98598e-11
7.90137e-11
-4.08674e-11
-8.67485e-11
-7.30312e-14
9.02989e-12
-2.32488e-11
8.55916e-11
4.9524e-12
1.5885e-11
-5.07781e-12
-8.974e-11
-1.7929e-10
8.09706e-11
1.39037e-10
2.49084e-10
9.7257e-11
-5.41665e-14
-6.51269e-12
7.74751e-12
-2.57529e-06
-2.56706e-12
-1.0959e-06
1.09641e-11
6.77875e-13
1.57045e-11
-5.12508e-12
-2.14107e-11
-9.72097e-12
5.85555e-12
2.86721e-11
-1.70369e-10
2.07923e-11
4.28392e-11
1.56973e-13
6.35211e-13
9.44883e-13
-1.99819e-12
2.62566e-13
1.97496e-12
1.64233e-11
1.81001e-11
9.71183e-11
1.23299e-11
-7.89779e-11
-2.62049e-10
3.38885e-11
1.86281e-11
-2.63383e-10
3.79085e-10
1.3965e-10
1.03091e-10
3.92107e-11
-1.24428e-11
-1.92696e-11
1.18714e-11
1.26069e-11
-8.29266e-12
2.66588e-12
-1.79331e-12
7.65149e-11
1.09151e-11
7.39106e-12
-2.39714e-11
1.77962e-11
2.11986e-12
2.68579e-12
2.93821e-11
4.02671e-11
2.7722e-11
-2.45381e-11
-1.28994e-11
-1.38894e-11
7.24713e-12
-7.39393e-14
2.88202e-10
-4.67406e-12
-2.39884e-12
1.95125e-11
-2.07898e-11
1.71545e-11
3.88813e-11
2.77265e-10
1.06505e-11
-5.9248e-11
5.94441e-11
-7.28144e-11
2.86749e-11
4.40517e-11
1.74415e-09
2.10142e-10
-1.44918e-09
1.11277e-13
-1.13233e-12
-5.77012e-11
6.56058e-11
-4.14892e-12
3.37781e-10
9.93865e-10
-1.10887e-09
-1.40433e-11
2.02513e-11
-1.61907e-10
7.1261e-11
-1.11223e-12
-8.64659e-13
1.37635e-10
-9.52564e-11
-5.3193e-11
1.06393e-10
1.32168e-12
1.08663e-12
4.83771e-12
-6.83347e-12
5.14305e-11
-2.90778e-12
-3.43284e-12
-1.70217e-10
1.89163e-10
-3.90125e-11
2.26271e-12
5.10554e-13
9.79358e-12
-5.74255e-12
3.20814e-11
6.85155e-11
-1.69616e-11
3.70499e-11
3.42439e-12
6.70413e-11
-4.87261e-11
5.10358e-12
-7.18239e-11
-2.8857e-11
1.62561e-10
9.17113e-13
-4.18945e-13
1.33231e-13
-5.70167e-11
2.55824e-12
3.2755e-11
1.3746e-11
-1.84489e-11
-3.91845e-11
-6.80327e-12
-6.93463e-14
1.2084e-11
-9.50816e-12
5.28804e-13
-1.51947e-12
-1.18054e-10
3.2588e-11
2.64303e-11
-2.41802e-10
3.08136e-10
2.67096e-11
-5.60619e-14
1.39167e-13
-1.07454e-11
-5.44463e-12
4.69028e-11
-8.71791e-13
3.50964e-12
8.36545e-12
1.42323e-12
-3.29804e-11
-1.22085e-10
6.46795e-10
-6.31848e-11
2.33057e-11
2.60178e-11
2.97921e-11
1.02688e-11
2.65597e-12
6.87747e-12
1.24636e-11
1.48773e-10
1.31595e-10
-1.52132e-11
4.22784e-11
5.70753e-14
2.16105e-11
-3.7059e-11
-1.50729e-10
9.23926e-12
-8.65853e-12
2.79324e-11
-4.41e-11
-2.28824e-12
7.70087e-11
9.43455e-12
-2.48992e-11
1.88835e-10
-6.21259e-11
6.08456e-13
1.36327e-10
-9.01229e-11
-1.0409e-12
6.90776e-12
3.24069e-12
1.0514e-10
7.15708e-11
-6.5934e-11
-2.68103e-11
-4.11948e-13
2.43091e-12
-6.70818e-14
3.03671e-11
8.6417e-12
9.06515e-12
1.29491e-11
-1.7787e-11
-1.54414e-11
1.95661e-10
4.15298e-11
-3.28462e-11
-9.67694e-12
2.08381e-11
-3.72617e-12
-6.05534e-12
-2.0534e-13
2.03197e-13
7.06775e-11
-5.47482e-11
6.74586e-12
-1.26054e-11
1.24938e-11
-1.8103e-13
-2.65108e-12
-6.69198e-11
-6.2806e-11
-1.56975e-11
7.02322e-11
9.43122e-12
-4.20396e-12
1.07392e-10
-2.7931e-10
2.17091e-09
3.10589e-10
-7.65417e-11
-5.775e-12
1.94473e-11
-2.63825e-10
3.12474e-10
-3.52135e-12
-2.3344e-11
2.51371e-11
5.35686e-11
-8.42968e-12
7.78844e-12
2.01922e-11
1.31938e-10
4.36141e-11
-1.67692e-10
1.18272e-11
3.74345e-13
-2.9581e-12
3.45896e-11
-1.55965e-11
-1.19205e-12
-2.10659e-11
-5.61481e-12
4.4401e-12
8.6348e-11
-4.23713e-12
1.33037e-11
-1.23903e-11
1.59586e-12
7.87953e-12
-5.59972e-11
3.58994e-12
2.40267e-11
4.19033e-11
1.90254e-12
9.76798e-13
1.86479e-12
-1.32146e-11
5.7998e-11
-5.07953e-11
-4.01357e-10
5.74286e-10
-5.71048e-10
-2.26573e-10
-1.2788e-10
2.52891e-10
7.31417e-13
5.72234e-11
4.04575e-11
-4.33626e-11
-1.33929e-10
2.62639e-10
-2.60415e-11
2.21316e-11
-6.78981e-12
5.6227e-11
-4.19982e-11
-5.20237e-11
5.86801e-11
-5.16281e-11
4.6188e-12
-2.50695e-11
-1.31211e-11
2.76209e-12
-7.82978e-13
4.71337e-12
4.10562e-12
-6.87701e-11
-1.38195e-11
2.61536e-13
1.61544e-10
-8.48401e-11
-1.8389e-11
2.26446e-11
5.57422e-12
-3.08093e-12
-4.72152e-12
-9.23288e-11
1.04587e-10
-2.45922e-11
9.33606e-11
-1.23879e-10
1.75697e-10
-1.06152e-10
1.28943e-10
-2.98953e-11
7.43809e-11
1.87092e-10
6.75678e-11
-2.06739e-10
1.0379e-11
6.44018e-11
-4.99429e-11
1.97506e-11
-1.23945e-12
1.12751e-10
-8.58826e-11
-4.47344e-12
6.22672e-12
1.55636e-11
6.28438e-11
-4.95795e-11
7.01579e-12
2.25442e-11
-1.28371e-11
9.56843e-11
-5.14089e-11
2.22769e-10
1.51668e-10
4.91231e-13
8.21701e-12
-1.98603e-11
1.71381e-12
-2.03495e-13
-1.2562e-12
-6.41058e-12
-8.89551e-12
-2.45951e-11
2.14957e-10
2.16093e-12
-1.21715e-12
-3.69513e-11
-6.95249e-12
-3.95436e-11
-2.46399e-13
-1.05735e-11
4.78658e-11
2.91601e-11
-4.17631e-11
-3.38903e-11
1.55246e-10
-1.21376e-10
-3.11399e-11
2.58702e-11
4.11676e-11
1.65332e-11
5.70291e-11
7.39646e-11
1.99681e-12
-1.01295e-12
1.13394e-13
7.2409e-12
1.8112e-12
1.7067e-11
1.25475e-11
-4.38312e-12
1.25475e-12
-1.35499e-12
-2.06901e-10
-1.25509e-10
-5.47052e-11
7.5154e-12
-4.97993e-12
2.84645e-11
-3.20098e-12
3.23784e-12
1.01049e-11
5.79983e-12
5.60859e-12
-1.84273e-11
-4.66763e-12
-1.29033e-12
6.51264e-14
-6.1506e-11
1.42798e-10
-4.28555e-11
5.21909e-11
-3.33997e-11
3.68752e-12
-7.03066e-13
-2.13338e-11
2.32864e-11
-1.26757e-12
1.22044e-10
1.66851e-11
-1.5823e-10
1.37104e-10
2.77786e-12
-2.19054e-10
8.83934e-12
5.43354e-12
7.27998e-11
-3.38453e-11
-1.09836e-11
8.87857e-11
5.84602e-11
-2.59626e-11
-1.24281e-11
1.21457e-10
1.28752e-11
-6.52695e-11
-3.38535e-11
1.10638e-11
3.9338e-11
2.41559e-11
-1.5113e-11
3.39585e-12
1.48912e-11
3.79286e-11
-3.15536e-12
5.04735e-12
3.32418e-13
1.27544e-12
-4.24175e-12
-1.39273e-11
3.94618e-11
1.9133e-12
-9.9704e-12
1.00477e-12
-8.76913e-14
2.39311e-11
-1.98552e-11
-4.77498e-11
-3.69145e-11
-5.09973e-11
2.38052e-11
4.45362e-11
-8.59754e-11
-1.97915e-10
8.38577e-11
-3.31638e-11
6.1251e-11
2.44615e-11
-1.36696e-12
-2.60325e-11
4.75103e-11
-4.48236e-12
8.00148e-11
-5.53467e-11
-2.64249e-11
3.5162e-11
1.68649e-11
3.8965e-12
-1.53444e-12
-2.19505e-12
3.18137e-11
1.00462e-11
8.2559e-12
1.63628e-11
8.35493e-12
2.02135e-11
-1.58644e-11
4.61931e-12
-2.34303e-11
-6.33944e-11
1.06938e-10
-6.8115e-12
4.97226e-11
4.74044e-12
-7.2517e-11
4.77089e-11
-7.79936e-11
3.49187e-11
-7.7714e-11
-2.10812e-11
3.0715e-11
4.34804e-11
1.20437e-11
-6.9871e-13
9.92446e-13
1.33674e-11
7.76158e-12
3.4837e-12
-3.20224e-11
1.25203e-11
-7.37492e-11
9.55322e-11
1.9809e-10
-2.42392e-10
-5.58013e-11
6.36413e-11
-1.12486e-11
1.64097e-11
-8.88139e-13
-1.51951e-10
6.70653e-12
-1.30376e-10
-2.9131e-11
1.32987e-10
2.85301e-11
7.50978e-11
-2.38738e-11
2.9224e-11
1.3287e-11
2.18489e-11
5.11402e-11
6.35343e-11
1.52964e-11
-1.99551e-11
-6.56327e-12
-6.25754e-11
1.52628e-10
-2.5075e-10
1.67271e-11
9.87023e-12
3.13571e-12
-6.95095e-11
2.67608e-10
-1.49959e-11
-1.50234e-12
-3.52779e-11
-1.19296e-11
1.5273e-10
-1.32552e-11
6.52454e-11
-1.35044e-11
5.34214e-11
-1.08493e-11
-5.59192e-11
-2.0756e-12
-5.81661e-13
-3.4232e-12
-1.63991e-11
-9.91904e-12
2.9202e-11
-4.09493e-12
2.22858e-11
3.67776e-12
2.02725e-11
1.28865e-10
1.31584e-11
-2.65678e-11
1.30595e-11
4.55518e-12
3.51877e-12
6.46276e-11
9.5426e-11
-1.95275e-10
1.75915e-10
-1.59357e-10
-2.44311e-11
1.56038e-10
1.71048e-12
2.76555e-10
-1.57405e-10
-6.9303e-11
6.91211e-12
1.85755e-11
7.30699e-11
1.1847e-11
-8.04964e-11
-5.83499e-13
3.33496e-14
-2.39057e-11
7.12877e-11
-1.08766e-11
2.50674e-12
8.65608e-12
1.94655e-10
-1.3524e-11
3.37854e-11
5.49617e-12
6.79936e-12
-4.86756e-11
3.19858e-09
-6.64687e-10
1.98643e-13
3.25468e-11
1.90238e-13
3.60198e-15
5.61958e-11
-1.7764e-11
-6.89992e-12
2.33056e-11
-1.32342e-10
-5.64844e-11
-3.70275e-11
3.23388e-12
2.38714e-11
9.61816e-11
5.01895e-11
-4.76679e-11
3.19691e-11
1.10299e-11
-4.71902e-11
2.18699e-12
-8.8424e-13
4.90445e-12
3.10828e-11
1.53712e-11
5.30643e-12
1.67943e-11
2.82043e-11
-2.94307e-11
-9.27852e-13
9.23931e-14
3.16782e-13
5.13838e-12
-4.69907e-12
-1.7363e-11
4.43865e-11
-2.37938e-10
-2.46789e-11
2.34044e-10
-3.95399e-13
7.33085e-13
-4.4223e-13
-3.43022e-11
2.04557e-10
-2.11747e-10
-1.5249e-11
-2.05389e-11
1.1719e-10
-9.57138e-11
7.37838e-11
4.81433e-11
-1.98557e-11
3.07524e-11
2.10731e-11
-2.05416e-11
1.32009e-10
4.41608e-11
9.3232e-11
-1.28864e-10
-1.9187e-10
1.77229e-10
1.02307e-10
-1.34837e-11
2.7781e-11
-7.42442e-12
-1.07215e-11
5.11295e-11
7.22296e-11
1.5998e-11
-5.93474e-12
1.09805e-11
6.8751e-12
3.17707e-12
-2.48802e-12
3.94535e-12
-8.81243e-13
4.33036e-12
6.34458e-12
1.57229e-11
1.87918e-10
-1.87373e-11
-7.92295e-11
-4.81883e-12
-1.091e-10
-7.16298e-11
-7.34416e-12
2.55924e-12
-2.67629e-13
-6.40666e-12
9.82378e-07
-5.66695e-11
1.01367e-10
1.21011e-10
-3.54807e-10
7.62167e-09
-3.15944e-09
-4.21861e-09
-9.39115e-11
-3.31244e-11
1.30989e-10
-1.52912e-10
-4.9482e-12
3.99621e-11
-8.32987e-11
-1.71587e-11
1.41483e-10
4.65771e-11
4.25627e-12
7.55009e-12
-6.08771e-10
2.99284e-10
-2.11161e-12
9.8172e-13
7.01987e-13
-1.02173e-11
-5.39712e-10
-1.9089e-10
6.98691e-10
1.63281e-12
-4.41604e-13
-7.41056e-12
-1.98854e-10
1.48033e-11
1.24591e-10
-1.14812e-11
9.29661e-12
-2.46663e-12
1.51585e-12
-1.61181e-11
-5.66734e-12
-1.38096e-10
3.78904e-11
-1.60594e-11
-1.85757e-11
-6.95922e-11
2.86185e-10
-8.12227e-11
1.85697e-11
-2.75937e-12
-1.24934e-12
1.36439e-12
9.57499e-11
-3.11267e-11
1.43815e-11
1.18601e-12
5.89121e-11
-1.18679e-11
4.50991e-11
-5.01977e-12
-9.19449e-10
9.07547e-11
1.00593e-10
-9.40203e-11
-6.2693e-11
-4.32072e-12
-2.72136e-11
-6.28455e-12
-4.3348e-12
2.83298e-12
-4.67853e-14
-3.64165e-13
-7.04498e-11
1.51711e-11
-3.54057e-11
-3.09943e-10
-1.07632e-09
6.77655e-11
9.05396e-11
3.24636e-12
2.68088e-11
-4.35362e-10
-7.17633e-10
7.73159e-12
-2.9794e-12
-5.82827e-12
4.29202e-12
-1.3565e-11
6.94413e-12
-3.17874e-11
3.66893e-14
-1.18598e-13
-2.20209e-12
-4.26691e-13
-3.33932e-11
-1.15523e-12
1.96882e-12
6.05493e-12
6.49373e-11
-1.4674e-10
7.36319e-13
1.42427e-13
-1.38794e-13
9.00209e-11
-1.1331e-10
-5.38422e-12
2.4521e-12
-8.10354e-13
4.5474e-12
-2.06454e-10
7.78285e-11
-4.78618e-11
1.44103e-11
-1.33332e-11
1.31083e-11
7.39834e-12
-3.69349e-12
5.72652e-13
-5.96864e-13
-5.28799e-13
-3.17973e-12
6.72327e-12
9.23277e-11
-5.54729e-11
1.10881e-11
7.75347e-11
-4.56082e-12
1.97617e-11
1.05617e-11
9.81854e-12
4.44638e-11
4.54333e-11
-4.61281e-11
8.79174e-12
-5.42921e-12
-3.40891e-12
-3.15589e-14
9.3667e-13
-2.60005e-13
2.75783e-10
-3.05619e-12
-6.28522e-13
5.76397e-13
8.36156e-12
-4.69966e-12
2.68336e-10
-1.53669e-12
-1.41738e-10
1.97058e-11
-3.05308e-12
4.10506e-13
2.69637e-12
8.50245e-12
-2.64483e-12
2.70529e-12
-2.74249e-12
1.1675e-11
1.07625e-11
-8.46961e-11
2.5271e-10
-5.24445e-11
5.82131e-11
-9.70839e-12
1.87629e-11
-3.5481e-11
-2.25349e-11
5.59555e-12
-5.74191e-11
1.66522e-11
-2.84966e-11
8.06835e-11
2.13521e-11
-4.50097e-11
5.72734e-11
-1.14611e-11
-5.10638e-12
-1.13218e-10
-2.22094e-12
-3.2277e-13
1.47935e-12
-5.08434e-13