/*--------------------------------*- C++ -*----------------------------------*\
| =========                 |                                                 |
| \\      /  F ield         | OpenFOAM: The Open Source CFD Toolbox           |
|  \\    /   O peration     | Version:  v2012                                 |
|   \\  /    A nd           | Website:  www.openfoam.com                      |
|    \\/     M anipulation  |                                                 |
\*---------------------------------------------------------------------------*/
FoamFile
{
    version     2.0;
    format      ascii;
    class       volVectorField;
    location    "950";
    object      U_0;
}
// * * * * * * * * * * * * * * * * * * * * * * * * * * * * * * * * * * * * * //

dimensions      [0 1 -1 0 0 0 0];


internalField   nonuniform List<vector> 
13917
(
(0.735447 -0.0039544 0)
(0.998039 -0.00748626 -4.23812e-21)
(1.06076 0.0143624 -3.02448e-21)
(1.02334 0.00224186 0)
(1.01864 -0.0253484 0)
(0.999098 -0.00792157 3.36488e-21)
(1.03054 0.00925689 6.89656e-21)
(0.978585 -0.00829573 7.10303e-21)
(1.03485 0.00208348 8.15669e-21)
(0.00397489 -0.0688789 8.36767e-20)
(0.981321 -0.00732883 5.93666e-21)
(1.01964 0.0009168 0)
(1.00944 -3.8564e-05 0)
(0.775011 0.0204323 2.95346e-21)
(1.0069 -0.0089012 0)
(0.699606 -0.00613497 -6.46358e-21)
(1.03111 0.000262605 0)
(0.983167 -0.00253332 5.40919e-21)
(1.05326 0.0219337 7.204e-21)
(0.700059 0.0090146 -6.24347e-20)
(1.00411 0.0131354 -3.75743e-22)
(1.02052 -0.0103386 -5.44452e-22)
(1.03894 0.0177118 1.00236e-20)
(1.02087 -0.010561 4.97283e-22)
(1.02092 0.00617978 2.03807e-21)
(1.00074 0.0117845 0)
(0.995986 0.062114 2.90587e-22)
(-0.0052084 -0.049879 -9.91264e-20)
(0.990979 0.00656402 1.91089e-21)
(1.03755 0.0126273 1.269e-23)
(0.0325333 -0.0642767 2.05389e-20)
(1.04706 0.0131038 1.02088e-20)
(1.02109 0.0031449 1.07831e-21)
(0.80826 0.00204619 -1.85742e-20)
(1.04184 -0.0138524 0)
(0.97785 -0.0122005 -5.07745e-21)
(1.01238 0.00305219 0)
(1.01808 -0.000184739 5.98815e-22)
(1.03113 0.00917162 -1.51743e-20)
(1.01163 0.0226681 0)
(1.01798 8.8411e-05 -8.30338e-23)
(1.0556 -0.00481363 1.36004e-22)
(1.03232 0.000577529 9.84441e-21)
(1.05294 0.0165574 1.57246e-20)
(1.05259 0.017216 -1.35628e-20)
(1.0391 0.0546154 0)
(1.0054 0.0125556 2.34275e-22)
(0.235615 0.0174051 1.5304e-20)
(0.810432 -0.0261317 -4.57995e-21)
(1.04127 -0.0140318 0)
(1.01954 0.000757757 0)
(1.04085 0.0410346 0)
(0.609594 -0.00668221 2.80084e-21)
(1.01745 -0.00193758 -5.7837e-23)
(1.0174 -0.00113039 1.28504e-22)
(1.0421 0.040035 2.07056e-20)
(-0.0714119 -0.02393 0)
(1.03837 0.0178919 -4.62348e-21)
(1.0551 -0.00434653 -1.17076e-22)
(1.03732 0.0554292 0)
(0.563224 0.0842514 -1.87949e-20)
(1.05331 -0.024879 0)
(1.01879 0.000810475 0)
(1.02097 0.00579226 0)
(1.07743 0.018771 -4.0532e-22)
(1.04732 0.0124944 -2.07001e-22)
(0.988347 0.00413852 0)
(0.979914 -0.0141435 -1.81823e-21)
(0.980783 -0.00340096 -6.74399e-21)
(0.697895 -0.00457675 0)
(1.06587 0.0174793 -8.28404e-21)
(0.785624 0.000852027 0)
(1.02223 -0.00130446 0)
(1.05411 -0.0042263 1.17967e-22)
(1.00397 0.0144218 1.80606e-22)
(1.01785 0.0067116 -3.57914e-21)
(1.01845 -0.0187204 1.38894e-21)
(1.0536 -0.00379582 9.27275e-23)
(1.01806 0.00630688 1.01124e-21)
(1.02116 0.00335976 -1.70702e-21)
(1.01547 -0.00529161 -1.13893e-21)
(1.03139 0.000163533 1.33682e-23)
(1.02201 -0.00147907 0)
(1.05977 0.00904482 -8.16427e-21)
(1.01887 -0.000796535 3.21238e-23)
(0.964085 0.0134492 0)
(1.04653 0.0130819 -9.39528e-21)
(1.01903 -0.00030168 0)
(1.01098 0.0216896 -1.7156e-21)
(1.03355 0.000299865 0)
(1.03669 0.000445261 -3.24341e-23)
(1.03285 0.000575678 -1.64194e-20)
(0.777867 -0.0255992 0)
(1.0428 -0.0105351 2.1541e-22)
(1.01554 -0.00141305 1.53702e-22)
(0.988859 0.00651037 2.20465e-21)
(0.987827 0.0604395 1.28468e-21)
(1.02945 -0.000242478 3.03399e-22)
(1.01906 -0.000351321 5.96081e-23)
(0.996244 0.0456564 -9.70637e-22)
(1.0212 0.000544707 6.736e-23)
(1.02303 0.000574569 1.33067e-25)
(1.01516 -0.00501201 2.01662e-21)
(1.03194 -0.00057352 -3.14778e-22)
(1.01929 -0.0187336 0)
(1.0504 0.000250257 -3.35923e-20)
(0.810335 0.0228954 0)
(1.05447 -0.02425 -2.59118e-22)
(1.05649 -0.00496901 3.23918e-22)
(0.957838 0.0628994 5.85497e-22)
(1.01601 -0.000492758 0)
(0.823654 0.00366422 -1.68668e-20)
(0.991685 0.00868599 -1.9669e-21)
(0.102809 0.00795044 1.55071e-20)
(1.08055 0.0177589 0)
(1.0163 0.00714923 2.11178e-22)
(1.05239 0.0215156 -1.87504e-20)
(1.03473 0.00088405 0)
(1.05924 0.016665 -5.2979e-21)
(1.02121 -0.00271211 0)
(1.03347 0.000163769 0)
(1.05136 -0.00392315 7.22089e-24)
(0.986167 0.00383766 0)
(1.04656 0.0289493 9.81399e-21)
(0.680909 -0.00840378 0)
(1.06127 0.00867312 -1.38243e-20)
(1.02145 0.00528806 0)
(1.00279 0.0151533 -4.46067e-22)
(1.0317 -0.0114044 -8.616e-22)
(1.04745 0.028694 0)
(1.03869 0.00810292 8.7471e-21)
(1.0194 0.0525005 0)
(0.998916 -0.00071599 -2.93307e-20)
(1.01587 0.00690423 -1.90467e-22)
(1.04901 0.013985 2.45275e-20)
(0.932271 0.0649736 -5.2941e-22)
(0.529197 0.0849755 -1.59612e-20)
(0.656305 -0.0060952 -2.23744e-21)
(0.998352 0.0111164 0)
(1.01189 -0.00016084 -1.03598e-21)
(0.707412 0.00378139 -6.80491e-21)
(1.05268 -0.00372041 -1.75488e-22)
(1.0502 0.000257972 3.92774e-20)
(1.02148 -0.00613429 3.05375e-22)
(1.02136 -0.00117025 -4.22214e-21)
(1.06132 -0.00569237 3.51105e-22)
(1.06549 0.0164082 -8.48561e-21)
(0.759531 0.00298211 -1.71629e-21)
(0.325957 0.0267929 2.17166e-20)
(1.01733 -0.00168835 5.11054e-23)
(1.01142 0.0195583 -4.07781e-22)
(1.02296 0.000746201 -1.25936e-24)
(1.02118 -0.00134683 1.22572e-21)
(1.02125 -0.00289775 0)
(0.992164 0.0638111 -1.52994e-21)
(1.02403 -0.0159465 -1.55587e-21)
(1.03245 -0.000701611 5.78927e-22)
(0.968622 -0.000867248 -2.71225e-20)
(1.0277 0.000480083 4.15706e-23)
(1.0333 0.000590281 -3.32093e-23)
(1.01975 -0.00254967 -2.09607e-22)
(1.00212 0.0414679 1.82656e-20)
(1.00786 0.000752571 0)
(0.702196 0.00156827 6.1832e-21)
(0.823944 0.0556558 0)
(0.994857 0.0510951 8.67478e-22)
(0.405982 -0.000828462 0)
(0.42261 0.0536724 4.67531e-20)
(1.02401 0.00401596 2.10724e-24)
(0.996783 0.0115395 0)
(1.02097 -0.0116908 1.93088e-21)
(0.999894 0.00105143 -1.15454e-20)
(1.03491 0.00160137 -1.4326e-20)
(0.777079 0.0786452 0)
(1.03036 0.0346895 -4.45255e-21)
(1.02649 0.000759157 7.69472e-24)
(1.02365 0.00207889 0)
(1.04047 0.04412 1.54028e-20)
(1.0384 0.0076691 6.93043e-21)
(1.00701 0.000757463 1.40232e-21)
(1.03166 0.00119322 0)
(1.02122 -0.0114159 5.30108e-22)
(1.01935 0.000707842 -5.32205e-22)
(1.05249 0.0428783 0)
(1.05978 0.0174003 0)
(1.0181 0.0529908 0)
(1.01925 0.000547715 0)
(1.05148 0.0442958 0)
(1.03799 0.0124993 6.31173e-24)
(0.968148 0.0124693 0)
(1.0292 0.0352902 3.67896e-21)
(1.05172 0.0171497 0)
(1.05057 0.0377431 -1.26554e-20)
(0.741194 -0.00164337 -2.51803e-20)
(1.04228 -0.0107642 6.37832e-22)
(0.688048 -0.0066791 -1.46207e-20)
(1.02183 0.0114005 -3.18097e-21)
(1.03201 -0.0014628 5.7899e-21)
(1.04181 -0.0132387 0)
(1.02388 -0.015162 7.10133e-22)
(1.00769 0.0115478 0)
(0.700102 -0.00464768 4.14244e-20)
(0.635382 -0.0059147 8.99793e-21)
(1.01226 0.000366142 -2.48462e-22)
(1.00738 0.057664 -5.16704e-22)
(0.998219 0.00218494 0)
(1.01192 0.0204745 -5.57461e-22)
(1.05227 -0.00406184 2.49695e-22)
(1.04154 0.0426859 -1.67247e-20)
(1.01548 -0.0058741 0)
(1.03115 -0.00770589 8.77355e-22)
(1.01902 -0.0308257 8.77719e-22)
(1.01785 -0.0319113 -2.78885e-21)
(0.353828 0.0263492 -6.68899e-20)
(1.04851 0.0137615 -6.43768e-21)
(0.999438 0.0123612 0)
(0.980479 0.0266973 6.19155e-21)
(1.02088 -0.000179422 -5.32508e-22)
(1.04397 0.000599058 0)
(1.04398 0.00075228 -6.33132e-23)
(0.314941 0.0424067 -4.38803e-20)
(1.05128 0.040665 -2.39533e-20)
(1.05203 0.047987 0)
(1.01719 -0.000691162 1.18401e-22)
(1.0156 0.000321364 0)
(0.849703 0.0658161 6.78185e-22)
(0.67032 -0.00553648 3.76665e-20)
(1.04228 0.000566187 -1.45441e-23)
(1.04178 0.000566331 -1.46242e-23)
(1.01663 -0.000362786 0)
(1.04475 0.000815363 5.37857e-23)
(1.04476 0.000961912 -5.17792e-24)
(0.773428 -0.000595655 1.29352e-20)
(0.646594 0.0415082 0)
(1.01778 -0.00796343 0)
(1.0268 0.00653912 1.79417e-23)
(1.03808 0.0319536 -1.19867e-20)
(0.758735 -0.0013555 0)
(1.03075 0.000556357 0)
(1.01718 -0.000607336 -2.68251e-22)
(0.997478 0.0604031 0)
(1.0487 -0.000312136 0)
(1.05262 0.0416331 1.77373e-20)
(0.968079 0.0251264 -1.30289e-20)
(1.03101 0.041726 0)
(1.02128 -0.00599744 -3.80305e-22)
(0.619302 0.0597869 3.00059e-20)
(1.03921 0.0320673 2.01477e-20)
(0.993458 0.00845073 1.95862e-22)
(1.04697 0.0204393 0)
(1.01282 0.000372011 2.51056e-22)
(0.588344 0.0375799 1.95362e-20)
(1.02146 -0.00237617 7.6103e-22)
(1.02178 0.0252491 0)
(1.03006 0.0327169 0)
(1.01777 -0.00884371 1.24903e-21)
(1.0102 -1.83623e-05 0)
(1.02141 0.00565801 0)
(1.02465 -0.0241738 -3.91115e-21)
(1.04707 -0.01199 0)
(0.721568 -0.00457239 0)
(0.611302 -0.0138525 -1.03174e-20)
(1.05006 -0.00539857 0)
(1.04132 0.000444302 0)
(1.02353 -0.0162844 3.18185e-21)
(1.04136 0.0003289 1.33427e-23)
(1.02149 -0.00252763 6.3515e-22)
(1.01451 -4.06848e-05 0)
(1.03111 0.0191203 0)
(1.05096 -0.00557822 0)
(0.67268 -0.00601907 -2.17654e-20)
(0.826329 0.0264413 0)
(1.01876 -0.000585527 6.75891e-22)
(1.02295 -0.0215329 -1.00972e-21)
(1.03425 0.0593672 0)
(1.04449 0.00300327 8.05046e-23)
(0.997368 0.0415121 -2.27259e-22)
(0.745706 -0.00321961 0)
(1.04452 0.00283828 -8.56907e-23)
(0.722676 -0.00416886 2.4084e-20)
(1.04676 -0.0113119 0)
(1.01274 0.0434507 -7.59982e-21)
(1.02357 0.000534095 7.0334e-23)
(1.00892 -0.0089813 -8.38442e-22)
(1.0175 -0.00910253 2.24266e-22)
(1.02265 -0.00691473 -8.96302e-22)
(1.05617 0.0284414 0)
(1.02415 -0.000364014 1.16832e-21)
(0.994647 0.0538391 -1.81799e-21)
(1.01919 0.014748 0)
(0.574629 -0.0174388 -4.85422e-21)
(1.06135 -0.00620048 0)
(1.00813 0.0558956 2.15193e-21)
(0.64616 -0.00691628 -4.48321e-21)
(1.03375 0.000621776 -3.46263e-24)
(1.0375 0.0229723 2.42678e-20)
(1.02248 -0.0245981 -4.2133e-21)
(1.01489 0.00714566 6.83377e-24)
(1.01996 -0.024782 0)
(1.01865 0.00637242 2.78622e-21)
(1.0443 -0.0107642 4.00077e-22)
(1.02614 -0.000499062 -5.50658e-22)
(1.03755 0.0454965 0)
(1.02775 -0.0249101 1.87607e-21)
(1.02153 0.0245754 0)
(1.01884 0.00603929 1.17129e-21)
(1.01727 -0.000528365 -2.79655e-22)
(0.990847 -0.000592315 3.28962e-20)
(0.675554 -0.00437671 -3.56966e-20)
(1.03326 -0.0109033 0)
(1.05423 0.00378438 0)
(1.01536 0.00744142 0)
(1.00618 -0.053755 -1.7184e-21)
(1.0531 0.00961077 3.54549e-20)
(0.839369 0.0212598 2.81676e-20)
(0.827722 0.0745138 1.70501e-20)
(1.05034 0.0114828 5.50369e-23)
(1.0196 0.0507166 -2.62046e-21)
(1.02377 -0.0210342 9.70811e-22)
(1.06127 0.0102536 -1.78044e-20)
(0.976015 -0.0532125 3.17956e-21)
(1.06025 0.0137494 0)
(1.01367 2.22869e-05 -1.66006e-23)
(1.00759 -0.00921336 0)
(1.00471 0.0604184 1.69036e-22)
(1.02168 -0.0134995 -2.64959e-23)
(0.996968 -0.0080076 0)
(1.05134 0.0177649 6.60606e-21)
(1.03056 0.000192686 0)
(1.00926 0.0013632 1.23425e-22)
(1.01902 -0.000589058 6.66717e-23)
(1.04342 0.00649258 0)
(1.04945 0.00621145 0)
(0.555277 0.00309927 4.45712e-22)
(1.02736 -0.00375456 6.45921e-22)
(1.02242 0.0230409 1.02528e-21)
(0.997549 0.00314843 9.22533e-22)
(1.05141 0.0125662 4.36021e-24)
(1.03428 0.000614015 2.87304e-23)
(1.04745 0.0189205 0)
(1.05458 0.00190023 0)
(1.01603 -0.00102186 1.05274e-22)
(1.02216 -0.013914 2.24583e-21)
(0.85231 0.00548737 -1.68195e-20)
(1.05298 0.00125075 0)
(1.01997 0.0627468 4.35313e-20)
(0.808057 0.0094182 0)
(1.04377 0.00268794 1.32225e-22)
(1.01728 -0.00649185 0)
(1.04718 -0.000795651 3.48701e-20)
(1.02121 0.0504188 3.05161e-21)
(1.04388 0.00251912 -6.72584e-23)
(1.0214 -0.0254765 3.57013e-21)
(1.01825 -0.000141435 9.86765e-22)
(0.995251 0.022828 -3.11101e-21)
(1.02252 0.0237304 -6.04419e-21)
(1.04763 0.0345906 7.98781e-21)
(1.02288 0.042632 0)
(0.99576 0.0404087 -7.696e-22)
(1.04272 0.00800182 2.48067e-23)
(0.788607 0.00410576 2.11607e-20)
(1.03151 -0.0117712 -3.30151e-22)
(1.01617 -0.000683426 0)
(1.0182 -0.0264521 1.85962e-21)
(1.05973 0.0250228 -4.14324e-20)
(1.0287 0.000290637 1.17131e-24)
(0.716534 -0.00443868 2.55243e-20)
(1.04264 0.00766265 -3.73561e-22)
(0.830892 0.052104 3.87072e-22)
(1.01721 -0.00112665 2.04839e-22)
(1.02248 0.047726 -4.96453e-21)
(1.05303 0.00511275 7.49483e-23)
(0.81743 -0.0217421 0)
(1.05645 -0.00330135 1.81567e-22)
(1.05293 0.0462682 1.43734e-20)
(1.03657 0.0583975 1.63458e-20)
(0.99572 0.00323851 2.81998e-21)
(1.01873 -0.000514451 -6.95727e-22)
(1.06867 0.0265951 1.627e-20)
(1.05135 0.00727362 5.10234e-23)
(0.797148 0.059008 3.10915e-20)
(1.05178 0.0384733 -9.43017e-22)
(1.0569 -0.0029307 -1.76724e-23)
(0.844925 -0.0241146 0)
(1.01709 -0.0107011 -1.95556e-21)
(1.0397 0.0384531 1.19162e-21)
(1.03998 -0.00597993 0)
(0.732864 0.00874006 5.16494e-20)
(1.02629 0.0392406 -1.25455e-21)
(1.0143 0.00378509 0)
(0.793952 0.0622581 -8.04107e-22)
(0.995945 0.036187 -6.90301e-22)
(1.01355 -0.000204845 -3.02445e-22)
(0.924134 0.0577247 2.40188e-20)
(1.05228 0.003294 1.12122e-20)
(1.01557 0.00363902 0)
(1.05645 0.0297331 -7.78708e-21)
(1.01732 -0.00527814 0)
(0.99345 0.0362825 1.06674e-21)
(1.06045 0.0152861 0)
(1.01901 -0.000485227 -1.42238e-22)
(1.03267 0.00641338 6.40204e-21)
(1.01932 0.00606625 -1.11399e-22)
(1.02219 -0.00622425 -1.0292e-21)
(1.02316 -0.00315415 -4.03596e-22)
(1.03071 -0.0119951 -6.27922e-22)
(0.371728 0.0827918 -1.53036e-20)
(0.997824 0.0501727 -8.85114e-22)
(1.01671 -0.000870393 3.54023e-23)
(1.03175 -0.012809 0)
(1.02119 -0.0098385 5.49018e-22)
(1.0339 0.0249409 7.77723e-21)
(0.98675 -0.0225497 -6.86218e-22)
(1.04661 0.0045455 0)
(1.02405 0.00364656 1.78148e-24)
(1.05294 0.0101688 -2.35031e-20)
(1.02094 0.0470677 9.68047e-21)
(1.02245 -0.007075 0)
(1.01467 0.0036252 5.43349e-22)
(0.942801 0.0733302 0)
(0.904059 0.0691548 -5.11192e-21)
(1.04745 0.0105835 2.20227e-22)
(1.05403 0.0212914 -3.92851e-21)
(1.06464 0.0106314 1.83873e-20)
(1.05132 0.00116075 0)
(1.04572 0.00409093 7.08616e-23)
(1.00488 0.00945006 5.5364e-22)
(1.02315 -0.00298182 3.76104e-22)
(1.04669 0.00433211 0)
(1.01754 -0.0082258 -1.83462e-21)
(1.04585 0.00390475 -9.37726e-23)
(1.05072 0.00117625 6.05412e-24)
(0.594042 0.0541895 4.36329e-20)
(1.01703 -0.0050668 5.3255e-22)
(1.01317 0.024457 2.75774e-21)
(0.690021 -0.00514894 1.66108e-20)
(1.03665 0.0230871 -1.92218e-20)
(1.03104 -0.0080303 -9.2249e-22)
(1.02092 -0.00128015 -1.08127e-21)
(0.942293 0.0545011 -2.6029e-20)
(1.00672 0.0109107 0)
(0.655323 -0.00949341 1.09245e-20)
(1.04851 0.0056128 -1.60261e-22)
(1.01824 -0.000852246 0)
(1.0524 0.00742664 -4.40511e-23)
(1.04554 0.00108328 7.07141e-23)
(1.0126 0.00248129 1.28755e-22)
(1.01717 -0.0118211 -2.04377e-21)
(0.960319 0.0739038 0)
(1.06366 -0.00169691 3.67187e-22)
(1.04834 -0.000405066 -9.52264e-21)
(1.01822 -0.000860504 0)
(1.03787 0.0117457 0)
(1.06371 -0.00380303 -3.53741e-22)
(1.01589 -0.00610514 6.97096e-22)
(1.03221 0.0407314 -1.11784e-20)
(1.01174 0.0645345 -8.97298e-21)
(1.01837 -0.000193861 -1.01915e-21)
(0.657152 0.0726887 -5.73795e-21)
(1.03042 -0.00829352 6.13552e-23)
(1.02401 -0.000960103 3.29894e-22)
(1.02158 -0.00974822 -5.12065e-22)
(1.01678 -0.0102249 -9.07756e-23)
(1.03132 -0.00704787 4.07783e-22)
(1.01967 -0.000219024 6.55917e-23)
(0.978149 -0.000308067 1.28385e-20)
(0.703814 0.0804344 0)
(1.03139 -0.00671007 0)
(1.01008 0.0564921 -5.54177e-21)
(1.05323 0.0112974 4.54701e-21)
(1.01657 -9.44731e-05 9.94991e-23)
(1.03757 0.0248254 -9.87492e-21)
(1.04789 0.00739892 5.78813e-21)
(0.882738 0.0511735 0)
(1.03398 0.00659838 4.87977e-21)
(1.05048 0.000496857 0)
(0.927477 0.0626844 -1.98421e-23)
(0.953179 0.0600835 -2.34263e-22)
(1.01683 -0.0113245 -1.07016e-22)
(1.04837 0.0126727 1.1983e-22)
(1.06474 -0.00497695 1.89421e-22)
(1.01304 -0.000165985 -5.18487e-22)
(1.06091 0.0529242 -1.24924e-21)
(1.03649 0.000397626 0)
(1.01765 -0.00188117 0)
(1.01568 -0.00101411 -3.22077e-23)
(1.03362 0.00459731 0)
(1.00735 0.015243 -4.21578e-22)
(1.05867 0.0189221 1.17e-20)
(1.04252 0.0170258 2.06365e-21)
(1.05975 -0.00671815 0)
(1.02308 -0.0226 1.01053e-21)
(0.983195 0.000732563 -6.15777e-21)
(1.01336 0.0312823 4.0499e-21)
(1.01668 -0.001127 0)
(0.673002 0.0289361 -1.16216e-20)
(1.03363 0.0171471 0)
(1.01991 0.0146713 3.43206e-21)
(0.803869 0.0653043 -2.53852e-20)
(1.01884 -0.000691863 1.63598e-23)
(1.0131 0.0324031 4.26808e-21)
(1.04123 0.0458084 -6.34342e-22)
(1.02538 -0.00271743 4.04805e-22)
(0.877623 -0.000326729 1.19719e-20)
(1.02368 -0.000919832 7.70547e-22)
(1.04551 0.00123449 -9.15133e-23)
(1.03482 0.0249916 0)
(1.0486 0.00536196 0)
(1.02179 -0.000284372 0)
(1.03571 0.045155 0)
(0.953655 -0.00102357 0)
(0.601495 0.056464 0)
(1.01967 -0.00237766 1.81925e-22)
(1.02578 0.00146612 5.70055e-21)
(1.0581 -0.00742787 -1.13243e-22)
(1.05446 0.056105 0)
(1.03094 0.0648237 0)
(1.01692 -0.0015731 0)
(1.01745 -0.00136474 -1.15806e-22)
(1.01975 -0.00216903 -4.44475e-22)
(1.03066 0.0304597 0)
(0.76956 -0.0330153 0)
(1.03345 -0.0123352 0)
(1.03126 0.000394307 0)
(1.02437 -0.0148786 -1.30708e-21)
(1.02209 -0.00582706 8.45101e-22)
(1.03619 -0.0238681 -1.85768e-21)
(1.02568 0.0142863 -1.82592e-21)
(1.0359 0.000549807 -9.44057e-24)
(1.04242 0.0177466 -6.37513e-21)
(1.02536 -0.00252093 -1.16072e-21)
(1.02045 -0.00936118 -1.32208e-22)
(1.01953 0.00578801 0)
(0.837026 0.0160293 2.44243e-21)
(1.03684 -0.000503118 0)
(1.02894 0.00393684 0)
(1.04639 -0.0122885 0)
(1.03742 0.0114185 -1.45642e-20)
(1.04074 0.0265082 0)
(0.989176 0.0181555 -1.35594e-21)
(1.03078 0.0335989 8.76484e-21)
(0.998098 0.0480581 5.60359e-22)
(1.01865 0.00482743 1.99334e-21)
(0.985786 0.0011243 0)
(1.0476 -0.0013082 0)
(0.663512 0.0509341 0)
(0.715175 -0.00389684 1.57242e-20)
(1.03474 -0.0102646 4.37039e-22)
(1.02235 -0.0100345 0)
(1.06026 -0.00687775 5.32223e-22)
(1.0189 -0.00069555 9.05491e-22)
(1.07881 0.0152295 1.13854e-22)
(1.04529 0.00320778 0)
(0.714859 -0.0452934 -2.911e-21)
(1.02239 0.0112562 -1.61207e-21)
(1.07395 0.0013656 -2.21239e-20)
(0.997842 0.0436441 6.15139e-22)
(1.03213 0.0011462 0)
(0.0236661 -0.024777 -5.53132e-20)
(1.0319 -0.00677904 -7.5227e-22)
(1.04685 0.00842063 -1.1275e-20)
(1.03164 -0.000308156 -6.64133e-22)
(1.05364 -0.0117539 -1.17847e-23)
(1.06751 0.00153096 -3.39506e-20)
(1.04756 0.00505657 -2.11249e-23)
(1.05774 0.00918292 -1.48551e-20)
(1.01683 0.000361426 -2.69115e-23)
(1.01571 -0.000146092 -1.07327e-22)
(1.02199 -0.0101684 0)
(1.05792 0.0186323 -1.08845e-20)
(1.0367 -0.0245625 1.50675e-21)
(1.0398 0.000138082 0)
(1.0529 0.0151757 0)
(1.03666 0.0249167 1.76703e-22)
(0.749829 -0.0194116 0)
(1.06453 0.0164024 0)
(1.01195 -0.00180368 1.12039e-20)
(0.863151 0.0516823 0)
(1.03671 -0.000489796 -6.95054e-24)
(0.684999 -0.00865375 1.77959e-20)
(1.02477 0.00127441 0)
(0.595782 0.0860036 3.38407e-20)
(0.748528 0.00455469 6.07325e-22)
(1.05465 -0.0120047 1.18971e-22)
(1.0511 0.00725312 -1.20863e-22)
(1.0224 0.000715431 -2.47656e-24)
(1.03309 0.0169409 0)
(1.03139 0.00072814 0)
(1.04765 0.00482422 2.17249e-23)
(1.03094 -0.000294868 -2.6489e-22)
(1.01395 9.50025e-05 1.13742e-22)
(1.06706 0.0168511 3.23344e-20)
(1.01927 -0.00232419 -4.43722e-22)
(1.04596 0.0122491 0)
(1.01774 -0.00208449 -6.16437e-23)
(1.03954 0.000226621 1.89089e-23)
(1.0306 0.000668611 -4.99496e-23)
(1.03907 0.0525551 9.31975e-21)
(1.07314 0.0448303 1.62159e-20)
(0.167586 0.00291125 -2.8199e-20)
(1.04609 0.0201842 1.22326e-22)
(1.02618 0.0138785 7.90099e-21)
(1.06666 0.0366115 -6.16643e-21)
(0.766481 -0.00112462 0)
(1.04063 -0.00628175 -5.64618e-22)
(1.06272 0.0573801 -4.35762e-22)
(1.01314 -9.99407e-05 -1.6627e-22)
(1.04974 0.00705664 -3.43872e-21)
(1.01886 -0.00072781 0)
(1.06891 0.0251709 3.55977e-23)
(1.02229 -0.00572744 -1.11365e-21)
(1.03527 -0.0238074 1.24353e-23)
(1.02161 -0.00120304 3.05547e-21)
(0.747404 -0.0136523 8.93051e-22)
(1.0323 0.0184405 0)
(1.06081 0.0218591 0)
(1.03581 0.000302425 0)
(1.03093 0.0182456 0)
(1.03793 -0.0140533 5.62693e-22)
(1.01799 0.000119435 0)
(0.803026 0.0062054 -2.1834e-20)
(0.989327 0.049617 -1.76213e-21)
(1.03967 -0.0152302 0)
(1.04857 0.0355381 1.48953e-20)
(1.01728 -0.000594658 3.55095e-22)
(1.05337 -0.0100762 8.91522e-23)
(1.01946 0.00041526 2.3271e-24)
(0.826822 0.00792091 -2.0607e-20)
(1.01919 -0.00217588 4.07323e-22)
(1.02382 -0.024992 4.23992e-21)
(1.04519 0.00337077 1.05736e-22)
(1.03922 -0.0146515 -6.41323e-22)
(1.05927 0.0256628 1.15298e-20)
(1.02207 0.00064885 -5.53594e-23)
(1.04961 0.0315381 6.21501e-21)
(1.03077 3.05717e-05 1.69211e-22)
(1.0266 -0.0035387 -1.93219e-22)
(0.499551 0.0858034 0)
(1.04643 0.0123021 0)
(1.01709 -0.00178576 0)
(0.560452 -0.00518639 -2.83463e-21)
(1.05716 0.00906133 0)
(0.993893 -0.0198065 8.22561e-21)
(1.04017 0.0467782 -1.8794e-20)
(1.03197 -0.00644769 3.74489e-22)
(1.00623 -0.00935252 0)
(0.814409 0.0144641 -2.82551e-21)
(1.05476 0.00494657 0)
(1.00602 0.0090687 1.6862e-21)
(1.01275 0.00350609 3.51205e-23)
(1.03469 -0.0241167 -1.34123e-21)
(1.03242 2.97826e-06 1.71185e-22)
(1.02852 -0.0111945 -7.79817e-22)
(1.05121 0.00960762 1.93337e-22)
(1.04098 0.0283924 -1.40284e-20)
(1.0197 0.00985165 4.94887e-21)
(0.716742 0.0670416 -3.83894e-21)
(1.03302 0.0185365 3.10566e-21)
(0.995486 -0.0296057 0)
(1.0291 0.0664807 1.32381e-20)
(1.02828 -0.0237243 -2.04203e-21)
(1.02486 0.0213221 1.41462e-22)
(1.05104 0.0360562 -2.65096e-22)
(0.737901 -0.00292684 -2.42398e-20)
(1.0437 -0.0110031 -2.35129e-22)
(1.03276 -0.0229365 1.49648e-21)
(1.05456 0.00785623 -3.01984e-22)
(1.02626 -0.00342622 2.01987e-22)
(1.03545 0.000140853 -3.13496e-22)
(1.0304 0.000601741 0)
(1.05911 -0.00753689 3.76132e-22)
(1.02056 -0.000297684 0)
(0.693596 -0.00870016 -2.06658e-20)
(1.04088 0.00624151 -8.87115e-21)
(1.03076 -0.000976662 2.5628e-22)
(1.05054 0.0176575 -2.03342e-20)
(1.03617 0.000261405 8.84557e-24)
(0.863171 0.0246177 1.60464e-20)
(1.04739 -0.0110147 0)
(1.03235 -0.0115789 -2.99001e-22)
(0.91842 -0.000777541 -2.65167e-20)
(1.04056 0.0247446 1.42832e-20)
(0.805106 0.0325343 1.30851e-21)
(1.0224 -0.000422892 0)
(1.05228 0.00819726 1.11326e-23)
(1.03508 -0.0116847 0)
(1.02452 0.000551867 4.65919e-21)
(1.03175 0.011036 8.90728e-22)
(1.02375 -0.00770534 6.8471e-22)
(0.658203 -0.00609456 -2.15781e-20)
(1.0189 0.0170385 0)
(0.76161 -0.0172701 0)
(0.808478 0.030346 0)
(1.03293 -0.0231092 -1.53266e-21)
(1.01442 -0.0019542 -2.69778e-20)
(1.02562 0.00175297 -2.96035e-21)
(1.03073 -0.000352298 0)
(1.03838 -0.0145705 5.88676e-22)
(0.762364 -0.00219142 0)
(0.679387 0.0581333 2.96407e-22)
(1.02165 0.0119933 5.63027e-21)
(0.670454 -0.00852862 -2.93745e-20)
(0.718568 -0.0552566 -1.13127e-21)
(1.02725 -0.00401137 -4.04987e-22)
(1.03312 -0.0113153 -5.47229e-22)
(1.01212 0.00194724 8.10642e-23)
(1.05234 0.0013178 0)
(0.838941 0.040861 3.85119e-22)
(1.03185 0.019247 -1.64502e-21)
(1.02422 0.000539954 -5.99737e-21)
(1.02876 0.00427123 2.62612e-21)
(1.04979 0.00671239 0)
(1.02354 -0.0200832 -1.89467e-21)
(1.04805 0.0331837 0)
(1.0408 0.00670976 0)
(1.01576 -0.00175872 1.32946e-22)
(1.02096 0.00344083 -1.2001e-22)
(1.03012 -0.000340618 0)
(1.03128 0.010963 4.54869e-21)
(1.02425 -0.0230007 0)
(1.05243 0.00292882 2.93512e-20)
(1.01377 0.00722426 1.37828e-21)
(1.05868 -0.00982115 -2.25139e-22)
(0.660168 -0.00669597 -1.79346e-20)
(1.04573 0.0157339 8.71234e-23)
(0.717897 -0.0519837 1.24687e-21)
(1.01335 0.0033622 1.36398e-22)
(1.00085 -0.0052003 3.19425e-21)
(1.02451 0.0106983 4.90075e-21)
(1.05474 0.00526325 -1.52266e-20)
(1.03389 0.000167347 4.59002e-23)
(1.04642 0.00803191 9.64184e-21)
(1.07697 0.042576 0)
(0.976953 -0.0390045 1.86386e-22)
(1.01905 -0.000619793 4.57846e-22)
(1.0143 0.00756487 1.34171e-21)
(1.01897 -0.000347939 -1.2655e-22)
(1.01856 -0.000910289 0)
(1.0215 -0.00164723 -3.21279e-22)
(1.00781 -0.0187023 0)
(1.06462 -0.00275387 -3.98941e-22)
(1.03782 0.0518599 -2.73186e-20)
(1.04935 0.032841 0)
(1.03253 -0.00615878 -7.37958e-22)
(1.05296 0.00272153 0)
(1.03445 0.0022937 4.76507e-21)
(1.03357 0.00493483 4.99636e-21)
(1.05002 0.0351031 -1.24236e-20)
(1.01704 -0.00675548 6.8883e-22)
(1.04681 0.00868816 2.23936e-20)
(0.990851 0.0584601 -1.7562e-21)
(1.03814 -0.000143894 3.39475e-23)
(1.04089 0.0240015 -2.03415e-20)
(1.02828 0.0390056 8.31827e-21)
(1.04032 0.00698634 -1.05864e-20)
(1.0288 -0.0093376 -1.15274e-21)
(1.03069 -0.00726768 1.31918e-21)
(1.02889 -0.0112297 0)
(0.67754 -0.00408968 -1.37205e-20)
(1.02077 0.00292346 -2.04872e-21)
(1.04905 -0.0110625 0)
(1.04302 0.00684481 -1.71582e-20)
(1.02351 -0.00787214 0)
(1.03137 -0.00886635 2.46708e-22)
(1.04216 0.0390915 -2.66798e-20)
(0.991138 0.055266 -9.15065e-22)
(1.0056 -0.0228903 4.06011e-21)
(0.858439 0.0727789 0)
(0.996728 0.0215891 -2.32659e-21)
(1.04559 -0.00111207 1.81737e-20)
(1.02163 -0.00183167 4.38556e-22)
(1.01801 -0.0193617 2.64648e-21)
(1.0664 0.0303017 0)
(1.05524 -0.0115418 -2.54226e-22)
(1.05836 -0.0277211 0)
(1.03335 0.000603007 9.98123e-23)
(1.03514 -1.2481e-05 1.82687e-22)
(1.02189 -2.36289e-05 3.63645e-21)
(1.01254 0.00721154 -7.37532e-22)
(0.988495 0.0201817 0)
(1.02907 -0.00925302 -5.18711e-25)
(1.0623 -0.017362 -3.79239e-22)
(1.02656 -0.0150442 5.87638e-22)
(0.754372 0.00378323 0)
(1.01367 0.00377955 -3.49596e-22)
(1.03415 0.00611477 -5.29839e-21)
(1.04952 0.0059485 -1.12678e-23)
(1.04716 0.0210634 -2.8641e-21)
(1.00824 -0.0086498 0)
(1.00583 0.0516293 3.10872e-20)
(1.0041 -0.022448 -5.59729e-21)
(1.0306 0.000626503 -1.41554e-22)
(0.835149 0.0193519 1.69984e-20)
(1.02055 0.00375263 0)
(0.713018 -0.00474318 -2.34145e-20)
(1.03124 -8.73991e-05 0)
(0.998691 -0.0230258 0)
(1.02252 -0.0186692 0)
(1.03609 -0.0094703 4.23399e-22)
(1.01898 -0.000685848 0)
(1.01186 0.00230189 3.42693e-20)
(1.03044 0.0114895 0)
(0.992178 -0.0214894 -8.77528e-21)
(0.859578 0.0691971 -1.79389e-21)
(1.0185 -0.000902602 -9.57498e-22)
(1.04032 0.00748006 1.66182e-20)
(1.02611 0.00624971 -1.87114e-23)
(1.05421 -0.0208416 -8.41863e-23)
(0.770613 -0.0378241 2.83739e-22)
(1.02722 0.00689147 2.24927e-23)
(0.684395 0.057209 -3.97364e-20)
(1.02965 0.00355709 0)
(0.99743 -0.021633 2.8593e-21)
(1.05162 0.0222209 1.41391e-20)
(1.03452 -0.0443732 0)
(1.04184 -0.00120934 4.48026e-23)
(1.0351 -0.000152982 4.05188e-22)
(1.02273 0.0441915 0)
(1.03249 -0.00649753 7.47249e-22)
(1.01751 -0.00247017 -7.22947e-23)
(1.01638 0.0036354 -5.2446e-22)
(1.02313 -0.0102753 -1.03266e-21)
(1.04302 0.00722533 1.3138e-20)
(1.04153 -0.00107318 -1.37483e-23)
(0.972212 0.0228753 0)
(1.01561 -0.00217372 -7.94023e-22)
(0.719381 -0.00399422 -5.4628e-20)
(0.705714 -0.00550732 0)
(1.0193 -0.0549797 -4.592e-21)
(1.0469 -0.000944227 -1.88327e-20)
(0.709736 0.0724355 0)
(0.696387 -0.00335773 6.13996e-20)
(0.996317 -0.0528409 0)
(1.02905 -0.00383676 1.0664e-21)
(1.05352 -0.00917668 -1.21509e-22)
(1.01995 -0.000237246 -1.58144e-21)
(1.01875 0.00336907 8.07948e-22)
(1.0198 -0.00234467 1.25232e-22)
(1.03101 0.0115403 -6.94399e-21)
(1.01941 -0.00322457 -1.52617e-22)
(0.983429 -0.0214074 5.4761e-22)
(1.01738 -0.00227193 0)
(1.06605 0.0120224 -4.50596e-21)
(1.02083 0.0025533 -2.0245e-21)
(1.03945 0.0045519 0)
(1.01891 0.0419842 8.80798e-21)
(1.03659 -0.0108816 0)
(1.01109 0.0236984 -2.26976e-21)
(1.02028 0.0037789 -3.97374e-22)
(1.0528 -0.0133875 -1.82556e-23)
(1.02723 0.0101148 -1.57469e-22)
(1.05122 0.00749526 -3.60275e-23)
(1.02275 -0.00280242 1.16805e-20)
(1.04171 0.0292631 -8.17509e-21)
(1.07744 -0.0126674 1.58548e-22)
(1.0339 -0.0110155 0)
(1.01802 -0.00220309 5.53571e-22)
(1.02169 -0.0126768 -3.23347e-21)
(1.02614 -0.0153701 0)
(0.828345 0.0613317 6.48717e-21)
(1.02854 -0.00402212 -9.36415e-23)
(0.992483 0.048883 1.95124e-21)
(1.02218 -0.00538988 2.6625e-22)
(0.878485 0.0619909 0)
(1.00985 -0.010799 -1.55266e-21)
(1.02062 -0.00511964 8.89778e-22)
(1.04673 0.00814109 0)
(1.05263 -0.0262396 0)
(1.02845 -0.00429098 -3.7314e-22)
(0.811201 0.018782 0)
(1.06736 0.0545061 4.74568e-20)
(1.01105 -0.000987164 -2.58076e-21)
(1.0476 0.0196196 0)
(1.03402 -0.00658661 -3.27885e-22)
(0.993267 0.0459014 0)
(1.05243 0.00855854 0)
(1.02549 -0.0149964 0)
(0.768224 0.00203663 0)
(1.03405 -0.000207917 -4.53529e-22)
(1.02344 0.0025957 -1.03966e-21)
(1.0501 0.0181985 1.24971e-20)
(0.755019 -0.000582455 0)
(1.05327 0.00901125 0)
(0.917101 -0.0496244 2.14017e-23)
(1.06822 0.0305662 -2.74835e-20)
(1.05653 -0.00415847 7.83738e-22)
(1.01867 -0.0149677 2.0627e-21)
(1.02278 -0.010439 2.07714e-21)
(1.06593 0.0116681 2.3377e-20)
(1.01787 -0.0018381 -3.53102e-22)
(1.05363 0.0151816 0)
(1.02001 0.000465854 0)
(0.889861 -0.000234604 0)
(1.00896 -0.00976652 -3.86876e-21)
(0.974658 0.0677397 7.919e-21)
(1.03116 -0.0126179 7.08475e-22)
(1.04376 0.00635903 -9.70814e-24)
(1.00525 0.0466751 0)
(1.01854 -0.000275827 0)
(1.04473 0.0153765 -6.94764e-23)
(1.06714 -0.00179704 0)
(1.0148 0.00154161 5.23955e-23)
(1.0242 -0.00399404 -4.25746e-22)
(0.863217 -0.0443004 3.77832e-21)
(1.057 -0.00378009 -5.25636e-22)
(1.05408 -0.0088296 9.26386e-23)
(1.04145 0.0273789 0)
(1.01552 0.00316956 6.16869e-22)
(1.07668 0.0160424 -2.50732e-20)
(1.01364 0.0234025 2.79975e-21)
(1.04797 0.00810133 -3.36356e-20)
(1.03852 0.0468363 -1.76907e-20)
(1.02828 0.00436106 -4.81106e-21)
(0.897113 -0.00046471 0)
(1.01497 -0.00192527 3.35105e-22)
(1.04115 0.0255923 -1.43973e-20)
(1.01837 -0.000941688 7.51205e-23)
(0.706793 -0.00439254 -3.77331e-20)
(0.900143 0.0609397 0)
(1.02305 -0.000685621 -2.67553e-21)
(1.05266 0.00858016 0)
(1.05138 -0.0122903 6.63253e-23)
(1.01698 -0.00130297 0)
(1.05188 0.00810278 -3.50318e-23)
(1.05004 -0.00117703 0)
(1.04957 -0.00640437 0)
(1.01894 -0.000742345 -1.28751e-21)
(1.0246 0.0150951 -3.27132e-21)
(1.03795 -5.77298e-05 2.2297e-23)
(1.01521 0.00140764 0)
(1.04754 0.0153833 2.4486e-20)
(0.807509 0.0506797 0)
(0.986749 0.0495796 -1.71914e-20)
(1.04929 0.018048 0)
(1.02118 -0.01229 1.5369e-21)
(1.0023 0.052406 0)
(1.0196 -0.00298266 0)
(1.06575 0.0285903 -2.725e-20)
(0.764932 -0.0358606 2.39513e-22)
(0.36776 -0.00144235 2.33935e-20)
(1.04558 0.00191347 -5.14242e-23)
(1.02896 -0.0041023 -6.30014e-22)
(1.01806 -0.000141924 1.02823e-22)
(1.01792 -0.00459234 -7.27282e-22)
(1.04511 0.00193272 0)
(1.05252 0.00710327 -5.53876e-23)
(1.01875 -0.00170803 -9.22842e-23)
(1.02497 0.0221377 -4.84687e-21)
(1.02392 -0.00389795 0)
(0.51877 0.0167787 4.80537e-20)
(0.910482 -0.0484216 -5.30549e-21)
(1.02553 -0.00597871 8.05364e-22)