/*--------------------------------*- C++ -*----------------------------------*\
| =========                 |                                                 |
| \\      /  F ield         | OpenFOAM: The Open Source CFD Toolbox           |
|  \\    /   O peration     | Version:  v2012                                 |
|   \\  /    A nd           | Website:  www.openfoam.com                      |
|    \\/     M anipulation  |                                                 |
\*---------------------------------------------------------------------------*/
FoamFile
{
    version     2.0;
    format      ascii;
    class       surfaceVectorField;
    location    "650";
    object      Uf;
}
// * * * * * * * * * * * * * * * * * * * * * * * * * * * * * * * * * * * * * //

dimensions      [0 1 -1 0 0 0 0];


internalField   nonuniform List<vector> 
20537
(
(1.0335 -0.0364976 -8.74086e-23)
(1.03246 -0.0369556 2.83176e-22)
(1.03363 -0.0379189 0)
(0.524913 0.0577479 1.17207e-20)
(0.540193 0.0470418 -1.82971e-21)
(0.546107 0.0531831 -1.88568e-21)
(1.11735 -0.0210712 5.44784e-21)
(1.11669 -0.0215422 0)
(1.11734 -0.0220614 0)
(1.03059 -0.0356048 -2.07363e-22)
(1.03147 -0.0363717 -7.2385e-22)
(1.03006 -0.0362336 -3.70206e-22)
(1.12964 -0.00905947 5.55041e-21)
(1.12868 -0.0104435 -8.06725e-21)
(1.12785 -0.00884664 5.73278e-21)
(1.0192 -0.0526445 -9.82095e-22)
(1.01988 -0.0524679 8.5544e-23)
(1.01935 -0.0519506 -2.25627e-22)
(1.04104 0.00666063 -7.08144e-22)
(1.04192 0.00673577 -1.05781e-21)
(1.04128 0.00725956 -1.14944e-21)
(1.1084 -0.0156506 0)
(1.10795 -0.0147897 3.08913e-21)
(1.10935 -0.0149661 0)
(0.991749 -0.00539292 -9.60082e-23)
(0.991383 -0.00555062 -1.82213e-22)
(0.991383 -0.00493339 -3.32402e-22)
(1.1155 -0.0291562 -1.62606e-21)
(1.11445 -0.0296482 -3.00286e-21)
(1.11434 -0.0285352 1.97132e-21)
(0.848057 0.0869332 -5.23016e-22)
(0.858805 0.0860954 1.86411e-21)
(0.853609 0.0962669 4.31106e-22)
(0.301774 0.0255739 -1.89422e-23)
(0.28502 0.0266279 0)
(0.270486 0.0368599 0)
(0.715704 -0.0274491 -7.7763e-21)
(0.758612 -0.0258635 -4.40046e-21)
(0.724598 -0.0257688 -7.07125e-21)
(0.135598 0.018616 1.55798e-20)
(0.165072 0.0209562 -6.61987e-21)
(0.0768084 0.00462522 -8.95931e-22)
(1.02703 0.00026276 -4.47033e-24)
(1.02691 0.000289603 -8.20199e-23)
(1.02709 0.000390841 4.00463e-22)
(1.09094 -0.0248178 5.10973e-22)
(1.09162 -0.023808 4.04869e-24)
(1.09245 -0.0251245 -1.4453e-21)
(1.07991 -0.00779276 1.52498e-21)
(1.07869 -0.00838107 -1.01904e-21)
(1.07877 -0.00721617 -2.47316e-21)
(1.06031 -0.0435821 5.99427e-23)
(1.06092 -0.0423034 1.53803e-22)
(1.06185 -0.0440048 2.3532e-22)
(0.860742 -0.0310463 6.76239e-21)
(0.858201 -0.0316832 -3.10875e-21)
(0.916486 -0.0292934 -8.16789e-21)
(0.99211 -0.00523647 -2.34615e-22)
(0.99213 -0.00585997 -4.60541e-22)
(1.02962 -0.0347857 2.58403e-22)
(1.03109 -0.0347512 -1.03448e-23)
(1.11769 -0.0200199 -4.30617e-22)
(1.11856 -0.0207022 -7.41754e-21)
(1.00833 0.000452137 1.60863e-22)
(1.00969 0.000651797 -2.16338e-22)
(1.01058 0.000974351 1.03887e-22)
(0.992841 -0.000341952 8.36845e-23)
(0.993567 -0.000163946 -9.69299e-23)
(0.992551 -0.000305052 7.38259e-23)
(1.00709 0.000370697 3.5515e-22)
(1.00567 0.00011644 7.35012e-22)
(1.10766 -0.0165945 1.91912e-22)
(1.10909 -0.0167926 4.35349e-21)
(1.07888 0.0069702 -1.05502e-21)
(1.07763 0.00715207 -3.1672e-21)
(1.07805 0.00618645 -1.08499e-22)
(0.00635866 -0.0619532 -2.2892e-21)
(0.00633115 -0.0650889 2.3035e-20)
(1.03366 -0.0354767 1.81528e-22)
(1.03479 -0.0364191 8.81921e-23)
(1.06145 -0.0282945 -2.0196e-22)
(1.06268 -0.0278936 6.88432e-22)
(1.06236 -0.0292782 -1.59623e-21)
(1.01856 -0.0529252 -5.37234e-22)
(1.0192 -0.053389 -8.67482e-24)
(1.08103 -0.00877919 1.17545e-21)
(1.08127 -0.00742922 4.35767e-21)
(1.1157 -0.0212646 0)
(1.11598 -0.0222181 0)
(0.944085 -0.0619258 -1.20602e-23)
(0.947127 -0.0629998 1.09893e-21)
(0.946552 -0.0660488 2.52879e-23)
(0.993047 -0.000353679 -3.14498e-22)
(0.993062 -0.000567318 -2.00368e-22)
(1.1497 0.0346661 -8.35901e-21)
(1.14948 0.0362349 -1.02946e-20)
(1.15393 0.035816 -7.93609e-21)
(0.909706 0.0186121 0)
(0.951676 0.0198132 0)
(0.955607 0.0210585 -1.97208e-21)
(0.995451 -0.0342583 2.0766e-21)
(0.974466 -0.036213 0)
(1.04404 -0.0313983 -2.60361e-21)
(1.11695 -0.0292878 -2.19994e-23)
(1.11638 -0.028352 1.77364e-21)
(0.940739 -0.0580566 1.01864e-22)
(0.939884 -0.0615122 2.24934e-21)
(1.02578 -0.0176865 1.6708e-23)
(1.02577 -0.018342 -1.22098e-22)
(1.0266 -0.018089 2.05789e-23)
(1.02591 -0.000224208 4.60016e-23)
(1.02576 0.000124028 0)
(1.02518 -9.30701e-05 0)
(0.000828953 0.0476133 0)
(0.00458449 0.0440301 0)
(0.00259254 0.0445821 0)
(0.909404 0.0722077 1.27418e-22)
(0.909004 0.0798752 -2.1427e-23)
(0.892433 0.0804625 5.02199e-21)
(0.910496 0.0656711 -1.1546e-21)
(0.927608 0.0645613 -7.24644e-22)
(0.0258797 -0.0181051 -1.08059e-21)
(0.0535685 -0.0206715 -3.79967e-21)
(0.0606775 -0.0259281 1.0694e-22)
(0.967319 0.0706598 -1.10414e-23)
(0.956258 0.0673921 0)
(0.969628 0.0619551 4.16028e-23)
(1.01158 -0.0231951 2.3199e-22)
(1.00208 -0.0172503 -4.89923e-21)
(1.00511 -0.0171706 2.31615e-22)
(1.08007 0.0067392 -1.28098e-21)
(1.07966 0.00776115 2.38383e-21)
(0.942917 -0.00110455 -1.51256e-21)
(0.946467 0.000233008 3.09246e-21)
(0.945216 -0.00476338 -9.19451e-23)
(1.13183 0.00827795 8.53197e-22)
(1.13342 0.00878286 9.98517e-21)
(1.13178 0.00984091 0)
(1.14853 -0.0009808 -7.34957e-21)
(1.14772 0.00024068 -5.53822e-21)
(1.15031 0.000465669 7.40463e-21)
(-0.0188019 -0.0210284 -1.56279e-20)
(-0.015147 -0.0157254 -1.51428e-20)
(-0.0130661 -0.0227904 -2.5568e-21)
(1.02697 -3.51376e-05 5.99241e-22)
(1.0267 0.000111128 1.23002e-22)
(1.02714 4.05252e-05 2.86435e-22)
(1.01706 -0.00145635 6.42559e-23)
(1.01732 -0.00133518 -5.43685e-22)
(1.01804 -0.00181586 5.7951e-23)
(1.02606 -0.000571805 3.67149e-24)
(1.02669 -0.000371594 4.40119e-23)
(0.995506 0.0010948 8.23577e-22)
(0.995567 0.00127406 3.3251e-22)
(0.994918 0.000903363 -2.00718e-22)
(-0.0330743 -0.034104 0)
(-0.0372993 -0.0323916 0)
(-0.0317149 -0.03699 -1.01489e-20)
(1.06042 -0.0270754 2.50951e-22)
(1.06 -0.0284577 3.1583e-22)
(1.04548 0.00418207 -5.84614e-22)
(1.04451 0.00419288 9.91367e-22)
(1.0451 0.00483651 2.81483e-21)
(0.937207 -0.0362648 4.51389e-21)
(1.00715 -0.0325299 2.79255e-21)
(0.329874 -0.0492294 -5.66547e-21)
(0.328722 -0.0493426 -1.3505e-20)
(0.290043 -0.051641 -1.54047e-20)
(1.0616 -0.065337 -5.98895e-22)
(1.05959 -0.0669167 -3.15633e-22)
(1.05934 -0.0640909 -5.28271e-22)
(1.13405 -0.00849599 -1.24628e-21)
(1.13308 -0.00976891 0)
(1.13482 -0.00999138 9.18921e-21)
(1.08816 -0.0618922 4.42021e-22)
(1.09544 -0.0638303 -4.80556e-22)
(1.09809 -0.0640475 -8.45511e-22)
(1.03238 -0.0419283 -1.00348e-23)
(1.03146 -0.0409714 1.33552e-23)
(1.03122 -0.0422113 -2.87079e-22)
(0.86734 0.0149285 0)
(0.874021 0.0162259 -4.15965e-21)
(0.984764 0.0789306 -2.33144e-22)
(0.9761 0.074857 -3.35756e-21)
(1.10432 0.00803815 6.42104e-21)
(1.1042 0.00680624 -5.16562e-21)
(1.10289 0.00755284 -1.63358e-20)
(1.05881 -0.0431576 7.50489e-23)
(1.0595 -0.0449263 6.57923e-23)
(0.23928 0.00773888 -4.59045e-23)
(0.231522 0.00783666 -1.26701e-20)
(0.211877 0.00911421 -3.336e-22)
(0.778224 0.0103592 0)
(0.776539 0.0102155 0)
(0.824445 0.0130909 0)
(0.531137 0.0693589 4.55279e-21)
(0.516161 0.064803 7.82329e-21)
(1.02703 0.000152852 -2.69088e-22)
(1.02663 -0.000124335 -6.73363e-22)
(1.01642 -0.00266136 1.77979e-24)
(1.01694 -0.00291117 0)
(1.01638 -0.00319233 0)
(0.989484 -0.00928715 5.51364e-22)
(0.989046 -0.00880674 -1.21645e-22)
(0.989569 -0.00861001 5.57174e-22)
(1.11798 -0.0194157 -4.11463e-21)
(1.11706 -0.0197419 8.44449e-21)
(0.29726 0.00767573 -1.54206e-21)
(0.315024 0.00663422 -1.05167e-20)
(0.298737 0.00864619 3.59345e-21)
(1.11393 -0.00297856 0)
(1.11536 -0.00289791 -4.532e-21)
(1.11488 -0.00411753 0)
(0.229943 0.00701382 -6.11621e-21)
(0.208207 0.0061653 5.09966e-21)
(1.05332 0.00226468 -1.10338e-21)
(1.05255 0.00171865 -1.71662e-21)
(1.05207 0.00251953 0)
(0.936646 -0.0629399 1.46933e-22)
(0.95987 -0.062582 3.09899e-21)
(0.934915 -0.0527991 8.29769e-22)
(1.03333 -0.00298244 -2.62498e-22)
(1.03389 -0.00324901 -9.6235e-22)
(1.03321 -0.00338783 -1.50438e-21)
(0.0358629 -0.00700782 0)
(0.0598638 -0.0077749 1.75546e-20)
(0.024736 0.00119341 1.64725e-20)
(1.06326 -0.0640054 -2.14002e-22)
(1.06379 -0.0666148 9.04047e-23)
(0.317605 0.023309 -1.38539e-21)
(0.344572 0.0154353 -1.76654e-23)
(1.01771 -0.0494628 -5.5326e-22)
(1.01826 -0.050376 2.74963e-22)
(1.01869 -0.0494557 3.08114e-22)
(0.560379 0.00650052 5.31303e-22)
(0.625983 -0.00654754 4.76253e-22)
(0.602205 -0.00460918 9.87667e-22)
(1.08293 -7.24499e-05 0)
(1.08297 -0.00109349 -2.31708e-21)
(1.08427 -0.000432305 0)
(1.00755 0.0276486 -6.51635e-22)
(1.00692 0.0262627 1.96114e-22)
(1.00869 0.0271353 8.03695e-22)
(1.14839 0.0333373 2.65813e-20)
(1.15095 0.0327898 8.74581e-22)
(1.00559 -0.0397011 3.30589e-22)
(1.00585 -0.0402719 1.00124e-22)
(1.00511 -0.0399767 0)
(0.983223 0.0876214 3.81571e-22)
(1.09039 0.00027134 6.44644e-21)
(1.09099 -0.00033367 1.82162e-21)
(1.09153 0.000651847 5.77001e-21)
(1.0818 0.00041916 0)
(1.08311 0.00125012 1.56909e-21)
(0.993575 0.000374414 1.67439e-22)
(0.993353 0.000404472 5.10893e-22)
(0.993554 0.000594862 -2.69329e-22)
(1.13133 -0.00962535 0)
(1.13074 -0.00788213 -4.73808e-21)
(0.456954 -0.0248766 3.01399e-21)
(0.437435 -0.024584 -7.36575e-24)
(0.442256 -0.0228116 -5.34379e-21)
(0.938844 -0.00279927 -3.40483e-22)
(0.940661 0.00251393 -7.66638e-22)
(0.994511 0.000173837 -2.79519e-22)
(0.993826 0.000349458 -2.87268e-22)
(-0.0269216 -0.0194808 2.16916e-23)
(0.00360264 -0.011885 2.76416e-20)
(-0.0142795 -0.0164984 -2.86725e-21)
(1.11932 0.0028639 -1.28579e-21)
(1.11958 0.00422156 -5.71336e-21)
(1.11802 0.00363778 -9.58454e-21)
(1.03933 -0.0272438 -8.26666e-23)
(1.04051 -0.0277575 -5.62345e-23)
(1.03956 -0.0282694 -6.0157e-23)
(1.0751 0.0174379 -8.84633e-22)
(1.07605 0.0179528 -7.319e-21)
(1.01135 -0.000139903 1.23811e-23)
(1.01394 -0.000225084 -5.52581e-24)
(1.01173 -0.000178279 1.25344e-23)
(1.01558 -0.0495771 8.11456e-22)
(1.01447 -0.0495155 0)
(1.01507 -0.0484066 -2.89352e-22)
(1.12265 0.00656742 -3.28211e-21)
(1.12239 0.00521785 0)
(1.12405 0.00567088 0)
(1.02284 -0.00169044 1.18258e-23)
(1.02285 -0.00138469 -8.19542e-23)
(1.02231 -0.00147465 -7.11919e-23)
(0.694878 0.00769936 5.58709e-22)
(0.654633 0.00595334 1.93563e-21)
(1.02011 -0.0529819 -1.78827e-22)
(1.02043 -0.0525128 -4.89491e-22)
(0.992171 -3.49422e-07 0)
(0.993419 2.32872e-05 0)
(0.992201 3.21435e-05 6.61799e-22)
(1.00835 0.0291859 -3.24551e-22)
(1.00646 0.0281795 -3.38588e-22)
(1.00539 -0.0390333 4.59884e-22)
(1.00624 -0.0393785 2.99803e-22)
(0.995156 -0.000115875 -3.94827e-22)
(0.995076 -5.5665e-05 2.60662e-22)
(0.991952 -9.23355e-06 0)
(0.992209 -1.45528e-05 4.42353e-22)
(0.76846 -0.00422154 9.04017e-22)
(0.809694 -0.0104214 4.78888e-21)
(0.479225 -0.025066 3.33559e-21)
(0.475404 -0.0270207 -2.67136e-21)
(1.0214 0.000141024 -3.33973e-24)
(1.0216 0.000209181 -3.74026e-23)
(1.02164 1.70751e-05 -2.94047e-23)
(1.00249 -0.00103277 4.45687e-22)
(1.00197 -0.000956119 -2.24374e-23)
(1.0013 -0.000517576 -1.97425e-22)
(1.01553 -0.00151252 2.78083e-24)
(1.01417 -0.00127482 0)
(1.01412 -0.00106043 0)
(-0.00286461 0.0484004 -7.25348e-21)
(-0.00187692 0.0564279 0)
(1.07556 0.0163152 -4.58992e-21)
(1.07413 0.0166978 -4.00223e-22)
(0.709492 -0.0292086 0)
(0.675339 -0.0290823 -1.07243e-20)
(0.895604 -0.0379399 3.72295e-21)
(1.01699 -0.029734 0)
(1.01146 -0.0290847 5.02434e-23)
(1.06485 0.030465 -1.71692e-22)
(1.06305 0.0259188 -3.83029e-23)
(1.06854 0.0270072 2.48044e-21)
(1.01799 -0.0353752 -9.03006e-23)
(1.02123 -0.0329867 0)
(1.11635 -0.000417224 3.21344e-21)
(1.11684 0.000578678 0)
(1.11769 -0.000804855 0)
(1.02879 -0.0339766 -1.31352e-22)
(1.02826 -0.0347705 6.25684e-22)
(1.13869 -0.0208496 -8.48215e-21)
(1.13744 -0.019617 -7.4549e-21)
(1.14133 -0.0206462 -4.27007e-21)
(1.02502 -0.0172753 -2.14066e-24)
(1.02579 -0.0170136 -7.31263e-24)
(0.99963 -0.00615801 -1.35312e-23)
(0.999997 -0.00660464 -1.43868e-22)
(1.0002 -0.00617905 -1.42901e-22)
(0.245742 0.00700461 -1.07706e-20)
(0.257518 0.00567084 3.20475e-22)
(1.03337 -0.00253951 6.59976e-22)
(1.03272 -0.00270361 6.22085e-22)
(0.780324 0.00422223 -1.06339e-20)
(1.00124 -0.002582 -6.9461e-23)
(1.00073 -0.00245887 -2.03044e-22)
(1.00066 -0.00202588 -1.38661e-24)
(1.02123 4.2679e-05 2.76131e-23)
(1.0212 0.00022698 1.47642e-22)
(0.78451 0.0100506 3.7721e-21)
(0.791267 0.00937988 -3.05102e-21)
(0.832991 0.0114688 -8.52652e-22)
(-0.00436256 -0.0392417 9.41734e-21)
(-0.0184685 -0.0354516 -7.41447e-21)
(-0.00998251 -0.0317758 1.4943e-20)
(0.397112 0.09554 -4.77502e-21)
(0.511735 0.110143 0)
(0.404848 0.101036 0)
(-0.0369533 -0.0226113 -1.18321e-20)
(-0.047601 -0.0263782 -2.80702e-20)
(1.01695 -0.00173882 -5.52578e-24)
(1.01553 -0.000962115 4.20209e-23)
(0.984888 -0.0208554 9.39291e-22)
(0.985086 -0.0219852 -1.29808e-22)
(0.983948 -0.0214786 4.39227e-22)
(1.03585 0.00395324 9.80021e-23)
(1.0352 0.00456222 7.93264e-23)
(1.03657 0.00450961 0)
(1.06711 -0.012067 -3.23409e-22)
(1.06848 -0.012131 8.13283e-22)
(1.06724 -0.0110922 5.16118e-22)
(0.924812 0.0803113 6.87903e-23)
(0.908893 0.088098 -4.42915e-21)
(1.06322 -0.0237872 1.52921e-24)
(1.06007 -0.0252321 6.47908e-24)
(1.05943 -0.0215813 1.14307e-24)
(1.13483 -0.02324 -1.28324e-20)
(1.13732 -0.0215004 3.20517e-21)
(1.04006 0.00655359 -7.89128e-23)
(1.04068 0.00606 -7.76831e-22)
(0.890982 0.0677052 -5.9499e-24)
(0.911595 0.0609474 -1.63748e-23)
(1.12973 0.0293113 2.16839e-20)
(1.13106 0.0290244 1.06451e-20)
(1.014 -0.00149329 0)
(1.01391 -0.00163243 0)
(1.01492 -0.00191386 0)
(0.0845809 0.0120151 -5.85429e-21)
(0.194346 0.0280628 7.64221e-21)
(0.995488 0.000893581 3.8907e-22)
(0.9961 0.00132767 -2.31357e-22)
(1.068 -0.00062601 -2.59873e-21)
(1.06859 3.37304e-05 -2.14368e-21)
(1.06739 0.00015006 -2.34096e-21)
(1.06705 -0.0132085 -1.03406e-21)
(1.06574 -0.0122067 1.15357e-21)
(1.00743 -0.0162546 1.76201e-22)
(1.00688 -0.0157643 -2.2635e-22)
(1.00675 -0.0163631 2.44078e-22)
(1.05944 -0.0233458 0)
(1.05856 -0.0224554 0)
(1.05984 -0.0223412 1.36777e-21)
(1.15307 -0.00253177 0)
(1.14734 -0.00257166 -1.33522e-20)
(1.13025 0.00771803 1.69436e-23)
(1.13173 0.00663684 -1.17005e-21)
(1.02944 -0.00757383 -8.11941e-23)
(1.02846 -0.00713145 6.8e-22)
(1.02859 -0.00778051 -2.97106e-23)
(1.09128 0.0087413 6.22297e-21)
(1.09201 0.00830893 8.77773e-21)
(1.09232 0.00932062 5.332e-22)
(-0.0285956 -0.0363536 0)
(-0.0325741 -0.0310512 0)
(0.999314 -0.00573033 6.43572e-22)
(0.999133 -0.00613545 1.70216e-22)
(1.07489 -0.0332537 4.89228e-22)
(1.07569 -0.0317203 8.20427e-22)
(1.07379 -0.0318009 1.32674e-21)
(1.03049 0.00242164 0)
(1.03114 0.00286963 8.41343e-23)
(1.0301 0.00290455 -1.24802e-22)
(1.0665 -0.0215614 0)
(1.06734 -0.0264022 0)
(1.10569 0.00852357 1.10839e-20)
(1.10439 0.00918725 6.74987e-21)
(1.02927 -0.033121 -7.17106e-22)
(1.02793 -0.0332438 -2.42789e-22)
(0.342196 -0.0347168 1.94612e-20)
(0.311543 -0.0351631 1.07194e-20)
(0.346008 -0.0319489 5.08393e-22)
(0.273767 0.0094174 -1.6227e-20)
(0.294547 0.00716763 -9.9823e-22)
(0.992926 0.00140776 0)
(0.992746 0.00126164 0)
(0.992828 0.00159281 6.13822e-22)
(1.00802 -0.0167618 -3.64258e-22)
(1.00809 -0.0161548 9.16775e-23)
(0.30575 0.0763476 -3.68412e-21)
(0.407262 0.0903798 9.50551e-21)
(0.998996 -0.00530593 3.28456e-22)
(0.999489 -0.0053146 5.18572e-22)
(0.987994 -0.0105809 -1.41547e-22)
(0.999525 -0.0202538 -2.47858e-22)
(1.11572 -0.0018122 -1.13768e-21)
(1.11471 -0.000408448 1.6489e-20)
(0.988874 -0.0236323 1.03477e-22)
(0.989589 -0.0241572 5.57518e-22)
(0.988907 -0.0246665 4.16539e-22)
(0.813229 -0.0296804 5.82061e-21)
(0.872684 -0.0297023 -5.75877e-21)
(1.0239 -0.00211544 1.53005e-23)
(1.02386 -0.0024456 2.52606e-23)
(1.02453 -0.00239394 -9.67908e-23)
(1.08332 -0.00910519 0)
(1.0821 -0.00951507 -1.45463e-21)
(1.08321 -0.0102554 1.64793e-21)
(0.737801 0.00828288 0)
(1.03268 -0.00188007 0)
(1.03213 -0.00165596 -1.64991e-22)
(1.03216 -0.00204197 1.587e-22)
(1.11914 -0.0214643 -6.44008e-21)
(1.11948 -0.020481 -1.95218e-20)
(1.01916 -0.00141084 -8.39098e-24)
(1.01867 -0.00118218 1.79303e-22)
(1.01875 -0.00139865 7.5056e-24)
(1.00154 0.000743299 6.70437e-23)
(1.00236 0.000915014 -3.05503e-22)
(1.00284 0.00128348 -3.35212e-22)
(1.03336 -0.0428347 -3.70289e-23)
(1.03354 -0.0415441 -3.59354e-22)
(1.01628 -0.00210487 -2.06503e-22)
(1.01664 -0.00188395 1.15649e-22)
(1.13012 -0.0133087 -5.85963e-21)
(1.12909 -0.0144376 6.45032e-21)
(1.13079 -0.0149099 -1.31626e-20)
(1.1095 -0.0430555 5.77699e-22)
(1.11204 -0.0436146 2.06828e-22)
(1.1105 -0.0415088 1.25036e-21)
(0.964929 0.0804249 2.84513e-21)
(-0.0212179 -0.0265134 -3.53821e-20)
(-0.0245728 -0.0201151 -5.88195e-21)
(1.00898 0.0304334 4.21131e-22)
(1.00785 0.0311308 9.1756e-22)
(1.00972 0.0318379 3.32891e-22)
(1.10382 0.00214737 -4.25441e-21)
(1.10384 0.00332232 -4.31534e-21)
(1.10256 0.00283588 -9.61556e-22)
(0.329615 -0.0492986 1.26271e-20)
(0.366633 -0.0472702 1.39393e-20)
(1.06622 -0.00179846 -2.18422e-21)
(1.06713 -0.00127745 1.78504e-22)
(1.06577 -0.00104633 1.15276e-22)
(0.984647 -0.0197363 -3.37853e-22)
(0.98573 -0.0202459 3.8704e-23)
(0.918777 -0.0725912 3.50238e-21)
(0.912135 -0.0696959 1.564e-22)
(0.92048 -0.0619942 1.02098e-22)
(0.987915 -0.0231811 -3.60966e-22)
(0.988705 -0.0225693 -6.79465e-22)
(0.989949 -0.00973965 2.84423e-22)
(0.989416 -0.00996621 4.18434e-23)
(1.06686 0.0351436 -4.45334e-21)
(1.0602 0.0325193 1.76761e-21)
(0.113221 -0.0426048 1.38624e-21)
(0.160468 -0.0480933 3.92184e-21)
(0.164012 -0.0444534 -4.00059e-21)
(1.00284 -0.000365557 5.09551e-22)
(1.00425 -0.000643999 -1.34623e-22)
(1.00225 -0.000367382 -3.93213e-22)
(1.03006 -0.00790268 -1.52081e-22)
(1.0294 -0.00770433 0)
(1.02979 -0.00828078 0)
(1.10973 -0.0360475 -2.51369e-21)
(1.10822 -0.0362629 -1.07071e-21)
(1.10859 -0.034911 -9.46733e-22)
(1.03324 -0.0016605 7.97616e-22)
(1.03328 -0.0020864 0)
(0.187876 -0.0293347 0)
(0.136738 -0.0281687 0)
(0.158922 -0.0248991 1.99846e-21)
(1.08117 -0.00564783 -5.62281e-21)
(1.07978 -0.00542471 4.604e-21)
(1.08079 -0.00444026 3.17028e-21)
(0.339519 0.00330218 5.18696e-21)
(0.323858 0.00452357 -1.03034e-20)
(0.338967 0.00327979 8.50731e-21)
(1.02532 -0.00465377 -8.82809e-23)
(1.02592 -0.00503508 -2.12461e-23)
(1.02611 -0.00456057 8.26874e-24)
(0.534924 -0.00339012 1.1379e-21)
(0.507022 -0.00365404 4.22839e-21)
(0.514496 -0.00350869 4.73202e-21)
(1.03904 -0.0262517 5.58797e-23)
(1.03816 -0.026756 5.16522e-23)
(0.92431 -0.09229 -2.47408e-22)
(0.917409 -0.093968 -1.20518e-21)
(0.918968 -0.103801 3.16441e-21)
(1.0226 -0.00288615 -1.95302e-23)
(1.02267 -0.00254031 -8.36124e-23)
(1.02206 -0.00260335 0)
(1.0341 0.00304998 -3.32822e-24)
(1.03455 0.00239947 1.06802e-22)
(1.0333 0.00261454 7.4237e-23)
(0.872075 0.0592472 -3.02079e-23)
(0.858378 0.071467 4.93629e-22)
(0.877919 0.07454 1.771e-21)
(1.06753 -0.0634174 1.47239e-21)
(1.06491 -0.0625356 1.30933e-22)
(1.06655 -0.0607077 -4.21182e-22)
(0.000323572 -0.0119614 -1.2091e-20)
(0.00479852 -0.0183701 8.46901e-22)
(1.02824 7.96285e-05 -7.83907e-22)
(1.02792 0.000151257 -3.323e-22)
(1.02798 -2.94144e-05 -3.82711e-22)
(0.341555 0.00323877 -9.97071e-21)
(0.356421 0.00226411 -1.48059e-21)
(1.08152 -0.00645759 -3.19013e-21)
(1.08242 -0.00559284 -4.99816e-21)
(1.05447 0.00212286 1.51568e-21)
(1.05394 0.0029437 -9.75212e-22)
(0.546942 -0.0144385 -1.05902e-20)
(0.526118 -0.0145306 -3.97737e-21)
(0.525578 -0.0137679 8.23364e-22)
(1.14215 -0.00986568 1.0885e-20)
(1.14369 -0.0115271 1.00194e-20)
(1.1462 -0.010158 -6.23427e-21)
(0.466964 0.000241221 0)
(0.445586 0.000331599 2.12328e-21)
(0.446125 0.00014206 1.68351e-21)
(1.00364 0.000657606 0)
(1.00403 0.000595023 0)
(1.00222 0.000307049 0)
(1.09468 -0.000353018 3.08338e-21)
(1.09622 -0.000141177 -2.04974e-21)
(1.09571 -0.00142894 -1.52354e-21)
(1.01095 -0.000104223 0)
(1.00814 -0.000120953 -6.78026e-23)
(-0.0402092 -0.0067479 -2.48412e-21)
(-0.0384165 -0.00196798 1.14193e-20)
(-0.03578 -0.00535107 2.29425e-20)
(1.02258 -0.00321877 -1.65631e-23)
(1.02321 -0.00317774 -3.70275e-23)
(1.10714 -0.0176798 1.78475e-22)
(1.10622 -0.016685 1.37133e-23)
(1.08856 -0.0660132 2.35667e-22)
(1.08865 -0.0649527 -1.82294e-22)
(1.08835 -0.0653719 7.69208e-22)
(0.993038 0.00124237 6.87595e-23)
(0.99312 0.00153556 4.8613e-22)
(1.01002 0.0297113 0)
(1.12892 0.0132657 -1.03415e-20)
(1.12897 0.0117152 1.00513e-21)
(1.1275 0.0123658 -1.56549e-22)
(1.07689 -0.0520335 7.22398e-23)
(1.07612 -0.0505598 7.0069e-23)
(1.075 -0.0517235 2.09645e-22)
(0.235739 -0.0276897 2.52905e-21)
(0.21583 -0.0330261 0)
(1.04974 -0.0601109 3.47784e-22)
(1.06997 -0.0626314 9.03703e-22)
(1.03495 0.00344828 2.36255e-22)
(1.03629 0.00327307 5.526e-23)
(1.03031 -0.0075613 -7.88179e-23)
(1.0307 -0.00812712 1.69964e-23)
(1.01775 -0.0523753 -7.06443e-22)
(1.0176 -0.0534724 -3.38875e-22)
(0.867334 0.0113311 4.97548e-21)
(0.879784 0.00541252 -1.50725e-22)
(0.886537 0.0189264 -2.62713e-22)
(1.0378 -0.0117922 -1.58479e-21)
(1.03664 -0.0109558 4.7448e-23)
(1.03829 -0.0108186 8.47418e-23)
(1.11106 -0.0356323 -2.5801e-22)
(1.11074 -0.0371077 9.69794e-22)
(1.01607 -0.000369921 -2.65766e-23)
(1.01583 -0.000294512 2.22045e-23)
(0.419662 0.000104637 4.72278e-21)
(0.402119 0.000860811 6.66235e-23)
(0.41679 0.000490841 -6.08208e-21)
(1.1191 0.00166798 -1.09123e-21)
(1.12062 0.00207928 3.32358e-22)
(0.93497 -0.0755368 2.4232e-21)
(0.93903 -0.0710459 6.57607e-23)
(0.937739 -0.0767832 -1.07653e-21)
(1.06697 -0.0141162 0)
(1.06682 -0.0151113 6.33815e-22)
(1.06564 -0.0142098 -1.17495e-21)
(1.0796 -0.0170916 2.64386e-21)
(1.07828 -0.0162774 -4.23403e-21)
(1.07861 -0.0176526 -4.50797e-21)
(0.995579 -0.0352507 2.42217e-22)
(0.996344 -0.0360691 -9.539e-23)
(0.99641 -0.034642 -1.13571e-21)
(0.855822 0.0191031 1.30509e-21)
(0.852519 0.0018837 5.83012e-22)
(1.0524 -0.00718066 -1.00548e-21)
(1.05337 -0.00749994 -1.0727e-22)
(1.05243 -0.00789149 2.27082e-21)
(1.06831 -0.0140517 -1.74859e-21)
(1.12028 0.0140543 5.92894e-21)
(1.12173 0.0148031 4.81414e-21)
(1.12146 0.0130075 1.01229e-20)
(1.03231 -0.0868596 -2.94727e-22)
(1.0352 -0.0914334 -2.3676e-22)
(1.03727 -0.0865834 -2.62106e-22)
(1.10836 -0.0448269 -9.99759e-22)
(1.10735 -0.0427346 -1.03172e-21)
(0.749525 0.00742147 1.16746e-21)
(0.793849 0.00912366 1.39736e-20)
(0.283362 0.0070179 -2.75859e-20)
(0.23055 0.0110129 3.3046e-21)
(0.204733 0.0092926 -3.03197e-20)
(1.03099 0.00234783 -3.8428e-22)
(1.0304 0.00229862 1.33434e-22)
(1.03073 0.00202368 -1.01868e-21)
(1.0336 0.00362223 -3.13476e-23)
(1.05728 -0.0425567 -2.28902e-23)
(1.05623 -0.0435228 2.53232e-23)
(1.05553 -0.0418464 0)
(1.03588 -0.0541079 -5.45422e-21)
(1.03229 -0.0528359 -2.52332e-21)
(1.03556 -0.0478025 2.2806e-23)
(1.04013 0.0194425 -7.38915e-24)
(1.03953 0.0177416 -8.60979e-24)
(1.04182 0.0181848 -1.06477e-23)
(0.763956 -0.0361772 -9.56198e-21)
(0.769794 -0.0364849 -6.50285e-21)
(0.720155 -0.0363943 -1.36459e-20)
(1.06676 -0.00264525 -6.77706e-22)
(1.06559 -0.00252065 4.60838e-22)
(1.05236 -0.00648229 -2.69021e-21)
(1.05143 -0.00685917 1.18289e-23)
(1.08983 0.00135397 0)
(1.08918 0.00033158 -4.37903e-21)
(0.569519 -0.0160867 5.49217e-22)
(0.56821 -0.0146372 0)
(1.02049 0.0267906 -1.47707e-21)
(1.02716 0.0299484 2.59804e-22)
(1.02408 0.0366241 2.86411e-22)
(0.994724 -0.0357952 1.41241e-22)
(0.994912 -0.0344317 0)
(1.0685 -0.00151111 6.747e-23)
(1.02231 -0.0533385 -3.50915e-23)
(1.02113 -0.0533568 -3.7241e-22)
(1.02189 -0.0517791 -2.84375e-22)
(1.11247 -0.0031707 -4.17161e-22)
(1.11293 -0.00191772 -7.41415e-21)
(1.09039 -0.026021 5.09085e-22)
(1.08933 -0.0247752 1.45312e-22)
(1.00034 -0.00704523 0)
(0.999763 -0.00700256 -3.49312e-22)
(0.935366 -0.0697785 1.48543e-21)
(0.912336 -0.0592883 -5.54801e-22)
(1.04784 -0.0183088 -2.42449e-22)
(1.03338 -0.00913613 -2.53921e-22)
(1.05295 -0.00672974 -5.95306e-22)
(0.481231 0.0020263 -8.94612e-21)
(0.458854 0.00239755 1.09048e-21)
(0.458633 0.00173317 3.35189e-21)
(0.848149 0.0863255 -5.61039e-22)
(0.843997 0.0789983 -9.17704e-21)
(1.03877 -0.0125121 1.03719e-22)
(1.03713 -0.0124572 -2.88683e-22)
(1.02386 -0.00465891 1.92365e-23)
(1.02461 -0.00464983 3.44243e-23)
(1.02433 -0.00508113 9.52754e-23)
(1.0119 -0.000267104 0)
(1.0123 -0.000266333 -3.68034e-23)
(1.01437 -0.000262142 -3.68021e-23)
(1.11912 0.0147827 -3.8628e-21)
(1.11908 0.013284 1.17464e-21)
(1.03613 -0.0553335 7.4215e-23)
(1.03694 -0.0607126 1.60282e-21)
(0.972387 -0.0101199 4.63094e-21)
(0.975429 -0.0167116 3.10035e-22)
(0.954968 -0.00938418 8.31118e-22)
(0.991481 -0.00787234 -4.19479e-22)
(0.990974 -0.00792938 1.36084e-22)
(0.991449 -0.0085219 0)
(1.0266 0.00177489 7.76048e-23)
(1.02688 0.00165081 -8.05222e-23)
(1.02692 0.00194724 5.9148e-23)
(1.02469 -0.0541926 1.50319e-21)
(1.02133 -0.0545759 6.87744e-22)
(0.990062 -0.077273 -1.09375e-21)
(0.978793 -0.0851151 3.1337e-22)
(0.997914 -0.0870167 5.81196e-21)
(1.12649 -0.0249868 -9.20168e-21)
(1.12588 -0.0241468 -6.65413e-21)
(1.05953 -0.026233 -3.94063e-22)
(1.06088 -0.0259991 1.16012e-21)
(1.04638 0.00431305 -1.80142e-21)
(1.04582 0.0037186 -1.30292e-21)
(1.10657 0.00544707 5.814e-21)
(1.10639 0.00426901 -5.62399e-22)
(1.10787 0.00472377 1.06696e-20)
(0.982182 -0.068687 1.46613e-21)
(1.00499 -0.0704671 -2.21651e-21)
(0.809665 -0.0352251 -6.4813e-22)
(0.752213 -0.0353904 1.0563e-20)
(1.07581 -0.029753 1.44826e-22)
(1.07478 -0.0291731 1.87931e-22)
(1.07596 -0.0284631 1.9357e-21)
(0.31173 0.0279376 -4.18452e-21)
(0.349174 0.0213635 -3.34426e-21)
(1.00031 -0.0079121 0)
(1.00083 -0.00797087 0)
(1.00058 -0.00746764 0)
(0.423305 -9.32113e-05 8.74249e-22)
(0.439078 -0.000277207 7.2143e-21)
(1.09015 0.00865875 -5.67864e-21)
(1.09061 0.00964138 -4.66686e-21)
(1.07758 -0.00890824 -2.31509e-21)
(1.07868 -0.00956453 5.16622e-23)
(0.488613 0.00100961 -1.18906e-20)
(0.463031 0.000292648 5.79176e-21)
(0.469608 0.000760149 -1.02186e-20)
(1.03903 -0.0180027 -6.16653e-22)
(1.03887 -0.0186446 -3.81254e-22)
(1.0399 -0.0184324 6.16531e-22)
(1.01666 -0.0495248 2.10515e-22)
(1.01625 -0.0506523 4.70832e-22)
(0.46505 -0.00536015 1.20883e-23)
(0.464568 -0.00496489 -5.67097e-21)
(0.484648 -0.00616709 -4.91251e-21)
(0.991472 -0.00725443 -2.86496e-22)
(0.991937 -0.00777053 -2.18342e-22)
(1.11359 0.0119815 1.59533e-20)
(1.11497 0.0125262 -7.52047e-21)
(1.11479 0.0109499 9.87781e-21)
(1.09062 -0.00160109 -6.76695e-21)
(1.09205 -0.00118131 -5.10531e-21)
(1.05859 -0.0253158 -1.87908e-22)
(1.05822 -0.0263319 -1.81644e-21)
(0.0161533 -0.0423973 -2.89241e-21)
(0.00892134 -0.0456472 -1.48913e-21)
(1.07591 -0.0305017 0)
(1.07692 -0.0298818 -2.76695e-23)
(1.05052 -0.00926547 6.35499e-22)
(1.05078 -0.00868523 -6.50162e-22)
(1.05156 -0.00945318 6.77043e-22)
(0.516112 -0.0194769 7.22183e-21)
(0.511218 -0.0175276 6.845e-21)
(0.493526 -0.0172751 3.35789e-20)
(1.02686 0.000580338 -1.11536e-22)
(1.02737 0.000831618 0)
(1.02655 0.000959899 2.26465e-24)
(1.0809 -0.0176048 4.04551e-21)
(1.08035 -0.0163043 3.71015e-21)
(1.06828 0.0407834 2.09902e-22)
(1.06673 0.047186 4.22184e-21)
(1.06215 0.0419226 -2.89428e-24)
(0.507356 0.00201843 6.17692e-21)
(0.507608 0.00173387 -3.21483e-21)
(1.14354 0.0295756 1.77376e-20)
(1.14481 0.0307798 1.94938e-20)
(1.14271 0.0307636 -8.11165e-21)
(1.02849 0.00021695 -5.26182e-22)
(1.02856 2.03008e-06 -1.95871e-22)
(1.12057 0.00826869 -2.36125e-21)
(1.12162 0.00727656 -5.68842e-21)
(1.12009 0.00689221 7.14575e-21)
(1.02792 0.000934055 1.34397e-22)
(1.02819 0.000820331 8.2272e-22)
(1.02828 0.00108014 1.17388e-22)
(0.308708 0.0027458 -5.99789e-21)
(0.315863 0.00594778 1.15531e-20)
(0.996713 -0.0369611 8.81622e-23)
(0.996128 -0.0378322 -7.38995e-23)
(0.997281 -0.0379843 4.25061e-22)
(1.00692 0.000631641 0)
(1.008 0.000798135 -1.95996e-22)
(1.00891 0.00121833 -3.49726e-22)
(1.00671 -0.0212544 -6.82415e-22)
(1.00724 -0.0218473 -5.37636e-22)
(1.00721 -0.0210094 -3.46566e-22)
(1.14402 0.0280764 3.60244e-22)
(1.14241 0.0282784 -2.02297e-21)
(1.0934 -0.000728932 4.79688e-21)
(1.09381 0.000339335 2.06926e-21)
(1.06737 0.00197311 0)
(1.06814 0.00151384 0)
(1.06711 0.00102228 5.55016e-23)
(1.02636 0.00160062 -1.25029e-22)
(1.03924 -0.0173036 3.85146e-22)
(1.03829 -0.0175874 -1.94895e-22)
(1.0503 -0.0100202 0)
(1.04943 -0.00925042 -1.61394e-21)
(0.871561 0.0769076 -9.30467e-23)
(0.875213 0.0837613 -9.6808e-23)
(0.301539 0.0546381 -1.16487e-20)
(0.280693 0.0523441 -3.66237e-21)
(0.336013 -0.0397783 -7.15541e-21)
(0.362049 -0.0381902 -1.5216e-20)
(0.333479 -0.0416224 -7.6243e-22)
(1.05424 -0.0498166 -1.22938e-22)
(1.05593 -0.0507753 -3.48446e-22)
(1.05444 -0.0516869 -1.71251e-24)
(0.517477 0.00156853 -1.05211e-20)
(0.511133 0.00155994 6.45318e-21)
(0.562774 -0.0392065 9.54495e-21)
(0.531623 -0.0402553 6.48511e-22)
(0.524918 -0.039062 -2.83348e-21)
(1.02715 0.000233084 -4.45096e-22)
(1.10497 0.00148335 6.20831e-21)
(1.10373 0.00107736 5.6163e-21)
(1.12599 -0.0258491 0)
(1.09709 -0.0281257 0)
(1.00636 -0.0408339 4.27174e-22)
(1.00669 -0.0413611 -4.97479e-22)
(1.00695 -0.0406348 2.98882e-22)
(1.07863 -0.057763 -3.1678e-22)
(1.07718 -0.0573917 -7.55601e-22)
(1.07866 -0.0563927 -4.37719e-22)
(1.14671 0.00451848 6.56096e-21)
(1.14539 0.0037318 -1.38922e-20)
(1.14567 0.005391 -7.60077e-21)
(0.866415 -0.0323465 -1.39136e-21)
(1.00348 -0.0352002 -1.19298e-22)
(1.00285 -0.0345021 -5.20527e-22)
(1.0037 -0.0343613 6.47411e-22)
(0.981215 -0.0543018 9.68071e-21)
(1.01032 -0.0562151 -2.20657e-21)
(0.976464 -0.0399125 -4.51058e-21)
(0.465654 -0.00322506 1.19015e-20)
(0.44515 -0.00243835 -1.05217e-21)
(0.448808 -0.00282776 9.70329e-21)
(1.02662 0.000210598 -2.51102e-22)
(1.02678 0.000373196 2.68713e-23)
(0.968415 0.101285 -7.33937e-21)
(0.982373 0.0943967 -1.2886e-21)
(0.963 0.0952086 1.1943e-21)
(0.957542 0.107813 4.13419e-22)
(0.977766 0.104516 3.76085e-22)
(0.783541 -0.030918 -1.12225e-22)
(0.838491 -0.0303105 -5.24562e-22)
(0.77238 -0.0319859 7.67655e-22)
(1.06668 0.00239543 0)
(1.06775 0.00279237 0)
(1.08017 -0.058353 3.60883e-22)
(1.07876 -0.0590028 0)
(-0.0415441 -0.0115085 -1.09663e-20)
(-0.0443114 -0.0081597 6.84118e-21)
(1.00861 -0.0172755 2.52394e-23)
(1.00794 -0.0173723 -2.66831e-22)
(0.932203 -0.0498479 2.42694e-21)
(0.982254 -0.0696476 4.63992e-21)