/*--------------------------------*- C++ -*----------------------------------*\
| =========                 |                                                 |
| \\      /  F ield         | OpenFOAM: The Open Source CFD Toolbox           |
|  \\    /   O peration     | Version:  v2012                                 |
|   \\  /    A nd           | Website:  www.openfoam.com                      |
|    \\/     M anipulation  |                                                 |
\*---------------------------------------------------------------------------*/
FoamFile
{
    version     2.0;
    format      ascii;
    class       volScalarField;
    location    "800";
    object      ddt0(k);
}
// * * * * * * * * * * * * * * * * * * * * * * * * * * * * * * * * * * * * * //

dimensions      [0 2 -3 0 0 0 0];


internalField   nonuniform List<scalar> 
13917
(
1.46406e-07
5.31247e-08
0.00366234
4.39258e-07
6.46555e-09
1.04708e-06
0.0029794
0.00333511
-0.000729357
-7.40729e-08
1.03929e-05
9.99577e-07
4.3682e-07
-0.0003767
1.47371e-08
5.35472e-08
4.8586e-08
3.66182e-07
7.71316e-07
-1.59997e-08
2.82259e-09
0.00274587
-7.89187e-09
0.00398965
9.48948e-09
0.00312524
1.47108e-07
-3.60974e-08
-3.23556e-06
9.93884e-07
1.17429e-07
1.22251e-07
-1.35242e-08
-1.3567e-07
1.6257e-08
0.00253958
-9.00893e-09
-0.000198215
4.26582e-07
0.000829193
-1.23689e-08
5.57505e-09
4.00955e-08
-1.37047e-07
1.06728e-07
6.70593e-08
3.94125e-07
6.14193e-07
-5.18627e-07
-3.3227e-08
3.37628e-07
2.45478e-08
-1.6983e-07
6.61058e-08
4.79854e-08
2.73869e-07
1.06593e-05
2.55904e-08
1.42114e-07
9.87116e-08
-0.00136418
5.42289e-08
-6.83892e-05
-1.77415e-08
2.21348e-07
0.00731231
1.49217e-08
1.97558e-08
-1.53391e-05
1.93678e-08
7.51274e-09
-0.000388014
-0.000972878
1.42553e-08
1.0965e-06
1.46707e-06
-0.000688743
1.6326e-07
0.00276355
3.61647e-09
-2.6569e-09
1.46808e-08
1.97718e-06
-0.000169521
-0.00092164
1.59433e-07
-8.14345e-09
-0.00531457
3.62728e-07
5.23663e-08
-0.000875867
2.98315e-07
4.93475e-08
4.18363e-08
-0.0539893
-1.04018e-06
1.90132e-06
4.96856e-07
2.61663e-06
-2.26315e-06
-1.15217e-08
6.63278e-08
-1.11935e-07
2.03061e-07
2.35806e-08
-0.000638699
-2.89282e-06
7.00754e-07
5.00579e-08
2.22236e-07
-0.000996035
0.00107757
1.27586e-06
-0.00076128
2.70281e-08
1.03856e-05
5.0118e-10
-2.34131e-06
0.000271039
-6.64197e-08
5.97251e-09
-1.91684e-05
-2.63713e-06
4.0781e-07
-2.25724e-08
4.6391e-08
8.23146e-08
-2.55412e-08
7.46138e-09
-7.45031e-09
0.000546128
2.70279e-08
9.97661e-08
4.45712e-09
0.00463814
0.00424723
1.39389e-07
-4.82584e-07
1.58908e-08
-1.41913e-07
0.000629346
7.06512e-08
2.98874e-08
6.30273e-08
1.9527e-08
0.00118125
1.40088e-05
2.67611e-08
7.41669e-08
1.10678e-07
6.21347e-07
5.36078e-06
9.98572e-07
4.17192e-07
1.81617e-07
-0.000451514
2.82617e-08
0.00787942
-0.000640928
0.00482044
3.28525e-08
-1.06601e-06
5.83143e-09
1.41238e-06
1.29668e-06
1.75867e-06
2.00541e-07
5.6879e-07
7.97504e-08
-1.60815e-07
-7.11311e-08
-0.000543522
1.51117e-06
5.31884e-08
0.00360147
9.46978e-08
0.000649449
2.70785e-06
0.0019788
2.84291e-08
3.28792e-07
9.33034e-08
7.3443e-08
-8.71688e-09
2.40133e-07
0.00387182
-6.80795e-05
-0.000554882
2.98315e-07
1.69935e-06
0.00224463
-0.00102503
-2.92439e-05
-5.4654e-09
-4.89263e-06
-5.53335e-08
4.59303e-08
4.37476e-08
-8.98247e-07
0.00584379
4.43515e-07
-3.45416e-08
5.61314e-07
6.20898e-07
-0.000892487
0.00681485
1.55235e-08
2.64271e-08
4.78167e-07
0.00419831
2.83141e-08
0.00281485
-0.000755885
1.68232e-06
2.4491e-08
-2.26172e-05
5.10711e-07
-0.000635349
1.11926e-08
-0.00111616
2.84124e-08
2.77406e-07
-2.13421e-08
-0.000440109
-0.000843299
6.03111e-08
0.000196902
1.92769e-07
2.08087e-08
0.0021537
1.50991e-06
2.85926e-07
0.00455839
-0.000626931
-1.80513e-08
1.24537e-07
-0.000948072
-0.000763115
-1.57706e-09
-1.51851e-08
0.00111905
1.17269e-06
-2.92864e-09
9.5784e-05
9.76024e-07
6.58917e-07
1.39351e-07
3.28914e-10
6.91972e-07
-0.000678049
1.95815e-07
1.10673e-07
6.95412e-07
8.75523e-08
2.43096e-08
9.0166e-07
0.00128645
1.12858e-06
2.3814e-07
8.83411e-08
-1.0082e-09
-0.000178117
-0.000688793
-3.00955e-05
1.43952e-08
-0.000906825
-0.000347406
0.00754206
0.00255987
1.52967e-06
1.42754e-09
-3.17226e-08
4.60503e-07
-0.000596974
1.74409e-06
1.36716e-07
0.00597649
9.71971e-07
6.73274e-09
0.000260343
-1.76417e-08
0.00327221
4.30407e-07
-8.00516e-09
1.57272e-07
2.73671e-07
-4.91715e-08
7.69433e-05
1.14843e-07
1.6431e-07
0.00394538
0.00461631
-0.00116882
1.05277e-08
0.00683518
7.58352e-10
1.63751e-07
4.46429e-10
6.24379e-05
-2.85231e-08
2.42523e-07
1.30588e-07
8.44003e-08
6.11971e-07
8.45838e-08
1.41141e-06
6.62911e-07
2.90115e-07
9.12341e-08
2.3535e-08
-0.000930965
-2.76174e-05
3.61286e-09
-2.58109e-08
0.000564873
3.43339e-08
-0.00102061
8.60639e-08
-0.000438875
2.81268e-07
-4.05225e-06
4.86229e-07
-1.01117e-06
7.07513e-08
0.00620117
-2.09569e-05
7.55725e-08
2.22324e-06
6.34852e-05
3.72461e-08
0.000195363
5.55527e-07
-0.000486936
9.95433e-08
0.000923754
1.29959e-07
-0.00109393
6.52131e-06
1.35716e-07
1.73354e-07
0.00307051
1.43691e-09
-2.43438e-07
-0.00108613
2.7263e-08
5.86716e-08
-0.000355107
-2.49798e-06
5.74902e-08
0.000162275
-1.08991e-05
-1.96282e-08
-0.000108979
0.00175347
-1.92231e-08
1.798e-09
4.49729e-09
7.52421e-08
0.000267176
0.00263681
1.08884e-05
-0.00103245
9.62663e-09
-8.23275e-08
-0.000177665
5.05175e-07
0.00252395
-0.000604098
-0.000933328
-3.61546e-09
3.54497e-06
-6.01929e-10
-0.000569642
9.69717e-08
1.28683e-06
9.22167e-07
4.78108e-07
2.78237e-11
4.7997e-07
-4.25803e-07
5.50439e-07
-6.60904e-05
-0.00102576
-0.00048658
4.77685e-07
4.30036e-08
-1.69674e-08
-0.000827671
0.00270273
2.90698e-08
0.00764779
1.55107e-08
-0.000567371
2.32541e-07
7.70582e-10
8.6618e-08
0.00230763
8.77421e-08
0.00143156
-0.000103057
4.65703e-06
3.44434e-05
3.88555e-08
-1.27069e-05
1.7412e-05
-8.97894e-09
9.24463e-07
2.57721e-08
1.60072e-08
9.42243e-07
-4.54314e-09
1.89581e-08
6.50246e-09
-0.00613341
3.76093e-09
0.0009065
0.00342193
-5.14478e-05
-9.17255e-06
0.00135286
-0.000655054
5.16512e-07
8.33229e-09
-8.17852e-07
5.22302e-07
1.30924e-07
-3.22103e-09
0.00171385
0.00343168
0.00395444
9.68188e-08
2.05804e-06
-2.27376e-07
5.09209e-07
4.97556e-07
6.40999e-08
4.81141e-05
5.08903e-08
-2.6712e-08
-0.00110725
0.00063401
0.000749833
5.24039e-07
-2.07618e-05
0.000293059
-0.00115717
-0.000645745
1.86749e-09
4.3813e-07
6.6003e-08
2.98437e-08
0.00718178
4.69205e-07
7.57573e-08
3.63632e-07
4.85659e-07
-0.000648023
-7.5779e-09
1.77667e-06
2.78037e-05
0.00592244
0.000752598
2.98291e-09
2.54334e-08
5.99319e-08
2.08001e-08
-6.37196e-09
0.0044889
-1.31661e-06
1.2655e-07
-0.000803954
2.78159e-07
1.40342e-06
-0.00125519
1.55844e-05
3.71317e-06
0.00106521
1.64123e-06
3.13158e-07
-2.53612e-06
7.27077e-07
8.66405e-06
1.49926e-06
8.49095e-07
6.26929e-07
2.14294e-08
0.00622175
3.7296e-07
1.21985e-07
1.59067e-07
1.80697e-07
-0.00064994
-0.000570262
3.23952e-08
7.74501e-09
0.0050725
-0.000532989
-6.38687e-09
0.000769395
2.66126e-07
1.69754e-06
2.94208e-08
-0.000860399
0.00744665
9.77882e-08
8.92029e-08
0.00145863
-1.6079e-06
-0.000291669
-4.72997e-10
-0.000751621
8.06876e-07
0.000434127
9.36549e-08
-0.000842682
-0.00154432
5.44746e-07
4.32251e-09
4.56502e-08
1.45077e-06
-0.0129
8.507e-08
-1.71963e-09
-2.94352e-08
-2.89865e-08
-0.000838011
0.0072239
5.36745e-07
4.36024e-05
-1.20781e-08
-1.41582e-08
1.53345e-06
-0.00139537
2.56824e-07
8.34452e-08
1.45666e-08
2.03867e-08
0.000180256
-0.00112257
-7.76224e-09
1.39278e-08
4.04344e-05
7.00279e-07
4.90832e-07
2.68478e-08
7.59119e-08
1.00142e-07
6.19304e-07
-9.4338e-06
0.000129906
1.71453e-05
5.84732e-07
0.00643659
5.23794e-07
1.06816e-08
-0.000754396
1.97725e-08
6.41853e-08
3.69373e-07
0.00624034
-1.30911e-07
-2.26141e-08
-0.00132275
1.18048e-06
-6.64093e-05
3.82074e-07
3.64971e-07
4.90235e-07
1.12071e-09
-0.00130381
1.75827e-05
0.00125929
4.8633e-08
2.6964e-07
-9.55e-05
-0.000644464
-0.000233255
5.15103e-07
9.91599e-07
5.72831e-08
1.36445e-07
2.96062e-08
-1.76143e-07
5.48956e-08
2.23303e-08
5.09997e-07
9.18845e-07
0.00132177
-0.000341994
8.90565e-08
1.58493e-06
0.00789282
-1.21298e-07
3.30705e-08
-3.43577e-06
-6.91405e-06
0.00121612
2.33131e-06
6.90439e-09
8.12072e-05
1.49364e-06
-1.66573e-08
1.62534e-07
8.48658e-07
3.87842e-08
1.2451e-06
0.00286748
1.10751e-07
7.07408e-07
-0.00127648
1.60677e-07
-0.000612584
2.55406e-09
-8.11181e-09
0.00674644
-0.000152037
1.21254e-05
1.4894e-07
5.41338e-08
1.40701e-08
9.67098e-07
-4.36048e-07
1.93271e-06
1.43496e-07
2.51637e-06
5.01613e-07
3.26499e-08
0.000510116
2.02976e-06
-7.73239e-05
1.60709e-08
2.00038e-06
1.79638e-07
-7.43464e-05
4.11546e-07
2.6864e-09
3.03967e-07
-2.79908e-08
1.2818e-07
8.64666e-08
3.96439e-07
7.26912e-08
-0.000893745
-6.88966e-05
5.6506e-07
-2.09138e-08
6.54533e-06
-4.57916e-05
0.00517657
1.82167e-07
9.35777e-08
-1.64777e-09
6.20057e-07
2.125e-07
-0.00151505
1.35498e-09
0.00684786
5.93366e-07
7.79074e-06
1.17364e-06
-0.000976829
3.58333e-07
4.21394e-08
-0.000666884
-0.000265742
3.41504e-08
3.67227e-07
0.0072906
-1.70117e-06
1.39064e-06
-1.02519e-08
9.34979e-08
2.50638e-06
5.14967e-07
5.59159e-07
8.39132e-07
1.40793e-07
6.36531e-07
0.00366257
1.88644e-07
3.92333e-07
-2.86774e-08
-0.000156841
4.50607e-09
5.96696e-08
-0.000590731
5.14197e-08
0.000317574
1.83043e-07
-6.74332e-08
-2.74108e-08
-4.11507e-07
-9.49004e-11
2.08867e-07
-2.93257e-08
2.64742e-08
2.64865e-07
0.00061363
2.81049e-05
-0.0014052
6.17977e-08
7.05264e-10
2.08813e-07
1.50291e-07
-0.000253121
-0.00130392
3.2608e-07
1.09834e-08
-0.0087324
7.5149e-06
-8.88369e-05
0.000242475
4.30312e-07
0.00277459
8.4602e-08
9.41805e-07
9.74623e-09
3.64169e-07
3.17555e-07
-7.26333e-06
3.05542e-07
3.70896e-07
6.99837e-07
3.6383e-08
1.3757e-07
6.34005e-07
1.16459e-07
9.60127e-08
2.04743e-09
-1.7235e-08
5.63897e-07
2.73507e-07
6.55961e-07
1.45587e-08
8.02282e-09
4.29151e-09
7.74915e-08
5.93613e-08
1.21267e-07
-2.90643e-08
-0.000837283
9.55361e-07
-7.43893e-07
-1.11453e-08
-2.29781e-10
1.79024e-08
3.07047e-07
2.38873e-08
-0.000346925
5.07907e-07
0.000308515
6.17028e-07
2.20879e-06
1.13334e-07
6.2233e-09
-3.10935e-08
8.87465e-08
-0.0003901
6.82507e-10
0.00488581
1.05783e-07
-0.000218388
7.47786e-07
1.54983e-07
4.45076e-06
3.70753e-08
1.60744e-09
7.65627e-07
1.8694e-08
3.56629e-08
0.000543807
6.03563e-08
8.05871e-09
2.47563e-07
-1.70909e-08
3.79309e-09
1.08117e-07
2.0845e-06
-0.000316763
8.14758e-08
1.91588e-07
-1.82059e-08
-0.000653455
1.05199e-07
3.92381e-08
4.9786e-08
0.00012018
0.00738856
-0.00049011
1.42707e-07
3.60341e-07
-1.81773e-08
4.66229e-09
8.34357e-07
1.18558e-07
6.98392e-05
4.13746e-07
0.000112421
6.66204e-08
4.34385e-08
-0.000407925
1.32999e-08
3.98253e-07
2.85945e-08
-2.77403e-08
2.82488e-07
4.82927e-07
1.40243e-07
0.00017409
0.0011184
1.07836e-06
1.07368e-08
1.02143e-07
2.07508e-06
0.00526614
-5.50332e-09
0.00751285
7.8924e-08
1.12998e-07
2.09216e-07
1.35452e-07
0.00820083
1.29785e-07
0.00370982
1.63507e-07
5.60629e-09
3.05679e-08
1.88312e-08
1.84991e-08
3.06849e-07
6.41063e-05
1.68365e-07
9.92796e-08
-0.000337548
0.000596917
6.96591e-07
4.46222e-08
5.01414e-07
2.7098e-07
6.58877e-08
-7.75617e-08
-0.00085228
-1.69495e-08
3.51373e-09
8.04742e-08
-0.00122234
3.82268e-07
-0.00114855
2.41004e-09
2.91267e-08
-0.00011553
4.53635e-07
1.54805e-07
-0.000336255
6.17191e-07
1.89437e-08
9.70024e-07
-3.09148e-08
1.23266e-07
-4.27656e-09
-0.00098025
6.5771e-08
2.70279e-07
6.73081e-08
0.00365041
5.69062e-07
1.86805e-06
-4.72208e-07
1.43625e-07
-1.26988e-07
-1.02697e-08
-0.00105901
-1.1268e-08
1.76318e-07
5.43773e-09
1.8947e-06
7.23754e-09
-1.31075e-06
0.00110416
0.00507143
2.61168e-08
0.00147424
-0.000686726
2.38881e-08
-0.000110296
-0.00139061
-0.000769264
0.00128696
-0.000351512
6.34001e-05
2.40132e-06
4.74516e-08
0.00256525
4.42265e-07
0.00241074
1.0665e-07
5.07828e-08
3.7974e-08
-1.27563e-08
3.23181e-07
2.2942e-08
-6.042e-05
5.22284e-08
1.45595e-08
-0.000267592
-3.16328e-07
2.20877e-08
2.12254e-06
2.59043e-07
1.41293e-07
4.31716e-05
1.82858e-06
3.61886e-08
4.96864e-07
0.000975993
-0.000503792
1.17052e-06
2.01741e-07
3.52542e-06
1.0846e-06
-0.000650201
-0.00108083
1.47653e-06
2.82945e-08
1.83209e-07
6.77981e-08
3.32025e-08
8.35328e-08
2.49455e-09
9.9052e-08
8.59834e-08
-0.000884285
-1.92016e-07
2.37269e-07
2.36798e-06
-0.00119904
2.02195e-07
2.75309e-08
-0.000649256
7.41802e-08
3.46554e-08
5.51e-09
-0.000884633
7.36286e-09
1.57521e-08
0.00275021
-0.000629086
0.00781446
8.12474e-07
0.00253585
1.83705e-08
1.45058e-05
2.94124e-08
-1.21366e-08
3.07317e-08
0.00396361
-0.000608838
1.10914e-07
3.85171e-08
3.06793e-08
0.00715238
7.04972e-08
3.0183e-07
1.804e-08
5.08737e-08
9.49421e-06
1.4911e-07
2.52859e-07
6.31693e-07
0.000855324
7.79182e-08
1.23773e-07
7.93908e-08
-0.000934686
-0.00114352
1.72841e-08
-0.000911295
5.01727e-07
5.73284e-06
8.86425e-09
0.00218631
-5.01789e-08
2.62735e-07
1.63512e-08
5.05517e-07
0.00454746
-7.12963e-05
5.69818e-06
-0.000291926
-2.78563e-08
0.0006752
1.3767e-07
3.94427e-08
0.00234944
3.19989e-08
-7.85554e-09
9.11007e-08
1.44633e-07
-0.000854639
2.72654e-08
-7.60277e-09
6.23335e-07
2.17568e-07
5.28589e-07
7.71223e-06
2.62923e-06
-0.000367014
1.26151e-06
3.71646e-07
9.59027e-07
-0.000652643
6.89351e-07
-0.00045987
0.00289177
3.88453e-07
1.53595e-07
0.00157443
0.000110396
2.40222e-08
1.19198e-06
2.77119e-07
2.45907e-07
3.40455e-07
1.28076e-07
1.63947e-07
3.88108e-09
4.07499e-07
-1.04207e-06
9.19871e-10
3.37267e-07
1.04157e-07
2.58769e-07
-2.87581e-08
1.07291e-07
4.79675e-07
2.71271e-07
1.63972e-07
1.09985e-07
1.10573e-05
3.14506e-07
0.000862884
2.15969e-08
5.6871e-08
5.98816e-07
2.80603e-08
7.53595e-07
-3.33465e-07
2.46778e-07
1.49743e-06
1.10449e-07
-0.000598154
2.76999e-08
7.19883e-07
-0.000323249
0.00250346
1.54197e-08
6.28977e-08
0.000893861
-9.08334e-09
-2.93495e-09
-0.000721749
-0.00105769
6.67064e-08
4.07585e-06
-1.76789e-08
1.62031e-07
0.0044721
8.62863e-08
3.89594e-08
0.00184114
1.14233e-07
0.00825085
-3.74421e-09
3.02475e-08
3.71527e-08
2.52839e-06
0.000878972
2.23635e-08
3.24264e-08
1.71257e-08
2.28633e-07
-2.96056e-08
-1.5354e-05
3.34048e-07
-2.41141e-10
0.00238945
2.82976e-07
0.00171441
0.000422098
-3.38311e-07
1.13469e-07
2.87725e-08
3.27327e-08
4.83893e-06
1.04081e-07
0.000815982
-0.000665823
5.17556e-08
0.00214253
1.13949e-05
4.04893e-07
3.26254e-06
-2.79262e-07
8.61601e-06
0.00485311
6.69797e-08
0.000263785
-7.98245e-05
9.26831e-07
8.09475e-08
-0.000647643
-2.59264e-07
1.33487e-07
2.25288e-07
-0.0011898
1.27124e-07
3.21701e-08
-7.72354e-08
5.4806e-07
6.63727e-08
-0.000480227
7.30725e-08
0.00037167
8.41475e-07
-0.000143931
1.57553e-06
6.53788e-06
2.56747e-07
1.03829e-07
5.56456e-08
0.00436778
1.05749e-09
6.40202e-08
8.36143e-09
7.4991e-08
5.88817e-08
7.87674e-08
5.68212e-06
-3.58196e-09
7.7763e-07
-3.32497e-06
0.00433366
5.29746e-06
6.76119e-08
0.0075703
0.00423688
5.60511e-08
-2.64695e-09
2.85736e-07
-0.00045505
1.10378e-08
4.40924e-07
-6.54703e-05
3.42583e-07
2.05634e-08
3.30391e-07
1.27522e-07
1.04648e-06
4.06463e-07
-2.8344e-08
0.000959041
0.00275689
-6.16435e-08
0.00668832
9.72187e-07
0.043048
5.53303e-08
2.79549e-07
0.00613337
0.00719257
1.55378e-06
8.12093e-05
1.30153e-07
6.57706e-09
1.44465e-07
5.92956e-08
1.69349e-08
3.14039e-08
3.89951e-07
1.56634e-08
2.06022e-06
-1.55982e-08
2.53138e-07
1.3721e-07
4.20057e-08
2.54731e-06
8.96987e-05
2.3248e-08
1.1387e-05
1.43207e-07
0.00652041
1.70596e-08
-1.89274e-07
2.33372e-09
-1.43912e-05
-0.000914761
3.81594e-06
1.53522e-08
2.33607e-07
3.65643e-08
1.09974e-07
-0.00105744
1.06112e-07
2.84314e-08
2.37784e-07
1.68669e-07
0.00240482
1.51723e-08
-4.74778e-08
2.58925e-07
6.29138e-10
6.11284e-07
5.16952e-08
-1.13111e-08
4.99343e-08
-0.000707951
1.29768e-07
0.00116649
0.00143015
2.92248e-07
0.000971317
1.25064e-07
-1.12207e-08
-7.49164e-08
-0.000578749
3.80116e-07
1.4625e-07
5.91225e-07
0.0386464
2.2752e-08
-1.95084e-05
4.14118e-07
5.90542e-07
5.89788e-08
2.32922e-08
5.68823e-06
2.82388e-08
4.93071e-09
-1.09785e-08
1.45026e-07
1.95059e-08
1.6812e-07
8.827e-07
-3.98814e-07
0.0032213
5.21899e-07
9.54172e-07
0.00262628
0.000903927
6.69942e-07
-5.29713e-06
-0.000426839
3.51542e-07
-0.00094092
2.30038e-08
0.0328136
-1.06398e-05
1.90148e-07
-3.81403e-09
-1.00202e-08
2.66303e-07
1.85569e-07
1.44966e-07
3.21865e-08
1.57026e-06
1.50895e-07
-3.91932e-07
-0.00083359
-5.85319e-08
2.7887e-07
-0.000793232
1.48625e-07
0.000557998
3.82711e-07
-2.54814e-07
2.32511e-08
-0.000715444
-0.000614779
3.80271e-08
2.65999e-07
0.00254281
-1.03482e-07
-0.000350231
-2.80865e-08
1.18379e-07
0.00156002
2.2914e-07
1.01801e-07
1.1612e-06
1.52831e-08
3.60466e-07
1.3223e-07
3.17507e-08
-2.74658e-08
0.00255713
-0.00064177
7.40483e-08
2.48762e-07
2.87041e-08
1.11964e-07
4.80936e-07
-0.000659275
3.91774e-08
8.10484e-07
0.00699036
-0.00017822
0.00620571
2.19344e-07
2.13498e-06
7.49959e-09
3.94218e-08
1.01631e-08
8.28874e-07
-0.000736757
4.72516e-08
8.0919e-08
0.00348681
1.06758e-06
-1.13486e-05
6.86957e-08
3.77387e-08
1.2975e-08
1.52923e-08
-0.000520742
5.48284e-07
3.17022e-07
2.73719e-07
8.30709e-08
7.86618e-09
2.54323e-08
1.69938e-08
8.97662e-07
8.39292e-07
0.00284263
1.614e-07
-8.8472e-05
0.00147718
2.55961e-09
4.14693e-07
-1.14088e-08
-2.26898e-08
-0.000637126
5.02203e-08
7.31105e-08
5.11202e-07
2.17387e-06
-1.2104e-06
0.00305685
-0.000145296
7.47542e-08
-0.000235087
3.51596e-08
1.36617e-07
-5.43265e-07
5.16156e-09
1.88786e-07
4.79606e-06
0.0001669
1.13312e-07
0.00524969
5.26643e-08
1.14847e-07
7.91982e-08
1.91261e-06
1.06353e-07
3.94174e-07
-0.00142567
1.00027e-07
0.000181128
0.00157825
-6.15888e-09
-1.55412e-07
-2.72049e-08
0.00114322
5.78186e-07
1.86183e-08
0.00362365
4.20525e-07
1.19477e-08
9.39566e-09
-0.000574496
-1.15135e-07
-8.94201e-06
3.58021e-07
1.59547e-07
-0.000660753
1.02147e-07
-3.88453e-06
2.46475e-08
3.85213e-07
-1.01849e-07
-6.71004e-09
-0.000687692
5.47763e-08
1.19747e-06
3.53911e-07
1.06427e-06
7.48795e-08
-4.30432e-07
3.63176e-08
0.00359027
1.7752e-07
0.00103755
9.22603e-08
8.26487e-07
7.09734e-08
7.46805e-08
2.35318e-08
1.36838e-06
0.00489102
5.88107e-08
3.97137e-08
2.51658e-07
1.47765e-07
0.00339273
1.21119e-07
0.00523555
-0.000122952
1.00631e-07
-7.58457e-10
1.07508e-10
9.25473e-09
5.06605e-09
2.0601e-07
4.21842e-07
1.61407e-06
1.19807e-07
-1.9544e-08
0.00637017
2.48415e-07
1.22082e-07
0.00148014
2.0754e-08
-0.000108131
4.99337e-07
6.86488e-07
-1.79427e-06
-0.000742454
0.00416089
0.0057581
0.00124902
2.17308e-08
-3.71791e-06
-0.000608221
-1.87174e-06
-1.05815e-08
2.40937e-08
2.26605e-06
0.00333368
0.000847908
5.9603e-06
2.38093e-07
-3.79278e-07
3.70456e-07
0.00141286
-6.61531e-06
5.63224e-07
3.91111e-06
7.90733e-08
-4.77532e-07
1.51939e-06
-1.18571e-08
4.34273e-07
6.47348e-05
8.03476e-09
0.00755622
6.85031e-10
1.21749e-07
-0.000472554
-0.000773355
-1.75198e-08
3.82493e-07
9.69262e-08
1.10083e-07
-1.17158e-07
3.91171e-05
3.28467e-07
-1.19751e-08
-1.48206e-08
7.18512e-07
1.68459e-07
1.52509e-07
0.00136719
1.74102e-08
-0.000997127
-0.000328786
-0.000246427
-3.88007e-08
2.43221e-07
0.00724169
3.6021e-07
0.00244931
0.00756241
0.00183405
5.02813e-08
-0.00154863
0.0012747
-1.53758e-08
-8.32452e-11
7.02984e-07
-0.00110461
-0.000279726
1.46247e-07
3.55846e-08
0.00071426
0.0188218
0.00332744
1.11644e-07
1.21502e-07
1.96737e-07
3.50661e-08
0.000525526
-0.000600166
0.00485974
0.00225899
2.17042e-08
1.54413e-08
-2.71551e-08
-1.70765e-07
-3.69088e-05
5.86846e-07
4.10216e-07
2.46073e-08
8.65039e-08
-0.000510169
7.30114e-07
0.00177314
-0.000345007
0.000169377
-1.60532e-06
1.07961e-08
-9.80169e-09
0.00555107
2.07461e-08
1.36053e-07
4.91702e-08
-3.20074e-06
3.56693e-07
-0.000728836
9.08117e-07
6.81397e-09
-0.0013801
1.63539e-07
5.79313e-08
-0.000383828
-6.21504e-07
1.2733e-07
1.98147e-07
-1.88222e-05
-0.00122545
5.86853e-09
-0.000279084
0.00704213
-0.00118444
0.0021006
-2.67897e-07
2.54677e-08
1.29943e-07
3.32611e-05
2.17115e-07
0.00600186
1.64515e-07
0.00309852
0.0018945
5.06497e-08
-2.39305e-08
3.11799e-08
3.56685e-08
-0.00103033
0.000254312
1.57829e-08
-0.000504964
5.60685e-07
3.43953e-08
6.4183e-08
5.11845e-09
-1.71705e-05
9.43651e-08
-4.79641e-07
1.60134e-08
2.66249e-08
-2.94819e-08
5.8758e-06
-0.000598493
3.40475e-07
7.96189e-08
1.56536e-07
2.17553e-08
1.55999e-07
3.99858e-07
-0.000405768
0.000733294
-0.00116824
5.13248e-09
-2.71191e-08
5.12795e-08
1.92994e-06
9.19459e-09
5.35122e-08
-1.01515e-05
5.26967e-07
0.00751559
1.82996e-07
-0.00123951
0.000810996
-3.65735e-09
-0.000368987
1.49261e-06
6.55154e-07
-1.96179e-05
4.65414e-08
-0.000798917
-2.2709e-08
4.11382e-08
7.22169e-08
1.772e-08
-1.49027e-05
5.34315e-08
3.44822e-07
5.44271e-07
0.00136101
0.000898692
-5.75123e-10
-3.34227e-08
1.22973e-07
7.57334e-08
2.0222e-06
2.64542e-08
6.27818e-07
2.53584e-07
-0.000705209
2.74269e-07
0.00145252
1.28751e-08
-0.00144942
1.13906e-07
2.52983e-08
-0.00122368
5.46084e-06
-1.11047e-05
0.00302787
1.62579e-07
3.92238e-07
1.64245e-08
-0.000757117
1.58871e-08
9.15893e-09
6.97371e-07
9.14667e-07
-0.00089246
-0.000768833
1.94541e-06
-0.000255373
1.03025e-06
0.00141891
7.32889e-08
2.41455e-07
4.16115e-07
-0.00115578
6.62219e-08
-0.00111988
0.00015546
2.18411e-07
2.25801e-08
2.94859e-08
-0.00134009
-1.69745e-07
2.30175e-07
-3.47677e-09
5.05437e-08
1.54926e-07
3.73996e-07
0.000640019
2.34152e-06
-2.10424e-08
8.72071e-06
8.6793e-07
-0.000625123
6.91474e-07
6.89101e-08
1.51126e-07
-0.00136807
-2.938e-08
7.45277e-07
0.00417757
4.38105e-08
1.20538e-07
1.50528e-05
8.05621e-07
4.09989e-08
-0.000191728
4.80412e-08
0.00096167
8.52072e-07
1.88182e-07
2.46645e-07
-0.00116986
-1.06506e-08
1.56324e-09
1.47521e-06
-0.00109761
3.21188e-07
2.97408e-07
4.07025e-07
-1.49239e-07
1.02544e-08
-0.00110157
3.91714e-07
1.39317e-07
2.83383e-07
-1.73449e-08
-5.17815e-10
-3.22158e-06
8.76901e-09
-1.92911e-08
3.15279e-08
1.46365e-06
2.54142e-08
1.16797e-07
8.84805e-07
1.70676e-06
8.60293e-07
1.01356e-08
-8.11959e-08
1.08449e-06
-4.31542e-06
9.37278e-07
-8.77515e-07
-9.82525e-07
0.00525322
2.31998e-06
-5.82426e-10
0.00107291
0.00458963
-3.78359e-10
1.40218e-07
1.25147e-08
-2.90903e-06
1.94465e-07
1.85125e-07
1.03577e-07
-0.00111928
-2.36314e-08
2.72446e-08
0.00269923
0.000256511
7.09651e-07
2.58771e-08
0.00052192
0.00165839
2.09996e-06
3.33816e-10
-0.00116206
1.48854e-06
1.04384e-07
-0.000996262
2.75442e-07
1.06093e-08
2.82574e-07
3.00108e-06
3.86227e-07
0.00333425
-0.00127972
4.0733e-08
0.000509944
6.74904e-06
-0.000699425
1.58418e-08
8.81912e-07
2.52041e-08
2.65423e-08
-0.000312333
0.00684396
-0.00983773
0.00733767
2.39052e-08
3.68127e-07
4.52561e-08
-0.00125016
0.000349868
1.77168e-08
7.82662e-08
5.3521e-09
1.53611e-07
4.48962e-07
0.00119541
-0.000829258
3.43249e-07
1.21159e-07
2.07523e-07
-0.000605253
7.35073e-08
4.3549e-07
4.64699e-08
5.06949e-08
-0.000101771
0.00629126
0.00491146
-1.4417e-05
-1.08441e-08
-0.0136225
5.22265e-08
-2.29915e-08
-0.00112376
-0.000393292
7.68879e-09
7.94693e-09
7.19362e-07
1.03783e-07
2.62674e-08
-8.22115e-05
-0.00116337
8.59074e-08
4.76176e-08
5.21487e-09
-1.08167e-08
1.72854e-05
1.22733e-07
0.00315218
4.90066e-07
1.06557e-06
6.20141e-08
1.09777e-07
-0.00133994
4.40919e-07
7.72789e-06
-0.000994558
3.70418e-08
-0.000715485
-4.54067e-08
-3.01301e-07
-3.26964e-06
-0.000585382
-0.000693884
1.2215e-06
2.07696e-08
3.91084e-07
1.20254e-07
6.82755e-08
2.4597e-08
0.00334834
2.74126e-08
0.00562065
2.20358e-05
2.9182e-07
6.91059e-09
7.87571e-06
3.43087e-07
1.17947e-09
1.16813e-07
9.42757e-09
9.50318e-07
2.81437e-07
2.5894e-08
-0.000753184
6.2278e-08
-1.765e-06
3.84811e-08
-8.90796e-11
-0.00108018
0.000391492
6.61585e-08
-3.4643e-07
6.82006e-07
5.78097e-08
8.08909e-07
4.50591e-07
7.62862e-08
2.60584e-07
-3.70286e-06
5.9321e-08
0.00410387
3.11434e-07
0.000472815
2.1745e-06
1.34855e-07
5.54262e-05
3.83544e-09
0.00380592
1.86449e-08
-0.00110679
0.00319861
0.00171083
0.00144257
0.0151513
2.18523e-07
1.67677e-07
0.000885445
-8.06791e-08
1.78512e-08
-0.000469268
0.00181565
2.3347e-08
3.19407e-07
1.38957e-07
1.41676e-07
4.99047e-07
-0.000841558
-3.12781e-09
6.79266e-07
6.27245e-07
-4.54137e-08
-1.22175e-08
1.25521e-06
6.0274e-08
0.00459132
5.14437e-08
5.53375e-07
1.99121e-07
3.5615e-07
6.73921e-07
0.00649188
1.12113e-06
3.54277e-08
-1.31286e-07
0.00187789
-0.00118048
2.17635e-07
0.0055101
3.17727e-07
7.91701e-08
1.82384e-08
3.92851e-08
4.46206e-05
9.80092e-07
-0.000542688
-0.000553599
1.23303e-07
-0.00138184
3.64707e-08
7.02364e-08
-0.000489566
3.24884e-07
6.28648e-08
-0.000312456
1.53929e-07
-7.32577e-07
2.06386e-07
3.32083e-07
7.70661e-08
0.00290963
0.00365447
-0.00022453
-0.00652552
1.77678e-07
4.26607e-08
-0.000565859
5.53541e-08
3.36916e-08
-5.02017e-07
5.15693e-09
-9.44861e-06
-0.000999025
0.000242207
-0.000170779
6.39452e-07
2.26954e-07
-0.0010721
3.14999e-08
9.25119e-07
4.25234e-10
-0.000753154
7.86083e-08
7.93108e-07
0.000305066
1.11187e-06
-2.14777e-08
-5.92575e-08
-2.26943e-05
2.19689e-08
7.46385e-06
6.13915e-08
2.52074e-05
-0.00112241
8.7141e-07
-8.44868e-07
-1.99384e-08
-4.87918e-05
4.13786e-06
3.28796e-07
6.02199e-08
2.55416e-07
-2.48678e-08
6.64168e-07
7.22899e-09
1.21451e-06
2.18606e-08
8.4039e-08
-0.00153384
6.77388e-08
1.53627e-07
3.8852e-07
5.39349e-09
0.000448375
5.21355e-08
2.13136e-07
-0.000618344
9.46066e-07
0.00384127
2.04651e-08
-0.00120111
1.03273e-06
-0.000528398
7.47325e-08
3.56428e-06
2.20991e-07
3.96381e-07
1.48289e-06
2.02848e-06
6.28388e-05
-0.00113996
-4.10001e-06
-0.00162636
3.11256e-08
2.12143e-06
-6.28727e-07
0.00426216
7.55872e-08
1.92689e-07
1.8978e-08
6.33948e-07
1.936e-07
0.00679197
4.51439e-07
0.00511538
0.000879053
-7.87838e-07
3.11365e-08
0.00530821
3.1995e-09
3.03206e-08
5.16195e-08
2.41348e-08
0.00560892
1.68601e-08
-4.58289e-05
6.23792e-08
3.98659e-07
-0.000786132
1.95343e-07
6.72698e-09
1.73246e-08
-0.000679339
4.60865e-08
5.54567e-08
2.63173e-07
1.6511e-07
1.82759e-07
4.0838e-08
6.00366e-06
8.84675e-07
3.83718e-07
3.28418e-05
-0.00083997
0.000424515
-0.000743725
8.6423e-09
2.02792e-08
4.42064e-08
2.18724e-07
-3.25926e-08
0.00517153
6.67483e-05
2.64544e-08
1.76275e-08
0.00163733
0.00768224
2.70341e-08
3.90769e-08
-3.17007e-08
-0.00104086
0.0033773
1.67751e-07
1.12468e-07
-4.22931e-10
-0.00546654
1.9114e-06
-5.1059e-07
8.62785e-08
-1.54589e-08
2.68152e-08
2.04716e-07
-0.000464005
3.32918e-08
1.31454e-07
1.55329e-07
0.00351899
4.53036e-08
-0.000462319
-6.96738e-09
-4.93433e-05
1.3115e-07
5.65892e-07
-3.31689e-09
1.6723e-09
1.01473e-05
0.000300472
1.14605e-06
0.00118799
-0.00109967
3.76767e-08
-0.000811102
3.38278e-06
2.08368e-08
0.00648287
0.000523107
1.32602e-06
1.04308e-08
0.0010856
-0.000707792
1.55261e-07
6.64669e-07
0.000517145
4.87776e-08
3.22868e-08
7.59779e-08
1.1442e-07
2.67207e-07
3.84832e-08
0.000737388
3.76355e-07
4.25507e-07
7.4548e-09
3.64337e-08
0.00579208
4.89773e-08
1.09306e-07
1.0274e-07
2.70379e-07
3.66437e-07
4.65531e-09
5.28954e-08
0.00447116
-1.37928e-08
-0.000900645
1.06166e-08
-0.0872998
0.0010772
1.46041e-07
4.30834e-08
4.89554e-09
-0.00121615
2.0155e-08
1.2551e-07
2.81522e-08
3.65208e-06
0.00527651
2.8613e-07
0.000607105
-2.66795e-07
0.00835434
2.50488e-08
7.25263e-07
1.4374e-07
-4.89391e-11
-0.000491228
0.000160514
0.00261518
1.01427e-07
6.36405e-07
6.82848e-07
-0.000841695
-0.000854923
0.000212868
1.64468e-07
2.56228e-08
-0.00108638
9.91776e-08
9.99606e-08
-0.00060335
1.15707e-06
9.32229e-08
4.5203e-07
-3.09339e-07
2.1619e-07
1.82807e-07
-0.00139538
2.91173e-07
-1.19891e-08
-0.000400296
-8.24655e-07
5.81046e-08
0.00122719
-2.10482e-08
-2.87044e-09
-1.98582e-05
4.93122e-07
-0.000632165
5.18463e-08
6.29031e-08
1.75911e-08
-2.23504e-06
4.13394e-08
-3.7077e-08
0.0069689
0.000971782
0.00140134
0.000462314
1.01641e-07
-0.000921269
1.61751e-06
-1.03373e-09
1.41473e-07
5.56204e-07
-3.29056e-08
-5.58536e-07
-0.000757856
-0.00100965
0.00155744
-6.8179e-08
3.38494e-08
2.09059e-06
-2.54069e-08
-0.000494246
2.74552e-07
3.02831e-07
1.65622e-07
1.24204e-07
3.38771e-08
1.12257e-06
-0.00105752
1.71131e-09
1.34607e-07
-2.74957e-08
-0.000860305
1.46185e-07
-0.0015363
0.00320887
0.00145235
9.67639e-09
3.31181e-08
-0.000444378
-2.75156e-07
4.48661e-09
2.89944e-07
2.97734e-09
5.33455e-07
-1.20547e-07
1.18439e-06
5.53169e-07
0.000810619
4.68963e-08
1.4635e-07
-3.9667e-05
0.00152033
1.57103e-07
6.03705e-07
2.42248e-08
0.000882949
1.18478e-08
-2.8175e-08
1.20863e-07
2.11126e-08
-4.16993e-05
-0.000550877
0.00826214
8.71525e-07
-0.0012196
0.00711026
1.47427e-08
4.72715e-07
3.15086e-08
-1.93344e-06
1.53502e-07
5.92353e-08
1.7532e-08
-3.27208e-09
1.09492e-07
0.000544248
3.14747e-07
1.84036e-06
1.88291e-07
5.14625e-07
1.43737e-07
1.06976e-06
-2.85879e-09
4.12599e-07
6.30617e-07
5.47869e-07
-0.00136778
1.061e-09
0.000104694
3.59833e-07
2.09628e-07
9.02664e-08
1.22082e-08
0.00111525
-0.00019516
1.56153e-07
8.36826e-08
0.000326958
-1.5092e-05
-6.02194e-08
-4.05808e-06
4.27196e-08
0.00234658
4.84737e-07
1.62524e-08
0.0036123
3.69143e-07
0.00273014
1.91927e-08
1.05149e-07
-4.09139e-09
-0.000574313
0.000822805
2.1902e-08
-1.4028e-05
-0.000154665
-2.47282e-08
8.66787e-08
-8.0645e-09
-1.41954e-05
-0.000691161
3.2444e-07
4.59642e-07
2.10023e-07
-1.03872e-09
2.57507e-08
1.72715e-07
-1.39586e-08
7.09496e-05
2.48312e-08
8.9968e-07
-0.00087771
1.541e-07
2.61444e-09
0.00474909
8.0228e-07
-1.43853e-09
7.33733e-07
3.90819e-07
0.00758765
2.24139e-08
-0.00150309
2.7079e-07
3.20294e-08
7.06144e-07
-7.62885e-08
1.64884e-07
-0.00157125
9.00232e-07
7.08164e-07
0.00855672
3.30953e-08
3.48845e-07
2.35518e-07
4.3401e-08
-3.72752e-09
2.49314e-08
1.5995e-08
-1.01025e-06
7.61821e-07
7.37791e-07
0.00133328
-0.000631254
0.00328555
4.42504e-09
1.12543e-06
0.00153928
-0.000641848
1.91098e-08
3.6349e-08
5.34533e-07
0.00320614
6.08035e-08
5.16712e-07
0.000143107
-0.000667919
-0.0283711
-7.58877e-07
-2.43116e-05
0.00153494
0.00350426
7.49914e-08
0.0204551
0.000227469
1.02432e-07
1.99263e-07
6.06535e-08
-0.00118034
6.05955e-07
0.00334696
1.12757e-07
0.0022345
7.97223e-08
0.00822263
0.00061639
3.42121e-08
4.40451e-07
-0.00101411
0.00568273
2.63195e-07
1.31926e-07
5.27225e-08
3.22498e-08
1.12625e-07
1.61251e-06
0.00432876
-0.000693046
7.33828e-08
-0.000433168
5.78847e-07
4.65077e-05
-2.45137e-08
-1.22371e-08
0.00103775
-3.88517e-06
2.39004e-08
2.74893e-07
2.65915e-07
-2.80083e-08
0.00454259
0.00290013
-0.00130898
-0.000942798
5.85171e-08
1.14009e-07
-3.27117e-07
0.000525077
-0.000166222
1.2801e-07
-8.93946e-06