/*--------------------------------*- C++ -*----------------------------------*\
| =========                 |                                                 |
| \\      /  F ield         | OpenFOAM: The Open Source CFD Toolbox           |
|  \\    /   O peration     | Version:  v2012                                 |
|   \\  /    A nd           | Website:  www.openfoam.com                      |
|    \\/     M anipulation  |                                                 |
\*---------------------------------------------------------------------------*/
FoamFile
{
    version     2.0;
    format      ascii;
    class       volVectorField;
    location    "800";
    object      U_0;
}
// * * * * * * * * * * * * * * * * * * * * * * * * * * * * * * * * * * * * * //

dimensions      [0 1 -1 0 0 0 0];


internalField   nonuniform List<vector> 
13917
(
(1.15167 0.148633 -4.22702e-20)
(1.03793 0.0534011 1.05751e-20)
(0.421271 -0.13329 4.79778e-20)
(1.06695 -0.0338245 -3.71009e-21)
(0.996636 0.0114054 0)
(0.361137 0.139572 0)
(0.366772 -0.119544 -4.56908e-20)
(0.405606 -0.125405 7.22414e-20)
(0.138125 -0.0553814 0)
(1.21071 0.186359 6.88368e-20)
(1.16044 -0.179092 -6.43208e-20)
(1.10758 -0.121446 -8.78201e-20)
(1.06717 -0.0352317 2.00388e-20)
(-0.269696 0.00764152 -7.2476e-20)
(0.990973 0.127192 5.64836e-21)
(1.01733 0.117304 -1.01161e-21)
(1.03213 0.0614856 -7.61754e-21)
(1.21713 -0.00451274 -2.02481e-20)
(1.10537 -0.119448 7.84892e-20)
(1.00262 0.00734876 0)
(1.00005 0.00219662 0)
(0.343669 -0.115368 5.78612e-20)
(1.00261 0.0128483 6.83398e-22)
(0.468719 -0.137601 -3.56932e-20)
(0.998366 0.0268613 8.8352e-22)
(0.41024 -0.120507 -2.39358e-20)
(0.784586 0.0872471 0)
(0.765505 0.180655 6.85319e-20)
(0.753367 0.66147 0)
(1.29247 0.108646 4.09901e-20)
(1.17129 0.134794 1.58529e-21)
(1.10016 0.108841 -3.73347e-20)
(0.842885 0.117237 -2.43558e-20)
(0.909184 0.0359824 3.92227e-22)
(0.994021 0.0250905 5.86519e-22)
(1.13829 -0.223588 0)
(1.00238 0.0122054 0)
(-0.10995 -0.0300837 0)
(1.07455 -0.0459948 0)
(0.19679 -0.0265139 -2.47296e-21)
(1.01215 0.0010794 2.29605e-22)
(0.999982 0.000887337 0)
(1.02578 0.00100805 0)
(0.714166 0.271388 0)
(1.05734 0.0253416 1.81229e-20)
(0.892376 0.0534707 -1.81099e-20)
(1.21294 -0.00739315 -1.57671e-20)
(1.21947 -0.0659986 -2.48132e-20)
(0.115741 0.244852 2.46344e-19)
(1.0052 0.00112973 -3.70553e-21)
(1.12445 -0.00370193 0)
(0.96659 0.0321319 0)
(0.0878742 0.22995 -2.81207e-19)
(0.90468 0.0381659 4.97287e-20)
(1.03098 0.0629574 4.21469e-21)
(1.12871 0.0339719 -5.62284e-21)
(1.16405 -0.176994 5.24205e-20)
(1.00359 0.0448876 4.10708e-21)
(1.10872 0.0461405 8.21724e-20)
(1.05527 0.0251742 -1.86382e-20)
(0.211323 0.0458327 -1.6772e-19)
(1.0399 0.0531832 4.34046e-22)
(-0.2009 0.010341 -5.18518e-21)
(1.00283 0.0079535 0)
(0.390116 0.151521 5.65493e-20)
(0.702881 0.264334 -1.50737e-19)
(0.995158 0.00800003 -6.82621e-21)
(0.987394 0.0121572 8.05214e-21)
(1.25314 -0.14324 -7.01705e-21)
(1.10895 0.168631 1.53262e-20)
(0.997082 0.0112279 0)
(0.187718 -0.065071 -6.51753e-20)
(-0.300824 0.00402498 2.40781e-20)
(0.998913 0.0260933 -2.88888e-22)
(0.11914 0.314405 0)
(1.08324 -0.128848 0)
(-0.33202 0.00631929 1.2859e-19)
(1.07946 0.0244957 0)
(0.451486 -0.115026 1.02557e-20)
(1.00003 0.00425027 4.2889e-21)
(1.0004 0.00566152 -1.82174e-21)
(0.99574 0.00762872 -8.69934e-21)
(0.410859 0.213137 -2.62071e-19)
(-0.0817248 -0.0365052 0)
(-0.162192 0.0366122 0)
(1.07752 0.0230746 -1.41099e-20)
(1.0009 0.00685775 -4.04929e-22)
(0.911293 0.358116 0)
(1.12137 -0.00336467 3.96663e-20)
(1.02627 0.000832548 -9.95052e-21)
(-0.241692 -0.00738315 8.02502e-20)
(1.26136 0.161486 -6.02598e-20)
(1.03588 0.0283355 -2.1932e-20)
(0.985433 0.0788792 7.22484e-22)
(0.873033 0.351095 1.03819e-19)
(0.387361 0.0777106 0)
(1.19912 -0.144719 1.68183e-20)
(1.22001 -0.0471185 -1.21954e-20)
(1.08396 -0.159382 0)
(0.612965 0.199194 0)
(1.01608 0.00725662 -1.10252e-20)
(0.84346 0.0460186 9.43231e-20)
(0.702541 0.255193 4.81091e-20)
(1.08832 0.0123993 2.21635e-20)
(1.02404 0.0148101 1.40566e-20)
(0.187581 -0.0541217 0)
(0.839024 0.597509 8.79353e-22)
(1.22425 -0.0680005 -8.78856e-20)
(1.03463 0.0616985 9.17634e-21)
(1.17179 0.154466 1.68957e-21)
(-0.292289 0.0186511 0)
(0.202957 -0.0290753 0)
(1.10457 -0.137946 1.57138e-20)
(0.157647 -0.0524113 -6.26402e-20)
(0.94874 0.0354245 -9.30222e-21)
(0.0853003 -0.00564707 8.71138e-20)
(1.00447 0.0221917 -5.00645e-22)
(0.208876 0.194565 1.16707e-19)
(-0.013611 -0.0228636 -1.87289e-20)
(0.908142 0.0506876 -1.16582e-20)
(1 0.00172707 -1.74074e-21)
(1.25638 -0.139244 5.2104e-20)
(-0.0689129 -0.0201955 -3.72829e-20)
(0.773881 0.173034 0)
(1.00759 0.000985723 0)
(0.98651 0.0756222 0)
(1.05217 0.0315946 2.52909e-20)
(1.00707 0.000809698 5.53128e-21)
(1.02271 0.00128979 0)
(0.365305 0.0938088 0)
(0.0469414 -0.0494402 0)
(0.950997 0.0339807 3.67034e-20)
(1.05819 0.0266291 1.8841e-20)
(1 0.00177094 2.71059e-21)
(0.958013 -0.0244109 9.36928e-20)
(0.488823 -0.145084 0)
(1.14839 0.154751 4.4693e-20)
(0.589399 0.201088 5.31341e-22)
(0.994925 0.00871091 0)
(0.908293 0.0462212 6.60759e-20)
(1.16246 -0.219055 -6.554e-20)
(1.03481 0.0137829 1.48807e-20)
(0.965893 0.0460144 4.7214e-20)
(0.664361 0.271085 -1.00739e-19)
(0.986903 0.0127009 0)
(0.382086 -0.0849101 4.91251e-20)
(0.827812 0.668911 0)
(0.968712 0.0320796 0)
(1.03244 0.0113683 1.8757e-20)
(1.09459 0.121437 -3.06137e-20)
(1.17121 -0.0831554 4.01395e-21)
(0.0987907 -0.0393711 1.93763e-19)
(1.15356 -0.134794 0)
(1.06567 0.224339 -2.55321e-20)
(1.11968 0.0716593 0)
(-0.107838 0.0513513 0)
(1.10245 0.16556 2.27226e-20)
(1.00053 -0.19388 0)
(-0.358148 0.00922627 -1.37302e-19)
(0.962478 -0.024136 9.59745e-20)
(0.946741 0.0753384 1.58453e-20)
(0.779932 0.026863 1.28988e-19)
(1.00017 0.00406719 2.25128e-21)
(1.19463 -0.142738 1.51752e-20)
(1.10719 -0.136679 2.5866e-20)
(1.08691 -0.158901 1.24615e-21)
(1.08727 0.0139526 -2.27659e-20)
(1.19442 -0.0697391 7.41112e-20)
(1.04725 0.0224202 -1.10144e-20)
(0.835923 0.0427941 -9.04985e-20)
(1.08928 0.214819 0)
(-0.388252 0.0270909 0)
(1.09647 -0.141964 -3.14579e-20)
(1.0316 0.0736055 9.15897e-21)
(0.557166 -0.1171 8.62742e-20)
(1.05471 0.249517 -6.41171e-21)
(0.0712488 -0.0568124 1.61119e-20)
(0.168524 0.200259 0)
(0.440529 -0.0941013 -1.16341e-19)
(1.02318 0.0357594 1.0676e-21)
(1.26927 0.154874 -1.4177e-19)
(1.17877 0.132708 0)
(1.03533 0.0130364 0)
(1.00096 0.00748404 6.94487e-22)
(0.953757 0.153889 2.32388e-20)
(0.476839 -0.131572 4.0744e-20)
(1.36601 0.174706 0)
(-0.0789847 0.0517155 -5.22164e-20)
(1.17722 0.0337923 5.78408e-20)
(1.10823 -0.160948 3.4169e-21)
(1.20061 -0.219617 -3.34395e-21)
(-0.125894 0.0390499 -1.97297e-19)
(1.35558 0.226201 0)
(1.00114 0.0136305 -4.46567e-21)
(0.56644 0.135579 -7.96648e-20)
(0.795493 0.087928 1.05286e-20)
(1.01051 0.000384035 0)
(1.03643 0.0296741 -9.05335e-21)
(0.903981 0.526056 -7.14943e-21)
(1.13022 0.493208 7.80986e-20)
(1.10391 -0.0296654 -1.73679e-20)
(1.00476 0.0010109 -1.56716e-21)
(1.18213 -0.0696537 0)
(1.16739 -0.0828204 0)
(-0.329525 0.00712316 2.59606e-20)
(1.09391 -0.0862088 -4.70028e-20)
(0.994114 0.0239961 -5.53367e-21)
(1.00311 0.0463986 -4.62211e-21)
(1.21538 -0.050317 9.13148e-20)
(0.474775 -0.139447 5.78034e-20)
(0.968343 0.0458095 -4.19691e-20)
(0.342678 -0.118085 2.34676e-20)
(-0.378924 0.0125907 0)
(1.1112 -0.160499 4.94221e-21)
(1.02362 0.0152634 2.23689e-21)
(0.508039 0.493749 -1.18397e-19)
(1.20159 -0.047597 0)
(-0.396346 0.019542 -2.3465e-19)
(1.00855 0.0273701 3.57479e-22)
(0.32716 0.0577999 -2.166e-19)
(1.02237 0.0345596 0)
(1.28466 0.0745187 0)
(1.01187 0.00133556 0)
(-0.135261 -0.0289651 -6.26829e-20)
(0.167301 -0.0479183 0)
(1.01919 0.121319 3.32282e-21)
(1.26136 0.576705 0)
(1.12392 0.0697622 -2.24505e-20)
(1.02261 0.0148609 0)
(1.14778 -0.222102 -1.13239e-20)
(1.09435 -0.139481 2.84634e-20)
(1.17503 0.0300476 -5.44672e-20)
(0.510162 -0.146371 0)
(-0.398785 0.01561 9.04427e-21)
(1.01688 0.00362756 -2.73896e-21)
(1.10472 0.110048 1.98856e-20)
(-0.21116 -0.0110605 6.85855e-20)
(-0.183725 0.0360182 0)
(1.00017 0.00459096 -3.25362e-21)
(1.00989 0.0127513 3.63769e-21)
(0.265745 -0.0313741 -1.93238e-20)
(1.21082 -0.148355 0)
(1.00006 0.000207409 0)
(1.12416 -0.206004 -2.56154e-20)
(1.27609 -0.0190316 0)
(0.789286 0.0207005 -7.30244e-20)
(1.14779 0.129475 0)
(1.00024 0.00437567 -2.49788e-21)
(1.01197 0.256435 -2.44572e-21)
(-0.378235 0.0134362 1.14812e-19)
(1.05268 -0.00600116 -6.93226e-21)
(1.28934 0.177642 0)
(0.577165 0.248505 2.0458e-19)
(1.05142 0.0299107 0)
(1.00251 0.0430802 0)
(1.14465 -0.118353 2.39281e-20)
(0.27585 -0.0423482 7.88479e-21)
(1.15167 -0.131538 4.10116e-20)
(0.955503 0.159166 0)
(0.99534 0.12977 -6.10339e-21)
(1.00006 0.000365192 -2.78882e-21)
(-0.0910772 -0.0129449 -1.46496e-20)
(0.306358 -0.0234672 -7.01657e-20)
(1.10403 -0.203754 0)
(1.0221 0.0152818 4.54675e-21)
(-0.333726 0.0121061 1.46067e-19)
(-0.244563 0.002066 0)
(0.929287 -0.188415 -6.63274e-20)
(0.431028 -0.109998 0)
(1.08239 -0.131514 2.2309e-20)
(1.00032 0.00535871 2.69693e-22)
(1.00916 0.00116739 1.10306e-20)
(1.21137 -0.0160836 -4.05306e-20)
(-0.214131 -0.0123602 -7.13611e-20)
(1.2642 -0.0894953 3.79472e-20)
(1.1061 0.043434 -5.26174e-20)
(1.0055 -0.0804998 9.54131e-20)
(1.08599 -0.0919356 -2.68741e-20)
(1.02243 0.000797499 1.5111e-20)
(0.54323 0.0183108 7.26869e-20)
(1.0032 0.00707796 6.88602e-21)
(0.519684 -0.115263 -1.03206e-19)
(1.10113 -0.0283902 0)
(1.00011 0.000210269 0)
(1.02637 0.141406 5.62333e-21)
(1.0592 0.226872 1.52034e-21)
(0.781328 0.039006 7.27886e-21)
(1.13339 -0.211873 -4.42044e-21)
(1.02797 0.184269 -7.59204e-21)
(1.05919 0.00272484 4.44814e-21)
(1.36808 0.00820471 0)
(0.51755 -0.145821 0)
(0.224737 -0.020978 1.0222e-20)
(1.00798 0.0267749 6.0306e-22)
(0.870235 -0.171579 -6.84394e-20)
(0.998401 0.00557646 -9.16748e-21)
(1.05893 0.00133773 1.29276e-20)
(1.00437 0.0211719 0)
(0.841251 0.711762 8.32968e-21)
(1.00244 0.00124761 2.69054e-21)
(1.29185 0.0747235 1.89505e-19)
(1.14159 0.129429 0)
(1.04635 0.0212074 1.01175e-20)
(1.18136 -0.0742437 8.1598e-21)
(1.06427 0.0697069 -1.62587e-20)
(0.123889 0.164304 2.55686e-19)
(1.05317 0.243478 3.70305e-20)
(1.25354 0.157716 -1.08347e-19)
(1.04252 0.0133467 3.49934e-20)
(1.00295 0.0416356 -2.43545e-21)
(-0.305255 0.0205546 2.17378e-19)
(-0.110868 -0.0133459 2.59597e-20)
(1.005 0.0229146 -8.20529e-22)
(1.01033 0.00120268 -1.8779e-21)
(0.595144 0.0245906 0)
(1.02691 0.0328989 -1.70853e-20)
(-0.279404 0.00120843 0)
(1.04126 0.0134669 -1.71043e-20)
(-0.118521 -0.0315107 3.28659e-20)
(1.05754 -0.0208874 3.33765e-20)
(1.28914 0.399103 -1.48447e-19)
(1.14838 -0.0276628 -1.56628e-20)
(0.128085 0.385584 -1.21632e-19)
(0.950716 0.074336 8.82992e-21)
(1.06526 -0.0142373 -1.09283e-19)
(0.522204 0.38356 8.88287e-20)
(1.02968 0.138274 -4.46066e-21)
(1.21493 -0.14513 -4.7316e-20)
(0.993548 0.614253 4.58682e-20)
(1.00804 0.062267 0)
(-0.0327913 -0.0397655 0)
(0.573374 0.113604 2.61673e-19)
(-0.236108 -0.00143548 -5.63053e-21)
(0.923799 0.0529473 -3.19766e-20)
(0.0755843 -0.0196543 0)
(1.11296 0.106925 0)
(-0.178654 0.0273017 -4.68831e-20)
(0.538287 0.36061 -4.6634e-21)
(0.953532 0.425458 -4.57632e-21)
(0.971141 0.419632 0)
(0.362874 -0.124604 -5.96529e-20)
(0.999928 0.00557807 9.5997e-21)
(1.09718 0.218649 1.62647e-20)
(-0.26044 0.0184732 -1.7832e-19)
(0.989382 0.0489905 -4.43815e-22)
(1.02216 0.0953407 -2.8855e-21)
(-0.220391 -0.00185559 6.47128e-20)
(0.889968 0.563866 0)
(1.03684 0.0685806 -4.8687e-21)
(1.21234 -0.216701 3.0149e-21)
(0.72176 0.63191 8.71628e-22)
(1.01345 0.00655682 -2.15934e-21)
(-0.0347527 -0.0169852 -2.96875e-20)
(1.17388 -0.224024 0)
(1.00344 0.0076312 -3.56657e-21)
(1.01525 0.0175533 4.86885e-21)
(0.998523 0.00510866 1.15819e-20)
(1.03282 0.0107253 6.92938e-21)
(1.39843 0.00339935 2.37341e-20)
(0.486783 -0.102583 2.50429e-20)
(0.377642 -0.188078 0)
(-0.274204 0.0199796 0)
(1.00151 0.0247478 3.29912e-21)
(1.2987 0.177394 -1.42179e-19)
(-0.217869 0.0306376 -2.11209e-20)
(1.16584 -0.0505305 1.11212e-19)
(0.322162 -0.113924 -5.41089e-20)
(-0.183979 -0.0189781 0)
(0.139385 -0.0470961 0)
(1.01878 0.00656114 1.47124e-20)
(1.09445 -0.198375 2.56698e-20)
(1.01672 0.0166221 -3.15573e-21)
(0.433126 0.06627 1.5462e-19)
(1.05424 0.0263576 -1.8446e-20)
(0.106201 0.438623 1.28752e-19)
(1.28037 -0.0150099 0)
(1.08293 -0.0343289 -3.92015e-20)
(0.999916 0.00676438 1.86694e-21)
(1.21066 -0.0477681 6.97025e-22)
(1.27739 0.156955 4.5693e-20)
(1.24582 -0.0280299 0)
(0.360243 1.20449 -1.01997e-20)
(-0.213343 0.0263781 5.16831e-20)
(-0.421219 0.0219162 2.25101e-19)
(1.01851 0.265558 -1.23053e-20)
(1.20223 0.182407 0)
(1.00938 0.0121823 1.95209e-21)
(-0.165344 0.0367918 0)
(0.342149 -0.113323 -2.49628e-20)
(1.00931 0.048636 3.08669e-22)
(1.18695 -0.00883443 -1.73269e-19)
(0.998039 0.0212692 -4.65816e-21)
(1.39549 -0.0623255 0)
(1.05806 -0.0199996 -3.58298e-20)
(0.999926 0.00479082 3.0192e-21)
(1.05884 0.0748374 -3.79992e-22)
(0.526563 -0.107885 0)
(1.05664 0.0755267 -1.2422e-20)
(0.298332 -0.0498965 -6.23331e-21)
(-0.108755 0.0575018 3.63615e-20)
(1.13985 -0.171635 0)
(0.453891 0.365892 -5.64047e-20)
(1.0099 0.0613849 0)
(0.508131 0.449621 2.04582e-19)
(0.479648 0.390977 0)
(1.00476 0.0157655 -5.58259e-22)
(0.85225 0.564521 3.55559e-22)
(0.990855 0.0483401 -8.0078e-21)
(0.997216 0.0244142 -2.67752e-21)
(1.28942 0.114922 -9.46576e-20)
(1.00011 0.000547317 5.52401e-21)
(0.997117 0.0267812 7.89516e-21)
(1.01696 0.0162935 0)
(1.41737 0.00892125 -6.47472e-20)
(1.00006 0.0034157 0)
(0.0828905 -0.0240782 0)
(0.630269 -0.132549 -3.03218e-21)
(-0.155725 0.0353312 2.02864e-20)
(1.34977 0.233583 -2.42891e-21)
(0.250498 -0.060221 0)
(-0.397287 0.0180872 0)
(1.16187 -0.050819 -9.20409e-20)
(1.00173 0.0236883 -2.99709e-21)
(1.33356 -0.0124304 -5.26856e-20)
(1.07482 -0.0439014 1.16214e-20)
(1.11179 0.116871 -3.49716e-22)
(1.00133 0.0144722 1.74483e-21)
(0.414086 -0.0944066 0)
(0.41015 -0.128719 -2.16198e-20)
(0.694764 -0.14215 2.57271e-21)
(1.00382 0.117284 2.69299e-21)
(1.28439 -0.0363279 -1.01414e-19)
(0.92673 0.0492524 1.01638e-21)
(1.07631 -0.0475468 -2.0549e-20)
(1.2419 -0.0311002 1.40114e-20)
(1.0412 0.0795759 1.59902e-20)
(1.08863 -0.195722 0)
(1.03566 0.0598543 -4.69629e-21)
(1.00242 0.00147178 -7.55891e-21)
(-0.247886 -0.0023647 1.65106e-19)
(0.0713232 -0.0548547 -4.17759e-21)
(0.0934687 -0.0607858 0)
(1.25965 0.263459 0)
(-0.159219 0.0307051 0)
(-0.00275043 -0.0479206 7.46914e-20)
(-0.246907 0.0111788 0)
(-0.299653 0.00178048 1.6343e-19)
(1.02204 0.00161938 3.32648e-21)
(1.21423 -0.0328236 5.16058e-20)
(1.0436 0.0790283 -1.62108e-20)
(1.0007 0.0479361 -1.88856e-21)
(1.17293 -0.0767893 0)
(1.21492 -0.0132851 2.31947e-20)
(1.02184 -0.000467373 1.56122e-20)
(1.24267 0.0425164 6.20087e-20)
(1.16431 -0.0407753 1.38281e-19)
(-0.293117 0.00708041 -4.30883e-20)
(1.00512 0.0162748 6.92726e-22)
(1.23132 -0.118353 0)
(-0.0667698 0.0411259 6.7128e-20)
(1.32534 0.422647 -2.38477e-19)
(0.0753104 -0.0299842 -3.25419e-20)
(1.00007 0.00306964 0)
(1.00812 0.0493727 -1.05273e-21)
(1.01595 0.000524641 2.50602e-21)
(1.09613 0.170676 -2.48669e-20)
(1.01862 0.00606932 5.99824e-21)
(0.558521 -0.143105 -4.29504e-21)
(0.390408 -0.150259 0)
(1.03104 0.177676 -5.72785e-21)
(-0.131451 0.0403998 2.29383e-19)
(1.12744 0.0304286 0)
(1.19049 -0.146827 -1.74231e-20)
(-0.212069 0.00961338 0)
(0.849484 0.670374 0)
(1.13621 -0.169622 -2.7816e-20)
(1.1691 -0.223163 8.13681e-20)
(1.22989 -0.122152 0)
(1.23827 0.0684999 8.79909e-20)
(1.31997 -0.0439885 4.27169e-20)
(1.12489 -0.0829867 0)
(1.11988 -0.178814 1.89717e-20)
(0.381171 0.194854 7.48541e-20)
(1.11088 -0.0974345 -4.18769e-20)
(1.22236 -0.0855756 3.5457e-21)
(1.01966 0.00074641 3.58504e-22)
(1.06364 -0.0413965 0)
(1.12996 0.000162393 4.21415e-20)
(1.03797 -0.00152747 -2.46369e-20)
(1.09024 0.166555 0)
(1.08248 0.0212759 3.38887e-20)
(-0.28982 0.00217798 -1.18775e-19)
(0.179372 -0.0572101 2.17726e-19)
(1.02573 0.0317607 4.91101e-21)
(1.02229 0.000645833 9.55918e-21)
(0.560501 -0.150625 0)
(-0.418796 0.0207335 0)
(1.0001 0.000413906 0)
(0.052284 -0.021476 0)
(1.07656 -0.0098464 0)
(1.33656 0.207082 -3.41328e-20)
(1.02545 0.0345347 -1.08754e-21)
(-0.351641 0.0123292 1.27499e-19)
(1.02462 -0.151342 -3.84142e-20)
(1.09819 0.118128 3.47205e-20)
(1.05869 0.0439894 2.43991e-20)
(0.278927 -0.0688332 0)
(1.36101 0.174171 -2.21092e-19)
(-0.270212 0.0259327 0)
(1.00007 0.000495259 -2.40083e-21)
(-0.370924 0.0114086 0)
(0.141234 0.163263 -2.89546e-20)
(0.568405 0.0263318 2.99209e-20)
(1.03839 -0.000860388 1.91858e-20)
(-0.185209 0.0362706 8.2328e-20)
(0.0536156 -0.0108707 -7.22392e-20)
(1.16006 -0.0574765 0)
(1.01598 0.0174956 0)
(1.02482 0.0633759 5.83359e-21)
(1.0775 -0.127202 -3.37505e-20)
(1.35978 -0.0693109 -1.61299e-19)
(1.02212 -0.000576204 -1.46355e-20)
(1.01446 0.0166847 -4.61715e-21)
(1.00749 0.00339996 -3.40906e-21)
(1.00794 0.00353668 0)
(-0.36144 0.0132134 -3.04773e-20)
(1.20208 -0.0718471 1.86559e-19)
(1.15963 -0.0547258 0)
(1.36553 0.157732 -7.42307e-20)
(1.00923 0.000919571 -1.30678e-20)
(1.01547 0.00693627 1.59061e-20)
(1.27865 -0.039646 1.6335e-19)
(-0.0509864 -0.0130254 -1.28045e-19)
(1.1623 0.0510464 1.09899e-20)
(1.04887 0.0224667 0)
(0.997813 0.02482 4.48621e-21)
(0.992101 0.0109007 5.74672e-21)
(0.513952 0.0205761 0)
(-0.0971911 0.0402202 1.53828e-19)
(1.00107 0.00631286 -3.3666e-22)
(0.99291 0.0139316 1.16148e-20)
(1.08792 -0.195082 0)
(1.1267 -0.0801568 0)
(1.14643 -0.0298783 -2.05403e-20)
(1.00654 0.047939 0)
(1.05354 0.0796408 1.31576e-20)
(1.07906 0.117784 1.3412e-20)
(1.21763 -0.0871029 -6.71591e-20)
(0.98792 0.584925 -3.85193e-20)
(1.37191 0.169287 -8.43714e-20)
(1.33649 -0.0193113 0)
(1.25865 -0.0675561 -7.68889e-20)
(1.05088 -0.0899975 0)
(1.25363 0.148411 6.4148e-20)
(1.00682 0.026365 2.59934e-25)
(-0.361446 0.0111615 -9.33023e-20)
(0.992334 0.0100947 -5.24469e-21)
(1.02348 0.0987791 0)
(1.08946 -0.0229822 1.88216e-22)
(1.08219 -0.0467221 -1.08111e-19)
(1.0322 0.354191 -2.69564e-20)
(1.01403 0.00157536 5.87431e-21)
(1.32463 0.409857 1.86092e-19)
(1.30578 0.0997172 -8.32054e-20)
(-0.141659 -0.0312673 3.02875e-19)
(1.26095 -0.0633453 8.35607e-20)
(0.902752 0.184078 3.49359e-20)
(1.16855 -0.042737 0)
(0.999773 0.00742858 0)
(0.172908 -0.0184544 0)
(1.30526 0.393761 0)
(0.170065 -0.0881841 5.04368e-21)
(1.03433 0.0572266 0)
(1.14568 0.0366987 0)
(1.37308 0.153081 1.03615e-19)
(-0.175425 -0.0209984 0)
(-0.319089 0.0198282 -1.24501e-19)
(1.22475 -0.0498437 -4.01611e-20)
(1.27062 0.266023 1.38205e-20)
(1.01241 0.116696 1.03964e-21)
(1.08942 0.065182 2.07597e-20)
(1.00547 0.0487231 0)
(0.912809 0.290822 -1.48376e-20)
(0.679562 0.251349 -4.85296e-20)
(0.972007 0.0159484 -2.41814e-20)
(1.19704 -0.049976 -8.61097e-21)
(0.574415 0.222368 -3.93298e-20)
(0.183279 -0.0907757 0)
(-0.266369 0.0277266 6.77549e-23)
(1.05968 0.092079 0)
(1.18639 -0.145412 0)
(1.09298 -0.161834 0)
(1.03292 0.150588 0)
(0.972626 0.0470729 -7.46289e-21)
(0.197867 0.640921 0)
(0.329875 -0.0540357 5.46885e-20)
(0.345679 -0.0904418 -2.60908e-20)
(1.36528 0.136402 2.63675e-19)
(1.02271 0.00152762 -1.73736e-21)
(-0.0331982 -0.0191257 -2.31365e-20)
(1.08087 -0.126654 -8.50455e-21)
(1.01396 0.00118682 0)
(1.14529 0.0841549 -2.19316e-21)
(1.18683 -0.107662 4.58405e-20)
(0.852643 0.117944 1.10049e-20)
(1.28825 0.101647 3.80642e-20)
(0.43245 -0.116016 -3.67963e-20)
(1.31335 -0.0459434 1.30785e-20)
(1.11959 -0.0741866 -1.40034e-20)
(0.175165 -0.0170361 0)
(1.08719 0.0296434 -1.11138e-20)
(-0.323483 0.00449411 -1.83235e-19)
(1.00013 0.00415742 -1.08246e-22)
(1.0011 0.00679816 -6.24092e-24)
(0.843931 -0.171801 -3.80207e-20)
(0.30478 -0.05361 -1.24502e-19)
(0.385641 0.327692 1.27786e-19)
(1.0876 0.027424 1.18355e-20)
(1.03277 0.0709519 0)
(0.993445 0.0141118 -1.54343e-20)
(1.08813 -0.0933917 4.85852e-20)
(0.0928543 0.285766 -1.83123e-20)
(1.08793 -0.155986 -9.95514e-22)
(1.09271 0.065329 -2.84e-20)
(1.13701 -0.165061 -4.5486e-20)
(1.20617 -0.0505157 8.03952e-20)
(1.02554 0.0355297 6.79403e-21)
(1.24956 0.589529 0)
(1.08541 -0.153638 -5.80553e-20)
(1.06439 -0.182438 1.86559e-20)
(1.01109 0.028688 2.97837e-22)
(1.30633 -0.0553084 0)
(1.08165 0.0238721 0)
(-0.0803849 0.0669255 1.4027e-19)
(1.21866 0.182315 -6.74289e-20)
(1.04432 0.345955 1.73386e-20)
(1.14773 0.039373 0)
(1.0113 0.00380206 8.34569e-21)
(1.03661 0.00309055 8.08762e-21)
(1.05401 0.0320147 -2.6419e-20)
(1.00544 0.426051 2.64818e-20)
(0.891686 0.0590308 5.63388e-20)
(1.38844 0.054614 0)
(0.477121 0.908232 1.08652e-20)
(1.19517 -0.0649309 -9.4958e-21)
(1.01282 0.0065569 1.57735e-20)
(1.31694 -0.0320903 6.92147e-20)
(0.384503 0.359949 -2.47829e-19)
(1.12344 -0.223871 0)
(1.05191 -0.00493143 2.95753e-20)
(0.903018 0.0705927 2.4679e-20)
(1.01374 0.0166944 0)
(1.09641 -0.0551393 2.05869e-20)
(1.11219 0.0451485 -5.39443e-20)
(0.0390133 -0.00890568 -3.88827e-20)
(1.00003 0.00472047 0)
(1.22574 0.559703 -2.15839e-19)
(1.10036 -0.0506647 0)
(1.15626 -0.180322 6.67032e-20)
(1.2561 0.177308 -6.55812e-20)
(-0.309154 0.00730348 -1.02279e-19)
(1.07078 0.343542 0)
(1.02386 0.0613421 -3.0107e-21)
(-0.249325 -0.00741873 0)
(-0.451724 0.0217642 1.30929e-19)
(1.01799 0.0484872 3.5917e-21)
(1.08744 -0.0238051 -2.23745e-20)
(1.02196 -0.139898 -1.48356e-19)
(1.36244 0.139972 -6.61948e-20)
(1.25864 -0.0907789 -2.94483e-20)
(1.00025 0.000594809 2.8892e-21)
(1.06035 0.0435907 1.91804e-20)
(1.27575 0.388454 -1.33791e-19)
(1.08325 -0.0361244 3.06643e-20)
(1.24483 -0.0216411 1.39159e-20)
(1.14383 -0.114065 6.34557e-20)
(1.03739 0.00267163 9.11756e-21)
(1.16197 -0.0876586 5.96948e-20)
(0.427858 -0.133812 0)
(1.05047 -0.00703621 0)
(1.06524 -0.0267306 1.18106e-20)
(1.00673 0.00365127 -5.75247e-21)
(-0.111543 -0.00963125 -5.08238e-20)
(1.00001 0.00221373 2.77635e-21)
(1.00353 0.112641 -6.01095e-21)
(-0.381623 0.0251382 -6.91208e-20)
(1.01128 0.0927379 0)
(0.36213 -0.058099 0)
(1.11847 0.0756067 3.70633e-20)
(0.83767 0.123764 -2.48231e-21)
(1.00722 0.00380048 3.33064e-21)
(1.06413 0.266543 -1.56085e-20)
(1.00383 0.0203341 0)
(1.23459 0.0805064 -4.47738e-20)
(1.01079 0.00230198 7.26981e-21)
(1.13979 0.320899 2.39464e-20)
(1.07653 -0.00855518 -1.85643e-20)
(0.0393315 0.0878579 -1.25297e-19)
(0.450175 0.775545 2.76163e-20)
(-0.0538897 -0.0137594 0)
(1.01537 0.000506232 2.05306e-21)
(0.99992 0.00615016 -7.49866e-21)
(1.2462 0.143941 -5.74495e-20)
(1.192 0.137117 0)
(-0.171911 -0.0117515 6.92928e-20)
(0.0337263 -0.0329511 7.85684e-20)
(1.21861 0.0016963 -6.11638e-20)
(0.99518 0.0237663 8.35336e-21)
(1.40531 0.00478927 2.03657e-20)
(0.353534 0.304093 3.59268e-20)
(1.06452 -0.182374 -6.26631e-21)
(1.36457 0.0568206 -4.88409e-22)
(1.20339 -0.0225372 7.59134e-20)
(0.502888 -0.119538 2.72644e-20)
(1.13893 0.160659 4.92581e-22)
(1.08627 -0.0890986 -1.60106e-21)
(1.32209 0.00784378 1.33553e-19)
(0.884238 0.502883 5.01199e-22)
(1.21578 0.00508816 7.7543e-20)
(0.319241 0.38302 0)
(1.21625 0.0155298 -3.54693e-20)
(1.07473 -0.027152 -1.7884e-20)
(1.18986 -0.110966 0)
(1.03502 0.139578 -9.77132e-22)
(1.0432 -0.000817072 1.02287e-20)
(1.09698 -0.0533439 -3.87133e-20)
(1.17413 0.14765 -5.63011e-20)
(1.08897 0.119756 1.70907e-20)
(1.00252 0.020901 4.02351e-21)
(1.00981 0.00072751 0)
(1.20102 -0.0585657 -7.62302e-20)
(1.0878 -0.00246926 -2.3662e-20)
(1.24963 -0.0190266 3.9257e-20)
(0.995774 0.023036 -9.4232e-21)
(0.996989 0.0188717 6.58944e-21)
(0.999973 0.00180148 -5.72999e-21)
(1.04849 0.0806059 -5.19763e-21)
(1.02795 -0.00195613 -5.54535e-21)
(1.08444 0.101537 2.66345e-20)
(1.00602 0.00390902 -1.50205e-21)
(-0.357667 0.0135221 6.39324e-20)
(1.0999 -0.119785 0)
(0.462301 -0.197769 2.31009e-19)
(1.01717 0.00635161 -1.08862e-20)
(1.00017 0.00287939 0)
(0.813196 0.201419 4.29804e-20)
(1.24351 0.0653512 -1.02492e-19)
(0.953145 0.0290418 -7.18429e-21)
(0.429094 0.0103348 7.19343e-20)
(1.2035 0.2454 -5.57576e-20)
(0.583067 0.0822625 -7.10415e-20)
(1.09967 -0.0524743 -1.62111e-21)
(1.29634 -0.0386019 -7.38537e-20)
(1.07233 0.00819011 1.67007e-20)
(0.999869 0.00202599 1.41136e-21)
(1.00828 0.00313885 0)
(1.06221 0.0714095 -1.08455e-20)
(-0.375137 0.0242284 0)
(1.00012 0.00243267 0)
(0.89258 -0.088832 0)
(1.08666 0.10445 0)
(-0.216547 0.0327703 -1.95848e-19)
(1 0.279515 0)
(1.21292 0.243227 0)
(1.1522 -0.177956 -6.44e-20)
(1.02784 0.00574569 1.1027e-20)
(1 7.02965e-05 0)
(1.10239 -0.121546 0)
(0.988613 0.0170822 6.85112e-21)
(0.996125 0.0639981 3.06709e-21)
(0.562672 0.00317286 -9.66403e-20)
(1.03337 0.0758439 -1.00473e-20)
(0.998648 0.00575319 0)
(1.13187 0.057286 5.5658e-20)
(1.00985 0.0108093 0)
(1.02144 0.000774487 0)
(1.09686 0.112684 0)
(0.880232 0.0162802 0)
(-0.196278 -0.00499296 8.34635e-20)
(1.13142 0.134858 3.18976e-20)
(1.05016 -0.0077814 2.97771e-22)
(1.01297 0.00126606 3.77435e-21)
(-0.142819 -0.0272538 6.42653e-20)
(0.989332 0.434418 -2.36031e-20)
(1.01512 0.0586424 -7.55225e-22)
(1.03535 0.0561763 5.0965e-21)
(0.515526 0.00918163 6.88368e-20)
(1.05003 -0.14696 1.4694e-19)
(-0.415692 0.0213045 -5.47062e-20)
(0.911294 0.183804 2.59166e-20)
(1.0765 -0.0262805 0)
(1.01643 0.00381271 5.78002e-21)
(1.02164 0.00089303 1.13661e-20)
(1.11378 -0.0986017 4.44664e-20)
(1.13779 0.136005 1.76418e-23)
(1.22405 -0.206893 -1.08301e-19)
(0.919643 0.0535186 -2.2896e-20)
(-0.0605198 -0.0320427 0)
(1.04868 0.0529873 0)
(0.977226 0.0874532 0)
(-0.415507 0.0240227 1.24344e-20)
(0.997603 0.0206801 5.3735e-21)
(1.13121 -0.00279972 -4.84984e-20)
(1.01555 0.0442317 7.39289e-22)
(1.00309 0.0018813 4.35486e-21)
(1.16429 0.155028 1.77114e-21)
(0.771995 0.0466122 -7.21487e-20)
(1.07269 0.0266404 0)
(0.329751 -0.0568362 -3.18082e-20)
(0.210561 -0.034818 -1.96773e-20)
(1.26261 0.171216 1.20648e-19)
(1.00742 0.0270875 -3.15989e-25)
(1.03123 -0.000677259 0)
(1.10334 -0.158706 -1.82342e-20)
(0.933168 -0.0862747 0)
(1.00011 0.000680252 0)
(1.14013 -0.103427 -7.29556e-20)
(1.0307 -0.000248083 -4.73813e-23)
(1.16925 0.141035 -1.68653e-21)
(1.04093 -0.0104795 0)
(1.0455 0.00113497 1.03003e-20)
(1.30935 -0.0684708 8.34067e-20)
(1.05637 0.0128171 4.06e-20)
(1.00597 -0.172148 1.8149e-20)
(1.17605 0.103698 0)
(0.999973 0.00177554 0)
(1.02585 0.0023207 -4.7143e-21)
(0.981055 0.0179498 0)
(1.01754 0.0277364 5.47444e-21)
(1.06514 -0.0250043 0)
(0.294373 0.78012 -9.42831e-20)
(1.04966 -0.0038317 -1.42262e-20)
(1.04208 0.00805096 1.88566e-20)
(0.109355 -0.0645536 0)
(0.300746 -0.0764845 0)
(1.12138 -0.0773304 -1.80977e-20)
(1.18449 0.138848 0)
(1.23325 -0.0377611 0)
(1.11295 0.013672 0)
(1.03506 0.0154523 -7.10717e-21)
(0.887754 0.0516936 -3.94436e-20)
(-0.338807 0.00755437 1.04157e-19)
(1.15169 0.32279 1.60278e-20)
(0.999059 0.0118225 8.05858e-23)
(1.05664 0.0430566 -2.77134e-20)
(0.0577045 -0.0362117 0)
(1.17166 -0.00216435 0)
(-0.230363 0.0196082 1.02237e-19)
(1.00002 0.00223859 0)
(0.950911 0.0305296 -1.70882e-20)
(-0.134196 -0.0076027 7.02302e-21)
(1.15813 -0.010882 1.02109e-20)
(1.07528 0.0240176 7.26375e-23)
(-0.347042 0.0241322 0)
(0.227268 0.336842 -1.11333e-19)
(1.0177 0.0269108 7.03069e-22)
(1.31623 0.00920119 0)
(1.00872 0.00327469 0)
(1.05483 0.0131464 -3.76297e-20)
(1.01767 0.00664935 2.12698e-20)
(-0.309718 0.0101442 -1.0448e-19)
(1.02736 -0.00199257 0)
(1.04635 -0.0154676 -1.59956e-20)
(1.03562 0.0146884 -2.15963e-20)
(0.962029 -0.167492 0)
(1.07552 -0.040233 2.56152e-20)
(1.34315 0.199091 -3.54755e-20)
(0.695119 -0.0310881 0)
(1.0454 -0.00162119 -6.01321e-21)
(0.846416 0.0734777 0)
(1.00107 0.00592486 -5.1618e-22)
(-0.262788 0.0204497 0)
(1.00928 0.0148458 3.72413e-21)
(1.05033 -0.0048606 2.86035e-20)
(0.998754 0.00622556 -1.06902e-20)
(1.10513 -0.16098 -3.27863e-21)
(0.998531 0.00638933 1.27121e-20)
(1.3127 -0.0535478 -1.57981e-20)
(0.234334 -0.0296451 -3.51749e-20)
(0.558482 -0.15419 -3.98309e-20)
(0.908215 0.0702724 0)
(1.17777 -0.222686 -6.2664e-22)
(-0.351164 0.023408 1.69252e-20)
(1.00432 0.0415049 0)
(-0.053458 -0.0132906 2.32901e-20)
(0.130686 0.0460419 1.11952e-19)
(-0.331738 0.0240438 -3.41392e-20)
(0.230115 -0.058563 -1.74117e-20)
(0.0936161 -0.0636737 6.3678e-20)
(0.0210173 0.103199 -3.22347e-19)
(1.31151 -0.0305978 -1.25086e-19)
(1.0271 0.0641586 -3.71157e-21)
(0.416121 -0.111811 1.75341e-20)
(1.15746 -0.00729924 1.86453e-20)
(0.302137 -0.105618 5.12655e-20)
(1.03767 -6.56869e-05 -2.02772e-20)
(1.03687 0.0274657 -1.31052e-22)
(1.01718 0.0594817 0)
(1.00116 0.00640577 3.93135e-22)
(1.11942 0.00518083 0)
(0.902696 0.135352 5.9537e-20)
(-0.113007 -0.0189972 3.28646e-20)
(1.03636 0.0261972 2.43672e-20)
(0.994465 0.0143835 -1.04575e-20)
(-0.242532 0.0291824 -1.90865e-19)
(1.01284 0.538171 0)
(0.980948 0.0165946 -1.3089e-20)
(0.805681 -0.00197615 -4.68861e-20)
(1.14315 0.0590493 0)
(1.06506 0.0192247 1.12734e-20)
(0.510948 0.812446 1.37579e-21)
(0.800558 0.00344383 4.78826e-20)
(0.961205 0.0812536 0)
(1.07665 -0.039224 -1.28613e-20)
(0.187735 -0.0269315 -4.24255e-20)
(-0.402238 0.0259893 0)
(0.227663 0.158505 -1.16614e-19)
(1.04057 -0.00962417 6.11989e-21)
(1.35584 0.18324 -2.32848e-21)
(1.30142 0.0937808 1.27317e-19)
(-0.278361 0.0279657 -3.43285e-20)
(0.124797 -0.0432665 -7.40131e-20)
(1.08878 -0.138098 -7.72508e-20)
(1.02681 0.0342958 -2.89196e-21)
(1.07408 0.00897936 -6.87447e-20)
(1.04691 0.0537886 -8.81481e-21)
(1.0224 -0.000836826 -6.28732e-21)
(1.05194 0.0813753 0)
(1.02189 0.0014094 0)
(1.08186 0.115521 8.10575e-21)
(1.13341 0.160557 -1.59725e-20)
(-0.12063 0.0408038 0)
(1.23868 -0.127565 3.66368e-20)
(1.04729 -0.0148752 -8.68067e-21)
(1.29039 -0.0410227 6.87735e-20)
(-0.235797 0.0105538 6.6284e-22)
(1.15964 0.148405 0)
(0.977247 0.0455853 1.21564e-20)
(-0.327124 0.00943537 7.70581e-20)
(1.04463 0.0211044 5.4268e-21)
(0.996646 0.0613882 1.27522e-20)
(0.822379 0.114569 -3.39569e-20)
(-0.0928737 0.0445575 1.14362e-19)
(0.998354 0.00501888 0)
(1.01069 0.0293237 1.86816e-21)
(0.315867 -0.113766 0)
(1.18515 -0.217013 -4.47635e-20)
(1.13192 -0.170584 1.89333e-19)
(1.26144 -0.0773858 -4.23201e-20)
(1.14575 -0.223457 4.73606e-20)
(1.01489 0.0266554 0)
(1.33222 -0.0302536 -1.85813e-20)
(0.976754 0.0479581 0)
(1.00689 0.0162686 -1.79024e-21)
(0.973563 0.0443021 -6.89884e-21)
(0.507455 -0.136655 -1.59222e-20)
(-0.395779 0.021334 -9.65014e-21)
(1.04296 0.00538493 2.20311e-20)
(1.02639 0.00215601 4.91e-21)
(1.0159 0.0460189 -1.78106e-21)
(0.986204 -0.141533 1.60254e-19)