/*--------------------------------*- C++ -*----------------------------------*\
| =========                 |                                                 |
| \\      /  F ield         | OpenFOAM: The Open Source CFD Toolbox           |
|  \\    /   O peration     | Version:  v2012                                 |
|   \\  /    A nd           | Website:  www.openfoam.com                      |
|    \\/     M anipulation  |                                                 |
\*---------------------------------------------------------------------------*/
FoamFile
{
    version     2.0;
    format      ascii;
    class       surfaceVectorField;
    location    "800";
    object      Uf_0;
}
// * * * * * * * * * * * * * * * * * * * * * * * * * * * * * * * * * * * * * //

dimensions      [0 1 -1 0 0 0 0];


internalField   nonuniform List<vector> 
20673
(
(1.15027 0.151982 3.44933e-21)
(1.1558 0.148532 -2.01259e-20)
(1.14922 0.145363 2.16311e-21)
(1.03863 0.053227 4.7205e-21)
(1.03691 0.0526285 -4.0148e-21)
(1.03764 0.0551424 4.62661e-21)
(0.388528 -0.127441 -1.16983e-20)
(0.423974 -0.133324 2.25467e-20)
(0.456943 -0.138523 -1.47377e-20)
(1.06711 -0.0347042 1.01033e-20)
(1.06799 -0.0331262 1.54016e-21)
(1.06608 -0.033247 -1.31762e-20)
(0.996874 0.0112888 0)
(0.996628 0.0109214 -5.01842e-21)
(0.996415 0.0118924 0)
(0.37505 0.142424 2.33649e-20)
(0.36321 0.115994 0)
(0.346948 0.144749 6.16735e-20)
(0.352631 -0.115881 1.35571e-20)
(0.342842 -0.116433 -5.02473e-20)
(0.403912 -0.126142 -2.30651e-20)
(0.432571 -0.129574 2.75515e-20)
(0.380493 -0.121658 5.74413e-20)
(0.396823 -0.125615 3.59855e-20)
(0.162738 -0.0601908 -3.23471e-20)
(0.13478 -0.0542857 -1.93191e-20)
(0.107154 -0.050186 8.04292e-20)
(1.20591 0.184412 3.08361e-20)
(1.21422 0.184442 1.4451e-21)
(1.21085 0.192258 3.10389e-20)
(1.16226 -0.178407 -1.25256e-20)
(1.15816 -0.179736 3.8497e-21)
(1.15989 -0.182494 -2.9538e-20)
(1.10709 -0.120059 -1.32699e-20)
(1.10726 -0.12356 -5.42516e-20)
(1.11028 -0.120382 2.1416e-20)
(1.06815 -0.035634 1.0882e-20)
(-0.231502 0.0072497 -3.74858e-20)
(-0.245471 0.00317043 -5.04591e-21)
(-0.235221 0.00550083 1.82028e-20)
(0.993115 0.128441 1.18167e-22)
(0.988219 0.128319 2.67826e-21)
(0.991141 0.123592 -1.77319e-21)
(1.01801 0.11955 1.28474e-21)
(1.0148 0.116982 -6.95508e-23)
(1.01896 0.114774 1.04031e-21)
(1.03156 0.0623101 -1.33637e-21)
(1.03326 0.0615609 2.60881e-22)
(1.03152 0.0602844 2.76527e-21)
(1.21566 -0.00534274 -1.81391e-20)
(1.21732 -0.00137792 -4.10682e-20)
(1.22045 -0.00677086 6.62677e-21)
(1.10365 -0.120569 3.57933e-20)
(1.10585 -0.116957 3.71428e-20)
(1.00273 0.00767033 0)
(1.00272 0.00730634 0)
(1.00242 0.00710811 0)
(1.00002 0.00198559 1.33574e-21)
(1.00002 0.00263682 0)
(1.00003 0.00198355 -1.92871e-21)
(0.353722 -0.116293 1.74669e-20)
(0.310786 -0.111656 6.33021e-20)
(1.00244 0.0125261 3.38833e-22)
(1.00265 0.0132148 -2.55534e-22)
(1.00276 0.0128814 3.0872e-22)
(0.47821 -0.141472 -1.81026e-20)
(0.485323 -0.141188 -7.66894e-21)
(0.998623 0.0265022 3.80514e-22)
(0.998061 0.0265224 -4.82005e-21)
(0.998633 0.0273947 1.09369e-21)
(0.442113 -0.125416 6.93112e-21)
(0.397967 -0.116796 -1.15952e-20)
(0.390253 -0.118037 -1.1181e-20)
(0.790331 0.0873921 5.11343e-21)
(0.781632 0.0940381 -3.01868e-20)
(0.781929 0.0816625 1.83193e-20)
(0.768799 0.177372 3.93638e-20)
(0.76793 0.190375 2.18403e-20)
(0.758429 0.181817 9.95896e-21)
(0.736323 0.645799 4.44355e-22)
(0.768689 0.657567 0)
(0.74575 0.692695 -1.55731e-22)
(1.29039 0.112073 -3.36578e-20)
(1.2904 0.105226 3.9572e-20)
(1.29746 0.107261 -5.85535e-20)
(1.17473 0.133865 8.30069e-22)
(1.17039 0.138054 -8.54568e-23)
(1.16873 0.131903 -2.82826e-20)
(1.10239 0.109572 -6.42447e-21)
(1.0986 0.110813 -1.85733e-20)
(1.09932 0.106293 2.55986e-21)
(0.847907 0.117398 -6.86357e-21)
(0.840255 0.120985 -1.19437e-20)
(0.840714 0.111113 -2.75458e-20)
(0.90696 0.03714 2.57134e-20)
(0.909311 0.0335972 2.15405e-20)
(0.911116 0.0373128 -8.26866e-21)
(0.994006 0.0244743 -2.71139e-21)
(0.993615 0.0255009 2.83553e-21)
(0.994408 0.0254342 4.72136e-21)
(1.1448 -0.221981 -6.05248e-21)
(1.14191 -0.223398 2.64225e-20)
(1.11248 -0.223207 0)
(1.00218 0.0120959 0)
(1.00234 0.0118342 -5.85687e-23)
(-0.0970852 -0.0327726 0)
(-0.124467 -0.0272149 0)
(-0.110626 -0.0296023 0)
(1.0747 -0.0448772 6.20845e-21)
(1.07545 -0.0465992 -1.00208e-20)
(0.199256 -0.0274176 -1.37852e-21)
(0.17588 -0.0208106 -1.07939e-21)
(0.205294 -0.0263897 1.22569e-20)
(1.01201 0.00122535 1.03581e-22)
(1.01251 0.00119099 1.97773e-21)
(1.01154 0.000705484 -5.06772e-23)
(1.00001 0.00131703 -8.91923e-22)
(1.00001 0.0006269 0)
(0.999999 0.000666097 0)
(1.02605 0.000915031 -5.51077e-21)
(1.02581 0.00124918 8.97093e-21)
(1.02551 0.000908979 0)
(0.707263 0.260994 2.57625e-20)
(0.724597 0.268824 -3.77226e-20)
(0.707176 0.284408 -4.7591e-20)
(1.05629 0.0252546 -5.57385e-22)
(1.05777 0.0259894 1.84804e-20)
(1.05786 0.0246801 1.37162e-20)
(0.892025 0.0564801 2.18959e-20)
(0.889704 0.0520114 -3.21146e-20)
(0.89552 0.0522661 1.49952e-20)
(1.21433 -0.0108229 6.33281e-21)
(1.21053 -0.00528196 -4.11984e-20)
(1.22206 -0.0669042 -5.84845e-20)
(1.21938 -0.0622736 -1.23998e-20)
(1.21686 -0.0673112 -1.53581e-20)
(0.103709 0.232456 -4.29202e-20)
(0.102653 0.266614 1.00256e-19)
(0.131029 0.243373 1.23333e-19)
(1.00491 0.0010654 -2.38227e-21)
(1.00534 0.00096471 -3.18767e-21)
(1.00525 0.00149253 1.98393e-21)
(1.12319 -0.00327391 1.69213e-20)
(1.12511 -0.00190864 -2.24608e-20)
(1.12548 -0.00457291 0)
(0.967574 0.0320939 0)
(0.966072 0.0310037 0)
(0.966104 0.0333876 0)
(0.0953232 0.202041 -2.39647e-19)
(0.0626837 0.244322 -2.08405e-20)
(0.904301 0.0408674 -1.58815e-20)
(0.902478 0.0365438 -6.97447e-22)
(1.03163 0.0643291 2.16735e-21)
(1.02966 0.0627424 1.09274e-22)
(1.12796 0.032162 -2.8829e-21)
(1.12713 0.0353935 -1.67492e-20)
(1.13088 0.0344064 -2.78298e-20)
(1.16727 -0.177708 2.28856e-20)
(1.16211 -0.173635 -5.69489e-21)
(1.00336 0.0456704 -7.49211e-22)
(1.003 0.043927 1.93342e-21)
(1.00444 0.0448273 2.03121e-21)
(1.10737 0.0446655 1.43622e-20)
(1.11058 0.0457329 3.27776e-21)
(1.10786 0.0481298 3.86816e-20)
(1.05478 0.0257779 -1.85408e-20)
(1.05477 0.0244753 -9.51551e-21)
(0.26509 0.052172 -1.90546e-19)
(0.161669 0.0420898 -9.48368e-21)
(0.198871 0.0441925 7.04556e-20)
(1.04012 0.0520664 -9.7839e-22)
(1.04062 0.0545432 4.00947e-21)
(-0.230045 0.0102882 -2.0731e-21)
(1.00276 0.00799329 8.89485e-22)
(1.00305 0.00821016 -8.42716e-22)
(0.38539 0.177993 6.61057e-20)
(0.407722 0.144834 2.93342e-20)
(0.827544 0.314514 -6.6504e-20)
(0.769854 0.285972 1.50259e-20)
(0.502772 0.190699 -4.89736e-20)
(0.995482 0.00781212 -7.75873e-21)
(0.995035 0.00837646 -3.21662e-21)
(0.987155 0.0124894 3.67201e-21)
(0.987883 0.0120433 3.76288e-21)
(1.25487 -0.141556 2.05054e-20)
(1.25088 -0.145026 -6.63917e-20)
(1.25116 -0.146313 2.25278e-21)
(1.10558 0.167488 1.87431e-20)
(1.11242 0.167274 -1.06954e-20)
(1.10831 0.175035 6.28022e-21)
(0.997274 0.0107502 0)
(0.997093 0.011656 1.98075e-21)
(0.219326 -0.0701649 3.2546e-20)
(0.190365 -0.0656477 -5.4317e-21)
(-0.315576 0.00585597 2.50988e-20)
(-0.290558 0.00256996 1.24258e-20)
(-0.296774 0.00390891 3.67297e-20)
(0.999402 0.0264681 -1.3257e-22)
(0.99886 0.02532 2.74847e-21)
(0.104572 0.301018 -9.5882e-21)
(0.138691 0.314753 0)
(0.108149 0.33827 -9.03849e-21)
(1.0828 -0.130201 1.19843e-20)
(1.08219 -0.127764 -4.04726e-21)
(1.08497 -0.128096 2.84754e-21)
(-0.344153 0.008688 -5.34998e-21)
(-0.315061 0.00327515 6.25408e-20)
(-0.334033 0.00836834 -5.75211e-21)
(1.07851 0.0237857 -6.93933e-21)
(1.08059 0.0242173 0)
(1.07921 0.0260167 -4.99186e-21)
(0.438804 -0.110828 4.61742e-21)
(0.431946 -0.113252 1.42813e-20)
(0.482846 -0.120456 6.79333e-21)
(1.00005 0.0038263 2.10892e-21)
(1.00002 0.004492 2.13599e-21)
(1.00005 0.00449566 -1.30587e-22)
(1.00035 0.00549958 -7.99117e-22)
(1.00041 0.00598415 -1.25879e-22)
(1.00037 0.00531941 2.16676e-22)
(0.995951 0.00773886 -8.55647e-23)
(0.395394 0.202855 -8.19862e-20)
(0.406998 0.232479 -5.07032e-20)
(0.427166 0.206338 -1.33319e-19)
(-0.065408 -0.040062 -2.66462e-20)
(-0.0793507 -0.0376124 0)
(-0.144138 0.0379973 -9.83778e-20)
(-0.174754 0.0359223 4.37306e-20)
(-0.167736 0.0361123 0)
(1.07633 0.023581 -6.63663e-21)
(1.07771 0.0219249 1.14296e-21)
(1.00094 0.00717609 3.46479e-22)
(1.00101 0.00699774 -2.97494e-22)
(1.00079 0.00651589 -2.39706e-22)
(0.876126 0.347289 5.75729e-20)
(1.07235 0.4338 0)
(1.12031 -0.0044859 1.92326e-20)
(1.1205 -0.00143004 -1.104e-20)
(1.02626 0.000684271 1.13205e-20)
(1.02656 0.00100411 1.58058e-20)
(-0.227774 -0.00895278 7.49219e-20)
(-0.255891 -0.00563689 -3.93007e-20)
(-0.243931 -0.00716342 8.31381e-20)
(1.26587 0.15782 -1.03535e-19)
(1.25751 0.160368 -8.35222e-20)
(1.2619 0.166286 3.0413e-20)
(1.03618 0.0290711 -1.47741e-20)
(1.03641 0.027882 -1.05029e-20)
(1.03509 0.0281163 -5.34169e-21)
(0.985854 0.0773673 3.78949e-22)
(0.983869 0.0791845 2.65277e-21)
(0.986802 0.0801528 3.5037e-21)
(1.03352 0.416841 -6.18025e-21)
(0.760822 0.318737 5.51723e-20)
(0.376516 0.0882591 0)
(0.404384 0.078997 0)
(0.380965 0.0539434 6.83143e-20)
(1.19733 -0.143358 1.60346e-20)
(1.20139 -0.143368 -6.44376e-20)
(1.19897 -0.147997 7.66424e-21)
(1.21768 -0.0487228 3.85538e-20)
(1.22248 -0.0484759 -2.67044e-20)
(1.2199 -0.0442046 -6.19302e-21)
(1.08558 -0.159382 6.3753e-22)
(1.08396 -0.161729 -2.37184e-20)
(1.08233 -0.159211 0)
(0.599426 0.200042 3.15425e-22)
(0.619232 0.184295 0)
(0.622018 0.211328 -8.18998e-20)
(1.01571 0.00709534 3.75515e-21)
(1.0163 0.0071661 -5.2374e-21)
(1.01613 0.00770446 -5.15255e-21)
(0.839498 0.0440802 -9.1884e-21)
(0.84369 0.0511437 7.12777e-20)
(0.847219 0.0436911 8.38214e-21)
(0.689798 0.255151 2.11286e-21)
(0.707847 0.244416 2.34033e-20)
(1.08771 0.0132236 -3.65754e-22)
(1.08942 0.012434 1.03221e-20)
(1.08761 0.0109026 1.73997e-20)
(1.02378 0.0150055 8.20754e-21)
(1.02371 0.0142312 9.16988e-21)
(1.02457 0.0148204 1.45806e-21)
(0.17121 -0.0530499 -3.35621e-20)
(0.161358 -0.0504666 0)
(0.227956 -0.0570832 5.36951e-20)
(0.846111 0.580458 3.37545e-21)
(0.816213 0.599899 -7.55773e-21)
(0.858215 0.608769 -7.23917e-21)
(1.22436 -0.0702735 -1.40491e-20)
(1.22656 -0.0657428 -5.56013e-21)
(1.03514 0.0606504 1.75814e-21)
(1.03549 0.0629394 -2.41089e-22)
(1.17294 0.151094 -2.6988e-20)
(1.16802 0.154772 1.5246e-21)
(1.1746 0.157658 5.57968e-20)
(-0.277319 0.018663 -8.39815e-20)
(-0.305728 0.0186987 3.68595e-20)
(-0.295449 0.0188759 9.30184e-20)
(0.215566 -0.0330408 0)
(0.189415 -0.025835 1.33653e-20)
(1.10585 -0.137522 2.01999e-20)
(1.10314 -0.137992 4.02732e-20)
(1.10459 -0.14033 -1.59216e-20)
(0.172079 -0.0541577 8.79213e-20)
(0.117897 -0.0489935 -1.26382e-19)
(0.949785 0.0347895 1.1073e-20)
(0.948717 0.0371721 -1.32282e-20)
(0.94757 0.0346573 -4.38889e-21)
(0.0923755 -0.0238865 1.43576e-19)
(0.0993009 0.00555861 4.42751e-20)
(0.0626362 0.000556057 3.57415e-20)
(1.00443 0.021686 -2.58193e-22)
(1.00476 0.0225834 -6.73289e-22)
(1.00422 0.022315 -7.06814e-22)
(0.188265 0.197478 5.63672e-20)
(0.217799 0.175901 -5.84726e-22)
(0.220531 0.21162 -4.40281e-20)
(-0.023393 -0.0194424 -2.41056e-20)
(-0.013556 -0.0209879 6.46185e-21)
(-0.0012154 -0.0275374 1.18553e-20)
(0.908168 0.0484472 2.57084e-20)
(0.905793 0.0523277 -4.5647e-20)
(0.910606 0.0518902 -1.26745e-21)
(1.00005 0.00197517 -7.79526e-22)
(1.00003 0.00198745 2.10789e-21)
(1.25847 -0.13846 -1.67259e-20)
(1.25408 -0.137435 4.95594e-20)
(-0.0806165 -0.0162347 -2.53795e-20)
(-0.0581982 -0.0231051 8.33136e-21)
(-0.0679396 -0.0214654 -1.89494e-20)
(0.769904 0.164522 0)
(0.782769 0.17295 0)
(1.00729 0.000932274 2.59269e-21)
(1.00761 0.00133633 3.63563e-21)
(1.00775 0.000791302 -2.78207e-21)
(0.985209 0.0742698 -4.40749e-21)
(0.988098 0.0752204 0)
(1.05181 0.0307912 1.31871e-20)
(1.05309 0.0318223 -9.8253e-22)
(1.05163 0.0322109 9.56269e-21)
(1.00686 0.000952334 -4.16699e-21)
(1.00668 0.000483624 2.44364e-21)
(1.02271 0.00142345 -9.61222e-22)
(1.02287 0.00120279 1.09909e-20)
(1.02254 0.00120296 -6.60147e-21)
(0.348275 0.092188 0)
(0.0572121 -0.0534715 7.19004e-21)
(0.0433442 -0.0488368 -5.36684e-21)
(0.0330763 -0.0441819 2.63903e-20)
(0.950916 0.0320276 7.80937e-21)
(0.952412 0.034603 3.76986e-21)
(1.05923 0.0267555 -1.03299e-20)
(1.05761 0.0274472 -1.71265e-21)
(1.00001 0.00198236 2.7416e-21)
(1.00002 0.0013351 1.36016e-21)
(0.960433 -0.0242656 9.48449e-20)
(1.01373 -0.0252369 -7.76944e-20)
(0.902009 -0.0240802 3.67289e-20)
(0.529609 -0.152375 -2.86246e-20)
(0.470819 -0.141419 5.66225e-22)
(1.15083 0.158161 4.52634e-20)
(1.14479 0.154549 2.26702e-20)
(0.583573 0.212627 -1.88569e-20)
(0.58361 0.184276 -1.10933e-19)
(0.995095 0.00885484 0)
(0.994555 0.00892116 -5.79001e-21)
(0.906019 0.0447133 -1.12146e-20)
(0.9105 0.0450698 3.46636e-20)
(1.16682 -0.220857 1.76459e-20)
(1.16056 -0.219754 1.76924e-21)
(1.15855 -0.214046 -7.82033e-21)
(1.03511 0.0134206 7.49207e-21)
(1.0352 0.0142067 -2.75226e-21)
(1.03415 0.0137008 3.7879e-21)
(0.967158 0.0458101 5.69806e-21)
(0.965183 0.0471334 2.63562e-20)
(0.965355 0.0442115 2.157e-20)
(0.672858 0.260924 -7.38844e-20)
(0.652317 0.26805 3.49664e-20)
(0.671821 0.28459 -4.86577e-20)
(0.987077 0.0132403 0)
(0.986378 0.0130341 2.7755e-21)
(0.409487 -0.0899987 -3.21844e-20)
(0.336209 -0.079153 2.13936e-20)
(0.40145 -0.0863874 5.32261e-20)
(0.833697 0.692935 4.44904e-21)
(0.841202 0.661757 0)
(0.804839 0.662211 0)
(0.969272 0.0334561 0)
(0.969409 0.0309846 -1.18875e-20)
(1.03262 0.0110261 1.24627e-20)
(1.03287 0.0117571 5.24495e-21)
(1.03188 0.0113056 8.96771e-21)
(1.09626 0.119685 2.42212e-21)
(1.09157 0.120621 -6.64065e-21)
(1.09529 0.125286 -2.52025e-20)
(1.16988 -0.0825583 2.09543e-21)
(1.17258 -0.0861866 2.18966e-20)
(1.17318 -0.080448 1.39296e-21)
(0.113543 -0.044875 9.65298e-20)
(0.0768967 -0.0507196 -3.92142e-20)
(1.15266 -0.132699 2.14197e-20)
(1.15631 -0.134667 2.56001e-20)
(1.15196 -0.136333 -3.92535e-21)
(1.06211 0.225335 -1.12051e-20)
(1.06538 0.219417 -5.52415e-21)
(1.07117 0.224039 -1.24848e-20)
(1.12189 0.0706685 -1.19067e-20)
(1.11917 0.0737094 1.8644e-20)
(1.11777 0.0697227 -5.1041e-22)
(-0.0944091 0.0507854 -2.50781e-20)
(-0.104078 0.0523556 0)
(-0.128223 0.0492199 -1.91402e-20)
(1.09909 0.168496 -4.49361e-21)
(1.1024 0.162022 1.12594e-20)
(0.963484 -0.191529 -3.45896e-20)
(1.00985 -0.193051 0)
(1.03166 -0.197073 -3.27007e-20)
(-0.379607 0.011136 1.4466e-21)
(-0.350684 0.00800389 -1.32185e-19)
(1.01555 -0.0196951 -9.96294e-21)
(0.896214 -0.0226538 5.99962e-20)
(0.948685 0.0748109 1.24915e-20)
(0.946082 0.0770906 1.86615e-21)
(0.945296 0.0732272 7.94445e-21)
(0.785261 0.0239443 2.38626e-20)
(0.780558 0.0325324 7.3937e-20)
(0.774123 0.0227925 2.99374e-20)
(1.00016 0.00436958 -7.17759e-22)
(1.00018 0.00418689 2.89501e-22)
(1.00009 0.00359819 1.12305e-21)
(1.19223 -0.144928 -2.55545e-21)
(1.19436 -0.139553 3.38939e-20)
(1.1094 -0.137315 3.03074e-20)
(1.10712 -0.134453 1.2828e-20)
(1.08742 -0.157455 1.68756e-22)
(1.08871 -0.15985 -1.81129e-21)
(1.08778 0.0151681 -1.09158e-20)
(1.086 0.0137851 -1.05133e-20)
(1.19494 -0.0673756 3.17558e-20)
(1.19206 -0.0705877 -1.57315e-20)
(1.19689 -0.0720519 3.44771e-20)
(1.04682 0.0218407 -8.9572e-22)
(1.04812 0.0224768 -4.96775e-21)
(1.0468 0.0231443 -5.24678e-21)
(0.835703 0.0380196 -1.41014e-20)
(0.831697 0.046033 9.47866e-21)
(1.09224 0.21719 8.06504e-21)
(1.08359 0.216731 -9.76171e-21)
(1.08942 0.209341 0)
(-0.384766 0.0260833 -3.41195e-20)
(-0.401611 0.0268056 0)
(-0.373622 0.0257835 0)
(1.09546 -0.140737 -2.24076e-21)
(1.09578 -0.143682 3.61114e-22)
(1.09849 -0.141575 8.00147e-21)
(1.03215 0.0724669 4.84601e-21)
(1.03253 0.0747833 -9.48294e-22)
(1.03003 0.0735985 4.3193e-21)
(0.537038 -0.115962 -1.43256e-20)
(0.523753 -0.113255 4.67827e-20)
(0.604612 -0.12153 4.43042e-20)
(1.05384 0.24691 1.3479e-20)
(1.05083 0.252944 -9.2856e-21)
(1.06003 0.252416 1.63071e-21)
(0.0716897 -0.0558216 5.50652e-21)
(0.0866499 -0.0609194 1.45465e-21)
(0.155895 0.18277 -1.35237e-20)
(0.159089 0.220773 0)
(0.426427 -0.0941392 -5.61671e-20)
(0.492459 -0.0988828 -4.2566e-20)
(1.0228 0.0352194 5.79708e-22)
(1.02389 0.0359561 2.6233e-21)
(1.02286 0.0364635 5.01615e-22)
(1.27374 0.156369 -3.77846e-20)
(1.26913 0.150532 -7.00205e-20)
(1.1817 0.135813 0)
(1.17972 0.129671 0)
(1.03596 0.0130623 0)
(1.03489 0.0126006 0)
(1.00093 0.00738659 2.91637e-22)
(1.00111 0.00788204 3.2262e-22)
(0.954644 0.156831 1.02711e-20)
(0.949807 0.152888 -1.72662e-21)
(0.956353 0.151487 -2.40077e-21)
(0.498992 -0.135559 1.24538e-20)
(0.490148 -0.134888 4.14794e-20)
(1.36346 0.174375 -1.13375e-19)
(1.36954 0.171632 -4.60926e-20)
(1.36906 0.180556 4.86822e-20)
(-0.0846996 0.0510828 -1.90965e-19)
(-0.0454648 0.0572967 -2.50657e-20)
(1.17612 0.0319525 3.4539e-21)
(1.17554 0.0359975 2.62485e-20)
(1.17976 0.0338232 -5.42415e-22)
(1.10943 -0.1608 4.01816e-21)
(1.10697 -0.160953 2.38811e-22)
(1.10777 -0.163643 1.73775e-21)
(1.20612 -0.219047 -2.98057e-22)
(1.19387 -0.219881 -1.16243e-20)
(1.19497 -0.218969 2.8915e-20)
(-0.111317 0.0394923 -1.70436e-20)
(-0.119349 0.0391201 -1.48974e-19)
(1.35256 0.230016 -1.25428e-21)
(1.35396 0.221817 4.30682e-20)
(1.35941 0.226242 -9.39551e-20)
(1.00124 0.0140802 -1.18073e-21)
(1.0012 0.0133908 -6.69652e-22)
(1.00101 0.0134026 -1.91651e-21)
(0.569403 0.122518 1.05435e-19)
(0.576181 0.142551 -6.11899e-21)
(0.550813 0.138583 -3.63534e-20)
(0.798562 0.0830629 3.97031e-20)
(0.798665 0.0945217 -3.33733e-21)
(1.01342 0.000469633 1.34983e-21)
(1.01297 0.000464241 1.02474e-21)
(1.03584 0.0300576 2.96546e-21)
(1.03729 0.0299296 -4.33533e-21)
(0.897156 0.545078 -3.36663e-21)
(0.89106 0.514792 -5.018e-21)
(0.92111 0.524695 -3.37537e-22)
(1.17626 0.524076 -6.04033e-20)
(1.15638 0.492333 -1.99699e-20)
(0.939592 0.397901 3.79282e-20)
(1.10262 -0.0290417 -9.31585e-21)
(1.10404 -0.0307857 -7.08329e-21)
(1.10514 -0.0286422 1.98465e-21)
(1.00465 0.0012845 -7.85082e-22)
(1.00462 0.000800281 -7.62178e-22)
(1.18189 -0.072317 4.46691e-21)
(1.17953 -0.0685487 0)
(1.1848 -0.0686438 0)
(1.16718 -0.0855624 -3.39692e-20)
(1.16644 -0.0802296 0)
(-0.333973 0.00727103 6.47805e-20)
(-0.339357 0.00821948 1.31258e-20)
(1.04978 -0.0831944 2.43932e-20)
(1.07275 -0.0881819 -2.35743e-20)
(1.15163 -0.0864382 -8.67227e-20)
(0.994356 0.0237149 3.73166e-23)
(0.993812 0.0238257 -3.13324e-21)
(1.00225 0.0463354 -1.37148e-21)
(1.00368 0.0471451 -2.00078e-21)
(1.21312 -0.0490782 4.79585e-20)
(1.21525 -0.053388 1.70393e-21)
(0.440585 -0.133699 1.5752e-20)
(0.506607 -0.143569 1.64602e-21)
(0.482619 -0.140625 2.74479e-20)
(0.968915 0.044161 -1.93965e-20)
(0.969178 0.0469469 -1.48944e-20)
(0.331657 -0.11585 -1.82056e-20)
(0.317084 -0.114068 2.77751e-20)
(0.380148 -0.12396 1.12597e-20)
(-0.391225 0.0131507 5.13755e-21)
(-0.363915 0.0114681 0)
(-0.386743 0.012762 0)
(1.11165 -0.158531 -3.61094e-20)
(1.11275 -0.161923 2.34173e-21)
(1.02317 0.015065 1.18724e-21)
(1.02389 0.0156009 -2.6295e-21)
(0.506929 0.47054 4.92509e-20)
(0.527224 0.50583 -1.01103e-19)
(0.474581 0.50858 -1.89359e-20)
(1.19931 -0.0487922 -4.25799e-21)
(1.20395 -0.0490953 4.15057e-20)
(1.20151 -0.0446704 -2.42845e-21)
(-0.41077 0.0200547 1.97564e-20)
(-0.378462 0.0179231 -1.12697e-19)
(-0.398929 0.0212009 -8.96287e-20)
(1.00827 0.0270925 4.72078e-22)
(1.00886 0.0274681 1.76471e-22)
(1.0085 0.0282006 -4.43816e-22)
(0.383131 0.0632276 -2.53777e-20)
(0.346568 0.0615994 -1.14387e-19)
(1.02163 0.0344017 0)
(1.02264 0.0340504 -3.3874e-21)
(1.28839 0.0748489 9.84624e-20)
(1.28325 0.071209 5.71893e-22)
(1.28244 0.0775146 5.55791e-22)
(1.01179 0.00158283 1.16446e-21)
(1.01155 0.00110955 -4.42519e-21)
(-0.126391 -0.0305607 -1.29291e-20)
(-0.152691 -0.0269497 -3.09584e-20)
(-0.132656 -0.0287502 -2.93349e-20)
(0.153301 -0.0475791 0)
(0.144188 -0.0455334 -3.9907e-20)
(0.206803 -0.050646 -3.24469e-20)
(1.01797 0.12363 2.17899e-21)
(1.02196 0.121512 -9.06789e-22)
(1.25216 0.583899 0)
(1.23903 0.567796 -1.3046e-19)
(1.26739 0.56711 -4.07613e-20)
(1.126 0.0712122 1.17943e-20)
(1.12375 0.0674316 -2.4045e-20)
(1.02226 0.0150457 2.52416e-21)
(1.02231 0.0142996 1.09529e-20)
(1.14949 -0.220112 -4.9698e-22)
(1.14216 -0.222075 -5.49703e-21)
(1.09271 -0.139951 2.40003e-20)
(1.09508 -0.137875 1.47424e-20)
(1.17267 0.0301374 -2.84101e-20)
(1.17635 0.0279752 -2.8062e-20)
(0.515111 -0.146278 0)
(0.468225 -0.140757 0)
(0.542665 -0.151016 2.51876e-20)
(-0.39768 0.0170969 9.56843e-21)
(-0.415698 0.016823 4.32908e-20)
(1.01664 0.00372023 1.69171e-21)
(1.01711 0.00373737 -5.00706e-21)
(1.01682 0.00325432 -2.71447e-21)
(1.10617 0.107917 1.97098e-20)
(1.10564 0.112963 9.92105e-21)
(-0.207546 -0.0115495 3.46358e-20)
(-0.195843 -0.0132541 3.25886e-20)
(-0.174583 0.0365751 0)
(-0.196628 0.0348183 0)
(-0.176132 0.0364903 0)
(1.00015 0.00437351 -1.65957e-21)
(1.00017 0.00504213 -1.63354e-21)
(1.0096 0.0124557 2.72973e-21)
(1.01021 0.0127267 -9.17389e-23)
(1.00994 0.0130889 -6.75817e-22)
(0.258931 -0.0303828 -1.37654e-22)
(0.279207 -0.035639 1.53042e-21)
(1.21307 -0.146619 -2.55733e-20)
(1.20856 -0.14787 2.33428e-20)
(1.21312 -0.151988 0)
(1.00009 0.000207417 0)
(1.00004 0.000159093 0)
(1.00009 0.000260712 0)
(1.1299 -0.208592 -1.39789e-20)
(1.12354 -0.206818 3.69901e-20)
(1.11948 -0.203214 -2.92132e-20)
(1.27875 -0.0167174 0)
(1.27728 -0.0226312 0)
(1.27248 -0.017614 0)
(0.794552 0.023197 -3.64445e-20)
(0.789434 0.0141332 -4.83618e-20)
(1.1447 0.129614 0)
(1.14898 0.134131 0)
(1.14954 0.127447 1.80171e-20)
(1.00023 0.0048701 -1.17228e-21)
(1.00021 0.0041083 -1.14868e-21)
(1.01457 0.261715 -7.68773e-21)
(1.01554 0.250357 1.56885e-21)
(1.00452 0.255773 1.31549e-21)
(-0.370192 0.0122228 1.77424e-20)
(-0.369211 0.0130549 5.0287e-20)
(-0.402383 0.0164836 -2.33429e-20)
(1.05227 -0.0054425 1.12302e-20)
(1.05228 -0.00653055 -7.88445e-21)
(1.0536 -0.00602705 -2.96075e-21)
(1.2941 0.178168 -7.67613e-20)
(1.28614 0.182081 4.51697e-20)
(1.28776 0.172012 5.05895e-20)
(0.574393 0.23154 6.99243e-20)
(0.590668 0.252246 -2.92742e-20)
(0.560587 0.259252 1.38599e-19)
(1.05053 0.0297324 0)
(1.05191 0.0292648 8.77217e-21)
(1.00274 0.0423535 -1.19885e-21)
(1.00176 0.0431222 0)
(1.14426 -0.116236 4.23469e-20)
(1.14722 -0.118937 1.66004e-20)
(1.14297 -0.119892 -7.12779e-21)
(0.285834 -0.0453299 1.78886e-21)
(0.270839 -0.040086 3.70507e-21)
(0.265711 -0.0401862 1.07256e-20)
(1.14891 -0.1314 -3.95277e-21)
(1.15326 -0.129113 1.60327e-20)
(0.95842 0.161456 -8.44997e-22)
(0.95224 0.163611 0)
(0.997629 0.127611 -3.00804e-21)
(0.995301 0.132449 -4.72643e-21)
(1.00008 0.00045278 1.32548e-21)
(1.00008 0.000393031 -1.4068e-21)
(1.00003 0.000265972 -1.32875e-21)
(-0.102206 -0.0105016 -6.87373e-21)
(-0.0925446 -0.0115489 -3.69966e-20)
(0.259403 -0.0200964 -2.37229e-20)
(0.333657 -0.0276252 2.43142e-20)
(0.327338 -0.0237374 -7.39978e-20)
(1.0996 -0.201033 1.21653e-20)
(1.10607 -0.204755 5.16652e-22)
(1.10501 -0.205514 1.80345e-20)
(1.0216 0.0150687 1.96856e-21)
(1.02229 0.0156392 4.75229e-21)
(-0.349118 0.0128939 4.82035e-20)
(-0.320952 0.0111649 1.38531e-20)
(-0.329854 0.0126118 4.64542e-20)
(-0.23853 -0.00121422 -3.09398e-21)
(-0.23277 -0.000745077 5.00581e-20)
(-0.26658 0.00476815 4.51284e-20)
(0.894155 -0.184248 1.99945e-21)
(0.921868 -0.188679 -2.11735e-20)
(0.43849 -0.110005 4.01427e-21)
(0.401777 -0.106207 -1.14045e-20)
(1.08366 -0.13252 -1.65331e-20)
(1.08079 -0.131945 7.69095e-21)
(1.0003 0.00564718 1.30073e-22)
(1.00918 0.00101778 -2.1123e-21)
(1.00871 0.00109035 9.26758e-21)
(1.00925 0.00158636 9.0632e-21)
(1.21333 -0.0145409 -6.24881e-21)
(1.20878 -0.0147805 1.5015e-20)
(1.21194 -0.0190222 -4.1513e-20)
(-0.200312 -0.0150497 -3.86717e-20)
(-0.22026 -0.010972 1.93165e-20)
(-0.226187 -0.00978601 -2.39265e-20)
(1.26153 -0.0900182 3.50105e-21)
(1.26515 -0.0860542 -3.07004e-20)
(1.26626 -0.0929904 7.23092e-20)
(1.10413 0.0439618 -9.38217e-21)
(1.10661 0.041786 -3.62585e-21)
(1.0233 -0.0785772 7.25553e-20)
(0.946637 -0.0796573 7.26428e-20)
(1.08718 -0.0926703 1.33334e-20)
(1.08613 -0.0905643 -1.48673e-20)
(1.02236 0.000720488 1.22619e-20)
(1.0224 0.000934997 1.18846e-21)
(1.02256 0.000754035 6.81274e-21)
(0.56262 0.0238597 3.92426e-20)
(0.557579 0.0189524 -4.51311e-21)
(0.470135 0.0128859 -7.85645e-20)
(1.00333 0.00735339 1.6466e-21)
(1.0033 0.00701324 1.74519e-21)
(1.00299 0.00685862 3.50137e-21)
(0.539968 -0.119101 -1.03638e-20)
(0.467732 -0.109774 -3.82391e-20)
(1.10108 -0.0267025 0)
(1.09986 -0.0288996 0)
(1.0001 0.000160609 0)
(1.00015 0.000252616 -9.33093e-22)
(1.02786 0.139283 6.23948e-22)
(1.02704 0.145037 2.49488e-21)
(1.02304 0.140039 4.25131e-22)
(1.06033 0.232205 -9.52367e-21)
(1.05465 0.226043 7.31342e-21)
(0.776053 0.0433408 -3.79232e-20)
(0.786714 0.042588 4.56566e-20)
(1.13586 -0.215783 -2.01749e-21)
(1.13645 -0.211245 1.96298e-20)
(1.02945 0.180781 -6.73317e-21)
(1.03032 0.187942 1.01109e-21)
(1.02294 0.183562 -3.12213e-21)
(1.059 0.00204307 8.50417e-21)
(1.06018 0.00301446 1.99788e-21)
(1.05861 0.00315729 2.42818e-21)
(1.38385 0.00613604 1.20052e-20)
(1.3827 0.013804 0)
(1.31021 0.00374372 0)
(0.554069 -0.151127 5.95204e-21)
(0.48398 -0.142712 5.83553e-22)
(0.199755 -0.0206448 5.09207e-21)
(0.201951 -0.0194506 4.93971e-21)
(1.00767 0.0269591 2.66019e-22)
(1.00793 0.0262803 -4.16669e-23)
(0.856067 -0.171817 -5.18413e-20)
(0.909899 -0.17461 1.63248e-22)
(0.836535 -0.166928 -3.27572e-20)
(0.998476 0.00537304 3.56751e-22)
(0.998379 0.0057249 -2.99548e-21)
(0.998153 0.00585078 -1.12592e-21)
(1.05815 0.000981004 1.22247e-20)
(1.05975 0.000771852 -7.22844e-21)
(1.00408 0.0207328 0)
(1.00462 0.0210243 1.71196e-22)
(0.865529 0.726376 1.26836e-20)
(0.815598 0.73129 -4.99321e-21)
(1.00243 0.00138468 -2.86803e-21)
(1.00263 0.00120402 1.24145e-21)
(1.00226 0.00108984 -2.13494e-21)
(1.29319 0.0781032 5.01149e-20)
(1.294 0.0719826 8.53786e-20)
(1.13983 0.133041 9.42473e-24)
(1.1399 0.126388 1.57273e-20)
(1.04543 0.0211557 7.62992e-21)
(1.04673 0.0205877 4.94813e-21)
(1.18386 -0.07628 2.83306e-20)
(1.17862 -0.0747507 2.89232e-20)
(1.06302 0.0705544 -1.32768e-20)
(1.0638 0.0681683 -6.47968e-21)
(1.06603 0.0702104 1.14111e-21)
(0.125544 0.164229 1.53013e-19)
(0.112154 0.151812 1.33929e-19)
(0.114436 0.180568 9.71773e-21)
(1.05767 0.240306 6.91449e-21)
(1.04891 0.241113 2.23185e-20)
(1.25339 0.152534 -1.51179e-20)
(1.24883 0.160745 2.78056e-20)
(1.04192 0.0134337 1.12656e-20)
(1.04298 0.014112 9.49086e-21)
(1.04277 0.0129521 8.84603e-21)
(1.00364 0.0415839 -1.21074e-21)
(1.00247 0.0408901 6.19671e-23)
(-0.291133 0.0206975 1.18317e-19)
(-0.313401 0.0206918 -1.11814e-20)
(-0.316025 0.0208374 9.38743e-21)
(-0.111543 -0.01142 -1.22049e-20)
(-0.122166 -0.0101354 1.64449e-20)
(-0.097086 -0.0179576 5.2452e-20)
(1.00495 0.0235277 4.8754e-23)
(1.00526 0.0229077 -4.85701e-22)
(1.01009 0.000927125 -9.31121e-22)
(1.01067 0.00123005 2.80422e-21)
(1.01012 0.00161979 -5.29452e-21)
(0.555285 0.0233137 0)
(0.666645 0.0274201 -6.03909e-20)
(1.02627 0.0323692 -6.48797e-21)
(1.02686 0.0336242 -9.53827e-21)
(1.02777 0.032774 -5.50942e-21)
(-0.263955 -0.000490024 8.09665e-20)
(-0.28311 0.0013973 0)
(1.04078 0.0130184 -1.27665e-20)
(1.04105 0.0141751 3.16524e-21)
(-0.121198 -0.0315037 1.67216e-20)
(-0.100373 -0.0345632 -4.66748e-20)
(1.05785 -0.0204452 -2.59742e-21)
(1.05677 -0.0211957 5.09036e-21)
(1.05802 -0.0217354 3.89406e-20)
(1.29763 0.396286 -6.78582e-20)
(1.2826 0.393803 -1.41262e-19)
(1.28789 0.409059 -4.84152e-20)
(1.14725 -0.0289381 -1.84543e-20)
(1.14761 -0.0253434 1.04414e-20)
(1.15099 -0.0276872 1.13122e-20)
(0.116307 0.41238 6.89004e-21)
(0.112928 0.372836 -6.78326e-20)
(0.147895 0.386704 -6.23491e-21)
(0.952326 0.0755186 5.61213e-22)
(0.951217 0.0718065 -1.0324e-21)
(1.11941 -0.0104423 -1.37729e-19)
(1.03156 -0.0120343 -1.06224e-19)
(0.527131 0.37373 4.92705e-20)
(0.501101 0.386276 4.23074e-20)
(0.529644 0.406805 -6.84181e-20)
(1.03267 0.139003 -2.51942e-21)
(1.02911 0.135364 -4.70652e-21)
(1.21448 -0.142718 1.35667e-21)
(1.21821 -0.146879 9.48091e-21)
(0.99113 0.599325 3.69092e-21)
(1.01035 0.619886 4.95594e-20)
(0.978002 0.624696 2.1742e-20)
(1.00898 0.061789 0)
(1.0072 0.0616434 -9.20021e-22)
(1.00821 0.0636831 0)
(-0.0186416 -0.0436128 3.51784e-20)
(-0.0471803 -0.0363431 0)
(-0.0338937 -0.0386783 5.92809e-21)
(0.583765 0.11024 2.10405e-19)
(0.56288 0.103284 -9.05504e-21)
(-0.21887 -0.00529155 -1.99582e-20)
(-0.240899 -0.002197 6.9038e-20)
(0.925117 0.0512155 -1.65012e-20)
(0.921559 0.053179 -2.67322e-20)
(0.924892 0.055567 -1.51535e-20)
(0.0791071 -0.0218076 0)
(0.0575702 -0.0145218 -2.08749e-20)
(0.0849651 -0.0206768 0)
(1.11033 0.106348 9.46929e-21)
(1.11391 0.110617 0)
(1.1149 0.105737 0)
(-0.197098 0.0272003 5.47884e-21)
(-0.172059 0.0276 -2.13788e-20)
(-0.165262 0.0268248 2.24886e-20)
(0.531936 0.341318 3.7379e-20)
(0.558457 0.363387 -8.76829e-20)
(0.961632 0.422105 -2.4291e-21)
(0.943329 0.419539 -2.22648e-21)
(0.953847 0.439019 -1.50556e-21)
(0.981813 0.42801 -1.30481e-20)
(0.971908 0.407549 0)
(0.360035 -0.123629 -2.77761e-20)
(0.324178 -0.119832 3.7148e-20)
(0.999929 0.00520213 6.45638e-21)
(0.999926 0.00584985 1.40651e-21)
(0.99995 0.00579131 9.04477e-22)
(1.10077 0.215493 1.87465e-20)
(1.09749 0.224184 -2.0992e-20)
(-0.246064 0.0179797 -8.06922e-21)
(-0.256232 0.0185379 -7.01056e-20)
(0.990104 0.0486263 -3.60702e-21)
(0.989419 0.0499198 -2.30294e-21)
(0.988648 0.0480976 2.96034e-21)
(1.02289 0.097133 -1.36264e-21)
(1.02332 0.0940658 -1.04509e-21)
(1.02016 0.0951587 8.86542e-22)
(-0.214905 -0.00357494 3.33151e-21)
(-0.205772 -0.00405962 2.19699e-20)
(0.872646 0.565199 1.67111e-22)
(0.907543 0.574318 0)
(1.03587 0.0675647 -2.48782e-21)
(1.03631 0.0696576 -7.45392e-21)
(1.03848 0.0684939 1.24504e-21)
(1.21402 -0.214373 1.42067e-21)
(1.20758 -0.215023 2.24104e-21)
(0.699972 0.640584 -7.278e-21)
(0.726702 0.610865 -2.01152e-20)
(1.01308 0.00656128 6.99736e-21)
(1.01367 0.00684947 1.65034e-21)
(1.01352 0.00621435 1.73859e-21)
(-0.0342296 -0.0180773 -2.63074e-20)
(-0.0526187 -0.011534 1.53359e-20)
(1.17454 -0.223063 -3.39719e-22)
(1.15446 -0.225045 2.32738e-20)
(1.17646 -0.220745 0)
(1.00334 0.00768894 -3.30921e-21)
(1.00366 0.00786132 -1.68156e-21)
(1.01562 0.0175228 2.3735e-21)
(1.01486 0.0171325 2.73233e-22)
(1.01525 0.017963 2.34853e-21)
(0.998424 0.00508113 5.17895e-21)
(0.998687 0.00489333 2.6089e-21)
(1.0335 0.010743 3.15561e-21)