/*--------------------------------*- C++ -*----------------------------------*\
| =========                 |                                                 |
| \\      /  F ield         | OpenFOAM: The Open Source CFD Toolbox           |
|  \\    /   O peration     | Version:  v2012                                 |
|   \\  /    A nd           | Website:  www.openfoam.com                      |
|    \\/     M anipulation  |                                                 |
\*---------------------------------------------------------------------------*/
FoamFile
{
    version     2.0;
    format      ascii;
    class       volScalarField;
    location    "950";
    object      ddt0(k);
}
// * * * * * * * * * * * * * * * * * * * * * * * * * * * * * * * * * * * * * //

dimensions      [0 2 -3 0 0 0 0];


internalField   nonuniform List<scalar> 
13851
(
-1.39422e-07
-3.20016e-07
-3.20722e-07
0.000332101
-4.83483e-08
-3.60917e-07
-2.44209e-07
-1.08413e-07
-0.000764898
-2.96271e-08
-2.17185e-07
-5.17513e-08
-4.97339e-08
-0.000238321
-5.38119e-07
-8.34388e-07
0.000564664
-1.88532e-07
3.23334e-07
-1.85259e-07
-5.99924e-07
-2.69004e-07
0.00217863
-8.98309e-09
-0.000129824
-1.16592e-06
1.48119e-05
2.81788e-05
-0.00133591
-1.1665e-07
0.00101039
-1.62081e-07
-1.23231e-07
-0.00194908
-3.58662e-07
-0.001369
-2.69551e-09
-5.10207e-05
0.000354669
-1.44973e-07
-0.00068488
-0.00161377
0.000177207
2.23806e-06
-0.00183272
-1.33549e-07
-3.20483e-08
-4.96144e-07
-2.77768e-07
-3.47778e-08
0.000660535
-2.93142e-08
-7.84291e-07
-5.73376e-07
-0.000360687
-1.44434e-07
-1.26119e-07
-0.000360697
8.75896e-05
-2.19831e-05
-5.16662e-08
-3.13915e-06
-1.64565e-08
-2.80266e-07
-5.4761e-07
-6.26875e-07
-3.50026e-05
-1.47102e-06
-1.66746e-07
0.000522123
0.00110007
-4.09047e-07
-9.01107e-08
-2.22799e-05
-5.50339e-07
-2.30579e-07
0.000678989
-9.21308e-08
5.02253e-05
-9.77328e-08
-1.78441e-07
2.85202e-07
-3.81934e-07
-0.000248489
-4.09068e-05
0.00108396
-2.64238e-07
-0.000262287
-4.90843e-08
0.000987714
-1.82557e-08
-4.4901e-08
0.000212099
0.000986856
0.000742198
2.81468e-06
-1.25985e-07
-5.76044e-07
0.000164239
-3.92939e-07
-4.87795e-07
1.1242e-06
6.58629e-08
-7.93562e-08
-1.37205e-07
-4.74721e-07
-1.39311e-07
0.0011354
-2.40484e-07
-2.11332e-07
-2.26033e-07
-1.36628e-07
-1.23634e-07
-2.82467e-07
-1.06139e-07
-5.47728e-07
-8.1358e-08
-9.32139e-08
0.000287533
0.000533425
3.01877e-06
-1.96613e-07
-1.6791e-07
-0.000149192
-3.97654e-07
1.66946e-06
-1.41304e-07
-3.00844e-07
-0.000770343
-5.93578e-07
-2.68107e-07
-4.32107e-07
-3.52609e-06
-0.00190282
-1.87667e-07
0.000781612
9.85247e-07
0.00106324
-1.00071e-06
-6.18973e-07
7.89338e-07
-8.5499e-08
-4.80613e-08
-2.10237e-06
-0.0001403
-1.9579e-07
-1.21856e-07
0.000996659
-0.000786244
-2.78625e-07
-5.03854e-07
-4.32341e-08
-2.62633e-07
-1.29792e-07
-4.00247e-08
-1.92747e-08
-4.23233e-08
0.000869271
-6.00277e-07
-3.08084e-07
-1.33652e-08
-0.0013568
-5.50137e-07
-4.82002e-07
-0.000242335
-0.00123852
-0.00128407
0.000720912
-2.72754e-07
-0.00530124
-4.75089e-08
-7.87176e-08
-3.29894e-07
-3.96559e-08
0.000469468
-7.23025e-06
-3.0722e-07
-8.43543e-08
-5.45147e-07
-1.2388e-07
-6.70856e-07
1.02935e-06
-2.80878e-07
-6.3663e-07
0.000222079
-0.000838465
-1.05968e-07
-2.24736e-08
-5.0362e-08
-1.27781e-07
2.10981e-05
-6.01076e-07
-0.00018717
-3.60977e-07
-1.9425e-07
-6.79901e-07
-1.13536e-07
-2.09874e-07
-2.23929e-07
-2.80933e-06
7.3609e-08
0.000413671
-0.000301453
-5.38669e-07
-1.74638e-05
0.000612399
-8.83709e-09
-6.90872e-07
-0.000703658
-3.46297e-07
-1.04696e-06
-1.59013e-07
4.0873e-07
-8.12833e-09
-2.64928e-07
-2.38832e-07
-3.64002e-08
-5.34971e-07
-2.30183e-07
1.87037e-06
-7.8148e-08
-3.91393e-07
-0.000157729
0.000671662
-6.40246e-08
-6.81945e-07
-8.30474e-09
-2.02083e-06
-6.82726e-08
-3.46334e-07
0.000330897
-2.06124e-08
-3.4806e-07
-1.49147e-08
-0.000124931
-1.21695e-07
-0.0385555
-0.000146616
-7.59093e-07
-6.52059e-09
2.56632e-06
-8.71273e-05
-0.00214891
-8.87719e-07
-4.58415e-07
-4.68085e-08
-3.07467e-07
-5.66853e-07
2.76093e-06
-2.27248e-07
-0.000296598
-1.26345e-07
-7.96988e-08
-3.39172e-07
-6.00904e-07
-0.00122615
-0.000502385
-1.20868e-07
-6.46985e-08
-4.54684e-08
3.21956e-08
6.88661e-08
-3.78383e-07
-5.69287e-07
-1.21294e-07
-1.00577e-07
-3.58592e-07
-6.06773e-07
4.49416e-05
-4.41844e-08
-3.00784e-08
-8.74925e-08
-0.00135504
0.000209749
-5.40354e-07
-1.64746e-07
-6.7944e-07
-1.61823e-07
-2.20864e-07
-6.029e-07
-0.00100896
6.78214e-05
-3.26072e-07
-4.91061e-07
-1.38784e-05
-1.62899e-07
-4.17478e-08
-1.76859e-07
-2.52929e-07
-1.27867e-07
-1.80085e-08
-7.55329e-08
-6.31202e-08
-4.36391e-07
-4.4009e-08
-0.000792524
-5.85812e-07
-1.50798e-07
-0.00120282
-0.000129976
-3.99391e-08
-2.04873e-07
0.000482453
-8.24444e-08
-2.78619e-08
-5.59913e-07
-0.000180353
-0.00185513
-3.42167e-07
-5.0508e-08
-0.00388591
-4.67913e-08
-3.00796e-07
0.000609392
4.55963e-05
-3.07426e-07
-0.000126925
9.35786e-07
0.00120986
1.41911e-07
2.1353e-07
0.000543625
-0.00028002
4.95685e-05
-2.28892e-07
0.000673821
-1.8583e-05
1.56871e-07
-3.79719e-06
4.80024e-09
-2.96247e-07
-1.2345e-07
-0.000296337
7.36796e-07
-6.70559e-08
-8.17433e-09
-3.38725e-07
0.00118199
6.15071e-07
-1.55918e-07
0.000757615
-1.17636e-07
-3.78803e-07
-3.12125e-07
-7.95856e-05
-9.01415e-07
-7.09142e-07
-2.40032e-07
-4.05938e-07
-0.00119196
-5.1133e-08
-1.1918e-07
-3.32121e-07
-5.25671e-07
-1.09539e-07
-4.83047e-08
-1.47459e-07
-3.75778e-07
-3.60151e-07
-1.50391e-08
-2.15962e-06
-0.00131805
-1.97399e-07
-4.09322e-05
-9.7465e-08
-1.578e-07
4.60762e-05
-7.15816e-08
0.000273576
-3.17018e-07
-1.23296e-06
-9.01572e-07
7.7513e-06
-2.35509e-07
-0.000355125
-2.50215e-07
-1.1982e-06
0.000163489
-4.00505e-07
-0.000396009
-4.23022e-07
-0.000327559
-5.23711e-07
-6.40707e-07
-9.50017e-08
-7.32039e-08
-2.40984e-08
-3.17529e-07
-2.54258e-07
-5.5191e-07
-1.37454e-07
-5.34504e-07
-0.00516466
-9.05439e-08
-6.58267e-07
0.000187065
-2.86176e-07
-1.23165e-05
-7.77403e-07
-0.00273972
-3.50616e-07
-1.13137e-06
-6.42027e-06
-2.19553e-07
-4.11213e-07
-0.0004278
-3.31639e-05
3.86612e-06
-9.61367e-08
-3.54383e-07
-3.89246e-07
-1.21989e-06
-1.88557e-07
0.000206831
-0.00440942
-3.42522e-05
-5.51354e-07
-1.39309e-07
-4.80087e-06
0.00020029
-8.52952e-08
0.000515075
7.16416e-07
-5.35162e-05
-2.94153e-07
2.34077e-05
-5.41544e-08
-3.99211e-08
-0.000230726
-9.34188e-06
-2.91108e-08
-4.36097e-07
-6.6044e-07
-7.9478e-08
-0.00479632
-3.00802e-07
4.94133e-08
-3.64447e-07
-2.55769e-07
4.05937e-09
2.30872e-05
-1.44379e-07
5.96943e-09
-0.0052039
-0.0050761
-2.68457e-07
1.55519e-06
-6.35618e-09
-4.79904e-08
-4.55203e-07
-6.98062e-08
-8.12177e-07
-1.32769e-07
-2.55188e-07
1.17442e-06
-2.99921e-07
-0.00236429
-5.30395e-08
-4.5109e-07
-0.00190562
-1.57738e-07
-3.37324e-08
-4.54976e-08
-3.35545e-07
-2.19808e-07
2.75064e-07
-0.00457787
-3.53707e-07
5.70068e-07
-4.76035e-07
-5.78957e-08
-0.000819751
-1.76242e-05
-2.00035e-07
-1.01849e-07
-0.000230615
-4.15237e-07
2.37815e-05
-7.98509e-08
-3.96624e-07
-2.94518e-07
-5.7803e-07
-0.000427957
-8.54271e-07
-2.10399e-05
-1.20984e-07
8.01268e-08
-1.10287e-07
-0.00121153
-7.69248e-07
-1.22579e-07
-4.19836e-07
-2.29793e-07
-1.62523e-07
-3.32708e-07
-4.4613e-08
0.000274844
-0.000640715
-0.00238629
2.55589e-05
-0.00470206
0.000914606
5.05303e-08
-6.79668e-09
-1.66603e-08
0.000607687
-2.14002e-08
-1.27937e-07
3.02069e-08
0.000353935
-3.21027e-07
-7.41422e-08
-9.51593e-07
-3.45867e-07
-6.47098e-09
-0.00253476
-1.13297e-07
-0.00115197
1.80638e-06
-9.8348e-08
-3.02275e-07
-7.13795e-07
6.52233e-05
-1.27338e-07
-0.000606856
-0.000780146
-2.12776e-07
0.00117277
-4.72717e-08
-7.84416e-10
-1.20668e-07
-0.005155
3.28781e-05
-2.54821e-07
1.58758e-08
-1.59689e-07
-1.14352e-07
-0.00532739
-0.000555122
-3.93377e-07
-7.71661e-07
-1.65196e-08
-9.33296e-07
-0.00106083
0.000680188
-1.97897e-07
0.000709895
-1.43143e-07
-1.59549e-07
-4.58689e-07
-4.57407e-07
-7.00867e-08
-2.29652e-07
0.00114292
-2.18084e-07
0.00130174
-3.60735e-07
-5.0798e-08
-0.00147071
-2.7593e-08
-3.06624e-08
-4.07186e-07
-5.37305e-07
-4.76112e-07
-0.00272705
8.50479e-05
-3.0483e-07
0.000458223
-3.01703e-07
-3.18725e-07
-0.00173397
-0.000434511
-1.56634e-07
-1.04199e-07
-1.54274e-06
0.00123237
-5.61046e-06
-7.90455e-07
0.00849526
-4.47742e-07
-4.94903e-07
8.79675e-05
-0.00298677
-7.65831e-07
-0.000895649
-2.00921e-08
-0.00163043
-2.30587e-07
1.98828e-05
1.95445e-06
-5.03815e-08
0.000421022
-0.00534287
-3.00798e-07
-6.13078e-07
-1.26726e-07
-1.09697e-05
-2.20681e-07
0.00357132
-1.38908e-07
-3.15182e-08
-1.74387e-08
-3.73159e-07
-5.29406e-08
0.000571765
-3.16272e-08
2.2037e-08
-9.46944e-08
-1.24286e-06
-9.11115e-08
-5.82447e-09
-3.46308e-07
0.000720387
-4.04093e-07
0.000833745
-4.39609e-07
-7.82515e-08
-2.18631e-07
-3.30891e-07
-2.49027e-07
-8.05063e-08
-2.29034e-07
-5.56608e-07
-1.92891e-05
-1.66286e-08
-0.000513112
-8.333e-09
-8.77023e-07
0.000523624
-0.00171136
-1.85331e-06
-0.00418817
-5.29479e-07
-1.27282e-07
-0.00522366
-2.01522e-07
-0.00398444
-1.26709e-07
-4.3089e-07
3.77881e-05
-2.31976e-06
-1.70395e-07
-1.70908e-07
-2.15711e-07
-0.00134602
0.000666959
-2.01493e-07
-5.81198e-06
-0.00504293
-1.19367e-08
-1.22182e-08
-1.15359e-06
-0.000453201
-0.0052591
-2.45846e-08
-1.09916e-07
-2.78245e-07
-1.05223e-08
-3.0639e-05
-1.10256e-07
-5.32672e-08
-5.29538e-08
-5.67192e-07
-4.48059e-07
-1.03097e-06
-1.31607e-08
-1.91581e-07
-2.70181e-07
2.28404e-08
-5.47791e-07
-4.62982e-07
-5.20823e-07
-1.26028e-07
-2.57104e-07
3.18701e-07
-0.0052282
0.00171935
-5.14335e-07
-0.000272587
-2.04101e-07
-0.00524701
-4.67901e-07
-1.44563e-07
-4.94013e-07
-4.59948e-07
-3.32726e-07
-9.40086e-08
-9.02667e-08
-1.00756e-06
-0.000283372
-4.47965e-07
9.98631e-05
-8.23021e-08
-0.00527216
-5.19096e-07
0.000599735
-1.83636e-07
-2.90846e-07
-3.2367e-07
0.000636812
6.52367e-08
-2.57111e-07
-5.6488e-06
-2.44776e-07
6.42514e-07
-9.05302e-07
-7.7852e-08
-3.66416e-07
2.04989e-07
-5.35354e-08
-7.41637e-09
-5.39625e-09
-9.5259e-09
-0.00164964
-6.17678e-08
-3.51186e-06
-0.00115214
-2.02007e-07
0.000514908
0.000162439
-3.15834e-09
1.30532e-07
-1.28269e-07
-1.45252e-08
-3.21168e-08
-8.83744e-08
-1.82659e-07
-3.39834e-08
-3.1473e-07
-2.14515e-07
-1.98364e-07
1.33478e-05
-1.98913e-07
-0.000687314
4.7233e-10
0.000373913
-3.21497e-07
-8.09099e-09
2.42956e-08
-0.00155125
-2.90707e-07
-0.00573155
-0.00507047
-6.8278e-07
-4.16829e-07
-2.06025e-07
-0.00170252
-1.59469e-07
-4.03152e-07
-2.6196e-05
-4.93601e-09
-7.94686e-08
-1.97273e-07
-7.65712e-07
-0.000313668
-2.8558e-07
-3.46042e-07
3.60517e-07
0.000851042
-1.83326e-08
-2.30767e-07
-0.00180719
-8.01004e-08
-0.00165154
-2.45504e-08
-2.98543e-07
-7.4756e-05
-6.09924e-07
-1.2497e-07
-2.36913e-07
-3.88212e-07
-1.24684e-08
1.30103e-09
-2.65425e-07
-2.35359e-07
-1.00572e-08
-4.55435e-07
-7.26053e-07
-5.64449e-08
-9.31235e-07
-7.98685e-06
-0.00561218
-2.28823e-07
0.000753933
1.91933e-07
-8.3991e-09
1.25738e-07
-8.01537e-08
-3.19595e-07
-0.00550435
-0.00126869
-0.00266984
-0.00218253
-2.14109e-07
-1.96078e-07
-3.26912e-07
-1.77909e-07
-1.50397e-07
0.000972867
9.71375e-08
-0.000403183
-1.1583e-06
-5.92761e-07
-1.63095e-08
-1.19443e-07
9.11005e-07
6.52572e-08
-3.28766e-07
-1.14452e-08
-1.35155e-07
-1.77053e-07
3.43051e-05
-3.55097e-08
-2.68078e-08
-0.0002531
-1.22848e-08
-4.52194e-07
-7.46584e-08
-5.24669e-06
-1.05597e-07
0.000589786
-2.64568e-08
-7.76167e-07
-4.77179e-07
-4.88829e-08
-3.42116e-07
-8.59962e-08
-4.12575e-07
-5.16931e-08
-3.46201e-05
-3.62249e-08
-0.000528938
-2.64857e-07
-0.000904721
-0.000999348
-3.77105e-07
-6.50959e-08
0.000181207
-0.00451854
-3.27422e-07
-6.70178e-07
-3.32682e-08
-0.000291365
-1.85142e-07
-1.98813e-07
-5.14909e-08
-5.09253e-08
-0.00449747
-4.82487e-07
-4.55033e-08
-5.85204e-07
-0.000487394
-2.22246e-05
-0.00487023
-1.20359e-07
-0.000306562
-4.41608e-08
-5.54161e-08
-5.08401e-08
2.25107e-09
-1.171e-08
-0.00505879
-0.00571051
-2.60814e-07
-3.36558e-08
-3.96021e-07
-1.34961e-07
0.000214226
-1.3681e-07
-0.000226979
0.000325813
-4.22998e-07
-4.95322e-07
-4.9964e-08
-6.16557e-07
-2.04158e-07
-2.08757e-07
-1.50784e-08
-2.57969e-06
0.000707205
-4.02536e-07
0.000257609
-5.90037e-07
-2.66404e-08
-4.10879e-07
-6.4198e-07
0.000608516
-4.05686e-07
-0.000149114
-3.28732e-07
-2.15964e-08
-3.3318e-05
-0.000290626
-0.000431157
1.61417e-05
-0.00519551
-1.27658e-07
1.03596e-07
6.85986e-09
1.60735e-05
-3.10123e-07
-6.8289e-08
-0.00468019
-1.93855e-07
-5.62477e-08
-1.63652e-07
-2.00389e-07
0.00064372
-1.99646e-07
-9.57851e-08
-4.04822e-07
-0.000187832
-2.5167e-07
0.000220449
-5.76711e-08
-4.93478e-07
-0.000254279
-5.35995e-08
-2.87472e-06
-2.13784e-07
-3.74942e-07
-3.47195e-05
-1.97992e-07
-3.38495e-07
-1.08366e-06
-0.000654466
-2.27715e-07
-0.000424031
-4.00877e-07
-0.000117263
0.000574033
-0.000337796
-6.48824e-07
-7.52034e-08
-2.1184e-07
-8.42215e-09
-8.2839e-07
-2.1529e-08
-0.000509998
-2.71761e-07
-7.4513e-08
-1.16811e-08
-1.44325e-07
-1.11415e-07
-4.23039e-07
-3.6279e-07
-2.96858e-07
-2.68144e-07
-0.0047699
0.000106981
-4.44245e-07
-2.88169e-07
-0.00477797
-7.7956e-08
0.00120066
-7.8611e-08
-5.10186e-07
-3.3836e-08
-1.67087e-07
-2.49956e-07
-6.23393e-08
-9.75371e-08
-1.44712e-06
-1.71671e-08
-9.97695e-07
-2.47442e-07
0.000373601
-1.02801e-05
8.18473e-07
-1.08619e-07
-2.10455e-07
0.000824388
-3.02306e-07
-1.61665e-08
-3.42628e-07
-7.21468e-08
0.00114434
-4.53258e-08
-2.23842e-07
7.71455e-05
0.000156814
-3.1213e-07
-2.20457e-07
-0.00259243
4.91084e-05
-0.00510272
-2.04271e-07
-7.87069e-08
-2.64539e-07
-3.42574e-07
-6.54412e-08
5.39759e-05
-2.42555e-07
-1.66107e-08
-1.20749e-07
-6.34963e-07
-1.98777e-07
-0.0052588
0.000531502
1.8493e-07
-2.37713e-07
-0.00268156
-3.03346e-07
-5.8976e-08
-0.00029396
-1.99846e-07
-2.18459e-07
-1.09562e-07
-5.22828e-07
-7.27172e-07
-0.000860527
0.000907659
-6.95325e-07
-0.00116502
-5.47322e-07
-5.74972e-08
3.92644e-07
-8.91864e-08
-3.81947e-07
-2.03355e-07
-4.79714e-08
-1.99915e-07
-2.41158e-07
-0.00102737
-0.000403923
1.29038e-07
0.000105658
-0.00358322
-1.02667e-07
-1.01732e-07
-2.4604e-07
9.05004e-08
-2.13081e-07
-1.38798e-07
-3.80491e-07
7.01141e-05
-4.22159e-06
-5.18534e-08
-3.05367e-07
-3.78683e-07
-9.16706e-07
0.000191073
-2.30347e-07
-8.46868e-08
-3.0074e-07
-1.87312e-05
-4.51707e-07
-0.000912239
-1.81087e-07
-2.67928e-08
-2.43723e-07
-1.11034e-07
-2.48215e-07
1.55291e-07
-0.00177601
-0.00137477
-1.7175e-07
-5.6403e-08
-6.21063e-06
-2.09563e-07
9.16809e-05
6.51747e-05
-1.37232e-08
0.000815679
-0.0015405
0.000830572
-9.81011e-07
-4.36217e-07
-0.000327686
-4.00523e-07
-1.86799e-07
-1.29264e-07
-4.20861e-07
-2.25335e-07
-2.09598e-05
-5.60541e-08
-0.00535251
-2.22329e-05
-7.73802e-08
-1.15917e-07
-2.5219e-07
-6.83812e-07
-4.32691e-07
-3.2935e-08
-4.3593e-07
-1.69671e-08
-3.64225e-07
6.39929e-06
-1.82549e-08
-0.00416788
-0.000327309
-5.67321e-08
-4.56533e-07
-6.90212e-07
-4.74771e-08
-0.00114309
-0.000130277
0.0007342
-0.00061105
-6.19592e-08
-2.62052e-07
-3.22836e-07
-5.51208e-08
-2.96847e-07
-4.40279e-07
-1.67376e-08
-8.13462e-07
-1.77706e-08
-0.00434962
-4.71213e-07
-0.000119018
-1.48048e-08
-2.58063e-07
1.26851e-06
-3.13253e-07
-3.19211e-07
-8.9394e-08
-5.58296e-05
-8.11459e-05
-3.46639e-05
0.00104343
-0.00520173
-0.00108553
-0.000112998
-8.68489e-08
-5.55168e-08
-2.15979e-07
-3.69771e-06
-7.79124e-07
-2.84466e-07
0.000311751
-2.20723e-07
-5.40419e-08
-2.0864e-08
-3.67695e-06
-1.22077e-07
-3.822e-07
-2.12132e-07
-0.0050229
-1.0048e-07
-7.95597e-08
-4.28429e-08
-1.2913e-07
-3.07339e-08
-1.0242e-07
-7.08908e-08
-1.93212e-07
-0.00536722
-4.88725e-08
-1.11964e-07
-0.000829816
-0.0014589
-0.000253221
-0.00518918
-1.04034e-06
-0.00544118
-7.71833e-08
-3.16315e-07
-2.45937e-07
-2.93785e-08
-3.1758e-07
0.000716257
-2.64025e-07
-3.69902e-07
3.40496e-05
-2.1411e-07
-1.77598e-07
-1.97111e-09
-1.33209e-08
-7.21888e-10
-0.00508315
-1.92976e-07
-2.35214e-07
-7.39375e-09
-2.55252e-07
-3.25414e-07
-8.69994e-07
-4.79059e-08
1.20254e-05
0.0010885
-1.27939e-06
-0.00197264
-5.16423e-08
0.000711795
-1.55013e-06
-4.33152e-08
-1.72666e-05
-5.2702e-08
-9.94908e-08
-5.1774e-08
-2.58301e-07
-6.50837e-08
1.93214e-09
-2.01518e-07
-4.37002e-08
-4.55125e-07
-2.30025e-07
-4.59617e-09
-1.52769e-07
-1.99659e-07
-0.000472097
-1.92005e-08
-3.88963e-07
-5.51489e-07
-1.03905e-05
4.29026e-06
-2.6361e-08
1.68059e-07
-7.34306e-08
-5.33771e-07
-2.99136e-07
-0.00461765
-6.28166e-07
-1.60415e-09
-6.89597e-07
1.38928e-06
-4.63132e-07
-2.72668e-08
-1.61981e-07
-3.07338e-08
-8.86776e-07
-5.4822e-07
-9.11817e-08
-2.00311e-07
-0.00439849
0.000181283
-2.87876e-07
-5.98978e-08
0.000225424
-8.67711e-08
-4.27609e-07
-8.45038e-08
-2.90233e-07
4.63921e-05
-9.70272e-08
0.000318774
-3.05994e-07
-2.34303e-08
-2.18211e-07
-6.63113e-08
-5.30965e-07
-0.000656253
-4.13245e-07
-0.0052599
-6.91452e-08
-9.63729e-09
2.32231e-06
-1.48387e-08
6.93555e-08
-4.17802e-07
-3.57971e-07
-4.26009e-07
-3.05329e-07
-8.7751e-08
-4.70078e-07
-1.87279e-07
-5.78316e-08
-1.48723e-08
-4.17229e-08
-4.36627e-06
-1.9287e-07
-7.13908e-08
7.6912e-07
-8.41768e-08
-6.20372e-08
-0.00136087
1.26426e-08
0.00038819
-2.86817e-07
-0.00200519
-9.14577e-07
-3.02574e-07
-3.66828e-06
-1.35323e-07
7.41968e-06
-2.13631e-07
-5.7087e-08
-3.27252e-07
-1.90987e-07
-1.36738e-07
-4.08692e-08
-6.52919e-07
-1.24883e-07
-2.5009e-07
-7.89771e-08
-2.60373e-07
0.00018624
0.000667164
-2.10492e-06
-3.2329e-07
-1.4398e-06
0.000187866
0.00043786
-2.33087e-08
-3.6063e-07
-1.70367e-05
-2.18224e-07
-3.32619e-07
4.66108e-05
-0.00149262
-3.85196e-07
-6.33146e-07
-1.95113e-07
-7.13647e-07
-7.96109e-10
-1.74571e-07
1.66024e-06
-9.5416e-08
-1.15823e-07
0.00107801
-3.59606e-07
2.89082e-07
-0.0021835
-1.07478e-06
-7.42691e-08
-7.81764e-08
-2.47016e-07
0.000949903
-1.37047e-07
-0.00376388
-2.99619e-07
-1.35667e-08
0.000681447
-2.75549e-08
-1.41936e-07
-2.61166e-07
-3.14123e-07
-4.42183e-07
-5.13507e-08
-0.00510166
-0.00352355
-2.14384e-07
-4.29898e-07
-8.00657e-07
8.94773e-07
-3.74904e-07
-8.91055e-07
2.40004e-07
-5.47111e-07
0.000150712
-9.45672e-07
-1.78217e-08
-5.60082e-07
-7.27924e-07
-0.00500159
-6.37389e-08
3.80111e-05
-3.78589e-07
-1.07499e-06
-1.51191e-09
-0.00309611
-3.56606e-07
-1.46176e-07
-1.53876e-07
-3.52297e-07
-4.06732e-07
-1.55973e-07
-4.56581e-08
-1.83718e-07
-3.06772e-07
0.000226861
-2.2358e-07
-2.0425e-08
-2.82043e-08
-5.80071e-07
2.23393e-08
-2.81688e-08
-3.54386e-07
-0.000220278
-2.71446e-07
-0.00196157
-7.17197e-07
0.000175856
-6.3237e-07
-8.40945e-08
-7.36776e-07
-1.64657e-08
-2.6664e-07
-4.99e-07
-3.68655e-07
-2.55461e-07
-7.52285e-07
-2.86793e-07
-3.17651e-07
-3.85806e-07
-2.0114e-07
-7.99899e-08
-5.34568e-07
-3.37127e-07
-1.22797e-07
-9.55173e-06
-3.14838e-07
-2.71679e-07
-9.27196e-08
-0.000341833
-3.0653e-07
-7.87793e-08
-2.32556e-07
3.64355e-09
-0.000136589
-4.60015e-08
-5.02473e-07
-0.00196053
-3.99639e-07
-8.4512e-07
-2.18259e-07
-8.59305e-06
-9.87368e-08
2.1128e-06
-1.36654e-07
-2.69205e-08
4.6087e-05
-0.00110875
-3.19452e-07
4.42295e-07
-1.33458e-08
-0.0001035
-9.42564e-08
-7.35496e-07
-1.99436e-07
-0.00566979
-0.00479129
-4.06163e-07
-5.44027e-08
-4.86982e-07
1.38941e-06
-6.52726e-08
0.0011193
-8.1613e-09
-1.59965e-07
-3.41648e-07
-3.63108e-08
-3.52691e-07
-3.65865e-09
-2.30581e-08
-2.99223e-07
-2.91974e-07
-5.0208e-07
-2.2728e-07
-7.44197e-08
0.000292046
-0.0012272
-6.34714e-08
-2.40033e-06
-1.92097e-07
-1.12845e-07
-0.00638536
-5.62676e-08
-1.04199e-07
-1.2398e-07
0.00073193
-6.24522e-08
-2.333e-08
-3.80178e-07
-0.00491546
-6.20781e-08
-1.99851e-07
-5.49867e-07
-1.36456e-05
-3.4549e-07
-3.79357e-07
-4.77288e-08
-9.1096e-09
-1.1335e-06
-6.93847e-08
-7.16387e-06
-3.33807e-07
-1.76206e-08
-4.2292e-07
-1.65269e-07
-2.95669e-08
-2.20427e-07
5.69794e-08
-0.00285814
-2.12108e-07
-3.92436e-05
-2.83891e-08
-6.9815e-08
-3.23888e-07
-6.63422e-08
-1.97203e-07
-0.00560149
9.91101e-10
-4.23763e-07
-2.98649e-07
0.001095
-1.26186e-05
-2.86555e-07
4.84389e-09
-4.43439e-08
-5.05031e-08
-6.92214e-08
-4.36915e-08
-0.00556354
-2.36244e-08
-0.000184845
-2.75746e-07
-1.11022e-07
-1.89064e-07
-4.28497e-07
-2.70557e-07
-3.29034e-06
-2.68796e-08
-1.58245e-07
-2.11044e-07
-0.000863286
-2.57538e-07
-5.228e-07
-6.04489e-07
-3.40587e-07
-2.15177e-07
-4.35503e-05
-6.96466e-07
-0.00055129
-0.00119894
0.00029285
-2.81849e-07
-1.53605e-07
-3.36201e-07
-1.11739e-08
-2.01825e-07
-2.29501e-07
1.19336e-07
-1.91873e-08
-2.15991e-07
-6.02956e-08
-8.81589e-08
-2.94764e-07
-2.10914e-07
0.000647348
-5.80012e-08
0.000558618
-4.78876e-08
-7.31562e-07
-2.25754e-07
-2.18313e-07
-3.06165e-07
-7.04231e-08
-0.00552574
-2.28397e-08
-1.64089e-08
-5.56756e-07
-1.73374e-07
-1.79652e-07
-1.82515e-07
-0.00215947
-2.52968e-07
-4.31037e-07
3.16147e-06
-0.00553162
-2.47981e-07
8.95079e-05
-9.99303e-07
-2.91628e-07
-2.06587e-07
-2.53952e-07
9.47193e-08
-3.40866e-07
0.000623218
-1.44171e-07
0.000523481
-1.53117e-07
-8.96835e-07
-0.00244855
-3.57734e-07
-0.00570595
-2.64854e-07
-4.54347e-07
-2.14116e-07
-0.0035829
-3.2709e-07
-3.7377e-08
-3.12462e-07
-3.42081e-08
-2.71308e-07
-4.68839e-08
-3.45482e-08
0.000491847
-7.47734e-09
-2.50856e-07
-0.0015385
-1.95704e-07
-9.15064e-08
-2.99496e-07
-2.8557e-07
-0.00650995
-5.29883e-08
-6.29428e-08
-7.88991e-08
6.5919e-08
-2.26785e-07
-2.09194e-07
-5.78884e-07
-0.000913808
-1.02819e-07
-9.55853e-09
-0.00228964
-2.24498e-07
0.000321884
-3.53184e-07
-0.00229584
-1.61238e-07
-1.65154e-07
-7.12988e-08
-0.000502004
-0.0021756
-3.19674e-07
-7.86048e-08
-1.17992e-07
-1.38482e-07
-6.13025e-09
-0.00243145
-3.95585e-08
-8.37729e-07
-1.04442e-07
-7.17587e-07
-1.62477e-08
-0.00533129
-8.03037e-08
-7.1571e-07
-1.01983e-07
-2.9927e-06
4.7532e-06
-1.62797e-07
-2.65966e-07
-0.00480579
-6.00238e-07
-0.00510101
-0.00582928
-6.35349e-07
-1.75096e-08
-4.26784e-07
-2.10532e-07
4.12759e-05
-2.50659e-07
-6.70899e-07
-2.34541e-08
-1.53552e-07
-0.000486964
0.000480705
-4.33493e-07
-1.10634e-06
2.65501e-07
-2.84577e-07
-0.00160141
-1.88205e-07
-1.57081e-07
-1.7244e-07
-0.00376108
1.79363e-07
-2.61286e-07
2.12908e-05
-8.61961e-08
-0.00358649
-0.00057917
-0.00240986
-1.85215e-08
0.000771046
0.000825771
1.93529e-06
-1.91802e-05
-0.000324449
-6.74786e-07
-3.44881e-07
-2.37798e-07
-3.61557e-08
-1.35229e-07
-1.58427e-06
-1.89388e-07
-5.46748e-08
-2.98719e-05
-2.87717e-08
-7.34905e-08
-5.85114e-07
-6.12393e-08
-1.08673e-06
-1.12982e-07
0.000188547
-7.05672e-07
5.7438e-08
0.000126016
-0.00073136
8.05786e-07
2.01989e-09
-4.17221e-08
-2.42303e-07
-3.16273e-07
-7.3837e-08
-3.52154e-07
-5.40213e-07
-3.88208e-08
-1.18129e-07
1.11806e-07
-2.0848e-07
-3.43775e-07
-0.00482435
2.94615e-05
1.47054e-09
2.77475e-07
0.00100448
-8.93381e-08
-1.8243e-07
-0.00206912
-7.1107e-07
-2.72944e-07
-4.17527e-07
-4.76752e-08
-2.39052e-07
-3.54407e-07
-0.00164673
-1.45792e-07
-7.42156e-08
-1.57553e-08
-2.08685e-06
-2.8907e-07
4.16469e-06
0.00072398
-1.31736e-07
-5.99603e-08
-3.6081e-07
-2.83843e-08
-3.12853e-07
-1.94435e-07
-2.47781e-07
-2.81009e-08
-1.1012e-07
-2.04549e-07
-2.20457e-08
-7.13205e-07
2.64965e-05
-8.26644e-09
-0.00495367
0.00048915
-6.79015e-08
3.10198e-07
-5.95479e-07
-2.69218e-07
-1.08452e-07
-2.62714e-07
-3.23979e-07
1.02901e-06
-1.46228e-07
-2.63235e-07
-1.59133e-08
0.000630668
-4.95234e-07
-0.00578479
-9.677e-08
-3.44772e-08
-6.8239e-08
-3.16751e-07
-1.05749e-07
-6.37301e-07
-8.34094e-07
-8.81205e-06
-9.30727e-08
-1.38257e-06
7.12665e-05
-7.90372e-05
-7.45337e-08
-6.99199e-08
1.33971e-05
-1.37627e-05
5.18478e-06
1.16503e-09
-1.83312e-07
-6.43102e-08
-7.20792e-05
-0.0034855
-4.47186e-07
-4.45802e-06
-1.64827e-08
-1.71795e-07
-2.88178e-07
-2.52741e-08
6.03854e-09
-6.3523e-09
-6.05364e-09
1.11069e-06
-1.65104e-07
-0.000867154
-0.00496444
-0.00192407
-0.00485705
-3.14039e-05
-3.30139e-08
-2.68802e-08
-0.00465517
-1.52766e-07
-1.71542e-07
-7.46234e-08
-1.94548e-07
-0.00175153
0.000655116
-7.96844e-08
-2.2041e-07
-2.5165e-07
-2.68144e-07
-0.000213966
-4.76757e-08
-0.00580268
-0.0010436
-2.95498e-08
-2.09039e-10
-0.000506635
-8.76436e-07
-2.89003e-07
-4.59563e-08
-0.00492034
0.00033729
-2.14758e-07
-8.07958e-08
-6.40263e-09
-0.000144767
-3.10714e-06
-5.16155e-07
0.000285944
0.000368351
-0.00427145
-1.49205e-07
-2.42892e-07
-1.19922e-08
-2.09226e-08
-0.00167046
-1.24621e-07
-2.04125e-07
2.46086e-06
0.000628688
-2.46548e-07
-2.43346e-07
-5.67293e-07
-3.69987e-07
-0.00445928
0.00128922
-4.44783e-08
-3.40727e-07
-3.20417e-07
-1.17522e-06
-0.00212852
-7.70349e-08
-0.000330692
-2.85075e-07
-5.94747e-07
-9.76033e-08
-6.20248e-08
-5.31814e-07
-4.27182e-07
0.000256799
-2.50314e-08
-3.13374e-07
-2.51315e-07
-1.76789e-07
-4.1241e-07
-0.000784224
-0.000197352
-2.6854e-07
-1.08169e-06
-1.17037e-07
-2.2097e-07
-2.9726e-07
-2.07892e-06
-0.00128136
-0.00494373
-3.01996e-08
-0.00546992
-1.26481e-06
-0.000764274
-3.44049e-07
-3.68224e-07
-3.7407e-07
-2.1618e-07
-0.00545348
-5.34408e-08
-4.10914e-07
-0.000597699
-0.000638175
2.10299e-06
-0.00135484
-2.5222e-07
-4.55093e-07
-1.6127e-07
-0.000893334
-2.40109e-07
-0.000121561
-1.5868e-07
-0.00641704
-9.43094e-09
-7.25199e-08
-5.12388e-07
-1.01347e-07
-1.94795e-07
-1.33847e-07
-0.000633835
-7.03286e-07
-1.46603e-07
-3.78689e-07
-0.000518813
-4.80722e-06
-4.96173e-08
0.00110754
-2.57955e-07
-5.44492e-07
-5.1797e-07
-5.8143e-08
-2.72105e-07
-7.61427e-08
0.000409036
-5.51807e-07
-4.21302e-07
-5.39748e-08
-3.8226e-07
-4.10455e-07
-1.67241e-07
-0.00386138
2.4715e-06
5.47986e-07
-2.0071e-07
-9.31847e-06
-2.66572e-08
-3.46564e-07
-4.08095e-07
-8.21282e-07
7.61215e-06
-0.000536729
-1.06341e-07
-0.00151849
-2.71178e-07
-3.66412e-07
-1.07113e-07
-0.00570878
-1.09766e-06
-8.60291e-08
1.79018e-06
-9.90836e-09
-0.00546062
-2.25503e-07
-3.23283e-07
1.40817e-06
-0.00483487
-0.000670017
2.62867e-06
0.000893425
-1.18282e-07
-1.00528e-07
-3.63997e-08
-2.12662e-07
-5.22871e-08
1.00421e-07
-2.50332e-07
-1.38041e-07
0.000786287
-1.11709e-07
-7.21919e-08
-7.05351e-07
-4.5631e-08
-3.3254e-07
-8.9894e-08
0.000283676
-2.88726e-07
-7.53035e-07
-1.30575e-07
0.000660348
-1.0968e-07
-0.0049755
9.72412e-08
-4.30883e-07
-3.11649e-07
-3.60574e-08
0.000159664
-2.69776e-06
-2.43064e-07
-1.29051e-07
-5.98036e-08
-0.000256025
0.00109473
-0.00123089
-2.04952e-07
-2.38815e-07
7.58151e-07
-2.21342e-07
-6.14271e-08
-1.86049e-07
-0.00165402
-2.01085e-06
-4.01119e-07
-4.11688e-07
-3.56923e-07
-0.00543217
-2.90831e-07
-1.14385e-06
-3.9693e-07
-7.51117e-07
-6.03651e-08
4.29229e-08
-2.77977e-07
-6.19128e-08
-0.00223625
0.00124397
-3.5701e-06
-0.00311325
0.000846628
-0.00585479
-0.00586488
-4.63251e-09
-1.9823e-07
-0.00602677
0.000759099
4.65437e-05
-1.27318e-07
-4.286e-07
-7.43068e-09
-1.07847e-07
-0.00554221
-0.000747573
-4.62724e-07
-7.47012e-08
-6.23849e-06
-6.17808e-07
-3.83974e-07
-0.000219821
-4.1229e-06
3.77297e-07
-5.97192e-08
-0.000709396
-0.00517115
1.61698e-07
-5.00345e-07
-4.29355e-07
-1.38309e-08
-9.43184e-08
-3.69068e-07
-3.83642e-07
-2.51408e-07
-6.08785e-07
-4.22659e-07
-2.00628e-07
-3.13039e-06
-0.000456409
-1.7487e-07
-6.45889e-07
-7.00037e-05
-2.067e-07
-8.25818e-09
-1.10944e-06
4.88669e-06
-0.000398339
-3.78154e-07
-2.08558e-07
-3.88752e-07
-3.16676e-07
-1.66338e-07
-5.98564e-08
-1.22914e-07
-4.54405e-07
-6.45761e-07
3.73689e-07
-9.99976e-09
-2.50882e-07
-0.000606546
-0.00242819
-0.00018854
-1.0042e-06
-7.65271e-07
-7.96006e-08
-1.23944e-08
-3.39873e-07
-1.49963e-07
-0.00428322
-3.01798e-08
-4.39296e-09
-9.41481e-08
-0.00210395
0.019857
-7.10256e-08
-6.05475e-07
-4.42161e-07
-2.49341e-07
-4.02801e-07
-1.58815e-07
-4.99253e-07
-3.57998e-07
0.000356538
-3.36415e-07
0.000406136
-3.23891e-07
-0.000369999
-3.15591e-07
-5.86261e-08
-1.01263e-07
-6.71495e-08
-6.12239e-08
-7.12257e-08
-2.59847e-07
-3.3101e-07
-2.68787e-07
-0.00502388
0.000182626
-0.00594288
-3.01051e-09
-1.97638e-06
-3.72792e-07
-4.98551e-07
-4.83194e-08
-2.3575e-07
-2.03095e-07
-0.000561962
1.31102e-06
-2.6917e-07
-3.29419e-08
-0.00241459
-4.42052e-08
-0.000343375
0.000465075
-2.91717e-06
-2.306e-07
-1.03417e-07
-0.00610426
-2.42107e-06
-0.000374461
-2.63337e-07
-1.89145e-07
-3.44534e-07
-1.96495e-07
-0.00241053
-2.02031e-07
-3.3503e-07
-8.7426e-06
0.000262095
-1.83572e-07
-1.28813e-07
0.001193
-3.86191e-07
-0.00239127
-6.85298e-07
-4.36688e-08
-3.90765e-07
-4.06348e-07
4.89357e-07
-0.00517061
-5.21093e-07
-5.11111e-06
-3.15066e-07
-8.25283e-09
-1.35977e-07
-5.39063e-07
-3.94216e-08
-1.27423e-06
-1.97088e-08
-1.82782e-07
-1.18145e-07
-3.48168e-07
-2.13642e-07
-6.0429e-08
-3.74543e-07
2.33673e-06
-6.60607e-07
-3.80512e-07
-5.63977e-08
-3.03104e-07
-1.15395e-07
-4.82038e-07
-3.25565e-07
-4.34153e-07
5.35978e-07
-4.82424e-07
2.5841e-08
1.21676e-07
-1.59064e-07
-5.0783e-07
0.00043445
-0.000647466
-2.12716e-07
-1.69196e-06
-0.000399909
-1.16211e-07
-2.18303e-08
2.09566e-06
-0.000143552
-3.46305e-08
-0.000469565
4.05548e-08
-2.12752e-07
-5.14489e-07
-4.95104e-08
-2.97712e-07
-2.82638e-07
-0.00047291
1.26347e-06
3.61192e-06
-2.53197e-06
-0.00274946
-0.000227323
-3.24735e-07
-0.000395733
-3.6063e-08
-0.00521301
-0.000124261
-3.89786e-08
-4.78278e-08
-0.000597185
-1.42886e-08
-3.29907e-08
-1.61229e-06
-0.00222096
-3.63983e-08
-3.70702e-07
-4.08827e-05
-4.28232e-08
-0.00281378
-0.000443619
-1.8538e-08
2.12127e-05
-5.22649e-05
0.00082367
-0.000641062
-0.000526814
-0.00054944
-9.74706e-08
-2.21161e-08
-3.3531e-07
-4.65607e-07
-3.26841e-08
-7.94743e-07
-3.94541e-08
-0.000623497
3.19098e-07
-3.37505e-07
9.01878e-08
-0.000719724
3.17026e-07
-5.36655e-07
-2.30515e-06
0.00058337
7.42799e-07
-3.47643e-07
-5.76481e-08
-0.00569214
-2.33382e-07
-1.45018e-07
-0.0029379
-1.07265e-07
-0.00538641
-2.03805e-08
-0.00117312
-3.50022e-07
-9.37916e-08
6.42755e-06
-3.68657e-08
-1.09983e-07
-0.000526428
-0.00223492
1.90306e-06
-4.09492e-07
-7.59237e-07
-1.04569e-07
-6.63031e-07
-1.55612e-07
-6.28745e-07
-6.39652e-09
-2.38086e-05
-4.25579e-07
-3.40513e-07
-0.000495169
-4.19685e-07
-2.3961e-07
-5.28271e-07
-2.79646e-07
-6.84458e-07
-9.93458e-08
-1.76763e-07
-1.07103e-07
-1.94355e-07
1.68791e-06
6.50444e-05
-7.99147e-08
-3.77822e-07
0.0004618
-2.85543e-07
-2.62687e-07
-5.21633e-07
-3.83353e-07
-0.00595307
-4.56027e-07
-3.59216e-08
-0.000313028
-7.21741e-08
-0.00244545
-4.07413e-08
-2.55071e-07
-1.3176e-07
-0.00135922
-3.77302e-07
3.04921e-06
2.68835e-07
-4.84994e-07
-2.22165e-07
1.5047e-06
-3.74097e-07
0.000783703
1.39258e-09
0.0883385
3.89078e-07
-4.99379e-07
-2.42489e-07
-6.41653e-07
-3.81626e-07
2.04755e-06