/*--------------------------------*- C++ -*----------------------------------*\
| =========                 |                                                 |
| \\      /  F ield         | OpenFOAM: The Open Source CFD Toolbox           |
|  \\    /   O peration     | Version:  v2012                                 |
|   \\  /    A nd           | Website:  www.openfoam.com                      |
|    \\/     M anipulation  |                                                 |
\*---------------------------------------------------------------------------*/
FoamFile
{
    version     2.0;
    format      ascii;
    class       volScalarField::Internal;
    location    "950";
    object      V0;
}
// * * * * * * * * * * * * * * * * * * * * * * * * * * * * * * * * * * * * * //

dimensions      [0 3 0 0 0 0 0];


value           nonuniform List<scalar> 
13851
(
0.00528557
0.0202377
0.0266341
0.00134331
0.173315
0.0237527
0.0280902
0.153263
0.00141685
0.0773857
0.00923144
0.0985222
0.0349328
0.00115966
0.0128252
0.00423522
0.00118076
0.0496439
0.00369776
0.00597717
0.0136776
0.0224795
0.00166362
0.182053
0.00302184
0.00734309
0.00312363
0.00282576
0.001829
0.0861652
0.00185523
0.028959
0.00591505
0.00224784
0.00896848
0.00213091
0.183665
0.00234158
0.00186598
0.0430643
0.00187582
0.00185261
0.00137986
0.00335157
0.00198356
0.0696934
0.164455
0.00395843
0.0336008
0.0408222
0.00137998
0.0401922
0.00479273
0.0142528
0.00156641
0.0316248
0.00515144
0.00160081
0.00333112
0.00146539
0.104034
0.00340108
0.094071
0.0248003
0.00382346
0.00309979
0.00113105
0.00494771
0.0465349
0.00138626
0.00147934
0.0107544
0.0418545
0.00131649
0.0139018
0.0243618
0.00163023
0.122956
0.00345855
0.0833603
0.0422638
0.00407185
0.0113304
0.00151459
0.00143147
0.00185577
0.0201441
0.00137489
0.0636939
0.00147789
0.041005
0.0259776
0.00135071
0.00164566
0.00178563
0.00319739
0.0703994
0.00489337
0.00132617
0.00481154
0.00424544
0.00837804
0.00814929
0.0407998
0.0674662
0.0107066
0.0762162
0.00136227
0.0271463
0.0485493
0.0143793
0.0790064
0.00424721
0.00698206
0.00490959
0.0172009
0.0893333
0.156724
0.00109303
0.00173724
0.00396239
0.0772689
0.034228
0.001283
0.00419019
0.00451915
0.0722996
0.00805971
0.00171776
0.010137
0.0202875
0.0169786
0.00257133
0.00213427
0.00762171
0.00177173
0.00657842
0.00137287
0.011077
0.0114876
0.00433134
0.0297436
0.0547827
0.00397352
0.00266111
0.0265464
0.127408
0.00162683
0.00168894
0.00661937
0.00339035
0.00512825
0.00657731
0.00401622
0.036128
0.0535619
0.13649
0.00146782
0.00795227
0.0222404
0.17722
0.00198629
0.0111228
0.00522321
0.00123863
0.00173998
0.00207136
0.00149315
0.0156788
0.0021793
0.107534
0.110769
0.0089964
0.162689
0.00176757
0.00346411
0.00415914
0.0977075
0.0142174
0.00492906
0.00432262
0.00389798
0.0154286
0.0145496
0.00135249
0.00139532
0.00495534
0.0128122
0.0376068
0.0804939
0.00262704
0.0116084
0.000862173
0.0229861
0.026621
0.00505551
0.0039768
0.0437032
0.0466939
0.00642633
0.00426697
0.0016855
0.00205715
0.0136324
0.00160888
0.00145326
0.0236987
0.00934955
0.00159436
0.0194572
0.00436303
0.0319035
0.00349432
0.159224
0.00978022
0.0198959
0.0429818
0.00326634
0.0476328
0.00115545
0.108569
0.00536625
0.00136128
0.0019184
0.0124744
0.00892244
0.169632
0.00431182
0.0960796
0.0114074
0.00187974
0.0142882
0.0239978
0.102512
0.00176111
0.0950692
0.00195994
0.00178197
0.00515952
0.161999
0.00271496
0.00147386
0.00220838
0.00476052
0.0161321
0.00308124
0.00344753
0.0135315
0.00321937
0.0134743
0.00126338
0.00566504
0.17549
0.0206426
0.00414839
0.00183812
0.00141393
0.0693245
0.00385337
0.0571362
0.00399974
0.00457967
0.0135696
0.00974987
0.00535673
0.0573544
0.00700848
0.00504997
0.00338723
0.0969557
0.0427336
0.0109412
0.00212242
0.0014526
0.00929142
0.0648871
0.00362822
0.00396415
0.00573246
0.0112135
0.00182188
0.0012953
0.0167293
0.0120608
0.00242086
0.0678396
0.129109
0.00424652
0.00834065
0.082206
0.155645
0.0783185
0.161252
0.014802
0.134904
0.001431
0.0107409
0.0434731
0.00184022
0.00100993
0.0398768
0.00484168
0.00128727
0.0272942
0.0362027
0.0110634
0.00133045
0.00171763
0.00793543
0.167918
0.00250069
0.100714
0.0077263
0.00134139
0.00322123
0.0294472
0.00224732
0.00312762
0.00187839
0.0046351
0.00791456
0.00173769
0.00162946
0.00258895
0.0433842
0.0014485
0.00135621
0.0019081
0.00228323
0.0120237
0.00861735
0.0150546
0.00112113
0.00776316
0.146098
0.154698
0.016964
0.00164472
0.00131239
0.0791389
0.00174237
0.0149182
0.0132408
0.0199895
0.00108181
0.00421375
0.00434537
0.0257323
0.0223091
0.00157563
0.0355443
0.00373671
0.0196873
0.0105991
0.0128502
0.0558584
0.0487951
0.00519295
0.00436281
0.00522025
0.00281621
0.00176898
0.0179895
0.00162147
0.00391867
0.084699
0.00299567
0.00605765
0.00147679
0.0201302
0.00709378
0.00336577
0.00246451
0.00550224
0.00143666
0.0265611
0.00275135
0.00153408
0.0158007
0.00112216
0.0145134
0.00187392
0.0132246
0.0103205
0.00548028
0.00314641
0.0484076
0.020732
0.00664001
0.0122037
0.0495589
0.00867834
0.00191585
0.0330465
0.00951865
0.0015011
0.0265473
0.0028043
0.00894981
0.00190412
0.0195328
0.00830681
0.00218411
0.00412089
0.01123
0.00148718
0.00140475
0.00281824
0.0496733
0.0050741
0.0128652
0.00758701
0.065959
0.00141201
0.00187192
0.00256803
0.0232293
0.00530603
0.00330892
0.00141373
0.0959591
0.00132573
0.00415387
0.00153277
0.0111158
0.00332037
0.0450207
0.154482
0.00129078
0.00298844
0.067557
0.0162171
0.00901677
0.107468
0.00192313
0.00748807
0.00650075
0.019992
0.0327708
0.0412586
0.00262578
0.0535088
0.046847
0.00275777
0.00211083
0.0188015
0.0033338
0.0930638
0.127476
0.027099
0.00469629
0.00917709
0.0486472
0.0327943
0.00362708
0.0355416
0.00173986
0.134511
0.0193531
0.00191546
0.00811238
0.149465
0.103851
0.0203306
0.0412175
0.00268199
0.0023541
0.0138107
0.0010973
0.026018
0.0955667
0.00152361
0.00324765
0.0100645
0.0401157
0.00148536
0.011007
0.00169274
0.0309533
0.0155398
0.00518933
0.0136679
0.00190537
0.00273697
0.00296147
0.0176445
0.00399631
0.0550351
0.00159723
0.011212
0.00328863
0.0163267
0.0263971
0.00970829
0.00846298
0.148535
0.00131013
0.00134701
0.00221714
0.0013036
0.0026952
0.00154057
0.00343334
0.0139921
0.133672
0.00273012
0.0750332
0.0613167
0.0120258
0.00189349
0.0266828
0.0271008
0.00509274
0.00834157
0.0604543
0.00242768
0.0669834
0.00172981
0.00326191
0.0705952
0.0293497
0.00374251
0.0028454
0.0959424
0.00250719
0.00252009
0.0701677
0.00177143
0.00388185
0.004684
0.0206258
0.00267624
0.00142128
0.0590849
0.00351537
0.0511844
0.0680335
0.00287265
0.00146124
0.0135173
0.00973741
0.0679628
0.00653134
0.00172527
0.00172716
0.0632303
0.00110516
0.0540812
0.0412524
0.0103906
0.0152351
0.0903076
0.0188871
0.00167736
0.00387051
0.00155536
0.0290688
0.0555006
0.00187666
0.122145
0.00553534
0.020805
0.0144506
0.0156137
0.00192516
0.00142669
0.0199957
0.00157792
0.030976
0.00806452
0.0018734
0.00152902
0.0412123
0.04714
0.00632741
0.00135347
0.00357507
0.00814898
0.00172295
0.0138545
0.0120132
0.00192038
0.00238513
0.00553713
0.00154906
0.00371701
0.00167102
0.034303
0.0027298
0.00318043
0.100739
0.00134034
0.00217
0.0145673
0.0109328
0.0406582
0.00150725
0.0058797
0.00206753
0.0449348
0.170721
0.0128763
0.00917733
0.130379
0.00161471
0.16388
0.00401518
0.0229647
0.00691415
0.0372438
0.0473841
0.0101032
0.00117365
0.0110349
0.00154192
0.0136766
0.0997224
0.0664834
0.00849221
0.0282578
0.00576545
0.0249207
0.00997676
0.00326532
0.123139
0.00119307
0.153724
0.00568912
0.00137481
0.00199805
0.0116828
0.0020168
0.00563308
0.00447911
0.00178005
0.0580799
0.00180011
0.0131708
0.0145239
0.00147745
0.00308599
0.0587732
0.00621113
0.0420713
0.0016417
0.0012674
0.0330396
0.00502402
0.00212357
0.170542
0.139814
0.00557335
0.00109293
0.00260117
0.0221097
0.00541667
0.0348028
0.0601073
0.00281721
0.00476139
0.00502942
0.111115
0.00387098
0.00827771
0.00782436
0.024844
0.0253412
0.00679531
0.013274
0.00485912
0.0108036
0.0104069
0.00566057
0.00239219
0.00321465
0.00191923
0.00284351
0.00294987
0.00141557
0.0101866
0.0025345
0.00445446
0.0486307
0.0135169
0.00378759
0.0175801
0.0869082
0.0844087
0.00575485
0.00133073
0.0183723
0.00160771
0.100453
0.00247103
0.00416295
0.00126466
0.00599646
0.0185215
0.0249678
0.00151604
0.00397195
0.0113429
0.00254611
0.0375524
0.00281639
0.00490989
0.00413751
0.0151264
0.00360751
0.0386718
0.155761
0.0256531
0.0648758
0.0017592
0.128299
0.00352354
0.00180058
0.00556063
0.00169984
0.00100861
0.00386003
0.00360131
0.013891
0.117675
0.0404614
0.101632
0.0697463
0.153491
0.00776493
0.00515852
0.00688254
0.00283517
0.0261947
0.00155146
0.170574
0.00130969
0.0097246
0.150371
0.105269
0.00193745
0.0210902
0.0022213
0.00204818
0.00805642
0.00571115
0.0675392
0.00209334
0.0176909
0.0253275
0.00278294
0.122338
0.0342262
0.0513097
0.00950784
0.0012694
0.017368
0.015121
0.00369026
0.00168342
0.0129196
0.0146804
0.00187582
0.107024
0.00201135
0.150324
0.0315986
0.0030154
0.00639974
0.00552732
0.00531091
0.00969952
0.123106
0.159714
0.00738761
0.0336424
0.102103
0.0183816
0.00371947
0.10578
0.00396578
0.00277294
0.00266432
0.00561192
0.00170987
0.0102712
0.111735
0.00555886
0.0952144
0.0186819
0.00240183
0.00182354
0.00183903
0.00193024
0.0447035
0.0328949
0.00563051
0.0251332
0.0685627
0.00158635
0.00372897
0.00107599
0.00502849
0.00608957
0.0522426
0.0651409
0.00227909
0.0061546
0.0278573
0.156216
0.00366316
0.00431153
0.00161146
0.0359761
0.152154
0.00116892
0.0306982
0.0144572
0.126845
0.00186722
0.146073
0.00169187
0.0816936
0.00494326
0.012267
0.006239
0.0127342
0.0425457
0.0200762
0.149531
0.00311394
0.0288221
0.0015726
0.0270501
0.00277777
0.00174932
0.0139005
0.110218
0.00148314
0.00231653
0.0190043
0.00634024
0.0422407
0.00129771
0.0471176
0.00309943
0.0946962
0.11387
0.00240078
0.0128512
0.101353
0.0111077
0.00153086
0.00174147
0.00201536
0.0711673
0.00140448
0.0860559
0.135529
0.0344798
0.113738
0.125678
0.00202245
0.00219411
0.0369281
0.159413
0.0129174
0.0413457
0.0016953
0.00476799
0.000941321
0.00169772
0.0185471
0.00442965
0.0970452
0.0129874
0.00510125
0.0658494
0.137487
0.0033606
0.00111536
0.00759862
0.00108312
0.00733704
0.0853286
0.0110837
0.00591873
0.00123975
0.0147626
0.0025103
0.00561518
0.116515
0.0016864
0.00153053
0.00120307
0.00260504
0.00247672
0.0178159
0.00281615
0.0369704
0.00295536
0.0184047
0.151784
0.00172965
0.0250344
0.130598
0.0387047
0.029399
0.00165079
0.00388172
0.0751499
0.0107184
0.00136626
0.0262938
0.00154935
0.0227841
0.00565149
0.00182384
0.122548
0.00316621
0.012492
0.0139681
0.00177706
0.0263872
0.00428032
0.0088353
0.00165122
0.0420295
0.00123038
0.0159045
0.00129566
0.00126802
0.00120164
0.0101811
0.0421224
0.0416396
0.179452
0.0111562
0.0978448
0.00158269
0.0155177
0.0145275
0.0111619
0.0210259
0.0792367
0.0185214
0.0180135
0.0232012
0.0173047
0.00168292
0.00310217
0.0158238
0.00866759
0.00218403
0.0305174
0.00167433
0.106638
0.0116974
0.0257117
0.0502091
0.0094749
0.0845677
0.0793827
0.00760479
0.0407368
0.00387557
0.0289145
0.0011591
0.00319073
0.00355414
0.00341601
0.0453961
0.0016131
0.00462502
0.137531
0.0155123
0.028279
0.00188194
0.0225353
0.0077213
0.00294388
0.00142327
0.00658399
0.0411626
0.00208244
0.0033528
0.00232871
0.0130966
0.096382
0.0596395
0.00617908
0.0408895
0.00124538
0.00458013
0.122095
0.00367025
0.00313293
0.0460081
0.00184939
0.00151584
0.00449466
0.0230636
0.00192548
0.00868206
0.114313
0.00109896
0.0138152
0.0462749
0.0700892
0.0146642
0.0110908
0.00165538
0.00144687
0.0113439
0.00160824
0.0143959
0.0462627
0.00415049
0.083601
0.00256958
0.0684096
0.134822
0.0174116
0.0388893
0.00161698
0.00147887
0.00344298
0.00129423
0.00212191
0.0136028
0.0428786
0.029095
0.00381829
0.0598984
0.141917
0.00983925
0.00287822
0.00339975
0.150717
0.0104042
0.0127027
0.0048102
0.00106202
0.0551599
0.0993899
0.0283992
0.00333149
0.0184376
0.00170925
0.0245993
0.153832
0.0572875
0.0655036
0.0215056
0.00403891
0.00180747
0.00164876
0.0116833
0.0895553
0.00263406
0.0327932
0.0027509
0.00139184
0.011611
0.000960315
0.00175091
0.00161402
0.00758467
0.0145166
0.00139364
0.0153397
0.0108343
0.004604
0.00365861
0.038777
0.00156871
0.0466429
0.00199592
0.0026401
0.102072
0.0183014
0.0084815
0.00348759
0.0144965
0.138072
0.0181405
0.024584
0.0242521
0.00205841
0.0944398
0.00220703
0.00123963
0.0460894
0.0146841
0.0110739
0.096403
0.00153804
0.00127695
0.0016529
0.00142237
0.0862796
0.0216225
0.0178523
0.0331668
0.00363133
0.0125997
0.14044
0.00655837
0.0176592
0.00224009
0.0120423
0.0010813
0.0243671
0.0218723
0.00664273
0.00596379
0.00677119
0.0528367
0.00120411
0.00148114
0.00138625
0.00124853
0.00195629
0.00153511
0.00135954
0.0530576
0.0532547
0.041719
0.00343987
0.0102508
0.006972
0.00124005
0.0415635
0.121209
0.0680226
0.00358034
0.100366
0.0195286
0.0186228
0.00186624
0.0211861
0.0764258
0.100554
0.0455737
0.178707
0.00993864
0.00362942
0.00886603
0.00226525
0.0591522
0.0604029
0.00174535
0.00174864
0.00126375
0.00266099
0.00642254
0.00256663
0.0765475
0.00620466
0.0254934
0.0825987
0.0171033
0.00138493
0.0326086
0.00560248
0.00213104
0.0408127
0.0434746
0.0153168
0.00344666
0.15466
0.00178973
0.0466901
0.00353403
0.0990174
0.0395662
0.0215938
0.00463395
0.0296088
0.00278199
0.00108074
0.00363891
0.00199053
0.0463058
0.00133543
0.00293155
0.0637922
0.00270466
0.0345059
0.00643967
0.0367271
0.0448817
0.103287
0.0518579
0.0316316
0.0134685
0.00720482
0.0401831
0.0943039
0.00669409
0.0699231
0.00189468
0.102918
0.0143333
0.0132805
0.00137737
0.00297425
0.0957512
0.00399504
0.120296
0.0152697
0.00660713
0.00302214
0.0101579
0.155745
0.00540617
0.00511477
0.00561444
0.00359979
0.00913659
0.00591137
0.00722197
0.00669485
0.0201929
0.0677577
0.00227129
0.00130848
0.0220616
0.0895868
0.00124751
0.10454
0.0106305
0.0863966
0.00630901
0.0030731
0.0818252
0.00104252
0.020249
0.146003
0.00425311
0.140189
0.00598074
0.0014066
0.0102748
0.0026832
0.0867532
0.16079
0.00727635
0.131102
0.120098
0.0196383
0.0163047
0.00703552
0.00534144
0.0336369
0.00980251
0.0641328
0.0926377
0.127629
0.062642
0.00283177
0.0490529
0.0143331
0.0033504
0.106231
0.114198
0.00136089
0.130534
0.0011465
0.0318878
0.00191659
0.00346685
0.00596151
0.0022668
0.00648416
0.00189637
0.0334604
0.00414072
0.0173392
0.0668254
0.0480532
0.0147055
0.0166078
0.0462804
0.0076918
0.0855837
0.0209802
0.00131044
0.00123021
0.00220002
0.0187649
0.007207
0.00133703
0.00158736
0.10919
0.0215718
0.00223939
0.0457487
0.0117443
0.00211243
0.00174596
0.0184265
0.0110928
0.0276525
0.00315837
0.137249
0.00860345
0.00247808
0.0303548
0.139401
0.00174099
0.00977612
0.00343708
0.00195274
0.00528298
0.0295353
0.0800954
0.0304595
0.00132247
0.0029078
0.00238798
0.00818771
0.0486075
0.00104732
0.0893254
0.00447039
0.0156983
0.0307453
0.0105172
0.0795162
0.0016544
0.0021731
0.074245
0.00691781
0.00863821
0.00239964
0.00961796
0.00766561
0.00331681
0.0131387
0.00304682
0.00582982
0.0888127
0.0120134
0.00434214
0.00246446
0.0837075
0.00250433
0.00943951
0.00754978
0.159073
0.00192669
0.0215745
0.0222744
0.064173
0.00990622
0.0119525
0.00608545
0.162492
0.0286819
0.00655639
0.00122406
0.00875959
0.0920597
0.0292976
0.0134135
0.0039433
0.0898824
0.00569182
0.00209312
0.00830841
0.00189793
0.0118408
0.00123498
0.00358418
0.0460938
0.002747
0.13294
0.0213513
0.0110523
0.0131393
0.00551726
0.00958417
0.00981027
0.0102668
0.0147365
0.0173721
0.103262
0.00559215
0.0227938
0.0145193
0.00297411
0.0184635
0.0144539
0.0887028
0.00143964
0.00587244
0.03245
0.0245147
0.0219724
0.00120657
0.00459052
0.0105894
0.00190672
0.00307515
0.00287928
0.00551098
0.00290255
0.0729613
0.00257523
0.11702
0.0144345
0.00277945
0.00147409
0.00278421
0.00217123
0.0729754
0.00110924
0.0760556
0.00640856
0.0142675
0.00246778
0.00186539
0.0162869
0.151852
0.00366218
0.00744451
0.0666003
0.00152262
0.0733698
0.0180659
0.0220411
0.036015
0.0149349
0.0227711
0.0591295
0.012239
0.00375594
0.0120391
0.00903977
0.0574409
0.00124441
0.0018513
0.119188
0.00329491
0.0186822
0.0122409
0.00237438
0.114744
0.0291669
0.0143188
0.00114951
0.0696046
0.146251
0.0140347
0.00235976
0.120442
0.0132714
0.0112375
0.00294103
0.00949934
0.0117653
0.00444578
0.0720737
0.00322192
0.112019
0.00125097
0.0139683
0.0659109
0.0192095
0.00579381
0.135405
0.0443028
0.00449944
0.00193355
0.0350979
0.00128478
0.11319
0.110628
0.0080341
0.0877767
0.0465485
0.00211639
0.151976
0.01145
0.00530232
0.00164286
0.00303233
0.0559089
0.0141755
0.0141398
0.127295
0.0335933
0.0874116
0.00266399
0.125527
0.00315369
0.00406364
0.10422
0.0683095
0.0155393
0.00392795
0.00332526
0.0065432
0.00735831
0.0199498
0.00139831
0.00623152
0.0150865
0.0114967
0.00668383
0.00568517
0.00132861
0.0117
0.00150254
0.00219846
0.00159639
0.0236893
0.0414842
0.0115376
0.00959804
0.0660356
0.0309246
0.00508441
0.161965
0.0367969
0.0602917
0.0914999
0.0286852
0.0453066
0.00122855
0.13404
0.00199798
0.126528
0.00504492
0.0343661
0.00570955
0.00556833
0.0346356
0.00195852
0.0150311
0.11583
0.00887833
0.0700523
0.0130051
0.0389607
0.00191221
0.022319
0.00984055
0.00366576
0.00221872
0.0149244
0.00245131
0.00331311
0.00802101
0.0452351
0.0313968
0.00526479
0.00801885
0.000983539
0.0718594
0.0019031
0.0406367
0.00504763
0.00194322
0.0123846
0.00271393
0.0223052
0.013965
0.0167682
0.00205292
0.0135724
0.132351
0.00913614
0.00471854
0.022514
0.06072
0.135912
0.00157075
0.162436
0.0149861
0.00182199
0.0139713
0.0471219
0.0084199
0.0201557
0.00222357
0.117439
0.0451519
0.0887298
0.0161765
0.0309414
0.0451313
0.00595683
0.00168745
0.0564465
0.106003
0.00237408
0.0419554
0.00126616
0.0278403
0.00188355
0.0623248
0.0171975
0.139428
0.00145519
0.00193564
0.0111991
0.00495015
0.0151114
0.0512742
0.0967486
0.00188741
0.139838
0.00586696
0.122609
0.010679
0.119957
0.00218296
0.102656
0.00972428
0.136776
0.0036841
0.00252922
0.0653352
0.00806068
0.00191088
0.00587997
0.00237577
0.00263311
0.00405166
0.0259568
0.012555
0.00533298
0.00285046
0.0416592
0.0118695
0.0140221
0.0431795
0.0013348
0.00177206
0.00683834
0.00478236
0.00348574
0.0123795
0.00179864
0.0551518
0.0707486
0.00550453
0.00214116
0.00409299
0.00469516
0.00277929
0.0620519
0.00206102
0.00142601
0.00193174
0.150324
0.00121326
0.00151025
0.00293729
0.00161968
0.00140443
0.00512667
0.0137434
0.00394015
0.016647
0.0495704
0.00290697
0.00614765
0.0981359
0.00129828
0.12113
0.0144019
0.0112741
0.0147918
0.00286704
0.00944011
0.00128096
0.00916754
0.015932
0.00249878
0.00152171
0.00513485
0.0291784
0.0189176
0.00656474
0.00600751
0.114928
0.00995213
0.005893
0.0047375
0.0474834
0.00411677
0.0151328
0.00870771
0.00224476
0.00289371
0.0247886
0.0051213
0.00127549
0.0286513
0.0265873
0.00197679
0.00381388
0.0213462
0.0195488
0.0976127
0.00629123
0.0263172
0.00183615
0.00610678
0.0300325
0.142262
0.00568064
0.0147877
0.00284334
0.00128318
0.0651684
0.066749
0.0124984
0.107633
0.0234268
0.0265025
0.0244586
0.0152338
0.0602741
0.0185665
0.0391195
0.00954731
0.00304009
0.145773
0.0020619
0.000822767
0.0983308
0.00246467
0.00503934
0.00630134
0.0202257
0.00565867
0.0168522
0.00498075
0.0157261
0.0218933
0.149408
0.0011634
0.0168838
0.00187698
0.0217061
0.0417272
0.0886407
0.00614298
0.0564396
0.00856596
0.00696796
0.00233374
0.0843473
0.0029939
0.0028144
0.00143323
0.0728136
0.00523019
0.00198302
0.00285542
0.00299984
0.0270684
0.0350697
0.00406884
0.00276582
0.00286125
0.0117416
0.00313622
0.123801
0.0511762
0.00860871
0.126066
0.0428833
0.00426501
0.153507
0.00461883
0.0602918
0.0013664
0.00214584
0.00214938
0.00137588
0.0014097
0.0384079
0.097257
0.00236725
0.0747373
0.0660993
0.0957371
0.00536757
0.00188746
0.0013941
0.0146286
0.0461176
0.0219268
0.00991547
0.00102872
0.131753
0.00254002
0.0015722
0.132824
0.1087
0.00150892
0.00598773
0.0298929
0.0674579
0.00223519
0.00133469
0.0462388
0.0044879
0.150925
0.00141817
0.00225328
0.0279782
0.00161636
0.00101094
0.00231959
0.0642712
0.0449651
0.139866
0.15351
0.00182531
0.0694289
0.00377157
0.00312038
0.00109117
0.0182336
0.00899577
0.00317012
0.00938175
0.00215166
0.00156166
0.122107
0.0216395
0.0217901
0.00433684
0.00185454
0.107407
0.0012998
0.0125366
0.0106096
0.0172221
0.130682
0.00362248
0.0113075
0.0015088
0.13129
0.00846527
0.0306741
0.00331822
0.025186
0.00154098
0.00243651
0.003705
0.00517355
0.0483673
0.0143312
0.00578012
0.00339765
0.00169478
0.00198558
0.133469
0.00253966
0.00469803
0.00183175
0.0150069
0.0104397
0.0115291
0.0462448
0.00216579
0.0923006
0.0144053
0.00129227
0.0018049
0.00252345
0.00177452
0.0158146
0.00813
0.0690062
0.00152027
0.0161778
0.00192574
0.0683731
0.00217472
0.0799537
0.0988179
0.0137759
0.00879029
0.00973938
0.0407009
0.00144941
0.0101998
0.0571927
0.0115371
0.0013675
0.0033222
0.0527795
0.00159049
0.0212035
0.0119184
0.0153728
0.118645
0.0079667
0.0870263
0.00234687
0.00580114
0.019587
0.0570667
0.00361987
0.0111436
0.056961
0.00239456
0.00319908
0.00369736
0.0864647
0.00321936
0.0917066
0.00432912
0.0140203
0.00515426
0.00293358
0.00120258
0.010008
0.00186797
0.0085002
0.0136221
0.0811874
0.00210166
0.00541789
0.00494829
0.00736558
0.156767
0.00150813
0.00536014
0.00351012
0.00332547
0.00202313
0.00129244
0.00302546
0.00151377
0.0130275
0.00823022
0.0881622
0.0472068
0.0999496
0.00399016
0.0166609
0.0102105
0.00166173
0.0672896
0.113615
0.0111011
0.00496403
0.0188027
0.129916
0.00171705
0.0251823
0.00861598
0.0309587
0.00141285
0.0139011
0.00197441
0.00633203
0.0131524
0.00773365
0.0837904
0.00115783
0.00317152
0.00723778
0.0437493
0.104386
0.00123828
0.00111268
0.00161128
0.0507727
0.00539468
0.0029731
0.0455755
0.101789
0.0458017
0.00186388
0.00342353
0.0122871
0.0194668
0.0200288
0.00209152
0.00500101
0.00337309
0.0196621
0.014347
0.0983493
0.00480555
0.00865226
0.0454197
0.00189139
0.00166186
0.00144799
0.00193445
0.0014536
0.00168697
0.0024279
0.02547
0.065298
0.00217426
0.00121962
0.00268506
0.0303675
0.0114256
0.0545421
0.0540043
0.00262102
0.00212359
0.0077027
0.0558144
0.00325405
0.00627349
0.0100455
0.00141502
0.00275405
0.00355711
0.117003
0.0016948
0.00262571
0.00347513
0.0141644
0.0107705
0.0412359
0.0830454
0.0117004
0.00998541
0.0206835
0.0112734
0.0171289
0.0153662
0.00329744
0.00136336
0.014268
0.0105517
0.00144595
0.00348778
0.0957901
0.00247721
0.00250045
0.00109443
0.010915
0.0428419
0.0157037
0.0213599
0.0130925
0.116666
0.0100244
0.0141026
0.00872399
0.00420404
0.155362
0.0236923
0.00126473
0.00189503
0.001713
0.00308075
0.0049382
0.103039
0.0570485
0.0149564
0.0703254
0.00183756
0.038972
0.156261
0.0848757
0.00187848
0.00210791
0.0286078
0.00849706
0.0158668
0.00984166
0.0156221
0.00769737
0.0116382
0.0114718
0.00127808
0.0193686
0.00142357
0.0110679
0.00161598
0.0166967
0.146834
0.0802586
0.00512457
0.00465158
0.118535
0.00921594
0.0158211
0.00791485
0.00249076
0.00162646
0.00227503
0.147984
0.00266304
0.0114049
0.01111
0.0595936
0.00731699
0.0195961
0.0013307
0.00245817
0.0107061
0.0801185
0.00189339
0.0114757
0.00116699
0.001277
0.00327536
0.0231419
0.0047852
0.00216059
0.00305686
0.00143807
0.00777652
0.045478
0.0110163
0.0466663
0.00249676
0.0143709
0.0148527
0.00296135
0.00183498
0.0565828
0.0490648
0.0014878
0.0109493
0.00167725
0.00994332
0.0536906
0.0110702
0.00309217
0.00815441
0.00272644
0.0110487
0.00283512
0.0187589
0.102419
0.0495986
0.00374195
0.0271108
0.0037893
0.0593228
0.0438127
0.00399283
0.0169128
0.0438564
0.0923499
0.0124396
0.0026895
0.010404
0.0116324
0.0149405
0.00779929
0.0398424
0.00555217
0.014797
0.0109089
0.00508376
0.0180687
0.00539962
0.00714285
0.0530242
0.00715345
0.00158506
0.00141431
0.046087
0.00238923
0.00118836
0.0498243
0.0247362
0.0026322
0.00134591
0.013718
0.001371
0.00331219
0.046477
0.00631311
0.10336
0.0199211
0.00720552
0.00213269
0.00275432
0.00341768
0.00308929
0.00193661
0.00147304
0.0299451
0.00118591
0.0586721
0.00258203
0.00138064
0.0870752
0.128811
0.0013994
0.0417124
0.0823672
0.00312553
0.00191763
0.0044628
0.0190378
0.00126212
0.144931
0.00194654
0.00128081
0.147198
0.00256238
0.0031643
0.00131404
0.00134456
0.00141183
0.00132116
0.0747325
0.0227011
0.00868308
0.00716768
0.0776595
0.00350976
0.0615378
0.00137507
0.00361151
0.00709916
0.00408914
0.00135762
0.00324
0.00357843
0.00570656
0.00153611
0.00363917
0.0203816
0.100767
0.0025573
0.010342
0.0750103
0.00195852
0.0507916
0.00251649
0.0399208
0.00173474
0.0251421
0.0525524
0.00146952
0.0104104
0.00824545
0.0012179
0.00227577
0.00252575
0.0170875
0.00885586
0.021528
0.0110185
0.00477191
0.0109838
0.116554
0.00240056
0.00836802
0.011423
0.00130889
0.0110806
0.010791
0.00407812
0.00516204
0.00983186
0.0526456
0.00420789
0.0818651
0.00519956
0.0027225
0.00114386
0.0728584
0.0113656
0.000985084
0.0316202
0.00802094
0.0153486
0.0109399
0.00212319
0.00736872
0.0212249
0.00191563
0.115876
0.00184029
0.11038
0.0294035
0.00515764
0.00179119
0.0125681
0.0025612
0.00360167
0.0148569
0.0429448
0.0039433
0.0103574
0.00152979
0.0155211
0.00225943
0.00460557
0.014438
0.0155702
0.00608434
0.0116488
0.00504542
0.00766778
0.0103112
0.021754
0.0438447
0.0027256
0.0493361
0.0164042
0.0859424
0.0050715
0.0159912
0.00783962
0.00134532
0.02502
0.00460495
0.108741
0.0390923
0.124735
0.078326
0.0195313
0.0834503
0.00504638
0.00121022
0.00774489
0.00999716
0.0224347
0.0429118
0.00298494
0.0386251
0.00227791
0.00239873
0.00140503
0.00477266
0.0122271
0.0182174
0.127161
0.0129811
0.00452674
0.0109324
0.00134049
0.00894196
0.00163984
0.00276387
0.146062
0.111353
0.00146408
0.0518127
0.0155292
0.00551613
0.00342614
0.0275206
0.00167892
0.10971
0.0187747
0.0556382
0.0307661
0.00429276
0.00462694
0.0367686
0.0143601
0.00917115
0.00951057
0.00682575
0.003088
0.00336469
0.0043124
0.0049532
0.0170016
0.0256717
0.0077285
0.00178361
0.0020854
0.00194444
0.0121461
0.00194177
0.00511128
0.0309224
0.084301
0.00765563
0.096488
0.014952
0.00112156
0.0563087
0.0749335
0.00338239
0.00252523
0.0089186
0.00329119
0.0391078
0.00123603
0.00986896
0.0016697
0.0119232
0.0379993
0.001878
0.00699671
0.0433532
0.0058876
0.135097
0.00489376
0.0156895
0.00637521
0.00200052
0.00942029
0.00225898
0.0608937
0.00185535
0.0276656
0.0162612
0.0260384
0.0102381
0.136002
0.00603684
0.00186057
0.00250266
0.0093315
0.012994
0.00506471
0.0507211
0.122404
0.0321794
0.00269995
0.021955
0.00178383
0.00130988
0.00605077
0.130301
0.00478
0.00390878
0.00455634
0.0121595
0.00125589
0.0496927
0.106796
0.0512319
0.00259018
0.0438159
0.0457517
0.00180717
0.0556015
0.00474299
0.00467894
0.0627957
0.00161891
0.0188373
0.00175851
0.048172
0.00262945
0.0298938
0.00519029
0.00166799
0.00650199
0.0611175
0.0182158
0.00226797
0.0159006
0.00481094
0.015043
0.0189786
0.004835
0.0153432
0.0375402
0.00122843
0.0154995
0.0150895
0.00391099
0.0483676
0.0674924
0.135232
0.0149918
0.0354991
0.0151577
0.00232945
0.000939185
0.00361492
0.00103013
0.00746111
0.0128588
0.00174276
0.0016663
0.0281127
0.000837351
0.00227043
0.00137717
0.00287102
0.0145093
0.00218197
0.00139402
0.00178783
0.00280555
0.00190574
0.00778545
0.00504803
0.0134227
0.0200254
0.155116
0.00273274
0.153113
0.00169988
0.0042304
0.00363896
0.109449
0.00636262
0.00740711
0.0239038
0.149228
0.146743
0.00414961
0.0272336
0.0394893
0.0103745
0.0011953
0.022785
0.00383004
0.11301
0.00394963
0.00591817
0.034047
0.0164794
0.0852407
0.00169199
0.00191876
0.00431967
0.00188338
0.0122278
0.00529277
0.10682
0.0105277
0.156424
0.0345793
0.126064
0.00190832
0.0639363
0.00864502
0.00343958
0.015395
0.0147644
0.0570597
0.00155487
0.00450873
0.00174116
0.00115071
0.00452382
0.00277034
0.00117026
0.00357823
0.00285366
0.00127138
0.00399566
0.00992269
0.00300346
0.00155772
0.0631686
0.00157639
0.00468197
0.00211235
0.12511
0.00741033
0.00201208
0.148573
0.00147553
0.0168929
0.000962149
0.132379
0.0437166
0.00687815
0.00349876
0.0187605
0.0071588
0.062204
0.0451974
0.00130901
0.00222345
0.00170042
0.00799417
0.0422832
0.0291209
0.116888
0.0101727
0.00237907
0.00191214
0.00277619
0.0033748
0.0119667
0.119246
0.130809
0.00126637
0.00140783
0.00419888
0.0153123
0.0198515
0.00551506
0.00151561
0.00155877
0.0820851
0.0647658
0.00146221
0.0255042
0.00348066
0.0142239
0.0376649
0.0149766
0.00850874
0.00136681
0.00122785
0.141448
0.0699778
0.0195132
0.00248332
0.00179137
0.141019
0.00491012
0.00134847
0.113835
0.00263954
0.00191424
0.00179231
0.0717298
0.00157708
0.00145785
0.00899954
0.00303994
0.0206637
0.00259781
0.00333626
0.0214637
0.0588724
0.00147548
0.00274534
0.127692
0.00435912
0.00478572
0.0158864
0.00423069
0.00127289
0.00161025
0.00171278
0.0158934
0.0241869
0.0316312
0.00159478
0.00146393
0.00141074
0.00122303
0.00126826
0.0751039
0.00830675
0.1275
0.124723
0.016042
0.0819713
0.0542972
0.151564
0.00185247
0.00164774
0.000996142
0.00664748
0.0041501
0.00922564
0.0674016
0.11902
0.00123447
0.0935495
0.000911054
0.00189824
0.106368
0.053151
0.0014179
0.0293006
0.00375263
0.0197255
0.0972294
0.0865499
0.00119763
0.0895771
0.00123762
0.00133966
0.106168
0.01025
0.0507585
0.0313701
0.0454936
0.00533527
0.00247686
0.082848
0.00175306
0.00290451
0.0223949
0.053771
0.0260652
0.0256911
0.134822
0.00352484
0.00132663
0.00113403
0.0102361
0.00160807
0.142625
0.021288
0.0317409
0.0044698
0.0211633
0.00222857
0.115753
0.00132951
0.00308558
0.00158163
0.00425507
0.116939
0.0107782
0.04364
0.00131479
0.162612
0.0151352
0.0174836
0.0212191
0.0309479
0.14422
0.0103073
0.00172635
0.0215098
0.029894
0.0293959
0.01075
0.003655
0.137628
0.00152792
0.00186297
0.0252044
0.00186031
0.0014598
0.00244583
0.00205514
0.114959
0.0243048
0.00238574
0.0017537
0.0050576
0.00190528
0.00185085
0.0148214
0.00878228
0.0145989
0.00123701
0.0640583
0.123426
0.00204785
0.00508415
0.00182241
0.0223538
0.149859
0.0688379
0.00131892
0.0063081
0.160413
0.00465277
0.0452941
0.00700024
0.0153769
0.0164116
0.0460096
0.120517
0.0884562
0.0192309
0.00248758
0.00178906
0.104928
0.0586862
0.00153244
0.0420239
0.00594315
0.0160703
0.0165415
0.0109201
0.148822
0.00124314
0.0154866
0.0169594
0.000952
0.00652972
0.0226758
0.0133218
0.036965
0.02992
0.00166301
0.00268992
0.00139753
0.0338038
0.103356
0.00873293
0.01439
0.0677493
0.0111382
0.00152515
0.017191
0.0100774
0.0158024
0.00498884
0.0675833
0.0730924
0.00140557
0.0024436
0.00234523
0.0514316
0.00450155
0.0749231
0.0544209
0.00518791
0.00183614
0.0065041
0.0159249
0.00447262
0.033224
0.0148471
0.00670265
0.0018278