/*--------------------------------*- C++ -*----------------------------------*\
| =========                 |                                                 |
| \\      /  F ield         | OpenFOAM: The Open Source CFD Toolbox           |
|  \\    /   O peration     | Version:  v2012                                 |
|   \\  /    A nd           | Website:  www.openfoam.com                      |
|    \\/     M anipulation  |                                                 |
\*---------------------------------------------------------------------------*/
FoamFile
{
    version     2.0;
    format      ascii;
    class       surfaceVectorField;
    location    "150";
    object      Uf;
}
// * * * * * * * * * * * * * * * * * * * * * * * * * * * * * * * * * * * * * //

dimensions      [0 1 -1 0 0 0 0];


internalField   nonuniform List<vector> 
20642
(
(0.63369 0.0225514 0)
(0.64199 0.023303 2.46645e-20)
(0.659872 0.026599 8.37204e-23)
(0.990989 0.0392829 4.14211e-22)
(0.99107 0.0410169 1.55368e-22)
(0.993072 0.0400204 1.99429e-22)
(1.05154 0.0609077 0)
(1.0515 0.0610819 1.01601e-20)
(1.05194 0.0610155 0)
(1.03145 0.0177667 -4.55242e-21)
(1.0312 0.0184066 -4.22371e-21)
(1.03075 0.017731 -5.95646e-23)
(0.992863 0.0161648 -1.4029e-22)
(0.99321 0.0172269 6.49386e-22)
(0.994038 0.0162813 0)
(0.991487 0.0369189 0)
(0.98936 0.0375484 2.27377e-23)
(1.04219 0.0333407 9.28979e-21)
(1.04153 0.0326985 0)
(1.04138 0.0335894 0)
(1.00362 0.0642981 0)
(1.0026 0.0682533 9.05774e-22)
(1.00772 0.0659499 4.56453e-22)
(1.05391 0.0251419 2.04789e-21)
(1.05318 0.0255218 -3.35304e-21)
(1.05397 0.0261287 7.42882e-21)
(0.000562336 -0.0515186 4.48721e-21)
(0.00600756 -0.054786 -2.82484e-20)
(1.00519 0.0606635 0)
(1.00072 0.0621653 0)
(1.02163 0.0151371 -3.3726e-21)
(1.02172 0.0157057 -4.53452e-21)
(1.02221 0.0152842 -3.95194e-21)
(1.01171 0.000269648 7.52711e-22)
(1.01194 0.000193666 0)
(0.989909 0.0592733 4.74927e-22)
(0.905021 0.0375883 -2.08693e-21)
(0.98066 0.0425978 -1.23948e-21)
(0.995993 0.0231144 -1.16978e-22)
(0.995037 0.0237456 -6.3024e-22)
(0.996325 0.0242029 -7.96333e-22)
(0.619248 0.0213977 1.08009e-20)
(0.580212 0.0164009 0)
(1.01344 -0.000510341 -3.04422e-24)
(1.01317 -0.000543641 3.43594e-22)
(1.00949 -0.000277866 9.71365e-23)
(1.00659 0.0574391 0)
(1.00744 0.0546908 -6.49709e-22)
(1.00401 0.0558669 4.24879e-22)
(1.04868 0.06032 -8.38174e-22)
(1.04896 0.0605827 -3.36233e-21)
(1.04851 0.0607564 -3.35545e-21)
(0.578712 0.0269883 -2.81095e-20)
(0.646511 0.0324985 -1.53837e-20)
(0.649062 0.0356131 -9.13013e-21)
(1.01441 0.0389533 4.15093e-21)
(1.01442 0.0395479 1.60712e-21)
(1.01391 0.0393101 5.17347e-21)
(1.00254 0.00950482 1.08364e-21)
(1.00292 0.0096406 4.29798e-22)
(1.00251 0.009968 -4.76518e-23)
(1.04513 0.0490863 -7.19941e-21)
(1.04574 0.0487764 -1.52937e-20)
(1.04553 0.0496915 1.97673e-20)
(1.00214 0.00923741 5.02609e-22)
(1.00256 0.00897393 -1.05598e-22)
(1.02689 0.0254742 -4.66466e-21)
(1.02728 0.0259956 1.94147e-21)
(1.02657 0.0258695 2.54183e-21)
(1.01246 0.0405143 3.79195e-21)
(1.01286 0.0400848 4.17115e-21)
(1.01223 0.0399322 1.65338e-21)
(0.962394 0.0690922 9.34091e-22)
(0.982069 0.0687281 -3.33246e-22)
(0.97999 0.0634738 7.61158e-22)
(0.0153315 -0.0498377 2.83871e-20)
(1.00946 0.0459221 1.52347e-21)
(1.00982 0.0448866 -1.2774e-25)
(1.00843 0.0451269 0)
(1.04398 -0.000803724 1.07186e-23)
(1.04426 -0.000627405 1.37847e-23)
(1.04364 -0.000610083 9.89328e-23)
(-0.0110012 -0.0335896 -7.45918e-21)
(0.0107973 -0.0417099 8.1142e-21)
(1.0533 0.054505 -9.95663e-21)
(1.05363 0.0548655 5.73716e-21)
(1.05302 0.0548294 1.25688e-21)
(1.02634 0.0203174 -5.09095e-21)
(1.02587 0.0198254 -1.34448e-21)
(1.02652 0.0197618 -1.52997e-21)
(0.703854 0.0333085 1.22553e-21)
(0.723391 0.0361097 -6.90307e-21)
(0.722024 0.0359086 6.9854e-21)
(1.00193 -0.00663346 0)
(1.00226 -0.00693481 0)
(1.00172 -0.00723349 1.1746e-22)
(0.999047 0.0721767 1.38475e-21)
(1.00424 0.0749833 3.54559e-21)
(1.01339 0.0272052 1.76001e-21)
(1.01395 0.0276227 -5.9977e-21)
(1.01322 0.0279834 -3.7013e-21)
(1.00065 6.47988e-05 9.19822e-22)
(1.00262 0.00017439 7.3934e-22)
(1.00042 3.52232e-05 -8.81217e-22)
(1.04283 0.0339479 1.70429e-20)
(1.0429 0.0330488 -5.42267e-23)
(1.01951 0.0432993 8.45543e-22)
(1.01941 0.0440093 4.72148e-21)
(1.02021 0.0436063 3.06996e-21)
(1.01236 -0.000480299 4.0215e-22)
(1.01042 -0.000308567 -2.63441e-21)
(1.01819 4.71254e-05 2.22323e-21)
(1.01426 -0.0184794 8.22916e-22)
(1.01355 -0.0192463 -5.38581e-22)
(1.01319 -0.018229 -1.76469e-22)
(1.05076 0.0205825 6.41438e-21)
(1.04973 0.0209216 -1.95542e-20)
(1.05007 0.0198149 -3.15555e-21)
(1.05066 0.0593323 -8.86008e-21)
(1.05089 0.0592193 3.18128e-22)
(1.05084 0.0595617 -6.43104e-21)
(1.05045 0.0590663 0)
(1.05032 0.0594685 -7.19271e-21)
(1.0354 0.0731892 0)
(1.03547 0.0722957 -9.4625e-23)
(1.03644 0.0733512 4.19673e-21)
(1.01446 0.038211 -2.61441e-21)
(1.01508 0.0385198 2.04388e-21)
(0.203337 0.0307364 9.97176e-21)
(0.339006 0.0395245 5.92858e-22)
(0.327755 0.040677 9.90414e-21)
(0.894059 0.0946531 2.05466e-21)
(0.902524 0.11118 3.18721e-22)
(0.905007 0.0915973 2.34675e-21)
(1.00195 -0.00617949 2.95502e-23)
(1.00154 -0.00647273 -2.19634e-22)
(1.02109 0.0150815 2.52034e-21)
(1.02148 0.0146688 4.41312e-21)
(1.03762 0.0651833 9.99221e-21)
(1.03713 0.0659789 1.11666e-20)
(1.03668 0.0650981 1.21854e-20)
(0.437216 0.0150832 0)
(0.555123 0.0185078 0)
(0.432954 0.0141903 0)
(1.01293 0.0151401 0)
(1.01294 0.0146306 0)
(1.01244 0.0148578 0)
(1.01397 0.0162574 2.80632e-21)
(1.01391 0.0157492 -1.4838e-21)
(1.01446 0.0159131 2.34259e-21)
(1.03807 0.0646183 9.50526e-22)
(1.03835 0.0654469 -1.08018e-20)
(0.185983 -0.00439079 1.37821e-20)
(1.04442 0.0492821 8.62036e-22)
(1.04475 0.0483525 -5.23963e-21)
(1.01485 -0.0176627 3.80525e-22)
(1.01534 -0.0185648 3.22835e-22)
(1.03457 0.0744508 0)
(1.03443 0.0732225 0)
(0.64631 0.061627 1.71733e-20)
(0.556779 0.0597444 -2.02879e-21)
(0.524973 0.0566585 1.83663e-20)
(0.982959 -0.0139213 -6.1824e-22)
(0.982751 -0.0102831 -3.73248e-21)
(0.985704 -0.0118065 1.70655e-22)
(1.02473 -7.33384e-05 -4.68128e-24)
(1.02585 0.000192885 0)
(1.02843 0.000238622 -7.23448e-24)
(1.02725 0.0249418 -4.65543e-21)
(1.02651 0.024916 -2.59171e-21)
(1.03658 0.0633352 2.54618e-21)
(1.03593 0.0642502 -4.79763e-22)
(1.01456 0.0640798 -1.04421e-20)
(1.06871 -0.00903094 0)
(1.06945 -0.00599609 3.10842e-23)
(1.06776 -0.0108237 0)
(1.00908 0.0472401 1.50485e-21)
(1.00873 0.0486434 1.49167e-21)
(1.00736 0.0477176 0)
(0.994981 0.0696035 1.91298e-21)
(0.994896 0.0766274 6.81655e-22)
(1.00923 0.0588888 0)
(0.621104 0.0232593 4.38566e-23)
(0.601702 0.022194 4.47415e-21)
(0.598519 0.0217023 -1.28645e-20)
(1.05685 0.062564 0)
(1.05556 0.0631668 -8.99717e-22)
(1.0597 0.0630811 0)
(0.688507 0.0311379 -3.02428e-21)
(0.687327 0.0316555 1.97862e-21)
(1.03034 0.00873982 3.59235e-21)
(1.03095 0.00904926 -1.11434e-20)
(1.0302 0.00924727 -2.5814e-21)
(1.01532 -0.0169689 -3.25751e-22)
(1.01437 -0.0168536 2.46128e-23)
(1.01447 0.0401568 -6.62421e-21)
(1.01496 0.0398338 -3.33764e-21)
(1.02261 0.0274525 5.0771e-21)
(1.02293 0.0280231 -3.60408e-21)
(1.02216 0.0277314 4.51549e-21)
(0.996491 0.0127311 1.50019e-25)
(0.996457 0.013117 0)
(0.99695 0.0129159 0)
(1.01569 -0.0162391 0)
(1.01627 -0.0169347 0)
(1.02313 0.0269649 -1.6714e-21)
(1.02223 0.0268616 -1.76374e-21)
(1.02622 0.0206291 0)
(1.02675 0.0206438 0)
(1.00682 0.0171787 9.83033e-22)
(1.00639 0.016683 -1.37524e-21)
(1.00702 0.016534 8.87233e-22)
(1.01087 -0.00050082 2.24489e-22)
(1.01127 -0.000511544 8.19221e-23)
(1.00773 -0.000277303 2.02628e-22)
(1.0305 0.00819747 7.85905e-21)
(1.02974 0.00837078 5.97657e-21)
(1.06004 0.0598035 2.26211e-21)
(1.05346 0.0598625 -2.06912e-21)
(1.05437 0.0594583 3.91873e-21)
(1.01179 0.00243674 -2.38761e-21)
(1.01182 0.00275263 2.56359e-21)
(1.01147 0.00258503 -2.39259e-21)
(1.02627 0.0471165 1.78223e-21)
(1.02844 0.0430855 -2.58505e-21)
(1.03024 0.0481498 1.44457e-21)
(1.0537 0.0540117 -1.542e-20)
(1.05293 0.0540847 -3.71916e-21)
(1.01165 0.0014007 -1.73117e-21)
(1.01134 0.00139843 -2.65069e-22)
(1.01098 0.00103005 1.62614e-21)
(1.01967 0.0425008 -4.73199e-21)
(1.01888 0.0428827 -5.12788e-21)
(1.01337 -0.000447378 -1.44701e-22)
(1.0154 -0.000799562 -6.80714e-23)
(1.0187 -0.00135682 6.17581e-23)
(1.0188 -0.00123779 -5.57543e-22)
(1.01933 -0.0015277 1.48841e-22)
(1.05127 0.0215191 -9.91448e-21)
(0.888184 0.0773043 -1.81604e-21)
(0.882477 0.0925477 2.25086e-21)
(1.00482 -0.00776382 -2.721e-22)
(1.00493 -0.00828811 8.4488e-23)
(1.00524 -0.0079232 -2.12013e-22)
(1.01207 0.0194065 -6.0818e-21)
(1.01161 0.0189678 6.91974e-22)
(1.01148 0.0196175 -2.53983e-21)
(1.01048 0.046502 -1.19217e-21)
(0.982532 0.0360817 0)
(0.98248 0.0405261 3.12677e-22)
(0.984695 0.0341698 2.32047e-23)
(1.00609 -0.00037325 0)
(1.00591 -0.000364341 7.32202e-23)
(1.00356 -0.000190104 0)
(1.01184 0.00164288 1.87004e-22)
(1.01186 0.00135928 -1.17133e-21)
(0.999454 0.0495144 -3.49554e-22)
(1.002 0.0483 3.63738e-22)
(1.00016 0.0466664 -1.94421e-21)
(1.02307 3.62839e-05 0)
(1.02296 -6.183e-05 0)
(1.01743 3.87408e-05 0)
(1.02354 1.86582e-05 6.29891e-23)
(1.02623 -0.000384856 -5.87883e-23)
(1.00667 0.017683 -2.12705e-21)
(1.00724 0.0175227 9.4151e-22)
(1.00731 -0.000534372 1.9961e-22)
(1.00703 -0.000497443 3.08069e-22)
(1.00621 -0.00037595 -3.96685e-23)
(0.996627 0.0121021 5.0573e-23)
(0.995961 0.0123558 -7.87065e-23)
(1.04695 0.058756 0)
(1.04793 0.0583002 -1.58784e-20)
(1.05258 0.0578757 0)
(0.741442 0.051763 4.05592e-22)
(0.73583 0.0495086 1.03227e-20)
(0.719446 0.0486954 -5.51369e-21)
(0.984398 -0.0173654 3.2511e-21)
(0.979699 -0.0164759 -4.41148e-22)
(1.01397 -0.0204829 3.59199e-22)
(1.01268 -0.0201551 1.03872e-23)
(0.936548 0.068203 -3.7597e-22)
(0.937989 0.0744362 1.59416e-22)
(1.01911 0.000400811 -9.00878e-21)
(1.01922 0.000434686 3.01782e-22)
(0.746146 0.0392035 -6.11705e-21)
(0.727418 0.0369084 -6.99519e-21)
(1.01016 0.0439171 2.10264e-21)
(1.01087 0.0444482 -9.75397e-22)
(1.03484 0.0631765 2.53431e-21)
(1.0501 0.0639815 -1.35399e-20)
(1.02057 0.0290019 3.15598e-21)
(1.02102 0.029548 -7.87743e-21)
(1.0211 0.0286312 9.47745e-21)
(1.04841 0.059987 3.81984e-21)
(1.04885 0.0599089 3.02613e-21)
(1.02302 -0.000868638 -1.25815e-22)
(1.02414 -0.00103721 3.04553e-22)
(1.02316 -0.00091132 -5.12848e-23)
(1.05138 0.0613561 -5.41712e-21)
(1.0515 0.0611575 0)
(1.05138 0.0611703 0)
(1.03005 0.00480665 -8.55753e-23)
(1.03006 0.00536262 9.12189e-21)
(1.02948 0.00492445 -6.40654e-21)
(1.01253 -0.000752659 -8.38267e-24)
(1.01024 -0.00045891 -1.39871e-23)
(1.01475 -0.0149478 -1.38643e-22)
(1.01438 -0.014343 7.23933e-22)
(1.01509 -0.0144021 -4.03596e-22)
(1.00827 0.0504224 3.19206e-21)
(1.01014 0.0493981 2.40275e-23)
(1.04393 0.0606005 1.96182e-21)
(1.04329 0.060793 9.56349e-21)
(1.04356 0.0600132 9.24023e-21)
(0.571397 0.0177147 -2.95436e-21)
(0.594515 0.021262 7.39253e-21)
(0.57638 0.01838 7.16448e-21)
(1.0618 0.0599132 2.3998e-21)
(1.06251 0.0599456 -5.27346e-21)
(1.02756 0.0244778 -2.84462e-21)
(1.02788 0.0239984 1.03136e-22)
(1.02722 0.0239287 -2.04791e-22)
(1.01398 0.040474 -3.33867e-21)
(1.01448 0.0406925 -1.36219e-21)
(1.00201 -0.000650909 -1.0659e-23)
(1.00213 -0.000965117 -1.25489e-22)
(1.00229 -0.000655843 -1.99493e-22)
(1.04444 0.0602819 -5.50241e-21)
(1.04433 0.060988 -1.66355e-20)
(1.05379 0.0388976 0)
(1.05329 0.0395097 -7.60914e-21)
(1.0542 0.0394984 -2.68333e-21)
(1.01766 0.0742809 3.68324e-21)
(1.01864 0.0728516 4.44708e-21)
(1.0192 0.0748459 -4.85743e-21)
(0.914693 0.0522531 4.73578e-21)
(0.881832 0.050659 3.15814e-21)
(0.887668 0.0506123 -2.30289e-21)
(1.02 0.0294901 3.10463e-21)
(1.02002 0.0285434 1.47614e-21)
(1.05261 0.0565093 0)
(1.05215 0.0567187 1.77082e-21)
(1.05261 0.0569811 0)
(0.893177 0.0664677 -2.31316e-21)
(0.935848 0.0610427 -5.9438e-22)
(0.492773 0.0544132 -9.96344e-21)
(0.592593 0.0574372 -4.35097e-21)
(0.608974 0.0574477 -9.9047e-21)
(0.53761 0.0200967 -7.74441e-21)
(0.534535 0.0195889 -6.77591e-21)
(0.558198 0.0224882 -7.5274e-21)
(1.01165 0.0414533 0)
(1.01208 0.0409302 -1.5817e-21)
(1.01131 0.0409263 -1.0764e-21)
(1.00058 9.50585e-05 0)
(0.840746 -0.0437743 0)
(0.889842 -0.0308398 0)
(0.833346 -0.0716874 -1.4885e-21)
(1.01516 -0.0155868 -1.40777e-22)
(1.01598 -0.0155892 1.41865e-22)
(1.04702 0.0589967 -1.20985e-21)
(1.04343 0.0590986 0)
(1.00612 0.00646227 2.15423e-21)
(1.00602 0.00611867 9.75525e-22)
(1.00582 0.00636569 -6.19655e-22)
(1.02821 0.00832988 6.00593e-21)
(1.0287 0.00870566 4.2761e-21)
(1.02811 0.00888309 1.72979e-20)
(1.01193 -0.0324574 1.9105e-22)
(1.01545 -0.0319692 -5.10728e-22)
(1.01384 -0.0294371 -1.06593e-22)
(1.05334 0.0621141 -7.58198e-21)
(1.06001 0.0621521 1.51395e-21)
(0.767106 -0.189384 -2.10926e-21)
(0.373832 0.0452502 1.37045e-21)
(0.425476 0.0502782 6.95252e-21)
(0.275618 0.0327465 -1.09019e-20)
(1.01341 0.0154756 0)
(1.01288 0.0157331 0)
(1.01982 0.0418318 -2.66365e-21)
(1.0199 0.0411571 -2.63845e-21)
(1.01919 0.0414536 4.21398e-22)
(1.02385 -0.000129749 9.94676e-24)
(1.02466 -8.4964e-05 -1.42617e-21)
(1.02784 -2.63343e-05 -1.74345e-23)
(1.02772 0.00798825 -1.73368e-22)
(1.02826 0.00778847 -1.27917e-20)
(0.977819 0.0405515 0)
(0.977323 0.0328556 3.5232e-22)
(0.997997 0.00732142 -2.14562e-22)
(0.99751 0.00766125 5.50184e-23)
(0.997439 0.00706472 1.23364e-22)
(1.0076 -0.000616078 -1.85033e-22)
(1.00775 -0.00082146 -5.39154e-22)
(0.869691 0.0509595 -1.0965e-20)
(0.862637 0.0498629 -5.25036e-21)
(0.838984 0.0486392 -5.12074e-21)
(1.02037 -0.000393003 -2.7368e-24)
(1.0206 -0.000392841 -8.79782e-23)
(1.01517 -0.000231131 -8.12151e-24)
(1.0226 -0.000764247 -5.90412e-23)
(1.02081 -0.00070302 6.10836e-22)
(1.00981 0.00501065 2.88652e-22)
(1.00985 0.00535001 3.15348e-21)
(1.00949 0.00510487 -5.07525e-21)
(0.948292 0.0717095 7.16096e-21)
(0.960329 0.0719663 6.14668e-21)
(0.920488 0.0690354 -5.20895e-22)
(1.00754 0.0306736 1.49709e-21)
(1.00842 0.0303039 0)
(1.00749 0.0297581 0)
(0.84345 -0.00756382 0)
(0.754646 0.061145 -2.86213e-21)
(0.748828 0.0619028 -1.35061e-20)
(0.782835 0.0628148 -3.32257e-22)
(0.992622 0.0477745 3.21955e-22)
(0.995102 0.0493791 7.06148e-23)
(0.995356 0.0462585 2.33309e-22)
(0.438718 0.0135211 0)
(0.402923 0.0513304 -1.11655e-20)
(0.531555 0.058735 3.19508e-22)
(0.419418 0.0526026 1.13014e-20)
(1.03429 3.44806e-05 7.11288e-23)
(1.03449 2.04013e-05 3.7005e-23)
(1.03437 7.71694e-05 1.99905e-24)
(1.01118 0.042025 -4.8093e-26)
(1.01191 0.0419144 -6.25838e-22)
(1.00165 0.00925511 0)
(1.00114 0.00925757 0)
(1.00155 0.00970873 0)
(0.908657 0.0512418 -1.1854e-20)
(0.91306 0.0519265 -1.85474e-21)
(0.878359 0.0490999 9.02396e-21)
(1.05392 0.0241872 -7.69386e-21)
(0.784293 0.0621435 7.54419e-21)
(0.727727 0.0597073 -5.6466e-21)
(0.753449 0.0626651 -1.41458e-20)
(1.03102 0.0583727 5.6694e-21)
(1.03168 0.0578594 5.00926e-21)
(1.03168 0.0589202 -4.41654e-21)
(1.02238 -0.000189694 -1.55916e-22)
(1.02545 -0.00028327 -2.55503e-22)
(1.02157 -0.000145116 5.50247e-22)
(1.03213 0.0179125 -3.30632e-21)
(1.03173 0.0172793 0)
(1.03682 0.0667516 -8.26691e-21)
(1.03657 0.0676651 -6.62778e-21)
(1.03592 0.0668398 -8.59021e-21)
(1.05426 0.0381312 0)
(1.05336 0.0381529 3.47504e-21)
(1.00757 0.0316136 -1.3173e-21)
(1.00667 0.0309864 1.24539e-21)
(1.04896 0.0211158 -1.48555e-20)
(1.04831 0.0204002 5.25808e-21)
(1.04794 0.0214012 1.18556e-20)
(1.00176 0.00885744 2.94961e-22)
(1.02066 0.0149861 7.78534e-22)
(1.02074 0.0154482 7.07982e-22)
(1.04191 0.0687836 1.32331e-20)
(1.0423 0.0682302 -7.6625e-21)
(1.0424 0.0689732 0)
(1.05125 0.061563 -4.73422e-21)
(1.05131 0.0615754 -1.63961e-20)
(1.01575 0.0737603 -6.14129e-22)
(1.0161 0.0761602 4.24251e-21)
(1.0205 0.0144968 0)
(1.02013 0.0148821 -1.28667e-21)
(1.04185 0.0695587 2.2655e-21)
(1.04109 0.0688047 3.01115e-21)
(1.04424 -0.00100717 0)
(1.04354 -0.000958327 1.20996e-23)
(1.02348 0.0492846 0)
(1.0228 0.0455062 8.58418e-22)
(1.03006 0.0580144 -4.03364e-21)
(1.03022 0.059164 8.78965e-21)
(1.05027 0.0587655 -7.02429e-21)
(1.05063 0.058658 -8.50043e-21)
(1.04292 0.0662518 7.16923e-21)
(1.04302 0.0655911 0)
(1.04234 0.0658201 0)
(0.645308 0.024344 1.78246e-20)
(0.665969 0.0285788 -9.13013e-21)
(0.647552 0.0263916 -1.85246e-20)
(1.00443 -0.00770667 -3.56759e-22)
(1.0047 -0.00737069 -1.77502e-22)
(0.58516 0.0208592 0)
(0.603006 0.0225422 -7.38738e-21)
(0.580424 0.0192869 0)
(1.02942 0.0332093 3.8612e-21)
(1.02893 0.0336939 -3.35422e-21)
(1.02877 0.032937 -2.80882e-21)
(0.947397 0.0533738 5.84223e-21)
(0.942401 0.0531786 3.96585e-21)
(1.00257 -0.0073006 -3.12055e-22)
(1.0028 -0.00675061 0)
(0.998497 0.00698872 -2.96898e-23)
(0.998579 0.00753973 -2.38283e-22)
(1.01516 0.0371232 1.2796e-21)
(1.01582 0.0373081 0)
(1.01566 0.0365722 0)
(0.602616 0.0214455 -4.39155e-22)
(0.60307 0.0221027 3.81068e-21)
(0.624911 0.0236486 3.90501e-21)
(0.53756 0.0197572 -8.70551e-22)
(0.502163 0.0174379 3.86952e-22)
(1.01104 0.0249465 -9.05303e-22)
(1.01095 0.0256511 -2.86705e-21)
(1.01032 0.0251618 -3.23645e-21)
(0.989068 0.0777835 4.5895e-21)
(0.991189 0.0747507 -7.47194e-23)
(0.992955 0.0802886 1.23376e-21)
(1.00574 0.0406958 5.4624e-22)
(1.0046 0.040445 -3.48064e-22)
(1.00559 0.0394867 1.68582e-21)
(1.02045 0.0421801 0)
(1.01437 -0.0155284 -1.34919e-22)
(1.03767 0.06668 7.01526e-21)
(1.00606 0.016152 -5.57931e-22)
(1.00579 0.0167354 -1.33571e-21)
(1.00404 -0.00115621 0)
(1.00421 -0.00113691 2.10204e-22)
(1.00414 -0.00139233 0)
(0.990694 0.0230151 -2.88276e-22)
(0.989519 0.0216289 -2.80468e-22)
(0.9919 0.0213346 -2.05724e-22)
(0.990048 0.0249469 -2.73644e-22)
(0.992766 0.0244378 1.03106e-23)
(0.503443 0.0485834 -3.7324e-21)
(1.05263 0.0561387 -8.69982e-21)
(1.05301 0.0563501 -9.67456e-21)
(1.01265 0.0409765 -3.02844e-21)
(0.898742 0.0619752 -1.37283e-20)
(0.895757 0.0625402 -8.93922e-21)
(0.928493 0.0641029 -1.83255e-20)
(1.00588 0.000519473 0)
(1.00505 0.000470024 0)
(1.00658 0.000584202 8.9701e-22)
(1.02178 -0.00890722 1.67767e-22)
(1.02155 -0.00916274 3.11038e-23)
(1.02135 -0.00862728 -7.15694e-23)
(1.02219 -0.00917333 -1.6256e-22)
(1.02197 -0.00864079 2.57837e-23)
(0.38886 0.0492675 -1.8667e-20)
(1.0425 0.0677388 -8.92879e-21)
(1.04276 0.0668823 7.59214e-21)
(1.04196 0.0672953 -5.32873e-22)
(1.04199 0.0702422 -1.25476e-20)
(1.04198 0.0710003 0)
(1.04113 0.0703261 2.83536e-21)
(1.0182 0.00201741 3.94057e-22)
(1.01836 0.00226605 3.39582e-21)
(1.01849 0.00199307 2.98288e-21)
(1.0237 -8.56273e-05 -3.5622e-22)
(1.01838 -0.000118084 -8.67455e-23)
(0.840101 0.0753278 -1.66029e-21)
(0.835602 0.0685413 4.67891e-21)
(0.588326 0.021658 7.97333e-21)
(1.02078 -0.00748862 -1.53291e-22)
(1.02103 -0.0077491 4.17117e-23)
(1.02058 -0.00773582 -1.01025e-22)
(1.02046 -0.00715453 5.33285e-22)
(1.02094 -0.00722717 -7.69268e-23)
(1.01671 -0.000765836 1.66328e-21)
(1.00894 -0.000268796 1.30236e-23)
(1.02262 -0.00944924 -3.66737e-22)
(1.02241 -0.00972299 -2.04127e-22)
(1.02307 -0.00972978 -1.76462e-22)
(1.02283 -0.00919317 -3.11733e-22)
(0.670892 0.0283739 -2.06585e-22)
(0.683997 0.0304909 -2.01221e-20)
(0.605804 0.0579551 7.11908e-21)
(0.599376 0.0572087 0)
(0.669956 0.0573104 0)
(1.00451 0.0129787 -1.73932e-21)
(1.00465 0.0125536 -1.8783e-21)
(1.00493 0.0129669 -6.60362e-22)
(1.03613 -8.06853e-05 -3.76175e-24)
(1.03648 -0.000119733 2.07144e-23)
(1.03617 -0.000174276 -1.92522e-24)
(1.03816 0.0590457 0)
(1.03729 0.059102 0)
(1.03775 0.0584096 0)
(0.669694 0.0298271 5.51195e-21)
(0.655783 0.0276284 -1.25824e-20)
(0.673231 0.030203 1.37877e-22)
(1.01968 -0.000627932 1.29752e-22)
(1.01682 -0.000323142 1.37008e-22)
(1.01711 -0.000352532 -2.51821e-22)
(1.01792 0.00208346 -3.11112e-21)
(1.01803 0.00180911 -3.58514e-21)
(0.984603 0.0736291 -1.81976e-21)
(0.967111 0.0800869 -1.83328e-21)
(1.04689 0.0593363 -1.13838e-21)
(1.04695 0.0597902 9.2331e-21)
(1.04289 0.0598719 -8.04541e-21)
(1.04296 0.0679072 -4.18011e-22)
(0.903982 0.0617796 8.37737e-21)
(0.871807 0.0593141 4.61519e-21)
(1.03093 0.0637454 6.35551e-21)
(1.02989 0.0636809 1.29235e-21)
(1.03032 0.0646262 -5.38608e-21)
(1.00636 0.00652719 1.14214e-21)
(1.0062 0.00676984 -7.7824e-23)
(0.64193 0.059783 -1.20886e-21)
(0.649678 0.0591683 -1.29571e-21)
(1.0389 0.0592173 0)
(1.03834 0.0598885 -9.80555e-21)
(1.01049 0.0432421 3.1336e-21)
(1.00952 0.0434493 5.30977e-22)
(1.04769 0.0564304 5.41061e-21)
(1.04756 0.0568682 6.32496e-21)
(1.04809 0.0567717 -2.53197e-21)
(1.0111 0.024276 -3.91972e-23)
(1.01172 0.024688 -8.27173e-23)
(0.634562 0.0570968 1.95115e-20)
(1.0301 0.00584865 4.82177e-21)
(1.02963 0.00593874 -5.12451e-21)
(1.03012 0.00637268 2.78896e-21)
(1.02711 0.0472653 9.81479e-22)
(1.02672 0.0477247 7.14952e-21)
(1.02754 0.0477157 3.21459e-21)
(1.03194 0.0571563 1.75582e-21)
(1.03238 0.056185 -8.28806e-21)
(1.03131 0.0563748 -1.34366e-20)
(1.00364 0.0129855 6.14206e-22)
(1.00412 0.0129677 -9.72371e-23)
(1.00375 0.0125882 -4.56632e-22)
(1.01069 -1.52058e-05 -1.43726e-21)
(1.02792 0.0250237 -7.69691e-23)
(0.988912 0.0121583 1.61777e-22)
(0.989712 0.0109946 -3.00764e-22)
(0.988183 0.0106461 1.59829e-22)
(1.00513 -0.0107216 -3.93236e-22)
(1.00456 -0.010594 -5.59305e-22)
(1.00476 -0.0111723 -2.38766e-22)
(0.631944 0.0269092 7.44729e-21)
(0.617603 0.02485 1.97723e-22)
(0.613137 0.0244014 7.33725e-21)
(0.903312 0.198654 -3.24073e-22)
(0.934627 0.193133 1.41097e-21)
(0.939335 0.189313 -2.72405e-22)
(1.01198 -0.0132758 -5.24689e-22)
(1.0118 -0.0127789 -3.81678e-22)
(1.01235 -0.0129274 2.90665e-22)
(1.02005 -0.00695382 1.73628e-22)
(1.02023 -0.00668861 1.66838e-22)
(0.997613 0.00824159 -1.99217e-22)
(0.996991 0.00803581 -3.61009e-23)
(1.01986 -0.00722017 0)
(1.01969 -0.00676993 -5.69253e-23)
(1.03067 0.00575986 5.42253e-21)
(1.01516 0.000420811 -1.40068e-22)
(1.01112 0.000261239 7.11528e-22)
(1.03773 0.0447031 -1.37265e-20)
(1.03802 0.0454959 0)
(1.03716 0.045442 0)
(1.01214 -0.0138215 1.05999e-23)
(1.01158 -0.0135914 -9.28218e-23)
(0.54285 0.0211023 1.07331e-20)
(0.562758 0.0242234 2.65334e-21)
(0.74513 0.0537962 -8.60759e-21)
(0.765703 0.0553317 -1.00152e-20)
(1.0176 0.0122697 -4.10707e-21)
(1.01789 0.011888 2.61372e-21)
(1.01729 0.0118336 4.18074e-21)
(0.992705 0.0103654 0)
(0.992156 0.0111916 3.07778e-22)
(0.993213 0.0112307 1.83614e-22)
(1.03372 0.0755008 -1.56727e-21)
(1.03276 0.0758463 5.8754e-21)
(1.03315 0.0767318 9.84687e-21)
(1.02805 -0.00880914 0)
(1.02856 -0.00902653 0)
(1.02821 -0.00849991 8.99242e-23)
(1.00514 0.046931 1.78916e-21)
(1.00411 0.0477991 3.18253e-21)
(1.00593 0.0483025 -1.4402e-21)
(0.651427 0.0297365 0)
(0.646677 0.0291707 0)
(1.02758 -0.00859936 -1.42431e-22)
(1.02789 -0.00913488 0)
(0.63946 0.0256154 -1.77964e-20)
(0.635344 0.025077 1.07467e-20)
(1.00567 -0.0107901 7.33818e-22)
(1.00548 -0.0102813 1.62113e-22)
(0.982079 0.0730085 -5.62162e-21)
(0.944758 0.0716268 0)
(1.02244 -0.000189558 0)
(1.01682 -9.83199e-05 0)
(0.997715 0.022007 2.73886e-22)
(0.997535 0.0210393 -1.97867e-22)
(0.998509 0.0213911 2.81613e-22)
(1.0032 0.0130203 1.38277e-22)
(1.00354 0.013416 -2.77187e-22)
(1.00504 0.00551711 -5.78289e-22)
(1.00492 0.00517912 -1.27691e-22)
(1.0052 0.00528131 3.36826e-22)
(1.04741 0.0640733 -4.85959e-21)
(1.0473 0.0635449 -4.23797e-21)
(1.04788 0.0637352 -1.02959e-20)
(1.0036 6.75573e-05 7.93365e-22)
(1.00349 6.9909e-05 -4.2354e-22)
(1.00162 3.67973e-05 -1.88694e-23)
(0.990007 0.0455461 -8.60322e-23)
(0.989728 0.0500149 9.76297e-22)
(1.0265 0.0371348 0)
(1.02595 0.0376568 0)
(1.02588 0.0368115 -2.2043e-21)
(1.00847 -0.031947 2.26466e-22)
(1.01008 -0.035808 -1.51561e-21)
(0.995292 0.0764628 -2.24707e-21)
(0.992084 0.0738529 -2.39264e-21)
(0.99635 0.0720901 -4.27196e-23)
(0.524198 0.0190872 8.02017e-21)
(1.02133 -0.000870145 9.45597e-23)
(1.02158 -0.000802347 -2.43601e-23)
(1.04083 0.0520599 1.11036e-22)
(1.04132 0.0526277 -1.49644e-20)
(1.0416 0.0518595 -1.3978e-20)
(0.990656 0.0144576 -3.0233e-22)
(0.989668 0.0133297 0)
(0.991183 0.0132364 -1.50669e-22)
(1.01953 0.0298811 3.33682e-21)
(1.01898 0.0302415 3.26444e-21)
(1.01901 0.0294073 3.32366e-21)
(0.991837 0.0154902 -4.56493e-22)
(0.992949 0.0147982 4.29469e-22)
(1.02356 0.0265902 2.34766e-21)
(1.02383 0.0271707 6.28804e-21)
(1.00503 -0.00877035 3.5306e-22)
(1.00516 -0.00926154 -6.71652e-23)
(1.00549 -0.00891721 1.18073e-22)
(1.00466 2.28262e-05 5.68184e-22)
(1.00353 3.40355e-05 -1.74662e-23)
(1.03402 0.0673618 -5.44566e-21)
(1.03484 0.0681672 -1.04547e-20)
(1.03497 0.0670155 0)
(1.0038 -0.0220532 -4.88788e-22)
(1.01188 -0.0243448 -1.09503e-21)
(1.00674 -0.0174872 -1.25035e-21)
(1.02766 0.0465868 -2.63229e-21)
(1.02672 0.0466469 -3.2871e-21)
(1.02402 0.0261945 -9.43305e-22)
(1.02328 0.0260646 2.43853e-21)
(1.01771 0.00207942 2.57105e-21)
(1.01758 0.00183695 1.80436e-21)
(1.01744 0.00206978 -1.71564e-22)
(0.876945 0.0510289 -5.33703e-22)
(0.902997 0.0521644 -5.70714e-21)
(0.593905 0.0196125 -1.76906e-22)
(0.552777 0.0196935 -7.06124e-21)
(1.00255 -0.00181726 0)
(1.0027 -0.00210119 -1.29876e-22)
(1.00281 -0.0017873 -1.19261e-22)
(1.05058 -0.0261391 -2.67689e-23)
(1.05522 -0.028686 1.29891e-21)
(1.0541 -0.0236033 1.81616e-21)
(1.02007 0.0303153 5.8435e-23)
(0.973884 0.0672615 1.27612e-21)
(0.965234 0.0614225 -6.14873e-22)
(0.97346 0.056975 -5.97212e-22)
(1.05294 0.0602795 -1.7301e-21)
(1.05274 0.0604841 -9.60532e-21)
(1.05311 0.0605025 -1.63985e-20)
(0.773302 0.0526583 -6.23712e-21)
(0.756792 0.0495902 6.83001e-21)
(0.747711 0.0490913 0)
(0.802999 0.0631697 1.80486e-20)
(0.823685 0.0625745 9.608e-21)
(1.06974 0.0039255 2.50505e-23)
(1.07005 -0.00089399 8.05442e-23)
(1.07049 0.00277302 3.36426e-22)
(1.02002 0.071397 0)
(1.01844 0.0706006 0)
(0.993274 0.0096257 6.48316e-23)
(0.99233 0.00937301 0)
(1.05057 0.0598086 8.04097e-21)
(1.05302 0.0601388 -4.02424e-21)
(0.974651 0.0806473 1.05452e-21)
(0.98484 0.0724038 9.69491e-22)
(1.05153 0.0607564 0)
(1.05158 0.0608055 0)
(1.01515 0.00051084 3.10982e-23)
(1.01077 0.000139507 0)
(0.996851 0.0225746 -1.14389e-22)
(0.995748 0.022029 -2.79187e-22)
(0.985895 0.0680752 -2.32959e-21)
(0.999749 0.00886542 2.74282e-22)
(1.00024 0.00897866 0)
(0.999853 0.00934479 0)
(0.9917 0.0430475 9.38721e-22)
(0.989337 0.0423609 -1.04771e-22)
(1.05009 0.0584781 -6.8439e-21)
(1.04992 0.0589039 1.61037e-21)
(1.01531 -0.000609965 3.19022e-23)
(1.015 -0.000579754 2.33841e-22)
(1.01115 -0.000348758 1.81044e-22)
(0.932668 0.0539495 -4.22691e-21)
(0.900938 0.0510198 -5.33931e-21)
(1.01177 0.0018689 1.60343e-21)
(1.01175 0.00219181 0)
(1.0115 0.00201 1.25173e-21)
(1.06119 0.0449465 0)
(1.06161 0.0457645 0)
(1.03499 -0.010249 6.46158e-23)
(1.03515 -0.0100105 -4.17801e-27)
(1.03547 -0.0103712 -2.82638e-24)
(0.442952 0.0232579 -1.95702e-21)
(0.458914 0.0196384 1.27832e-20)
(1.0052 0.000133417 -3.61463e-22)
(1.00522 1.93718e-05 0)
(1.00526 0.000122377 -1.91951e-22)
(1.02818 0.0461187 0)
(1.02787 0.0454876 -6.04414e-21)
(1.02868 0.0455947 0)
(1.00614 0.0415945 -4.05632e-22)
(1.00688 0.0406251 -5.49817e-22)
(1.06853 0.00733958 3.64052e-23)
(1.06672 0.00385073 -4.91024e-23)
(1.01758 -0.000750842 -2.28204e-22)
(1.01581 -0.000560748 1.64081e-22)
(1.04853 0.0566735 -7.33516e-21)
(1.04903 0.0566327 -6.93872e-22)
(1.04875 0.0562145 -3.27676e-23)
(1.04677 0.0579745 5.28285e-21)
(1.04497 0.0582198 -3.08098e-20)
(1.04699 0.0578849 -2.14124e-21)
(1.01303 0.0188886 1.39151e-21)
(1.01253 0.0191846 -2.37819e-21)
(1.01263 0.0184324 -3.33714e-22)
(0.999244 0.00873789 -3.11025e-22)
(0.999695 0.00837946 2.716e-22)
(0.765184 0.0411382 5.86967e-21)
(0.768964 0.0418566 -7.15216e-21)
(1.04686 0.0580957 -3.14335e-21)
(1.04679 0.0579126 3.07174e-20)
(1.04392 0.0584594 2.34615e-20)
(0.983536 0.0746119 -1.41728e-20)
(1.00433 0.0749153 0)
(0.965911 0.0746514 4.94528e-21)
(1.04489 0.0795565 2.51088e-21)
(1.00417 0.0838191 -1.26558e-20)
(1.02707 -0.00841087 -2.84502e-22)
(1.02727 -0.00808667 -2.97386e-22)
(1.00597 0.0138524 -6.65274e-22)
(1.00611 0.0133818 2.14484e-23)
(1.00642 0.0137907 2.17452e-21)
(1.04695 0.0602812 -6.2815e-21)
(1.04704 0.0609006 -5.13382e-21)
(1.04244 0.060923 -1.59846e-20)
(1.02146 0.0703036 0)
(1.0211 0.07247 -1.56574e-21)
(1.02689 -0.00876906 -1.19676e-22)
(1.02656 -0.00828246 -1.14542e-22)
(0.99012 0.0159034 3.4642e-22)
(1.01717 0.0150453 -1.05361e-21)
(1.0173 0.0155542 -1.03358e-21)
(1.01682 0.0152801 -2.20033e-21)
(1.01319 0.0427389 3.00091e-21)
(1.01292 0.0426297 -1.37159e-21)
(1.0129 0.0428822 2.63291e-21)
(1.02848 0.0466779 0)
(1.04227 0.0639634 -1.30387e-22)
(1.04249 0.0633101 6.84842e-21)
(1.04179 0.0634339 -2.78275e-21)
(1.02309 0.0639022 3.71481e-21)
(1.02275 0.0626936 2.24611e-22)
(1.02412 0.0629284 0)
(1.00653 0.0461042 0)
(1.00484 0.0451336 0)
(1.05872 0.0449942 -5.37647e-22)
(1.05798 0.0452248 0)
(1.05845 0.0458571 0)
(0.707995 0.0357126 0)
(0.690148 0.032493 -2.07706e-20)
(0.704569 0.0348299 0)
(1.00173 -0.000666646 1.6254e-22)
(1.0019 -0.000356066 2.69672e-22)
(1.01345 0.0193809 0)
(1.01355 0.0186123 6.07513e-22)
(0.992632 0.018009 4.98607e-22)
(0.99389 0.0180379 5.09851e-22)
(1.04943 0.0637481 -2.38612e-21)
(1.04975 0.0633524 8.50413e-21)
(1.04971 0.0638957 1.29423e-21)
(1.01648 -0.000511955 -2.0724e-23)
(1.0119 -0.000211699 -1.48059e-22)
(1.01663 -0.000503386 1.25052e-22)
(0.602423 0.0218184 1.2936e-20)
(1.05946 0.0449221 -5.60097e-22)
(1.05887 0.0443363 -8.60519e-21)
(0.893886 0.0387876 8.48897e-22)
(0.891472 0.0320279 -1.44444e-21)
(1.01356 0.0165362 3.25718e-21)
(1.01411 0.0166965 -2.83259e-22)
(1.0214 0.0678265 3.90721e-21)
(1.02218 0.0691457 3.19657e-21)
(1.02294 0.0676853 -7.33638e-22)
(1.04695 -0.0285421 7.45644e-23)
(1.04769 -0.0239659 0)
(0.884498 0.0610168 -4.09068e-21)
(0.88408 0.045403 3.81806e-23)
(0.873395 0.0540817 -5.82447e-21)
(1.01898 -0.0198219 -3.53868e-22)
(1.01794 -0.0202349 -4.93974e-22)
(1.01823 -0.0191131 -6.89046e-22)
(1.04285 0.0702233 -3.18789e-21)
(1.03444 0.0752869 0)
(1.00554 0.0428804 -1.2476e-21)
(1.00687 0.0426017 2.43031e-21)
(1.01731 0.0125873 -1.99629e-21)
(1.0179 0.0126855 -1.24691e-21)
(1.05046 0.0662494 8.05573e-22)
(1.05025 0.0666707 -4.7277e-21)
(1.05051 0.0666925 6.64531e-21)
(1.03653 -0.0109585 -6.20303e-23)
(1.03671 -0.0108953 -6.34544e-23)
(1.03632 -0.0106726 1.70281e-22)
(0.759441 0.0616151 -2.23649e-21)
(0.712583 0.06086 0)
(1.04346 0.066593 6.59665e-21)
(1.01999 -0.0205386 -1.80725e-22)
(1.01993 -0.0193955 -1.76863e-22)
(0.89604 0.0654208 -3.36956e-22)