/*--------------------------------*- C++ -*----------------------------------*\
| =========                 |                                                 |
| \\      /  F ield         | OpenFOAM: The Open Source CFD Toolbox           |
|  \\    /   O peration     | Version:  v2012                                 |
|   \\  /    A nd           | Website:  www.openfoam.com                      |
|    \\/     M anipulation  |                                                 |
\*---------------------------------------------------------------------------*/
FoamFile
{
    version     2.0;
    format      ascii;
    class       volVectorField;
    location    "550";
    object      ddt0(U);
}
// * * * * * * * * * * * * * * * * * * * * * * * * * * * * * * * * * * * * * //

dimensions      [0 1 -2 0 0 0 0];


internalField   nonuniform List<vector> 
13917
(
(0.0214449 0.000898721 3.45127e-19)
(-0.00286854 0.00621341 -1.12295e-18)
(-0.00157027 0.00589899 6.15724e-18)
(0.000430037 0.00277916 5.16569e-18)
(0.00141616 -0.000737725 -2.48753e-19)
(-0.00295772 0.00680583 1.07743e-18)
(0.00165059 0.00401819 1.63993e-18)
(-0.0100826 -0.00437053 -3.57258e-19)
(0.00226911 0.00336369 -1.45347e-17)
(0.00150664 -0.00811079 9.03148e-18)
(-0.00856144 -0.00313403 -1.64765e-18)
(-0.000667047 0.00242485 -2.91104e-18)
(-1.44276e-06 2.9067e-05 -4.68374e-18)
(0.00676675 0.0310756 -3.04041e-18)
(-0.00708294 0.00597264 -5.22728e-19)
(0.021607 5.11822e-05 -1.40385e-18)
(0.00121406 -3.04029e-05 -2.5239e-20)
(-0.00913956 0.000992879 -6.48278e-19)
(-0.0011106 0.00375335 9.35547e-18)
(0.0294053 0.00294109 9.42606e-18)
(-0.00285221 0.00799888 -1.04801e-18)
(-0.00392734 0.000510519 2.56268e-19)
(0.00167202 0.00399415 1.78262e-18)
(-0.00391735 0.000419655 4.22904e-19)
(-0.000101455 0.00393048 2.34187e-18)
(-0.0038921 0.00810537 7.30878e-20)
(0.0196306 0.031333 1.37341e-18)
(3.99509e-05 -0.0060951 -1.13338e-17)
(-0.00716797 0.0067549 1.3981e-19)
(-0.00236046 0.00198093 -2.28824e-20)
(0.00462532 -0.0056412 1.47181e-17)
(0.00148552 0.00495123 1.06087e-18)
(-0.000216057 0.00308775 -8.27327e-18)
(0.010815 0.0050319 9.95789e-18)
(-0.00249819 -0.00248548 1.8734e-19)
(-0.0090448 -0.00873906 1.22333e-18)
(-0.00260353 0.00474003 1.33183e-18)
(-0.00139825 -1.27056e-05 5.47527e-19)
(0.00167486 0.00399983 2.98341e-18)
(0.000907225 0.00862604 -2.05214e-18)
(0.000640569 7.58422e-06 2.05694e-21)
(0.00495409 -0.00135682 3.98471e-20)
(0.00197848 0.00294607 -3.06745e-18)
(-0.000707304 0.00471516 1.20586e-18)
(-0.000628737 0.00458158 7.32813e-18)
(0.00584335 -0.0105514 2.84728e-19)
(-0.00259916 0.00765727 1.83021e-19)
(0.0531796 0.0237475 1.19427e-17)
(0.0378406 -0.0552192 4.29556e-19)
(-0.00242808 -0.00228067 2.80094e-19)
(-0.000724241 0.00235929 3.30698e-20)
(0.00285363 -0.00214664 -1.53891e-18)
(0.00793705 -0.00120111 -4.95093e-19)
(-0.00221626 0.00226925 -1.3796e-20)
(-0.00203707 0.00248839 -1.64117e-18)
(0.0022166 -0.00182302 1.96967e-18)
(-0.00649189 -0.00340867 -1.54117e-17)
(0.0017543 0.00400147 -2.9043e-18)
(0.00464461 -0.00125007 -1.06178e-19)
(0.00751687 -0.0108736 -7.04189e-18)
(-0.0333958 -0.0160185 1.04998e-18)
(-0.0189353 0.0082206 3.89147e-20)
(-0.000597452 8.89273e-05 -1.85215e-20)
(-0.000119726 0.00383403 -1.08941e-18)
(0.000254406 0.0119107 -9.31745e-19)
(-0.000368478 -0.0129177 -2.80043e-19)
(-0.00803543 0.00556833 -8.38873e-19)
(-0.00564275 -0.00972713 7.93032e-19)
(-0.0104962 -0.000325415 1.58835e-18)
(0.00965277 0.000155758 1.10536e-19)
(-0.00441953 0.00992139 -5.88153e-18)
(0.0112267 0.0041119 -3.66513e-18)
(0.00058528 0.00170976 -8.44979e-19)
(0.00439658 -0.00142126 -2.56615e-20)
(-0.00267586 0.00832671 -1.2492e-19)
(-0.000766486 0.00445439 1.00547e-19)
(-0.00419693 -0.000851988 2.4571e-20)
(0.00414609 -0.00131058 7.15565e-20)
(-0.000757086 0.00434063 4.28907e-18)
(-0.000184987 0.0031661 -2.42695e-18)
(-0.0038554 0.00249929 -1.06623e-19)
(0.00101073 -6.39005e-05 -3.12605e-19)
(0.000549307 0.00164311 1.01587e-18)
(0.000904807 0.00702035 2.08612e-18)
(-0.00109632 0.000335585 -5.03603e-20)
(-0.0230794 0.0124691 2.63257e-18)
(0.00139497 0.00491445 -5.48889e-18)
(-0.00109617 0.000153957 2.71465e-18)
(0.000533058 0.00856989 -8.53533e-19)
(0.00136207 -3.71219e-05 1.15348e-19)
(0.00164013 -5.92731e-05 1.25388e-19)
(0.00211935 0.00299338 7.93846e-18)
(0.0433366 -0.0525088 3.62712e-19)
(-0.00130861 -0.00333777 -3.48638e-19)
(-0.00274905 0.0031222 3.18158e-18)
(-0.00806578 0.00666496 -2.45374e-20)
(0.00478012 0.0357213 -4.53226e-19)
(-6.35692e-05 -0.000123466 -5.66991e-19)
(-0.00107073 0.000177549 -2.22538e-18)
(0.00560392 0.0220307 -2.82552e-19)
(0.000398215 5.26444e-05 2.16223e-20)
(0.000386311 7.82693e-05 -2.496e-20)
(-0.00385438 0.00266117 -1.75275e-19)
(-0.000272665 -0.000230433 -9.0646e-20)
(-0.00405228 -0.00056091 -3.25139e-20)
(-0.00417411 0.00691739 1.11127e-17)
(0.0268855 0.00920454 9.53431e-18)
(-0.0234613 0.00538062 2.33793e-19)
(0.00521765 -0.00112758 -6.49996e-19)
(0.0359032 0.0324312 -2.7098e-18)
(0.000137511 0.000144617 -3.80653e-18)
(0.0117679 0.00586403 -2.17256e-17)
(-0.0069981 0.00762186 -7.85898e-19)
(0.0275271 0.018874 1.19607e-17)
(-0.00278998 0.0122264 -3.87089e-18)
(-0.00108647 0.00478453 3.73757e-18)
(-0.000886295 0.0037611 -7.17552e-19)
(0.00161776 6.04973e-05 -1.05671e-20)
(-0.000803194 0.00548971 1.1333e-17)
(0.000593019 0.00126539 1.00082e-17)
(0.0010652 -8.92099e-05 2.34645e-19)
(0.00368601 -0.00170745 1.14787e-20)
(-0.00907082 0.00521765 2.18766e-18)
(0.000213227 0.00180635 -1.50329e-17)
(0.0030989 -0.00129536 -2.78085e-18)
(-0.000313339 0.00718608 -1.41836e-17)
(-3.37522e-05 0.00366759 3.95563e-18)
(-0.00288931 0.00875425 7.27754e-19)
(-0.0023434 -0.00154132 -7.80321e-19)
(1.20502e-05 0.00185592 5.45543e-18)
(0.00219797 0.00426327 7.82594e-19)
(0.0193733 0.0035488 3.264e-19)
(0.00515129 0.00148596 -3.87044e-18)
(-0.00121756 0.00480311 -1.16249e-18)
(0.000552727 0.00492276 -6.57292e-18)
(0.0493413 0.0318237 1.58702e-18)
(-0.0486072 -0.0481524 1.12232e-17)
(0.00286648 -0.000913656 -5.55166e-18)
(-0.0046401 0.00813208 4.62765e-20)
(-0.000876119 -4.7315e-06 -8.75614e-19)
(0.0582291 -0.109096 3.21837e-19)
(0.00393517 -0.00143082 8.56597e-20)
(-0.00404651 0.00735744 -1.06871e-17)
(-0.00259119 0.000412247 -6.41948e-20)
(0.000382647 0.00162287 6.34318e-19)
(0.0056196 0.000461484 7.09665e-20)
(-0.00333979 0.0097926 -4.16863e-18)
(0.0438295 -0.0795366 1.05174e-18)
(0.0492639 0.0178654 -9.37401e-18)
(-0.00220528 0.00237921 -6.46139e-19)
(0.000120032 0.00806065 -2.84371e-18)
(0.000155036 9.819e-05 -1.68893e-21)
(0.000366545 0.00154531 -4.10868e-18)
(0.000649704 0.00124035 4.54945e-19)
(0.00583429 0.0383069 2.04645e-19)
(-0.00463895 -0.000142674 -2.17733e-19)
(-0.000207648 -0.000275385 -5.13739e-20)
(0.00437714 0.00365087 -1.09002e-17)
(0.00116168 3.25866e-05 -6.08102e-21)
(0.00151395 4.0457e-05 4.55991e-20)
(-0.00165943 0.000601055 2.18989e-18)
(0.0130354 0.00526849 4.45169e-18)
(-0.00378165 0.00536304 1.31622e-19)
(0.0611551 -0.111755 5.17908e-19)
(-0.00269319 0.0148585 -1.14807e-17)
(0.00689669 0.0259606 -1.11516e-18)
(0.00561978 -0.00160596 1.67886e-19)
(0.0309958 0.029365 6.76176e-18)
(-0.00126553 0.000549655 -5.95313e-21)
(-0.00510272 0.00839854 2.3398e-20)
(-0.00412198 0.000299936 1.64225e-19)
(0.0077705 -0.000253216 5.24838e-18)
(0.0023185 0.00330406 4.15947e-18)
(-0.0232124 -0.0285074 -6.50404e-18)
(0.00513335 0.00281722 3.72414e-19)
(0.000836672 7.51589e-05 1.37974e-20)
(0.000509916 0.00273807 3.22564e-18)
(0.00335704 -0.00361436 5.89692e-18)
(0.00214535 0.00421673 -1.13895e-17)
(-0.00388241 0.00546082 -3.99587e-19)
(0.00190617 0.00299061 -7.82554e-18)
(-0.00400173 0.000302359 -4.95685e-19)
(-0.000821323 0.00238539 -1.94279e-19)
(-0.00296513 -0.00343143 -2.3526e-18)
(-0.0017736 0.00547163 1.09163e-18)
(0.0204396 0.00534879 6.7115e-18)
(-0.000853142 0.00232463 3.07128e-18)
(-0.00263621 -0.00421938 -6.17759e-18)
(-0.0023403 0.00202911 2.19515e-20)
(-0.0203526 0.0112552 1.09507e-18)
(0.00553069 0.00305312 -2.42993e-18)
(-0.00044171 0.00453307 -1.55468e-17)
(-0.00156238 -0.00124196 -9.5664e-19)
(0.023933 0.00141213 1.76016e-17)
(-0.00147093 -0.00314917 4.76649e-19)
(0.00327487 -0.00100169 3.14736e-18)
(0.00055677 0.00485009 -3.5957e-18)
(0.00400238 0.00231598 7.05393e-18)
(-0.00234256 -0.0026254 -2.57321e-20)
(-0.00450178 -0.000187394 -2.04055e-20)
(-0.00224302 0.00706562 -1.50061e-19)
(0.0116123 0.000341708 -7.4363e-18)
(0.00318685 -0.00112542 7.89026e-18)
(-0.00318104 0.00433443 -1.6367e-18)
(0.0222399 0.025228 -1.08888e-19)
(-0.00487137 0.00601256 1.57186e-19)
(0.00042946 0.00812639 4.61258e-18)
(0.00393537 -0.00165273 -1.87778e-19)
(0.00264619 -0.00298863 -9.09903e-18)
(-0.00401283 0.00239411 1.10625e-18)
(-0.00170823 -0.00117935 -2.29812e-19)
(0.00952001 0.0018507 9.06231e-20)
(0.0147554 0.000527076 6.82656e-19)
(0.0521626 0.022411 -8.73015e-18)
(0.00111384 0.00496647 3.12345e-18)
(-0.00421826 0.00839011 -5.90713e-19)
(0.0196185 0.00912273 -1.08566e-17)
(-0.00153172 4.02358e-06 7.88874e-19)
(0.0023132 -0.000400045 1.62913e-20)
(0.00232081 -0.000360626 -7.25628e-20)
(0.0400412 0.03459 1.25749e-17)
(-0.0019637 -0.00246219 -3.51056e-18)
(-0.00337749 -0.00613926 -5.49815e-18)
(-8.06639e-05 0.000418355 1.0386e-18)
(-0.000506838 5.85404e-05 1.59673e-20)
(0.0748087 0.0278551 -1.35594e-18)
(0.00448055 -0.00100716 -2.62351e-18)
(0.00215269 -0.00038721 -4.84412e-20)
(0.00210409 -0.000373432 1.0127e-19)
(0.000609342 -1.06007e-05 -7.52966e-22)
(0.00239462 -0.000349629 7.55732e-20)
(0.00240061 -0.0003112 5.59619e-20)
(0.0124613 0.00350862 3.30989e-18)
(0.0301411 0.0219233 -1.00941e-17)
(-0.00396519 0.00137361 -1.35e-18)
(-0.00143776 0.000964448 -6.37017e-21)
(0.00277736 0.00167415 2.03083e-18)
(0.00724507 0.00231403 -5.41537e-18)
(0.00136479 2.59987e-05 -1.49529e-20)
(-0.000124671 0.000382194 -4.55886e-18)
(0.0236104 0.0278686 -1.62021e-20)
(-0.00428285 0.00846501 9.47552e-18)
(-0.00256845 -0.00282294 1.35474e-17)
(0.0200722 0.00952862 4.07054e-18)
(0.00721479 0.000376727 2.83674e-18)
(-0.0025843 0.000472321 -3.77988e-18)
(0.0124401 0.0244547 -3.17706e-18)
(0.00248707 0.00144259 -8.36719e-18)
(-0.00629287 0.00753515 5.16803e-19)
(0.000495478 0.00369359 1.67962e-18)
(-0.00307185 0.00419768 2.38152e-18)
(0.0372039 0.0216836 1.63139e-17)
(0.000586114 0.00137498 4.12333e-18)
(0.0030046 0.00628421 1.13823e-18)
(0.00465888 0.00332298 -5.72424e-18)
(-0.00419315 0.00125508 -1.14989e-19)
(0.000364776 1.00995e-06 -7.20611e-22)
(-1.18463e-05 0.00376315 -5.76102e-18)
(-0.00386264 0.00485357 -2.99435e-19)
(-0.00173477 -0.00508599 -1.58815e-19)
(0.00300364 -0.00114674 -1.10261e-18)
(-0.0204584 -0.0652183 4.75605e-18)
(0.00337846 -0.00274886 2.0588e-19)
(0.00204716 -0.000394496 7.89851e-20)
(-0.00465889 -3.32391e-05 1.80755e-19)
(0.00203818 -0.000430969 -1.62348e-19)
(0.000619027 0.0013428 1.35067e-18)
(-0.000163875 5.2115e-05 3.79603e-19)
(0.00215857 0.00442459 -4.86594e-18)
(0.00371347 -0.00282087 2.77717e-19)
(0.00323967 0.000349772 -7.2516e-19)
(0.0256695 0.00964176 -3.24837e-18)
(-0.0010947 0.0018601 2.95526e-18)
(-0.00386211 0.00167005 -2.97271e-20)
(0.0108519 -0.0142638 1.42838e-17)
(0.00239589 0.000258053 -1.57318e-20)
(0.00371605 0.019457 4.28471e-19)
(0.00370614 -0.00122855 -1.80591e-19)
(0.00239761 0.000209354 8.12692e-21)
(0.00809786 0.000952214 -1.86807e-18)
(-0.00124979 -0.00495485 -2.0731e-19)
(0.0106582 0.00402567 -6.67288e-18)
(0.000719035 5.27386e-05 -3.29644e-20)
(-0.00706706 0.00462282 -1.44236e-20)
(-0.00434878 0.0012712 1.14623e-19)
(-0.00264464 0.000139678 4.54802e-19)
(-0.00278563 0.00244092 -5.7681e-18)
(-0.00130874 -5.70499e-05 5.54262e-19)
(0.00861127 0.0277975 2.9451e-19)
(0.000569575 0.0057459 6.31521e-18)
(-0.0186076 -0.0708942 -8.59599e-18)
(0.00597642 0.00073882 -4.2124e-20)
(0.0219877 0.021242 -2.51858e-19)
(0.00193873 -0.000473501 -8.23329e-21)
(0.00156095 2.92975e-05 -3.38546e-20)
(0.00205172 0.00350503 -6.97738e-18)
(-0.00116809 0.00340775 -1.67419e-19)
(-0.00139971 0.00502622 -6.37189e-19)
(0.00062239 0.000565864 2.24351e-19)
(-0.000600499 0.00426405 -9.01593e-19)
(-0.00124945 -0.00387921 -5.79541e-19)
(-0.0012647 -8.86916e-05 -9.54594e-19)
(0.00514869 -0.00371295 -1.02374e-17)
(-0.0100314 -0.0613225 -1.72402e-18)
(0.00281789 0.0062718 1.96305e-18)
(-0.000609034 0.00415492 -4.37176e-18)
(-0.000204222 0.00036595 -1.90108e-18)
(0.00436499 0.00320306 1.34865e-17)
(0.0138255 -0.000157646 1.17664e-17)
(-0.00204809 -0.00162086 4.2157e-19)
(0.00524581 0.00342109 -6.0646e-20)
(-0.00126402 0.0050077 -2.18629e-19)
(0.0610209 0.0318521 3.07465e-21)
(-5.82624e-05 0.00588433 -7.24542e-18)
(0.0249015 0.00815711 -5.9861e-19)
(-0.0196987 -0.0265618 2.50819e-19)
(0.000930566 -0.0117761 2.04406e-19)
(0.017276 0.0037185 -3.73525e-18)
(-0.00453175 0.00160993 -7.42364e-20)
(0.00105695 0.00734342 9.52382e-19)
(0.0478956 -0.00149142 3.03734e-19)
(-0.00139212 0.00578846 -6.80072e-18)
(-6.92726e-05 4.2209e-05 5.02891e-18)
(-0.00732518 0.00555556 4.31765e-19)
(0.0180649 0.0287297 3.47472e-19)
(-0.00432501 9.24149e-05 1.2745e-19)
(-0.00222568 0.00583667 1.32761e-18)
(-0.000406595 0.00439455 1.29737e-17)
(0.0012936 -1.46865e-05 9.55869e-20)
(0.00786634 0.000100533 4.61038e-18)
(-0.00107025 0.000253248 2.28528e-18)
(0.00229287 0.00494789 -4.94352e-18)
(0.0028674 0.00105541 -1.86244e-20)
(0.0311122 0.00193492 1.01874e-17)
(-0.00145435 -0.00047125 -3.62455e-19)
(0.00253698 0.00599488 -8.02346e-18)
(-0.00501738 0.00614591 -1.63242e-19)
(0.001391 -0.00900096 -1.3929e-19)
(0.00148984 -1.0275e-05 -8.01047e-20)
(0.000465107 0.0039776 -6.83926e-19)
(-0.00281665 0.00489325 5.67234e-18)
(-0.00250239 0.00301976 -2.57218e-18)
(-0.0043479 2.42559e-05 5.99253e-20)
(0.0115545 0.00706656 9.24098e-18)
(-0.00361315 0.00577913 4.06458e-18)
(-0.00490661 -0.00748673 6.71151e-19)
(-0.000800126 0.0208728 1.913e-18)
(0.00234085 0.000180973 1.08974e-20)
(-0.00368929 0.00172671 4.16982e-19)
(-0.00359976 0.00939847 4.83518e-18)
(0.0165163 0.00237687 -2.61212e-18)
(0.00235029 0.000127696 -2.54316e-20)
(0.000587621 0.00286854 1.92794e-19)
(-0.00142448 0.0023861 1.20071e-18)
(-0.00375875 0.0126938 5.62988e-20)
(0.00275062 0.00600429 3.46105e-18)
(-0.000174647 -3.36714e-05 -6.45849e-18)
(0.0100463 0.00426864 -3.8877e-19)
(0.00256655 0.0196238 9.20341e-20)
(0.00214595 0.00477176 1.06489e-18)
(0.0184181 0.00408983 -5.10495e-18)
(-0.00243712 -0.00156649 7.24402e-19)
(-0.00238579 0.00304868 2.82931e-19)
(0.00362481 -0.00142694 -3.91043e-20)
(-0.00331197 0.00396468 -2.21834e-17)
(0.0012504 7.17604e-06 1.04739e-19)
(0.0235842 0.000507692 -1.60745e-17)
(0.00232102 0.00478255 -1.8699e-18)
(0.0105769 -0.00706662 1.24098e-19)
(-0.00209369 0.00256937 -3.46836e-18)
(0.0134824 0.00288562 2.68182e-18)
(0.00511133 0.00305599 3.17697e-19)
(0.0703569 -0.0259876 3.26969e-19)
(0.00439488 -0.000627626 -2.34859e-19)
(-0.00371754 -0.00504309 6.6265e-18)
(0.00856758 -0.0136951 2.13676e-18)
(-0.00544055 0.00608753 1.06537e-19)
(-0.00113207 0.00193337 -9.67388e-19)
(-0.00559563 0.00588197 -6.27395e-18)
(0.0031639 0.00126201 -6.27366e-20)
(-0.0061367 0.0147492 -5.15256e-18)
(-0.00210041 -0.00152396 4.5756e-18)
(0.00430481 -0.000493281 1.61648e-19)
(0.0661757 -0.035179 4.39284e-19)
(-0.00482984 0.00105795 -9.85282e-20)
(0.00637246 0.000237977 -2.23876e-20)
(0.000167399 -0.00225196 1.16982e-19)
(0.0293304 0.0036378 -4.32056e-18)
(0.00653408 0.000223279 3.61495e-20)
(-0.00203966 0.00448328 -1.63214e-18)
(0.0805709 0.0250525 -1.18419e-18)
(0.000889763 0.0177336 -1.58508e-19)
(-0.00302811 0.0039123 2.18804e-18)
(0.000233462 0.00429156 1.32874e-17)
(0.00458841 0.00781783 1.64409e-18)
(-0.00176145 0.00417254 -2.42684e-19)
(-0.00301308 0.00207991 1.02797e-18)
(-0.00330431 0.00186259 1.61833e-18)
(-4.04342e-05 0.0187931 6.49112e-20)
(-0.00203444 0.00575611 -9.64562e-18)
(-0.00105991 0.000222304 -9.02276e-19)
(0.00186974 0.00374425 -6.10282e-18)
(-0.000475995 0.00409345 1.15044e-18)
(-0.00251899 0.000238264 -5.18357e-19)
(-0.00173813 -3.37814e-05 1.59452e-18)
(-0.00263409 -0.00151709 -1.61649e-19)
(-0.0577041 -0.0446129 6.14756e-18)
(0.00846615 0.0239522 -3.91351e-19)
(-0.00226809 0.00281658 7.95279e-19)
(-0.00259599 -0.0017363 3.71738e-19)
(-0.00365659 0.000400711 5.13209e-19)
(0.00267459 0.00368087 2.34732e-18)
(0.00909317 -0.013282 -5.93729e-19)
(0.00256431 0.000659177 -6.72508e-21)
(-0.00120059 0.000505475 3.60293e-21)
(-0.000715287 0.00572955 7.04021e-18)
(0.0134288 0.00416187 -1.35541e-19)
(-0.00270442 0.000188701 -1.17559e-18)
(-0.00199394 0.00438104 -1.20653e-18)
(-0.00601883 -0.027484 2.05712e-18)
(0.0986095 0.0198498 5.31377e-18)
(0.0010621 -0.0137965 5.90669e-21)
(-0.00128555 0.00395262 -1.40535e-17)
(0.000931413 0.00699151 -9.69992e-18)
(0.00297366 -0.000253376 1.43004e-19)
(0.00248773 0.000547772 1.28263e-20)
(-0.00317977 0.00705185 1.40539e-18)
(-0.00169957 -3.22528e-05 -8.69527e-19)
(0.0025705 0.000592246 -7.43448e-21)
(-0.00409447 0.00139319 1.08083e-18)
(0.00250146 0.000486167 2.7878e-20)
(0.00292151 -0.000250014 -1.16032e-20)
(0.0231517 0.026918 6.50041e-18)
(-0.00332547 0.00198794 -2.35459e-18)
(0.00176161 0.00850434 -1.05238e-18)
(0.00284429 0.000524302 -5.36851e-18)
(0.00217042 0.00356979 9.41346e-18)
(-0.00178308 -0.00118999 1.29122e-19)
(0.000313767 0.00152046 2.07339e-18)
(0.00311759 0.00467881 -6.17023e-18)
(-0.00253069 0.00709301 -3.38552e-18)
(0.00374715 -0.00142666 2.32168e-18)
(0.00275301 0.000912393 -2.66627e-20)
(-0.000441751 0.000878695 1.72197e-18)
(0.00323621 0.00118501 1.34417e-19)
(0.00247522 -0.000289196 -1.25649e-19)
(-0.00266632 0.00460073 6.92456e-19)
(-0.00500891 0.000786992 -9.79171e-20)
(-0.00295629 -0.0288944 7.79536e-18)
(0.00418279 0.0007953 -9.81802e-20)
(-0.00455523 0.00809752 -5.38895e-18)
(-0.000483871 0.000870503 3.3367e-19)
(0.00209761 0.00426512 2.67809e-18)
(0.00456073 0.000982725 1.2873e-19)
(-0.00397088 0.00222632 -2.75372e-19)
(0.00642056 0.000296429 -7.23691e-19)
(-0.00547871 -0.00965928 -1.23311e-18)
(-0.00136798 0.00231094 -2.10295e-18)
(0.114264 0.01933 4.47556e-18)
(-0.00191799 -0.00114254 -4.01405e-19)
(-0.00150288 -3.54227e-05 -8.909e-19)
(-0.00357612 0.000326239 4.851e-20)
(-0.00482553 0.00122084 5.71412e-19)
(-0.00154681 -0.00115351 8.80315e-20)
(-0.00132332 8.06623e-05 -7.62904e-20)
(0.00513971 0.0019304 -2.07185e-18)
(-0.0290513 -0.0208486 -5.10231e-18)
(-0.00147207 -0.00113272 1.10174e-19)
(0.0230445 0.0205954 7.85625e-19)
(-0.00144605 0.0054804 -4.60585e-18)
(-6.82817e-05 0.000105621 -1.19097e-18)
(0.00219398 0.00322364 1.42849e-17)
(0.00121716 0.00612071 3.67066e-19)
(0.00589597 0.00987049 -1.63671e-18)
(0.00193967 0.00381871 -5.54148e-18)
(-0.00393131 0.00598058 -3.28845e-18)
(0.0098606 -0.000468862 -3.66373e-21)
(0.00842554 -0.000624761 -7.92092e-21)
(-0.00504135 0.000952556 2.04985e-19)
(-0.00058316 -0.0128197 7.50075e-20)
(0.00472945 0.00120514 7.79086e-21)
(-0.00314869 0.00404782 -2.71779e-18)
(-0.0125488 -0.00667509 8.22089e-18)
(0.00160294 -6.47016e-05 1.04253e-20)
(-0.00210969 0.00218204 -7.31538e-19)
(-0.00261246 0.00314739 4.05589e-19)
(0.00201298 0.00357664 5.1228e-19)
(-0.00170205 0.00796318 3.36323e-18)
(-0.00170612 0.00502157 2.83726e-18)
(0.00141607 0.00409373 4.69515e-18)
(0.0072437 -0.000425046 -2.71654e-19)
(-0.00323478 0.00237291 -1.24585e-19)
(-0.0100773 0.00298725 -2.21866e-19)
(0.00409766 0.00948736 1.72747e-18)
(-0.00231851 0.00275462 -2.83481e-18)
(-0.0011831 0.0390987 -4.4411e-19)
(0.00202111 0.0042687 1.18555e-17)
(0.000669031 0.00561446 -9.25023e-19)
(-0.0131852 0.00849129 6.11482e-18)
(-0.00104191 0.000300789 -2.58791e-18)
(0.00460024 0.0097158 1.42329e-18)
(0.00319935 -0.00459195 -6.46107e-18)
(-0.00151954 -0.000229214 3.02287e-19)
(0.0035858 0.00391844 -9.55957e-19)
(-0.00151442 -2.48469e-05 -4.58144e-19)
(0.00247554 -0.000249487 4.01702e-20)
(0.00257878 0.00353261 -2.69511e-19)
(0.00275485 0.00082544 6.00912e-20)
(-0.00155847 -4.87513e-07 -1.40281e-18)
(0.00605041 -0.0030436 8.28629e-18)
(-0.00490117 0.00989583 9.82224e-18)
(0.104754 0.015349 -1.18664e-18)
(-0.001592 0.000573399 8.59545e-19)
(0.000976056 0.00267609 3.91174e-18)
(0.00818056 -0.00244742 -1.68191e-20)
(-0.00939844 -0.00987568 5.24105e-18)
(0.0212814 -0.0186354 -2.36835e-18)
(-0.0023275 0.00256802 -3.95016e-18)
(-0.00207637 0.00239332 1.8152e-18)
(-0.00154313 0.000499097 -8.70371e-19)
(0.00399973 0.00357599 3.88396e-18)
(-0.0541944 0.0918356 3.86506e-19)
(-0.00223628 -0.00176622 2.77553e-19)
(0.00139045 1.37205e-05 -2.87053e-20)
(-0.00444007 -0.000297796 1.55069e-20)
(-0.00241474 0.000247771 1.81389e-18)
(0.00557693 -0.00716761 -4.8039e-19)
(0.00139942 0.0048135 6.98919e-20)
(0.00160115 -3.19152e-05 5.3892e-20)
(0.00137571 0.00400513 6.00488e-18)
(-0.00149092 -0.000212118 6.75169e-19)
(-0.00368413 0.000595679 7.89898e-19)
(-0.000480528 0.00399446 -3.61872e-18)
(0.0232324 0.0070645 -1.79996e-18)
(0.00116268 -0.000426912 -2.49631e-20)
(0.00143634 0.00327692 5.21905e-20)
(-0.00205574 -0.00468293 2.11824e-20)
(0.00207241 0.00424256 4.5862e-18)
(0.00164308 0.00261633 5.79745e-18)
(-0.00724161 0.0118371 2.03441e-18)
(0.00472704 0.0030145 -8.96571e-19)
(0.00784285 0.0223759 -6.46246e-20)
(-0.000787721 0.00388306 1.6877e-18)
(-0.00871583 0.00367 -1.84847e-18)
(0.0032496 0.00171932 -9.48844e-19)
(0.0190049 0.0248902 -2.78496e-18)
(0.00356425 0.00148721 7.82322e-18)
(-0.0017984 -0.00171942 1.24405e-21)
(-0.00352308 0.00015721 2.70345e-19)
(0.00757622 0.000107683 -2.78477e-19)
(-0.000687405 0.00143436 -3.01564e-18)
(-0.000221939 0.0127675 2.32492e-17)
(0.00246397 0.000293417 9.03868e-22)
(-0.00970181 -0.027 1.15342e-19)
(0.000635936 0.00475565 -3.26583e-18)
(0.00253765 0.00166009 -8.22578e-18)
(0.00509123 0.020605 3.40726e-19)
(0.00191031 0.00301648 8.08263e-18)
(0.00512267 -0.00731903 5.99111e-18)
(-0.00141687 -0.00119657 -5.61875e-19)
(0.00155446 0.00566288 -7.46025e-18)
(5.19186e-05 -0.000162556 2.03016e-19)
(0.00132433 -0.00983301 -3.29276e-19)
(0.00538584 0.001472 9.09257e-18)
(0.00265319 0.000779936 3.26121e-20)
(-0.00120399 0.00564244 3.36839e-18)
(-0.000217808 5.54587e-05 7.2857e-22)
(-5.93329e-05 7.61052e-05 1.04903e-18)
(-0.0036107 0.000225314 -3.99654e-19)
(-0.00121063 0.00499258 -3.49016e-19)
(0.00735676 -0.00592264 5.0974e-19)
(0.00183826 -0.000426676 -2.225e-19)
(-0.000651931 0.00492742 -1.14885e-17)
(0.0023374 0.00333383 -8.46716e-18)
(0.0525754 -0.0713563 -3.10156e-18)
(-0.00102652 0.00897658 4.71076e-18)
(0.00231039 0.00635568 -8.45591e-19)
(0.00357052 0.0118948 -5.56451e-18)
(0.00112177 -0.000410056 -7.71551e-20)
(0.00553781 -0.000716146 -2.1384e-18)
(-0.000308401 0.000189955 1.55025e-20)
(-0.0387506 -0.0368397 -1.17767e-17)
(0.046606 -0.0905775 7.63039e-20)
(0.00185257 -0.0113092 -7.13743e-19)
(0.0051705 0.00246209 6.34879e-20)
(0.000334645 7.0359e-05 2.77217e-20)
(0.00200494 0.00428389 1.89692e-18)
(0.00196096 0.0029008 -3.23653e-19)
(0.00265865 0.000703692 -5.94736e-20)
(-8.1223e-05 -0.000157629 8.78502e-19)
(-0.000324187 4.27838e-05 1.47629e-18)
(-0.00127354 0.0084719 -1.37112e-17)
(-0.00157631 0.000767601 -7.62388e-19)
(0.00139174 0.00495495 -1.8089e-18)
(-0.00213551 0.00208977 1.16405e-18)
(0.00182656 -0.000388151 2.1512e-19)
(0.00131787 4.57455e-05 1.33833e-20)
(0.00517395 -0.00872478 1.29275e-17)
(-0.00672479 -0.000940953 3.62149e-18)
(0.0239033 -0.00181556 1.5647e-18)
(0.000667203 0.00371627 2.54149e-18)
(0.0014187 0.00472002 -3.62761e-18)
(-0.00729628 0.000769693 1.15549e-17)
(0.00619761 0.00243554 -4.35216e-18)
(0.000198435 -0.00241848 -6.57819e-19)
(-0.0102724 -0.00867653 -4.43006e-19)
(-0.000255669 4.83336e-05 -4.0899e-18)
(0.00533165 0.00688957 -4.3191e-18)
(-0.000759194 0.00145014 3.13122e-18)
(-0.00510599 0.00620007 1.83823e-18)
(-0.00236857 0.000196866 -3.01112e-19)
(0.00476567 -0.00987973 1.14605e-19)
(0.000414356 0.0016545 2.24431e-18)
(0.0604199 -0.0577745 1.92368e-18)
(0.00208954 0.00432084 3.7797e-18)
(0.0106045 0.0108573 -3.53294e-18)
(0.00144639 -8.5e-05 -3.61309e-19)
(0.00211507 0.00445637 -4.90888e-19)
(-0.00210914 -0.00195035 -4.21781e-19)
(0.000257338 3.77109e-05 -5.57894e-20)
(0.0190491 0.00485978 -2.23739e-18)
(0.00297504 0.0274027 -1.34358e-18)
(-0.00225968 -0.00184376 -1.48426e-20)
(-0.000594798 -0.000385052 3.65702e-18)
(-0.000177222 0.000399859 -1.34197e-18)
(0.00328383 -0.0078402 -4.91697e-20)
(0.000118738 5.99905e-05 1.99715e-20)
(0.0178377 0.00615616 1.64633e-18)
(-0.00152279 0.000772054 -1.96032e-18)
(-0.00217605 0.00516789 4.11163e-19)
(0.00245643 0.00034399 -2.96101e-21)
(-0.00222229 -0.00193041 3.32082e-20)
(-0.00332795 0.00366927 1.27044e-17)
(0.000219397 8.00852e-05 -5.56178e-21)
(-0.000784503 0.00102997 -5.22804e-18)
(0.000735702 -8.53711e-05 6.32554e-19)
(-0.00151244 -0.000390212 -1.41353e-19)
(-0.0439352 -0.0230914 -1.02948e-18)
(0.00165411 0.00502228 8.50898e-18)
(-0.00232715 0.00246468 2.11288e-18)
(0.00304207 -0.00125222 -6.18043e-18)
(-0.00123875 0.0056741 3.6678e-18)
(0.016502 0.000618356 -5.57619e-19)
(0.00393309 -0.0050816 8.15194e-18)
(-0.00133863 -0.00117676 8.37787e-19)
(-0.00730744 0.00652036 2.51261e-19)
(0.0243826 0.00625328 -1.62028e-17)
(-0.00132145 0.00648005 -4.07822e-19)
(-0.00294339 0.0068159 -7.10434e-19)
(-0.00245087 0.00472958 2.62749e-18)
(0.00560405 -0.0115063 -6.3264e-19)
(0.000754175 -0.000111207 -4.73073e-21)
(-0.00285467 -0.00112148 2.97824e-19)
(0.00111222 -0.0118116 2.9727e-20)
(0.00173162 0.00219416 3.08377e-18)
(4.45635e-06 0.00484434 -4.29074e-18)
(-0.00938038 0.0127024 8.62058e-18)
(0.00212567 0.0042714 -2.66118e-18)
(0.0176528 -0.0169772 1.01824e-18)
(0.0193569 -0.0221061 -3.96452e-18)
(-0.0223885 -0.060686 8.20732e-19)
(0.0023372 0.00540669 6.29996e-19)
(-0.00166531 -0.000548161 -4.16949e-19)
(0.00823378 0.00154415 -6.29072e-18)
(-0.00145745 -0.0036365 3.14991e-19)
(-0.023123 -0.0248501 7.93777e-19)
(-4.15854e-05 -0.00889682 6.06802e-20)
(-0.0015375 -0.000349949 -4.91509e-19)
(0.0011586 -0.000132725 2.50009e-19)
(0.00128437 4.63945e-05 2.03851e-21)
(0.00888442 -0.00186325 -7.96335e-20)
(-0.00148966 4.80075e-05 -2.62693e-19)
(0.00570428 -0.000540944 1.42536e-18)
(0.0023897 0.00446828 2.10205e-18)
(-0.000657498 -0.000260477 -6.97034e-19)
(-0.000120855 0.0043747 -7.7658e-18)
(0.00143942 -0.000102641 1.64598e-19)
(0.023858 0.00861322 -9.21378e-18)
(-0.000846973 -0.00524757 -1.30104e-19)
(-0.00227629 -0.00161102 5.81324e-19)
(0.000308173 0.00908776 1.31081e-17)
(0.00163003 0.00295248 -4.43457e-18)
(-0.0122008 -0.0324931 -6.70088e-19)
(0.000458317 0.00195843 -1.7734e-18)
(0.00362786 0.00239384 4.56906e-20)
(-0.0019933 -0.00180731 -1.08383e-19)
(0.000775629 0.00239702 -3.76508e-18)
(0.00172014 0.00414743 7.03295e-20)
(-0.00269936 -9.81735e-05 5.57399e-19)
(0.00329402 -0.0014451 -1.48328e-18)
(0.000913742 0.00611397 3.03121e-18)
(-0.029328 0.0399351 2.84537e-19)
(-0.00793161 -0.0339963 1.02411e-18)
(-0.0181314 -0.0280485 -8.1996e-19)
(0.00142428 0.00775145 -1.16842e-17)
(0.000922924 0.00273061 5.9769e-18)
(-0.000411635 -0.000168736 -5.94025e-19)
(-0.00212151 -0.00192222 3.03758e-19)
(0.00406783 -0.00104877 2.83353e-18)
(0.0946244 0.0198597 -1.79005e-20)
(0.000594113 0.00496726 1.07739e-18)
(0.00309109 -0.00143679 5.97501e-18)
(-0.0287669 0.121347 -3.21452e-19)
(-0.00150728 -0.000485217 7.76395e-19)
(-0.00212912 -0.00164294 -3.78157e-19)
(-0.00285853 0.00461039 -2.71903e-18)
(-0.00351146 0.0049856 -8.14918e-18)
(-0.0122652 -0.0143982 -2.94752e-19)
(0.00214503 0.00436805 1.9844e-18)
(0.00073975 0.00237106 2.12889e-18)
(0.00139274 0.00332867 6.2846e-18)
(0.00355631 0.0068606 4.88934e-18)
(-0.00465847 0.00104003 -8.55256e-21)
(-0.000291557 0.000474455 -5.42095e-18)
(0.00234213 0.00447542 -7.27362e-18)
(-0.0027718 0.00298364 -7.67173e-19)
(-0.000237823 0.00321524 -1.03783e-18)
(-0.00047299 -0.000165997 1.0747e-19)
(0.00168816 0.00415922 -1.27099e-18)
(-0.00416623 0.00331514 2.61248e-19)
(0.0110649 0.00847923 -2.1055e-18)
(-0.00162867 0.0052404 1.80797e-18)
(0.00962113 -0.00857467 1.72185e-19)
(0.00314806 -0.00144358 -7.28371e-18)
(-0.00461268 -0.000411601 3.25783e-20)
(-0.0114528 0.061747 -2.23292e-18)
(-0.00234197 0.0045604 -3.63277e-18)
(-0.00416327 0.00633047 -6.15368e-20)
(0.000913474 0.00447327 -4.74338e-18)
(-0.00292266 0.00627392 1.56079e-17)
(0.00116653 -7.86859e-05 1.2459e-19)
(0.00175839 0.00562543 2.20608e-17)
(-0.0117603 -0.00028673 1.5161e-18)
(-0.0275802 -0.0120141 -8.33341e-20)
(-0.000580252 0.0014698 9.78324e-19)
(-0.0014691 0.00521307 -1.29502e-18)
(-0.00146087 4.22317e-05 1.77506e-19)
(-0.000723974 0.00110806 3.40862e-18)
(0.000472765 0.00153067 -4.38132e-19)
(-0.0157464 -0.00479071 -5.51877e-19)
(0.00434482 0.000992834 -7.33884e-20)
(0.00619203 -0.00801146 7.55459e-18)
(-0.00076188 0.000585458 1.06322e-17)
(-0.00119729 -0.0012142 -4.36617e-19)
(-0.000914923 0.00744522 -4.69919e-18)
(0.00223777 0.00337019 7.6396e-18)
(0.00196267 0.00362038 7.03021e-18)
(-0.00115013 -0.000236641 -3.26553e-18)
(-0.00384564 0.00176272 1.86606e-19)
(0.00150463 0.00562225 -9.87668e-19)
(0.00717603 0.0318998 -1.91711e-19)
(0.00156165 -0.00041735 -3.63979e-19)
(0.00152747 0.00307558 -9.40317e-19)
(0.00700291 0.00242809 -1.76208e-18)
(0.00231117 0.00442498 2.32229e-18)
(-0.00235267 -0.00101432 -4.96121e-19)
(-0.00167141 -0.00110075 9.76603e-19)
(-0.00280169 -0.00118741 5.12486e-19)
(0.0116474 -0.000173821 -8.71337e-18)
(-0.000306451 0.0030358 5.03098e-18)
(-0.000398043 -0.00613966 -6.70324e-19)
(0.00229993 0.00486286 -1.36031e-18)
(-0.00277563 -5.0925e-05 -2.80414e-19)
(-0.00191143 -0.00129362 -1.1438e-18)
(0.00220322 -0.00135938 1.30828e-18)
(0.00674961 0.0301672 -3.13211e-18)
(-0.0181726 -0.018245 -5.30757e-19)
(0.108712 0.021098 7.38871e-19)
(-0.00353661 0.0119172 -2.34814e-21)
(-0.00515339 0.00978664 -3.80616e-18)
(0.00053146 0.00149906 1.75994e-18)
(-0.00393586 -0.00116046 -2.53948e-20)
(-0.00687328 0.00339965 4.59835e-18)
(0.0034198 -0.0111663 -6.1536e-20)
(-0.0297226 0.0143724 7.18224e-19)
(0.00142135 -1.46952e-05 -8.5458e-20)
(0.00105568 -0.000152062 1.90709e-19)
(0.000281803 0.00203073 -1.45263e-18)
(-0.00188101 0.00545763 1.5428e-18)
(-0.00718008 0.0128744 -2.44373e-18)
(-0.00230582 -0.0010459 3.95718e-19)
(0.00794531 0.00353521 3.25547e-19)
(-0.00439939 -0.000881145 4.90887e-19)
(0.0505495 -0.0844452 7.02605e-20)
(-0.0021944 0.00458074 2.02817e-18)