/*--------------------------------*- C++ -*----------------------------------*\
| =========                 |                                                 |
| \\      /  F ield         | OpenFOAM: The Open Source CFD Toolbox           |
|  \\    /   O peration     | Version:  v2012                                 |
|   \\  /    A nd           | Website:  www.openfoam.com                      |
|    \\/     M anipulation  |                                                 |
\*---------------------------------------------------------------------------*/
FoamFile
{
    version     2.0;
    format      ascii;
    class       volScalarField;
    location    "250";
    object      ddt0(k);
}
// * * * * * * * * * * * * * * * * * * * * * * * * * * * * * * * * * * * * * //

dimensions      [0 2 -3 0 0 0 0];


internalField   nonuniform List<scalar> 
13851
(
-2.58519e-06
-2.73587e-07
-2.97592e-07
0.000371344
5.02072e-08
-3.22685e-07
-5.64666e-07
-4.14959e-08
-0.000429291
1.39895e-08
-3.92451e-07
3.32099e-08
3.08092e-09
-0.00011464
-8.57847e-07
-3.26532e-05
0.00050886
-1.37417e-07
-1.14967e-05
-2.65406e-06
-8.91713e-07
-1.00731e-07
0.0111701
1.00976e-08
-0.0121263
-1.37145e-06
-0.00610517
-0.00714872
-0.000631071
-6.54428e-08
0.000739222
-5.77607e-07
-2.46979e-06
-0.000403644
-4.41034e-07
-0.00069712
3.52769e-09
-0.000352054
0.000540362
-9.90159e-09
0.000155228
-0.000665358
0.000124839
-3.47907e-06
-0.000696038
-2.16564e-08
-8.74524e-08
-2.88126e-06
-1.07007e-07
-8.10322e-09
0.000251812
3.87955e-09
-2.27183e-05
-9.14427e-07
-4.29344e-05
-4.88956e-09
-2.65692e-06
0.000155565
-0.00534133
3.42077e-05
3.48205e-08
-0.00669493
1.61169e-08
-9.29652e-08
4.22716e-06
3.37783e-06
8.11082e-05
1.87807e-06
-4.98279e-08
0.000764281
0.000768484
-7.53796e-07
7.66775e-09
2.26857e-05
-9.12582e-07
-5.01152e-08
0.000595871
-6.83691e-08
-0.0116216
1.85524e-08
-4.60905e-08
-8.04566e-07
-3.77985e-07
-9.32667e-05
-3.26292e-05
0.000772358
-1.20826e-07
-0.000567935
1.55733e-08
0.00077082
-3.82943e-09
-5.77639e-07
1.47365e-05
0.000708393
0.000272184
-5.32321e-06
-8.33615e-09
1.77919e-05
0.000204004
-5.9228e-09
1.62566e-05
1.25618e-06
1.08934e-07
-1.78519e-10
-4.49947e-08
-6.75891e-07
-3.66977e-08
0.000792081
-5.72137e-07
-1.22683e-07
-7.0827e-08
-2.68497e-08
-2.8184e-06
-5.76615e-07
-1.86211e-06
-8.56893e-07
-2.1529e-09
-3.01249e-08
0.000327497
0.000900473
-3.22626e-06
-1.03546e-07
-2.83602e-08
-0.000168184
3.41055e-06
4.00019e-06
-2.6613e-09
-1.89006e-07
-0.000182336
-7.89827e-07
-9.70507e-08
-3.5085e-07
-0.000399295
-0.000398218
-4.12635e-07
0.000258606
2.68563e-06
0.000747351
7.61593e-08
-8.73839e-07
5.95029e-07
-1.426e-08
1.50196e-08
3.13027e-06
-0.00241848
-4.12493e-08
-6.91427e-08
0.000728195
-0.000386366
-2.24263e-07
1.17752e-05
-2.49535e-06
-6.56945e-07
-4.44401e-06
-5.77458e-09
4.06165e-09
3.28582e-08
0.000489445
-8.90448e-07
-4.57306e-07
1.4435e-08
-0.000669928
-6.41635e-07
-1.85038e-06
-0.000121715
-0.000552148
-0.000573747
0.000268431
-9.49925e-08
-0.00171155
3.30169e-08
3.49897e-09
-6.79288e-07
4.32962e-08
0.000298969
-0.00677459
-3.72458e-05
2.85702e-09
-9.52959e-07
-3.597e-05
-1.33627e-06
-9.03253e-07
-1.16708e-07
-8.20487e-07
0.000200351
-0.00046611
-2.47442e-06
-5.85997e-08
-2.73331e-09
-5.8441e-08
-0.0034325
-8.83437e-07
5.4406e-05
-3.31106e-07
-3.94149e-08
8.63437e-07
-2.37817e-06
-1.97773e-07
-1.28053e-07
-3.85491e-07
2.66311e-06
0.000480751
0.000139367
-8.5421e-07
0.000328888
0.00044947
-2.53777e-08
-1.02395e-06
-0.000422368
-2.73875e-07
-2.25199e-05
-3.49078e-08
4.46913e-06
7.58443e-09
-4.35742e-07
-7.82318e-08
-5.42576e-09
-1.47116e-05
-1.84564e-07
1.00442e-06
-2.13455e-09
-3.10089e-06
4.66465e-05
0.000257492
-6.45833e-08
-1.03434e-06
8.88754e-09
2.50516e-06
2.83121e-08
-4.64017e-07
0.000993252
-1.18075e-07
-2.70949e-07
4.56369e-09
0.000196302
-7.51528e-08
0.0157979
0.000397142
-3.95636e-07
7.43553e-09
-0.000480476
-4.81159e-05
-0.000703825
-2.03616e-05
-6.73968e-07
-3.12213e-06
-5.94084e-06
-9.54406e-07
-2.90075e-06
-2.25311e-08
-0.000168736
-8.27988e-07
4.08921e-09
-4.29616e-07
4.28562e-06
-0.000635874
-0.000576061
-6.17984e-08
3.75707e-06
1.13767e-08
-1.14137e-05
-6.34974e-06
-4.50982e-07
-6.31363e-07
-1.01751e-06
3.40974e-09
1.79263e-06
-1.54782e-06
-0.00682629
2.70825e-08
-7.8959e-09
-8.64175e-08
-0.000524969
0.000289894
-7.61283e-07
-1.11899e-07
-6.03108e-06
-2.0279e-06
-1.99061e-06
-6.9808e-07
-0.000497376
0.000139855
-3.98484e-07
-7.87842e-07
-0.00445332
-3.79582e-08
3.35765e-08
-2.05986e-06
-3.10688e-07
-9.7133e-08
1.63552e-08
3.12238e-08
5.82582e-08
-6.80097e-07
3.46293e-08
-0.000442397
-9.18486e-07
-8.03637e-09
-0.000670881
-0.000145575
9.64439e-10
-3.01036e-06
0.000249776
-2.48124e-08
-7.71036e-09
-7.66058e-07
1.88056e-05
0.00120957
-7.5324e-07
5.34927e-08
-0.00162118
3.10482e-08
-6.90102e-07
0.000253496
-0.0061682
-4.38453e-07
-0.000255916
-1.52179e-05
0.000979006
-2.22544e-06
2.56641e-06
0.00026871
-0.000167052
-0.00809319
-1.36661e-07
0.000495574
-9.97663e-05
-7.32457e-06
1.18786e-06
-3.02263e-08
-6.96677e-07
2.03177e-08
-0.000596955
-2.97268e-06
4.82827e-08
-7.15312e-08
-1.99793e-07
0.000878983
9.63598e-06
-4.17361e-08
0.000282554
-5.04644e-08
-2.96407e-07
-4.69934e-07
0.000194177
-7.59167e-06
-1.8722e-05
-6.01218e-08
-2.57343e-07
-0.000878549
-5.61907e-09
6.40978e-06
-3.92746e-07
-7.65008e-07
-5.48645e-08
1.30809e-08
-1.45199e-08
-1.06699e-06
-5.43779e-07
-1.18571e-06
-0.000847073
-0.00087543
-4.30946e-08
0.00019878
0.000122064
-1.59537e-07
-0.00586553
-1.51383e-06
0.000223588
-1.90248e-07
-1.47076e-06
-0.00580233
-0.00647094
-1.00105e-06
-0.000452574
-1.20817e-07
-0.00641449
0.000145207
-5.1719e-07
-0.000189463
-5.47434e-07
0.000409693
-7.36335e-07
-1.23976e-06
-8.39006e-07
-2.81864e-06
6.22483e-09
-3.78835e-07
-2.77984e-07
-9.36202e-07
-1.53489e-08
-7.55167e-07
-0.000859798
3.06409e-09
-1.00967e-06
0.000210873
-2.33292e-07
-0.00540976
-1.13104e-06
0.000688142
-2.63834e-07
-1.36744e-06
-5.15108e-05
1.6715e-05
-7.11167e-07
-0.000542848
2.48259e-06
-2.52524e-05
5.05416e-09
1.3176e-07
-5.16698e-07
-1.41656e-06
-9.6439e-08
0.000173068
-0.000544616
-0.0152491
-2.55651e-07
-7.74171e-07
-0.0068376
0.000302879
-1.75573e-07
0.000401333
-5.55072e-06
0.00801059
-9.19151e-08
-0.00781237
7.52767e-09
4.30305e-08
0.000124948
-0.00664497
1.17913e-08
-2.64077e-07
-8.28663e-07
1.0891e-08
-0.000729676
-7.31859e-07
-1.46867e-06
-5.44081e-07
-1.22085e-07
-1.04138e-08
-0.00273088
-7.77026e-09
-9.46927e-09
-0.00162769
-0.000969615
-8.2288e-08
-0.0069892
8.24377e-09
3.85122e-08
-2.43068e-07
-1.01461e-06
-1.14196e-06
-2.32284e-08
-1.87592e-07
-4.43112e-06
-2.95379e-07
-3.51916e-05
3.66894e-08
-6.73968e-07
-0.000709513
-7.55571e-08
-4.73375e-08
3.44867e-08
-5.74519e-07
-2.54149e-07
1.7368e-05
-0.00129542
-6.43837e-07
2.82566e-05
-2.47701e-07
3.07803e-08
-0.000339498
-0.00614168
-5.11675e-08
2.49291e-11
-0.000186846
-4.75255e-08
-0.052461
2.49726e-09
-4.1994e-07
-1.24793e-06
-9.0494e-07
-0.000181547
-0.00655916
-0.0141747
-3.9348e-08
-2.61865e-06
6.15005e-09
-0.000635163
-1.13693e-06
-2.37668e-06
-5.02998e-07
-6.67835e-08
-2.00817e-08
-7.02377e-07
4.80365e-08
0.000359286
-0.000307861
-0.000153942
9.43336e-05
-0.00137748
0.000396468
8.7386e-06
3.83149e-08
1.50315e-08
-0.00634459
6.48677e-09
-2.18276e-08
-7.06421e-09
0.000361684
-3.35181e-07
-1.49475e-08
-1.68744e-07
-5.31177e-07
8.15265e-09
-0.000480103
-1.15288e-08
-0.000249224
-0.000111127
1.35702e-08
-3.7898e-07
3.35708e-06
-0.00614008
-8.42693e-08
-0.000113462
-0.0170185
-2.0778e-07
0.00138557
3.56854e-05
-3.14859e-06
-3.70585e-08
-0.00176775
7.54417e-05
-2.04224e-07
-2.11569e-05
-4.30083e-08
-1.20443e-08
-0.00188078
0.000437039
-6.19927e-07
-1.16801e-06
8.88154e-09
-1.1281e-06
-0.00021087
0.000358446
-2.07473e-07
0.000504417
-1.28233e-08
-5.34283e-08
-6.66427e-07
-7.24532e-07
-1.55126e-07
-5.00486e-08
0.00134559
-2.68367e-06
0.00123845
-2.96931e-07
1.40432e-08
-0.000558241
2.27481e-08
-5.23071e-07
-6.42322e-07
-8.89281e-07
-6.14139e-07
-0.000822667
0.000141951
-3.39515e-07
0.000349711
-4.06473e-07
-5.96594e-07
-0.000671
-0.000193843
-2.21079e-08
3.10281e-09
-9.01853e-07
0.00117757
-0.00613822
-1.14691e-06
0.0263708
-7.46518e-07
-7.45836e-07
0.00117733
-0.000396355
2.01515e-07
-0.000258069
7.38492e-05
-0.000825334
-1.13595e-07
-0.00515251
-0.00822978
2.97358e-08
0.000106812
-0.000762762
-7.76459e-08
-8.40662e-07
-2.29572e-09
-7.1925e-06
-2.9994e-07
-0.00512811
-9.77003e-09
3.35702e-08
3.01265e-08
-5.26666e-07
4.00527e-08
0.000358591
3.41298e-08
-1.51345e-05
-3.88257e-08
-1.40928e-06
7.83173e-09
6.66456e-09
-1.06262e-07
0.000509539
-6.59869e-07
0.000246682
-3.34607e-07
4.99525e-09
-1.37912e-07
-6.83752e-07
-1.87112e-07
-9.69734e-07
-3.39465e-07
-7.12762e-08
-0.00523306
1.32892e-08
-0.000534369
8.46964e-09
-1.86136e-06
0.000405882
-0.000618931
-3.24471e-06
-0.0184139
-2.67852e-07
-2.3446e-06
-0.000630736
-2.03664e-07
9.56231e-05
-5.4831e-09
-5.45396e-07
0.000169759
-0.00457279
-1.5383e-07
-9.31818e-07
-1.89493e-07
-0.000787042
0.000172137
-4.77111e-08
-3.76279e-07
-0.000476997
1.14019e-08
1.11453e-08
-1.37884e-06
-0.000516765
-0.00226416
-7.5466e-09
-2.90053e-07
-2.8628e-07
9.49612e-09
-0.00499282
-3.0349e-07
-3.70764e-07
-9.45478e-08
-1.50057e-06
3.47784e-07
-1.32049e-06
-1.7016e-08
-3.23909e-08
-1.88089e-07
-1.74062e-07
-1.83741e-06
-8.37995e-07
-7.26999e-07
6.48219e-07
-0.00108981
3.3162e-05
-0.00126495
-0.00119826
2.09732e-06
-0.000200081
4.759e-09
-0.00172804
-3.34573e-06
-1.08841e-07
-6.94918e-07
2.15416e-07
-1.48607e-07
1.83282e-08
2.11791e-08
-1.71948e-06
-0.000466805
-6.53023e-07
0.00034345
1.01588e-08
-0.00211383
2.05861e-06
0.000240531
-1.06116e-06
-2.87848e-07
-3.02611e-07
0.000287814
-1.21545e-06
-5.51936e-08
-0.00678003
-1.24325e-07
0.00391814
-1.81116e-06
-7.62809e-06
-4.66257e-07
1.13148e-05
2.26236e-09
7.58092e-09
-2.08969e-08
6.19276e-09
-0.000636705
5.7986e-08
-0.0052108
-0.000505884
-1.10827e-06
0.000313047
0.000203079
-1.10378e-05
1.45951e-06
-5.63982e-07
2.65687e-08
-4.70649e-09
-5.73173e-08
-1.538e-07
3.63546e-08
-6.71249e-07
-2.56449e-06
-5.96101e-07
-0.00770952
-7.80617e-08
-0.000415544
4.81534e-09
0.000437779
-2.84072e-07
1.26477e-08
1.29702e-08
-0.000587893
-3.06226e-07
-0.0027862
-0.000866735
-8.38976e-07
-9.39026e-07
-2.31434e-07
-0.000342473
-4.41155e-08
-3.17341e-07
-0.00522494
1.71448e-08
-1.68285e-08
-1.62498e-07
-1.09633e-06
-0.000309726
-3.40035e-07
-5.34174e-07
-7.99355e-06
0.000354077
-1.25825e-07
-4.1883e-08
-0.000747427
-5.27201e-08
-0.000744147
2.57605e-08
-3.07018e-07
-0.0098405
-1.30334e-06
-1.74231e-06
-4.93353e-07
-6.99916e-07
1.35267e-08
3.92631e-09
-6.62459e-07
-1.18754e-07
1.17421e-08
-7.43459e-07
-1.75021e-05
4.41539e-08
-1.0675e-05
-0.00042642
-0.00322387
-5.1314e-07
0.00110602
-7.89679e-07
1.91591e-08
-1.07502e-06
7.66784e-09
-3.878e-07
-0.00143885
-0.000922493
1.85141e-05
-0.000783928
-5.35188e-08
-4.89597e-08
2.77545e-07
-2.58765e-08
-6.51392e-08
-0.00432462
-7.96454e-06
-0.000119995
-2.03718e-06
-1.33325e-06
6.69813e-09
-6.74969e-08
-0.00465623
-1.39332e-06
-3.09762e-07
1.35418e-08
-1.72964e-06
-3.3548e-06
0.000351418
-7.02211e-09
2.56035e-08
-0.000326451
-1.50561e-08
-5.80728e-07
1.23251e-08
0.000388892
-3.20486e-08
0.000449834
1.39252e-08
5.46127e-07
-8.12946e-07
1.5467e-08
-5.2265e-07
7.57974e-09
-2.62382e-07
4.46758e-08
-0.00518335
-1.07707e-08
-0.000597825
-1.16771e-07
-0.00366412
-0.000399519
-3.41099e-07
5.90342e-08
0.000216414
-0.00130878
-3.74426e-07
-1.32179e-06
1.96711e-09
-0.000512603
-1.05876e-07
1.76566e-06
2.95796e-08
4.37402e-08
-0.00322067
-6.61233e-07
3.29297e-08
-9.26016e-07
3.62156e-05
7.77377e-05
-0.000249994
-4.48428e-08
-0.000238456
2.53953e-08
4.4054e-08
1.70365e-10
-6.06517e-08
1.25068e-08
-3.23079e-05
-0.00135228
-1.52263e-07
3.54339e-08
-6.43622e-07
-2.871e-08
0.000289422
-1.21666e-06
-0.000133544
0.00027716
-2.75913e-07
-1.65473e-06
2.7801e-08
-8.69321e-07
-6.84117e-07
-2.62481e-07
1.68276e-08
-3.46123e-05
0.000192907
-1.03702e-06
0.000258259
-1.07365e-06
2.41331e-08
-5.81445e-07
-1.32727e-06
0.000306435
-6.98163e-07
-0.00454714
-1.4104e-06
1.98896e-08
-0.00358496
-0.00220863
-0.000256776
-0.00447195
-0.00193925
-4.13149e-08
-4.60541e-06
-5.34397e-09
-0.00582272
-1.45239e-07
4.77386e-08
7.87175e-05
-6.24269e-08
5.16702e-08
-1.95909e-08
-4.72805e-08
0.000386082
3.71839e-06
5.61899e-10
-5.97439e-07
-8.4093e-05
-9.00317e-08
0.000239432
-1.86082e-08
-1.13142e-06
0.000482705
4.25696e-08
-0.00578569
-1.78094e-07
-4.19414e-07
3.64537e-05
-6.71855e-08
-8.047e-06
-1.37361e-06
7.05175e-05
-2.71304e-07
-0.000563312
-4.86964e-07
-0.000109066
0.000153602
-0.000565962
-8.81496e-07
6.60928e-09
-5.30856e-08
9.99132e-09
-1.17778e-06
2.06027e-08
-0.000177975
-1.26668e-07
-4.08032e-08
-1.41396e-07
-3.22065e-08
-3.99056e-08
-7.44356e-07
-1.71513e-07
-3.78328e-07
-1.09052e-07
-1.63705e-05
-0.00507299
-5.10349e-07
-1.36334e-07
-2.3973e-05
-1.31506e-08
0.00104111
-4.69971e-08
-1.08158e-07
-9.37161e-09
-5.5022e-08
-1.13535e-07
3.33269e-08
3.48864e-09
1.23559e-06
3.10323e-09
3.0009e-06
-1.66643e-07
0.000103896
-0.00992002
-4.15632e-06
-9.83254e-06
-1.72841e-07
0.000311195
-3.4638e-06
1.56133e-08
-1.62755e-07
-1.1532e-08
0.00116584
-2.28474e-08
1.47973e-07
-0.00537652
0.000213493
-2.89618e-07
-1.0048e-07
-0.000778402
-0.00580555
-0.00181612
-1.78073e-07
2.53009e-09
-1.97215e-07
-7.62147e-07
6.44974e-09
6.4032e-05
1.03415e-08
1.45257e-08
9.10533e-05
7.07511e-06
-1.54063e-07
-0.000166028
0.000414973
-7.76045e-06
-1.32375e-07
-0.000795407
-6.8728e-07
4.05059e-08
-4.0513e-05
-5.86855e-08
-1.27469e-07
-9.34516e-10
-8.80961e-07
-1.18438e-06
-0.000459693
0.000853268
-1.0764e-06
-0.000545092
-8.4831e-07
8.6837e-09
-4.7063e-06
2.32655e-08
-0.000534925
-2.00291e-07
4.38256e-08
-4.9008e-08
-1.14942e-07
-0.000472868
-0.000554444
-0.00455776
0.000163145
0.00124831
-1.96031e-07
5.28266e-09
-1.65667e-07
-5.1251e-06
-2.08462e-07
-1.06731e-07
-2.68651e-07
-0.0103501
-0.00447379
-7.50672e-08
-1.65061e-07
-5.07589e-07
-1.91592e-06
0.000156351
-2.05399e-07
-1.41333e-07
-4.26279e-07
-0.00580305
-7.55073e-07
-0.000163922
-3.41855e-08
2.65146e-08
-1.20662e-07
-6.56729e-09
-6.822e-08
-4.33945e-06
-0.000872814
-0.000562631
-4.22374e-07
2.93184e-08
-0.000695674
-3.17381e-07
-0.00690887
-2.89168e-05
-1.08432e-07
0.000590772
-0.000635238
0.0010024
-1.1765e-06
-6.44534e-07
-0.000275415
-5.39465e-07
-2.40371e-08
2.7961e-07
-1.47667e-05
-1.09162e-07
-4.43404e-05
9.42511e-09
-0.00159889
-0.0102004
-4.66521e-08
-3.69232e-08
-6.06374e-08
3.82067e-06
-6.1701e-07
3.32107e-08
-6.16716e-07
-1.68091e-08
-5.42946e-07
-1.84515e-05
1.56024e-08
-0.00119419
-0.000380331
6.14575e-09
-6.5231e-07
-1.16941e-06
2.93703e-08
-0.000893713
-0.000685625
0.000284414
-0.000646066
3.19823e-08
-9.47951e-08
-1.93997e-07
-7.24281e-09
-0.00114524
-6.30169e-07
1.49478e-08
-1.08975e-06
-1.85322e-07
-0.00275145
-9.37568e-07
-0.000109753
-1.32643e-08
-6.92245e-08
-1.46702e-07
-1.08625e-06
-6.91556e-07
4.76593e-09
-0.000883181
-9.08971e-05
0.0132291
0.000510255
-0.00143027
-0.000531067
-0.000103245
9.63761e-09
1.70698e-08
-1.68024e-07
-0.00602485
-1.1367e-06
-6.767e-07
0.000308948
-2.75552e-07
-2.35272e-08
1.01593e-08
-0.00458332
-6.91351e-08
-4.7539e-07
-4.4074e-08
-0.00196281
-1.54503e-08
1.25097e-08
2.61801e-08
-2.78082e-09
3.23835e-08
9.16692e-09
-0.00816021
-5.87063e-08
-0.00122136
1.88803e-08
-7.9078e-09
-0.000221846
-0.000446142
-0.000519864
-0.0026527
-2.31438e-07
-0.00209658
4.66221e-09
1.00228e-08
-7.21e-08
1.76182e-08
-5.05552e-07
0.000503457
-2.75424e-07
-1.18589e-06
-0.00182637
-1.8447e-07
-4.36809e-08
-9.57538e-10
-1.34144e-07
1.96099e-09
-0.00197317
-1.79021e-07
-0.00459562
1.55574e-08
-1.52456e-07
-3.88048e-07
9.10762e-07
-1.79943e-09
-0.00573864
0.000743812
-0.0023114
-0.000459815
7.8111e-09
0.000381692
-0.00666613
1.80647e-08
-0.00970424
-6.63921e-09
3.24213e-07
2.07642e-09
-3.0689e-07
4.06708e-08
5.50483e-09
-4.27148e-08
-1.96391e-07
-1.07788e-06
-8.26907e-08
5.98293e-09
2.66421e-06
-1.84994e-07
-0.00252654
5.67664e-09
-5.3827e-07
-9.03453e-07
-1.56321e-05
-0.0100896
2.05499e-08
-6.78193e-06
1.42991e-08
-8.56444e-07
-1.57644e-07
-0.003007
-8.93486e-07
3.62927e-09
-1.50803e-06
-9.93059e-07
-1.28821e-06
-0.0115952
-1.24979e-08
-2.05596e-06
-1.10502e-06
-1.07537e-06
-2.52184e-08
-9.94001e-08
-0.00337218
0.000204924
-1.54815e-07
3.91856e-08
0.000212052
5.77035e-09
-7.94944e-07
2.39608e-08
-3.02918e-07
-3.24228e-05
-1.47559e-07
0.000412811
-3.33554e-07
2.42636e-08
-2.97543e-05
4.75709e-08
-1.10369e-06
-0.00067683
-6.58171e-07
-0.00308224
4.31915e-08
9.59663e-09
3.16917e-06
1.45772e-08
2.23053e-08
-6.42955e-07
-4.77552e-07
-1.06675e-06
-4.21488e-07
9.99893e-10
-1.71294e-07
-8.70318e-08
3.28629e-08
1.39184e-08
1.80431e-08
-0.000249594
-1.77957e-07
-1.3046e-08
-0.00646638
-4.41147e-10
4.10187e-08
-0.000509373
1.63959e-08
9.86057e-05
-2.9379e-07
-0.000665161
-1.11108e-05
-6.26507e-07
0.000239384
-5.16846e-07
2.86112e-05
-1.87367e-07
-3.96839e-06
-1.93217e-07
-1.0113e-07
-1.57899e-08
-3.15138e-08
-5.47088e-07
-3.58247e-09
-2.01602e-07
2.68427e-08
-7.57838e-08
0.000167219
0.000226338
0.0010548
-4.87512e-07
-2.12559e-06
0.000169775
0.000768044
1.88008e-08
-4.93194e-07
1.78692e-05
-1.82576e-07
-3.99137e-07
0.00177706
-0.000568615
-6.06002e-07
-9.89081e-07
-3.8547e-08
7.22993e-06
5.02015e-09
-8.06307e-08
-0.00852026
4.92753e-10
-5.71861e-08
-0.00295246
-4.0116e-07
-0.0166922
-0.000466092
-1.73633e-06
-9.84738e-09
2.82816e-08
-1.57463e-07
0.00068562
-0.00911549
-0.00196478
-3.64373e-07
4.7516e-09
0.000304303
2.65512e-08
-3.19145e-06
-1.37371e-07
-4.05086e-07
-8.02189e-07
2.61829e-08
-0.000575809
0.00114673
-2.52718e-07
-8.85019e-07
-1.13688e-06
-4.04639e-05
-4.41533e-07
-1.2098e-06
-0.0116183
-8.75344e-07
-0.00494597
-1.15364e-06
1.65712e-08
-9.12794e-07
-4.12347e-06
-0.00156818
3.25042e-08
-0.00474021
-4.42632e-07
-1.30121e-06
2.67422e-09
0.00147397
-4.34317e-07
-3.3387e-08
-4.80823e-08
-2.26756e-07
-2.48567e-07
3.88021e-07
4.63404e-08
-3.18852e-08
-1.91828e-07
1.43504e-05
-3.72997e-07
1.84921e-08
-9.90265e-09
-9.19986e-07
2.35604e-07
2.2647e-08
-3.24491e-07
-0.00293391
-9.73703e-08
-0.000694095
-1.17806e-06
0.000226129
-1.04376e-05
3.45433e-09
-3.71629e-05
1.76998e-08
-8.66197e-08
-7.90486e-07
-6.54352e-07
-7.9456e-07
-1.06543e-06
-5.38887e-08
-1.23264e-07
-2.96472e-07
-4.98624e-08
-7.62146e-08
1.35814e-06
-4.18162e-07
-4.50549e-08
-0.00966583
-1.28932e-07
-1.84591e-08
1.51063e-08
-0.000461377
-3.37481e-07
-6.0989e-09
-3.34829e-07
-1.72341e-08
5.37446e-06
-1.87797e-06
-7.93016e-07
-0.000689253
-0.0111081
5.88871e-06
-5.24539e-07
-0.0054832
1.98451e-08
5.75289e-07
-1.11996e-07
-1.12027e-07
-0.00634656
-0.000914935
-3.11443e-05
6.08553e-05
1.40303e-08
7.97804e-05
1.18041e-08
-1.29832e-06
-4.74449e-08
-0.00220805
0.000116158
-6.33482e-07
5.05633e-08
-2.08821e-05
1.72542e-06
2.30503e-08
0.000858814
1.14123e-08
-1.45759e-08
-4.19665e-07
-3.87833e-09
-4.14977e-07
-1.75055e-08
6.99411e-09
-1.45173e-07
1.32725e-05
-9.2343e-07
-3.88414e-07
2.9608e-08
0.000240448
-0.000959166
5.37891e-08
-0.00808573
-5.24163e-08
-2.04771e-07
-0.00187321
4.65728e-08
-2.10921e-08
-3.30617e-08
0.000333298
2.64051e-08
2.50994e-08
-6.29735e-07
-0.00188141
5.12234e-08
-1.34439e-08
-4.26673e-08
-0.00907575
-5.12447e-07
-6.21672e-07
0.000110025
1.3901e-08
2.55787e-06
-2.4082e-08
6.10198e-05
-2.7221e-07
9.54602e-09
-6.75162e-07
-9.72667e-07
2.93986e-08
-1.82974e-07
-1.83999e-06
-0.000986353
-3.59797e-07
2.37559e-05
2.46214e-08
-3.64339e-08
-7.21705e-07
3.46379e-08
-1.78801e-07
-0.00140475
2.02713e-09
-7.97366e-07
-2.26641e-05
0.00134463
-0.00948639
-1.98749e-07
1.26234e-08
-7.59717e-08
3.98315e-08
8.7729e-09
2.91187e-08
-0.00287941
1.86965e-08
-0.00459824
-1.38885e-06
-6.0533e-08
-1.73227e-07
-3.24901e-07
-1.43639e-06
-0.00779748
7.57352e-08
-5.02272e-07
-6.02915e-08
-0.000457937
-3.40305e-07
-8.6987e-07
-9.74005e-07
-1.71355e-07
-7.53196e-07
0.000883117
-1.11879e-06
-0.000612883
-0.00378633
0.000449057
-3.55441e-07
-2.10058e-08
-4.36809e-07
1.69123e-07
-1.06716e-07
-2.90599e-07
9.03023e-07
1.86329e-08
-6.43983e-08
3.15689e-08
-1.4263e-07
-3.83906e-07
-1.45585e-07
0.000535999
5.41464e-08
-0.012342
3.68734e-08
-2.48821e-07
-1.16078e-07
-1.73237e-06
-2.1584e-07
2.90391e-09
-0.00125948
-1.16374e-08
1.60773e-08
-8.72407e-07
-9.70323e-08
-4.59183e-08
-1.48457e-07
-0.000911693
-6.71748e-08
-6.41301e-07
1.88701e-06
-0.00139679
-1.06248e-07
-0.00447013
-0.0107693
-1.21015e-07
-1.70658e-07
-2.05598e-07
4.5494e-08
-6.48859e-07
0.000159785
-1.01677e-07
0.000949435
-1.67793e-08
2.64938e-06
-0.000410929
-3.29977e-07
-0.00222323
-8.39379e-08
-5.73681e-07
-4.22633e-08
0.00155022
-2.7641e-07
3.77547e-08
-1.15978e-07
-2.30729e-07
-9.77372e-08
1.85052e-08
3.41019e-08
0.000471503
7.92804e-09
-8.15787e-08
-0.00039251
-5.28262e-08
4.60209e-09
-1.77161e-07
-7.57839e-08
-0.0023295
-3.03836e-08
1.1611e-08
2.02909e-08
3.14678e-08
-1.67184e-07
-1.58363e-07
-1.07487e-06
-0.000356018
4.06252e-09
7.70661e-09
-0.00255199
-2.89017e-07
0.000421261
-5.21337e-07
0.0020837
-4.37842e-08
-4.52695e-08
7.61074e-09
-0.000482549
-0.000499176
-4.39605e-08
2.21396e-07
-8.3973e-08
-1.01208e-08
1.24807e-08
-0.000918051
3.91177e-08
-1.28268e-06
-9.22611e-08
-1.21848e-06
1.37705e-08
-0.00130106
1.15284e-08
-1.0381e-06
-3.11999e-08
3.91116e-06
-9.97919e-05
-9.8236e-08
-1.35732e-07
0.000333154
-1.05558e-06
-0.00215824
-0.0024583
1.52416e-06
-1.92613e-08
-5.23068e-07
-4.63573e-07
-0.00633281
-3.02244e-07
-1.10522e-06
-3.57831e-08
-2.56295e-08
-0.000570102
0.00130822
-1.05397e-06
-2.93863e-06
-7.70608e-06
-2.17477e-07
-0.000590998
-1.68939e-07
-9.48851e-08
-1.09741e-06
-0.000167851
3.7408e-07
-2.57569e-06
-0.00574597
7.33885e-09
0.00137857
-0.000256593
9.88321e-06
2.12118e-08
0.000233185
0.000959308
-0.000109002
-4.10775e-05
-0.000283674
-1.3526e-06
-5.49598e-07
-2.83898e-06
-1.22121e-07
-4.85489e-09
0.000269712
-1.4489e-06
-7.86804e-08
-1.72498e-05
2.37315e-08
-1.3498e-07
-9.61539e-07
-5.28539e-08
-0.00229203
-6.40124e-08
0.000244503
-1.12608e-06
-6.77803e-08
-0.00426385
0.000587589
-1.31991e-06
-6.49748e-09
8.42068e-08
-6.77491e-07
5.85386e-08
1.85959e-08
-5.33493e-07
-4.22417e-07
-2.21846e-06
2.28321e-09
1.03065e-07
-5.68138e-08
-1.29457e-07
-0.00152553
-0.00466968
-1.17623e-08
1.07739e-06
0.000734564
-3.56836e-09
-4.38704e-08
0.00027244
7.64798e-06
-1.41321e-07
-2.46092e-07
3.09141e-08
-2.16449e-07
-5.02314e-07
-0.000700503
-8.49687e-07
-1.01705e-08
1.87059e-08
-2.14768e-06
-1.42841e-07
-0.00674066
0.000240107
-2.3761e-08
2.58603e-08
-1.73342e-07
2.43118e-08
-2.27398e-07
-4.89688e-08
-1.27801e-07
5.13755e-08
-5.03872e-09
-4.8883e-08
-6.90164e-09
-1.0374e-06
-0.00722221
8.76181e-09
-0.000784603
0.000395791
-2.83438e-08
2.18651e-06
1.63021e-06
-3.1434e-07
-1.37581e-08
-1.3986e-06
-3.8952e-07
1.68882e-07
-5.12722e-07
-9.8907e-08
1.8386e-08
0.000192077
-7.57944e-07
-0.0028984
-1.46006e-08
1.35017e-08
3.21694e-08
-1.57856e-07
5.65292e-09
-6.96721e-07
-1.10867e-06
-3.08182e-05
1.34762e-08
-0.00755172
7.5239e-05
-9.53637e-05
-1.22279e-09
-6.79784e-07
-4.15536e-06
-0.000326319
-0.00820432
-1.05102e-08
-3.55916e-08
-1.21519e-06
-0.00575649
-0.00370832
-8.26956e-07
-0.00674449
1.76968e-08
-1.13506e-07
-6.64859e-08
2.04422e-08
-4.32027e-09
-1.89157e-06
7.37514e-09
1.86282e-06
-5.06905e-08
0.00045685
-0.000814283
-0.0030116
-0.0016207
-7.50019e-05
3.92735e-10
1.90431e-08
-0.00183546
-1.04511e-07
-9.0259e-08
-3.73034e-08
7.95996e-07
-0.000282072
0.000181271
-4.83061e-08
-2.57459e-07
-6.99694e-08
-4.92486e-08
-4.43462e-06
4.2786e-08
-0.00242146
0.000525674
2.56839e-08
7.46064e-09
-0.000247315
-1.20079e-06
-4.13827e-07
1.85202e-08
-0.000271325
0.000217683
-1.32552e-07
-1.18205e-05
6.92883e-09
-0.000130088
4.20918e-05
-4.86258e-07
0.000395472
0.000362502
-0.00175247
-5.98078e-08
-2.99665e-07
1.33387e-08
1.73544e-08
-0.000447741
-1.95334e-08
1.77369e-05
-0.00568396
0.000143639
-1.31801e-07
-3.23597e-07
-0.0105307
-5.22889e-07
-0.00219023
0.00134434
-2.99886e-08
-4.00361e-07
-3.93433e-07
4.16368e-07
-0.000733213
-1.02996e-07
-0.000419054
-1.33281e-07
-9.65789e-07
-1.81902e-08
4.67289e-08
-5.02565e-06
-4.27853e-07
0.000305469
2.0742e-08
-3.69931e-07
-1.17584e-07
-2.10956e-06
-3.09891e-07
-0.000359441
-0.00452383
1.08892e-05
-1.70711e-06
7.56054e-10
-3.90857e-08
-1.32009e-06
5.53664e-06
-0.000542344
-0.000831382
3.05694e-08
-0.00233727
1.1909e-06
0.000232527
-7.46461e-07
-4.16042e-07
-6.08063e-07
-1.05997e-07
-0.00108424
3.0046e-08
-5.93483e-07
-0.000654565
0.000347928
-0.000330518
-0.000174672
-1.00964e-07
-7.34069e-07
-1.4125e-07
0.000523635
-9.28033e-08
-0.00190657
-1.66109e-07
-0.00185561
-1.38867e-07
2.81965e-08
-5.55846e-07
-2.50188e-08
-2.80857e-08
-8.9453e-09
-0.000291417
-1.09895e-06
-4.75523e-09
-2.99418e-07
-0.000386434
-2.88387e-06
8.17836e-09
0.00156853
-8.08916e-08
-8.44092e-07
-8.67241e-07
-1.02729e-08
-5.41822e-07
2.63973e-08
-0.00300313
-4.7976e-07
-6.57128e-07
1.83326e-08
2.29021e-06
-6.33199e-07
-1.55887e-07
-0.00214184
-0.00744702
-7.95501e-06
-2.64004e-07
-0.00851759
2.04507e-08
-5.74292e-07
-6.04931e-07
-1.21666e-06
-0.00204478
-0.000268684
1.46603e-07
-0.000233348
-2.14711e-07
2.95659e-08
-2.45548e-08
-0.00137561
-3.71707e-07
-8.74399e-07
2.86621e-06
1.31086e-08
-0.00191677
-6.28708e-07
5.48254e-06
-0.00625094
-0.000510994
-0.000298011
-0.00130844
0.000364197
1.43628e-08
-2.21012e-08
2.25572e-08
-1.23404e-07
-9.43658e-08
-4.68651e-06
-1.20574e-07
-3.8824e-08
0.00115635
2.60033e-09
2.53245e-08
-1.05627e-06
-1.73606e-07
-4.6865e-07
-2.06681e-08
0.000495141
-2.38867e-07
-1.10777e-06
-1.09524e-08
0.000489201
-1.25915e-07
-4.72298e-05
3.93732e-08
-5.67408e-07
-2.56262e-07
2.10265e-08
0.000231304
-0.00895253
-6.34221e-07
-8.96413e-09
4.78144e-08
0.000109083
0.000758925
-0.000705691
-1.42076e-07
-6.30811e-07
-0.00718327
-1.36214e-07
3.91195e-08
-2.85192e-08
-0.000289608
4.31707e-08
-1.69862e-07
-7.37914e-07
-5.23098e-07
-0.00157775
-2.38617e-07
-8.37842e-06
-6.43821e-07
-5.70822e-07
-1.41626e-07
-2.32645e-06
-3.01279e-07
1.01536e-08
-0.00101022
0.00138069
4.37801e-05
-0.00105051
0.000856577
-0.000678424
-0.00168046
-1.70338e-08
-1.93391e-07
-0.00135447
0.000319034
-0.0019161
-4.24254e-09
-7.76135e-07
2.7603e-09
8.31341e-09
-0.00249338
0.000393588
-9.46721e-07
2.89531e-08
-0.00678059
-1.2063e-06
-6.35212e-07
-0.000150219
-0.00727672
-0.0073368
4.85389e-08
-0.000345781
-0.00311177
-2.55666e-06
-8.49307e-07
-7.13344e-07
-2.0098e-10
2.42337e-09
-5.83993e-07
-5.53792e-07
-8.36903e-08
-9.46771e-07
-4.6962e-07
-4.67713e-08
-0.00541162
-0.000226937
-9.84769e-09
-1.00758e-06
-7.1031e-05
-0.0042023
7.86198e-09
6.98233e-06
-2.25611e-06
-0.000518702
-4.31363e-07
-1.23545e-07
-4.83787e-07
-1.72503e-07
-4.39569e-08
-1.6766e-08
7.29336e-08
-7.21123e-07
-1.01419e-06
-5.20066e-06
1.27619e-08
-8.76193e-08
-0.000287415
-0.000792928
0.000538671
-0.0100836
-1.81508e-06
-1.16018e-07
1.0755e-08
-4.32593e-07
-1.21092e-07
0.00049117
1.05131e-08
5.18722e-09
-5.67365e-08
-0.00100495
-0.000484585
-1.08607e-08
-1.0396e-06
-1.56466e-07
8.9035e-09
-3.86386e-07
-4.16613e-08
-9.55294e-07
-4.0621e-07
0.00049054
-4.25329e-07
0.000247141
-3.43981e-07
0.000430904
-3.45209e-07
5.09728e-08
-2.13363e-08
-1.51509e-06
-1.38253e-06
1.71875e-08
-1.25183e-07
-3.01038e-07
-4.96566e-07
-0.00175625
0.000340099
-0.00266343
4.37659e-09
-0.0026676
-9.3321e-08
-2.0497e-07
1.44993e-08
-6.00544e-07
-5.26149e-08
-0.000623438
2.09887e-05
-1.17404e-07
1.81867e-08
-0.00083326
5.23347e-08
-0.000164627
0.000259264
-0.00576654
-6.59992e-08
-2.77892e-07
-0.00201852
-0.00627051
-0.000320471
-5.77007e-07
-6.84919e-08
-3.10222e-07
-1.48148e-07
-0.00178062
-5.98918e-08
-2.74265e-07
-0.00660257
0.000260099
-6.53406e-08
-3.33552e-09
0.000963011
-4.47331e-07
-0.000212421
4.31541e-07
1.6765e-08
-6.07589e-07
-1.76732e-05
1.64164e-07
-0.00274548
-1.92237e-07
-0.00994655
-3.33147e-08
6.57805e-09
-6.78485e-09
3.03621e-06
-1.64706e-08
-1.20741e-06
7.61241e-09
-5.06354e-08
-2.28221e-06
-5.68944e-07
-9.21258e-08
3.17849e-08
-3.05021e-07
-0.0119657
-1.04064e-06
-6.04418e-07
-4.17766e-08
-5.81427e-07
2.7323e-09
-7.35243e-07
-4.55382e-07
-7.0168e-07
-2.25514e-06
-7.55441e-07
2.09866e-07
2.12477e-07
-1.33662e-07
-1.07175e-06
0.00180457
-0.00068984
-1.63866e-07
-0.000840567
-0.000174113
3.4622e-09
-1.55338e-08
-3.52859e-06
-0.00013056
4.78195e-08
-0.000213154
-1.72231e-05
-2.30013e-07
-1.26767e-06
-7.39157e-08
-3.72756e-07
-6.12077e-07
-0.00479003
-5.84078e-06
-0.00474108
-0.00818806
-0.00107757
-0.000135696
-4.10221e-07
-0.000306735
8.99677e-09
-0.00289037
-4.29258e-05
2.42575e-08
4.52818e-08
-0.000622853
6.06526e-10
2.13922e-08
-0.00705406
-0.000751697
2.06989e-06
-5.46169e-07
-4.77299e-05
4.49003e-08
-0.000864679
-0.000244728
2.06188e-08
-0.00595857
0.000308358
0.000348563
-0.000412163
-0.000289315
-0.000554646
4.52055e-09
-2.27379e-08
-6.61168e-07
-1.00678e-06
2.204e-08
-0.00316773
1.25106e-08
-0.000326185
-0.0068725
-3.04551e-07
-0.012106
-0.000348139
-0.00708567
-0.00170006
2.10463e-06
0.000510743
-1.8723e-05
-4.4862e-07
-6.72215e-08
-0.0028785
-3.65638e-08
-1.00027e-07
0.00202261
1.12731e-08
-0.00286457
2.57092e-09
5.02448e-05
-5.06202e-07
9.52516e-09
0.000635626
5.86245e-08
-7.86631e-08
-0.000593682
-0.00303297
-0.000812432
-6.39234e-07
-1.20811e-06
-2.76154e-08
-1.06007e-06
-2.11688e-06
-1.009e-06
1.2332e-08
1.08258e-05
-7.78594e-07
-8.01801e-08
-0.000307769
-7.38736e-07
-2.42463e-08
5.51599e-07
-6.27442e-07
-1.02837e-06
1.06165e-08
-3.70332e-06
-2.64459e-08
-2.33534e-06
-0.00499852
-1.36272e-05
2.55575e-08
-5.31039e-07
0.000664289
-3.00653e-07
-5.67396e-07
-8.30349e-07
-6.34588e-07
-0.000387282
-9.43095e-07
-1.40472e-08
-0.0111071
2.51952e-08
-0.000875986
2.95555e-08
-1.81234e-07
-2.07817e-06
-0.000744672
-2.40616e-07
5.60748e-06
-1.04786e-05
-7.60808e-07
-1.18257e-07
3.17193e-08
-5.62999e-07
0.000720645
-6.26596e-08
-0.00357885
-2.4156e-06
-7.93963e-07
-3.9193e-07
6.55799e-08
-3.88667e-07
-7.53453e-07
-9.23081e-07
1.72425e-09
-1.42103e-07
-2.57983e-07
-0.00021075
7.50758e-09
-3.20795e-07
-5.0003e-08
-1.3028e-06
-3.79732e-07
-9.67047e-07
-0.000207554
-2.07829e-08
4.67353e-07
-6.00744e-08
2.75385e-09
2.58765e-08
6.41721e-09
-6.34886e-07
2.47128e-08
-1.3055e-06
0.000146102
-9.68114e-07
-8.16321e-07
-4.67678e-07
-4.93079e-08
-0.00475749
7.73907e-10