/*--------------------------------*- C++ -*----------------------------------*\
| =========                 |                                                 |
| \\      /  F ield         | OpenFOAM: The Open Source CFD Toolbox           |
|  \\    /   O peration     | Version:  v2012                                 |
|   \\  /    A nd           | Website:  www.openfoam.com                      |
|    \\/     M anipulation  |                                                 |
\*---------------------------------------------------------------------------*/
FoamFile
{
    version     2.0;
    format      ascii;
    class       volScalarField;
    location    "250";
    object      omega;
}
// * * * * * * * * * * * * * * * * * * * * * * * * * * * * * * * * * * * * * //

dimensions      [0 0 -1 0 0 0 0];


internalField   nonuniform List<scalar> 
13851
(
0.144589
0.024805
0.0246819
4.342
0.0220825
0.026611
0.025317
0.0218956
2.5566
0.0220484
0.0633393
0.0220807
0.022147
4.61716
0.0376185
0.194421
6.30822
0.0221007
0.408033
0.143599
0.0417829
0.0264414
22.0649
0.0222638
7.44285
0.0710862
3.88478
5.20527
2.40489
0.0218232
4.1565
0.0252963
0.14429
2.98194
0.043861
2.38376
0.022274
9.07909
3.53407
0.0221631
2.97022
2.42632
17.4682
0.577479
2.49938
0.0219302
0.0217162
0.16566
0.0237595
0.0221373
6.29134
0.0221997
0.194475
0.0327114
4.43851
0.0221618
0.145907
2.90638
3.69753
5.01587
0.0220881
3.84247
0.0220976
0.0238864
0.215683
0.228959
6.86459
0.0675982
0.022236
4.1268
3.59815
0.0493918
0.0220549
6.14642
0.0341051
0.0239902
5.01089
0.0217403
7.24183
0.0219644
0.0222604
0.355203
0.0432862
4.37215
4.78888
3.90376
0.0266446
5.59662
0.0220391
4.21277
0.0222365
0.025374
20.3515
3.74565
3.12179
0.347517
0.0219534
0.199497
6.06571
0.172059
0.203316
0.0439086
0.047028
0.0221098
0.0219267
0.0474118
0.0219265
3.67214
0.0253583
0.0220646
0.0314191
0.0219314
0.163823
0.0610143
0.146858
0.0318426
0.0218063
0.0218478
4.44248
4.50218
0.219505
0.0219216
0.0222138
2.87327
0.311081
0.124117
0.0219522
0.0564436
2.78563
0.0469011
0.0263914
0.031751
5.93558
2.91755
0.0645969
3.1623
0.0652854
3.7737
0.0363695
0.0467479
0.331879
0.0227447
0.022039
0.107212
6.69163
0.0237206
0.0217331
3.79987
2.62055
0.0589163
0.20357
0.156726
0.0649451
0.287018
0.0223222
0.0220655
0.0221027
3.39449
0.0433343
0.0243521
0.0222429
2.39437
0.0466461
0.166292
4.49726
2.55547
2.5833
5.07377
0.0309784
5.1439
0.0221032
0.0218077
0.0570647
0.0221392
3.18313
4.135
0.219206
0.0217981
0.0341816
0.215319
0.299977
0.537298
0.030057
0.0465938
18.7025
2.58096
0.144671
0.0297181
0.0222526
0.0218705
6.64479
0.0432701
6.58236
0.0267005
0.0235656
0.196626
0.1402
0.0224391
0.0224003
0.0715301
0.333325
3.03209
2.94077
0.0376827
2.64809
2.99211
0.0238098
0.0466758
2.57068
0.025963
0.191806
0.0221948
0.347814
0.0222344
0.0446216
0.0247453
0.0221154
0.284908
0.022458
3.84507
0.0217953
0.14238
5.65251
3.16618
0.0294156
0.047276
0.0222637
0.0939752
0.022017
0.0440699
7.65629
0.02934
0.0259568
0.0221186
2.89323
0.0218216
15.3825
2.93408
0.150362
0.0222513
1.01822
4.51227
2.53847
0.193265
0.0336676
0.142073
0.247179
0.0344535
0.323057
0.0333211
4.97462
0.139098
0.0218683
0.0266741
0.199533
2.38811
3.94197
0.0218649
0.130342
0.0220363
0.24392
0.298927
0.0271459
0.0472449
0.145142
0.0220073
0.0451428
0.12997
4.99348
0.0220836
0.0221084
0.0295228
2.69467
5.94256
0.0462695
0.0219459
0.305625
0.291837
0.125231
0.0467474
2.65207
6.31301
0.027426
0.0345075
9.0965
0.0219219
0.022102
0.129657
0.0560254
0.021827
0.0222317
0.0220097
0.0220011
0.0335848
0.0220954
2.55888
0.0436631
0.0220398
2.38158
2.96724
0.0222334
0.14568
6.42541
0.0228648
0.0222552
0.0454168
4.85866
6.43799
0.062803
0.0220728
5.17629
0.0220956
0.0678383
5.02128
4.9063
0.024197
8.30712
1.85386
3.71898
0.153242
0.0462014
3.28384
2.74461
5.25402
0.0224833
4.50554
19.8031
0.773683
0.706611
0.0238271
0.0619913
0.030057
4.93808
0.0501298
0.0218808
0.0216162
0.0278794
3.60336
3.20412
0.0219159
3.11508
0.0302443
0.0320402
0.0245105
6.17317
0.300349
0.196912
0.0244753
0.0254483
2.34546
0.0222657
0.311013
0.0273515
0.0453478
0.0311284
0.022036
0.0220365
0.149224
0.188718
0.140544
3.31321
2.36096
0.023798
2.89134
0.274259
0.0218248
4.87778
0.090674
4.96072
0.0273442
0.0770097
3.67672
7.06846
0.141135
4.40954
0.0229257
4.21928
13.2902
0.0308194
3.90111
0.0332876
3.03051
0.0340375
0.043066
0.139979
0.253187
0.0220683
0.0269628
0.0600303
0.0344002
0.0219508
0.0467285
3.71936
0.0220521
0.0467143
5.13571
0.0245316
3.48901
0.0465905
6.83642
0.0264795
0.0668478
2.02029
0.311588
0.046703
4.84835
6.08221
0.893662
0.0220134
0.142309
0.0334222
0.0755382
0.0219264
18.1106
3.8164
7.51536
0.0254103
0.142895
3.92078
5.56556
0.021703
5.91754
0.289566
23.2082
0.0343328
5.81088
0.0220571
0.0221268
5.37949
3.96066
0.0220469
0.0248324
0.0474329
0.0218361
4.04381
0.0624291
0.08894
0.0266736
0.0229449
0.0222164
5.97259
0.0220316
0.0221923
3.19638
3.85426
0.0259652
3.62493
0.0221043
0.0220943
0.024882
0.144638
0.0465209
0.0219639
0.0232443
0.206101
0.0238632
7.67683
0.022076
0.0286815
2.52761
0.0359515
0.0216492
0.0221203
0.026564
0.0226311
0.881971
2.986
0.0339227
7.89269
0.0249393
0.0220576
2.71013
3.68154
0.0356151
0.0220801
2.76565
0.0349021
5.32693
0.022109
0.0319931
0.145218
0.0358886
2.72313
3.9177
7.24681
0.0240135
0.159744
0.0220071
2.39964
0.0463385
0.139524
0.0332171
0.0242572
0.0359607
0.0577057
0.0220943
5.83838
2.69021
8.06821
5.5039
3.06053
3.8332
0.311269
0.0283999
0.0222065
5.84469
0.0220498
0.0219466
0.0304894
3.20244
0.024616
0.0227339
0.0874272
0.0466751
0.0220526
6.70702
0.0219537
2.81756
0.803589
0.0219618
0.0240461
0.300043
4.95533
0.021829
9.6925
11.6991
0.0218802
3.58612
0.398263
0.140013
0.0239823
3.26443
5.01623
0.0219059
0.364589
0.0222206
0.0219551
3.20758
3.06891
0.0386448
0.0456141
0.0220507
0.0585977
2.82358
3.30653
0.0220176
5.04054
0.0219592
0.0222439
0.0471433
0.0288655
0.0217011
0.024002
3.60966
0.238013
3.48687
0.0242552
0.0220332
2.70392
0.0221782
0.143734
0.0284741
0.0340653
0.0334819
2.67762
5.04603
0.0265479
6.02727
0.0239274
0.0620465
2.44698
3.48331
0.0222026
0.0220126
0.047172
3.4832
3.40731
0.0576762
10.7676
0.0290373
0.0331858
10.1833
6.77185
0.153337
2.77242
0.238971
2.40469
0.0226789
3.68312
5.80292
0.0220781
14.676
5.08422
0.0309733
0.0466991
0.0221269
6.68108
0.0752902
15.8217
0.0220333
0.0221658
0.0267702
0.0459597
0.0220854
3.13498
0.02216
0.240748
0.024056
0.077115
0.0221068
0.022053
0.0466063
5.28917
0.0465831
3.12713
0.0320401
0.0218457
0.0218976
0.0576424
0.0232336
0.094436
0.0250778
0.0350414
3.65058
0.0221801
4.88284
0.0222534
0.109944
5.17534
2.57456
0.0285036
15.7354
0.0848598
0.251299
4.87096
0.0220987
6.49622
0.0302702
0.0317731
5.31693
5.63407
0.0218396
0.0921884
0.0224207
2.37019
5.65249
0.0223478
0.0713393
4.23293
0.022263
0.0222517
0.0721848
6.08789
3.47359
0.0222601
0.139476
0.0236299
0.0220526
3.61794
0.142002
0.15982
0.0216738
0.13003
0.046781
0.0620016
0.0227353
0.0233962
0.0712047
0.026627
0.146776
0.0492403
0.0492021
0.126873
2.69281
0.411793
3.41083
9.46203
0.188189
3.38162
0.0402316
3.14282
0.146006
0.0220321
0.0324939
0.317235
0.0272397
0.0219658
0.0219614
0.10959
5.19774
0.0288227
2.89295
0.0218493
3.41856
0.145596
6.86609
0.0915888
0.0266152
0.0246821
5.58434
0.158814
0.0386614
3.97439
0.0227808
4.60257
0.110662
0.238823
0.0327245
0.496614
0.0220548
0.022245
0.0235064
0.0220521
2.44754
0.022001
3.59324
2.65661
0.0936771
3.32079
5.32931
0.247438
0.270499
0.0287411
0.0221803
0.0220928
0.0217418
0.0218906
0.0221412
0.0625812
0.154788
0.0504249
5.17022
0.0233266
2.57043
0.0222934
4.40043
0.0407744
0.0222834
0.0221335
2.57666
0.0267576
3.79658
5.05977
0.0450384
0.0658549
0.0218664
2.91275
0.0246066
0.024649
3.63976
0.0221835
0.0227405
0.0220298
0.0462249
4.67402
0.0295947
0.0330619
0.316834
3.23218
0.0293794
0.0271083
2.43922
0.0217374
2.41373
0.0222021
0.0238942
7.06128
0.0822887
0.142517
0.0866871
0.046861
0.0222269
0.0222935
0.0664008
0.0227501
0.0222346
0.0295099
0.300488
0.0219855
0.23256
2.57985
3.78451
0.0852759
5.10294
0.037002
0.0221757
0.138569
0.0218606
0.0270144
3.52141
2.35334
6.55204
2.50135
0.0224408
0.0223216
0.0690508
0.0232237
0.021904
21.9885
0.251592
3.74768
0.112095
0.0841857
0.0220555
0.0218284
4.27892
0.0888748
0.0242214
0.022253
0.14359
0.181331
2.92613
0.0223057
0.0221517
5.72764
0.0227093
0.0333843
0.0218391
3.21832
0.0219434
4.60675
0.022076
0.135112
0.0392398
0.0694678
0.0329733
0.022054
0.024837
0.0220229
3.54713
0.0227293
3.18592
0.0228721
4.38046
2.71154
0.031275
0.0220043
4.58237
3.05067
0.0270153
0.0822926
0.022088
5.68975
0.0220615
0.315334
0.0220658
0.0220197
3.84435
0.0336569
0.0221105
0.0331918
2.8344
5.02975
4.10265
0.0218644
3.12894
0.0220762
0.0219927
0.0223218
0.0215683
0.0222326
4.24566
3.57426
0.022465
0.0221562
0.0389599
0.0219321
4.52806
0.142066
3.99363
3.35151
0.0247806
0.146388
0.0220711
0.0416882
0.116392
0.0220821
0.0222104
1.21318
5.4442
0.0640889
14.5562
0.0611306
0.0221016
0.0407968
0.0839387
6.30034
0.0324055
3.85982
0.0912159
0.0222235
14.4048
13.3956
3.57813
6.61715
3.19892
0.0239654
0.13772
0.022189
4.5129
0.0267098
0.0218829
4.05853
0.0232107
0.0220054
0.0222036
0.023058
3.14364
0.31038
0.021889
0.0413512
4.72595
0.0234166
13.7689
0.0233581
0.077607
3.06501
0.0220983
3.47922
0.029781
0.032553
5.80351
0.0232016
0.329821
0.0660812
2.91919
0.0225794
3.64202
0.0305163
3.27015
6.4217
4.80611
0.045177
0.0220671
0.0224453
0.022263
0.0411243
0.0221239
2.73854
0.0291432
0.0282123
0.0291191
0.0238966
0.0218602
0.0280702
0.027685
0.0240407
0.0273349
4.28788
3.50361
0.0299802
0.0499231
4.22112
0.0227883
3.62628
0.0217424
0.0333915
0.0227362
0.0220211
0.0448876
0.0220525
0.0218845
0.045515
0.0220725
0.281806
0.0230526
15.4371
5.06157
0.245549
0.292409
0.0222798
3.23985
0.168357
0.0222258
0.0276013
0.0226398
3.78
0.0233266
0.0450228
4.82762
5.75674
0.0790576
0.022307
2.62821
4.80167
3.13891
0.0296912
0.0218378
0.0220072
0.0629195
0.0220623
6.15614
0.150237
0.022197
0.287343
0.291237
0.0220081
4.47393
5.10704
0.24656
0.0229738
2.6282
0.062086
0.0220227
4.7794
0.0269293
0.0219643
0.0219615
0.0329059
0.0413414
2.58229
4.6761
0.042001
2.58801
0.0343609
0.0220349
0.0849017
0.0219667
2.45474
0.022031
0.0220468
0.0242378
0.0226981
2.68353
4.67291
3.12332
5.2335
6.22389
0.0293406
0.0220632
0.0230541
0.366114
0.0220203
0.0220247
0.0428199
7.23661
3.32575
0.0217433
0.0392045
0.0332082
0.138378
13.9827
0.021882
0.0216888
0.0241184
6.82536
0.0294735
2.82748
0.0233783
0.0221629
0.0219724
0.0219577
0.0247168
0.245696
2.42785
2.54313
0.0290736
0.0220579
3.3676
0.0226422
5.84626
3.85367
0.0309054
4.43652
2.42908
4.44927
0.0548368
0.0322249
2.85836
0.0308004
0.033967
0.0710725
0.256691
0.0226884
4.87572
0.0220375
3.51903
7.18924
0.0217455
0.0240738
0.0457668
0.339675
0.033588
0.0221427
0.0286319
0.0233339
0.0264431
1.08953
0.0221623
2.98134
4.67881
0.0220427
0.0312846
0.0408621
0.0220838
2.33537
11.7322
3.25507
2.69097
0.0220413
0.0248883
0.0267967
0.0223352
3.26629
0.0339822
0.0222566
0.0613888
0.0260241
4.25295
0.0393614
6.19131
0.0232116
0.0234271
0.0514548
0.0884019
0.0674745
0.0220072
12.6201
3.10952
24.6037
3.54286
3.43616
2.56003
3.44614
0.022008
0.0220337
0.0222085
3.35131
0.0456429
0.0671368
6.15889
0.0224938
0.0217043
0.0220497
3.10257
0.0217264
0.0271693
0.0238977
3.40571
0.0230726
0.0218669
0.0220876
0.022018
0.0221629
0.0344959
3.00154
0.0341
4.39934
0.0220391
0.0219589
2.77833
2.79222
5.65067
3.61751
0.0482237
3.40335
0.0218329
0.0603166
0.0234292
0.0220812
0.0248971
4.17737
0.0233868
0.0897527
4.5065
0.0225233
0.0220069
0.0265916
0.246461
0.0222718
3.39048
0.0221917
2.98375
0.0221264
0.0224558
0.0271057
0.0952399
0.0221586
3.92846
3.66776
2.65321
2.95112
0.0220572
5.22579
4.48288
0.0220525
7.14062
0.0223234
0.042786
0.0222534
0.0224923
0.0219644
0.0220514
0.0225723
0.0274793
0.0637241
0.0223789
0.0220983
0.0619759
0.0218317
7.62381
0.022127
0.0319283
0.0343693
4.08262
5.26407
0.022147
0.247837
0.0218338
0.0315264
0.0676534
3.6335
0.0469726
0.0222722
0.123943
0.0762971
0.0824134
4.82778
0.0358931
0.140692
0.0573961
0.0655078
0.0230287
0.0219297
3.83707
4.88167
0.0248516
0.0220191
13.5395
0.0218534
0.0411258
0.0219688
0.0781481
7.29153
0.0216489
5.37185
0.026473
0.0221706
0.21543
0.0218829
0.0410283
2.57179
0.0390293
3.7851
0.0219594
0.0222646
0.0445223
0.0222253
0.0222467
0.0285612
0.0297522
0.0639899
0.0811285
0.0221388
0.0391717
0.0219082
0.0220646
0.0222144
0.0220548
1.36929
0.0220508
0.0233939
3.58955
0.0218485
0.0220078
2.74746
0.0222498
15.1864
0.023585
2.80484
0.292324
0.0521031
3.23653
0.0621316
1.83924
0.022606
0.194744
0.0271723
0.0219179
0.0219335
0.0233722
0.0310684
0.0220063
0.0526845
0.0219137
0.02342
14.5077
6.26426
3.79001
0.0247945
0.0464596
3.98431
5.94642
0.0221723
0.026918
1.78671
0.0223791
0.0396168
3.29506
2.54268
0.0277827
0.0427449
0.0229441
0.309564
0.0222849
0.0360748
5.63152
0.022228
0.0219202
7.79962
0.0425534
3.41414
3.01413
0.109659
0.0225009
0.021917
0.0224886
3.85685
5.68596
4.66616
0.0542137
0.0220539
3.52508
0.0221102
0.156931
0.0268898
0.0238638
0.0418181
0.0220604
4.81776
6.21125
0.0218791
0.0638998
0.0468915
3.50939
0.0432168
0.0574005
3.39264
0.0343027
3.45915
0.0594774
0.0221128
0.0357289
0.0819591
3.20002
0.0220375
3.83424
0.0454626
0.061258
0.0222725
6.18872
0.0265425
0.0237954
0.0219095
0.0389787
0.0378146
0.0557081
0.0221276
0.0228317
0.0555876
21.2474
0.0579384
0.0221572
0.0227054
0.0357094
0.243794
0.0221711
0.0829738
8.26995
0.0473963
2.65523
0.0407529
6.42879
0.328553
0.0220095
2.64978
0.0222385
0.0251878
0.0328463
0.0341405
0.0931159
0.0462369
0.0429745
0.0448583
0.0309806
0.0243384
0.021719
0.0830463
0.0259128
0.0290123
5.14908
0.0263078
0.0305738
0.021959
4.17254
0.0780184
0.0221343
0.0250688
0.0233513
4.98142
0.144581
0.0328422
2.50089
4.69555
0.901797
0.0878103
3.48182
0.021908
0.308402
0.0220236
0.0270443
9.17293
2.32983
0.402911
1.50591
0.0221223
6.12897
0.0219052
0.0821209
0.0254117
3.38333
4.08765
0.0269839
0.022024
0.351563
0.0438095
0.0220254
3.49341
0.0220722
0.0238841
0.0259138
0.0222451
0.0306776
0.0234475
0.0220547
0.0347785
0.425281
0.0393815
0.058045
0.0220222
5.24876
2.34474
0.0220058
3.75255
0.0253536
0.0294134
4.32186
0.0220026
0.0228156
0.0281344
3.25267
0.0220342
0.0221827
0.0388968
3.13212
0.0219893
0.0323417
0.0344683
5.06214
0.0447894
0.0386284
0.277649
0.022077
0.116952
0.0217498
5.48089
0.0300459
0.0220528
0.0278831
0.0894079
0.0221507
0.0223546
0.144472
2.62052
0.0226285
4.96012
0.0221875
0.0217446
0.0611535
0.0220367
0.0220506
5.4303
0.0222734
0.0393346
0.211753
3.84145
4.96684
0.0220104
0.0241331
0.028301
0.0220754
0.0220624
0.0220966
3.45261
0.0221948
3.37932
0.126201
0.0219189
0.0218439
0.0300197
0.126759
3.70205
0.0551207
0.0586623
0.0240451
2.5476
0.0747887
0.031494
0.0403647
0.0642133
0.0868434
18.9985
0.0391597
3.01904
4.41943
5.49799
0.0250416
0.0220229
0.037315
0.0343316
0.0219291
0.0226485
0.127176
0.0222432
0.0224388
0.0220534
0.0216796
0.0239735
0.0222035
5.3283
0.0220208
8.687
0.0220829
0.0852614
0.0227396
0.127499
0.0766331
0.0220707
3.4736
0.0240757
0.0222251
0.0394501
0.0218978
0.03104
0.0221061
2.49234
0.024411
0.0407665
0.105219
3.55023
0.0286213
3.37243
5.15086
0.0503881
0.0222737
0.0232258
0.106372
0.0605633
5.79448
0.0218349
4.7547
0.0221687
0.0883636
7.99614
0.0357052
3.35712
0.025445
0.0320774
0.0250388
5.92892
0.0310542
0.0221421
0.0485363
0.137416
0.0236058
0.0220437
0.0221433
3.45424
0.0222518
0.0278544
2.83375
0.0262428
0.0220091
0.0555053
0.0251801
4.00866
0.0217054
0.0220323
0.0218788
0.0262226
0.022579
0.0222844
0.0611608
2.71037
0.0219928
0.022104
4.69461
0.0225559
5.04634
0.0244435
5.7415
0.0219152
0.0245274
0.0218327
3.14435
2.96399
0.0306403
0.0702042
0.0270952
0.0219943
0.0221179
2.53314
0.0221369
0.0820688
0.0218969
0.0432105
0.0221893
4.51294
0.0218572
0.0445648
0.0219001
0.45783
0.830543
0.0218739
0.044399
5.61915
0.0647884
3.51498
3.39108
0.223157
0.0235064
0.0335109
0.0893445
5.03863
0.0225229
0.0388615
0.0283652
0.0220456
3.3232
6.06525
0.0652103
0.159763
0.334199
0.0334226
2.70778
0.0219248
0.0218641
0.0914205
6.7645
0.234382
0.148375
4.72775
0.0218354
6.22963
2.96419
8.81556
0.0222027
4.31125
4.73736
0.893661
3.87412
2.79275
0.0849116
0.030336
0.165584
0.0258208
0.0220219
1.8249
0.0887376
0.0217055
3.92138
0.022188
0.0296184
0.0412403
0.0269113
5.55175
0.0349915
5.38834
0.0443159
0.0262982
4.47103
3.2287
0.138697
0.0224087
0.0259769
0.0673522
0.0581892
0.0218482
0.0458693
0.0618829
0.137017
0.022011
0.201081
0.0245608
0.0487686
3.20793
3.44872
0.0231512
0.124292
3.72718
0.0222273
0.0229509
8.08799
0.312175
0.0245904
0.0249818
0.0220921
0.0720781
0.0259744
2.42114
0.0927087
0.0226078
0.0222232
0.0657301
0.0297907
4.55359
5.18178
0.0219145
0.0220369
0.0278717
0.0221943
0.0244843
0.0230734
0.0229774
0.0259723
0.0219616
0.0250518
0.0222154
0.0464281
5.08179
0.022264
4.17546
8.87261
0.021751
0.233524
0.123441
0.0806604
0.0228498
0.0889099
0.027353
0.079843
0.0297604
0.0234609
0.0222094
5.7193
0.0289716
3.72616
0.0228318
0.0220451
0.0220256
0.0686484
0.0219849
0.04736
0.0590835
1.49475
0.0219315
4.31299
5.69892
3.006
0.021828
0.130725
0.956363
6.02116
5.53727
0.0225949
0.0223919
0.147675
4.66001
3.81436
0.0393919
3.78201
0.0222315
0.0219528
0.0403111
0.0221955
0.0221484
0.151149
0.0222651
0.0901532
0.021909
3.14931
3.85452
4.30569
3.26357
3.17971
0.0221539
0.0221449
5.54607
0.0218536
0.0218838
0.0217473
0.114475
3.00334
5.29716
0.0277628
0.0223869
0.0233528
0.0376519
4.68405
0.022038
3.41134
3.22395
0.0221884
0.022178
3.17129
0.0775463
0.0238208
0.0220452
4.23829
3.27939
0.0221527
0.250724
0.0222533
2.90061
2.77353
0.0241949
7.56482
5.65326
4.7135
0.0218909
0.0225127
0.0222444
0.0222862
2.84236
0.0219472
0.217941
3.52421
6.98532
0.0228917
0.0557637
4.61614
0.0466061
5.53461
3.53952
0.0216803
0.0260093
0.026142
0.186552
2.70104
0.0216612
4.53838
0.032478
0.0419652
0.0228602
0.021951
0.277091
0.0391164
4.58493
0.0221954
0.0526757
0.0227759
0.127754
0.0246067
2.68256
4.47341
0.245342
0.101324
0.0220016
0.0241033
0.0828236
0.213614
2.66382
5.44238
0.0221497
3.45252
0.0913618
3.61416
0.0276578
0.0420839
0.0384088
0.0222338
4.55167
0.0220712
0.0323131
2.81514
3.055
1.35852
2.93245
0.0285107
0.0466218
0.0218442
3.1845
0.0274908
6.47888
0.0218377
3.84421
0.0216543
0.0220067
0.0318959
0.0315613
0.0328066
0.0220297
2.84803
0.0435182
0.0219517
0.0371782
3.15063
0.538154
0.0220496
3.783
0.0246095
0.0343528
0.0326941
0.0217274
0.0591721
0.0220006
8.80692
0.0790528
0.0276403
0.0220355
0.332775
0.0385205
0.0218393
4.37592
5.80638
0.295179
0.0218631
4.96785
0.0221411
0.133525
0.0280877
0.112524
6.34482
3.03449
0.0349611
2.93229
0.0486859
0.0287404
0.0218599
4.00579
0.108132
0.0958449
0.0617393
0.0222434
3.27249
0.0808794
0.345687
3.51912
5.01437
2.80383
4.88473
3.91596
0.0291747
0.0318117
0.0220969
0.0222225
0.0216776
0.207791
0.0293298
0.033674
3.64684
0.021959
0.0218704
0.0413264
0.138558
0.0280917
0.0218516
3.06774
0.0245122
0.0466085
0.0222968
4.67189
0.0290068
4.23291
0.0562555
0.0335328
0.0508207
0.0220901
6.98809
4.34005
0.0645262
0.0221059
0.0219147
5.52932
3.85304
2.37262
0.0219801
0.0656141
4.70398
0.0222206
0.02201
0.022189
2.92989
0.0991149
0.0345504
0.0282077
0.0265348
3.52327
0.084084
0.309501
0.0271363
0.0322127
0.0216785
0.118346
0.0528314
0.0220289
2.52948
3.55835
2.80878
2.66943
4.32468
7.48976
5.39016
0.0232134
0.0220258
4.94344
3.85012
6.55568
0.0221318
0.0389596
0.022054
0.0219889
3.34666
3.12734
0.0599578
0.0220084
4.06783
0.0891183
0.0464193
3.41778
4.86606
3.81832
0.0219196
2.68599
3.45777
0.323205
0.0326134
0.0409306
0.0221998
0.0218946
0.0377219
0.0435055
0.0246633
0.0397754
0.0280616
0.0252587
3.24925
3.25556
0.031846
0.0417471
3.05551
2.5755
0.0221125
0.44954
0.857188
3.82341
0.0398236
0.0222924
0.0295361
0.0269984
0.0304871
0.0217273
0.0333623
0.0314396
0.0449865
0.217153
0.0222306
0.0232378
2.89824
2.54204
3.19137
4.39991
0.122095
0.021629
0.0220507
0.0302283
0.0218287
5.33607
0.022046
0.0222731
0.0217786
2.49023
16.7696
0.0225013
0.0599041
0.0283512
0.0356466
0.029896
0.0354624
0.039243
0.0364869
4.20479
0.026579
3.58708
0.0382147
3.23741
0.0292967
0.0219386
0.021853
0.0916067
0.144703
0.0218416
0.0394423
0.0294699
0.0552415
3.28031
7.18718
4.02443
0.0222729
5.2953
0.0300167
0.0362421
0.0220359
0.0639509
0.0239201
3.03065
1.83823
0.039389
0.0220801
2.53856
0.0274671
3.52026
3.97793
3.30741
0.024491
0.124117
3.77859
5.18186
2.68049
0.0560624
0.022043
0.0387873
0.0219946
8.41805
0.0248682
0.0314896
4.08866
3.31058
0.0220039
0.0220018
3.43267
0.0402864
7.59191
0.0330364
0.0220456
0.0410807
0.273407
0.043557
3.59336
0.0355846
5.02093
0.0253558
0.0222442
0.0219887
0.259643
0.0227495
0.119826
0.0220602
0.0221031
0.23173
0.0266269
0.0222329
0.02204
0.0347796
4.90304
0.0423049
0.037951
0.026624
0.0567026
0.0220859
0.141999
0.0303754
0.0415359
0.0697939
0.0288098
0.0830687
0.0451031
0.0219682
0.0638094
6.60627
2.5844
0.0222945
1.68889
3.45669
0.0219961
0.0227396
0.746651
3.30839
0.0280989
3.29202
0.383553
0.0223093
0.0827703
0.0216715
0.0263228
0.0570704
9.63835
0.470934
3.30228
4.4589
2.61861
2.77998
0.0238864
2.78723
0.0220431
3.3958
2.91119
0.0221007
0.0220835
2.73342
0.0221392
0.0220867
4.08492
2.80125
0.246337
0.0266764
3.11644
0.0221038
2.62966
3.03498
0.0221901
4.12772
5.6035
3.39181
2.79219
2.9042
2.92428
0.0218985
0.0233074
0.0573933
0.0611282
0.0220815
2.84834
0.0220452
2.78466
3.89458
0.0492708
3.56423
2.69335
3.81375
3.185
0.0603881
6.29083
0.412336
0.0257257
0.0217003
3.48384
0.0350476
0.0218447
5.8447
0.022
3.54624
0.0221685
2.98367
0.0259838
0.0219979
17.3674
0.0276798
0.0356228
3.045
5.76444
1.74793
0.0282226
0.0455186
0.023473
0.0396408
0.12556
0.0400267
0.0222096
1.43956
0.0574593
0.0330936
3.22898
0.039211
0.0372162
0.184984
0.0679884
0.0440308
0.0219943
0.190479
0.0218542
0.125964
3.57425
3.43495
0.0218857
0.0379035
4.08037
0.0235973
0.0602376
0.0317732
0.0404689
4.69243
0.0572666
0.0235544
13.543
0.0218943
2.53602
0.0221255
0.0232636
0.12544
2.37626
0.0323531
0.38259
0.51998
0.0316331
0.0223776
0.156755
0.0431402
3.51623
0.0267165
9.43928
0.144318
0.0316989
0.0294682
0.0980293
0.0365735
0.0743563
0.0571588
0.0382626
0.0245741
0.0223802
1.75685
0.0220386
0.0287631
0.0216736
0.111496
0.0291333
0.0569931
3.02677
0.0230876
0.245408
0.0215837
0.0221859
0.0221884
0.0222065
0.0272157
0.0219525
0.0843772
6.35126
0.0567135
0.043553
0.0255509
0.0221443
3.42009
0.0220741
3.91743
4.48277
3.96843
0.175241
0.0346138
0.0277795
0.0221773
0.0300347
0.094934
0.0412866
3.09994
0.0564764
4.2247
0.192297
0.0222101
0.0218563
2.64071
0.0219915
0.0298492
0.0644414
0.344364
0.0237495
2.80415
0.0221736
0.0260008
0.0220554
0.0227421
0.161815
0.111892
0.022354
0.0328757
0.035546
0.0444118
0.0558807
0.455117
0.321786
0.250374
0.163355
0.0270777
0.0231823
0.0555971
2.36313
5.35949
2.54061
0.0319395
5.60943
0.111837
0.0230427
0.0220008
0.0622121
0.022144
0.0329553
4.5985
0.0219847
0.0219123
0.526504
3.27608
0.0466439
1.17751
0.022143
4.57223
0.0409008
3.25318
0.0297486
0.0220926
2.63006
0.0599918
0.022052
0.0703724
0.0222524
0.144152
0.0289929
0.0560352
5.90973
0.0339133
4.44007
0.021948
4.50822
0.0221646
0.0263865
0.0226343
0.044419
0.0221438
0.0553081
2.49826
0.909781
0.0468244
0.0320882
0.0772681
0.0219805
0.0220076
0.023374
4.15557
0.0257964
3.10515
3.76807
0.128175
0.0222148
0.131784
0.205085
0.142565
0.0268399
3.72003
0.0220092
0.0216246
0.0219902
6.23938
0.0222194
0.0220427
2.54412
0.0219917
0.151241
0.0976526
0.0219731
2.68098
0.028988
2.97383
0.0220204
4.69134
0.0230264
0.0711958
10.0207
0.0614596
0.0219664
0.0279029
3.97912
0.032766
0.135042
0.0309651
0.0265585
0.130096
0.0293229
0.0225633
20.0424
0.0293635
0.0289275
0.191043
0.0219962
0.0219057
0.022189
0.0318252
0.0221705
0.0260825
4.3672
12.7875
0.0998004
6.451
0.0613805
0.0354202
3.39232
3.98234
0.0225117
7.44194
8.60016
3.0251
2.34965
0.030853
4.05741
2.5984
17.6587
2.55177
4.99255
0.0428747
0.0820103
0.0296788
0.0267081
0.0221702
1.13748
0.0222849
4.39338
0.120411
0.302053
0.0216499
0.0706553
0.0458681
0.0236696
0.0222931
0.0221185
0.118996
0.0240436
0.0225416
0.0409811
3.35379
0.0246341
0.141254
0.0218468
0.12202
0.082004
0.0222096
0.0269008
0.0219548
2.98924
2.79812
0.169336
5.68287
0.0333883
0.0822754
0.0221322
0.0413358
0.0220622
0.0224559
0.0222328
3.43929
0.0218347
0.0464757
0.62762
0.0280348
0.0310013
0.0220094
3.75477
0.180007
14.604
3.74756
0.155192
0.355849
3.39111
0.369117
3.5318
7.013
0.121042
0.0346577
4.46318
3.32261
0.0220489
5.16693
0.138112
3.80222
0.0216642
0.0596409
3.80969
0.0222729
4.21746
0.0255053
5.29014
0.0220924
0.0221153
0.0626776
0.208958
0.027423
0.0592489
0.0219053
0.0223088
2.88613
4.47754
7.08637
0.0539202
0.0225511
0.0224973
0.0221359
0.0362779
1.01108
2.80235
4.39008
5.47146
0.0318139
0.0219565
0.0219851
4.92229
6.9931
0.275022
0.0266044
0.0249551
0.0822858
4.65722
6.43717
0.0216328
0.0219731
3.88322
0.0232655
0.231221
0.0281409
0.0221267
0.0325821
0.0463153
3.66223
3.53809
0.0222022
0.0219165
0.0250432
3.35582
3.73075
0.0222647
0.120284
3.29327
0.0216316
3.32112
2.6794
12.9766
0.0221111
5.68589
3.78512
0.0389483
0.285519
0.025366
0.302902
0.376092
0.0259959
0.0219657
7.23536
4.85133
0.0219986
0.144914
0.129744
0.03008
0.286434
3.46919
3.67592
3.44075
0.0287531
0.0236837
0.0235434
2.8314
3.87641
3.64526
5.30256
3.59775
0.0218182
0.0438053
0.0220681
0.0221156
0.0250279
0.0219749
0.0220619
0.0225475
2.80696
10.5726
5.56843
0.0561607
0.188937
0.035999
0.0218992
0.0219887
3.5012
0.0221388
4.91355
2.50491
0.0221788
0.0219977
2.4736
0.022683
0.466545
0.0261148
0.0217827
0.0218196
3.3816
0.0217455
3.36152
3.23898
0.0216556
0.044433
0.0220063
0.0233492
0.0220976
0.105144
3.86599
0.0219775
3.11386
0.415754
0.0242218
0.0219986
0.0227705
0.0238345
0.0222258
0.452513
4.15986
5.06097
0.0415641
6.96264
0.0222723
0.0264051
0.0225701
0.155864
0.0235151
3.75471
0.0218732
3.28416
4.0282
4.55438
0.210775
0.021869
0.0418327
0.0219824
3.19077
0.022166
0.0286008
0.0266582
0.0259614
0.022238
0.022251
0.0326101
3.13402
0.0222202
0.0230464
0.0243706
0.0337616
0.236025
0.0221876
5.08431
2.49558
0.0241965
3.0405
4.13401
3.36726
5.28541
0.0216129
0.0232145
3.48558
2.65801
0.127231
2.6242
2.8059
0.0326833
0.0466471
0.0311279
3.56829
0.0220399
0.0219681
4.43111
0.125546
4.62769
0.0253905
0.0218036
0.0220486
4.44357
0.0689463
0.0248066
0.203036
0.0219653
0.0614733
0.030396
0.0306914
0.0223349
0.0221884
0.0219333
0.0251625
1.16235
4.35434
0.0216604
0.0220089
3.15488
0.0221443
0.0623066
0.0260364
0.0256703
0.0393978
0.0222856
3.3764
0.0302223
0.0253804
16.5984
0.0829316
0.0234027
0.0343187
0.0220461
0.0226169
7.18757
0.280143
2.64442
0.0225018
0.022154
0.0570879
0.0273416
0.0220351
0.0397811
3.46884
0.0260488
0.0400798
0.0255144
0.125183
0.0221164
0.0219038
4.39127
4.62099
4.57529
0.0219998
0.160718
0.0218275
0.0220275
0.0723095
2.86013
0.0655221
0.0283257
0.16032
0.0231903
0.0303314
0.0512258
0.70845
0.0224826
0.0217018
0.0226286
0.0251282
0.0283793
0.0219725
1.04085
10.5746
0.022292
0.0321976
0.0224634
0.0218419
2.70889
4.54736
5.89067
0.0778606
0.0224158
0.0560668
3.23659
0.090813
0.111374
0.0339997
0.0299659
4.06213
0.295574
0.61543
0.0217901
0.0307112
0.0221336
0.0303551
5.88078
0.0216756
0.0403346
0.0255674
0.030129
0.0232056
0.0219626
0.0218896
2.65728
0.0445825
0.0310598
0.0643153
0.0349917
6.37504
0.0314176
0.451057
0.02195
3.98115
3.81696
5.9277
0.0222645
0.0319169
0.0220849
0.0220115
5.66558
0.0444828
4.1403
0.0220047
0.0448535
0.186244
2.84743
0.0282175
0.0218171
5.62523
0.022285
0.0222841
0.0227278
0.0220392
6.23032
0.0218858
0.0219099
0.03633
0.0274362
0.132759
0.119379
0.0333193
2.78791
0.0223857
0.152035
0.0219833
4.05377
0.0339719
0.410231
0.135236
2.23677
0.111833
3.66778
0.0234638
4.85282
0.0325688
4.08288
0.17372
0.0280647
0.190942
0.0222227
7.3605
0.023493
0.0372493
0.0273036
5.24596
0.174112
3.52247
0.031153
0.022033
3.92055
0.207201
0.0582116
0.135595
7.78045
3.79893
0.0389719
0.234776
0.0411239
0.0219158
0.0471007
0.224956
0.0662275
21.5414
0.109545
0.0218572
0.0221441
0.124689
0.0220865
4.80188
0.0693426
0.0220863
2.48988
5.52959
3.32531
0.100057
0.0222091
0.0291598
0.0258956
3.28032
2.43254
0.0258849
4.32561
0.0219738
0.0317217
0.809803
0.022013
0.0392568
0.0219419
0.0264152
0.0222512
0.154192
4.79109
0.0302826
0.0295352
0.0218071
0.125615
0.021979
0.0218628
0.0330564
0.0219372
0.186129
3.60424
2.6488
2.79158
0.0218405
4.59978
0.0221887
0.0372702
0.117817
0.0223428
6.94032
0.0667131
0.0221059
0.0218265
0.0405756
0.0376321
0.163602
3.36011
0.0259191
0.0241025
2.83265
0.0609218
0.296216
0.677165
10.874
3.02174
4.23753
0.968544
0.0221815
0.0221149
0.0459223
0.022301
0.049064
0.0392924
5.17809
4.43119
5.35127
0.0218699
0.0218856
0.1089
4.15295
3.66637
1.06126
2.42469
0.0558806
0.0329038
0.951331
4.23085
0.0274758
3.41791
0.0332152
0.0305355
3.51843
0.0424884
0.0222854
3.69781
0.741815
0.0254309
0.12462
0.0240906
3.23507
4.03813
5.95616
0.0220256
0.0217321
0.13791
0.0220255
0.0220972
0.0220276
0.0217847
0.0220316
0.0220372
3.93194
0.0280438
0.0461378
3.40167
0.0219155
0.0220448
0.0316094
0.0271087
0.027043
0.022052
0.0630857
0.0307202
0.0265794
0.0831193
3.27104
0.0220626
0.0416156
0.0220742
0.022041
0.0216872
0.0220864
3.06985
0.0220005
0.0220443
0.0220992
0.0431671
3.02599
3.46908
4.03958
1.48866
0.0435843
3.21103
5.03341
0.0219639
0.0422831
5.01037
3.43162
0.0221131
0.0294185
0.0443914
0.0374717
0.0220632
0.0436563
0.0577054
0.0442003
0.021693
0.0508912
5.90795
0.0216552
1.71465
3.2812
0.0422813
0.619128
0.0352431
0.0220921
0.0261578
0.0220358
0.208077
3.76116
0.0218204
0.0432087
0.0219942
0.0219821
0.0222671
0.0222857
0.0373653
0.0221721
0.11358
0.128883
0.0260105
0.0247658
0.0435363
0.0220515
0.0442888
0.0339545
0.0225198
0.0221037
0.0221418
3.33098
0.0220404
0.275097
0.0435059
0.0222529
0.0220808
0.0219603
3.54577
0.0255814
0.0428691
0.0499916
3.87055
0.0283
2.76772
1.91035
0.0434586
0.0219854
0.232876
0.0377182
3.91729
0.0670474
4.16185
0.0218993
0.0482014
0.0475654
2.83235
0.0220299
0.04438
3.94119
0.0219045
7.09392
11.3715
3.93285
0.022
0.0219481
3.10762
0.022053
3.58145
0.155779
3.45921
3.41439
0.0218912
0.189265
0.238833
4.64099
0.0245182
2.02731