/*--------------------------------*- C++ -*----------------------------------*\
| =========                 |                                                 |
| \\      /  F ield         | OpenFOAM: The Open Source CFD Toolbox           |
|  \\    /   O peration     | Version:  v2012                                 |
|   \\  /    A nd           | Website:  www.openfoam.com                      |
|    \\/     M anipulation  |                                                 |
\*---------------------------------------------------------------------------*/
FoamFile
{
    version     2.0;
    format      ascii;
    class       volVectorField;
    location    "500";
    object      ddtCorrDdt0(U);
}
// * * * * * * * * * * * * * * * * * * * * * * * * * * * * * * * * * * * * * //

dimensions      [0 1 -2 0 0 0 0];


internalField   nonuniform List<vector> 
13851
(
(0.000703405 -0.00254518 -2.49804e-18)
(0.104722 -0.0626945 -2.99293e-18)
(-0.000187947 -0.00425415 -9.02298e-18)
(0.000493529 -0.00263129 -1.87935e-18)
(0.00181768 -0.00458321 -4.85875e-19)
(-0.00646583 -0.00269649 8.61254e-21)
(0.00112502 -0.00014439 -1.85123e-18)
(0.00107978 -0.00277118 -8.33763e-18)
(-0.00288614 8.34842e-05 -4.23479e-19)
(-0.00332832 0.00113867 -9.65328e-19)
(-0.011752 -0.0208251 -1.77587e-18)
(-0.0447173 -0.00487791 2.164e-19)
(-0.000320219 -0.00341177 -7.4733e-19)
(-0.00199113 0.0263439 -2.36734e-20)
(0.000507546 -4.19599e-05 1.29637e-18)
(0.0016229 -0.00164671 -3.15766e-18)
(0.00177217 -0.00149232 5.92771e-18)
(0.000420428 -0.00103161 -8.69093e-19)
(0.00052343 -0.00318945 -7.85245e-18)
(-0.0028432 3.1195e-05 2.47586e-19)
(0.00042609 -0.0025799 -1.7099e-18)
(0.000192565 -0.00426374 9.50018e-18)
(0.000578576 8.36973e-05 -2.23547e-20)
(-0.00203741 1.05654e-05 -9.87725e-19)
(0.000451701 4.37276e-05 -9.77474e-20)
(0.000933921 -0.00269299 6.13237e-18)
(0.00242517 -0.00115325 -1.5118e-18)
(0.000614415 -0.00288932 3.97939e-18)
(0.000694188 -0.00242611 2.18742e-18)
(0.000871647 -0.00158153 -3.41917e-18)
(-0.00819061 -0.000254229 -7.45035e-21)
(0.00178624 -0.0015453 -1.19473e-17)
(-0.000328561 -0.00395441 5.86187e-18)
(0.0310056 0.0276236 -9.91179e-19)
(-0.00214517 3.93903e-06 7.73204e-19)
(0.00540806 -0.00953877 1.23696e-18)
(0.00373947 -0.0100914 9.25189e-18)
(0.00341552 -0.00562309 -4.48728e-18)
(-0.00453841 0.00114828 -2.32996e-19)
(0.0328706 0.0415277 1.08165e-18)
(-0.00014534 -0.00142958 -2.97215e-18)
(0.00181622 0.000230565 1.63743e-19)
(-0.00181364 -0.00226339 -1.56043e-17)
(-0.0322155 0.00254725 -2.59885e-19)
(-0.0378177 -0.00886604 -4.87693e-19)
(-0.00632019 -0.0055516 -1.0946e-17)
(-0.0429236 0.00855119 4.99279e-19)
(0.0341869 0.0234258 2.81202e-19)
(0.0024902 -0.00119851 -1.67454e-18)
(-0.00361372 0.0576571 1.98121e-18)
(0.00313238 -0.00536081 1.30418e-17)
(0.00134038 -0.00603335 1.20287e-18)
(2.27448e-05 -0.00100108 -1.53033e-17)
(0.000485596 -3.39167e-05 1.28123e-17)
(-0.000434435 -0.000100283 8.35952e-20)
(0.00185854 0.000217409 -1.61409e-19)
(-0.00138755 0.000176404 1.98022e-20)
(-0.000965864 -0.000621905 -1.6696e-17)
(0.000859736 -0.00154708 2.47074e-18)
(0.00118781 -0.000305257 3.23234e-18)
(0.00370726 -0.00633153 4.07193e-18)
(0.00626943 0.018892 -8.54709e-18)
(0.00282612 0.00594809 -2.25675e-19)
(0.00174349 -0.00480775 -1.30418e-18)
(-0.000212954 -0.026878 1.42257e-19)
(0.000880997 -0.00311262 -8.54089e-19)
(0.00664986 -0.0106613 1.40694e-18)
(-0.0361725 0.0178411 -5.87499e-19)
(0.00315739 -0.00268961 -5.92417e-18)
(0.00053738 -0.000934555 2.54479e-18)
(-0.0440709 0.0030171 1.75363e-18)
(0.0125855 -0.0110609 3.00795e-18)
(0.0905977 -0.0731844 4.30304e-18)
(0.000494756 -3.30552e-05 -1.23571e-18)
(-0.000626619 -0.000227676 -4.4299e-19)
(-0.00353071 5.41933e-06 -3.06874e-19)
(0.000364879 -0.00412105 -7.71091e-18)
(-0.0190864 0.00186993 -8.07614e-18)
(0.0022366 -0.00357066 -6.96884e-18)
(-0.0476341 0.00319217 3.22738e-19)
(0.00138603 -0.000547275 4.95898e-18)
(0.00845671 0.00789367 -2.36232e-20)
(0.000568419 -0.000432044 -6.18078e-18)
(-0.00500483 -0.00503837 -3.98359e-18)
(0.00133163 0.00674964 7.98586e-19)
(-0.055522 0.0108295 -7.37698e-19)
(-0.00256301 -0.00148078 1.72702e-19)
(0.0739516 -0.0150393 9.84933e-20)
(0.00216661 -0.00153254 1.01557e-17)
(-0.000209263 0.00211541 4.5572e-19)
(0.00520969 -0.00934695 3.28256e-18)
(0.00206362 -0.0100837 -1.02308e-19)
(-0.0303122 0.0267124 -1.42469e-18)
(0.00236477 -0.00189039 2.04475e-17)
(0.00221256 -0.00148442 -8.69877e-18)
(-0.00157499 8.77439e-05 3.15988e-19)
(0.001838 -0.00467951 2.06026e-18)
(-0.00994584 -0.00111355 -2.83404e-18)
(0.00187765 0.0650177 -2.30416e-18)
(-0.00143312 5.28549e-05 -2.19314e-19)
(0.00422573 0.0107055 1.08422e-17)
(0.00286927 -0.00400308 4.24915e-18)
(0.000579427 -0.00166394 -1.00615e-18)
(0.00289046 -0.00057858 -3.30339e-18)
(0.00107204 -1.1729e-05 -4.6298e-20)
(-0.000518271 0.000258463 -8.07575e-20)
(0.00307061 -0.00439194 3.71001e-18)
(0.00173049 7.20221e-05 5.18756e-20)
(-0.00196894 -0.00859908 -1.19068e-18)
(-0.00695653 -0.00448746 -1.9118e-20)
(-0.00178502 2.52465e-05 -2.20135e-19)
(-3.55292e-05 0.00214624 -3.96366e-19)
(0.00116059 -0.00976396 -1.8227e-19)
(-0.000964658 -9.24018e-06 2.77142e-19)
(-0.00194594 3.57153e-05 -8.33703e-19)
(0.0330351 -0.0442497 1.99139e-18)
(-0.00856364 -0.0014332 -1.48328e-18)
(0.00157642 0.000141794 -3.64318e-20)
(-0.00148899 -6.53039e-05 -1.17934e-18)
(-0.000574548 -7.91734e-05 3.85783e-18)
(-0.00157216 -0.000643445 2.64245e-17)
(0.00281344 -0.000617407 -4.28686e-18)
(-0.000221698 -0.0032097 -2.66551e-18)
(-0.0636334 -0.0540379 -2.17366e-18)
(0.0417205 0.0126063 2.30693e-20)
(0.00547124 0.00224109 1.31986e-19)
(0.0511767 0.0173376 -1.96759e-19)
(0.00253574 -0.00378336 -1.11273e-17)
(0.000289973 -0.00262801 1.05766e-18)
(0.00176365 -0.0045564 5.89042e-18)
(-0.000169022 -0.00138514 -1.6582e-18)
(-0.00211549 -0.000423248 6.11841e-19)
(-0.0440631 0.00243354 -1.90256e-18)
(0.000573067 -0.000399708 4.736e-18)
(0.0170517 -0.0601077 5.58904e-19)
(-0.00193362 -0.000165641 7.32187e-19)
(0.00155416 0.00012797 3.52756e-21)
(0.0124051 -0.0112812 -1.933e-18)
(0.0141273 0.0425661 -3.34803e-18)
(-0.0338127 -0.0118063 3.5137e-20)
(0.00441223 0.00980637 -1.37235e-17)
(-0.000484614 -8.96649e-05 4.03301e-18)
(-0.00372403 -0.000705241 2.8698e-20)
(0.00234372 0.000687944 1.40714e-19)
(0.00139916 -0.00129972 -6.29143e-18)
(-0.0318259 0.018915 1.13374e-18)
(0.00311986 -0.00107039 1.47337e-20)
(0.00188646 -0.00459009 -6.28229e-18)
(0.00108926 -0.000145963 -5.04991e-18)
(-0.0361496 -0.0210332 2.03213e-19)
(0.00602739 -0.00613464 2.22612e-17)
(-0.000702604 -0.00010169 5.90574e-19)
(0.000243614 0.0237248 8.68325e-18)
(-0.0013393 0.000173804 4.84381e-19)
(0.00179346 -0.00100029 7.90926e-18)
(0.00135764 -0.00130003 3.59002e-18)
(-0.00194435 -0.00152818 -2.06229e-19)
(0.000950363 -0.00144767 -2.08947e-18)
(0.00124695 -0.00587584 -5.12975e-18)
(0.00302426 -0.00521419 -5.18014e-18)
(0.0020898 -0.000124956 1.83391e-20)
(0.00297728 -0.00179702 -1.07578e-17)
(-0.000723219 -0.000887053 6.30773e-18)
(-0.00214589 -0.000386196 1.81811e-18)
(0.00105274 -0.0020571 -1.04108e-18)
(0.00203264 0.000519316 7.65829e-20)
(0.00326498 -0.00116997 -8.45334e-21)
(0.00328092 -0.00275359 6.95145e-18)
(0.000253357 -0.00255503 1.0328e-18)
(-0.0139226 0.00065716 -2.25064e-17)
(-0.0187483 0.00230536 1.1883e-17)
(-0.00201942 0.000421654 6.41298e-19)
(-0.00184959 -0.0015655 1.277e-19)
(-0.0335327 -0.00395355 1.13616e-18)
(-0.00212081 -0.00034532 -3.8936e-19)
(0.0194447 0.023004 -2.06365e-19)
(0.00246373 -0.00367087 1.45114e-17)
(-0.00464629 0.000333817 -2.27291e-19)
(-1.81134e-05 -0.00314363 1.51455e-17)
(0.00181753 5.57444e-05 -8.60758e-21)
(0.00175971 -0.00162939 1.54852e-18)
(0.0127033 -0.0113777 -4.08256e-18)
(0.000572095 -0.000335002 1.02151e-17)
(0.000322509 -0.00453228 -9.99627e-18)
(0.00166251 -2.83332e-05 -2.05155e-20)
(-0.000345741 0.000131541 3.70294e-19)
(0.00103061 -0.00303491 7.55283e-19)
(-0.000603397 -0.000126279 -2.23631e-18)
(0.00163309 -0.00465137 -7.99262e-18)
(0.00686423 0.00399217 -2.20573e-18)
(-0.039695 0.0199189 7.86785e-19)
(2.32979e-05 -0.0010296 1.44451e-17)
(0.00034696 0.00178803 -6.72005e-19)
(0.00274002 -0.0026906 4.19643e-18)
(0.00974581 0.0161099 6.48163e-18)
(0.00169594 -0.000988401 -2.15583e-18)
(-0.00401241 -0.000708679 -8.88013e-20)
(0.0352319 0.0833793 -1.23091e-19)
(-0.00443634 0.000115871 2.85238e-19)
(-0.00357212 -6.6424e-05 1.62995e-19)
(0.00562344 0.00280716 1.79064e-19)
(-0.0135313 0.00327777 2.47314e-17)
(-0.00090338 -3.04741e-05 -1.1923e-18)
(0.000237805 -0.000683886 4.29443e-18)
(0.00234857 0.00237108 -1.09411e-18)
(0.000599601 -0.000349034 -4.07747e-19)
(0.0385167 -0.0343875 2.69078e-19)
(0.00189942 -0.0015061 4.74263e-18)
(-0.0311467 -0.00121173 4.74387e-18)
(0.00193504 -3.39451e-05 4.18004e-21)
(-0.0206038 -0.0103586 -1.77166e-18)
(0.000535871 -0.00164833 1.29816e-18)
(0.0211841 0.0617769 -2.21959e-19)
(0.00176147 1.18211e-05 2.087e-20)
(0.00224401 0.00054849 2.58406e-19)
(0.00439794 -0.0342061 -3.77961e-19)
(-0.00146334 0.00515164 -2.48294e-20)
(-0.0041958 -0.00582447 -1.11641e-17)
(0.000502913 -0.000113586 -6.88937e-18)
(-0.0300333 -0.00181503 -4.98334e-18)
(0.00187923 -0.0015441 1.89011e-18)
(0.00143754 -0.000562026 1.29161e-18)
(-0.0080473 -0.00469359 7.65842e-18)
(0.00136499 -0.005006 -8.60756e-18)
(-0.0327174 -0.00537788 1.26924e-18)
(-5.67988e-05 7.4003e-05 2.52896e-19)
(0.00236943 -0.00216244 -4.31624e-18)
(0.000872729 -1.01822e-05 3.08449e-20)
(0.000713995 -0.00133953 -1.48852e-17)
(0.00178708 1.14906e-06 -1.2628e-20)
(0.000933936 -0.00251343 -5.03502e-19)
(-0.0290464 -0.0102434 -9.20548e-19)
(-0.00197751 0.000397468 -4.95034e-19)
(4.10489e-05 0.00179908 5.31138e-19)
(0.00361315 -0.00512207 1.13974e-17)
(-0.00235247 -0.00283592 5.73027e-19)
(0.0339292 -0.0322091 -2.27669e-19)
(0.00311846 -0.0300576 1.21118e-18)
(0.00234402 0.000628462 -1.72501e-19)
(0.000272182 -0.000680869 8.53091e-19)
(-0.00647048 0.00130431 8.14096e-21)
(0.00835978 -0.0241663 -4.90498e-20)
(0.00246045 -0.000287365 -1.02534e-20)
(0.00217475 0.00319142 -3.01309e-18)
(0.00132793 -1.62637e-05 -9.31292e-21)
(-0.0329997 -0.00476114 -4.0936e-18)
(0.00273469 -0.00406468 -1.04151e-17)
(0.0388141 0.0585806 1.77326e-19)
(0.00130568 -0.00134871 8.5356e-18)
(0.00150786 -0.00161267 6.21003e-18)
(-0.0138708 -0.00699941 -1.43098e-19)
(0.000585757 -0.0439525 -3.97245e-20)
(0.00111145 -0.000907715 -1.4099e-18)
(0.00134425 -0.00135109 -1.96153e-18)
(0.00393636 -0.00434867 1.08148e-17)
(0.0259467 -0.0104111 9.27164e-20)
(0.00730547 0.00253426 5.39413e-19)
(0.0121986 -0.0119477 8.40973e-18)
(-0.00435256 -0.000619506 1.92297e-17)
(0.000675067 -0.000109821 3.31762e-18)
(0.0022498 0.000601437 -1.36652e-19)
(0.000792985 -0.00103018 1.29233e-18)
(0.0140982 -0.00540884 -5.40675e-20)
(0.00268791 0.00210267 -1.69519e-19)
(0.00112028 -0.00184066 6.88464e-21)
(0.0016627 -0.0010063 -5.29868e-19)
(0.00110958 -0.000871523 -4.16832e-18)
(0.00237351 -0.00182431 -8.00934e-18)
(-0.00689021 -0.00513232 -2.64507e-18)
(-0.00967395 -0.0188226 -1.04694e-19)
(-0.0147172 -0.00541964 2.8866e-19)
(0.00175374 -0.00102566 -1.54913e-18)
(-0.0168804 -0.00285882 4.14858e-21)
(0.00228775 -0.00344084 -6.86693e-18)
(0.00163823 -0.00168764 -3.60888e-18)
(-0.00213847 -0.000467423 1.40517e-18)
(0.0117798 0.00685375 3.10952e-20)
(0.00337945 -0.0074329 3.2743e-19)
(-0.0390565 -0.00200024 1.69839e-18)
(-0.00972679 -0.0308698 2.34109e-19)
(0.00245929 -0.000319162 1.06304e-20)
(0.0018758 -4.79737e-05 -6.33398e-21)
(0.00110866 -1.53775e-05 -2.37114e-20)
(0.00398323 -0.00418879 -4.33865e-18)
(0.0124706 -0.00841373 -1.04319e-19)
(-0.0155442 0.0410697 -8.11005e-20)
(-0.00319105 -7.57374e-05 7.68466e-19)
(0.000575613 -2.76202e-05 -5.89587e-19)
(-0.0164743 0.0022392 -8.61297e-20)
(0.00889324 -0.000520801 2.83148e-20)
(0.00197173 -0.00442959 4.06817e-18)
(0.00088522 -0.00151859 -1.3576e-18)
(0.00120484 -0.000334105 -3.07401e-18)
(0.00294827 -0.00295904 -5.7762e-18)
(0.00804321 0.00213752 2.27765e-20)
(0.000652425 -0.00229563 -6.77136e-18)
(0.00119205 -0.00193784 1.08415e-18)
(-0.0665286 0.0291557 -1.36432e-19)
(-0.00214608 -0.000552579 -1.28078e-18)
(-0.0315002 -0.0055682 6.08979e-18)
(0.00296445 -0.00172307 7.28617e-18)
(0.00171788 -0.00148653 4.63921e-18)
(-0.0367405 -0.00336768 -8.47406e-19)
(0.000471027 -0.00125522 1.49964e-18)
(-0.00161337 0.000244309 3.26498e-20)
(-0.0155315 -0.00559265 -4.46442e-18)
(-0.00310361 -7.12528e-05 -1.22363e-19)
(0.00368787 -0.00363835 -2.99801e-18)
(0.00228626 -0.0019129 -1.48063e-17)
(0.000880697 -0.00149048 -5.75858e-19)
(0.0159367 0.038782 -1.23595e-17)
(0.00119067 -0.00198144 2.71557e-18)
(0.00101569 -0.000943103 2.07132e-18)
(-0.00803281 -0.00316776 7.62024e-18)
(0.00186283 0.000319399 8.35187e-20)
(0.00152908 -0.00163369 -9.45686e-18)
(0.00671694 0.00402629 1.84909e-19)
(-0.0359491 -0.002894 5.01852e-19)
(0.00498665 -0.00819406 -3.05305e-18)
(0.000517238 -0.000125726 4.49939e-18)
(0.00323234 -0.00420255 6.2679e-18)
(0.000556598 -8.12089e-05 3.42543e-18)
(-0.0103317 0.00164176 -1.84644e-17)
(-0.0155559 -0.011719 3.99175e-19)
(0.000349984 0.000112479 -9.61717e-20)
(-0.00222844 -0.00227506 -2.26669e-20)
(0.00481103 -0.00800442 6.79978e-18)
(0.00237996 -0.00206795 8.11553e-18)
(0.00184218 -0.000932931 3.34818e-18)
(0.000570002 -1.97805e-05 -5.18118e-19)
(0.000465024 -0.0012289 -4.69975e-19)
(0.000978733 -0.000947473 -2.21996e-18)
(-0.0222547 -0.0173041 -2.86113e-19)
(0.00991616 0.0154852 8.07406e-18)
(-0.0131107 0.00460983 -3.77777e-18)
(0.00148513 -4.5597e-05 2.94514e-20)
(-0.0336163 -0.00419404 -2.14297e-18)
(0.0133703 -0.00394511 -4.21308e-18)
(0.00049623 -4.35085e-05 4.96334e-18)
(0.00264522 -0.00273827 -8.67127e-18)
(0.00215684 -0.0044767 -3.66946e-18)
(0.00381686 -0.00813699 -8.59288e-20)
(-0.00581612 -0.0034342 5.63752e-20)
(0.00199508 -0.00623505 7.23582e-18)
(0.000689791 -0.00275429 5.88082e-18)
(-0.00391304 -0.00783722 2.00116e-20)
(0.0119469 -0.0467407 9.18461e-19)
(-0.0218832 -0.00671626 -1.17486e-18)
(0.000512253 -3.15595e-05 3.70967e-18)
(0.00982883 0.0341213 1.62085e-18)
(0.0145871 0.0320208 2.2367e-20)
(-0.00154089 -0.0143456 -2.90911e-19)
(0.00187036 -0.000902013 -2.12256e-18)
(-0.00710657 -0.00392119 2.36579e-20)
(0.000779038 -0.00115469 1.27605e-17)
(-0.00184045 -0.00165873 1.70131e-18)
(-0.00509706 -0.0524636 -1.32626e-18)
(-0.00232749 -0.00225135 -8.9674e-19)
(0.000552082 -7.35007e-05 -1.45638e-18)
(0.00144342 -1.95902e-05 7.83082e-21)
(0.00175542 5.94767e-05 -4.44502e-20)
(-0.00183118 -0.00129769 -5.26304e-19)
(-0.0198203 -0.00787189 -3.64846e-18)
(-0.00660319 0.0380908 -5.1954e-20)
(0.000444245 -0.000814217 2.67531e-18)
(0.00373244 -0.00348334 1.24271e-17)
(0.00200867 0.000346762 -1.30864e-20)
(-0.0644624 0.0342385 2.67717e-19)
(0.00218407 -0.0015612 -5.22426e-18)
(-0.0223845 0.0592213 -1.85927e-18)
(-0.0136777 0.00169322 1.54214e-17)
(0.000440542 -0.000851381 -7.26872e-19)
(-0.0028561 0.00612455 -3.93498e-19)
(0.00213555 -0.00190996 -7.94702e-18)
(-0.0250325 0.0580649 1.4818e-18)
(-0.000337686 -0.00135635 -2.13652e-18)
(0.00157563 0.000165191 8.43452e-20)
(-0.00562504 -0.011849 5.36664e-20)
(0.00529161 0.0124016 -1.25322e-17)
(-0.000652502 -0.000175519 4.94126e-18)
(0.0224519 0.027133 3.0368e-18)
(0.00378191 -0.00931732 -1.63334e-19)
(0.00181598 -0.00638525 -4.25558e-18)
(-0.0129156 3.71545e-06 3.33106e-18)
(0.0117574 0.0443881 -2.35351e-19)
(0.00853334 0.051788 2.33867e-18)
(-0.010904 0.00276476 1.779e-20)
(-0.0018508 -0.000560684 1.49516e-19)
(0.000512156 -1.57456e-05 -4.64941e-19)
(0.00149574 -0.000419063 -1.01305e-18)
(0.00338772 -0.00420398 -5.03411e-18)
(-0.00445606 0.0255952 -3.39788e-19)
(0.00350502 -0.00274457 -9.02072e-18)
(-0.0306043 -0.00637725 1.07238e-18)
(-0.0172294 -0.00635859 -2.66786e-18)
(0.00199853 0.00038439 -1.16639e-19)
(0.000697902 -0.000111417 5.993e-18)
(-0.0140675 0.00336961 -3.57995e-18)
(-0.0455502 0.00282789 -1.33785e-18)
(-0.0283904 -0.00383967 6.07579e-19)
(-0.00798867 -0.00203957 1.01515e-17)
(-0.00586201 -0.0129016 -1.66408e-19)
(0.00214545 -0.00198969 -7.75199e-18)
(-0.00104252 8.12642e-05 -1.26359e-20)
(0.0111012 -0.00479018 1.53128e-18)
(-0.00246504 0.000403174 -7.115e-19)
(0.0015761 -0.00166101 6.20511e-18)
(-0.00938797 0.00228436 -6.74798e-21)
(0.00100646 -0.000240915 -1.41315e-18)
(0.000943738 -1.47195e-05 3.63747e-22)
(-0.00307022 4.54422e-07 1.26487e-19)
(0.00203712 0.000476534 1.2753e-19)
(0.00181537 -0.00486543 1.00852e-17)
(-0.00277152 -0.00549369 1.0101e-19)
(-0.0127131 -0.000337656 2.36144e-17)
(0.000784721 -0.000682303 8.2414e-19)
(0.00319318 -0.00437677 -4.67316e-18)
(-0.000370216 -0.00482096 1.106e-19)
(-0.00703868 -0.0694857 -2.34903e-20)
(0.00149381 -0.00168416 3.7595e-18)
(-0.00311514 -0.0159099 1.41631e-18)
(0.00169327 -0.00144582 4.50406e-19)
(0.00137591 -0.0328027 5.95573e-20)
(0.00156698 0.000105431 3.60301e-20)
(-0.00299572 7.63058e-06 -8.64489e-19)
(-0.000406012 8.41203e-05 -3.69881e-19)
(0.00489652 -0.00695129 -1.67343e-18)
(-0.0236982 -0.0674982 2.49841e-18)
(0.00147182 -0.00479507 6.71932e-19)
(5.18703e-05 -0.00484959 -5.67916e-20)
(-0.0102709 -0.000442926 -2.37682e-17)
(0.0226228 0.000429656 -1.44917e-20)
(-0.00173317 -0.00108387 -8.1218e-20)
(-0.000618371 -5.84889e-05 3.91409e-19)
(0.00377952 -0.0052236 8.63899e-18)
(-0.000363266 -0.00130644 -8.71714e-19)
(-0.0154777 -0.0839976 1.2823e-19)
(0.00114173 -5.19899e-06 -9.26343e-21)
(-0.0151502 -0.0182616 1.22608e-19)
(-0.0231502 -0.0946428 6.50917e-19)
(-0.000549504 -0.00323573 -5.04608e-18)
(-0.0276624 -0.00040893 1.20525e-18)
(-0.00403771 0.000164986 -1.99767e-20)
(-0.000610694 -0.00390087 -1.31988e-19)
(-0.019792 -0.0958728 -1.08557e-18)
(0.00911437 0.0140244 -6.32587e-19)
(0.00167295 -2.51252e-05 1.75283e-20)
(0.00212733 -0.00214503 -3.85394e-18)
(0.00231947 -0.00368067 -7.27841e-18)
(-0.0145449 -0.0207162 2.99555e-20)
(-0.00229038 0.000345111 5.19038e-20)
(0.000943237 -0.000995698 -6.33519e-18)
(0.00602403 -0.00580766 1.00692e-17)
(0.00161281 -0.00602158 1.63657e-18)
(0.000213858 0.000123188 5.37349e-20)
(0.0131454 0.0371519 -3.01696e-19)
(-8.22771e-05 0.000105521 2.36498e-20)
(-0.00220493 -0.0024531 -1.72173e-18)
(-0.00225653 -0.00173407 -5.73054e-18)
(0.000978995 -0.00216005 1.31973e-19)
(0.00184493 -4.32896e-05 4.24624e-22)
(0.0802078 -0.0199528 1.3107e-19)
(-0.00188107 -0.000528389 -3.47194e-19)
(0.000626922 -0.00262374 2.02321e-18)
(-0.00251406 0.000180292 7.98693e-20)
(0.00162517 -0.00384651 2.18176e-19)
(0.000879196 -0.00139539 3.52313e-18)
(0.00189639 -3.24431e-05 6.96504e-21)
(-0.00395623 -0.00011668 -1.7642e-19)
(-0.0070606 -0.00319998 -8.35643e-18)
(0.000592557 -0.000453704 -1.65425e-18)
(0.00343563 -0.00296405 -2.85326e-17)
(-0.00189821 -0.000193644 -1.67379e-18)
(0.000655053 -0.00331054 -7.42412e-20)
(-0.00136501 -0.0144995 -4.10625e-19)
(-0.00088645 -6.24176e-06 -2.30592e-19)
(-0.000568288 -0.00170035 -2.54748e-18)
(-0.00149915 -9.27844e-06 -3.54516e-19)
(-0.00147464 7.93619e-06 4.50844e-20)
(0.00352864 0.0143854 1.18962e-19)
(0.00114167 -0.000816433 -8.72864e-18)
(-0.00381166 -0.00124078 -9.38411e-20)
(0.00057272 -0.000304539 -4.01645e-18)
(-0.00102804 0.000121404 -3.12261e-19)
(0.00507187 0.0175431 -1.2853e-17)
(-0.0285794 8.03645e-05 -1.28962e-18)
(0.000655304 -0.000346137 3.48856e-18)
(0.000962062 -0.00322708 8.52339e-20)
(0.00152201 -0.00168005 -3.27321e-18)
(0.0138598 0.0166466 3.37591e-19)
(-0.00621153 -0.00560727 1.63109e-18)
(-0.00210983 -0.00246301 -6.08304e-19)
(-0.0168371 0.0188717 4.06953e-18)
(-0.000264331 -0.00134704 2.64244e-20)
(0.00153405 -0.00447037 -8.42341e-18)
(0.00106219 -0.000308524 7.31122e-18)
(0.00175202 -0.00213259 6.39266e-18)
(0.00159094 4.74049e-05 -8.70434e-20)
(-6.30793e-06 -0.00120493 1.22688e-18)
(0.00889097 0.000256437 4.24265e-19)
(0.00181827 0.00026358 8.72561e-20)
(0.00124688 -0.00366718 8.9948e-20)
(-0.0125682 -0.000889313 1.27925e-17)
(0.000792665 -0.00242111 -4.72941e-18)
(0.0336456 0.0209529 -1.19809e-18)
(-0.00157591 -9.05057e-05 -6.11541e-19)
(-0.0340851 -0.11713 -1.55551e-18)
(-0.000372884 -6.46123e-05 3.61051e-18)
(-0.00224179 -0.000215952 -5.44086e-19)
(-0.00224164 -0.000513769 -6.33989e-19)
(0.00101575 -0.000143277 1.19181e-18)
(-0.0445876 0.0023672 -3.0149e-19)
(0.00302393 -0.00488866 -4.01036e-18)
(0.00236954 -0.00734418 -7.45626e-18)
(-0.0014312 -0.00458801 4.65422e-18)
(9.42766e-05 0.00509763 -3.97777e-19)
(0.00213954 -0.000128899 -7.22337e-21)
(-7.77151e-05 -0.000311054 -1.64023e-17)
(-0.0227037 -0.0752388 1.93784e-18)
(0.00180684 -0.00165166 -1.79611e-18)
(0.00290412 -0.00185208 2.78101e-18)
(0.0187288 0.0328777 -2.34436e-18)
(-0.0493936 -0.0553896 1.46867e-18)
(-0.0182594 -0.0115637 1.40084e-18)
(0.000441798 -2.42213e-05 5.26547e-18)
(0.00212728 -0.00207662 -2.62196e-18)
(-0.00580945 -0.00558665 5.99018e-18)
(-0.0121194 0.000742041 -6.65265e-18)
(0.00114481 -0.00206497 1.12817e-18)
(0.00159175 -0.00366941 -9.82523e-20)
(-0.0418693 0.0223165 -1.48062e-19)
(-0.00016523 -0.00561373 1.19633e-19)
(0.0222963 -0.0134341 2.15437e-19)
(0.0354424 0.0760687 2.53193e-19)
(-0.0128823 -0.026613 -7.94017e-19)
(0.000931212 -0.00147291 2.43385e-18)
(-0.00749115 -0.0291327 2.92446e-19)
(0.00910239 -0.0127115 -6.72927e-18)
(0.00158483 6.45597e-05 -2.71159e-20)
(0.00205814 -0.00575437 -1.3415e-19)
(0.00311771 -0.00502487 1.13996e-17)
(-0.0277594 0.00139022 1.69589e-18)
(0.00129141 -0.00139403 -1.04867e-18)
(0.000264501 -0.000443375 -5.58484e-18)
(-0.00193891 -0.00143991 6.47244e-19)
(4.43915e-05 -0.00104053 1.04051e-18)
(0.00168893 -0.00464207 3.82453e-18)
(-0.000701385 -0.00354233 8.04747e-19)
(0.0617505 -0.0212357 2.17817e-19)
(-0.00359149 0.0624866 2.70912e-18)
(-0.00217676 -6.32712e-05 1.7625e-19)
(-0.00226523 -0.000754813 9.17299e-18)
(-0.0203634 0.000128754 1.84129e-18)
(0.00152185 0.00435001 -3.73249e-20)
(-0.0190743 -0.0919482 9.23722e-19)
(0.00328407 -0.00291207 1.64863e-17)
(0.00178689 -3.42827e-05 1.41394e-20)
(-0.00296345 6.92222e-05 -3.25253e-19)
(0.00360811 -0.00190426 -1.0652e-20)
(-0.00123436 -0.000218652 1.86624e-17)
(0.00184252 -0.00102328 1.75053e-19)
(0.00511676 -0.00696503 -6.16704e-18)
(0.00439112 -0.00910023 -8.41249e-19)
(0.0018539 0.000187911 9.32612e-20)
(-0.00125156 -0.00551432 -3.8343e-20)
(-0.00156068 -0.0216001 1.00191e-18)
(-0.00189106 -0.0120754 -4.44962e-18)
(0.00175145 -0.00572182 -5.92556e-18)
(-0.0440104 0.00198956 5.2364e-19)
(0.0100736 -0.0126299 3.81412e-18)
(-0.00023927 -0.00139592 4.85303e-18)
(0.00102708 -0.000220064 -6.54349e-18)
(0.0300539 -0.012296 -1.38329e-18)
(-0.0170281 -0.0057021 7.50725e-18)
(0.0038805 -0.00805528 1.04795e-17)
(0.00362473 -0.00267021 6.68611e-18)
(0.00496676 0.00715469 8.91549e-20)
(0.00179159 6.9226e-05 -8.77305e-22)
(-0.000228121 -0.000711547 1.87374e-18)
(-0.0125626 -0.0212747 2.19273e-19)
(0.00180833 0.000168964 -6.12981e-20)
(0.00125188 -0.00139543 7.16948e-19)
(0.00180561 3.67589e-05 3.77016e-20)
(-0.0015856 -0.000399608 -1.37885e-18)
(0.00758597 -0.0132117 3.06507e-18)
(0.00175924 -0.00472742 -7.94616e-18)
(0.000157467 -0.00434629 4.84792e-19)
(0.00180777 0.000143853 -1.25527e-20)
(0.0222771 0.0212859 9.17652e-18)
(0.0283501 0.0912373 -1.67632e-19)
(-0.00202821 -0.000623531 -3.02086e-19)
(-0.000999729 0.000238945 3.0281e-19)
(0.00265899 0.00234544 4.33643e-19)
(0.00051143 -2.29666e-05 -9.91351e-20)
(0.00228562 0.0105934 9.20405e-18)
(0.0370216 0.0637788 -1.494e-19)
(0.0280476 0.0601778 5.64613e-19)
(-0.00917105 0.00249922 -1.456e-17)
(-0.0431898 -0.136075 3.42065e-18)
(0.00359508 -0.00244814 -1.52246e-17)
(-0.0273016 0.00219568 2.28789e-18)
(-0.031551 -0.000337202 -2.08393e-18)
(-0.00337774 -0.00839839 -1.57852e-20)
(0.00305109 -0.00275192 6.36301e-18)
(0.00179054 -4.31611e-05 1.63119e-21)
(0.00664051 0.003073 5.07241e-19)
(0.00144362 -0.00167739 1.43572e-19)
(-0.00518411 -0.00302276 -2.54226e-18)
(0.0155568 -0.0301173 -9.13374e-20)
(0.00493597 -0.00679834 8.54532e-18)
(0.00185991 -0.00191924 -9.67619e-19)
(-0.00273696 9.55643e-05 3.65642e-19)
(0.00172765 -0.0017536 -5.37203e-19)
(-0.00548966 -0.00136107 8.30753e-20)
(0.0340247 0.0141448 1.69966e-18)
(0.0026036 -0.00502315 -8.146e-18)
(0.000548 -0.000290394 -9.40435e-19)
(0.00112895 0.00012102 -5.52807e-19)
(-0.00228551 0.000307742 -4.67933e-20)
(0.00250299 -0.00176892 -2.83218e-19)
(0.00148016 -0.00468223 -4.3631e-18)
(0.00113814 -0.000298339 -3.75491e-18)
(-0.000435392 -0.00131386 -3.24449e-18)
(0.00208869 -0.00139895 -6.66311e-18)
(0.00100088 -0.000544624 6.45072e-18)
(0.00173365 -0.00457993 -3.38106e-18)
(0.00407684 -0.00769932 -4.00873e-18)
(0.00149582 -0.00503696 5.71049e-18)
(0.00182 -0.00188414 -3.40245e-18)
(0.00398131 -0.0082363 -9.51702e-18)
(-0.00267747 9.61351e-05 -3.33747e-19)
(-0.0206396 0.00218339 1.27084e-19)
(-0.0137624 -0.00945575 1.61529e-19)
(-0.00429667 0.000387977 1.05875e-17)
(0.000527855 -0.00159335 -1.35051e-18)
(-0.00172283 7.39162e-05 -7.08982e-19)
(0.00411469 -0.00962894 1.51196e-18)
(0.000790737 -0.00146969 6.97476e-18)
(-0.011474 -0.00131485 3.01104e-18)
(-0.0259028 -0.00606692 -3.66871e-19)
(0.000355023 -0.00564399 5.35888e-18)
(0.0808774 -0.038884 -3.80551e-19)
(-0.00245135 0.000356798 6.4231e-19)
(0.0123169 -0.0109882 1.47542e-18)
(0.00252763 -0.000363148 -1.9876e-20)
(-0.00168282 -0.000462468 -1.00511e-18)
(0.00160699 3.15928e-05 1.39006e-19)
(-0.00158454 -0.000451483 1.52652e-18)
(0.00282265 -0.000730243 -5.91333e-21)
(0.000972503 -0.000471593 5.01871e-19)
(0.0012918 -0.00360103 -6.2793e-19)
(0.00177241 0.000128573 2.01353e-20)
(0.015761 -0.015148 1.13206e-18)
(0.00902026 0.001803 9.28932e-19)
(0.0187024 -0.0132317 -3.80839e-18)
(-0.00221505 -0.00123192 -1.68039e-18)
(0.00162331 -2.65706e-06 4.4756e-20)
(0.000767553 0.000141606 -1.47761e-19)
(0.00217099 -0.00474825 -5.98217e-18)
(0.0172707 0.0131703 -4.3947e-19)
(0.00475508 -0.00445292 -1.35871e-17)
(0.00246921 -0.00181561 1.53393e-18)
(0.00258498 -0.000373226 1.59313e-20)
(-0.00113634 0.000106795 5.87966e-20)
(-0.00216795 -4.35546e-05 -1.24566e-19)
(-0.00212511 -0.00173038 2.45514e-19)
(-0.000230769 -0.00870245 -8.42588e-18)
(0.0124633 -0.080602 1.00984e-18)
(0.000963523 -0.000528816 2.51179e-19)
(0.00177212 0.000106903 -9.73233e-21)
(0.00103145 -0.000120813 4.07784e-18)
(-0.00203827 -0.0016839 -3.09995e-19)
(-0.0143586 -0.0117983 1.53102e-19)
(-0.000336903 -0.00104962 -5.9155e-18)
(0.00171553 -0.00168505 4.88386e-18)
(-0.0107824 -0.00013143 -3.76088e-18)
(-0.0314332 -0.0860611 -1.74411e-18)
(-0.000456603 -0.0012626 -1.18523e-18)
(0.00230396 -0.00709915 4.375e-18)
(0.00734404 0.0129726 -6.29938e-18)
(0.00305629 -0.00289592 1.17589e-17)
(-0.033813 -0.0175624 -3.13319e-18)
(0.00135076 -0.000572371 -2.95163e-18)
(0.000669383 -0.00103768 -6.65223e-19)
(0.00462907 -0.00436555 4.66186e-18)
(0.000885879 -0.000879611 -2.0003e-18)
(0.0250579 0.0714664 -4.14497e-22)
(0.000628194 -0.000333091 -3.68999e-18)
(-0.046555 0.000309695 7.92047e-19)
(0.00110652 -1.19643e-05 7.70333e-20)
(0.00437598 -0.00170072 3.21974e-18)
(-0.0274035 -0.00140111 -1.40333e-18)
(-0.00381194 0.000394024 2.81525e-19)
(0.000772145 -0.00153 1.15604e-18)
(0.00636517 0.00562073 1.03663e-18)
(-0.00227424 -0.00024336 1.44063e-19)
(0.00174801 -0.00157616 1.03002e-17)
(-0.0097246 0.00397851 -1.65601e-20)
(-0.0308652 0.021242 -3.29971e-18)
(0.00254123 -0.00489822 -2.83125e-18)
(0.00145523 -0.00217154 2.27121e-18)
(0.0082533 0.0462148 -1.79355e-19)
(0.00176996 2.91896e-05 -3.55463e-20)
(-0.00218148 -0.00114647 1.96858e-19)
(0.00737173 0.0181131 -2.57304e-18)
(0.00449299 -0.00901351 4.72234e-18)
(-0.00286803 -0.00354965 6.36171e-19)
(-0.0240835 -0.00672548 -6.6273e-19)
(-0.00263437 0.000780117 -5.02129e-19)
(0.00048425 -2.35322e-06 1.9972e-17)
(0.00156612 8.49748e-05 4.92134e-20)
(-0.037743 -0.145308 -1.41241e-19)
(0.00355191 -0.0108111 5.36981e-19)
(0.0011223 -0.00177512 -5.61652e-18)
(0.000101122 -0.00202434 8.88996e-19)
(0.00145452 -0.0183638 4.86004e-19)
(0.00226159 -0.00127554 -5.03601e-18)
(0.00082645 0.000150493 1.10402e-19)
(-0.00336976 -0.00189219 1.45396e-17)
(0.032691 -0.0105635 8.20824e-20)
(-0.0154046 -0.00136233 3.18607e-18)
(0.00186537 0.000285295 5.71346e-20)
(0.000964421 -0.000493991 4.69234e-18)
(-0.0242023 0.0021086 4.76298e-19)
(-0.00061909 -0.00192296 7.70871e-18)
(0.00478713 -0.00897499 -4.81346e-18)
(-0.00540102 -0.000917447 3.91723e-20)
(-0.00135586 -0.0119696 3.00796e-19)
(0.000602707 -0.000383892 2.36202e-19)
(0.00397124 -0.027494 -1.21729e-19)
(-0.000568115 -0.00744979 -3.02066e-18)
(-0.000882448 -0.00349554 -1.33761e-18)
(0.00149675 -0.00155139 8.31325e-18)
(-0.00293472 -0.00622755 5.19889e-18)
(-0.0134271 0.000202059 5.39085e-20)
(-0.00840375 0.00136506 6.17086e-20)
(0.0027686 -0.0101216 -9.14478e-18)
(-0.00174537 8.08278e-05 -1.57881e-19)
(-0.000543462 -1.87477e-05 -1.20966e-18)
(0.000898331 -0.00141871 -4.57061e-18)
(-0.00264707 0.000142125 9.01611e-19)
(-0.00374296 -0.00188835 -1.8471e-17)
(0.00150268 -0.00182935 -5.11893e-18)
(0.00178458 -0.00591214 -6.62509e-18)
(0.000442886 -0.00430242 1.83314e-19)
(0.00320449 -0.01027 8.20886e-20)
(-0.00276922 4.25219e-05 3.81345e-19)
(-0.000345935 -0.000864746 1.24041e-19)
(-0.00198478 -5.34574e-05 -9.51735e-19)
(-0.0130052 0.00202434 -1.62312e-20)
(0.00159055 1.69153e-05 2.06032e-20)
(-0.000546346 -0.00121401 3.23031e-19)
(-0.00106577 -0.000173233 -2.28164e-18)
(-0.0157508 -0.00490492 1.45834e-18)
(-0.00184179 -0.0013832 -3.81028e-19)
(0.0016031 0.000250022 1.78925e-20)
(0.0287195 -0.00772038 9.46227e-20)
(0.00106333 -0.000224149 -1.25902e-17)
(-0.0245083 0.0012854 4.16598e-18)
(0.00094133 8.92451e-06 1.83467e-19)
(-0.00430099 -0.00125705 -8.80712e-20)
(0.00408973 -0.0055909 -1.73115e-17)
(-0.0184253 -0.0110818 -2.66475e-19)
(0.0121318 0.0722635 1.83165e-19)
(-0.00220858 -1.25337e-05 3.53494e-19)
(-0.0156918 -0.004043 1.80538e-19)
(-0.00949071 0.000256434 7.20774e-18)
(0.00114564 -0.000853484 6.87542e-18)
(-0.0114781 -0.00802395 1.61235e-18)
(0.00424259 -0.00168828 -1.91592e-18)
(-0.00256567 0.000183166 3.93291e-19)
(-0.0267849 0.0113859 -3.64993e-19)
(-0.00324191 -0.0025606 -1.42209e-18)
(-0.0126268 -0.003107 -9.90074e-20)
(0.00143126 -0.00166837 2.52875e-18)
(-0.00217418 -6.22834e-05 4.8236e-19)
(0.00173444 9.20961e-05 -5.72865e-20)
(-0.0226122 -0.100438 1.01515e-18)