/*--------------------------------*- C++ -*----------------------------------*\
| =========                 |                                                 |
| \\      /  F ield         | OpenFOAM: The Open Source CFD Toolbox           |
|  \\    /   O peration     | Version:  v2012                                 |
|   \\  /    A nd           | Website:  www.openfoam.com                      |
|    \\/     M anipulation  |                                                 |
\*---------------------------------------------------------------------------*/
FoamFile
{
    version     2.0;
    format      ascii;
    class       surfaceScalarField;
    location    "500";
    object      meshPhi;
}
// * * * * * * * * * * * * * * * * * * * * * * * * * * * * * * * * * * * * * //

dimensions      [0 3 -1 0 0 0 0];
oriented        oriented;


internalField   nonuniform List<scalar> 
20537
(
0.00163646
9.10336e-05
-0.00174613
-0.00243686
0.00172943
0.000705319
0.000308883
0.000900813
-0.00121552
0.00271308
-0.00149008
-0.0012402
-0.000621656
-0.000521221
0.00113526
-0.00147525
-0.000611304
0.00207884
0.000415681
-0.000509099
8.52431e-05
-0.000750867
0.00137646
-0.000635786
0.000796258
-0.00108197
0.000255598
-0.00168677
0.000718798
0.00096297
0.000230524
-0.000570831
0.000338103
0.00120881
3.66668e-05
-0.00124584
-0.000642136
0.00074165
-0.000102795
-0.000374964
-0.00045473
0.000828914
-1.45465e-05
0.000172079
-0.000191722
0.00082921
0.000683931
-0.00152607
-0.00162211
0.00037721
0.0012246
0.000236586
0.00134203
-0.0015906
-0.000417115
-0.000480168
0.000893839
0.00104528
-0.00028048
0.00123306
0.00145494
0.00142152
-0.00111945
3.73674e-05
-6.21111e-06
-4.34053e-05
-9.43464e-05
9.49227e-05
-5.04812e-05
4.02572e-06
2.10582e-05
0.000621524
-0.00138322
-0.000900499
0.000836222
4.93127e-05
0.000299887
0.000189007
0.0021887
-0.000571613
0.00204047
-0.000260544
-0.00179985
0.000572261
-0.00205452
-0.000974771
-0.000667324
0.00149657
-0.000602384
0.000777315
0.000357499
-0.00113693
6.01007e-05
-0.000205944
0.000311215
0.000174641
-0.000487318
-0.000555147
0.00021536
0.000337915
-0.000634157
-0.000449325
0.00108145
-0.00125773
-0.000433091
0.00154588
-0.000771074
0.00187556
-0.00107889
-0.000827408
-7.20778e-05
-2.98114e-05
9.72198e-05
-0.000394479
9.53121e-05
0.000297907
-0.000377248
-0.00017309
0.000549002
0.000152215
-0.000530637
-0.000656914
0.00041873
0.00024069
-0.000177418
0.000537227
-0.000360359
0.00192991
-0.000664327
-0.00126854
-0.000832732
-8.15916e-05
-0.00137018
0.00124014
0.000122284
0.000421262
-0.000906229
0.00047645
-0.000528824
0.000928142
-0.000404255
-0.000152436
0.000394538
-0.000242386
2.25318e-05
8.93006e-05
-0.000148631
5.09259e-05
0.000172678
-0.000302725
2.6599e-05
-0.000102957
3.68131e-05
-0.000150867
8.65908e-05
0.000202095
0.00031031
-0.000512721
0.0017041
0.000314013
-0.000763961
0.000723039
2.27862e-05
-0.00110193
0.000465749
0.00057972
0.000199171
-0.000777478
-0.000804128
-0.00127355
0.00206874
0.000491744
0.000482174
-0.000979561
-0.00192904
0.000415555
0.00150865
-0.000571273
0.00192521
-0.00136729
-0.000354749
-0.000200997
-0.000122734
0.000548826
-0.000390555
-0.000626929
0.00100491
0.00163709
-0.00141407
0.000240791
3.30651e-05
-0.000273994
-0.000253337
-0.000176693
0.000429238
-0.00142786
-0.0010104
-0.000137194
0.000119517
0.000449072
-7.50407e-05
-0.000445949
-0.000400702
-0.000632402
0.00101327
0.000413169
0.00100286
-0.000296588
0.000471366
-0.00017483
0.00116189
-0.000595857
-0.000575816
1.46088e-05
-0.000267892
-0.000962287
0.000132777
0.000807282
-2.89991e-05
4.50641e-05
-1.66117e-05
0.000841892
-0.00104573
0.000168194
-0.000416589
0.000655323
-0.000235455
0.00112989
-0.00194274
-6.92451e-05
0.00127773
0.00062478
-0.0020034
0.00136986
-0.00152404
0.00121324
0.000309061
0.00114543
-4.85038e-05
-0.00111671
-0.000847035
0.000627739
0.000205441
0.000571675
-0.000262573
0.00240239
-0.00144009
-0.000972803
0.000351105
0.00124665
-0.000758146
-0.00050243
0.0015375
-0.000413292
7.47022e-05
8.26658e-06
-0.00011078
-0.00103036
0.000401281
0.000713514
-0.000623024
-9.20972e-05
-0.00114091
-0.000236149
5.9586e-05
-1.76625e-05
0.000610794
-0.000669483
5.77226e-05
-0.000724584
-0.000298127
0.00101464
0.00200231
-0.000838986
-0.00118498
0.000229037
-0.000540924
6.11491e-06
-9.84899e-06
1.35137e-06
-0.00063456
-0.00127934
0.00190559
0.000581876
0.00029771
-0.000886576
-4.09644e-05
-1.32797e-05
5.09692e-05
0.000175857
-0.00038166
-0.00202799
0.00140931
-6.87147e-05
6.17088e-05
-2.76361e-05
-0.00060129
-0.000259995
0.00137752
0.00101425
-2.62194e-05
-2.142e-05
-0.000147975
4.21779e-05
-0.000727011
0.0017908
0.000481197
0.0002302
7.35044e-05
-5.37275e-05
-2.41094e-05
-0.000117221
-6.92438e-05
0.000120801
-0.000261961
5.11533e-05
0.000140809
-0.000426136
3.00267e-05
-0.00046489
0.000683947
0.000167316
-0.000812414
0.00192309
0.000680802
0.00124519
-0.00010257
0.000373905
-0.000277646
0.00196166
-0.00128469
0.000783203
8.71512e-05
-0.000878379
0.00239466
-0.00118208
-0.00046822
0.00091859
-0.000453942
0.00075069
0.00108999
0.000280558
-0.00090129
0.000575228
-4.22476e-05
0.000283053
-6.68182e-05
0.000871632
0.00108793
-0.000217752
-0.000140424
0.000304346
3.22459e-05
3.56701e-05
-0.00017308
-0.000288688
0.000460868
0.00103254
-0.000647208
-0.000384698
0.000527369
-0.00110176
0.000574106
6.87211e-05
0.000541764
-0.00024606
0.00021041
0.00158335
-0.000738604
-0.000860623
2.97931e-05
0.000165228
-0.000200412
0.000584151
-0.00134352
0.000740291
-0.000543388
0.00036889
-3.85846e-05
2.54778e-06
3.42805e-05
-0.00105151
0.000578733
0.000489842
-9.13316e-05
0.000501869
-0.000350778
0.000621044
-0.000379554
0.00019674
1.80377e-05
-0.000290168
0.000375118
-0.000751137
0.000102638
-8.96582e-05
-0.000173907
-0.000712901
0.000870069
-0.000935362
0.00149816
-0.00025141
0.00138612
-0.00116514
-0.00144594
0.00168288
-0.000256478
-0.000723797
0.000190246
0.000908145
-0.000496641
-2.5102e-05
2.37518e-05
3.83481e-07
0.000970083
-0.000637472
-0.000343258
-0.000235922
0.000437841
0.000743519
-0.000504069
-0.00161973
-0.000472556
0.00207328
2.9249e-05
-0.000183459
0.00014822
-9.61846e-06
-3.03535e-05
-0.000961567
0.00055951
0.00131669
0.00105785
0.000339266
-0.000621438
0.000282906
-0.000367976
7.13869e-05
0.000461162
-0.00011877
-0.000368851
-0.00140651
0.00112566
0.00110991
-0.000582323
0.00022769
0.000473311
-0.00191937
0.00125185
-0.000408562
0.00118188
0.000868343
0.000355299
-0.00123649
-0.000944593
0.000524185
4.14354e-05
1.44169e-05
-5.85828e-05
-0.000431333
0.00143932
-0.00102492
-0.00042717
-0.000829223
0.00066445
0.000133867
-0.00106872
-5.53562e-05
-8.03082e-06
6.83245e-06
3.80483e-07
4.8739e-05
5.53802e-06
-7.33184e-05
-0.00193126
0.00134669
-0.000289343
-4.43585e-05
0.000579017
0.000460556
-0.00104542
0.00119208
-0.00163447
0.000436549
0.000370788
-0.000410108
0.000257905
0.000770315
-0.000155517
-0.000625893
-0.000682353
-0.00032133
0.000992099
-0.000417207
0.000998665
-0.000188459
-0.000844568
0.0010154
0.000548043
0.00101961
-0.00140413
0.000525777
0.000875563
-0.000653133
0.00150579
0.000647457
-0.00106812
-0.000389719
0.000280539
-0.000780019
0.000340719
0.00044115
3.94217e-05
-0.000142025
3.18738e-05
-0.00042765
0.00111698
-0.000728023
-0.00156435
0.00071036
0.000848763
-7.24141e-05
-0.00078873
0.00118665
-0.000804001
-0.000381954
-0.001489
0.00125259
0.000216659
0.000201135
-0.000429476
0.000228226
3.86413e-05
-2.782e-05
-1.25233e-05
0.000513116
-0.000339744
-0.000173936
0.00143608
0.000542159
-0.000573173
0.00145636
-0.000884479
-2.93549e-05
-1.06488e-05
3.74825e-05
-5.46445e-05
-0.000140007
0.00018907
0.000170652
-0.000489776
0.000316289
-0.00225111
0.000812622
0.00142751
-0.000261638
-0.000392813
-0.000400364
0.000302574
6.76905e-05
-0.000205801
0.000406826
-0.00050405
-0.00100104
-0.000977589
-5.18109e-06
0.000605036
-0.000385162
-0.000222157
0.000944254
-0.000409274
-0.000539732
0.000458737
-0.00030725
-0.000151685
-3.15753e-05
-1.63451e-05
3.00709e-05
0.00127926
-0.000766038
-0.000527355
-1.99195e-06
5.14748e-06
-0.000294636
0.000414627
-0.000120138
2.58568e-06
-3.35054e-05
-0.000872275
0.00148265
0.000643819
0.00105399
-0.00170165
0.000349834
8.5203e-05
0.000157741
-0.000225804
-0.000600172
0.000818516
-0.00196253
0.0014756
0.000478313
0.000912858
0.00027418
-0.00153089
-0.000401462
0.000195282
-0.000171391
0.000552352
-0.00101389
0.00201644
-0.00145104
-0.00124272
1.32141e-05
0.00122575
-2.03189e-05
3.21453e-05
-1.25745e-05
-0.00067305
-0.00089565
-9.85319e-06
-2.767e-06
0.000224919
-0.000374272
0.000149044
0.000162993
-0.000894977
0.000501701
0.000826146
-0.00132911
-0.000422903
-0.0010493
0.00145189
-0.00149342
0.00134742
0.000126855
-0.000259329
-0.001161
0.00140904
-0.000126445
-0.00111804
0.0011794
-0.00116534
-3.36306e-05
-0.00137646
0.00107266
-0.000545447
-0.000538322
0.000472256
-0.00194944
0.00147196
-0.000623682
0.00180994
-0.000416263
0.000126753
0.000511569
-0.0001707
-0.000341977
-0.000367233
0.000387037
-3.83984e-05
0.000135276
-0.000256789
-0.00156015
0.00180299
-0.0010888
0.00194192
-0.000856067
-0.000169643
0.000412479
-0.000250867
0.000401362
0.000447981
-0.000851191
-0.000917065
0.000712901
0.000125503
0.00103325
0.000153384
0.0010801
0.000221496
0.00038111
-0.000574079
0.000694837
-0.000126361
-0.00140066
0.00112991
-0.00103713
-0.000809872
0.00188627
-0.00108104
0.00050917
0.000642555
-0.000894736
0.00171033
-0.000390484
-0.000554406
4.76199e-06
-3.44406e-05
0.000135295
-0.000408167
0.000269503
0.000417937
-0.00030315
-0.000115269
0.000451929
-0.00022334
-2.28233e-05
2.58618e-06
2.6283e-05
-1.35508e-05
-1.49037e-05
5.22363e-06
5.26653e-07
-7.50301e-06
0.000539215
0.000523277
-0.00190334
0.000811424
0.000582584
0.00141974
-0.0020044
0.0012627
-0.000680205
-0.000609944
0.000197486
-6.79203e-05
-0.000144014
-0.00187695
0.00106227
4.26695e-06
-1.3867e-05
9.48105e-06
-0.000598882
-0.000456278
0.00173109
-4.60129e-05
-0.000592469
-0.000189437
0.000663342
0.000324377
-0.00099891
-2.12118e-05
2.52943e-05
0.000913185
-0.000514253
-0.00180139
0.00157282
0.00021656
-0.00139184
0.00132206
-0.000539579
-0.00033774
0.000839197
-0.000168456
0.000393083
0.000783246
0.000175421
0.00149707
-0.0011391
0.000432697
-0.000272221
-0.00016085
0.00192553
-0.000661285
-0.00128829
0.00132847
-0.00197156
-0.000106656
-0.000468818
0.000574243
0.000524238
0.000707496
0.000985151
-0.000521852
-0.000473346
0.000520924
-0.00129528
0.00151753
0.000195197
0.000666882
0.000365885
-0.000954749
-0.000856553
0.000663138
0.00046523
-0.00114789
0.00041627
0.000157785
-0.000576686
4.22975e-05
-0.000134512
8.70485e-05
-0.00153408
2.5982e-05
6.62333e-05
-0.000424307
0.000352278
0.00022663
0.000190939
0.000182911
-0.000559195
0.000373461
-7.60299e-05
-0.000352585
0.000449111
-0.000917833
0.000457606
0.000419222
-0.000198932
-0.000245541
8.32881e-05
0.000427943
0.0019375
-0.00111786
-0.000830931
3.42839e-05
8.9143e-06
-5.79945e-05
6.1371e-05
-0.00116184
0.00107872
-0.000434158
0.000613299
0.00051272
0.000751799
0.000666393
-0.00100892
0.000326983
0.000116717
0.00047142
0.00142809
-0.00070858
0.00135009
-0.000392601
-0.000180318
0.000433618
0.000370562
-0.000333084
0.000716893
-0.000382782
0.00202604
-0.000769742
-0.00126823
0.000207317
0.000224938
0.000998309
-0.000414013
-0.000583899
-0.000182539
-0.00100954
0.000316382
0.00035924
-0.000961166
-0.000114442
-0.00129342
0.00139898
-0.00206913
0.000893404
0.00116815
-0.000780861
0.000217162
0.000558754
0.000430305
-0.00176675
0.000354127
0.00139974
-0.00125676
0.00191831
-0.000663105
0.00048127
-0.000254628
-0.000227045
0.000137409
3.0876e-06
-0.000246146
0.000479492
-0.000237212
-0.000512907
0.000262726
-0.000634538
0.00113162
-0.000497705
0.00102368
-0.000373164
-0.00125519
-0.000819042
-0.000403628
0.000108787
-0.000264689
-0.00117014
-0.00190597
0.000647551
0.0011381
-0.00109883
0.000154719
0.000240862
-1.48201e-05
2.61427e-06
-5.7822e-05
1.39342e-05
-0.00133908
0.000409685
0.000895137
0.000265605
0.000215285
0.000169789
-0.000942811
0.000770546
-0.0010735
-0.000127961
0.00117303
0.000368212
0.000606317
-2.0667e-05
-0.000117496
0.000133027
-0.000105407
-0.00128687
-0.000184537
-0.00137465
0.00154858
0.00212051
-0.000297798
-0.00037002
0.000709624
-0.00122172
0.000120966
-0.000655649
-0.00160012
-0.0013674
0.000965434
0.000387322
0.00144688
0.000671318
0.00180585
-0.000720273
-0.00112172
-5.63029e-05
-1.85431e-06
-0.00199345
0.00157488
0.000408329
0.000117287
-0.000493674
0.000375523
7.89678e-05
0.00114763
-0.000479989
-0.00156474
-0.000203128
-0.000582473
-0.000192675
-0.00042764
0.000220897
-0.000493385
0.000269433
0.000511547
-0.000293761
0.00183878
-0.00113612
-0.000713039
0.000321712
-0.000749841
0.000389707
-8.70613e-05
-6.85351e-06
6.44562e-05
0.000670121
0.00134333
0.000832512
-0.000393429
0.000391993
-0.000847236
0.0003937
0.000452085
-0.000857019
0.000265984
0.000192169
-0.000350349
0.000551189
-0.000201601
-0.000117238
9.27186e-05
-0.000438382
5.72406e-05
-0.000701638
0.000272053
2.86802e-06
-0.000275053
0.00165901
-0.0010191
-0.000269556
0.000748459
-0.000448303
-0.00155496
-0.000519963
-0.000862199
-6.00232e-05
-1.71672e-05
5.176e-05
0.00055607
0.000442521
0.000455699
0.000203596
-0.000684436
0.00138873
-0.000714873
0.000713391
0.00111366
2.58242e-06
-0.000586528
0.000566002
4.22886e-06
0.00117111
-0.000675214
0.000129836
-0.000104981
-0.000399733
0.000886208
-0.0014867
0.0019583
-0.000479587
-0.000466543
0.000522245
-5.59627e-05
-0.00138787
0.00207545
-0.000701722
-0.000335778
0.00129814
-0.00191397
0.000606166
-0.00112408
0.000996036
-0.000414106
0.00159281
-0.00119663
0.000520369
-0.00115577
0.000377181
0.00110212
0.000446356
-0.000278474
6.49206e-05
-3.80256e-05
0.000441721
0.000699818
4.12551e-05
-1.18058e-05
0.000494256
0.000575246
-0.00107082
0.00123872
-0.000473767
-0.000765834
-0.00059786
-0.000484172
0.00107653
0.00187662
-0.000587596
-0.000383563
-0.00093038
0.00128586
0.00194468
0.00016781
-0.000713648
0.00048266
0.000680341
0.00108916
5.82175e-05
-0.00118626
3.06218e-06
9.97944e-06
-1.77023e-05
-0.000544716
0.00129057
-0.000746508
-0.00133618
0.000255805
0.00107698
-0.00142482
0.000730974
0.000687481
-0.000217864
0.000411218
-0.00019354
0.000779785
-0.00144849
-0.000120739
0.00036067
-0.000242968
-0.000331064
-0.00100725
0.000583281
0.000135267
-7.89268e-06
-1.52215e-06
0.00075128
0.000457367
-0.00122132
-0.00101247
6.65717e-05
-0.000645086
0.000405341
0.000130314
-0.000561586
-0.00036351
0.00130191
-0.000960721
0.000236318
0.00095985
-3.72172e-05
0.00213176
-0.000897427
-0.00124629
0.000595899
0.000705227
-0.00130127
2.08511e-05
-7.09418e-05
0.000121073
-0.00130391
0.000262186
0.000214743
-0.000478249
-0.00191827
0.000283592
1.54435e-05
9.64477e-06
-0.000643276
-0.000881825
-0.0003709
0.000655632
-0.00141505
-0.000774937
0.000504416
0.000241114
0.00197861
-0.00167976
-0.000309839
-0.00165066
0.00132041
0.000311249
2.30336e-05
-0.000641137
0.00140568
0.000749448
-0.000336236
-0.000689714
-0.000387334
0.000380358
0.000537109
-0.000928179
-0.000442911
0.00017253
-0.00181911
7.82025e-05
0.00173158
-0.000132164
0.000409264
-0.000279815
-2.74901e-05
-2.01773e-05
0.000364812
-0.00151442
0.00112287
2.1329e-05
-8.6862e-05
2.1797e-05
-0.00201877
0.000712126
0.00130299
-0.00117336
0.0011941
-4.3868e-05
-0.0013817
-0.000629991
0.000762527
-0.000127888
-9.0927e-05
6.41388e-06
0.000778897
-0.0004554
-0.000323717
-0.000370864
0.000152851
0.000794022
-0.0007209
-9.91529e-05
0.000135263
-0.0019645
0.00104921
-0.00148017
0.00120968
-0.00120005
0.000204867
-0.000618519
-0.000976507
0.00107989
0.000821887
-0.000654501
-0.0017864
0.00103195
-0.000466386
0.00106736
-0.000607115
0.00062096
-0.000702342
6.35922e-05
-0.000187095
0.000430549
-0.000243675
-5.22918e-05
1.91468e-05
2.83193e-05
0.000391903
2.50486e-06
-0.000900318
-0.000740656
0.00163591
-0.000109848
7.54618e-05
-0.00182322
0.00194825
-0.000258629
0.000671671
-0.000414693
0.000416926
-0.00129773
0.000455352
0.000191713
-0.000647916
7.28142e-05
-0.000252305
-0.001099
-0.000743848
0.00184074
-8.0309e-05
0.000170386
-0.000652055
0.00021991
0.000393374
-0.000327476
0.000908813
-0.000620911
7.90621e-05
-0.000491559
0.00039844
9.15701e-05
0.000180445
-0.000379959
-0.000524808
0.000892108
0.000261987
-0.000711915
0.000445336
0.000261275
0.000404329
-0.000668134
0.00193289
-2.12304e-05
-5.03635e-06
-0.000578655
0.000849234
-0.000271799
0.000465385
0.000771472
-0.00133842
0.000891935
-0.000951644
0.000301791
0.000316612
0.000888747
0.00120649
0.000715266
0.000251448
0.00026105
-7.95529e-05
9.50774e-05
-6.22975e-05
0.000280602
-0.000467554
0.000626963
-0.000496995
-0.000281544
-0.00143943
-0.00149557
-0.000335322
0.000617623
0.00127717
0.000254553
-0.000378417
-0.0016291
0.00209558
-0.000947437
-0.000457893
-0.000554726
0.00118318
-0.000629098
0.000263847
-0.00172828
0.00069262
-0.00124766
-0.000456985
0.000607508
-0.000151863
-2.40582e-05
-3.33295e-05
0.000386532
0.000514663
-0.00039227
0.00018886
0.000203166
0.000364211
-0.00143182
-0.000869693
0.000890137
-6.1871e-05
0.000948144
0.000406013
-0.00108439
0.00123794
-0.000182791
0.00101545
-0.000442598
-0.00147391
0.00194552
-0.000481137
0.00185881
-0.000647244
-0.000702313
0.00129803
0.00023155
6.85363e-05
-0.000343141
0.000501841
-0.000243029
-0.000473711
0.000260032
0.000213174
0.000605803
0.00130022
-0.00191301
0.00132791
-0.000864142
-0.000592782
-7.91788e-06
-6.4504e-06
1.37062e-05
-0.000669017
-2.83511e-05
4.26477e-05
-1.48719e-05
0.000222828
-0.00080287
0.000299497
-0.00102393
0.000347647
0.000289565
-0.000640484
0.000559377
-7.94642e-05
-0.000482151
8.74906e-05
-6.50526e-05
0.00140144
0.000507722
-0.00191787
-0.00192208
0.000664033
0.00125603
0.000417126
0.000713124
-0.000303482
-0.000578137
0.000875022
0.00025412
-0.000162608
0.00051636
-0.000327332
-0.000189954
-0.00106901
-0.000542012
0.000527886
0.000776912
0.00085571
-0.00163341
-0.000457809
-0.000273196
0.000649098
-0.000379522
0.000799016
-0.000414431
0.00072364
-0.00200521
-1.97253e-05
-0.00102448
0.0010878
-0.000107298
0.000637725
2.06781e-05
6.29054e-05
-0.00109853
0.00144368
4.56691e-05
-3.38795e-05
-0.000661903
0.000449746
0.000161236
-2.26776e-05
-0.000435319
-0.000554604
0.00102867
0.0008369
6.95725e-05
-5.24959e-05
0.000608956
0.000539167
-0.000786842
0.00130993
0.000345328
-0.000842127
0.000459818
8.84539e-05
2.57541e-05
-0.000134867
-0.000387554
0.000210192
1.56713e-05
-0.000393681
0.000509809
-0.000790003
0.00129046
-0.00136483
-0.000712674
0.0002171
0.000757431
-0.00185857
-0.000918262
0.000543363
0.000364608
-0.00021462
-0.000177686
-0.000136227
-0.000293409
-0.00136416
-0.00041321
-0.00102139
0.000382911
-1.10661e-05
2.68251e-06
-0.000329277
-0.000846454
0.00160513
-0.000770618
-0.000744078
0.00041489
0.000326343
0.00120669
0.000709124
0.000682217
-0.000338209
0.000588046
-0.00117311
0.000572283
0.000986384
-0.000412351
-0.00060483
-0.000595196
-0.00104794
0.0016306
0.00138203
-0.00051951
-0.000875824
0.000630835
-0.000176219
0.000404703
0.000488141
-0.000900315
0.000636235
9.46006e-05
0.00128551
-0.00206727
0.000529624
-0.000151216
-0.00117202
0.000315713
0.000843765
0.000301084
-0.000903
6.38318e-05
0.000639879
0.00162865
-0.000982118
-0.00144721
0.00125336
0.00105995
-0.000214322
-0.000864957
0.000487938
-0.00063326
0.00112586
0.000762008
0.000178236
-0.000515854
0.00166788
-0.00116407
-0.000603409
0.000327086
0.000386513
0.000569316
0.00201927
-0.000867446
-0.00115773
0.000766581
-0.00062127
-9.02441e-05
0.00187879
-0.00046986
-2.44658e-05
8.1941e-05
-9.12123e-05
0.000395137
-0.000219897
0.00153273
2.01401e-05
-0.0015704
-0.000433662
0.000242354
0.00028735
0.000158325
-0.000445965
0.000644067
-0.000390757
-0.000251659
-0.00161515
0.000970386
0.000611261
-0.000179781
0.000217727
-2.13675e-05
-2.13665e-06
-0.000722377
2.03452e-05
0.000653484
3.7965e-05
-2.32361e-05
-0.000583984
-0.000127914
-2.38677e-06
9.32531e-06
-7.60047e-06
-0.00204772
0.000647225
0.00142568
0.000541261
1.63248e-05
4.99224e-05
-0.000693504
0.00115398
-0.00045989
-0.0015288
-0.000962819
0.000269641
0.00120969
-0.000377185
-0.000863867
2.24908e-05
-1.02596e-05
-1.52908e-05
-2.14268e-05
4.06543e-05
-2.90189e-05
0.00122506
-0.000869813
0.000919905
-0.000474063
-0.000444298
0.000683784
3.48908e-05
-0.000724479
-0.00103111
-2.12018e-05
-1.13496e-06
4.68418e-05
-8.59392e-05
-0.000251271
0.000161636
4.53678e-05
0.00139914
-0.000308412
-0.00111079
0.000521171
0.000206154
-0.000730401
-0.000592917
-0.000575394
0.00116846
0.000787032
0.000253992
5.9697e-05
-4.67911e-05
-0.000347411
0.000413895
-0.000213651
0.00158255
-0.000797656
-0.000571346
0.00136779
0.000176649
-0.000427797
0.000250809
-0.00150133
0.000443856
0.000268763
-0.000713937
0.0011397
-0.00188581
0.000539571
0.00105428
-0.00049286
0.000749279
8.86112e-05
-0.000370111
-0.0010603
0.00109661
0.000951071
-0.000841513
0.001368
-0.00011519
0.000791672
0.000501265
0.000507497
0.000692344
0.00200586
-1.16401e-05
1.00051e-05
0.000542138
-0.000617491
0.000215034
0.000196003
0.00109969
-0.000365008
-0.000753669
0.000251271
-0.00158419
0.00131677
-0.00130361
0.00201923
-0.000231624
-0.000458198
0.000447986
-0.00214125
0.000259003
-0.000524843
0.00098135
-0.000456411
0.000949542
-0.000552798
-0.000468377
0.000914313
-0.000513392
1.72685e-05
3.26941e-05
0.000368277
0.000809028
0.000405412
0.000373161
8.67858e-05
0.000470161
-0.000494408
-0.00147647
0.000436296
-0.000149018
0.000827181
-0.000305929
-0.000545289
-3.76449e-05
1.70116e-05
2.2837e-06
3.56292e-05
-0.0011161
0.00187167
0.000274146
-0.000547635
0.000272313
0.000282736
-0.00163975
0.00134205
-0.000542289
0.00172381
-0.00120167
-0.000408053
0.000273116
0.00113716
-0.000997887
-0.000158533
2.21708e-05
-5.18693e-05
-0.000294645
0.000557287
-0.000264911
-0.00186506
-8.76196e-05
-0.000290415
-0.000161567
0.000450749
-7.24019e-05
0.00100514
-0.000237889
0.000386493
-0.000230843
-0.000155755
0.000394825
-1.50544e-05
-0.000379898
0.000597037
-2.70669e-05
0.000831926
0.000535886
0.00018379
0.000261352
-0.000445922
-0.000891465
0.000138666
0.000305168
-0.0013493
0.000622361
0.000723734
-0.00068334
-0.000747353
-0.00157071
0.000412847
0.0011412
0.000384059
-0.000258269
0.00115009
-0.000900454
-0.000379692
-0.000844029
0.00121229
0.000532442
-0.000318833
-0.000127333
6.9017e-05
-3.443e-05
-0.000260738
-0.00140926
0.000877405
-0.000519208
-0.000504746
0.000208524
-0.000662659
0.00152682
-0.000875024
0.000649733
-0.000736283
0.00175595
-0.000272272
-0.000139009
0.000601971
-0.000204081
0.000100587
-0.000235546
7.63351e-05
-0.00140575
2.0606e-05
1.32601e-05
-0.00143122
0.000961442
0.000436605
-6.56551e-05
0.000279655
-0.000279189
-0.000415499
-5.4321e-05
-0.000423969
-7.47734e-05
8.71583e-05
-1.70503e-05
-0.00191716
0.000567142
0.00134516
1.63799e-05
-0.000575152
0.000170194
0.000216119
-1.17536e-05
1.1326e-05
-5.71715e-06
0.000533574
0.000916316
-0.00146406
0.000594468
-0.000605607
6.6331e-06
-0.00136345
0.000564743
-0.000934615
0.000186323
0.000745788
0.000273969
-0.000225584
-9.21774e-05
0.00221371
-0.000333139
0.000856969
-0.000414358
-0.00106902
0.000323147
-0.000600181
0.000276258
-0.000119652
0.000653608
-0.000290375
-0.000512089
-0.000322948
-0.000709548
0.00102565
0.000326635
-0.000234181
0.00152836
0.000677533
0.00150368
-0.000289698
-0.00123057
-6.23949e-05
4.33106e-05
0.000994412
-0.000611039
0.00136187
-0.000755556
-0.0015636
8.51229e-05
0.00147252
0.00147236
8.52627e-05
0.000680426
-0.00101026
5.24409e-05
-0.000169566
-0.000874908
0.00139466
-0.000604883
0.000543155
-0.000501954
-0.000741937
0.00124184
0.00105408
-0.000599523
-0.000698926
0.000801447
0.000181566
0.000581626
-0.000689166
0.000107916
0.00057637
0.000386429
0.00176346
-0.00149767
0.000187023
-0.000931433
0.000744831
0.000709423
-0.000450959
0.000591355
-0.000593432
-0.000362336
0.000635324
-0.000270454
0.000626986
0.00138624
-0.000342883
-0.000489131
0.000832793
-0.00102442
0.000499315
0.00064716
-0.00036519
-0.000284361
0.000203953
-0.000777542
0.000570382
-0.000850864
0.00156578
-0.000725389
0.000557356
-0.00129759
0.0019555
0.000568926
-0.000259044
0.000295158
-0.000506067
0.00143912
-0.000956201
-2.74755e-05
-3.75144e-05
4.17327e-05
-0.00095233
0.000343609
-3.60783e-05
1.12382e-06
3.40352e-05
8.20209e-05
2.83931e-05
-0.000115057
0.00023326
0.000189206
-0.000422669
0.000555165
0.000248014
-0.00110855
-0.000104233
0.00118149
-0.000291578
-0.000314784
0.000444762
-0.000130156
-0.000483126
-3.30844e-05
-0.000141347
-0.000620255
-0.000117651
0.000250015
0.000105085
0.000289636
-6.0877e-05
0.000579417
0.000277576
0.000368139
-0.0018262
0.00134005
0.000472038
0.000386104
0.000331498
0.0010614
-0.000645567
0.000464458
0.000456793
0.000924321
-0.000634042
-0.000564586
0.000922484
-0.00108929
0.000646123
-4.28818e-05
-0.0017921
0.000364159
-0.000640735
0.000182581
0.000452344
0.000159066
-0.000156253
0.00116035
-0.00161799
0.000998258
-0.000316238
0.000523673
-0.000793914
0.000451853
-0.00026779
-0.000206398
-0.000716258
0.000726091
-3.22417e-05
0.000304182
-0.000867745
0.000553051
-0.000459355
0.000767743
-0.00157484
-0.00127519
0.00151053
0.000156336
0.000725059
-0.000881408
-3.76484e-05
-1.46839e-05
-0.000228164
0.000361995
-0.000133898
-2.0989e-05
9.84569e-05
-0.000128698
0.000718578
0.00089739
0.000126238
-0.00105613
0.000922097
-0.00130848
0.000383646
-0.000128805
-0.000594948
0.000887578
-0.000355681
0.000928123
-0.000227153
-0.000710025
-0.00148474
-0.000203983
-8.2901e-05
-4.36768e-05
-0.00084736
-0.00133888
0.000686387
-0.001876
0.00118332
-0.000379467
0.00157411
-0.00121431
-0.000340447
2.5468e-05
0.000305173
9.90872e-05
0.000179507
0.00064012
-0.000449711
0.00138382
-0.000958175
7.38743e-06
-0.000347604
-0.000294703
0.000421306
-0.000251367
-0.000577442
0.000778272
0.00203346
-0.000884694
-0.00171263
0.000641478
0.00104654
-0.000451493
0.000159971
-0.000103862
1.69617e-05
0.00184849
-5.86928e-05
-0.000389779
0.000220972
0.000168646
-0.000857486
-0.000415724
0.00124
0.000765098
-0.000649218
-0.000128454
-0.000528417
0.000578446
-0.00136835
0.000432526
-0.00102539
0.000593035
0.000880655
0.000248982
-0.00115261
-0.000128984
-4.51476e-05
0.00169476
-0.000844014
-0.000850802
-0.000421792
0.000215863
0.000358671
-0.000942706
0.000303369
0.0011846
0.000445876
-0.00171855
0.00125814
0.000807502
-0.000630114
-0.000212921
-0.000322427
0.000535966
-0.000776063
8.09977e-05
1.10564e-05
-9.08083e-05
-0.00137766
0.000517139
-0.000237676
-0.000459784
0.000657538
-6.28543e-05
-0.000127834
-0.000576589
5.96024e-05
4.64044e-05
-2.17547e-05
0.000549061
0.000668372
-0.00121818
-0.00113949
0.00119358
3.04536e-05
-0.00116854
-0.00139434
-0.000596557
0.00140292
-6.67766e-05
-0.000301146
0.000367733
0.000355288
-0.000614768
0.00133218
-0.000595647
0.000781451
-0.000594416
0.0010277
-0.000163052
-0.000812561
0.00125667
0.00147754
-0.000859255
0.0004548
-0.000732706
-0.00165885
0.000397322
0.00123289
-0.00119685
0.00119581
-0.000181145
0.000368572
-0.00018742
-0.000725862
-1.95631e-05
-0.000879584
0.000757242
3.3591e-05
-0.000772264
0.00128628
-6.93565e-05
-0.000400272
0.000131431
0.000268736
-0.000199547
8.07837e-05
0.00160909
-0.000832769
-0.0011853
-0.000383555
-0.000594703
9.25337e-05
0.000499687
0.000472647
-0.00114485
0.000530206
-0.00130439
0.000763354
-0.000242114
-0.000741554
0.00104327
-0.000439579
0.00190636
-0.000904371
-0.00203005
0.000544161
0.00148288
0.000205789
0.000231311
-0.000437153
-0.00103179
-0.000271841
0.00129494
0.000107518
0.00040473
0.00145054
0.000297928
0.000619635
0.000620801
-0.000498254
0.000153528
8.36716e-05
-0.000843698
0.00102638
-0.000182363
-0.000800802
0.00113677
-0.00126586
0.000851981
-0.000460222
-0.000484042
0.000172771
0.000304222
-0.000147928
-0.000799967
-0.000240677
-0.000903776
-0.000520947
-0.0008321
0.000128577
-0.00026315
-3.94903e-05
1.94397e-05
1.89324e-05
0.000126123
0.000804492
0.00024913
0.000281943
0.000810273
-0.00125791
-0.000683672
0.000619838
0.000302101
-0.000515066
0.000837646
-0.00167748
0.000833154
0.000526186
0.000455074
4.16437e-05
0.00010411
-6.01155e-05
-0.000440947
1.1333e-05
0.000202156
-0.00131499
0.000411354
-0.000612991
-0.000236227
0.000843004
-0.000455882
0.000449225
-3.78843e-06
-0.000828665
-0.000220009
0.00102625
-0.00168949
0.00112806
3.30996e-05
-1.45222e-05
0.000203072
0.000603279
-0.00119605
-0.00126285
0.000388305
-0.000660147
0.000681955
-0.000214247
-0.000470198
-0.00017259
-0.000884815
0.00166684
-0.00114112
-0.000529025
0.00112625
-0.00054898
0.00118766
-0.000871279
0.00028199
0.000588347
-0.00137175
-0.000541854
0.00190637
0.000452075
0.000793984
-0.00124859
0.000335568
-0.000473666
0.000359526
0.000176697
-0.000727889
0.00130351
0.000221606
-0.000533526
0.000311516
-0.000343072
0.000389529
-7.48954e-05
0.000756601
-0.000591889
0.00110032
0.000413072
0.000954532
0.000165737
-1.63072e-05
-2.44419e-05
-0.000498
-0.000318937
0.000793193
9.78544e-05
-0.000938619
0.000840226
-0.00131875
0.00193986
-0.0006014
0.000357606
0.000722275
-0.000749694
0.000867707
-0.000149892
0.00132149
0.000635733
0.000832344
-0.00130333
0.000718051
0.000166676
0.000638288
0.00125226
-0.00194578
0.000691273
-0.000834506
0.000340536
0.000490967
-0.000863087
-0.000293294
0.00115524
3.35443e-05
-8.1944e-05
-0.0013679
0.000235602
0.00110217
-0.000716313
0.00171327
-0.00100231
0.0019132
-0.00184476
-0.000109638
0.000633209
-0.000533923
-0.000430231
-8.28855e-06
-0.00103199
2.84347e-05
-0.000494751
-0.00126308
0.00169423
-0.00130285
0.00067056
0.000632394
-0.00102441
0.000175371
0.000278385
0.000243371
0.000312598
0.000294345
-0.000609476
0.00180176
4.61174e-05
0.000365618
0.00034981
-0.000718383
-5.44725e-05
7.11384e-07
7.33563e-05
-0.000298975
0.000218669
0.00187757
-0.00126762
-0.000633541
-0.00043032
0.000614654
-0.000185898
-0.00142104
0.000771045
0.000646607
6.65214e-05
-0.000436088
-2.67813e-05
-2.20718e-05
0.001089
-0.000751681
-0.000630791
-0.000281824
2.81976e-05
-0.000153288
0.000119441
0.000335114
0.000733013
-0.000281885
-0.00071467
0.000282387
0.000692432
-0.000985664
0.000556565
-0.000283524
-0.00192223
0.00077415
0.00134525
-0.000384136
0.000250358
-0.00047306
-0.000173244
-0.000472831
0.000902653
-0.000431088
-0.000484953
-5.20036e-05
0.000203035
0.000496105
0.000594029
-0.00109033
-0.000466601
0.000708098