/*--------------------------------*- C++ -*----------------------------------*\
| =========                 |                                                 |
| \\      /  F ield         | OpenFOAM: The Open Source CFD Toolbox           |
|  \\    /   O peration     | Version:  v2012                                 |
|   \\  /    A nd           | Website:  www.openfoam.com                      |
|    \\/     M anipulation  |                                                 |
\*---------------------------------------------------------------------------*/
FoamFile
{
    version     2.0;
    format      ascii;
    class       pointVectorField;
    location    "1000";
    object      pointDisplacement;
}
// * * * * * * * * * * * * * * * * * * * * * * * * * * * * * * * * * * * * * //

dimensions      [0 1 0 0 0 0 0];


internalField   nonuniform List<vector> 
14332
(
(0 0 0)
(-0.0144668 0.104587 0)
(0 0 0)
(-0.0144668 0.104587 0)
(0 0 0)
(0 0 0)
(0 0 0)
(0 0 0)
(0 0 0)
(0 0 0)
(0 0 0)
(0 0 0)
(0 0 0)
(0 0 0)
(0 0 0)
(0 0 0)
(0 0 0)
(0 0 0)
(0 0 0)
(0 0 0)
(0 0 0)
(0 0 0)
(0 0 0)
(0 0 0)
(0 0 0)
(0 0 0)
(0 0 0)
(0 0 0)
(0 0 0)
(0 0 0)
(0 0 0)
(0 0 0)
(0 0 0)
(0 0 0)
(0 0 0)
(0 0 0)
(0 0 0)
(0 0 0)
(0 0 0)
(0 0 0)
(0 0 0)
(0 0 0)
(0 0 0)
(0 0 0)
(0 0 0)
(0 0 0)
(0 0 0)
(0 0 0)
(0 0 0)
(0 0 0)
(0 0 0)
(0 0 0)
(0 0 0)
(0 0 0)
(0 0 0)
(0 0 0)
(0 0 0)
(0 0 0)
(0 0 0)
(0 0 0)
(0 0 0)
(0 0 0)
(0 0 0)
(0 0 0)
(0 0 0)
(0 0 0)
(0 0 0)
(0 0 0)
(0 0 0)
(0 0 0)
(0 0 0)
(0 0 0)
(0 0 0)
(0 0 0)
(0 0 0)
(0 0 0)
(0 0 0)
(0 0 0)
(0 0 0)
(0 0 0)
(0 0 0)
(0 0 0)
(0 0 0)
(0 0 0)
(0 0 0)
(0 0 0)
(0 0 0)
(0 0 0)
(0 0 0)
(0 0 0)
(0 0 0)
(0 0 0)
(0 0 0)
(0 0 0)
(0 0 0)
(0 0 0)
(0 0 0)
(0 0 0)
(0 0 0)
(0 0 0)
(0 0 0)
(0 0 0)
(0 0 0)
(0 0 0)
(0 0 0)
(0 0 0)
(0 0 0)
(0 0 0)
(0 0 0)
(0 0 0)
(0 0 0)
(0 0 0)
(0 0 0)
(0 0 0)
(0 0 0)
(0 0 0)
(0 0 0)
(0 0 0)
(0 0 0)
(0 0 0)
(0 0 0)
(0 0 0)
(0 0 0)
(0 0 0)
(0 0 0)
(0 0 0)
(0 0 0)
(0 0 0)
(0 0 0)
(0 0 0)
(0 0 0)
(0 0 0)
(0 0 0)
(0 0 0)
(0.0091038 0.104895 0)
(0.00779432 0.104878 0)
(0.00648485 0.104861 0)
(0.00517537 0.104844 0)
(0.00386589 0.104827 0)
(0.00255641 0.10481 0)
(0.00124693 0.104793 0)
(-6.25434e-05 0.104775 0)
(-0.00137202 0.104758 0)
(-0.0026815 0.104741 0)
(-0.00399098 0.104724 0)
(-0.00530046 0.104707 0)
(-0.00660993 0.10469 0)
(-0.00791941 0.104672 0)
(-0.00922889 0.104655 0)
(-0.0105384 0.104638 0)
(-0.0118478 0.104621 0)
(-0.0131573 0.104604 0)
(-0.0144497 0.103277 0)
(-0.0144325 0.101968 0)
(-0.0144154 0.100658 0)
(-0.0143982 0.0993488 0)
(-0.014381 0.0980393 0)
(-0.0143639 0.0967299 0)
(-0.0143467 0.0954204 0)
(-0.0143296 0.0941109 0)
(-0.0143124 0.0928014 0)
(-0.0142953 0.091492 0)
(-0.0142781 0.0901825 0)
(-0.014261 0.088873 0)
(-0.0142438 0.0875635 0)
(-0.0142267 0.086254 0)
(-0.0142095 0.0849446 0)
(-0.0141924 0.0836351 0)
(-0.0141752 0.0823256 0)
(-0.0141581 0.0810161 0)
(-0.0141409 0.0797067 0)
(-0.0141238 0.0783972 0)
(-0.0141066 0.0770877 0)
(-0.0140895 0.0757782 0)
(-0.0140723 0.0744687 0)
(-0.0140552 0.0731593 0)
(-0.014038 0.0718498 0)
(-0.0140209 0.0705403 0)
(-0.0140037 0.0692308 0)
(0 0 0)
(0 0 0)
(0 0 0)
(0 0 0)
(0 0 0)
(0 0 0)
(0 0 0)
(0 0 0)
(0 0 0)
(0 0 0)
(0 0 0)
(0 0 0)
(0 0 0)
(0 0 0)
(0 0 0)
(0 0 0)
(0 0 0)
(0 0 0)
(0 0 0)
(0 0 0)
(0 0 0)
(0 0 0)
(0 0 0)
(0 0 0)
(0 0 0)
(0 0 0)
(0 0 0)
(0 0 0)
(0 0 0)
(0 0 0)
(0 0 0)
(0 0 0)
(0 0 0)
(0 0 0)
(0 0 0)
(0 0 0)
(0 0 0)
(0 0 0)
(0 0 0)
(0 0 0)
(0 0 0)
(0 0 0)
(0 0 0)
(0 0 0)
(0 0 0)
(0 0 0)
(0 0 0)
(0 0 0)
(0 0 0)
(0 0 0)
(0 0 0)
(0 0 0)
(0 0 0)
(0 0 0)
(0 0 0)
(0 0 0)
(0 0 0)
(0 0 0)
(0 0 0)
(0 0 0)
(0 0 0)
(0 0 0)
(0 0 0)
(0 0 0)
(0 0 0)
(0 0 0)
(0 0 0)
(0 0 0)
(0 0 0)
(0 0 0)
(0 0 0)
(0 0 0)
(0 0 0)
(0 0 0)
(0 0 0)
(0 0 0)
(0 0 0)
(0 0 0)
(0 0 0)
(0 0 0)
(0 0 0)
(0 0 0)
(0 0 0)
(0 0 0)
(0 0 0)
(0 0 0)
(0 0 0)
(0 0 0)
(0 0 0)
(0 0 0)
(0 0 0)
(0 0 0)
(0 0 0)
(0 0 0)
(0 0 0)
(0 0 0)
(0 0 0)
(0 0 0)
(0 0 0)
(0 0 0)
(0 0 0)
(0 0 0)
(0 0 0)
(0 0 0)
(0 0 0)
(0 0 0)
(0 0 0)
(0 0 0)
(0 0 0)
(0 0 0)
(0 0 0)
(0 0 0)
(0 0 0)
(0 0 0)
(0 0 0)
(0 0 0)
(0 0 0)
(0 0 0)
(0 0 0)
(0 0 0)
(0 0 0)
(0 0 0)
(0 0 0)
(0 0 0)
(0 0 0)
(0 0 0)
(0 0 0)
(0 0 0)
(0 0 0)
(0 0 0)
(0.0091038 0.104895 0)
(0.00779432 0.104878 0)
(0.00648485 0.104861 0)
(0.00517537 0.104844 0)
(0.00386589 0.104827 0)
(0.00255641 0.10481 0)
(0.00124693 0.104793 0)
(-6.25434e-05 0.104775 0)
(-0.00137202 0.104758 0)
(-0.0026815 0.104741 0)
(-0.00399098 0.104724 0)
(-0.00530046 0.104707 0)
(-0.00660993 0.10469 0)
(-0.00791941 0.104672 0)
(-0.00922889 0.104655 0)
(-0.0105384 0.104638 0)
(-0.0118478 0.104621 0)
(-0.0131573 0.104604 0)
(-0.0144497 0.103277 0)
(-0.0144325 0.101968 0)
(-0.0144154 0.100658 0)
(-0.0143982 0.0993488 0)
(-0.014381 0.0980393 0)
(-0.0143639 0.0967299 0)
(-0.0143467 0.0954204 0)
(-0.0143296 0.0941109 0)
(-0.0143124 0.0928014 0)
(-0.0142953 0.091492 0)
(-0.0142781 0.0901825 0)
(-0.014261 0.088873 0)
(-0.0142438 0.0875635 0)
(-0.0142267 0.086254 0)
(-0.0142095 0.0849446 0)
(-0.0141924 0.0836351 0)
(-0.0141752 0.0823256 0)
(-0.0141581 0.0810161 0)
(-0.0141409 0.0797067 0)
(-0.0141238 0.0783972 0)
(-0.0141066 0.0770877 0)
(-0.0140895 0.0757782 0)
(-0.0140723 0.0744687 0)
(-0.0140552 0.0731593 0)
(-0.014038 0.0718498 0)
(-0.0140209 0.0705403 0)
(-0.0140037 0.0692308 0)
(-0.00206439 0.104746 0)
(-0.000146821 0.00262111 0)
(-0.0143212 0.0935181 0)
(-0.0140137 0.0699837 0)
(-0.0141681 0.0818595 0)
(-0.000209134 0.00289475 0)
(0.00826196 0.10489 0)
(-9.28892e-05 0.00216686 0)
(-3.97865e-05 0.00137416 0)
(-7.76784e-06 0.000610413 0)
(-0.00038124 0.00402729 0)
(-2.3834e-05 0.000983167 0)
(-5.52075e-05 0.00158929 0)
(-0.0110918 0.104626 0)
(-0.00042381 0.00340253 0)
(-9.74332e-06 0.000675356 0)
(-0.000538286 0.00306164 0)
(-1.42268e-05 0.000663819 0)
(-0.000666196 0.00225924 0)
(-0.0144175 0.101314 0)
(-9.30274e-06 0.000592071 0)
(-1.22995e-05 0.000620681 0)
(-6.57958e-06 0.000397 0)
(-7.26936e-06 0.000385496 0)
(-5.4436e-06 0.000315555 0)
(-0.000119365 0.00244234 0)
(-2.77924e-05 0.00105174 0)
(0.00312334 0.104812 0)
(-0.0142514 0.0882059 0)
(-0.0140981 0.0764592 0)
(-4.85431e-06 0.00026489 0)
(-3.16762e-06 0.000179518 0)
(-0.000383238 0.00355879 0)
(-0.000347653 0.00413215 0)
(-0.00046835 0.00322613 0)
(-0.0006511 0.00300164 0)
(-0.000189297 0.00293624 0)
(-8.53023e-05 0.00217991 0)
(-4.53492e-05 0.00141317 0)
(-1.52202e-05 0.000741682 0)
(-2.17903e-05 0.000967511 0)
(-8.10717e-06 0.000600792 0)
(-7.64299e-06 0.000506678 0)
(-3.67683e-06 0.000203586 0)
(-0.00591118 0.104699 0)
(-0.0143709 0.0973332 0)
(-1.92577e-06 0.000107482 0)
(-1.84122e-06 0.000103418 0)
(-0.000758631 0.00163835 0)
(-0.000258615 0.00332903 0)
(-0.000175561 0.0029258 0)
(-0.000134836 0.00257865 0)
(-9.8261e-05 0.00214506 0)
(-7.05504e-05 0.00191242 0)
(-2.03381e-05 0.000871197 0)
(-2.96715e-05 0.00117428 0)
(-4.56158e-05 0.00150244 0)
(-5.99114e-06 0.000322745 0)
(-3.125e-05 0.00113263 0)
(-7.60285e-06 0.000545298 0)
(-5.79606e-06 0.000361033 0)
(-5.44957e-06 0.000320687 0)
(-4.5808e-06 0.000262449 0)
(-9.15149e-06 0.000472594 0)
(-9.2677e-07 5.19068e-05 0)
(-0.000369759 0.0849413 0)
(-0.000613465 0.0844644 0)
(-0.000689647 0.0852762 0)
(-0.000931379 0.084749 0)
(-0.00102971 0.0855456 0)
(-0.00125927 0.0849656 0)
(-0.00137981 0.08574 0)
(-0.0015955 0.0851131 0)
(-0.00173519 0.0858688 0)
(-0.0019365 0.0851878 0)
(-0.00209301 0.0859168 0)
(-0.00227875 0.0851864 0)
(-0.00244923 0.085888 0)
(-0.0026233 0.0851096 0)
(-0.00280562 0.0857869 0)
(-0.00296832 0.0849633 0)
(-0.00316492 0.0855999 0)
(-0.00330302 0.0847672 0)
(-0.00351671 0.0853162 0)
(-0.00362208 0.0844599 0)
(-0.00385755 0.0849465 0)
(-0.00393187 0.0839945 0)
(-0.00418474 0.0844843 0)
(-0.00423941 0.0834581 0)
(-0.00450066 0.0839197 0)
(-0.00453605 0.082876 0)
(-0.00479462 0.08324 0)
(-0.00481623 0.0822046 0)
(-0.00507546 0.0825413 0)
(-0.0050855 0.0814736 0)
(-0.00535743 0.0817833 0)
(-0.00534244 0.0806752 0)
(-0.00561702 0.0808789 0)
(-0.00557727 0.079758 0)
(-0.00584874 0.0798667 0)
(-0.00531689 0.0795693 0)
(-0.00553184 0.0786257 0)
(-0.00528158 0.0784446 0)
(-0.000296833 0.0247762 0)
(-0.000284439 0.0240046 0)
(-0.00548572 0.0774752 0)
(-0.00523969 0.0773045 0)
(-0.000300091 0.0242073 0)
(-0.000288003 0.02347 0)
(-0.00543482 0.0763076 0)
(-0.00519185 0.0761435 0)
(-0.000303097 0.0236661 0)
(-0.000290769 0.0229253 0)
(-0.000305959 0.0231264 0)
(-0.000292643 0.0223774 0)
(-0.00537724 0.0751222 0)
(-0.00513916 0.0749627 0)
(-0.000306929 0.0225462 0)
(-0.000293481 0.0218186 0)
(-0.00531613 0.0739171 0)
(-0.0050826 0.073765 0)
(-0.000306572 0.021948 0)
(-0.000293136 0.0212423 0)
(-0.000280621 0.0211042 0)
(-0.00524912 0.0726899 0)
(-0.00502084 0.0725354 0)
(-0.00547541 0.0728844 0)
(-0.000305213 0.0213391 0)
(-0.000291723 0.0206529 0)
(-0.00517935 0.0714221 0)
(-0.00495354 0.071278 0)
(-0.000302983 0.0207273 0)
(-0.000316912 0.021373 0)
(-0.000289394 0.0200545 0)
(-0.00225981 0.0866382 0)
(-0.00590251 0.0810086 0)
(-0.00613139 0.0799283 0)
(-0.00619343 0.081077 0)
(-0.00641208 0.0800134 0)
(-0.00648958 0.0810739 0)
(-0.00669139 0.0799646 0)
(-0.0067904 0.0809682 0)
(-0.00697991 0.0797383 0)
(-0.00709069 0.0807723 0)
(-0.00726994 0.0794631 0)
(-0.00738955 0.0804845 0)
(-0.00755468 0.0790935 0)
(-0.00768475 0.0801261 0)
(-0.00783452 0.07863 0)
(-0.00797556 0.079649 0)
(-0.00810924 0.0780806 0)
(-0.00825993 0.0790393 0)
(-0.00837661 0.0774424 0)
(-0.00853772 0.0783435 0)
(-0.00863648 0.0766804 0)
(-0.0088058 0.0775214 0)
(-0.00888774 0.075777 0)
(-0.0090654 0.076556 0)
(-0.00913257 0.0747204 0)
(-0.00895217 0.0739706 0)
(-0.00918774 0.0727893 0)
(-0.00936953 0.0735379 0)
(-0.00940927 0.0715417 0)
(-0.00959062 0.0722073 0)
(-0.00960605 0.0701959 0)
(-0.00979674 0.0707018 0)
(-0.00979371 0.0686905 0)
(-0.00999651 0.0690215 0)
(-0.00996523 0.0669788 0)
(-0.0101776 0.0671294 0)
(-0.0101358 0.0650411 0)
(-0.010335 0.0651088 0)
(-0.010307 0.0630623 0)
(-0.0104864 0.0630369 0)
(-0.0104494 0.0609268 0)
(-0.0106295 0.0607369 0)
(-0.0105729 0.0585401 0)
(-0.0107518 0.0581724 0)
(-0.0106834 0.0559281 0)
(-0.0108569 0.0554189 0)
(-0.0107811 0.0531712 0)
(-0.0109527 0.0525059 0)
(-0.0108671 0.0502707 0)
(-0.0110367 0.0494479 0)
(-0.0109411 0.0472364 0)
(-0.0111051 0.0462474 0)
(-0.0110017 0.0440951 0)
(-0.0111588 0.0429722 0)
(-0.0110494 0.0408936 0)
(-0.00900828 0.0720573 0)
(-0.0101391 0.0627737 0)
(-0.0107734 0.0479988 0)
(-0.00749367 0.0815764 0)
(-0.000299779 0.0201058 0)
(-0.000286175 0.0194464 0)
(-0.00509903 0.0701342 0)
(-0.00488064 0.0700016 0)
(-0.0111992 0.0484144 0)
(-0.000295716 0.019473 0)
(-0.000282171 0.0188278 0)
(-0.00500939 0.0688348 0)
(-0.00480252 0.0687052 0)
(-0.000290795 0.0188289 0)
(-0.000277471 0.0182017 0)
(-0.000269087 0.0181862 0)
(-0.00492005 0.0675113 0)
(-0.00471964 0.067386 0)
(-0.000285019 0.0181741 0)
(-0.000272034 0.0175693 0)
(-0.0106828 0.0632955 0)
(-0.00482939 0.0661768 0)
(-0.00463342 0.0660397 0)
(-0.00501653 0.0662125 0)
(-0.00897903 0.0783384 0)
(-0.000278468 0.0175137 0)
(-0.000290654 0.018057 0)
(-0.00026594 0.0169333 0)
(-0.00473458 0.0648127 0)
(-0.00454209 0.0646745 0)
(-0.000271572 0.0168602 0)
(-0.000259292 0.016295 0)
(-0.000264272 0.0162077 0)
(-0.000252137 0.0156551 0)
(-0.00463502 0.0634267 0)
(-0.00444534 0.0632948 0)
(-0.000256651 0.0155593 0)
(-0.000244528 0.0150146 0)
(-0.00024008 0.0150954 0)
(-0.00452881 0.0620186 0)
(-0.00434508 0.0618786 0)
(-0.000232778 0.0144724 0)
(-0.000228634 0.014548 0)
(-0.000236427 0.0143737 0)
(-0.0044181 0.0605868 0)
(-0.00424307 0.0604513 0)
(-0.00416521 0.0616278 0)
(-0.00407117 0.0602513 0)
(-0.00398997 0.0613753 0)
(-0.00390171 0.0600188 0)
(-0.0038181 0.0611429 0)
(-0.00373506 0.0597355 0)
(-0.0038105 0.0585664 0)
(-0.00364757 0.0582818 0)
(-0.00357247 0.0593704 0)
(-0.00349051 0.0579655 0)
(-0.000224964 0.0138458 0)
(-0.000227962 0.0137368 0)
(-0.00355494 0.0567914 0)
(-0.00340402 0.0564834 0)
(-0.00333868 0.0576298 0)
(-0.00325769 0.0561404 0)
(-0.00314837 0.0841765 0)
(-0.000217144 0.0132423 0)
(-0.000219264 0.0131048 0)
(-0.00319023 0.0572444 0)
(-0.0031149 0.055754 0)
(-0.00317244 0.0546172 0)
(-0.00303482 0.0542405 0)
(-0.00297561 0.0553434 0)
(-0.00290129 0.0538267 0)
(-0.0028398 0.0548888 0)
(-0.00277163 0.0533729 0)
(-0.00270956 0.0543877 0)
(-0.00264584 0.0528827 0)
(-0.00258431 0.0538549 0)
(-0.0025242 0.052362 0)
(-0.00257809 0.0513537 0)
(-0.00246003 0.0508487 0)
(-0.00474057 0.0710785 0)
(-0.000207716 0.0125855 0)
(-0.00021036 0.0124716 0)
(-0.0024068 0.05182 0)
(-0.00234632 0.0503237 0)
(-0.0023918 0.0493116 0)
(-0.00228233 0.0488029 0)
(-0.00223674 0.0497776 0)
(-0.00217693 0.0482698 0)
(-0.00213133 0.0492073 0)
(-0.00207541 0.0477147 0)
(-0.00019958 0.0119699 0)
(-0.000201241 0.0118442 0)
(-0.000212552 0.01237 0)
(-0.00211351 0.0467398 0)
(-0.00201599 0.0462035 0)
(-0.00197755 0.0471436 0)
(-0.00192219 0.0456508 0)
(-0.00188334 0.0465559 0)
(-0.00183186 0.0450782 0)
(-0.00179299 0.0459489 0)
(-0.001745 0.0444876 0)
(-0.00170661 0.0453236 0)
(-0.00166172 0.0438825 0)
(-0.00169434 0.0430092 0)
(-0.00161368 0.0424247 0)
(-0.00158202 0.043268 0)
(-0.00153683 0.0418339 0)
(-0.000190635 0.0113577 0)
(-0.000189756 0.0115202 0)
(-0.000191767 0.0112163 0)
(-0.00156266 0.0409499 0)
(-0.00148901 0.0403826 0)
(-0.00146338 0.0412336 0)
(-0.00141859 0.0398036 0)
(-0.00139296 0.040618 0)
(-0.0013512 0.0392102 0)
(-0.00132528 0.0400121 0)
(-0.00128657 0.0386069 0)
(-0.00130721 0.0377916 0)
(-0.00124534 0.037209 0)
(-0.00122475 0.0379878 0)
(-0.00118621 0.0366151 0)
(-0.00116558 0.0373514 0)
(-0.00112975 0.0360125 0)
(-0.00114513 0.0352334 0)
(-0.00109148 0.0346627 0)
(-0.00107588 0.035407 0)
(-0.00104024 0.0340875 0)
(-0.00102431 0.0347907 0)
(-0.000991183 0.0335034 0)
(-0.0001815 0.0107433 0)
(-0.000182216 0.0105954 0)
(-0.00100296 0.0327594 0)
(-0.000956388 0.0322079 0)
(-0.000944313 0.0329163 0)
(-0.000911693 0.0316497 0)
(-0.00089966 0.0323298 0)
(-0.000869059 0.0310865 0)
(-0.000857007 0.0317375 0)
(-0.000828362 0.0305205 0)
(-0.000837149 0.0298376 0)
(-0.000798428 0.0292981 0)
(-0.000789557 0.0299516 0)
(-0.000761475 0.0287543 0)
(-0.000752612 0.0293753 0)
(-0.000726246 0.0282063 0)
(-0.000732321 0.027559 0)
(-0.000698809 0.0270399 0)
(-0.00375301 0.0858368 0)
(0.00142519 0.0996826 0)
(0.00128249 0.0992213 0)
(0.000697159 0.0995813 0)
(0.000620173 0.0991114 0)
(-1.99111e-05 0.0994186 0)
(-2.72532e-05 0.0988879 0)
(-0.000726495 0.0992035 0)
(-0.0007163 0.0987203 0)
(-0.00138525 0.0989617 0)
(-0.00130389 0.0984729 0)
(-0.00198793 0.0986774 0)
(-0.00211516 0.0991554 0)
(-0.00268521 0.0988394 0)
(-0.00286625 0.0993002 0)
(-0.00340625 0.0989146 0)
(-0.00365437 0.0993829 0)
(-0.00413905 0.0989273 0)
(-0.00445798 0.0993668 0)
(-0.00485681 0.0988739 0)
(-0.00522469 0.0992645 0)
(-0.00555747 0.0987222 0)
(-0.00595467 0.0990996 0)
(-0.0062307 0.0985038 0)
(-0.00664584 0.0988594 0)
(-0.00585128 0.0981301 0)
(-0.00065961 0.0982302 0)
(-0.00685443 0.0982127 0)
(-0.00728458 0.0985343 0)
(-0.000172699 0.0101496 0)
(-0.000172634 0.00998258 0)
(-0.00189277 0.0981954 0)
(-0.00263937 0.0553282 0)
(-0.000702227 0.0263648 0)
(-0.000670455 0.0258748 0)
(-0.00460011 0.060656 0)
(-0.000717446 0.0287949 0)
(-0.00742644 0.0978567 0)
(-0.00786291 0.0981232 0)
(-0.00204679 0.0451887 0)
(-0.00308296 0.0530671 0)
(-0.00016368 0.00956545 0)
(-0.000163014 0.00937552 0)
(-0.000172505 0.00982008 0)
(-0.00447629 0.0592035 0)
(-0.00465585 0.0592036 0)
(-0.00451954 0.057734 0)
(-0.00469516 0.057678 0)
(-0.00454772 0.0561806 0)
(-0.00472025 0.0560724 0)
(-0.00456049 0.0545444 0)
(-0.00472773 0.0543672 0)
(-0.00455543 0.0528205 0)
(-0.0047148 0.0525701 0)
(0.00164737 0.100129 0)
(-0.00794145 0.0974047 0)
(-0.00838512 0.0976115 0)
(-0.000671343 0.0251722 0)
(-0.000641351 0.0247116 0)
(-0.00769236 0.0776121 0)
(-0.00174816 0.0467507 0)
(-0.0045304 0.0509977 0)
(-0.00468348 0.050699 0)
(-0.00487736 0.0522535 0)
(-0.00483692 0.0503322 0)
(-0.00503844 0.0518419 0)
(-0.00498848 0.0498771 0)
(-0.00519741 0.0513439 0)
(-0.00513854 0.0493385 0)
(-0.00535465 0.0507616 0)
(-0.00528592 0.048717 0)
(-0.00550909 0.0500823 0)
(-0.00542756 0.0480093 0)
(-0.00565823 0.0493085 0)
(-0.00556338 0.0472042 0)
(-0.00580162 0.0484409 0)
(-0.00569584 0.0462885 0)
(-0.00593891 0.047465 0)
(-0.00582168 0.0452674 0)
(-0.00606954 0.0463875 0)
(-0.00594006 0.0441613 0)
(-0.00619297 0.0452099 0)
(-0.00605084 0.0429552 0)
(-0.00630796 0.0439236 0)
(-0.00615328 0.041648 0)
(-0.00641359 0.0425205 0)
(-0.000154076 0.00896625 0)
(-0.000155189 0.00918389 0)
(-0.00015311 0.00876945 0)
(-0.00624738 0.0402375 0)
(-0.00651042 0.0410005 0)
(-0.00840353 0.0968406 0)
(-0.00885216 0.0969859 0)
(-0.00793432 0.0967074 0)
(-0.0063319 0.0387276 0)
(-0.0065973 0.0393693 0)
(-0.00063984 0.0239832 0)
(-0.000611675 0.0235524 0)
(-0.000612692 0.0242484 0)
(-0.000584749 0.0231175 0)
(-0.00640651 0.037128 0)
(-0.00667319 0.0376259 0)
(-0.000144547 0.00837607 0)
(-0.00014311 0.00817168 0)
(-0.00448814 0.0491049 0)
(-0.00882618 0.0961851 0)
(-0.00925869 0.0962533 0)
(-0.00646883 0.0354159 0)
(-0.00673729 0.0357669 0)
(-0.00676658 0.0416267 0)
(-0.000585332 0.0237807 0)
(-0.000558986 0.0226758 0)
(-0.000556408 0.021992 0)
(-0.000532148 0.0215771 0)
(-0.00651975 0.0335868 0)
(-0.00678966 0.0338206 0)
(-0.00485916 0.0997566 0)
(-0.00617777 0.0485622 0)
(-0.000527791 0.0208734 0)
(-0.000505143 0.0204888 0)
(-0.00656127 0.0316688 0)
(-0.0068308 0.0318032 0)
(-0.00705424 0.033957 0)
(-0.00709588 0.0318342 0)
(-0.00686135 0.0297103 0)
(-0.0071308 0.0296372 0)
(-0.00688132 0.0275386 0)
(-0.00715018 0.027321 0)
(-0.0068884 0.025295 0)
(-0.00715578 0.0249096 0)
(-0.0092014 0.0954314 0)
(-0.00960887 0.0954303 0)
(-0.0096765 0.0962426 0)
(-0.0100145 0.0953638 0)
(-0.00990979 0.0945235 0)
(-0.0102917 0.0943694 0)
(-0.0104334 0.0952214 0)
(-0.0106728 0.0941253 0)
(-0.0105193 0.093273 0)
(-0.0108638 0.0928976 0)
(-0.0110361 0.093747 0)
(-0.0111877 0.0924397 0)
(-0.011367 0.0932389 0)
(-0.0114901 0.0918982 0)
(-0.0116755 0.0926415 0)
(-0.011768 0.0912675 0)
(-0.0119508 0.0918872 0)
(-0.0120194 0.0904915 0)
(-0.0121974 0.0910447 0)
(-0.0122479 0.0895554 0)
(-0.0124291 0.0901044 0)
(-0.012453 0.0884545 0)
(-0.0126328 0.0888613 0)
(-0.0126348 0.0871712 0)
(-0.0128072 0.0873926 0)
(-0.0127933 0.0857223 0)
(-0.0129569 0.0858157 0)
(-0.0129299 0.0840847 0)
(-0.0130844 0.0841085 0)
(-0.0130515 0.0822945 0)
(-0.0131925 0.0822362 0)
(-0.0131567 0.0803831 0)
(-0.0132829 0.0802087 0)
(-0.0132425 0.0783388 0)
(-0.0133571 0.078073 0)
(-0.0133133 0.0761977 0)
(-0.013417 0.0758495 0)
(-0.0133714 0.0739692 0)
(-0.0134651 0.0734913 0)
(-0.0134159 0.0716016 0)
(-0.0134983 0.0710181 0)
(-0.0134489 0.0692096 0)
(-0.0135203 0.0685498 0)
(-0.0134709 0.0667997 0)
(-0.0135356 0.0660384 0)
(-0.0134851 0.0642657 0)
(-0.0134139 0.0650081 0)
(-0.0132057 0.0765089 0)
(-0.0126315 0.0855338 0)
(-0.0118552 0.0898645 0)
(-0.0107147 0.0920188 0)
(-0.0135937 0.0652454 0)
(-0.0135142 0.0754544 0)
(-0.00688264 0.0229777 0)
(-0.00714397 0.0224081 0)
(-0.00742263 0.0269675 0)
(-0.0050575 0.0472777 0)
(-0.000135167 0.0078027 0)
(-0.000133448 0.00759653 0)
(-0.00686334 0.0205876 0)
(-0.00711796 0.0198634 0)
(-0.000534075 0.0222134 0)
(-0.000320702 0.0239544 0)
(-0.00683157 0.0181526 0)
(-0.00708465 0.0172938 0)
(-0.013231 0.0840692 0)
(-0.00049901 0.0197632 0)
(-0.00047803 0.019409 0)
(-0.000125929 0.00724361 0)
(-0.00012395 0.00703567 0)
(-0.000130954 0.00735377 0)
(-0.005563 0.0440998 0)
(-0.0119136 0.093251 0)
(-0.00774881 0.0988248 0)
(-0.000116839 0.00669916 0)
(-0.000118508 0.00687956 0)
(-0.000470217 0.0186631 0)
(-0.000450837 0.0183375 0)
(-0.000114555 0.00648636 0)
(-0.0059774 0.0393606 0)
(-0.00178919 0.084456 0)
(-0.000441507 0.0175744 0)
(-0.000423738 0.0172783 0)
(-0.000459975 0.0178646 0)
(-0.000432202 0.0180062 0)
(-0.000406618 0.0169753 0)
(-0.0004143 0.0176689 0)
(-0.00039012 0.0166652 0)
(-0.000107902 0.00616936 0)
(-0.000105389 0.00595546 0)
(-0.000397075 0.0173253 0)
(-0.000374227 0.0163488 0)
(-0.000366094 0.015675 0)
(-0.000351507 0.0153858 0)
(-0.00434461 0.0493951 0)
(-0.00428978 0.04747 0)
(-0.00415271 0.047768 0)
(-0.00408695 0.0457919 0)
(-0.0039562 0.0460701 0)
(-0.0038812 0.0440369 0)
(-0.00376018 0.0442818 0)
(-0.006242 0.0333009 0)
(-0.00495565 0.0759788 0)
(-0.00999611 0.0710789 0)
(-0.00367809 0.0422156 0)
(-0.00356416 0.0424498 0)
(-0.000342286 0.0146988 0)
(-0.00032899 0.0144369 0)
(-0.000337426 0.0150905 0)
(-0.000316133 0.0141686 0)
(-0.00661752 0.0233946 0)
(-9.91533e-05 0.00565604 0)
(-9.6485e-05 0.00544278 0)
(-0.000306754 0.0135031 0)
(-0.000295086 0.0132613 0)
(-0.000669352 0.0244103 0)
(-0.00347533 0.0403602 0)
(-0.00336676 0.0405919 0)
(-0.00357734 0.0401288 0)
(-0.000429761 0.016758 0)
(-0.000447168 0.01701 0)
(-0.000323836 0.0147904 0)
(-9.06131e-05 0.00515803 0)
(-8.78559e-05 0.00494875 0)
(-9.29085e-05 0.0051883 0)
(-0.000284854 0.0125853 0)
(-0.000274346 0.0123695 0)
(-0.00326912 0.0384508 0)
(-0.00316762 0.0386894 0)
(-0.000750741 0.0861363 0)
(-0.000415477 0.0158863 0)
(-0.000431638 0.0160966 0)
(-8.23255e-05 0.00467844 0)
(-8.48364e-05 0.00487367 0)
(-7.93268e-05 0.00446215 0)
(-0.000263363 0.0116847 0)
(-0.000253984 0.0114945 0)
(-0.000583286 0.0692856 0)
(-0.000711596 0.0686443 0)
(-0.000756023 0.0696256 0)
(-0.000883114 0.0689474 0)
(-0.00092872 0.0699134 0)
(-0.00105687 0.0692031 0)
(-0.00111283 0.0702765 0)
(-0.00123674 0.0694028 0)
(-0.00131888 0.0703615 0)
(-0.001418 0.069503 0)
(-0.00150839 0.0704272 0)
(-0.00160133 0.0695455 0)
(-0.0015116 0.0685361 0)
(-0.00169999 0.0704357 0)
(-0.00178435 0.0695249 0)
(-0.00189303 0.07038 0)
(-0.00196669 0.0694081 0)
(-0.00208489 0.0702534 0)
(-0.00200941 0.0712559 0)
(-0.00214899 0.0692279 0)
(-0.00220748 0.071104 0)
(-0.00213344 0.0721141 0)
(-0.00233755 0.0719317 0)
(-0.00226387 0.0729488 0)
(-0.00306127 0.0364884 0)
(-0.00296802 0.0367371 0)
(-0.00656827 0.0821424 0)
(-0.012828 0.0889465 0)
(-0.00556875 0.0520839 0)
(-7.34342e-05 0.00416983 0)
(-7.10968e-05 0.00399499 0)
(-0.000398585 0.0149586 0)
(-0.00041332 0.0151265 0)
(-0.000242346 0.0108027 0)
(-0.00023406 0.0106375 0)
(-0.000244814 0.0112952 0)
(-0.00022591 0.010462 0)
(-0.000250781 0.0109576 0)
(-0.000235838 0.0110862 0)
(-0.000217898 0.0102764 0)
(-0.000207466 0.00964799 0)
(-0.000200386 0.00948582 0)
(-0.00452904 0.0671598 0)
(-0.000227049 0.0108677 0)
(-0.0124088 0.0542875 0)
(-0.0122812 0.0548198 0)
(-0.0123395 0.0572408 0)
(-0.00247385 0.0727367 0)
(-0.00240151 0.0737606 0)
(-0.000883972 0.0329349 0)
(-0.00136345 0.0414078 0)
(-0.000268539 0.0160886 0)
(-0.000275586 0.0227056 0)
(-0.000964666 0.0314284 0)
(-0.00253397 0.0716924 0)
(-0.000461832 0.0413551 0)
(-0.000395843 0.0342414 0)
(-0.00036227 0.0309175 0)
(-0.00150904 0.0394613 0)
(-0.00731507 0.0339993 0)
(-0.00285229 0.0344851 0)
(-0.00276881 0.0347396 0)
(-0.00287376 0.0369333 0)
(-0.0026847 0.0349455 0)
(-0.00278038 0.0370833 0)
(-0.00259987 0.0351076 0)
(-0.00268737 0.0371835 0)
(-0.00251423 0.0352125 0)
(-0.00259459 0.0372339 0)
(-0.00242858 0.0352663 0)
(-0.00234111 0.0331966 0)
(-0.00226256 0.0332653 0)
(-0.00234422 0.0353008 0)
(-0.00218574 0.0333168 0)
(-0.00293444 0.0341762 0)
(-0.00684455 0.0787004 0)
(-0.00257257 0.0327034 0)
(-0.00202459 0.068406 0)
(-0.00220377 0.0681653 0)
(-0.00207505 0.0673426 0)
(-0.00225101 0.0670563 0)
(-0.00212104 0.0662307 0)
(-0.000108943 0.00868549 0)
(-0.000117219 0.00929889 0)
(-0.000113568 0.00886288 0)
(-0.000105196 0.00825269 0)
(-0.000109555 0.00841825 0)
(-0.000118103 0.0090239 0)
(-0.000113815 0.00856774 0)
(-0.000105217 0.0079665 0)
(-0.000109216 0.00810579 0)
(-0.000122524 0.00916751 0)
(-0.000100577 0.00750869 0)
(-0.000104328 0.00763901 0)
(-9.56586e-05 0.00704582 0)
(-9.91724e-05 0.00716829 0)
(-0.000107938 0.00775329 0)
(-0.000102527 0.00727452 0)
(-9.2019e-05 0.00690847 0)
(-0.000111369 0.00785015 0)
(-0.000105694 0.00736369 0)
(-6.60173e-05 0.00373694 0)
(-9.6883e-05 0.00679382 0)
(-9.98068e-05 0.00687648 0)
(-6.33777e-05 0.00355757 0)
(-6.74247e-05 0.00375785 0)
(-0.00209644 0.0312283 0)
(-0.00202795 0.0313034 0)
(-0.00210999 0.0333351 0)
(-0.00196009 0.0313451 0)
(-0.00959048 0.0681104 0)
(-0.00652909 0.0165256 0)
(-0.0105075 0.0564912 0)
(-0.0109567 0.0391102 0)
(-0.00395643 0.0828856 0)
(-0.0122052 0.057641 0)
(-0.0122589 0.0600385 0)
(-0.000189523 0.00885387 0)
(-0.000183332 0.00871448 0)
(-0.000825544 0.0839236 0)
(-0.000379 0.0139745 0)
(-0.000392319 0.0141057 0)
(-0.0123952 0.0596796 0)
(-0.0123096 0.0624027 0)
(-0.0121672 0.0626796 0)
(-0.0122119 0.0649653 0)
(-0.0120628 0.0651717 0)
(-0.0120997 0.0674893 0)
(-0.0119433 0.0675012 0)
(-0.0119677 0.0698988 0)
(-0.0118075 0.0696255 0)
(-0.0118204 0.0720518 0)
(-0.00387434 0.098434 0)
(-0.00203508 0.0333173 0)
(-0.00189255 0.0313517 0)
(-0.00261784 0.0735165 0)
(-0.00254817 0.0745463 0)
(-0.00181082 0.029339 0)
(-0.00175093 0.0293736 0)
(-0.00182567 0.0313322 0)
(-0.00169129 0.0293756 0)
(-0.00175968 0.0312819 0)
(-0.00163213 0.0293466 0)
(-0.00169487 0.0312085 0)
(-0.00157388 0.0292955 0)
(-0.00150566 0.0274023 0)
(-0.00145398 0.0273831 0)
(-0.00151655 0.0292207 0)
(-0.00140296 0.0273376 0)
(-0.0116567 0.0716253 0)
(-0.0116609 0.073972 0)
(-0.000114587 0.00792877 0)
(-5.88931e-05 0.00333039 0)
(-6.13305e-05 0.00349788 0)
(-0.000428438 0.0152819 0)
(-0.000405922 0.0142246 0)
(-0.000443833 0.0154231 0)
(-0.00041951 0.0143208 0)
(-0.00045966 0.0155558 0)
(-0.000433147 0.0143979 0)
(-0.000476017 0.0156776 0)
(-9.10343e-05 0.00631229 0)
(-9.37364e-05 0.00638972 0)
(-0.000446961 0.0144589 0)
(-0.000492618 0.0157792 0)
(-0.0014601 0.0291178 0)
(-0.00135249 0.0272635 0)
(-0.00129204 0.025475 0)
(-0.00124653 0.0254111 0)
(-0.00130282 0.0271674 0)
(-0.00120223 0.0253463 0)
(-0.00125416 0.0270491 0)
(-0.00115897 0.025263 0)
(-0.00120662 0.0269076 0)
(-0.00111659 0.0251563 0)
(-0.00106492 0.0234771 0)
(-0.00102763 0.0234076 0)
(-0.00107507 0.0250309 0)
(-0.000991003 0.0233184 0)
(-0.0010344 0.0248868 0)
(-0.000955065 0.0232096 0)
(-5.59192e-05 0.00313665 0)
(-0.000908431 0.0216165 0)
(-0.000877019 0.0215431 0)
(-0.000919902 0.0230822 0)
(-0.000846101 0.0214503 0)
(-0.00228862 0.0659192 0)
(-0.00216127 0.0651004 0)
(-0.0010126 0.0682367 0)
(-0.000460947 0.0145055 0)
(-0.000172106 0.00808035 0)
(-0.000166778 0.00796335 0)
(-0.000177158 0.00856348 0)
(-0.00016142 0.00783403 0)
(-0.000171004 0.00840094 0)
(-0.000156043 0.00769293 0)
(-0.00277268 0.0742621 0)
(-0.000146203 0.00712623 0)
(-0.000141565 0.00700604 0)
(-0.00478446 0.0842786 0)
(-0.00270456 0.0753049 0)
(-0.00246783 0.0755535 0)
(-5.28198e-05 0.0933063 0)
(-7.36923e-05 0.0926221 0)
(-0.000494987 0.0930567 0)
(-0.000502039 0.0923742 0)
(-0.000921864 0.092767 0)
(-0.0124484 0.0620678 0)
(-0.00166294 0.0273276 0)
(0.00496541 0.103687 0)
(0.00459967 0.103412 0)
(0.00381495 0.103656 0)
(0.00351318 0.103421 0)
(0.0027215 0.103625 0)
(0.00244025 0.103401 0)
(0.00156727 0.103588 0)
(0.00135062 0.103344 0)
(0.000336984 0.103519 0)
(0.000242461 0.10325 0)
(-0.000834106 0.103397 0)
(-0.000849614 0.103658 0)
(-0.00200433 0.103507 0)
(-0.00215009 0.103749 0)
(-0.00324823 0.103575 0)
(-0.000813503 0.10312 0)
(-0.00349303 0.103802 0)
(-0.00454643 0.103609 0)
(-0.0042174 0.10337 0)
(-0.00544316 0.103376 0)
(-0.00593714 0.103633 0)
(-0.0066684 0.10334 0)
(-0.00617286 0.103101 0)
(-0.00727047 0.103041 0)
(-0.0078357 0.10326 0)
(-0.00828133 0.10294 0)
(-0.00889425 0.103145 0)
(-0.00918586 0.10279 0)
(-0.00981838 0.102977 0)
(-0.00997399 0.102576 0)
(-0.0105983 0.102735 0)
(-0.0106338 0.102288 0)
(-0.0112318 0.102411 0)
(-0.0111758 0.101916 0)
(-0.0117205 0.101977 0)
(0.00227598 0.103147 0)
(0.00283685 0.103823 0)
(-0.0116095 0.10146 0)
(-0.0120825 0.101428 0)
(-0.011152 0.10139 0)
(-0.00935824 0.102403 0)
(-0.00677881 0.102794 0)
(-0.0114897 0.0734421 0)
(-0.0114862 0.0756981 0)
(-0.00088514 0.0229266 0)
(-0.000800428 0.0198857 0)
(-0.000357142 0.0129518 0)
(-8.50088e-05 0.00583121 0)
(-8.7507e-05 0.00590446 0)
(-9.62234e-05 0.00645048 0)
(-8.97859e-05 0.00596127 0)
(-0.00362375 0.0444095 0)
(-0.000103384 0.0919382 0)
(-5.20157e-05 0.00293862 0)
(-4.89376e-05 0.00274269 0)
(-0.00118232 0.0235556 0)
(-0.0121428 0.0700738 0)
(-0.0119215 0.0652378 0)
(-0.0113123 0.0751071 0)
(-0.0112963 0.0772813 0)
(-0.00293785 0.0749807 0)
(-0.00299199 0.0738994 0)
(-0.000164876 0.00822736 0)
(-0.000515179 0.0916849 0)
(-9.84646e-05 0.00649351 0)
(-9.18176e-05 0.00600078 0)
(-8.32315e-05 0.00547552 0)
(-8.50817e-05 0.0055129 0)
(-0.0119241 0.100905 0)
(-0.012347 0.100751 0)
(-0.0111255 0.076656 0)
(-0.0110902 0.078707 0)
(-0.0109238 0.0780095 0)
(-0.0108677 0.079957 0)
(-0.00262248 0.0763188 0)
(-0.00237781 0.076526 0)
(-0.00141413 0.0713098 0)
(-0.000131523 0.00644044 0)
(-0.00012759 0.00634076 0)
(-0.00077361 0.0198307 0)
(-0.000725228 0.0182365 0)
(-0.00231772 0.0647616 0)
(-0.00219567 0.0639562 0)
(-0.00204211 0.0642774 0)
(-0.00208111 0.0631361 0)
(-0.00193589 0.0634294 0)
(-0.00197276 0.0622999 0)
(-0.00183674 0.0625694 0)
(-0.0018686 0.0614407 0)
(-0.00173794 0.0616959 0)
(-0.00176752 0.060598 0)
(-0.00164622 0.060786 0)
(-0.00167699 0.0597366 0)
(-0.00156022 0.0598585 0)
(-0.00159547 0.0587966 0)
(-0.00147803 0.0589246 0)
(-0.0015123 0.0578537 0)
(-0.00139852 0.0579833 0)
(-0.0014314 0.0569281 0)
(-0.00244644 0.0655529 0)
(-0.00132295 0.057031 0)
(-0.00135602 0.0559896 0)
(-0.00164117 0.0576401 0)
(-0.00125134 0.0560686 0)
(-0.00128415 0.0550427 0)
(-0.00138317 0.0549212 0)
(-0.00131081 0.0539876 0)
(-0.00121626 0.0540874 0)
(-0.00124271 0.0530462 0)
(-0.00151993 0.0609295 0)
(-0.00188327 0.0602177 0)
(-0.00115247 0.0531241 0)
(-0.00117838 0.0520968 0)
(-0.0012639 0.0519849 0)
(-0.00119961 0.0510482 0)
(-0.00111715 0.0511435 0)
(-0.00113813 0.0501128 0)
(-0.00105935 0.0501883 0)
(-0.0010803 0.0491757 0)
(-0.00100496 0.0492317 0)
(-0.00102506 0.0482287 0)
(-0.000953601 0.0482677 0)
(-0.000972181 0.0472779 0)
(-0.00104149 0.0472045 0)
(-0.000987369 0.0462694 0)
(-0.000922308 0.0463339 0)
(-0.000936124 0.0453402 0)
(-0.000998062 0.0452361 0)
(-0.000946675 0.0443215 0)
(-0.00121784 0.0499793 0)
(-0.000887996 0.0444158 0)
(-0.00089848 0.0434128 0)
(-0.000952873 0.0432806 0)
(-0.000905033 0.0423913 0)
(-0.000853392 0.0425042 0)
(-0.000860046 0.0415027 0)