/*--------------------------------*- C++ -*----------------------------------*\
| =========                 |                                                 |
| \\      /  F ield         | OpenFOAM: The Open Source CFD Toolbox           |
|  \\    /   O peration     | Version:  v2012                                 |
|   \\  /    A nd           | Website:  www.openfoam.com                      |
|    \\/     M anipulation  |                                                 |
\*---------------------------------------------------------------------------*/
FoamFile
{
    version     2.0;
    format      ascii;
    class       volVectorField;
    location    "850";
    object      cellDisplacement;
}
// * * * * * * * * * * * * * * * * * * * * * * * * * * * * * * * * * * * * * //

dimensions      [0 1 0 0 0 0 0];


internalField   nonuniform List<vector> 
13917
(
(0.015871 0.143203 0)
(0.0028896 0.111114 0)
(0.0150773 0.126282 0)
(0.0107005 0.0676803 0)
(0.00150424 0.0908192 0)
(0.00287768 0.110345 0)
(0.0123169 0.088603 0)
(0.00186804 0.117958 0)
(0.0143016 0.0582858 0)
(0.0125602 0.148477 0)
(0.00207129 0.117526 0)
(0.00849494 0.070105 0)
(0.000322767 0.00147139 0)
(-0.000111703 0.122863 0)
(0.00332273 0.102901 0)
(0.015897 0.142592 0)
(1.47751e-05 0.00237332 0)
(0.00247828 0.117568 0)
(0.0137532 0.1262 0)
(0.0149639 0.14788 0)
(0.00577775 0.114783 0)
(0.00323863 0.078131 0)
(0.0128892 0.109773 0)
(0.00314361 0.0775249 0)
(0.00956829 0.0890057 0)
(0.00517888 0.115539 0)
(0.00189986 0.13305 0)
(0.013006 0.148581 0)
(0.00366799 0.117137 0)
(-5.53185e-06 0.00149683 0)
(0.0140826 0.148512 0)
(0.0147566 0.104189 0)
(0.00956254 0.0773117 0)
(0.0159414 0.137296 0)
(0.000707108 0.0538484 0)
(0.00163413 0.117806 0)
(0.00646465 0.100068 0)
(0.000152445 0.00333535 0)
(0.0124656 0.0879822 0)
(0.00717291 0.118729 0)
(-1.43908e-07 0.000706571 0)
(7.97173e-05 0.0366785 0)
(0.0139514 0.0518798 0)
(0.0145659 0.119301 0)
(0.0144363 0.119928 0)
(0.00786234 0.137835 0)
(0.00598277 0.113865 0)
(0.00829178 0.147102 0)
(-9.26139e-05 0.114641 0)
(0.000740435 0.0544484 0)
(0.00837572 0.0693822 0)
(0.00992165 0.13382 0)
(0.0163003 0.120881 0)
(0.00610563 0.0778272 0)
(0.00651034 0.0791557 0)
(0.010169 0.133655 0)
(0.0148596 0.148615 0)
(0.012754 0.110155 0)
(8.08491e-05 0.0357353 0)
(0.00756296 0.137799 0)
(0.00395566 0.143913 0)
(0.000216053 0.0613571 0)
(-5.6187e-07 0.000234902 0)
(0.00958392 0.087712 0)
(0.0146679 0.140488 0)
(-1.21498e-05 0.00226678 0)
(0.00327345 0.117346 0)
(0.00158272 0.117236 0)
(0.0022685 0.117998 0)
(0.0161091 0.131301 0)
(0.0147721 0.137213 0)
(0.0159622 0.137323 0)
(0.0107203 0.0413766 0)
(9.47311e-05 0.0353468 0)
(0.00580937 0.115621 0)
(0.00851638 0.0957408 0)
(0.00218113 0.0889705 0)
(9.46909e-05 0.0344086 0)
(0.00855751 0.094564 0)
(0.00958489 0.0785931 0)
(0.00481343 0.0878386 0)
(2.42692e-05 0.00275358 0)
(0.0106537 0.0395183 0)
(0.0156208 0.129019 0)
(0.00232582 0.0234409 0)
(0.00182014 0.122667 0)
(0.0147108 0.103583 0)
(0.00118583 0.0121696 0)
(0.0070918 0.118103 0)
(1.68819e-05 0.00283463 0)
(2.18576e-05 0.00460503 0)
(0.0140639 0.0517469 0)
(-0.000192973 0.114082 0)
(0.000589284 0.0469701 0)
(0.00607161 0.0881823 0)
(0.00345717 0.117704 0)
(0.00183886 0.13028 0)
(6.92403e-05 0.00388408 0)
(0.00135579 0.0135614 0)
(0.00365243 0.129046 0)
(-1.0995e-06 0.0006742 0)
(-1.38506e-06 0.000819867 0)
(0.00488907 0.0888199 0)
(0.000146803 0.00707408 0)
(0.00215368 0.0880437 0)
(0.0164586 0.105853 0)
(0.0132119 0.146832 0)
(0.000181613 0.0607339 0)
(6.47601e-05 0.0370508 0)
(0.00151814 0.133362 0)
(0.00233284 0.00427782 0)
(0.015892 0.138348 0)
(0.00385407 0.11749 0)
(0.00749829 0.147254 0)
(0.0147464 0.139764 0)
(0.00809925 0.098866 0)
(0.0137574 0.125073 0)
(3.95294e-06 0.00287958 0)
(0.014759 0.12654 0)
(0.010604 0.0269444 0)
(3.13662e-05 0.00341879 0)
(0.000132869 0.0340024 0)
(0.0030643 0.117866 0)
(0.0122054 0.12842 0)
(0.016362 0.117566 0)
(0.0156508 0.129634 0)
(0.0097618 0.0852096 0)
(0.00562876 0.116446 0)
(0.00143233 0.0569268 0)
(0.0123578 0.12846 0)
(0.0142596 0.0823271 0)
(0.00549833 0.13481 0)
(0.0164547 0.110416 0)
(0.00794562 0.0991547 0)
(0.014771 0.109065 0)
(0.00123681 0.133006 0)
(0.00311351 0.14316 0)
(0.0166247 0.10335 0)
(0.00479689 0.116195 0)
(8.05321e-05 0.00181146 0)
(-0.000594637 0.10002 0)
(0.000107248 0.0339849 0)
(0.0164773 0.10465 0)
(0.0032869 0.0613403 0)
(0.0101373 0.0418402 0)
(-1.19003e-05 0.0377599 0)
(0.0148891 0.136387 0)
(-0.000625328 0.0791395 0)
(0.00939109 0.14726 0)
(0.00622211 0.0788974 0)
(0.00720442 0.116435 0)
(-1.42043e-06 0.000725765 0)
(0.0100499 0.0399399 0)
(0.0107202 0.0252256 0)
(0.00154796 0.130628 0)
(0.00218325 0.0794949 0)
(0.000164691 0.00812316 0)
(0.0165305 0.107072 0)
(8.16208e-07 0.00138971 0)
(3.02784e-06 0.00236046 0)
(0.00349948 0.0450966 0)
(0.0116769 0.144204 0)
(0.00522337 0.104767 0)
(-0.000691157 0.0996465 0)
(0.00794896 0.145187 0)
(0.00302761 0.129983 0)
(0.0162848 0.121755 0)
(0.00603384 0.145852 0)
(-7.90384e-07 0.000312371 0)
(0.00461093 0.116864 0)
(0.00298428 0.0792373 0)
(0.0162636 0.119118 0)
(0.014389 0.055769 0)
(0.00470063 0.143331 0)
(0.00937552 0.127996 0)
(-1.01788e-06 0.00116406 0)
(0.0108349 0.0663693 0)
(0.00947802 0.13489 0)
(0.0142558 0.0808422 0)
(0.00509111 0.105684 0)
(0.0136814 0.0553216 0)
(0.00301291 0.0781156 0)
(0.0082238 0.0705324 0)
(0.0106992 0.137506 0)
(0.0146722 0.127831 0)
(0.00518998 0.134772 0)
(0.00810601 0.0698611 0)
(0.0104331 0.137657 0)
(-6.82865e-06 0.00185057 0)
(0.00206127 0.122242 0)
(0.00915068 0.128208 0)
(0.0144008 0.118844 0)
(0.01131 0.135025 0)
(0.0157986 0.14517 0)
(0.000619847 0.0475819 0)
(0.0163206 0.119793 0)
(0.00979277 0.100303 0)
(0.0164512 0.110066 0)
(0.000701282 0.0527302 0)
(0.00227375 0.0787076 0)
(0.00636219 0.111781 0)
(0.0160697 0.133447 0)
(0.0166076 0.104244 0)
(0.0059235 0.0980336 0)
(0.00243278 0.134094 0)
(0.00410543 0.112895 0)
(0.00727985 0.117048 0)
(0.000121038 0.0345194 0)
(0.00976897 0.134612 0)
(0.00465192 0.0880025 0)
(0.00121916 0.0446455 0)
(0.00111676 0.0917438 0)
(0.00102839 0.0923039 0)
(0.00915684 0.14711 0)
(0.0147828 0.107849 0)
(0.0050104 0.116288 0)
(0.0138226 0.144308 0)
(0.000486883 0.00809133 0)
(5.8001e-05 0.0191902 0)
(5.3154e-05 0.0188985 0)
(0.00600236 0.146138 0)
(0.010967 0.136288 0)
(0.00992962 0.13856 0)
(0.00410731 0.0169544 0)
(-3.81167e-07 0.000158811 0)
(0.000846715 0.133229 0)
(0.0162991 0.120963 0)
(6.29627e-05 0.017492 0)
(6.20832e-05 0.0168124 0)
(-6.67595e-08 0.000658401 0)
(4.93766e-05 0.0194806 0)
(4.47946e-05 0.0191797 0)
(0.0159555 0.138075 0)
(0.00955075 0.146728 0)
(0.00401562 0.0824369 0)
(-1.77266e-06 0.000661266 0)
(0.0108094 0.12768 0)
(0.0160819 0.13225 0)
(3.87408e-06 0.00185854 0)
(0.00377965 0.0160817 0)
(0.00213365 0.133913 0)
(0.0165466 0.101898 0)
(0.0109237 0.136922 0)
(0.0140438 0.144399 0)
(0.00862579 0.132069 0)
(0.00338049 0.0618021 0)
(0.00673219 0.145661 0)
(0.0109407 0.128143 0)
(0.00404229 0.116938 0)
(0.0134898 0.119187 0)
(0.00603519 0.0969612 0)
(0.00972621 0.146915 0)
(0.0106092 0.0307394 0)
(0.00890193 0.119569 0)
(0.00960931 0.126404 0)
(0.00382584 0.083534 0)
(-8.19509e-08 0.000310745 0)
(0.00974672 0.0865677 0)
(0.00139243 0.0862603 0)
(0.000453253 0.0491084 0)
(0.0163461 0.118373 0)
(-0.000626363 0.118048 0)
(0.000196157 0.0366648 0)
(6.60563e-05 0.0164614 0)
(0.00219347 0.0806828 0)
(7.12035e-05 0.0168408 0)
(0.0107122 0.029045 0)
(0.000593604 0.00286213 0)
(0.0112898 0.111237 0)
(0.000182599 0.0372565 0)
(0.0167048 0.099191 0)
(0.0130353 0.146574 0)
(0.00713857 0.0644169 0)
(0.00170107 0.085964 0)
(0.00687438 0.138361 0)
(3.39356e-06 0.0150844 0)
(0.0041234 0.127982 0)
(0.0163482 0.118192 0)
(5.74381e-06 0.015352 0)
(0.0161075 0.131275 0)
(0.00045055 0.0479275 0)
(0.0114145 0.143991 0)
(-8.97402e-07 0.00092272 0)
(0.00348869 0.100358 0)
(0.00378354 0.0845483 0)
(0.00291243 0.0601856 0)
(0.0129868 0.133012 0)
(0.000201428 0.00551008 0)
(0.00272951 0.130409 0)
(0.00898723 0.10799 0)
(-0.000842403 0.117957 0)
(-2.02337e-05 0.038483 0)
(0.00313544 0.133805 0)
(0.0166999 0.0994445 0)
(5.28638e-06 0.00255694 0)
(0.0119468 0.117964 0)
(0.00145772 0.08798 0)
(0.00766778 0.100915 0)
(0.00152836 0.0897735 0)
(0.00875583 0.0937002 0)
(0.000530995 0.047158 0)
(0.00024091 0.00679286 0)
(0.00899623 0.134791 0)
(0.00032235 0.0764867 0)
(0.00893632 0.118786 0)
(0.00880417 0.0924746 0)
(0.00347917 0.0162593 0)
(0.0165069 0.107995 0)
(0.0160569 0.13421 0)
(0.00124263 0.0534657 0)
(-5.65322e-05 0.0126676 0)
(0.00782856 0.100638 0)
(0.000188414 0.0929444 0)
(0.0156742 0.10744 0)
(0.0139412 0.146413 0)
(0.00523699 0.143195 0)
(-7.50465e-06 0.00140932 0)
(0.00586722 0.134263 0)
(0.0017057 0.0848265 0)
(0.0155155 0.129782 0)
(0.000105165 0.0937376 0)
(0.0151572 0.124968 0)
(0.000538205 0.00230389 0)
(0.00331988 0.10202 0)
(0.00219698 0.133283 0)
(0.00267724 0.0802087 0)
(0.00275676 0.111761 0)
(0.0142671 0.119432 0)
(9.40945e-06 0.0020935 0)
(0.0162294 0.120287 0)
(0.00186037 0.0188627 0)
(0.015406 0.0757647 0)
(-2.86442e-05 0.0145726 0)
(0.0148727 0.148199 0)
(0.00103975 0.0291236 0)
(0.00921433 0.117196 0)
(0.00412109 0.113614 0)
(-5.49054e-06 0.00104575 0)
(1.33602e-05 0.00284554 0)
(0.0137703 0.117347 0)
(0.0163042 0.110813 0)
(0.00630195 0.0864906 0)
(0.0025763 0.0798567 0)
(0.0158595 0.138054 0)
(0.0163818 0.108147 0)
(0.00849052 0.142773 0)
(4.19141e-06 0.122235 0)
(8.91367e-06 0.0149357 0)
(0.00442933 0.0824367 0)
(0.0166098 0.0992799 0)
(0.00612332 0.134378 0)
(1.16402e-05 0.0152944 0)
(0.00142507 0.0890927 0)
(0.00724509 0.07459 0)
(0.00463885 0.121681 0)
(0.00916375 0.118032 0)
(0.0114981 0.132523 0)
(0.00734319 0.131312 0)
(0.00404655 0.12753 0)
(0.015018 0.0824637 0)
(0.0157581 0.143358 0)
(0.00146583 0.0582944 0)
(0.00645075 0.0862367 0)
(0.0014004 0.0913511 0)
(0.0136597 0.133118 0)
(4.46712e-06 0.00165502 0)
(0.0158436 0.144471 0)
(0.0150712 0.0806323 0)
(-0.000132576 0.0185329 0)
(0.00648703 0.0806168 0)
(0.00666105 0.133417 0)
(-5.71802e-05 0.0130462 0)
(-0.000141672 0.112732 0)
(4.62276e-05 0.0342494 0)
(0.0102433 0.138398 0)
(0.00722164 0.138378 0)
(0.00393859 0.114379 0)
(0.00718975 0.0660707 0)
(0.0136904 0.138722 0)
(-3.62916e-05 0.0146964 0)
(0.00735463 0.145109 0)
(0.0112553 0.135758 0)
(3.63206e-05 0.033818 0)
(-4.73154e-05 0.113324 0)
(0.00345965 0.0867435 0)
(-9.08591e-05 0.0166173 0)
(0.000475352 0.0351978 0)
(0.0147205 0.14773 0)
(-9.26005e-05 0.0165086 0)
(0.00708379 0.0976557 0)
(0.000731091 0.133806 0)
(0.00429014 0.126315 0)
(0.00604957 0.0949267 0)
(0.00882786 0.144231 0)
(0.0165106 0.0946491 0)
(0.00741448 0.0946241 0)
(0.0128364 0.133757 0)
(0.00477475 0.0809336 0)
(0.00400886 0.126313 0)
(0.0149528 0.126779 0)
(0.00166844 0.0166258 0)
(0.0131789 0.0779175 0)
(0.0089871 0.0916822 0)
(0.00301134 0.0585032 0)
(0.00173371 0.0332582 0)
(0.00156816 0.0601494 0)
(0.00242709 0.143328 0)
(0.00331398 0.130217 0)
(0.00648566 0.0834856 0)
(0.00145746 0.0606962 0)
(0.00319031 0.075054 0)
(0.0111145 0.119844 0)
(0.00114623 0.115818 0)
(-1.46784e-05 0.0146109 0)
(-8.93459e-07 0.000357554 0)
(0.0155905 0.10815 0)
(0.00654041 0.132936 0)
(0.00299607 0.0617387 0)
(0.00714266 0.0965229 0)
(0.00610434 0.142184 0)
(0.000568071 0.129526 0)
(-1.19747e-05 0.00218441 0)
(0.0138898 0.126245 0)
(0.015482 0.129015 0)
(1.26775e-05 0.023704 0)
(-9.8109e-06 0.0145787 0)
(0.00570293 0.112216 0)
(0.00163757 0.0312845 0)
(-1.31723e-05 0.0149033 0)
(0.00396624 0.0834549 0)
(-8.27057e-06 0.014894 0)
(1.49963e-05 0.0231316 0)
(0.00739235 0.146053 0)
(0.00486772 0.0819883 0)
(0.00737556 0.119873 0)
(0.0166871 0.100099 0)
(0.0118007 0.117902 0)
(0.00126719 0.0461042 0)
(0.00984334 0.0402184 0)
(0.00935752 0.14423 0)
(0.00614316 0.11201 0)
(0.0163776 0.11673 0)
(-2.41473e-05 0.0146225 0)
(0.00593046 0.0356609 0)
(-3.86118e-05 0.0152166 0)
(4.01725e-05 0.0196773 0)
(0.00641574 0.099178 0)
(0.00324265 0.087308 0)
(0.00602399 0.141816 0)
(-5.87479e-05 0.0343772 0)
(0.0165239 0.103207 0)
(0.0058044 0.0360424 0)
(0.013537 0.0946987 0)
(-5.92806e-05 0.0356238 0)
(0.00458734 0.0868417 0)
(0.0089125 0.131789 0)
(0.00811026 0.142695 0)
(0.00726363 0.0732013 0)
(-0.000158185 0.130806 0)
(0.00137283 0.0479737 0)
(0.000634159 0.0127335 0)
(0.0031313 0.0737383 0)
(0.00357232 0.087066 0)
(0.00111931 0.0416574 0)
(0.000773393 0.00955427 0)
(0.0164817 0.109378 0)
(0.00456613 0.143749 0)
(0.0010709 0.0401602 0)
(0.00312869 0.134312 0)
(0.0154139 0.110881 0)
(0.0013607 0.00510945 0)
(0.0116806 0.120698 0)
(0.0159696 0.0853932 0)
(0.00936597 0.144945 0)
(0.0134649 0.0780031 0)
(0.0164157 0.107461 0)
(-0.000113661 0.0181331 0)
(-0.000111324 0.0182314 0)
(0.00334885 0.0876647 0)
(-1.00286e-05 0.00189986 0)
(-6.77887e-05 0.0362972 0)
(0.00595311 0.0960642 0)
(0.00979975 0.141445 0)
(2.25701e-05 0.00447625 0)
(0.00614424 0.0762831 0)
(0.00622723 0.0879671 0)
(0.0136576 0.0699495 0)
(0.00641792 0.114731 0)
(0.0144395 0.127943 0)
(0.0134996 0.110145 0)
(2.07566e-05 0.0402076 0)
(0.00159653 0.0864752 0)
(0.0026672 0.117973 0)
(0.00700295 0.124365 0)
(0.00637665 0.0831372 0)
(-0.00039034 0.12301 0)
(0.0119944 0.10771 0)
(0.00916372 0.107411 0)
(0.00673714 0.144677 0)
(0.0021421 0.0212555 0)
(0.00686249 0.125092 0)
(0.00931914 0.135646 0)
(0.00106174 0.0250591 0)
(0.0165999 0.104214 0)
(0.000653519 0.012791 0)
(3.60754e-05 0.0192834 0)
(0.0112519 0.120142 0)
(-2.29398e-05 0.0149315 0)
(0.000513323 0.00879906 0)
(0.0088395 0.134343 0)
(0.0166943 0.0988801 0)
(5.1274e-05 0.133669 0)
(0.00340957 0.0431457 0)
(0.0118277 0.0600508 0)
(6.04e-05 0.0420022 0)
(0.00905277 0.140863 0)
(0.00528914 0.138777 0)
(0.00623824 0.0815665 0)
(0.0063878 0.078274 0)
(0.00313452 0.0396196 0)
(0.00994304 0.124744 0)
(-0.000401826 0.0695293 0)
(0.00127356 0.0572674 0)
(4.9864e-06 0.00199893 0)
(0.00225421 0.0774765 0)
(0.00299621 0.0567513 0)
(0.000648951 0.071041 0)
(0.0105946 0.103656 0)
(1.74676e-05 0.00382782 0)
(0.0133788 0.111508 0)
(0.00098082 0.0230807 0)
(0.00338777 0.0763503 0)
(0.00904283 0.0904385 0)
(0.0147743 0.146113 0)
(0.000104414 0.0109721 0)
(0.0125208 0.0701084 0)
(0.000483881 0.0496745 0)
(0.0135127 0.0936101 0)
(0.0118783 0.123614 0)
(0.00389452 0.120928 0)
(0.00957296 0.127224 0)
(0.00360829 0.129782 0)
(0.0086421 0.089897 0)
(0.00287964 0.117473 0)
(0.0164194 0.11118 0)
(0.00804178 0.146133 0)
(0.0166911 0.0998759 0)
(0.00107014 0.0500595 0)
(0.00295922 0.0722947 0)
(5.63109e-06 0.0404904 0)
(0.00710508 0.0525513 0)
(0.0150023 0.138696 0)
(8.72334e-08 0.0154741 0)
(-0.000652644 0.0942994 0)
(0.00996252 0.0994307 0)
(0.0161445 0.120755 0)
(0.00395352 0.128661 0)
(0.0138092 0.0548097 0)
(0.011889 0.148188 0)
(0.00102737 0.0399944 0)
(0.0156379 0.0878804 0)
(8.14701e-05 0.0047246 0)
(0.000237859 0.0486322 0)
(0.0161607 0.121025 0)
(-1.94989e-05 0.0146385 0)
(0.0157109 0.116112 0)
(-7.176e-07 0.000308 0)
(0.000983818 0.0038266 0)
(0.00301596 0.0736155 0)
(0.0144652 0.126947 0)
(0.000595394 0.0707553 0)
(7.65244e-05 0.0148822 0)
(0.0147841 0.117096 0)
(0.0115348 0.120513 0)
(-0.000686558 0.0840579 0)
(0.0149295 0.135239 0)
(0.0165603 0.105141 0)
(0.0089351 0.145083 0)
(0.000102327 0.0104384 0)
(0.0162334 0.124688 0)
(-1.66665e-06 0.000735757 0)
(0.00361325 0.143338 0)
(-0.000535948 0.0792368 0)
(0.00020893 0.049086 0)
(-6.09398e-05 0.0138723 0)
(-1.27125e-06 0.000726146 0)
(0.0119555 0.106999 0)
(0.0136696 0.0533602 0)
(-1.81498e-05 0.0149445 0)
(8.54207e-05 0.00463829 0)
(0.000592208 0.00353137 0)
(0.0148696 0.134701 0)
(0.00404267 0.048047 0)
(0.0147832 0.100694 0)
(0.00602038 0.0753317 0)
(7.12246e-05 0.0141612 0)
(1.28158e-06 0.00172375 0)
(0.00819967 0.137392 0)
(0.0112886 0.142693 0)
(0.0123835 0.148086 0)
(0.0134547 0.118194 0)
(0.0107455 0.102635 0)
(0.0122742 0.139598 0)
(0.0161013 0.131122 0)
(0.000471599 0.036191 0)
(0.00912121 0.142066 0)
(0.000589409 0.00338011 0)
(0.0161297 0.090612 0)
(0.00700907 0.0536282 0)
(0.013853 0.138039 0)
(0.00288869 0.0552291 0)
(0.000666904 0.0721569 0)
(0.01032 0.0416958 0)
(-0.000648826 0.0833241 0)
(0.0116012 0.110151 0)
(0.0143661 0.142097 0)
(2.69694e-05 0.004149 0)
(0.0113437 0.109882 0)
(0.000940759 0.0567681 0)
(-8.97664e-07 0.000504224 0)
(0.0156617 0.144021 0)
(0.0027928 0.129075 0)
(0.000839081 0.0576438 0)
(0.0114404 0.133395 0)
(0.00379657 0.0172916 0)
(0.000222181 0.0460357 0)
(-1.05337e-06 0.000526844 0)
(0.0156124 0.143521 0)
(0.0040741 0.0471132 0)
(0.00136381 0.0872988 0)
(-1.76672e-06 0.0151387 0)
(0.00086581 0.0569555 0)
(0.0135096 0.133329 0)
(-1.31841e-06 0.000697116 0)
(0.0120995 0.131566 0)
(3.28192e-05 0.00295601 0)
(0.00108733 0.0285949 0)
(0.00345089 0.143726 0)
(0.0148155 0.101501 0)
(0.00616104 0.0804655 0)
(0.0166804 0.100416 0)
(0.0157273 0.114973 0)
(0.00126632 0.113784 0)
(0.00903573 0.13587 0)
(0.000980339 0.0385042 0)
(0.00316636 0.103548 0)
(0.0148224 0.146528 0)
(0.0162317 0.104503 0)
(0.00587758 0.111311 0)
(0.00663258 0.0998486 0)
(0.00062975 0.0728409 0)
(4.02602e-05 0.00349476 0)
(0.00184832 0.0614459 0)
(-7.43502e-06 0.00136577 0)
(0.0116489 0.125521 0)
(0.00920624 0.0993144 0)
(0.00613152 0.144906 0)
(0.011719 0.110345 0)
(0.000801861 0.115385 0)
(0.00533526 0.139215 0)
(0.00035397 0.0772427 0)
(0.0098351 0.114954 0)
(0.01157 0.134509 0)
(0.0160855 0.132347 0)
(0.000562952 0.0477056 0)
(0.000609742 0.0786975 0)
(-5.52994e-06 0.00100387 0)
(0.00111907 0.0285525 0)
(4.2393e-05 0.00461423 0)
(7.33665e-07 0.00165579 0)
(4.25556e-05 0.0422767 0)
(0.000575916 0.00854632 0)
(0.0162158 0.125567 0)
(0.0149653 0.0745878 0)
(0.000245619 0.0096413 0)
(0.0142418 0.118317 0)
(3.07904e-05 0.00454998 0)
(0.0138778 0.14605 0)
(0.000421851 0.0473673 0)
(0.00136735 0.0565964 0)
(0.0166911 0.0992455 0)
(0.012088 0.121623 0)
(-0.000226364 0.0307926 0)
(0.0105793 0.0493468 0)
(-4.52607e-05 0.0130482 0)
(0.00110578 0.0538098 0)
(0.0114611 0.0555077 0)
(0.0123736 0.0934043 0)
(0.00263398 0.0599171 0)
(0.016491 0.110787 0)
(0.0088437 0.111109 0)
(-0.000462954 0.072662 0)
(-0.000215517 0.0303192 0)
(0.00059292 0.0779685 0)
(0.0165858 0.103856 0)
(0.0117227 0.0618441 0)
(0.000125191 0.00573169 0)
(0.000914666 0.0574544 0)
(0.0163279 0.119197 0)
(0.000357232 0.134002 0)
(0.00971447 0.101653 0)
(0.0164022 0.115512 0)
(-0.000625299 0.0919965 0)
(0.00111265 0.0308263 0)
(0.00127522 0.0548664 0)
(0.00622097 0.0995258 0)
(0.0163446 0.109918 0)
(-0.000199205 0.0311225 0)
(0.0114091 0.111458 0)
(0.0113275 0.0556486 0)
(0.0124158 0.0718744 0)
(0.0161969 0.0897491 0)
(0.00180755 0.0843083 0)
(0.0117265 0.131917 0)
(0.0148785 0.0767684 0)
(0.00599088 0.0871184 0)
(0.00949983 0.0797345 0)
(0.00012963 0.00577274 0)
(0.0122745 0.0934374 0)
(0.00150162 0.085823 0)
(0.0165249 0.0951035 0)
(0.0073769 0.102531 0)
(8.5455e-05 0.0464214 0)
(0.0164508 0.112965 0)
(-1.12366e-05 0.00251027 0)
(-0.000592546 0.0927993 0)
(0.0067724 0.0985963 0)
(0.00343393 0.109424 0)
(0.0105701 0.0965401 0)
(0.0161907 0.104856 0)
(2.798e-05 0.00332491 0)
(0.015663 0.085138 0)
(0.0115088 0.142317 0)
(-9.08175e-06 0.00134109 0)
(0.00741432 0.0519517 0)
(0.0075498 0.102247 0)
(0.000418737 0.00632172 0)
(0.00618828 0.0458139 0)
(0.0103832 0.0375323 0)
(0.00189029 0.0986598 0)
(-6.607e-05 0.0350604 0)
(0.00827271 0.136874 0)
(0.0118955 0.13222 0)
(0.000895336 0.0368741 0)
(0.0164961 0.0973817 0)
(0.0141745 0.0596555 0)
(0.0135786 0.0719227 0)
(0.0116274 0.133691 0)
(0.00437148 0.0835954 0)
(0.0155553 0.0894149 0)
(0.002146 0.130571 0)
(8.43557e-05 0.0125 0)
(0.0122478 0.120816 0)
(0.00857369 0.130233 0)
(0.014747 0.0779828 0)
(0.00170676 0.0545435 0)
(0.00121826 0.0432954 0)
(0.00178733 0.0608416 0)
(0.0160927 0.132202 0)
(0.00941105 0.0770576 0)
(0.000367719 0.0474083 0)
(0.0152758 0.0771526 0)
(0.0027119 0.0614268 0)
(0.00130523 0.048858 0)
(0.0103233 0.133073 0)
(0.00244244 0.130154 0)
(0.00140482 0.0985886 0)
(0.000414576 0.130113 0)
(0.00483273 0.120964 0)
(0.0166689 0.0967026 0)
(0.0105103 0.0358195 0)
(0.00211166 0.0897212 0)
(0.0131414 0.138256 0)
(0.000186639 0.0484888 0)
(0.00010847 0.0619464 0)
(1.39413e-05 0.00279686 0)
(4.70065e-05 0.00476541 0)
(0.0101867 0.0532684 0)
(0.00707104 0.104033 0)
(0.00384274 0.121642 0)
(0.00165412 0.0537372 0)
(-6.60523e-05 0.0123286 0)
(0.00200519 0.0741797 0)
(-0.000502804 0.0799644 0)
(0.00691934 0.0985663 0)
(0.0135671 0.0760206 0)
(-2.74926e-05 0.0148833 0)
(0.0133832 0.120479 0)
(0.00349044 0.101311 0)
(0.0101308 0.143742 0)
(0.00134553 0.0994098 0)
(1.06668e-05 0.00206698 0)
(0.0142806 0.146427 0)
(0.00932987 0.0817647 0)
(0.016323 0.119633 0)
(0.0137636 0.0489778 0)
(0.000951483 0.100842 0)
(0.00201025 0.0843102 0)
(0.000915127 0.0466802 0)
(0.00730638 0.0502289 0)
(0.0160529 0.126785 0)
(0.0120035 0.0951557 0)
(0.00116334 0.114515 0)
(0.000324995 0.129117 0)
(0.00603874 0.0443545 0)
(0.0146722 0.0799436 0)
(-1.27539e-06 0.000479681 0)
(0.000254929 0.058533 0)
(-0.000387195 0.0671195 0)
(-1.81235e-06 0.000664402 0)
(0.00738432 0.145758 0)
(0.0127785 0.0678475 0)
(0.000908073 0.101577 0)
(0.0135955 0.125217 0)
(0.000201947 0.0897387 0)
(0.000141858 0.0216222 0)
(7.1415e-05 0.00578523 0)
(0.00712801 0.132022 0)
(0.000940162 0.0383744 0)
(0.00584008 0.0773637 0)
(0.00766339 0.09272 0)
(0.00279464 0.0707895 0)
(0.0152027 0.079224 0)
(0.000135457 0.0207393 0)
(0.00241997 0.123609 0)
(0.00583025 0.0874445 0)
(0.0159313 0.140665 0)
(0.0163656 0.117362 0)
(0.000285135 0.0944308 0)
(0.0165857 0.100654 0)
(5.20432e-05 0.131211 0)
(0.0159206 0.141443 0)
(0.000129736 0.0921704 0)
(0.000859894 0.0278329 0)
(0.000202785 0.044555 0)
(0.0086078 0.0542036 0)
(0.0085056 0.0854635 0)
(0.00322956 0.0415631 0)
(0.0121302 0.0950833 0)
(0.0042737 0.0566657 0)
(0.00121024 0.116383 0)
(0.00594651 0.0783814 0)
(0.0153394 0.128972 0)
(0.00941078 0.0753918 0)
(0.0149235 0.0675404 0)
(0.006837 0.130495 0)
(0.000953786 0.0503976 0)
(0.00703098 0.119684 0)
(0.00922288 0.0827456 0)
(0.00028038 0.0508917 0)
(0.0113436 0.0930996 0)
(-3.72125e-05 0.0143719 0)
(0.0166951 0.0982943 0)
(0.0116167 0.126548 0)
(-5.9884e-05 0.0111266 0)
(0.00118571 0.0531351 0)
(0.00793848 0.0170953 0)
(0.00277406 0.079208 0)
(0.0020268 0.0754206 0)
(0.00731789 0.144769 0)
(0.000951579 0.0294125 0)
(0.00306629 0.129291 0)
(0.00286582 0.0535544 0)
(-0.000121842 0.0184988 0)
(0.00321355 0.0988096 0)
(0.00362741 0.0604522 0)
(0.0156911 0.0858536 0)
(0.000208958 0.0622057 0)
(0.00101383 0.030983 0)
(-0.000213305 0.0297169 0)
(0.00958855 0.141908 0)
(0.00542484 0.0994475 0)
(0.0136562 0.1187 0)
(0.000828982 0.0378731 0)
(0.00339547 0.128793 0)
(-4.4571e-05 0.0140498 0)
(0.00212564 0.0758405 0)
(0.0157961 0.143689 0)
(5.79879e-05 0.00476991 0)
(0.0107046 0.0694072 0)
(0.0141057 0.118806 0)
(0.0158571 0.142753 0)
(-4.77038e-05 0.014206 0)
(-5.46078e-05 0.0913984 0)
(0.0131331 0.139021 0)
(5.49677e-05 0.0356336 0)
(0.00267288 0.0867139 0)
(0.00284942 0.0721444 0)
(0.0153741 0.129707 0)
(0.00739658 0.0192186 0)
(0.0148166 0.118 0)
(0.00870292 0.0635825 0)
(0.0166203 0.10307 0)
(0.00333797 0.100151 0)
(0.00396112 0.138995 0)
(0.00152331 0.0611153 0)
(-2.21889e-05 0.0103544 0)
(-9.68974e-05 0.0167691 0)
(0.000570335 0.00720739 0)
(-9.55407e-06 0.00216985 0)
(0.0164136 0.110801 0)
(0.00675691 0.0935129 0)
(0.00171289 0.036533 0)
(-0.000121518 0.0944839 0)
(4.39594e-05 0.0351269 0)
(0.000182219 0.0440686 0)
(0.0118368 0.124788 0)
(0.00730801 0.0939619 0)
(0.0149178 0.139541 0)
(0.00751002 0.118952 0)
(0.0158233 0.0887276 0)
(0.00885225 0.135498 0)
(0.0122653 0.0723667 0)
(0.0165042 0.109041 0)
(0.00582567 0.0897783 0)
(0.0120531 0.122831 0)
(0.00656487 0.0349445 0)
(0.0165504 0.107441 0)
(-0.0001191 0.0185669 0)
(0.011008 0.0470722 0)
(-4.42095e-05 0.0143895 0)
(0.00031309 0.0493576 0)
(0.00636705 0.0815901 0)
(-4.10718e-05 0.0142257 0)
(7.84912e-05 0.027896 0)
(0.000235719 0.0386031 0)
(0.0072875 0.0472114 0)
(0.0102756 0.105665 0)
(7.75028e-05 0.0117163 0)
(0.00683844 0.0922317 0)
(0.0143765 0.110654 0)
(0.00854536 0.14562 0)
(0.0103218 0.144065 0)
(0.0140755 0.117661 0)
(0.00287213 0.0796736 0)
(-9.98707e-05 0.0171696 0)
(0.00395901 0.0519898 0)
(0.0133417 0.137603 0)
(-0.000418435 0.0687084 0)
(0.0166629 0.101365 0)
(2.0809e-05 0.01808 0)
(0.000917069 0.0293495 0)
(0.00151503 0.0110153 0)
(0.0049118 0.0769527 0)
(2.14035e-05 0.0175684 0)
(-3.75468e-05 0.0155489 0)
(0.00485485 0.0495164 0)
(0.00978201 0.11595 0)
(0.00176337 0.0365809 0)
(0.0134379 0.147954 0)
(-3.49593e-05 0.0937308 0)
(0.00188792 0.0458713 0)
(0.0160248 0.1269 0)
(0.00679073 0.0354534 0)
(0.0016319 0.0607309 0)
(0.000197676 0.0597406 0)
(0.0154905 0.143979 0)
(0.00657255 0.125415 0)
(-9.42483e-08 0.00166616 0)
(-0.000228866 0.0314066 0)
(0.000787299 0.0522544 0)
(0.00142879 0.0593308 0)
(0.0164661 0.0997505 0)
(0.00020043 0.0455271 0)
(0.00121955 0.129637 0)
(0.0108429 0.0698174 0)
(0.000741592 0.10191 0)
(0.00132537 0.0463986 0)
(0.000163659 0.0357616 0)
(0.00644898 0.112322 0)
(0.000319809 0.08965 0)
(0.00871364 0.0886659 0)
(0.0160962 0.130964 0)
(0.000239337 0.0649715 0)
(0.000276799 0.00604908 0)
(0.00257548 0.0873942 0)
(0.00812081 0.0203955 0)
(0.00116578 0.0417959 0)
(0.0153173 0.10511 0)
(0.0151554 0.0697888 0)
(0.00911029 0.0989261 0)
(0.0163293 0.118957 0)
(0.0133082 0.147786 0)
(0.000375706 0.0887804 0)
(0.0153616 0.105799 0)
(0.000213987 0.0371561 0)
(0.0164955 0.110327 0)
(0.000146838 0.0344119 0)
(0.004955 0.142463 0)
(0.00987283 0.12566 0)
(0.0133131 0.0770803 0)
(0.00856636 0.0874496 0)
(0.00335372 0.139664 0)
(-0.000296541 0.133904 0)
(0.0164722 0.102682 0)
(-5.27336e-05 0.0133019 0)
(-0.000611985 0.0811346 0)
(-4.04578e-05 0.014559 0)
(0.00436044 0.0563234 0)
(0.0151948 0.0708411 0)
(0.00575035 0.0864183 0)
(0.00855201 0.0632409 0)
(0.00450652 0.134698 0)
(0.0159792 0.137957 0)
(0.000149345 0.035407 0)
(0.0147221 0.0592723 0)
(0.0161247 0.130102 0)
(-8.12905e-07 0.000346012 0)
(1.77948e-05 0.0155618 0)
(-0.000745341 0.0949933 0)
(0.0131249 0.145503 0)
(0.00855493 0.0839524 0)
(-1.40152e-06 0.000611002 0)
(0.0122744 0.0875813 0)
(0.00953631 0.0424391 0)
(0.00133487 0.0576355 0)
(0.00179241 0.0982261 0)
(0.00492907 0.103139 0)
(0.00851524 0.0525116 0)
(-0.00058219 0.0732388 0)
(-5.31571e-05 0.0136911 0)
(-0.000116748 0.032386 0)
(-0.000374042 0.0679601 0)
(0.000258158 0.0641925 0)
(0.0164713 0.111744 0)
(0.0107363 0.0492547 0)
(0.00926489 0.0750204 0)
(-7.6364e-05 0.0160932 0)
(0.01576 0.144811 0)
(-8.59616e-05 0.0161847 0)
(-6.03836e-05 0.0134891 0)
(0.00572896 0.113065 0)
(0.0120961 0.0381927 0)
(0.0108114 0.0713832 0)
(-4.78594e-05 0.0138667 0)
(0.00966832 0.1438 0)
(6.34453e-05 0.0466881 0)
(0.00238728 0.0803164 0)
(0.0137461 0.107156 0)
(0.00310599 0.0598359 0)
(-7.28301e-06 0.00109405 0)
(0.0131112 0.121131 0)
(0.0153914 0.10993 0)
(0.0157422 0.082812 0)
(0.00938383 0.139326 0)
(-0.000200574 0.0317218 0)
(0.00646799 0.141433 0)
(0.0160812 0.128507 0)
(0.000141012 0.00327294 0)
(0.00973433 0.139198 0)
(1.76612e-05 0.0160874 0)
(0.00978117 0.124443 0)
(0.0105547 0.128307 0)
(-0.000442259 0.067012 0)
(0.0113132 0.087193 0)
(0.000261384 0.0491994 0)
(0.0101859 0.0969581 0)
(0.000904147 0.115932 0)
(0.00622898 0.0946602 0)
(0.00839602 0.144576 0)
(0.0108893 0.110724 0)
(0.00868048 0.13077 0)
(0.00623638 0.14318 0)
(4.9984e-05 0.00524701 0)
(0.0159925 0.0937722 0)
(0.00734638 0.0958384 0)
(0.00501247 0.0780686 0)
(0.000472588 0.0691661 0)
(-0.000108725 0.0317966 0)
(-2.66888e-05 0.0114604 0)
(0.000744175 0.0336973 0)
(0.00867356 0.0876768 0)
(0.0164882 0.102963 0)
(0.00172836 0.0386626 0)
(0.00657849 0.0939371 0)
(0.0137965 0.0506388 0)
(0.00598644 0.0895433 0)
(0.00684261 0.0688135 0)
(0.00723646 0.13081 0)
(0.015852 0.0857546 0)
(0.00248635 0.0807239 0)
(0.0011015 0.0514355 0)
(0.00266305 0.123198 0)
(-7.4995e-05 0.016236 0)
(0.00307046 0.109721 0)
(0.016505 0.10875 0)
(0.0101501 0.058423 0)
(0.00725673 0.026171 0)
(0.000156114 0.133107 0)
(0.000394942 0.0479942 0)
(0.00649197 0.0951685 0)
(0.0160437 0.129309 0)
(0.0164935 0.110515 0)
(0.0020029 0.0957469 0)
(0.00939683 0.124721 0)
(0.00562547 0.10549 0)
(0.0164159 0.114846 0)
(0.00283448 0.128422 0)
(0.00658263 0.113883 0)
(0.0146247 0.137227 0)
(0.00124538 0.0559064 0)
(0.0111476 0.127784 0)
(0.0089611 0.145433 0)
(0.0149045 0.125948 0)
(-0.000559638 0.0708461 0)
(-9.75827e-05 0.111424 0)
(1.1642e-05 0.0224682 0)
(0.00331318 0.0751296 0)
(0.000460824 0.00319796 0)
(0.00692473 0.0700286 0)
(0.00335108 0.0775606 0)
(0.0164828 0.0969441 0)
(5.46654e-05 0.00470547 0)
(0.011244 0.116286 0)
(0.000286418 0.0220348 0)
(0.0157157 0.0818418 0)
(0.00956447 0.144574 0)
(0.00712559 0.0945643 0)
(0.00862695 0.140955 0)
(1.11394e-05 0.130259 0)
(0.00742647 0.0294313 0)
(0.0159087 0.087653 0)
(0.0046317 0.103483 0)
(0.00729083 0.0919345 0)
(0.00613749 0.048281 0)
(0.016574 0.106091 0)
(0.0132944 0.118493 0)
(0.0159823 0.137532 0)
(0.00799124 0.107288 0)
(0.00472061 0.145282 0)
(0.00828781 0.130526 0)
(-4.51419e-05 0.0133873 0)
(0.000327398 0.0951427 0)
(0.0112061 0.109769 0)
(-5.83925e-05 0.0138196 0)
(0.00364282 0.0618967 0)
(0.00704438 0.136838 0)
(0.00623179 0.0476178 0)
(0.00725007 0.10378 0)
(0.00538689 0.115588 0)
(0.00498277 0.102325 0)
(0.012251 0.0376193 0)
(0.0137731 0.108152 0)
(0.00396821 0.138525 0)
(0.00366786 0.0466538 0)
(0.00722432 0.135753 0)
(0.00071776 0.102618 0)
(0.00568996 0.0778079 0)
(0.00371984 0.0509856 0)
(-2.06884e-05 0.0371495 0)
(0.0165757 0.098376 0)
(0.0122874 0.13893 0)
(0.000777735 0.043405 0)
(0.0148964 0.0661023 0)
(-5.80664e-05 0.0123414 0)
(0.000140143 0.0905714 0)
(0.0166808 0.100409 0)
(0.00847349 0.0614418 0)
(0.000815059 0.017569 0)
(6.44471e-06 0.0223735 0)
(0.00815324 0.0187531 0)
(0.000246597 0.00329306 0)
(0.00616736 0.0986689 0)
(0.0165454 0.0999507 0)
(0.00214911 0.0770695 0)
(0.0122218 0.0780924 0)
(-0.000112131 0.0312429 0)
(-5.89729e-05 0.0127246 0)
(0.0139376 0.118038 0)
(0.012891 0.145253 0)
(0.00482562 0.144972 0)
(0.0108564 0.0471794 0)
(0.000331053 0.00937375 0)
(0.00091523 0.0197677 0)
(0.00673953 0.0914005 0)
(0.0159388 0.0843774 0)
(0.0166923 0.0980917 0)
(-6.12826e-05 0.0115211 0)
(0.00691495 0.131019 0)
(0.00608637 0.111187 0)
(0.0138495 0.104404 0)
(0.0135172 0.0542997 0)
(-5.89105e-05 0.0119424 0)
(0.00701451 0.103154 0)
(0.014656 0.117705 0)
(0.000703282 0.0486245 0)