/*--------------------------------*- C++ -*----------------------------------*\
| =========                 |                                                 |
| \\      /  F ield         | OpenFOAM: The Open Source CFD Toolbox           |
|  \\    /   O peration     | Version:  v2012                                 |
|   \\  /    A nd           | Website:  www.openfoam.com                      |
|    \\/     M anipulation  |                                                 |
\*---------------------------------------------------------------------------*/
FoamFile
{
    version     2.0;
    format      ascii;
    class       volScalarField;
    location    "850";
    object      k;
}
// * * * * * * * * * * * * * * * * * * * * * * * * * * * * * * * * * * * * * //

dimensions      [0 2 -2 0 0 0 0];


internalField   nonuniform List<scalar> 
13917
(
0.00679072
0.000254388
0.000456578
0.000150608
0.000206344
0.000249249
0.000164638
0.0102171
0.000161124
0.00629789
0.00592734
0.000147763
0.000166431
0.0154463
0.000172053
0.00672885
0.000152882
0.000753169
0.000295507
0.00574936
0.000175014
0.000152683
0.000197681
0.000152756
0.000153549
0.000177865
0.0111732
0.00345514
0.000203768
0.000139217
0.00626001
0.000227485
0.000150187
0.00700219
0.000146001
0.0123173
0.000154149
0.000166642
0.000164741
0.000188467
0.000154777
0.000162494
0.00015708
0.000294761
0.00029271
0.000378566
0.000172256
0.0445141
0.00399664
0.000146052
0.000147536
0.000280408
0.0069856
0.000147845
0.000148059
0.000277175
0.00291982
0.00019769
0.000160592
0.000392184
0.0027595
0.000189667
0.000146369
0.000153045
0.000733021
0.000638106
0.00023807
0.0123676
0.000612851
0.00927605
0.000608417
0.00802535
0.000148321
0.000153877
0.000177372
0.000154273
0.000175249
0.000152799
0.000153806
0.000150497
0.000152805
0.000154309
0.000148249
0.000744122
0.000141894
0.00117562
0.000223435
0.000145162
0.000186982
0.000151373
0.000139843
0.000157474
0.00766164
0.00014448
0.000150276
0.000218705
0.0164095
0.000152956
0.000144429
0.0188707
0.000153067
0.000151236
0.000152811
0.000144486
0.000175242
0.00918175
0.00474025
0.000114537
0.000170667
0.0104712
0.000145331
0.00620366
0.000192979
0.0436075
0.000732087
0.000155263
0.000284774
0.000141103
0.000409413
0.000147521
0.000152103
0.000147756
0.000266703
0.000255178
0.0137886
0.000795238
0.000152613
0.000180167
0.000143919
0.000256908
0.000176807
0.000629175
0.0163909
0.000155043
0.000245908
0.00888079
0.00190259
0.0191981
0.000179763
0.000166184
0.000902752
0.000149526
0.00974198
0.000144771
0.000147556
0.000244527
0.000618116
0.00610031
0.0424572
0.000148071
0.000180689
0.000149395
0.000147302
0.000147605
0.0150548
0.000160642
0.00014412
0.0224589
0.000149098
0.000143428
0.000142334
0.000783134
0.000158891
0.00395104
0.00328052
0.0224676
0.00651809
0.0266616
0.000130673
0.000181172
0.000154322
0.00719057
0.000160908
0.00140118
0.000230257
0.000150358
0.000150648
0.000294399
0.000175298
0.000160353
0.000156783
0.000153352
0.000147512
0.000335786
0.000408789
0.000778266
0.000147314
0.000335711
0.000139161
0.000767333
0.000233033
0.000277131
0.000303834
0.0064658
0.000144378
0.0131799
0.000160991
0.0156055
0.000145803
0.000158217
0.000168117
0.00880109
0.0168036
0.000153677
0.0177216
0.000184809
0.000182039
0.000149582
0.00028781
0.000153154
0.000140613
0.000242992
0.00025128
0.0445884
0.000241164
0.000179562
0.00119691
0.000155479
0.000137195
0.000136992
0.0344202
0.000317255
0.000353908
0.000143367
0.000148099
0.00829632
0.0120972
0.000136442
0.000136229
0.00015406
0.00013733
0.000137175
0.00804188
0.0183534
0.000152638
0.00013086
0.000231676
0.00990584
0.000149053
0.000143329
0.0150599
0.0141138
0.000324955
0.00124994
0.000271774
0.000144801
0.0117158
0.000236639
0.0001884
0.000238045
0.000153202
0.0251947
0.000147693
0.00019329
0.000222336
0.000153845
0.000154689
0.000153036
0.000206467
0.00014946
0.0153406
0.0124371
0.000147594
0.000136226
0.000161957
0.000136277
0.000147732
0.000166817
0.000185147
0.000149153
0.0235766
0.00424072
0.000145659
0.000185643
0.00045234
0.000136552
0.0060709
0.0154976
0.000136577
0.0100527
0.000148945
0.000770521
0.000152146
0.000168147
0.000154487
0.000144654
0.000328347
0.000156449
0.0200816
0.000166541
0.0116288
0.000233218
0.0192293
0.0201361
0.000143698
0.000205628
0.000206836
0.000155775
0.000204057
0.000153773
0.000145637
0.000152449
0.000297823
0.0105798
0.000191633
0.000153319
0.000143165
0.0201405
0.00787725
0.000142863
0.000264706
0.000155952
0.000335153
0.000337684
0.00402332
0.0011494
0.00157954
0.000529934
0.000182156
0.000687291
0.000333768
0.000456717
0.000165675
0.000172055
0.0131949
0.000157292
0.000298607
0.000275859
0.000151494
0.00646448
0.000142198
0.000189138
0.000142633
0.00545977
0.000139407
0.00018749
0.000184484
0.00165677
0.000149114
0.000238999
0.00328514
0.00014969
0.000157278
0.00494198
0.00533801
0.000610427
0.0160418
0.000136112
0.000151495
0.0190193
0.000476374
0.000136171
0.000209038
0.00014732
0.000232293
0.000189266
0.000275869
0.000302796
0.00490624
0.000189543
0.00682485
0.000144381
0.000149561
0.000217852
0.000369796
0.00015075
0.00651636
0.000188834
0.00480314
0.000148385
0.000391261
0.000207313
0.0129825
0.000167094
0.000351448
0.000424231
0.000189064
0.000145897
0.000497225
0.000146815
0.00299659
0.000312802
0.000167
0.00994806
0.000157674
0.00370778
0.000140428
0.00567146
0.00545445
0.000153132
0.00928774
0.00157961
0.00015243
0.000909956
0.000495137
0.000152121
0.000329005
0.000150124
0.0020976
0.000445428
0.000142363
0.000163227
0.000153317
0.000144159
0.000140781
0.000145177
0.00276539
0.0220354
0.000148926
0.000145584
0.000150967
0.000203877
0.00525846
0.000138781
0.000130786
0.000335276
0.000381816
0.00014512
0.000152733
0.000717143
0.0153782
0.00132557
0.000305967
0.000621168
0.000142454
0.000137844
0.000169325
0.00014065
0.000138829
0.00015319
0.000137906
0.00014152
0.0204329
0.000150366
0.000194142
0.024693
0.000205183
0.000140864
0.000147029
0.000962543
0.000168183
0.0129799
0.000141334
0.000143433
0.000147642
0.000137472
0.000153797
0.000159498
0.000702874
0.00164235
0.0135122
0.000143376
0.000182159
0.00258137
0.000153008
0.000262354
0.000603628
0.000147115
0.0187522
0.000141313
0.00014408
0.000150477
0.000157465
0.000140069
0.000149619
0.0187791
0.00189604
0.000139857
0.0186474
0.000329847
0.000148534
0.000211316
0.000231643
0.00180394
0.000165137
0.00778229
0.00528419
0.004896
0.000159191
0.000692033
0.00386282
0.000152898
0.000467864
0.000141251
0.000147527
0.000150066
0.000162251
0.000174711
0.000378054
0.000208688
0.000241946
0.000190613
0.000310092
0.000223346
0.000148925
0.0150183
0.00018419
0.000166655
0.00239473
0.000141934
0.000229982
0.00031034
0.000139758
0.0277487
0.00014497
0.000137415
0.000205772
0.000141285
0.000153235
0.0002936
0.0350166
0.00811556
0.000142222
0.000151738
0.000199527
0.000443254
0.000663391
0.000148674
0.000147884
0.000142003
0.000215017
0.0104548
0.000144255
0.000149212
0.000157196
0.000143701
0.000184849
0.00016817
0.000143337
0.00020931
0.000139769
0.000151201
0.000152909
0.00436536
0.00013694
0.000156259
0.000149313
0.000180159
0.000222642
0.000229532
0.000225712
0.0199868
0.000151905
0.000301596
0.0129665
0.0179993
0.0271159
0.000142047
0.000150041
0.00029047
0.000144518
0.000784047
0.000137117
0.00318634
0.000161025
0.00308817
0.0104912
0.000157079
0.0322856
0.000139774
0.000218523
0.000151456
0.000168044
0.00358559
0.000139806
0.000463906
0.000150128
0.000155599
0.000150571
0.000373431
0.000190266
0.000135897
0.000298856
0.000209237
0.0114447
0.00058549
0.0240632
0.00220112
0.000136998
0.0110063
0.000140521
0.00202088
0.00855242
0.000183272
0.000191942
0.000152309
0.000183274
0.000156037
0.000139877
0.000151331
0.000164204
0.000567022
0.000142626
0.000217687
0.000147301
0.000135739
0.000148354
0.000358598
0.000560791
0.0233165
0.000230706
0.000167828
0.000428254
0.00996866
0.000140977
0.000524389
0.000162607
0.000275337
0.000144478
0.000496222
0.000143421
0.000170508
0.00014784
0.0101483
0.000185599
0.000771451
0.000144329
0.000182901
0.000145469
0.00015394
0.00626647
0.0236886
0.000146987
0.000286042
0.000143172
0.00016425
0.000151698
0.0053752
0.000142638
0.000209799
0.000137141
0.00014623
0.000367565
0.000150495
0.000280168
0.000155113
0.000139559
0.00263627
0.000220422
0.000148409
0.00975254
0.000458342
0.0071031
0.000313672
0.000139578
0.000176593
0.0052097
0.000488396
0.000166988
0.0001541
0.000102366
0.000152683
0.000145547
0.00214899
0.00022833
0.000158241
0.00438135
0.000186584
0.0026424
0.000683436
0.0106395
0.000184055
0.000300392
0.00993567
0.000145555
0.00277048
0.00271566
0.000139663
0.000145751
0.000148698
0.000209341
0.000152387
0.0109864
0.000179694
0.000142136
0.00026347
0.000143443
0.00336279
0.000149028
0.000143807
0.0345863
0.000218473
0.00435028
0.000148661
0.000157755
0.000143246
0.000150385
0.000168426
0.000144721
0.0153979
0.000171466
0.00941795
0.00524955
0.00250775
0.0256962
0.000151753
0.000149082
0.000146013
0.0145612
0.0102017
0.000161954
0.0140557
0.00123997
0.000139538
0.000143275
0.000154006
0.00439213
0.00677063
0.000186177
0.0001502
0.00015624
0.000276567
0.000176371
0.000275982
0.000180154
0.000150104
0.000150555
0.000149932
0.000168096
0.000195179
0.000875652
0.000156563
0.000211943
0.0147881
0.000170989
0.00133493
0.000153499
0.0001899
0.000161054
0.000468356
0.000151708
0.000212575
0.000542397
0.00778585
0.000144802
0.000156678
0.000159238
0.000143541
0.000147685
0.000206372
0.00251213
0.000355144
0.000279767
0.000139325
0.00121001
0.000160975
0.000162379
0.000291759
0.000152097
0.000218892
0.0158391
0.000135935
0.000218487
0.00025098
0.000179756
0.000142922
0.000140399
0.000145379
0.00854438
0.00014993
0.000151766
0.000188619
0.000145168
0.000141472
0.000272024
0.0186395
0.000233808
0.016502
0.000211982
0.0240945
0.000147719
0.000178549
0.000433881
0.000182611
0.00298111
0.000149546
0.000145313
0.000148411
0.000157488
0.000251016
0.000142843
0.00617525
0.00015506
0.00719011
0.000153531
0.000164961
0.000142643
0.000238231
0.000168092
0.000719604
0.000238115
0.000154305
0.00414813
0.000150748
0.01454
0.000155369
0.000285177
0.000171194
0.000141417
0.000144605
0.00317563
0.000167795
0.00475501
0.0151592
0.000143442
0.000180406
0.000130749
0.000182509
0.0107516
0.00013102
0.0126832
0.000156546
0.000296641
0.000278943
0.000309678
0.000137948
0.000145409
0.000320914
0.000139507
0.000147866
0.000151585
0.000149468
0.000189136
0.00013775
0.00163957
0.00015038
0.0071364
0.0154437
0.000307624
0.0181896
0.0162344
0.0068433
0.000398091
0.000138923
0.000162786
0.000146331
0.000150339
0.000142097
0.000168233
0.000143513
0.00678445
0.000148089
0.000568334
0.000149632
0.000172552
0.000311693
0.000142517
0.000193525
0.000150718
0.000171477
0.000162347
0.000146777
0.0347128
0.000234566
0.00558635
0.000142819
0.000145112
0.000155419
0.00015624
0.00253671
0.000139151
0.0237922
0.00014306
0.00529906
0.000169349
0.000144336
0.0002156
0.000159108
0.000139292
0.00581204
0.000498288
0.000155312
0.000238977
0.000139453
0.0212362
0.000156997
0.000156161
0.00707604
0.000148264
0.000150896
0.000261463
0.00728788
0.000161134
0.000537198
0.00045872
0.0001691
0.000164211
0.000150105
0.000597754
0.000144771
0.000313608
0.000147343
0.0290958
0.000168881
0.0011124
0.00014577
0.000139801
0.00583515
0.000156175
0.000167822
0.0117663
0.000151403
0.000140777
0.00029562
0.000168818
0.000162754
0.000227615
0.000151742
0.000778217
0.000189917
0.000232658
0.000314973
0.000156004
0.0211887
0.000151074
0.000222509
0.000143892
0.0209856
0.00542145
0.000149092
0.000155791
0.000160987
0.000148563
0.000148851
0.000143607
0.000148373
0.000144486
0.000169061
0.000135934
0.000151008
0.000233918
0.00430228
0.000753046
0.000250643
0.000155424
0.00495428
0.00014295
0.000434209
0.0107042
0.00665303
0.000136964
0.000139033
0.000145834
0.00014859
0.000136752
0.000147624
0.000143004
0.000186032
0.000140865
0.00801957
0.000312107
0.000141487
0.00276327
0.000144022
0.000145411
0.000164394
0.00470206
0.000246302
0.000147362
0.00392496
0.000144518
0.000145
0.00167284
0.000164238
0.0157613
0.000151263
0.000371432
0.000140977
0.000148363
0.000169015
0.000491041
0.000151676
0.00908029
0.000269788
0.000158319
0.000166051
0.000145139
0.000140164
0.000265501
0.000177737
0.000157732
0.014225
0.00665281
0.000355931
0.000276753
0.000147639
0.0205725
0.000147682
0.000939903
0.000217445
0.000163456
0.000151023
0.00124493
0.0100875
0.00521908
0.000236977
0.00605344
0.000149175
0.000143516
0.000179738
0.000150206
0.000147108
0.00121668
0.00843122
0.000148368
0.000165061
0.0106547
0.000149112
0.000136068
0.00539996
0.00182314
0.000149994
0.000142041
0.00016357
0.000146744
0.000144337
0.000208218
0.000158831
0.000146095
0.008336
0.000227793
0.00390572
0.0109159
0.000254064
0.0188923
0.000148879
0.000149353
0.000478888
0.0068038
0.00325954
0.000146701
0.000170907
0.000149945
0.000151337
0.000159979
0.00070753
0.000231819
0.000159275
0.000206173
0.000144398
0.00729416
0.000234913
0.000312437
0.000211182
0.00037719
0.00643135
0.000613705
0.00495807
0.000166655
0.000369206
0.00013625
0.000212444
0.000234986
0.00808197
0.000158301
0.000168252
0.000159892
0.00379174
0.000152066
0.00160477
0.000181119
0.000256866
0.000877137
0.000145164
0.000276349
0.000152524
0.000148871
0.000207653
0.00296228
0.00014192
0.000138937
0.000151197
0.00814527
0.000140812
0.000151632
0.000155977
0.000150736
0.000146194
0.000294978
0.000223771
0.000159183
0.000142403
0.00056245
0.000569508
0.000209508
0.0210533
0.000148759
0.00014448
0.00717776
0.000151802
0.000152068
0.00425088
0.0199151
0.000194736
0.000213441
0.000158907
0.0123994
0.0244264
0.000172308
0.000583768
0.000143766
0.0002353
0.00339831
0.000422753
0.00861835
0.0165757
0.000141106
0.000150811
0.000164676
0.000146359
0.000151791
0.000764664
0.000148353
0.000195799
0.00013783
0.000207653
0.00106701
0.000151902
0.000460111
0.0182035
0.00014453
0.000233144
0.00016038
0.000150986
0.000143585
0.0234754
0.000229001
0.00855674
0.000162735
0.0154768
0.000260274
0.000158696
0.000303209
0.000181584
0.000271739
0.000144663
0.000407705
0.000143642
0.000157566
0.00017764
0.000158574
0.000150113
0.000209476
0.00107159
0.000142461
0.000383991
0.000428561
0.000148112
0.000142805
0.000140378
0.010192
0.000400952
0.000141039
0.000170886
0.00219165
0.000529997
0.0176977
0.000146777
0.000140714
0.00014102
0.000145206
0.000170063
0.000153673
0.00889864
0.000157301
0.000157801
0.00253879
0.00169797
0.000249229
0.00163538
0.00939041
0.000148892
0.000145362
0.000140302
0.000150726
0.000223499
0.0340016
0.00564467
0.000321928
0.000166864
0.000202192
0.000155752
0.00426687
0.000156705
0.000292253
0.000143845
0.0212628
0.00381285
0.000140648
0.000148678
0.00376795
0.000201241
0.00183337
0.00372896
0.000299622
0.000143267
0.000442073
0.000162912
0.000142352
0.000544329
0.00987621
0.000144037
0.000196997
0.000274477
0.000175953
0.000150215
0.000137506
0.000142945
0.000140522
0.000143447
0.000169995
0.000210823
0.0175535
0.000177458
0.000161149
0.000174407
0.000255113
0.000142044
0.000174684
0.000345273
0.000452287
0.00452508
0.000152377
0.000137296
0.0221327
0.000141651
0.0019185
0.000152561
0.000194273
0.000148297
0.000142089
0.000535344
0.000161878
0.00015305
0.00014498
0.00421458
0.000512129
0.0107928
0.000153427
0.000150179
0.0146156
0.000143348
0.000142986
0.000491348
0.00980887
0.000161472
0.0001784
0.000149965
0.00236138
0.000142492
0.000166383
0.000150121
0.000137079
0.000453666
0.00014252
0.000140284
0.00155142
0.000212525
0.00495144
0.000456266
0.000142085
0.000171764
0.000141573
0.000142845
0.000167431
0.000151561
0.000146866
0.000419556
0.000146654
0.000226837
0.000202087
0.000707783
0.000147005
0.00016685
0.000144526
0.0275343
0.000140586
0.00266259
0.000228326
0.000154312
0.000205162
0.000178251
0.000172479
0.000146469
0.00017851
0.000141258
0.000140747
0.00539773
0.000204437
0.000246869
0.000143791
0.000144763
0.00015145
0.00030434
0.000144249
0.00121892
0.000197037
0.000149124
0.000142881
0.000139794
0.0001967
0.00403969
0.00630683
0.00182767
0.00747779
0.000671055
0.000265271
0.000158188
0.000623464
0.000137821
0.000140243
0.000157279
0.00547048
0.000140004
0.00474485
0.000148883
0.00014456
0.000518295
0.000412311
0.012702
0.00608958
0.000160407
0.000593936
0.00435059
0.000142877
0.000631459
0.000144128
0.00015063
0.00096073
0.000138976
0.00333329
0.00583724
0.000142816
0.000144662
0.000143483
0.021014
0.000151339
0.000137491
0.000235444
0.000142144
0.000141163
0.000172094
0.000142955
0.000195564
0.000147915
0.000174983
0.000138536
0.0185648
0.000422654
0.000138715
0.000138807
0.000149734
0.000142746
0.000156561
0.000154433
0.000148732
0.000148182
0.00014402
0.000150386
0.000145612
0.000271893
0.00013985
0.000238324
0.000151828
0.000314065
0.000140897
0.00014669
0.000144644
0.000140773
0.000180834
0.000168604
0.000159993
0.00293369
0.00176265
0.0191877
0.0017845
0.000240645
0.0231703
0.000150842
0.000145341
0.0139956
0.000870852
0.000152548
0.0116138
0.000140345
0.000314746
0.00442855
0.000156012
0.000239492
0.00581267
0.0240336
0.000145623
0.000198165
0.000141735
0.00842504
0.000157471
0.00349603
0.00559575
0.000147355
0.000371009
0.0185071
0.000153889
0.000439325
0.00533808
0.000152
0.000140874
0.00344342
0.0173801
0.000142863
0.000175077
0.000150902
0.0176775
0.000306088
0.000146962
0.000141137
0.00117184
0.000142471
0.00014459
0.000150083
0.000139085
0.00041351
0.000179659
0.000167974
0.0198404
0.000143476
0.000238093
0.000148266
0.00314146
0.00020958
0.00723953
0.000140772
0.000165996
0.000145081
0.000146781
0.000156332
0.000146212
0.00046128
0.000150615
0.000139464
0.00014248
0.00510597
0.000140741
0.00834949
0.000589643
0.000520235
0.000150383
0.000141492
0.0001426
0.000373794
0.00014866
0.0110765
0.000146144
0.0161061
0.000151572
0.000171162
0.000508181
0.000147873
0.000151551
0.0167465
0.000279542
0.00423389
0.000156547
0.00337589
0.0155703
0.000148585
0.0110067
0.000149619
0.000165015
0.00622972
0.000156623
0.000196294
0.0075415
0.000167105
0.000224081
0.000146795
0.00171285
0.000144431
0.00670942
0.000142555
0.00938055
0.000144663
0.000145734
0.000169489
0.00605333
0.000141734
0.001297
0.00025579
0.00665365
0.000143119
0.000164818
0.00508983
0.00579393
0.000596262
0.000231487
0.000140996
0.00027024
0.0163889
0.000155264
0.000427794
0.000140149
0.000296254
0.00793646
0.00014216
0.0173793
0.000142915
0.00264191
0.000397322
0.00015384
0.000169395
0.00795974
0.00259973
0.000144703
0.000152206
0.000139291
0.000147876
0.000840952
0.00022011
0.000534328
0.000151329
0.000163845
0.0032396
0.000290851
0.000375241
0.00616387
0.000141884
0.000143835
0.000431158
0.000748116
0.000997427
0.00256852
0.00041222
0.000184931
0.000258227
0.00263735
0.00217079
0.0101758
0.000140879
0.000234623
0.000195442
0.000233959
0.000145157
0.00016233
0.000216171
0.022873
0.000434508
0.00017053
0.0164497
0.0174288
0.000181936
0.000144244
0.000144332
0.00746074
0.000142024
0.0240522
0.000165235
0.000167002
0.00038861
0.00697613
0.000138607
0.000182435
0.000170746
0.000145393
0.0203782
0.000232205
0.0303608
0.0001443
0.00804446
0.000494978
0.000435101
0.000140902
0.00016014
0.000167861
0.00770396
0.000295767
0.000226384
0.000814332
0.0202838
0.000131649
0.000159255
0.000162663
0.000284892
0.0125472
0.000144208
0.000138388
0.000151014
0.000546429
0.00507364
0.000144152
0.000207669
0.00041741
0.000140759
0.00576164
0.000153965
0.0260506
0.000173166
0.00816906
0.0160014
0.000167428
0.000156062
0.000441899
0.000142804
0.000183984
0.00457132
0.000165688
0.00150125
0.000173003
0.000212198
0.000723264
0.00243873
0.000146498
0.0181167
0.0219273
0.000138976
0.00033486
0.00022028
0.000354248
0.000444704
0.0172493
0.000903891
0.000264174
0.00401292
0.000161544
0.000219911
0.000140575
0.000148481
0.000145986
0.000141038
0.000520537
0.0223195
0.000141577
0.00029035
0.000414348
0.000142653
0.00903573
0.000779551
0.000139947
0.000148451
0.000142627
0.000151564
0.00019474
0.000144395
0.0166728
0.000170361
0.000224658
0.000160082
0.00023006
0.000256326
0.000188089
0.0153163
0.000145433
0.000151805
0.000141476
0.000143055
0.00480594
0.000264482
0.000163636
0.00731193
0.000152342
0.000152147
0.000171542
0.000140506
0.000148362
0.000326624
0.000159486
0.00733616
0.0103392
0.00130845
0.000147183
0.00151185
0.000143111
0.000588234
0.000138433
0.000328784
0.00109806
0.000145529
0.000532801
0.0113869
0.000170731
0.000151399
0.000142507
0.000162523
0.000584837
0.000138929
0.000148579
0.000153995
0.000168022
0.000434692
0.000154567
0.0001599
0.00014176
0.000152895
0.000439409
0.000179003
0.000164374
0.000285739
0.00921173
0.0028879
0.019959
0.000158372
0.000153605
0.00510254
0.000145478
0.000221911
0.000147606
0.00100173
0.000151888
0.000155437
0.000221817
0.000745963
0.000143825
0.000140882
0.000137685
0.000346399
0.00635833
0.000283611
0.000144732
0.000157599
0.000140904
0.0232389
0.000148481
0.000550732
0.000211373
0.000152387
0.000349148
0.000188389
0.00563893
0.000150343
0.000143002
0.000169767
0.000189553
0.000619073
0.000148168
0.000149628
0.000150531
0.00369822
0.000146668
0.000152126
0.00183275
0.000151737
0.000242086
0.000157842
0.000143355
0.000146999
0.0104653
0.000155149
0.00646753
0.00483497
0.000135909
0.017049
0.000148236
0.000260468
0.000202657
0.000152825
0.000141132
0.000135703
0.000144276
0.0150193
0.00019864
0.0287725
0.00302458
0.000141507
0.00148737
0.000184909
0.00056809
0.000144394
0.0070081
0.00227244
0.000824918
0.000143028
0.000152605
0.000149103
0.000381615
0.0035202
0.000166352
0.000145414
0.000172226
0.0272029
0.00014773
0.000152988
0.000153726
0.000309908
0.000472905
0.000137816
0.000962728
0.000178936
0.000144112
0.00050871
0.000211206
0.0154823
0.0191526
0.000170804
0.000165038
0.000153524
0.000159014
0.000150542
0.000598803
0.000200049
0.000148681
0.00015751
0.000484535
0.00146717
0.000138795
0.000290327
0.00138762
0.0161055
0.000151048
0.000146257
0.00518989
0.000665094
0.0111547
0.000145185
0.00172337
0.000221171
0.000137021
0.0166249
0.000162041
0.000150562
0.000381665
0.000149432
0.000302821
0.000141291
0.000134051
0.00015115
0.00013767
0.000705985
0.000140503
0.000142426
0.000233798
0.000159668
0.000156716
0.000322735
0.000146922
0.000144788
0.000151211
0.000150032
0.0061473
0.00771697
0.000539667
0.0192021
0.000200517
0.00530084
0.00026173
0.00111669
0.00177634
0.000708841
0.00014087
0.000167382
0.000144638
0.000148826
0.000144054
0.000166192
0.000418915
0.000212795
0.000180067
0.00014249
0.000143896
0.000206891
0.000148252
0.000150084
0.000147472
0.0292946
0.000171484
0.00775562
0.000146994
0.00531188
0.000149826
0.000154479
0.000155547
0.000192307
0.000142811
0.000240212
0.0055454
0.000188935
0.0199991
0.00988527
0.000160305
0.00016387
0.00478059
0.000277181
0.000142221
0.000143964
0.000135965
0.00326205
0.000134067
0.0111874
0.000348461
0.000232811
0.0165465
0.0160165
0.000222097
0.0249079
0.000142938
0.000137369
0.00142012
0.00405489
0.000144891
0.000146824
0.0182471
0.000140981
0.000332298
0.000154008
0.000147772
0.000156682
0.000145875
0.000225723
0.00436624
0.00727156
0.000158318
0.000145144
0.000362181
0.000150831
0.000247085
0.000140831
0.000344615
0.000263647
0.000149746
0.000150236
0.000136319
0.000433272
0.000253842
0.000434715
0.000415562
0.000168263
0.000748319
0.000235259
0.000295795
0.00144198
0.000143237
0.00253781
0.00015
0.0308875
0.000522364
0.00280146
0.000826321
0.000155123
0.00020716
0.0017164
0.000149614
0.00803935
0.000146668
0.000145718
0.000162027
0.000149716
0.000172622
0.000996878
0.00128081
0.00355457
0.000160486
0.000185951
0.000150342
0.00015381
0.000147867
0.000315603
0.000252839
0.00093151
0.000196838
0.000141762
0.000139275
0.000154999
0.000456549
0.000154703
0.000158541
0.000157314
0.00195259
0.000174404
0.000184418
0.000222462
0.00164528
0.000167225
0.000176719
0.000144459
0.000162231
0.000476027
0.000774251
0.000195119
0.000140596
0.000525609
0.000176457
0.000144694
0.000200189
0.00381307
0.00655163
0.000172359
0.000141078
0.00153567
0.000149954
0.000140845
0.000142196
0.00136164
0.000460189
0.000160214
0.00046293
0.000614401
0.000166333
0.000223316
0.00021564
0.0291678
0.000170155
0.00275858
0.000150531
0.000765913
0.000286609
0.00946922
0.000177849
0.000142864
0.00427224
0.000145714
0.000149788
0.0143985
0.00691773
0.00963315
0.000487746
0.000158046
0.000151818
0.000552923
0.000144707
0.000142244
0.000146561
0.000196243
0.000144213
0.00017733
0.000166139
0.00671674
0.000667136
0.000150299
0.00926321
0.000165084
0.00600828
0.0178304
0.000146253
0.000148063
0.000160803
0.0208039
0.000424032
0.0002209
0.00445863
0.00161123
0.0214644
0.000155115
0.00461885
0.00529443
0.000249306
0.000525841
0.000148134
0.000148125
0.000146729
0.000152228
0.000142829
0.00017743
0.00857252
0.000183165
0.00522843
0.0296112
0.0138179
0.00124617
0.00296204
0.000179029
0.00978425
0.0002661
0.000235171
0.000138262
0.000150368
0.000226256
0.0168053
0.000161646
0.00061733
0.00295598
0.000141434
0.000146936
0.000154982
0.000384594
0.000150373
0.000227228
0.00275641
0.000138658
0.000143793
0.000141112
0.000149738
0.000275845
0.00641815
0.000175866
0.00207632
0.00028211
0.000142612
0.00526187
0.000446154
0.00015046
0.000537931
0.000590691
0.000881025
0.000719743
0.0125009
0.000148747
0.000679867
0.00729044
0.0003403
0.000851014
0.000143278
0.000152356
0.000153822
0.000154953
0.00118884
0.000220428
0.000147807
0.000163044
0.00894356
0.00994758
0.000154877
0.000160166
0.0260229
0.0024258
0.000148249
0.000162611
0.000265264
0.0001432
0.00014405
0.00121235
0.000142648
0.000608791
0.00519319
0.00204178
0.000142565
0.000341926
0.000322583
0.000144145
0.000138981
0.0139022
0.000804946
0.000155027
0.000188699
0.000314842
0.000447148
0.00765617
0.000443353
0.000158809
0.00613252
0.00604674
0.000179315
0.000141757
0.00887118
0.000137266
0.000140362
0.00799154
0.000182438
0.000252831
0.000157512
0.000211127
0.000141908
0.000138717
0.000150045
0.000150832
0.000497845
0.000156857
0.000416588
0.0172431
0.000195536
0.000227784
0.000596001
0.00488205
0.000521882
0.000154956
0.000158697
0.000180565
0.000158182
0.000332961
0.00741003
0.000150066
0.000398121
0.0159339
0.000160154
0.000263792
0.000232803
0.000278858
0.000296281
0.000152178
0.000319
0.000344232
0.000372492
0.000401471
0.000306159
0.000240377
0.000194105
0.000141852
0.000176861
0.00026115
0.00014277
0.000376961
0.0168545
0.000366898
0.00288153
0.000137993
0.000141076
0.00099055
0.000591491
0.000150581
0.000154138
0.000217381
0.00625359
0.0191331
0.000146381
0.000171687
0.000158939
0.0393852
0.00753401
0.000157267
0.000416422
0.00895728
0.000272415
0.00200989
0.000252494
0.00665705
0.0119549
0.000130595
0.0170054
0.016363
0.000150215
0.000228883
0.000277127
0.000165704
0.000141182
0.0191401
0.00310601
0.000145579
0.000146187
0.000773197
0.000571441
0.000243948
0.00014769
0.000480066
0.000287212
0.00342903
0.02279
0.000146675
0.000143682
0.000150304
0.000157984
0.00173086
0.0173537
0.000857706
0.00025171
0.000511815
0.00916754
0.000157975
0.00014171
0.0109829
0.000143223
0.00519543
0.000146702
0.00235331
0.000151441
0.000151991
0.0128665
0.000146257
0.000294578
0.00870263
0.000166798
0.00015606
0.000151829
0.000418601
0.00920396
0.00035625
0.00498389
0.000168596
0.000155376
0.000166164
0.000239612
0.0309082
0.00481069
0.000286859
0.000458506
0.000315413
0.000561623
0.000167723
0.000143817
0.00013879
0.000138286
0.000412988
0.00131042
0.00921165
0.000188965
0.000358918
0.000144228
0.00374193
0.0057069
0.0349423
0.000144588
0.000152233
0.000134336
0.00693368
0.000459943
0.00650813
0.000396524
0.000308106
0.000494908
0.000136154
0.000184823
0.000331886
0.000430415
0.000554699
0.000145419
0.000331552
0.000151939
0.000150866
0.000994874
0.02
0.000697568
0.000151148
0.000268288
0.000807415
0.00123335
0.0122591
0.0017397
0.00297412
0.000142409
0.000215022
0.000150301
0.000342838
0.000144641
0.000307336
0.0001589
0.000201378
0.00619126
0.00833376
0.000166204
0.00949168
0.0146217
0.000309923
0.000158234
0.0155666
0.00029304
0.000153844
0.000156402
0.00153879
0.000167547
0.00033074
0.000499094
0.00711642
0.00770437
0.000161349
0.000635285
0.00509128
0.0183162
0.0208045
0.000174052
0.000287445
0.00026777
0.00143805
0.00969525
0.000150019
0.000537923
0.000281846
0.000365795
0.000161603
0.00761455
0.000636567
0.00061362
0.000162512
0.016041
0.000154446
0.00673641
0.000320579
0.000534093
0.0136634
0.000140806
0.000134391
0.0100159
0.0128821
0.000274228
0.000149454
0.000191727
0.000179132
0.000646501
0.00804875
0.0180814
0.000159113
0.0215741
0.000310669
0.00907639
0.00014976
0.000351135
0.00283197
0.000167973
0.000253726
0.000136908
0.000157081
0.00014722
0.00631145
0.000143909
0.000147161
0.00897111
0.000731433
0.000138154
0.0217274
0.000150058
0.000150342
0.000143258
0.000141737
0.000148425
0.000554729
0.00947618
0.000140006
0.0162385
0.000227386
0.000199624
0.000477699
0.000255236
0.000158184
0.000174907
0.000142761
0.00636197
0.00017084
0.0261356
0.0001684
0.00098287
0.000506999
0.000226352
0.00357106
0.0247315
0.000139305
0.0129087
0.000209904
0.000222866
0.000236133
0.000145182
0.000348532
0.000415766
0.000146696
0.00031124
0.000143903
0.00188653
0.000364743
0.000644218
0.000417183
0.00041106
0.00659742
0.000146628
0.000144769
0.000221172
0.000151434
0.000148089
0.000148323
0.000161329
0.000143812
0.000142331
0.000150689
0.000189764
0.000152304
0.000160602
0.00015434
0.000212812
0.000278818
0.00015326
0.00386681
0.000152787
0.000142962
0.000268143
0.000191808
0.000158062
0.000143692
0.0183143
0.000155115
0.0120347
0.000155762
0.00027286
0.000143075
0.000148808
0.00883875
0.0195161
0.000232117
0.000175306
0.000135021
0.00410903
0.000147497
0.00014219
0.000241793
0.000156563
0.00029993
0.0129576
0.000268226
0.0238172
0.000191256
0.00890015
0.000149261
0.000146915
0.000224612
0.00589395
0.000216785
0.0002596
0.00196689
0.000161642
0.000146434
0.000166543
0.000470251
0.000211736
0.000146959
0.000284051
0.000277655
0.000219141
0.000148499
0.000147396
0.000328004
0.000217972
0.00172857
0.00762026
0.00015853
0.000229358
0.000148248
0.000195079
0.000472459
0.000147609
0.000312987
0.00513324
0.000242546
0.0063473
0.000146193
0.000148372
0.000142472
0.0073269
0.00045025
0.000152546