/*--------------------------------*- C++ -*----------------------------------*\
| =========                 |                                                 |
| \\      /  F ield         | OpenFOAM: The Open Source CFD Toolbox           |
|  \\    /   O peration     | Version:  v2012                                 |
|   \\  /    A nd           | Website:  www.openfoam.com                      |
|    \\/     M anipulation  |                                                 |
\*---------------------------------------------------------------------------*/
FoamFile
{
    version     2.0;
    format      ascii;
    class       surfaceVectorField;
    location    "850";
    object      Uf_0;
}
// * * * * * * * * * * * * * * * * * * * * * * * * * * * * * * * * * * * * * //

dimensions      [0 1 -1 0 0 0 0];


internalField   nonuniform List<vector> 
20642
(
(0.822299 0.0999453 -8.05388e-23)
(0.836036 0.101975 8.71779e-22)
(0.831952 0.110632 -1.16958e-21)
(1.06321 -0.0622762 1.45981e-21)
(1.05912 -0.0692829 -2.04033e-21)
(1.05341 -0.0609429 5.92063e-22)
(0.953044 0.230807 8.18342e-21)
(0.952458 0.22606 -8.69011e-21)
(0.947008 0.228934 -4.54272e-22)
(1.02717 0.0148222 3.02245e-21)
(1.02661 0.0152865 0)
(1.02654 0.0144805 0)
(0.996923 0.0399017 7.61627e-23)
(0.996487 0.0445909 3.88324e-21)
(1.00131 0.0422398 2.44557e-22)
(1.0653 -0.0523229 6.27775e-22)
(1.07237 -0.0592845 5.76999e-22)
(1.02527 0.0463106 0)
(1.02465 0.044043 0)
(1.02317 0.0456079 0)
(0.902034 -0.0859014 1.4292e-22)
(0.863109 -0.0911628 1.11545e-21)
(0.874767 -0.0640086 -3.63678e-22)
(1.05692 0.0362362 4.07648e-21)
(1.05533 0.0369662 3.99511e-21)
(1.05686 0.0384004 8.88119e-21)
(0.000963099 0.0320525 5.0657e-22)
(0.00476188 0.0116996 9.94624e-21)
(0.929065 -0.0712896 3.54032e-23)
(0.930923 -0.0947848 -7.35232e-22)
(1.02189 0.00912151 3.00734e-22)
(1.02184 0.0093512 5.83553e-21)
(1.02212 0.00938705 -5.96358e-22)
(1.01163 0.000163021 -7.36069e-21)
(1.01175 8.13295e-05 -2.01077e-21)
(0.783 0.272514 0)
(0.817135 0.29141 0)
(0.79094 0.299803 0)
(1.06114 -0.000407707 1.20495e-22)
(1.0649 -0.00256434 -7.96668e-23)
(1.06008 -0.00415702 -4.37917e-22)
(0.805611 0.0987942 -7.1777e-22)
(0.7808 0.0883407 0)
(1.00837 8.13091e-05 1.90485e-22)
(1.00839 5.21479e-05 3.42341e-23)
(1.00613 2.49052e-05 3.49369e-23)
(0.945416 -0.0586562 0)
(0.959678 -0.0475846 0)
(0.963692 -0.0662679 0)
(0.971908 0.183015 -7.3588e-21)
(0.970325 0.185928 -1.06166e-20)
(0.968026 0.183152 9.08798e-21)
(0.791814 0.113045 -2.66353e-21)
(0.85125 0.116403 -4.86589e-21)
(0.853816 0.122056 -8.88937e-21)
(1.00838 -0.0162647 -3.26137e-23)
(1.00781 -0.0175482 -2.95252e-23)
(1.00925 -0.0175294 3.72041e-23)
(1.01805 0.00731833 -2.28974e-22)
(1.01842 0.00695254 -1.28892e-23)
(1.01872 0.00786185 3.72686e-23)
(1.00136 0.103199 4.29529e-21)
(1.00504 0.103538 4.83281e-21)
(1.00157 0.106949 4.5832e-21)
(1.01752 0.00757485 -4.84133e-22)
(1.01759 0.0067676 -1.59895e-22)
(1.01808 0.0155333 5.25474e-21)
(1.01761 0.016205 5.3045e-21)
(1.01742 0.0152338 -6.94234e-22)
(1.01148 -0.0203896 3.98084e-22)
(1.01097 -0.0196136 -7.69934e-23)
(1.01179 -0.0197767 7.07126e-23)
(0.579273 -0.414018 -8.1294e-21)
(0.587878 -0.369632 1.4582e-21)
(0.612842 -0.42713 3.28116e-22)
(0.0121665 0.0302657 -1.65497e-21)
(0.999193 -0.0243065 -1.43214e-21)
(1.00408 -0.0229129 -5.55568e-22)
(1.00333 -0.0277801 0)
(1.01143 0.00544136 0)
(1.01093 0.00480714 0)
(1.01134 0.0043904 -9.49726e-25)
(-0.0297106 0.0385018 -3.81133e-21)
(-0.0131398 0.0344791 -7.81464e-22)
(1.03905 0.157218 1.52042e-21)
(1.04172 0.160832 8.34241e-21)
(1.03615 0.159855 6.36279e-21)
(1.02217 0.0133148 -7.89529e-22)
(1.02223 0.012912 1.7064e-22)
(1.02254 0.0132743 -2.69217e-21)
(0.807847 0.143526 6.2245e-21)
(0.824631 0.150486 -3.11943e-21)
(0.815848 0.153891 2.07277e-21)
(1.01541 -0.0001602 0)
(1.01543 -0.000579139 0)
(1.01551 -0.000676432 7.45832e-23)
(0.840691 -0.116689 3.78013e-21)
(0.811537 -0.0916938 1.25497e-20)
(1.02196 -0.00153907 -4.66632e-22)
(1.02106 -0.00125919 1.12259e-21)
(1.02169 -0.00253525 -3.89446e-22)
(1.00443 5.19281e-05 -7.0894e-22)
(1.00754 0.000180208 -1.01993e-21)
(1.00399 2.66122e-05 -1.65401e-22)
(1.02584 0.0483596 1.37611e-20)
(1.02718 0.0466602 -4.52743e-21)
(0.980441 -0.0138185 6.62335e-22)
(0.976208 -0.0157854 -6.1773e-22)
(0.97728 -0.0108386 -6.03742e-22)
(1.00415 -0.000163705 -1.51836e-22)
(1.00345 -9.60932e-05 5.93189e-22)
(1.00634 1.02036e-05 -1.79463e-22)
(1.0239 -0.00859703 -1.81407e-22)
(1.02359 -0.00985227 5.07019e-22)
(1.02261 -0.00891086 -3.51994e-22)
(1.05188 0.0267585 -8.00577e-21)
(1.05002 0.0271963 -1.57529e-20)
(1.05087 0.0252803 0)
(0.992335 0.196049 1.77693e-20)
(0.995924 0.197856 2.06596e-20)
(0.9914 0.200273 1.54841e-20)
(0.993186 0.191224 3.13116e-22)
(0.988282 0.193227 -3.88978e-21)
(0.829988 0.197568 0)
(0.838938 0.192466 1.74362e-21)
(0.836322 0.207318 0)
(1.00895 -0.0146456 6.4138e-23)
(1.00736 -0.0144474 0)
(0.578276 -0.150027 -2.53017e-20)
(0.628647 -0.0954792 0)
(0.678362 -0.100295 0)
(0.963325 -0.40326 8.9823e-21)
(0.94273 -0.428693 1.11004e-20)
(0.956726 -0.393996 8.1174e-21)
(1.01533 0.00024387 0)
(1.01544 0.000142139 0)
(1.02171 0.00893333 -4.2994e-21)
(1.02188 0.00897039 1.76678e-22)
(0.898735 0.15364 6.17155e-21)
(0.892295 0.1561 -5.52545e-21)
(0.893134 0.148255 -3.47742e-21)
(0.452225 0.0796289 9.35894e-23)
(0.548669 0.0934906 5.76767e-23)
(0.437288 0.0767596 2.19934e-21)
(1.02137 0.00520572 0)
(1.0211 0.00524849 0)
(1.02138 0.00508906 -2.11222e-21)
(1.0216 0.00550913 1.01303e-21)
(1.02139 0.00554153 2.51431e-22)
(1.0213 0.00575345 -3.42416e-21)
(0.90321 0.151839 1.85838e-21)
(0.902431 0.158947 4.4111e-21)
(0.268105 0.0646491 -3.78524e-21)
(0.997774 0.101984 -2.07065e-21)
(1.00155 0.0989259 2.71306e-21)
(1.02395 -0.00726642 2.24239e-22)
(1.02506 -0.0078461 1.87464e-22)
(0.817691 0.204768 -1.88692e-21)
(0.820352 0.188171 7.12284e-22)
(0.955174 0.543192 -4.38032e-20)
(0.9269 0.583466 -1.48673e-20)
(0.992139 0.602233 -1.98053e-20)
(0.989109 -0.023044 0)
(0.985906 -0.0139756 2.58802e-22)
(0.994008 -0.0147395 0)
(1.00738 8.24404e-05 2.92034e-25)
(1.00782 0.000189416 0)
(1.0087 0.000246964 0)
(1.01877 0.0157853 4.65961e-21)
(1.01853 0.0149877 -1.07448e-21)
(0.915842 0.17762 2.42651e-21)
(0.918986 0.174483 -4.0776e-21)
(0.917018 0.173703 8.97247e-21)
(1.00359 0.0370127 -7.89694e-22)
(0.997415 0.0341609 3.56703e-23)
(1.00115 0.0356395 -2.2798e-22)
(0.994342 -0.0265114 8.40963e-22)
(0.987401 -0.0291402 2.06141e-21)
(0.994025 -0.0341653 1.79626e-21)
(0.872628 -0.135275 -5.44272e-21)
(0.824857 -0.149455 5.32989e-22)
(0.929042 -0.0449353 -1.08644e-22)
(0.706851 0.113996 -2.81945e-21)
(0.704968 0.105 -2.16735e-21)
(0.691172 0.103846 -2.76852e-21)
(0.913955 0.194846 9.30108e-21)
(0.916936 0.192501 -4.83047e-21)
(0.91399 0.189862 1.27261e-20)
(0.800788 0.136392 2.3442e-21)
(0.791869 0.138569 1.76184e-21)
(1.02907 0.00653989 -1.47186e-21)
(1.02959 0.00688015 0)
(1.02888 0.00699816 -4.05477e-21)
(1.02382 -0.00628071 -6.17183e-22)
(1.0229 -0.00683124 2.21866e-22)
(1.00747 -0.0190793 -5.34056e-22)
(1.00616 -0.0176301 2.17594e-23)
(1.01541 0.00999244 6.1522e-22)
(1.01461 0.0104651 -3.77206e-21)
(1.01499 0.00923494 2.45561e-21)
(1.01367 0.0255982 -2.19908e-22)
(1.01433 0.0277907 -7.94339e-22)
(1.0164 0.0257275 -7.74069e-22)
(1.02359 -0.00526646 -2.12945e-22)
(1.02464 -0.00536739 -4.33022e-22)
(1.01582 0.0107701 2.99989e-21)
(1.01617 0.00973435 -2.57074e-21)
(1.02183 0.0133016 1.16278e-21)
(1.02204 0.0137602 -2.27537e-21)
(1.02758 0.00464358 -4.85804e-22)
(1.0275 0.00516894 7.66384e-22)
(1.02668 0.00486754 1.20547e-21)
(1.00844 -2.35781e-05 5.02405e-23)
(1.00853 -1.06079e-05 -8.0495e-23)
(1.00622 -3.00987e-05 3.12416e-24)
(1.02928 0.00603007 5.27201e-22)
(1.02856 0.00613613 -9.90392e-21)
(0.898577 0.239464 4.09148e-21)
(0.902578 0.23673 1.02766e-20)
(0.901447 0.245175 7.80753e-22)
(1.01411 0.00140419 1.67706e-21)
(1.0142 0.00158257 -5.88576e-22)
(1.01398 0.00144157 0)
(0.953262 0.108549 -8.1199e-22)
(0.970528 0.148574 0)
(0.92839 0.126453 6.86866e-22)
(1.04281 0.153608 -4.36995e-21)
(1.03653 0.153374 1.44043e-22)
(1.01393 0.00088099 -1.35801e-21)
(1.01374 0.000872613 1.00326e-21)
(1.01339 0.000634449 3.57363e-21)
(0.983652 -0.0112454 9.03473e-22)
(0.983715 -0.0157894 2.1993e-21)
(1.00811 0.000103787 -5.44563e-23)
(1.00948 0.000109276 -1.54923e-23)
(1.01067 0.000285844 -2.51131e-24)
(1.01042 0.000286463 -2.66011e-24)
(1.01094 0.000390381 -1.09683e-22)
(1.05259 0.0285291 -6.27133e-21)
(0.986197 -0.365609 -7.19337e-21)
(0.964351 -0.400695 1.61831e-21)
(1.01559 -0.00194815 -2.21769e-23)
(1.01597 -0.00235874 1.75717e-23)
(1.01566 -0.00217223 -2.62096e-23)
(1.02386 0.00368648 0)
(1.02411 0.00368057 0)
(1.02445 0.00328445 0)
(0.996566 -0.0184257 1.18133e-21)
(0.765929 -0.533306 -7.40493e-21)
(0.802069 -0.4978 8.21384e-21)
(0.849866 -0.495576 7.31466e-21)
(1.00743 -5.74213e-05 0)
(1.00741 -5.44298e-05 -1.63489e-22)
(1.00528 -3.10761e-05 2.57883e-22)
(1.01404 0.00100816 -2.60566e-21)
(1.01404 0.000863514 -3.6375e-22)
(0.908229 -0.272741 4.98975e-21)
(0.947526 -0.238146 1.03522e-20)
(0.956122 -0.27138 8.92912e-21)
(1.00815 5.62612e-05 -1.95647e-24)
(1.00813 7.90792e-06 0)
(1.00599 3.23605e-05 0)
(1.0083 6.14468e-05 -1.73782e-24)
(1.00951 -6.45479e-05 -2.07706e-23)
(1.02836 0.0043515 -8.27047e-22)
(1.02738 0.00426852 -9.70466e-22)
(1.00921 5.81351e-05 -1.7952e-22)
(1.00912 6.88163e-05 -7.45657e-23)
(1.0083 3.56672e-05 1.01029e-22)
(1.01309 0.0226408 4.62998e-22)
(1.01092 0.0244385 -3.17612e-22)
(0.916927 0.395123 8.04167e-22)
(0.91753 0.392842 2.59146e-20)
(0.891506 0.392623 1.03357e-20)
(0.927378 0.0858826 8.37848e-22)
(0.915386 0.090132 4.58503e-21)
(0.921261 0.0726176 5.58306e-21)
(0.997078 -0.0301525 0)
(0.980278 -0.0315523 -2.03716e-22)
(1.02468 -0.0110764 -6.44112e-22)
(1.02298 -0.0114105 9.39247e-24)
(0.572167 -0.456771 -4.12408e-21)
(0.557591 -0.3952 -2.35514e-21)
(1.01857 -3.54318e-05 8.24617e-21)
(1.01866 -8.95064e-05 6.90658e-21)
(0.841282 0.158158 -1.26288e-21)
(0.835211 0.148648 -9.53451e-22)
(1.00688 -0.0220917 1.57166e-21)
(1.00595 -0.0184239 -7.57319e-22)
(0.912817 0.180405 6.8753e-22)
(0.915131 0.181075 -4.30842e-21)
(1.01426 0.0066295 1.91005e-21)
(1.01333 0.00706136 -1.60444e-21)
(1.0144 0.00768397 -9.71139e-23)
(0.973458 0.179049 0)
(0.975972 0.182274 6.13684e-21)
(1.00901 1.43853e-05 -1.80314e-23)
(1.00967 6.33485e-05 1.1549e-22)
(1.00925 6.90764e-05 5.00365e-23)
(0.958945 0.215037 -5.98282e-21)
(0.959944 0.219354 -1.19771e-21)
(0.963078 0.215632 1.76328e-22)
(1.0291 0.00252336 -6.90976e-21)
(1.02907 0.00313086 -4.92491e-21)
(1.02855 0.00266505 -7.86014e-21)
(1.00971 -4.82016e-05 1.88913e-22)
(1.00818 -3.44472e-05 -1.70358e-22)
(1.02187 -0.00492599 4.02527e-22)
(1.02115 -0.00475336 -5.02866e-22)
(1.0216 -0.00426527 8.06607e-24)
(0.98044 -0.0341049 -4.68011e-22)
(0.982047 -0.0217519 8.4023e-23)
(0.951211 0.156885 -2.01784e-21)
(0.94763 0.155109 -7.76196e-21)
(0.951686 0.152456 -2.20972e-20)
(0.488364 0.101735 -1.07441e-24)
(0.50636 0.117958 4.40432e-26)
(0.508954 0.103496 2.14732e-21)
(0.896679 0.234926 0)
(0.895636 0.242455 0)
(1.01936 0.0159947 5.35169e-21)
(1.01999 0.0161317 -5.22955e-21)
(1.01975 0.0154501 0)
(1.00869 -0.0200536 -9.20089e-23)
(1.00709 -0.0206866 6.98083e-23)
(1.01387 0.00196916 -2.83348e-22)
(1.01389 0.00198984 3.47579e-22)
(1.01375 0.00202769 5.69779e-22)
(0.954956 0.157787 1.06293e-20)
(0.951493 0.160133 -1.36533e-21)
(1.05193 0.073877 6.12453e-21)
(1.04985 0.0758453 -7.8031e-21)
(1.05309 0.0762174 -1.57026e-20)
(0.722623 0.0551547 -8.05861e-22)
(0.740007 0.0577619 4.41554e-21)
(0.724239 0.0721708 3.96986e-21)
(0.719182 0.322584 2.98522e-22)
(0.684625 0.308439 -4.93945e-21)
(0.703758 0.311281 2.41762e-20)
(1.014 0.00554137 1.87721e-21)
(1.015 0.00600285 -1.33313e-21)
(1.02914 0.175213 -5.03938e-21)
(1.02372 0.176269 -1.58933e-20)
(1.02782 0.180536 -5.3314e-21)
(0.571769 -0.498505 4.30384e-21)
(0.591764 -0.507392 -3.71609e-21)
(0.790639 0.564754 -1.91254e-20)
(0.828284 0.536048 2.00545e-20)
(0.782168 0.510792 -1.32155e-20)
(0.261353 0.0908982 -8.91695e-22)
(0.243319 0.0893451 9.16119e-21)
(0.26886 0.105737 7.97438e-22)
(1.0118 -0.0211545 1.60882e-22)
(1.01182 -0.0207449 -2.61978e-22)
(1.01202 -0.021219 7.6362e-22)
(1.00435 0.00010345 0)
(0.908936 0.103292 -8.10209e-22)
(0.920764 0.11456 1.87113e-22)
(0.899091 0.122297 -3.22815e-21)
(1.02262 -0.00511511 1.00994e-22)
(1.0232 -0.00441928 -6.88522e-23)
(0.908031 0.39492 -2.1584e-22)
(0.940794 0.40034 -4.12165e-20)
(1.01562 0.00282722 1.81774e-21)
(1.01537 0.00265997 1.65698e-22)
(1.01554 0.00288595 6.92971e-22)
(1.02719 0.00599585 7.57304e-21)
(1.02758 0.00638102 -3.54929e-21)
(1.02703 0.00649507 -6.40245e-21)
(1.02638 -0.0287458 7.90823e-23)
(1.03167 -0.0265273 -1.06946e-21)
(1.02825 -0.0235947 1.56332e-21)
(0.913755 0.199342 8.04574e-21)
(0.910513 0.196735 6.17326e-21)
(0.683832 -0.22344 1.21306e-20)
(0.611178 -0.0672286 1.01573e-20)
(0.615015 -0.0376376 -8.4267e-21)
(0.525845 -0.0983634 1.23393e-20)
(1.0214 0.00538546 -1.03884e-21)
(1.02171 0.00514577 2.05728e-21)
(0.986275 -0.00945723 -9.7832e-23)
(0.9887 -0.00787159 -4.22697e-22)
(0.988846 -0.011171 -7.73597e-22)
(1.00817 5.6819e-05 4.21623e-22)
(1.00858 7.0235e-05 -9.55002e-23)
(1.00985 0.000173082 1.49771e-22)
(1.0268 0.00566084 1.65101e-21)
(1.02729 0.00549671 6.60207e-21)
(0.711499 -0.554019 3.62838e-21)
(0.742848 -0.55357 -2.83657e-22)
(1.01088 0.00842821 -3.42031e-22)
(1.01024 0.00932376 0)
(1.00979 0.00817236 0)
(1.00932 1.63125e-05 3.13424e-22)
(1.00959 -4.51411e-05 -5.57037e-23)
(0.647504 0.30091 -7.04496e-21)
(0.628514 0.294081 1.96753e-20)
(0.616569 0.285415 -3.84479e-21)
(1.00737 -2.12732e-05 -1.47579e-22)
(1.00739 -4.07729e-05 -6.95949e-23)
(1.00532 -2.70803e-05 -7.33221e-23)
(1.00868 -1.46008e-05 1.03775e-23)
(1.00794 -3.43256e-05 -6.70643e-23)
(1.01456 0.00220185 1.26892e-21)
(1.01477 0.00236574 2.58323e-23)
(1.01455 0.00219089 -1.32336e-21)
(0.99845 0.168863 1.31156e-20)
(0.988209 0.164821 5.22617e-21)
(1.00416 0.160228 2.41266e-20)
(1.02874 -0.0127524 6.47707e-23)
(1.02743 -0.0111777 -4.15117e-22)
(1.02951 -0.0112764 7.58894e-22)
(0.924035 0.0874747 0)
(1.1772 0.278292 0)
(1.18202 0.233182 -8.43444e-21)
(1.14625 0.254889 0)
(0.85633 -0.380702 3.49153e-21)
(0.861061 -0.337509 -6.09854e-21)
(0.913833 -0.347379 2.18324e-21)
(0.466629 0.0771084 5.61623e-22)
(1.02143 0.155298 5.73343e-21)
(1.10719 0.224971 -3.61835e-20)
(1.05977 0.238257 6.23207e-21)
(1.01125 0.000374268 -2.14915e-24)
(1.01132 0.00041463 0)
(1.01125 0.000264345 0)
(1.01151 -0.0213038 -2.65515e-22)
(1.01196 -0.0205834 -3.2856e-22)
(1.0173 0.00805211 3.39078e-22)
(1.01707 0.00854989 0)
(1.01804 0.00869406 -8.00131e-23)
(0.79857 0.296224 3.96648e-21)
(0.791668 0.303889 5.20009e-22)
(0.772709 0.289284 -6.08535e-21)
(1.0571 0.0341923 -9.5288e-21)
(0.895885 0.451907 -5.43394e-21)
(0.926156 0.50248 -2.76242e-20)
(0.864123 0.474369 -6.93135e-21)
(0.903556 0.0794351 0)
(0.908479 0.0809383 0)
(0.903253 0.08608 0)
(1.00799 -8.38138e-05 -2.44835e-22)
(1.00933 -0.000124223 1.27703e-22)
(1.00764 -7.04755e-05 5.47089e-23)
(1.02764 0.0153426 6.3993e-21)
(1.02766 0.0146017 2.20344e-21)
(0.886709 0.159711 -2.22837e-21)
(0.87968 0.164102 0)
(0.880182 0.155209 -1.96134e-21)
(1.0539 0.0714083 2.22147e-20)
(1.05083 0.0711279 9.88506e-21)
(1.0279 -0.0142424 2.95304e-22)
(1.0302 -0.014457 -7.73726e-22)
(1.04862 0.0273703 1.56054e-21)
(1.04774 0.0259217 -2.99083e-21)
(1.04672 0.0276091 4.21361e-20)
(1.01673 0.00752525 -4.94435e-22)
(1.02159 0.0087177 0)
(1.02156 0.00884634 0)
(0.917731 0.195319 6.52374e-21)
(0.920273 0.191624 8.48667e-21)
(0.921515 0.197321 -8.10698e-21)
(0.95786 0.21155 8.94965e-21)
(0.954525 0.214848 -1.61947e-20)
(0.716803 0.0364349 -3.711e-21)
(0.698534 0.0520579 -3.27616e-21)
(1.02153 0.00852451 0)
(1.02139 0.00848025 0)
(0.914312 0.200997 5.16532e-21)
(0.911466 0.193904 -1.52381e-21)
(1.01184 0.00650485 2.33042e-23)
(1.0121 0.00582405 -1.71043e-23)
(0.946184 0.0799972 -1.52107e-20)
(0.98061 0.0915375 1.53811e-20)
(0.901479 0.0722422 0)
(0.895575 0.0779835 4.98466e-23)
(0.994104 0.186905 1.80138e-22)
(0.998243 0.188932 4.38927e-21)
(0.926512 0.180341 -4.51124e-21)
(0.928827 0.177406 -1.92379e-22)
(0.924669 0.176534 8.95034e-22)
(0.8424 0.103934 5.28965e-21)
(0.84958 0.112151 3.37918e-21)
(0.851153 0.107197 -3.11556e-22)
(1.01558 -0.00180993 -7.20499e-23)
(1.01535 -0.00162389 0)
(0.547013 0.107804 -1.65867e-21)
(0.545144 0.121789 -1.80938e-21)
(0.527104 0.105446 5.7554e-22)
(1.00718 0.0226698 -2.46003e-21)
(1.00596 0.0219243 8.08986e-21)
(1.00741 0.0211128 2.34932e-21)
(0.752463 0.334823 -5.56475e-21)
(0.735965 0.332756 -2.69335e-20)
(1.01553 -0.00101617 0)
(1.01528 -0.000570134 0)
(1.01154 0.0076017 3.61607e-22)
(1.01198 0.00845271 -6.0754e-22)
(1.00912 -0.0115691 0)
(1.00762 -0.010786 4.20116e-22)
(1.00892 -0.00977258 -8.38252e-22)
(0.728119 0.103358 6.70898e-22)
(0.715735 0.104321 1.52988e-21)
(0.731569 0.112828 -7.9285e-22)
(0.27454 0.0897317 -1.01316e-21)
(0.247024 0.0746778 2.49971e-21)
(1.02576 -0.001383 -3.4774e-22)
(1.02565 -0.00222967 -2.38882e-22)
(1.02662 -0.00218003 -2.12013e-22)
(0.548694 -0.235568 3.54564e-21)
(0.559836 -0.209012 -1.4004e-21)
(0.533466 -0.168485 -2.61189e-21)
(1.01787 -0.032299 -2.55597e-22)
(1.0203 -0.0350086 -1.01414e-22)
(1.0204 -0.0307994 -1.92246e-22)
(0.983486 -0.00735725 1.19514e-22)
(1.02203 -0.00570864 9.67958e-23)
(0.892223 0.163688 7.97139e-21)
(1.02721 0.00559737 -3.81072e-22)
(1.02823 0.00545971 -1.11591e-21)
(1.01261 0.00192482 6.93262e-23)
(1.01245 0.00187881 -2.20045e-22)
(1.01254 0.00187185 4.54056e-22)
(0.981151 0.0583814 3.99412e-21)
(0.980048 0.0530142 3.96588e-21)
(0.986545 0.0553907 3.10037e-21)
(0.97698 0.0615751 3.55358e-21)
(0.983653 0.0643034 1.91153e-21)
(0.7424 -0.0308217 1.41136e-20)
(1.03065 0.171182 -4.60568e-21)
(1.0339 0.174275 4.01668e-21)
(1.01136 -0.0207607 -2.05236e-22)
(0.944512 0.143059 -2.82972e-21)
(0.950864 0.140206 0)
(0.945186 0.147814 6.46354e-21)
(1.01067 0.000346773 9.70246e-23)
(1.00962 0.000387472 1.15553e-21)
(1.01126 0.000311352 -1.34508e-21)
(1.01496 0.00295955 -1.79545e-24)
(1.01532 0.00299142 -3.27093e-24)
(1.01489 0.00270239 -2.37338e-22)
(1.01499 0.00320737 1.5642e-24)
(1.01463 0.00292891 4.9227e-23)
(0.974824 0.0867419 0)
(0.921375 0.188444 -1.99715e-21)
(0.924015 0.183725 -5.48862e-21)
(0.918449 0.18433 -6.55608e-21)
(0.911692 0.206755 1.46855e-21)
(0.908637 0.213215 -3.62874e-21)
(0.904281 0.205943 -1.35114e-21)
(1.01834 0.0012401 2.27336e-21)
(1.01849 0.00140924 -1.35941e-21)
(1.01854 0.00117668 7.64953e-21)
(1.00699 5.55472e-05 2.78256e-25)
(1.00532 1.242e-05 -5.91307e-23)
(0.560216 -0.482321 -7.51618e-21)
(0.569952 -0.530629 9.46112e-22)
(0.564813 0.109875 1.19623e-21)
(1.01407 0.00215111 2.87566e-23)
(1.01429 0.00232409 1.25611e-24)
(1.0144 0.00217418 6.37975e-24)
(1.01385 0.00197085 1.4784e-22)
(1.01373 0.00210439 -1.07424e-24)
(1.00575 -0.000240688 3.8623e-23)
(1.00294 -0.000100296 0)
(1.01502 0.00344494 0)
(1.01541 0.00355036 -4.84479e-24)
(1.01499 0.00370262 1.01902e-23)
(1.01469 0.00335785 -2.33421e-24)
(0.79131 0.126888 -2.75374e-21)
(0.804209 0.131632 -1.55261e-21)
(0.856831 -0.00404367 7.04501e-21)
(0.876177 -0.00499546 -1.08917e-20)
(0.969868 0.022916 1.44747e-20)
(1.02367 0.00740398 5.83725e-22)
(1.02285 0.00713148 2.11748e-22)
(1.02342 0.0069552 2.47382e-22)
(1.01179 0.000759934 -3.69661e-24)
(1.01191 0.000902791 -9.22827e-24)
(1.01189 0.00101947 1.56713e-23)
(0.930196 0.122015 -3.93309e-21)
(0.926326 0.117905 -2.55394e-21)
(0.931914 0.117101 -3.20321e-21)
(0.736475 0.142615 -1.40599e-22)
(0.734509 0.131881 3.44674e-21)
(0.749378 0.141498 1.6438e-21)
(1.00803 9.68482e-05 0)
(1.00684 0.00010566 0)
(1.0068 8.0686e-05 0)
(1.01816 0.00133989 4.68688e-21)
(1.01819 0.0011118 -2.14556e-21)
(0.568377 -0.305722 1.11645e-21)
(0.543051 -0.275282 1.02173e-21)
(0.901535 0.393832 -1.08609e-20)
(0.891179 0.389963 -1.11675e-20)
(0.927297 0.399183 -1.72674e-20)
(0.924909 0.190392 8.4461e-22)
(0.938983 0.146448 -2.06191e-21)
(0.941775 0.138926 -1.7002e-21)
(0.870185 0.105112 -1.17297e-22)
(0.865401 0.0979719 -8.29056e-22)
(0.861132 0.105741 -7.41869e-23)
(1.01567 0.00277465 -3.32988e-22)
(1.01587 0.00297295 -2.28886e-23)
(1.14414 0.213508 8.50141e-21)
(1.17037 0.271623 -1.53228e-20)
(0.933382 0.126368 6.41667e-22)
(0.927766 0.127184 4.38638e-21)
(1.00918 -0.021695 1.63071e-21)
(1.00812 -0.024268 3.4424e-22)
(0.989943 0.152853 -4.28236e-22)
(0.986427 0.154904 -4.11171e-21)
(0.990367 0.157165 -2.36661e-21)
(1.02576 -0.000669574 4.69787e-22)
(1.02493 -0.000609888 1.0018e-21)
(0.865729 0.000271034 2.05784e-20)
(1.02909 0.00363965 -3.73139e-21)
(1.02864 0.00372126 -1.95394e-21)
(1.02908 0.0041788 4.62653e-21)
(0.956879 0.024773 9.67044e-22)
(0.952715 0.0235182 3.88486e-22)
(0.954367 0.0278419 -2.0274e-21)
(0.91468 0.0796127 -3.43003e-22)
(0.92134 0.0785181 -6.57384e-22)
(0.916285 0.0737646 -2.26248e-21)
(1.02406 0.00847853 -4.78627e-23)
(1.02384 0.00782232 -4.76792e-22)
(1.02321 0.00815422 -2.59737e-22)
(1.00353 -2.61765e-06 5.29811e-22)
(1.01897 0.0166056 -9.01791e-22)
(0.985828 0.0226858 -2.855e-22)
(0.988865 0.0193586 1.25783e-21)
(0.98414 0.0175551 2.32401e-21)
(1.01833 -0.00410098 -9.60282e-23)
(1.01813 -0.00407194 0)
(1.01883 -0.00448851 7.13674e-23)
(0.54619 0.149057 0)
(0.543788 0.13539 -2.33584e-22)
(0.524074 0.13363 1.20589e-24)
(0.972079 -0.479876 -1.8375e-20)
(0.953715 -0.465638 -6.85697e-21)
(0.940091 -0.486186 2.78291e-21)
(1.01942 -0.00525748 0)
(1.01909 -0.00505259 -4.33107e-22)
(1.01932 -0.00500615 0)
(1.01387 0.00176916 -7.10978e-26)
(1.01362 0.00176697 -6.83157e-26)
(1.01079 0.0104306 1.45877e-22)
(1.00937 0.0103782 0)
(1.01414 0.00176228 0)
(1.01385 0.00158058 0)
(1.02965 0.00353944 -1.67641e-21)
(1.01538 0.000232077 3.82608e-23)
(1.01111 0.000161207 4.5302e-21)
(0.988152 0.0638726 0)
(0.986586 0.0668338 0)
(0.984391 0.0639819 0)
(1.01976 -0.00556591 1.2596e-22)
(1.01949 -0.00550603 -1.98533e-22)
(0.198524 0.0952815 -1.40033e-20)
(0.22127 0.110542 -9.63784e-22)
(0.941404 0.0797452 -3.65741e-21)
(0.941858 0.0964153 -4.27597e-21)
(1.0203 0.00688685 2.90595e-21)
(1.0203 0.00687768 -2.35764e-21)
(1.02008 0.00668538 5.61108e-21)
(0.998599 0.0180463 -5.56558e-23)
(0.99669 0.0207815 1.29117e-21)
(1.00022 0.0209824 -2.26646e-21)
(0.807213 0.211961 -1.1263e-21)
(0.795981 0.202866 9.3289e-22)
(0.793675 0.220088 1.39457e-21)
(1.01241 0.000542677 -6.76513e-23)
(1.01243 0.000234208 -4.24099e-23)
(1.01237 0.000145911 0)
(0.993119 -0.191237 0)
(0.967763 -0.214346 -3.68546e-21)
(0.970179 -0.174211 -9.62966e-23)
(0.569646 0.164784 0)
(0.549979 0.162959 0)
(1.01241 0.000799836 7.47902e-24)
(1.0125 0.000942203 -1.72471e-22)
(0.720637 0.123523 1.8163e-21)
(0.706667 0.123449 1.72827e-21)
(1.01846 -0.0040567 4.81044e-23)
(1.01787 -0.0037774 -5.44931e-23)
(0.990166 0.179728 -1.26408e-20)
(1.0047 0.177201 3.76699e-21)
(1.00802 -7.6849e-05 -2.85169e-23)
(1.00582 -4.33553e-05 -4.74102e-23)
(1.05451 0.00262588 5.46773e-23)
(1.05444 0.00579116 -6.34878e-22)
(1.0514 0.00406339 5.6222e-23)
(1.02441 0.00895582 7.75801e-23)
(1.02498 0.00863699 4.32943e-22)
(1.01496 0.00269275 -7.00021e-22)
(1.01475 0.00259501 -6.32624e-22)
(1.01478 0.00253057 5.55796e-22)
(0.948593 0.184455 -4.28142e-21)
(0.950234 0.183076 -1.11944e-20)
(0.950319 0.185479 3.06833e-21)
(1.00852 0.000241979 7.72378e-22)
(1.00847 0.000210178 -1.69163e-21)
(1.00609 0.000123271 6.35773e-22)
(0.847317 -0.421743 -2.52307e-21)
(0.800516 -0.402426 4.20429e-21)
(0.996442 0.0168628 4.13683e-22)
(0.995055 0.0153076 1.21154e-21)
(0.997367 0.0149721 -1.4925e-21)
(1.02082 -0.0290704 0)
(1.0251 -0.0347148 0)
(0.57851 -0.118822 -5.71396e-22)
(0.582072 -0.176831 -2.34673e-21)
(0.610844 -0.140055 -3.68483e-21)
(0.193545 0.0829763 -2.27831e-22)
(1.00892 0.000134414 4.95706e-24)
(1.00885 0.000120757 -4.67394e-24)
(0.972855 0.101853 5.5703e-22)
(0.972712 0.105722 0)
(0.976836 0.104016 -6.85507e-21)
(0.990376 0.0313445 3.99823e-21)
(0.987619 0.0269737 -1.73745e-21)
(0.992833 0.0275738 8.74983e-22)
(1.0139 0.00455939 1.84152e-21)
(1.01381 0.00338885 9.00918e-22)
(1.01479 0.00393616 1.03243e-21)
(0.993585 0.0360788 -1.48568e-21)
(0.99834 0.03472 9.07081e-22)
(1.01621 0.0114636 3.29893e-21)
(1.01548 0.0118382 6.83072e-21)
(1.01636 -0.00271646 2.58404e-23)
(1.01682 -0.00309224 -2.70157e-24)
(1.01646 -0.00287694 -4.31626e-24)
(1.00962 0.000268859 0)
(1.00836 0.000208542 7.36065e-22)
(0.865155 0.147166 2.17011e-21)
(0.865077 0.156557 -3.078e-22)
(0.873439 0.15096 -4.59445e-23)
(1.09867 -0.0849611 3.08362e-21)
(1.1045 -0.073675 -1.55463e-21)
(1.11383 -0.050598 -1.00186e-21)
(0.960663 0.0270036 -6.25866e-23)
(0.959631 0.0227178 1.0513e-21)
(1.01666 0.0120951 -1.54623e-21)
(1.01686 0.0112508 -1.76351e-21)
(1.01801 0.00136758 5.34969e-21)
(1.01788 0.00119673 7.70961e-22)
(1.01781 0.00138335 7.27239e-21)
(0.667354 0.305796 -3.19041e-20)
(0.683031 0.315491 -3.29971e-21)
(0.73303 0.097045 0)
(0.701597 0.0920091 1.1065e-21)
(1.01386 0.00200053 8.92932e-23)
(1.01383 0.00197138 -3.86252e-22)
(1.01367 0.00200845 8.68069e-23)
(1.03898 -0.0346128 -1.04941e-22)
(1.04511 -0.0392297 -1.01957e-22)
(1.04472 -0.0318127 3.68546e-21)
(1.01305 0.0050225 -1.47331e-21)
(0.946314 0.11064 -4.7758e-22)
(0.938112 0.109178 -9.95625e-22)
(0.945044 0.101984 -1.08437e-21)
(1.03278 0.239781 0)
(1.0302 0.246691 2.05987e-20)
(1.03881 0.243853 0)
(0.927342 0.112349 -2.06937e-21)
(0.91316 0.11326 4.78411e-21)
(0.914988 0.10318 8.85674e-22)
(0.92218 0.434252 2.21636e-20)
(0.877977 0.424661 1.81168e-20)
(0.990032 0.0268966 0)
(0.993769 0.0312224 0)
(0.997566 0.0303602 1.29465e-22)
(0.76018 0.0628667 0)
(0.757749 0.0457134 -3.31919e-21)
(1.00029 0.0157602 1.35993e-21)
(0.997461 0.0148596 9.66517e-22)
(0.906658 0.234433 -1.11174e-21)
(0.903366 0.229406 -8.52677e-21)
(0.94957 0.118178 4.85238e-22)
(0.953484 0.112571 -3.09993e-22)
(0.952324 0.235656 -1.15785e-21)
(0.957814 0.232575 -1.1432e-22)
(1.01512 0.000344537 8.28859e-21)
(1.01041 3.31979e-05 1.90342e-21)
(1.05789 0.00117378 0)
(1.06162 0.00351826 2.34412e-22)
(0.599179 -0.328798 1.14109e-22)
(1.01495 0.00967478 -1.39285e-22)
(1.0157 0.00930242 1.51202e-23)
(1.01569 0.0103633 6.87532e-23)
(1.05114 -0.0736692 -2.94648e-22)
(1.06185 -0.0772929 4.28242e-21)
(0.994663 0.182505 1.47237e-23)
(0.990147 0.184684 -3.84649e-21)
(1.00819 0.000101583 -5.6363e-24)
(1.0078 7.73048e-05 -3.10822e-24)
(1.00597 3.1388e-05 -5.78992e-23)
(0.817253 0.301432 -3.22809e-21)
(0.801061 0.288494 -1.79085e-21)
(1.014 0.00110795 -5.90635e-22)
(1.01402 0.00128007 1.07312e-21)
(1.01387 0.00115714 1.22723e-21)
(1.0819 0.0961419 3.47646e-23)
(1.08471 0.0990613 -3.28613e-20)
(1.01471 -0.00699278 5.55842e-23)
(1.01524 -0.00728373 -1.96135e-23)
(1.01519 -0.00782707 6.13769e-23)
(0.63163 0.111868 2.27575e-21)
(0.652167 0.100091 4.17206e-21)
(1.01148 0.00123957 4.30606e-22)
(1.01138 0.00122245 1.17794e-21)
(1.01137 0.00115911 2.47682e-22)
(0.963535 0.0287254 -3.18046e-23)
(0.966265 0.0267119 2.17431e-23)
(0.966627 0.0303251 8.06627e-22)
(1.01502 -0.0328597 -8.8061e-22)
(1.01647 -0.0295969 -1.98235e-22)
(0.986189 0.0204947 1.36715e-22)
(0.98714 0.0223918 3.22889e-23)
(1.00955 0.000292712 0)
(1.00872 0.000199039 -6.65482e-24)
(0.993668 0.158908 3.9574e-22)
(0.997289 0.161083 3.81826e-22)
(0.997547 0.156647 -6.48199e-21)
(0.934733 0.382162 -8.18848e-21)
(0.950262 0.37895 2.23271e-20)
(0.933879 0.373672 2.02155e-20)
(1.02305 0.00437254 2.03631e-21)
(1.02342 0.00398815 0)
(1.02317 0.00430408 -1.14166e-21)
(1.01407 0.0100013 -1.11728e-22)
(1.01436 0.00898197 7.10043e-23)
(0.846682 0.166888 6.51019e-21)
(0.855762 0.163781 -7.13587e-23)
(0.927855 0.393078 3.689e-21)
(0.93292 0.389396 -2.62857e-20)
(0.951838 0.394407 1.45634e-20)
(0.95627 0.292073 -2.20505e-21)
(0.957952 0.276499 1.2074e-20)
(0.970939 0.290063 -1.76621e-20)
(0.748099 0.252008 0)
(0.777857 0.212536 -1.97305e-20)
(1.01245 0.00107603 -2.33263e-23)
(1.01232 0.000698908 -6.48164e-23)
(1.0241 0.006158 1.03276e-22)
(1.02334 0.00604238 -6.46449e-22)
(1.02372 0.00586598 4.80814e-22)
(0.881333 0.386203 4.22355e-20)
(0.87024 0.380556 -2.341e-21)
(0.909082 0.391513 1.99721e-20)
(0.773108 0.0684057 1.58792e-21)
(0.758202 0.0791003 0)
(1.01258 0.00147413 -2.08187e-23)
(1.01248 0.00140505 -8.27482e-23)
(0.987321 0.0361344 -2.93085e-21)
(1.02083 0.00713286 4.86528e-21)
(1.02091 0.00721221 -4.77753e-22)
(1.02085 0.00696645 -4.40343e-22)
(1.02135 -0.0340243 -8.27556e-23)
(1.02754 -0.0333775 -1.71192e-21)
(1.02463 -0.0405566 7.63917e-22)
(0.960981 0.0310746 -5.11719e-22)
(0.930136 0.166395 3.44515e-21)
(0.93347 0.163919 2.46442e-21)
(0.929486 0.161807 5.88616e-22)
(0.833377 0.0483385 2.26665e-21)
(0.842006 0.0407708 1.87614e-21)
(0.845749 0.0521617 4.26629e-22)
(1.00534 -0.163985 6.34133e-21)
(1.01803 -0.196442 -1.11078e-21)
(1.07114 0.0985454 4.30092e-21)
(1.06789 0.0999345 3.70661e-21)
(1.0705 0.102463 -2.57213e-21)
(0.853168 0.129856 -3.14883e-21)
(0.842601 0.123771 -2.28184e-22)
(0.844769 0.131158 -2.78005e-21)
(1.01401 0.00189765 -1.58152e-22)
(1.01383 0.00196295 -1.96676e-22)
(1.0229 0.00435813 -1.32678e-21)
(1.02267 0.00472635 1.71156e-21)
(0.992818 0.0464111 1.53845e-21)
(0.997194 0.0490691 1.68124e-21)
(0.951158 0.192047 0)
(0.952313 0.193534 1.49808e-22)
(0.950064 0.193631 1.4231e-20)
(1.00704 6.97195e-05 1.36053e-24)
(1.0051 4.65258e-05 0)
(1.00726 8.01017e-05 1.86522e-23)
(0.812419 0.0968228 -1.93561e-21)
(1.07445 0.097626 0)
(1.0714 0.0953823 0)
(0.880374 0.144197 4.48443e-22)
(0.883632 0.140603 0)
(1.02186 0.00526041 -8.42232e-22)
(1.02169 0.00550552 0)
(0.795454 0.0552461 -5.71115e-21)
(0.78808 0.0665208 1.74114e-21)
(0.804216 0.0673276 0)
(1.03382 -0.0368872 0)
(1.03465 -0.0306535 0)
(1.00551 -0.31885 0)
(1.02606 -0.26211 5.42131e-21)
(0.999015 -0.296638 -1.17199e-20)
(1.03048 -0.00600258 -3.74929e-22)
(1.02946 -0.00772101 -4.82386e-23)
(1.02882 -0.00590279 -4.76904e-23)
(0.917819 0.207178 -3.10262e-21)
(0.816737 0.220952 -1.07847e-21)
(1.0128 -0.035712 -3.93888e-22)
(1.0116 -0.0314611 2.52374e-21)
(1.02029 0.00683771 -2.21198e-21)
(1.02046 0.00710524 1.27456e-21)
(0.937732 0.187283 -1.05546e-20)
(0.940048 0.186674 -3.42441e-21)
(0.937742 0.184679 -1.06462e-20)
(1.01625 -0.0102575 -2.52637e-24)