/*--------------------------------*- C++ -*----------------------------------*\
| =========                 |                                                 |
| \\      /  F ield         | OpenFOAM: The Open Source CFD Toolbox           |
|  \\    /   O peration     | Version:  v2012                                 |
|   \\  /    A nd           | Website:  www.openfoam.com                      |
|    \\/     M anipulation  |                                                 |
\*---------------------------------------------------------------------------*/
FoamFile
{
    version     2.0;
    format      ascii;
    class       surfaceVectorField;
    location    "850";
    object      Uf_0;
}
// * * * * * * * * * * * * * * * * * * * * * * * * * * * * * * * * * * * * * //

dimensions      [0 1 -1 0 0 0 0];


internalField   nonuniform List<vector> 
20673
(
(1.05586 0.134183 -4.2027e-21)
(1.0595 0.132977 7.68324e-21)
(1.05628 0.130139 -4.82366e-21)
(1.01213 0.0453174 -1.17538e-21)
(1.01114 0.0442966 -2.17412e-21)
(1.0109 0.0461995 8.01411e-22)
(0.312019 -0.0168421 9.21596e-21)
(0.333955 -0.0174168 -2.13085e-21)
(0.349194 -0.0168713 9.60895e-21)
(1.07313 0.0190563 -5.05806e-21)
(1.07242 0.019809 5.61072e-22)
(1.07193 0.0189598 -7.451e-22)
(0.995896 -0.000728908 -1.87556e-21)
(0.995779 -0.00119665 1.26304e-21)
(0.995377 -0.000797801 3.60665e-21)
(0.369519 -0.00282399 -6.75377e-20)
(0.358448 -0.0297967 -1.31292e-19)
(0.340928 -0.00358751 -8.48475e-20)
(0.276027 -0.0141883 -8.56624e-21)
(0.273514 -0.0150258 2.29361e-20)
(0.30218 -0.0154408 5.65142e-21)
(0.35498 -0.0166719 1.76e-20)
(0.324079 -0.0166043 1.3005e-20)
(0.336676 -0.0167772 -1.19787e-22)
(0.285991 -0.0295064 0)
(0.266555 -0.0288911 -2.42031e-20)
(0.242808 -0.0272117 -1.26797e-20)
(1.08338 0.160571 -5.52608e-21)
(1.08808 0.161311 2.69126e-20)
(1.08554 0.16561 -1.92709e-21)
(1.13136 0.0361755 -1.12731e-20)
(1.1309 0.0355473 -4.49667e-20)
(1.12762 0.0357462 -4.25573e-20)
(1.1164 0.0269044 -7.27212e-22)
(1.11725 0.0268357 -6.09553e-22)
(1.1165 0.0276367 1.34409e-20)
(1.07413 0.019481 -4.17644e-21)
(-0.0272737 0.000641875 -1.65733e-20)
(-0.012194 -0.00122729 1.89864e-20)
(-0.0307656 -0.00085453 2.43548e-21)
(0.955833 0.0853118 -3.04262e-21)
(0.952057 0.0841243 -1.33902e-20)
(0.955519 0.0811082 1.47084e-20)
(0.976931 0.0850152 0)
(0.975333 0.0821525 7.37367e-21)
(0.979032 0.0818525 7.21778e-21)
(1.00422 0.0486873 3.94209e-21)
(1.00566 0.0487819 3.69582e-22)
(1.00487 0.0472439 -8.99661e-23)
(1.11128 0.0721209 4.44639e-21)
(1.11126 0.0737268 2.57201e-20)
(1.11296 0.0723966 1.04262e-20)
(1.11643 0.0259417 1.21541e-20)
(1.11538 0.0267148 0)
(1.00107 0.00428356 -8.94865e-22)
(1.00111 0.00411423 -3.39174e-22)
(1.00095 0.00392729 -3.18327e-21)
(0.999954 0.00042328 -2.30021e-21)
(0.999927 0.00059185 7.77746e-21)
(0.999957 0.00045377 4.87431e-21)
(0.274902 -0.0146649 -1.21825e-20)
(0.253884 -0.0152414 -9.43721e-21)
(1 0.00602147 5.04939e-21)
(0.999975 0.00639333 -3.66884e-23)
(1.00013 0.00635924 4.92889e-21)
(0.38056 -0.0177328 6.73616e-21)
(0.389148 -0.01776 5.27879e-21)
(0.992637 0.01064 5.77167e-21)
(0.992174 0.0102743 1.28237e-20)
(0.992223 0.0111325 1.10023e-20)
(0.299057 -0.0146446 -1.12199e-20)
(0.276997 -0.0136481 -4.72814e-21)
(0.27541 -0.0145499 3.33551e-21)
(0.783097 0.00338556 5.15558e-21)
(0.773753 0.00810022 1.47265e-20)
(0.77597 -0.00349423 -1.78851e-20)
(0.749249 0.083313 -8.99147e-21)
(0.747012 0.0953139 -2.16195e-21)
(0.738867 0.0854265 2.96209e-20)
(0.683522 0.490525 -9.57733e-21)
(0.712541 0.500756 2.76079e-20)
(0.691405 0.531697 3.21227e-20)
(1.13229 0.128846 -2.48536e-20)
(1.13253 0.125483 -1.07691e-21)
(1.1358 0.126947 -1.58598e-20)
(1.07218 0.127439 -5.95778e-21)
(1.06926 0.12909 -5.61413e-21)
(1.06928 0.125374 6.75174e-21)
(1.03588 0.099555 -2.6051e-22)
(1.03332 0.0994115 7.82051e-22)
(1.03483 0.0968722 2.13777e-21)
(0.832726 0.0428748 -1.31899e-21)
(0.824773 0.0447375 -5.98557e-20)
(0.826965 0.0356003 1.01763e-20)
(0.905797 -0.0171886 2.73832e-21)
(0.908945 -0.0198445 -1.0173e-20)
(0.909728 -0.0157744 -1.0218e-20)
(0.989359 0.0062122 -8.04902e-22)
(0.988669 0.00672936 -9.14615e-21)
(0.989375 0.00718891 1.44651e-22)
(0.924078 0.0115055 -5.14333e-21)
(0.917966 0.00945285 1.62493e-20)
(0.864453 0.00644429 4.02349e-21)
(0.999938 0.00567293 -2.75193e-22)
(1.00008 0.00567735 -3.29508e-21)
(0.0736349 -0.0101491 -1.16079e-20)
(0.0573638 -0.00910919 -9.00331e-21)
(0.0645302 -0.0091596 -1.0231e-20)
(1.08097 0.0207783 4.48813e-21)
(1.08231 0.0207859 2.18697e-21)
(0.122323 0.00412664 0)
(0.105817 0.00492851 0)
(0.12413 0.00474008 1.28523e-20)
(1.00845 0.00104475 0)
(1.0089 0.00104523 0)
(1.008 0.000595678 -1.82302e-21)
(0.999986 0.000363538 -6.02434e-21)
(0.999996 0.000164547 2.04189e-21)
(0.999996 0.000190374 1.3034e-21)
(1.02607 0.00659083 9.98965e-23)
(1.02546 0.00659902 1.60558e-22)
(1.02559 0.00613467 -1.2811e-22)
(0.681711 0.151348 7.63261e-21)
(0.696963 0.159402 -4.97987e-20)
(0.680233 0.17171 -1.37079e-20)
(1.03435 0.0360564 5.98907e-22)
(1.03494 0.0371199 6.62543e-23)
(1.03558 0.036426 1.73444e-21)
(0.886688 -0.00330566 7.16151e-21)
(0.885951 -0.00803747 1.23066e-20)
(0.891067 -0.00620725 0)
(1.11161 0.0701444 -1.92364e-20)
(1.10954 0.0713792 -2.44202e-20)
(1.12158 0.0566505 8.51226e-21)
(1.12045 0.0573453 -1.04845e-20)
(1.12045 0.0559576 1.46087e-20)
(0.0891988 0.0482479 4.07912e-20)
(0.0864354 0.0819225 -1.13016e-19)
(0.115923 0.0632829 -6.67403e-20)
(1.00297 0.000725163 -4.8879e-22)
(1.00326 0.000662794 -4.59664e-21)
(1.0032 0.00101837 -1.4893e-21)
(1.07823 0.0504944 0)
(1.07851 0.0515274 -1.75854e-21)
(1.07956 0.0506071 0)
(0.963567 -0.000579559 -5.72194e-21)
(0.962564 -0.00215239 -2.6766e-21)
(0.96178 -0.000125685 -1.56619e-20)
(0.0879731 0.0182865 -1.75077e-20)
(0.0520695 0.0381389 2.38969e-19)
(0.902339 -0.0144344 1.84625e-20)
(0.901719 -0.0190518 -2.46709e-20)
(1.0036 0.050021 -1.74889e-21)
(1.0027 0.048364 -2.29003e-22)
(1.06944 0.065525 -5.61906e-21)
(1.06821 0.0667323 0)
(1.07019 0.0674032 -1.68777e-22)
(1.13169 0.0368754 1.91143e-20)
(1.13115 0.036636 2.07448e-20)
(0.989293 0.0261609 -1.75063e-21)
(0.989613 0.0247412 4.91465e-22)
(0.990473 0.0259576 -1.84702e-21)
(1.05588 0.0649998 -2.2794e-22)
(1.05721 0.0664898 2.44503e-21)
(1.05513 0.0667946 -3.40808e-22)
(1.03312 0.0356738 -4.91218e-22)
(1.03365 0.0349689 -1.43129e-22)
(0.623072 0.071097 -4.85226e-21)
(0.479724 0.048052 -3.34872e-20)
(0.532546 0.0547784 1.12503e-21)
(1.0135 0.0450685 2.1235e-21)
(1.0131 0.0469594 3.23691e-21)
(-0.0275201 0.00241385 2.05084e-20)
(1.00104 0.00443869 2.54273e-21)
(1.0012 0.00464231 1.70554e-22)
(0.376078 0.0317248 9.65073e-20)
(0.40026 0.00300648 1.46854e-19)
(1.13684 0.391203 8.64567e-20)
(1.10998 0.367599 1.18902e-21)
(0.896796 0.297281 2.6949e-20)
(0.995616 -0.00500547 7.26666e-21)
(0.995134 -0.00500636 7.48723e-21)
(0.987373 -0.00798427 3.26952e-21)
(0.988197 -0.00787282 7.53894e-21)
(1.13595 0.0469191 -1.97048e-21)
(1.13551 0.0464663 0)
(1.13606 0.0463651 -2.79976e-20)
(1.02608 0.136702 -6.21812e-22)
(1.03044 0.137521 3.7591e-21)
(1.0266 0.141795 -1.14206e-21)
(0.996378 -0.000645188 -2.10196e-23)
(0.996007 -0.000246141 -4.64129e-21)
(0.332091 -0.031153 9.78069e-21)
(0.305435 -0.029943 -1.42378e-20)
(-0.0642635 -0.0152659 -1.75998e-20)
(-0.0472062 -0.0172214 -1.61639e-20)
(-0.0526874 -0.0168928 1.77865e-20)
(0.993263 0.0109692 -8.72156e-21)
(0.993161 0.00998537 2.24059e-21)
(0.0870593 0.115596 -6.28645e-20)
(0.121455 0.13637 -7.04479e-20)
(0.0885662 0.15402 1.53548e-20)
(1.11974 0.0207165 1.02465e-20)
(1.11891 0.0204078 1.16005e-20)
(1.11885 0.0212108 -2.8266e-21)
(-0.0656561 -0.00839509 -2.39998e-20)
(-0.0486086 -0.0106411 2.26585e-20)
(-0.0595009 -0.00818937 3.88257e-20)
(1.04792 0.0446433 2.53826e-21)
(1.04886 0.0455972 1.04094e-21)
(1.04743 0.0458919 1.21646e-21)
(0.278295 -0.0114678 -4.56758e-21)
(0.276918 -0.012547 -1.11861e-20)
(0.299991 -0.0129085 -4.8895e-21)
(0.999849 0.000958456 -9.90369e-21)
(0.999771 0.00110547 -1.51054e-22)
(0.999793 0.00118574 -4.7944e-21)
(0.999879 0.00202449 2.47763e-21)
(0.999862 0.00226775 -8.63805e-22)
(0.999914 0.00201073 1.22369e-21)
(0.996007 -0.00452517 -1.41556e-21)
(0.384627 0.058065 -2.03677e-20)
(0.39323 0.0879016 4.89893e-21)
(0.415324 0.0659324 0)
(0.0920114 -0.0115162 9.94371e-21)
(0.0850853 -0.0116183 -6.59509e-24)
(-0.036461 0.00394404 -5.50927e-20)
(-0.0765474 -4.26291e-06 -1.32015e-21)
(-0.0656282 3.35348e-05 -8.12934e-20)
(1.0469 0.0436583 -1.81763e-21)
(1.04831 0.043466 1.11773e-21)
(1.00005 0.00316292 2.02073e-21)
(1.0001 0.00314943 -4.91382e-21)
(1.00005 0.0028554 2.16552e-21)
(1.14002 0.413595 2.60178e-22)
(1.16425 0.41507 -7.86713e-21)
(1.07768 0.049216 -6.78966e-21)
(1.07663 0.0502275 3.25324e-21)
(1.02662 0.00663684 -4.95178e-22)
(1.02648 0.00711003 -3.50545e-22)
(0.00525413 -0.0176098 -4.44409e-21)
(-0.0130498 -0.0162882 -1.69159e-20)
(-0.00459874 -0.0163009 2.43624e-21)
(1.11789 0.150711 1.75973e-21)
(1.11348 0.15147 2.05449e-20)
(1.11535 0.15501 1.53484e-20)
(1.01922 0.0294292 -1.52304e-21)
(1.01981 0.0288629 1.54571e-21)
(1.01881 0.028448 -1.38675e-21)
(0.964321 0.0435771 -1.10811e-20)
(0.962067 0.0444082 0)
(0.964264 0.0461654 -5.92076e-21)
(1.14872 0.416107 4.09335e-21)
(1.10821 0.420134 -4.66019e-20)
(0.373051 -0.0565266 4.87949e-20)
(0.402109 -0.0620453 5.45776e-20)
(0.380139 -0.0908248 2.57514e-20)
(1.12754 0.0425358 0)
(1.12781 0.0430036 2.35381e-20)
(1.12792 0.0422738 0)
(1.1181 0.0602435 2.64084e-22)
(1.11938 0.0609912 -4.1785e-23)
(1.11808 0.0616757 2.35467e-23)
(1.12762 0.022976 -1.02396e-20)
(1.1258 0.0226932 -1.51355e-20)
(1.12655 0.0223247 -1.55629e-20)
(0.587069 0.0824174 5.17855e-21)
(0.607113 0.0696931 -2.26518e-20)
(0.607519 0.0950234 4.42476e-20)
(1.01096 0.00686542 -7.3122e-22)
(1.01147 0.00708678 -3.18775e-21)
(1.01117 0.00747364 -4.83472e-21)
(0.838704 -0.0282186 1.6356e-20)
(0.841474 -0.0203334 7.80818e-20)
(0.84637 -0.0267893 1.9062e-20)
(0.666731 0.143665 -2.5609e-20)
(0.684584 0.137072 -1.98034e-21)
(1.05699 0.0435302 8.23307e-23)
(1.05824 0.0439959 4.97945e-21)
(1.05778 0.0424909 4.95804e-21)
(1.01529 0.0155838 1.6111e-21)
(1.01548 0.0149959 1.20815e-21)
(1.01595 0.0157543 2.84604e-22)
(0.307955 -0.0288605 -1.73029e-20)
(0.302271 -0.029021 5.49373e-21)
(0.3601 -0.0266642 6.12168e-21)
(0.78137 0.43526 2.88771e-21)
(0.754709 0.450638 2.26612e-21)
(0.789736 0.459202 -1.67355e-20)
(1.12261 0.0561844 3.00077e-21)
(1.12252 0.0575136 1.44637e-20)
(1.00722 0.0488917 -3.36426e-21)
(1.00672 0.0504925 -1.62516e-21)
(1.06885 0.137076 -4.47186e-22)
(1.06561 0.138529 0)
(1.06889 0.141103 0)
(-0.104476 -0.0188772 5.33848e-21)
(-0.128378 -0.0186745 4.28934e-21)
(-0.117686 -0.0186468 -1.71111e-21)
(0.134754 0.00330151 0)
(0.118541 0.00461815 4.5769e-22)
(1.12117 0.0265044 -1.04074e-20)
(1.12124 0.0259585 -1.57135e-20)
(1.12188 0.0264684 -1.50484e-20)
(0.306569 -0.0290966 1.29102e-20)
(0.261918 -0.0311124 -1.18256e-22)
(0.946564 -0.00505236 1.71013e-20)
(0.944888 -0.00318205 -8.03077e-21)
(0.944515 -0.00613015 9.1328e-21)
(0.0946296 -0.208503 8.06124e-20)
(0.105845 -0.179224 1.1323e-19)
(0.0677728 -0.182946 -3.89143e-20)
(0.998783 0.0113269 0)
(0.998706 0.0119605 -4.23565e-21)
(0.998409 0.01149 0)
(0.177726 0.0246421 0)
(0.208249 0.00784144 -7.156e-21)
(0.208633 0.0429646 0)
(0.062466 0.000513577 -5.56618e-21)
(0.0666064 0.000278336 2.0417e-20)
(0.0769864 -0.00142792 -1.69834e-20)
(0.903852 -0.00612324 1.22412e-20)
(0.900611 -0.00327623 2.34457e-20)
(0.905129 -0.00212476 9.86174e-21)
(0.999976 0.00056099 -2.32039e-21)
(0.999963 0.000529836 -2.3698e-22)
(1.13635 0.0475179 2.75406e-21)
(1.13409 0.0473175 -8.1543e-21)
(0.0471925 -0.00120747 1.28849e-20)
(0.0611834 -0.0024588 -4.83563e-21)
(0.0571801 -0.00234558 -1.88632e-20)
(0.752074 0.0720611 3.27921e-20)
(0.762641 0.0813488 1.20664e-20)
(1.00465 0.00066794 1.96465e-21)
(1.00488 0.000975856 2.20766e-21)
(1.00499 0.000579958 4.08939e-21)
(0.964781 0.0409483 7.38502e-21)
(0.966736 0.0427387 -1.76309e-20)
(1.02917 0.0371215 0)
(1.02961 0.0382448 -5.28988e-23)
(1.02849 0.0378398 0)
(1.00433 0.000674932 -1.31871e-21)
(1.00421 0.000331378 -5.05061e-21)
(1.02166 0.00383837 -1.60091e-22)
(1.02219 0.00367204 -3.68018e-23)
(1.02168 0.00330684 -1.16408e-22)
(0.344861 -0.057561 -1.03527e-20)
(0.123114 -0.00751369 -7.31296e-21)
(0.116669 -0.00627226 0)
(0.108546 -0.00503658 6.91917e-21)
(0.948435 -0.00726679 2.53202e-20)
(0.9491 -0.00434474 -7.63676e-21)
(1.03549 0.0380949 -1.20695e-21)
(1.03422 0.0377715 -7.45886e-22)
(0.999945 0.000384393 -5.1751e-21)
(0.999983 0.000272041 -7.41256e-21)
(1.15029 0.0695912 1.72892e-20)
(1.1711 0.0752835 0)
(1.11478 0.0615811 0)
(0.410762 -0.0183502 -1.59017e-20)
(0.372022 -0.0176353 -7.07145e-21)
(1.05522 0.138067 4.75613e-21)
(1.05221 0.134905 1.82402e-21)
(0.569997 0.0921568 4.46859e-20)
(0.571559 0.0648149 0)
(0.995018 -0.00451654 -1.10161e-21)
(0.994589 -0.00508578 8.86786e-21)
(0.902961 -0.0103014 6.98222e-21)
(0.907089 -0.00858607 8.88531e-23)
(0.994206 0.0183893 -9.17809e-21)
(0.995875 0.0195638 8.22017e-21)
(1.05149 0.025555 1.41736e-20)
(1.02506 0.0197837 3.05343e-22)
(1.02475 0.0202818 -3.21654e-22)
(1.02423 0.019502 6.01123e-23)
(0.958864 0.0111343 -3.02465e-21)
(0.956395 0.011681 2.03978e-20)
(0.957563 0.00892258 -6.21797e-22)
(0.650109 0.14588 2.82158e-20)
(0.630047 0.150646 -8.25259e-20)
(0.647148 0.167754 6.05522e-20)
(0.987044 -0.00721582 0)
(0.986538 -0.00798126 7.68115e-21)
(0.486434 -0.0220437 -6.76858e-21)
(0.426107 -0.0235927 -3.24354e-20)
(0.486284 -0.0218959 0)
(0.768165 0.531457 -8.49182e-22)
(0.776191 0.504738 3.46265e-22)
(0.744089 0.504942 5.99668e-21)
(0.964641 0.00123866 -2.36116e-21)
(0.965518 -0.000826361 3.40767e-21)
(1.02437 0.017155 8.50389e-23)
(1.02417 0.0176758 1.06059e-22)
(1.02364 0.0169016 1.78894e-25)
(1.0299 0.104291 0)
(1.02681 0.103899 0)
(1.02815 0.10761 -2.72331e-22)
(1.11338 0.0450895 -2.59791e-21)
(1.11446 0.0450886 -8.57428e-21)
(1.11343 0.0460545 1.59835e-22)
(0.119537 -0.228846 4.14963e-20)
(0.0796458 -0.24086 -9.85533e-20)
(1.12201 0.0364948 7.54632e-21)
(1.1227 0.0370103 8.47975e-21)
(1.12285 0.0361371 -5.17518e-21)
(0.986839 0.169561 0)
(0.99034 0.165652 -4.36453e-21)
(0.993502 0.170062 2.96526e-21)
(1.05632 0.0823319 -3.47446e-21)
(1.05416 0.0832421 9.42116e-23)
(1.05436 0.0806951 9.79835e-22)
(-0.00128907 0.0346608 0)
(-0.022119 0.0407953 4.91704e-20)
(-0.056365 0.0327261 3.96003e-20)
(1.02193 0.136174 -8.27954e-24)
(1.02509 0.13281 6.16109e-22)
(0.821323 0.00547506 -1.54863e-20)
(0.866286 0.0109025 -1.14064e-20)
(0.877618 0.0118667 -1.53419e-20)
(-0.0872696 -0.00747598 -2.35911e-20)
(-0.0707026 -0.00910973 -1.29633e-20)
(1.18477 0.0739189 -2.5991e-20)
(1.11048 0.0666484 1.44158e-20)
(0.933628 0.0298077 3.3097e-21)
(0.930556 0.0310069 -3.03541e-21)
(0.930973 0.0273601 2.84223e-21)
(0.789084 -0.0598685 -1.20516e-20)
(0.782842 -0.0518525 4.50853e-20)
(0.777734 -0.0633305 -1.80662e-20)
(0.999886 0.00145759 -3.74023e-21)
(0.999911 0.00145395 1.82145e-21)
(0.999927 0.00120892 -4.08458e-21)
(1.12722 0.0418043 -1.03909e-20)
(1.12674 0.0425644 0)
(1.12106 0.0272769 8.64665e-21)
(1.12028 0.0267101 2.66536e-20)
(1.12711 0.0232842 2.12486e-20)
(1.12784 0.0237026 5.37221e-21)
(1.05624 0.0444705 -3.10031e-21)
(1.0558 0.0430245 -1.83263e-21)
(1.11543 0.0525311 1.68889e-20)
(1.11534 0.0514704 -1.14319e-20)
(1.11666 0.0520078 6.14793e-21)
(1.02957 0.0300508 2.30545e-22)
(1.03014 0.030965 3.67786e-23)
(1.02897 0.0307043 -4.37505e-23)
(0.836185 -0.0348037 1.23989e-20)
(0.830867 -0.0281284 -4.07571e-20)
(1.00916 0.167925 -1.82023e-22)
(1.0033 0.166472 1.98792e-21)
(1.00837 0.162148 -1.69411e-21)
(-0.214926 -0.0128664 -4.43855e-20)
(-0.227512 -0.0118065 0)
(-0.204158 -0.0127888 0)
(1.12209 0.0242607 -8.78005e-21)
(1.12277 0.024403 5.27455e-22)
(1.12222 0.0249451 4.28302e-21)
(1.00122 0.0557672 0)
(1.00069 0.0574263 0)
(0.999325 0.0557727 0)
(0.551229 -0.0151631 3.18608e-21)
(0.5472 -0.0165198 7.2815e-21)
(0.6123 -0.0112861 1.29595e-20)
(0.977675 0.18402 9.82573e-21)
(0.974308 0.187889 6.86645e-21)
(0.981174 0.188839 1.07616e-20)
(0.12901 -0.00739629 -2.40346e-20)
(0.139793 -0.00832084 5.65459e-21)
(0.147597 0.00695935 0)
(0.146841 0.0440539 6.21276e-20)
(0.494985 -0.0215365 1.15665e-21)
(0.556723 -0.0175674 -1.47561e-20)
(1.00742 0.0276682 1.87874e-21)
(1.00792 0.0285211 3.37994e-21)
(1.00702 0.0283854 3.49752e-21)
(1.12206 0.150525 1.60656e-20)
(1.11998 0.147038 -2.48694e-20)
(1.07565 0.12956 1.39877e-21)
(1.07551 0.125866 9.49101e-21)
(1.02594 0.0200156 6.64645e-23)
(1.02531 0.0191855 -9.99789e-23)
(1.00001 0.00321138 3.9556e-21)
(1.00006 0.00351986 0)
(0.918009 0.0991845 -1.40968e-20)
(0.914909 0.0948344 0)
(0.920808 0.0952508 8.62932e-21)
(0.325262 -0.0156714 -8.13191e-21)
(0.32332 -0.0155183 -1.45687e-20)
(1.16997 0.164008 -2.96613e-20)
(1.17514 0.163066 3.5741e-20)
(1.17533 0.168087 -1.9247e-20)
(0.0191462 0.0352189 0)
(0.0978247 0.0544187 1.42444e-20)
(1.0901 0.0778794 -5.74474e-21)
(1.08911 0.0794328 -1.06648e-20)
(1.09125 0.0793902 4.81816e-21)
(1.12656 0.027427 -2.70323e-21)
(1.12644 0.0269566 -1.2461e-20)
(1.12777 0.02737 -1.39475e-20)
(1.05371 0.0299789 2.81711e-20)
(1.01222 0.0271553 -4.19639e-21)
(1.01432 0.0258792 1.18958e-20)
(0.00977372 0.00728828 -2.42354e-20)
(-0.00362137 0.00635583 3.06289e-20)
(1.16314 0.195168 1.72884e-20)
(1.1638 0.19032 8.52342e-21)
(1.16906 0.193713 9.3467e-21)
(0.998755 0.00567885 -1.12916e-20)
(0.998932 0.00540123 3.79566e-21)
(0.998762 0.00518379 -1.13535e-21)
(0.563311 0.00369222 4.62668e-20)
(0.567394 0.0236664 -1.69541e-20)
(0.543472 0.0162371 0)
(0.791751 0.000884621 5.64665e-21)
(0.789987 0.0117886 2.7634e-20)
(1.01028 0.00051057 -2.45504e-22)
(1.0098 0.000498372 0)
(1.01856 0.0299094 -7.06953e-22)
(1.01965 0.0304377 1.53526e-21)
(0.826716 0.406793 8.28189e-21)
(0.823086 0.382045 4.59966e-20)
(0.847211 0.390982 -3.46932e-21)
(1.13947 0.439908 -1.77985e-20)
(1.14547 0.424738 4.49841e-20)
(1.11903 0.426245 3.37785e-20)
(1.08078 0.0355174 5.03897e-21)
(1.08205 0.0355373 1.20854e-21)
(1.08146 0.0365731 1.45109e-21)
(1.00279 0.000862477 3.16021e-21)
(1.00278 0.000538833 -1.85008e-21)
(1.1136 0.0490814 3.04072e-21)
(1.11223 0.0493186 -1.95358e-22)
(1.11353 0.0503818 5.12461e-22)
(1.11345 0.043973 2.20751e-21)
(1.11219 0.0448717 -2.53048e-21)
(-0.0754417 -0.0139185 8.78384e-21)
(-0.0805217 -0.0137875 9.23749e-21)
(1.12732 0.0490113 -8.02398e-21)
(1.13275 0.0485034 -7.80116e-21)
(1.1618 0.0531567 0)
(0.98995 0.00591629 -4.65706e-22)
(0.989496 0.00553343 0)
(0.988143 0.0260725 0)
(0.988927 0.0272987 6.37923e-21)
(1.11691 0.0594778 1.32324e-20)
(1.11814 0.0587843 -1.5034e-20)
(0.314539 -0.0163534 -1.51585e-20)
(0.347464 -0.0164012 3.624e-21)
(0.337961 -0.0165625 -9.38321e-21)
(0.960844 0.0105396 8.43634e-22)
(0.960111 0.0127388 -8.06852e-21)
(0.269387 -0.0153128 7.02248e-21)
(0.264289 -0.015484 -1.2491e-20)
(0.294882 -0.0157467 2.02477e-21)
(-0.114427 -0.0109571 1.27994e-20)
(-0.0967014 -0.0119374 -9.91046e-21)
(-0.109819 -0.0106405 -1.72329e-20)
(1.12591 0.027776 6.49513e-21)
(1.1267 0.0281286 8.13691e-21)
(1.01476 0.015316 -8.47986e-22)
(1.0151 0.016022 -1.04758e-21)
(0.476166 0.323316 2.74629e-20)
(0.494118 0.357532 3.40418e-20)
(0.442623 0.356236 -5.12378e-21)
(1.11323 0.0572951 1.8397e-22)
(1.11448 0.0580088 -1.4209e-20)
(1.11311 0.0586503 -1.35883e-20)
(-0.191641 -0.0142686 0)
(-0.168726 -0.0162682 2.45454e-20)
(-0.181052 -0.0135403 0)
(0.999711 0.0162748 -3.94837e-21)
(1.00002 0.0168353 -2.32257e-21)
(0.999561 0.0170224 1.31907e-22)
(0.767064 0.0989255 -1.72053e-20)
(0.72618 0.0946455 0)
(1.00687 0.0266366 -3.19358e-21)
(1.00778 0.0268675 -5.2574e-21)
(1.13283 0.111335 -3.1699e-21)
(1.13073 0.109346 -9.48981e-22)
(1.13008 0.112064 1.5232e-20)
(1.00828 0.00136372 0)
(1.00804 0.000933607 2.1379e-21)
(0.0641875 -0.0135242 5.10906e-22)
(0.0483169 -0.0130892 -5.81041e-21)
(0.0597684 -0.0128965 -3.94958e-20)
(0.297377 -0.0287666 2.16163e-20)
(0.291854 -0.029014 1.30734e-20)
(0.347735 -0.0261264 0)
(0.975834 0.0879159 2.01322e-21)
(0.979416 0.0875258 9.85746e-21)
(1.09268 0.43256 2.31475e-20)
(1.12524 0.440839 -8e-23)
(1.10149 0.416619 0)
(1.05842 0.0836907 0)
(1.0581 0.0812184 -3.71607e-21)
(1.01401 0.0149618 7.96503e-22)
(1.01429 0.0144279 0)
(0.96901 0.0143924 5.32967e-21)
(0.917142 0.0119408 -4.43704e-21)
(1.12195 0.0236049 -1.14954e-22)
(1.12136 0.0241007 0)
(1.08908 0.0763728 -6.98756e-21)
(1.09098 0.0763733 4.98073e-22)
(0.391824 -0.0165811 1.3227e-20)
(0.361502 -0.0174089 -1.17888e-20)
(0.405119 -0.0161942 1.07872e-20)
(-0.120448 -0.00917271 3.04177e-20)
(-0.13512 -0.00869006 2.07464e-20)
(1.01269 0.00405566 -7.58584e-22)
(1.01319 0.00418723 0)
(1.01297 0.00361689 -1.4707e-21)
(1.03852 0.0994473 -1.9113e-21)
(1.03716 0.10233 -1.81521e-21)
(0.0178484 -0.0194796 2.91381e-20)
(0.0260651 -0.0193162 4.71741e-21)
(-0.0905827 0.00381497 1.50405e-20)
(-0.116901 0.00107664 -8.16745e-20)
(-0.0940223 0.00407213 -3.46472e-20)
(0.999872 0.00141149 4.75274e-21)
(0.99984 0.00168334 0)
(1.00486 0.00891297 -2.13785e-22)
(1.00524 0.00926736 -2.24989e-22)
(1.00496 0.00938238 5.0639e-21)
(0.143865 0.00559363 1.18165e-20)
(0.156541 0.00471138 -1.10631e-20)
(1.12894 0.0438332 -2.22768e-20)
(1.12862 0.0433493 1.1432e-20)
(1.12967 0.0433495 -1.35387e-20)
(1.00005 0.000109212 -1.75721e-21)
(1.00002 8.31109e-05 -1.54412e-21)
(1.00004 0.000136896 3.61226e-21)
(1.01956 0.0189738 0)
(1.02101 0.0194535 0)
(1.06822 0.0225828 -7.71932e-21)
(1.13357 0.0757767 0)
(1.13338 0.0738276 -6.32563e-21)
(1.13149 0.0750456 -1.40656e-20)
(0.798419 -0.0589966 -5.03435e-20)
(0.794565 -0.06928 -4.38086e-20)
(1.05631 0.119994 5.64406e-21)
(1.05814 0.123413 1.59115e-21)
(1.05961 0.119541 6.15898e-21)
(0.999891 0.00174146 1.79981e-21)
(0.999933 0.00146633 3.03535e-21)
(0.946374 0.190055 -1.38984e-20)
(0.948705 0.181695 -8.63742e-21)
(0.939635 0.184256 2.57489e-21)
(-0.0937466 -0.00994232 -2.65874e-20)
(-0.0919331 -0.00907487 4.36433e-21)
(-0.114324 -0.00740157 1.70286e-20)
(1.04821 0.0199895 -8.13182e-22)
(1.04894 0.0196636 -1.30106e-21)
(1.04927 0.0204881 -3.84029e-21)
(1.13203 0.163732 -1.92952e-23)
(1.12769 0.165531 0)
(1.12888 0.159985 0)
(0.55902 0.108779 4.62473e-20)
(0.57282 0.129615 -4.39993e-20)
(0.543601 0.132832 0)
(1.02874 0.0359946 -2.01056e-23)
(1.02983 0.0363232 -1.15605e-22)
(0.989954 0.0234642 6.03467e-21)
(0.988881 0.0235892 -4.42295e-23)
(1.1176 0.0359478 0)
(1.11862 0.0362869 -5.849e-21)
(1.11836 0.0352835 9.85154e-22)
(0.169078 0.00200082 1.08885e-20)
(0.158342 0.00305708 1.05634e-20)
(0.157512 0.00304429 -1.16465e-21)
(1.12123 0.0358537 9.59423e-21)
(1.12101 0.0368763 5.71882e-21)
(0.920202 0.103805 2.283e-21)
(0.914875 0.103896 -9.5497e-22)
(0.959497 0.0859463 -5.27647e-21)
(0.956438 0.0890494 3.29356e-21)
(1.00004 0.000235099 0)
(1.00004 0.000204766 3.2732e-22)
(1.00002 0.000137463 0)
(0.0338045 -0.000264634 2.69177e-22)
(0.0378063 -0.000251208 3.25685e-20)
(0.484457 -0.0079519 9.31419e-21)
(0.562426 -0.00515292 -1.11574e-20)
(0.562141 -0.00340604 1.04984e-20)
(0.955071 0.00941214 8.50934e-21)
(0.939642 0.00968185 7.57678e-21)
(0.90819 0.00908132 5.22987e-21)
(1.01343 0.0147171 -1.87463e-22)
(1.01382 0.01546 -1.43013e-22)
(-0.104128 -0.0146072 -8.41687e-21)
(-0.0849832 -0.0165194 6.81699e-21)
(-0.0931734 -0.0157097 1.74035e-20)
(-0.00767076 -0.00435465 0)
(-0.00517157 -0.00345608 0)
(-0.0229098 -0.00255145 3.38761e-20)
(0.764259 0.000679714 2.71498e-21)
(0.779516 0.00260041 1.51125e-21)
(0.276762 -0.0117038 0)
(0.259414 -0.0118764 0)
(1.12045 0.0211579 -9.84383e-21)
(1.12057 0.0204011 -7.08995e-22)
(0.999837 0.00200924 -3.94286e-21)
(1.00609 0.000786699 0)
(1.00573 0.000834774 0)
(1.00614 0.00123455 0)
(1.11182 0.0688103 2.11541e-21)
(1.11039 0.0680197 -1.19852e-20)
(1.11205 0.0672746 -4.74919e-22)
(0.0231443 -0.0119857 -1.38233e-20)
(0.010492 -0.0104489 -1.05246e-20)
(0.00741424 -0.0106626 -1.24128e-20)
(1.13281 0.0556097 0)
(1.13339 0.0566706 -7.84094e-21)
(1.13434 0.0553574 0)
(1.05449 0.0636038 3.17439e-22)
(1.05644 0.0633445 -2.75804e-21)
(1.11698 0.047966 -1.24867e-21)
(1.06052 0.0376679 -7.83479e-21)
(1.10607 0.0211913 -8.45536e-22)
(1.10517 0.0208769 -6.24578e-21)
(1.02189 0.00227978 6.36376e-23)
(1.02172 0.00276328 1.09423e-22)
(1.02226 0.00262505 5.8953e-23)
(0.88669 0.0663051 -1.42903e-20)
(0.876294 0.0599803 4.00122e-20)
(0.791535 0.0426455 2.58496e-20)
(1.00148 0.00431708 3.24555e-21)
(1.0015 0.00414248 -5.92633e-22)
(1.00133 0.00398588 3.58164e-21)
(0.548026 -0.016003 0)
(0.491215 -0.0193948 0)
(1.07934 0.0355939 -1.94567e-21)
(1.0799 0.0345801 4.37183e-21)
(1.00005 8.47093e-05 -4.14279e-22)
(1.00008 0.000134396 1.58854e-21)
(0.979081 0.101688 -3.58871e-21)
(0.977424 0.105681 0)
(0.975545 0.101356 0)
(0.984452 0.174467 0)
(0.981234 0.169186 -1.63494e-21)
(0.776739 -0.0425085 4.05235e-20)
(0.787073 -0.0409938 3.52331e-20)
(0.970001 0.0150807 0)
(1.0131 0.0176226 0)
(0.971315 0.132144 5.51699e-21)
(0.970687 0.137673 -1.57752e-20)
(0.965887 0.133225 1.99659e-21)
(1.04723 0.0263058 1.83458e-21)
(1.0474 0.0273168 -4.29996e-22)
(1.04638 0.0265494 -5.22641e-22)
(1.1691 0.0845521 1.01797e-20)
(1.17061 0.0871014 -2.293e-20)
(1.18795 0.0869298 -9.36621e-21)
(0.418888 -0.0150015 2.15355e-21)
(0.375684 -0.0174456 1.16559e-20)
(0.415293 -0.0161629 6.86624e-21)
(0.423361 -0.0146547 -1.58096e-20)
(0.999331 0.0158619 2.10542e-21)
(0.99979 0.0156748 -4.60305e-21)
(0.757435 0.000215909 1.06289e-21)
(0.807419 0.00545368 -3.31482e-20)
(0.749514 -0.000321264 -2.05533e-20)
(0.998397 -0.00260803 3.40643e-21)
(0.998281 -0.00237179 7.19777e-21)
(0.99811 -0.00279 3.62799e-21)
(1.04734 0.0254161 3.43432e-21)
(1.04829 0.0261043 1.97938e-21)
(0.998846 0.0106507 5.44846e-21)
(0.999151 0.0110955 3.12914e-21)
(0.795066 0.559594 0)
(0.751095 0.564635 -1.21581e-20)
(1.00138 0.000847881 5.3588e-21)
(1.0015 0.000743061 -7.92845e-22)
(1.00128 0.000661818 4.4357e-22)
(1.1348 0.113113 -1.68069e-20)
(1.13541 0.110435 -9.29669e-21)
(1.05299 0.121074 -1.16984e-21)
(1.05415 0.117301 -5.35753e-22)
(1.02896 0.0290159 -1.46501e-22)
(1.0301 0.0292945 8.85459e-22)
(1.11468 0.0488684 9.0045e-22)
(1.11345 0.0483148 -1.72382e-21)
(1.02243 0.0647917 0)
(1.02376 0.0634898 7.56407e-22)
(1.02448 0.0655978 3.20217e-23)
(0.117252 -0.0162238 6.53663e-20)
(0.0983105 -0.0373866 4.76897e-20)
(0.105401 -0.001911 -6.99266e-20)
(0.981598 0.179944 -2.76175e-21)
(0.975156 0.179292 -5.26807e-21)
(1.1118 0.146896 -7.60961e-21)
(1.10891 0.150984 5.46324e-21)
(1.03007 0.0231313 3.77166e-22)
(1.03057 0.0240197 1.14593e-21)
(1.03102 0.0232671 -8.66111e-22)
(0.990978 0.0233264 7.78265e-21)
(0.99029 0.022296 -1.30332e-22)
(-0.121271 -0.0177237 3.40717e-21)
(-0.13825 -0.0172089 -2.32541e-20)
(-0.142999 -0.0174911 -4.82582e-21)
(0.0383116 -0.00109752 5.88215e-22)
(0.033618 -0.00108891 1.17172e-20)
(0.0491259 -0.00258385 1.17931e-20)
(0.998556 0.0125867 -1.40377e-21)
(0.99895 0.0124164 2.73831e-21)
(1.00684 0.000747549 9.88477e-22)
(1.0073 0.00101633 -2.58713e-21)
(1.00686 0.00131211 2.4622e-21)
(0.882774 0.0643717 -4.65841e-20)
(0.992696 0.0805836 -4.02436e-20)
(1.01093 0.0273493 1.30854e-21)
(1.01095 0.0283599 2.96027e-21)
(1.01187 0.0281701 -3.40108e-21)
(-0.028855 -0.0189223 1.33417e-20)
(-0.0409622 -0.017469 -1.52189e-20)
(1.02949 0.0224238 2.1627e-22)
(1.02911 0.0230821 2.66013e-24)
(0.0682408 -0.0137885 2.06266e-20)
(0.0798797 -0.013876 2.33021e-20)
(1.06096 0.0180948 -2.08356e-21)
(1.06105 0.0172988 1.78155e-21)
(1.06192 0.0180197 4.40218e-21)
(1.12945 0.301725 0)
(1.1198 0.300445 0)
(1.12323 0.311024 0)
(1.09439 0.0504103 -4.60941e-21)
(1.09344 0.0513394 6.95094e-21)
(1.09505 0.0517194 -4.09958e-21)
(0.0902294 0.227844 9.42464e-21)
(0.0901994 0.188469 7.88176e-20)
(0.123995 0.207568 6.45456e-20)
(0.936595 0.0314106 9.99705e-21)
(0.936677 0.0280055 1.23142e-20)
(1.21199 0.0848002 -5.74398e-20)
(1.19753 0.0807951 -2.70812e-20)
(0.502313 0.235486 -2.5617e-20)
(0.475681 0.244029 -5.2868e-20)
(0.501828 0.267224 -1.3466e-20)
(0.982729 0.102819 1.84947e-21)
(0.981316 0.0990826 -3.23469e-21)
(1.12918 0.0442792 -7.96481e-21)
(1.12912 0.0441237 1.48523e-20)
(0.900856 0.451819 -4.93646e-22)
(0.91552 0.468189 -1.88904e-21)
(0.889136 0.472323 -1.41532e-21)
(0.987912 0.0400369 1.29219e-20)
(0.986548 0.0391562 1.9907e-21)
(0.986551 0.0411024 -2.91525e-21)
(0.09916 -0.00819141 -7.61817e-21)
(0.0829304 -0.00691915 9.65048e-21)
(0.0887344 -0.00703589 1.07779e-20)
(0.578877 -0.00656902 4.51274e-20)
(0.558676 -0.0169449 -1.39024e-20)
(0.00463338 -0.0049425 0)
(-0.00810518 -0.00443611 -2.34402e-20)
(0.918862 0.00154837 0)
(0.915117 0.00234162 -1.36103e-20)
(0.917557 0.00549238 0)
(0.0886558 0.00231531 -1.70938e-20)
(0.0722586 0.00347166 -4.30773e-20)
(0.0900659 0.00302785 -1.31473e-20)
(1.04132 0.0995062 -6.50357e-23)
(1.04265 0.102743 -3.06118e-21)
(1.04423 0.100077 1.15464e-21)
(-0.0623434 -0.0116799 0)
(-0.0361707 -0.0106792 -2.79877e-20)
(-0.0266889 -0.0113636 -1.06458e-20)
(0.510054 0.20585 -4.72603e-20)
(0.533704 0.229676 7.34591e-21)
(0.887423 0.309847 -3.22481e-20)
(0.872615 0.306944 -1.16307e-20)
(0.879733 0.32329 -4.91906e-21)
(0.903427 0.315746 -1.11081e-20)
(0.897167 0.298695 1.62819e-21)
(0.294911 -0.0173822 0)
(0.27979 -0.0179337 5.19924e-21)
(0.999624 0.00106419 6.02131e-21)
(0.999516 0.00117383 -1.5235e-21)
(0.999557 0.00127873 6.13757e-21)
(1.01505 0.167991 2.7047e-22)
(1.01164 0.173299 2.5278e-23)
(-0.0769833 -0.0198019 0)
(-0.0880567 -0.0195134 3.52958e-20)
(0.977565 0.0227495 -1.04833e-20)
(0.97641 0.0234756 -5.91414e-21)
(0.976374 0.0216863 -3.68341e-21)
(0.986885 0.070156 7.55785e-21)
(0.988135 0.0681121 -1.31025e-20)
(0.98545 0.0679164 -1.59693e-20)
(0.00347721 -0.00298732 3.08604e-21)
(0.00735232 -0.00270577 1.87185e-20)
(0.804898 0.423186 0)
(0.834028 0.431201 6.95058e-21)
(1.00549 0.0537057 -7.86215e-22)
(1.005 0.0551706 3.59586e-21)
(1.00688 0.0552724 2.21899e-21)
(1.09677 0.0348264 -1.33746e-21)
(1.09297 0.0345491 6.44144e-21)
(0.650613 0.485363 -8.69622e-20)
(0.676082 0.459646 -3.72682e-20)
(1.00876 0.0057864 -1.70798e-22)
(1.00922 0.0061467 4.57264e-22)
(1.0092 0.00561085 2.76246e-21)
(0.0584947 0.00020739 3.39812e-21)
(0.044496 0.00124747 -1.35901e-20)
(0.989417 0.0194627 -7.26523e-21)