/*--------------------------------*- C++ -*----------------------------------*\
| =========                 |                                                 |
| \\      /  F ield         | OpenFOAM: The Open Source CFD Toolbox           |
|  \\    /   O peration     | Version:  v2012                                 |
|   \\  /    A nd           | Website:  www.openfoam.com                      |
|    \\/     M anipulation  |                                                 |
\*---------------------------------------------------------------------------*/
FoamFile
{
    version     2.0;
    format      ascii;
    class       volScalarField;
    location    "750";
    object      k_0;
}
// * * * * * * * * * * * * * * * * * * * * * * * * * * * * * * * * * * * * * //

dimensions      [0 2 -2 0 0 0 0];


internalField   nonuniform List<scalar> 
13917
(
0.0182484
0.000187259
0.0093594
0.000154307
0.000182153
0.000185913
0.000163507
0.000226352
0.00016002
0.00115103
0.000230871
0.000152947
0.00017415
0.0299407
0.000171523
0.0147529
0.00015185
0.000210363
0.000195751
0.0134455
0.000177919
0.000157305
0.000178455
0.000157375
0.000158921
0.000180985
0.0517702
0.000838425
0.000192395
0.000153009
0.000693986
0.000183774
0.000155183
0.0308798
0.000153284
0.000184371
0.0001632
0.00017198
0.000163604
0.000179867
0.000159205
0.000150528
0.00015749
0.000191987
0.000192074
0.024152
0.000176232
0.0138297
0.0291656
0.00015341
0.000152771
0.000189946
0.00785151
0.000154124
0.000154417
0.000185817
3.74399e-06
0.000178463
0.000149794
0.0254832
0.0330772
0.00016559
0.000159393
0.000158342
0.0465949
0.00403068
0.000196219
0.000186031
0.000227896
0.0171773
0.0459632
0.0284249
0.000150947
0.000149048
0.000178844
0.000161033
0.000170683
0.000148365
0.000160355
0.000155557
0.000158667
0.00015218
0.000150788
0.0467363
0.000142964
0.00103077
0.000183217
0.000148451
0.000179366
0.000149732
0.000138469
0.000157778
0.0293839
0.000150315
0.000157454
0.000195396
0.0436849
0.000150213
0.000147242
0.0022259
0.000148859
0.000148098
0.000158786
0.000146171
0.00017057
0.0478765
0.0257332
0.000165578
0.000151392
0.0517507
0.000146123
0.0321715
0.000191416
0.0132625
0.046922
0.000162293
0.00019272
0.000139596
0.000741521
0.000149725
0.000148639
0.000147249
0.000200994
0.000193188
0.018709
0.0479116
0.000157661
0.000180456
0.000152141
0.000193141
0.00016813
0.014018
0.0473384
0.00016223
0.000186471
0.0492896
0.0358495
0.019484
0.000183673
0.000170991
0.00543886
0.000147778
0.0470856
0.000150296
0.000150483
0.000155572
0.0457499
0.00179853
0.0125452
0.000154371
0.00017709
0.000148522
0.000150259
0.000149695
0.045609
0.000162553
0.000145565
0.0462268
0.000150649
0.000142448
0.000144819
0.040302
0.000168509
0.00449773
0.0291018
0.0211917
0.00655774
0.0239885
0.000135857
0.000185563
0.000158519
0.0464124
0.000159838
0.035096
0.000190974
0.000148817
0.000154223
8.07139e-05
0.000167465
0.000169577
0.000157453
0.000157762
0.000152872
0.0138114
0.00138949
0.0177827
0.000152729
0.0151083
0.000153414
0.000111354
0.00019129
0.000191057
0.00019939
0.0182382
0.000150397
0.0190811
0.000164254
0.0487586
0.000152718
0.000161287
0.000173297
0.0170649
0.0166293
0.000162554
0.0522429
0.000182664
0.000177523
0.0001478
0.000132559
0.000158762
0.000146773
0.000193462
0.000196788
0.0135893
0.000185963
0.000182493
0.0406659
0.00016081
0.000138052
0.00013788
0.0222284
0.00266844
0.0250826
0.000144487
0.000160506
0.0455678
0.0162176
0.000137101
0.000136877
0.000158859
0.000138336
0.000138186
0.0266066
0.0180654
0.00015752
0.000137965
0.000190758
0.0262539
0.000150283
0.000144443
0.0530027
0.0477885
0.007701
0.0400997
0.00020094
0.000150292
0.0250887
0.000191385
0.000189215
0.000187614
0.000161823
0.0164309
0.000149991
0.000180471
0.000188928
0.000158407
0.000158886
0.000158133
0.000177324
0.000152385
0.024883
0.0315639
0.000147873
0.000136842
0.000163255
0.0001369
0.000149961
0.000175959
0.000174573
0.000148454
0.0233054
0.0277948
0.000151242
0.000172716
0.0330437
0.00013774
0.000201455
0.0281193
0.000137789
0.021273
0.000151732
0.0408455
0.000149078
0.000169169
0.000158889
0.00015029
0.000374976
0.000157785
0.0312553
0.000168378
0.0280675
0.000156774
0.0441785
0.0190244
0.000142472
0.000182269
0.000179085
0.000163265
0.000180876
0.000160036
0.000150721
0.000156175
0.000101353
0.000181653
0.000179621
0.000159622
0.000144314
0.0471925
0.0143692
0.000151053
0.0016117
0.000163297
0.000255491
0.000192223
0.0298534
0.0356426
0.00359527
0.00441805
0.000171536
0.0454336
0.00027042
0.00675064
0.000174011
0.000170941
0.0517571
0.000160573
0.000190334
0.000191059
0.000153014
0.0467385
0.000143464
0.000172778
0.000148229
0.00555607
0.000142162
0.000177571
0.000183322
0.00313542
0.000146566
0.000187205
0.0457239
0.00015675
0.000160623
0.0348061
0.0461746
0.040572
0.0273025
0.000137142
0.000156819
0.0483966
0.00467388
0.000137229
0.000180906
0.000153334
0.000190979
0.000178398
0.000202759
0.000201218
0.000218699
0.000173044
0.0268183
0.000152644
0.000156686
0.000185395
0.00318268
0.000153576
0.0159751
0.000172751
0.0041347
0.00015481
8.04363e-05
0.000870434
0.0286643
0.000149841
0.0231158
0.0315627
0.000186147
0.000151573
0.0402342
0.000156185
0.0289105
0.00108086
0.000149861
0.0286115
0.000161156
0.001258
0.000144535
0.015463
0.00195704
0.000161498
0.0444452
0.000198
0.000160701
0.0359941
0.000120382
0.000160071
0.000425501
0.000155793
0.000199545
0.00637901
0.000143753
0.000161955
0.000159341
0.000149497
0.000142727
0.000153267
0.0353437
0.0144401
0.000155661
0.00015388
0.000156007
0.000182565
0.00015477
0.000141158
0.000135983
0.000192138
0.000124752
0.000150911
0.000161072
0.0392043
0.0394692
0.00407696
0.00019631
0.0428413
0.000144388
0.000139616
0.000175157
0.000142468
0.000141217
0.000157986
0.000139729
0.00014371
0.0225484
0.000156087
0.000181375
0.0254096
0.000182334
0.000147273
0.000150053
0.0368159
0.000173757
0.0158952
0.000145489
0.000145509
0.000156417
0.000138708
0.000162899
0.000162327
0.039822
0.000154674
0.0487364
0.000145464
0.000170979
0.000156282
0.000158511
0.00020011
0.0402472
0.000153071
0.0337158
0.000147982
0.000146602
0.000155647
0.000161106
0.000145598
0.000155109
0.046477
0.0336096
0.000145097
0.045826
0.000192077
0.000150818
0.000184273
0.000183352
0.0332129
0.00016294
0.0482057
0.00243129
0.0018789
0.000162219
0.00363915
0.000157625
0.000161386
0.0420021
0.000139622
0.00015368
0.000157344
0.000161063
0.000176295
0.000378613
0.000181014
0.000156185
0.000174931
0.000209388
0.000186744
0.000155694
0.0320196
0.00017335
0.000168265
0.0306199
0.000143005
0.000187483
0.0010645
0.000141888
0.041527
0.000147639
0.000138646
0.000183022
0.000145323
0.000158078
0.000138817
0.0464021
0.035305
0.000144441
0.000154489
0.000155623
0.0406852
0.0408092
0.000155176
0.000154248
0.000143881
0.000186976
0.00426139
0.000152781
0.000150566
0.000160694
0.000148706
0.000169139
0.000167227
0.000141603
0.000181551
0.000141877
0.000156164
0.000158958
0.0305277
0.000137904
0.00015798
0.000152479
0.000170194
0.000187305
0.000195991
0.000189811
0.00353945
0.000158416
0.00020251
0.049346
0.0223319
0.0287238
0.00014995
0.000155386
0.00015724
0.000148731
0.0472424
0.000138593
0.000472245
0.000164099
0.0496459
3.87315e-05
0.000157633
0.00545375
0.000145078
0.000181344
0.000149031
0.000155102
0.0491629
0.000142917
0.00150477
0.000154624
0.000159856
0.000155762
0.000157531
0.000169127
0.000136474
0.000191791
0.00018392
0.00861965
0.0444337
0.048312
0.0317609
0.00013799
0.0171685
0.000147596
0.0350979
0.00115374
0.000156133
0.000223957
0.000148659
0.000173007
0.000156965
0.00014296
0.000149185
0.000174113
0.0420776
0.000145421
0.000181783
0.000153453
0.000136278
0.000147256
0.0183864
0.0436791
0.00542496
0.000186627
0.000166881
0.0365097
0.0275827
0.000145119
0.0421679
0.000171434
0.000188463
0.00014888
0.0387531
0.000148214
0.000169951
0.000150666
0.00777479
0.000174412
0.0453385
0.000141732
0.000173507
0.000153864
0.000149269
0.0282842
0.0179931
0.000154864
0.000171108
0.000144321
0.00015373
0.000149384
0.0310425
0.000145423
0.000178993
0.00013858
0.000154288
0.00277965
0.000148313
0.000199223
0.000152694
0.000142066
0.0337723
0.000182276
0.000154846
0.00799032
0.000321823
0.00017711
0.00133333
0.000144614
0.00017261
0.0278868
0.0018908
0.000173513
0.000163112
0.00017106
0.000149643
0.000153087
0.00382913
0.000188971
0.000163184
0.0290922
0.000174698
0.000211788
0.041428
0.000181772
0.00017557
0.000204326
0.0231253
0.00015083
0.000177402
0.0038449
0.000142109
0.000142937
0.00014687
0.000156615
0.000157957
0.0175223
0.000168873
0.000145244
0.000190108
0.000141399
0.0322461
0.000151628
0.000152132
0.0446046
0.00018585
0.000971024
0.000151608
0.000204209
0.000151602
0.000153252
0.000165469
0.000150673
0.0175201
0.000171086
0.00150524
0.000746132
0.000176971
0.0485624
0.000154628
0.000149677
0.000154269
0.0298126
0.0395672
0.000165003
0.0180097
4.13366e-05
0.000142443
0.000151582
0.000163119
0.0472422
0.000827172
0.000174872
0.000153143
0.00015805
0.000188867
0.000169656
0.000200501
0.000169216
0.000157178
0.000155705
0.000149899
0.000165394
0.000175044
0.00215855
0.0001644
0.000157514
0.0174675
0.000151432
0.000373039
0.000162188
0.000180039
0.000163348
0.000905684
0.000148073
0.000180084
0.0439612
0.00334407
0.000148962
0.000164313
0.00016674
0.000146621
0.000150363
0.000182708
0.000155419
0.0150666
0.000201518
0.000144115
0.00966199
0.000159984
0.000161235
0.000166921
0.00015737
0.000181351
0.0423293
0.000136594
0.00018559
0.000194983
0.000168997
0.000150166
0.000146102
0.000153032
0.014793
0.000155039
0.000152242
0.000172598
0.000151218
0.000148588
0.000201949
0.0356719
0.000194431
0.0390762
0.000189008
0.0488716
0.000150292
0.00017218
0.033089
0.000156128
0.000168824
0.000148953
0.000143037
0.000151705
0.00016566
0.000196492
0.000150131
0.00385139
0.000159621
0.00143355
0.000162194
0.000162654
0.000147926
0.000187874
0.00016971
0.0400993
0.000194937
0.000153878
0.0296852
0.000156188
0.0233249
0.000156402
0.000219671
0.00016783
0.00014879
0.000148563
0.0461217
0.000165512
0.000155098
0.0374651
0.00014632
0.00016942
0.000137506
0.000162253
0.00372998
0.000138551
0.0248037
0.000157976
0.000220735
0.000192703
0.000227316
0.000138933
0.000143488
0.000204276
0.000144604
0.000154045
0.000159224
0.000155097
0.000172801
0.000138716
0.000152949
0.00015734
0.0174388
0.022944
0.000252109
0.0493179
0.0354747
0.0154596
0.00025308
0.000141904
0.000153121
0.000150609
0.000156735
0.00014418
0.000165603
0.000147913
0.000169108
0.000154298
0.037064
0.000154644
0.000165726
0.000199956
0.00015046
0.000181628
0.000156281
0.000155924
0.000163201
0.000158059
0.0494967
0.000190255
0.00346368
0.000151048
0.000146429
0.000159332
0.000160239
0.0307384
0.00014218
0.0135316
0.000147494
0.00362592
0.000169318
0.000149625
0.000180727
0.000166351
0.000142484
0.000730284
0.0424554
0.00016394
0.000187526
0.000144619
0.00221764
0.000173004
0.00016017
0.0238469
0.000146154
0.000154645
0.000189763
0.0221676
0.000176721
0.000274119
0.0374156
0.000150607
0.000164928
0.000155484
0.0409222
0.000146122
0.000192549
0.00015201
0.042542
0.000169521
0.0457244
0.00015389
0.000146762
0.00188327
0.000164149
0.000155877
0.0502349
0.000159624
0.000143312
0.000331511
0.000150599
0.000153118
0.000188478
0.000159751
0.0469354
0.000179946
0.000183536
0.000403073
0.000157993
0.0422139
0.000158312
0.000186993
0.000145999
0.0259138
0.00321756
0.000151755
0.000171812
0.000154313
0.000155097
0.000166015
0.000144076
0.000148542
0.000148022
0.000168106
0.000136558
0.000158977
0.000185281
0.0272659
0.0391807
0.000188494
0.000159287
0.00151081
0.000146508
0.0308088
0.00550166
0.00584574
0.000138358
0.000142164
0.000149037
0.000154341
0.000138003
0.00015408
0.000146259
0.000176515
0.000143338
0.00817649
0.000302869
0.000145845
0.0470505
0.000146206
0.000153339
0.000164448
0.0322563
0.000188551
0.000145999
0.00119371
0.00015204
0.000153353
0.0181818
0.000153726
0.0429536
0.000154915
0.00017481
0.000147278
0.000147835
0.000173683
0.000217271
0.000158093
0.0303797
0.000169155
0.000163452
0.000166066
0.000146636
0.000145578
0.000188307
0.000168064
0.000162848
0.0325888
0.0113259
0.000210311
0.0001891
0.000147941
0.0309527
0.00014725
0.037703
0.000187864
0.000162051
0.000157489
0.0465566
0.0317002
0.0377086
0.000245646
0.00359884
0.000161867
0.000147812
0.000168815
0.000157042
0.000151865
0.0273451
0.0213894
0.000147844
0.000162049
0.0258485
0.000155346
0.000137078
0.000721421
0.0353944
0.000156238
0.000148984
0.000163072
0.000149973
0.000152785
0.000184006
0.000167736
0.000150238
0.00621032
0.000245571
0.000164558
0.00375544
0.000167596
0.0265856
0.000151736
0.000154449
0.000272044
0.0220198
0.00140257
0.000938912
0.000176033
0.000152043
0.000155084
0.000187058
0.0392508
0.000158463
0.00016184
0.000180197
0.0001498
0.00306665
0.000187763
0.000191518
0.000179604
0.0325438
0.000948622
0.0407621
0.0410208
0.000170404
0.0307044
0.000137351
0.000186486
0.000191429
0.00633692
0.000160567
0.00015511
0.000163006
0.000388588
0.000160457
0.0334419
0.000173235
0.000195539
0.0362931
0.000142982
0.000188559
0.000160649
0.000154647
0.000169987
0.000163996
0.000150622
0.000143226
0.000157577
0.0421896
0.000143709
0.000159864
0.000156803
0.000158137
0.000152106
0.000200007
0.000182314
0.00016176
0.00015049
0.000161193
0.000288024
0.000182577
0.0439213
0.000152329
0.000146176
0.036602
0.00015234
0.000160568
0.0421093
0.0279898
0.000179193
0.000186824
0.000168538
0.0140689
0.0132038
0.000175068
0.04471
0.000152209
0.000190998
0.0292778
0.0013668
0.00970577
0.0277395
0.000143597
0.000155858
0.0001764
0.000152289
0.000156601
0.00366483
0.000145705
0.000179502
0.00013986
0.000178959
0.0355197
0.000160035
0.041046
0.0351958
0.000146434
0.000183786
0.000168631
0.000158827
0.000146963
0.0301789
0.000186277
0.0234856
0.00016774
0.0275138
0.000195477
0.000187633
0.000253263
0.000173097
0.000177808
0.000150096
0.0201019
0.000146971
0.000165453
0.000180094
0.000167299
0.000152143
0.000180849
0.0457274
0.000145098
0.0079372
0.000153368
0.000154203
0.000146225
0.00015528
0.0364816
0.032283
0.000147613
0.000164962
0.00333826
0.00023652
0.0163327
0.000151497
0.000142605
0.000143687
0.000146645
0.000183599
0.00016275
0.0385042
0.000160802
0.000159335
0.000165311
0.00289307
0.000188333
0.0366648
0.0288603
0.000151636
0.000148753
0.000142114
0.000158641
0.000182328
0.0506773
0.0035821
0.000200947
0.000173112
0.000178811
0.000156798
0.00388692
0.000165113
0.00019155
0.000150639
0.00159211
0.00384059
0.000145788
0.000151144
0.0382298
0.000181603
0.000164776
0.0270432
7.81053e-05
0.000151622
0.0302095
0.000170525
0.000143598
0.0417581
0.00168656
0.000150707
0.000179965
0.000192929
0.000175271
0.000154971
0.000138403
0.000146548
0.000146786
0.00014608
0.000168462
0.000184977
0.0216047
0.000175739
0.000162537
0.000167197
0.000195031
0.000149941
0.000176821
0.0204086
5.84941e-05
0.0260721
0.000160095
0.000138129
0.0271706
0.000143671
0.000846779
0.000157063
0.000181609
0.000154664
0.000144148
0.0229167
0.00016391
0.000160086
0.000146259
0.052003
0.029819
0.0270974
0.000158571
0.000155339
0.0277724
0.000142208
0.000144359
5.7053e-05
0.00419451
0.000166581
0.000170593
0.000154677
0.042128
0.000144164
0.000166973
0.000152064
0.000137881
9.66437e-05
0.000144395
0.000146274
0.0315142
0.000180558
0.0522627
0.00144274
0.000143395
0.000167133
0.000148578
0.000151074
0.000166671
0.00015771
0.000152803
0.00010128
0.000151414
0.00018946
0.000168556
0.000156409
0.000150187
0.000446853
0.000152636
0.030517
0.000145948
0.000284459
0.000184488
0.00016167
0.00017957
0.000170365
0.000167478
0.000152529
0.000163065
0.000146101
0.000145784
0.00470704
0.000182315
0.000159187
0.000145338
0.000152679
0.000152853
0.000210773
0.000149545
0.0392528
0.000179889
0.000148464
0.000144088
0.000142776
0.000180092
0.000165697
0.0339204
0.000169282
0.00257507
0.000156556
0.000199615
0.000163871
0.042921
0.000139791
0.000145659
0.000162844
0.00345317
0.00014333
0.0359738
0.00015453
0.000146266
2.8439e-05
0.0238266
0.0146741
0.00371292
0.000163015
0.00217429
0.000166159
0.000143586
0.042747
0.00014624
0.000148548
0.0426897
0.000141295
0.0382271
0.00397898
0.000147052
0.000148431
0.000144021
0.0492461
0.000150293
0.000138379
0.000185689
0.000143559
0.000148036
0.000238984
0.000143723
0.000176124
0.000151549
0.000169525
0.000141423
0.0477883
0.000203173
0.000141652
0.000141854
0.000156035
0.000143966
0.000158063
0.000159034
0.000150964
0.000151576
0.000146552
0.000158022
0.000151024
0.000203116
0.000142728
0.000188196
0.000156669
0.000194154
0.000147001
0.000152591
0.000150406
0.000145222
0.000177611
0.000168949
0.000159649
0.0516114
0.000125022
0.0448191
0.0367988
0.000187315
0.0497954
0.000155879
0.000150708
0.0434051
0.0388112
0.000154044
0.0267324
0.000144555
0.000191254
0.00114322
0.000158111
0.000189461
0.0323693
0.0389318
0.000144023
0.000176874
0.000146281
0.000175634
0.000159173
0.0421899
0.0146158
0.000153139
0.000198351
0.0310171
0.000153292
0.0400034
0.00357213
0.000159754
0.000142234
0.00406629
0.0288693
0.000143499
0.000167526
0.000156637
0.0360751
4.21495e-05
0.000153039
0.000147632
0.035367
0.000150489
0.000146429
0.000153672
0.000143637
0.0377706
0.000172856
0.000165756
0.0325461
0.000146106
0.000191954
0.000150683
0.0040663
0.000185277
0.00017921
0.000146399
0.000164251
0.000143548
0.000146988
0.00015699
0.00015223
0.0415075
0.000158218
0.000144635
0.000145112
0.00401298
0.000142349
0.00657321
0.041024
0.000527899
0.000156279
0.000148797
0.000144624
0.000278703
0.000155038
0.0445008
0.000144604
0.0411932
0.000159741
0.000155926
0.0191733
0.000153935
0.000149444
0.0276639
0.000192971
0.0360013
0.000153623
0.049842
0.0375817
0.000154229
0.0297135
0.000155309
0.000167486
0.0274394
0.000162894
0.000186875
0.0234124
0.000174062
0.00018537
0.00014981
0.0397735
0.000146576
0.00732543
0.00014438
0.0210812
0.000146749
0.000146893
0.000166914
0.00196948
0.000149362
0.000133359
0.000189479
0.031396
0.000146521
0.000171619
0.047929
0.000194922
0.0366161
0.000191047
0.00014701
0.000196178
0.0377609
0.000163637
0.0379382
0.000146979
0.000194476
0.0166854
0.000149917
0.0165443
0.000144129
0.0497529
0.0356035
0.000160993
0.000167767
0.00636271
0.000901967
0.000145975
0.000156854
0.000144128
0.000153819
0.0481186
0.000188682
0.0168303
0.000157483
0.000166352
0.0392898
0.000161087
0.000258497
0.0355964
0.000142961
0.000145626
0.000195033
0.0397569
0.04359
0.00475698
0.000118267
0.000179738
0.000205827
0.0481298
0.0314889
0.00535644
0.000142238
0.000190381
0.000179702
0.000191236
0.000150749
0.000160942
0.000187361
0.00205514
0.000500463
0.00015138
0.00599239
0.0317966
0.000186481
0.000145795
0.000146002
0.000133063
0.000149311
0.0468214
0.000167344
0.000160819
0.0115105
0.000158611
0.000141563
0.000173656
0.000166607
0.000150946
0.0503602
0.000158178
0.04958
0.000148979
0.0318582
0.0270849
0.000177552
0.000145769
0.000166095
0.00017482
0.00499663
0.000206793
0.000184156
0.0481218
0.0318077
0.000140277
0.00016424
0.00015511
0.000200357
0.016105
0.00014392
0.000141231
0.000157675
0.0322811
0.00475178
0.000149675
0.000184389
0.0107881
0.000142971
0.000158052
0.000162971
0.0495213
0.000170514
0.000211129
0.0452199
0.000165613
0.000164714
0.03686
0.000146257
0.000188678
0.0268499
0.000177882
0.00019943
0.000166036
0.000180718
0.0404905
0.0495962
0.000149712
0.0174701
0.0258032
0.000141397
0.000192224
0.000186913
0.000202019
0.0411431
0.0349017
3.92382e-05
0.000200185
0.0279321
0.000166366
0.000181557
0.000155867
0.000151362
0.000151723
0.000145425
0.0193987
0.00166302
0.000149721
0.00019181
0.000170083
0.000145945
0.00843808
0.0458051
0.000153914
0.000154771
0.000159099
0.000158976
0.000175604
0.000146571
0.026652
0.000166459
0.000189095
0.000167781
0.000190676
0.000206032
0.000177308
0.00523609
0.000151094
0.000159376
0.00015027
0.000148554
0.0488183
0.000187638
0.000171063
0.0296384
0.000158031
0.00015775
0.000176654
0.000145177
0.000148507
0.000191992
0.000162385
0.0267324
0.05372
0.0357127
0.00014945
0.0403634
0.000146456
0.0234677
0.000141319
0.000193169
0.0452852
0.000148132
0.0292085
0.0253981
0.000175461
0.000157831
0.000141471
0.000168474
0.0409936
0.000143198
0.00015207
0.000157438
0.000174855
9.44969e-05
0.000161264
0.000163258
0.0001428
0.000152254
0.0380539
0.000172322
0.000165791
0.000197947
0.000167003
0.0440062
0.0216687
0.000166773
0.00015949
0.0268189
0.000151277
0.000184968
0.000150147
0.0484023
0.000158579
0.000159606
0.000186837
0.040389
0.000145444
0.000146409
0.000139466
0.000193597
0.0102065
0.00019778
0.000145831
0.000163677
0.000143734
0.0318238
0.000162985
0.040628
0.000180209
0.000158032
0.0182158
0.000178662
0.00351502
0.000152239
0.000144271
0.000170082
0.000186163
2.23176e-05
0.000151695
0.000156198
0.000157748
0.0347159
0.000149729
0.000156703
0.0493744
0.00015997
0.000159989
0.000160531
0.00015159
0.000151262
0.000651614
0.000156388
0.0324104
0.00397644
0.000138712
0.0372902
0.000154531
0.000199577
0.000183528
0.000158667
0.000145607
0.000138839
0.000146518
0.0272757
0.000176823
0.0299998
0.0311903
0.000146575
0.000153904
0.000179199
0.0352082
0.000147517
0.000102156
0.0494556
0.0471894
0.000146106
0.000157473
0.000154088
0.000241098
0.0484499
0.000159879
0.000146554
0.000167597
0.0250941
0.000151328
0.000157538
0.000160871
0.000190854
0.0347332
0.000139998
0.0369668
0.000172407
0.000145635
0.0419919
0.000180399
0.038862
0.0264272
0.000174802
0.000168046
0.000157479
0.00016877
0.000157239
0.000209062
0.000185458
0.000151054
0.000160008
0.0124758
0.0498274
0.000142824
0.000204475
0.0418252
0.0442196
0.000151574
0.000151042
0.00457127
0.0433997
0.000234695
0.000151576
0.0417922
0.000181817
0.000140038
0.0214473
0.000167351
0.000155935
0.0204231
0.000155139
0.000170977
0.00014822
0.000137061
0.000156757
0.000139407
0.0465158
0.000145366
0.000143841
0.000188535
0.00015945
0.000164772
0.00019996
0.000152949
0.000145973
0.000158892
0.000157348
0.00289713
0.00270974
0.0304045
0.0204967
0.000177694
0.00910479
0.000200724
0.0390906
0.0491975
0.0453228
0.000146642
0.000174301
0.000147724
0.000154382
0.000149015
0.000154443
0.000113463
0.000180269
0.00018122
0.000145631
0.00014564
0.000178604
0.000152316
0.000156262
0.000153386
0.033361
0.000171415
0.0134954
0.000149216
0.00459236
0.00015649
0.000159105
0.000159573
0.000174656
0.000147126
0.000192132
0.0323911
0.000182008
0.0262849
0.000728175
0.000154347
0.000166144
0.000420135
0.000198646
0.000147766
0.000148408
0.000138983
0.0312911
0.000137951
0.00022954
0.000193729
0.000190233
0.0223318
0.0122973
0.000183539
0.0504515
0.000143748
0.000138837
0.000175032
0.0427397
0.000150369
0.000149662
0.0267523
0.000142305
0.00995651
0.000162325
0.000162245
0.000165347
0.000149788
0.000189001
0.0321235
0.0280624
0.000160779
0.000147479
0.000193015
0.000156888
0.000193394
0.000145023
0.000193892
0.000187636
0.000156083
0.000155595
0.000138709
3.62978e-05
0.000206557
9.35276e-05
0.0386744
0.000169678
0.0460131
0.000185163
0.000190229
0.0491462
0.000146762
0.0326094
0.000156067
0.0328948
0.0224661
0.0311471
0.048088
0.000153667
0.000184809
0.000169638
0.000155631
0.0229093
0.000152664
0.000150339
0.000161482
0.000154177
0.00016687
0.0121924
0.033223
0.0295427
0.000163316
0.000180988
0.000157927
0.00015899
0.000150545
3.08042e-05
0.00018833
0.0392687
0.000181656
0.000149099
0.000144094
0.000159123
7.87095e-05
0.000163571
0.000161489
0.000163177
0.000199292
0.000167604
0.000186298
0.000180779
0.0353395
0.000169235
0.000168961
0.000147445
0.000161464
0.029602
0.000168583
0.000185859
0.000145157
0.0417943
0.000170974
0.000151035
0.000181011
0.0360276
0.00021466
0.0001758
0.000142481
0.032949
0.000156378
0.000142994
0.000149451
0.045086
0.0391387
0.000154092
0.0405058
0.0464878
0.000180149
0.000179972
0.000187202
0.0490096
0.000170784
0.0482375
0.00015681
0.000164969
0.000156992
0.0503973
0.00017064
0.000147336
0.039205
0.000148633
0.000157066
0.0330701
0.0438284
0.000222315
0.032571
0.000158659
0.000156421
0.0421032
0.000150832
0.000143965
0.000149397
0.000180219
0.000147236
0.000175399
0.000179074
6.63182e-05
0.0370989
0.000154245
0.0230868
0.000177618
0.0357296
0.0270584
0.000149441
0.000152035
0.000160795
0.0286998
0.000104288
0.000187727
0.0348512
0.0337969
0.0284568
0.000158232
0.0413474
0.0243763
0.000204674
0.0368948
0.0001541
0.000154351
0.000148948
0.000159017
0.000144431
0.000169101
0.0281629
0.000174381
0.00430238
0.0177587
0.0393369
0.0369642
0.0449154
0.000172367
0.0492996
0.000196251
0.00018532
0.000141068
0.00015601
0.000184884
0.0234681
0.000163152
0.041841
0.0422273
0.000148006
0.000150726
0.000152837
0.00019788
0.000156939
0.000189191
0.0326593
0.000142427
0.000144758
0.000147098
0.000155656
0.000189727
0.0309189
0.000179877
0.0450918
0.000201399
0.000145418
0.00400877
2.75861e-05
0.000150271
0.0280414
0.0358107
0.0402467
0.0387299
0.0260446
0.000154771
0.0421024
0.0321104
0.00163795
0.0463284
0.000149123
0.000160832
0.000161231
0.000156883
0.048666
0.00018795
0.000152015
0.000165948
0.00336518
0.0312553
0.000157493
0.000360544
0.0455465
0.0448308
0.000151242
0.000168853
0.00020043
0.000145045
0.000145477
0.0472188
0.000145945
0.00201169
0.00426886
0.0493428
0.000146691
0.000191596
0.000163376
0.000150611
0.00014426
0.050387
0.0423185
0.00015962
0.00017725
0.00242982
9.15194e-05
0.0474333
0.0393594
0.000164283
0.0036744
0.00084757
0.000173754
0.000142806
0.000228991
0.00013865
0.000146407
0.0261697
0.000178917
0.000195443
0.000159824
0.000171415
0.000149341
0.000139915
0.000154065
0.000155079
0.0416094
0.000159338
0.0369189
0.0175247
0.000181211
0.000187067
0.0405385
0.0500364
0.0414628
0.00017285
0.000160582
0.000174226
0.00016389
0.00790686
0.000489963
0.000153802
0.0365795
0.0294024
0.000166441
0.000189132
0.000187924
0.000190376
0.000191369
0.000156486
0.000192312
0.000193968
0.000202236
0.000173361
0.000191246
0.000189974
0.000176341
0.000142989
0.000170252
0.000189273
0.000146719
0.0314006
0.0493565
0.0126574
0.0392764
0.000141973
0.000145082
0.000166054
0.0459962
0.000154723
0.000162837
0.000181054
0.0312177
0.0266725
0.000152416
0.000175625
0.000162081
0.0064153
0.00362507
0.000158177
0.030213
0.0315416
0.000191718
0.0470044
0.000195221
4.487e-05
0.0487674
0.000135844
0.0506793
0.0333376
0.000157826
0.000190648
0.000201293
0.000167807
0.000148177
0.0343058
0.0252614
0.00014598
0.000146555
0.0407408
0.0313471
0.000193372
0.000153913
0.00867115
0.000168409
0.0412521
0.0261416
0.000150413
0.000145257
0.000154545
0.000163842
0.0485426
0.0263302
0.0432039
0.000187764
0.0222979
0.00891715
0.000163286
0.000143233
0.0309456
0.000148499
0.0491273
0.000157816
0.0464776
0.000155765
0.000158638
1.12669e-05
0.000149128
0.000192351
0.00402945
0.000172537
0.000162674
0.000156261
0.000130971
0.0264923
0.00141711
0.0380525
0.000178828
0.00015458
0.00016451
0.000192641
0.0510622
0.030871
0.000201228
0.00211725
0.000192828
0.0442297
0.000149245
0.000147788
0.00014278
0.000141121
0.0251798
0.000209038
0.000243599
0.000181249
0.000182123
0.000149977
0.00384941
0.0147742
0.00573895
0.000145686
0.000157032
0.000137186
0.0343952
0.00018668
0.00159532
0.024508
0.000192932
0.0184317
0.00013885
0.000172704
0.0010727
0.0260066
0.0309098
0.000148157
0.000200721
0.000157466
0.000157836
0.000205409
0.018684
0.0367696
0.000156454
0.000195656
0.0130226
0.0376469
0.0191078
0.049238
0.0496817
0.000150478
0.000186478
0.000156923
0.000202502
0.000151191
0.000210163
0.000162817
0.000181335
0.00300029
0.00422171
0.000169101
0.00020847
0.033705
0.000190822
0.000163151
0.0344521
0.000189834
0.000150449
0.000160341
0.0490035
0.00016722
2.99663e-05
0.0299222
0.000101491
0.0215554
0.000155869
0.0462225
0.0323823
0.0269312
0.0304222
0.000169621
0.000192418
0.000191518
0.0491381
0.00021821
0.000154213
0.036595
0.000190796
0.029279
0.000168701
0.0270033
0.0320321
0.038222
0.000161138
0.01399
0.000161924
0.0282823
0.0014122
0.0403883
0.0149992
0.000142385
0.000138131
0.0300196
0.0505534
0.000169777
0.000153992
0.000182243
0.00017324
0.0469355
0.000223228
0.0329488
0.000165288
0.032183
6.41748e-05
0.0276686
0.000154029
0.023092
0.0309447
0.000175644
0.000186695
0.000139649
0.000159977
0.000150777
0.00375562
0.000148863
0.00014978
0.0487331
0.043928
0.000140924
0.0507438
0.000155726
0.000155881
0.000146427
0.000148769
0.000151584
0.0284608
0.0467294
0.000143252
0.0384354
0.00018469
0.000177245
0.0379865
0.0001882
0.000164191
0.000167102
0.000143978
0.0033272
0.000174587
0.0509721
0.000182846
0.0474884
0.0345857
0.000189668
0.0348428
0.031382
0.000142142
0.0241272
0.000184935
0.000185598
0.000195906
0.000151079
0.000190253
0.00010883
0.000150304
0.000230225
0.000144834
0.0494509
0.00020295
0.0410625
0.000147009
0.000164343
0.0486513
0.000152651
0.000151109
0.000183001
0.000158534
0.000151924
0.000152054
0.000167639
0.000149568
0.000144178
0.000157603
0.000183257
0.000159394
0.000168503
0.000162724
0.000179964
0.000189023
0.000160276
0.0500382
0.000159267
0.000145959
0.000189646
0.000174122
0.000165024
0.000149964
0.0345808
0.000156226
0.0293677
0.00015694
0.000194005
0.000145273
0.000155195
0.00019102
0.0486846
0.000185388
0.000178553
0.000135574
0.0411484
0.000150959
0.000144014
0.000186702
0.000158717
0.000174223
0.0340751
0.00019193
0.0144104
0.000181334
0.0212526
0.000154585
0.00015198
0.000189218
0.00411575
0.000182123
0.0002001
0.0322163
0.000168377
0.000151499
0.000164963
0.00826696
0.000179841
0.000150495
0.000190703
0.00018883
0.000187074
0.000151264
0.00014995
0.0100606
0.000187525
0.0360498
0.00848286
0.000163601
0.000186871
0.000151358
0.000175546
0.0399863
0.000153836
0.00238221
0.00394298
0.000193669
0.0261982
0.000149767
0.000153904
0.000143953
0.0492123
0.00185484
0.000161064
0.000205597
0.000191618
0.000151221
0.000154654
0.0184338
0.050326
0.0125797
0.0321979
0.00221054
0.000166001
0.0300735
0.00019245
0.000166262
0.00020265
0.000187815
0.000195281
0.000150957
0.000188694
0.000194125
0.000156754
0.0353879
0.000179119
0.000207629
0.000167293
0.000203407
0.000149466
0.024001
0.000158697
0.000141776
0.000148208
0.000143625
0.000158001
0.000156841
0.000148207
0.000158035
0.0001532
0.000156667
0.00339793
0.000186956
0.000154123
0.000187296
0.000162171
0.000183531
0.000139193
0.000177622
0.000172122
0.0415097