/*--------------------------------*- C++ -*----------------------------------*\
| =========                 |                                                 |
| \\      /  F ield         | OpenFOAM: The Open Source CFD Toolbox           |
|  \\    /   O peration     | Version:  v2012                                 |
|   \\  /    A nd           | Website:  www.openfoam.com                      |
|    \\/     M anipulation  |                                                 |
\*---------------------------------------------------------------------------*/
FoamFile
{
    version     2.0;
    format      ascii;
    class       surfaceScalarField;
    location    "750";
    object      meshPhiCN_0;
}
// * * * * * * * * * * * * * * * * * * * * * * * * * * * * * * * * * * * * * //

dimensions      [0 3 -1 0 0 0 0];
oriented        oriented;


internalField   nonuniform List<scalar> 
20642
(
-0.00018106
-7.16237e-05
0.000252667
0.000531056
-0.000989226
0.000455691
0.000185961
0.000130567
-0.000317708
0.000208839
-0.000611409
0.000394092
0.000697657
-0.00109404
0.000391455
0.00102232
-0.000494298
-0.00015998
0.000559501
-0.000405195
0.00124731
-0.00074007
-0.000508672
0.00029752
7.51114e-05
-0.000376961
0.000236393
1.53474e-05
0.000583358
0.000662145
0.0007146
-0.000729698
3.99857e-06
-3.1434e-05
-8.61005e-06
0.000708642
-0.00110738
0.000399288
0.000753396
-0.00109037
0.00033203
1.84677e-05
-0.000199288
-2.36784e-05
-1.3001e-05
2.41024e-05
-0.0012319
0.000585635
0.000644255
0.000471599
-0.000276452
-0.000197036
-0.00026343
0.00011204
0.000151563
0.000877145
-0.000501682
-0.000378809
5.93475e-05
0.000675789
-0.000745519
0.000135371
0.00027985
-0.000417801
-0.000748766
0.000796633
0.000820635
-0.000346472
-0.000480696
-0.000933524
0.00043354
0.000496934
-0.000838551
0.000508719
0.000329937
0.000215187
-0.00110952
0.000462152
0.000644653
9.45907e-07
-2.19831e-05
2.07365e-05
0.000214006
1.42155e-06
0.000474088
-0.000114147
-0.00036211
-0.000767073
0.000407203
0.000351467
-0.000238321
8.36136e-05
0.000154361
2.40521e-05
0.000581658
-0.000616186
4.34941e-05
-0.000784323
0.000647585
0.000189353
-0.000843211
1.70475e-05
-7.58605e-05
2.04631e-05
-0.000515141
0.000350293
0.00046839
-0.000833955
0.000362199
1.17188e-06
5.77077e-06
-1.5543e-05
0.00035538
-0.00058511
0.000224061
-0.000418784
-5.4621e-05
0.000469303
0.000112804
0.000209388
-0.00032354
0.000382291
-0.000271454
-0.000210223
0.000452847
-0.000242848
0.000692986
0.00017959
-0.000350602
0.000240574
0.000111501
-0.000519565
-0.000429892
0.000949392
0.000505488
-0.000489863
-4.00624e-05
0.000744204
0.000239014
-0.000539533
0.000299331
-0.000151507
0.000194211
-4.274e-05
-0.000686349
0.000921244
-0.000247045
-0.000963536
0.000625573
0.000325943
0.000473481
-0.000235377
0.000190597
-0.000315319
0.000447573
0.000600637
-0.00025111
-0.000516683
0.000306187
0.000571471
-0.000330018
-0.000240832
-0.000353225
-0.000401054
0.000750544
2.65858e-06
4.75686e-07
-4.39573e-06
0.00038905
0.00042442
0.000276166
-2.07902e-05
-0.000256011
-4.12978e-05
2.45238e-05
1.69653e-05
0.000511349
-0.0010858
0.000572171
0.000726769
-0.000684203
-0.000650296
0.000219537
-0.000162092
-5.74204e-05
0.000138681
0.000159557
-0.000299165
-0.000201555
-3.70008e-05
0.000653475
-0.000434722
-0.000231043
0.000414783
0.000178739
-0.000899606
0.000394605
0.001042
-0.000456609
-0.000592465
0.000608428
-0.0010033
0.000389539
0.00060609
-0.000198578
0.000490877
0.000542989
-0.000558341
-0.000215208
-0.000580328
-0.000421869
0.000991956
-2.14663e-05
-2.91376e-05
3.23452e-05
0.000219058
0.000423102
-0.000333071
0.000148967
0.000183243
0.000403267
-0.000315392
-0.000122614
0.00113039
-0.00044397
-0.000687343
0.000314671
0.000156639
-7.88816e-05
-0.000117674
0.000154448
0.000795681
-0.000330943
1.07431e-05
-4.53168e-05
2.01387e-05
4.39583e-05
-7.55505e-05
-0.000400639
0.000585918
-0.00110594
0.00012374
-0.000651484
0.000516759
0.000276734
0.000633865
-0.000919786
-0.000600397
-0.00107778
0.000615005
0.000462552
-4.25643e-05
-2.16578e-05
4.09473e-05
-0.000205119
9.31255e-05
-0.000509906
0.000917744
-0.000408788
-8.83028e-06
-5.058e-06
9.27299e-06
1.59416e-06
-1.37541e-05
-0.000936256
0.000347331
-9.36935e-05
-2.83403e-06
7.55148e-05
0.0010757
-0.000474236
0.000242062
-3.23338e-05
-0.000210201
0.000181585
9.21911e-05
-0.000273417
0.000522247
-0.000879186
-0.000212543
-0.000378065
-0.000426127
-0.00041224
1.38934e-05
-0.000135732
0.000263764
-0.000180705
0.00105556
-0.000595657
-2.56825e-05
0.000301039
-0.000189762
-0.000477784
0.000662144
0.000202134
0.000267498
3.88121e-05
-5.10856e-05
2.4822e-06
-0.000272742
-9.76574e-05
0.000368952
6.16124e-05
-0.000369263
0.000299815
-6.73244e-05
2.85002e-05
-0.000596142
0.000250747
0.000337354
-0.000472965
-0.000614913
-0.000200216
-0.000249921
0.000448457
-9.29107e-05
0.000201421
-0.000108464
-0.00017838
-0.000155328
-0.000732387
0.000342559
0.000383296
-0.00036264
-0.000540185
-0.000576348
-0.000210881
0.000774336
0.000219105
-0.000420756
0.000493382
-0.000217553
-0.00027985
-0.000277734
0.000557211
-0.000279698
0.000226439
-0.000105217
-0.000121254
-0.000719635
0.000523882
0.000447402
-0.000186556
-0.000263216
-0.000873317
0.000447277
-0.000554364
0.000317178
0.000237351
-0.000126899
-3.57198e-05
0.000162644
-0.00106193
0.000473059
0.000585552
-2.34307e-05
-0.000941817
0.000943869
-2.23102e-06
0.00024413
0.000354611
-2.34299e-05
0.000264548
-7.58507e-05
0.000635097
-0.000574079
0.000565276
-0.000393987
-0.000181652
-0.00045993
-0.000144167
0.000599488
0.000298594
-0.000160789
0.00104604
3.41408e-05
0.000184477
-0.000217764
0.000278056
-0.000977834
-0.000509868
0.000814582
-0.000308369
7.6098e-06
3.45952e-06
-1.53079e-05
0.000355547
0.000199216
-0.000390911
-0.000686959
0.00093452
-0.000693772
-0.000248718
6.54895e-06
-0.000120119
0.000102363
8.91086e-05
-0.000191555
-9.06336e-06
-1.60995e-05
1.60041e-05
3.55156e-07
3.02782e-05
0.000762089
-0.000531788
-0.00025641
6.79902e-05
0.000233604
-0.000301368
-0.00114118
0.000484587
0.000650206
-7.47189e-06
-0.000225426
-0.000179527
0.000405443
-0.00090681
0.00050994
0.000396422
1.39434e-05
-0.000188049
0.000429978
-0.000241486
6.68526e-06
-6.21707e-06
-4.96286e-07
-0.000445403
-0.000619625
0.00127664
-0.000808527
-0.000478971
2.4509e-05
0.000187382
-0.000212094
0.000469432
0.000606121
-0.000367792
-0.000237902
-0.000225724
0.000515362
-0.000291134
7.99411e-06
-2.38944e-05
9.86925e-06
-0.000378216
0.000579204
0.000311965
-0.000530912
0.000218063
0.0002431
0.000246222
-0.000574315
-0.000572442
-0.000371176
0.000514686
-0.000148986
0.00051586
0.000590067
-0.000638725
-0.000174372
0.000374468
-0.000200565
5.63784e-05
-0.000330469
0.000314799
-0.000592984
0.000729286
-0.000149363
-0.000460548
0.000285492
-3.001e-05
3.06384e-05
0.000561082
0.000568182
0.000360076
-0.000587721
0.000147319
0.000233271
-0.000488355
0.000285781
0.000201567
-0.00011833
0.000247185
-0.000129216
-0.000418955
0.000534383
-0.00012824
0.000205284
-7.70277e-05
0.000293225
-0.000693875
0.000395461
9.78485e-05
0.000128449
-0.000197707
0.00076932
0.000701622
0.000223997
-0.000451146
-0.000397813
0.000844693
-0.00020404
-2.40328e-05
0.000228029
5.52763e-06
-0.000132419
0.000978554
-0.000653841
-0.000331217
-0.00058771
0.000711567
-0.000123468
-0.000620001
-0.000303508
0.000920166
0.000282386
-0.000359266
-0.000228488
0.000627556
-0.00105941
-0.000487426
0.000648315
-0.000177402
-0.00115087
0.000460817
0.000686461
-0.000812273
-0.000341488
0.000275718
0.000290413
0.000155197
-0.000463141
-8.24982e-05
-0.000204863
0.000287081
-5.02684e-05
0.000106566
-9.77223e-05
-4.41409e-05
-0.000207066
0.000242934
-0.000238266
0.000186238
0.000226718
-0.000515255
0.000325834
0.000188407
0.000261131
-0.000492765
0.000231171
0.000280297
-0.000337373
3.12814e-05
-6.86979e-07
2.36703e-06
-0.000426658
-0.00044621
6.59361e-05
0.000309451
-0.000216566
-0.000101514
0.000195713
0.000104381
-9.79097e-06
4.41881e-06
-3.90545e-05
-0.000206965
-0.000246964
0.000199965
-0.000123958
-7.79986e-05
-0.00011983
-0.000196101
0.000317095
-0.00100888
0.000537218
0.000462719
7.75288e-06
-1.28722e-05
4.60776e-06
-0.000335243
-0.000282205
0.000615282
0.000133962
-0.000219809
8.59051e-05
-3.76686e-05
1.47859e-05
1.33436e-05
-5.16289e-05
0.00030385
0.000238488
-0.000825992
-0.00018196
-4.82604e-05
0.000229484
-0.000141526
0.000184577
-0.000267259
0.000308021
0.000275301
-0.000584523
0.00048992
-0.0005787
0.00022431
0.000206101
0.000159893
-0.000497017
0.000446695
0.000606436
0.000494576
-0.00040568
-9.15136e-05
0.000624779
0.000347024
0.000157119
9.91475e-05
0.000241641
-0.000347503
0.000699452
-0.000570399
-0.000131336
-0.000628051
0.00045209
0.000173583
-0.00111684
0.00051402
0.000592767
-1.60392e-06
-0.000349709
-0.000828634
0.00111976
-0.000296736
0.000456827
0.000219522
-0.000684298
0.000199911
-0.000111259
-8.86168e-05
-0.000929107
0.000231727
0.000697258
-0.000636943
0.000241396
0.000386613
-1.19642e-05
0.000198012
0.000264893
-0.000966668
-0.000208191
0.000186851
-0.000277758
-8.40034e-05
1.18296e-05
0.000594247
-0.00034298
-0.000254689
-0.000302256
-0.000342307
-0.000158687
7.35772e-05
-0.000136988
0.000318889
-0.000987497
0.000426249
0.000544568
0.000733532
-0.00112286
0.000383269
0.000284444
0.000259428
-0.000544019
5.07805e-05
-0.000213645
0.000156831
0.000225252
-0.000681155
0.000455099
8.53768e-05
0.000114537
0.000208376
-0.000163437
8.01037e-05
0.000139237
-0.000227043
0.000675534
0.000340825
-0.000272669
-9.88257e-06
1.14243e-05
-0.000673182
-0.000343182
0.00101138
-0.000734633
-0.000389679
-0.000640146
-0.00023448
0.00085727
-0.000347541
0.000386868
-4.06312e-05
-6.27821e-05
-2.90105e-05
5.88678e-05
-0.000509489
-0.000397677
0.00031548
-0.000688262
0.000368817
4.22841e-05
-0.000506332
-0.000327293
-0.000398507
0.000725707
-9.60943e-05
-2.22645e-05
-2.38639e-05
0.000259359
-0.000570592
0.000308356
-0.000928097
-0.000140712
0.00106251
0.000251607
-0.000762616
0.000505421
-0.00032863
0.0010211
0.0008946
-0.000410419
0.000218047
-0.000678065
0.000450255
-0.000134994
3.90788e-05
0.000250874
-0.000576074
0.000324256
0.000278643
-0.000867693
0.000585032
0.000438151
0.000258342
0.000323766
0.000564109
-0.000195953
0.000255486
-8.4302e-05
-9.6704e-05
0.000199078
-4.71152e-05
-0.000156919
-0.00052892
-0.000216637
0.000732663
8.06519e-05
-0.000224106
0.00014147
-0.000473271
-0.000758019
-0.000250023
0.00100492
0.000221892
-0.00030043
7.78759e-05
0.000286753
1.0909e-05
-0.000297644
0.000194932
0.000411496
1.78402e-05
1.15365e-05
-2.91133e-05
0.000148004
0.00040865
0.00105903
-0.000331352
0.000318219
-0.000170181
-0.000968771
0.000208331
-0.000126772
0.000311541
-5.68335e-05
1.69907e-05
0.000982773
-0.000234218
0.00074744
-0.00022154
0.000870156
-0.000657103
-7.18401e-05
-0.000919854
0.000374091
-0.000228515
-2.84855e-05
-1.15485e-05
2.71477e-05
0.00017812
-0.000153771
0.000282638
-0.000232899
-8.80986e-05
9.99171e-05
-0.00035308
7.21408e-05
0.000167257
-0.000243781
-0.000223353
-3.99756e-05
-0.000290492
-9.33015e-05
0.000362882
-0.000673382
0.00025157
0.000419062
-0.000964307
0.000341069
-3.06504e-06
2.11311e-05
-5.15702e-05
9.50734e-06
-0.000291595
-0.000139083
0.00042848
-0.000157382
0.000270675
-0.000113459
0.000282878
-0.000829684
0.000537284
-0.000866679
0.000636664
0.000161407
0.000102021
-0.000184912
-6.45701e-05
0.000249541
-0.00013892
0.000369693
-0.000230524
0.000981322
-0.000272228
1.99692e-06
0.000198907
-0.000994605
0.000539807
0.000445524
-0.000153166
-6.34819e-05
0.000215588
0.000506518
-0.000359053
-0.000226936
0.000220971
-0.00126367
0.000787433
-0.000526327
-0.000270699
0.000942288
-0.00061737
-0.000327013
-0.000237873
-0.00050093
0.000296108
0.000203494
-0.000694345
0.000339082
0.000353917
0.000673569
-0.000449517
0.00035146
-5.44877e-05
-0.000299273
0.000101432
-0.000257329
0.000155768
-0.000771391
0.000182359
-0.000570985
0.00084419
-0.000690947
-0.000405995
6.25519e-05
0.000259686
-0.000323329
-2.16004e-05
1.88661e-05
-8.05356e-06
-0.000190083
-3.27233e-05
0.000380959
-6.90886e-05
0.000333039
-0.000510231
-0.000463865
0.000266509
-0.000649985
0.000382589
-0.000149618
0.000228329
0.000380713
0.000635297
-0.00101667
-0.000218817
-0.000298175
0.00051218
-0.000199856
-0.000232273
-0.000682867
-0.000284677
-0.00052951
-0.00047278
0.000189173
0.000140914
-0.000330798
-0.000176026
-7.63336e-05
0.000248548
0.000208294
-0.000433343
-0.000163498
-0.000501379
0.000277816
0.000966165
0.000137581
-0.000827377
0.000682361
-0.0002952
0.000197684
9.69254e-05
-0.000520583
0.00022256
0.000286196
-0.000119526
0.000231672
-0.00026006
-3.60483e-05
0.00104372
-0.000668671
-0.000381013
-0.000847099
0.000420757
-0.00046756
-0.000299659
0.000766145
-0.00103053
0.000411827
0.000611107
0.000307315
-0.000492744
0.000185866
-0.000281358
0.000109748
0.000502066
-0.000908319
0.000399504
-0.00042694
7.8219e-05
-0.000571379
0.00096619
-0.00040507
0.000370287
-0.00083891
0.000346761
-0.000217538
4.68133e-05
-0.000185797
0.000508486
-0.000327303
0.000769863
-0.000451868
0.000805609
-0.000533016
-0.000292199
0.000548529
-0.000363944
-0.000209229
-0.000756185
5.98271e-05
0.000683198
0.00091742
-0.000408042
0.000147576
-0.000670488
0.000515254
0.000231828
0.000552284
-0.000795696
0.000657339
0.000292624
-0.000962647
-0.00033429
0.000636513
-0.000305247
7.2106e-05
-0.000890384
0.00081735
5.25739e-05
-0.000215189
0.000157363
1.3065e-06
4.70498e-06
-0.000146649
0.00036633
0.000673599
-0.000408232
7.13242e-05
-0.000726564
0.000433717
0.000602222
0.000209398
0.000245385
-0.00045462
-0.000521051
-0.000392896
0.000914592
-2.88641e-05
-1.23844e-05
-0.000388046
0.000109892
0.000141301
0.000176109
0.000415431
-6.49771e-05
-0.000356281
-0.000211707
1.68698e-05
0.000188941
0.000906769
-0.00059331
-0.000317435
0.000326125
0.000196341
-0.000164289
-0.000502884
-0.000167382
0.000179321
7.72913e-05
0.000332194
0.000213473
0.000183338
-0.000396366
-0.000939963
0.000358871
0.000773226
-0.000446589
-0.000329382
0.000162399
-8.87775e-05
0.000501684
-0.000245183
0.000138523
-0.000642214
-0.000216605
0.000561054
0.000428837
-0.000121096
0.000547307
-0.00100314
7.03613e-05
-0.000163149
5.97562e-05
-0.000231533
0.000166952
8.97651e-05
-0.000406032
0.000300439
7.93004e-05
-0.000259065
-5.91846e-06
-0.000248746
-0.000233022
0.000874347
0.000222868
-0.000880284
0.000650127
0.000508517
-0.000298939
-0.000396254
-0.000143658
0.000536149
-0.000206203
0.00041901
-0.000346642
0.000565605
-0.000176648
-0.000392847
-0.000381915
-0.000119404
0.000497844
0.000924953
-0.000305921
-0.000260781
0.000567561
0.000271424
-0.000410036
0.000557092
0.000221026
0.000364569
0.000453138
-0.000817169
0.000581623
-0.000634157
3.63267e-05
1.59435e-05
-0.000176204
0.00012828
-0.000266088
0.000912026
-0.000695813
0.000825874
0.000430376
0.00016306
-0.000611005
8.88668e-05
3.79119e-05
-0.000167897
-0.000201873
0.000203918
-0.000136989
0.000549995
0.000343768
-0.000671353
0.000345488
-0.000160507
-0.000186184
7.01817e-05
-0.000114426
1.5057e-05
0.000273598
-0.000519799
0.000243403
-0.000144952
0.000282624
-0.000415171
0.000379073
3.65742e-05
0.000271277
0.000171676
-0.00044668
-0.000217692
0.000320263
-0.000245183
-7.58778e-05
9.86528e-05
0.000221098
-0.000611102
3.62793e-05
-0.0005253
0.000139995
-0.000412919
-0.000488765
0.000258147
0.000230444
-4.55902e-05
5.51844e-05
0.000594438
0.000314867
-0.000560855
-0.00036599
-0.000131345
0.000493143
0.00077912
-0.000268025
-0.000514254
0.000407768
-0.000280265
-0.000128812
-0.000291732
0.000447074
-0.00015779
-0.000679884
0.000403316
0.000271775
-0.000392645
-0.000735396
0.00110486
-0.000520622
-0.000818675
0.000453004
0.000363434
0.000610781
-0.0004708
-0.000428838
-0.000677346
0.000574246
-0.000116417
-0.000461225
0.00066908
-0.000357677
-0.000433963
0.000224696
0.00020962
0.000136593
-0.000490319
-0.000330518
-0.00031231
-0.000219399
0.000407219
-0.000276357
-0.000156202
0.000124645
3.98932e-05
-0.000164539
-0.000133925
0.000123176
-0.000228296
0.000215303
-0.000541366
0.000204537
0.000220758
-0.000165502
6.99658e-05
-0.00016162
-0.00033054
0.000580212
-0.000185229
9.43932e-05
0.000516564
-0.000816754
0.000300842
0.000463286
0.000272637
-0.000236346
0.0004967
-0.000266481
-0.000608121
0.000362068
0.000241697
-0.000251751
-0.000222805
0.000474437
-0.000251005
-0.000315875
0.000566786
0.000755913
-9.30594e-05
-0.000671643
0.000890617
-0.000615857
0.000397828
0.000193789
-0.000681805
0.000299565
0.000379711
-0.000282611
-0.00056547
0.000847701
0.000224187
0.000527133
-0.000763123
-4.54489e-05
1.22229e-05
-0.000296674
0.000989291
0.000523105
0.000264123
-0.00073822
-0.00016102
0.000895122
0.000297903
0.000271997
-0.000573646
-1.90533e-05
-0.000431953
0.000137999
0.000231021
0.000149981
0.000644917
-0.00109591
0.000438147
0.000521462
0.000242496
-0.0002669
6.36647e-05
0.000203034
0.000137945
-0.000164555
1.32331e-05
-0.000332885
-0.000196884
0.00052408
0.000678038
-0.000466334
0.000245183
0.000316185
-0.000505565
0.000264623
0.000238873
-0.000563033
0.000813365
-0.000251905
-0.000114399
0.00040658
0.000776403
-0.000580882
-0.000202963
0.00062957
0.000222992
-0.000125251
-0.000167424
0.000381558
6.82162e-05
9.42162e-05
-0.000485231
-0.000221252
0.000693505
-0.000638487
-0.000277484
0.000904334
-0.000326256
-0.000357006
-0.000314379
0.000674537
-0.000374173
-0.000243296
0.000316542
-7.41137e-05
-1.99413e-05
-0.000199628
-0.000665634
-0.000318386
0.000983957
0.000656466
-0.000368754
-0.000267312
0.000152513
0.000114481
0.000235633
-0.000429381
0.000256184
-0.000234316
-2.14377e-05
0.000420873
-0.000575578
5.90804e-07
0.000231858
-0.000233894
2.66591e-05
-9.23609e-05
-0.000695578
0.000267422
0.000422086
-9.84653e-05
-0.000169017
4.78536e-05
0.000167668
0.000311371
-0.000244558
-6.77008e-05
-3.51929e-06
-2.53246e-06
3.93981e-06
-1.70583e-05
5.82505e-05
-0.000915868
0.000268804
0.00013767
-0.000853532
0.000111227
0.000129167
7.12291e-05
-0.000209118
-0.000387404
0.000160177
0.000225674
-0.000304819
0.000575541
0.000453757
0.000473052
0.000376616
-7.89383e-05
6.67838e-05
0.000131062
-0.000197918
-0.000267179
-0.000147566
1.21148e-06
0.000124261
-1.51107e-05
0.000137377
-0.000122283
4.9921e-06
6.89141e-06
-1.42663e-05
-0.000160005
0.000477742
0.000459886
0.000586486
-0.000258633
-0.000442234
-8.04067e-05
0.000242531
-0.000164132
9.24745e-06
-1.09969e-05
0.000444929
0.000125972
0.000228333
0.000279981
-0.000172414
-7.22835e-05
3.20524e-05
1.63508e-05
-7.44672e-05
1.97565e-05
0.000148256
0.00022726
0.000533552
4.26017e-05
-0.000593538
-0.000432834
0.000184594
0.000246126
0.000877493
-0.000294871
-7.33625e-05
0.000193393
1.49477e-05
-3.24053e-05
0.000553725
-0.000101413
0.000409458
-0.000297595
-0.000111889
0.000184173
7.25472e-05
0.000190836
0.00030108
-0.000259164
0.000553348
0.000419544
-0.000337307
-8.28462e-05
0.000213644
-7.93504e-05
-0.000207097
-0.000324703
0.000316299
-0.000472327
0.000155993
2.75129e-05
-4.62222e-05
-0.000185711
0.000322199
-0.000137572
-0.000665595
0.000338226
0.000335939
-0.000147601
0.000750518
-0.000245743
-0.00094797
0.000782935
0.00010295
-0.000505069
0.000855908
-0.000393889
-0.000194903
0.000585339
0.000144135
0.000122789
-0.000267335
-2.12154e-05
4.60265e-05
-3.78994e-05
0.000288239
0.000302494
-0.000902104
0.000509034
0.000383216
-6.23162e-07
6.65122e-06
0.00024457
-0.00014335
0.000442203
0.000421313
-0.000863975
0.000788956
-0.000484905
-0.000311663
-0.000212402
-0.000289792
-0.000268126
-0.000249214
-0.000408912
0.000652301
7.02136e-06
-2.9724e-06
9.2592e-05
0.000151552
0.000772338
-0.000260123
-0.000975183
-0.000184375
0.000159411
0.000409912
0.000371767
-0.0002231
0.000284719
-1.08636e-05
1.02364e-05
-0.000254513
0.000443695
-0.000190563
-1.86283e-05
-3.3669e-05
3.35175e-05
9.5792e-05
0.000273896
-0.000392637
-0.000489528
-0.000120719
-0.000233715
-9.98694e-05
0.000142197
-4.22507e-05
0.000267826
4.26999e-05
-0.000735932
-0.00026943
0.00100434
0.000138941
-0.000451833
-0.000166904
0.000569647
-0.000467278
-0.000626889
-7.08502e-05
-0.000196273
0.00024935
-0.000239988
-1.05849e-05
0.000344069
0.000558515
0.000722101
-0.000537682
-0.000284775
-0.000667003
-6.04417e-05
2.63876e-05
-2.12652e-05
-0.000635349
0.000644992
-1.43822e-05
-1.44151e-05
-0.000519948
0.00030805
0.000209833
0.000481165
-0.000746869
0.000260739
-0.000214981
-0.000218564
-0.0005735
0.000175711
0.00023245
0.000705844
-0.000939057
0.000298538
-0.000549597
-0.00059913
0.000871539
-0.000639602
0.000250429
0.000386234
0.000491766
-0.000207124
-0.000139757
-0.000442636
0.000255569
0.000518216
-0.000777516
-1.56553e-05
1.66538e-06
0.000362427
-0.000288891
-1.96205e-05
-6.06326e-05
1.09258e-05
-3.60044e-05
-0.000232498
-0.000379616
8.95887e-05
1.3845e-05
-0.000141251
0.000107609
-0.000122725
-0.000315367
0.000443434
-0.000131281
3.57981e-05
8.24356e-05
-0.000142991
0.000135839
0.000236394
-6.07217e-05
2.92132e-05
5.44129e-05
0.0002324
-0.000668964
0.000433569
-0.000750675
0.000527508
-8.82244e-05
-9.70677e-05
0.00025305
-0.000465527
0.000210584
0.000334523
0.000152406
-0.000384483
0.000538967
-0.000162845
8.07968e-05
-0.000231404
0.000147786
0.000226645
0.000489012
-0.000727462
0.000358236
-0.000470387
0.000107073
0.000291997
-0.000387269
9.27826e-05
-0.000567246
-0.000242391
0.000794324
0.00017853
-0.000128591
-4.99347e-05
0.000736906
-0.000197518
-0.000543268
-0.000614571
-0.000274613
0.000888835
-0.000146593
0.00048114
0.000753296
-0.000501374
0.000169611
-0.000102887
-0.000505268
0.00026311
1.15882e-05
-7.26044e-05
4.20393e-05
-0.000500574
0.000196632
-0.000111271
-0.000329943
-0.000217057
-0.000481539
-0.000119169
0.000189665
0.000329762
-0.000990154
0.000660057
0.000116264
-0.000428168
-0.000746132
0.000204438
0.000658724
-0.000898036
-0.000221888
0.000160087
-0.000484374
0.000323818
-0.000540826
0.000535417
-0.000183836
0.000162029
-0.0005001
-0.000248647
0.00029963
0.000752581
-0.000187693
0.000482369
6.10057e-05
-0.000379406
-0.000282645
0.000907562
-0.000115577
-0.000447856
5.32335e-05
-6.03041e-05
-0.000237027
0.00052497
0.00072173
-0.000164026
0.000263805
-0.000807815
0.000538464
-0.000716528
0.000430434
0.000281628
-0.000155806
0.000188004
-3.21876e-05
2.92466e-05
-4.87821e-05
1.92967e-05
-0.000658396
0.000988042
7.09712e-05
0.000645287
-0.00104239
0.000672083
0.000366824
-0.000618353
0.000384491
0.000229434
0.000255433
-6.68146e-06
2.29165e-05
-6.93988e-05
-0.00035563
0.000212514
0.000141044
0.000121087
0.00028825
2.2907e-05
-1.84872e-05
-4.06172e-06
0.000690801
-0.000388169
-0.000316948
-0.000503949
-2.39285e-05
7.63141e-05
0.000646056
-0.000412593
-0.00024844
0.00010748
-0.000517227
0.000399724
-0.000356259
0.000915174
-0.000562028
-0.000519463
0.00048148
7.167e-05
-0.000443463
-0.000374118
-0.000158597
0.000515886
0.000266205
-0.000146565
-0.000120486
0.000339019
-0.000267913
3.25305e-08
-0.000369312
0.000278156
-0.000398442
-0.000605323
0.000241016
-0.000241934
0.000892624
-0.000277386
0.000144675
-0.000189621
3.33287e-05
-0.000209962
0.000460962
-0.000283206
-0.000314295
0.000596147
-0.000303565
0.000361628
8.67047e-05
0.000437195
-0.00053524
0.000430779
0.000200092
-0.000541707
0.000510712
-0.000186157
0.000757859
-0.000360058
0.000222491
0.000457686
-0.000688248
-0.000303558
0.000400618
0.000202694
-0.00078486
0.000199892
0.000460643
-0.000674857
0.000455833
1.6671e-05
0.000382865
-0.000643271
-0.000245584
0.000886308
-0.000839098
0.000318581
0.00047838
0.000461541
-0.0001312
0.000387591
-0.000287375
-9.88658e-05
-0.000909253
-0.000379836
0.000213912
0.000165157
0.000428674
-0.00069262
0.000184738
-0.000794966
0.000606666
3.12851e-05
-3.27976e-05
-4.09496e-05
-3.56329e-05
6.17794e-05
0.000403513
0.000198733
-0.000611186
0.000289655
0.000531316
-0.000826127
-0.000797786
0.00023324
-0.000427531
0.000503151
-7.6392e-05
0.000222791
-0.000147318
-0.000677855
0.000927981
-0.000259346
-0.000298307
0.00075852
-0.000603215
-0.000166493
0.000434147
-0.000163422
-3.78587e-05
-0.000369734
0.000304714
-0.000149414
-0.00024012
0.000389744
-0.000892613
0.000246861
-4.89476e-06
2.59088e-05
-0.000224278
0.000235219
-0.000497734
0.000727555
-0.000235784
9.41045e-05
-0.00048234
0.000257727
-0.000602435
0.000932764
-0.000332254
-0.00105878
0.000695191
0.000356803
-0.000228223
-0.000425435
0.000641037
0.000311156
0.000365541
0.000218532
-3.20131e-05
-0.000186694
-0.000287683
-0.000295939
0.000578919
-0.000951799
0.000214712
0.000463656
-0.000856166
0.000373439
0.000256948
-0.000381616
7.52882e-05
-1.59951e-06
9.16798e-06
-0.00051456
-0.000250901
0.000761284
0.000297048
-0.000859683
0.000562042
-6.58744e-06
-6.50197e-06
0.000408258
-0.000274881
0.000530939
-0.000261669
-0.000911309
0.000306699
-0.000236381
0.000436665
0.00102069
-0.00072574
-0.000295773
0.000307234
6.77148e-05
-0.000385856
7.32361e-05
-9.13822e-06
-7.8918e-05
-0.000403432
-0.000292167
-0.000558019
-0.000627236
-0.00025936
0.000875319
-0.000866791
0.000544046
0.000315754
-0.000615031
-0.000271013
0.000874467
-0.000339075
2.71582e-05
0.000271444
0.000982009
-0.000444412
-0.000538224
0.000594169
-0.000885328
-0.000192388
0.000211842
-1.88419e-05
0.000112808
0.000245863
0.000669628
-0.00091728
-0.000202248
-0.000419521
0.000784813
-0.000173691
-0.00100951
0.000757078
-0.000334694
-6.49518e-05
0.000377145
-0.000237786
-0.000381748
0.000614004
0.000788769
-0.000431159
-0.000371116
0.000731206
-0.000475554
-0.000262822
-0.000176236
-0.00052876
0.000210288
0.000440065
-0.000665393
0.000692454
-0.000620997
-0.000885455
-0.000315408
0.000181965
0.000132584
0.000442173
0.000307198
0.000405867
-0.000181638
-0.000224814
-0.00032397
0.000654847
-0.000332099
0.000227298
0.00045231
-0.000691308
-0.000248204
-0.000588657
8.27775e-05
-0.000585818
-0.000288645
0.000751573
-0.000469105
0.000633088
-0.00022513
-0.000412668
-0.000245178
0.000165065
0.000181685
-0.000116635
-0.000342064
-0.000179824
6.53422e-05
-0.000190669
0.000124411
-0.000718316
0.000489234
-0.000300168
0.000258274
0.000146273
0.000714449
0.00027591
-0.000962965
0.000433453
-0.00034673
-6.84747e-05
0.00039311
0.000838391
0.000475614
0.000256417
0.000370671
-0.000145397
-0.000225348
0.000384243
-0.00104504
0.000655567
-0.000830934
0.000503745
0.000311484
-0.000125075
0.000299784
-0.000703691
-0.000465395
9.57306e-05
0.000322276
-0.00017263
0.000592977
-0.000996621
0.000397252
-0.000385045
0.000162864
0.000365783
-0.000544739
0.00042896
-0.000234757
7.47403e-05
0.000156752
-0.000679903
0.000946892
-9.99483e-05
-0.000157411
-3.50414e-06
6.21547e-05
-0.00039173
-0.000226701
0.000384783
-0.000250932
0.000152632
-8.24707e-05
-0.000155071
0.000257355
0.00071725
-0.0009768
-0.000249609
-0.000130992
-0.000257907
-0.000338746
0.000591343
-0.0011123
0.000785988
0.000318394
-0.000903954
-0.000174977
0.000375306
-0.000237951
-0.00015036
-0.000136929
-0.000252017
0.000272631
0.000334169
-0.00061572
-6.58734e-05
0.000190496
0.000588862
-0.000936532
0.000308684
-0.000656077
0.000347276
-0.000534982
-0.000135297
0.000187793
-5.66545e-05
-9.57611e-05
-0.000165184
9.87836e-05
-5.32184e-05
-1.01336e-05
3.91504e-05
0.000100683
0.000122201
0.000931353
-0.000359215
-0.000579588
0.000115623
-0.000472055
0.000334988
0.000744246
0.000263519
-0.00100874
-0.00056103
-0.000630935
0.000387387
-0.000199617
-0.000352682
0.00084822
-0.000269708
0.000385193
0.00038513
-0.000147776
0.000323261
-0.000176817
-0.000437851
-0.000395815
0.000552194
0.000178162
-9.75353e-05
-8.06329e-05
0.000342579
-0.000930816
0.000580036
-0.000202895
-0.000425045
-0.00012124
0.000531124
9.60502e-05
-0.000165112
6.90966e-05
0.000125228
0.000408546
-0.000492966
7.80734e-05
0.000240012
-0.000168583
0.000724563
-0.000492333
-0.000239101
7.76321e-05
0.000158952
-0.000206721
0.000424641
-0.00022422
-0.000219799
-0.000343081
0.000555378
-0.000667899
0.000379098
0.000274167
-0.000282938
0.000589866
-0.000310691
-3.18444e-05
0.000165068
0.000557237
0.000366552
0.000402469
-0.000179456
-0.000225147
0.000450534
-0.000229323
-0.000220456
0.000218754
-0.000367915
0.00012229
0.000260512
-0.00067055
0.000134809
-0.000231511
-0.000172554
-0.000555327
0.000708288
0.000378683
-0.000165662
0.000553858
-0.000836952
3.78948e-05
0.000329868
-9.08462e-05
-0.000245549
-0.000425753
0.000172174
-0.000109254
-9.89343e-05
-0.000572039
-0.000337855
0.00089866
0.000257546
6.6328e-05
-0.000181281
0.000256924
-0.00042424
0.000672369
-0.000268419
-0.000259703
-0.000382707
0.000452139
-0.000357817
0.000116842
0.000102923
-0.000219385
-0.000226401
-0.000444443
-0.000186674
0.000613027
0.000182307
3.60605e-05
7.19048e-05
-0.000510899
-0.000546548
0.000596203
0.000765216
-0.000244989
0.00025118
-0.000159082
-0.000725026
0.000232832
2.35362e-05
-9.97103e-06
-2.05584e-05
0.000489388
-0.000512918
0.000705751
-0.000204723
-0.000230648
0.000264791
-0.000145733
-0.000119744
-0.00063664
0.000867494
-0.000409077
-0.000458017
-0.000600591
0.000201661
-0.000450614
-0.000462444
0.00070229
-0.000283855
-0.000258417
0.000535844
-0.000779093
0.000378139
0.000720993
0.000297857
0.000563759
0.000207469
8.55283e-05
0.000128212
0.000701499
6.18429e-05
-0.000768246
-2.29945e-05
-7.99437e-05
-0.000450068
-0.000668549
0.000153517
0.00018451
-0.000347792
0.000576956
-0.000339129
0.000245748
9.19376e-05
-0.000384032
0.000132872
-0.0001711
0.000647852
0.000106747
8.99157e-05
-0.000136095
0.000253349
0.00100573
-0.000286719
-8.95244e-05
-0.000251121
-0.000327928
0.00056177
-0.000178887
7.78264e-05
0.000101137
-0.000250302
0.000494718
0.00028282
-0.00051002
0.000227486
-0.000232201
-0.000434603
0.000244915
-0.000255492
-0.000381552
0.000630599
5.70896e-05
0.000453606
-0.000510575
-0.000233565
0.000142167
9.13175e-05
7.10615e-05
-0.00023588
0.000162232
0.000879749
6.71783e-05
-0.00017106
-0.000405145
0.00060176
-0.000256698
-0.000316417
0.000901948
0.000567956
-0.000303973
-0.00031907
0.000606706
-0.000287902
0.000204857
-0.000148199
-5.64524e-05
-0.000540646
-0.000227336
0.000139116
-0.000217964
2.1842e-06
-7.62317e-06
-0.000253735
2.24931e-05
0.000225371
0.000328574
0.000131137
0.000173998
-0.000305036
0.00051883
0.000205381
8.4498e-06
-5.84669e-06
0.000450912
0.000104871
-0.000352084
0.000560967
-0.000219916
-0.000538127
0.000563893
-0.000923412
0.000988788
-0.000733741
-0.000259753
0.000452992
0.000321025
0.00090914
-0.000170178
0.00023869
0.000367299