/*--------------------------------*- C++ -*----------------------------------*\
| =========                 |                                                 |
| \\      /  F ield         | OpenFOAM: The Open Source CFD Toolbox           |
|  \\    /   O peration     | Version:  v2012                                 |
|   \\  /    A nd           | Website:  www.openfoam.com                      |
|    \\/     M anipulation  |                                                 |
\*---------------------------------------------------------------------------*/
FoamFile
{
    version     2.0;
    format      ascii;
    class       volVectorField;
    location    "400";
    object      ddt0(U);
}
// * * * * * * * * * * * * * * * * * * * * * * * * * * * * * * * * * * * * * //

dimensions      [0 1 -2 0 0 0 0];


internalField   nonuniform List<vector> 
13917
(
(0.00170691 0.00161212 -8.9203e-18)
(0.000336473 0.000549021 3.34748e-20)
(-0.0196278 -0.00508672 -2.42025e-18)
(0.00102282 -0.000743069 -4.27009e-18)
(-4.8998e-05 0.000310589 1.72037e-18)
(0.000165075 0.00285451 -4.46521e-17)
(-0.0198946 -0.00496045 6.73672e-18)
(-0.0208055 -0.00439189 5.08832e-19)
(-0.0326739 0.000658627 1.3601e-17)
(0.00224263 0.00206161 -3.52939e-17)
(0.00259956 -0.00464045 7.06251e-18)
(0.00138684 -0.0029596 1.24581e-17)
(0.00115045 -0.000767582 1.03721e-17)
(-0.0214561 -0.000442417 5.97809e-18)
(0.000427221 0.00139355 -5.67572e-18)
(0.000470916 0.00124533 1.68522e-18)
(0.000218918 0.000658667 2.28835e-19)
(0.00358497 -0.000401541 3.89721e-18)
(0.00129523 -0.00287872 -8.72558e-18)
(-0.000175016 8.29563e-05 -1.02876e-18)
(-9.93372e-06 3.66135e-05 5.41632e-18)
(-0.0204282 -0.00479275 -3.08801e-18)
(-0.000163007 0.00017073 2.67139e-20)
(-0.0181637 -0.00503347 -9.63351e-18)
(-0.000103078 0.000457092 1.12587e-18)
(-0.0175527 -0.00536861 -1.2585e-18)
(0.000249551 0.00197679 2.87516e-17)
(0.000472388 0.00219609 7.03999e-17)
(0.00021792 0.00307443 7.48286e-18)
(0.00378579 0.00176517 -3.63275e-17)
(0.00200446 0.00143151 -1.42587e-17)
(0.00115628 0.00107088 -4.21808e-18)
(0.000319258 0.00185713 3.83117e-18)
(0.000126219 0.00145401 1.59488e-18)
(-8.24386e-06 0.000515954 2.15545e-18)
(0.000670998 -0.00604812 -1.23641e-17)
(-0.000170539 0.000162534 -2.06925e-18)
(-0.0232996 -0.000579007 2.00415e-18)
(0.00126679 -0.00100841 4.12522e-18)
(-0.0125495 -0.0012831 2.29067e-18)
(-0.00036204 9.15824e-06 1.96506e-19)
(2.02119e-05 1.36384e-05 -1.47336e-18)
(0.00014141 -3.36538e-05 4.58567e-18)
(0.000483597 0.00246607 1.80926e-19)
(0.000492276 0.000140725 2.05297e-18)
(0.000189099 0.00156943 -1.28435e-17)
(0.00346264 -0.000465126 -5.72114e-18)
(0.00399529 -0.00169059 7.34373e-18)
(0.000433263 0.00385988 -7.51064e-17)
(-0.000337137 1.07805e-05 6.23e-20)
(0.00141666 -0.00047874 7.24447e-18)
(7.78833e-05 0.000955261 1.28401e-18)
(0.000466521 0.00414121 6.70451e-17)
(0.00013778 0.00148321 1.75491e-17)
(0.000279423 0.000681136 -1.07515e-19)
(0.00172063 0.000128256 -4.52997e-18)
(0.00273388 -0.00459162 -1.70142e-17)
(6.83448e-05 0.000628756 -7.91927e-19)
(0.00128318 0.000315385 -1.07305e-18)
(0.000422087 0.000146157 -3.45017e-18)
(-0.0239679 -0.000436028 4.1725e-17)
(0.0003488 0.000540969 -2.35044e-18)
(-0.0154626 -0.00013743 -1.19312e-17)
(-0.000202008 9.0284e-05 7.90729e-19)
(0.000220009 0.00285193 5.93103e-17)
(-0.0141818 -0.00555611 3.94532e-17)
(3.12914e-05 0.000342276 1.92059e-18)
(3.42147e-05 0.000571019 -5.7475e-18)
(0.00506889 -0.00344827 1.67634e-17)
(0.00131676 0.00158699 -1.4733e-17)
(-3.05625e-05 0.000294973 -2.22064e-18)
(-0.0315715 4.68931e-05 -2.73035e-17)
(-0.0172661 0.00185833 -1.82363e-18)
(-5.13805e-05 0.000442994 9.66698e-19)
(0.000472086 0.00369279 5.59487e-17)
(0.000932559 -0.00303063 -1.12515e-17)
(-0.0202802 0.000677479 -9.72315e-18)
(0.000911086 6.89224e-05 -4.42136e-18)
(-0.0151395 -0.00420269 -1.48732e-19)
(-1.3195e-05 7.02881e-05 2.62568e-18)
(-9.91961e-05 7.90629e-05 4.58389e-19)
(3.36481e-05 0.000320172 -4.57321e-18)
(0.000352522 0.00282106 -2.53845e-17)
(-0.0237439 -0.000692112 -7.31787e-19)
(-0.00510195 0.000479198 -1.04528e-17)
(0.000897497 5.35617e-05 -9.44251e-19)
(-0.000119119 8.90759e-05 1.03817e-18)
(-0.0137378 -0.00213476 3.84415e-17)
(0.00179542 -0.000462037 5.2638e-18)
(0.000188651 -3.82353e-05 -1.99831e-18)
(-0.0211553 0.000887001 1.07192e-17)
(0.00293621 0.00211453 -1.60272e-18)
(0.000168218 0.000247227 2.56644e-18)
(0.000256352 0.00107222 -7.13655e-18)
(-0.00775907 -0.00164096 -3.96322e-17)
(0.000206763 0.00279608 -3.88664e-17)
(0.00380526 -0.00367925 -4.30288e-17)
(0.00395497 -0.00127217 -1.7303e-17)
(0.000603005 -0.00386998 -1.51408e-17)
(0.00036136 0.00244276 1.82458e-17)
(-0.000172699 5.74953e-05 1.2472e-18)
(0.000185213 0.00175473 -2.70543e-17)
(0.000467629 0.00239768 3.55727e-17)
(0.00110801 -0.000127836 -3.79484e-18)
(-4.56521e-05 0.000116835 9.60233e-19)
(-0.0326933 0.00151422 -7.92166e-19)
(0.000277385 0.00304372 -5.93356e-18)
(0.00408009 -0.0017283 -4.14389e-17)
(0.000254578 0.000652585 -4.502e-19)
(0.00184402 0.00164501 9.12389e-18)
(-0.00721694 0.00155659 6.44145e-17)
(-0.0128901 -0.00134549 -4.328e-18)
(0.00139715 -0.00338346 1.4274e-17)
(-0.0330316 0.00140738 2.23429e-17)
(0.000143383 0.00114597 -4.78694e-18)
(-0.000127594 0.00384191 4.07722e-17)
(-0.000124882 0.000309224 -9.71076e-20)
(0.000343761 0.00344566 -1.95121e-17)
(-0.0196859 -0.0014914 4.70209e-18)
(0.000167103 0.00146942 -1.56692e-17)
(1.95459e-05 2.68127e-05 4.55738e-19)
(0.00547901 -0.00336402 -3.19576e-17)
(-0.0212053 -0.0012038 1.71963e-19)
(0.000408334 0.00216152 -5.10916e-18)
(-0.000348438 9.48466e-06 -1.17243e-19)
(0.000230999 0.00104128 -9.73982e-19)
(0.00042312 0.000241167 2.61135e-18)
(-0.000371143 7.68502e-06 2.59065e-19)
(6.65319e-05 -8.54785e-06 2.15428e-18)
(0.000246354 0.00287904 4.41859e-17)
(-0.02106 -0.00221645 -3.88545e-18)
(0.000119088 0.00113051 1.66032e-17)
(0.000528598 0.000156587 -9.50556e-19)
(4.91691e-06 3.02209e-05 -3.93644e-18)
(0.0128049 0.00168436 -3.09364e-17)
(-0.0171271 -0.00553023 -5.89176e-18)
(0.00162798 0.00164617 -9.05674e-18)
(0.000253945 0.002451 1.66923e-17)
(3.67385e-05 0.000354264 3.2139e-18)
(0.000164253 0.00146339 2.94366e-17)
(0.00178007 -0.00580613 1.07048e-17)
(0.000147351 7.01468e-05 3.67862e-18)
(0.000116237 0.00101724 5.59594e-18)
(0.00054493 0.00254845 -2.55066e-17)
(4.21063e-05 0.000581703 5.42914e-18)
(-0.0261855 -0.000938237 1.62775e-17)
(7.41156e-05 0.00308067 5.4997e-19)
(9.2194e-05 0.000932127 -2.3702e-18)
(0.000161888 5.11884e-05 -1.49287e-18)
(0.00109351 0.00119794 2.74317e-18)
(0.00286688 -0.00217026 -1.82563e-17)
(1.28419e-05 0.00372224 -6.88392e-17)
(0.00243614 -0.00342413 2.60627e-17)
(0.000842328 0.00197423 -2.15088e-18)
(0.00140164 0.00064102 -2.40455e-17)
(-0.0038528 -0.000606575 -1.88681e-16)
(0.00120009 0.00157185 1.88396e-17)
(0.00672861 -0.00591621 1.57352e-17)
(-0.0202416 0.00058095 2.06798e-17)
(0.0110527 0.00209313 6.92541e-18)
(0.000231658 0.00129467 4.51094e-18)
(0.00013726 0.00199833 -2.99281e-17)
(-2.24125e-05 5.87669e-05 -1.12272e-18)
(0.00349227 -0.00362879 4.30692e-17)
(0.00139986 -0.00335838 -1.91566e-17)
(0.000648065 -0.00386439 9.9083e-18)
(0.00109378 -0.000103426 -3.43779e-18)
(0.003523 -0.00184251 3.08842e-17)
(0.000326366 0.000135706 1.85677e-18)
(0.000119446 0.0018398 3.18104e-17)
(0.000913505 0.00193162 5.90872e-18)
(-0.00297151 0.000945558 -7.49871e-18)
(0.00115301 -0.00345232 2.19972e-18)
(0.000366393 0.000795032 -1.09704e-19)
(-0.0132606 -0.00417748 -2.15682e-18)
(0.000739892 0.00210025 -2.0899e-18)
(-0.0213791 -0.00241072 3.75627e-18)
(0.000217988 0.00357916 8.71648e-17)
(-0.0227027 -0.00167126 -2.26152e-17)
(3.53316e-05 0.000384172 5.12766e-21)
(0.00305823 0.00210225 -2.11675e-17)
(0.00210288 0.00143074 7.80126e-19)
(0.00015355 5.99648e-05 -7.22989e-20)
(-0.00013228 9.80038e-05 -9.36151e-19)
(0.000443111 0.00165104 -1.92633e-17)
(-0.0159148 -0.00584591 -3.95592e-19)
(0.00448066 0.00308245 3.10567e-17)
(-0.00477544 -0.000590401 2.01304e-16)
(0.00268393 0.00016137 -1.43326e-17)
(0.00134581 -0.0040536 -1.49865e-18)
(0.00267574 -0.00559073 -3.8005e-18)
(-0.00641729 0.000485916 -1.36681e-16)
(0.00340692 0.00317177 5.47884e-17)
(-0.000147394 0.000207567 2.53583e-18)
(0.000279981 0.00244096 6.40009e-17)
(0.000263144 0.00195951 9.76023e-18)
(-0.00037272 2.37549e-06 -1.06958e-18)
(0.000157456 0.00026068 1.62256e-19)
(0.000376757 0.00296928 -2.02312e-18)
(-0.00077408 0.00537721 4.68919e-17)
(0.00157422 -0.00087947 1.1878e-17)
(-0.000343999 9.64857e-06 5.18852e-20)
(0.00339814 -0.00186313 1.147e-17)
(0.0026462 -0.00215564 1.6236e-17)
(-0.0167441 0.00160204 -8.38898e-18)
(0.0118228 -0.000819491 -3.51757e-18)
(-2.02057e-05 0.000501893 2.58617e-18)
(6.67181e-05 0.000649499 -4.5869e-19)
(0.00388186 -0.0013545 2.49821e-17)
(-0.016706 -0.00589647 6.38184e-19)
(0.000112021 0.000991575 -9.64116e-18)
(-0.0206768 -0.00474082 -3.16509e-18)
(-0.0160024 0.00124279 -3.34699e-18)
(0.00139106 -0.00405539 1.55472e-18)
(-3.29976e-05 0.000124248 -2.96129e-19)
(0.000689645 0.0030913 -6.36085e-17)
(0.00360445 -0.0013317 9.01022e-18)
(-0.00615464 0.00124583 9.29889e-17)
(-6.78514e-05 0.000354767 -1.82491e-18)
(-0.0261461 -0.000878064 -5.27527e-18)
(3.45914e-05 0.000371813 2.22852e-20)
(0.00408833 0.00129076 -1.45985e-17)
(-0.000363619 1.13452e-05 1.35842e-18)
(-0.0236365 -0.000312641 -1.0687e-17)
(-0.0331504 0.00186807 -2.50242e-17)
(0.000511175 0.00127354 5.48807e-19)
(0.00163904 0.0045955 9.46696e-18)
(0.00150419 0.000623946 7.57501e-19)
(-6.79889e-05 0.000121754 4.60988e-20)
(0.00070953 -0.00597749 5.61496e-18)
(0.00104249 -0.00337071 -5.69617e-18)
(0.00259105 9.47655e-05 2.29943e-17)
(-0.0162348 -0.0055553 -6.748e-18)
(-0.0157487 0.00104838 -5.57167e-18)
(-0.000214748 2.42408e-05 4.09509e-19)
(0.00123708 0.00108828 9.28859e-19)
(-0.0218737 0.00117606 -9.14542e-18)
(-0.00331444 9.19937e-05 4.34406e-17)
(-9.46502e-05 6.76269e-05 -2.47479e-18)
(-0.000195053 0.000132543 -1.85125e-19)
(-0.0123471 -0.00141704 -1.08089e-17)
(0.00405364 -0.00373002 -1.62023e-17)
(-3.11816e-05 2.14819e-06 -2.33076e-19)
(0.001476 -0.00552494 -9.16684e-19)
(0.00492944 -0.000345673 -2.87003e-17)
(6.28074e-05 0.00195198 2.39185e-17)
(0.00176808 0.00131109 4.70104e-18)
(-7.83528e-05 6.30433e-05 2.96513e-18)
(0.000615964 0.00212085 9.72246e-23)
(-0.0179464 0.00098092 -1.79101e-17)
(0.000657169 -0.000254552 -2.25243e-19)
(0.00308827 0.00241937 1.89687e-17)
(0.000395861 0.00256566 1.6228e-17)
(0.000433919 0.000221481 -4.96844e-19)
(5.09323e-05 0.000618956 4.0103e-18)
(0.0025584 -0.00300291 -7.5308e-18)
(-0.0126991 -0.00159237 -6.38024e-18)
(0.00253922 -0.00334782 -2.03659e-17)
(0.000462073 0.00167652 -2.0613e-17)
(0.000427303 0.00139907 8.29323e-19)
(-1.71084e-05 3.818e-06 -4.55525e-19)
(-0.0211668 -0.0010876 -3.82062e-18)
(-0.0319907 0.00362426 -1.69161e-17)
(9.24932e-05 -0.00520274 -4.87938e-18)
(-0.000116976 0.000128224 -8.06079e-19)
(-0.0129184 0.00181287 -1.37057e-17)
(-0.0216847 -0.000265605 -4.94295e-18)
(0.00890406 -0.00619087 -1.09385e-17)
(-0.01552 -0.00399072 -3.20663e-18)
(0.000946157 -0.00309833 -5.99474e-19)
(-6.83179e-05 7.73228e-05 -1.3698e-19)
(-0.000373155 1.08774e-05 -8.44473e-19)
(0.00364313 -0.000666244 -2.07156e-19)
(-0.0224434 3.73057e-05 3.08714e-19)
(0.00499951 -0.00202321 -1.66294e-17)
(0.00128426 0.000281037 4.73905e-18)
(0.0144054 -0.000968299 -1.11036e-17)
(0.00140128 -0.00208288 1.15892e-17)
(5.18003e-05 -7.09092e-06 -3.73301e-18)
(-0.0299256 0.00169691 -2.90224e-17)
(-0.000183911 7.75066e-05 1.55708e-18)
(-0.0161733 -0.00408173 -1.80311e-17)
(0.0015278 -0.000846064 -1.07876e-17)
(-8.14539e-05 2.17181e-06 -9.17073e-20)
(0.000579928 0.0014107 -8.51776e-19)
(0.000699755 0.00196743 2.62965e-18)
(0.000142898 0.0019889 2.35209e-17)
(0.00118816 -0.00566807 3.68674e-18)
(0.000592695 0.00169713 -1.78486e-19)
(0.000665228 -0.000165435 -1.51621e-18)
(0.00465462 0.00137401 -6.38664e-17)
(-0.0156266 -0.00546632 7.40454e-18)
(-0.0338012 0.00391529 4.44024e-18)
(-7.52575e-05 0.000348946 3.20757e-18)
(0.0103982 -0.00605032 3.37656e-18)
(2.40748e-05 0.000198285 5.0662e-18)
(0.000658524 -0.000183222 -1.81526e-17)
(-0.000127139 0.00029284 -1.0182e-18)
(6.11938e-05 0.00313645 -1.70139e-18)
(-0.000279561 1.23014e-05 1.81596e-19)
(0.00419735 0.00134676 9.15671e-18)
(0.00166393 0.00129605 -1.48653e-17)
(0.00033299 0.000122731 2.95762e-18)
(0.00339679 -0.00196499 2.30463e-19)
(0.000638034 0.000667944 4.30291e-18)
(0.000437094 0.00377027 7.31963e-17)
(0.000771064 0.00207648 2.79276e-18)
(0.00284647 0.00203749 3.3906e-17)
(0.000309714 4.00769e-05 -3.29835e-18)
(4.34014e-05 0.000597313 5.69669e-19)
(-0.00624983 0.00137338 8.18306e-19)
(-0.0217446 -0.000902488 -2.37937e-18)
(-0.000111535 0.000315906 -1.07278e-18)
(-0.000367395 1.07821e-05 -2.63492e-19)
(-0.0280911 0.00189031 5.13575e-17)
(5.88866e-05 0.00033199 -2.65489e-19)
(-0.0181061 0.00199827 -1.51878e-18)
(0.000284892 4.38305e-05 2.95667e-18)
(-0.0240019 -0.000405487 1.13084e-17)
(0.000905607 -0.00048641 -1.21628e-18)
(0.00198735 0.00347235 -5.21971e-17)
(0.00237461 -0.000955254 -7.40915e-18)
(0.000587244 0.00358976 3.67237e-18)
(0.000238172 0.00126675 -5.35473e-18)
(0.014686 0.00128302 -2.74056e-17)
(0.000652286 0.00298346 3.88076e-17)
(0.000589585 0.00138052 -3.47461e-19)
(0.00415801 -0.00364653 -1.85832e-17)
(0.000288233 0.0032367 -1.74447e-17)
(0.000179447 0.000787264 -9.26437e-19)
(-0.0224818 -0.00138346 8.21792e-18)
(0.000243195 0.00240304 -1.01422e-16)
(-0.0220095 -0.000299824 3.3776e-18)
(0.000180163 0.00137168 1.1774e-17)
(-0.0156883 -0.0012718 -1.09848e-17)
(0.00130108 0.00105442 2.72032e-19)
(-0.00796513 0.00106844 -3.77073e-17)
(0.000448826 0.00281082 -1.11023e-17)
(0.000385242 0.00272032 -7.56317e-18)
(0.000324471 0.00268298 3.36494e-18)
(-0.0212551 -0.0046752 5.9912e-18)
(-3.73159e-05 9.9512e-05 -3.77291e-18)
(0.00106375 0.00198744 -9.43616e-18)
(-0.00827806 0.00162329 9.27904e-18)
(8.5426e-05 0.00079565 1.66935e-18)
(0.000404909 0.00103788 1.91058e-18)
(-0.0219822 -0.000345089 7.85976e-18)
(0.00021535 0.00299311 1.29481e-18)
(0.000334209 0.000722406 4.35393e-19)
(0.00348434 -0.00551193 1.79241e-17)
(0.000394003 0.00311159 5.52936e-19)
(-0.000232797 5.55049e-05 8.62089e-19)
(-0.0196427 -0.00131343 -4.49091e-18)
(0.00182184 -0.00581169 -1.07801e-17)
(-0.000207105 8.41357e-05 -3.64493e-19)
(-0.000116892 0.000177212 -9.46848e-21)
(5.70314e-05 0.000187562 -5.79143e-18)
(0.000139667 4.15147e-05 -1.24339e-18)
(0.00447774 0.00146238 7.2621e-17)
(-0.0192909 -0.00261888 -1.35869e-17)
(-0.000137355 0.00290105 4.00877e-17)
(-0.00728038 0.0014513 -5.59875e-17)
(-9.15392e-05 0.000386611 2.75773e-18)
(0.00340819 0.00249511 1.23563e-17)
(-0.00179487 0.000501261 -6.17549e-18)
(0.00275352 -0.00143954 5.72221e-18)
(-0.0209217 -0.00463614 1.47653e-18)
(-0.023112 1.56475e-05 -3.76869e-17)
(-0.0333105 0.0018503 6.43215e-18)
(-0.000169944 4.45375e-05 -1.15089e-18)
(0.000418924 -0.0051531 5.64882e-18)
(-0.000128633 0.000160413 3.28574e-19)
(-0.0282808 -0.000895139 -7.41733e-17)
(0.000422346 0.000163948 -4.97734e-18)
(0.00072387 0.00377015 -4.84931e-17)
(0.00482237 -0.000229962 2.63093e-17)
(0.00129732 -0.000859467 1.09835e-18)
(-6.70984e-05 0.000122526 6.7871e-18)
(0.00377525 -0.00131637 -4.07568e-18)
(0.0032194 0.00217556 1.03697e-17)
(0.00403508 -0.000731687 2.17937e-18)
(0.00167928 0.0045753 4.6647e-17)
(-0.00673603 0.00105836 5.37871e-18)
(-0.00566974 0.00119709 -8.05439e-17)
(0.000709239 0.00218279 -6.22613e-19)
(0.00209844 0.00199066 2.32014e-17)
(-0.000205432 0.000126827 1.8137e-19)
(-0.00384183 9.94568e-05 -3.50835e-17)
(-0.0197364 -0.00490248 3.13143e-19)
(6.54776e-05 0.000628313 -8.90111e-19)
(0.0106244 0.00163858 -6.53945e-17)
(-4.4492e-05 0.000397588 -2.99955e-18)
(0.00667267 -0.000345374 -2.35573e-17)
(0.00091257 -0.000476426 3.85789e-18)
(-3.99305e-05 8.57405e-05 1.72895e-19)
(0.000643756 0.000741208 3.74177e-18)
(-0.0134273 -0.00312833 -1.76975e-18)
(0.00063632 0.000752978 -4.82337e-19)
(-0.0127683 -0.00176059 5.81481e-19)
(-0.00314259 0.00224153 -1.81749e-17)
(0.00217564 -0.00445729 1.42138e-17)
(0.000581504 0.00295539 -1.10907e-16)
(0.000181565 0.000764916 8.02495e-19)
(0.000574633 0.00298224 2.73826e-17)
(0.000525107 0.00299195 -5.03265e-17)
(-0.00016888 0.000200231 1.35093e-18)
(0.00024334 0.0029968 2.16556e-18)
(6.42178e-05 0.000779409 8.40002e-19)
(-4.15018e-05 0.000452656 -2.51812e-19)
(0.00370038 0.00181524 -8.65559e-18)
(-5.21635e-05 5.75374e-06 6.65485e-19)
(-4.44321e-06 0.000483251 -4.32787e-18)
(-0.000110126 0.000155571 -4.7769e-19)
(0.00542618 0.00142614 -1.18517e-16)
(-1.09893e-05 5.64672e-05 6.47972e-20)
(-0.0161372 -0.00144736 8.07409e-18)
(-0.0119935 -0.00391869 3.23213e-18)
(-0.000623694 0.00126492 -4.02765e-17)
(0.00328287 0.00316582 -4.10295e-17)
(-0.0147863 -0.00232926 -5.53687e-18)
(-0.00802785 0.00133092 -3.35424e-17)
(0.00274236 -0.00144332 -6.56486e-18)
(-9.30981e-05 0.000367882 -4.77766e-18)
(0.00604406 0.000312896 3.24729e-17)
(0.00125212 -0.000974262 -7.43388e-18)
(0.00127299 0.0011571 -6.79163e-18)
(-0.000137536 0.000219658 -2.16881e-18)
(-0.024421 -0.00195449 2.05881e-17)
(-0.0186234 -0.00543615 1.27031e-18)
(-0.0105037 -0.00410219 -6.86158e-18)
(0.000419871 0.00128335 2.02019e-18)
(0.00518091 -0.000602805 -6.88322e-18)
(0.000150872 0.00134349 -8.33114e-18)
(0.00127979 -0.00105161 9.03677e-18)
(0.00427676 -0.000814206 -1.61258e-18)
(0.000478917 0.000831326 2.93642e-19)
(9.30108e-05 -0.00495782 -1.28664e-17)
(0.00029619 0.000628973 2.54465e-19)
(-0.000257916 1.45911e-05 -9.68719e-19)
(-0.0190375 0.00222641 -2.84093e-17)
(-0.0208973 -0.00238544 8.01679e-18)
(-0.0210954 -0.00262264 -8.24044e-18)
(0.00224523 0.00282274 1.48753e-19)
(9.44969e-05 0.00101312 3.45257e-17)
(-0.0228012 -0.00156489 3.93218e-18)
(-0.0123463 0.00237342 2.6944e-19)
(-0.0210616 -0.000552872 -1.5676e-17)
(-3.62053e-06 -2.77756e-06 8.15546e-19)
(0.00378371 -0.00098636 2.62441e-17)
(0.000481645 0.000810888 -1.36344e-19)
(0.000102275 0.000690479 5.32709e-18)
(0.00870986 -0.000563321 -7.58517e-17)
(0.00360642 -0.000585817 -5.86572e-18)
(0.000253533 -1.05364e-05 1.85997e-18)
(0.00366071 0.000549642 -1.67904e-17)
(0.00271792 -0.00122848 -3.86974e-18)
(-0.0210494 2.01091e-05 -2.10337e-17)
(-0.000155523 0.00020649 1.26347e-18)
(0.00452662 -0.00291881 6.96772e-18)
(-0.00427455 -0.0013534 -6.45965e-17)
(0.00182624 0.00341051 4.02039e-17)
(-0.0173088 -0.00174189 1.21617e-18)
(-1.26701e-05 5.1478e-05 4.48799e-19)
(4.10725e-05 0.000644485 -7.09946e-19)
(-0.000319709 2.83546e-06 -4.88957e-19)
(0.00112433 0.00163786 -7.51284e-18)
(-0.000101745 4.05166e-05 1.6579e-18)
(-0.0131728 -0.0061292 -4.08779e-18)
(-9.38033e-05 0.00284932 4.75179e-18)
(0.000649134 0.00165924 1.72023e-20)
(-0.00428036 -0.00118343 4.57424e-17)
(0.00172209 7.71335e-05 -1.26848e-18)
(0.0033737 -0.00374052 -1.03707e-17)
(-0.0140998 0.00260736 -1.66771e-17)
(0.000203715 0.00322826 -3.30113e-19)
(0.00213484 -0.00439972 -1.30363e-17)
(0.00161651 -0.00586106 -9.6063e-18)
(0.00479914 -0.00303283 2.29485e-18)
(0.0036911 0.000911631 2.94715e-17)
(0.0060837 -0.000548006 1.44362e-17)
(0.00227162 -0.00209185 1.33809e-17)
(0.00134409 -0.00461747 1.4067e-18)
(0.000277504 0.00288356 1.55161e-17)
(0.0018411 -0.00236955 1.39543e-18)
(0.00411511 -0.00214035 -2.14151e-17)
(-0.000207138 1.84733e-06 -3.07762e-18)
(0.0125408 0.00115756 -4.14302e-17)
(0.00202742 -0.000415517 -1.8843e-17)
(0.000378149 -0.000126933 2.44506e-18)
(0.000980743 0.00158098 -1.94497e-18)
(0.000905558 1.38805e-05 5.62818e-18)
(-0.0210428 9.00481e-05 9.624e-18)
(-0.0327098 0.000918479 -2.19895e-17)
(5.38947e-05 0.000322975 2.52223e-19)
(1.54287e-05 -6.15619e-06 -9.72035e-19)
(-0.0133186 -0.00654102 -3.23258e-18)
(-0.00762795 0.00122874 8.2618e-18)
(-6.41645e-05 4.31311e-06 4.38206e-19)
(-0.0171387 -0.00141089 4.0749e-18)
(0.00104477 -0.000420993 -2.18506e-18)
(0.0034699 0.00294963 7.57136e-19)
(4.77907e-05 0.000358844 -3.62567e-19)
(-0.0145166 0.00170156 -1.92774e-18)
(0.00948016 -0.00483877 -3.42694e-17)
(0.00109426 0.00116358 3.96454e-18)
(0.000542831 0.000377913 -6.41433e-18)
(-0.0149953 -0.0025995 5.25997e-18)
(0.00387516 0.00289051 3.3882e-17)
(-0.00147024 0.000433103 -5.37938e-17)
(-1.4295e-05 5.22098e-06 -6.3151e-19)
(-0.0167798 0.00119796 -2.46583e-17)
(0.000228321 0.00368035 -1.07115e-16)
(-0.0293318 0.0014019 6.83892e-17)
(0.000346142 -0.000121567 -6.32175e-18)
(-0.00412518 0.000398647 5.36122e-17)
(-0.0310031 0.00388583 1.37485e-17)
(0.00277743 -0.00158393 1.50313e-17)
(-0.000106316 0.000174244 -7.11413e-22)
(0.000314196 0.000714354 -4.72771e-19)
(0.000870397 -0.00294273 1.30282e-18)
(0.00587632 -0.000437 9.83224e-17)
(0.000313417 -1.30582e-05 -1.19654e-18)
(-0.000132047 0.000168709 -2.22836e-20)
(-0.000291448 3.22233e-05 3.61311e-20)
(-0.000290507 3.33024e-05 1.34681e-19)
(-0.0125621 0.00158844 5.13907e-17)
(0.00849316 -0.000371364 2.88261e-17)
(0.00269147 -0.00152513 -1.34121e-17)
(0.00479549 0.00295652 -1.17632e-17)
(-0.000339627 8.62519e-06 8.51412e-19)
(-0.000190219 5.56789e-05 -3.93599e-19)
(0.00512753 -0.000746506 -3.26426e-17)
(-0.0282998 0.00354466 3.42794e-18)
(0.00230742 0.000403412 -2.29842e-18)
(0.000324816 0.000132575 -2.58575e-18)
(-4.88373e-05 0.000451455 3.39354e-18)
(3.27885e-05 0.000449419 -5.35283e-19)
(-0.0311511 0.00177593 -7.58535e-17)
(-0.00777088 0.000121295 1.404e-16)
(-0.000118851 7.77626e-05 1.45007e-18)
(-7.21064e-06 0.000439572 9.06779e-19)
(0.000330132 -0.00497867 1.33598e-17)
(0.00239123 -0.00203377 5.21614e-18)
(0.00231487 -0.00100001 -1.45393e-17)
(7.01771e-05 0.000640684 2.63004e-18)
(0.000571631 0.000800407 5.2962e-20)
(0.000877858 0.00115641 4.38506e-19)
(0.0040045 -0.00218684 -3.3748e-18)
(0.000197873 0.00314644 8.49238e-18)
(0.00470824 0.00307565 8.35787e-18)
(0.00623251 0.000280602 -1.37201e-17)
(0.0049447 -0.00153254 -3.08191e-17)
(0.0127529 -0.00134337 2.70723e-17)
(0.0028971 0.00194308 -2.35313e-17)
(-7.79631e-05 0.000352894 1.98661e-18)
(-0.0175083 0.00120063 2.31066e-17)
(3.94345e-05 0.000438208 -5.23378e-18)
(0.000469452 0.00106852 -8.51953e-19)
(0.00124343 -0.00069989 -9.91417e-18)
(0.0124023 0.00124535 -2.02743e-17)
(0.000566376 0.00255466 -1.60623e-18)
(-0.000312944 1.20654e-05 2.25226e-19)
(0.00192153 0.00329725 -3.38594e-17)
(0.00402242 0.00177054 3.86396e-18)
(-0.0024393 -0.001487 1.03234e-16)
(0.00493549 -0.00141904 -7.98139e-18)
(0.000396777 0.00190922 1.4052e-18)
(0.00282083 -0.00128069 -5.72429e-19)
(-6.51071e-05 0.000136057 -3.95541e-18)
(-0.0334055 0.00406025 7.10534e-18)
(0.00200746 0.00343117 5.88997e-17)
(-0.024308 -0.00271895 1.32582e-18)
(0.000303458 0.000606194 -8.62191e-20)
(0.00182121 0.000164715 1.03539e-17)
(0.00462507 0.00291329 -2.27797e-17)
(-0.023423 1.86511e-05 6.15573e-18)
(-0.00716088 0.00075663 -3.13061e-17)
(0.00398908 -0.00131044 -4.00743e-18)
(0.00245374 0.00290991 -1.0473e-17)
(0.000435399 0.00124917 1.48933e-18)
(0.000984771 0.000580801 -2.50951e-18)
(9.5695e-05 0.000659796 -3.44264e-18)
(0.000464645 0.00233278 1.9503e-17)
(0.000409471 0.00245187 -7.01914e-17)
(7.31966e-05 0.000848001 -5.99833e-18)
(0.00353232 -0.00139302 -3.04047e-18)
(0.000366748 0.00253525 1.39664e-17)
(-0.0246266 -0.00280771 1.45541e-19)
(-0.00160165 0.000420001 -6.67085e-17)
(0.000627741 0.000916911 -1.03318e-18)
(0.00336905 -0.00371756 -1.16009e-18)
(0.00697519 -0.00440157 2.73465e-17)
(0.000602559 0.00146532 1.28518e-20)
(0.000154378 0.000961201 -4.69267e-18)
(0.000908166 0.0034958 -3.476e-17)
(-0.0305437 0.00187385 9.48016e-18)
(-0.0263962 -0.00213203 1.39708e-17)
(0.00460486 0.00273667 7.82578e-17)
(3.62222e-05 -7.45833e-06 -3.06207e-18)
(-0.0199597 -0.00130134 7.12914e-18)
(0.00094728 -0.00293489 4.96978e-18)
(-0.000358359 9.00819e-06 -4.31353e-20)
(0.00175294 0.000823654 1.25288e-17)
(0.0032421 -0.00275015 1.08933e-17)
(0.0003493 0.00180992 -1.94452e-18)
(0.00380848 0.00166822 4.23735e-17)
(-0.0156935 -0.00441512 -9.51047e-18)
(0.00592964 -0.000611057 -6.41805e-18)
(0.00209385 -0.00186513 -2.95179e-18)
(-0.0335293 0.00400075 4.21834e-17)
(0.00104396 0.000122727 -2.3199e-18)
(-0.0207983 -0.00034343 2.21305e-17)
(-4.55405e-05 6.28877e-05 6.93879e-19)
(-0.000125687 8.4133e-05 -2.94875e-19)
(0.0102901 -0.00620887 -7.46567e-18)
(-0.0309465 0.00177088 -1.20791e-17)
(0.000428051 0.0029778 7.33863e-17)
(0.00102988 8.97754e-05 1.39925e-17)
(0.000384089 0.000764718 1.83972e-19)
(-4.98046e-06 0.000425685 -1.90524e-18)
(0.00146087 -0.00213767 -8.32247e-18)
(0.000558154 0.00395684 -3.98009e-17)
(0.000823913 -0.00378961 6.78474e-18)
(0.0010405 0.000580303 -3.78596e-18)
(0.00212343 -0.00426823 1.12787e-17)
(0.00368885 -0.00138602 -3.89172e-18)
(7.82421e-05 0.000371902 3.35211e-19)
(0.0011319 0.00426539 -4.09782e-17)
(0.00076034 -0.00370903 -6.69898e-18)
(-0.000268589 -0.00429977 -9.02825e-18)
(-8.16652e-05 0.000353055 1.24445e-18)
(0.00585896 -0.00087233 -2.80407e-17)
(0.000901606 5.42349e-05 5.31185e-18)
(-0.00405688 0.00197942 -3.42113e-17)
(0.00236038 0.00209153 3.4309e-17)
(0.000602754 0.00253894 -2.18408e-18)
(0.00201283 0.000212474 -1.29033e-17)
(-0.000296349 3.28973e-05 1.01891e-19)
(0.000301646 -6.47224e-05 -1.89399e-18)
(0.000453546 0.000239454 -2.19233e-18)
(0.00039384 0.00275651 2.59462e-18)
(0.000198509 0.0015825 8.5614e-18)
(0.00619804 0.00194169 -5.08708e-17)
(0.000501691 0.00295788 1.81283e-18)
(0.00351908 -0.00173103 -4.16407e-17)
(-0.000238318 5.64825e-05 -8.31959e-19)
(0.00569358 -0.000337044 9.60393e-18)
(0.000424696 0.00308024 -2.54927e-17)
(0.00127317 -0.00600873 -1.40677e-17)
(0.000616124 -0.000236318 8.16907e-19)
(0.000182847 0.00152207 1.66067e-17)
(-0.00011801 0.000171583 1.46077e-20)
(0.00156873 -0.00133114 -1.28048e-17)
(0.00139105 0.000300768 1.07561e-18)
(-0.0306573 0.00376089 1.70531e-17)
(-4.2739e-05 7.99478e-05 -2.9164e-18)
(0.00136722 0.00530689 2.26599e-17)
(0.0016367 -0.00126591 4.90215e-18)
(0.00246977 -0.00467736 -5.9353e-18)
(0.0027996 0.00222274 1.41986e-17)
(-0.0162313 0.00198146 4.22108e-17)
(0.000681361 0.00257718 5.64717e-18)
(0.000275064 0.000695062 2.15803e-19)
(-0.02191 -0.00015254 1.5492e-18)
(-0.0109491 0.0010564 2.50336e-17)
(0.000139364 0.000576711 3.34207e-20)
(0.00119828 -0.00070558 2.03373e-18)
(0.0109172 -0.00380834 8.7835e-18)
(0.00427608 0.00263249 -3.75245e-17)
(0.00490553 -0.00208646 9.85817e-18)
(-0.000100317 6.1666e-06 -1.12449e-18)
(0.000554763 0.000368191 -4.64965e-19)
(0.00184343 0.00339182 1.12418e-16)
(0.00132269 -0.000890402 -3.74951e-18)
(0.00396561 -0.00059986 -6.71615e-18)
(0.00234797 -0.00289231 -2.06316e-17)
(0.000380592 -7.25141e-05 2.32446e-18)
(0.00264382 -0.00227095 -2.24024e-17)
(-0.019351 -0.00501017 8.16697e-18)
(0.000626669 -0.000256613 -2.55235e-18)
(0.00105227 -0.000621598 -1.30286e-17)
(-0.00028063 3.52083e-05 8.40183e-21)
(-0.0216445 -0.000837683 -3.38381e-18)
(1.00662e-05 3.91506e-05 -7.94072e-19)
(0.000399909 0.00124839 1.58381e-18)
(-0.00302154 0.000955577 -2.27277e-17)
(0.000322019 0.00105278 -3.08709e-18)
(-0.0290353 0.00120338 4.1464e-18)
(0.00138529 0.000696396 1.13412e-17)
(0.000367744 0.0018958 -5.91031e-17)
(-0.000270602 3.61805e-05 2.17936e-20)
(0.000720368 0.00219944 3.85319e-18)
(-0.000123719 0.000285939 2.06865e-18)
(0.00333195 0.00106346 -8.18557e-18)
(-0.000314419 2.01781e-05 -1.17031e-18)
(0.00115362 0.00265302 1.64519e-18)
(0.00105407 -0.000401764 6.01404e-18)
(-0.0124002 -0.00553201 -3.91994e-17)
(0.000759151 0.00341294 -1.6133e-17)
(-0.0283255 0.00344743 3.09605e-17)
(-0.000323348 2.95982e-06 1.27392e-18)
(-5.65941e-05 0.000111909 2.69344e-18)
(0.00282553 0.00184769 -1.36217e-17)
(0.00232332 0.00155232 -1.44999e-17)
(-0.0222803 -0.000495698 4.72366e-18)
(-0.0319181 0.00259464 -1.55073e-17)
(0.0035939 -0.000285685 8.91804e-18)
(-5.93834e-05 0.000480764 -6.79028e-18)
(0.00612715 0.00127107 7.66278e-17)
(0.000426018 0.00300314 -3.80613e-17)
(-6.85729e-05 -0.0043447 1.27739e-18)
(0.00616914 0.00201188 -4.21553e-18)
(0.00350984 -0.000807982 -2.42772e-17)
(-0.0144533 -0.00395797 -1.16785e-17)
(0.00153805 0.00162174 3.17494e-18)
(0.00133964 -0.0020162 -1.13913e-17)
(0.00547036 0.000530185 -2.21353e-17)
(0.000360027 0.00290084 7.87593e-18)
(0.00376469 -0.000228178 -5.01866e-18)
(0.00076848 0.0030365 -8.57589e-17)
(0.003671 -3.45648e-05 -1.27213e-17)
(0.00112031 -0.000686838 7.40145e-19)
(0.00360995 -0.00283799 2.0299e-17)
(0.000619372 0.00138238 4.07782e-19)
(0.000441912 -0.000141855 1.10523e-18)
(0.00180524 -0.00130039 9.83397e-18)
(0.00188416 0.00157501 -1.33404e-17)
(0.00100778 0.00117531 -6.06907e-18)
(-0.000116872 0.000312034 -9.46808e-19)
(-0.000325565 6.61813e-06 -2.43482e-20)
(0.00356936 -0.00157383 -3.6829e-18)
(0.00124394 -0.000354781 -2.48532e-18)
(0.0042998 -0.000534129 1.19061e-17)
(-3.93723e-05 0.000461269 -3.18019e-19)
(-6.005e-05 0.000384296 1.46926e-18)
(7.16665e-06 3.26705e-05 -1.28394e-18)
(0.000595231 0.000823136 -1.01057e-18)
(0.000274837 -8.153e-05 4.92514e-18)
(0.000912215 0.000992378 1.15487e-17)
(-0.000282405 3.81068e-05 -2.19469e-19)
(-0.0140825 0.00168654 -1.62937e-18)
(0.00127552 -0.00286706 -1.30775e-17)
(-5.6551e-05 0.00286182 2.40603e-17)
(-0.000170396 4.58859e-05 -1.22714e-18)
(-6.6335e-05 3.72836e-05 1.39755e-18)
(0.000388249 0.00212485 -8.05056e-17)
(0.00357304 0.00087304 -3.72419e-17)
(0.000105999 0.00109077 1.293e-17)
(-0.0324319 0.0016547 -4.51361e-18)
(0.00191344 0.00248961 2.90424e-17)
(-0.0291742 -0.00153817 7.47548e-18)
(0.00182667 -0.00130132 -7.62543e-18)
(0.00551163 -0.00059353 -1.09818e-17)
(0.000869527 -0.000139254 -1.06028e-18)
(-1.25299e-05 3.00371e-05 -6.06965e-18)
(-0.000320457 2.92464e-05 -7.88116e-20)
(0.000646729 0.000693311 -5.94221e-18)
(-0.00146169 0.000829739 1.2236e-20)
(-7.25515e-05 3.10194e-05 -1.95425e-18)
(0.0145608 -0.00197726 9.78348e-18)
(0.00085645 0.00101345 -1.19595e-17)
(-0.00191505 0.000416928 -3.44819e-17)
(0.000578074 0.00222453 -2.13226e-18)
(0.0020711 0.00252858 -8.04775e-18)
(0.00209414 -0.00460754 3.7064e-18)
(9.82798e-05 4.89723e-06 -3.15766e-18)
(1.11497e-05 7.31142e-07 6.53381e-19)
(0.00123053 -0.00291221 9.98672e-18)
(2.34196e-05 0.000557652 2.13876e-18)
(0.000193473 0.000878204 -2.73912e-18)
(-0.0287938 0.0023444 1.51123e-17)
(0.000420227 0.000816331 1.2075e-19)
(-3.54758e-05 0.000179193 -7.72062e-19)