/*--------------------------------*- C++ -*----------------------------------*\
| =========                 |                                                 |
| \\      /  F ield         | OpenFOAM: The Open Source CFD Toolbox           |
|  \\    /   O peration     | Version:  v2012                                 |
|   \\  /    A nd           | Website:  www.openfoam.com                      |
|    \\/     M anipulation  |                                                 |
\*---------------------------------------------------------------------------*/
FoamFile
{
    version     2.0;
    format      ascii;
    class       volScalarField;
    location    "400";
    object      k_0;
}
// * * * * * * * * * * * * * * * * * * * * * * * * * * * * * * * * * * * * * //

dimensions      [0 2 -2 0 0 0 0];


internalField   nonuniform List<scalar> 
13917
(
0.000165205
0.000149122
0.021346
0.000152512
0.000148673
0.000193908
0.029086
0.0216123
0.0597409
0.000172874
0.000204281
0.000182306
0.000152657
0.0149574
0.000155276
0.000154186
0.000149524
0.000175215
0.000181785
0.000148671
0.000149767
0.0302218
0.000148556
0.015854
0.000148213
0.0278021
0.000161976
0.000164675
0.00020941
0.000184294
0.000166826
0.000157705
0.00016037
0.000154809
0.000148388
0.00024548
0.000148614
0.0471287
0.000155528
0.0152309
0.000147582
0.0001499
0.000145069
0.000168607
0.00014873
0.000156138
0.000174945
0.000182791
0.000386918
0.000147995
0.000157477
0.000149937
0.000438717
0.000155136
0.00014958
0.000157191
0.000204046
0.000148548
0.000154712
0.000148563
0.0826055
0.000149131
0.00924195
0.000148591
0.000192509
0.0252037
0.000148659
0.000148581
0.000205869
0.000162838
0.000148717
0.0526542
0.0541454
0.000148223
0.000402644
0.000185832
0.0379241
0.000150748
0.026865
0.000149555
0.000149327
0.000148697
0.000190188
0.0506852
0.0497373
0.000150504
0.000149154
0.00971662
0.000157124
0.000145019
0.056867
0.000179347
0.0001477
0.000151238
0.0149227
0.000190223
0.000196561
0.000180395
0.000199191
0.000170682
0.000146684
0.00015899
0.000168463
0.000151668
0.000146718
0.0553129
0.000194577
0.000183787
0.000149547
0.00016775
0.0593327
0.0161121
0.000188094
0.0580818
0.000151349
0.000425001
0.000148049
0.000263423
0.0241587
0.000155042
0.000149817
0.000205229
0.0282688
0.000164031
0.000147827
0.000150914
0.000148596
0.000147895
0.000145187
0.000192531
0.0387736
0.000151179
0.000148832
0.00014982
0.000261981
0.0141617
0.000165332
0.000171374
0.000148613
0.000154893
0.000233935
0.000146765
0.000150464
0.000170831
0.000148597
0.0272454
0.000213515
0.000149779
0.000146473
0.000158202
0.000178047
0.000426988
0.00018874
0.000163638
0.000157126
0.0245366
0.000162034
0.000209342
0.0319895
0.000377856
0.000153172
0.000162176
0.000149555
0.000195466
0.000187662
0.000198767
0.000151612
0.000179193
0.000147967
0.000159442
0.000164253
0.0313547
0.000190066
0.000150373
0.00771057
0.0001648
0.0401812
0.000304815
0.0202601
0.000147851
0.000180586
0.000167729
0.000146722
0.000149092
0.000158084
0.0220087
0.000219285
0.0307719
0.000165914
0.00019735
0.000244536
0.05461
0.000211572
0.000148627
0.000172299
0.000161623
0.000154212
0.000147769
0.000182196
0.00152904
0.00015672
0.000148098
0.000177471
0.000177764
0.0477539
0.000195816
0.000148384
0.000148637
0.000179891
0.0191841
0.000150232
0.0305356
0.0357546
0.000197434
0.000146747
0.000200183
0.00017695
0.0373762
0.000147839
0.0744883
0.000147797
0.000183427
0.000147346
0.0521058
0.0590827
0.000154538
0.000415691
0.000157493
0.000146773
0.000243087
0.000189437
0.000165658
0.0120289
0.029601
0.000146355
0.000158195
0.061862
0.0375755
0.0001495
0.000147576
0.0157388
0.000199659
0.000149758
0.000222679
0.00018805
0.000161797
0.000164407
0.000149499
0.000164206
0.0323919
0.000148139
0.000184883
0.000174084
0.000148486
0.000148498
0.000183502
0.0211853
0.000187411
0.000158266
0.000155527
0.00014979
0.0225824
0.0563949
0.000226716
0.000146811
0.0524655
0.0265622
0.000157447
0.0276117
0.000187194
0.000149404
0.000147452
0.000175251
0.0478079
0.000194939
0.000154302
0.000172036
0.000170721
0.000145119
0.0313768
0.000148502
0.0095352
0.000156101
0.000149722
0.000156536
0.000163584
0.000162276
0.000224824
0.000159933
0.000148598
0.000251627
0.012122
0.0658034
0.000147838
0.000140966
0.000149086
0.000148584
0.000148089
0.000231177
0.000148574
0.000185336
0.000163758
0.000147853
0.000177695
0.000151514
0.000341038
0.000164475
0.000177915
0.000147276
0.000148429
0.0553168
0.0271714
0.000148016
0.000147418
0.029282
0.000147761
0.0579996
0.000147199
0.0547166
0.000149736
0.000219016
0.000164106
0.0004392
0.000152763
0.000165161
0.00018545
0.00015657
0.000199453
0.000201549
0.000149468
0.0413763
0.000172043
0.0308083
0.000153965
0.0178542
0.000158926
0.0675239
0.000181691
0.000173536
0.00017294
0.0266642
0.000149414
0.000164789
0.0650257
0.000149232
0.000152101
0.0270948
0.000185357
0.0001502
0.000228976
0.00020528
0.000146947
0.0214855
0.000242699
0.000148458
0.000147278
0.000149139
0.000146436
0.000250407
0.0146019
0.000210765
0.061533
0.000148145
0.000187424
0.00835976
0.000170809
0.0322065
0.0526249
0.0623555
0.00014635
0.000223804
0.000147142
0.0600506
0.000148544
0.000455493
0.000187946
0.00015443
0.000149284
0.000178742
0.000182451
0.000182279
0.000625939
0.0622519
0.0291523
0.00016467
0.000171947
0.000147623
0.041125
0.0317435
0.000148639
0.000229111
0.000148303
0.000236054
0.000149729
0.000149485
0.00015155
0.0238126
0.000151478
0.0232855
0.0111661
0.000201195
0.000195543
0.000149403
0.000196221
0.00019252
0.000148189
0.000187102
0.000149154
0.000148292
0.000184126
0.00014972
0.000148269
0.000147111
0.000236813
0.000149634
0.0197233
0.0153136
0.00530216
0.00021105
0.0288814
0.0382206
0.000170463
0.000148159
0.00020226
0.000155215
0.000159394
0.000148582
0.0221466
0.0252688
0.00983286
0.000154096
0.000191202
0.000153585
0.000156196
0.000182284
0.000151076
0.000224414
0.000149511
0.000148543
0.0637211
0.0389114
0.0398337
0.000183305
0.00355689
0.0445278
0.070329
0.0358974
0.00014539
0.000177534
0.000151168
0.000148791
0.000259287
0.000175523
0.000148358
0.000177102
0.000169021
0.0339496
0.000148163
0.000195357
0.0153237
0.000249137
0.0244967
0.000149686
0.000148686
0.000154119
0.000162059
0.000146363
0.0157881
0.000202868
0.000159912
0.039412
0.000157129
0.00019604
0.0758862
0.000215018
0.000200132
0.000238383
0.000195351
0.000175929
0.000201483
0.000171113
0.000204125
0.00020895
0.000174515
0.000186249
0.000148029
0.000243413
0.000158353
0.000146033
0.000161273
0.00015101
0.0364073
0.0559372
0.000147697
0.00014535
0.0126935
0.0315756
0.000149721
0.0199677
0.00015098
0.00020087
0.000147798
0.0459446
0.000215867
0.000158181
0.000149579
0.030543
0.000207286
0.0128407
0.000149777
0.0366399
0.000341745
0.0335916
0.000146122
0.0451434
0.085444
0.000170938
0.000147232
0.00014951
0.000185763
0.000242494
0.000147689
0.000147298
0.000147584
0.000147549
0.0462199
0.000250726
0.000170545
0.000218248
0.000147992
0.000146725
0.000190865
0.0838604
0.000163291
0.000148051
0.000148247
0.0001485
0.0382574
0.0601234
0.000149109
0.000148489
0.000220855
0.000170797
0.000164118
0.000148632
0.000151668
0.00015661
0.000185824
0.000194957
0.000219776
0.000203083
0.000190051
0.000197227
0.000177697
0.000147896
0.0376242
0.000148509
0.000152525
0.000153801
0.00024552
0.000170051
0.000146819
0.000253732
0.000187364
0.00802417
0.000190117
0.00016039
0.000170314
0.000149216
0.0714863
0.000225445
0.0451061
0.000149238
0.000160092
0.000219185
0.0550327
0.0128951
0.000181461
0.000186352
0.000154026
0.000153321
0.000148661
0.000165294
0.000169356
0.000149392
0.000176734
0.00017325
0.0440596
0.0152151
0.00015306
0.000195253
0.000235489
0.000157514
0.000149995
0.00044073
0.0410144
0.0292417
0.000213658
0.0001453
0.0236418
0.00018531
0.00014727
0.000161382
0.000185198
0.000159811
0.000184221
0.0275307
0.000200975
0.000167794
0.0710353
0.000151655
0.0313146
0.000149562
0.000149062
0.000116744
0.043229
0.000208084
0.000151651
0.000150206
0.000148493
0.000171305
0.000440655
0.000197232
0.000153646
0.000198305
0.000178346
0.000147837
0.000384105
0.000196508
0.000226338
0.000147758
0.000200359
0.000150934
0.0146454
0.000173507
0.000169912
0.000160382
0.000147073
0.000146107
0.000148727
0.000174422
0.000156387
0.000220814
0.000530794
0.000178793
0.000147006
0.000199695
0.000208994
0.000249279
0.000148043
0.000155958
0.000147351
0.000159917
0.00015494
0.0863013
0.000149499
0.000556459
0.00015964
0.000204166
0.000178965
0.0542237
0.000170753
0.00014937
0.0459451
0.0147637
0.000148534
0.000153673
0.000155345
0.000205481
0.000195006
0.000149544
0.000149664
0.000206309
0.000154641
0.000181929
0.000182208
0.000146142
0.000177804
0.0206988
0.000147952
0.000151268
0.000147722
0.0258
0.000149759
0.000153687
0.0338531
0.000151844
0.0362445
0.000157154
0.000160604
0.000147673
0.000166154
0.000148136
0.000174937
0.000147106
0.000173244
0.000150982
0.0187137
0.000325641
0.0843903
0.000152769
0.000149332
0.00017674
0.000169509
0.0320106
0.0762982
0.000174825
0.000148348
0.000232837
0.000208513
0.00022517
0.000216443
0.000174704
0.0240039
0.000164547
0.000169511
0.000196984
0.00017893
0.000174484
0.000239171
0.000173918
0.000152489
0.000186342
0.000156696
0.000146833
0.000159686
0.000167944
0.000157605
0.000148197
0.000147537
0.000178634
0.000152096
0.000182
0.00014833
0.000148388
0.000149812
0.000151487
0.000144791
0.000155457
0.000147861
0.0445794
0.00018174
0.000189343
0.00014651
0.000149627
0.000163714
0.000176255
0.000150858
0.0509092
0.000174521
0.0358922
0.000159768
0.000194224
0.000149914
0.000149782
0.00014743
0.000151514
0.0226603
0.000149681
5.34358e-05
0.000155876
0.0101558
0.000165057
0.00017511
0.000203584
0.000145835
0.000149935
0.000182231
0.000148559
0.000149901
0.0281302
0.000150559
0.000149142
0.00015821
0.00014752
0.000145862
0.000157706
0.000156951
0.0254689
0.000162997
0.000147946
0.000147293
0.0589685
0.000174395
0.000149181
0.000149228
0.0356346
0.000193853
0.028875
0.000160384
0.000152503
0.000146433
0.000145696
0.000175145
0.000163632
0.000221626
0.000154287
0.0389385
0.000149497
0.00015228
0.024011
0.00014835
0.000158531
0.000148289
0.00014843
0.000167107
0.000162485
0.000150067
0.0375709
0.0201823
0.000179554
0.000147884
0.000145276
0.00019674
0.000125463
0.000149717
0.000234571
0.000145259
0.000166877
0.000146819
0.0001472
0.000247599
0.000148363
0.000131377
0.000166735
0.00014981
0.000145313
0.000148874
0.000147565
0.00015108
0.000432126
0.000147769
0.000146974
0.0575956
0.0364594
0.000168834
0.000168834
0.000181475
0.000155092
0.00014689
0.000156637
0.0449061
0.000173995
0.000148816
0.000149406
0.073088
0.000166095
0.0686729
0.000149762
0.000151055
0.0232508
0.000164195
0.000150277
0.0194782
0.00028632
0.000147522
0.000194517
0.000147414
0.00014825
0.000146436
0.0573676
0.000144728
0.000148041
0.000146849
5.5232e-05
0.000154507
0.000200763
0.000166449
0.000147159
0.000159116
0.000149105
0.0631202
0.000147692
0.000147851
0.000149151
0.000197663
0.000149095
0.000201075
0.0156109
0.00878072
0.000155576
0.00023936
0.0396521
0.000148397
0.0200343
0.0849508
0.0446156
0.0294507
0.0592636
0.00872336
0.000197782
0.000149591
0.0285815
0.000164076
0.0350177
0.000146045
0.000147691
0.000149223
0.000149057
0.000156278
0.000158397
0.0319914
0.000147607
0.00014849
0.0118122
0.000188227
0.000148855
0.000161039
0.000159978
0.000149206
0.000314478
0.00016113
0.000152533
0.000154398
0.0163829
0.0296127
0.000256567
0.000146681
0.000207488
0.000187417
0.0386788
0.0657207
0.000189357
0.000147793
0.000150099
0.000149499
0.000144502
0.000151658
0.000145309
0.000156716
0.000164085
0.0440584
0.000198613
0.000148092
0.000193769
0.0722203
0.000166101
0.000149711
0.0334014
0.000147749
0.000149683
0.000160918
0.0446317
0.000149091
0.000147785
0.0324862
0.000224707
0.000248327
0.000192287
0.000244119
0.000147602
0.000203311
0.000149804
0.000147928
0.000149846
0.0198175
0.0356171
0.000146942
0.000145296
0.000148404
0.000155952
0.000151243
0.000160341
0.000148531
0.000149881
0.000202221
0.000147286
0.000175594
0.000198328
0.0394141
0.000148362
0.000172382
0.000153283
0.0515052
0.0694602
0.000148242
0.0543263
0.000182767
0.000266678
0.000149087
0.0255402
0.0001496
0.000156954
0.000166159
0.0001922
0.0164512
0.000233032
0.000205539
0.0472666
0.000146954
0.000227161
0.000147138
0.000156652
0.034856
0.000148828
0.000149657
0.000150836
0.000149117
0.0424415
0.000145759
0.000148493
0.000178176
0.000169663
0.000175199
0.00020591
0.000198434
0.0214469
0.000181958
0.000165482
0.000168889
0.042729
0.000169429
0.0559788
0.0286841
0.000155641
0.000147318
0.0263779
0.000226452
0.000149784
0.000191393
0.000163694
0.000149534
0.000156793
0.000149269
0.000166333
0.000149943
0.000174282
0.000171515
0.000147187
0.000176547
0.000147364
0.000167043
0.000147081
0.000155246
0.000177956
0.000152387
0.00014882
0.00014703
0.000293425
0.00017652
0.0271536
0.000148271
0.000148937
0.000179187
0.000148291
0.000184988
0.000176468
0.000149538
0.000188327
0.000147211
0.0623547
0.00014966
0.000167458
0.0306262
0.000224732
0.000147655
0.000152277
0.0138596
0.000147946
0.000147431
0.0432554
0.0633496
0.000153264
0.000203902
0.000148603
0.000148802
0.0182836
0.000151271
0.000145913
0.000235649
0.000147418
0.000240433
0.000149283
0.000145915
0.000149215
0.000199176
0.029626
0.000149027
0.000149482
0.000147599
0.000155028
0.000148394
0.000229776
0.000176196
0.000149773
0.0161216
0.000165191
0.000230249
0.0454614
0.000433303
0.000146799
0.000149545
0.000148576
0.000210078
0.000155496
0.0298974
0.0385186
0.000152699
0.0369924
0.000321108
0.000174659
0.000201795
0.000169474
0.000190763
0.0143202
0.000167646
0.000354712
0.0521913
0.000181802
0.000154314
0.0434716
0.00016467
0.000146158
0.000152
0.0738372
0.000162891
0.000147639
0.000166461
0.000186901
0.000164407
0.0412304
0.000152525
0.0357243
0.00016904
0.000222247
0.000194198
0.000209172
0.000159329
0.000147126
0.000150293
0.0152384
0.000147952
0.000152921
0.000147209
0.000151703
0.000147679
0.000160547
0.000203252
0.000299128
0.00016311
0.000165568
0.00745503
0.00019273
0.000147662
0.00018734
0.0154919
0.000146317
0.000147373
0.000161081
0.0264304
0.00014967
0.000180669
0.000212187
0.000166823
0.000148756
0.000151632
0.000147529
0.000191301
0.000163123
0.000147801
0.0224209
0.0250369
0.000163734
0.000221656
0.000182169
0.00208138
0.000151724
0.000155528
0.0032835
0.000162524
0.000189712
0.000269582
0.000158166
0.000149835
0.000148203
0.000149095
0.000148471
0.000150574
0.000166885
0.000147715
0.000197828
0.000147511
0.000158779
0.000146929
0.000175276
0.000197635
0.000282152
0.000148315
0.000208921
0.000148195
0.00166096
0.000148287
0.00015474
0.000148773
0.00021637
0.0496628
0.000200855
0.000147698
0.000198629
0.000148475
0.000159432
0.0603903
0.000148119
0.000149892
0.000168875
0.000161376
0.0346923
0.000147734
0.000158219
0.000151596
0.000148246
0.000158864
0.000150032
0.00014619
0.000152322
0.0355782
0.000153724
0.000233028
0.0266959
0.000174398
0.0309101
0.000153356
0.00014623
0.000158901
0.0311901
0.000152059
0.000162172
0.000170705
0.00337513
0.000147446
0.00366719
0.000177303
0.000181198
0.000146244
0.000145415
0.000204478
0.000150038
0.000149901
0.000159544
0.000146101
0.000153347
0.00015853
0.000184229
0.000182713
0.0270466
0.000155207
0.000185304
0.000225336
0.0123792
0.00016769
0.000182762
0.0248961
0.000168121
0.068711
0.000152547
0.00954235
0.00354395
0.000146035
0.000149724
0.000147625
0.000150341
0.00016835
0.000146965
0.000152915
0.000189275
0.000151918
0.000160494
0.0528159
0.00015789
0.000153595
0.0599543
0.000150285
0.020405
0.000153932
0.000165407
0.00014737
0.0363997
0.0354759
0.00014848
0.000150657
0.0208599
0.000157509
0.0163226
0.000148022
0.000147418
0.042159
0.000150641
0.000162776
0.00925759
0.000148471
0.00017487
0.000158991
0.000145396
0.000147281
0.0262559
0.0370106
0.000149198
0.000152412
0.000148671
0.000156207
0.000160676
0.0347125
0.000150563
0.000331893
0.000125371
0.00022359
0.00012065
0.000150501
0.00019671
0.000179366
0.000157239
0.000148406
0.000180186
0.052953
0.000151946
0.000163268
0.0186677
0.00046175
0.000184293
0.000154369
0.000149455
0.00014961
0.000148509
0.0299423
0.000177233
0.000153029
0.000150944
0.000153817
0.000149791
0.000148193
0.000148531
0.000184944
0.000167902
0.0120968
0.000163804
0.00896237
0.0246995
0.00015865
0.000175087
0.000146636
0.000157545
0.0311551
0.000148943
0.000152262
0.000175818
0.000195132
0.000165117
0.0143286
0.000226926
0.000147759
0.0443702
0.00014515
0.000149367
0.000164089
0.000149812
0.000148125
0.00020582
0.0376369
0.000147452
0.00769668
0.000148861
0.000146709
0.000152083
0.000353961
0.00015883
0.000153894
0.077258
0.00015106
0.000222023
0.0307099
0.000149608
0.000164034
0.000147943
0.01476
0.000181165
0.000148585
0.0201069
0.000176256
0.000168449
0.00014985
0.0334345
0.000157416
0.000190347
0.000151133
0.000168012
0.0367804
0.000146891
0.000253139
0.000148976
0.000176834
0.000164367
0.000149601
0.0339662
0.00015225
0.000194808
0.000175948
0.000170396
0.000162921
0.000163313
0.000150413
0.0185665
0.00015919
0.017215
0.000157996
0.000181783
0.000148244
0.000167802
0.000148669
0.000183267
0.012628
0.000150683
0.000147105
0.000444653
0.000150938
0.000131221
0.000150037
0.0100492
0.000225349
0.000162902
0.000147928
0.000147587
0.000148695
0.000145349
0.000189122
0.000166105
0.00016142
0.00015541
0.000148455
0.000172073
0.000152567
0.000162236
0.000244677
0.000148568
0.0175381
0.000175604
0.000160864
0.00025221
0.048722
0.000245517
0.00669695
0.0107362
0.000147411
0.000199267
0.0361883
0.00018899
0.000149098
0.000149535
0.000196072
0.0225634
0.0202211
0.000241268
0.000149424
0.000164747
0.00016865
0.0310065
0.00297273
0.000170645
0.000198354
0.000152776
0.000175988
0.000189496
0.000149042
0.000187544
0.0408028
0.000148814
0.000156038
0.000149667
0.000148247
0.0381774
0.057864
0.000146885
0.000149664
0.000149996
0.00014743
0.000166252
0.000206602
0.000151573
0.000147858
0.000148573
0.000169604
0.000157886
0.000157532
0.000246925
0.000148415
0.0637779
0.0181516
0.0600615
0.000176364
0.000173009
0.000252015
0.000163841
0.0279599
0.00024462
0.00602696
0.000149865
0.092213
0.0278296
0.000146324
0.000148209
0.000184411
0.0657628
0.0524237
0.000147192
0.000148504
0.0386796
0.00154943
0.00405494
0.000153025
0.000152841
0.000292572
0.000149238
0.044942
0.0317836
0.000248956
0.000654069
0.00014879
0.000147632
0.000147111
0.00015521
0.0356824
0.000169486
0.000155748
0.000150689
0.000173118
0.0289282
0.000169658
0.0159012
0.0153738
0.0237017
0.000314409
0.000148371
0.000149089
0.00826096
0.000145645
0.000146132
0.000151334
0.000376627
0.000166854
0.040149
0.000193557
0.000148189
0.0799937
0.000166529
0.000147686
0.0176057
0.00017667
0.000154327
0.000148834
0.0054799
0.0733949
0.000149146
0.0465756
0.000122501
0.0650605
0.000644245
0.000175846
0.000147847
0.000150265
0.000340202
0.000155509
0.00573845
0.000167676
0.000663089
0.000235496
0.000151118
0.000157456
0.000147883
0.00015067
0.0642663
0.0175003
0.000148507
0.0232971
0.000171226
0.000148541
0.000153843
0.000147569
0.000202984
0.000149939
0.00032189
0.00016493
0.00014779
0.000147035
0.000170497
0.0282878
0.000167758
0.00015295
0.000168131
0.000148627
0.000151613
0.000158145
0.0233955
0.0265564
0.0697862
0.000146041
0.000146976
0.00014971
0.000197124
0.000147181
0.000149831
0.000206086
0.000179011
0.000253681
0.000145909
0.0749554
0.0263199
0.000149885
0.0215184
0.000195439
0.000167367
0.000318286
0.000149532
0.039054
0.000157686
0.000151346
0.000152773
0.00014561
0.000220506
0.000154113
0.00015082
0.000158275
0.0240958
0.0311339
0.000149617
0.000148043
0.000152281
0.000148362
0.0001958
0.000150097
0.000183414
0.000152527
0.0507418
0.000150575
0.0435261
0.000146076
0.085797
0.00014984
0.000145501
0.0662805
0.000185758
0.000172258
0.000249133
0.000162778
0.000169272
0.000148517
0.0452346
0.000148498
0.000147218
0.000169577
0.00018159
0.0480052
0.0462614
0.000194073
0.0461095
0.000192926
0.000199125
0.000148305
0.000154773
0.000158789
0.0670705
0.000154039
0.0683933
0.0287871
0.000149148
0.000148868
0.000148439
0.000373462
0.000425899
0.000152147
0.000148679
0.00015498
0.000158047
0.000167378
0.000235211
0.000194434
0.000148324
0.000206827
0.000181656
0.0288782
0.000181775
0.000151726
0.000152998
0.080332
0.000147087
0.000184608
0.0187211
0.000150679
0.000154965
0.000206759
0.000174057
0.000150793
0.0240034
0.000153824
0.00022632
0.000169578
0.000158338
0.000150776
0.0701491
0.000146984
0.000171838
0.000264985
0.0683856
0.000172798
0.000175562
0.000155976
0.000164029
0.000149753
0.0694377
0.000157342
0.000148362
0.000160499
0.000148523
0.000149777
0.000380682
0.000148445
0.000149119
0.000148609
0.000198978
0.000149661
0.000161504
0.000184835
0.000201745
0.000190379
0.000149663
0.000184291
0.000194749
0.000204454
0.000181147
0.00015638
0.000202332
0.0082248
0.000244801
0.000149887
0.0212689
0.0132503
0.000149883
0.000153412
0.000145511
0.000221212
0.000184739
0.00014863
0.000254592
0.0672993
0.000146662
0.000149531
0.0184329
0.0308479
0.000182189
0.000145666
0.0284783
0.0267854
0.00048359
0.000148157
0.0681713
0.000187532
0.000167908
0.0591216
0.000156442
0.000145602
0.000160481
0.000199279
0.000162672
0.0195939
0.0774519
0.000147074
0.0324695
0.000199329
0.0420015
0.000146067
0.000164289
0.00014984
0.000147847
0.0596763
0.000115646
0.000222287
0.000147716
0.000157858
0.000173423
0.000151849
0.0749825
0.0198775
0.00014853
0.000149372
0.000158732
0.000147507
0.000175335
0.0446897
0.0578335
0.000173908
0.000150044
0.000149005
0.0630503
0.000154103
0.000175633
0.0001469
0.00015119
0.000251404
6.3315e-05
0.000249142
0.000363513
0.000149076
0.00022801
0.000152796
0.000164073
0.0773293
0.02247
0.000148466
0.000149957
0.000166226
0.000154808
0.00014943
0.0584413
0.0683408
0.000147055
0.00014476
0.000149219
0.000147709
0.000335666
0.000146741
0.0166951
0.000189467
0.000181456
0.00014759
0.0001669
0.0801557
0.000164184
0.000195638
0.051117
0.000149442
0.0342216
0.000159304
0.000160284
0.000190651
0.0347266
0.0415315
0.000180295
0.000147485
0.000190134
0.00014684
0.0001544
0.000149431
0.0137741
0.000159134
0.000355147
0.00022848
0.000173072
0.000148773
0.000210387
0.000157557
0.000149785
0.00018371
0.000145148
0.000167857
0.000164077
0.000149299
0.0663245
0.00015193
0.000205767
0.000150906
0.000147566
0.0594099
0.0442369
0.000153046
0.000159051
0.000169029
0.000171426
0.00017961
0.000156854
0.000155133
0.000155256
0.000219755
0.000154207
0.0105641
0.000166858
0.00023305
0.000195791
0.000150565
0.0569351
0.000145196
0.0218184
0.000153198
0.0662175
0.000442383
0.0118039
0.0106044
0.000232036
0.000168829
0.000148505
0.0484113
0.000170202
0.000148572
0.0271411
0.0229324
0.00015178
0.000153001
0.000160511
0.000160547
0.000163313
0.0435357
0.000149883
0.000161049
0.000165842
0.000159519
0.000149035
0.000188584
0.000145399
0.010651
0.000152412
0.00019323
0.000161854
0.000168364
0.000183261
9.08928e-05
0.000181863
0.00014714
0.000188071
0.0390844
0.0687749
0.000149827
0.00553018
0.000159612
0.000298121
0.000148499
0.000153531
0.0516666
0.00017671
0.0309215
0.0328856
0.000159436
0.0828218
0.000148223
0.00014533
0.0288902
0.000165524
0.000153432
0.0553854
0.000156898
0.000163643
0.000157871
0.000176688
0.000149086
0.00864971
0.0152594
0.00983838
0.00022401
0.000155463
0.000171466
0.0334754
0.000152959
0.000149674
0.00017619
0.000146038
0.000184868
0.0517179
0.0192492
0.0279978
0.000178273
0.000150034
0.0683792
0.000145177
0.000185327
0.000149546
0.0397438
0.000152681
0.000164568
0.036666
0.000192879
0.000148075
0.000159498
0.0109335
0.000148927
0.000201526
0.000146997
0.0433102
0.0683167
0.000195448
0.000168304
0.000147582
0.000213813
0.000200924
0.000168091
0.000147024
0.000150128
0.000148896
0.00017786
0.000148769
0.000188829
0.000149222
0.000147212
0.0922982
0.000147674
0.00015681
0.000155218
0.000149823
0.0412669
0.0001476
0.00016131
0.0605612
0.000175002
0.00862919
0.0001488
0.0721428
0.000176252
0.0613582
0.000152294
0.000198441
0.000149108
0.000169553
0.000197778
0.000195752
0.000212504
0.0657253
0.000207478
0.000440019
0.000155924
0.000195301
0.000163165
0.000193738
0.000154086
0.000148909
0.000148543
0.000176583
0.000164963
0.000159863
0.000176369
0.0108474
0.0233387
0.000171273
0.000148401
2.12328e-05
0.000179144
0.000150216
0.000152981
0.000148822
0.00256555
0.000148542
0.0153846
0.000147581
0.00015787
0.0470687
0.0001708
0.000148349
0.000148486
0.0317758
0.000147634
0.000152932
0.000155259
0.000160573
0.000157839
0.000149109
0.000203744
0.00016866
0.000162948
0.000219219
0.0513175
0.0397498
0.0396645
0.00014617
0.000148236
0.000172293
0.00015006
0.00016358
0.00538955
0.0422438
0.000145631
0.000148484
0.030172
0.000253726
0.000145785
0.000147198
0.000155564
0.0595221
0.0234849
0.000156617
0.000162177
0.000149301
0.000229684
0.000198444
0.000174633
0.000158683
0.000163744
0.000150141
0.00016614
0.000235054
0.000150904
0.000149034
0.00015627
0.0235863
0.000154383
0.026697
0.000148659
0.0507247
0.000162105
0.000156805
0.000146434
0.000147497
0.00025117
0.0315276
0.000165474
0.0190579
0.0595811
0.000150252
0.0598656
0.000201047
0.000148283
0.000185189
0.000236318
0.000195305
0.000149667
0.0332486
0.0427226
0.000148271
0.000162785
0.0266439
0.000166231
0.000148654
0.000147128
0.000149841
0.000153257
0.000182025
0.0002301
0.000168289
0.000179616
0.000146395
0.000149244
0.00477362
0.000147429
0.000167908
0.000155605
0.000148943
0.00017343
0.000148164
0.000152465
0.000228713
0.000147923
0.0541692
0.00014818
0.00458161
0.0405382
0.000187355
0.000149367
0.000149947
0.070708
0.000145522
0.000153376
0.000149909
0.00020428
0.000121184
0.000163821
0.0433959
0.000162863
0.000253372
0.000150513
0.000183629
0.000147395
0.000148882
0.0228598
0.0455303
0.000403076
0.000152709
0.000183083
0.000183373
0.0419461
0.0639337
0.000221657
0.00016637
0.000145127
0.0627117
0.000148014
0.000148298
0.000223741
0.000195956
0.000156965
0.00017881
0.000164144
0.000159595
0.000157822
0.0826871
0.000153893
0.000147891
0.0232122
0.000164304
0.000146198
0.028258
0.000148115
0.000148694
0.000202991
0.000186262
0.040994
0.000146331
0.000153875
0.000147599
0.000314106
0.000147549
0.00020073
0.000122355
0.0389033
0.02525
0.015678
0.000157991
0.0544764
0.000224126
0.000149368
0.000158514
0.000163001
0.000158067
0.000249386
0.0520906
0.0606857
0.0348731
0.000356805
0.00014913
0.000193577
0.000148155
0.0226459
0.000159285
0.000151799
0.000153409
0.000150637
0.000147573
0.000192922
0.0630327
0.00014606
0.000152596
0.000146967
0.0484402
0.000152339
0.089794
0.0113293
0.000405306
0.000148597
0.000147636
0.040154
0.00019114
0.000148876
0.000191342
0.000149498
0.000187755
0.000178168
0.000188619
0.000176196
0.0226694
0.000146905
0.000147431
0.000214067
0.0271705
0.000159352
0.000166382
0.000147894
0.0125443
0.000148197
0.00014763
0.000151642
0.000148306
0.00718107
0.0485412
0.00024585
0.000180124
0.0714838
0.000244066
0.000145634
0.000162222
0.00014599
0.00025518
0.000148452
0.000153869
0.000148234
0.000147454
0.000147196
0.000408675
0.000151003
0.000280407
0.000145524
0.000159131
0.000157709
0.000267483
0.000148275
0.000162408
0.000165894
0.000171944
0.0868641
0.000147446
0.0308597
0.000175672
0.000164702
0.000149212
0.000147755
0.0304838
0.0114368
0.000148512
0.000147854
0.000221621
0.000218567
0.00016109
0.0541787
0.000150762
0.000244472
0.000162449
0.000145998
0.00771501
0.00015143
0.0290214
0.000148495
0.000150618
0.000148752
0.0448725
0.0383882
0.00014577
0.000181726
0.000215207
0.000148289
0.000147736
0.000147703
0.000183446
0.0606862
0.000174584
0.000153912
0.000166939
0.000148174
0.000148677
0.000152713
0.000147956
0.000207742
0.000148784
0.000181628
0.000251116
0.000164315
0.000145275
0.00297092
0.00018478
0.000148229
0.000177625
0.000161563
0.000249369
0.000153621
0.0840467
0.000174964
0.000148332
0.000182624
0.000183088
0.00015435
0.0902015
0.000180246
0.000160985
0.000249503
0.000148015
0.000185105
0.000169493
0.000181832
0.000147585
0.000148195
0.000145487
0.000159303
0.000178477
0.000177864
0.0191362
0.0358708
0.0124862
0.000149767
0.00029901
0.0382241
0.064135
0.000148275
0.000148511
0.000176846
0.0284791
0.000153117
0.000165948
0.01209
0.0403991
0.00460751
0.000172211
0.000203797
0.030105
0.000271847
0.000145408
0.00211218
0.000218258
0.000149632
0.000149713
0.000150855
0.07071
0.000184856
0.0174788
0.000153043
0.00337607
0.000148965
0.000244801
0.0302198
0.000149337
0.000164856
0.061119
0.00594695
0.000174039
0.000151053
0.000152451
0.000150028
0.000185487
0.000197579
0.000588944
0.0635631
0.000146567
0.0195429
0.000191576
0.000243609
0.000148077
0.000149036
0.000245745
0.000183071
0.000148079
0.000172164
0.000167812
0.000161366
0.00939608
0.0286524
0.0784576
0.065416
0.000154721
0.000145944
0.000166829
0.0248496
0.0501202
0.000148211
0.000183799
0.000169551
0.000194704
0.000150036
0.000149695
0.000241117
6.43365e-05
0.00193591
0.000277302
0.0197177
0.000147734
0.000183868
0.0649379
0.00014952
0.000166214
0.000190978
0.000145875
0.000204482
0.0504643
0.000181086
0.000149687
0.015807
0.000194843
0.0494297
0.000144528
0.000152819
0.000149063
0.000151729
0.000148947
0.000170653
0.000162854
0.000162719
0.000186927
0.000164558
0.0498339
0.000154341
0.000160104
0.000157787
0.0269209
0.000165417
0.0388258
0.000157591
0.00015652
0.0130487
0.00017056
0.000148852
0.000163004
7.42887e-05
0.0245781
0.000240157
0.00014823
0.000147748
0.000148012
0.000257817
0.000151555
0.00033375
0.00026034
0.000183037
0.000160879
0.000211469
0.0340509
0.000148943
0.0414781
0.000160238
0.000164132
0.000148086
0.00014807
0.000174662
0.073857
0.000148426
0.0337615
0.000217154
0.000171032
0.00019907
0.000147632
0.000148091
0.000160856
0.000151231
0.0616714
0.0268778
0.000170077
0.000251225
0.000148146
0.000148807
0.000149134
0.000149605
0.0894392
0.000151922
0.0509491
0.000169355
0.00015012
0.000190729
0.000729775
0.0324813
0.0251591
0.000152582
0.000147253
0.000148817
0.000152467
0.000216159
0.000181334
0.0842085
0.000148982
0.000149955
0.000176782
0.000149709
0.000220432
0.000152466
0.000175487
0.000176891
0.000162825
0.000162948
0.000146325
0.000172038
0.000162407
0.000181392
0.000168576
0.000163253
0.000147047
0.000188432
0.000147586