/*--------------------------------*- C++ -*----------------------------------*\
| =========                 |                                                 |
| \\      /  F ield         | OpenFOAM: The Open Source CFD Toolbox           |
|  \\    /   O peration     | Version:  v2012                                 |
|   \\  /    A nd           | Website:  www.openfoam.com                      |
|    \\/     M anipulation  |                                                 |
\*---------------------------------------------------------------------------*/
FoamFile
{
    version     2.0;
    format      ascii;
    class       volVectorField;
    location    "150";
    object      ddtCorrDdt0(U);
}
// * * * * * * * * * * * * * * * * * * * * * * * * * * * * * * * * * * * * * //

dimensions      [0 1 -2 0 0 0 0];


internalField   nonuniform List<vector> 
13917
(
(0.0151175 -0.00163508 7.75709e-18)
(-0.00687401 -0.00495073 8.77748e-19)
(0.00736931 -0.0109654 -1.54156e-17)
(-0.000466468 -0.002078 -5.51787e-18)
(0.00162434 0.00193334 3.16651e-19)
(-0.00602416 -0.00613088 -7.12853e-19)
(-0.00155077 -0.00377282 -5.23652e-18)
(-0.0192704 0.0227372 -1.16361e-18)
(-0.00262314 -0.00268988 1.23207e-18)
(0.000935985 -0.00751952 -9.89867e-18)
(-0.0178187 0.0195972 -1.91189e-18)
(0.000328245 -0.00167553 -1.35757e-18)
(5.53701e-05 -2.13055e-05 -1.36773e-18)
(0.0183559 0.103204 4.84766e-19)
(0.00234906 -0.00530727 7.21319e-20)
(0.0148961 -0.00125434 -1.0162e-18)
(0.000583794 3.0832e-05 3.11811e-20)
(-0.00871057 0.0170026 1.72605e-18)
(-0.000536616 -0.00980696 9.23406e-18)
(0.0131646 -0.00379775 -3.01786e-18)
(0.00469035 -0.00190611 4.25619e-19)
(0.00230958 -0.00081801 3.3077e-19)
(-0.0022405 -0.0055234 -5.21968e-18)
(0.00231199 -0.000771328 -8.49895e-19)
(0.000231425 -0.00284086 3.4813e-18)
(0.00501049 -5.69005e-05 -1.97133e-18)
(-0.0481793 -0.0559374 5.74308e-18)
(0.000335005 -0.00630172 3.79376e-18)
(0.00260016 0.00777614 -2.82393e-19)
(-0.000177259 0.00136276 1.41523e-20)
(0.00130462 -0.00592716 -2.42903e-17)
(-0.0040701 -0.00701748 -2.65265e-17)
(7.16165e-05 -0.00221003 -2.47635e-18)
(0.0169155 -0.00257329 5.36765e-19)
(0.00218979 0.000637546 -2.51724e-20)
(-0.0313545 0.0259917 2.05443e-18)
(0.00135473 -0.00224553 2.18524e-18)
(0.00111285 8.26551e-06 -6.61377e-19)
(-0.00165391 -0.00377483 -3.49011e-18)
(0.00332144 -0.00726016 -7.88227e-18)
(2.23547e-05 1.79725e-05 2.48489e-20)
(0.00121166 0.00103497 -5.46215e-21)
(-0.00222113 -0.00228026 4.79662e-18)
(-0.00286805 -0.0104721 -1.08522e-17)
(-0.00262689 -0.010312 7.61343e-19)
(-0.00392043 0.00748728 -3.26607e-18)
(0.00412396 -0.00213372 -1.88e-18)
(0.0110109 -0.00490888 -8.77451e-18)
(-0.0906089 -0.0297005 -4.28326e-20)
(0.00220867 0.000608866 6.21705e-21)
(0.000343737 -0.00162797 -5.45098e-19)
(0.000183653 -0.00061893 6.4351e-19)
(0.0197118 -0.000570587 1.26193e-17)
(0.00118403 -0.00151499 -2.27002e-18)
(0.00107082 -0.00160622 -5.2829e-19)
(0.000640151 -0.00109803 -8.64445e-18)
(-0.00218527 -0.00696572 2.30445e-17)
(-0.00217388 -0.00548639 -1.35556e-18)
(0.00117482 0.00100102 1.24808e-21)
(-0.00501375 0.00859588 1.66596e-20)
(0.0278775 0.00980975 -8.42754e-19)
(0.00318726 0.000675856 2.46779e-20)
(-0.00108241 6.71281e-05 2.36126e-21)
(0.000201368 -0.00276382 2.59844e-18)
(0.0137139 -0.00622296 3.23797e-18)
(-0.00399826 -0.0347373 -1.68993e-19)
(0.000517857 0.0109368 2.35711e-19)
(-0.0367979 0.020521 1.21189e-19)
(-0.0111128 0.0211272 3.7103e-19)
(0.0182234 -0.0010755 1.62919e-17)
(0.0131427 -0.0073521 -8.72832e-18)
(0.0169161 -0.00226677 -3.27292e-18)
(-0.000646932 -0.00122201 2.09641e-18)
(0.00117283 0.00096751 7.73679e-21)
(0.00517146 -0.002281 -2.12365e-18)
(0.000834003 -0.00285888 1.41348e-18)
(0.00311404 0.000236191 -2.62018e-21)
(0.00113572 0.000940585 -1.08188e-20)
(0.000777672 -0.00279554 -9.304e-19)
(7.71028e-05 -0.00226354 -2.36818e-18)
(0.00191805 -0.00184819 1.33994e-19)
(0.000733206 2.86587e-05 -3.2277e-20)
(-0.000645869 -0.00116849 -1.09855e-18)
(0.015338 -0.00709136 1.27973e-17)
(0.000792303 -0.000265645 1.33707e-18)
(0.0279449 0.0431261 7.30837e-19)
(-0.00395699 -0.00676123 2.23759e-17)
(0.000810758 -0.000127355 -7.24444e-19)
(0.00361043 -0.00678677 6.26958e-18)
(0.000587481 4.04336e-05 1.44271e-20)
(0.000473973 9.09404e-05 -4.08312e-20)
(-0.00231649 -0.00230983 4.09407e-19)
(-0.0903194 -0.0504389 -4.98e-20)
(0.00187122 0.000666596 1.11222e-20)
(0.00133665 -0.00192461 2.09743e-18)
(0.00285242 0.00991941 2.9085e-19)
(-0.0261651 -0.0660399 -1.43904e-18)
(0.00104994 2.59758e-05 -1.24783e-19)
(0.000781301 -0.000143854 -2.67964e-19)
(0.00454947 -0.036781 4.79668e-18)
(-0.000358479 2.82024e-05 -8.44734e-21)
(-0.000435722 4.59731e-05 -8.90698e-21)
(0.00188324 -0.00192095 6.20142e-20)
(0.00127105 5.6668e-05 -3.73503e-19)
(0.00292669 0.000156425 -7.69573e-20)
(0.0192322 -0.00366534 -1.54781e-17)
(0.0132088 -0.00328072 -6.71547e-19)
(0.00336627 0.000841306 -1.90993e-19)
(0.00120865 0.00107448 1.43587e-21)
(-0.0473732 -0.0598446 -9.55658e-18)
(-0.00021997 -9.39683e-05 -8.20186e-19)
(0.0166278 -0.00282999 -5.93243e-18)
(0.00474159 0.00679907 1.93804e-19)
(0.00953472 -0.0056612 1.64225e-18)
(0.013761 -0.00642706 -2.20084e-18)
(0.00112317 -0.00288169 3.72714e-19)
(-0.000544093 -0.00944602 4.04629e-18)
(0.000128441 8.0318e-05 -1.52234e-20)
(0.00503352 -0.0121096 -2.14137e-17)
(-0.000716581 -0.000870567 -1.68303e-18)
(0.000782792 3.87405e-05 1.27782e-19)
(0.00115546 0.000873584 -2.55563e-21)
(0.000311741 0.0133319 5.42618e-19)
(0.000559529 -0.00594143 3.8846e-18)
(0.0209198 -0.00108249 6.30137e-18)
(0.0156854 -0.00680901 8.63532e-18)
(8.61181e-05 -0.00267417 9.03627e-18)
(0.00586351 -0.00213808 -2.27424e-18)
(0.00214124 7.29235e-05 2.07586e-19)
(0.000640113 -0.00621288 -3.16351e-18)
(-0.00311957 -0.00410034 3.69721e-18)
(-0.0292277 -0.00158133 2.57776e-18)
(0.0207582 -0.0026612 -1.39452e-17)
(0.00117319 -0.00282204 3.87312e-18)
(-0.00406529 -0.00795511 1.07455e-17)
(-0.0411739 -0.0703674 5.23482e-18)
(0.0304679 0.0228139 -9.54238e-18)
(0.0226129 -0.000688234 -4.26006e-18)
(0.00526507 0.00141911 -1.65955e-18)
(0.000729165 7.56485e-07 -3.72792e-19)
(0.0595357 0.06353 -4.84462e-18)
(0.00113264 0.000912293 1.48584e-21)
(0.0190837 -0.00363293 1.89245e-17)
(0.00167595 -0.000602912 -1.02707e-18)
(-0.000496959 -0.00115727 5.00701e-18)
(0.00098411 0.00119466 -5.61029e-21)
(0.0132565 -0.00745126 -1.05097e-17)
(0.035317 0.0709552 -1.58566e-18)
(0.0109258 -0.00419008 -1.98464e-17)
(0.00116877 -0.00156855 1.11244e-18)
(0.00334889 -0.00586243 7.91408e-19)
(-0.000603407 5.65294e-05 4.65371e-20)
(-0.000494616 -0.0010961 -3.31147e-18)
(-0.000754063 -0.000850123 3.05981e-18)
(-0.0233865 -0.0704108 -4.4374e-18)
(0.00249568 -0.000479939 -1.26726e-20)
(0.00126907 6.82664e-05 4.29188e-19)
(0.0212491 -0.0020858 2.35902e-17)
(7.89078e-05 3.30587e-05 2.77679e-21)
(0.000127308 6.43686e-05 -2.34426e-20)
(0.00111996 -0.000526085 2.90711e-18)
(0.0112155 -0.00379804 -5.22439e-18)
(0.00100047 -0.00205212 3.34015e-19)
(0.0547746 0.0700982 4.8574e-18)
(0.0145161 -0.00144261 -1.04583e-18)
(-0.0340132 -0.0498214 -2.77053e-19)
(0.0145701 0.000328461 -1.28483e-17)
(0.0171721 -0.00422281 9.07287e-18)
(-0.00161036 0.000447022 6.34315e-22)
(0.00594496 0.00223057 7.26739e-19)
(0.00243163 -0.000715899 -2.42138e-19)
(0.0197631 -0.00361899 -4.9273e-18)
(-0.00264297 -0.00260353 -7.87801e-19)
(0.0185621 0.0143002 8.90318e-18)
(-0.00381364 -0.00498056 -1.12506e-18)
(-0.000219497 4.3489e-05 1.48022e-21)
(-0.000535358 -0.00205287 -2.07853e-19)
(-0.00205137 0.00126545 -2.44382e-19)
(-0.00308826 -0.00399089 4.38751e-19)
(0.000870583 -0.00194244 -2.86651e-19)
(-0.00207171 -0.0023538 6.77332e-19)
(0.00236258 -0.00071373 8.64641e-19)
(0.000404099 -0.00162208 7.34263e-19)
(0.000642127 -0.00201214 -3.00593e-18)
(0.00505885 -0.0117708 1.83311e-17)
(-0.0330093 -0.00275821 -3.51059e-18)
(0.000429993 -0.00159406 2.64522e-18)
(0.000528843 -0.00115943 -5.38648e-18)
(-0.000252102 0.00108905 -2.59725e-20)
(0.0239727 0.0365475 1.00069e-18)
(-0.00421794 -0.005257 -3.97755e-18)
(-0.00269933 -0.00965656 -6.66816e-18)
(0.000503842 -0.00377408 1.84886e-18)
(0.0142086 -0.0020978 -5.05894e-20)
(0.00189904 0.000641122 5.56132e-21)
(0.0207988 -0.00106657 4.10922e-18)
(0.000182487 -0.00393997 -2.6483e-18)
(0.0205847 -0.00280745 1.0975e-17)
(0.00213467 0.000628887 1.35781e-20)
(0.0024855 -0.000494167 1.6249e-19)
(0.00327275 -0.0025328 -1.02682e-18)
(0.0176359 -0.000980881 1.40078e-18)
(0.0223305 -0.000531742 1.2586e-17)
(0.00131774 -0.00222206 9.58797e-19)
(-0.0554177 -0.0342837 2.0786e-18)
(-0.000517401 0.00166062 6.10771e-20)
(0.00317717 -0.00626529 -2.10963e-18)
(0.00116362 0.000907379 -7.37613e-21)
(-0.000810295 0.000349161 2.76732e-18)
(0.00202079 -0.00183385 -1.75892e-18)
(0.00177876 0.000115237 -6.40771e-20)
(-0.0012975 0.00333794 -1.05006e-18)
(-0.0019883 0.00414243 -1.42838e-19)
(0.011441 -0.00431458 -7.91537e-18)
(-0.00412942 -0.00774021 -1.63607e-18)
(0.00571163 0.000376513 -1.82209e-19)
(0.0129026 -0.00476238 1.59767e-17)
(0.00123973 -1.28589e-05 -9.83351e-19)
(0.000587668 0.000513645 -5.4237e-21)
(0.00056814 0.000510364 6.07977e-20)
(0.0161452 -0.00521506 -8.3755e-18)
(-0.000132951 -0.00273029 5.72031e-18)
(0.000971213 0.000440377 2.84703e-18)
(1.80727e-05 -0.000294999 1.05965e-19)
(-0.000920997 5.25316e-05 -5.13475e-21)
(-0.0376116 -0.0761665 1.72498e-18)
(0.0202651 -0.000834064 3.6373e-18)
(0.000576861 0.000448237 5.34466e-20)
(0.000564005 0.000431319 3.66657e-20)
(3.63387e-05 1.62312e-05 3.72981e-21)
(0.000566831 0.000537294 -5.46647e-20)
(0.000548472 0.000536177 -3.99904e-20)
(0.0168152 -0.00207076 1.25028e-18)
(0.01278 -0.00397883 2.66182e-18)
(0.00220407 -0.00130338 8.80458e-19)
(-0.00156544 0.000798595 1.12174e-20)
(-0.00153922 -0.00432076 -1.88992e-17)
(0.018167 -0.00178066 3.75175e-18)
(0.000254707 3.93586e-05 5.90811e-20)
(4.27826e-05 -0.000271977 -2.24642e-18)
(-0.0537188 -0.0418544 -1.07756e-18)
(0.0194548 -0.00308468 -7.18591e-18)
(0.000207452 -0.00250685 7.42344e-18)
(0.0131663 -0.00472954 8.83185e-18)
(-0.00607645 -0.00217865 -1.06045e-17)
(0.0016591 -0.000628454 1.01141e-19)
(0.0165585 -0.00307471 -9.95508e-18)
(-0.00123195 -0.00423448 8.7401e-18)
(0.00421167 0.00555191 -4.03548e-19)
(-0.00168352 -0.00730871 -3.03187e-18)
(0.00132018 -0.00220872 5.67632e-19)
(0.0124566 -0.00396723 7.44088e-19)
(-0.000699623 -0.000959521 1.19243e-18)
(-0.000688126 -0.00716367 3.82594e-19)
(-0.00330713 -0.00540794 4.41077e-18)
(0.00235441 -0.00127803 2.31953e-19)
(2.80781e-05 4.41356e-06 -1.0014e-19)
(0.000108436 -0.00275102 7.98014e-19)
(0.00122996 -0.000635202 -2.29024e-19)
(0.00197311 0.000883874 2.64487e-20)
(0.0210323 -0.0013381 -6.84435e-18)
(-0.0477666 0.0672802 -1.36045e-18)
(0.00130271 0.000861807 -7.6236e-21)
(0.000579502 0.000413255 -7.20001e-20)
(0.00251521 -0.000464149 -1.55194e-20)
(0.00059753 0.00041905 6.87391e-20)
(-0.000732287 -0.00093481 -7.60145e-19)
(0.000122537 -3.78404e-05 1.29683e-18)
(-0.00154009 -0.00526906 -1.32179e-17)
(0.00131862 0.000897488 -3.0102e-21)
(0.0225222 -0.000733525 -6.9967e-18)
(0.0129757 -0.00346006 -7.0689e-18)
(0.000597876 -0.00127928 -1.61823e-18)
(0.00201655 -0.000166394 -2.30835e-19)
(-0.00593449 0.0126131 -6.60809e-18)
(0.000299222 0.000578862 -1.7022e-19)
(0.0173144 -0.0282888 -1.62462e-19)
(0.0210202 -0.00155305 4.61988e-18)
(0.000315647 0.000575737 3.47343e-21)
(0.0183432 -0.00133456 -3.66383e-18)
(0.00190914 0.000866542 -2.62219e-20)
(0.0110022 -0.00346764 5.92914e-18)
(-0.000192292 3.19806e-05 -1.01036e-20)
(0.00289169 -0.00413508 -1.72963e-19)
(0.00243517 -0.00130413 4.43535e-20)
(0.00175687 -0.000492024 2.49611e-19)
(0.00141786 -0.00886101 1.5455e-17)
(0.00131916 1.53152e-05 4.22776e-19)
(-0.0383491 -0.053853 -5.29125e-18)
(0.000818276 -0.00464971 -3.07618e-20)
(-0.0362977 0.0577921 -1.17952e-18)
(0.000956239 0.00130715 5.11287e-21)
(-0.0533736 -0.0281738 1.35164e-18)
(0.022598 -0.000726645 -1.50272e-17)
(0.000228848 6.21868e-05 -3.93369e-22)
(-0.00179946 -0.00550415 2.00986e-17)
(0.00112096 0.000264054 -6.19566e-19)
(0.00134226 -0.00279846 -1.91217e-18)
(0.00141933 0.00134655 5.16319e-19)
(0.000673312 -0.00283105 -6.52543e-19)
(0.00187828 0.000743966 -4.86468e-21)
(0.00140653 2.09759e-05 4.35087e-19)
(-0.00376264 0.0020503 3.28687e-18)
(0.00767407 0.00335445 3.18075e-19)
(-0.000477421 -0.00701826 6.71341e-18)
(0.000625211 -0.00276569 3.30856e-18)
(0.000100562 -0.000262237 1.8715e-18)
(0.0211167 -0.00229907 -3.45553e-17)
(0.0172886 -0.000672275 1.52063e-18)
(0.00206283 0.000188058 2.96911e-21)
(0.00376737 -0.00148132 -4.99884e-20)
(0.00128247 -0.00287728 3.16648e-19)
(-0.0325549 0.0058462 -2.59707e-18)
(-0.00726473 -0.0100226 8.25307e-18)
(0.0134694 -0.00359962 -1.47068e-17)
(0.0159527 0.0123229 -2.82078e-18)
(0.010074 -0.0178294 -2.66262e-19)
(-0.0254351 -0.00437057 2.00464e-18)
(0.00209818 -0.000360786 3.33764e-19)
(0.0146938 -0.00742397 8.76943e-19)
(-0.0373643 0.012981 -2.02818e-19)
(0.00751868 -0.0110868 6.727e-18)
(5.46572e-05 -3.04752e-05 -6.68509e-20)
(0.00276666 -0.00501608 -5.70278e-20)
(-0.0514937 -0.0482666 -1.2469e-18)
(0.00252464 -0.000587959 -3.76318e-19)
(-0.00871151 -0.00465791 6.2887e-20)
(-0.00237619 -0.00945158 -5.64931e-18)
(0.000465617 2.86451e-05 -1.89999e-20)
(0.0195311 -0.00381185 -4.23398e-18)
(0.000797388 -0.000201356 -1.51504e-18)
(-0.00443819 -0.00428234 -1.54189e-17)
(0.000204746 0.000735094 1.65425e-19)
(0.0112627 -0.00442646 2.24208e-17)
(0.00151385 1.84745e-06 2.72238e-19)
(-0.000475385 -0.00653467 -1.55951e-18)
(0.000124939 0.00228824 -9.81936e-20)
(0.0172416 -0.00782508 2.91948e-19)
(0.000495074 5.09618e-05 4.61112e-20)
(-0.0021056 -0.0075552 2.52866e-18)
(0.0181743 -0.00483792 -7.46001e-18)
(0.00125038 -0.00187131 -8.45196e-19)
(0.00251579 -0.000553703 6.57841e-21)
(0.0166542 -0.00320983 2.36438e-18)
(0.0187045 -0.00435125 5.31597e-18)
(0.00950803 0.00348231 -8.41276e-18)
(0.0138119 0.103461 4.17426e-18)
(0.000314954 0.000547999 3.63917e-20)
(0.00199171 -0.00143605 -5.22205e-19)
(0.0198091 -0.00258596 -1.91781e-17)
(-0.0224205 -0.00274046 -7.50827e-19)
(0.000336935 0.000547408 -5.92356e-20)
(0.000914261 0.000813322 2.82466e-19)
(0.000769683 -0.0015784 -7.39895e-19)
(0.0136375 -0.00347583 1.97614e-18)
(-0.000612094 -0.00665784 -2.3706e-18)
(0.00198107 -0.00435136 1.42925e-18)
(-0.00979329 -0.00748983 4.70395e-20)
(0.0204661 -0.0262392 -2.13062e-18)
(-0.00406014 -0.00456221 -5.84107e-18)
(0.0152055 -0.00263348 6.60867e-19)
(0.00218311 5.08172e-05 -9.03064e-20)
(0.0011993 -0.00187478 9.40733e-19)
(0.00124501 0.00244361 -7.26207e-19)
(0.00255912 -0.00996561 1.26627e-17)
(0.000317164 2.97843e-05 -9.82853e-20)
(0.0142277 -0.00170643 7.6096e-18)
(-0.0040906 -0.00446337 1.02058e-17)
(0.0349237 0.0354466 -2.76056e-19)
(0.00111286 -0.00164845 -1.27734e-18)
(-0.0161246 -0.00529011 -5.74932e-18)
(0.00254797 -0.00194367 1.9449e-19)
(-0.0960655 -0.0934591 1.46842e-18)
(0.0010993 0.000982729 2.29404e-20)
(0.00110894 -0.00058988 -6.81217e-18)
(-0.00456002 0.0106763 -4.06236e-18)
(-0.00013385 0.0035896 2.2412e-20)
(0.000618026 -0.00132411 -1.4909e-18)
(0.00950943 -0.00749639 -1.49905e-17)
(0.00017901 0.000787349 -9.90429e-20)
(0.0155237 -0.000977692 -4.55336e-18)
(2.25424e-05 -0.00358228 2.77346e-18)
(0.00109163 0.000972018 2.71693e-20)
(-0.0966982 -0.0714845 -1.13152e-18)
(0.00276537 -0.0012679 -1.02477e-20)
(-0.0101797 0.0107583 2.2725e-19)
(0.00144714 0.000516359 -6.18599e-20)
(0.0140358 -0.00346533 1.00825e-17)
(-0.00982382 0.0107022 -2.43536e-19)
(0.00124748 -0.00235474 -7.42818e-19)
(-0.0414837 -0.0712181 -2.29534e-18)
(0.0173823 -0.0192041 2.66961e-18)
(0.00133579 -0.00216858 -3.30431e-19)
(0.012004 -0.000127683 1.00162e-17)
(0.0162777 -0.00700535 7.09338e-19)
(0.00109724 -0.00235357 -2.15057e-18)
(0.00096368 -0.00830248 -1.53586e-17)
(0.00177366 -0.00144502 2.11814e-18)
(0.0214303 -0.0185142 -3.88496e-18)
(0.00661479 -0.0113254 -9.57245e-18)
(0.000776601 -0.000175861 -1.12435e-19)
(-0.00204211 -0.0033534 -2.29013e-18)
(0.000534364 -0.00278851 -2.88216e-18)
(0.00167453 -0.000509374 3.42849e-19)
(0.00140179 -0.000177753 -2.46323e-19)
(0.00221963 -2.06838e-05 2.17455e-19)
(0.0332962 0.0230504 -4.47167e-18)
(-0.0308831 -0.0463981 -2.9024e-18)
(0.00115532 -0.00177662 1.79087e-19)
(0.00229622 4.25185e-05 -2.38554e-19)
(0.00219049 -0.000743975 -4.90238e-20)
(-0.00189385 -0.00544771 -5.90494e-18)
(-0.0494426 -0.00182938 3.0986e-19)
(0.000225232 0.000647976 -8.65143e-21)
(-0.00157544 0.000403578 -2.20315e-21)
(-0.00627815 -0.010011 -8.61054e-18)
(-0.0154334 -0.00744626 6.68007e-18)
(0.001779 -0.00052623 -1.2958e-18)
(0.00119918 -0.00234225 2.8253e-18)
(0.00935527 0.0137233 -1.70424e-18)
(0.0159665 -0.0807556 -3.79142e-18)
(-0.00883202 -0.0403497 -6.96e-19)
(-0.000833254 -0.0103217 -1.52137e-17)
(0.0140172 -0.00785869 7.46242e-18)
(0.000619871 0.000754079 -1.04128e-19)
(0.000233639 0.000622906 9.50082e-20)
(0.00319684 -0.00127 1.55596e-18)
(0.00138634 -0.000167885 1.51388e-19)
(0.00024128 0.000647586 -8.91213e-20)
(0.00227496 -0.00133697 -5.67351e-19)
(0.000251341 0.000625509 -6.00616e-20)
(0.000593688 0.000729913 8.62663e-20)
(0.0149906 -0.00396927 1.30745e-17)
(0.00176076 -0.00150981 -1.60113e-18)
(0.00244032 -0.0080554 1.72596e-18)
(0.0225238 -0.00075959 -1.05585e-17)
(-0.0018097 -0.00546811 -9.08041e-18)
(0.00181032 0.000103599 2.15256e-19)
(-0.000439704 -0.00107816 1.63956e-18)
(0.0116054 -0.000823069 -4.11773e-18)
(0.00332325 -0.00212298 2.42245e-18)
(0.0208622 -0.000928354 -1.10307e-17)
(0.000212433 0.000704712 -1.1735e-20)
(0.00021991 -0.000633791 5.42435e-19)
(0.000194217 0.000816039 2.2673e-20)
(0.000544082 0.00056263 4.12128e-20)
(0.00132376 -0.00223116 -2.54309e-18)
(0.0029441 -0.0011316 2.50467e-19)
(0.00802163 0.0147192 1.62524e-18)
(0.0013593 0.000501571 6.11351e-21)
(0.019423 -0.00314979 4.30582e-18)
(0.000252219 -0.000629927 -1.86327e-18)
(-0.00267696 -0.00466197 -2.36339e-18)
(0.00101768 0.000494464 1.26405e-20)
(0.00203534 -0.00174299 1.97915e-18)
(-0.00511455 -0.00218001 -4.23694e-18)
(0.00954453 0.00472379 1.7829e-18)
(0.000738054 -0.00153825 1.54036e-19)
(0.0117928 -0.108332 3.64049e-18)
(0.00184493 6.31943e-05 7.62747e-20)
(0.00136851 -2.22153e-05 8.69275e-19)
(0.00215282 -0.000701048 -2.05046e-19)
(0.00272975 -0.00136372 1.16207e-19)
(0.00171667 0.000134682 7.20442e-20)
(0.00100911 -7.55622e-05 3.49781e-19)
(0.0210268 -0.00240335 6.45774e-18)
(0.0221738 0.0101742 -3.16951e-19)
(0.00168669 0.00014078 1.48311e-19)
(-0.0536403 -0.0224217 -1.26838e-18)
(-0.00543049 -0.0103221 1.96159e-18)
(-8.24579e-06 -7.35987e-05 1.27394e-18)
(-0.00169163 -0.00541919 1.64346e-18)
(-0.00632493 -0.00577357 -4.69951e-18)
(0.0123434 -0.00194123 1.04543e-17)
(-0.00227286 -0.00346493 6.12306e-18)
(0.0190642 -0.00398354 -4.90469e-18)
(0.0245734 0.0385883 7.84391e-20)
(0.0209661 0.0356152 -5.65284e-20)
(0.00291604 -0.00124251 -1.13296e-19)
(0.00481001 -0.0248841 4.86776e-19)
(0.000812415 0.00043262 -1.5388e-21)
(0.00134001 -0.00219561 7.57959e-19)
(0.00750255 0.000496441 -2.02575e-18)
(0.000500542 8.58833e-05 -1.33157e-20)
(0.00113879 -0.00146702 1.24235e-19)
(0.00128401 -0.00192291 2.82736e-18)
(-0.00229121 -0.00306687 2.28185e-18)
(0.00429928 -0.00354107 -1.57463e-18)
(0.00335869 -0.0123503 4.00367e-19)
(-0.00253073 -0.00607538 -4.57965e-18)
(0.00134197 0.00137294 -1.19434e-20)
(0.00171547 -0.000119399 -9.50547e-20)
(-0.00381088 0.0172209 -1.11865e-18)
(0.000689416 -0.0115536 1.50527e-18)
(0.00118324 -0.0017531 -6.58243e-19)
(0.00412438 0.115488 3.68564e-19)
(-0.00180804 -0.00507992 -2.12823e-17)
(0.000644844 -0.00464108 -1.0706e-18)
(0.0163037 0.00122572 1.38626e-18)
(0.000772143 -0.000236748 -4.05422e-18)
(0.000275873 -0.012186 -4.37892e-18)
(-0.00304392 0.00199506 7.22266e-18)
(0.0014447 -4.76427e-05 6.0588e-19)
(0.0218296 -0.00139718 1.33837e-17)
(0.00135264 -2.41036e-05 1.28396e-19)
(0.000526842 0.000561072 -7.94829e-21)
(-0.00186258 -0.00541032 -1.51596e-18)
(0.000230508 0.000700824 -4.1716e-20)
(0.0012818 -1.11595e-05 4.13007e-19)
(-0.00435985 0.00156885 3.96468e-18)
(0.0215848 -0.00109775 3.25894e-17)
(-0.0274709 -0.0880628 -2.28695e-18)
(0.00108704 -0.000498573 -2.51355e-18)
(-0.000998501 -0.00205027 -3.40881e-18)
(0.00156839 0.00127076 8.05976e-20)
(0.00600528 0.00316354 -1.11315e-17)
(-0.0143989 0.0234215 -1.80774e-18)
(0.00120232 -0.00166402 2.14665e-18)
(0.00110139 -0.00156929 3.46403e-19)
(0.00107387 -0.000441376 4.45699e-18)
(-0.00265938 -0.00557143 -2.8907e-18)
(-0.0368757 -0.0209387 1.0796e-19)
(0.00221462 0.000181968 1.55554e-19)
(0.000296657 4.04463e-05 4.60583e-20)
(0.00246191 -0.000489921 -1.19959e-19)
(0.00162414 -0.00049313 -5.25202e-19)
(0.0037223 0.00117635 -2.66672e-19)
(-0.00058236 -0.00457926 5.61866e-18)
(0.000469489 7.41534e-05 -4.3049e-20)
(-0.00239473 -0.00609078 7.97684e-18)
(0.00143223 -4.34049e-05 6.55083e-19)
(0.0021804 -0.000842038 9.41373e-19)
(0.000484611 -0.00273662 -2.02976e-19)
(0.0141315 -0.00365974 1.61651e-18)
(0.000833757 0.000180852 3.77657e-20)
(-0.00144098 -0.0027007 -1.38468e-18)
(0.00200483 0.000850306 1.38873e-19)
(-0.00263915 -0.00456789 -1.34528e-17)
(-0.00122509 -0.00544649 6.5785e-19)
(0.0146971 0.00445942 4.13875e-20)
(-0.00341814 -0.00516117 -3.21848e-18)
(-0.0151833 -0.0424933 -4.69372e-18)
(0.000625612 -0.00254291 -1.26191e-18)
(-0.00343118 0.0137729 1.33238e-18)
(0.0202945 -0.00310121 -1.37032e-17)
(0.0142404 -0.00384243 -5.65755e-19)
(0.0223927 -0.000764039 7.38877e-18)
(0.00196849 0.000277614 1.14861e-19)
(0.00214581 -0.000624489 -7.84557e-19)
(0.0013518 0.00146966 1.52998e-20)
(0.000359487 -0.00101879 1.70711e-18)
(0.0143403 -0.00638675 1.06272e-17)
(0.000299691 0.000604052 5.70295e-20)
(-0.0311514 0.0619583 2.73708e-19)
(6.20078e-05 -0.0039212 -3.12449e-18)
(0.018543 -0.00484523 -5.48638e-18)
(0.0164566 -0.0324502 -9.00954e-19)
(-0.00216568 -0.00236671 7.54078e-18)
(0.00187705 -0.00441802 -2.27315e-18)
(0.00168467 0.000163473 -3.42002e-19)
(-0.0054949 -0.005734 1.2772e-17)
(0.00111251 3.68604e-05 1.50228e-19)
(0.00189968 0.00120422 1.18573e-19)
(0.0187336 -0.00462473 2.01741e-18)
(0.000218306 0.000674632 1.51164e-19)
(0.00976293 -0.0104183 4.62731e-18)
(-0.000697046 4.1033e-05 2.21034e-21)
(8.82409e-06 -5.3143e-05 -1.07086e-18)
(0.00217953 -0.000660372 7.45396e-19)
(0.00305656 -0.012567 1.46304e-17)
(0.00359211 0.00135991 2.51867e-19)
(0.000618876 0.000350254 -8.42107e-20)
(-0.00380969 -0.0103112 -7.12959e-19)
(-0.00175755 -0.0054029 -7.18995e-18)
(0.0123214 -0.0767946 2.48396e-18)
(0.0128187 -0.00780663 1.63852e-18)
(0.0211168 -0.00203635 -1.07961e-17)
(0.0128664 -0.00188706 -1.1012e-17)
(0.000846773 0.000167107 -9.3703e-21)
(0.0195781 -0.00112077 -5.15462e-18)
(-0.00100019 0.000118051 2.21501e-20)
(0.0271819 0.0182891 1.69101e-17)
(0.0354945 0.0631684 -2.68187e-19)
(0.0019049 0.00126772 2.19565e-19)
(0.000364734 -0.00283552 -2.24577e-19)
(-0.000449187 3.41406e-05 -5.0144e-21)
(-0.00176534 -0.00503325 1.54718e-17)
(-0.00204137 -0.00225313 -7.68356e-18)
(0.00023582 0.000673059 -5.41377e-20)
(0.00113092 3.60978e-05 -3.62761e-20)
(0.000257951 -3.4018e-05 9.77604e-19)
(0.0120617 -0.00813456 -8.65024e-18)
(0.00102824 -0.000616288 2.79686e-18)
(-0.00412873 -0.00647309 5.03779e-18)
(0.00115775 -0.00142069 1.90251e-18)
(0.000598434 0.000332488 1.79334e-20)
(8.01349e-05 4.4267e-05 -2.05137e-20)
(-0.00387952 0.00618118 1.24386e-18)
(0.0100069 -0.00322081 -1.1523e-17)
(0.00614406 -0.0029346 -9.75429e-18)
(-0.00183361 -0.00708662 9.47113e-19)
(-0.000674534 -0.00450201 -1.87381e-18)
(0.00699424 -0.00546502 2.39216e-18)
(0.0184263 -0.0018648 2.58572e-17)
(0.001467 0.000547641 -5.66651e-21)
(0.00820268 0.00221103 -3.37766e-18)
(0.000213253 -3.53179e-05 9.77251e-19)
(-0.00764067 -0.00673287 2.27683e-17)
(0.000405221 -0.00102704 -1.11815e-18)
(0.00918659 -0.00779052 1.0085e-17)
(0.00161357 -0.000459744 7.96821e-19)
(0.00399512 0.0011116 3.03569e-19)
(-0.000545428 -0.00118159 -1.6179e-18)
(0.0338026 -0.0299233 -7.17016e-19)
(-0.00166001 -0.00519236 -1.03769e-17)
(0.0133645 -0.00580707 5.71777e-18)
(0.0006145 7.00611e-05 2.97614e-20)
(-0.00150398 -0.00517808 4.87429e-19)
(0.00229419 0.000453075 -3.47325e-22)
(-0.000348217 2.94654e-05 -1.01333e-20)
(0.0150392 -0.00298043 8.60324e-18)
(-0.0186423 -0.0468696 -3.74897e-18)
(0.00236206 0.000552279 2.48394e-20)
(0.00273278 -0.00428869 -4.1802e-19)
(7.81582e-05 -0.000286442 -4.39877e-18)
(0.00174916 0.0011284 3.63477e-20)
(-0.00051103 3.77166e-05 -4.67622e-20)
(0.0152006 -0.00326619 5.55102e-18)
(0.000999289 -0.0006061 -4.6297e-18)
(0.000913909 -0.000313833 2.68283e-19)
(0.000283644 0.000603943 -1.12473e-19)
(0.00231962 0.000520915 -1.52018e-20)
(0.00238072 -0.00975866 -1.20685e-17)
(-0.00052653 4.58576e-05 -6.45333e-21)
(0.0018981 -0.00597654 -1.25067e-17)
(0.000829613 2.11233e-05 -1.58749e-19)
(0.00149888 -2.32905e-05 2.33742e-20)
(0.0303804 0.0117794 -8.30294e-18)
(-0.00419417 -0.00656252 5.01971e-18)
(0.00121556 -0.00161446 -2.14446e-19)
(0.0215386 -0.000564197 -3.58084e-17)
(0.00967126 -0.010655 -7.57083e-18)
(-0.0385229 -0.0247275 -9.15967e-19)
(-0.00354386 0.00278357 3.06408e-19)
(0.00165542 0.000168671 2.90459e-19)
(0.0023864 -0.00595069 4.54088e-21)
(0.0141844 -0.00349166 4.28432e-18)
(0.0135569 -0.00793899 1.00412e-17)
(0.00290963 -0.00157145 3.09523e-18)
(0.00135809 -0.00227876 -2.22025e-18)
(0.00431061 0.00119907 5.12186e-19)
(0.000883273 2.86299e-05 5.11888e-20)
(0.00215037 -0.000168763 -7.5848e-21)
(0.00497509 -0.0225451 2.18032e-19)
(-0.0009923 -0.00514642 6.09096e-18)
(0.000600983 -0.00355072 7.63246e-19)
(0.018272 0.000598517 -8.44158e-18)
(-0.00173126 -0.0052077 8.12314e-18)
(-0.0603405 -0.0108762 -1.30944e-18)
(-0.0114078 0.0241791 1.12127e-17)
(0.00857321 0.00241316 -7.5044e-20)
(-0.000784133 -0.00592869 -1.74017e-18)
(0.00129977 -0.00457161 5.57522e-18)
(0.0180985 -0.0014564 1.25371e-17)
(0.00190476 0.000714553 -2.01251e-20)
(0.00656767 -0.00111453 1.66047e-19)
(0.00600366 -0.01778 -1.75666e-19)
(0.00149144 -3.54884e-05 -1.68175e-19)
(0.000789774 5.77114e-05 2.16063e-20)
(3.56222e-05 4.33231e-05 -9.22504e-21)
(0.00161017 0.00133662 2.42508e-20)
(0.00117366 -5.28258e-05 1.12489e-18)
(0.0195865 -0.00102985 6.10616e-19)
(-0.00375301 -0.00392598 2.25753e-18)
(0.00137477 5.3972e-05 -1.64601e-19)
(-0.00246621 -0.00897454 6.19997e-18)
(0.000629257 7.68447e-05 1.56101e-19)
(0.0132873 -0.00380553 3.13181e-18)
(0.00187572 0.000894608 -7.44872e-20)
(0.0021521 0.000115401 2.04435e-21)
(0.0216965 -0.00104608 -6.51696e-19)
(-0.00141443 -0.00563442 -1.26444e-17)
(0.0356875 0.0320643 -1.94932e-19)
(-0.000553175 -0.00141936 1.51011e-18)
(0.000394637 0.000531038 -4.58595e-20)
(0.00210994 0.000289284 7.47423e-20)
(-0.000836017 -0.00178982 -7.85746e-19)
(-0.00169599 -0.00413054 -8.48239e-18)
(0.00183313 -0.000414251 5.09128e-19)
(0.0218792 -0.000640828 -6.14548e-18)
(0.000899521 -0.00522336 -1.61905e-18)
(-0.0134455 0.0295223 8.5005e-21)
(0.0372355 0.0385439 6.13019e-20)
(0.00657096 -0.000478731 -5.72695e-19)
(0.0211555 -0.00193194 -6.95235e-18)
(-0.000948641 -0.00209671 1.40899e-18)
(0.00126535 4.26458e-05 -1.66917e-19)
(0.00233427 0.000480314 -8.51799e-21)
(0.0208202 -0.00173267 -2.94197e-18)
(-0.0378608 -0.0753817 2.08664e-18)
(0.000237151 -0.00406081 -1.91757e-18)
(0.0211805 -0.000973541 1.39319e-17)
(-0.0582954 0.00651793 -9.18403e-20)
(0.001529 -7.09117e-06 3.23719e-20)
(0.0021088 0.000173209 1.20299e-19)
(0.00132369 -0.00221665 -3.82725e-19)
(0.0186455 -0.00448741 8.56802e-18)
(0.0349214 0.0289203 3.40873e-19)
(-0.00161889 -0.00527508 1.13774e-17)
(-0.000784631 -0.00176399 2.10948e-18)
(-0.00138919 -0.00275589 -1.23901e-18)
(-0.00790406 -0.00663637 -2.17564e-17)
(0.00227294 -0.000353828 2.43155e-20)
(0.0017597 -0.00496871 -1.64017e-18)
(-0.00369869 -0.00403212 -2.3548e-18)
(0.00135908 -0.0018721 -9.50771e-19)
(0.000124041 -0.00228482 8.47831e-19)
(0.00125536 4.20938e-05 2.60537e-19)
(-0.00161964 -0.00410019 5.40644e-18)
(0.00162016 -0.000487703 2.52852e-22)
(0.0162628 -0.00640869 -1.44744e-17)
(0.00151648 -0.00272136 -1.74575e-18)
(0.00177245 0.00121143 1.60369e-19)
(0.0215012 -0.000723227 1.81743e-17)
(0.00354533 -0.00296917 -4.71195e-20)
(-0.0506874 0.0276664 -1.00526e-18)
(0.00130949 -0.00230119 -8.69599e-19)
(-0.0030169 -0.00373304 3.82419e-20)
(-0.000369554 -0.00385577 -1.3619e-18)
(0.0131567 -0.00840781 1.83723e-18)
(0.000747855 4.01436e-05 8.67764e-20)
(-0.00541308 -0.00542251 -1.92059e-17)
(0.00987999 -0.00356293 5.56687e-18)
(-0.0331074 -0.0503077 1.51955e-19)
(0.000277975 -0.00104564 -1.87163e-18)
(0.00147033 -0.00281699 -8.67764e-19)
(0.0011632 -4.20245e-05 -3.73529e-19)
(0.000404988 -0.000793238 -1.66244e-18)
(-0.000587307 -0.00107941 9.51374e-18)
(0.00927399 0.00017454 4.50209e-19)
(0.00124796 0.000380796 2.19187e-20)
(-0.00472136 0.00569352 -1.74517e-18)
(0.00216639 -0.00543335 7.12845e-18)
(0.00162075 0.000192525 3.24399e-19)
(0.0162919 -0.0059843 -2.88135e-18)
(-0.00255426 -0.00271111 7.3322e-18)
(-0.00225934 -0.00313292 -9.82451e-18)
(0.00270977 -0.0047563 -5.8234e-18)
(0.00206356 -0.00148628 5.02733e-19)
(-0.0053683 -0.00583284 1.20236e-17)
(-0.033888 -0.0613679 7.12749e-18)
(0.000682707 0.000263799 -8.29524e-20)
(-0.00146054 -0.00575116 3.93799e-18)
(-0.00587271 -0.00467208 3.40853e-18)
(-0.00357323 -0.00404883 -1.54431e-17)
(0.00195713 -8.10782e-05 -9.22463e-20)
(0.00174498 0.000100241 -2.67699e-19)
(0.00215526 -0.000140364 -2.38154e-20)
(0.0178545 -0.000894911 -5.60047e-18)
(0.000129535 -0.00216013 4.74387e-18)
(0.00186945 0.000974007 -3.07919e-20)
(-0.00428097 -0.00431437 1.01051e-17)
(0.00185533 -0.000446087 -3.83341e-19)
(0.00188577 0.000110948 3.59115e-19)
(0.000208773 -0.00145599 5.08343e-18)
(-0.0352186 -0.0573173 8.8436e-18)
(0.0106247 0.00526177 -7.61127e-19)
(0.011258 -0.0902131 6.29155e-18)
(0.0118267 -0.00306837 -1.61096e-18)
(0.0200583 -0.00212047 -2.45332e-17)
(-0.000636933 -0.00105325 -1.91802e-18)
(0.00316557 0.00043573 1.45465e-19)
(0.00644706 -0.00724429 -3.88406e-18)
(0.00185563 0.00126323 -1.66747e-19)
(0.00392042 0.000392563 -3.90691e-20)
(0.000510436 4.84153e-05 -2.47581e-20)
(0.00083035 5.58087e-05 1.02467e-19)
(-0.000402149 -0.00147012 -4.91518e-18)
(0.00168592 -0.00260377 1.78791e-18)
(0.0168932 0.00353294 -6.86118e-19)