/*--------------------------------*- C++ -*----------------------------------*\
| =========                 |                                                 |
| \\      /  F ield         | OpenFOAM: The Open Source CFD Toolbox           |
|  \\    /   O peration     | Version:  v2012                                 |
|   \\  /    A nd           | Website:  www.openfoam.com                      |
|    \\/     M anipulation  |                                                 |
\*---------------------------------------------------------------------------*/
FoamFile
{
    version     2.0;
    format      ascii;
    class       surfaceVectorField;
    location    "150";
    object      ddtCorrDdt0(Uf);
}
// * * * * * * * * * * * * * * * * * * * * * * * * * * * * * * * * * * * * * //

dimensions      [0 1 -2 0 0 0 0];


internalField   nonuniform List<vector> 
20642
(
(0.0149765 -0.00140182 3.11086e-18)
(0.0146123 -0.00167565 7.67536e-18)
(0.0152491 -0.00182134 -1.02356e-18)
(-0.00657308 -0.00542239 3.30361e-20)
(-0.00777829 -0.0049508 4.58333e-19)
(-0.00640338 -0.00391632 5.37336e-19)
(0.00741507 -0.011043 -3.02896e-18)
(0.00701533 -0.0111488 -1.26155e-17)
(0.00785196 -0.0106542 -1.33202e-17)
(-0.000504743 -0.002065 -2.73873e-18)
(-0.000466974 -0.00212699 -3.56084e-18)
(-0.000439038 -0.00205594 6.08316e-20)
(0.00150496 0.0016686 4.06737e-19)
(0.00140491 0.00225019 -3.0439e-19)
(0.00203546 0.00200036 -3.4073e-20)
(-0.00514103 -0.00582817 -2.65513e-19)
(-0.00604143 -0.00725724 -5.65812e-19)
(-0.00160902 -0.0037719 -4.33992e-18)
(-0.00152412 -0.00371201 -3.27008e-18)
(-0.00152139 -0.00382081 -1.63524e-18)
(-0.0185738 0.0213387 -1.5137e-18)
(-0.0254345 0.0241664 4.79967e-19)
(-0.0178871 0.027541 -9.84755e-19)
(-0.0026325 -0.00265004 2.61323e-19)
(-0.00258779 -0.00270045 4.60014e-18)
(-0.00266532 -0.00272268 -9.04111e-18)
(0.000516021 -0.00710823 -3.49035e-18)
(0.000524939 -0.00767669 -4.03431e-18)
(-0.0143399 0.0203581 -6.56758e-19)
(-0.0188563 0.0171733 -2.35817e-19)
(0.000333376 -0.00164721 -9.40816e-19)
(0.000351016 -0.0016959 -1.18922e-18)
(0.000290336 -0.00167518 -2.84023e-19)
(8.48891e-05 -3.17045e-05 -1.41507e-19)
(5.51469e-05 -2.65404e-05 -4.50222e-19)
(0.0153661 0.103851 3.74548e-18)
(0.0104136 0.109835 4.2237e-19)
(0.0296685 0.0912331 -2.63214e-18)
(0.00258374 -0.00517809 -2.49907e-21)
(0.00237099 -0.00562681 3.80634e-20)
(0.00202009 -0.0051241 -1.47629e-19)
(0.0151829 -0.00111449 2.00454e-17)
(0.0143314 -0.00101707 -9.37794e-18)
(0.000586585 3.64703e-05 2.7725e-20)
(0.000603303 3.72257e-05 4.56616e-20)
(0.000529419 1.87843e-05 2.72345e-20)
(-0.00999535 0.0190232 1.09783e-18)
(-0.00591001 0.0172356 -1.95348e-19)
(-0.0101245 0.0152321 -4.30457e-19)
(-0.000539776 -0.0096355 6.79613e-18)
(-0.000700897 -0.0100651 -3.56437e-18)
(-0.000266705 -0.00968785 2.65741e-18)
(0.0122224 -0.00417192 9.71748e-18)
(0.0137196 -0.00370145 3.76049e-18)
(0.0132431 -0.00360854 -3.45651e-18)
(0.00443583 -0.00200847 -6.06192e-19)
(0.00492183 -0.0020852 -7.9364e-19)
(0.00468213 -0.00157397 1.73735e-18)
(0.00231062 -0.00079577 -2.29659e-19)
(0.00227502 -0.00083491 3.38788e-19)
(0.00234848 -0.000835328 5.21198e-20)
(-0.00220681 -0.00550694 -3.41045e-18)
(-0.0022902 -0.00548649 -8.52703e-18)
(-0.0022388 -0.00559108 8.6659e-18)
(0.00233804 -0.000741687 -6.30033e-19)
(0.00228187 -0.000749892 -3.8665e-19)
(0.000217415 -0.00280491 3.07001e-18)
(0.000194011 -0.0028793 1.27934e-18)
(0.00027709 -0.00284412 -7.18085e-19)
(0.00536959 0.000144626 -1.04296e-18)
(0.00513367 -0.000462299 -1.33668e-18)
(0.00462118 3.74353e-05 -2.81634e-19)
(-0.0477578 -0.0577981 -2.12298e-18)
(-0.0500611 -0.0519993 2.33779e-18)
(-0.0461985 -0.0579522 -4.52529e-19)
(0.000872144 -0.00635511 -1.02992e-17)
(0.00265476 0.00856833 3.90753e-20)
(0.00387059 0.00733682 -3.95363e-20)
(0.00195969 0.00708382 -2.53113e-19)
(-0.00019704 0.00122776 -6.09427e-21)
(-5.37278e-05 0.00142521 1.16092e-20)
(-0.000307336 0.0014683 -7.44484e-21)
(-0.000513387 -0.0064662 -7.61731e-19)
(-0.00045106 -0.00718364 -1.24495e-17)
(-0.00401353 -0.00691018 -3.23377e-18)
(-0.00420793 -0.00697417 -9.19903e-18)
(-0.00399031 -0.00708114 -8.05693e-18)
(7.43998e-05 -0.0022444 -2.40324e-18)
(9.9675e-05 -0.00218703 8.94325e-19)
(3.3985e-05 -0.00219383 -7.58948e-19)
(0.0169142 -0.00237021 -1.64527e-18)
(0.016775 -0.00268832 -2.48052e-18)
(0.0170778 -0.00262875 5.48644e-18)
(0.0022007 0.00062164 -1.99926e-20)
(0.00216348 0.000631831 6.34522e-20)
(0.00221865 0.000666738 -2.90298e-20)
(-0.0339711 0.0231466 1.06118e-18)
(-0.0338009 0.0316578 -1.63278e-19)
(0.00133747 -0.00223677 -1.87963e-19)
(0.00135732 -0.00226383 -2.48264e-19)
(0.00137166 -0.00222628 4.82087e-19)
(0.000929519 3.29298e-06 -4.88254e-19)
(0.00125035 1.46169e-05 -6.23558e-20)
(0.000880141 5.13459e-06 -5.0031e-20)
(-0.00168974 -0.00382969 -2.35966e-18)
(-0.00168547 -0.00372049 -3.79511e-18)
(0.00347651 -0.00703883 -1.01581e-18)
(0.00341843 -0.00753625 -4.49281e-18)
(0.00296206 -0.00718671 -4.4157e-18)
(2.87232e-05 1.69488e-05 2.97797e-21)
(2.67737e-05 9.64542e-06 -4.42069e-19)
(-3.11258e-05 3.11577e-05 1.13432e-18)
(0.00119404 0.00101842 -4.78036e-21)
(0.00121015 0.00105482 3.55501e-21)
(0.00123082 0.00103502 -1.32432e-20)
(-0.0022749 -0.00228862 2.06073e-18)
(-0.00218271 -0.00232777 6.26276e-18)
(-0.00220361 -0.00222223 2.22662e-18)
(-0.00276326 -0.0103969 -5.52676e-18)
(-0.00326854 -0.0102616 9.20495e-19)
(-0.0021753 -0.0107288 -5.27829e-18)
(-0.0026673 -0.00995912 -2.96675e-18)
(-0.0023314 -0.010307 5.17544e-18)
(-0.00426237 0.0080117 -1.67842e-18)
(-0.00393148 0.00676407 -1.12289e-18)
(-0.00324124 0.00783694 1.67608e-18)
(0.00392474 -0.00202026 -9.94683e-19)
(0.00409727 -0.00241772 9.55409e-19)
(0.0102729 -0.00523962 -3.49742e-18)
(0.0112044 -0.00462272 -8.28636e-18)
(0.0116129 -0.00490707 8.12301e-18)
(-0.0898713 -0.0389482 -8.0663e-19)
(-0.0848902 -0.0167737 6.63433e-18)
(-0.0919395 -0.0326045 -2.43367e-20)
(0.0022004 0.000587538 1.53502e-20)
(0.00224717 0.000622271 2.17571e-20)
(0.000371696 -0.00162424 1.54365e-19)
(0.000325798 -0.00160957 -2.96432e-18)
(0.000453153 -0.000891138 -4.68171e-18)
(-0.000311683 -6.61915e-05 1.58918e-18)
(-0.000273733 -0.000786665 5.02329e-18)
(0.0168789 -0.000131957 -1.15602e-18)
(0.0199843 -0.00067878 8.20025e-18)
(0.0171741 -0.000458979 3.05259e-18)
(0.0011755 -0.00153857 -6.57118e-19)
(0.00116079 -0.00149101 -1.04118e-18)
(0.00121792 -0.00151416 -2.81726e-19)
(0.0010941 -0.00165177 -9.48971e-19)
(0.00109232 -0.00159506 -1.17702e-19)
(0.0010306 -0.00160886 1.86223e-18)
(0.000384225 -0.00132963 -1.31324e-18)
(0.00105915 -0.00107823 4.9729e-19)
(0.00196151 -0.00633503 1.19029e-17)
(-0.00212563 -0.00549542 2.97731e-18)
(-0.00218675 -0.00541066 -5.4195e-19)
(0.00117383 0.000984211 -9.90934e-21)
(0.00115925 0.000998444 1.32804e-21)
(-0.00469263 0.00991749 -2.23005e-18)
(-0.00586987 0.00832664 3.19101e-18)
(0.024835 0.0102844 -6.63173e-19)
(0.0288369 0.0106221 -4.08225e-18)
(0.0282082 0.00736554 3.60263e-18)
(0.00326637 0.000752258 -3.47916e-20)
(0.00318003 0.000582499 4.26105e-20)
(0.00307363 0.000761589 1.98363e-19)
(-0.00100815 6.52695e-05 3.60511e-20)
(-0.00102623 6.35432e-05 -5.85484e-20)
(-0.00118028 9.02201e-05 1.90781e-21)
(0.000150692 -0.00275721 1.62687e-18)
(0.000232561 -0.00273121 1.36538e-18)
(0.0137287 -0.00632712 7.02274e-19)
(0.0135107 -0.00625464 2.07495e-18)
(0.0138464 -0.0060563 -6.12833e-18)
(-0.00645833 -0.0374709 -4.09212e-19)
(0.000476973 -0.0299628 3.47038e-19)
(-0.0066581 -0.0361042 -2.46092e-20)
(0.00189525 0.0105361 3.014e-19)
(0.000402495 0.0121227 2.63268e-19)
(-0.000582647 0.0100989 3.09234e-19)
(-0.0342848 0.0162296 -8.1388e-19)
(-0.0387387 0.0200423 9.25159e-19)
(-0.00918771 0.0236184 -1.82322e-19)
(0.0182822 -0.00122335 6.26792e-18)
(0.0180195 -0.000988069 4.78524e-18)
(0.0182937 -0.000977071 -1.89913e-18)
(0.0131628 -0.00740979 -9.59052e-18)
(0.0127699 -0.00749535 3.1232e-18)
(0.0133784 -0.00711042 -8.20948e-19)
(0.0168368 -0.00219591 -8.80164e-19)
(0.0171001 -0.00212026 -4.78389e-18)
(-0.000646648 -0.00119656 5.59907e-19)
(-0.00068215 -0.00123314 2.5433e-18)
(-0.000619914 -0.00124093 2.00979e-18)
(0.00115471 0.000954391 -1.35689e-21)
(0.00119031 0.000967258 7.84251e-21)
(0.00551648 -0.00222945 -2.20619e-18)
(0.00512285 -0.002606 -4.18522e-19)
(0.000807392 -0.00283231 3.14087e-19)
(0.000807936 -0.00292007 -1.91163e-19)
(0.000886577 -0.00283795 1.79959e-18)
(0.00301832 0.000211423 -2.79398e-20)
(0.0031381 0.00036118 7.58221e-20)
(0.00322707 0.00011954 1.35557e-19)
(0.00113423 0.000926642 1.26906e-20)
(0.00112077 0.00094083 -6.85511e-21)
(0.000720428 -0.00281498 -7.77862e-19)
(0.0008007 -0.00275395 3.02549e-19)
(0.000103604 -0.00227492 -5.98313e-19)
(4.69265e-05 -0.00228939 -1.89491e-18)
(0.00190052 -0.00188876 1.1688e-19)
(0.00196842 -0.00184138 -7.81892e-19)
(0.00188071 -0.00179833 3.17684e-19)
(0.000756994 3.4595e-05 6.34425e-20)
(0.00074161 3.50134e-05 -4.32808e-20)
(0.000652764 1.57515e-05 -5.92592e-20)
(-0.000677852 -0.00115086 -8.28386e-19)
(-0.000615285 -0.00115338 -2.44986e-18)
(0.0155564 -0.00686856 9.97034e-18)
(0.015008 -0.00726418 6.62654e-18)
(0.0153752 -0.00713069 4.97594e-19)
(0.000781374 -0.000250317 -1.51857e-18)
(0.000781331 -0.000283271 1.44673e-18)
(0.000816161 -0.000265371 9.56934e-19)
(0.0260077 0.0396633 8.67073e-19)
(0.033145 0.0414091 9.07979e-19)
(0.0255332 0.0469744 -2.11704e-19)
(-0.00415534 -0.00672248 1.27571e-17)
(-0.00385669 -0.00673345 7.98695e-18)
(0.000793071 -0.00013566 -5.42309e-19)
(0.00082658 -0.000133763 8.5954e-20)
(0.000810536 -9.74667e-05 -1.53392e-18)
(0.00338069 -0.00648059 1.73855e-18)
(0.00391183 -0.00671658 -1.23438e-18)
(0.000567728 3.4093e-05 4.71701e-22)
(0.000581463 5.35691e-05 6.28618e-20)
(0.00048826 8.84319e-05 6.0143e-20)
(0.000471362 8.31648e-05 -5.92522e-20)
(0.000469703 0.000102089 5.74458e-20)
(-0.00233422 -0.00236539 -1.20661e-18)
(-0.0936617 -0.0617801 -1.34491e-18)
(-0.082776 -0.0503287 -1.0239e-19)
(0.00188752 0.000652185 2.44584e-20)
(0.00188901 0.000692315 -7.24859e-21)
(0.00184555 0.000660456 -1.05105e-21)
(0.00130774 -0.00192377 2.484e-18)
(0.00134789 -0.00189798 5.82036e-19)
(0.00135501 -0.00195073 -8.07988e-19)
(0.00458134 0.0100892 -1.22964e-20)
(-0.0246899 -0.0680872 -2.92863e-18)
(-0.0306577 -0.0635561 3.00391e-18)
(-0.0232607 -0.0637627 -8.10355e-19)
(0.00108216 3.21337e-05 -1.94215e-20)
(0.00109755 3.07649e-05 -1.38121e-19)
(0.000901859 1.66242e-05 -1.56e-19)
(0.000779097 -0.000161543 -1.34383e-19)
(0.000768563 -0.000131078 -4.01769e-19)
(-0.00599546 -0.0400313 -9.47847e-19)
(0.0113919 -0.0334426 1.67862e-18)
(0.00536489 -0.0375354 -2.13905e-18)
(-0.000405093 3.60633e-05 -4.65101e-19)
(-0.000381066 3.77609e-05 1.7659e-19)
(-0.000266413 1.80926e-05 -2.85222e-20)
(-0.000437367 3.90414e-05 3.39407e-20)
(-0.000504572 6.92148e-05 1.02823e-20)
(0.00190706 -0.00196224 -4.85234e-19)
(0.00183174 -0.00191129 -5.69789e-19)
(0.00126987 6.24758e-05 -9.68772e-20)
(0.00128262 5.65477e-05 -5.15362e-22)
(0.00122911 4.19568e-05 -3.19195e-19)
(0.0029176 1.88795e-05 -7.2567e-20)
(0.00281834 0.000181963 -2.55628e-20)
(0.0191356 -0.00365924 -1.04884e-20)
(0.0191457 -0.00382646 -1.03632e-17)
(0.0194018 -0.00346804 1.24753e-18)
(0.0131005 -0.00337203 -3.79404e-18)
(0.0133068 -0.00331132 9.76943e-18)
(0.0132143 -0.00313042 -4.06943e-18)
(0.00328851 0.000948079 -2.84642e-20)
(0.00357248 0.000790987 -4.84411e-20)
(0.00118887 0.00106888 9.40609e-22)
(0.00122875 0.00109616 4.10237e-21)
(-0.0445987 -0.0651185 -2.26919e-18)
(-0.0487401 -0.057404 -2.63565e-19)
(-0.000206374 -8.89665e-05 1.3217e-18)
(-0.000221167 -0.000109746 1.7615e-18)
(0.0166413 -0.00303126 -1.69265e-18)
(0.0164647 -0.00277953 4.25118e-20)
(0.00438166 0.00588122 -7.09411e-19)
(0.00592904 0.00710011 2.23462e-19)
(0.0140175 -0.00632703 -5.62763e-18)
(0.0136018 -0.00660538 -2.48283e-18)
(0.0011394 -0.00285394 2.02272e-18)
(0.0011384 -0.0029529 -2.65759e-19)
(0.00105368 -0.00286271 -1.59501e-18)
(-0.000439369 -0.00917011 6.87403e-18)
(-0.000784363 -0.00955234 -1.82651e-18)
(0.000127923 7.19742e-05 -7.96896e-22)
(0.000117092 9.3576e-05 -1.54681e-20)
(0.000146656 7.95349e-05 -3.00619e-20)
(0.00502021 -0.0119532 -1.20677e-18)
(0.00554878 -0.0119968 -1.49268e-17)
(0.00463207 -0.0124323 -8.18544e-18)
(-0.000740023 -0.000858885 8.75054e-19)
(-0.000725449 -0.0009046 -1.17384e-18)
(-0.0006937 -0.000856936 6.70697e-19)
(0.00078671 5.0429e-05 7.61872e-20)
(0.000772571 3.19166e-05 1.31881e-19)
(0.00115951 0.000890383 -1.04465e-21)
(0.00116997 0.000869478 2.09027e-20)
(0.00113437 0.000861473 -1.57938e-20)
(-0.00149314 0.0135483 1.01012e-18)
(0.00138866 0.014574 3.09353e-19)
(0.000635543 -0.00611066 -2.32121e-20)
(0.000654513 -0.00574122 1.31103e-18)
(0.000316054 -0.00594392 5.7016e-18)
(0.0208929 -0.00100181 -3.1373e-18)
(0.0210147 -0.0011663 6.52625e-18)
(0.0207798 -0.00108297 1.30554e-18)
(0.0157123 -0.00675698 1.18358e-19)
(0.015996 -0.00665956 -1.0891e-18)
(9.75684e-05 -0.00271345 4.81765e-18)
(4.3747e-05 -0.00266767 3.02386e-18)
(0.000114113 -0.00264434 4.88343e-19)
(0.00590586 -0.00170801 -4.39974e-19)
(0.00612555 -0.00240809 -1.24377e-18)
(0.00216447 5.99747e-05 9.54023e-20)
(0.00214837 9.4994e-05 1.13685e-19)
(0.00211409 6.21793e-05 1.30578e-19)
(0.000454945 -0.00642115 -1.543e-18)
(0.000846566 -0.00629856 1.10647e-18)
(-0.00310588 -0.00405263 2.24969e-18)
(-0.00307411 -0.0041466 2.98474e-18)
(-0.00318797 -0.00410973 1.31115e-19)
(-0.0307896 -0.00206616 1.41524e-19)
(-0.0275634 -0.00306494 2.37713e-18)
(-0.0290181 0.00080766 1.28415e-18)
(0.0206763 -0.00273478 -1.6181e-18)
(0.0208981 -0.00252415 -3.17062e-18)
(0.0206867 -0.0027123 -9.73239e-18)
(0.00123605 -0.00284542 1.94023e-18)
(0.00114803 -0.00276302 -1.05435e-18)
(-0.00409365 -0.00783887 4.69442e-18)
(-0.00389397 -0.00800526 -2.20259e-18)
(-0.00421195 -0.0080835 2.10537e-17)
(-0.0394148 -0.0730642 3.51803e-18)
(-0.0389256 -0.0717722 1.58903e-18)
(0.031931 0.0228874 -6.9109e-18)
(0.0284365 0.0202196 5.04338e-18)
(0.0279024 0.0255845 -4.15446e-18)
(0.0224639 -0.000603616 4.79461e-18)
(0.0225058 -0.000687179 -2.76868e-18)
(0.0226217 -0.00073928 -6.0365e-18)
(0.00559879 0.00176143 -4.61336e-19)
(0.005545 0.000871773 -8.52037e-19)
(0.00470797 0.00150542 -3.80132e-19)
(0.000924533 6.5128e-06 -5.1929e-19)
(0.0576613 0.0670543 4.9129e-18)
(0.0516685 0.0637453 -2.05496e-18)
(0.0602841 0.0658492 3.55112e-19)
(0.00114672 0.000909172 -9.66589e-21)
(0.00111364 0.000899485 -4.79089e-21)
(0.0192782 -0.00336588 1.0751e-17)
(0.0189437 -0.00381442 1.17351e-17)
(0.00166537 -0.000616174 -3.82203e-19)
(0.00166191 -0.000582115 -4.86753e-19)
(0.00170033 -0.000599826 -5.15481e-19)
(-0.000495677 -0.00112674 9.03533e-19)
(-0.000523557 -0.00116955 1.34129e-18)
(-0.000469195 -0.00117573 3.21239e-18)
(0.000972499 0.00125202 -6.22959e-21)
(0.000951366 0.00113467 -1.31479e-20)
(0.00103327 0.00118874 1.63322e-20)
(0.0130322 -0.00763583 -4.38438e-18)
(0.0135955 -0.00730618 1.28805e-18)
(0.0355701 0.0677508 -1.69345e-18)
(0.0110893 -0.0042311 -1.47631e-17)
(0.0113357 -0.0039601 -5.24172e-18)
(0.0100356 -0.00449334 3.4704e-18)
(0.00113323 -0.00156911 7.21927e-19)
(0.00119278 -0.00159513 4.01995e-19)
(0.00327183 -0.00607738 -6.63761e-19)
(0.00318306 -0.00568776 2.43787e-18)
(0.00360221 -0.00575497 1.53204e-18)
(-0.000557036 4.86699e-05 -5.7251e-19)
(-0.000556668 5.24019e-05 -6.44521e-19)
(-0.000685222 7.70161e-05 4.65598e-20)
(-0.000466673 -0.00108816 -8.34813e-19)
(-0.000515951 -0.00107912 -3.43704e-18)
(-0.0267488 -0.0716676 -3.86747e-18)
(-0.018468 -0.0725171 2.88687e-18)
(0.0024912 -0.000485299 7.55469e-20)
(0.00250688 -0.000473558 -1.76942e-20)
(0.0024938 -0.000488023 1.07689e-20)
(0.00125971 6.73962e-05 2.03305e-19)
(0.00126963 7.31456e-05 4.24272e-20)
(0.0211878 -0.00218802 -5.2521e-18)
(0.0212561 -0.00201955 1.9979e-17)
(0.0213228 -0.00202106 9.42457e-18)
(7.78398e-05 3.96504e-05 -6.33197e-20)
(5.834e-05 3.87684e-05 4.87511e-20)
(0.000102588 1.99221e-05 -2.43433e-20)
(0.000113773 6.29257e-05 -2.07972e-20)
(0.000150432 5.17808e-05 1.41651e-19)
(0.00110275 -0.000512479 1.03812e-19)
(0.00111425 -0.000546976 -8.749e-19)
(0.00114409 -0.00052005 8.27227e-19)
(0.0111273 -0.00365029 -7.43332e-20)
(0.0111871 -0.00401583 -3.3539e-18)
(0.0113269 -0.00372921 -8.86736e-19)
(0.000932125 -0.00200363 7.00129e-21)
(0.00108465 -0.00200519 -3.94466e-19)
(0.000998888 -0.00212072 7.76199e-20)
(0.0482587 0.0721289 2.5356e-18)
(0.0149258 -0.00125551 -2.70681e-18)
(0.0146292 -0.00198077 5.17652e-18)
(0.0139528 -0.00126418 1.25378e-18)
(-0.0362533 -0.0521129 -2.86247e-18)
(-0.0318759 -0.0477168 -1.40356e-18)
(-0.0253303 -0.0472218 1.25776e-18)
(0.0171371 0.000348163 -1.398e-17)
(0.0167009 -0.00476804 1.35239e-19)
(0.0168841 -0.0035855 -3.42954e-21)
(0.0178587 -0.00427366 1.28649e-17)
(-0.00159287 0.000427694 -9.32048e-21)
(-0.00159652 0.000475682 -5.27302e-21)
(-0.00164079 0.000443618 2.28855e-20)
(0.00554786 0.00287285 8.51283e-19)
(0.00652936 0.00205467 -3.95976e-20)
(0.00239921 -0.000719739 2.93629e-19)
(0.0024579 -0.000692069 5.88169e-21)
(0.00245303 -0.000750962 -2.53602e-20)
(0.0196184 -0.00372058 -4.45758e-18)
(0.0197624 -0.00365479 4.05193e-18)
(0.0198731 -0.00344226 7.00341e-18)
(-0.00260933 -0.00255636 -3.44558e-18)
(0.0170447 0.0129196 2.70241e-18)
(0.0205667 0.0120059 3.77509e-18)
(0.0185302 0.015982 1.44508e-18)
(-0.00394899 -0.0050909 -2.34115e-18)
(-0.00364383 -0.00508646 -2.11273e-18)
(-0.00382799 -0.00467634 -1.6792e-18)
(-0.00020807 3.88014e-05 -7.83525e-21)
(-0.000259076 5.94626e-05 -2.37072e-20)
(-0.00017014 3.70052e-05 -3.59286e-20)
(-0.00056615 -0.00208643 2.22788e-18)
(-0.00054253 -0.00201805 7.66939e-19)
(-0.00139523 0.000788369 1.51205e-18)
(-0.00257382 0.00183086 3.73795e-18)
(-0.00219475 0.00116946 -6.54405e-19)
(-0.00312821 -0.00394229 -4.62785e-18)
(-0.00302184 -0.00398605 2.60904e-18)
(0.000898616 -0.00182364 4.51001e-19)
(0.000774286 -0.00201333 -2.33218e-19)
(-0.00212221 -0.00236054 4.39303e-18)
(-0.00205568 -0.00230047 -3.67821e-18)
(-0.00203165 -0.00239798 1.04573e-19)
(0.00234947 -0.000691503 1.96417e-19)
(0.000418699 -0.00161243 1.63164e-18)
(0.000425174 -0.00166806 1.25241e-18)
(0.000576289 -0.00165799 -3.98791e-18)
(0.000425948 -0.00226096 2.21105e-18)
(0.000982107 -0.00216908 -1.36296e-18)
(0.00468208 -0.0118118 1.18839e-18)
(0.00546466 -0.0114828 7.70587e-18)
(-0.0332403 -0.00501903 -1.04471e-18)
(-0.0348762 -0.00094057 1.00188e-18)
(0.000418345 -0.00156582 -2.11141e-19)
(0.00046391 -0.00159349 1.74837e-18)
(0.000845807 -0.000832139 -6.15758e-18)
(0.000195834 -0.000906225 1.0697e-19)
(-0.000220542 0.000963894 -8.22743e-20)
(-0.00040851 0.00109652 -1.66211e-20)
(0.0189809 0.0360938 1.21557e-18)
(0.027031 0.0319783 3.90045e-19)
(-0.00419166 -0.00551511 3.88089e-19)
(-0.0044929 -0.00505798 -4.33134e-18)
(-0.00249796 -0.00957403 -6.15367e-18)
(-0.00293531 -0.00951545 -8.9531e-18)
(0.000250864 -0.00366607 2.33441e-18)
(0.000919618 -0.00417033 3.80105e-18)
(0.000728281 -0.00353816 2.75835e-18)
(0.0142211 -0.00188436 4.15846e-18)
(0.0144175 -0.00224702 -5.33045e-18)
(0.0138803 -0.00215039 -8.90939e-18)
(0.00192967 0.000651495 -2.84491e-20)
(0.00189037 0.000621969 1.07255e-19)
(0.0204702 -0.000982819 3.86437e-18)
(0.0208094 -0.00107496 -4.53202e-18)
(0.0205705 -0.000886675 2.24896e-19)
(0.000119976 -0.00393158 -2.90881e-18)
(0.000210002 -0.00400765 -2.28959e-18)
(0.000221041 -0.00388094 -2.40458e-18)
(0.020431 -0.00295658 -1.53462e-18)
(0.020636 -0.00275278 3.71008e-18)
(0.0021285 0.000649199 2.98023e-20)
(0.00210043 0.000606844 1.30774e-20)
(0.00247453 -0.000492777 3.96106e-20)
(0.00248674 -0.000498179 1.58734e-19)
(0.00330521 -0.00233787 4.88578e-19)
(0.00336413 -0.00268135 -1.48142e-18)
(0.00308279 -0.00255169 -1.03636e-18)
(0.0174203 -0.000836789 1.46098e-18)
(0.0177818 -0.000943275 -2.41685e-18)
(0.0176952 -0.00113371 1.52726e-18)
(0.022328 -0.000607238 3.74503e-19)
(0.0217852 -0.000436244 2.53603e-18)
(0.0013188 -0.00221611 7.6506e-19)
(0.00131344 -0.00222114 1.43407e-19)
(0.00132512 -0.00223849 2.7948e-20)
(-0.0545893 -0.0375286 2.27573e-18)
(-0.054777 -0.0347205 4.35243e-19)
(-0.0558174 -0.0298248 -1.25567e-18)
(-0.000205863 0.00201468 6.496e-21)
(-0.000977227 0.00159279 -9.0168e-20)
(-0.000243788 0.00113274 1.86292e-19)
(0.00289907 -0.00630348 -1.46864e-18)
(0.00118369 0.000921067 1.9423e-20)
(-0.00096138 0.00033516 7.7283e-19)
(0.00202795 -0.00178439 2.46784e-19)
(0.00206292 -0.00187352 -5.89572e-19)
(0.00179473 0.000109505 4.84218e-20)
(0.00176144 0.000107105 -1.67573e-19)
(0.00178092 0.00012989 -8.25382e-20)
(-0.00164743 0.00374392 -4.99726e-19)
(-0.00141843 0.00277804 4.86536e-19)
(-0.000481887 0.00354316 -6.47578e-19)
(-0.00292342 0.00406559 7.24492e-19)
(-0.00170519 0.00518497 -8.05547e-20)
(0.0120053 -0.00412331 -3.11342e-18)
(-0.00401957 -0.00765186 -1.22095e-17)
(-0.00427206 -0.00769309 -1.59984e-18)
(0.00614884 0.000192984 -6.293e-19)
(0.0130451 -0.00474631 1.22052e-17)
(0.0128023 -0.00465009 -2.73369e-18)
(0.012836 -0.00496373 2.80152e-18)
(0.00125644 -1.31698e-05 -2.22553e-19)
(0.00121682 -3.24434e-06 -1.18189e-19)
(0.00123685 -3.91296e-05 3.3531e-19)
(0.000577553 0.000511958 2.85183e-20)
(0.000598659 0.000527446 -3.82097e-20)
(0.000587982 0.00049927 2.18736e-20)
(0.000567632 0.000523879 1.57084e-20)
(0.000558821 0.000497834 2.95753e-20)
(0.0155432 -0.00506971 6.49628e-19)
(7.04984e-05 -0.00263051 6.698e-18)
(-5.80602e-05 -0.00321314 3.96849e-18)
(-0.000265136 -0.00242739 2.52339e-18)
(0.00106674 -9.30048e-05 -2.21456e-18)
(0.00144362 0.000783697 7.95773e-18)
(0.000486825 0.00075144 1.39812e-18)
(2.91959e-05 -0.000281694 -1.05812e-18)
(2.40606e-05 -0.000316412 9.64805e-19)
(-7.22313e-06 -0.000286564 -2.14121e-19)
(-0.000996389 5.87936e-05 2.11498e-21)
(-0.000737198 3.73327e-05 -3.40885e-20)
(-0.039587 -0.0736213 -3.13905e-19)
(-0.0339273 -0.081707 -3.77402e-20)
(0.0202616 -0.000862486 -3.99367e-18)
(0.000570669 0.000440844 5.25726e-20)
(0.000571848 0.000454686 -6.86398e-20)
(0.000592981 0.0004566 -5.86243e-20)
(0.000572985 0.000423449 -5.18911e-20)
(0.000550094 0.000424846 4.264e-20)
(9.32994e-06 2.42441e-05 -1.92923e-19)
(5.17848e-05 1.3106e-05 3.62652e-19)
(0.000557212 0.000536726 -4.63053e-20)
(0.000577619 0.000551725 -5.01969e-21)
(0.000546522 0.000550078 2.41944e-20)
(0.000539326 0.000524558 -3.81871e-20)
(0.0168317 -0.00186082 9.93648e-18)
(0.0166262 -0.00209746 5.70969e-18)
(0.0125966 -0.00397075 1.56442e-18)
(0.0127828 -0.00415803 -1.24134e-18)
(0.0128577 -0.00387275 -1.7416e-18)
(0.00224221 -0.00132205 1.30395e-19)
(0.00219773 -0.00126474 -2.11745e-19)
(0.00216974 -0.00132895 6.50119e-19)
(-0.00159194 0.000778109 1.29038e-20)
(-0.00156817 0.000832311 -3.31513e-20)
(-0.0015283 0.000780054 8.18406e-21)
(-0.00135851 -0.00429149 -3.9347e-18)
(-0.00165693 -0.00417017 -2.70553e-18)
(-0.00159308 -0.00445777 -1.49387e-17)
(0.0183015 -0.00182437 1.52474e-17)
(0.0181296 -0.00162651 8.45181e-18)
(0.018057 -0.00188272 -1.10411e-17)
(0.000240916 5.1234e-05 2.94492e-20)
(0.000268128 3.41574e-05 9.16648e-20)
(0.000247074 3.39724e-05 -2.90966e-21)
(6.2858e-05 -0.000280315 -3.49059e-18)
(3.59904e-05 -0.000253576 -9.21819e-19)
(-0.0524493 -0.0452361 -9.11381e-19)
(-0.0537872 -0.0419088 1.30107e-18)
(0.0194308 -0.00312372 -1.13603e-18)
(0.0196361 -0.00286793 1.00822e-18)
(0.0193297 -0.00324891 -5.23923e-18)
(0.000515694 -0.00295691 -5.66257e-18)
(0.0132547 -0.00486488 -5.75316e-18)
(0.0132138 -0.00456559 -1.31284e-18)
(-0.00554825 -0.00216279 -7.33239e-18)
(-0.00632259 -0.00260012 -1.01013e-18)
(-0.00617855 -0.00172486 -1.16714e-18)
(0.0016375 -0.000628172 -3.54729e-19)
(0.00167187 -0.000647414 6.38887e-20)
(0.0158792 -0.00316074 -5.79848e-18)
(0.0168005 -0.00244012 -5.7785e-18)
(-0.00109602 -0.00435729 -1.68505e-18)
(-0.00113782 -0.00406714 3.03065e-18)
(0.00517472 0.00507488 -2.47559e-20)
(0.0036759 0.00487848 -3.75814e-19)
(-0.00175546 -0.00720085 -1.12593e-18)
(-0.00154542 -0.00730723 -5.33057e-18)
(-0.00176645 -0.00746024 1.40799e-18)
(0.0013293 -0.0022021 6.59581e-19)
(0.00131138 -0.00220311 2.50766e-19)
(0.0125829 -0.00386804 3.62119e-18)
(-0.000714375 -0.000948043 2.81234e-19)
(-0.000677558 -0.000945038 3.07561e-19)
(-0.000701975 -0.000992331 3.82404e-19)
(-0.000590906 -0.00709898 3.31007e-18)
(-0.000730232 -0.00729357 -1.24626e-18)
(-0.000855151 -0.00704686 -1.96904e-18)
(-0.00337427 -0.00525047 2.86843e-19)
(-0.00306319 -0.00540692 2.88346e-18)
(-0.00339923 -0.0055922 2.95248e-18)
(0.0023983 -0.00129501 1.47384e-19)
(0.00230952 -0.00131131 -1.9968e-19)
(0.00235131 -0.00124001 -1.73501e-19)
(1.77431e-05 5.89064e-06 -8.53635e-20)
(7.83936e-05 -0.0027853 2.98574e-18)
(0.00108562 -0.000491456 -1.91185e-20)
(0.0014367 -0.000530362 -1.0901e-19)
(0.00123173 -0.000914988 7.44888e-20)
(0.00194136 0.000875705 -1.93249e-22)
(0.00198975 0.000867285 8.30699e-20)
(0.00198939 0.00090865 3.92942e-20)
(0.0210265 -0.00144501 -1.16337e-18)
(0.0209214 -0.00126646 -9.91042e-18)
(0.0210707 -0.0013078 -4.36176e-20)
(-0.0420951 0.0627648 -2.14119e-18)
(-0.0496117 0.0747179 1.46297e-18)
(-0.0512106 0.0613663 -7.6071e-19)
(0.00131066 0.000879597 -3.68709e-21)
(0.00131957 0.000858425 -4.03391e-21)
(0.00127895 0.00084817 2.69868e-21)
(0.000588419 0.000416224 -9.22092e-22)
(0.000570019 0.000398656 -7.91258e-20)
(0.00252542 -0.000460558 -4.20307e-21)
(0.00250607 -0.00045173 -6.63821e-21)
(0.000607676 0.000433125 2.7705e-20)
(0.000601573 0.000409018 6.17313e-20)
(-0.000761658 -0.000949994 -3.31431e-18)
(0.000129441 -5.39033e-05 -3.68957e-19)
(0.000108232 -2.84709e-05 -6.91611e-19)
(-0.0015217 -0.00522365 -6.19897e-18)
(-0.00158353 -0.00527058 -2.5989e-19)
(-0.00151509 -0.00531545 -4.36658e-18)
(0.0013027 0.000902547 -4.90477e-21)
(0.00134406 0.000913483 -6.9979e-21)
(0.0225587 -0.000745012 -1.09976e-17)
(0.0225207 -0.000746369 -8.74445e-18)
(0.0129112 -0.00345929 -2.15386e-18)
(0.0129292 -0.00356261 -7.26221e-18)
(0.000608406 -0.00130464 -1.56537e-18)
(0.000564606 -0.00127421 -6.34586e-19)
(0.000619217 -0.00125868 -1.80647e-18)
(0.00206376 -0.000271612 1.11503e-19)
(0.00186816 -0.000133394 -1.84921e-19)
(0.00209674 -5.22916e-05 1.52049e-20)
(-0.00507915 0.0116177 -4.25534e-18)
(-0.00704144 0.0123005 -8.0316e-18)
(-0.00584004 0.0140163 -3.13953e-18)
(0.000307024 0.000577227 -8.45383e-20)
(0.000299718 0.00059233 -1.03176e-19)
(0.000287834 0.000568425 -6.78618e-20)
(0.018642 -0.027227 -9.50028e-19)
(0.0172679 -0.0311112 -7.15303e-19)
(0.0140047 -0.0261317 3.70328e-19)
(0.0209185 -0.0016422 8.15525e-19)
(0.0210928 -0.00158018 2.13711e-18)
(0.000315416 0.000562446 1.85516e-20)
(0.000326555 0.000587112 6.12911e-20)
(0.0182611 -0.00142769 4.54023e-18)
(0.0184691 -0.00138647 3.085e-18)
(0.0018928 0.000880647 -5.03894e-20)
(0.00189378 0.000842282 -1.6536e-20)
(0.0108271 -0.00356182 1.37724e-17)
(0.0110164 -0.00325551 -4.15088e-19)
(-0.000227577 3.92304e-05 1.14058e-20)
(-0.00012554 1.92354e-05 3.54229e-21)
(0.00276046 -0.00431176 -5.84278e-20)
(0.00312412 -0.00416376 -3.99471e-19)
(0.00282208 -0.00390853 -1.46224e-19)
(0.00248619 -0.00129134 -2.61125e-19)
(0.00243591 -0.00136773 -1.79845e-19)
(0.00176915 -0.00051097 -6.79791e-19)
(0.00177099 -0.000477413 -2.88612e-20)
(0.00173279 -0.000489905 7.49796e-19)
(0.00122331 -0.00857115 1.08031e-18)
(0.00172652 -0.00882522 1.43939e-17)
(0.00132467 -0.00912178 1.08017e-17)
(0.00136289 1.8424e-05 2.32375e-19)
(0.00135276 1.4634e-05 -5.87267e-19)
(0.00116094 1.35944e-05 3.85479e-20)
(-0.0367587 -0.0555048 8.24377e-19)
(-0.0406741 -0.0540158 -3.31004e-18)
(0.00072676 -0.00464632 -6.27329e-19)
(0.000862367 -0.00476286 1.89723e-18)
(0.000866063 -0.00456395 9.69793e-20)
(0.00100746 0.00136495 -2.50166e-21)
(0.000846713 0.00133435 1.16133e-20)
(-0.0535018 -0.0250491 2.98372e-19)
(-0.0536287 -0.0316778 7.88127e-19)
(-0.0521052 -0.028197 1.54751e-18)
(0.0225017 -0.00069771 -1.53605e-17)
(0.000235983 6.79098e-05 7.70475e-21)
(0.000213474 6.67307e-05 1.05948e-20)
(-0.00180559 -0.00548545 5.50115e-18)
(-0.00176248 -0.00551369 3.397e-18)
(-0.00182415 -0.00553133 -2.838e-18)
(0.00106252 0.000470733 -4.45431e-19)
(0.000982957 -3.94107e-05 -1.58624e-19)
(0.00139334 0.000266772 -2.37813e-19)
(0.00131753 -0.00283843 -7.33382e-19)
(0.0014086 -0.00280812 -1.38732e-18)
(0.00131303 -0.00273884 9.53425e-19)
(0.00118806 0.00110709 4.75589e-19)
(0.00170911 0.00111001 2.98993e-19)
(0.000649455 -0.00279791 1.31433e-18)
(0.000651946 -0.00288132 1.8926e-18)
(0.00189237 0.000729126 -1.82417e-20)
(0.0018937 0.000765898 -9.00881e-21)
(0.00184893 0.000737137 -7.57872e-21)
(0.00142178 1.88207e-05 2.48079e-19)
(0.00135617 1.83946e-05 1.3991e-20)
(-0.00402828 0.0018005 3.62936e-18)
(-0.00417292 0.00256828 5.29006e-18)
(-0.0030185 0.00148975 9.30873e-19)
(0.00816504 0.00287683 1.21132e-19)
(0.00814083 0.0041161 -3.98391e-20)
(0.00698071 0.00330722 3.56916e-19)
(-0.000546348 -0.00680892 1.66262e-18)
(-0.000342044 -0.00702473 5.10193e-18)
(0.000574169 -0.00277869 -7.56563e-20)
(0.000647467 -0.00273024 1.35541e-18)
(8.88629e-05 -0.00027519 -1.3923e-18)
(9.46748e-05 -0.000243852 2.125e-18)
(0.000119592 -0.000268446 2.35879e-18)
(0.021083 -0.00234728 -1.44815e-17)
(0.0210105 -0.00236832 -1.65112e-17)
(0.0170302 -0.000751773 -9.72383e-18)
(0.0168841 -0.000472485 1.0528e-17)
(0.0020856 0.000181 5.58954e-20)
(0.00206392 0.000207339 -5.81683e-20)
(0.00203797 0.000175673 -9.00006e-21)
(0.0030984 -0.0017285 4.31293e-19)
(0.00440174 -0.00211375 -3.7635e-19)
(0.00372191 -0.00095627 1.12119e-19)
(0.00130386 -0.00293063 2.78354e-18)
(-0.0348579 0.00930726 -2.00677e-18)
(-0.0345574 0.000900866 -1.78762e-18)
(-0.0264987 0.00548592 -2.35214e-18)
(-0.00681446 -0.0100131 5.46118e-19)
(-0.00932223 -0.0101387 -8.41626e-18)
(-0.00716558 -0.00977493 4.78466e-18)
(0.0133675 -0.00370957 -4.94976e-18)
(0.0136392 -0.00359043 -7.80023e-18)
(0.0134476 -0.00346573 3.63471e-18)
(0.0158691 0.0102412 -1.55413e-18)
(0.0138847 0.01355 -1.16339e-17)
(0.013923 -0.0128676 -4.78532e-20)
(0.00696621 -0.0217615 1.45383e-19)
(0.00726968 -0.020466 -1.07886e-20)
(-0.0236835 -0.00347297 4.92616e-19)
(-0.0249503 -0.00606342 1.90437e-18)
(0.00218675 -0.000348041 1.74444e-19)
(0.00207259 -0.00048206 4.50197e-20)
(0.0143445 -0.00762857 4.28783e-18)
(0.0146758 -0.00741148 2.5629e-18)
(-0.0379043 0.0125449 6.34948e-19)