/*--------------------------------*- C++ -*----------------------------------*\
| =========                 |                                                 |
| \\      /  F ield         | OpenFOAM: The Open Source CFD Toolbox           |
|  \\    /   O peration     | Version:  v2012                                 |
|   \\  /    A nd           | Website:  www.openfoam.com                      |
|    \\/     M anipulation  |                                                 |
\*---------------------------------------------------------------------------*/
FoamFile
{
    version     2.0;
    format      ascii;
    class       volScalarField;
    location    "1000";
    object      omega_0;
}
// * * * * * * * * * * * * * * * * * * * * * * * * * * * * * * * * * * * * * //

dimensions      [0 0 -1 0 0 0 0];


internalField   nonuniform List<scalar> 
13851
(
0.329381
0.0280854
0.0278367
3.62695
0.0220874
0.0319084
0.0288098
0.021986
3.0187
0.0220855
0.0980109
0.0221001
0.022253
5.64098
0.0568983
0.274324
6.88912
0.0224518
5.97788
0.331173
0.0645919
0.0297398
21.1561
0.0222637
6.30324
0.116857
4.21513
4.87797
2.96985
0.0219084
3.03569
0.0288138
0.319562
3.07644
0.0617498
2.97512
0.0222742
9.20454
2.91477
0.0224187
2.97099
2.99745
16.2817
1.06242
3.04309
0.0220548
0.0217009
0.249565
0.0254599
0.0222409
7.32389
0.0222994
0.296755
0.0456213
6.1284
0.022406
0.327575
2.96687
4.03682
6.4606
0.0221064
4.21773
0.0221168
0.0257075
0.30901
0.337712
9.78178
0.0744922
0.0226246
3.29096
3.13427
0.0794829
0.0221693
7.85099
0.0491477
0.0254804
5.55732
0.0217853
6.51273
0.0220275
0.0226673
4.58998
0.0599767
5.55855
6.11265
3.03985
0.0302457
6.25098
0.0220875
3.03962
0.0223488
0.0290279
21.3946
3.11073
2.9905
0.597336
0.0220641
0.388948
7.25385
0.329582
0.445482
0.0458322
0.0509756
0.0222444
0.0220722
0.0743457
0.0220687
3.07111
0.0290188
0.0223789
0.0354784
0.0220606
0.481765
0.100698
0.305595
0.0434538
0.021852
0.021914
3.84501
3.22834
0.358959
0.0221076
0.0225554
3.37607
5.50801
0.140468
0.0220659
0.0785944
2.98534
0.0748337
0.0296582
0.0416695
9.98138
3.05342
0.101509
2.98077
0.0711266
3.05931
0.0387099
0.074543
3.87637
0.0231067
0.0220896
0.128082
5.68625
0.0248778
0.0217728
3.0853
3.21585
0.0821191
0.485521
0.410138
0.107825
5.58553
0.0224734
0.0221274
0.0221163
2.92411
0.067782
0.0269748
0.022243
2.96878
0.0733827
0.272441
5.92468
3.00054
3.01502
5.99181
0.0350255
3.84237
0.0221198
0.0218478
0.0954184
0.0221402
2.94434
4.49175
1.05394
0.0218387
0.0491624
0.834558
5.33309
1.00611
0.034218
0.0742857
18.1452
3.17573
0.314922
0.0309168
0.0223957
0.0219774
5.9636
0.0676909
9.84862
0.0320768
0.0246742
0.33849
0.300284
0.0231049
0.0230235
0.0800153
3.28028
2.96496
2.95832
0.0570698
3.28629
3.02922
0.0241482
0.0740427
3.01454
0.0303322
0.28444
0.0225201
4.17704
0.0222385
0.0635429
0.0268157
0.0222056
4.81856
0.0231508
3.6121
0.0218334
0.331367
8.15773
2.9643
0.0305555
0.0753529
0.0222657
0.10802
0.0220553
0.0625424
4.14687
0.0303061
0.0303674
0.0221311
2.96629
0.0219088
21.9679
2.95858
0.284964
0.0222516
9.03395
5.84744
3.08752
0.259849
0.0481017
0.178278
4.01654
0.0494684
0.561107
0.0384795
6.99998
0.341242
0.0219223
0.0324021
0.373114
2.96142
4.55103
0.0219662
0.14334
0.0220843
3.43631
5.50236
0.0334092
0.0743177
0.358926
0.0221107
0.048022
0.233476
4.88116
0.0221097
0.0222023
0.0306237
3.03672
5.35005
0.073414
0.0221653
5.34151
5.54613
0.254723
0.0738119
3.0143
7.80077
0.0340179
0.0503991
10.206
0.0220742
0.0221145
0.265216
0.0830893
0.0219234
0.0222357
0.0220497
0.0220147
0.0482703
0.0221093
3.0041
0.0681461
0.0222343
2.965
3.53909
0.0223514
0.339433
7.75308
0.0233169
0.0223822
0.0712275
6.69241
3.47888
0.109166
0.0220761
3.92716
0.0221134
0.118319
6.0133
4.84547
0.0266889
11.0189
10.7957
2.9726
0.381179
0.0484501
2.92889
3.12128
4.95693
0.023191
4.65804
24.7737
1.00989
0.85164
0.0241656
0.106627
0.0323302
5.94357
0.0528337
0.0219007
0.0215952
0.0332957
3.02835
3.06803
0.0220649
3.00791
0.0325171
0.0420971
0.0273544
8.70418
5.26067
0.31316
0.0263237
0.0292819
2.97154
0.0224142
5.67832
0.0338366
0.0713043
0.0328148
0.022086
0.0222343
0.344146
0.397999
0.347862
10.6754
2.99369
0.0250268
2.9703
4.66499
0.0219385
4.77663
0.174687
5.92274
0.0324109
0.124565
4.01769
7.93561
0.302937
5.88913
0.024005
4.49663
13.4408
0.0418897
5.06894
0.0467471
2.95126
0.0494169
0.0650527
0.334311
0.773734
0.0221256
0.0328841
0.0892805
0.0495204
0.0220816
0.0744711
3.48565
0.0221727
0.0743199
4.46003
0.0273134
12.1609
0.0725543
3.65154
0.0313933
0.110033
2.75272
5.49515
0.0728168
5.68478
7.74921
4.45104
0.0221082
0.311346
0.0466185
0.124329
0.0221157
17.4932
3.44083
7.13036
0.0292198
0.359624
4.30758
5.09225
0.0217381
6.1635
1.29504
18.6432
0.0401322
5.18391
0.0221313
0.0221294
7.73975
4.3538
0.022087
0.0281314
0.075719
0.0218788
3.57506
0.107839
0.169456
0.032319
0.0240358
0.0222896
8.34129
0.0222171
0.0222692
3.74446
3.56675
0.0288358
4.02036
0.0221216
0.0221068
0.0280622
0.355256
0.0717423
0.0221054
0.0247231
0.342866
0.0260873
3.98938
0.0220942
0.0367709
3.05878
0.0395307
0.0216406
0.0221363
0.0321125
0.0234834
4.21307
3.5695
0.0486487
6.76508
0.0282043
0.0220866
2.99413
4.03315
0.0379516
0.0222274
3.18216
0.0368393
18.5392
0.0222395
0.0424303
0.31966
0.0528615
3.03031
4.28565
7.43267
0.0249663
0.454628
0.0221197
2.96636
0.0723391
0.297665
0.0463914
0.0259483
0.039632
0.0964931
0.0220974
5.64211
3.0039
4.24563
4.75874
3.62767
4.10103
5.62002
0.029623
0.0222159
18.113
0.022086
0.0220746
0.0320863
2.9317
0.0277539
0.0230559
0.123235
0.0713305
0.0220823
4.32752
0.0220544
2.99677
3.37505
0.0220287
0.0264717
1.85862
4.8032
0.0219244
7.46828
18.1843
0.0220305
2.93684
5.92634
0.321351
0.0249108
3.78912
6.18741
0.0220714
6.58378
0.0225798
0.0220624
3.83089
2.95092
0.0567099
0.0705757
0.0220857
0.0957701
2.99136
2.93064
0.0222856
5.33095
0.0220915
0.0226281
0.0738795
0.03693
0.0217352
0.0254719
2.93281
0.681128
2.94877
0.026935
0.0220833
3.05349
0.0221913
0.321818
0.0365314
0.0492257
0.0475211
3.22662
6.28118
0.0318545
6.25346
0.0261096
0.105532
3.01519
4.43455
0.0225136
0.0221223
0.0513645
2.94334
3.7903
0.0947948
21.0136
0.0373098
0.0475306
5.21929
4.23874
0.237923
2.99222
3.01215
3.02915
0.0235414
4.02235
5.40199
0.022103
17.7029
3.4174
0.0352543
0.0744472
0.0223382
6.33019
0.111833
12.5448
0.0222163
0.0221667
0.0274398
0.0695373
0.0221019
2.95943
0.0221612
2.71503
0.024983
0.125736
0.0222388
0.0220833
0.0589207
5.70424
0.072285
3.01921
0.0424576
0.0218915
0.0220704
0.0959432
0.0246937
0.180916
0.0287077
0.0370647
3.99313
0.0221927
5.93233
0.0222559
0.180648
5.31861
3.04781
0.0292202
15.1148
0.117729
0.549591
3.34287
0.0224291
4.02352
0.0325757
0.043734
4.3674
6.38278
0.0219649
0.173859
0.0230653
2.98132
6.35608
0.022842
0.0804004
3.58765
0.0222659
0.0222558
0.11919
7.89729
3.93386
0.0223904
0.332593
0.0255807
0.0220883
3.96585
0.35519
0.319864
0.0216927
0.236571
0.0524358
0.100388
0.0229314
0.0243793
0.10336
0.0273031
0.272261
0.0796949
0.0792522
0.190287
5.60624
6.03357
3.55804
7.86985
0.351705
4.09634
0.0468267
3.7997
0.345737
0.0223126
0.0461812
5.90068
0.0317397
0.022025
0.022017
0.182121
7.27491
0.0371025
2.97676
0.0218972
3.88662
0.206664
8.23881
0.172432
0.0316998
0.0278447
6.85214
0.317156
0.0450622
4.32885
0.0237499
14.5946
0.183123
2.71528
0.0447427
5.82364
0.0221319
0.0222483
0.0238255
0.0220897
3.00449
0.0220132
3.93893
3.02148
0.176977
2.92472
6.49499
3.71453
0.710567
0.0294006
0.0221873
0.0221718
0.0217858
0.0220587
0.0221427
0.107296
0.416838
0.0568313
4.94408
0.0244564
3.03046
0.0222944
3.4035
0.0551923
0.0222848
0.0221454
3.03815
0.0321402
4.04662
3.43865
0.0708897
0.115859
0.0220041
3.03972
0.0259902
0.0277957
3.98103
0.0221914
0.0231177
0.0223216
0.0724111
6.24132
0.0380481
0.0457589
1.6732
2.96908
0.0302569
0.029299
3.03529
0.0217754
3.01271
0.0222029
0.0261464
6.42671
0.146641
0.302477
0.151395
0.072971
0.0222327
0.0222942
0.113054
0.0236747
0.0222392
0.0385136
1.10924
0.0220023
0.475503
12.1904
4.08254
0.147037
3.18859
0.0390429
0.0221837
0.288279
0.021911
0.0329873
3.65141
2.9969
4.00238
3.10324
0.0230077
0.0227869
0.0860765
0.0240721
0.0220545
21.9116
3.88683
4.84878
0.183595
0.150912
0.0221019
0.0219162
14.1248
0.17057
0.0269013
0.0222557
0.299578
0.566294
2.96318
0.0224492
0.0221566
8.43419
0.0228916
0.0471445
0.0218783
2.92857
0.0220472
4.79277
0.0221035
0.24927
0.059687
0.086017
0.0454572
0.0221608
0.0280837
0.0220339
3.89156
0.0229739
3.80089
0.0239266
4.28627
2.99891
0.0420593
0.0220152
3.81806
3.59908
0.0329254
0.145488
0.0221715
7.44851
0.0223704
5.8412
0.0220934
0.0220311
4.11053
0.0479967
0.0221282
0.0464053
2.97871
5.39013
3.49251
0.0219592
3.78762
0.0221051
0.0220076
0.0224753
0.0215426
0.0222396
3.43521
3.6062
0.0231632
0.0221574
0.0573213
0.0220651
3.4765
0.306689
4.85027
2.92097
0.0279849
0.270425
0.0220978
0.0644357
0.160287
0.0224057
0.0222114
10.8553
6.41444
0.112934
15.1572
0.104845
0.0221215
0.0595764
0.149346
6.79511
0.0459529
4.16603
0.175513
0.0222272
8.49148
6.96904
4.68974
6.14615
3.81985
0.0249558
0.172578
0.0222659
4.6652
0.0309045
0.0219034
3.40915
0.0242377
0.0220152
0.0225226
0.0239343
2.94834
5.71691
0.0219562
0.0607963
6.51903
0.0247695
14.7965
0.0238328
0.137557
2.94603
0.0221129
3.82421
0.0355882
0.0441067
6.07531
0.0242233
4.48831
0.108268
2.97357
0.0233469
4.51513
0.0409984
3.99582
7.31769
6.08154
0.0710826
0.0221707
0.0230205
0.0222658
0.0613058
0.0221402
3.00722
0.0330375
0.0295709
0.0299787
0.0248922
0.021949
0.0348334
0.0328149
0.0264688
0.0312572
3.18658
3.84254
0.0399814
0.0661083
3.48735
0.0231298
2.98817
0.0217788
0.0381544
0.0229784
0.0222606
0.0561587
0.0220836
0.0219494
0.048437
0.0221359
0.902094
0.0243177
18.5881
5.0888
4.12572
5.09137
0.0228031
2.9511
0.500019
0.02223
0.0324577
0.0229291
2.95537
0.0237521
0.0478807
4.75017
5.1317
0.121908
0.0228307
3.17126
4.80388
3.79887
0.0354587
0.0218852
0.0222633
0.109475
0.0221492
7.5466
0.355597
0.0222074
4.65137
1.07596
0.022278
3.2644
5.41259
3.42362
0.0241539
3.18899
0.106404
0.022044
6.61654
0.0292287
0.022197
0.0220493
0.0464048
0.0619906
2.99496
3.08323
0.064584
3.00878
0.0498059
0.0220995
0.0910823
0.0220188
12.5557
0.0223102
0.0220557
0.0257324
0.0235996
3.01469
5.91105
4.06896
6.41633
3.59184
0.0306883
0.022194
0.0243167
5.46196
0.0222861
0.0221476
0.0584126
6.25664
3.62726
0.0217512
0.048889
0.046065
0.324438
14.9395
0.022032
0.021717
0.0265231
7.75215
0.0385615
2.98503
0.0243406
0.0221669
0.0222156
0.0220521
0.0267944
3.38848
3.06615
3.01396
0.0298112
0.0220886
14.7442
0.0234971
5.06461
4.63369
0.0327443
4.51593
2.9895
3.12255
0.0877703
0.0453932
3.41809
0.0418975
0.0376192
0.0886328
0.603504
0.0235337
5.76836
0.0221016
3.70562
7.40395
0.021783
0.0250207
0.0574461
3.27352
0.0481869
0.0221463
0.0368378
0.0235693
0.0317663
1.62148
0.0221763
3.52907
6.42502
0.0221147
0.0432841
0.0616279
0.0221076
2.96675
17.9008
2.938
3.26488
0.0220724
0.0272302
0.031375
0.0225117
4.0065
0.0489558
0.0222598
0.10408
0.0267892
4.09088
0.0599017
8.04804
0.0234859
0.024715
0.0545401
0.169214
0.118627
0.0220923
17.5816
3.73236
25.3375
3.7139
3.62825
2.99743
4.27943
0.0220856
0.0220821
0.0226483
3.7811
0.0709912
0.117229
6.21569
0.0231793
0.0217177
0.0220859
3.34549
0.0217648
0.0335243
0.0252159
3.83769
0.0235783
0.021914
0.0221142
0.0221705
0.0221641
0.0374665
3.99555
0.0377654
3.8003
0.0220808
0.0220612
2.98931
3.02976
7.50926
4.00285
0.0535645
3.89432
0.0218767
0.0774903
0.0247069
0.0221081
0.0282271
4.17753
0.0250613
0.173307
12.8236
0.02327
0.0222337
0.0274609
3.50816
0.0222731
3.83916
0.0226235
3.69044
0.0221397
0.023144
0.033148
0.117299
0.0222701
4.23799
3.09223
3.02427
3.08514
0.022127
5.6123
4.70419
0.0220881
7.6506
0.0224923
0.0443201
0.0223912
0.0231124
0.0219881
0.0220814
0.0231811
0.0283285
0.111893
0.0229686
0.0221151
0.0671905
0.0219513
4.37
0.0221388
0.0442957
0.0495929
5.1111
5.08792
0.0221631
3.63961
0.0218692
0.0429669
0.0957558
4.01413
0.0748994
0.0222734
0.223823
0.085295
0.149568
5.24406
0.0396263
0.341219
0.0946972
0.114192
0.0235547
0.0221201
4.1065
4.23374
0.027602
0.0220411
13.654
0.0219071
0.0629315
0.0220181
0.119501
8.77621
0.021662
5.22374
0.0316918
0.0221742
0.846036
0.0219019
0.0422533
3.13655
0.0578205
4.06775
0.0219844
0.0222664
0.0458328
0.0222327
0.0222493
0.0365693
0.0392992
0.112573
0.125904
0.0222928
0.0488329
0.0220756
0.0220919
0.022223
0.02209
11.8407
0.0223504
0.0238635
4.03585
0.0219002
0.0220306
3.04727
0.0222531
17.2191
0.025478
3.13308
5.06334
0.0581077
14.1824
0.0986992
2.53593
0.023439
0.752707
0.0321619
0.0221021
0.0220544
0.0238108
0.0426431
0.0221494
0.0730582
0.0219531
0.0247486
14.9821
7.23194
6.64444
0.0280453
0.0498875
4.78556
3.52538
0.0221856
0.0329443
2.66856
0.0229912
0.0543146
12.188
3.01884
0.0349331
0.0665405
0.0237135
1.29395
0.0222868
0.0401499
5.09852
0.0224239
0.0220265
4.56853
0.0609057
4.12997
3.11005
0.18523
0.0227639
0.0219564
0.0232231
3.93219
5.44484
4.06991
0.0815932
0.0221014
3.99812
0.0221283
0.414474
0.0273597
0.0259939
0.0643124
0.0220909
3.33867
3.63955
0.0220165
0.112128
0.072719
12.4197
0.0632264
0.0937341
4.0727
0.049586
3.79198
0.0984705
0.0221314
0.0527225
0.0882823
3.72427
0.0220701
4.15318
0.0675195
0.100053
0.0222739
3.50318
0.0320832
0.0247519
0.0220588
0.0497106
0.048466
0.0658801
0.022137
0.0235107
0.0779436
22.3694
0.0888074
0.0221715
0.0229351
0.0526603
3.1798
0.0221844
0.133824
11.0313
0.0605159
3.11148
0.0611135
7.76471
4.99269
0.0220932
9.29106
0.0222386
0.0277503
0.0467697
0.0490943
0.179841
0.0727489
0.0527135
0.0565331
0.0408891
0.025879
0.0217532
0.10072
0.0306157
0.0309729
5.06457
0.0300665
0.0341644
0.0220192
4.97601
0.124128
0.0222874
0.0286938
0.0235903
6.69923
0.333519
0.0467987
3.05811
5.11616
7.1267
0.168265
3.81601
0.0219684
0.34835
0.0221364
0.0276689
10.1923
2.97009
6.91133
10.8588
0.0221379
8.21304
0.021965
0.145756
0.0273716
3.90688
3.37557
0.032379
0.022032
6.77799
0.0456588
0.0220678
3.38549
0.0220923
0.0248745
0.0306129
0.0223691
0.0399451
0.0237283
0.0221069
0.0418163
5.0324
0.0601056
0.0888381
0.0220653
6.32996
3.00303
0.0220179
4.19297
0.0272694
0.0308441
3.91625
0.0220154
0.0232748
0.0298629
3.61659
0.022072
0.0221856
0.0568708
3.79474
0.0220017
0.0355295
0.0398408
5.02216
0.065075
0.0559731
4.55297
0.0220959
0.142308
0.0217812
7.28803
0.0381574
0.0220856
0.0346862
0.162806
0.0221549
0.0229512
0.350459
3.26938
0.0234721
6.85043
0.0221938
0.0217779
0.105378
0.0220679
0.0223507
3.63907
0.0222759
0.0595
0.682976
2.94521
5.03983
0.0222644
0.0245753
0.0295674
0.0220894
0.0221518
0.0221213
3.90413
0.0222044
3.69687
0.247115
0.0220218
0.0219723
0.0393719
0.246888
4.14128
0.0665353
0.0920407
0.0254651
3.00043
0.111812
0.0427072
0.0620317
0.0885604
0.162184
12.0547
0.0581409
3.60112
4.321
3.50277
0.0286605
0.022228
0.0513127
0.03566
0.0221289
0.0235048
0.189767
0.0222456
0.0230213
0.0220849
0.0217019
0.0262905
0.0226526
5.7043
0.0220296
7.15561
0.0220969
0.118684
0.0236339
0.255635
0.107533
0.0221759
3.54691
0.0244249
0.0222319
0.0602641
0.0220598
0.0337947
0.0224587
3.1423
0.0263124
0.0609435
0.114094
3.62406
0.0320084
3.69141
5.1479
0.067221
0.0227903
0.0247002
0.152569
0.103
6.69472
0.021941
3.24449
0.0224529
0.101978
4.25193
0.0463006
3.89655
0.0281713
0.044812
0.0268531
3.52002
0.0395141
0.022144
0.0627072
0.319293
0.0251622
0.0220839
0.0221474
2.9144
0.0222567
0.0309296
3.02986
0.0283493
0.0220985
0.0764626
0.0277285
3.94699
0.0217214
0.0220979
0.0219216
0.0267703
0.0233884
0.0228114
0.105071
2.99422
0.0220829
0.0221197
4.19025
0.023285
4.8277
0.0269329
3.35061
0.022071
0.025917
0.0218703
3.88001
3.10872
0.0342179
0.0872971
0.0276811
0.0221525
0.0221326
3.17792
0.0221389
0.144148
0.0219608
0.0656876
0.0222006
3.87678
0.0219027
0.0695053
0.0219878
0.93387
4.64839
0.0220147
0.0547856
3.52222
0.113182
3.92272
3.8979
0.486921
0.0238471
0.0470462
0.171643
4.82234
0.0231772
0.0580118
0.0297022
0.0222703
4.04457
3.45669
0.114268
0.47679
6.25654
0.0404275
3.06773
0.0221205
0.021994
0.169609
3.93345
2.16763
0.353836
4.77811
0.0218824
3.5511
3.69725
4.8435
0.0222047
4.7942
3.11292
4.62513
4.22179
3.31226
0.14925
0.0390735
0.490685
0.0265181
0.0221867
9.62155
0.170788
0.0217345
5.02176
0.0221977
0.0327245
0.0637849
0.0281513
6.1364
0.0381639
4.78997
0.0686511
0.0268908
4.44653
2.93831
0.332006
0.0225299
0.0265778
0.115756
0.0738745
0.0218836
0.0688378
0.0740948
0.315564
0.0221414
1.03241
0.0262166
0.0637321
3.70859
3.78422
0.02339
0.213111
3.72457
0.0224136
0.0237348
4.1888
2.31318
0.0271632
0.028292
0.0221145
0.104313
0.0307031
3.00566
0.177378
0.0229133
0.0222241
0.0723408
0.0341758
4.78687
5.99123
0.0220328
0.0220735
0.0331065
0.0221999
0.0272085
0.0239676
0.0241259
0.0267589
0.0220576
0.0268706
0.0223287
0.0734014
4.90291
0.0222654
3.63834
10.0096
0.0217843
0.338906
0.219671
0.127736
0.0233048
0.169964
0.0337731
0.0919269
0.0396053
0.0249153
0.0222107
6.49077
0.0367089
4.03489
0.0232356
0.0220913
0.0220608
0.0966928
0.0220726
0.0747776
0.0989624
2.41208
0.0219899
4.82268
8.98042
3.55544
0.0218727
0.283487
1.23243
8.58833
6.79813
0.0227464
0.0228559
0.295426
4.74159
4.11648
0.0598047
4.16746
0.0222316
0.0221699
0.0484325
0.0222042
0.022215
0.365045
0.0222673
0.103141
0.022061
2.9566
3.54393
4.14115
3.74074
3.83755
0.0222482
0.0221621
3.75864
0.0219759
0.0220309
0.0217833
0.191233
3.05713
5.98784
0.0291591
0.0229629
0.0246086
0.0439468
6.37517
0.0220477
3.90994
2.965
0.0221991
0.0221869
3.92318
0.13275
0.0258697
0.0220843
3.54085
3.78407
0.0225468
3.96407
0.0222563
3.41629
5.53835
0.0264239
4.03309
5.76741
4.03815
0.0220249
0.0231712
0.0222496
0.0222868
3.04648
0.0220702
0.414795
3.86474
8.07013
0.0239612
0.0824136
5.05541
0.0706852
3.80936
2.95905
0.021687
0.0308606
0.0311614
0.244167
3.15663
0.0216753
6.03791
0.0370651
0.0654406
0.0232916
0.0219684
2.70964
0.0537652
3.47217
0.0222035
0.0776611
0.0237456
0.264386
0.0277066
2.99372
4.52182
0.535882
0.168775
0.0221219
0.0255339
0.153869
0.308117
3.03442
3.56537
0.0221534
3.93181
0.108077
2.9364
0.0337902
0.0594424
0.0551449
0.0226897
3.84677
0.0220989
0.0456322
3.41397
2.96147
10.8772
3.01097
0.0319457
0.0736607
0.0219687
2.95842
0.0306605
5.38794
0.0219616
3.7982
0.0216696
0.0220482
0.0443863
0.0337404
0.036178
0.0222059
3.51223
0.0676922
0.0220707
0.0484361
3.97677
1.08159
0.0221155
2.93507
0.0267325
0.0498824
0.0460067
0.0217456
0.0950818
0.0220458
9.75732
0.108592
0.0341749
0.0220815
2.5882
0.056853
0.0219629
4.01227
5.51703
5.15992
0.0219864
4.98459
0.022158
0.259025
0.0354485
0.181925
5.90161
3.74784
0.0365352
3.02325
0.065167
0.0315682
0.021939
3.72109
0.169331
0.185038
0.0662141
0.022244
3.88044
0.138657
3.89204
3.97612
3.36669
3.47304
10.6374
4.24323
0.0321337
0.0341074
0.022121
0.0226775
0.0216972
1.41786
0.0331005
0.0359027
2.92457
0.0220432
0.0219039
0.0635377
0.327606
0.0356263
0.021917
2.9475
0.0272208
0.0728968
0.0226028
4.85434
0.0309389
3.46311
0.066605
0.0473301
0.0708792
0.0221156
6.34124
5.05295
0.106305
0.0223095
0.0219319
7.58798
3.03138
2.96408
0.0222286
0.107836
4.88484
0.022687
0.0220336
0.0225273
3.03408
0.121454
0.0417656
0.0350465
0.0320714
3.68169
0.134334
5.29338
0.0330189
0.04527
0.0217013
0.197223
0.0770126
0.0220939
3.21
2.94556
2.99934
3.3306
3.10281
4.08103
3.65948
0.0234715
0.0223065
3.86356
4.4781
5.57621
0.0223495
0.0588086
0.0220946
0.0220809
3.85243
2.96798
0.103457
0.0220498
4.44661
0.170649
0.0716084
4.32333
7.3891
4.24832
0.0219363
2.99629
3.88585
1.98085
0.0459857
0.0619554
0.0222904
0.0219568
0.0536792
0.0642809
0.0267635
0.0612031
0.0356262
0.027167
3.62764
4.05398
0.0347969
0.0648435
3.63021
3.49723
0.0221267
0.525354
1.38919
4.58915
0.0562544
0.0228079
0.0388926
0.0316341
0.0332993
0.021747
0.034899
0.043575
0.0705352
0.480007
0.0222316
0.0244796
3.56561
3.13712
2.92706
5.11759
0.218262
0.0216332
0.0220848
0.0399985
0.0219401
3.38945
0.0220908
0.0222755
0.0218375
3.17151
21.4158
0.0227549
0.102446
0.033484
0.0404062
0.0388957
0.0372322
0.0598229
0.0494029
3.67589
0.0320898
4.25007
0.0513332
2.92584
0.0370402
0.0219532
0.0219252
0.17437
0.353738
0.0218755
0.0457227
0.0375603
0.0852174
3.77994
3.92424
4.04258
0.0222753
5.85461
0.033285
0.0448995
0.0220805
0.103981
0.0252979
3.66703
2.71358
0.0498115
0.0221078
3.15023
0.0282484
4.51194
4.66932
3.6555
0.026347
0.275702
3.86432
5.67174
3.14153
0.0885281
0.0223232
0.0514544
0.0222534
4.7912
0.0266894
0.0408433
4.41696
2.92242
0.022245
0.0221461
3.21962
0.0568683
3.94251
0.0340186
0.0220848
0.0598476
4.33269
0.0476043
3.99114
0.044351
5.51622
0.0288436
0.0222493
0.0221374
1.09897
0.0230251
0.196216
0.0221115
0.0224091
0.689804
0.032227
0.0226832
0.0220698
0.0442498
5.38422
0.0655107
0.0545579
0.0277777
0.091244
0.0222538
0.269341
0.0404761
0.0629586
0.0765002
0.0365401
0.117994
0.0499262
0.0222071
0.111798
3.5303
3.16258
0.0228299
12.7126
4.3654
0.0221092
0.0229616
1.25195
4.09177
0.0287899
4.17681
6.66589
0.0228155
0.149062
0.0216868
0.0315022
0.093219
9.53838
0.761003
3.58993
4.93532
3.30781
3.20311
0.0259963
3.34037
0.0220868
3.84292
3.37043
0.0221244
0.022088
3.32481
0.0222185
0.0221126
4.66513
3.18824
4.15246
0.0323161
3.68898
0.0221076
3.22457
3.73928
0.0221928
4.40366
9.35278
3.81411
3.4859
3.55324
3.5868
0.0219633
0.0236342
0.0949316
0.105716
0.0221085
3.47563
0.0220854
3.40057
4.51306
0.0551775
4.24715
3.28459
4.45898
3.93551
0.0659012
6.80064
3.99637
0.0301694
0.0217243
3.93005
0.0398485
0.0219565
3.3972
0.0220948
3.98104
0.022254
2.98806
0.0307398
0.0220754
25.8856
0.0284529
0.0390229
3.67329
4.08264
8.75426
0.0358421
0.0700595
0.0241522
0.0599581
0.274188
0.0612414
0.0222155
2.32353
0.0965685
0.0388316
4.12551
0.0587899
0.0428548
0.377842
0.117703
0.0690227
0.0220716
0.657089
0.0219319
0.271343
3.92216
4.10249
0.0219269
0.0533333
3.45652
0.0255129
0.0974826
0.043688
0.0584814
3.66602
0.0966067
0.0239387
16.4229
0.0219303
3.16345
0.0221406
0.0247685
0.264653
2.97796
0.0389676
0.451664
0.987554
0.043865
0.0229733
0.205683
0.0631035
2.92221
0.027368
21.9041
0.346815
0.0437919
0.0384491
0.150668
0.0489996
0.0825628
0.0964602
0.0439813
0.0272243
0.0229571
11.8054
0.0221371
0.0363827
0.0216702
0.212906
0.0374511
0.0960739
3.69201
0.0232863
3.82952
0.0215655
0.0222921
0.0221971
0.0222135
0.0333485
0.0220046
0.152717
7.80692
0.0953373
0.0674758
0.0297571
0.0224836
3.74639
0.0222298
3.99254
4.17916
3.91262
0.290322
0.0431627
0.0346891
0.0221902
0.0323111
0.111767
0.056831
3.50633
0.0944964
2.96591
0.433418
0.0222123
0.0218902
3.20971
0.0221291
0.0398879
0.0707521
6.584
0.0257712
3.0022
0.0221829
0.0294747
0.0220957
0.0231231
0.204624
0.203566
0.0228709
0.0464884
0.0370098
0.0694615
0.0923191
0.831961
0.56194
0.825478
0.251239
0.032483
0.0243691
0.0910125
2.9831
3.74997
3.10471
0.0448734
4.97974
0.195888
0.024319
0.0220418
0.101441
0.02216
0.0463365
4.64411
0.0220655
0.0220922
7.05885
3.81394
0.0731995
9.98759
0.022234
6.14403
0.0558202
2.92499
0.0311475
0.0222784
3.20748
0.0635043
0.0221325
0.0968818
0.0222572
0.267728
0.0362008
0.0578949
3.47269
0.0363903
3.93947
0.022016
3.03658
0.0222804
0.0311143
0.0233057
0.063747
0.0221484
0.0653188
3.11552
1.75475
0.0725886
0.0378034
0.0886332
0.0221848
0.0221649
0.0250266
4.35424
0.0303718
2.99233
4.78824
0.239088
0.0222235
0.255717
0.5229
0.357739
0.0319971
4.38373
0.0221317
0.0216251
0.0220977
8.06785
0.0226643
0.022141
3.12328
0.0220663
0.369174
0.121447
0.0222031
3.01672
0.0368916
2.97753
0.0222764
4.71937
0.0240732
0.0781522
5.3389
0.106629
0.0220484
0.0349344
3.96828
0.045986
0.269976
0.0423198
0.030767
0.230256
0.0326754
0.0232882
19.8655
0.037351
0.0372236
0.235245
0.0220895
0.0220312
0.0221909
0.0432316
0.0223073
0.0282031
3.82991
10.0385
0.120599
5.7937
0.100937
0.0508066
2.92004
2.98185
0.0227244
8.15826
6.70841
3.7492
10.0637
0.0406975
4.03151
3.11445
10.8461
9.67593
3.60879
0.0482415
0.10006
0.0319457
0.0321968
0.0223131
4.88163
0.0222864
3.56658
0.153704
0.53024
0.0216482
0.123434
0.0521195
0.0239451
0.0222936
0.0221205
0.14938
0.0264264
0.0233041
0.0623987
2.95484
0.027704
0.273592
0.0218846
0.149194
0.0985286
0.0223646
0.0297306
0.0220045
2.99916
3.09757
0.528346
14.8574
0.0385573
0.155279
0.0221479
0.0637549
0.0221861
0.0230503
0.0222395
3.54579
0.0219287
0.0713559
1.87738
0.0315617
0.0426102
0.0220678
2.93133
0.541632
7.4657
4.67737
0.396676
6.261
4.3034
6.62608
3.87757
7.37124
0.153645
0.0347985
7.61398
2.95508
0.0220868
3.52667
0.247815
3.46582
0.0216665
0.102403
2.93983
0.0222748
3.54
0.0259773
6.21245
0.022099
0.0221718
0.100582
0.303343
0.0338084
0.0972667
0.0220827
0.0228424
3.52406
3.74742
3.67283
0.0867119
0.0232636
0.0226839
0.0221494
0.0417438
1.5513
3.11554
4.38011
6.95784
0.0414392
0.0219736
0.021999
6.25495
4.00213
2.401
0.0273786
0.0272605
0.0972391
3.28605
4.07486
0.0216381
0.0220414
4.31391
0.0245816
0.372216
0.0298187
0.0223248
0.0375976
0.0517569
4.5848
3.7838
0.0222035
0.0220991
0.0279741
3.67491
2.94937
0.0222682
0.226922
3.66717
0.021637
3.82469
3.24619
6.79966
0.0221292
3.53276
4.18513
0.0460432
0.45133
0.0291623
0.34594
6.7056
0.0308223
0.0220547
3.94566
6.18613
0.0220949
0.345549
0.281412
0.0402852
5.62739
3.80722
3.40318
2.94214
0.0370431
0.0239576
0.0253903
2.98098
4.43672
4.19526
4.85081
4.24821
0.0219213
0.0687346
0.0220764
0.0221245
0.0266686
0.022021
0.0220933
0.0226455
3.24385
20.7707
6.06345
0.0676272
0.797273
0.037544
0.0220112
0.0220003
4.2651
0.0221564
5.57341
3.076
0.0221911
0.022242
3.01468
0.0233053
1.13097
0.0303904
0.0218191
0.0219267
3.9839
0.0217912
2.95256
3.88913
0.0216648
0.0679589
0.0222438
0.0249736
0.0224312
0.168643
4.07789
0.0220209
3.01398
0.68925
0.0255132
0.0222478
0.0232247
0.0255879
0.0222334
6.19839
4.91314
4.55076
0.0630548
3.65768
0.0222752
0.0317678
0.0232787
0.281349
0.0241885
3.74463
0.0219045
3.90594
4.81392
4.90538
0.660839
0.0218975
0.0584999
0.0221753
3.69886
0.0222813
0.032535
0.0311673
0.030544
0.0226148
0.0222526
0.0355335
3.04833
0.0223319
0.0241337
0.0271451
0.0379234
1.96407
0.0221985
3.55412
3.12822
0.0265649
3.15981
3.41024
3.9
3.81573
0.0216051
0.0240566
3.92162
3.09107
0.262533
3.25331
3.2253
0.0379107
0.071921
0.0429531
4.29177
0.0220796
0.0219842
3.7697
0.278352
3.39238
0.0294183
0.0218382
0.0220847
3.83258
0.121876
0.0253349
0.398528
0.0221991
0.103764
0.0405391
0.0414837
0.0228239
0.0221977
0.0219892
0.0288345
2.03234
7.47964
0.0216721
0.0222522
2.93908
0.0224073
0.0759066
0.0265042
0.0261939
0.0590538
0.0222866
4.14212
0.0406874
0.025742
18.5444
0.154837
0.0242296
0.048332
0.0221165
0.0231999
3.69668
0.328246
3.24461
0.023227
0.0221687
0.0861157
0.0285185
0.022077
0.0604297
2.9632
0.0289205
0.0528841
0.0273561
0.26155
0.0221342
0.0220722
3.32954
4.10023
4.12596
0.0220997
0.475523
0.0219283
0.0220731
0.118241
3.14607
0.115058
0.0351229
0.489145
0.0246494
0.0409699
0.0541638
0.886966
0.0231505
0.0217242
0.0228699
0.02557
0.0355348
0.0220373
2.31285
5.73625
0.0228208
0.0352381
0.0225799
0.0219628
3.22739
3.5958
3.46368
0.134165
0.0225405
0.0931184
2.94699
0.16682
0.186333
0.0374418
0.0323794
4.3223
4.77131
2.68188
0.0218243
0.0332762
0.0222037
0.0388404
3.43341
0.0216806
0.048425
0.0260063
0.0337655
0.0239593
0.0221961
0.0219246
3.07116
0.0692953
0.042776
0.112981
0.0397398
5.58008
0.0346612
0.592163
0.0220481
2.94444
4.55436
3.97385
0.022265
0.0442127
0.0220915
0.0221799
3.26707
0.0684774
2.96108
0.0220644
0.0495005
0.232409
3.06214
0.0297697
0.0219229
3.70553
0.0222866
0.022285
0.0233243
0.0220776
3.46707
0.022019
0.0220144
0.0418447
0.0288404
0.196753
0.191501
0.0354632
3.01746
0.0229077
0.31758
0.0222265
2.96196
0.040237
0.802444
0.306783
4.81411
0.221451
2.92788
0.0251917
3.44582
0.0357513
3.97132
0.336873
0.0288776
0.460163
0.0224602
3.74507
0.0252525
0.0470557
0.0287699
12.4606
0.322924
2.97989
0.033745
0.0221073
4.01159
0.474341
0.0933198
0.307377
4.27669
2.9309
0.04612
0.754258
0.0606726
0.022034
0.0619184
0.547067
0.0884087
26.5045
0.179798
0.0219288
0.0225366
0.211022
0.0220937
4.1308
0.0871603
0.0221101
3.15668
6.03248
3.86544
0.156348
0.0226626
0.0307326
0.0266147
2.94524
3.05644
0.0267702
4.28462
0.0221943
0.0336402
7.89957
0.0220698
0.0529384
0.021997
0.0301676
0.0222522
0.207091
4.8814
0.0320078
0.0319978
0.0219013
0.229496
0.0221931
0.0219477
0.0358622
0.0219962
0.415375
2.91794
11.6298
2.98375
0.0219338
3.04954
0.0221996
0.0388865
0.205548
0.0229117
4.18421
0.0902419
0.022316
0.0219369
0.0579326
0.0438932
0.252342
3.72666
0.0265068
0.0254954
3.23212
0.104877
5.54383
4.15664
20.2021
3.62404
2.9774
9.95009
0.022273
0.0221229
0.0591866
0.0225994
0.0671923
0.0586238
5.48826
2.98704
6.59037
0.0220167
0.022043
0.176437
4.46059
2.96378
10.8755
3.07743
0.0589362
0.0350857
10.473
4.77018
0.0340915
2.91896
0.0359426
0.0409781
3.49897
0.0659874
0.0227738
3.77867
2.40016
0.0295171
0.227816
0.0247912
6.3574
3.431
5.36532
0.0220851
0.0217618
0.313677
0.0220798
0.0224531
0.0220775
0.0218475
0.0220779
0.0220788
2.93924
0.0315785
0.0512688
3.14869
0.0219725
0.0220832
0.0429864
0.033009
0.03322
0.022087
0.0882938
0.0353234
0.0275959
0.102683
3.73695
0.0220942
0.0634091
0.0221029
0.0220849
0.0217145
0.0221124
2.95912
0.0222439
0.0221166
0.0221226
0.0538091
3.12324
3.27826
2.95405
10.3305
0.0670374
3.51833
3.51032
0.0220135
0.0466508
3.99674
3.76783
0.0221336
0.0384577
0.069891
0.0392946
0.0220883
0.066057
0.0627787
0.0486729
0.021712
0.0720406
5.50392
0.0216627
9.94385
2.93306
0.0473933
0.776371
0.0432683
0.0221169
0.0311072
0.0221157
0.340323
2.92962
0.021931
0.0493437
0.0220783
0.0219976
0.0224976
0.0222867
0.0429703
0.0221853
0.195863
0.244066
0.0294339
0.0267271
0.0643498
0.022088
0.0485096
0.0491269
0.0230954
0.0221268
0.0221544
2.96696
0.0221276
5.12563
0.0674312
0.0222576
0.0222304
0.0221799
4.09638
0.0282597
0.0460432
0.0697703
2.94181
0.0294476
3.03371
9.29184
0.0465617
0.0220477
1.95257
0.0499755
4.67277
0.0956808
2.99036
0.0220439
0.0647396
0.0624276
2.97829
0.0221189
0.0696037
2.95392
0.02203
4.07445
6.14766
4.15714
0.0220895
0.0221675
3.00121
0.0220892
3.52251
0.430588
3.04903
4.00992
0.0219245
0.771475
2.64503
3.7316
0.0271173
8.59709
0.0232432
0.0298548
0.0221082
3.84778
4.7394
0.0550743
3.78072
0.0221649
3.06768
3.70977
3.69564
0.0221317
0.0220999
2.92463
0.0992019
0.0219641
0.0220868
1.35971
7.92504
0.0220938
0.0220514
0.0221283
0.0221546
0.0247306
0.0220286
0.0240039