/*--------------------------------*- C++ -*----------------------------------*\
| =========                 |                                                 |
| \\      /  F ield         | OpenFOAM: The Open Source CFD Toolbox           |
|  \\    /   O peration     | Version:  v2012                                 |
|   \\  /    A nd           | Website:  www.openfoam.com                      |
|    \\/     M anipulation  |                                                 |
\*---------------------------------------------------------------------------*/
FoamFile
{
    version     2.0;
    format      ascii;
    class       surfaceVectorField;
    location    "100";
    object      ddtCorrDdt0(Uf);
}
// * * * * * * * * * * * * * * * * * * * * * * * * * * * * * * * * * * * * * //

dimensions      [0 1 -2 0 0 0 0];


internalField   nonuniform List<vector> 
20642
(
(0.0153371 -0.000559279 -6.17869e-19)
(0.0155999 -0.000614896 -5.50906e-18)
(0.0156199 -0.000410862 -4.32989e-18)
(0.00114077 -0.00742959 -6.76486e-19)
(0.000545735 -0.00831349 -3.2158e-19)
(-0.000110232 -0.00721823 -2.00579e-19)
(-0.00224862 0.00195027 -1.24128e-18)
(-0.00241579 0.00202601 -2.72495e-19)
(-0.00171433 0.00210586 -4.62287e-18)
(-0.000827331 -0.000363326 -5.11518e-20)
(-0.00083128 -0.000376172 1.44681e-19)
(-0.000810462 -0.000365639 4.89575e-21)
(0.000277389 -0.0063842 -1.54365e-19)
(-0.000400304 -0.00743963 3.37576e-19)
(-0.00103325 -0.00617448 1.63824e-19)
(0.00150647 -0.00617198 2.88935e-20)
(0.00230675 -0.00702283 2.6656e-19)
(-0.00141608 -0.000663704 9.68037e-21)
(-0.00137851 -0.000653508 7.01972e-19)
(-0.00139507 -0.000685785 1.04569e-19)
(-0.0194306 -0.0137307 2.43918e-19)
(-0.0227579 -0.0166267 -5.13663e-19)
(-0.0240777 -0.0118215 -5.25631e-20)
(-0.00150844 -0.000280068 1.93471e-19)
(-0.00150136 -0.00029936 -4.18232e-20)
(-0.00152953 -0.000294867 -8.72761e-19)
(0.00124599 -0.00484326 6.89154e-18)
(0.00350913 -0.00525742 1.1886e-17)
(-0.0170326 -0.0105777 -2.25224e-19)
(-0.0152205 -0.0140822 1.96458e-19)
(-0.000548605 -0.000393241 8.30454e-20)
(-0.000564894 -0.0004045 -4.90645e-19)
(-0.000564448 -0.000389295 1.45613e-19)
(-0.000131111 -8.0806e-06 6.87161e-19)
(-0.000138554 -6.22183e-06 5.11089e-19)
(-0.0114536 0.0412498 2.3913e-18)
(-0.00828822 0.0466723 -2.87866e-18)
(-0.00723065 0.046816 -3.06145e-18)
(0.00122717 -0.000528619 -9.35976e-20)
(0.00158921 -0.000657273 -1.66364e-18)
(0.00121673 -0.000900897 -5.34976e-19)
(0.0150031 -0.000541281 2.8084e-19)
(0.0143512 -0.00066417 1.12753e-18)
(0.000962698 3.61464e-06 1.8449e-19)
(0.000960034 3.30855e-06 -1.75636e-19)
(0.000759679 4.40139e-06 -3.13444e-19)
(-0.0158831 -0.00784412 6.42331e-19)
(-0.0144043 -0.00583354 4.12255e-19)
(-0.0132693 -0.00853875 -2.33643e-19)
(-0.00392494 0.000640133 2.52191e-18)
(-0.00391551 0.000783307 6.30159e-19)
(-0.00407364 0.000712358 1.1512e-18)
(0.012795 -0.0028409 7.19522e-18)
(0.0164713 -0.00268438 3.73378e-18)
(0.0163706 -0.00189251 3.53443e-19)
(-0.00195051 0.000499674 5.71545e-19)
(-0.00195715 0.000757939 5.49144e-19)
(-0.00215935 0.000592252 -1.15171e-19)
(-5.09908e-05 -0.000676229 -7.83681e-19)
(-6.41625e-05 -0.000649289 4.28753e-19)
(-8.66559e-05 -0.000692634 9.2316e-20)
(-0.00242219 -0.00103569 8.07704e-19)
(-0.00240883 -0.000962693 -8.20545e-19)
(-0.00249601 -0.00101866 -3.20286e-18)
(-2.6859e-05 -0.000706723 -7.87748e-19)
(-2.28144e-05 -0.000661343 1.91294e-19)
(-0.000869957 -0.000513778 -2.17946e-19)
(-0.000883656 -0.000519463 -1.6623e-19)
(-0.000873168 -0.000519304 2.19832e-19)
(-0.00316317 0.000854087 1.99529e-19)
(-0.0027895 0.000767613 -1.8721e-18)
(-0.00304649 0.00049645 -5.98027e-19)
(0.0241315 -0.0152001 1.12036e-18)
(0.0207606 -0.013422 -9.30053e-19)
(0.0241223 -0.0110412 -2.30868e-20)
(0.00124219 -0.00348984 -1.35285e-17)
(-0.00842292 -0.000460351 -1.5142e-18)
(-0.00731053 -6.74202e-05 -2.06905e-19)
(-0.00739728 -0.00119957 -7.41605e-19)
(0.000966246 0.000264929 2.96305e-20)
(0.000965376 0.000283432 1.01396e-20)
(0.000960228 0.000278572 -2.63374e-20)
(-0.000431287 -0.00156708 -1.23705e-19)
(0.00198752 -0.00195453 3.30793e-18)
(-0.00257607 -0.000149735 -1.49545e-19)
(-0.00255197 -0.000111082 -4.73991e-19)
(-0.00260669 -0.00012708 -3.46766e-19)
(-0.000764539 -0.000441307 -5.2038e-21)
(-0.000744877 -0.000435388 -1.64226e-19)
(-0.000756721 -0.000429125 2.08235e-19)
(0.01499 0.000186839 1.41442e-18)
(0.0152893 0.000326829 -8.43211e-19)
(0.0151106 0.000328265 -2.1903e-18)
(0.000811539 -0.000386078 1.65445e-19)
(0.000775898 -0.000329813 1.01127e-19)
(0.000841239 -0.000298042 1.68201e-20)
(-0.0227917 -0.0212952 -8.30177e-19)
(-0.0262915 -0.0192692 -3.06326e-18)
(-0.000924038 -0.000839048 9.86425e-20)
(-0.000954806 -0.000803897 4.19468e-19)
(-0.000988342 -0.000853284 -8.05968e-19)
(0.000379661 -1.19968e-05 1.35531e-19)
(0.00044235 -1.88574e-05 1.90818e-19)
(0.000357943 -9.66192e-06 -9.76132e-20)
(-0.00145331 -0.000673737 2.71342e-19)
(-0.00143343 -0.000642174 -1.15768e-18)
(0.000245531 0.000196542 1.41113e-19)
(0.000498725 0.000177833 -2.62787e-19)
(0.000298497 -3.22561e-05 -4.03049e-20)
(0.000495333 -8.95261e-06 -2.86765e-19)
(0.000406113 -3.7109e-06 7.97509e-20)
(0.000726253 2.49204e-05 -2.49896e-20)
(0.00116197 0.000241029 3.19983e-20)
(0.00119684 0.000384538 -1.1162e-19)
(0.00132861 0.000222966 -4.79957e-19)
(-0.00134995 -0.000246274 2.71732e-20)
(-0.0013334 -0.000264643 6.0604e-19)
(-0.00132019 -0.00024093 -6.78475e-20)
(-0.00310647 0.000669387 1.38263e-18)
(-0.00301187 0.000647566 -2.41685e-18)
(-0.00304457 0.000766466 -7.31237e-19)
(-0.00315842 0.000563978 -7.44495e-19)
(-0.00322941 0.000684313 3.82496e-18)
(-0.00975896 -0.0108125 7.72102e-21)
(-0.0114927 -0.00987415 2.17459e-18)
(-0.00904225 -0.010069 6.60183e-19)
(-0.00188386 0.000268551 1.57021e-19)
(-0.00170336 0.00038793 3.08525e-19)
(0.0324818 0.00515869 -4.14422e-18)
(0.0367598 0.00674425 -8.33519e-20)
(0.0400054 0.0113657 -6.22895e-18)
(-0.0189087 -0.0770251 1.77067e-18)
(-0.0230654 -0.075841 5.16924e-18)
(-0.0267423 -0.070512 1.62846e-18)
(0.000793914 -0.000448567 -3.45096e-20)
(0.000856499 -0.000431652 -6.53042e-20)
(-0.000533906 -0.000399418 1.25536e-19)
(-0.000532914 -0.000383569 -2.71508e-19)
(-0.00663715 -0.00418091 -3.72545e-18)
(-0.00696179 -0.00464957 6.69858e-19)
(-0.00635783 -0.00468733 -1.40012e-18)
(0.00950462 -0.000338836 1.67306e-18)
(0.0118939 -0.000454122 -2.39582e-18)
(0.00936766 -0.00035023 4.21189e-19)
(-0.000356647 -0.000532261 -3.48399e-19)
(-0.000338764 -0.000516808 -7.61483e-19)
(-0.000336728 -0.000530298 -3.9169e-19)
(-0.00041609 -0.000549426 1.32678e-19)
(-0.000396459 -0.000535335 8.04971e-20)
(-0.000414527 -0.000531342 1.04981e-18)
(-0.00647793 -0.00385157 -6.74236e-19)
(-0.00691529 -0.00376236 -2.6856e-19)
(0.00332262 -0.00114636 6.97264e-18)
(-0.00241695 -0.00109136 -3.02356e-19)
(-0.00237282 -0.00104527 -2.02799e-19)
(0.00111764 0.000109556 3.67216e-19)
(0.00102366 0.000198415 2.6696e-19)
(-0.00847768 -0.0120185 -1.2974e-18)
(-0.00947445 -0.0114545 -9.16221e-19)
(-0.0103948 0.0225121 2.69707e-19)
(-0.011467 0.0247184 -4.81212e-19)
(-0.00370271 0.0312071 4.62886e-19)
(0.00502698 0.0085416 -6.27215e-20)
(0.00653352 0.00736135 -2.66895e-19)
(0.00521337 0.00622037 -2.2593e-19)
(0.000578515 9.03548e-06 8.63006e-20)
(0.000617268 1.80452e-05 2.13661e-20)
(0.000681303 2.65855e-05 1.64882e-20)
(-0.000866567 -0.000505582 4.76327e-20)
(-0.000855226 -0.000507542 -8.24571e-20)
(0.0194392 0.0024649 2.40969e-18)
(0.0194557 0.00262477 4.49314e-18)
(0.0195056 0.00246817 8.55167e-18)
(0.00120346 -7.41696e-05 9.42874e-21)
(0.00122703 0.00011781 3.72283e-20)
(0.00104776 4.70559e-05 -1.12713e-20)
(-0.00925802 -0.00111956 -1.26362e-18)
(-0.0104747 -0.00188968 -1.51062e-18)
(-0.00902412 -0.0026685 -9.25989e-19)
(-0.0176545 -0.0226503 -7.22776e-19)
(-0.0234871 -0.0265297 -3.38428e-19)
(-0.0183781 -0.00666586 4.07099e-19)
(0.01359 -0.000298579 -3.19279e-18)
(0.013501 -0.000366698 1.12598e-19)
(0.0133517 -0.000384041 2.40708e-18)
(0.016933 0.00231711 -8.85321e-19)
(0.0164451 0.00247908 -9.56529e-19)
(0.0180807 0.00239936 -2.47662e-18)
(0.0148907 9.79284e-05 -1.27999e-18)
(0.0147396 0.00010772 3.87296e-18)
(-0.000656288 -0.0001921 3.16781e-19)
(-0.000677368 -0.000196252 2.98623e-20)
(-0.000658188 -0.00020299 -3.60434e-19)
(0.0010984 2.44039e-05 -1.24198e-19)
(0.00120321 1.38472e-05 2.36204e-21)
(-0.00193548 0.00103847 -6.85726e-19)
(-0.00169908 0.000874778 2.99203e-19)
(-0.000877136 -0.000544797 4.72052e-19)
(-0.000885638 -0.000540549 5.30485e-19)
(-0.000886646 -0.000545926 -1.17227e-18)
(-0.000616907 -0.00222843 -6.25095e-20)
(-0.000869131 -0.00238448 3.93913e-20)
(-0.000854066 -0.00199514 -6.79913e-19)
(0.00108069 -4.91794e-05 -8.61621e-20)
(0.0010175 -6.69366e-06 -2.0207e-19)
(-0.000867678 -0.000539948 1.31308e-19)
(-0.000864038 -0.000546539 1.80799e-19)
(-0.000771464 -0.000447864 1.73436e-20)
(-0.000781573 -0.000443413 -3.36404e-20)
(-0.000298666 -0.000632014 -3.66271e-19)
(-0.000286952 -0.000614223 -5.79254e-19)
(-0.000291538 -0.00061492 1.06442e-18)
(0.000940897 6.55694e-06 -6.03757e-20)
(0.000948721 5.94554e-06 -5.1818e-20)
(0.000771171 5.92914e-06 2.70505e-19)
(-0.000653693 -0.000180466 -4.68161e-19)
(-0.000634358 -0.000187274 -5.49369e-20)
(0.0170691 0.00118789 -7.63221e-18)
(0.0152545 0.00136115 2.07892e-18)
(0.0154189 0.00120674 2.27617e-18)
(8.44008e-06 -0.000100415 9.39643e-19)
(3.26941e-06 -0.00011279 -3.08251e-19)
(1.92834e-05 -0.000108149 2.60429e-19)
(-0.0220551 0.0145496 -2.22153e-18)
(-0.0170218 0.0179695 7.16295e-19)
(-0.0179801 0.0133284 -1.18405e-18)
(-0.00254286 -0.000179218 -1.71441e-18)
(-0.00259854 -0.000184817 9.51965e-19)
(2.43099e-05 -5.62549e-05 4.2819e-19)
(3.72079e-05 -5.66986e-05 -3.71439e-19)
(3.84783e-05 -4.18904e-05 3.61401e-19)
(2.89324e-05 0.000170651 9.20618e-20)
(0.000138757 0.000416814 -3.20431e-19)
(0.000951795 5.12809e-06 2.67295e-19)
(0.00103862 -4.44173e-07 2.72798e-19)
(0.00112482 -9.08172e-06 -1.69919e-19)
(0.00112499 -4.45468e-06 8.15234e-20)
(0.00113844 -9.79649e-06 5.09178e-21)
(-0.00137747 -0.000258896 -2.10677e-19)
(-0.0113773 -0.0746814 -1.72554e-19)
(-0.0097372 -0.0838691 -2.488e-18)
(0.000622603 -0.000277604 -1.85623e-19)
(0.000590391 -0.000263762 -1.98233e-19)
(0.000615718 -0.000282533 9.73835e-20)
(-0.000483616 -0.000673918 -9.41199e-21)
(-0.000457024 -0.000668363 -1.52226e-19)
(-0.000476891 -0.000692562 7.23791e-19)
(-0.00924171 0.000378326 2.5507e-19)
(0.0373499 0.00576076 4.93986e-19)
(0.0314805 0.0063152 -7.11266e-19)
(0.0357066 0.00997486 -2.15199e-19)
(0.000823165 -9.88224e-07 -2.72758e-19)
(0.000816786 -5.77605e-07 -6.43056e-19)
(0.000749091 5.43022e-06 -2.24014e-19)
(1.63965e-05 -6.67601e-05 1.23455e-18)
(1.44108e-05 -5.35639e-05 5.1824e-19)
(0.0144319 0.00452974 5.33537e-19)
(0.012342 0.00508852 -3.02074e-19)
(0.0133945 0.00690698 -2.16115e-19)
(0.000718051 1.92183e-05 -1.02433e-20)
(0.000725123 1.66496e-05 2.78785e-20)
(0.000520941 1.08267e-05 2.18741e-20)
(0.000725317 2.00761e-05 -1.4765e-19)
(0.000826982 1.48962e-05 -4.80856e-20)
(-0.000304659 -0.000648487 8.17226e-19)
(-0.000311801 -0.000645414 2.94896e-19)
(0.000770317 -2.6795e-05 2.94775e-19)
(0.000762068 -2.78927e-05 8.37718e-20)
(0.000775796 -1.69537e-05 -1.00097e-19)
(-0.000375649 -0.00199373 -5.31321e-19)
(-0.000297006 -0.00237257 1.90224e-19)
(0.0131768 -0.00104318 -8.92601e-19)
(0.0134772 -0.00107731 9.42843e-19)
(0.0147759 -0.00144927 1.87541e-18)
(0.0235573 0.00183341 1.42228e-18)
(0.0226672 0.000599007 -5.63744e-18)
(0.0244791 0.000387935 -2.70291e-18)
(0.00286858 0.00897989 5.0779e-19)
(0.00366443 0.0107761 1.75403e-19)
(0.00104267 0.000546442 1.96116e-19)
(0.00126515 0.000590074 -1.67514e-20)
(0.0271022 -0.0165842 6.57782e-19)
(0.0237291 -0.0189772 -1.12578e-18)
(-0.000260988 -1.4994e-05 8.9798e-19)
(-0.000264708 -1.76887e-05 4.22258e-19)
(0.0156463 0.000495016 -1.23376e-19)
(0.0155227 0.000344205 -2.13398e-18)
(-0.00644364 0.000299731 1.28192e-19)
(-0.00710017 0.00115125 1.02415e-18)
(0.0194064 0.00228774 -4.20557e-18)
(0.0191578 0.00246679 -8.9372e-18)
(-0.000925372 -0.000548926 2.79897e-19)
(-0.000928156 -0.000535729 9.11089e-20)
(-0.000910555 -0.00054823 -5.16573e-19)
(-0.00392116 0.000467214 1.47913e-18)
(-0.00377491 0.000558496 2.46749e-18)
(0.0010922 1.50545e-05 -9.75395e-21)
(0.00113379 2.17485e-05 -1.3561e-19)
(0.00111054 1.95243e-05 -6.567e-20)
(-0.00308134 0.00190283 4.35299e-19)
(-0.0029329 0.00184821 5.16676e-18)
(-0.00300989 0.00174827 4.40001e-18)
(-0.00060561 -0.000111027 -1.45172e-18)
(-0.000610876 -0.000122876 -3.5776e-19)
(-0.000591246 -0.000116497 -1.45571e-19)
(0.00100176 3.176e-06 -1.49463e-19)
(0.000925185 7.03406e-06 -9.53533e-20)
(0.00116148 -0.00015923 -3.54612e-19)
(0.00118008 -0.000210329 4.23276e-19)
(0.00114108 -0.000177664 9.06002e-20)
(-0.011535 -0.00303586 9.9876e-20)
(-0.0117702 -0.000980149 -9.00328e-19)
(-0.0048428 -0.000877061 -3.13627e-21)
(-0.0049415 -0.00108806 4.8269e-19)
(-0.00469605 -0.00106058 5.64248e-19)
(0.0118839 -0.00053991 -9.92656e-19)
(0.012136 -0.000462972 5.59232e-19)
(0.0120104 -0.000509599 3.3463e-18)
(0.0178782 0.00120161 3.8296e-18)
(0.0178995 0.000999124 -5.63392e-18)
(-0.000863521 -0.00049826 3.01537e-20)
(-0.000860642 -0.000489622 -2.11265e-19)
(-0.000848308 -0.000491314 -9.64482e-20)
(-0.00218964 0.00122058 8.60201e-19)
(-0.00186474 0.00136718 -2.14253e-19)
(0.000344568 -0.000461374 2.03966e-19)
(0.000367485 -0.000470026 -8.69772e-19)
(0.000365811 -0.000444012 -6.9774e-19)
(-0.00467874 -0.000728268 -1.37828e-18)
(-0.00493837 -0.000729741 1.46912e-19)
(-0.00189529 -0.000476028 -2.75392e-19)
(-0.00191551 -0.000495618 2.75361e-19)
(-0.00192713 -0.000468803 -5.64112e-19)
(0.00283639 -0.0151201 -4.55079e-20)
(0.00258647 -0.0139924 -5.27075e-19)
(0.00156831 -0.0153276 -1.87269e-19)
(0.0174721 -0.00109933 -3.63524e-18)
(0.0170613 -0.00108558 8.39159e-19)
(0.0171043 -0.000993253 -4.0615e-18)
(-0.000947871 -0.000547757 9.78296e-20)
(-0.000923879 -0.000562813 -1.4347e-19)
(-0.00267929 6.144e-05 9.903e-19)
(-0.00272595 9.09504e-05 2.86637e-18)
(-0.00266979 0.000110065 2.02899e-19)
(0.0287998 -0.0176719 1.07736e-18)
(0.0306511 -0.0137768 1.1077e-18)
(-0.0224019 0.013993 7.79267e-19)
(-0.022541 0.0130033 -1.33062e-19)
(-0.0278064 0.00653794 3.20939e-19)
(0.011429 -0.000614289 5.9296e-19)
(0.0114287 -0.000636973 1.28017e-18)
(0.0117696 -0.000659673 -6.56689e-19)
(-0.00407843 0.000935072 8.66845e-19)
(-0.00353038 0.000916368 6.21491e-19)
(-0.00387223 0.000495285 -2.14025e-19)
(0.000391304 -1.1841e-05 3.12172e-19)
(-0.0115408 0.0174728 -2.50541e-18)
(-0.0256619 0.0282701 -5.33217e-19)
(-0.0245423 0.0438193 -5.00151e-19)
(0.00113847 -0.000102767 -3.81822e-19)
(0.00108202 -9.67265e-05 7.49041e-20)
(0.0134548 -0.00130627 1.93197e-18)
(0.0101643 -0.000848869 -1.14817e-18)
(8.25928e-05 -0.000411454 1.24914e-19)
(9.83406e-05 -0.000403248 1.7469e-19)
(9.30992e-05 -0.000422556 -1.05871e-19)
(-0.000592396 -0.000194429 -2.02467e-19)
(-0.000609856 -0.000200112 9.52827e-20)
(-0.00059654 -0.000205969 1.1344e-19)
(-0.000321053 0.00281489 -6.14104e-21)
(-0.000905266 0.00205115 1.35593e-19)
(-0.000174473 0.00203404 -1.9905e-19)
(0.0157174 0.00245072 -6.39643e-19)
(0.0175838 0.00203074 1.19861e-19)
(-0.0080896 0.00111567 -3.91857e-19)
(0.034119 0.0030522 1.23941e-17)
(0.0320763 0.00142695 3.83186e-18)
(0.0289665 -0.00302425 1.51246e-18)
(-0.000377252 -0.000534664 -1.47144e-19)
(-0.000374532 -0.000548629 -9.2507e-21)
(-0.000155537 0.000145553 -5.32621e-20)
(-0.000303987 0.000112966 1.33311e-19)
(-0.000258174 0.000302145 3.51684e-19)
(0.000681635 1.48142e-05 8.31027e-20)
(0.000722413 1.7888e-05 8.72165e-22)
(0.000818377 3.37503e-05 5.21662e-20)
(-0.00057451 -0.000189086 1.2806e-19)
(-0.000587381 -0.00018319 -3.19061e-19)
(0.0372893 0.00100837 -2.84998e-20)
(0.0422749 0.00497036 6.48589e-20)
(0.000380629 -0.000826781 -3.82095e-19)
(0.000426998 -0.000905865 -5.47953e-20)
(0.000468565 -0.000794768 2.21419e-19)
(0.00077965 -2.6483e-05 2.75194e-19)
(0.000768257 -3.60855e-05 5.9834e-19)
(0.0169626 -0.00123198 3.54883e-19)
(0.0168908 -0.0012929 -2.66045e-18)
(0.0164916 -0.00120058 -5.41998e-19)
(0.00092834 1.3845e-05 6.70432e-20)
(0.000924377 1.32544e-05 6.57802e-21)
(0.00068405 6.57883e-06 -3.94156e-20)
(0.00106337 1.4124e-05 1.16833e-19)
(0.00100272 9.60187e-06 1.15256e-19)
(3.91863e-05 -0.0002313 -2.23009e-19)
(2.5941e-05 -0.000242879 1.73955e-19)
(4.51848e-05 -0.000244644 -3.37673e-19)
(0.0175659 0.0100101 3.25003e-18)
(0.0181507 0.00899994 -2.15693e-18)
(0.0184874 0.0103097 1.92245e-18)
(-0.00116332 -0.00151739 -3.36029e-19)
(-0.00115356 -0.00138178 -6.02916e-19)
(-0.0010142 -0.00145872 -1.98208e-19)
(0.00642545 -0.00572329 -7.64941e-20)
(0.00966835 0.0291969 -7.45666e-20)
(0.0130484 0.028834 5.56519e-18)
(0.00838949 0.0263699 3.4369e-19)
(0.0200714 0.00678354 -1.11793e-18)
(0.0185233 0.00512684 -2.15399e-20)
(0.0180236 0.00787915 9.46261e-19)
(0.00959247 -0.000410736 -5.12786e-18)
(0.0411553 0.0388715 5.6104e-18)
(0.0383288 0.0375735 2.20761e-18)
(0.0379797 0.0411424 -5.06644e-19)
(0.000790426 0.000127854 2.50716e-22)
(0.000794022 0.000140641 -9.01358e-21)
(0.000778858 0.000140215 1.00884e-21)
(-0.00463535 0.000864489 1.64554e-18)
(-0.0042118 0.00148407 -4.10685e-19)
(-2.78548e-05 -0.000738518 4.62155e-21)
(-2.96898e-05 -0.000773134 -4.64069e-19)
(-7.69077e-05 -0.00075808 2.40634e-19)
(0.0173671 -0.000241498 9.42898e-19)
(0.0174199 -0.000370146 -1.40407e-18)
(0.0168353 -0.000336704 -1.61756e-18)
(-0.00148987 -0.00026214 1.16369e-19)
(-0.0198058 0.0105112 -5.88399e-19)
(-0.0151382 0.0169289 1.93128e-20)
(-0.0220704 0.0098963 7.02307e-19)
(-0.00202831 -0.00453912 3.84802e-19)
(-0.002146 -0.00426575 -2.15012e-19)
(-0.00235624 -0.00457552 -2.87999e-19)
(0.000799728 2.22958e-05 -1.1477e-19)
(0.00092695 3.12839e-05 -9.45066e-20)
(0.000783569 2.23568e-05 -7.10791e-20)
(-0.000847544 -0.00036229 -1.02287e-20)
(-0.000826312 -0.000351975 -2.86249e-21)
(-0.00727586 -0.00509526 -1.43178e-18)
(-0.00779396 -0.00564587 -1.07829e-18)
(-0.00698058 -0.00568401 -1.76308e-18)
(-0.00187377 -0.0004554 -9.4352e-19)
(-0.00186183 -0.000482068 8.673e-19)
(-0.0013167 -0.00156775 -1.43157e-19)
(-0.00115492 -0.00167365 1.82537e-19)
(-0.00131706 -0.000278776 1.97461e-19)
(-0.00129143 -0.000274091 -2.7469e-19)
(-0.00130171 -0.000296156 -2.58055e-19)
(1.1945e-05 -0.000720368 1.04586e-19)
(-0.000522113 -0.000404027 -9.76473e-20)
(-0.000537258 -0.000413365 -5.94882e-19)
(-0.00964639 -0.00096955 2.66589e-18)
(-0.00878661 -0.00088749 6.82907e-20)
(-0.0099917 -0.000449563 5.99358e-19)
(-0.00324046 0.0019625 -2.1184e-18)
(-0.00302091 0.00208881 -6.78937e-18)
(0.00414666 -0.0147664 1.33002e-19)
(0.00235242 -0.0162548 1.59343e-19)
(-0.000505804 -0.000394903 7.44475e-19)
(-0.000507904 -0.000409566 3.83822e-19)
(-0.011538 -0.000930721 6.84314e-19)
(-0.00966112 -0.00172232 8.33536e-19)
(0.000971997 0.000257284 -5.37849e-21)
(0.000966219 0.000252523 9.49716e-21)
(-0.0223468 0.0112946 1.41947e-18)
(-0.0191014 0.0136649 -1.12625e-18)
(-0.00165414 -0.00457374 6.9121e-20)
(-0.0018931 -0.00492426 -1.65288e-19)
(-0.00319752 0.000459406 -2.02431e-18)
(-0.00308219 0.000457322 6.70578e-19)
(-0.00790728 -0.000830042 2.07695e-18)
(-0.00731205 -0.000795942 8.71288e-19)
(-0.00752548 -0.00120292 -1.21001e-18)
(0.0157383 -0.00067204 -7.0184e-20)
(0.0160138 -0.000577297 1.62577e-18)
(0.0159183 -0.000765236 4.04347e-18)
(0.000629493 -0.000270173 3.64692e-19)
(0.00063834 -0.00028904 -4.91852e-20)
(0.012224 -0.000438908 -1.24934e-18)
(0.0123332 -0.000397434 -1.60821e-18)
(0.0121033 -0.000475363 8.84735e-19)
(-0.000945425 -0.000659583 2.39958e-20)
(-0.000928184 -0.00066271 -3.01576e-20)
(-0.000932263 -0.000640408 -3.24644e-20)
(0.017815 -0.00111061 -6.18686e-19)
(0.0177925 -0.00121928 5.44172e-19)
(0.000747352 -0.00028311 1.97481e-20)
(0.000727625 -0.00034423 1.66438e-19)
(0.000332719 -0.000758892 -2.49e-19)
(0.000294136 -0.00082755 -8.70115e-19)
(-0.00164328 1.0367e-05 4.22402e-19)
(-0.00151736 8.08359e-05 -2.97567e-19)
(-0.00152708 -7.58756e-05 4.6464e-19)
(0.0137772 -0.000384474 -1.55546e-19)
(0.0136334 -0.000370143 -3.45386e-18)
(0.0138964 -0.000291584 -1.62339e-19)
(0.011385 -0.000584885 -1.14851e-18)
(0.0107766 -0.000540341 -1.61309e-19)
(-0.00072429 -0.000912374 4.87751e-20)
(-0.000768796 -0.000943281 -2.06706e-19)
(-0.000716968 -0.00096173 -1.23381e-19)
(0.0153256 -0.0173033 -2.58829e-21)
(0.0131545 -0.0156436 2.59542e-19)
(0.0133682 -0.0183979 -3.18497e-19)
(-0.00411286 -0.00261975 -3.24156e-20)
(-0.00389091 -0.00318404 1.43527e-19)
(-0.00358034 -0.00259439 8.15876e-19)
(-6.57617e-05 -1.33357e-05 -1.24547e-19)
(0.00119862 -0.000122619 -1.13576e-19)
(-0.00755805 -0.00450123 1.85134e-18)
(-0.000280262 -0.000598263 1.87863e-19)
(-0.000283056 -0.000609186 -5.60236e-19)
(0.000494737 -0.000341303 -5.92794e-20)
(0.000502058 -0.000326441 -2.62929e-19)
(0.000511538 -0.000340935 -1.03785e-19)
(0.00180834 -0.0144095 1.85405e-19)
(0.00326562 -0.012675 -5.01877e-19)
(0.000281233 -0.0123209 1.65564e-18)
(0.00327515 -0.0168968 5.054e-20)
(-0.000536168 -0.0166566 -1.24368e-18)
(0.038755 0.00960187 1.94923e-18)
(-0.00267173 1.44465e-05 -3.55706e-19)
(-0.0026243 3.66146e-05 -2.38218e-18)
(-0.00321912 0.00129268 6.89187e-19)
(0.0202726 0.00338589 -4.99761e-19)
(0.0204655 0.00394951 3.15575e-18)
(0.0201953 0.00385912 -1.1229e-18)
(0.00029816 -3.37986e-05 1.75069e-19)
(0.000292434 -2.28262e-05 8.96361e-20)
(0.000275061 -4.15473e-05 4.47372e-19)
(0.00124221 -0.000195657 -6.13323e-20)
(0.00123614 -0.00021231 -2.69009e-20)
(0.00122531 -0.000193511 3.21367e-19)
(0.0012599 -0.000196444 -2.3258e-19)
(0.00124672 -0.000176504 -4.52335e-19)
(0.044132 0.0362023 3.34343e-18)
(-0.00827579 -0.000983582 -2.31135e-18)
(-0.00831568 -0.000904523 1.40569e-18)
(-0.00849828 -0.00141187 -2.9345e-18)
(-0.0128484 -0.00107685 -3.76535e-19)
(-0.0104105 -0.00187675 -1.31633e-18)
(-0.0133351 -0.00208412 1.91747e-18)
(-0.000229571 -6.33458e-05 4.98535e-20)
(-0.00023634 -7.10027e-05 1.71809e-19)
(-0.000239341 -6.29013e-05 -6.14832e-19)
(0.000543574 7.47269e-06 -2.2229e-20)
(0.00040137 1.86028e-06 3.90834e-22)
(0.0262024 -0.0216846 9.99564e-19)
(0.0294294 -0.0184098 -1.02662e-18)
(0.0123113 -0.000407404 3.47501e-18)
(0.00119853 -0.000158989 -1.31399e-19)
(0.00120793 -0.000164681 -1.92576e-19)
(0.00119393 -0.000170215 1.15482e-19)
(0.00118642 -0.000152121 -9.12541e-20)
(0.00120154 -0.000146536 2.45121e-19)
(0.000690884 -1.28431e-05 3.93562e-20)
(0.000355945 -6.85282e-06 -5.27586e-20)
(0.00127797 -0.000194815 1.7091e-19)
(0.00127304 -0.000216774 4.19986e-19)
(0.00129814 -0.000189411 -1.99813e-19)
(0.00128186 -0.000169882 1.42565e-20)
(0.0147649 -6.70594e-05 1.1977e-19)
(0.0149784 1.83343e-05 -3.25896e-18)
(0.0398098 0.0133372 -2.28248e-19)
(0.0414162 0.0173153 -5.52171e-18)
(0.035415 0.0163701 -2.75098e-18)
(-0.000231487 -0.000584 -1.28321e-19)
(-0.000210242 -0.000581058 3.44031e-19)
(-0.000221111 -0.000574728 -1.16612e-18)
(0.000831536 0.000207762 -2.61829e-20)
(0.00084226 0.000212158 3.90999e-20)
(0.000842844 0.000190723 1.91723e-20)
(-0.0040482 -0.00290071 1.62913e-18)
(-0.00389186 -0.00318182 -2.04296e-19)
(-0.00375333 -0.00291507 -6.02468e-19)
(0.0139341 -1.91389e-06 -2.18526e-18)
(0.0139242 -0.000103291 4.28505e-19)
(0.014103 1.99044e-05 7.66854e-19)
(0.00101808 1.5421e-05 -6.06903e-21)
(0.000903084 1.54019e-05 4.11898e-21)
(0.000899454 1.44253e-05 -7.46542e-20)
(-0.000220892 -6.46753e-05 3.03843e-19)
(-0.000223709 -5.72051e-05 2.21616e-19)
(0.0181937 -0.015319 -9.31217e-19)
(0.0180353 -0.0190002 1.23706e-18)
(0.0134615 -0.00144113 4.25078e-19)
(0.0135956 -0.00153273 1.80579e-19)
(0.0105544 -0.00118143 -4.29159e-18)
(-0.00822914 -0.000452472 -1.88909e-18)
(0.0199919 0.00303227 1.36298e-18)
(0.0201872 0.00293239 -1.1209e-19)
(-0.00340483 -0.0065614 2.90464e-19)
(-0.00289324 -0.00680945 3.04939e-19)
(-0.00339753 -0.00712828 4.13148e-19)
(7.45092e-05 -0.000402247 4.07106e-19)
(6.82572e-05 -0.000420083 -6.57318e-19)
(0.0337526 0.0339255 2.29014e-18)
(0.029668 0.0347773 -2.9241e-18)
(-0.00418553 -0.00270124 2.63118e-19)
(-0.00432133 -0.00294459 1.51008e-18)
(-0.00583266 0.000573837 -7.70424e-19)
(-0.00596504 -0.000257985 1.51585e-18)
(-0.00336171 -0.00039018 -3.56221e-18)
(-0.0034741 -0.000364005 1.09e-18)
(-0.00339052 -0.000274135 -4.727e-18)
(-0.000679688 -0.000885146 5.25493e-19)
(-0.000726832 -0.000870303 3.69345e-19)
(0.0370012 0.0105913 6.86676e-18)
(-0.000616785 -0.000133432 4.83911e-19)
(-0.00060469 -0.000137988 1.23138e-20)
(-0.00062177 -0.00014486 2.37135e-19)
(-0.000187866 -0.00175049 1.89251e-19)
(-8.55602e-05 -0.00182942 6.70584e-20)
(-0.000262113 -0.00187451 -1.3809e-19)
(-0.002031 -0.00400624 -2.53644e-19)
(-0.00199757 -0.00367729 4.86679e-19)
(-0.00173548 -0.0038663 7.68625e-20)
(-0.00025802 -0.000607015 2.805e-19)
(-0.000241383 -0.00059266 5.13109e-19)
(-0.000234797 -0.00060764 -3.82751e-19)
(0.000408121 7.5583e-06 1.16727e-19)
(-0.000878665 -0.000505112 5.96581e-20)
(0.00391762 -0.00325928 5.64561e-19)
(0.00337263 -0.00253274 -1.71022e-19)
(0.00431745 -0.00210565 -3.30832e-19)
(0.000315568 -0.000252125 -7.57191e-20)
(0.000323995 -0.000174126 -3.46614e-19)
(0.000213064 -0.000187787 -1.15981e-19)
(0.0125513 -0.000350661 3.15508e-18)
(0.0124118 -0.000366583 -1.63291e-18)
(0.0123188 -0.000399812 -1.97703e-18)
(-0.00707372 -0.0466521 5.04652e-19)
(-0.014254 -0.0369222 3.79857e-19)
(-0.0169305 -0.0483993 6.50552e-19)
(0.00124888 -0.000486596 -3.24073e-19)
(0.00119447 -0.000518488 4.98112e-19)
(0.00119568 -0.00044855 9.80555e-20)
(0.00117385 -0.000151184 -5.1358e-19)
(0.00117631 -0.00014047 -1.95459e-19)
(0.000364647 -0.00099973 4.09237e-20)
(0.000495199 -0.00100827 -2.33696e-19)
(0.00116934 -0.000159699 -3.41252e-19)
(0.00116273 -0.000146833 4.7457e-19)
(-0.000631357 -0.000128012 8.83948e-19)
(-0.000165847 -1.32967e-05 -4.60365e-19)
(-0.000120421 -7.53894e-06 -1.29361e-20)
(-0.00160839 -0.00138031 1.25205e-18)
(-0.00167687 -0.00143242 5.27883e-19)
(-0.00160309 -0.00146788 8.13287e-20)
(0.0013003 -0.000438119 -7.80308e-19)
(0.0013096 -0.000534614 -3.80117e-20)
(0.0117997 -0.000733788 2.09662e-18)
(0.0120732 -0.000770184 -4.97033e-19)
(0.0240674 0.00286036 3.32807e-18)
(0.0232435 0.00258327 4.34766e-18)
(-0.000381247 -0.000381638 7.27651e-19)
(-0.000378727 -0.000365915 7.2351e-19)
(-0.000362702 -0.000375114 -4.77489e-19)
(0.00167132 -0.00215298 1.48941e-19)
(0.00189845 -0.0026419 1.48056e-19)
(0.00130113 -0.00254751 1.56693e-19)
(-0.00727224 -0.0126743 -6.26315e-20)
(-0.00731609 -0.0136003 -1.22102e-18)
(-0.00709065 -0.0132115 1.31722e-19)
(0.00134553 5.04966e-05 -1.10202e-19)
(0.00135286 4.97586e-05 -3.17162e-19)
(0.00133536 4.41644e-05 4.57261e-20)
(0.00939913 0.00564917 2.92836e-19)
(0.0105566 0.00517717 -2.56309e-19)
(0.00910526 0.00412127 1.07935e-18)
(0.0128116 -0.00029746 4.11614e-18)
(0.0127192 -0.000346006 -9.99686e-19)
(0.00133786 5.06889e-05 1.02817e-19)
(0.00135577 5.43364e-05 -6.95182e-21)
(0.0137597 -0.000203051 -5.27786e-18)
(0.0136044 -0.000220583 -2.73973e-18)
(0.000325827 -0.000340281 -2.41225e-19)
(0.000394202 -0.000293608 2.45441e-19)
(0.0165201 0.00953021 6.89406e-19)
(0.0165343 0.0111945 -2.39951e-18)
(0.000788627 2.07617e-05 -7.91757e-20)
(0.000577193 1.1515e-05 2.30938e-19)
(0.000686707 -0.000426779 -6.48317e-20)
(0.000605027 -0.000178522 -8.94818e-19)
(0.000469184 -0.000399486 -8.67736e-19)
(-0.000279264 -0.000612849 -1.41389e-19)
(-0.000277777 -0.000598107 -1.31937e-19)
(0.000145683 -0.000426739 9.58515e-20)
(0.000164096 -0.000419801 -2.75067e-19)
(0.000155555 -0.000410893 9.07914e-19)
(-0.0056321 0.00127681 1.6115e-19)
(-0.00546508 0.00107195 -1.64446e-18)
(-0.00539976 0.00131254 -3.55889e-18)
(0.000552988 -2.79128e-05 1.23497e-20)
(0.00053936 -2.67721e-05 -5.98096e-20)
(0.000538113 -1.52709e-05 6.61625e-20)
(0.022809 0.00705438 1.09338e-19)
(0.0211473 0.00394362 3.42737e-20)
(-0.000766054 -0.000663211 7.14733e-20)
(-0.000727912 -0.000643287 2.67374e-20)
(-0.000770845 -0.000618319 2.8544e-20)
(0.000351302 0.00339125 9.20966e-20)
(-0.000797247 0.00374568 1.29723e-19)
(0.00880964 -0.0158876 5.22914e-19)
(0.0106733 -0.0145269 -1.06474e-18)
(0.00985276 -0.0132673 3.77669e-20)
(0.0114466 -0.000666529 2.15833e-18)
(0.00109091 1.78021e-05 -2.06347e-19)
(0.00108537 1.79845e-05 1.51527e-19)
(-0.00265024 -0.00165374 -5.70622e-19)
(-0.0027741 -0.0016386 -1.17571e-18)
(-0.00267515 -0.00153139 -1.80903e-18)
(0.00253836 -0.0051128 -5.08116e-19)
(0.00341889 -0.0041766 9.45055e-19)
(0.00229572 -0.00409611 4.83247e-19)
(-0.00096844 -0.000547132 1.23291e-19)
(-0.000997526 -0.000546409 -1.93543e-19)
(-0.00096941 -0.000568108 2.76551e-19)
(0.00140854 -0.00590463 -4.51877e-20)
(0.000594265 -0.00506043 1.03797e-18)
(-0.000860962 -0.000536496 -7.54059e-20)
(-0.000872534 -0.000536103 3.51746e-20)
(0.000558149 -0.000261107 2.95274e-20)
(0.000510631 -0.000258994 6.57668e-20)
(0.000554956 -0.000286172 2.09871e-19)
(0.000552829 -3.92779e-05 1.36192e-19)
(0.000568492 -2.78658e-05 -4.05041e-19)
(-0.00634289 -0.00697243 8.17205e-19)
(-0.00723792 -0.00703406 1.52362e-18)
(-0.00663679 -0.006305 9.47674e-19)
(-0.026737 0.00273783 7.60617e-19)
(-0.0322919 -9.50648e-05 9.53115e-20)
(-0.0256527 -0.00307768 -6.07601e-19)
(-0.000321823 -0.0016714 1.39613e-19)
(-0.000152653 -0.00161578 8.87892e-20)
(-0.000855427 -0.00053109 -3.14471e-19)
(-0.000848726 -0.000535221 -5.86844e-20)
(-0.000213667 -6.47636e-05 -3.20336e-20)
(-0.000208419 -5.76737e-05 -5.91282e-19)
(-0.000205251 -6.46559e-05 -6.4355e-19)
(0.0170246 -0.00116389 4.63818e-18)
(0.0173935 -0.001274 2.37857e-18)
(0.0137793 -0.000466375 2.23083e-18)
(0.0129901 -0.000479147 1.3506e-18)
(0.00044524 -0.00048407 1.62557e-19)
(0.000471031 -0.000483117 4.09834e-20)
(0.000459812 -0.000460355 -9.52198e-19)
(0.00135618 0.00101815 2.38658e-20)
(0.00114663 0.0010053 -2.43467e-19)
(0.00131452 0.000853617 5.29955e-20)
(-0.000966403 -0.000528579 2.20663e-19)
(-0.0277121 -0.0883952 1.75999e-18)
(-0.00858287 -0.079477 -2.89442e-18)
(-0.00635913 -0.072294 1.05817e-18)
(-0.00213989 0.000501208 -3.55067e-20)
(-0.0020802 0.000549155 3.08418e-19)
(-0.00208639 0.000456214 -7.19203e-19)
(0.0210865 0.00135159 3.06292e-18)
(0.0205427 0.000510928 1.0578e-17)
(0.0216331 0.000571509 2.30147e-18)