/*--------------------------------*- C++ -*----------------------------------*\
| =========                 |                                                 |
| \\      /  F ield         | OpenFOAM: The Open Source CFD Toolbox           |
|  \\    /   O peration     | Version:  v2012                                 |
|   \\  /    A nd           | Website:  www.openfoam.com                      |
|    \\/     M anipulation  |                                                 |
\*---------------------------------------------------------------------------*/
FoamFile
{
    version     2.0;
    format      ascii;
    class       surfaceScalarField;
    location    "550";
    object      meshPhiCN_0;
}
// * * * * * * * * * * * * * * * * * * * * * * * * * * * * * * * * * * * * * //

dimensions      [0 3 -1 0 0 0 0];
oriented        oriented;


internalField   nonuniform List<scalar> 
20537
(
0.000203171
2.65771e-05
-0.000233049
-0.000301762
0.000220474
8.15056e-05
2.48547e-05
0.000129009
-0.000155155
0.000356723
-0.000204813
-0.000155082
-9.73004e-05
-4.95065e-05
0.000145417
-0.000206838
-8.39693e-05
0.000289507
0.000140497
-9.91564e-05
-4.34159e-05
-7.45043e-05
0.000168483
-9.57844e-05
0.000129079
-0.000178587
4.29572e-05
-0.000217102
0.000101404
0.000114539
6.7187e-05
-0.000187038
0.000119478
0.000151074
7.66971e-06
-0.000158775
-7.2507e-05
9.87175e-05
-2.67736e-05
-3.35149e-05
-7.10954e-05
0.000104951
1.46188e-05
2.12929e-05
-4.29706e-05
0.000124297
6.60889e-05
-0.000192599
-0.000216965
7.69165e-05
0.000137215
4.62836e-05
0.000160723
-0.000209158
-7.01476e-05
-4.66013e-05
0.00011596
0.000168838
-4.65939e-05
0.000172462
0.000180033
0.000176673
-0.000153261
1.04597e-05
-2.18258e-06
-1.17108e-05
-1.32479e-05
1.28164e-05
-6.50111e-06
1.42915e-06
5.67913e-06
9.85556e-05
-0.000175006
-0.00014725
0.000103147
4.24096e-05
2.21741e-05
1.63881e-05
0.000286449
-8.66199e-05
0.00026861
-5.34577e-05
-0.000218258
7.83618e-05
-0.000286391
-0.000104338
-0.000115337
0.000191067
-6.35423e-05
0.00014436
8.30623e-05
-0.000227665
7.54582e-06
-2.78195e-05
6.01844e-05
4.33189e-06
-6.46787e-05
-7.55933e-05
4.29109e-05
3.2427e-05
-6.55983e-05
-6.89627e-05
0.000133764
-0.000154797
-6.32358e-05
0.000310532
-0.000166481
0.000229127
-0.000118819
-0.000115423
-2.72704e-05
-8.39615e-06
3.41677e-05
-5.38402e-05
1.72418e-05
3.65762e-05
-0.000131411
-4.63124e-05
0.000177595
4.02556e-05
-0.000171703
-8.52094e-05
4.88875e-05
3.61639e-05
-4.69228e-05
0.00017244
-0.000125365
0.000292572
-9.09897e-05
-0.000201849
-0.000101304
-4.74418e-05
-0.000295657
0.000258282
3.51906e-05
7.6597e-05
-0.000121603
4.35063e-05
-5.02839e-05
0.000110957
-6.15869e-05
-2.78796e-05
5.34904e-05
-2.55413e-05
-8.08749e-06
1.98898e-05
-1.83542e-05
8.76374e-06
1.46431e-05
-3.1376e-05
7.42011e-06
-3.60287e-05
6.27948e-06
-2.70841e-05
1.56849e-05
3.7462e-05
3.03212e-05
-6.77774e-05
0.000202214
6.28527e-05
-0.000111173
0.00015275
-4.42951e-05
-0.000139142
7.26249e-05
8.13602e-05
1.86803e-05
-0.000100347
-0.000108909
-0.000161013
0.000268557
4.73136e-05
7.72467e-05
-0.000125592
-0.00024366
5.42546e-05
0.000188693
-8.63221e-05
0.000259067
-0.000175124
-3.74525e-05
-3.82442e-05
-2.78186e-05
0.000174111
-7.95069e-05
-5.57414e-05
0.000134154
0.00021558
-0.000171563
3.87443e-05
-4.34981e-06
-3.44072e-05
-2.01552e-05
-3.69517e-05
5.69934e-05
-0.000183389
-0.000117988
-3.14175e-05
1.55067e-05
4.81019e-05
-1.32795e-05
-4.25178e-05
-6.92718e-05
-0.000110107
0.000174763
4.15956e-05
0.000133977
-4.65613e-05
6.229e-05
-1.57674e-05
0.000149454
-9.65809e-05
-5.45068e-05
1.08512e-05
-3.62987e-05
-0.000175742
6.99231e-05
0.000102869
-1.15626e-05
1.67101e-05
-4.98946e-06
8.79506e-05
-0.000143928
5.05439e-05
-4.77197e-05
8.38361e-05
-3.63005e-05
0.000140745
-0.000251015
-1.1362e-05
0.000162409
8.81341e-05
-0.000280826
0.000191165
-0.000191463
0.000150872
4.04488e-05
0.000126838
3.00316e-05
-0.000159249
-0.000224949
0.00017269
4.81983e-05
8.18193e-05
-2.18743e-05
0.000366414
-0.000218072
-0.000150211
0.000118682
0.00015741
-7.26874e-05
-8.6359e-05
0.000209353
-8.49171e-05
1.27079e-05
1.52634e-06
-1.89773e-05
-0.000130308
3.16807e-05
9.47641e-05
-7.46938e-05
-2.03773e-05
-0.000237982
-5.95107e-05
1.0229e-05
-3.22611e-06
8.91269e-05
-8.49595e-05
-3.94373e-06
-7.20957e-05
-6.01905e-05
0.000130686
0.000255565
-0.000123086
-0.000136219
9.22818e-05
-0.000108586
2.29523e-06
-3.5184e-06
3.74351e-07
-8.95119e-05
-0.000183172
0.000271248
5.27889e-05
6.16031e-05
-0.000115912
-1.57539e-05
-3.55405e-06
1.82959e-05
3.596e-05
-5.00551e-05
-0.000280617
0.000195371
-1.05774e-05
9.4219e-06
-4.20822e-06
-0.000167473
-6.15529e-05
0.00021013
0.000154325
-3.70075e-06
-2.77495e-06
-2.25412e-05
6.27961e-06
-0.000110779
0.000246596
5.33622e-05
4.10001e-05
2.63607e-05
-1.83168e-05
-9.56049e-06
-1.46069e-05
-6.52576e-06
1.35972e-05
-2.78452e-05
7.67192e-06
1.30935e-05
-5.44605e-05
6.51121e-07
-4.70084e-05
0.000137895
3.38642e-05
-0.000106909
0.000298427
9.58339e-05
0.000196296
-2.47168e-05
0.00012212
-9.92785e-05
0.000300239
-0.000204842
0.000119553
-1.11637e-05
-0.000109719
0.000316583
-0.000147619
-4.3142e-05
0.000110734
-6.83772e-05
0.000106669
0.000116751
4.00418e-05
-0.000116677
6.97128e-05
3.17455e-06
3.55422e-05
-4.30461e-05
0.000125283
0.000140077
-2.80227e-05
-1.41181e-05
3.53642e-05
1.06117e-05
1.37743e-05
-3.51031e-05
-2.49433e-05
5.99087e-05
0.000134212
-8.04136e-05
-5.37444e-05
7.90872e-05
-0.000141902
6.3294e-05
2.1117e-05
6.81433e-05
-2.26377e-05
2.26997e-05
0.000283549
-0.000129157
-0.000157852
5.49333e-06
6.09363e-05
-6.8189e-05
0.000110675
-0.000179721
6.64015e-05
-0.000174895
0.000128456
-1.42004e-05
4.99513e-07
1.3331e-05
-0.000132457
8.82559e-05
9.09477e-05
4.63793e-05
0.00016411
-0.000123901
8.50712e-05
-3.20483e-05
1.82447e-05
4.88081e-06
-3.08761e-05
5.80789e-05
-9.12868e-05
1.86093e-05
-1.67802e-05
1.59586e-05
-0.000125358
0.000107391
-9.3625e-05
0.000201341
-4.25996e-05
0.00018906
-0.000152197
-0.000165517
0.000218399
-5.58565e-05
-9.24643e-05
4.1309e-05
0.000119365
-4.42848e-05
-8.81905e-06
8.78746e-06
-1.65908e-07
0.000127906
-6.01796e-05
-6.8884e-05
-2.20002e-05
5.94423e-05
9.57404e-05
-6.19612e-05
-0.000188413
-8.05307e-05
0.000265799
6.86669e-06
-6.35104e-05
5.47028e-05
-2.53364e-06
-1.18824e-05
-0.0001268
4.63315e-05
0.000163517
0.000149516
5.26835e-05
-8.1015e-05
2.80612e-05
-4.824e-05
1.64105e-06
7.85602e-05
-1.98976e-05
-6.3835e-05
-0.000191721
0.000143554
0.000145711
-6.62051e-05
3.26211e-05
5.67747e-05
-0.000287197
0.000195935
-3.14009e-05
0.000149316
0.000149395
6.30849e-05
-0.000215234
-0.000125891
5.49905e-05
1.58586e-05
4.10343e-06
-2.07522e-05
-8.24311e-05
0.000192168
-0.000112085
-5.53695e-05
-0.000126182
7.40295e-05
4.70983e-05
-0.000133794
-2.04708e-05
-2.89533e-06
2.59388e-06
4.69755e-08
1.13657e-05
7.74155e-07
-1.65896e-05
-0.000259697
0.000171039
-2.69521e-05
-8.10847e-06
5.69001e-05
7.65597e-05
-0.000134647
0.000158189
-0.000206681
4.74799e-05
0.000127338
-5.4798e-05
2.69176e-05
0.000206833
-3.46009e-05
-0.000175974
-6.70277e-05
-6.76288e-05
0.000133364
-4.80808e-05
0.000129066
1.66506e-05
-0.000138811
0.000119877
9.59061e-05
0.000183953
-0.000289177
9.76308e-05
0.000191081
-0.000116463
0.000262518
0.000110719
-0.000184619
-0.000126932
0.000100281
-0.000102086
4.97962e-05
5.2079e-05
3.5014e-06
-1.48663e-05
3.83927e-06
-7.34641e-05
0.000133793
-6.5651e-05
-0.000199689
9.93698e-05
9.92556e-05
-4.1958e-05
-8.92922e-05
0.00015325
-0.000103643
-4.97202e-05
-0.000181734
0.000180984
-1.81298e-06
3.53674e-05
-5.69462e-05
2.14275e-05
1.37686e-05
-1.04812e-05
-3.7681e-06
6.50133e-05
-5.22838e-05
-1.26857e-05
0.000163907
8.73865e-05
-0.000105679
0.000301084
-0.000195325
-1.12224e-05
-3.07807e-06
1.3564e-05
-1.47518e-05
-5.21497e-05
6.50744e-05
4.82398e-05
-0.000161266
0.000112395
-0.000290911
0.000110632
0.000178675
-3.74743e-05
-4.78708e-05
-7.17895e-05
3.54095e-05
3.07662e-05
-1.76257e-05
5.29561e-05
-3.92773e-05
-0.000144609
-0.000134075
-4.43193e-05
7.89772e-05
-4.18449e-05
-3.7446e-05
0.000115174
-3.64258e-05
-7.96374e-05
6.14515e-05
-3.22305e-05
-2.92605e-05
-7.25531e-06
-4.41817e-06
7.27743e-06
0.000164411
-0.000123421
-4.26895e-05
-5.89017e-07
1.82763e-06
-4.26941e-05
5.35182e-05
-1.07928e-05
3.14469e-07
-1.19382e-05
-9.31087e-05
0.000189672
8.26281e-05
0.000132477
-0.000215622
5.92894e-05
1.41736e-05
3.5987e-05
-4.8496e-05
-5.82178e-05
0.000103978
-0.000250596
0.000179802
6.9314e-05
0.000118479
3.46176e-05
-0.000192405
-5.17306e-05
6.70965e-05
-6.35272e-05
4.26746e-05
-0.000120941
0.000283123
-0.000205959
-0.000284417
1.34528e-05
0.000269735
-8.12287e-06
1.19161e-05
-3.87993e-06
-9.34717e-05
-0.000107109
-3.7353e-06
-7.77249e-07
3.75073e-05
-4.85803e-05
1.10434e-05
4.46186e-05
-0.000118104
8.9456e-05
0.000178828
-0.000268249
-8.66453e-05
-0.000109101
0.00019291
-0.000207642
0.000160454
4.42863e-05
-4.54689e-05
-0.000187702
0.000230891
-3.92331e-05
-0.000246129
0.000136049
-0.000163913
2.52667e-05
-0.000182889
0.000127172
-8.10978e-05
-4.63123e-05
6.04511e-05
-0.000255341
0.000194119
-7.12159e-05
0.000228274
-5.48494e-05
2.97735e-05
6.89803e-05
-1.32514e-05
-1.8851e-05
-0.000107082
6.37925e-05
3.86754e-05
5.06011e-05
-4.92341e-05
-0.000186669
0.000233398
-0.000159541
0.00027285
-0.000113667
-5.02566e-05
0.000137319
-8.96328e-05
3.799e-05
6.99444e-05
-0.000108544
-0.000107256
0.000121952
-1.51582e-05
0.000148641
-3.70529e-06
0.000159578
3.76253e-05
4.1027e-05
-0.000176019
0.000200889
-2.64069e-05
-0.000232521
0.000184776
-0.000125137
-0.000117917
0.000263462
-0.000146357
8.54358e-05
6.23977e-05
-9.58721e-05
0.000217807
-5.47591e-05
-6.86824e-05
1.06898e-06
-1.2526e-05
3.88078e-05
-0.000137283
9.75967e-05
5.62571e-05
-3.14625e-05
-2.48639e-05
0.000149604
-8.27778e-05
-8.5674e-06
6.51029e-07
9.44236e-06
-4.40009e-06
-5.67009e-06
1.99658e-06
9.09137e-08
-2.71396e-06
4.66312e-05
8.05983e-05
-0.000266319
0.000106377
7.82871e-05
0.000219161
-0.000297565
0.000209433
-0.000113401
-0.000102393
4.48036e-05
1.5202e-05
-6.5026e-05
-0.000263626
0.00014489
2.30485e-06
-5.32551e-06
3.35253e-06
-6.33745e-05
-6.99283e-05
0.000225321
-2.60481e-05
-0.000125154
1.14589e-05
5.95408e-05
6.88138e-05
-0.000129622
-7.26931e-06
9.77776e-06
0.000115231
-7.79047e-05
-0.000221685
0.000207613
1.21359e-05
-0.000178031
0.000166635
-6.63731e-05
-4.91984e-05
0.000109426
-1.32341e-05
5.0756e-05
0.000125313
3.58071e-07
0.00020256
-0.000128241
5.52219e-05
-4.40482e-05
-1.1239e-05
0.000226039
-6.08312e-05
-0.000169193
0.000187725
-0.000278688
-2.29743e-05
-5.35582e-05
7.62874e-05
8.77322e-05
0.000114946
0.000125028
-8.60364e-05
-3.97125e-05
9.5067e-05
-0.000169719
0.000175839
4.653e-05
8.42374e-05
4.99657e-05
-0.000106645
-0.000116623
0.000116943
3.15162e-05
-0.000151095
6.31189e-05
9.92253e-06
-7.33931e-05
1.25583e-05
-4.6839e-05
3.26265e-05
-0.000189752
-2.01712e-05
1.22499e-05
-0.000136447
0.00012249
1.95558e-05
3.66395e-05
4.4591e-05
-8.00478e-05
3.5236e-05
-3.6754e-05
-4.04141e-05
3.27691e-05
-0.00011187
7.76862e-05
7.70645e-05
-1.45543e-05
-6.79592e-05
1.82214e-05
5.02958e-05
0.00031532
-0.000185187
-0.000132258
9.26057e-06
1.79075e-06
-1.49923e-05
1.83865e-05
-0.000168091
0.000145462
-4.12058e-05
8.55156e-05
9.09749e-05
7.16827e-05
6.02061e-05
-0.000138942
7.6839e-05
5.57679e-05
3.66045e-05
0.000185206
-6.57558e-05
0.000179617
-0.000138616
-4.87493e-05
4.37525e-05
6.07637e-05
-5.17672e-05
9.27495e-05
-4.12784e-05
0.000262929
-0.000109195
-0.000155752
3.73168e-05
1.78263e-05
0.000130289
-6.05052e-05
-7.01636e-05
-2.33144e-05
-0.000133752
6.54273e-05
5.88758e-05
-0.000123048
-1.89043e-05
-0.000193776
0.000211157
-0.000262076
0.000117884
0.000142987
-0.000101815
4.27459e-05
5.82477e-05
6.7905e-05
-0.000274052
5.57724e-05
0.000215559
-0.000184301
0.000268654
-8.43297e-05
6.18798e-05
-4.11338e-05
-2.08432e-05
2.99e-05
-1.56412e-05
-9.09368e-05
0.000156579
-6.67393e-05
-0.000169742
7.77185e-05
-7.37532e-05
0.000143989
-7.0835e-05
0.000140006
-8.17097e-05
-0.000162946
-9.99862e-05
-5.16382e-05
8.98084e-06
-4.48514e-05
-0.000152168
-0.000266093
8.18521e-05
0.000166998
-0.000152829
7.81013e-06
6.34549e-05
-5.33028e-06
7.61467e-07
-2.08061e-05
4.15516e-06
-0.000179102
6.30739e-05
0.000109843
4.29231e-05
1.8886e-05
2.8677e-05
-0.000242243
0.000212996
-0.000109898
-4.01746e-05
0.000146016
7.11248e-05
5.30492e-05
-4.31967e-06
-4.32086e-05
4.58974e-05
-1.63517e-05
-0.000161683
-4.0616e-05
-0.000160706
0.000199406
0.000313057
-3.47126e-05
-3.92056e-05
9.15914e-05
-0.000151939
3.80434e-05
-8.76547e-05
-0.00020399
-0.000183886
0.0001063
7.57357e-05
0.000223602
8.95688e-05
0.000219856
-0.000102629
-0.000123112
-2.06874e-05
8.16454e-07
-0.000315753
0.00024867
6.51368e-05
3.10201e-05
-6.82084e-05
3.73749e-05
1.28162e-05
0.000148857
-6.46713e-05
-0.000238701
-3.99174e-05
-6.21802e-05
-3.40995e-05
-4.71744e-05
8.39763e-05
-0.000164224
7.94816e-05
0.00016941
-8.62539e-05
0.00031178
-0.000190258
-0.00012354
4.58685e-05
-9.40502e-05
4.25658e-05
-1.04633e-05
-1.1038e-05
1.45985e-05
9.71334e-05
0.000163643
9.42702e-05
-6.26998e-05
3.90358e-05
-0.000109805
1.89399e-05
8.97506e-05
-0.000109506
2.53998e-05
3.59543e-05
-3.65999e-05
7.06151e-05
-3.41821e-05
-3.96414e-05
3.40995e-05
-8.17918e-05
-2.90512e-05
-9.12696e-05
3.8249e-05
-8.52594e-06
-2.97285e-05
0.000211082
-0.000128929
-4.46553e-05
9.76399e-05
-7.29814e-05
-0.000244589
-9.22683e-05
-9.34158e-05
-1.19829e-05
-3.05465e-06
1.00626e-05
6.47901e-05
6.50484e-05
7.68106e-05
3.44309e-05
-0.000116262
0.000167927
-0.000103541
0.000119679
0.000189643
-5.38659e-05
-7.7829e-05
0.000128632
1.52515e-06
0.000193757
-0.00011229
4.43218e-05
-3.88869e-05
-6.63099e-05
0.000112686
-0.000182776
0.000249734
-6.82661e-05
-6.42614e-05
6.50756e-05
-1.06323e-06
-0.000166395
0.000265568
-0.000101628
-6.07143e-05
0.000171696
-0.000260269
8.67142e-05
-0.000261516
0.000221409
-7.83291e-05
0.000208139
-0.00013265
7.45453e-05
-0.0001489
7.63188e-05
0.000123743
0.000148372
-0.000100764
2.3238e-05
-1.45384e-05
7.38213e-05
0.00011356
9.26651e-06
-2.28703e-06
7.43215e-05
6.26584e-05
-0.000137709
0.000273918
-9.21394e-05
-0.000181785
-6.33435e-05
-7.67696e-05
0.000139063
0.000253771
-8.38603e-05
-4.64911e-05
-0.00017798
0.000260827
0.000274343
1.78062e-05
-9.67712e-05
4.66541e-05
9.6475e-05
0.000117522
2.96794e-06
-0.000265566
8.18743e-07
3.68745e-06
-6.14474e-06
-7.52169e-05
0.000166388
-9.16647e-05
-0.000300614
4.69665e-05
0.00025303
-0.00018267
0.000106729
7.45408e-05
-3.55653e-05
5.29907e-05
-1.74884e-05
0.000135059
-0.000254693
-3.3972e-05
0.000122405
-8.91862e-05
-6.12577e-05
-0.000239801
6.40959e-05
3.29168e-05
-3.02998e-06
-3.24351e-07
7.36622e-05
8.3827e-05
-0.000159094
-0.000129364
9.40866e-06
-0.000186663
6.70245e-05
2.17179e-05
-9.38071e-05
-7.7435e-05
0.000174079
-9.97756e-05
5.23726e-05
0.000127819
-1.78567e-05
0.000274887
-0.000124972
-0.000151913
6.65268e-05
9.49889e-05
-0.000161222
5.34739e-06
-1.70937e-05
7.64921e-06
-0.000179978
3.05346e-05
3.17941e-05
-6.23589e-05
-0.000245064
5.40484e-05
5.95418e-06
3.22918e-06
-8.3383e-05
-0.000108116
-4.14055e-05
8.18396e-05
-0.000181039
-0.00012496
7.97493e-05
3.94802e-05
0.000254209
-0.000204714
-5.13976e-05
-0.000213663
0.000148775
6.18679e-05
8.78049e-06
-0.000116325
0.000248261
9.60968e-05
-3.34095e-05
-6.84718e-05
-8.02966e-05
7.65297e-05
4.52102e-05
-0.000122613
-5.26835e-05
1.80901e-05
-0.000260491
8.9375e-06
0.000249908
-3.64745e-05
0.000137412
-0.000101557
-3.4005e-06
-2.76946e-06
6.15587e-05
-0.000194744
0.000128505
2.70875e-06
-1.18975e-05
3.11761e-06
-0.000300217
9.85888e-05
0.000201233
-0.000136274
0.000172851
-3.94471e-05
-0.00019457
-8.76973e-05
0.00011688
-4.78028e-05
-1.77731e-05
8.65866e-07
0.000101866
-5.11102e-05
-5.05933e-05
-4.80851e-05
1.24556e-05
0.000127473
-8.43894e-05
-4.74135e-05
2.1194e-05
-0.00028336
0.000109656
-0.000190677
0.000270126
-0.000257832
3.23802e-05
-8.02394e-05
-0.00014331
0.00014738
0.000213978
-0.00018583
-0.00021838
0.000110178
-7.6457e-05
0.000138509
-6.32542e-05
8.0518e-05
-0.00013951
5.61691e-05
-2.70534e-05
5.69586e-05
-2.9828e-05
-1.87049e-05
6.27877e-06
1.06882e-05
4.74862e-05
5.97183e-06
-0.000120548
-8.68721e-05
0.00020649
-3.8392e-05
2.85238e-05
-0.00026438
0.000283887
-2.39744e-05
8.41492e-05
-6.04618e-05
7.06526e-05
-0.000165355
0.000150601
4.88868e-05
-0.000199465
6.81713e-06
-2.84865e-05
-0.00018498
-0.000107311
0.000292341
-1.10934e-05
1.74648e-05
-8.62774e-05
3.1605e-05
4.86545e-05
-4.82345e-05
0.000120667
-7.90144e-05
-4.67285e-05
-7.54163e-05
0.000119338
2.19115e-05
1.63198e-05
-7.03068e-05
-4.87322e-05
0.000117477
5.23186e-05
-9.71139e-05
4.4167e-05
4.60907e-05
4.18755e-05
-8.84422e-05
0.000249899
-8.01345e-06
-1.09844e-06
-8.68284e-05
0.000109353
-2.30574e-05
9.14963e-05
0.000182151
-0.000179781
9.52204e-05
-0.000132441
7.08297e-05
7.901e-05
0.000189983
0.000197826
0.000100865
2.11425e-05
4.36331e-05
-1.7677e-05
1.42505e-05
-3.68563e-06
3.45047e-05
-6.15269e-05
8.11021e-05
-6.16173e-05
-4.06277e-05
-0.000189205
-0.000217522
-4.81346e-05
8.11754e-05
0.000204387
9.34237e-05
-0.000128161
-0.000217027
0.000276629
-0.000206877
-8.24616e-05
-7.57848e-05
0.000153001
-7.76375e-05
5.51097e-05
-0.000223539
8.54443e-05
-0.000161667
-4.92325e-05
7.97426e-05
-3.07146e-05
-7.89121e-06
-1.26531e-05
0.000131353
4.7515e-05
-5.06201e-05
1.77079e-05
3.27736e-05
7.61143e-05
-0.000187891
-8.64832e-05
0.000107827
-2.678e-05
0.000119628
6.34943e-05
-0.000112135
0.000148785
-4.10514e-05
0.000130101
-7.44036e-05
-0.000178538
0.000248073
-7.11664e-05
0.000233428
-8.27118e-05
-9.43002e-05
0.000161129
2.79984e-05
1.00669e-05
-4.39615e-05
6.55942e-05
-3.51097e-05
-6.19831e-05
2.67107e-05
3.51524e-05
8.441e-05
0.000187876
-0.000273441
0.000296592
-0.000205344
-5.12814e-05
-3.18358e-06
-2.05628e-06
5.10983e-06
-0.00011101
-1.14056e-05
1.60749e-05
-4.57926e-06
1.61877e-05
-0.000103529
1.72177e-05
-0.000144014
6.82207e-05
2.23938e-05
-9.09868e-05
6.32243e-05
4.35094e-06
-6.78563e-05
3.05838e-05
-2.44618e-05
0.000188274
7.23405e-05
-0.000262268
-0.000298323
9.42911e-05
0.00020406
4.28757e-05
0.000100346
-5.734e-05
-5.69603e-05
0.000113251
3.47914e-05
-1.29019e-05
6.81246e-05
-3.23242e-05
-3.5959e-05
-0.000117155
-0.000130538
7.36685e-05
0.000102086
0.000101791
-0.000203654
-5.97486e-05
-5.167e-05
8.71531e-05
-3.58288e-05
9.32065e-05
-7.48742e-05
9.7784e-05
-0.00026005
-5.96812e-06
-0.000104861
0.000126562
-2.77873e-05
7.73264e-05
5.55876e-06
2.3832e-05
-0.000116264
0.000189639
1.62981e-05
-1.29583e-05
-7.72842e-05
4.76566e-05
2.32051e-05
8.76813e-06
-5.80844e-05
-5.42299e-05
0.000132705
0.000118935
2.42078e-05
-1.97419e-05
7.83494e-05
7.04274e-05
-0.000176363
0.000273531
5.04958e-05
-0.000109835
5.35754e-05
1.79118e-05
4.58962e-06
-2.67796e-05
-0.000129218
7.65275e-05
1.20655e-05
-4.32435e-05
7.44611e-05
-0.000173533
0.000263011
-0.000279171
-9.37396e-05
3.19757e-05
0.0001104
-0.000295291
-0.00013387
5.34413e-05
7.9668e-05
-3.4043e-05
-1.6709e-05
-2.47579e-05
-3.23735e-05
-0.000211939
-6.42554e-05
-0.00013167
7.48368e-05
-4.06569e-06
8.25886e-07
-0.00011638
-0.000125643
0.000205255
-8.16014e-05
-9.6206e-05
4.32023e-05
5.25656e-05
0.000176469
9.20087e-05
9.86563e-05
-3.03002e-05
4.87867e-05
-0.00014845
9.78399e-05
0.00015905
-6.74929e-05
-9.78902e-05
-9.57662e-05
-0.000116898
0.00021047
0.000256807
-9.27643e-05
-0.000167371
0.000194046
-4.34396e-05
6.96764e-05
4.55547e-05
-0.000116398
7.20133e-05
3.97181e-05
0.000156281
-0.00026753
8.67987e-05
-2.49636e-05
-0.000142492
1.57122e-05
0.000125389
5.21734e-05
-0.000116325
6.1157e-05
8.86663e-05
0.000197901
-0.000106862
-0.000189768
0.000147419
0.000164162
-6.19987e-05
-0.000104833
7.94003e-05
-7.15961e-05
0.000145179
0.000104106
1.03233e-05
-8.36775e-05
0.000214593
-0.000133032
-8.05053e-05
2.85599e-05
6.30936e-05
8.98597e-05
0.000257778
-0.000112398
-0.000146137
0.000125654
-7.97643e-05
-1.40731e-05
0.00024115
-8.1868e-05
-3.92093e-06
1.35165e-05
-1.51079e-05
5.34308e-05
-1.75611e-05
0.000181838
2.33387e-05
-0.000208143
-5.91093e-05
2.48102e-05
4.55143e-05
1.23196e-05
-5.79322e-05
8.37702e-05
-4.93015e-05
-3.45359e-05
-0.000202487
0.000119051
0.000102112
-3.01231e-05
1.63821e-05
-7.58833e-06
-1.09089e-06
-8.20192e-05
-2.85045e-06
7.83318e-05
1.35557e-05
-8.87742e-06
-6.37441e-05
-2.00221e-05
-4.58492e-07
3.47686e-06
-3.04932e-06
-0.000263176
9.45237e-05
0.000169956
8.21889e-05
4.30065e-06
1.89074e-05
-9.53639e-05
0.000149422
-5.44998e-05
-0.000192689
-0.000124699
2.89634e-05
0.000166127
-5.91673e-05
-0.000112848
8.054e-06
-3.28488e-06
-5.86213e-06
-6.83398e-06
1.15069e-05
-7.54454e-06
0.000159355
-0.000101436
0.000119062
-6.69392e-05
-5.24435e-05
9.81696e-05
-1.63069e-05
-8.11139e-05
-0.000147645
-8.11573e-06
3.08999e-07
9.07646e-06
-1.63971e-05
-3.15128e-05
1.91888e-05
6.63232e-06
0.000187998
-3.57211e-05
-0.000156201
7.64559e-05
1.55184e-05
-9.24182e-05
-8.2705e-05
-6.54478e-05
0.000148407
9.58802e-05
6.55458e-05
2.1058e-05
-1.7788e-05
-0.000119573
7.01677e-05
-3.74057e-05
0.000219691
-9.76151e-05
-7.89013e-05
0.000175934
3.14082e-05
-5.5195e-05
2.38242e-05
-0.000193677
6.66936e-05
2.31612e-05
-9.02535e-05
0.000188902
-0.000296171
7.88509e-05
0.000113435
-4.73172e-05
9.90238e-05
-3.88704e-06
-7.33606e-05
-0.000133455
0.000141106
0.000163806
-9.68721e-05
0.000164174
5.98417e-06
9.33025e-05
7.63927e-05
9.40789e-05
8.07395e-05
0.000307627
-4.28328e-06
3.44264e-06
0.000109978
-9.09649e-05
3.56011e-05
1.71715e-05
0.000198307
-6.45102e-05
-0.000138427
5.01264e-05
-0.000204901
0.000151988
-0.000166389
0.00026292
-3.37077e-05
-5.86168e-05
8.5454e-05
-0.000295164
3.08007e-05
-5.73026e-05
0.000126098
-6.84358e-05
0.000123303
-5.48816e-05
-4.78498e-05
0.000117162
-0.000160864
-4.00234e-06
1.25459e-05
5.7468e-05
0.000102701
6.02752e-05
4.1748e-05
-3.0539e-06
6.59949e-05
-7.06611e-05
-0.000181329
5.6046e-05
-1.0506e-05
0.000150713
-5.43523e-05
-0.000101809
-1.2889e-05
2.11228e-06
4.31314e-06
1.3472e-05
-0.000190479
0.000300986
4.7942e-05
-7.2382e-05
2.42446e-05
5.68656e-05
-0.000212612
0.000153291
-8.44083e-05
0.000223557
-0.000142835
-0.000135962
9.88581e-05
0.000172725
-0.000115579
-5.92884e-05
5.87389e-06
-1.51298e-05
-3.1993e-05
7.08841e-05
-3.9042e-05
-0.00024584
-9.97139e-06
-3.03445e-05
-2.8942e-05
5.90819e-05
-2.73858e-05
0.000161628
-6.85982e-05
5.05507e-05
-2.3593e-05
-2.70362e-05
4.51996e-05
8.26006e-06
-5.34177e-05
7.09646e-05
1.06766e-05
0.000156589
9.65233e-05
3.45712e-05
2.34442e-05
-5.81509e-05
-0.000137953
3.82002e-05
0.000109626
-0.000175985
9.16467e-05
8.33952e-05
-7.49115e-05
-0.000109092
-0.00021063
7.91701e-05
0.000128912
4.62015e-05
-4.64156e-05
0.000193386
-0.000148751
-6.77528e-05
-0.000168862
0.000233859
7.04092e-05
-2.7758e-05
-2.06698e-05
1.122e-05
-4.27532e-06
-5.57547e-05
-0.000160888
0.000141423
-8.4004e-05
-6.56175e-05
3.35136e-05
-0.000102221
0.000198585
-9.80445e-05
6.95973e-05
-0.000104116
0.000235149
-9.87079e-05
-3.93697e-05
9.50438e-05
-2.29529e-05
1.29061e-05
-2.82175e-05
8.29387e-06
-0.000238896
7.76514e-06
4.3132e-06
-0.00017375
0.000102346
6.60564e-05
-1.06476e-05
3.06788e-05
-2.71247e-05
-5.55665e-05
1.82733e-06
-6.54734e-05
-2.51991e-05
3.12215e-05
-7.64956e-06
-0.000293317
8.15102e-05
0.0002111
-5.46092e-05
-7.8784e-05
2.91214e-05
2.1346e-05
-3.69264e-06
3.80751e-06
-2.21267e-06
9.43542e-05
0.000168584
-0.000266358
7.80543e-05
-6.42727e-05
-1.31926e-05
-0.000175063
7.69344e-05
-0.000238771
3.59584e-05
0.000202208
3.59606e-05
-2.91555e-05
-1.28877e-05
0.000306041
-4.35085e-05
0.000110401
-4.41178e-05
-0.00015407
3.25244e-05
-7.81176e-05
4.53781e-05
1.16904e-05
9.75893e-05
-4.75022e-05
-8.29172e-05
-7.37855e-05
-0.000136339
0.000208288
4.37311e-05
-2.64927e-05
0.000213251
9.15518e-05
0.000196487
-6.19271e-05
-0.000137178
-9.14286e-06
1.65493e-05
0.000234852
-9.00276e-05
0.00017465
-8.57649e-05
-0.000201572
1.90824e-05
0.000181433
0.000172313
3.27735e-05
0.000131844
-0.000207468
2.57261e-06
-2.64278e-05
-0.0001641
0.000255085
-6.97881e-05
7.95385e-05
-9.61093e-05
-0.000172582
0.000268361
0.000137431
-6.2058e-05
-9.00305e-05
9.66693e-05
6.16697e-05
5.97953e-05
-7.69286e-05
-3.87139e-06
8.00952e-05
5.05865e-05
0.000228184
-0.000174004
2.76612e-05
-0.000121149
9.345e-05
9.34779e-05
-4.79066e-05
8.79795e-05
-0.00014579
-5.20543e-05
7.90281e-05
-2.72089e-05
8.2803e-05
0.000174129
-5.29878e-05
-5.57912e-05
0.000108425
-0.000131095
7.41949e-05
8.05711e-05
-5.33298e-05
-2.75604e-05
4.33061e-05
-0.000208138
0.000164008
-0.000124408
0.000198477
-7.59398e-05
8.80535e-05
-0.000159562
0.00025462
7.35604e-05
-4.3226e-05
3.16015e-05
-8.06567e-05
0.000212096
-0.000136246
-6.24854e-06
-7.5605e-06
8.82553e-06
-0.000124375
6.41856e-05
-1.29319e-05
-1.08118e-07
1.29828e-05
3.09468e-05
7.99817e-06
-4.04744e-05
2.33573e-05
3.25642e-05
-5.58426e-05
0.000101372
4.39821e-05
-0.000114592
-3.99529e-05
0.000150234
-3.38894e-05
-3.45545e-05
5.82327e-05
-2.3757e-05
-0.000159138
-2.40417e-06
-1.2246e-05
-7.51379e-05
-6.0053e-05
6.22154e-05
3.63623e-06
4.15668e-05
3.45473e-06
7.26416e-05
5.40381e-05
3.29694e-05
-0.000277923
0.000200704
7.43258e-05
4.07984e-05
5.16298e-05
0.000132061
-8.98305e-05
5.32242e-05
6.54789e-05
0.000121451
-6.14708e-05
-5.02447e-05
0.000120461
-0.00014572
0.000134684
-5.7007e-05
-0.00021943
3.65004e-05
-8.87812e-05
4.69582e-05
4.17277e-05
1.60886e-05
-2.46139e-05
0.000183351
-0.000258021
0.000135057
-3.47688e-05
6.81313e-05
-0.000103826
5.04995e-05
-2.88103e-05
-3.32718e-05
-8.84232e-05
0.000126117
-4.13009e-05
7.1557e-05
-0.00012662
5.41842e-05
-5.43852e-05
9.90806e-05
-0.000202575
-0.000148201
0.000195621
1.56895e-05
9.41087e-05
-0.000109779
-3.03444e-06
-6.23924e-06
-3.75596e-05
4.60059e-05
-8.47371e-06
-5.32264e-06
3.47352e-05
-1.23314e-07
7.66018e-05
8.85037e-05
3.20057e-05
-0.000125248
0.000111597
-0.000172555
6.00994e-05
-4.12402e-05
-5.67176e-05
0.00012731
-5.18271e-05
0.000125722
-5.13174e-05
-7.45845e-05
-0.000192831
-1.34684e-05
-1.16524e-05
-5.75599e-06
-9.86257e-05
-0.000208997
9.23409e-05
-0.000241384
0.000148032
-7.59337e-05
0.000206131
-0.000133049
-4.49361e-05
1.03165e-05
0.000107014
2.76776e-05
3.31546e-05
0.000180236
-8.8592e-05
0.000185224
-0.000100117
-8.83166e-06
-4.34985e-05
-4.74103e-05
5.48885e-05
-2.58541e-05
-0.000169503
0.000211967
0.000325683
-0.000144419
-0.000242311
9.68131e-05
0.00014074
-5.9126e-05
2.85925e-05
-1.62191e-05
4.77804e-06
0.000245653
1.12944e-06
-5.08496e-05
2.09359e-05
2.9776e-05
-0.00010951
-6.43006e-05
0.000167729
0.000151182
-8.58788e-05
-6.69008e-05
-7.72259e-05
0.000110021
-0.000286839
6.11742e-05
-0.000132629
7.15331e-05
9.94901e-05
6.4051e-05
-0.000166965
-2.36705e-05
-7.74457e-06
0.000211057
-0.000112497
-9.81644e-05
-5.36927e-05
3.61169e-05
6.15646e-05
-0.000119517
6.24914e-05
0.000131505
7.06869e-05
-0.000259784
0.000185979
0.000213167
-0.000180593
-2.99948e-05
-3.9982e-05
6.99636e-05
-0.000104351
2.65476e-05
5.69394e-06
-3.26246e-05
-0.000172815
4.66502e-05
-3.41523e-05
-5.74139e-05
8.54007e-05
-5.65269e-06
-1.44623e-05
-0.000180629
9.76748e-06
8.76412e-06
-3.89369e-06
7.62593e-05
8.0614e-05
-0.000157394
-0.000267555
0.000269407
2.98898e-05
-0.000148621
-0.000248583
-7.95523e-05
0.000159647
-1.58715e-05
-3.42488e-05
4.99303e-05
5.43663e-05
-7.86227e-05
0.000174599
-0.00010273
0.000101994
-7.43387e-05
0.000118648
-3.47635e-05
-8.42053e-05
0.000166357
0.000207976
-0.000115662
5.5505e-05
-9.58455e-05
-0.000209217
7.25309e-05
0.000132124
-0.00012434
0.000149869
-1.68571e-05
4.77808e-05
-3.1031e-05
-0.000116961
2.86486e-05
-9.11206e-05
9.82127e-05
3.93167e-05
-0.000131315
0.000143455
-1.23826e-05
-4.38127e-05
2.9951e-06
4.08035e-05
-2.21953e-05
9.97304e-06
0.000201184
-9.88591e-05
-0.000146021
-5.64555e-05
-7.3392e-05
-2.35248e-06
7.52914e-05
3.9391e-05
-0.000143094
8.69943e-05
-0.000167965
7.93852e-05
-3.40905e-05
-0.000127736
0.000141894
-6.53176e-05
0.000243598
-0.000117709
-0.000274849
6.71441e-05
0.000207428
2.36478e-05
3.35564e-05
-5.71638e-05
-0.000146147
-1.78893e-05
0.000162558
2.52923e-05
6.98362e-05
0.000167185
6.57709e-05
5.92974e-05
5.98417e-05
-5.99335e-05
1.93656e-05
1.16072e-05
-0.000116909
0.000131723
-1.45192e-05
-0.000103737
0.000155255
-0.000174532
0.00010934
-6.99989e-05
-0.000158755
4.98011e-05
0.000106824
-3.21674e-05
-9.43987e-05
-5.26764e-05
-0.000120696
-7.36131e-05
-0.000109189
2.67879e-06
-6.77843e-05
-1.47849e-05
6.80083e-06
7.72298e-06
6.10635e-05
0.000100039
4.57895e-05
2.44202e-05
0.00010047
-0.000170616
-8.07872e-05
8.38429e-05
3.73459e-05
-6.72798e-05
0.000116758
-0.000213876
9.58185e-05
5.9449e-05
6.69653e-05
5.38335e-05
1.2527e-05
-6.47032e-06
-0.000150144
1.21578e-05
4.22998e-05
-0.000158781
4.89043e-05
-6.43294e-05
-4.80038e-05
0.000110976
-0.000126606
7.0131e-05
5.4844e-05
-0.000134328
-3.75332e-05
0.000166798
-0.000219521
0.000131583
8.49636e-06
-3.33144e-06
3.33802e-05
6.98374e-05
-0.000152286
-0.00015974
4.03254e-05
-8.53212e-05
8.8623e-05
-3.94418e-05
-4.95215e-05
-6.04776e-06
-0.000103377
0.000284075
-0.000202577
-8.19469e-05
0.000136472
-8.91803e-05
0.000157719
-0.000235902
6.46969e-05
0.000171109
-0.000201219
-7.64963e-05
0.00027646
9.72e-05
0.00014337
-0.000240902
3.01246e-05
-5.01339e-05
0.000125164
4.73107e-05
-0.000166946
0.000276539
2.37931e-05
-6.94315e-05
4.56741e-05
-5.56554e-05
6.25848e-05
-1.21414e-05
0.000100623
-6.72575e-05
0.00012221
7.4249e-05
0.000113248
5.7442e-05
-5.25171e-06
-9.85799e-06
-9.09189e-05
-5.59488e-05
0.000141629
1.05093e-05
-0.000120159
0.000109413
-0.000166451
0.000248417
-8.12669e-05
6.3216e-05
0.000130276
-7.6143e-05
0.000116111
-4.46308e-05
0.000208716
9.09733e-05
8.52495e-05
-0.00017694
8.69322e-05
3.09663e-05
0.000181523
0.000159111
-0.000243523
8.41983e-05
-0.000109654
5.68144e-05
5.2246e-05
-0.00021886
-5.8868e-05
0.000277593
6.95944e-06
-1.77202e-05
-0.000164325
4.91006e-05
0.000110696
-8.61725e-05
0.000216399
-0.000131156
0.00027109
-0.000263887
-6.96966e-05
0.000125737
-5.73834e-05
-6.52092e-05
-2.0128e-05
-0.0001274
-5.512e-05
-7.30329e-05
-0.000190046
0.000257581
-0.000165202
7.62213e-05
8.93787e-05
-0.0001692
3.02419e-05
2.86538e-05
3.61726e-05
2.70902e-05
5.05545e-05
-7.80745e-05
0.000247872
-2.051e-06
6.28779e-05
3.12593e-05
-9.47408e-05
-7.45487e-06
-1.12029e-05
1.87601e-05
-9.90294e-05
7.79232e-05
0.000243713
-0.000151319