/*--------------------------------*- C++ -*----------------------------------*\
| =========                 |                                                 |
| \\      /  F ield         | OpenFOAM: The Open Source CFD Toolbox           |
|  \\    /   O peration     | Version:  v2012                                 |
|   \\  /    A nd           | Website:  www.openfoam.com                      |
|    \\/     M anipulation  |                                                 |
\*---------------------------------------------------------------------------*/
FoamFile
{
    version     2.0;
    format      ascii;
    class       surfaceScalarField;
    location    "550";
    object      phi;
}
// * * * * * * * * * * * * * * * * * * * * * * * * * * * * * * * * * * * * * //

dimensions      [0 3 -1 0 0 0 0];
oriented        oriented;


internalField   nonuniform List<scalar> 
20537
(
-0.373403
0.51548
-0.14208
-0.103392
-0.0856971
0.18909
-0.177729
0.158087
0.0196414
-0.00502501
-0.315198
0.32022
-0.142399
0.157392
-0.0149941
0.271727
-0.460568
0.188841
0.202094
0.197568
-0.399663
0.235379
-0.0844156
-0.150965
-0.467632
-0.0891594
0.556785
-0.0321487
0.197081
-0.164933
0.519545
-0.16578
-0.353765
0.0645185
-0.10097
0.0364513
0.0936118
0.012722
-0.106334
0.00902722
-0.00565033
-0.00337658
0.67994
-0.547126
-0.13282
0.272618
-0.276964
0.00434399
-0.0505992
0.280116
-0.229519
0.440146
-0.240305
-0.199843
-0.133914
0.141593
-0.00767971
0.0781263
-0.545764
0.359541
-0.36457
-0.0761964
-0.101534
-0.363296
0.583344
-0.220051
-0.700252
0.0989824
0.601263
-0.548712
0.185413
0.209787
0.0255899
-0.0895059
-0.176609
0.266114
-0.00136974
-0.000582398
0.0189067
-0.392313
0.234729
-0.350535
0.115803
0.438661
-0.166935
0.224851
-0.275453
-0.0196409
0.177726
0.503086
-0.524394
0.0213077
-0.611537
-0.0887208
0.109422
-0.120298
0.0108757
-0.00564178
0.0870094
-0.0813678
0.196763
-0.118607
-0.0781558
0.129396
-0.161546
0.0321343
0.470951
0.0517809
0.33816
-0.389946
0.487477
-0.666001
0.178523
-0.00355492
0.00112882
0.00242608
0.328662
-0.546632
0.217971
0.550943
-0.222281
-0.00051155
-0.0105399
0.0110513
-0.591497
0.244194
0.347304
0.179739
-0.481882
0.302143
0.168455
-0.257962
0.337537
0.216011
-0.55355
0.159029
-0.0197388
-0.139291
0.141603
-0.0723568
-0.0692466
-0.00135027
0.000906357
0.000443973
-0.739176
0.377384
0.361786
0.667669
-0.545593
-0.122083
0.665674
-0.178199
0.654
-0.295419
-0.358586
0.00203188
-0.00260606
0.000574179
-0.17478
0.409505
0.279861
0.100455
-0.380318
0.0516189
0.145143
0.0622077
-0.0828729
0.020665
-0.408864
0.289806
0.119057
-0.137775
0.123783
0.0139906
-0.143275
0.287368
-0.144094
-0.457507
0.159936
0.297569
0.0633693
-0.0690111
-0.62671
0.29671
-0.209745
0.210004
-0.000259105
0.205212
0.234933
0.0270467
-0.0327107
0.00566401
0.0841948
-0.0786881
-0.00550682
0.108875
-0.212267
-0.294255
-0.444929
0.287031
-0.595718
0.30868
-0.535639
0.446201
0.0894342
-0.130433
0.0542356
-0.0354147
0.00218402
0.0332307
-0.000603822
-0.169549
0.170151
0.0330309
-0.00336665
-0.17585
0.432363
-0.256515
0.484035
0.0674087
-0.551444
-0.433266
-0.0554318
0.488693
0.00647951
-0.00192244
-0.00455723
-0.314273
-0.094592
0.0963285
-0.03181
0.492403
-0.17655
-0.315854
0.0434363
0.11432
-0.157757
-0.255987
0.318984
-0.0629989
-0.344012
-0.249866
0.593874
0.0227439
0.0866778
-0.076142
-0.34488
0.42102
-0.217014
-0.0867623
0.245695
-0.158935
-0.0243393
-0.23165
0.5656
-0.554416
-0.0111887
0.0288513
-0.171251
0.00967107
0.045322
-0.0549934
-0.171464
0.508999
-0.0250618
0.590657
0.00574337
0.00231374
-0.00805691
0.169618
-0.168435
-0.00118452
0.0853148
-0.38854
0.303221
0.266617
-0.0196679
-0.45833
-0.0998169
0.558146
-0.510229
0.38374
0.126488
-0.174779
0.172763
0.00201476
0.524112
-0.685451
0.161338
0.0731057
0.00739556
-0.165128
-0.295442
-0.546157
-0.0198035
0.565956
0.273434
-0.617449
0.335335
-0.411478
-0.6589
0.658894
-0.072037
-0.474125
0.414855
-0.0779697
-0.06694
0.0766107
0.0746797
-0.474238
0.399557
-0.585736
0.587907
-0.00217862
-0.19668
0.573215
-0.376541
-0.00358789
3.29934e-05
0.232167
0.0344485
0.0983193
-0.00470802
0.190361
0.429971
-0.250232
-0.765859
0.349504
0.416353
0.178751
0.251219
0.154342
-0.182496
0.0281521
0.0452709
0.314267
0.165178
-0.0807311
-0.0844479
0.433607
-0.381831
0.566838
-0.163789
-0.403055
0.0343282
-0.00728158
-0.555221
0.12195
0.334759
-0.583328
0.619058
-0.0357363
0.557452
-0.482774
-0.0719824
0.0847653
-0.0127831
-0.0190779
0.00476734
0.0143106
-0.0143102
0.00545716
0.00885349
0.00825459
-0.0025111
0.383569
0.284092
0.154683
-0.573672
0.418986
0.716778
-0.377206
-0.339573
0.409321
-0.0873804
-0.321943
-0.205385
-0.341247
-0.474262
0.624132
-0.14987
0.0421395
0.123038
-0.264231
0.466322
0.170236
0.380707
-0.000267274
0.123296
-0.430676
0.62789
-0.197221
0.00674103
0.00228646
0.309977
0.344019
0.361295
-0.208621
-0.152676
0.298064
0.111255
-0.50895
0.193992
0.314954
0.226552
0.134303
-0.360858
0.0133911
0.128211
0.00462553
0.154402
-0.362413
-0.244613
0.607026
-0.0731933
0.220893
-0.147701
0.00168277
0.000349091
0.166325
0.400507
0.259222
-0.366119
0.106894
0.640969
-0.23486
-0.406111
-0.686901
0.212638
0.00304089
-0.212787
-0.316337
0.361605
0.0519282
0.00307955
-0.055008
7.60572e-05
-0.0354908
0.238586
-0.54834
0.309748
-0.180536
-0.328419
-0.01005
-0.00425983
0.576491
-0.410172
-0.231493
-0.250389
0.177904
-0.023563
0.547073
-0.530968
-0.0161076
-0.0196959
-0.114218
-0.519553
0.671649
-0.152096
-0.266815
0.0581723
0.20864
0.0122124
-0.134337
-0.361408
0.49574
0.0491429
-0.150678
-0.365986
-0.236125
0.602111
-0.448086
0.613447
-0.165366
-0.187633
-0.269876
0.363045
-0.559732
-0.162474
0.153132
0.00934084
0.220931
0.00486956
-0.225801
-0.294788
-0.000361644
-0.000988623
0.252487
-0.528533
0.276043
0.181267
-0.206255
0.024987
0.0846788
-0.0224715
0.397534
-0.180203
-0.217333
0.551019
-0.396339
-0.118156
0.538926
-0.42077
0.481654
0.0654158
-0.44136
-0.0942831
-0.30725
-0.458611
0.00101211
0.0319721
-0.0329844
-0.590869
0.08594
0.504922
-0.546153
0.151663
0.394485
-0.0251047
0.207729
-0.182625
-0.495301
0.36096
-0.0513386
-0.0237045
0.075043
0.143399
0.141559
-0.28496
0.0452618
-0.00447982
-0.0407822
0.133967
0.442836
-0.576804
-0.0158491
-0.0501497
0.0659988
-0.350164
0.435475
-0.507223
0.109643
0.39758
0.452299
-0.639731
0.187431
-0.719607
0.425089
0.294516
0.546425
-0.204801
-0.341625
-0.171182
0.408952
-0.237772
-0.00364382
0.00313214
-0.111657
-0.410998
0.52265
0.046277
-0.00101523
0.260369
-0.116972
0.189729
-0.365581
-0.00257712
0.0605375
-0.0579606
-0.0641754
0.139668
-0.0754939
0.00437157
0.0487155
-0.0530871
-0.597683
0.579181
0.0184973
-0.043688
-0.188594
0.232281
-0.527437
0.0691063
-0.00282337
0.0012746
0.0015488
0.677719
-0.22542
0.210923
-0.00113688
0.320836
-0.252458
-0.0683788
-0.289768
0.52835
0.525917
-0.150796
0.140453
0.0103413
-0.0766967
-0.234377
0.311073
0.0235004
-0.0748392
0.0851941
-0.228469
0.285351
0.431425
-0.457792
-0.0883655
0.142864
0.295796
0.405243
-0.508286
0.103043
0.576724
0.068698
-0.645422
-0.185663
0.160558
0.458008
-0.557826
0.0441539
0.00382533
-0.0479793
0.18841
-0.0187931
0.521078
-0.458014
-0.0630637
-0.393215
0.287523
0.105689
-0.223083
-0.118285
0.341366
0.701398
-0.410534
-0.290866
0.515921
-0.11068
-0.241325
-0.111157
0.352479
-0.0951535
-0.0282176
-0.117697
0.145914
0.352047
-0.137949
-0.214098
0.23906
-0.0181301
0.00584749
0.0789177
0.00866
-0.0212909
0.012662
-0.193301
-0.345313
0.538609
-0.434257
-0.446223
0.338013
0.108208
0.312352
-0.0723755
-0.239977
-0.625952
0.211889
0.41406
-0.130931
0.105686
0.0252446
0.183945
0.213587
-0.36664
0.125313
-0.203422
0.116658
0.0628584
-0.0654358
0.391344
0.136455
-0.527801
0.318122
0.383274
0.18109
0.401839
-0.111255
-0.290585
0.172164
-0.172769
0.244951
0.0276653
-0.545088
0.381293
0.65511
-0.171075
0.579663
-0.18806
-0.391604
0.00288079
0.051191
-0.0540718
0.0936729
0.425871
0.0153205
0.561404
0.0852146
-0.564761
0.479546
-0.504439
0.601472
-0.0970341
-0.145897
0.11768
-0.0131859
0.325537
0.446365
-0.2233
-0.223065
0.0269169
0.466573
-0.493496
-0.381983
0.499298
-0.11732
0.0950136
0.306825
-0.681882
0.235095
0.446787
0.140483
-0.0983446
0.156058
-0.33084
-0.108658
0.388517
-0.212692
0.211985
0.000705435
-0.469853
-0.212028
-0.0368112
-0.0941207
0.061525
0.174098
-0.235624
0.0773138
0.0190146
0.444072
-0.581682
0.137604
0.0508299
-0.00667595
0.10721
-0.180405
0.0822873
0.197826
-0.0146434
-0.0449268
0.0595701
-0.135514
0.36618
-0.230669
-0.35495
-0.15528
-0.056425
0.049279
0.00714579
0.486896
-0.459985
-0.0129564
-0.142646
0.155601
0.224002
0.0216911
-0.215981
0.372036
0.0109202
-0.0299981
0.214051
-0.152527
0.388298
-0.359964
-0.0283366
0.0611467
-0.0750799
0.013933
0.653548
-0.262432
-0.391118
0.0507012
-0.273787
0.728093
-0.372113
-0.355982
-0.0641822
0.067063
0.119943
-0.0173789
-0.102564
-0.511827
0.400165
-0.184617
0.0434945
0.141121
-0.260361
0.49182
-0.231463
0.037116
-0.0284565
0.00289844
0.481704
-0.484605
-0.453764
0.64171
-0.187949
0.627151
-0.25882
-0.368335
0.117603
0.0023399
0.196833
-0.240523
-0.319534
0.0693619
0.250171
0.110485
-0.369936
0.234418
0.324556
0.0637395
0.405661
-0.571441
0.0012977
-0.0016975
-0.0558748
-0.00938778
0.0652623
0.09553
-0.387917
0.292386
0.0592015
-0.073845
0.000220088
-0.0918033
0.0915828
0.385679
-0.0202519
0.201517
0.119308
0.0211748
0.574817
-0.365492
-0.209326
0.0155721
0.228154
-0.243727
-0.00120892
0.110301
-0.109093
0.104781
-0.255508
0.54407
-0.288564
0.306621
0.0244542
-0.331075
-0.00573932
-0.04764
0.0533792
0.0409976
-0.58813
0.614031
-0.0483904
-0.565641
0.134234
0.479796
0.173236
-0.0448148
-0.128422
-0.105299
-0.214237
-0.220765
0.236336
-0.000563891
-0.00225945
-0.505674
0.325133
-0.0727805
0.379401
0.369877
0.25727
-0.502696
0.242329
-0.113949
0.571957
-0.0581718
0.582283
-0.188946
0.565473
-0.376532
0.0526457
-0.058385
0.685939
-0.263811
-0.422128
0.314058
-0.446046
0.131985
0.174665
-0.187622
-0.655505
0.35523
0.300273
0.0827175
-0.00540365
-0.290101
0.222419
0.0676794
0.302505
-0.403685
0.061457
-0.0095291
-0.12456
0.438614
-0.253765
0.0825829
-0.0327905
-0.191761
0.22455
-0.212303
0.514808
0.0940062
-0.456131
0.362119
0.157791
-0.63203
0.20824
0.233565
-0.441807
0.0040677
0.000669271
-0.0047368
0.650069
-0.0269154
0.0378356
0.229935
-0.0997072
0.0984981
-0.049021
0.0521003
-0.596267
0.120253
0.476014
-0.122464
-0.473804
-0.0290879
-0.349657
0.378743
0.644175
-0.157462
-0.486719
0.517435
-0.532047
0.0146052
0.393563
-0.298035
-0.0827493
-0.101869
-0.00596598
0.000315943
-0.249171
0.213011
0.0361587
-0.0603879
0.0647594
0.0576643
-0.00933861
-0.0483258
-0.401579
-0.253927
0.230274
-0.423578
0.00558196
0.0092257
-0.0342195
0.0249938
0.107661
0.213175
-0.0649802
-0.00196008
0.473156
-0.264918
-0.212206
0.179414
0.502001
-0.535555
0.0335487
-0.108629
0.108849
-0.444172
0.520161
-0.0759934
-0.102283
-0.174683
0.381088
-0.410178
-0.448865
0.338409
0.110453
0.0537067
0.0890363
0.397854
0.32226
0.318708
-0.118064
-0.0197115
0.216663
0.0810208
-0.297685
-0.0194245
-0.0161596
0.0355839
0.339159
0.0247165
-0.363878
-0.131287
-0.446737
0.00948278
0.437253
0.357458
0.158463
-0.324811
0.0946158
0.230193
0.162885
0.0103504
0.283853
-0.201567
0.165679
0.380745
0.124525
0.432925
0.501388
-0.412357
0.0931682
-0.541258
0.131699
-0.153859
0.0221585
0.106636
-0.472999
0.366363
0.12391
-0.114389
-0.00952119
-0.0405246
-0.406214
0.0176911
-0.253116
-0.271277
0.137452
0.142531
-0.0596673
-0.0911305
0.453342
-0.359342
0.479353
-0.121896
0.661151
-0.500365
-0.160787
-0.170063
0.0111197
0.158943
-0.27364
0.527218
-0.253579
0.00627815
0.168358
-0.174637
-0.0339965
-0.00391599
0.0379124
0.603727
-0.122076
-0.610605
0.229319
0.381286
-0.583278
0.309638
-0.00114246
-0.00139656
0.307012
-0.672999
-0.22197
0.220341
0.00162695
0.00835371
0.519233
-0.127891
-0.495024
0.547731
-0.0527117
-0.403926
0.109943
0.293981
0.126832
0.0267822
-0.0991399
0.0905676
-0.366336
0.275767
0.0713764
-0.0636941
-0.00768209
-0.545304
-0.0523823
-0.578542
0.319718
0.00133269
0.00189196
-0.00322468
-0.083159
0.342379
-0.459113
0.544327
0.128805
-0.085369
0.473644
0.170526
0.20028
-0.154061
-0.384906
0.538962
0.122554
0.172101
-0.294656
-0.131919
-0.238196
0.370112
-0.430795
0.481487
0.122237
-0.0147566
0.0759029
0.378892
-0.434328
0.199564
-0.1921
-0.0074648
-0.080211
-0.503123
0.258146
-0.391724
0.133576
-0.582762
0.202918
0.379843
0.570043
-0.570049
0.527671
-0.164335
-0.36334
-0.559923
0.135973
0.522916
-0.178022
0.418651
-0.240629
0.255752
0.113168
-0.368922
0.330141
-0.506693
0.120115
-0.481527
-0.165839
0.667836
0.000688002
0.00914623
-0.00983408
0.00204527
-0.0360418
0.14545
0.319895
-0.465349
0.413968
-0.155823
-0.278285
-0.0465287
-0.306209
-0.202079
0.00816772
-0.00168834
-0.376425
-0.20212
0.239987
0.445951
-0.0825683
-0.373568
-0.148259
0.00302735
0.145231
-0.330318
-0.0696444
0.399959
-0.00412904
0.00329696
0.000832153
-0.135147
0.547155
-0.41201
0.000400891
0.000505437
-0.223531
0.225859
-0.00232936
-0.217434
-0.448568
0.212578
0.201389
0.0613031
-0.0234249
-0.0378784
0.202369
0.0085521
-0.426842
0.481612
-0.0547703
-0.529821
-0.0559207
0.318218
-0.493806
0.175589
-0.582217
0.0366162
-0.170413
0.587812
-0.417404
-0.590094
0.189769
0.400318
-0.449507
0.334987
0.114518
0.0399184
-0.0306927
-0.152728
0.150254
0.0024727
0.123778
-0.0205782
-0.1032
0.09312
-0.0867988
-0.00632162
0.0946783
0.32506
-0.687474
-0.0989591
-0.0156519
0.114611
0.50729
-0.400654
-0.0592767
-0.20754
0.00280053
0.218091
-0.515926
0.209716
-0.311581
0.501942
-0.0797571
0.0639078
-0.520671
-0.00988205
0.530547
-0.00160381
-0.0025252
-0.00237229
0.0147331
-0.0137212
-0.15207
-0.157013
0.36959
0.566038
-0.291041
-0.427568
-0.183038
0.250709
0.101338
0.396021
-0.514177
-0.165804
0.0212805
0.144523
0.353198
-0.126648
-0.132116
-0.0336876
0.0728605
-0.00239713
-0.0704636
-0.539352
0.404204
0.152094
-0.148104
0.00362325
-0.0322032
0.0285798
0.376162
-0.0886416
0.333843
0.176118
-0.509966
-0.361486
0.555472
0.337161
0.125669
-0.462834
-0.0139549
-0.14852
0.23054
0.0706125
-0.301154
-0.0361489
0.150469
0.0673522
0.00402452
-0.445887
0.606086
-0.160205
0.00347601
-0.00214337
0.000916545
-0.03802
0.0371034
0.473514
-0.382539
-0.0909761
0.163146
0.344144
0.202604
0.582418
-0.482832
-0.0995862
0.412223
0.421084
0.102273
-0.523356
-0.112641
0.0136812
-0.222869
0.0142468
0.115598
-0.113219
-0.00237927
-0.0787061
0.0973177
-0.0186118
0.215833
0.449841
-0.380881
0.458285
-0.0774048
-0.190216
0.467241
-0.277026
-0.195542
0.150727
-0.137555
0.1409
-0.00334644
0.00494939
0.034969
-0.00185055
0.0718458
-0.0699954
0.351033
-0.111598
-0.337269
-0.106423
0.0855448
0.0208783
0.00123907
-0.0945074
-0.0062857
0.100793
-0.114548
-0.134624
0.393506
-0.103701
-0.577726
0.315694
0.200858
-0.516557
-0.148783
0.697264
-0.481432
0.279044
0.0971153
0.186015
0.485633
-0.164113
-0.403258
0.567365
0.079022
-0.00616152
0.152634
-0.4725
0.431974
0.298972
0.398291
0.0261635
-0.053079
0.444801
0.0941244
0.643465
-0.186905
-0.456565
-0.415722
0.563417
-0.147699
-0.0970675
-0.528886
0.558426
0.00253254
0.00153534
0.435647
0.0854311
-0.0715758
-0.00333608
0.0180691
0.497916
-0.179698
-0.0506842
-0.159364
0.210048
-0.0250664
0.0286895
-0.0326311
0.0281511
0.151761
-0.407272
0.0191437
0.190859
0.0587572
0.523661
0.420842
-0.229645
0.0196365
0.210007
0.00870488
-0.0848424
0.0761371
-0.287034
0.311488
0.00272536
0.112873
-0.268181
0.0323877
0.235792
0.0766198
-0.48314
0.406514
-0.306856
0.231823
0.075031
0.118067
-0.532471
0.414401
0.0331398
-0.459981
0.130715
-0.137953
0.00723761
-0.37094
0.49105
-0.296743
-0.0911764
0.0192812
-0.514309
0.142002
-0.222616
0.0806132
0.11214
0.0117689
0.411999
-0.311547
0.110538
0.3428
-0.114204
-0.175898
0.0669287
-0.318861
0.25193
0.143436
0.146782
-0.0150828
0.0399331
-0.104109
-0.29544
0.0745518
0.220886
0.0077649
-0.102273
0.475328
-0.398714
0.119982
-0.355662
0.23568
-0.407638
0.00282207
-0.00615824
0.143337
-0.493506
-0.636847
0.291809
0.345033
0.00132439
0.0717812
-0.200683
0.423791
-0.223111
-0.0106342
-0.038387
0.0474052
-0.0495863
0.00218099
0.00257512
-0.00154618
-0.00102901
0.0337951
0.0950102
0.0771946
-0.521371
-0.0773638
-0.479163
0.494484
0.346231
-0.547766
0.201528
0.124534
0.422619
0.388306
-0.552424
-0.63022
0.295888
0.334331
-0.0420943
0.381252
-0.212774
0.335326
0.705249
-0.406279
-0.0992225
-0.0138771
0.113099
0.0155281
0.0142581
-0.113481
0.164297
-0.556364
0.392062
0.139346
-0.560542
0.421195
0.624611
-0.144822
-0.479792
-0.000183231
0.11949
-0.0197294
-0.0658096
0.0855387
0.107832
-0.145769
0.0379382
-0.0614218
0.121334
-0.600497
-0.453091
-0.082467
-0.137156
-0.462521
0.599672
-0.260217
0.435888
-0.175675
0.0602949
-0.0807702
0.0204749
0.0431647
-0.0307136
-0.0124508
-0.250139
0.317065
0.244179
0.461069
-0.14065
-0.308859
-0.48219
0.221968
0.156782
-0.162202
0.00541886
0.00128583
0.000390148
-0.00167595
-0.0619066
0.0580373
-0.0793664
0.0213288
-0.313276
-0.18053
0.465916
-0.355383
0.127814
-0.00403732
-0.000472983
-0.193549
-0.0165378
-0.084432
0.120599
0.311761
-0.241013
0.145957
-0.0381238
0.362727
0.505663
-0.349855
0.209524
0.38883
0.272319
0.130275
0.0502868
0.0385705
-0.0424867
0.144952
-0.551004
0.406048
0.39263
-0.121405
-0.271228
0.28695
0.106555
-0.577708
0.407289
0.283021
-0.213772
0.308785
-6.40839e-05
-0.00491745
0.00498186
-0.0020784
0.132792
0.127199
-0.0215138
-0.366759
0.487011
-0.453716
0.573115
-0.408823
0.0116567
-0.0109686
-0.0941497
0.0154434
-0.300744
0.224046
-0.00576892
0.0531742
0.158889
-0.587268
0.428373
-0.00912966
-0.484881
0.494005
-0.414828
0.319708
0.178208
0.0752722
0.0026487
-0.0779211
0.337874
-0.118074
-0.219803
-0.425953
0.10524
0.320709
-0.19686
-0.385903
0.0746133
0.214637
-0.289252
0.408621
0.215988
0.000137716
0.00221693
-0.00235478
0.0936287
-0.231579
0.0434178
-0.0440716
0.000653669
0.436112
0.09287
-0.343012
-0.000735708
0.0298806
-0.029145
-0.00134373
0.000249442
0.00109433
-0.067321
0.0900647
-0.39953
0.517594
0.066049
-0.0724152
0.00636607
-0.194266
0.555054
-0.389375
-0.0194946
0.159897
-0.140403
0.175918
-0.169642
-0.135938
0.31822
-0.182285
-0.00106878
0.606376
-0.24699
-0.359388
-0.595404
0.389615
0.205787
-0.00786031
0.0948695
-0.148297
-0.488555
-0.590876
-0.36194
0.230019
0.116078
0.359245
-0.00285054
0.00298816
-0.20356
0.0460523
0.157506
-0.110773
-0.364159
-0.108343
0.381551
-0.569612
-0.405019
-0.286148
0.576851
-0.0605445
-0.516312
0.256717
-0.407044
0.531577
-0.13061
-0.355636
0.486241
-0.628727
0.249356
0.379364
-0.00669925
0.0559781
-0.550438
-0.521108
0.0187136
0.502393
-0.150554
0.384322
-0.233768
-0.441336
0.329735
0.0323538
-0.0330896
-0.546346
0.00348304
0.542861
0.532978
-0.398824
-0.134156
0.0806211
0.0381152
-0.118736
-0.00325586
0.160038
-0.160022
0.54049
-0.380469
0.190136
0.346761
-0.536903
0.21878
-0.330036
-0.0130037
0.0710406
-0.110891
-0.0667511
0.00208525
0.0646657
0.18746
-0.0571851
-0.505433
0.351367
0.589737
-0.402326
-0.187413
0.00225
-0.00112118
-0.226551
0.445329
0.0981255
-0.324699
0.226571
-0.583048
-0.441273
-0.420133
-0.161541
-0.0062981
0.167838
-0.133596
0.251328
-0.117733
-0.186484
0.360579
0.410094
0.179642
-0.502126
-0.0185504
0.406495
0.12648
0.0884931
0.0240788
-0.509935
0.415218
0.0947172
0.00728965
0.145841
-0.30022
-0.296892
0.389759
-0.140971
0.100437
-0.130402
0.0299635
-0.00666229
0.123876
0.213995
-0.0584215
0.0295391
0.0288824
0.0041913
0.0889283
-0.362884
-0.0784541
-0.00979644
-0.0161939
0.0259901
0.348959
-0.228978
-0.0733454
0.0807572
-0.00741204
0.00160698
-0.0016707
-0.0273085
-0.0362255
0.0635337
0.564003
-0.199611
-0.364393
-0.218331
-0.00497933
0.223309
-0.38936
0.291504
0.102057
-0.000360734
-0.00224531
-0.011719
-0.546046
0.145842
0.400199
0.586501
-0.594742
0.00823638
-0.00559227
0.146043
-0.404505
0.565014
-0.160509
-0.412604
0.562846
-0.150244
-0.000924217
0.000508708
0.00041558
-0.406102
0.564986
0.341089
-0.455778
0.114685
-0.000958634
0.0304789
-0.000646175
-0.0298328
0.0345321
-0.401292
0.490066
-0.143839
-0.500933
-0.00176748
-0.000881874
-0.000461853
0.0817995
-0.0215049
0.105597
-0.111882
-0.201308
-0.310311
0.511617
-0.0685892
0.0592011
-0.0877875
-0.107755
-0.0953895
0.0756597
0.0112105
0.161551
0.170242
0.00442167
-0.0793728
0.0729856
-0.403306
-0.134219
0.243095
-0.00812915
0.143714
-0.135585
-0.0190058
-0.0152137
0.532235
-0.0590798
0.000223087
0.00084209
0.00214593
0.00344262
-0.0767884
0.0312658
-0.0303494
0.317441
0.118893
-0.436337
0.198406
-0.0234071
-0.174999
0.484466
0.158993
-0.0636193
0.271762
0.120865
0.0785556
-0.0549963
-0.0235592
0.658606
-0.658614
-0.03403
-0.00913016
0.0431602
-0.539173
0.126568
0.119255
-0.0386357
-0.434127
0.542455
-0.108332
-0.115815
-0.0515346
0.167349
-0.165232
0.190979
0.00742548
-0.0340447
0.0366542
-0.157195
0.120541
-0.154255
0.326354
-0.489517
0.625485
0.0595865
0.214872
0.386719
-0.0757343
-0.310985
-0.369044
0.114398
0.254643
-0.000969574
0.0314484
-0.363158
0.575045
0.643491
-0.403505
-0.440679
0.1573
0.283376
-0.062571
0.0124212
-0.0024229
-0.00175495
0.0341087
0.417877
0.146126
0.104022
0.428211
0.0192064
0.400233
-0.419444
-0.000988348
0.044406
0.124748
0.533851
0.260802
-0.338772
-0.0001849
-0.0382482
0.038433
0.393355
-0.57225
0.178889
0.0891135
0.192054
-0.281169
-0.10224
0.546768
-0.101967
-0.0445747
0.0205743
0.0240005
-0.267815
0.39491
-0.127097
0.218821
-0.514244
-0.00286621
0.16132
-0.158454
0.00713216
0.0391449
0.117062
0.0238371
0.318087
-0.219964
0.499783
-0.163255
-0.336531
0.223535
0.419955
-0.000931227
-0.00187223
0.00280345
-0.015937
0.116374
-0.531099
0.00998892
0.0321595
-0.250492
-0.574567
0.402708
0.171853
0.420473
-0.334538
-0.410872
0.545105
0.0211147
-0.47421
0.152667
-0.148894
-0.00377358
0.254129
0.225223
0.453931
-0.112845
-0.0921877
0.38908
-0.22764
-0.0283611
0.0215724
0.00678852
0.0496177
0.0116852
-0.00631471
-0.215657
-0.0419609
-0.0164606
0.0492052
-0.483337
0.201016
0.0193237
-0.0781717
0.478401
-0.413024
-0.161548
-0.158133
0.434341
-0.276213
0.335211
0.118716
0.0302273
-0.00172792
-0.0284994
-0.151745
0.471636
0.102492
0.0434655
0.435785
-0.118347
-0.230085
-0.533337
0.00146814
-0.000494588
-0.000973567
0.211757
0.376145
-0.0260576
-0.080365
0.108703
-0.2423
0.0348381
-0.107175
0.0723367
-0.236572
0.033011
0.195746
-0.00652855
-0.189219
-0.00771689
-0.199296
-0.0233218
-0.311602
0.0772228
0.0620178
-0.148786
0.311019
-0.162233
7.44858e-05
0.00183843
-0.00191288
-0.137062
0.171216
-0.0341557
0.575897
0.424248
-0.280914
0.195105
-0.158452
-0.157226
-0.0150355
-0.321076
0.511208
0.0171281
-0.0126549
-0.00447285
0.419653
0.153456
-0.163015
-0.0024562
-0.0035095
-0.197143
0.605808
-0.408667
-0.106981
0.0872841
-0.254225
-0.146027
-0.3714
-0.0972207
-0.492413
-0.0085246
-0.140953
0.527908
-0.386956
0.384287
-0.26369
0.0771195
-0.08498
-0.417232
-0.155023
0.0603296
0.0214696
0.0018968
-0.00282798
0.229791
-0.0267548
-0.203037
-0.00549916
0.000581998
0.411392
-0.0222809
0.599125
0.214575
-0.58669
0.451204
-0.114047
-0.407489
0.129434
-0.1084
-0.0210352
-0.10295
-0.227618
0.330567
0.349511
-0.523945
0.174429
-0.101272
-0.324683
0.107287
-0.561055
0.0334498
0.0302661
0.0128988
0.292126
-0.0715926
0.00661205
-0.00636171
-0.0775348
0.0838962
0.439558
-0.123869
0.0766218
0.378283
-0.454905
-0.0971337
-0.171049
0.148236
-0.101978
0.526657
-0.424679
0.340769
-0.47612
0.13535
-0.530409
0.388981
0.141428
-0.42762
-0.168104
-0.339634
0.583828
0.439247
0.107521
-0.00331619
-0.000924289
0.00424051
0.412419
0.0924528
-0.504877
0.0133189
0.085
-0.206614
0.252664
-0.201883
0.276495
-0.589088
0.448134
0.431686
-0.595631
0.16394
-0.149204
0.0566254
0.0925779
0.244225
0.104733
-0.401322
0.559739
-0.414791
0.351538
0.129618
-0.48116
-0.219249
0.397999
-0.288905
-0.151777
-0.151083
0.622593
-0.399058
-0.135881
-0.0227969
0.158678
-0.00333213
0.101385
-0.0980537
0.387566
-0.473842
0.0862751
0.482145
0.104353
-0.0988097
0.450757
-0.351951
0.362531
-0.141781
-0.220751
-0.187951
-0.203774
-0.298438
0.0719003
0.226536
-0.13531
-0.186344
0.0492809
-0.341993
0.239042
0.344788
0.154992
0.00861674
0.0404389
-0.0490553
-0.144241
0.493748
-0.0421404
0.0259806
-0.103952
0.0888057
0.0151455
-0.0537608
0.314563
0.118798
-0.113449
-0.00534977
0.455019
-0.464154
0.667213
-0.246991
-0.420224
0.13492
0.319427
-0.454351
0.316215
0.100103
-0.416318
-0.0937659
-0.406152
0.499917
0.503791
-0.0913761
-0.503101
0.503096
0.161141
0.398594
0.113963
-0.133703
0.569941
-0.147908
-0.422035
0.559955
-0.398819
0.377081
-0.187354
0.206406
-0.195049
-0.0113582
-0.00732912
0.0826012
-0.0810627
0.338839
-0.248273
-0.146751
-0.481982
0.131195
-0.139324
0.127029
-0.0255803
-0.101449
-0.0919299
0.32561
-0.0268282
0.12496
-0.130177
0.00521656
0.129481
-0.0261467
-0.103337
0.577749
-0.175956
-0.401795
-0.14731
0.00466434
0.478064
-0.144225
0.352091
0.289616
-0.324798
0.459714
0.0311169
-0.031692
0.000574985
0.010258
0.107344
-0.0933073
-0.379691
-0.0662712
0.358193
-0.365013
-0.136982
0.501991
-0.380633
-0.146805
-0.439816
0.131477
0.308335
-0.377033
0.453655
-0.268805
0.100455
0.16835
-0.544472
0.299859
0.190794
0.0156109
0.315135
-0.0984726
-0.0310815
0.0303627
0.00071869
0.0101082
0.559929
0.139123
-0.0973759
-0.0417471
-0.347561
-0.282659
0.0675468
-0.0217792
-0.0457676
0.180463
-0.00234325
-0.178121
0.00556462
0.0675781
-0.0731429
0.112591
-0.0240984
0.00400021
0.125433
0.013517
0.133264
-0.00222484
-0.0357953
0.482467
-0.0949004
-0.00676608
0.038738
-0.581565
0.19757
-0.21845
0.0208787
0.168034
0.401905
-0.090002
0.219878
0.0251946
-0.245073
0.218997
-0.372098
0.153098
0.0374325
-0.00292154
-0.034511
-0.0716628
0.26425
-0.19259
0.0322391
0.422981
-0.0123209
0.122502
-0.110182
0.168262
-0.521264
0.39231
0.128949
-0.0833863
0.287456
-0.204072
-0.304559
0.650025
-0.26247
-0.387557
0.399035
-0.107532
0.130084
-0.13295
0.11128
-0.446794
-0.103147
0.215608
-0.112461
-0.227565
0.496929
-0.269368
-0.238877
0.0395804
0.279297
-0.480608
-0.501797
-0.0754917
0.0735313
0.108765
0.267599
0.399612
0.366165
-0.117343
-0.248824
-0.0044665
0.00286274
0.201817
0.000550407
0.1345
-0.134962
0.000462238
0.0892366
0.0135702
-0.102807
-0.55103
0.425801
0.125228
0.391974
0.185772
0.0840788
-0.0714391
-0.0126399
0.285988
0.113045
0.168958
0.00320373
0.218523
-0.0648381
0.00458476
0.0602533
-0.0811912
0.397406
0.0327737
-0.113506
-0.0372089
0.343374
-0.306165
-0.381446
-0.00709555
-0.4061
0.218147
-0.457366
0.345706
0.111656
-0.00193727
-0.000938058
0.00287525
-0.219724
0.0356775
-0.156776
0.560245
-0.40347
0.0853
0.134578
-0.00449573
0.0925889
-0.0880935
0.126824
-0.30597
0.179144
-0.00577267
-0.0590654
-0.0215958
0.081925
-0.501365
0.562283
-0.0609201
-0.202034
0.0138724
0.188161
0.0412919
-0.00272147
-0.188426
-0.013609
-0.0762461
0.0699005
0.00634552
-0.510253
0.0442461
0.466002
0.340966
-0.43978
-0.0261031
-0.000206823
0.0263098
0.0224585
0.104569
-0.00207166
-0.000623461
0.00269521
0.122034
-0.563565
0.441525
-0.103435
0.438419
-0.11084
0.00510126
-0.0354507
-0.120093
0.0527718
0.273248
0.111036
0.448757
-0.107989
0.0048333
-0.166375
0.0972341
-0.0042086
-0.0930257
-0.0730135
-0.00819232
0.0812055
-0.435369
0.0694902
0.388668
-0.458162
-0.00555537
0.0716043
0.205708
-0.00441984
-0.201289
0.210792
0.316875
0.0827856
-0.103364
0.018869
-0.145583
0.343149
-0.582574
0.421936
0.160632
-3.21216e-05
0.00150035
-0.0611867
-0.208361
0.557864
-0.11651
0.570504
-0.453999
0.0102056
0.00692283
-0.525645
0.0242778
0.614074
-0.19299
-0.481726
0.254156
0.153966
0.328806
-0.450566
0.121756
0.142888
-0.0403949
0.123445
-0.226592
-0.0667872
-0.108966
-0.233136
0.3421
0.000165832
-0.000990469
0.00082456
0.477137
-0.223009
0.112307
-0.00673569
-0.105572
0.0936622
-0.0969949
0.0438422
-0.543786
0.43518
0.108604
0.369893
0.136307
-0.506204
-0.0117265
0.136686
-0.207316
-0.362737
-0.0294486
0.403032
-0.199001
-0.331408
0.335301
-0.00597516
-0.0753929
-0.162925
-0.203377
-0.392029
0.00260345
-0.0310603
-0.178899
0.188849
-0.00995125
0.00388323
0.36607
-0.215054
-0.151018
0.59186
-0.135803
-0.456057
0.571057
0.200382
-0.20016
-0.0710728
0.069222
0.0101453
-0.000998928
0.211169
0.407884
0.00298481
0.147268
0.0997037
-0.527258
0.427555
-0.11209
-0.328282
0.440368
-0.155586
0.0394568
-0.0416818
-0.0221288
-0.184127
-0.286786
0.224877
0.107067
0.020747
-0.0948064
-0.174
-0.0684242
-0.0703987
-0.115871
-0.427916
0.250243
-0.455044
-0.5139
-0.015607
-0.120275
0.147403
-0.149483
0.540799
-0.401453
-0.00134271
-0.0971637
0.098506
-0.497812
0.36018
0.137628
0.176169
-0.603796
-0.0344718
-0.000815142
0.0352874
0.0382793
-0.0412009
-0.170846
-0.224334
0.395178
-0.0017734
0.00218755
-0.343361
0.257705
0.0856561
0.0377928
-0.0351896
0.173665
0.299848
-0.0340124
0.417751
-0.344401
0.462003
-0.117606
-0.0991371
0.161452
-0.622759
0.461305
0.32243
-0.486813
0.16438
-0.326301
-0.0494228
0.0565684
0.0507624
0.0086148
-0.0593774
0.0439403
0.0951827
0.065789
-0.0715617
0.0872022
-0.312098
0.224894
0.0486106
-0.00560894
-0.0430016
0.0572303
0.19968
0.000701359
0.43614
-0.314111
-0.146153
-0.358206
0.504354
-0.402445
-0.511108
0.379984
0.131119
-0.0545938
-0.0261768
0.61692
-0.445332
-0.171595
0.259687
0.0181981
-0.277887
-0.371532
0.126546
-0.101302
-0.00718245
0.0663839
-0.00836739
0.00639377
0.00197371
0.126154
-0.450991
0.324833
-0.0672674
0.0799744
-0.0127073
-0.218442
0.342316
0.240306
-0.323467
-0.209687
0.518362
-0.310104
-0.215543
-0.00113984
0.001714
0.306965
-0.0767738
0.0331001
-0.0332851
0.0646098
-0.198828
0.327199
0.121557
0.1073
-0.00170343
0.39919
0.225275
0.25034
-0.0279226
-0.390326
0.23219
-0.00430258
0.0904913
-0.0861889
-0.296867
-0.234103
0.330858
-0.198116
-0.132744
0.445578
0.342392
0.285493
-0.0807074
0.0762113
-0.228971
-0.0997278
0.328697
0.224513
-0.121845
-0.102669
-0.139021
0.461449
-0.00513386
-0.139323
0.0271184
-0.0253327
-0.00178583
0.331874
-0.49502
0.163141
-0.12659
-0.0559063
-0.46981
0.0891762
0.379217
-0.0922683
-0.179807
-0.399906
0.579712
-0.0193329
0.108569
0.00754412
0.190026
-0.182772
-0.194929
-0.0883353
0.283263
0.103755
-0.535531
0.431775
-0.148588
0.496465
-0.347882
0.584468
0.323684
0.17561
0.40973
-0.538925
0.12919
0.152191
0.0285419
-0.0558506
0.245673
-0.213436
-0.272318
0.432252
0.5761
-0.240767
0.561056
-0.0316021
-0.529456
0.127015
0.00252375
-0.00911537
-0.0624776
0.101619