/*--------------------------------*- C++ -*----------------------------------*\
| =========                 |                                                 |
| \\      /  F ield         | OpenFOAM: The Open Source CFD Toolbox           |
|  \\    /   O peration     | Version:  v2012                                 |
|   \\  /    A nd           | Website:  www.openfoam.com                      |
|    \\/     M anipulation  |                                                 |
\*---------------------------------------------------------------------------*/
FoamFile
{
    version     2.0;
    format      ascii;
    class       volVectorField;
    location    "550";
    object      U_0;
}
// * * * * * * * * * * * * * * * * * * * * * * * * * * * * * * * * * * * * * //

dimensions      [0 1 -1 0 0 0 0];


internalField   nonuniform List<vector> 
13851
(
(1.02363 0.0195944 -2.57202e-21)
(0.607752 0.0890514 -3.38012e-21)
(0.982318 -0.0605764 1.16491e-20)
(1.02551 0.0192867 0)
(1.00337 -0.0666384 2.43972e-20)
(1.01894 0.0301225 0)
(1.0232 -0.00569745 -1.10797e-20)
(0.993299 -0.0463437 9.02979e-21)
(1.01952 -0.0089467 -1.08966e-21)
(0.959368 -0.0444569 0)
(0.858873 0.00745427 1.38285e-22)
(0.472743 -0.0852742 4.00273e-21)
(1.01943 -0.0771701 1.10344e-20)
(-0.0714776 -0.00859922 2.21187e-20)
(1.01612 -0.000666782 3.74531e-21)
(0.989695 -0.0195054 -5.46096e-21)
(1.01081 -0.0222227 9.0008e-21)
(1.00655 0.0159935 5.78101e-22)
(1.01329 -0.0833723 2.66703e-20)
(1.01967 -0.00834361 8.75815e-22)
(1.02519 0.0185663 -1.16643e-21)
(0.985107 -0.0610412 5.98484e-21)
(0.99874 0.00030493 -2.78334e-23)
(1.01062 -0.000702591 -1.74001e-21)
(0.998554 0.000154122 1.76272e-23)
(0.991305 -0.0458317 -1.54445e-20)
(1.02416 -0.0274272 -2.68165e-20)
(-5.64631e-05 -0.0334954 0)
(1.0228 0.0185351 3.15296e-21)
(1.00648 0.00300861 2.39204e-21)
(0.972907 0.0228655 4.06443e-22)
(1.0102 -0.023349 -9.56945e-21)
(0.981464 -0.0584969 -1.02089e-20)
(1.01415 -0.0283215 1.40677e-21)
(1.01194 -0.000845 1.79153e-21)
(1.00632 -0.0757685 0)
(1.00303 -0.0712431 4.70901e-21)
(0.991018 -0.0870696 -1.25905e-20)
(0.957102 -0.0462952 0)
(1.02843 -0.0455317 -3.46531e-21)
(1.01976 0.0059999 0)
(1.01068 0.00803445 2.26274e-23)
(0.00295682 0.0630732 -1.73225e-20)
(0.886965 0.0296256 1.90569e-22)
(0.907481 0.0216062 -2.89657e-22)
(0.122155 0.000263248 -3.2386e-20)
(0.948905 0.0512894 2.11279e-22)
(0.871414 0.0866251 0)
(1.02434 -0.028573 2.82099e-20)
(1.02085 -0.0405934 -7.55344e-23)
(1.01305 -0.0672892 -1.55814e-20)
(1.01138 -0.0707109 2.62157e-20)
(-0.0160857 0.00748495 0)
(1.01581 -0.00053971 0)
(1.01475 9.62114e-05 -2.04044e-21)
(1.01139 0.00857987 1.7385e-24)
(1.00248 -0.00108722 -1.52697e-22)
(-0.035008 -0.00954551 0)
(1.00736 0.00318382 -2.92825e-21)
(1.02208 -0.0072711 0)
(0.988424 -0.0880938 -5.56212e-21)
(0.714322 -0.129464 5.02773e-20)
(1.00986 0.0220671 -1.09938e-21)
(1.00519 -0.0694843 1.09633e-21)
(0.906407 0.0532785 6.18206e-21)
(1.02592 0.0246821 7.45477e-22)
(1.00115 -0.0703658 -5.93491e-21)
(0.96701 0.075376 -2.4561e-22)
(1.01912 -0.0486356 1.48257e-20)
(1.0074 0.0166382 -9.89759e-22)
(0.606707 -0.0307129 0)
(0.992049 -0.0708939 0)
(0.671877 0.0992012 5.14989e-21)
(1.01579 -0.000581434 0)
(1.0167 0.000455688 -7.08579e-21)
(1.02499 -0.0129869 0)
(0.986712 -0.0599084 -8.85864e-21)
(0.661596 -0.0376925 -2.6222e-20)
(1.00684 -0.0550743 -1.97728e-20)
(0.604315 -0.0338333 -1.3783e-20)
(1.02129 -0.0105733 0)
(0.971401 0.0871666 1.73528e-22)
(1.01615 -0.00211871 1.44002e-20)
(0.0981065 0.00242598 -7.11983e-20)
(1.0116 0.0220931 -1.23619e-21)
(0.514107 -0.0864145 -2.96836e-21)
(1.04998 0.0315827 0)
(0.603131 -0.0644033 -8.53822e-21)
(1.01615 -0.0285944 0)
(0.991086 -0.00845012 -9.69618e-23)
(1.00705 -0.0753034 8.17642e-21)
(1.07308 0.0323508 0)
(0.965061 0.0888424 1.00005e-21)
(1.01524 -0.0350948 0)
(1.0174 -0.0284401 0)
(1.00287 -0.000662693 1.31546e-23)
(1.0043 -0.0675028 -2.53578e-20)
(0.834893 -0.0769017 -1.15403e-20)
(1.01981 -0.0413661 8.46102e-23)
(1.00203 -0.000436317 0)
(-0.0852643 -0.0127883 -4.32408e-20)
(1.01214 -0.0592546 1.35579e-21)
(1.01697 0.00992884 0)
(1.03586 -0.0270573 -1.1972e-20)
(1.00663 0.00052266 0)
(1.04594 0.0304367 -2.35877e-22)
(1.01302 -0.0623464 0)
(1.01257 0.00600922 -4.79481e-23)
(0.987551 -0.0697828 7.47453e-22)
(1.01218 0.033657 -2.15128e-21)
(1.00597 -0.00050992 0)
(0.990537 -0.00941172 0)
(1.06918 0.0302597 0)
(1.00382 -7.16974e-05 8.23874e-22)
(1.00726 -0.00071611 -8.77336e-22)
(0.98005 0.0580155 0)
(0.865944 -0.0786648 2.65821e-20)
(1.00898 0.00433714 -3.5388e-23)
(1.0148 -8.66839e-05 -2.01996e-21)
(1.01403 0.000123027 -4.06505e-21)
(0.00250476 0.0689515 3.3896e-20)
(1.03461 -0.0266812 0)
(1.02284 -0.0791796 -1.14466e-20)
(0.942295 0.0863706 -3.28393e-22)
(0.829287 0.0836604 4.15489e-22)
(1.00382 0.0154041 -6.23224e-23)
(0.824305 0.0886438 -1.41877e-22)
(1.00949 -0.057214 -2.24758e-20)
(1.02639 0.0184056 0)
(1.00244 -0.0770121 0)
(1.01959 0.00566075 4.79418e-21)
(1.02008 -0.00148926 0)
(0.632055 -0.0350874 -3.59711e-21)
(1.01618 -0.00216367 -9.22148e-21)
(0.991289 0.0509401 -1.22134e-21)
(1.01843 -0.000509313 0)
(1.00882 0.00391625 -5.17925e-23)
(0.994352 -0.0696305 1.13421e-20)
(0.0845339 -0.121017 0)
(0.0934644 -0.0408257 0)
(-0.0931507 -0.0108449 4.70968e-20)
(1.01476 5.54469e-05 -5.22155e-21)
(1.0428 -0.0248434 -3.19173e-23)
(1.00815 0.0131272 -9.03451e-24)
(1.0108 -0.0124002 5.9054e-21)
(0.888656 0.0448918 -1.04333e-21)
(1.02469 0.0473079 2.63358e-22)
(1.00096 -0.0779148 7.19385e-21)
(1.02265 -0.00538791 4.71415e-21)
(0.90492 0.0105208 7.31719e-22)
(1.02032 -0.0764866 0)
(1.01528 0.000127204 -9.31689e-22)
(-0.0659976 -0.00561844 -3.13726e-23)
(1.0021 -0.00101772 5.0421e-22)
(1.01905 -0.0183562 1.14444e-20)
(1.0107 -0.0114913 9.70779e-23)
(1.02783 0.00259942 -2.93654e-21)
(1.00893 -0.000560911 1.60856e-21)
(1.01123 -0.0710675 0)
(1.01263 -0.0666269 1.47731e-20)
(1.02414 0.0119868 0)
(1.02357 -0.0389242 7.89762e-21)
(-0.0324993 -0.00725725 -1.14689e-20)
(1.01981 -0.0016908 1.72962e-21)
(0.997295 0.000876097 0)
(1.00861 0.0107419 3.76127e-23)
(1.01468 0.0494842 -1.81697e-22)
(1.01996 -0.0498211 -1.62048e-20)
(1.02612 0.0174809 -1.37049e-21)
(0.71029 -0.0788054 0)
(0.638819 -0.0356861 4.16901e-20)
(1.00867 -0.00528328 -3.00627e-22)
(1.02769 0.00305835 6.28827e-22)
(0.0618999 -0.0462306 7.06332e-21)
(1.01935 -0.00159819 0)
(0.877747 0.083983 0)
(1.00897 -0.0561458 1.55992e-20)
(1.0487 -0.0197604 -1.19048e-21)
(1.01436 -0.0827344 -3.42147e-20)
(1.01433 0.00736497 1.17583e-23)
(1.00802 -0.0239251 0)
(0.991227 -0.0694906 -9.03282e-21)
(1.01631 -0.00212666 5.26133e-21)
(0.985674 -0.0634168 -2.22665e-21)
(1.01386 0.00207982 7.65328e-25)
(0.997905 -0.000119847 8.80558e-23)
(1.02462 0.0245743 0)
(1.01605 0.000185079 0)
(1.00087 -0.0695337 -1.28209e-20)
(0.948849 -0.0159881 -2.47252e-21)
(0.947806 0.0673472 0)
(-0.0215295 0.00547158 -2.64457e-20)
(0.98827 -0.00979266 -5.87457e-22)
(1.01467 -0.0467749 -1.56915e-20)
(0.733825 -0.130727 -2.16285e-20)
(1.01825 -0.0168073 -5.39145e-22)
(1.04109 -0.0233032 5.36139e-22)
(1.01115 -0.096112 1.18607e-21)
(1.0467 -0.0199418 1.07932e-21)
(1.02592 -0.0128904 -1.16396e-21)
(1.00386 0.015374 1.87459e-22)
(0.38229 -0.0647382 4.96399e-20)
(1.00969 3.87002e-05 -3.04563e-21)
(1.01561 0.000361026 0)
(0.959503 -0.024593 0)
(1.01646 -0.00230403 2.67329e-21)
(0.520274 -0.141316 -4.03969e-21)
(1.01254 -0.0246676 1.03086e-20)
(0.726879 -0.0438224 0)
(1.01886 0.00910159 0)
(0.97382 -0.0590179 0)
(1.01718 0.00943878 1.37588e-21)
(0.945931 -0.124462 1.33469e-21)
(1.01486 0.00608274 -9.39796e-24)
(1.00935 0.0127089 3.12197e-23)
(0.874821 -0.00478223 0)
(1.01063 0.0243774 1.80861e-23)
(0.0611241 0.0147322 0)
(1.016 -0.00110582 4.82379e-21)
(0.740675 -0.0451671 1.13292e-20)
(1.01172 -0.024898 6.254e-21)
(1.02163 -0.0111511 -1.0023e-20)
(0.951074 -0.0655031 -2.40598e-20)
(1.00871 -0.073041 -1.1662e-20)
(0.914148 -0.0568644 4.38034e-21)
(0.99779 6.45097e-06 -8.01002e-23)
(1.01316 -0.0388153 4.87572e-21)
(1.0051 0.000300091 3.12209e-24)
(-0.0369658 0.0240055 2.74669e-20)
(1.01571 0.00647907 5.5658e-24)
(0.990694 -0.0437932 7.30563e-21)
(0.898563 0.0611936 -1.92542e-21)
(1.00836 -0.00485968 4.75751e-22)
(0.98891 -0.00869325 3.51433e-22)
(1.0153 -0.0666051 -4.12147e-21)
(0.996472 0.0248681 -5.19683e-22)
(0.57405 -0.137048 8.58166e-21)
(0.862287 0.0482626 -2.6837e-21)
(1.00879 0.0133336 8.30778e-24)
(1.01558 0.000203038 4.47914e-21)
(0.980994 0.0214757 3.54305e-22)
(1.01215 -0.037118 -6.82937e-24)
(1.031 0.0203736 1.31078e-23)
(0.956702 -0.0255462 -3.51641e-23)
(1.00816 0.000871171 -3.84615e-24)
(0.850093 -0.053515 0)
(1.01099 -0.059547 0)
(0.966073 -0.0785282 -1.37808e-21)
(1.00968 -0.0101339 -9.89862e-21)
(1.00345 -0.0159035 0)
(1.07957 -0.00500555 -1.63785e-21)
(1.0118 -0.034168 7.08988e-23)
(1.01563 -0.00735622 -6.95337e-22)
(1.00982 -0.0110934 5.63237e-21)
(1.01868 -0.0634753 -2.33664e-22)
(0.858226 0.0023106 -5.04428e-21)
(0.95066 -0.0125394 4.3728e-21)
(0.993866 -0.0684267 -1.24206e-20)
(0.567385 -0.0297962 -3.02137e-20)
(1.01788 -0.00206316 -1.13149e-20)
(1.00875 0.0125911 -2.11566e-23)
(1.00913 0.0164427 0)
(0.685826 0.00519808 0)
(1.00199 0.0120769 -2.72169e-24)
(1.01217 -0.0900364 0)
(1.01765 -0.0163264 1.02782e-20)
(1.01595 -0.00735416 -5.72196e-21)
(1.01607 -0.0343977 -1.04903e-20)
(0.981436 -0.0660878 2.29374e-20)
(0.957536 -0.00961318 -5.94159e-22)
(1.07944 -0.00848208 -5.08079e-23)
(1.01822 -0.0179215 0)
(0.784361 0.0142485 -3.73854e-22)
(1.00757 -0.0537586 2.13918e-21)
(0.990213 -0.0176175 5.108e-21)
(1.02053 -0.00156286 -1.72572e-21)
(0.966261 0.0860156 3.51111e-23)
(0.973014 0.0191085 0)
(0.950188 -0.0622367 0)
(0.859362 -1.57718e-05 1.91896e-21)
(1.03279 0.0209635 0)
(1.01883 0.00786496 3.12977e-24)
(1.0075 0.000547417 0)
(1.0194 -0.0626982 -2.153e-22)
(0.698376 0.00556627 0)
(0.921176 0.0859904 -1.73988e-22)
(1.02332 -0.0101858 1.07151e-21)
(1.01698 -0.000829322 0)
(0.766736 0.00781414 -1.00005e-22)
(0.971639 0.0989723 -2.03501e-22)
(1.00126 -0.0800042 9.63594e-21)
(1.00776 0.00207469 2.4191e-21)
(1.02193 -0.00758125 0)
(1.01574 -0.0504269 0)
(0.97457 0.0955973 0)
(1.01249 -0.0871506 0)
(0.998338 -0.00247925 -3.8512e-21)
(0.503968 -0.0819938 0)
(1.02128 -0.00141519 1.85847e-21)
(0.869304 -0.0545507 1.36632e-21)
(1.02419 -0.0381197 0)
(1.01009 -0.0209554 0)
(0.956029 -0.0623289 0)
(1.01561 0.0035563 2.18934e-21)
(1.04279 0.0291607 1.93576e-22)
(0.891554 -0.0566043 -1.04447e-20)
(1.02261 -0.0096456 8.5871e-22)
(1.01957 -0.0585022 -2.4969e-20)
(1.01384 -0.034806 0)
(1.00848 0.00225026 2.76715e-21)
(0.174459 -0.134353 2.9831e-20)
(0.997508 -0.00185507 0)
(1.01507 -0.00582224 -6.55579e-21)
(0.917907 -0.069196 -5.33369e-21)
(1.00987 0.00887917 -2.05712e-23)
(1.00305 -0.016834 4.67193e-22)
(1.00511 0.0160791 2.01863e-22)
(0.983141 -0.0640452 0)
(1.01117 -0.0761253 7.24756e-21)
(1.01613 -0.00124041 -1.00271e-20)
(1.01451 -0.0611957 -6.37006e-21)
(1.0166 -0.00116483 -9.90252e-21)
(0.64133 -0.0413121 6.02872e-20)
(1.08743 -0.00137609 1.87697e-21)
(0.998086 0.000225197 -9.75698e-24)
(1.03445 0.0046752 0)
(1.01158 -0.0753464 3.27857e-21)
(1.01389 -0.0375997 -1.44601e-20)
(1.0205 -0.0184545 6.01829e-21)
(1.01695 -0.000719708 -1.95775e-23)
(1.0156 0.00316486 -2.12124e-21)
(1.01496 -0.00534002 -2.19072e-21)
(0.868165 0.0114117 0)
(0.0314502 -0.00677445 0)
(0.730159 -0.0910826 1.27314e-21)
(1.01004 0.0217234 9.29875e-23)
(0.986996 -0.0635001 -1.3006e-20)
(0.920868 -0.117334 -3.15246e-20)
(1.01603 -0.000605016 0)
(1.01333 -0.0470755 -1.55306e-20)
(0.999847 -0.081174 0)
(1.06858 0.0375994 -1.32983e-22)
(0.998466 0.0351539 5.48634e-22)
(1.01121 -0.0699976 3.51871e-21)
(1.01255 -0.0855702 0)
(1.06536 0.0132076 -5.50029e-22)
(0.856129 0.0283733 0)
(0.882794 -0.055095 -1.27763e-20)
(1.01614 -0.000581848 0)
(0.969464 0.0521823 1.20532e-21)
(0.96743 0.0485004 -1.20423e-21)
(0.957054 -0.0865114 -5.60114e-21)
(1.02123 -0.0186257 -9.87666e-23)
(0.99898 0.0382428 -5.61331e-22)
(-0.0416394 0.0199287 -1.34913e-20)
(1.02832 0.00347473 -4.35423e-21)
(0.904598 0.0410058 -4.86386e-22)
(1.03468 0.00411786 2.11052e-21)
(1.01654 -0.0011272 2.34641e-21)
(1.0094 0.00111771 0)
(1.01324 0.00634344 2.63634e-23)
(1.02565 0.00207005 -1.16561e-21)
(0.916108 -0.0564185 1.35333e-21)
(0.977809 -0.0875383 -4.21813e-22)
(1.01561 -0.000199287 -4.59312e-23)
(1.02017 -0.0573059 3.17235e-22)
(1.01078 0.0106025 0)
(0.465142 -0.0866148 0)
(0.980587 -0.0134774 -3.76769e-21)
(0.973445 0.0875064 0)
(0.730165 -0.0829791 2.24143e-20)
(1.01562 4.5387e-05 0)
(1.01202 0.0248387 0)
(1.01154 -0.0335159 0)
(0.967932 0.0866109 0)
(1.02016 0.00535722 0)
(1.00863 0.00462816 3.12572e-23)
(1.07794 0.0136919 3.44952e-22)
(-0.0442715 -0.0209217 -1.32618e-20)
(1.01662 0.000306638 3.30584e-21)
(0.264462 -0.148964 -4.31896e-20)
(1.07223 0.0369217 0)
(1.01135 -0.0701465 2.74746e-20)
(0.656194 -0.0749703 -2.71364e-20)
(0.894131 0.0532543 0)
(0.8981 0.0611256 0)
(1.06878 -0.0204195 5.50494e-23)
(1.02037 -0.000207295 3.40262e-21)
(1.01531 -0.000408309 -4.92893e-21)
(1.01059 0.0210541 0)
(1.01552 -0.0613924 0)
(-0.0429326 -0.00780082 2.33968e-20)
(1.02195 -0.0508593 -4.11803e-21)
(0.950008 -0.0584832 -1.94784e-20)
(0.892214 -0.0565839 -8.02017e-21)
(1.01017 0.0104804 0)
(1.01818 -0.00220377 -7.20958e-21)
(0.711522 -0.0866759 -2.48636e-20)
(0.632102 -0.0346337 1.84e-20)
(0.924959 0.0581319 2.71035e-21)
(0.88889 -0.0769997 -1.40289e-20)
(1.08167 0.0141755 0)
(1.011 -0.0347598 0)
(0.999662 -0.000273995 -1.20656e-22)
(0.959294 -0.113512 5.56895e-21)
(1.01312 -0.00798183 -2.04938e-22)
(0.991006 -0.0207974 0)
(1.06557 -0.0194392 9.81003e-22)
(1.02072 -0.00524108 0)
(1.00613 0.000325956 0)
(1.02171 -0.00979885 -4.63942e-23)
(1.00914 0.0108382 -6.56914e-23)
(1.00607 -0.0688496 0)
(0.989413 0.0293755 -9.48156e-22)
(0.695032 -0.0464648 0)
(1.00879 0.0184788 0)
(1.01401 -0.0622276 7.0097e-21)
(1.03638 0.0367066 0)
(1.0152 -0.0330135 3.10628e-23)
(1.00049 -0.0147685 2.83582e-21)
(0.95319 -0.0858122 0)
(1.01059 -0.0200116 0)
(0.876695 -0.00223289 -6.4668e-22)
(1.00931 0.00375094 0)
(1.02108 -0.00931999 4.91151e-22)
(0.997911 -7.13712e-05 -1.15452e-22)
(0.984861 -0.0939178 -1.34766e-20)
(0.909216 -0.0124491 -1.10555e-21)
(1.00685 -0.0736878 3.93818e-20)
(1.03423 0.0361604 0)
(0.661687 -0.0491085 2.28298e-20)
(1.0143 -0.0178438 -1.58939e-21)
(1.05162 0.0311997 -2.8436e-22)
(1.01363 -5.25688e-05 3.40587e-21)
(1.01581 -0.0673175 2.08892e-20)
(1.01996 0.00502942 2.33222e-21)
(1.01677 -0.0293655 0)
(1.00525 0.000609544 3.0813e-23)
(0.926938 -0.079817 0)
(1.00462 -0.00496936 -1.5345e-22)
(0.97977 -0.053761 8.94428e-21)
(0.711989 -0.0426652 0)
(1.04678 -0.0222465 5.92051e-22)
(0.967707 0.0335951 9.58875e-23)
(0.984912 0.00253396 2.56151e-22)
(0.0179549 -0.0225277 4.31799e-20)
(1.01403 0.00245435 0)
(1.00958 -0.0371538 0)
(1.00753 -0.0562332 1.96724e-20)
(0.952596 -0.00805327 0)
(1.01185 -0.00632159 -1.92512e-22)
(1.01454 -0.0045299 0)
(1.02155 -0.0757291 -2.29385e-20)
(1.01116 -0.0706358 -4.03506e-20)
(1.00739 0.0210039 4.15892e-24)
(0.36765 -0.043927 0)
(0.997695 -1.25605e-05 5.21461e-23)
(1.03553 0.00545754 0)
(0.00449558 0.0513197 2.76275e-20)
(0.996597 0.00269422 -7.82241e-22)
(1.01828 0.00728149 1.25117e-23)
(0.53765 -0.0745786 0)
(1.02023 -0.000369136 0)
(1.02451 0.0198024 1.69853e-22)
(1.01545 -0.00683211 0)
(0.982204 0.00927348 0)
(1.01046 0.000765547 0)
(1.01835 0.00842666 0)
(1.04497 -0.0225083 0)
(0.939665 -0.0721978 -1.73688e-20)
(1.01624 -0.00234474 1.10004e-22)
(1.02006 -0.0525505 -1.82848e-20)
(1.01863 -0.000488477 -4.65236e-22)
(1.04629 0.0290369 -1.54528e-22)
(0.920347 0.0158195 -1.02687e-22)
(1.00385 -8.97681e-05 1.05635e-21)
(1.02344 0.007297 0)
(1.00639 -0.000163265 -8.91976e-22)
(1.00575 -0.000260594 4.26076e-22)
(0.838585 0.0783059 0)
(1.01668 -0.00790753 0)
(1.04529 0.0303915 0)
(1.01637 -0.00210235 -2.69446e-21)
(0.999777 -0.000432261 -1.21906e-23)
(-0.121436 -0.00364 0)
(0.698595 -0.0413524 0)
(1.01684 -0.00273229 -1.24557e-20)
(1.04704 0.0299471 -6.16709e-23)
(1.00046 -0.0163138 -2.98963e-21)
(1.01079 -0.0398451 1.57412e-22)
(0.0818369 0.0121628 3.23566e-20)
(1.03516 0.00596927 1.34245e-21)
(0.973431 -0.0854698 -8.66438e-22)
(1.0198 0.00534429 0)
(0.998555 -0.0661584 -1.19178e-20)
(1.02081 -0.00619994 -7.9359e-21)
(-0.0414626 0.0344228 -2.33712e-20)
(1.00954 0.00270172 1.79588e-23)
(-0.0135664 0.0151714 -2.99059e-20)
(0.950059 -0.00537929 -2.89481e-23)
(1.0102 0.00816944 0)
(1.04878 0.0303052 0)
(0.76129 -0.0749868 1.25361e-20)
(0.988826 -0.0434701 7.76823e-21)
(0.92452 0.0157079 -3.08367e-21)
(1.01641 -4.3849e-05 0)
(0.910466 0.123587 -1.16415e-21)
(1.01349 -3.881e-05 -5.71911e-22)
(1.0183 -0.00252021 7.64077e-22)
(1.02133 -0.00196741 8.44829e-22)
(1.02171 -0.00462954 -8.05115e-23)
(0.655851 -0.0389279 -5.68137e-21)
(1.01265 -0.065093 -1.49869e-20)
(1.0113 -0.0702313 0)
(1.01771 -0.0743944 -5.06953e-20)
(1.01036 0.0236462 1.50743e-21)
(1.02439 0.0129795 0)
(1.0019 -0.0943393 0)
(0.935596 -0.00909634 9.70345e-22)
(1.00862 -0.0251961 -6.05549e-21)
(1.02225 -0.0389536 0)
(1.01324 -0.0409778 -1.06578e-22)
(0.9461 0.0934124 -6.45354e-22)
(1.00323 -0.0596873 -1.55455e-20)
(1.01423 -0.000337546 3.99223e-21)
(-0.0457306 0.0327569 0)
(0.15791 -0.00602536 3.43869e-20)
(0.246151 -0.036818 0)
(0.996818 -0.000546067 0)
(1.04973 0.0313953 -2.52458e-23)
(0.958061 0.0848405 1.48429e-22)
(0.963671 0.0291173 -1.05462e-23)
(0.854122 0.0124663 5.44451e-21)
(0.998409 -0.104692 0)
(0.855822 -0.0902308 -9.50481e-22)
(1.00851 0.00029386 0)
(0.842185 -0.0956467 2.06684e-21)
(0.999291 -0.063626 2.59266e-20)
(1.00974 0.00314243 -1.82034e-23)
(0.976849 0.0255003 -1.38075e-23)
(1.01312 -0.0658264 1.50813e-20)
(0.667603 -0.0374491 2.01551e-20)
(1.00879 -0.00961725 5.26887e-21)
(1.01528 -0.000412829 -1.98196e-21)
(1.02715 0.0022526 1.14311e-21)
(1.01705 0.00300196 7.45232e-23)
(1.00209 -0.068708 2.66019e-20)
(0.991774 0.018992 0)
(0.638146 -0.0541672 7.60476e-21)
(0.369573 -0.0503998 1.84799e-21)
(1.01651 -0.00149015 -2.01612e-21)
(0.00572381 0.0542448 -2.44288e-20)
(0.719479 -0.0439878 0)
(0.973021 0.0231056 0)
(0.946367 0.00264355 -1.16357e-22)
(1.01931 -0.0513474 3.3959e-20)
(1.01716 0.00609438 -3.87194e-24)
(1.0202 -0.00945812 -2.54161e-22)
(0.969785 0.0634264 1.99048e-22)
(0.988393 -0.0940985 0)
(1.01946 -0.0192745 0)
(1.01533 -0.075087 2.61409e-20)
(1.00786 -0.0727115 0)
(1.01189 0.00845271 -7.20783e-23)
(1.04197 0.040476 -2.63587e-23)
(0.929015 0.106092 9.03258e-22)
(0.961168 -0.082754 -8.80124e-21)
(1.01028 -0.0702773 2.01348e-20)
(0.665137 -0.0397798 0)
(0.99757 -0.0641491 0)
(1.01998 0.00570672 -7.58004e-23)
(1.02116 -0.00532467 -4.88354e-21)
(0.462203 -0.0656452 3.77935e-21)
(0.878355 -0.0567263 1.21456e-20)
(1.01059 -0.0729768 0)
(1.02331 -0.0508418 -1.0147e-20)
(1.00994 0.0202429 1.82875e-21)
(1.01354 0.00698488 0)
(1.01653 0.00176647 0)
(0.915679 -0.0850473 6.56725e-22)
(1.01164 0.00773909 0)
(1.00876 -0.00861175 -2.44528e-21)
(1.01476 0.00705435 0)
(1.0188 0.000209815 0)
(1.00084 -0.0630849 -3.31354e-20)
(1.00424 -0.0688003 0)
(1.0337 0.033422 7.21751e-22)
(1.01213 0.00765024 0)
(0.375143 -0.158032 -9.47034e-21)
(1.00441 -0.0917688 0)
(1.02139 -0.000733624 0)
(1.00058 -0.000988751 0)
(1.00143 0.011888 1.94067e-24)
(1.01576 -0.000493246 0)
(-0.0465373 -0.0205508 5.46577e-20)
(0.97322 -0.098773 3.22741e-21)
(0.946217 -0.118551 -4.56556e-21)
(0.185564 -0.0275276 2.74291e-20)
(0.907949 0.120793 0)
(1.02467 -0.0489897 8.96799e-21)
(0.642297 -0.0348537 -2.41923e-21)
(0.703218 -0.0411834 1.44716e-20)
(1.06658 0.014971 -3.24621e-22)
(1.01773 -0.0487718 -1.60443e-20)
(1.01769 0.00612255 1.32365e-26)
(1.00494 0.0155544 0)
(0.990607 -0.0265413 -8.64381e-21)
(0.97908 -0.0763402 -3.13503e-20)
(0.7841 0.0190874 -1.08568e-21)
(1.01541 -0.0742096 -3.39687e-20)
(1.00597 -0.0314426 7.60023e-21)
(1.01821 -0.00799113 0)
(0.988775 -0.0143894 5.8827e-21)
(1.03485 -0.0269065 4.61372e-22)
(0.910638 -0.00883639 0)
(1.01061 -0.0661837 0)
(1.01623 -0.00190512 2.60709e-21)
(1.0092 0.0213207 -7.95057e-23)
(1.01209 -0.00599868 3.73483e-22)
(1.01819 -0.0347201 5.77939e-21)
(1.00624 -0.0747483 -2.35964e-20)
(1.02166 -0.0068535 1.02956e-20)
(1.02029 0.00501463 2.36619e-21)
(0.980618 -0.0158906 -2.03574e-21)
(1.01831 -0.00624984 5.74748e-21)
(1.00222 -0.0672666 0)
(0.982422 -0.0912641 0)
(1.0085 -0.0724451 1.79357e-20)
(0.987349 -0.0108275 0)
(1.01012 -0.0734724 6.57568e-23)
(1.0177 -0.00756174 0)
(0.996829 0.0489896 0)
(1.08272 -0.00214521 1.01415e-21)
(0.10537 -0.00276154 -4.12813e-22)
(1.0168 0.0085184 -2.44184e-21)
(1.00416 -0.000686054 2.26151e-22)
(0.987118 -0.0695264 9.60151e-21)
(1.01089 0.00883808 -3.28381e-21)
(0.617593 -0.0685886 4.17966e-20)
(0.859312 -0.0537846 7.2425e-22)
(0.0039694 0.0320869 0)
(0.513468 -0.0737065 0)
(1.01334 -0.00757357 -4.48754e-22)
(0.989264 -0.071004 2.98955e-21)
(1.03395 0.0227339 -2.3405e-23)
(1.01932 0.000119558 0)
(1.00998 0.00254641 -2.75811e-23)
(1.01904 0.000301713 0)
(1.04298 0.0366802 0)
(1.00927 0.0195243 -3.03854e-22)
(0.985004 0.00896854 0)
(1.01192 0.00699257 -1.61958e-23)
(0.860898 -0.120208 0)
(0.947943 -0.0089132 -1.90752e-21)
(0.836847 -0.123301 0)
(1.02691 0.000461538 0)
(1.0109 0.00209117 -1.26437e-23)
(0.999428 0.000573876 -4.51719e-24)
(0.997674 -0.0807431 0)
(0.726815 -0.136254 -1.29423e-21)
(1.02256 -0.0666241 3.57104e-20)
(1.0173 -0.0350197 -2.33536e-20)
(1.0334 0.0239824 1.26192e-24)
(1.00013 -0.00042974 1.41433e-22)
(1.01574 -0.000950373 -2.09188e-21)
(1.03008 0.00280773 -2.94117e-21)
(1.01295 -0.067626 -2.35898e-20)
(0.2159 -0.0765401 -1.13404e-21)
(1.01819 -0.0059204 0)
(1.01238 0.00686813 -1.78376e-23)
(1.02213 -0.00459967 -5.09251e-21)
(1.02936 0.00284482 2.14581e-21)
(0.943279 -0.0713689 4.50003e-22)
(-0.0254293 -0.00374003 -2.16006e-20)
(0.98851 -0.0163079 -2.27866e-21)
(0.805641 -0.0802394 0)
(0.923209 0.11225 1.1653e-21)
(1.02005 0.00470484 0)
(1.01143 -0.0700986 1.54522e-21)
(-0.00500422 -0.0208717 -6.49908e-20)
(1.01712 -0.0502245 0)
(0.480533 -0.0897429 0)
(1.02066 -0.0102324 -5.61897e-21)
(1.00825 0.0159137 0)
(1.02225 -0.0658361 -3.30582e-20)
(1.00943 0.0176805 -5.0874e-22)
(0.971414 -0.115962 -1.53212e-21)
(1.01668 -0.00250139 2.92645e-21)
(0.955631 0.0877418 3.77661e-22)
(1.00532 0.000506001 -3.52924e-23)
(1.03638 -0.0488329 -6.3552e-21)
(0.735857 -0.0448541 1.38235e-20)
(1.02365 -0.0165605 0)
(1.01343 0.00964927 0)
(1.00773 0.0215789 -6.52049e-22)
(1.01877 -0.00271756 -7.74719e-22)
(1.00877 -0.0229619 0)
(0.714139 0.000366785 -1.68819e-21)
(0.0116723 -0.0316181 -1.64824e-21)
(1.01005 -0.0655661 2.08094e-21)
(1.00935 -0.0903506 3.63855e-21)
(0.87256 0.0520934 0)
(1.0144 0.00639246 -1.67847e-23)
(1.0261 0.000276567 0)
(-0.127697 -0.00127633 -3.7836e-20)
(1.00813 -0.0732522 0)
(0.994734 0.0271161 2.49947e-21)
(0.877529 -0.0549598 -1.41077e-21)
(1.01198 -0.0115216 0)
(1.01301 -0.00014094 -1.92163e-20)
(1.00922 0.00328437 -4.2723e-23)
(0.895206 0.134015 0)
(1.00473 -0.0671266 -3.64945e-20)
(1.00148 -0.00274071 -3.4642e-21)
(1.0227 0.0119322 -1.14305e-21)
(0.918331 0.00842649 5.49742e-22)
(1.02073 -0.0268622 0)
(0.999685 0.000675845 -1.33401e-23)
(0.0215816 0.0397259 -2.27185e-20)
(0.811322 -0.0115951 0)
(0.775191 -0.052752 -1.67073e-20)
(1.01041 0.00882526 -2.10429e-23)
(1.01846 -0.00589187 0)
(0.651236 -0.0370048 0)
(-0.00905654 -0.024761 0)
(1.00813 -0.0755228 0)
(1.03381 -0.0255523 4.8791e-22)
(1.00365 -0.0628773 -9.8002e-22)
(1.0164 -0.00238681 0)
(0.895273 -0.000845286 0)
(0.973725 -0.0750214 3.11245e-21)
(0.977934 -0.0556489 -7.88831e-21)
(1.00558 -0.0154833 -7.15317e-21)
(0.0292943 0.0266718 3.4754e-20)
(1.07349 -0.0161321 0)
(1.02875 -0.030083 -7.03546e-22)
(1.00428 -0.0709194 1.89581e-20)
(1.00468 -0.000771921 2.37461e-22)
(1.00593 5.71064e-05 -2.45923e-21)
(1.00985 0.000634993 0)
(1.01699 -0.00762738 -5.37525e-22)
(0.0238906 0.0404223 0)
(0.996004 -0.0281521 6.08233e-21)
(1.01073 -0.0703965 1.01681e-20)
(1.0321 0.0329234 -4.31236e-22)
(0.958345 0.0159202 -5.07194e-23)
(1.019 -0.00792305 0)
(0.690558 0.00467633 1.85718e-21)
(1.01544 -0.000387071 1.46137e-21)
(1.07273 -0.019008 -9.35444e-22)
(1.00949 0.00210664 0)
(1.02009 0.00436452 2.35894e-21)
(1.01752 0.000324158 0)
(0.875296 -0.0565253 4.9982e-21)
(1.02631 0.00235292 1.2001e-21)
(1.00779 0.00553021 0)
(0.827173 0.0713463 -2.46465e-22)
(1.02158 -0.00569057 4.9744e-21)
(0.677571 -0.0392098 -1.90191e-20)
(1.00251 0.000357325 1.91069e-23)
(1.03886 -0.025378 -1.04615e-21)
(1.01638 -0.0691438 0)
(0.933513 -0.0693164 -1.50673e-21)
(0.988914 -0.0877032 0)
(1.0151 -0.00152868 5.5799e-22)
(0.856275 0.023578 -5.76184e-22)
(0.826981 -0.0845256 -2.04043e-21)
(1.01628 -0.00791947 0)
(0.969581 -0.0600554 -2.28778e-21)
(1.03548 -0.0479845 0)
(1.01588 -0.00726204 0)
(1.02774 -0.0382093 4.72777e-23)
(0.00489177 0.0542693 1.89985e-20)
(0.911518 0.0238913 5.22492e-22)
(1.00164 -0.0124601 2.80191e-21)
(1.01656 -0.00122108 2.12366e-21)
(1.01215 0.00622258 1.31206e-23)
(0.971616 0.000200343 0)
(0.973338 -0.0570691 2.55847e-22)
(0.965791 0.00888052 0)
(0.999329 -0.00204917 -1.53687e-22)
(1.02686 -0.0384327 3.3664e-22)
(1.01515 -0.000348519 2.82143e-21)
(1.03711 -0.0254867 1.73958e-23)
(1.01709 -0.0782275 2.83848e-20)
(0.963334 -0.0529238 0)
(0.999599 -0.0686454 0)
(0.745115 0.0118274 1.10511e-21)
(1.01833 -0.00553119 9.14421e-21)
(0.99974 -0.0671158 0)
(1.01267 -0.0687595 1.98962e-20)
(0.996003 -0.0659558 9.08925e-22)
(1.00189 -0.00132289 0)
(0.314736 -0.138249 -5.87565e-23)
(1.01802 -0.0753451 4.77304e-20)
(1.02209 -0.00575706 0)
(0.335653 -0.0435622 0)
(1.01537 0.0441658 8.33486e-22)
(0.82083 -0.112007 -5.3345e-22)
(0.0204108 -0.0216529 3.46274e-21)
(0.870912 -0.0659768 0)
(0.963735 -0.0663206 6.81495e-23)
(0.984657 -0.0294015 0)
(1.01654 -0.0072029 1.49615e-21)
(1.0115 0.0215744 -2.78252e-22)
(-0.0422417 -0.0066548 0)
(0.16539 -0.0153586 0)
(1.0355 0.00110909 -9.23355e-22)
(0.998586 -0.00020486 1.44403e-22)
(1.0144 -0.0665829 0)
(0.987279 0.0973576 1.34599e-22)
(1.00804 0.00727989 4.52231e-23)
(-0.0157678 -0.00742249 0)
(1.01155 -0.0108317 0)
(1.01568 -0.00127997 1.05454e-20)
(0.0116024 0.0454899 0)
(0.653309 -0.0376682 1.86843e-20)
(0.859364 0.0609337 0)
(1.01954 9.93882e-05 0)
(1.0166 -0.00106007 2.39182e-21)
(-0.0123209 -0.0205714 0)
(1.01278 -0.0677898 2.62102e-20)
(1.01131 -0.0731255 1.44814e-20)
(1.05664 0.0136349 3.03448e-22)
(0.761128 -0.0908735 3.81815e-20)
(0.964947 -0.0836648 6.37803e-21)
(0.77308 -0.130192 -1.77543e-20)
(1.01243 -0.0613989 0)
(1.01946 -0.0561477 1.0836e-20)
(1.0146 -0.00507564 -2.59939e-21)
(1.02098 -0.00593589 -7.89038e-21)
(0.773407 0.121972 -5.43914e-21)
(1.0275 -0.0674849 5.09418e-21)
(0.624952 -0.0339525 0)
(1.08542 0.0110719 -1.59411e-21)
(1.02135 -0.0495459 1.66646e-20)
(0.0365713 0.0337279 0)
(0.803837 -0.109106 2.90407e-20)
(0.699167 -0.0410141 3.80944e-20)
(1.01776 -0.00356252 -1.14813e-20)
(1.0266 -0.0470606 4.93298e-21)
(1.0212 -0.000935996 9.96899e-22)
(0.986946 -0.0129098 -2.26137e-21)
(1.01405 0.0101523 1.82315e-21)
(0.395933 -0.0941782 0)
(1.00841 -0.000125417 0)
(0.7517 -0.0493603 4.96517e-21)
(1.00756 0.00684229 -8.6788e-23)
(1.01638 -0.0685593 0)
(1.0177 0.00292335 1.45053e-21)
(0.968874 -0.0784636 -5.85772e-21)
(1.02454 -0.0499349 2.18134e-20)
(1.02553 -0.0460921 1.71246e-20)
(0.811415 -0.0775449 0)
(1.0222 -0.059568 -1.31086e-20)
(0.980753 0.0120983 0)
(1.00953 -0.000609087 4.98029e-22)
(1.01565 -0.0679572 -2.17656e-20)
(0.922663 0.0855871 0)
(1.01876 0.0226301 -3.46839e-22)
(1.00802 -0.00696333 0)
(0.631993 -0.0367192 -2.84032e-20)
(1.00209 0.011612 -1.25486e-23)
(0.0745589 -0.0103509 2.25035e-20)
(0.97342 -0.0795716 0)
(1.01515 -0.00298686 -6.90369e-21)
(0.953088 -0.0574461 0)
(-0.0610356 -0.0167486 0)
(0.690698 -0.0406011 1.74396e-20)
(0.959221 -0.0642516 -3.72636e-23)
(1.08458 0.00701153 4.20987e-22)
(1.03322 0.0031953 2.35487e-21)
(0.762735 -0.0523338 -4.32435e-21)
(1.01242 -0.000209212 -7.06432e-21)
(0.928559 0.0570376 4.60527e-21)
(0.725999 -0.0441581 1.60262e-21)
(1.02627 0.001118 -1.09725e-21)
(1.02855 -0.0195089 1.4545e-20)
(0.988458 -0.0925673 6.31346e-21)
(0.984109 -0.0940669 0)
(0.208785 -0.124523 -3.78576e-21)
(1.0167 -0.00454057 4.29044e-21)
(1.00317 -0.00146948 2.1983e-22)
(0.701836 0.0448422 -3.40525e-22)
(0.729889 -0.0444116 -3.56784e-20)
(1.01009 -0.0708633 -1.03341e-20)
(1.00274 -0.0117118 2.77995e-21)
(1.05284 0.0120473 1.05136e-21)
(0.969422 -0.078621 4.09696e-22)
(-0.00210957 0.0403906 0)
(1.01226 -0.0688587 -2.44899e-20)
(1.00754 0.00572114 0)
(0.984344 -0.0314795 0)
(1.01895 -0.00222136 0)
(1.01433 0.000171912 -4.29444e-21)
(0.943261 0.0508119 -1.62966e-21)
(1.00003 -0.000280304 -1.59974e-22)
(0.932977 -0.0898311 0)
(1.02198 -0.0304497 -1.13196e-22)
(1.01563 -0.00110638 -1.25284e-20)
(1.04471 -0.0245685 1.16573e-21)
(1.03417 0.00341363 -2.36636e-21)
(1.00959 -0.000320103 0)
(0.629996 -0.0356651 0)
(0.752498 -0.0771321 3.14428e-20)
(1.01107 -0.0373035 9.06236e-21)
(0.328196 -0.143904 2.64753e-21)
(1.01745 0.00268664 0)
(1.00889 -0.035793 0)
(1.03286 0.00242363 -5.69493e-22)
(1.01926 -0.00205918 0)
(1.01525 0.0012915 0)
(1.01561 -0.000746715 1.14792e-20)
(0.669779 -0.0386693 -1.65393e-20)
(1.01678 -0.00278372 5.16454e-21)
(1.02108 -0.0649275 -1.61702e-20)
(1.01768 -0.00367615 1.15821e-20)
(1.00165 -0.0139452 -2.68069e-21)
(0.923569 0.0594819 1.64052e-21)
(-0.00342868 -0.0301865 3.29349e-20)
(1.01605 -0.000116287 4.00741e-21)
(0.447415 -0.0758903 0)
(0.962416 0.00805932 -9.37369e-22)
(1.01676 -0.0693952 -1.20571e-20)
(0.996089 -0.0298732 0)
(1.00115 -0.0361718 1.14413e-21)
(0.609848 -0.0342947 -1.3818e-20)
(1.0194 -0.0353479 2.79646e-20)
(0.99521 0.0223891 -6.72944e-22)
(0.40203 -0.092306 0)
(0.713448 0.0331102 2.2165e-21)
(-0.0159639 0.0353198 3.14947e-20)
(0.998951 -0.0455117 3.03803e-21)
(0.883272 0.00552901 2.02775e-22)
(1.01711 0.00817403 4.57549e-21)
(1.02255 -0.0583352 0)
(1.01286 -0.060278 0)
(0.226062 -0.133545 2.20253e-21)
(1.01459 -0.00125512 6.15024e-22)
(0.0521349 -0.0841722 1.59523e-20)
(1.02593 -0.000136839 -2.01827e-21)
(1.02702 0.000909682 -1.08995e-21)
(-0.0592516 -0.0127133 -2.97482e-20)
(1.00265 0.0156381 0)
(1.01336 -0.0832044 8.53466e-21)
(1.00498 -0.0161486 8.24688e-21)
(1.0216 -0.00171168 -2.76517e-21)