/*--------------------------------*- C++ -*----------------------------------*\
| =========                 |                                                 |
| \\      /  F ield         | OpenFOAM: The Open Source CFD Toolbox           |
|  \\    /   O peration     | Version:  v2012                                 |
|   \\  /    A nd           | Website:  www.openfoam.com                      |
|    \\/     M anipulation  |                                                 |
\*---------------------------------------------------------------------------*/
FoamFile
{
    version     2.0;
    format      ascii;
    class       volScalarField;
    location    "150";
    object      k_0;
}
// * * * * * * * * * * * * * * * * * * * * * * * * * * * * * * * * * * * * * //

dimensions      [0 2 -2 0 0 0 0];


internalField   nonuniform List<scalar> 
13917
(
0.000164247
0.000148565
0.00427556
0.000151171
0.000148654
0.000193245
0.0123788
0.00349604
0.0336812
0.000171776
0.000202997
0.000180656
0.00015131
0.0126662
0.000154807
0.000153643
0.000148999
0.000174213
0.000180096
0.000148658
0.000149766
0.0132747
0.000148524
0.00164842
0.000148083
0.0131608
0.000161853
0.000164472
0.000208043
0.000183434
0.000165785
0.000156864
0.000160184
0.000154738
0.000148274
0.000229977
0.000148586
0.0415067
0.000154062
0.012029
0.000147372
0.000149899
0.000144735
0.000168356
0.000147936
0.000156051
0.000173931
0.000181825
0.000383589
0.00014798
0.000156255
0.000149857
0.000429185
0.000155063
0.000149062
0.000156101
0.000202805
0.000148289
0.000153736
0.000147786
0.0808001
0.000148565
0.00986659
0.000148577
0.000191958
0.0226751
0.000148652
0.000148572
0.000205068
0.000162003
0.000148698
0.0267648
0.057425
0.000148098
0.000401532
0.000184035
0.0387413
0.000149836
0.0143649
0.000149552
0.000149321
0.000148692
0.000189912
0.0438667
0.0508593
0.000149569
0.000149145
0.00826384
0.000155906
0.00014466
0.0568607
0.000178283
0.000147138
0.000150901
0.0134783
0.000189717
0.000195667
0.000179398
0.000197566
0.000170518
0.00014655
0.000158914
0.000168249
0.000150632
0.000146421
0.0299546
0.000193564
0.000182929
0.000149006
0.00016676
0.0662946
0.0125142
0.000186558
0.0322521
0.00015127
0.000424774
0.000147953
0.00026237
0.0196138
0.000154953
0.000149816
0.00020478
0.0239628
0.000163845
0.000147776
0.000150596
0.000147879
0.000147843
0.000144932
0.000191872
0.0313709
0.000151102
0.000148045
0.000149819
8.56018e-05
0.00158831
0.000164379
0.000171145
0.000148606
0.000154803
0.000220819
0.000146192
0.000150308
0.000170538
0.000148587
0.00511645
0.000212046
0.000149698
0.000145973
0.000157369
0.000176807
0.00042503
0.000187556
0.000163025
0.000156164
0.0236263
0.000161232
0.000259372
0.0337376
8.53054e-05
0.000152929
0.000162261
0.000149552
0.00019446
0.00018617
0.000197167
0.000150584
0.000178093
0.000147233
0.000159399
0.000163544
0.0350188
0.000188497
0.000149849
0.000502062
0.000164182
0.0318049
0.000303031
0.0032428
0.000147467
0.000179571
0.000166665
0.00014614
0.000149082
0.000157689
0.0074194
0.00021667
0.0294279
0.000164755
0.000195874
0.000225848
0.0553698
0.000210458
0.000148596
0.000172207
0.000161495
0.000153132
0.000147198
0.000181479
0.00127887
0.000155353
0.000148086
0.0001763
0.000176491
0.051023
0.00024924
0.000148276
0.000148372
0.000178885
0.0042245
0.000150079
0.0134015
0.0389518
0.000195962
0.00014647
0.000199487
0.000175878
0.0423126
0.000147673
0.0709722
0.000147419
0.000182521
0.000147206
0.04684
0.034094
0.000153989
0.000417734
0.000156523
0.000146512
0.000229137
0.000187824
0.000164484
0.000679236
0.0326806
0.000146213
0.000157327
0.0610659
0.0380461
0.000149497
0.000147503
0.0121759
0.000198689
0.000149758
0.000216456
0.00018735
0.000161838
0.000163429
0.000149496
0.000163687
0.0347867
0.000146994
0.000183836
0.000173834
0.000147766
0.000148253
0.000182132
0.016389
0.000186195
0.000157864
0.000155033
0.00014979
0.0188678
0.0361035
0.000216654
0.000146556
0.0574696
0.0241641
0.000247762
0.0153061
0.00018544
0.000149399
0.000147406
0.000174228
0.0451683
0.000194267
0.000153327
0.000243359
0.000168591
0.000144877
0.0201768
0.000148487
0.000472742
0.000154756
0.000149722
0.000155936
0.00016297
0.000162165
0.000217325
0.000159372
0.000147574
0.000265321
0.00103438
0.0470151
0.000147677
0.000219242
0.000149083
0.000147557
0.000148
0.000228087
0.000148573
0.000184498
0.000162799
0.000147116
0.000176497
0.000150799
0.000335222
0.000163874
0.000176799
0.000146465
0.000148188
0.0618253
0.0231014
0.000147911
0.000147315
0.0169063
0.000147321
0.0609539
0.000146415
0.0485884
0.000148495
0.000217895
0.000162691
0.000436598
0.000152519
0.000154868
0.000185156
0.000155964
0.000198533
0.000200022
0.000149107
0.0347152
0.000171931
0.0281667
0.000153825
0.0145653
0.000158028
0.072486
0.000181355
0.000172749
0.000172229
0.00872426
0.000149409
0.000164095
0.0722495
0.000149014
0.00015157
0.0245134
0.000184617
0.000149627
0.000221419
0.000204094
0.000146852
0.0180096
0.000224589
0.000148442
0.000147122
0.000149136
0.000145931
0.000260897
0.0016865
0.000206798
0.0684627
0.000148034
0.000186455
0.00820476
0.000169293
0.014535
0.0491974
0.037374
0.000146175
0.000215746
0.000146974
0.0538111
0.000147777
0.000454821
0.000187233
0.000153061
0.000149277
0.000177714
0.000181411
0.000181456
0.000673889
0.0672923
0.0331357
0.000164141
0.000170887
0.000147557
0.0414117
0.0158525
0.000148316
0.000247624
0.000148221
0.00022588
0.000148489
0.000149481
0.000150863
0.0138951
0.000150796
0.0178541
0.0111526
0.000199857
0.000194643
0.000149027
0.000195623
0.000191822
0.000148135
0.000186351
0.000148936
0.000148183
0.000183241
0.00014972
0.000148133
0.000146948
0.00022819
0.000149631
0.0156219
0.00524791
0.00528689
0.000209717
0.0219634
0.042989
0.000168954
0.000148058
0.000201751
0.000153773
0.000158499
0.000148546
0.00277168
0.00925672
0.00155128
0.000153592
0.000190542
0.000153464
0.0001547
0.000181461
0.000150489
0.000216125
0.00014895
0.000148535
0.0662742
0.0311258
0.0311791
0.000182234
0.0035537
0.0366614
0.0773307
0.0346787
0.000145157
0.000176513
0.000150568
0.000148529
0.000256555
0.000174516
0.000147102
0.000176149
0.000167565
0.0323274
0.000148106
0.000194574
0.0159294
0.000250075
0.0196636
0.000149684
0.000148368
0.00015297
0.000161259
0.000146185
0.00421182
0.000201166
0.000159323
0.0389732
0.000156034
0.000195056
0.0827587
0.000213426
0.000198803
0.000222454
0.000194559
0.000174936
0.000201009
0.000169277
0.000202555
0.000208486
0.000172597
0.000185402
0.00014737
0.000205291
0.000157121
0.000145213
0.000160498
0.000150063
0.0346092
0.0301019
0.000147281
0.000145047
0.00238479
0.0356919
0.000149721
0.0160487
0.000149821
0.000199934
0.000147389
0.0501021
0.000257969
0.000157341
0.000148861
0.0227209
0.000206591
0.0127859
0.000149777
0.0396532
0.000336424
0.0225847
0.000145292
0.0462988
0.0752145
0.000169383
0.000147073
0.000149039
0.000183881
0.000241553
0.000146571
0.000147163
0.000147552
0.000147513
0.0509027
0.000254305
0.000168992
0.000216824
0.00014785
0.000146601
0.000190205
0.0768337
0.000162177
0.000147296
0.000148134
0.00014849
0.0255961
0.0608252
0.0001491
0.000148459
0.000214391
0.000169
0.000162704
0.000148343
0.000151002
0.00015583
0.00018493
0.000193904
0.000217719
0.00020249
0.0001893
0.00025619
0.000176553
0.000147749
0.0402598
0.000148502
0.000151976
0.000152516
0.000211739
0.000169386
0.000146684
0.000252454
0.000186536
0.00748791
0.00018937
0.000160119
0.000168828
0.000149209
0.0546758
0.000224297
0.0275357
0.000148707
0.000158942
0.000217373
0.0513568
0.0144603
0.000180516
0.000185321
0.000153508
0.000152469
0.000148383
0.00016495
0.000169115
0.000149377
0.000175638
0.000172914
0.0254661
0.0151799
0.00015235
0.000194208
0.00025544
0.000156883
0.000149835
0.000435814
0.0175698
0.00584943
0.000213945
0.000145045
0.0193633
0.000183463
0.000147054
0.000160361
0.000184135
0.000159605
0.000183345
0.0146815
0.000200489
0.000166018
0.0540793
0.000150697
0.0302731
0.000149559
0.000149053
0.000219446
0.0177941
0.000207419
0.000150689
0.000149664
0.000148462
0.000169158
0.000435719
0.000195617
0.000152774
0.000197029
0.000177286
0.000147426
0.000366803
0.000194853
0.000215568
0.000147558
0.000199851
0.000149982
0.014525
0.000172402
0.000169311
0.000159244
0.000147003
0.000145414
0.000147995
0.000173704
0.000156292
0.000219858
0.000518858
0.000177687
0.000146918
0.000199067
0.000208254
0.000239522
0.000146915
0.000155807
0.00014722
0.000158354
0.000153954
0.0769272
0.000149495
0.00053824
0.000158111
0.000202851
0.000177892
0.0582516
0.000170091
0.000148906
0.0443225
0.0170235
0.000148147
0.000152385
0.000255156
0.000204603
0.000194329
0.000149544
0.000148933
0.000205008
0.000153263
0.000181116
0.000180808
0.00014542
0.000176485
0.00472433
0.000146761
0.000149987
0.000147694
0.0221991
0.000149758
0.000153199
0.0378168
0.000151382
0.0132604
0.000156214
0.000160429
0.000147642
0.000165544
0.000148057
0.00017392
0.000147042
0.000172375
0.000149823
0.0180027
0.000324165
0.0775748
0.000151766
0.000149328
0.000175651
0.000168421
0.0286618
0.0585749
0.000173822
0.000148246
0.000226655
0.000207918
0.000214987
0.00021335
0.000173651
0.0121228
0.000163635
0.000167424
0.000196416
0.000178263
0.000173477
0.000238646
0.000172923
0.000151195
0.000185337
0.000156076
0.000145787
0.000158137
0.000166916
0.000156789
0.000148117
0.000147422
0.000177546
0.000150964
0.000181195
0.000148236
0.000148326
0.000149811
0.000150863
0.000144343
0.000154637
0.000147838
0.0487832
0.000180004
0.0001885
0.00014636
0.000149625
0.00016346
0.000175271
0.000150798
0.0369968
0.000173567
0.0279222
0.000158235
0.000193666
0.000148909
0.000149781
0.00014739
0.000150808
0.0246286
0.00014968
0.000206957
0.00015504
0.00997742
0.000164581
0.000174102
0.000202248
0.000145462
0.000149935
0.000180532
0.000148516
0.000149579
0.0159789
0.000150024
0.000149139
0.000157181
0.000147453
0.000145532
0.000156864
0.000156679
0.0222889
0.000162073
0.00014675
0.000147119
0.0539579
0.000173612
0.00014878
0.000148686
0.0233509
0.000255332
0.0327815
0.000160066
0.000151217
0.000146296
0.000145372
0.000173285
0.00016269
0.000218536
0.000154161
0.0332241
0.000148857
0.000151949
0.0273077
0.000148274
0.000157276
0.000147953
0.00014842
0.000166114
0.000162391
0.000149182
0.0135607
0.0157613
0.00017852
0.000147728
0.000144736
0.000195212
0.000201586
0.000149717
0.000256154
0.000144742
0.000165839
0.000145516
0.000146123
0.00025239
0.000147453
0.000254382
0.000165731
0.000149809
0.000144983
0.000148848
0.00014729
0.000149808
0.000429488
0.00014662
0.000146106
0.033081
0.0113806
0.00016705
0.000167785
0.000180552
0.00015397
0.000146312
0.000156539
0.0479475
0.000173101
0.000148793
0.000148696
0.0531697
0.000164794
0.0758047
0.000149761
0.000150996
0.0201069
0.000162849
0.000149368
0.0205889
0.000286391
0.000147252
0.000193983
0.000147372
0.000147369
0.000146277
0.0625148
0.000144289
0.000146696
0.000146264
0.000185027
0.000153105
0.00019985
0.000166354
0.00014601
0.000159006
0.000149098
0.0700796
0.000147615
0.000146692
0.000149146
0.000196178
0.000149091
0.000200561
0.0122027
0.000297198
0.000155421
0.000225379
0.0441283
0.000148144
0.0167404
0.0843479
0.0496286
0.0225018
0.0355224
0.00785812
0.000197247
0.000149097
0.0158679
0.000162751
0.0194343
0.000145265
0.000147107
0.000148815
0.000149049
0.000155096
0.000158133
0.0277068
0.000147028
0.000148456
0.0116616
0.000187247
0.000148841
0.000160981
0.000158902
0.000148318
0.000314906
0.00016135
0.000152249
0.000153002
0.0128178
0.033399
0.000255355
0.000145426
0.000206681
0.000186607
0.041123
0.0418491
0.000187689
0.00014736
0.000149088
0.000148863
0.000144125
0.00015101
0.00014509
0.000155936
0.000163193
0.0436178
0.000197807
0.000146788
0.000193179
0.0789176
0.000165106
0.000149555
0.0335115
0.000147029
0.000149378
0.000160773
0.0438198
0.000149089
0.000147582
0.0146509
0.000218507
0.000251801
0.000191576
0.000230463
0.000147384
0.000202769
0.00014963
0.00014786
0.000149693
0.00607323
0.0403297
0.00014602
0.000144948
0.000148042
0.000256684
0.000150635
0.000159164
0.000148491
0.000149339
0.000201782
0.000146108
0.000174596
0.000197028
0.0304547
0.000147657
0.000171584
0.000152599
0.05584
0.0759311
0.000148123
0.0608914
0.00018194
0.0002656
0.000149084
0.0157625
0.0001496
0.000155881
0.000165261
0.000191498
0.00305863
0.00021773
0.000203912
0.0232787
0.000146873
0.000222577
0.000146041
0.000156018
0.0164295
0.00014856
0.000149657
0.000150111
0.000148272
0.0422527
0.000145429
0.000148458
0.000176897
0.000168548
0.000174044
0.000205415
0.000196702
0.0230006
0.000180037
0.000164186
0.000166825
0.041486
0.000167657
0.0511579
0.0140507
0.000154336
0.000146096
0.0198265
0.000215805
0.00014969
0.000190751
0.000162554
0.000148367
0.000155602
0.000148395
0.000165397
0.000149943
0.0001732
0.00017125
0.000147033
0.000175576
0.000146429
0.000166549
0.000147015
0.00015516
0.000176954
0.000151242
0.000147814
0.000146106
0.000292617
0.000175349
0.00701213
0.000148127
0.000148348
0.00017811
0.000147955
0.000184165
0.000175368
0.000148371
0.000187626
0.000146294
0.0549971
0.000149561
0.000165681
0.0277712
0.000220433
0.000147439
0.000151691
0.0111236
0.00014788
0.000147305
0.0459529
0.0686004
0.000153132
0.000202008
0.00014859
0.000147786
0.00564078
0.000150536
0.00014554
0.000224838
0.000146426
0.00025948
0.000149276
0.000145571
0.000148841
0.000197492
0.0235002
0.000148821
0.000149138
0.000147387
0.000154506
0.000148388
0.000229111
0.000175245
0.000149773
0.00139556
0.000164682
0.000226387
0.0364884
0.000431331
0.00014592
0.000149377
0.00014821
0.000208635
0.000155026
0.0238333
0.0431181
0.000152455
0.0189023
0.000321209
0.000173557
0.000199879
0.000168841
0.000190365
0.00288851
0.000167103
0.000436232
0.0438472
0.000180251
0.000153795
0.0417496
0.000164449
0.00014536
0.000150946
0.0716046
0.000162228
0.000147216
0.000165841
0.000186138
0.000163487
0.0382818
0.000151903
0.0115718
0.000167041
0.000213801
0.000193642
0.000208175
0.000158252
0.000146233
0.000149734
0.0026183
0.000147848
0.000152649
0.000146722
0.000151039
0.000147044
0.000160097
0.000201776
0.000298695
0.000162876
0.000165752
0.00105922
0.000191466
0.000146977
0.000255413
0.00373979
0.000145857
0.00014724
0.00015997
0.0286413
0.000149669
0.000179831
0.000210906
0.00016603
0.000148633
0.000150399
0.000146513
0.000190656
0.000162526
0.000147775
0.0208001
0.0128172
0.000163164
0.00025774
0.00018059
0.00156752
0.000151233
0.000154394
6.16467e-05
0.000252032
0.000188087
0.000267877
0.000157295
0.000149834
0.000147217
0.000148513
0.00014835
0.000150416
0.000166199
0.000147503
0.000196639
0.000147447
0.000157726
0.000145881
0.000174246
0.000196281
0.000314408
0.000148068
0.000208147
0.000147215
6.46784e-05
0.000148199
0.000154684
0.000148749
0.00021509
0.0537515
0.000199189
0.000147466
0.000197838
0.000148052
0.000158536
0.064405
0.00014727
0.000149751
0.000167823
0.000160349
0.0166975
0.000147517
0.000157703
0.000150303
0.000148173
0.000158635
0.000149506
0.000146025
0.000152066
0.0377589
0.000152889
0.000223187
0.00602142
0.000173399
0.0242782
0.000152546
0.000146066
0.000158382
0.0350249
0.000150778
0.00016151
0.000169067
0.00199799
0.000147174
0.00347933
0.000176374
0.000180375
0.00014578
0.000145102
0.000202681
0.000149876
0.0001499
0.00015943
0.000145365
0.0001531
0.00015759
0.000182892
0.000182399
0.0107565
0.000153768
0.000184135
0.000251888
0.00998086
0.000165961
0.000182157
0.0266291
0.000166886
0.0658375
0.000152492
0.00860629
0.00354955
0.000145167
0.000149723
0.000147547
0.000149179
0.000167294
0.000145865
0.000152847
0.000187549
0.000150976
0.000160036
0.0533963
0.00015767
0.000152455
0.0343272
0.000149386
0.0164755
0.000152624
0.000164974
0.000147095
0.0403474
0.0399835
0.000148051
0.000149496
0.0106396
0.000157286
0.016438
0.000148003
0.000146396
0.0235947
0.000149554
0.000162549
0.00935852
0.000148433
0.000173876
0.000158086
0.000145065
0.00014719
0.014283
0.041055
0.000148512
0.000151321
0.000148421
0.000155418
0.000160514
0.0341527
0.000150271
0.00033158
0.000233449
0.000214083
0.000249721
0.000149434
0.000194983
0.000178729
0.000156987
0.000148346
0.000178802
0.0515049
0.000151683
0.000162883
0.00287263
0.000461297
0.000184213
0.000154292
0.000149095
0.000149609
0.000148494
0.033649
0.000176133
0.000151835
0.00014976
0.000152852
0.00014979
0.000147881
0.000148473
0.000183765
0.000165941
0.000737184
0.000163467
0.00898184
0.0188204
0.000158081
0.000174016
0.000146496
0.00015691
0.0347633
0.000148403
0.000151619
0.000174664
0.000194449
0.000165078
0.0048591
0.00021942
0.000147058
0.0396211
0.000144814
0.000148467
0.00016361
0.000149811
0.000146975
0.000205211
0.0178111
0.000146481
0.000653621
0.000148286
0.000145832
0.000151434
0.000353301
0.00015796
0.00015258
0.0753507
0.00015032
0.000218433
0.0224579
0.000149607
0.000163669
0.000147921
0.0116406
0.000180349
0.000148547
0.00739513
0.000175224
0.000168182
0.00014985
0.0376279
0.00015707
0.000189585
0.000149872
0.000167543
0.0411045
0.000146033
0.000251955
0.00014877
0.00017588
0.000164143
0.000149601
0.0345049
0.000151759
0.000194104
0.000175005
0.000170051
0.000162369
0.000162899
0.00015014
0.00239895
0.000158767
0.0140866
0.000157629
0.000180402
0.000147572
0.000166741
0.000148527
0.000181347
0.00131294
0.000150126
0.000146673
0.000442724
0.000149968
0.000248602
0.000149199
0.00106133
0.000215066
0.000161996
0.000147823
0.000147459
0.000148675
0.000145101
0.00018837
0.000165631
0.000161234
0.000154576
0.00014844
0.000236042
0.000151465
0.000161348
0.000244564
0.000148431
0.0175014
0.000174481
0.000159213
0.000250454
0.0484862
0.000267879
0.000326035
0.00666772
0.000147132
0.000197873
0.0388864
0.000187532
0.000149092
0.000149447
0.000194935
0.00972645
0.0161843
0.000235619
0.000148172
0.000164287
0.000167407
0.023212
0.00299159
0.000169049
0.000197486
0.000152133
0.000174913
0.000187811
0.000149034
0.000186815
0.0244992
0.000148799
0.000259686
0.000149665
0.000147374
0.0355132
0.0555357
0.000146781
0.000148405
0.000149243
0.000146481
0.000165559
0.000205929
0.000150349
0.00014779
0.000148557
0.000167793
0.000156951
0.000156626
0.000262677
0.000148303
0.0628751
0.0189087
0.0465114
0.000175824
0.000171991
0.000248459
0.000162573
0.0157898
0.000251162
0.00272174
0.000149334
0.0923179
0.0214312
0.000146174
0.000148136
0.000183492
0.0720469
0.0434395
0.000145994
0.000148098
0.03058
0.00138659
0.00188973
0.000152235
0.000152701
0.000289989
0.000148929
0.0355022
0.0306009
0.000237098
0.000617884
0.000148657
0.000147393
0.000147045
0.000155039
0.0307955
0.000167868
0.00015442
0.000150627
0.00017226
0.0321715
0.000167835
0.00125554
0.0152473
0.0196219
0.000313888
0.000148302
0.000149083
0.00108016
0.000145345
0.000145355
0.000150871
0.000376609
0.000165595
0.0386333
0.000192951
0.000148094
0.0662605
0.000165525
0.000147072
0.0177253
0.000176267
0.000154277
0.000147735
0.00551614
0.080978
0.00014914
0.0291593
0.00022636
0.0659809
0.000510969
0.000174775
0.000147502
0.00014941
0.000356385
0.000154515
0.000372204
0.000166637
0.000489404
0.000225293
0.000150921
0.000157058
0.000147486
0.000150419
0.0686706
0.0142492
0.000148483
0.0234239
0.000169633
0.00014815
0.000153518
0.000147425
0.000202421
0.0001492
0.000324244
0.000164453
0.000147435
0.000146955
0.000170169
0.0282556
0.000166553
0.000152295
0.000167104
0.000148493
0.000150689
0.000156865
0.0262333
0.0213097
0.0768586
0.000145803
0.000146901
0.000149213
0.000195453
0.000146992
0.00014931
0.000205355
0.000177882
0.000237228
0.000145072
0.0822329
0.0210062
0.000149885
0.0236474
0.000194639
0.000165665
0.000316667
0.000149033
0.0387528
0.000157344
0.000151021
0.000152567
0.000145315
0.00021535
0.000153078
0.000149576
0.000158165
0.0185124
0.024595
0.000149616
0.000148023
0.000151445
0.000147669
0.000195367
0.000149952
0.000182589
0.000151416
0.0493053
0.000149405
0.0259343
0.000145815
0.0778543
0.000149029
0.000145188
0.0665984
0.000185498
0.000172157
0.000233609
0.000162487
0.000167949
0.000148463
0.0508936
0.000148477
0.00014704
0.000169332
0.000179804
0.0464487
0.0498279
0.000193515
0.0261809
0.000192404
0.000236539
0.000147114
0.000153717
0.000157492
0.0687973
0.000153966
0.0745599
0.0240521
0.000148023
0.000148821
0.000148093
0.000368352
0.000425535
0.000151081
0.000148649
0.000154436
0.000157135
0.000166106
0.00023741
0.000192964
0.000148307
0.000203538
0.000180735
0.0321268
0.000180977
0.000151082
0.000152097
0.068576
0.000147023
0.000183813
0.00445148
0.000150276
0.000154162
0.000206088
0.000173691
0.000150522
0.0209855
0.000152868
0.000221751
0.000167558
0.000157865
0.000149666
0.0776288
0.000146863
0.00017114
0.00026244
0.0730965
0.000171811
0.000174511
0.000154655
0.000163608
0.000149753
0.0736062
0.00015606
0.000147401
0.000159346
0.000148507
0.000149776
0.000378714
0.000148391
0.000149118
0.000148267
0.000198001
0.000149587
0.00016065
0.000183684
0.000200727
0.000189712
0.000149663
0.000183373
0.000194243
0.00020379
0.000180197
0.000156341
0.000201774
0.000451646
0.000243457
0.000149887
0.0095028
0.00308724
0.000149883
0.000152485
0.000145243
0.000218271
0.000183804
0.000147565
0.000253062
0.0722627
0.000146528
0.000149453
0.00865923
0.0256272
0.000180437
0.000145338
0.0238811
0.0198737
0.000480755
0.000148076
0.0688808
0.00018579
0.000167443
0.0646209
0.000155359
0.000145332
0.000159378
0.000198595
0.000161401
0.00780239
0.0843506
0.000146627
0.0116623
0.000198054
0.0451456
0.000145797
0.000164293
0.000149808
0.00014749
0.0477624
0.000251465
0.000218613
0.000262783
0.000157375
0.000172431
0.000151036
0.081963
0.0160701
0.000148495
0.000148677
0.000158626
0.000146268
0.000174239
0.024228
0.041211
0.000172915
0.000149214
0.000147879
0.0540634
0.000153755
0.000174601
0.000146455
0.000150699
0.000250108
0.0002393
0.00023567
0.000362016
0.000149071
0.000222629
0.000151835
0.000163635
0.0734127
0.0236543
0.000148415
0.000149956
0.000164484
0.000154607
0.000149335
0.0413971
0.0720745
0.0001463
0.000144309
0.000149214
0.000147642
0.000335025
0.000145811
0.00643077
0.000188724
0.000179617
0.00014696
0.000166083
0.0870321
0.000162872
0.000194459
0.051066
0.000149116
0.0377844
0.000159144
0.000160192
0.000189677
0.0392172
0.0447842
0.000178609
0.000147207
0.000188906
0.000145906
0.000154295
0.000149285
0.0043913
0.000158715
0.000292675
0.000217663
0.000172062
0.000148757
0.000208923
0.000156344
0.000149785
0.00018254
0.00014489
0.000165823
0.000162927
0.000149141
0.0595036
0.000151383
0.000205646
0.000150593
0.000147439
0.0603965
0.0358473
0.000152835
0.000158956
0.000167284
0.000170392
0.000178172
0.000155483
0.000154616
0.000154151
0.000216336
0.000153934
0.00176041
0.000166365
0.000219705
0.000194028
0.000149502
0.0372466
0.000144963
0.0056626
0.000153059
0.0734451
0.00135432
0.00811021
0.0036404
0.000227076
0.000168286
0.000147453
0.0302637
0.00016957
0.000148516
0.0307443
0.00424362
0.00015154
0.000151793
0.000159564
0.000159592
0.000161931
0.0468898
0.000149883
0.000159409
0.000164228
0.000159021
0.000149029
0.000187261
0.000144934
0.00214394
0.00015207
0.000192682
0.000160803
0.000167151
0.000182164
0.000256032
0.000180885
0.000146743
0.00018683
0.0209547
0.0664467
0.000148741
0.000509573
0.000158471
0.000295509
0.000148476
0.000153056
0.0426947
0.000174893
0.0325019
0.0372902
0.000159232
0.0778603
0.00014777
0.000144839
0.0328025
0.000165318
0.000152942
0.0297077
0.000155996
0.00016323
0.00015739
0.000175625
0.000148389
0.000134056
0.000900182
0.00969543
0.00021989
0.000154468
0.000170443
0.0357273
0.000152475
0.00014938
0.000175079
0.000145705
0.000184226
0.05072
0.0156712
0.0243684
0.000176949
0.000148941
0.0658391
0.00014486
0.000184211
0.000149543
0.0362295
0.000152008
0.000164089
0.0303625
0.000192307
0.000148048
0.000158941
0.011128
0.000148888
0.000200688
0.000146395
0.0329436
0.0750992
0.000194591
0.000167997
0.000147521
0.000210714
0.000199621
0.000166906
0.00014644
0.000148977
0.000148894
0.000176495
0.000148751
0.000187562
0.000149203
0.000146459
0.0932262
0.000147009
0.000155896
0.000153925
0.000149822
0.0334396
0.000146997
0.000160543
0.0539404
0.000173032
0.00117744
0.000148699
0.0794814
0.000174377
0.0380397
0.000151651
0.000197369
0.000147947
0.000168265
0.000196512
0.000194427
0.000211542
0.0683357
0.000208065
0.000417518
0.000155794
0.000194112
0.000162691
0.000229442
0.000153798
0.000147747
0.000148415
0.000175239
0.000164366
0.000255876
0.000175296
0.00133712
0.00566405
0.000170988
0.000148037
0.000219888
0.000178623
0.000150047
0.000152705
0.000148631
0.000127919
0.000148445
0.0127308
0.000146928
0.000156576
0.0529113
0.000170088
0.00014827
0.000148355
0.0346287
0.000147087
0.000152471
0.000154171
0.000159834
0.000156864
0.00014865
0.000201793
0.000168488
0.000162632
0.000214004
0.0549209
0.0324292
0.0439572
0.00014593
0.000148009
0.000171612
0.000148985
0.000163373
0.000313996
0.036164
0.000145308
0.000148425
0.021955
0.000241
0.000145442
0.000146767
0.000155389
0.0578106
0.0102776
0.000155686
0.000161306
0.000149293
0.000229753
0.000197221
0.000174424
0.000158585
0.000163252
0.000150063
0.000165145
0.000231742
0.000150725
0.000148198
0.00015538
0.00671543
0.00015399
0.0292365
0.000148632
0.0430008
0.000161459
0.000156659
0.000146263
0.000147363
0.000248709
0.0154619
0.000165256
0.0147691
0.0582703
0.000149963
0.0573299
0.000199261
0.000147638
0.000193068
0.000222881
0.000194507
0.000149666
0.025737
0.0455546
0.000147255
0.000162214
0.0215729
0.000165393
0.000148313
0.000146398
0.000149037
0.000152123
0.000181134
0.000226205
0.000168093
0.000178647
0.000145992
0.000148913
7.39117e-05
0.000146848
0.000167021
0.000155513
0.000147696
0.000172444
0.000148079
0.000152013
0.000223984
0.000147867
0.0606785
0.00014808
0.00417505
0.0303167
0.00018661
0.000148936
0.000149947
0.07237
0.000145227
0.000152575
0.000149786
0.000202997
0.00023627
0.000162669
0.0341249
0.000162419
0.000255486
0.000150455
0.000182496
0.00014629
0.000148862
0.0230923
0.0383521
0.000381362
0.000151947
0.000182092
0.000182316
0.0422961
0.0598725
0.000218422
0.000165354
0.000144823
0.0669357
0.000147192
0.000147533
0.000218555
0.000194736
0.000156615
0.000178361
0.000163703
0.00015897
0.000156857
0.0744465
0.0001529
0.000147825
0.0245879
0.000163788
0.000145772
0.0217637
0.000148091
0.000148665
0.00020243
0.000185143
0.0390501
0.000145911
0.000153549
0.000147345
0.000313795
0.00014704
0.000201002
0.000260745
0.0296824
0.0193088
0.0145673
0.000157896
0.0597457
0.000222676
0.000149362
0.000158052
0.000162704
0.000157832
0.000247646
0.0513078
0.0658181
0.0253006
0.000354147
0.00014883
0.000192603
0.000148139
0.0226231
0.000158174
0.000150597
0.000152482
0.000149798
0.000147133
0.000192124
0.0686847
0.000145838
0.00015172
0.000146892
0.0507294
0.000151453
0.0902034
0.00307626
0.000414291
0.000148569
0.000147198
0.0370891
0.000190354
0.000148858
0.000190037
0.000149495
0.00018682
0.000177715
0.000187905
0.00017497
0.0179512
0.00014645
0.000146272
0.000213098
0.020521
0.000158414
0.000165637
0.000147567
0.0100047
0.000148066
0.000147576
0.000150818
0.00014807
0.00726705
0.045259
0.000253453
0.000178264
0.0742974
0.00026127
0.000145357
0.000160877
0.000145643
0.000253069
0.000147476
0.000153449
0.000148057
0.000147324
0.000146244
0.000398819
0.000149779
0.000279961
0.000144667
0.000159084
0.000155757
0.000266724
0.000148215
0.000161143
0.000164273
0.000171082
0.0897812
0.000147301
0.0259732
0.000174557
0.000164113
0.000147846
0.000147567
0.0236463
0.0126708
0.000147519
0.000147098
0.000218937
0.00021663
0.000160941
0.0439006
0.000150379
0.000227083
0.000161074
0.000145714
0.000380792
0.000150128
0.0157813
0.000148385
0.000149823
0.000148727
0.0423968
0.0299565
0.000145468
0.000181175
0.000214021
0.000148277
0.000146981
0.000147426
0.000183043
0.055146
0.000173513
0.00015256
0.000165936
0.000148101
0.000148457
0.000151797
0.000147904
0.000206999
0.000148609
0.000180107
0.000277521
0.000163357
0.00014504
0.000102646
0.000183854
0.000148162
0.000176526
0.000160304
0.000248724
0.000153541
0.0830743
0.00017399
0.000147935
0.000181688
0.000182205
0.000153363
0.0873926
0.000178713
0.000159304
0.000257151
0.000147592
0.000183876
0.000169255
0.000180739
0.000147468
0.000147884
0.0001452
0.000159595
0.000177017
0.000176455
0.00277534
0.0375774
0.00365266
0.000149766
0.00029621
0.026721
0.0542579
0.000148093
0.0001481
0.000175716
0.0133318
0.000152658
0.00016446
0.0113801
0.040235
0.00415838
0.00017209
0.000203256
0.0222342
0.000264838
0.00014492
0.00189866
0.000215526
0.000148847
0.000148698
0.000150292
0.0768935
0.000184002
0.00156323
0.00015227
0.000817751
0.000148252
0.000257678
0.0243863
0.00014902
0.000163462
0.0666787
0.000223056
0.000173047
0.000150189
0.000152017
0.000149899
0.000184203
0.000196144
0.000489621
0.0558012
0.000146048
0.0195856
0.000190605
0.000227403
0.000148058
0.00014903
0.000242254
0.000182768
0.000147774
0.000171105
0.000167591
0.000161208
0.00166739
0.00991766
0.0858325
0.062066
0.000154257
0.000145324
0.000166601
0.0201539
0.0416351
0.000147295
0.000183181
0.000169296
0.000193329
0.000148772
0.000149693
0.000240266
0.000246593
0.000707397
0.000276973
0.0153355
0.000147609
0.000182646
0.0627295
0.00014935
0.000166076
0.000190332
0.000145537
0.000203813
0.0266832
0.000180651
0.000149685
0.012332
0.000194193
0.0458727
0.000144157
0.000151599
0.000148531
0.000150418
0.000148428
0.000169605
0.000162329
0.000162377
0.000186877
0.000163167
0.0489973
0.000154038
0.000158474
0.00015699
0.0306967
0.000165317
0.0422755
0.000156874
0.000156304
0.0144802
0.000170557
0.000148744
0.000162576
0.000212017
0.0048019
0.000231343
0.00014785
0.000147365
0.000147535
0.000255163
0.000151038
0.000333221
0.000259811
0.00018256
0.000160004
0.000212639
0.0376825
0.00014843
0.0239853
0.000159723
0.000163981
0.000147556
0.000147132
0.000173665
0.0798483
0.000148416
0.0357407
0.000215756
0.000170778
0.000198357
0.000147103
0.00014804
0.000159631
0.000149993
0.0585904
0.0250662
0.000169455
0.000249037
0.000147743
0.000148123
0.000148393
0.000149604
0.0907399
0.000150849
0.0567519
0.000169215
0.000148852
0.000189728
0.000585062
0.0247746
0.0280254
0.000151504
0.000146123
0.000148796
0.000151135
0.000215091
0.000181026
0.0726961
0.000148968
0.000148826
0.000176243
0.000149709
0.000215209
0.000152263
0.00017509
0.000176474
0.000162319
0.000162357