/*--------------------------------*- C++ -*----------------------------------*\
| =========                 |                                                 |
| \\      /  F ield         | OpenFOAM: The Open Source CFD Toolbox           |
|  \\    /   O peration     | Version:  v2012                                 |
|   \\  /    A nd           | Website:  www.openfoam.com                      |
|    \\/     M anipulation  |                                                 |
\*---------------------------------------------------------------------------*/
FoamFile
{
    version     2.0;
    format      ascii;
    class       surfaceVectorField;
    location    "150";
    object      Uf;
}
// * * * * * * * * * * * * * * * * * * * * * * * * * * * * * * * * * * * * * //

dimensions      [0 1 -1 0 0 0 0];


internalField   nonuniform List<vector> 
20673
(
(1.10466 0.100021 1.43631e-20)
(1.10853 0.0964995 1.69712e-20)
(1.10308 0.094866 1.49706e-20)
(1.02067 0.0347642 1.61596e-21)
(1.01952 0.0343477 0)
(1.01984 0.0360804 0)
(0.990249 -0.0904244 0)
(1.00978 -0.0917292 0)
(1.02102 -0.0897369 -4.582e-21)
(1.03751 -0.0189694 -9.10629e-22)
(1.03801 -0.0181154 7.85191e-22)
(1.03702 -0.0182022 -1.17544e-21)
(0.996442 0.00369911 1.06438e-21)
(0.996256 0.00327853 1.01474e-20)
(0.995952 0.00380205 9.75288e-21)
(0.372838 0.0858266 1.48832e-20)
(0.360486 0.0591398 8.60826e-20)
(0.344461 0.0878369 -1.58919e-21)
(0.9356 -0.0740913 8.11945e-21)
(0.932541 -0.07658 -9.01792e-21)
(0.972022 -0.0776549 -3.97449e-21)
(1.02589 -0.100448 1.63364e-20)
(1.00252 -0.100172 9.24143e-21)
(1.01383 -0.103223 1.00121e-20)
(0.890098 -0.16065 -4.6019e-21)
(0.85508 -0.157802 -3.92311e-20)
(0.816892 -0.150779 -9.7199e-21)
(1.15357 0.118337 2.79863e-20)
(1.16023 0.116885 1.6699e-20)
(1.15878 0.124175 -1.52974e-20)
(1.04991 -0.077017 -1.54044e-20)
(1.04889 -0.0762059 -3.906e-20)
(1.04864 -0.0779506 -3.30772e-20)
(1.04891 -0.0528381 8.15783e-22)
(1.04851 -0.0537487 6.86641e-22)
(1.04974 -0.0532637 1.27284e-20)
(1.03798 -0.0194592 7.50131e-21)
(0.223231 -0.0122322 -5.97525e-21)
(0.286732 -0.0173744 -1.48129e-20)
(0.211933 -0.010018 -1.34092e-20)
(0.978556 0.0901336 -2.5422e-21)
(0.9743 0.0898937 0)
(0.977107 0.0860569 7.26175e-21)
(0.999921 0.0834025 1.87948e-21)
(0.997454 0.0813452 -1.83932e-22)
(1.00096 0.079686 1.79269e-21)
(1.01484 0.0408956 -9.03355e-22)
(1.01615 0.0404139 1.25543e-22)
(1.01503 0.0394947 -3.96184e-22)
(1.11883 -0.0223478 1.54615e-21)
(1.12103 -0.0205559 -3.09431e-20)
(1.12156 -0.0245104 -1.7324e-20)
(1.04799 -0.0526659 0)
(1.04892 -0.0519793 0)
(1.00167 0.00502989 0)
(1.00168 0.00480675 0)
(1.00149 0.00467354 5.63205e-23)
(0.999988 0.00112379 -1.44316e-21)
(0.999978 0.00149 1.84327e-21)
(0.99999 0.00112879 3.60719e-21)
(0.932397 -0.0738871 8.05673e-21)
(0.894522 -0.0754303 7.85965e-21)
(1.00106 0.00775393 1.28792e-21)
(1.00113 0.00815065 4.89734e-22)
(1.00125 0.00800114 -1.41914e-22)
(1.03798 -0.100847 -4.50731e-22)
(1.04156 -0.103032 1.02267e-20)
(0.995529 0.0142304 -3.53714e-21)
(0.995043 0.014033 -1.01501e-20)
(0.995288 0.0146994 -8.24307e-21)
(0.956999 -0.0655337 1.23867e-20)
(0.922621 -0.0631293 -1.27679e-20)
(0.9216 -0.0653769 1.50987e-20)
(0.788866 0.0406238 5.16412e-21)
(0.780171 0.0467886 3.04377e-20)
(0.780705 0.0347224 3.7563e-20)
(0.766085 0.127114 8.15283e-22)
(0.765196 0.139764 0)
(0.755756 0.131177 -5.66013e-21)
(0.743625 0.581291 2.54049e-21)
(0.776164 0.590757 -1.35093e-20)
(0.755245 0.626559 -1.253e-20)
(1.20564 0.0396945 -1.73249e-21)
(1.20334 0.0344686 2.03535e-20)
(1.20946 0.0334125 2.43445e-21)
(1.12098 0.0820693 -1.83134e-20)
(1.11829 0.0861183 1.97636e-20)
(1.11615 0.0815418 2.28276e-21)
(1.06494 0.0724316 1.01715e-20)
(1.06225 0.0737 -2.91729e-21)
(1.06258 0.0702384 1.66228e-20)
(0.844591 0.0726008 0)
(0.836957 0.0757302 -7.36448e-20)
(0.837668 0.0662088 4.81806e-20)
(0.90667 0.000939722 4.74318e-20)
(0.909265 -0.00220045 3.03365e-22)
(0.91078 0.00168 -6.74521e-21)
(0.991736 0.0111231 0)
(0.991211 0.0116597 7.53891e-22)
(0.991929 0.0119411 0)
(1.03579 -0.0779309 -4.39973e-21)
(1.0358 -0.0791427 -6.98055e-21)
(1.03366 -0.0786709 2.34649e-20)
(1.00092 0.00746887 1.72024e-21)
(1.00106 0.00735577 -9.17227e-23)
(0.463473 -0.0597514 -7.01484e-21)
(0.423887 -0.0536209 -2.82879e-21)
(0.443215 -0.0551665 -5.76979e-21)
(1.04086 -0.024139 6.8434e-21)
(1.04118 -0.024991 -1.27646e-20)
(0.594368 -0.024694 7.1285e-21)
(0.556478 -0.0217847 1.4581e-20)
(0.597917 -0.024467 1.12364e-20)
(1.00805 0.000810227 -1.34484e-21)
(1.0084 0.000787905 1.74446e-21)
(1.00768 0.000458759 1.10092e-21)
(0.999997 0.000784987 1.42075e-21)
(1 0.000372125 0)
(0.999999 0.000402593 2.88361e-21)
(1.01727 0.00097457 4.75452e-22)
(1.01711 0.00116736 -2.9194e-21)
(1.01698 0.000946931 -9.47192e-22)
(0.705256 0.207469 -5.94949e-20)
(0.722477 0.214814 5.04768e-21)
(0.705574 0.230002 1.53365e-20)
(1.0334 0.0162301 0)
(1.03423 0.0166677 0)
(1.03431 0.0158418 -2.39553e-21)
(0.890433 0.017737 0)
(0.88862 0.0132303 0)
(0.894163 0.0141364 0)
(1.11669 -0.025346 -9.62088e-22)
(1.11567 -0.0212469 1.85273e-20)
(1.10386 -0.0565201 -2.16897e-20)
(1.10402 -0.0537042 -9.53628e-21)
(1.10129 -0.0552161 -3.26324e-20)
(0.0960213 0.165792 3.96715e-20)
(0.0954497 0.200978 0)
(0.124604 0.178649 -6.25297e-20)
(1.00331 0.000717435 0)
(1.0036 0.000648181 1.52187e-23)
(1.00354 0.00100362 2.88214e-23)
(1.06856 -0.00453726 0)
(1.0698 -0.00395958 1.29853e-20)
(1.06962 -0.00546483 0)
(0.965925 0.00816852 2.74557e-21)
(0.964632 0.00680191 -2.65438e-21)
(0.964322 0.00887018 1.60899e-20)
(0.0885416 0.135532 -1.0832e-19)
(0.055442 0.172367 3.26517e-20)
(0.90375 0.00418571 4.16664e-20)
(0.902351 -0.000251682 1.05214e-20)
(1.01469 0.0423079 -6.05689e-22)
(1.01341 0.0411478 -4.47461e-22)
(1.07549 0.0161143 0)
(1.07536 0.018239 0)
(1.07747 0.0171937 -3.41892e-20)
(1.0513 -0.0781644 1.93764e-20)
(1.0513 -0.0761631 1.58406e-20)
(0.99577 0.0275027 1.38648e-21)
(0.995789 0.0262667 0)
(0.996829 0.0270916 -1.95125e-21)
(1.06428 0.0261438 2.14193e-22)
(1.06633 0.0265836 0)
(1.06484 0.0284068 0)
(1.03252 0.016594 9.32537e-21)
(1.03254 0.0157631 2.19529e-21)
(0.767928 0.0476913 -7.77465e-20)
(0.598191 0.0369289 -8.87054e-21)
(0.66936 0.0373824 -6.79759e-20)
(1.02178 0.0339845 -8.78254e-22)
(1.02195 0.0356852 1.02777e-22)
(0.228884 -0.0125225 6.61087e-21)
(1.00167 0.00522669 -9.67849e-22)
(1.00186 0.00537589 -6.81052e-22)
(0.382582 0.121025 -7.85146e-20)
(0.405109 0.0885156 2.02718e-21)
(1.21787 0.394163 0)
(1.18281 0.366505 -3.80303e-20)
(0.911932 0.28853 0)
(0.995576 -0.000232148 -3.66301e-21)
(0.995114 -0.000105471 2.89372e-21)
(0.98732 -0.00172579 5.459e-21)
(0.988089 -0.00168493 -1.79822e-20)
(1.08902 -0.0977511 -5.68123e-21)
(1.0864 -0.0974753 -2.20543e-20)
(1.08713 -0.100556 -5.53726e-20)
(1.07084 0.11766 -1.21083e-20)
(1.07614 0.116879 5.27054e-21)
(1.07348 0.123476 -1.94465e-20)
(0.99688 0.00363267 -8.5769e-21)
(0.996601 0.00412162 -2.8039e-21)
(0.954998 -0.171738 1.47202e-20)
(0.923001 -0.166295 3.70493e-20)
(0.00730042 -0.0433825 -2.13732e-20)
(0.0464463 -0.0530305 1.2465e-20)
(0.0302396 -0.0506755 1.91954e-20)
(0.996197 0.0144046 6.16114e-21)
(0.995916 0.0135779 2.25997e-21)
(0.0968907 0.236042 -6.37494e-20)
(0.131903 0.252662 -6.81666e-20)
(0.0997347 0.274573 8.00995e-20)
(1.04214 -0.0533906 5.3808e-21)
(1.04222 -0.0528606 6.09292e-21)
(1.04279 -0.0530826 1.24661e-20)
(0.0649225 -0.0244421 -1.19113e-20)
(0.0964455 -0.0343763 -3.39735e-21)
(0.0800658 -0.0271823 -1.56382e-20)
(1.04612 0.0146121 4.10928e-21)
(1.04733 0.0147973 9.03674e-21)
(1.0466 0.0159901 -7.14827e-21)
(0.905675 -0.0539743 7.98214e-21)
(0.905225 -0.0566423 3.35373e-21)
(0.94189 -0.056823 -3.02289e-21)
(0.999955 0.00219021 8.83997e-24)
(0.999908 0.0025399 -3.77656e-21)
(0.999929 0.00257544 -2.03253e-22)
(1.00012 0.00336728 3.62996e-21)
(1.00013 0.00367342 2.73307e-21)
(1.00014 0.00328815 -1.6766e-21)
(0.996007 0.000114691 -5.57108e-22)
(0.39282 0.146499 -8.32712e-20)
(0.404292 0.176265 7.78154e-20)
(0.424739 0.150942 -5.91651e-20)
(0.508949 -0.0671195 -1.71347e-22)
(0.490131 -0.0662107 1.46343e-20)
(-0.0595006 0.0362501 -1.20332e-19)
(-0.111243 0.0337058 0)
(-0.0969191 0.03331 -1.77179e-19)
(1.04487 0.0145759 -4.36967e-21)
(1.0456 0.01349 -4.42692e-21)
(1.00046 0.00452763 5.42234e-22)
(1.00051 0.00443782 -2.149e-21)
(1.00039 0.0041262 -4.57113e-23)
(1.2295 0.42118 0)
(1.29748 0.439611 8.33755e-20)
(1.06684 -0.00496961 0)
(1.06733 -0.00325122 -4.21279e-21)
(1.01741 0.000845013 -2.66971e-21)
(1.01755 0.00105433 -2.67801e-22)
(0.211957 -0.0670951 -7.07449e-21)
(0.166652 -0.0585536 -5.49766e-21)
(0.190779 -0.0614096 1.51665e-20)
(1.19767 0.0840106 4.14111e-20)
(1.19114 0.0880268 4.6209e-20)
(1.19629 0.0921943 -2.30089e-20)
(1.02127 0.0189005 -1.41916e-22)
(1.0215 0.0181441 0)
(1.02068 0.0182965 0)
(0.976342 0.0484723 -3.19259e-21)
(0.974345 0.0496846 3.01908e-22)
(0.976862 0.0507941 -1.39807e-21)
(1.27484 0.440202 0)
(1.1671 0.42322 -7.73888e-20)
(0.373795 0.0315606 4.39623e-20)
(0.401958 0.0229578 -1.60224e-20)
(0.378387 -0.00296186 -5.514e-20)
(1.06995 -0.078479 -2.30521e-21)
(1.07138 -0.0797367 2.20125e-20)
(1.06916 -0.080362 3.2165e-20)
(1.10733 -0.046504 -1.02635e-20)
(1.10976 -0.0477626 -2.71396e-20)
(1.10984 -0.0448464 2.38938e-21)
(1.03905 -0.0587248 9.32014e-21)
(1.03841 -0.0589538 -4.96004e-21)
(1.03856 -0.0582831 -2.93247e-21)
(0.599043 0.147687 0)
(0.61866 0.132096 0)
(0.621562 0.158804 0)
(1.0103 0.00473668 7.75534e-22)
(1.01068 0.00478681 -1.13535e-22)
(1.01054 0.00514166 -1.76031e-21)
(0.839203 0.000842802 4.30836e-21)
(0.843079 0.00820425 -3.4371e-21)
(0.846939 0.00108274 5.07529e-21)
(0.688179 0.201736 -1.82337e-21)
(0.705744 0.191756 -2.78682e-20)
(1.05083 0.00769939 0)
(1.05172 0.00711895 0)
(1.05066 0.00630763 0)
(1.01482 0.00991584 -8.52665e-22)
(1.01483 0.00940839 1.65895e-21)
(1.01533 0.00979862 6.47565e-22)
(0.901129 -0.168005 0)
(0.888228 -0.168773 1.48794e-20)
(0.963824 -0.174425 0)
(0.848349 0.511451 5.59687e-21)
(0.819977 0.531735 -5.19078e-21)
(0.861411 0.538292 1.32595e-21)
(1.10381 -0.0586764 -5.87081e-21)
(1.10633 -0.0573645 -1.18101e-20)
(1.01757 0.0398174 3.63144e-22)
(1.01762 0.0414086 1.06597e-21)
(1.1222 0.0960816 -1.99901e-20)
(1.11889 0.0997713 -2.17191e-20)
(1.12434 0.101126 -1.95548e-20)
(-0.16114 -0.0142666 8.17662e-21)
(-0.209978 -0.0114476 3.46077e-20)
(-0.188076 -0.013332 1.21698e-20)
(0.617332 -0.0268922 -5.09716e-21)
(0.58831 -0.0245767 -1.1227e-20)
(1.04628 -0.0570281 1.18037e-21)
(1.04563 -0.0568243 -9.11996e-23)
(1.04552 -0.0576116 -1.132e-20)
(0.903091 -0.166852 1.03448e-22)
(0.827686 -0.162205 -1.02983e-20)
(0.948587 0.0062624 4.68709e-21)
(0.947309 0.00827944 -1.13323e-20)
(0.946441 0.00557992 -4.36515e-21)
(0.0855011 -0.0876661 1.39168e-19)
(0.0962881 -0.0588899 1.23553e-19)
(0.059392 -0.0632755 -1.1828e-19)
(1.00117 0.0130379 2.68911e-22)
(1.00125 0.013578 -5.29991e-21)
(1.00089 0.0133256 -3.34367e-21)
(0.18411 0.134664 -1.16071e-19)
(0.213808 0.114678 -4.53475e-20)
(0.215921 0.15006 -6.70896e-20)
(0.492926 -0.0223102 2.53047e-21)
(0.503354 -0.0260051 1.04947e-21)
(0.519337 -0.0304089 -2.11393e-20)
(0.906796 0.0120311 -3.55527e-21)
(0.90415 0.0154118 -2.45249e-20)
(0.908838 0.0156671 -2.09989e-20)
(1.00001 0.00117793 1.47384e-21)
(0.999995 0.0011697 -1.18259e-22)
(1.09141 -0.0985663 -1.0573e-20)
(1.09028 -0.0958764 4.14557e-20)
(0.451114 -0.0256491 -8.26869e-22)
(0.476383 -0.0311654 4.74733e-21)
(0.466775 -0.030601 -5.64342e-21)
(0.767145 0.114986 -2.17324e-20)
(0.779615 0.123161 6.88426e-20)
(1.00492 0.000612216 -4.68929e-22)
(1.00513 0.000882589 -1.55221e-23)
(1.00522 0.000512974 -2.84171e-22)
(0.976144 0.0459746 1.16152e-20)
(0.978483 0.0470711 -1.22639e-20)
(1.03061 0.0198617 -1.17716e-21)
(1.03133 0.0205062 -1.98058e-21)
(1.03044 0.0207822 -2.99636e-22)
(1.00462 0.00063106 3.13759e-22)
(1.00451 0.000309771 1.51828e-22)
(1.01528 0.00108442 0)
(1.01542 0.000950936 1.29498e-23)
(1.01521 0.000920226 0)
(0.345406 0.0341259 1.34347e-19)
(0.605706 -0.0507676 0)
(0.591229 -0.0473083 0)
(0.57474 -0.0432498 0)
(0.950014 0.00391361 -8.44407e-21)
(0.951155 0.00664358 4.24057e-21)
(1.03506 0.0171227 3.78284e-21)
(1.03412 0.0175997 -2.75416e-21)
(0.999975 0.00110056 -8.43989e-22)
(1 0.000752648 -3.55963e-21)
(1.25881 -0.117676 -2.39725e-21)
(1.24536 -0.117602 -2.44316e-21)
(1.26129 -0.127141 2.33546e-20)
(1.04184 -0.099684 -9.13682e-21)
(1.03649 -0.0986321 -1.00298e-20)
(1.10589 0.10487 -1.57271e-20)
(1.10069 0.10275 -1.21834e-22)
(0.582889 0.159869 0)
(0.582711 0.131469 -1.01781e-19)
(0.995093 0.000369709 -1.45038e-21)
(0.99461 -2.99558e-05 1.77494e-21)
(0.905074 0.00813975 2.72182e-20)
(0.909417 0.00911793 1.37946e-20)
(1.03786 -0.0808951 3.66774e-21)
(1.03715 -0.0795367 2.8774e-21)
(1.03803 -0.0797438 -2.74511e-21)
(1.02168 0.00893017 -1.72519e-21)
(1.02169 0.0094281 1.14602e-21)
(1.02111 0.00910562 -3.37565e-21)
(0.963618 0.0199114 1.34678e-20)
(0.961517 0.0206138 1.03889e-20)
(0.962117 0.0181143 1.51376e-20)
(0.671341 0.206762 2.60533e-20)
(0.65115 0.214083 4.67966e-21)
(0.670598 0.230139 -5.79874e-20)
(0.987134 -0.000993032 1.17918e-20)
(0.986546 -0.00162545 1.69646e-20)
(1.08746 -0.171723 -4.00516e-21)
(1.05 -0.171847 2.47158e-20)
(1.08717 -0.174645 -2.22672e-20)
(0.842263 0.622268 -2.85432e-21)
(0.848759 0.590806 -2.21663e-21)
(0.812179 0.593678 3.17468e-21)
(0.967326 0.00981311 -9.44582e-21)
(0.967801 0.00769423 0)
(1.02037 0.00741247 -2.95825e-21)
(1.02048 0.00787208 -1.25145e-21)
(1.01993 0.00758265 1.9714e-21)
(1.06089 0.0806344 1.19438e-20)
(1.05741 0.0817053 -8.85799e-21)
(1.06046 0.085001 -5.3703e-21)
(1.07662 -0.049746 0)
(1.07706 -0.0518702 1.13623e-20)
(1.07857 -0.0495668 -1.8368e-20)
(0.109041 -0.109457 3.03779e-21)
(0.0699008 -0.117258 5.34503e-20)
(1.05953 -0.0636338 -2.75624e-20)
(1.06012 -0.064949 -4.61102e-21)
(1.05836 -0.0644667 -5.19954e-21)
(1.03763 0.169577 3.7939e-21)
(1.04022 0.164379 0)
(1.0454 0.167832 -4.82062e-21)
(1.07563 0.0423332 1.12631e-20)
(1.07407 0.0447441 2.30185e-20)
(1.07285 0.0421275 -2.05511e-21)
(-0.0240655 0.0685853 -2.37464e-20)
(-0.0438043 0.0757557 0)
(-0.0791742 0.0676939 0)
(1.06573 0.119077 1.27445e-20)
(1.06803 0.113493 1.5363e-20)
(1.04018 -0.111708 4.40924e-21)
(1.0445 -0.112273 4.29324e-21)
(1.04451 -0.109819 -6.43976e-21)
(0.0312107 -0.015374 1.74281e-20)
(0.0508382 -0.023252 0)
(1.25402 -0.109506 4.29894e-20)
(1.28022 -0.12061 -5.36294e-20)
(0.943092 0.0417748 -1.31708e-21)
(0.940388 0.0434209 -4.59617e-21)
(0.940046 0.0399088 1.27853e-21)
(0.785637 -0.0228036 -3.21971e-20)
(0.780538 -0.0142149 5.76091e-20)
(0.774229 -0.0246124 -8.89659e-21)
(1.00003 0.00264646 3.00767e-21)
(1.00005 0.00254846 -2.1666e-21)
(1 0.00219445 -8.47284e-23)
(1.06799 -0.0774861 -2.34511e-20)
(1.07025 -0.0766316 -3.16654e-20)
(1.04718 -0.0574355 0)
(1.04703 -0.0564312 7.15147e-21)
(1.03965 -0.0585247 -1.91405e-20)
(1.03953 -0.0592176 -1.59802e-20)
(1.05097 0.00886453 0)
(1.04992 0.00812801 1.22505e-22)
(1.0912 -0.0491535 -2.19345e-20)
(1.08912 -0.0500167 4.36532e-21)
(1.09091 -0.0518042 -8.9905e-21)
(1.02802 0.0142085 8.37522e-21)
(1.02874 0.0145964 3.53931e-21)
(1.02797 0.0150327 6.31518e-21)
(0.835622 -0.00553579 -3.78025e-20)
(0.831201 0.00226592 -1.36621e-20)
(1.06301 0.160321 1.06008e-20)
(1.05548 0.160654 1.17048e-20)
(1.06021 0.153733 0)
(-0.371414 0.014088 5.79471e-20)
(-0.396625 0.0157317 -1.14527e-19)
(-0.351984 0.0130414 -1.68061e-21)
(1.0435 -0.0565153 1.36419e-21)
(1.04315 -0.0571425 2.60961e-20)
(1.04402 -0.0570239 1.56682e-20)
(1.01428 0.0480686 -4.48709e-22)
(1.01434 0.0497026 1.98078e-22)
(1.0126 0.0488163 -4.88013e-22)
(1.09089 -0.154848 1.46724e-20)
(1.09467 -0.157521 0)
(1.09008 -0.153398 0)
(1.03133 0.188927 2.58692e-21)
(1.02898 0.19442 0)
(1.03696 0.193333 -4.64066e-21)
(0.619667 -0.050932 1.12164e-20)
(0.644074 -0.0547466 -8.58144e-21)
(0.152418 0.119241 0)
(0.154661 0.156808 -6.17667e-20)
(1.09023 -0.170218 -2.09292e-20)
(1.10775 -0.171231 1.1996e-21)
(1.01199 0.0226627 1.7149e-22)
(1.01261 0.0231503 0)
(1.01186 0.0234445 -2.37693e-23)
(1.20372 0.0809292 1.88442e-20)
(1.19851 0.0770414 -3.38759e-21)
(1.12672 0.0825286 0)
(1.12408 0.0779582 2.31253e-21)
(1.02219 0.00870851 -2.89984e-22)
(1.02159 0.00841378 -1.28276e-22)
(1.00043 0.00463467 4.1103e-21)
(1.00053 0.00496375 3.71589e-21)
(0.943254 0.11328 3.89753e-21)
(0.939021 0.109681 -4.22546e-21)
(0.945055 0.108683 -9.27994e-21)
(0.991731 -0.0664885 1.16034e-21)
(0.990781 -0.067907 1.72889e-20)
(1.28964 0.0745323 5.72954e-20)
(1.29787 0.0705052 9.83904e-20)
(1.30044 0.0792071 2.59998e-20)
(-0.00405477 0.0681615 -5.39902e-20)
(0.0685417 0.081834 1.89562e-21)
(1.10434 0.00888127 -2.79357e-21)
(1.10479 0.0115391 6.21537e-21)
(1.10692 0.00940831 -5.41784e-20)
(1.04302 -0.0624959 -1.07152e-21)
(1.04265 -0.0620943 -2.57706e-20)
(1.0423 -0.0629191 5.87585e-21)
(1.04552 -0.0927007 -9.71506e-21)
(1.04449 -0.0926214 7.25597e-21)
(1.04572 -0.0945935 -8.53806e-22)
(-0.000951063 0.0372874 -6.40908e-20)
(-0.0183871 0.0372161 -9.03421e-20)
(1.29031 0.130283 -7.00496e-20)
(1.28974 0.122005 3.00024e-22)
(1.29967 0.125645 5.95021e-20)
(0.999919 0.00820968 -5.70292e-21)
(0.999998 0.00785641 -2.24915e-21)
(0.99983 0.00776941 -5.84303e-22)
(0.567868 0.0699906 2.40204e-20)
(0.574593 0.0898634 1.50544e-19)
(0.549354 0.0854225 1.98054e-20)
(0.797178 0.0367601 4.22558e-20)
(0.796873 0.0480377 -3.38318e-21)
(1.00886 0.000311897 -3.32796e-21)
(1.00856 0.000307953 5.97278e-22)
(1.02096 0.0195299 -3.85819e-21)
(1.02187 0.0194588 5.26295e-21)
(0.896936 0.47445 1.25604e-21)
(0.890025 0.445864 -5.42627e-21)
(0.918896 0.45389 1.28461e-21)
(1.29064 0.487436 3.41392e-20)
(1.29647 0.465601 2.92453e-20)
(1.21541 0.449384 3.05998e-20)
(1.05535 -0.0167552 -2.97141e-21)
(1.05589 -0.0177129 7.77449e-21)
(1.05662 -0.0166999 -9.28431e-21)
(1.00314 0.000865447 3.72975e-23)
(1.00312 0.000541268 0)
(1.08402 -0.0480002 4.06758e-21)
(1.08405 -0.045845 -3.37731e-20)
(1.08611 -0.0472087 -1.77149e-20)
(1.07489 -0.0502938 1.67706e-20)
(1.07578 -0.0481709 0)
(-0.0137449 -0.0369758 -5.748e-21)
(-0.0286247 -0.0352852 -5.7691e-21)
(1.16117 -0.145263 1.31782e-20)
(1.1564 -0.144509 2.49713e-20)
(1.16164 -0.139721 2.57752e-20)
(0.992202 0.0107886 6.04789e-21)
(0.991715 0.0105697 -4.17723e-22)
(0.994729 0.0277481 -1.75157e-22)
(0.995735 0.0285072 1.12976e-21)
(1.10501 -0.0453861 8.65837e-22)
(1.10476 -0.0481415 5.99438e-21)
(0.986549 -0.0770045 -6.74282e-21)
(1.0178 -0.0763249 4.28463e-21)
(1.0105 -0.0775831 -6.79564e-21)
(0.965468 0.0189609 -2.29384e-20)
(0.965308 0.0212638 -8.16129e-21)
(0.926429 -0.0779064 -1.0465e-21)
(0.918954 -0.0792709 -1.49936e-21)
(0.96458 -0.0807815 1.76806e-20)
(-0.0948352 -0.0192338 0)
(-0.0612853 -0.0264366 0)
(-0.0811015 -0.0198273 -1.821e-21)
(1.04393 -0.062353 -9.32071e-21)
(1.04358 -0.063331 1.14699e-20)
(1.01446 0.00994616 -4.53187e-21)
(1.01484 0.0102746 -1.57413e-21)
(0.508078 0.414641 -4.26239e-20)
(0.529277 0.449506 1.23672e-20)
(0.47576 0.452735 -1.68234e-20)
(1.09817 -0.0415532 2.09851e-20)
(1.10043 -0.0428815 4.12089e-20)
(1.1004 -0.0400461 -2.26138e-21)
(-0.336931 -0.00100148 4.25418e-20)
(-0.290835 -0.0079645 2.23736e-20)
(-0.314863 -0.00156171 2.69847e-20)
(1.00305 0.0166482 -1.63817e-21)
(1.00342 0.0169509 8.77288e-22)
(1.00307 0.0173257 -1.45725e-21)
(0.938709 0.0626012 3.41313e-20)
(0.881804 0.0636753 5.55315e-20)
(1.01131 0.0221013 1.71143e-22)
(1.01206 0.0219237 4.36494e-22)
(1.19218 0.010605 5.03579e-22)
(1.18707 0.00935856 -5.38986e-20)
(1.18852 0.0144105 -5.30523e-21)
(1.00792 0.00104676 1.12628e-22)
(1.00775 0.000730085 -1.86695e-21)
(0.422968 -0.0663263 -4.93075e-21)
(0.3839 -0.0619805 1.49491e-20)
(0.413671 -0.0633098 6.25909e-21)
(0.875863 -0.169038 -1.97509e-21)
(0.862896 -0.168509 -1.60388e-20)
(0.939192 -0.174303 -1.3295e-20)
(0.999696 0.0866219 0)
(1.00309 0.084995 0)
(1.23225 0.482316 5.04355e-20)
(1.27905 0.493558 -2.17236e-22)
(1.24324 0.461351 -9.28201e-21)
(1.07838 0.0422559 1.84703e-22)
(1.07651 0.0398424 -1.65909e-20)
(1.01388 0.00991814 8.61098e-23)
(1.01397 0.00943352 -1.30419e-21)
(1.03611 -0.0771469 -2.22483e-20)
(1.03532 -0.0769042 -1.70265e-20)
(1.04305 -0.056066 -3.09993e-21)
(1.04382 -0.0559193 -9.72337e-21)
(1.1019 0.00836803 1.72103e-20)
(1.10374 0.00631618 3.20797e-20)
(1.03876 -0.0958627 0)
(1.02577 -0.0953414 0)
(1.04212 -0.0930282 7.92049e-21)
(-0.110591 -0.013057 -9.18888e-21)
(-0.13378 -0.00875013 0)
(1.01109 0.00250619 0)
(1.01142 0.002521 6.85503e-22)
(1.01124 0.00218632 1.04854e-21)
(1.06761 0.0708561 -4.53865e-22)
(1.06748 0.0747216 1.9376e-20)
(0.241429 -0.0755386 1.80677e-20)
(0.26581 -0.0776921 1.24714e-20)
(-0.127267 0.0392568 -4.00394e-20)
(-0.162116 0.0370159 -2.27369e-20)
(-0.131447 0.0399265 -1.59625e-19)
(1.00002 0.00262459 6.10805e-21)
(1.00001 0.00303219 2.95146e-21)
(1.00595 0.0081374 -1.43534e-22)
(1.00633 0.00831727 5.1638e-23)
(1.00611 0.00853183 4.81068e-23)
(0.629989 -0.0226638 8.87424e-21)
(0.650137 -0.0257528 -1.93457e-21)
(1.07367 -0.0848774 1.88049e-20)
(1.07196 -0.0837617 8.17597e-21)
(1.07162 -0.0861459 2.82632e-20)
(1.00006 0.000143089 -4.14522e-22)
(1.00003 0.000109904 -1.91595e-22)
(1.00006 0.000179817 6.27262e-22)
(1.03491 -0.0727583 2.94044e-21)
(1.03454 -0.0714848 5.97774e-21)
(1.03534 -0.0721184 6.9232e-22)
(1.15209 -0.0496617 -7.15166e-21)
(1.1489 -0.0525775 -3.85212e-20)
(1.14777 -0.0475919 7.43674e-21)
(0.794941 -0.0231394 -5.3474e-20)
(0.789914 -0.0325381 -2.2827e-20)
(1.09787 0.0831358 6.93838e-21)
(1.10151 0.0860867 -2.7736e-20)
(1.10115 0.080818 -6.76026e-21)
(1.00005 0.00297598 1.26953e-22)
(1.00007 0.00253391 -1.48815e-21)
(0.996991 0.204223 1.60829e-21)
(0.997564 0.194114 9.78028e-22)
(0.987868 0.199434 0)
(-0.0313627 -0.0223118 -5.91699e-21)
(-0.0235818 -0.0205787 -3.46461e-20)
(-0.0626705 -0.0114842 -2.09526e-20)
(1.03108 -0.0024705 7.59005e-23)
(1.03104 -0.00310791 -2.43686e-21)
(1.03176 -0.00281946 -2.37939e-21)
(1.22632 0.0951094 3.04268e-20)
(1.22054 0.100423 -6.14117e-20)
(1.21955 0.0911438 -2.67211e-20)
(0.573664 0.178192 0)
(0.590193 0.1984 0)
(0.560404 0.205377 -4.94365e-20)
(1.02989 0.0192012 -5.72779e-22)
(1.03073 0.0188764 -2.26533e-21)
(0.995853 0.0251617 0)
(0.994905 0.0255032 -5.41527e-21)
(1.06041 -0.0570106 1.32403e-20)
(1.06069 -0.0582874 -4.32347e-21)
(1.05928 -0.0578064 0)
(0.670317 -0.0304616 5.29822e-21)
(0.65192 -0.0285523 8.65539e-21)
(0.651816 -0.0288922 -9.17986e-21)
(1.05891 -0.0625391 1.2765e-20)
(1.0607 -0.0627783 -1.65499e-20)
(0.946522 0.117374 1.13372e-20)
(0.940941 0.119096 -4.82556e-21)
(0.982479 0.0896122 2.00274e-21)
(0.980211 0.093514 1.41055e-21)
(1.00006 0.000311573 0)
(1.00005 0.000270702 6.98968e-23)
(1.00002 0.000183483 0)
(0.424891 -0.0206057 -4.45772e-21)
(0.434993 -0.0216765 9.29385e-22)
(0.976251 -0.148638 0)
(1.06031 -0.157321 1.76656e-20)
(1.05054 -0.152347 -6.78922e-20)
(1.03298 -0.0651589 6.06079e-21)
(1.03311 -0.0659392 -1.62938e-20)
(1.03295 -0.0650948 -9.30555e-21)
(1.01344 0.00992588 2.52444e-21)
(1.01385 0.0103129 3.09924e-21)
(-0.122685 -0.029545 0)
(-0.0802865 -0.0391105 0)
(-0.101529 -0.0342963 0)
(0.279996 -0.0244596 -4.08603e-21)
(0.288162 -0.023063 1.41714e-21)
(0.251498 -0.017049 -3.76915e-21)
(1.03654 -0.113309 -3.77006e-21)
(1.03628 -0.110809 -2.01132e-22)
(0.900528 -0.0543101 1.0483e-20)
(0.869302 -0.0556329 7.57325e-21)
(1.04209 -0.0538915 8.11661e-21)
(1.04157 -0.0535954 -7.23407e-22)
(1.00007 0.00344033 -2.29517e-22)
(1.00618 0.000664086 5.72129e-23)
(1.00587 0.000711571 2.01887e-23)
(1.00622 0.00104407 5.97858e-22)
(1.1149 -0.026979 -1.55923e-21)
(1.11221 -0.0260764 4.10123e-20)
(1.11296 -0.0292427 1.11233e-22)
(0.30434 -0.0549026 -2.36864e-21)
(0.277253 -0.0475255 -7.13885e-21)
(0.266739 -0.047892 1.21769e-21)
(1.11361 -0.0815052 6.23476e-21)
(1.11667 -0.0811677 3.09221e-20)
(1.11461 -0.0847514 -1.0736e-20)
(1.06221 0.0259514 4.72964e-21)
(1.06357 0.0243323 -2.08926e-20)
(1.16753 -0.145772 -1.23095e-20)
(1.16789 -0.150821 -2.55901e-20)
(1.04506 -0.0439017 -2.83385e-21)
(1.04477 -0.0432262 -9.02486e-21)
(1.01515 0.000565729 0)
(1.01516 0.000723449 0)
(1.01529 0.000608455 -4.57411e-22)
(1.24416 -0.051671 -2.81768e-20)
(1.24172 -0.058976 5.33823e-20)
(1.14601 -0.0628761 7.08841e-20)
(1.00209 0.00485297 1.85945e-22)
(1.00209 0.0046389 -8.06339e-22)
(1.00189 0.0045363 -1.74098e-21)
(1.08905 -0.152995 6.13432e-22)
(1.07893 -0.155498 1.36095e-20)
(1.05478 -0.0154748 7.62369e-21)
(1.05399 -0.0165489 8.20131e-21)
(1.00007 0.000110831 -1.43705e-21)
(1.0001 0.000174053 -7.26176e-22)
(1.00737 0.0991591 -1.7835e-21)
(1.00662 0.103869 -1.48934e-21)
(1.00336 0.0998552 -1.00801e-22)
(1.03639 0.175585 -8.15774e-22)
(1.03118 0.170631 3.16306e-21)
(0.775696 -0.00376307 -5.30067e-20)
(0.786316 -0.00390914 3.41671e-20)
(1.03473 -0.0732057 1.21407e-20)
(1.03527 -0.0738372 -4.61163e-22)
(1.00848 0.13339 -4.60464e-22)
(1.0093 0.139419 1.31446e-21)
(1.0029 0.135958 3.53265e-23)
(1.03486 0.00189781 -1.43026e-20)
(1.03551 0.00245392 -8.61828e-21)
(1.03469 0.00256737 -2.93827e-21)
(1.24385 -0.086952 -3.85584e-20)
(1.24837 -0.0822939 2.73347e-20)
(1.2445 -0.0891735 -2.94904e-20)
(1.04158 -0.0971246 7.36879e-21)
(1.03651 -0.0970301 0)
(0.900458 -0.150508 1.24874e-20)
(0.900076 -0.146795 -1.43327e-20)
(1.00265 0.0164912 -1.48906e-21)
(1.00298 0.0161601 -2.89545e-22)
(1.04298 -0.121649 -1.01259e-20)
(1.0454 -0.121099 -1.10921e-20)
(1.04541 -0.12457 1.67263e-20)
(0.998454 0.000735054 -1.81431e-21)
(0.998356 0.000999182 -2.88803e-21)
(0.998167 0.000779136 1.13198e-21)
(1.03437 0.00128331 3.96327e-21)
(1.03523 0.00112478 -3.98164e-21)
(1.00108 0.0124569 1.73022e-22)
(1.00144 0.0127141 6.47118e-21)
(0.874829 0.653287 -3.80582e-21)
(0.82574 0.660977 1.7119e-21)
(1.00165 0.000939592 0)
(1.00179 0.000817222 0)
(1.00154 0.00074059 -1.32148e-22)
(1.19703 0.0116684 3.94102e-21)
(1.19555 0.00671341 -7.0658e-21)
(1.0946 0.0864553 0)
(1.09392 0.0812296 -1.05891e-20)
(1.02726 0.0137859 -5.87122e-21)
(1.02803 0.0134189 2.41339e-21)
(1.08404 -0.050359 1.77288e-20)
(1.08195 -0.0485562 2.40433e-20)
(1.03634 0.0464046 2.22653e-21)
(1.03696 0.0447061 -2.00327e-23)
(1.03841 0.0460675 4.74458e-21)
(0.121473 0.0997453 0)
(0.108739 0.0856844 0)
(0.108091 0.116387 -1.1607e-19)
(1.03439 0.182865 -1.7427e-21)
(1.02679 0.184171 1.69569e-21)
(1.18618 0.0822132 0)
(1.18421 0.0899712 0)
(1.02555 0.00894568 2.66396e-21)
(1.02614 0.0093684 -5.83171e-21)
(1.02605 0.00863966 4.28727e-21)
(0.996742 0.0248138 -2.14639e-21)
(0.995902 0.0241546 6.10698e-21)
(-0.195534 -0.00742307 7.03409e-20)
(-0.229876 -0.0057028 -3.07494e-20)
(-0.238914 -0.00474315 -2.92139e-20)
(0.425089 -0.0265724 1.96168e-22)
(0.413733 -0.0241835 -3.7822e-21)
(0.443621 -0.0315969 -2.95415e-21)
(1.00124 0.0141432 -3.07687e-21)
(1.00157 0.0138434 -7.87708e-22)
(1.00679 0.000601856 -3.42985e-24)
(1.00717 0.000806181 -1.20642e-22)
(1.00681 0.00106964 -4.95778e-22)
(1.23493 -0.0468082 -7.01089e-20)
(1.315 -0.0487156 -1.04642e-19)
(1.01466 0.0209454 1.77527e-21)
(1.0149 0.0217585 1.72455e-21)
(1.0156 0.0212297 -4.45499e-22)
(0.0913917 -0.0621781 3.03996e-21)
(0.0647179 -0.0553943 2.05002e-20)
(1.02493 0.00869092 2.08127e-21)
(1.02504 0.00940948 2.65973e-21)
(0.430673 -0.0695255 4.86828e-21)
(0.462503 -0.0712811 -5.67635e-21)
(1.03331 -0.0111316 -3.50553e-21)
(1.03272 -0.0115572 0)
(1.03334 -0.0118581 1.42623e-22)
(1.26537 0.300113 2.70163e-20)
(1.25122 0.300264 2.06856e-21)
(1.2581 0.314312 9.71291e-21)
(1.07713 -0.0213052 3.57815e-20)
(1.07794 -0.0194498 1.62343e-20)
(1.07931 -0.0211919 -8.76861e-21)
(0.106578 0.350264 -4.73312e-20)
(0.103929 0.30972 7.56016e-20)
(0.139692 0.32584 -1.90526e-19)
(0.946402 0.0428181 -7.62303e-21)
(0.945728 0.0394857 4.59858e-21)
(1.24325 -0.104014 5.57832e-20)
(1.26001 -0.104837 2.04417e-20)
(0.527567 0.318276 7.93544e-20)
(0.500829 0.330412 -3.50053e-20)
(0.530114 0.351375 7.11075e-21)
(1.01134 0.0988808 2.68489e-22)
(1.00852 0.0959916 1.85867e-22)
(1.07549 -0.0840065 -2.43801e-20)
(1.07529 -0.0866495 2.2862e-20)
(0.98973 0.521087 1.28309e-20)
(1.0091 0.539551 1.31805e-20)
(0.978083 0.54633 3.10914e-20)
(0.997809 0.0393146 6.21234e-21)
(0.996361 0.0389687 -1.69569e-21)
(0.996837 0.0405898 2.98759e-21)
(0.544951 -0.0531493 5.7752e-22)
(0.508102 -0.0476157 2.50223e-21)
(0.522273 -0.0487592 9.66329e-21)
(0.582369 0.0581155 -4.37473e-20)
(0.561309 0.0503713 -3.78878e-20)
(0.302785 -0.0297019 -5.59613e-22)
(0.27617 -0.0249317 3.25503e-21)
(0.923015 0.0170222 6.29369e-21)
(0.919422 0.0183642 1.53669e-20)
(0.92243 0.021079 5.2934e-21)
(0.545833 -0.0247705 0)
(0.509076 -0.021316 0)
(0.548388 -0.0243131 0)
(1.07048 0.0692744 -5.73994e-21)
(1.07331 0.072167 0)
(1.0737 0.0683993 -1.08099e-20)
(-0.0884068 0.0114542 0)
(-0.0457215 0.0111504 5.73944e-20)
(-0.0290661 0.00817192 -2.21055e-20)
(0.532475 0.286215 1.06538e-21)
(0.559159 0.308394 -6.33786e-21)
(0.953948 0.354297 2.972e-21)
(0.936358 0.352758 -1.43226e-21)
(0.947301 0.370614 1.74761e-21)
(0.973288 0.358818 -3.04173e-21)
(0.963022 0.340145 -1.12521e-21)
(0.969012 -0.0879766 0)
(0.947332 -0.0889923 0)
(0.999793 0.00281646 -8.19693e-21)
(0.999733 0.00312333 6.9627e-22)
(0.999762 0.00315898 -4.9674e-21)
(1.07009 0.158113 -5.32271e-21)
(1.0679 0.165898 1.00878e-20)
(-0.10437 -0.0197714 -3.50255e-20)
(-0.127757 -0.0164068 -1.09672e-19)
(0.984007 0.0271311 1.39413e-21)
(0.98315 0.0279505 -2.70091e-21)
(0.982751 0.0264324 -6.50399e-21)
(1.00522 0.0660535 -4.0884e-22)
(1.00578 0.0637396 5.83966e-22)
(1.00318 0.0644914 0)
(0.313615 -0.0252648 0)
(0.325036 -0.0258612 -3.63461e-21)
(0.873395 0.49506 -1.17909e-23)
(0.908021 0.502265 -4.33068e-24)
(1.01749 0.0446411 9.02986e-22)
(1.01759 0.0460964 7.02296e-22)
(1.01926 0.0453167 2.1826e-21)
(1.0466 -0.0927657 2.53365e-21)
(1.04524 -0.0910174 8.55571e-21)
(0.70704 0.577735 1.41141e-20)
(0.73275 0.547257 4.57903e-20)
(1.00861 0.00437543 3.0489e-23)
(1.00898 0.00456552 5.22285e-22)
(1.00891 0.00414581 -1.7089e-21)
(0.483146 -0.0227531 1.18692e-20)
(0.45586 -0.0175269 6.70484e-21)
(1.0396 -0.0848743 5.82117e-21)
(1.0381 -0.0844247 -7.36457e-21)
(1.03918 -0.0832436 -1.00555e-20)
(1.00208 0.00506275 -3.50304e-23)
(1.00229 0.0051778 8.69495e-22)
(1.00943 0.0114091 -1.55233e-22)
(1.00897 0.0111515 -7.12256e-22)
(1.00914 0.0116759 3.01077e-22)