/*--------------------------------*- C++ -*----------------------------------*\
| =========                 |                                                 |
| \\      /  F ield         | OpenFOAM: The Open Source CFD Toolbox           |
|  \\    /   O peration     | Version:  v2012                                 |
|   \\  /    A nd           | Website:  www.openfoam.com                      |
|    \\/     M anipulation  |                                                 |
\*---------------------------------------------------------------------------*/
FoamFile
{
    version     2.0;
    format      ascii;
    class       volVectorField;
    location    "700";
    object      ddt0(U);
}
// * * * * * * * * * * * * * * * * * * * * * * * * * * * * * * * * * * * * * //

dimensions      [0 1 -2 0 0 0 0];


internalField   nonuniform List<vector> 
13917
(
(0.00403585 -0.0027547 6.33615e-18)
(-0.000629049 -0.000650166 -1.99154e-19)
(0.046271 -0.00553085 5.03691e-18)
(-0.00162618 -0.00265528 -1.24688e-18)
(-0.000335554 0.000632927 -1.38638e-18)
(-0.000178891 0.0101542 -7.99848e-17)
(0.0413132 -0.0053761 -4.12878e-19)
(0.0450691 -0.00581384 2.31143e-19)
(0.0396678 -0.0141134 3.45001e-17)
(0.00745392 -0.00329894 1.88749e-17)
(-0.0065893 -0.0117794 1.15796e-17)
(-0.00643812 -0.00723527 2.95126e-18)
(-0.00120072 -0.00268845 7.65354e-18)
(0.0140462 -0.0020855 -1.03249e-17)
(0.00143128 0.00127521 -9.93528e-18)
(0.00125396 0.000558143 1.62934e-19)
(-0.000535366 -0.000379326 8.26268e-19)
(0.000150763 -0.00958112 4.73801e-18)
(-0.00651035 -0.0070089 6.75569e-19)
(-0.000795835 0.000125715 1.01346e-18)
(-3.62935e-05 6.4207e-05 4.70662e-18)
(0.0393734 -0.00548033 -6.53335e-18)
(-0.000503912 0.000290498 -2.59948e-18)
(0.044336 -0.00660556 -6.50105e-18)
(-0.000729389 0.000706531 -4.3847e-18)
(0.0366515 -0.00658826 2.10578e-17)
(0.000694414 0.00462854 -2.45174e-17)
(0.00227974 0.00544799 -1.62534e-18)
(0.00457839 0.0105492 -2.22492e-18)
(0.0088201 -0.00944401 -7.95197e-18)
(0.00438338 -0.00373084 -9.16085e-18)
(0.00156997 -0.00205962 -5.24974e-19)
(0.00125764 0.00390737 1.83256e-19)
(-1.94467e-05 0.00248572 1.58521e-17)
(-0.000342503 0.000864126 3.64483e-18)
(-0.00642909 -0.0131181 -3.73877e-18)
(-0.000519577 0.000281941 -1.1766e-18)
(0.0218557 -0.00353054 1.08578e-17)
(-0.00145569 -0.0033206 -5.76578e-18)
(0.0238999 -0.00288937 -5.48023e-18)
(-0.00172695 -7.66944e-06 4.78374e-19)
(0.000111974 2.30085e-05 7.92339e-19)
(-0.000659038 -0.000344049 -1.58615e-18)
(0.00285536 0.00694679 -3.56136e-18)
(-0.00096918 -0.00168659 5.01848e-19)
(0.000282952 0.00283306 5.79272e-18)
(-0.000680907 -0.00948413 -3.19412e-18)
(-0.00122647 -0.0111742 2.54498e-17)
(0.000383739 0.0146295 -5.63364e-17)
(-0.0014986 9.1612e-06 1.01888e-18)
(-0.00158833 -0.00509625 -1.97796e-18)
(-5.89496e-05 0.00146625 2.09427e-18)
(-0.00195759 0.0165756 -3.25522e-17)
(3.98226e-05 0.00257011 6.91278e-18)
(-0.00043102 -0.000346927 -2.35434e-18)
(2.70557e-05 -0.00452314 7.22434e-18)
(-0.00654058 -0.0117652 -1.8182e-17)
(-0.000366618 0.000590248 2.49983e-18)
(-0.00016166 -0.00348613 1.05581e-17)
(-0.00119019 -0.0016012 2.82475e-18)
(-0.029521 -0.00856223 3.74056e-17)
(-0.000688938 -0.000721338 1.12178e-19)
(0.00933843 -0.0014134 1.37592e-17)
(-0.000891394 0.000136257 9.45459e-19)
(0.000225659 0.00978741 6.34582e-17)
(-0.000257881 0.00387337 -1.17781e-17)
(2.88172e-05 0.000678727 7.55448e-18)
(-9.90567e-05 0.00100645 1.60185e-18)
(-0.00415995 -0.0139626 1.82545e-17)
(0.00398305 -0.000989261 -1.04315e-17)
(-0.000254413 0.000597692 4.28946e-18)
(0.0367941 -0.0145701 -1.79293e-17)
(0.00438046 -0.00539652 5.64798e-18)
(-0.00048921 0.000688203 4.18219e-18)
(0.0016357 0.0149914 1.99755e-17)
(-0.00703434 -0.00576238 3.5352e-18)
(0.00888112 -0.00298592 -9.38701e-19)
(-0.00110518 -0.00259305 5.00255e-18)
(0.0340861 -0.00679741 -1.65958e-17)
(-4.24789e-05 0.000125168 8.48312e-22)
(-8.89583e-05 0.000137485 -1.57895e-18)
(4.93678e-05 0.00063831 -3.38863e-18)
(0.00112316 0.0105255 7.81999e-18)
(0.0241313 -0.0037625 -3.63766e-18)
(-0.0218925 0.00433632 -6.2793e-17)
(-0.000769757 -0.00252899 3.72485e-18)
(-0.00032963 0.000149697 -1.13405e-18)
(0.0141555 0.00627626 2.08996e-17)
(-0.000182162 -0.00492568 1.80953e-18)
(-0.000545659 -0.000364 -6.35041e-19)
(0.0145863 -0.00553847 -2.14379e-17)
(0.00916356 -0.00586576 9.9638e-18)
(-0.00112164 -0.000785371 -6.39006e-19)
(0.000547755 0.00112361 3.54797e-18)
(0.00793379 0.00607399 2.13571e-17)
(0.000148163 0.0105318 6.10793e-17)
(-0.00425751 -0.0120373 -3.25596e-17)
(-0.00067932 -0.0107473 1.62858e-17)
(-0.0101633 -0.00812071 -8.31762e-18)
(0.00173478 0.00744693 -3.80019e-17)
(-0.00134281 -0.000133403 2.69698e-20)
(0.00017506 0.0036196 1.93444e-17)
(0.00269247 0.00685007 -1.21864e-17)
(-0.000922472 -0.00309991 3.76476e-18)
(-0.00133208 -0.000413482 -1.6425e-19)
(0.0328604 -0.0177221 9.97491e-18)
(0.00508898 0.0095846 -1.4882e-17)
(-0.00125482 -0.011331 1.44496e-17)
(-0.000429401 -0.000468832 -5.51645e-19)
(0.0049312 -0.0032072 -6.96793e-18)
(-0.0234412 -0.00375263 -2.02741e-17)
(0.0245187 -0.00307082 -1.32658e-18)
(-0.00685612 -0.00780543 2.82981e-17)
(0.0351848 -0.0167423 1.73424e-17)
(5.81564e-05 0.00178214 2.15015e-17)
(-0.000835501 0.0157377 1.09015e-17)
(-0.000775103 0.000423603 6.00687e-18)
(0.000965491 0.0128653 -1.16353e-18)
(0.0188085 -0.00336889 -7.08436e-18)
(0.000330548 0.00253939 -4.65388e-18)
(0.000112391 4.6024e-05 -5.84957e-18)
(-0.00255988 -0.0140075 -1.4526e-17)
(0.0179639 -0.00318437 -2.56861e-19)
(0.00192907 0.00526489 -2.9477e-17)
(-0.00158377 3.09833e-06 -9.9979e-19)
(0.000419588 0.00109533 -9.31184e-18)
(-0.00120467 -0.00144763 1.15339e-18)
(-0.00165325 3.44566e-06 3.32138e-19)
(-0.000797556 -0.000182608 -3.29343e-19)
(5.78643e-05 0.0101891 -9.25601e-18)
(0.0220594 -0.00426569 -3.09595e-17)
(5.43699e-05 0.0017558 9.31561e-18)
(-0.000961424 -0.00170712 -1.19879e-18)
(3.32411e-05 5.31139e-05 -5.4072e-18)
(0.00609698 -0.0228196 2.72293e-18)
(0.0444424 -0.0064422 7.46275e-19)
(0.0041192 -0.00251886 -4.53136e-18)
(0.00116109 0.00761194 9.67184e-17)
(2.74168e-05 0.000702537 -7.23304e-18)
(0.000256722 0.0025277 -3.47926e-19)
(-0.00600065 -0.0128506 1.16721e-18)
(-0.0011077 -0.000839716 6.07702e-19)
(6.85713e-05 0.00149735 1.70043e-17)
(0.0028963 0.00760655 1.25626e-17)
(-3.89266e-05 0.00101727 8.82479e-19)
(0.0176388 -0.0176304 -1.04634e-18)
(0.00452655 0.0101194 9.71257e-19)
(3.45955e-06 0.00144253 9.44915e-18)
(-0.000956523 -0.00074169 -3.30491e-19)
(0.00188816 -0.00164568 -1.07352e-18)
(-0.00427524 -0.00930298 1.16938e-17)
(-0.00107135 0.0150009 1.29285e-17)
(-0.00572019 -0.0100468 -6.05144e-19)
(0.00394554 0.00109706 2.95147e-18)
(0.000668898 -0.00345373 1.70405e-17)
(-0.0159439 -0.000541203 9.01676e-17)
(0.00362358 -0.000906783 1.00273e-17)
(-0.00581084 -0.0138206 -1.24443e-17)
(0.00750684 -0.00243399 -1.84344e-18)
(0.00679813 -0.0227485 1.32392e-17)
(0.000578024 0.0019236 -3.34269e-18)
(-0.000150221 0.00454566 -2.9548e-17)
(0.000131557 0.000101233 -4.30037e-19)
(-0.00417903 -0.0118115 3.29063e-17)
(-0.00685277 -0.00786183 -2.37422e-17)
(-0.0101526 -0.00815676 1.87956e-18)
(-0.000860184 -0.00304609 3.17142e-18)
(-0.00191902 -0.0100622 -1.03007e-17)
(-0.00111205 -0.00129011 1.0812e-18)
(-5.22649e-05 0.00374437 -1.08861e-18)
(0.00399878 0.000411648 -5.80758e-18)
(-0.0356098 0.002466 -9.38867e-18)
(-0.00776024 -0.0075326 -1.30603e-17)
(1.51111e-06 -0.000278085 -2.04471e-19)
(-0.000948771 -0.0161216 6.25436e-18)
(0.00420515 0.00178429 -1.19457e-18)
(0.0229682 -0.00452031 2.00295e-17)
(0.000430218 0.0133578 7.4823e-17)
(0.00883538 -0.0182287 7.01833e-18)
(-0.00106565 -0.000196503 -1.38061e-18)
(0.00930358 -0.00642949 -1.99991e-17)
(0.00457468 -0.00406061 8.73536e-18)
(-0.00112941 -0.000858817 3.28853e-18)
(-0.000301262 0.000167664 -2.3158e-19)
(0.00193648 0.00230643 4.21277e-18)
(0.0398708 -0.00660403 1.15695e-18)
(0.017657 -0.00886257 3.65037e-17)
(-0.0274469 -0.0026377 -7.69584e-17)
(0.00181636 -0.00664854 2.06896e-18)
(-0.0082088 -0.00946583 4.78673e-18)
(-0.00458273 -0.013017 -1.8299e-17)
(-0.0260366 0.00266463 -3.27509e-17)
(0.0163363 -0.00538827 3.30187e-17)
(-0.000602929 0.000381085 -3.27401e-18)
(0.000785474 0.00769247 -2.62291e-17)
(0.000771783 0.00447173 1.0583e-17)
(-0.00160363 -8.53338e-06 1.00052e-19)
(-0.00131834 -0.000801642 6.42036e-19)
(0.00529498 0.0082535 -6.95292e-18)
(0.0172845 0.0104216 -6.68592e-17)
(-0.00135419 -0.00451446 -8.73024e-19)
(-0.00150691 8.8594e-06 5.13092e-19)
(-0.00165542 -0.00937853 -1.05731e-17)
(-0.00444515 -0.00910007 -1.02586e-17)
(0.0023116 -0.00432327 -1.49445e-18)
(6.39309e-05 -0.02049 -2.11272e-18)
(-0.000376781 0.000862449 -4.75783e-18)
(-0.000379055 0.00060387 -2.09326e-18)
(-0.000834009 -0.0106048 6.75593e-19)
(0.0453106 -0.00598821 -1.41174e-17)
(4.22617e-05 0.00146439 -1.01886e-17)
(0.0411967 -0.00526277 -7.72227e-18)
(-0.000927284 -0.00269534 -2.47152e-18)
(-0.00820565 -0.00952202 -2.55816e-19)
(-0.00124243 -0.000387677 1.95443e-19)
(0.00413684 0.0115306 -6.41835e-17)
(-0.000945364 -0.00990619 -2.11923e-18)
(-0.0272354 -0.00130005 -1.29876e-18)
(-0.000789372 0.000335368 1.30417e-18)
(-0.0195251 -0.00989016 -1.79281e-17)
(-0.00104795 -0.000175049 1.21461e-18)
(0.00718093 -0.0104725 -2.69118e-18)
(-0.00173758 -9.44468e-06 9.1649e-20)
(0.0226785 -0.00412735 -4.02032e-18)
(0.0325463 -0.01795 9.80104e-18)
(0.00143799 0.00053697 -2.60114e-18)
(0.0137439 0.00881813 -4.37085e-17)
(0.000921903 -0.00362584 -7.13252e-18)
(-0.00132175 -0.000350705 -2.69101e-20)
(-0.00471577 -0.0128495 1.05108e-17)
(-0.00795017 -0.00723937 1.59709e-17)
(0.00166666 -0.00663808 4.4297e-18)
(0.0452953 -0.00676649 -6.23441e-19)
(-0.00233672 -0.00198432 -8.55349e-19)
(-0.00142193 -0.000106406 -2.69232e-21)
(0.00178142 -0.0021714 2.32524e-18)
(0.0172023 -0.00635469 1.28627e-17)
(-0.0142634 0.00334332 -9.46686e-18)
(-0.000163377 0.000117014 -5.25248e-18)
(-0.00114277 5.84841e-05 -2.33484e-19)
(0.024448 -0.00259178 1.9545e-18)
(-0.00495389 -0.0125659 -3.25718e-18)
(-0.000155268 2.465e-06 1.5086e-19)
(-0.00743115 -0.0124728 -1.17115e-18)
(0.00193135 -0.013098 2.21956e-17)
(-0.000437994 0.00451053 2.10504e-17)
(0.00369563 -0.00308901 -1.11837e-17)
(1.69168e-05 0.000106839 9.36753e-19)
(0.00382309 0.002686 7.25193e-19)
(0.00232431 -0.00238476 -2.46125e-17)
(-0.00067508 -0.00160182 -5.78502e-19)
(0.0108664 -0.00612175 -6.03456e-18)
(0.00211286 0.0081495 -1.70186e-16)
(-0.00097937 -0.00141608 -5.50185e-19)
(-0.000405653 0.00062637 8.58498e-18)
(-0.0044563 -0.00902668 3.63363e-18)
(0.025408 -0.00291224 7.46024e-18)
(-0.00480513 -0.00972225 5.35047e-18)
(0.00203109 0.00233217 -9.59745e-18)
(0.00145517 0.00119264 5.30951e-18)
(-0.000101883 4.45697e-06 -3.90706e-19)
(0.0171722 -0.00284371 -8.38267e-18)
(0.00961077 -0.0268986 4.48978e-18)
(-0.00787494 -0.0121533 1.02911e-17)
(-0.00150893 -0.000334204 7.28647e-20)
(-0.00642665 -0.00498862 -3.60085e-18)
(0.0150651 -0.00242705 5.99186e-18)
(-0.0129099 -0.0143316 6.91578e-18)
(0.0325497 -0.00662851 1.02342e-17)
(-0.00732522 -0.00581648 -4.35786e-18)
(3.10653e-05 0.00013284 -3.54005e-18)
(-0.00171621 -9.38559e-07 1.04283e-18)
(3.69377e-05 -0.00948971 1.20165e-17)
(0.0178266 -0.00383604 7.21459e-18)
(-0.00289846 -0.0138711 -2.26041e-17)
(-1.70788e-05 -0.00342514 -8.41903e-19)
(0.000541762 -0.0208609 9.83334e-18)
(-0.00329702 -0.00489892 -7.5386e-18)
(-0.000821645 -0.000129657 -2.8261e-19)
(0.0232132 -0.0264214 8.29007e-19)
(-0.000879482 0.000109305 -9.02258e-19)
(0.00654113 -0.0160239 -7.52863e-18)
(-0.00129811 -0.00436883 1.55675e-18)
(-0.000380264 2.4846e-06 9.48165e-19)
(0.00166894 0.000569829 1.03029e-18)
(0.00350967 0.00118288 -1.97339e-18)
(-0.000192422 0.00454086 -1.00995e-17)
(-0.00674805 -0.0126591 1.00997e-18)
(0.00243557 0.00113401 -4.91099e-18)
(-0.000785845 -0.00188819 2.61664e-18)
(0.00832414 -0.0206113 -8.4731e-17)
(0.0444377 -0.0069431 -7.64041e-18)
(0.0129534 -0.0266746 6.576e-19)
(-0.00079747 0.00034748 -4.26844e-18)
(-0.0141266 -0.0147737 -1.58611e-17)
(7.83592e-05 0.00038964 6.38306e-19)
(-0.000835278 -0.00188035 -1.1765e-18)
(-0.000767844 0.000408358 -6.01872e-18)
(0.00499395 0.0106876 -4.21943e-19)
(-0.00128689 1.56191e-05 3.99347e-19)
(0.00742048 -0.0108313 -3.23705e-17)
(0.00353961 -0.00289129 -1.44498e-18)
(-0.00101826 -0.00126444 -1.49448e-18)
(-0.00209334 -0.00945442 1.32132e-17)
(-0.000285055 -0.00144066 -1.36436e-19)
(-2.36061e-05 0.014289 1.15157e-16)
(0.00416 0.00170105 1.57727e-18)
(0.00867186 -0.00573421 -5.47219e-18)
(-0.000911239 -0.00113605 1.05755e-18)
(-0.00042178 0.000609501 -6.53533e-18)
(-0.0268041 -0.00162227 3.40355e-17)
(0.0169611 -0.0028682 1.04254e-17)
(-0.00075205 0.000414805 -6.40991e-18)
(-0.00172342 -4.8911e-06 -3.57463e-19)
(0.0259202 -0.0253133 7.07714e-19)
(-0.00104321 -0.000377396 -1.87477e-19)
(0.00691903 -0.00608383 7.0084e-18)
(-0.000941561 -0.00109627 -1.41297e-18)
(0.0242419 -0.00427332 1.9371e-17)
(-0.000994165 -0.0019574 -2.20785e-18)
(0.0138856 0.00333233 -1.50895e-19)
(-0.000436358 -0.00671749 -1.08698e-17)
(0.00224326 0.0143962 8.78494e-18)
(0.000593307 0.00184996 3.87874e-18)
(0.00666743 -0.0221964 1.99862e-18)
(0.00369868 0.0101622 1.93063e-17)
(0.00169873 0.000452478 -7.89103e-19)
(-0.00484442 -0.0126337 -1.74151e-17)
(0.00617811 0.00908417 -9.55401e-18)
(-6.92252e-05 0.000459353 -7.14587e-19)
(0.0213274 -0.00349689 -4.69885e-18)
(0.000418532 0.0074917 -8.5123e-17)
(0.0157415 -0.00255216 -1.31089e-17)
(0.000309099 0.00227228 1.70451e-17)
(0.021899 -0.00326082 1.69763e-17)
(0.00172952 -0.00252175 2.84334e-18)
(-0.0249168 0.00247491 6.29774e-17)
(0.00278649 0.00951454 -1.58897e-17)
(0.00483168 0.00620321 1.40552e-18)
(0.00465263 0.00587137 5.55228e-18)
(0.0442514 -0.00510098 9.23348e-18)
(-0.000219982 0.000182034 -1.18964e-18)
(0.00465185 0.000390265 -7.8544e-18)
(-0.0210435 -0.0046563 6.70517e-17)
(-0.00010074 0.000984589 2.09133e-18)
(0.000562336 0.000179108 -1.90593e-18)
(0.0156969 -0.00249333 -4.895e-18)
(0.00472068 0.0086525 8.40759e-18)
(-0.000223864 -0.00050213 -6.63803e-19)
(-0.00643962 -0.0130395 2.28469e-18)
(0.00486689 0.0107321 -1.06806e-17)
(-0.00140171 -6.76531e-05 -2.37483e-19)
(0.0178719 -0.00303932 1.06406e-17)
(-0.00407597 -0.0128081 9.80426e-18)
(-0.000950329 0.000117965 1.77247e-18)
(-0.00115763 -5.00568e-05 1.51988e-19)
(0.000251865 0.00036067 -2.50116e-18)
(-0.00107025 -0.000760176 3.94957e-19)
(0.00755029 -0.0202958 8.09232e-17)
(0.00530762 -0.0172416 1.22663e-17)
(-0.0023583 0.0109212 -2.33335e-17)
(-0.0246274 -0.00353639 2.53649e-17)
(-0.0005971 0.000581071 -2.99778e-18)
(0.0121615 -0.00635525 4.12836e-17)
(-0.00478083 0.00306003 1.57413e-17)
(-0.00170876 -0.00810424 8.81089e-19)
(0.0397728 -0.00536723 1.04872e-17)
(0.0200583 -0.00437438 8.0294e-18)
(0.0350333 -0.0170538 -2.39745e-17)
(-0.00153 -0.000207268 -2.27295e-19)
(-0.00752971 -0.0118952 -7.00762e-18)
(-0.00138138 -0.000114825 -1.52787e-18)
(-0.00280089 -0.00982085 6.87118e-17)
(-0.00112863 -0.00155091 1.77493e-18)
(0.00295122 0.0148995 2.59806e-17)
(0.00209597 -0.0132316 -3.39852e-17)
(-0.00161368 -0.00353959 4.19957e-18)
(-0.000356759 0.000230151 -2.10064e-18)
(-0.00098473 -0.0103211 2.16299e-18)
(0.00999971 -0.00662136 -1.13068e-18)
(-0.000494908 -0.0116571 -1.83226e-17)
(0.00824833 0.0204218 -2.61467e-17)
(-0.0242914 0.00340218 -2.45209e-17)
(-0.0294656 -0.000661849 1.20623e-17)
(0.00438561 0.00280087 1.16121e-18)
(0.00667698 -0.00324894 -2.13925e-17)
(-0.00115827 6.65116e-05 1.37488e-19)
(-0.0164358 0.00283804 -4.87605e-17)
(0.0369414 -0.00598583 -1.43998e-17)
(-0.000461477 0.000391829 -4.48392e-19)
(0.00765148 -0.0217774 9.35412e-18)
(-0.000402709 0.000696532 7.36818e-18)
(0.00125873 -0.0191624 3.76814e-17)
(-0.000908227 -0.00197064 6.28193e-18)
(-0.00022148 0.000155592 2.66574e-18)
(8.23496e-05 -0.00118223 1.57458e-18)
(0.031484 -0.00340808 -5.76658e-18)
(0.000194909 -0.00112381 -7.5571e-19)
(0.0262432 -0.00294994 4.6276e-18)
(-0.0160929 -0.000777281 -2.56337e-18)
(-0.0073941 -0.0109482 1.46518e-17)
(0.00291956 0.0106163 5.57463e-17)
(-0.00010181 0.000397688 3.13299e-19)
(0.00348119 0.0108476 4.301e-17)
(0.00292433 0.0105333 -6.33867e-17)
(-0.000815849 0.000283664 1.78684e-18)
(0.00473745 0.00898438 5.83638e-18)
(-0.000179651 0.000964075 -5.48136e-18)
(-0.000446631 0.000752852 2.06475e-19)
(0.00897396 -0.00898068 2.30538e-18)
(-0.000258941 6.82459e-06 1.0066e-18)
(-0.00033205 0.000761829 5.34004e-18)
(-0.00125255 -0.000124935 1.47865e-18)
(0.00660113 -0.0194831 -2.59543e-17)
(-2.81245e-05 9.98568e-05 3.91589e-19)
(0.0224892 -0.00355956 -1.6568e-17)
(0.0352249 -0.00517996 -3.98271e-18)
(-0.00139746 0.00113667 -2.91212e-17)
(0.0161428 -0.00481353 7.98415e-19)
(0.0264465 -0.00457074 -2.52849e-18)
(-0.020981 -0.0010883 -1.54486e-17)
(-0.0014814 -0.00797982 -3.31148e-18)
(-0.000618309 0.000561082 3.14522e-18)
(0.00437563 -0.0162893 -1.76686e-18)
(-0.0015318 -0.00329431 1.09913e-17)
(0.00194703 -0.00227416 -1.48785e-17)
(-0.000583085 0.000398828 2.93475e-18)
(0.0152815 -0.0171557 -1.76782e-17)
(0.041781 -0.00594204 -1.39773e-18)
(0.0367464 -0.00518547 -1.0174e-17)
(0.0011593 0.000862225 -1.74962e-18)
(0.00125414 -0.0139175 -1.64104e-18)
(0.000138184 0.00220275 -9.7251e-19)
(-0.00154038 -0.00344908 -5.50845e-18)
(-8.25991e-05 -0.0115288 2.02373e-17)
(0.000130916 -0.000566923 4.75605e-19)
(-0.00903767 -0.0120647 4.49596e-18)
(-0.000511358 -0.000528326 -1.88094e-19)
(-0.00120096 1.86491e-05 7.48866e-19)
(0.00986428 -0.0072356 4.27733e-18)
(0.0222705 -0.00455234 -1.57822e-17)
(0.0231087 -0.00473962 1.35299e-17)
(0.0107194 -0.00162726 3.6094e-17)
(-0.000442339 0.000855762 1.99316e-17)
(0.0233809 -0.00363162 -1.09839e-17)
(-0.00683564 -0.00846297 8.11332e-18)
(0.0125742 -0.0027691 3.26589e-18)
(-0.000939949 -0.000173665 3.22727e-20)
(-0.000148212 -0.0100838 -6.59929e-18)
(9.55818e-05 -0.000615444 -9.29677e-19)
(-0.00021318 0.000689636 -1.97923e-18)
(0.000755935 -0.0206501 1.5652e-17)
(-0.000742585 -0.00967347 -1.90147e-17)
(-0.000206006 -4.12288e-05 -3.92317e-20)
(0.00369118 -0.00948368 4.04198e-18)
(-0.000915229 -0.00785222 6.1229e-18)
(0.0131078 -0.00271669 -3.7309e-18)
(-0.000781838 0.000282005 -2.2982e-18)
(-0.00357392 -0.0128061 1.53894e-18)
(-0.0255252 -0.00846702 -7.48751e-17)
(0.0152469 0.00424822 1.21422e-17)
(0.0219374 -0.00390704 -2.96492e-19)
(-4.76421e-05 9.12185e-05 6.61928e-19)
(-0.000546278 0.000446186 5.33824e-18)
(-0.00159747 -1.58526e-05 -3.16506e-19)
(0.00350878 -0.000649236 1.75588e-18)
(-0.00117699 -0.000196729 6.80747e-20)
(0.0414844 -0.00702127 3.29114e-18)
(-0.00183315 0.0103909 7.55619e-18)
(0.00248651 0.000965573 -1.42342e-19)
(-0.019603 0.00328254 1.3172e-17)
(2.4054e-05 -0.00454312 -1.05865e-17)
(-0.00441876 -0.0118042 4.98505e-20)
(-0.00207071 -0.0101382 -9.60471e-18)
(0.00509462 0.0104469 -1.72544e-18)
(-0.00737924 -0.0109188 -1.20118e-17)
(-0.0049784 -0.0129136 -6.40595e-18)
(-0.0025348 -0.012796 5.45294e-18)
(0.00581822 -0.00837276 -2.08404e-18)
(0.00176539 -0.0161869 -3.48379e-17)
(-0.0026368 -0.00688705 1.1299e-17)
(-0.00867074 -0.0109137 -1.38656e-17)
(0.000246428 0.0104924 -2.10612e-17)
(-0.0037953 -0.00653061 -1.92368e-17)
(-0.00270953 -0.01177 3.35974e-18)
(-0.00131499 -4.41401e-05 -5.85517e-19)
(0.00399802 -0.0221686 -3.75219e-17)
(-0.000479913 -0.00521186 5.30683e-18)
(-0.000700792 -0.000898432 -5.66315e-18)
(0.00296005 -0.000614631 -3.49324e-18)
(-0.00147489 -0.00277961 -1.26001e-18)
(0.0133657 -0.00285026 -7.20173e-18)
(0.0347249 -0.0161838 -1.6259e-17)
(-0.00103009 -0.000332965 9.64523e-20)
(-0.000920542 -0.000106325 -1.49312e-18)
(0.0467084 -0.00649402 -1.2906e-17)
(-0.0219225 -0.000771783 2.7944e-17)
(-0.00033738 5.01697e-06 -3.5536e-19)
(0.0213595 -0.00348686 8.48287e-19)
(-0.00112976 -0.002836 2.16964e-18)
(0.0152141 -0.00593893 -5.87593e-17)
(-0.00111938 -0.000300734 -1.26726e-18)
(-0.00324125 -0.00393625 2.07463e-18)
(-0.00309704 -0.0163509 -7.01965e-18)
(0.00162993 -0.00181882 9.77181e-18)
(-0.000729896 -0.00153347 -2.24811e-18)
(0.0271507 -0.00493907 8.60082e-18)
(0.0159829 -0.00871666 1.5276e-18)
(-0.00959552 0.00344369 7.28082e-17)
(-9.42974e-05 6.20815e-06 2.07709e-19)
(0.000837889 -0.00288529 1.46357e-17)
(-0.00014063 0.0129839 -7.94242e-17)
(0.0264785 -0.021935 -4.50345e-17)
(-0.000856964 -0.000920158 2.88877e-18)
(-0.0170162 0.00494392 2.3318e-17)
(0.0206225 -0.022632 5.71639e-17)
(-0.00148931 -0.00789572 3.3139e-18)
(-0.0011444 -7.50245e-05 2.09925e-19)
(-8.77103e-05 -8.07665e-05 2.40955e-18)
(-0.00680001 -0.005231 -1.03961e-17)
(0.000663592 -0.0196291 -5.82767e-18)
(-3.6272e-05 -4.91564e-05 9.68792e-19)
(-0.0011734 -3.19904e-05 -3.06978e-19)
(-0.00139259 1.29722e-05 9.49253e-19)
(-0.00140935 9.88591e-06 -5.62641e-19)
(-0.00802526 -0.00407726 -2.83803e-17)
(0.00119724 -0.0206796 -4.09709e-18)
(-0.00171914 -0.00781923 -2.38599e-19)
(0.0175359 -0.0100524 2.35047e-17)
(-0.0015708 -1.27041e-07 -1.16019e-18)
(-0.00135855 -0.000115621 -1.33656e-19)
(0.00100051 -0.0136916 6.08965e-18)
(0.0294727 -0.0154925 -3.26216e-17)
(0.00155974 -0.0056164 -5.95712e-18)
(-0.00112716 -0.00134171 -2.99556e-18)
(-0.00049226 0.00073668 3.25847e-18)
(-6.65231e-05 0.000852598 2.72708e-18)
(0.0254245 -0.0248164 1.46919e-17)
(-0.0328924 0.00248335 1.16697e-16)
(-0.000425811 0.000125814 2.59766e-18)
(-0.000210756 0.000838695 -9.21001e-19)
(-0.00745097 -0.011573 -2.32227e-18)
(-0.00241005 -0.00690653 -1.20464e-17)
(-0.000639112 -0.00669503 4.11693e-18)
(-0.000396656 0.000497737 4.81974e-18)
(-3.79666e-05 -0.000966514 3.29409e-19)
(0.00137549 -0.00124861 3.03932e-18)
(-0.00267809 -0.0115589 -2.414e-17)
(0.00577738 0.0085959 4.56263e-18)
(0.0182051 -0.00942726 -1.6707e-17)
(0.00450009 -0.0166041 1.2641e-17)
(-0.00127937 -0.0131729 -2.92639e-18)
(-0.00023988 -0.0204245 -1.08796e-17)
(0.00823353 -0.0061345 -3.48215e-18)
(-0.000749995 0.000389695 2.78698e-18)
(0.00258516 -0.00302999 3.26371e-17)
(-1.30706e-05 0.000833725 -1.66492e-18)
(0.000826725 0.000183569 2.47252e-18)
(-0.0017905 -0.00369776 9.19916e-18)
(0.00344002 -0.0219595 -6.07236e-18)
(0.00506454 0.00416397 3.86901e-19)
(-0.00159089 -2.49849e-05 -6.28858e-20)
(0.0156568 0.00370433 1.63922e-17)
(0.00846297 -0.0105349 -2.60117e-17)
(-0.0121025 -0.00861655 2.4211e-17)
(-0.00109152 -0.0131984 5.76518e-19)
(0.00207346 0.00355555 2.27519e-17)
(-0.00104799 -0.00803237 -1.18067e-17)
(-0.000364536 0.000259305 -1.18422e-18)
(0.0166909 -0.0256992 -8.24076e-18)
(0.0146201 0.00312052 -9.44448e-18)
(0.036638 -0.00428879 1.08553e-17)
(-0.000395935 -0.000483788 -2.5199e-19)
(-0.000450474 -0.00525619 5.3554e-18)
(0.0164947 -0.0106573 -4.28685e-17)
(0.02093 -0.00471428 -2.2135e-19)
(-0.0110764 0.000251161 1.2979e-17)
(-0.00108831 -0.0110711 -1.44177e-17)
(0.0112376 -0.00171989 -5.29655e-18)
(0.0012168 0.000682348 2.4956e-18)
(-0.000168053 -0.00244252 -3.74571e-18)
(-0.000286728 0.000526619 -6.67849e-18)
(0.00361418 0.00470808 2.05705e-17)
(0.002328 0.00710356 -3.33848e-17)
(-0.000107976 0.0013358 -1.96325e-17)
(-0.0010003 -0.0097078 2.36581e-19)
(0.00185703 0.00805531 -6.22896e-17)
(0.0378259 -0.00434836 1.26625e-17)
(-0.0103509 0.00371207 -1.12537e-16)
(0.000494007 -0.00099923 -7.41569e-20)
(-0.00535762 -0.0115894 -1.29892e-19)
(-0.0044387 -0.0160961 -1.64412e-18)
(0.00186343 0.000492709 -3.44687e-18)
(0.000220426 0.00138445 -4.94208e-18)
(0.00437761 0.0144803 -1.06039e-16)
(0.0106911 -0.0233276 2.04446e-18)
(0.0296189 -0.0145411 8.12412e-18)
(0.0149793 -0.0116033 3.55225e-17)
(-0.000851965 -0.000199127 -2.89689e-19)
(0.0180435 -0.00325845 -3.91405e-18)
(-0.00664477 -0.00548657 -5.23166e-18)
(-0.00177019 -1.75617e-05 2.26177e-20)
(0.00161692 -0.00413363 1.56332e-17)
(-0.00431327 -0.010626 -1.59725e-17)
(0.00137518 0.00377031 -2.25044e-18)
(0.00846913 -0.00955803 2.47514e-17)
(0.0338662 -0.00698242 5.02137e-18)
(0.00148249 -0.0158379 3.1913e-17)
(-0.00309394 -0.00637527 1.31007e-17)
(0.0175872 -0.025823 -4.20304e-18)
(-0.00081985 -0.00284988 -6.55978e-18)
(0.0112499 -0.00242187 -1.07502e-17)
(-4.5327e-05 0.000109231 1.07951e-17)
(-0.000420856 0.00013819 -4.82568e-18)
(-0.0147339 -0.0149093 4.28704e-18)
(0.0150459 -0.0228002 1.02726e-18)
(0.00190487 0.0107357 -4.31129e-17)
(-0.000951542 -0.00290246 -4.94078e-18)
(-9.73142e-05 -0.000332208 -8.38859e-21)
(-0.000192917 0.000817453 1.38956e-18)
(-0.00331315 -0.00505302 2.5618e-18)
(0.00202674 0.0156271 7.03249e-17)
(-0.00929281 -0.00796821 -7.79914e-18)
(-3.08092e-05 -0.00256425 -3.38258e-18)
(-0.00706217 -0.0107424 -2.95088e-18)
(-0.00113616 -0.010156 -2.31858e-19)
(-0.000968402 -0.000297482 4.12936e-19)
(0.0126665 0.00876713 -1.94921e-17)
(-0.00930446 -0.00761439 3.81705e-18)
(-0.0199316 -0.0105591 4.59914e-18)
(-0.000888604 0.000252119 -2.5156e-19)
(0.00103034 -0.0156236 -6.76848e-18)
(-0.00135764 -0.00269075 -8.55573e-18)
(-0.0237933 -0.00444841 5.08398e-17)
(0.00760249 -0.00366445 1.33816e-17)
(0.00517683 0.00385026 -1.10487e-18)
(0.000464012 -0.00526006 -4.00461e-18)
(-0.00152742 -2.38464e-05 3.17836e-19)
(-0.000826033 -0.000872454 -2.34582e-19)
(-0.00118612 -0.00148775 5.84416e-19)
(0.00520145 0.00572742 -4.73437e-19)
(0.000379475 0.00288716 2.90652e-19)
(0.0108562 -0.0174672 2.00733e-18)
(0.00547224 0.0130593 -2.09395e-17)
(-0.0015818 -0.00996147 9.82449e-18)
(-0.00139533 -5.44705e-05 -1.9753e-19)
(0.00210288 -0.0157962 2.76753e-17)
(0.00235304 0.0112619 -6.62577e-17)
(-0.00559754 -0.0131575 -4.26287e-18)
(-0.000700948 -0.00156602 6.3881e-19)
(0.000478241 0.00267447 6.58017e-18)
(-0.0010873 -6.21627e-06 7.17415e-19)
(-0.00176451 -0.00465702 3.6595e-18)
(3.18763e-05 -0.00361157 -1.63642e-17)
(0.0218094 -0.0218982 -4.34431e-17)
(-0.000175411 0.00014345 1.37771e-18)
(0.0214106 0.012716 6.89104e-17)
(-0.00151382 -0.004777 2.77798e-18)
(-0.00674558 -0.0116361 -2.06662e-18)
(0.00961668 -0.00497707 2.14492e-17)
(0.00182778 -0.00535545 1.02813e-17)
(0.00564306 0.00350379 -4.06534e-18)
(-0.000250158 -7.15007e-05 -2.42787e-18)
(0.015575 -0.00375532 -7.0264e-18)
(-0.0142758 -0.0013259 2.54146e-17)
(-0.000514184 8.79635e-05 1.22102e-18)
(-0.00187925 -0.00361378 -5.36585e-18)
(-0.0015857 -0.0174423 -4.06583e-19)
(0.0143524 -0.0110065 -2.33146e-17)
(-0.00333115 -0.0136559 1.4806e-17)
(-0.000496654 7.20777e-06 -2.75787e-19)
(-0.00076228 -0.0016047 6.18218e-19)
(0.0130993 0.00303996 -1.80311e-18)
(-0.00153599 -0.00358374 -4.49649e-18)
(-0.000244595 -0.0114863 8.81307e-19)
(-0.00447565 -0.00886876 -1.10811e-17)
(-0.000606669 -0.000898837 2.48209e-19)
(-0.00353537 -0.00893112 7.83982e-18)
(0.0461376 -0.00567918 5.90996e-18)
(-0.000678509 -0.00149298 2.1008e-19)
(-0.00114877 -0.00245774 5.92266e-19)
(-0.00134282 2.07705e-05 -1.06235e-18)
(0.01679 -0.00288681 3.96796e-18)
(1.66612e-05 6.94525e-05 1.03335e-18)
(0.00105454 0.000843868 7.61901e-18)
(-0.0351635 0.00236491 -1.44255e-17)
(0.000549601 0.000498008 1.11033e-18)
(0.0083923 -0.0230471 1.79704e-17)
(0.000755655 -0.00335045 -8.95187e-18)
(0.00149611 0.00403551 4.24831e-17)
(-0.00132003 1.66742e-05 -1.41644e-18)
(0.00446248 0.00194365 4.3214e-18)
(-0.000722957 0.000419003 4.0707e-18)
(0.00519903 -0.00784653 1.67422e-17)
(-0.00157359 -1.22833e-05 2.9423e-19)
(0.00784366 0.00226923 -1.60309e-18)
(-0.00102238 -0.00281051 5.2522e-19)
(-0.0384322 -0.0141951 1.11805e-17)
(0.00543208 0.0142785 5.44732e-17)
(0.028575 -0.0157903 -5.81876e-18)
(-0.00163607 -1.44396e-05 -1.86093e-19)
(-0.000310055 0.000208296 3.64359e-19)
(0.00769842 -0.00604707 -2.7251e-17)
(0.00533821 -0.00431257 -3.23079e-18)
(0.0170335 -0.00278771 -1.95427e-18)
(0.0367671 -0.0153333 1.28255e-17)
(0.000420576 -0.00942833 -3.88349e-18)
(-0.000530637 0.000811196 -1.11706e-18)
(0.00628176 -0.0191794 2.24218e-17)
(0.00164947 0.0110925 1.35674e-16)
(-0.015638 -0.0102957 -6.13415e-18)
(0.00973389 -0.0168071 3.12375e-18)
(-8.51589e-06 -0.00935959 -1.85046e-17)
(0.0332148 -0.00633446 1.33615e-18)
(0.00418857 -0.0020414 -6.07475e-19)
(-0.00344609 -0.00486589 1.46362e-17)
(0.00521245 -0.0150822 1.50764e-17)
(0.00503206 0.00795989 3.17052e-19)
(0.00200916 -0.00918925 9.4063e-18)
(0.00300757 0.0118649 1.22568e-16)
(0.00247874 -0.00893846 8.76473e-19)
(-0.00153765 -0.00298043 -1.44432e-18)
(-0.00306047 -0.0108232 -2.83149e-18)
(0.00178065 0.000308487 -3.82686e-18)
(-0.000711087 -0.00115064 5.56739e-18)
(-0.000828513 -0.00463795 -1.76167e-18)
(0.00472452 -0.00348446 -6.62416e-18)
(0.00165765 -0.00152448 4.55193e-18)
(-0.000681044 0.000486927 8.62362e-20)
(-0.00154093 -2.38548e-06 7.78508e-19)
(-0.00151457 -0.0100791 3.51718e-19)
(-0.000818936 -0.00327738 -1.47547e-18)
(0.00127214 -0.0117118 2.1105e-18)
(-0.000383773 0.000791405 -2.20997e-18)
(-0.000461357 0.000707865 -1.64139e-18)
(2.73793e-05 5.79473e-05 9.74744e-19)
(0.000396523 -0.000778158 -1.42537e-19)
(-0.000447195 -0.000404995 -1.41402e-18)
(0.000953785 -0.00168452 1.74442e-18)
(-0.00136453 2.8501e-05 -1.5572e-18)
(-0.00415584 -0.00362806 -8.32463e-18)
(-0.00612809 -0.00664725 8.59072e-18)
(-0.00256592 0.010332 7.04606e-18)
(-0.00131947 -0.000161925 2.92038e-20)
(5.57496e-05 5.86578e-05 -6.52069e-19)
(0.0021308 0.00496956 -3.93436e-17)
(0.00490487 -0.0087251 -3.52999e-18)
(7.1606e-06 0.00170269 -7.3765e-18)
(0.01879 -0.0284709 -7.41906e-18)
(0.00854096 -0.00110261 9.29314e-18)
(0.0284323 -0.00595459 -6.27875e-17)
(-0.000886107 -0.00478308 -1.555e-18)
(0.00175122 -0.0146666 -2.05637e-17)
(-0.000723788 -0.00244502 -2.38497e-18)
(8.2769e-05 5.08041e-05 1.90812e-18)
(-0.00152263 5.42937e-06 1.01642e-18)
(-4.89264e-05 -0.00134927 -7.61024e-19)
(-0.0307482 0.00414526 -3.45764e-18)
(7.83875e-05 4.79891e-05 -4.79689e-19)
(-0.000981681 -0.0205825 1.31101e-18)
(0.00064877 -0.0017422 6.73632e-18)
(-0.00565705 0.00315999 3.48113e-17)
(0.00408218 0.00328381 -3.05891e-18)
(0.00915694 -0.00130789 -7.03345e-18)
(-0.00787 -0.0115485 2.99133e-18)
(-0.0010278 -0.000529545 -1.23452e-18)
(4.21112e-05 8.48351e-07 -3.60928e-18)
(-0.00667935 -0.00685249 -1.06806e-17)
(-0.000147137 0.000989995 -7.72974e-18)
(0.000142781 0.000805764 1.14676e-18)
(0.015337 -0.0268235 8.35198e-18)
(0.000181542 -0.000303685 3.82892e-20)
(-0.000221871 0.000359926 8.72501e-19)
(0.000617501 -0.00421583 9.85467e-19)
(-0.00122495 3.56716e-05 4.55869e-19)
(-0.00114529 -8.30313e-05 -2.95857e-19)
(0.00164433 -0.00188439 -1.90298e-18)