/*--------------------------------*- C++ -*----------------------------------*\
| =========                 |                                                 |
| \\      /  F ield         | OpenFOAM: The Open Source CFD Toolbox           |
|  \\    /   O peration     | Version:  v2012                                 |
|   \\  /    A nd           | Website:  www.openfoam.com                      |
|    \\/     M anipulation  |                                                 |
\*---------------------------------------------------------------------------*/
FoamFile
{
    version     2.0;
    format      ascii;
    class       volScalarField;
    location    "700";
    object      ddt0(omega);
}
// * * * * * * * * * * * * * * * * * * * * * * * * * * * * * * * * * * * * * //

dimensions      [0 0 -2 0 0 0 0];


internalField   nonuniform List<scalar> 
13917
(
0.000268949
-5.34496e-05
0.0509743
-0.000102595
-8.95002e-06
0.0186714
0.18321
0.00220974
-0.0717476
0.000923733
0.00126305
-0.00011925
-9.51189e-05
0.332922
-3.03797e-05
-3.9017e-05
-5.66495e-05
0.000703068
-0.00018005
-1.89263e-05
-8.34371e-07
0.194034
-1.37905e-05
-0.0520795
-2.50076e-05
0.208207
-0.00239403
0.000604497
0.0336434
0.00291686
0.000395386
-1.07381e-05
-0.000143182
7.58072e-05
-1.52591e-05
0.0364315
-1.38249e-05
0.20664
-0.000155005
0.0458242
-3.88629e-05
2.51372e-06
-8.97106e-06
0.000736037
-4.6782e-05
6.96281e-05
0.000645079
0.00110874
0.064524
-3.42751e-05
-0.000112364
-1.06777e-05
0.0677647
-0.00017731
-5.51224e-05
-6.18106e-05
0.0014012
-2.99631e-05
-7.02235e-05
-4.99258e-05
0.459432
-5.48461e-05
0.245765
-2.11702e-05
-0.0372893
1.22078
1.88105e-07
-2.46367e-06
0.00339273
0.000116128
-7.02724e-06
-0.15998
0.288504
-1.93495e-05
0.0210822
-0.000284335
0.208025
-6.60586e-05
0.177186
-1.10236e-06
-2.35307e-06
6.93316e-07
0.0103042
0.227824
-0.29351
-5.91171e-05
-8.00245e-06
1.41288
-7.93802e-05
-6.43418e-06
0.283263
0.00305722
-4.23937e-05
-3.40062e-05
1.03291
-0.00775374
0.00185589
0.000987781
-9.41985e-05
-0.000684439
-3.19992e-05
-0.000178334
0.00103806
-6.94445e-05
-3.53827e-05
-0.217138
0.0130992
0.00124446
-5.50235e-05
0.000319803
0.299701
0.0824092
0.000246518
-0.181753
-7.7437e-06
0.0305098
-2.42273e-05
0.00230832
0.0557865
-4.87975e-05
2.51418e-06
0.00359618
0.0721301
0.000667267
-3.61195e-05
-3.53914e-05
-5.36246e-05
-3.75145e-05
-1.35134e-05
0.00287792
0.144879
-5.66908e-06
-4.90608e-05
7.36862e-07
0.020865
-0.065777
0.000300413
9.87118e-05
-2.67456e-08
6.25941e-05
0.0101055
-3.12047e-05
-1.77638e-05
-0.00107973
-1.51434e-06
-0.719187
0.0292613
-9.01877e-06
-2.54547e-05
7.13144e-06
0.000257285
0.0328457
0.000691539
0.000113472
-3.80484e-05
-0.554408
0.000155142
0.0357173
0.198354
0.0227246
-1.84758e-05
-0.00197487
2.77604e-06
0.00168327
0.000182093
-0.00010711
-6.79309e-05
0.000634491
-4.24642e-05
-0.000203879
0.000309028
0.369926
0.00016941
-5.3638e-05
-1.29234
0.000306363
0.15573
0.00989668
-0.810161
-4.35289e-05
0.000591267
0.00045481
-3.09364e-05
-7.40798e-06
-1.93956e-05
0.181704
0.0146546
-0.930168
0.000185341
0.00052217
0.000901591
-0.405712
0.0114966
-1.59438e-05
-5.03066e-05
-0.00118582
-3.37452e-05
-4.75338e-05
-0.0129772
0.584752
-0.000129751
-3.43991e-05
0.000466396
0.00024606
0.251488
0.0146247
-1.52929e-05
-3.16809e-05
0.000901022
0.0995093
-1.67783e-05
0.180347
0.201288
0.000520167
-3.37063e-05
0.0169341
0.000566613
0.3017
-2.82465e-05
0.706695
-4.1608e-05
0.00273128
-3.93194e-05
0.238586
-0.196109
-2.7236e-05
0.119449
-2.62307e-05
-3.50433e-05
0.0319403
4.86989e-05
0.000169151
-0.057405
0.18684
-3.21398e-05
3.76758e-06
0.314519
-0.131422
-3.83656e-06
-2.93905e-05
0.0608266
0.00232827
-3.47299e-06
0.00425364
0.00269766
0.000124948
0.000285751
1.75767e-07
0.000169507
0.211678
-2.1961e-05
0.00346488
0.00296265
-4.7029e-05
-2.95128e-05
0.000376326
0.0294829
0.000621945
3.55598e-05
-1.15346e-05
-2.28416e-06
0.122807
-0.186401
0.0317675
-3.9289e-05
0.313909
0.152656
-0.0476827
0.172258
-0.000245042
3.69926e-07
-3.9287e-05
0.000636529
0.22069
0.00295544
-6.96037e-05
0.00641664
-0.000451318
-1.34732e-05
0.367387
-2.08976e-05
-0.674116
-0.000119436
-8.49804e-06
7.26573e-06
0.000102134
-0.00397841
0.00448336
-4.10677e-05
-3.15996e-05
0.0126941
-0.0824635
-0.213486
-2.79031e-05
-0.0545648
1.23233e-06
-3.1262e-05
-2.34814e-05
0.0248507
-2.91106e-05
0.00316345
0.000247194
-3.86646e-05
0.000385773
-6.92391e-05
-0.0281072
0.000182775
0.0018229
-2.9199e-05
-2.8815e-05
0.279452
0.0973454
-2.42468e-05
-3.933e-05
0.557771
-4.14488e-05
0.310366
-2.92181e-05
0.256556
-4.53511e-05
-0.00848355
-3.69016e-05
0.00571427
-1.92593e-05
0.0252999
0.00203061
3.60106e-07
0.0023648
-0.152223
-3.93387e-05
0.164498
0.00309093
0.165491
-4.30258e-05
0.0443967
1.57234e-05
-0.0273908
-0.00108574
0.000235345
0.00181239
0.0933179
-5.17575e-06
0.000291824
0.300936
-2.55485e-05
-5.44219e-05
0.12375
0.0227892
-5.91051e-05
-0.0167753
0.0276577
-3.32135e-05
0.0380872
0.0082157
-2.26227e-05
-3.23873e-05
5.21528e-06
-2.75422e-05
0.0107645
-1.26905
-0.0630898
0.282298
-2.11708e-05
0.00268741
0.11196
8.68548e-05
0.205846
0.246348
-0.148079
-3.52414e-05
0.0246617
-3.68719e-05
1.76977
-4.93801e-05
0.00532911
0.00259392
-0.000123661
-8.44003e-06
0.000762305
0.00321431
0.00135322
-0.120778
0.0372533
0.529325
0.000309397
0.000466769
-2.95344e-05
-0.231401
0.218252
-3.67445e-05
0.0243444
-1.48911e-05
0.00876951
-4.44131e-05
-5.11312e-06
-6.28164e-05
0.10578
-6.01669e-05
0.0456172
-0.99175
0.000902509
0.00694181
-4.00822e-05
0.0171373
0.00604542
-2.22531e-05
-0.100859
-2.65486e-05
-1.70545e-05
0.00297609
-5.79781e-06
-1.6125e-05
-3.39141e-05
0.0105962
-7.17193e-07
0.0520711
0.126456
-0.0203712
0.0110657
0.0676821
0.277292
5.6368e-05
-2.12029e-05
0.00602308
-0.00014906
2.91897e-05
-1.5842e-05
-0.783549
0.166273
0.1092
-3.84385e-05
0.0030262
-5.12036e-05
-0.000163926
0.00137367
-5.87345e-05
0.0214516
-5.59171e-05
-2.72327e-05
0.350821
0.142079
0.150842
0.00277156
-0.0232697
0.191776
0.384464
0.193294
-1.76547e-05
0.000797626
-5.87586e-05
-2.85691e-05
0.0120174
0.00064287
-8.24387e-06
0.00130361
6.67028e-05
0.170885
-2.18448e-05
0.00218373
-1.27318
-0.0102351
0.0423635
-1.11752e-06
-3.8638e-05
-3.28694e-05
0.000180337
-2.75013e-05
0.14144
-0.0434644
1.97437e-05
-0.484791
-5.59895e-05
0.0015863
0.384619
0.0278583
0.000938657
0.0102947
0.00225336
0.00121011
0.00518881
-0.000171736
0.000381153
0.0207418
-0.000259052
0.00140927
-3.00675e-05
-0.00423022
-7.73666e-05
-1.18229e-05
6.3966e-05
-7.69067e-05
0.196048
-0.166698
-4.02278e-05
-1.61798e-05
0.0629859
0.410681
-7.54216e-06
0.0605512
-6.36115e-05
0.00758384
-4.39229e-05
0.249153
0.0157733
-2.58322e-07
-5.76136e-05
0.089946
0.0121145
0.167724
-2.11895e-06
0.215361
-0.00921371
0.634185
-1.57781e-05
-0.146422
-0.0102523
6.18778e-05
-3.20971e-05
-4.5335e-05
-0.000368737
0.00771399
-2.63641e-06
-3.21563e-05
-3.23826e-05
-3.28014e-05
0.293619
0.00584864
3.76019e-05
0.0134419
-3.53707e-05
-3.22364e-05
0.00297146
0.136156
0.000107013
-4.32142e-05
-1.86127e-05
-2.50181e-06
0.705751
-0.374642
-1.01348e-05
-6.74255e-06
0.0308569
-0.000146084
-4.11063e-05
-3.35588e-05
-6.79542e-05
-2.41256e-05
0.00133003
-0.297812
0.0145834
0.00594851
0.00203107
-0.0164973
0.00144459
-2.6356e-05
0.222803
-9.15027e-07
-4.78312e-05
-0.000111391
-0.0110079
0.00128516
-3.61538e-05
0.040066
0.00416464
-2.28174
0.00210531
0.000365102
0.000119729
-8.63774e-06
-0.150894
0.012236
0.2388
-5.02241e-05
-3.53346e-05
0.0132393
0.258582
0.639281
0.00119955
0.00364286
-3.48798e-05
-7.40595e-05
-3.14899e-05
-0.000757536
0.000625258
-1.61343e-06
0.000547176
0.000338713
0.223643
0.150903
-6.07199e-05
0.00142701
0.00931631
-5.17194e-05
-1.57476e-05
-0.0292925
-0.553109
-0.434598
0.0109633
-1.51739e-05
0.0935937
-0.000298421
-3.96961e-05
6.37444e-05
0.000735314
-0.000174463
0.00227909
0.184982
0.00490492
-0.000236192
-0.139288
-7.18199e-05
0.190407
-1.16838e-06
-1.00621e-05
-0.110782
-0.587811
0.0115183
-7.62968e-05
-5.31364e-05
-6.53652e-06
-0.000454688
0.0840045
-3.07538e-05
-7.31106e-05
0.000921211
0.000704539
-4.15135e-05
0.041207
8.10675e-05
-0.0459497
-3.14086e-05
0.00466327
-7.76021e-05
-1.03534
0.00117302
0.000131945
-5.61553e-06
-3.5394e-05
-1.69886e-05
-5.46906e-05
0.00484861
0.000127821
0.011716
0.00846536
0.000653739
-3.30844e-05
0.0050693
0.00848694
0.0472053
-2.125e-05
-2.16785e-05
-3.01999e-05
-0.000203296
-6.6267e-05
0.00781654
-4.10647e-06
0.117019
-0.000179009
0.00110358
0.0016337
0.293795
0.000566879
-4.47567e-05
0.211375
0.971442
-4.00283e-05
-0.000114414
0.0148309
0.0101313
0.00292943
-1.11188e-05
-5.85591e-05
0.0170751
-0.00012414
0.00142173
0.000286661
-1.24892e-05
0.000238947
0.034032
-2.03296e-05
-6.90093e-05
-3.12236e-05
0.0683937
3.5699e-07
-4.23662e-05
0.321441
-4.72461e-05
-0.59859
-3.39823e-05
-4.14787e-05
-3.0813e-05
0.000482854
-2.20175e-05
0.0012147
-3.62189e-05
0.00150415
-6.12882e-05
0.304816
0.0250384
0.143537
-3.29901e-05
-7.29673e-06
0.00158469
0.000703553
0.120257
0.0423688
0.000718114
-1.89889e-05
0.0102075
-0.00100905
0.00813997
0.00997976
0.000507874
0.153789
0.000214191
-0.000459467
0.00546011
-0.00505736
0.000741418
0.0152206
0.000736657
-9.06916e-05
0.000929291
-7.16594e-06
-1.4676e-05
-0.00017929
0.000530926
-1.02745e-05
-2.10771e-05
-3.51585e-05
0.000662786
-6.80916e-05
0.00152579
-1.51219e-05
-1.48165e-05
6.16932e-07
-5.64915e-05
-1.39023e-06
-5.00979e-05
-3.16625e-05
0.250912
-0.000212481
-0.0230653
-3.09322e-05
1.14453e-06
0.000180997
0.00121905
-2.83892e-06
-0.144202
0.00125331
0.650768
-0.000174541
0.00357594
-4.59821e-05
1.92059e-06
-3.52341e-05
-6.38423e-05
0.383249
1.67334e-06
0.0103655
-5.81709e-05
0.0871918
0.000753664
0.00142804
0.000761223
-2.20272e-05
9.41476e-07
-0.0002004
-6.25312e-06
-3.44035e-05
-0.0804768
-5.24181e-05
-5.34843e-06
-2.7916e-05
-3.05271e-05
-2.27863e-05
-7.25724e-06
-0.000500765
0.178316
0.000241623
-2.00617e-05
-3.87436e-05
0.288072
0.00376042
-3.9792e-05
-5.27112e-05
-0.197078
0.0132405
0.439668
6.11058e-05
-9.48174e-05
-3.21296e-05
-1.95566e-05
-0.000234505
0.000262702
-0.00174172
-9.64271e-06
0.148019
-6.08823e-05
-3.24784e-05
0.472939
-1.42078e-05
-6.75945e-05
-3.71486e-05
-2.83088e-05
0.000367315
-0.002471
-6.24668e-05
-0.631984
0.0365145
0.00171641
-2.65416e-05
-5.86115e-06
0.000284855
0.0015152
-7.35469e-06
-0.00511429
-7.72037e-06
0.000356519
-7.20397e-06
-2.00669e-05
0.00437147
-3.27382e-05
-0.0436194
0.000363874
1.76847e-06
-1.3211e-05
-6.21669e-06
-3.92404e-05
-6.99133e-05
-0.00710841
-2.14506e-05
-2.47964e-05
0.0657498
-0.398008
-0.000221311
0.000549246
0.00123291
-8.17816e-05
-3.09517e-05
0.000285094
0.239275
0.00130703
-1.14724e-05
-6.22032e-05
-0.00479973
0.0001166
0.258035
-1.43993e-06
1.7913e-06
0.0809741
3.23727e-05
-6.07866e-05
0.296651
-0.0150796
-3.61811e-05
0.004583
-3.52877e-05
-2.92864e-05
-3.23184e-05
0.329896
3.09187e-07
-1.99444e-05
-3.19955e-05
-0.0088773
-0.000137483
0.00787009
-0.00479834
-1.78201e-05
0.000205081
-1.03378e-05
0.272322
-2.85788e-05
-2.07211e-05
-5.71104e-06
0.000393163
-4.69804e-06
0.00487305
0.0313005
-0.0708582
-3.33002e-05
0.0109452
0.270653
-2.9954e-05
0.0476604
0.135565
0.255388
0.0771185
0.105342
0.595224
0.00484853
-5.28875e-05
0.184232
3.93748e-05
0.229985
-1.64903e-05
-4.36174e-05
-4.67295e-05
-1.27054e-05
-7.50836e-05
-0.000345132
0.121275
-4.11535e-05
-7.14703e-06
0.123972
-0.0445456
-2.72219e-06
-0.00383739
6.06295e-06
-4.93335e-05
0.0200382
-0.00162611
-2.50448e-05
-0.000132017
0.0463776
0.417377
-0.000896783
-9.51624e-06
0.012059
0.00422045
0.112515
-0.117505
-0.000132345
-4.61404e-05
-5.09436e-05
-5.71498e-05
5.65011e-06
-5.87424e-05
-1.5752e-05
-2.41517e-05
0.000163986
-0.489361
0.0026917
-2.08268e-05
0.00323345
0.400442
0.000322922
-2.04144e-05
0.204978
-4.15379e-05
-3.30829e-05
0.000118803
-0.613069
2.23576e-06
-3.13723e-05
0.185359
-0.0111079
-0.000296737
0.00249166
0.0297826
-3.16267e-05
0.00596863
-2.00689e-05
-2.80929e-05
-1.34009e-05
0.170849
0.305358
-2.31657e-05
-1.15764e-05
-3.8852e-05
0.0144926
-6.08132e-05
-2.7736e-05
-6.20624e-06
-5.70459e-05
0.00584803
-1.69013e-05
0.00122511
0.0257179
0.150965
-5.19085e-05
0.00143527
-6.47713e-05
0.278973
0.389339
-1.8757e-05
0.29903
0.00140039
-0.00344303
-2.91564e-06
0.105139
-7.03561e-06
-5.89326e-05
0.000269929
0.00257709
0.0932512
-0.0177163
-0.00224592
-0.524728
-3.60388e-05
0.00605075
-1.9535e-05
-2.09288e-05
0.194532
-2.94136e-05
-6.70894e-06
-6.51637e-05
-4.8071e-05
-0.391583
-1.87622e-05
-1.61669e-05
0.000224208
0.000552879
0.000396642
-0.00528653
-0.000408534
0.324713
-0.000426173
0.000102766
-0.000444716
0.201918
-0.000194965
1.78824
0.212505
-0.000107284
-1.56908e-05
0.0619935
-0.00652217
-1.30591e-05
0.00352558
0.000118521
-4.08276e-05
-6.95291e-05
-4.65175e-05
0.000233195
2.18181e-06
0.000489366
-0.00226726
-3.51016e-05
0.00117297
-2.99366e-05
0.0008533
-3.5401e-05
-0.000249888
0.000805871
-7.47942e-05
-3.46093e-05
-2.33244e-05
0.0267901
0.00174223
-0.417962
-1.62532e-05
-5.51588e-05
0.000667736
-3.665e-05
0.00293031
0.00194935
-3.97815e-05
0.00265285
-2.3761e-05
1.28698
-1.20293e-05
-0.000226847
0.147272
0.00538836
-3.57288e-05
-5.35308e-05
0.00168188
-2.52915e-05
-3.18052e-05
0.0672673
0.361871
2.49385e-05
-0.00222703
-2.07286e-05
-3.64187e-05
0.156158
-6.89823e-05
-2.35966e-05
0.00280605
-2.60314e-05
0.0207705
-4.13027e-06
-2.51876e-05
-4.13086e-05
-0.000271758
0.0622566
-2.76039e-05
-3.99432e-05
-3.15398e-05
-2.77813e-05
-2.96054e-05
0.00780116
0.00111392
-2.28961e-06
-0.916956
0.000548171
0.00680958
0.200853
-0.0185768
-2.1006e-05
-1.80086e-05
-3.86912e-05
0.0351932
-4.40193e-05
0.0636084
0.305104
-1.96489e-05
0.219992
0.0350046
0.00048003
-0.000481713
-4.26058e-05
0.00305119
0.0630679
0.00239813
0.0814713
0.243719
9.93086e-05
-4.15333e-05
0.201596
5.10932e-05
-1.46623e-05
-6.67646e-05
0.700228
0.000111219
-4.06971e-05
0.000374437
0.00328834
0.000229558
0.19005
-5.82715e-05
-0.591561
-0.000388292
-0.0929594
0.00432003
0.0118811
-2.25709e-05
-2.53263e-05
-5.82925e-05
0.0163829
-2.54871e-05
-2.44685e-05
-3.02409e-05
-6.69539e-05
-4.33763e-05
0.000127625
0.000622473
-0.00420237
0.00593808
-0.00350663
0.0931845
-0.0588281
-4.17873e-05
0.0143995
0.145626
-3.27382e-05
-3.24643e-05
9.61493e-06
0.326159
6.56659e-06
0.00150608
0.191193
0.000269049
-1.62656e-05
-7.62431e-05
-2.38395e-05
0.00355507
1.33988e-06
-3.13905e-05
0.675957
0.161045
0.000167013
-0.0167526
5.65585e-05
0.262822
-4.72994e-05
-7.59831e-05
0.00192555
0.00512047
-8.58623e-05
0.0261065
-5.47329e-06
2.10372e-06
-3.02703e-05
-5.75261e-05
-1.6499e-05
-1.6538e-05
0.000302517
-3.36927e-05
0.00170427
-3.03672e-05
-1.67172e-05
-1.55987e-05
0.00160304
0.000826073
0.0427426
-2.869e-05
0.0121293
-2.99151e-05
-0.0922794
-1.46441e-05
0.000340187
-1.32741e-05
0.00154458
0.267878
-6.45292e-05
-3.54786e-05
0.00271853
-4.27458e-05
2.71562e-05
0.332659
-3.72474e-05
-1.4343e-05
0.000535432
5.98783e-05
0.21155
-3.34823e-05
-3.81984e-05
-8.1535e-05
-2.04033e-05
0.000843442
-4.91195e-05
-2.85942e-05
-2.7104e-05
0.216815
-6.47284e-05
-0.00799925
-0.560381
0.000798057
0.0780465
-6.8141e-05
-2.81832e-05
-0.000157439
0.370849
-8.66034e-05
0.000108934
-2.30665e-05
0.119467
-3.95542e-05
-0.224138
0.00125695
0.00159967
-2.7422e-05
-1.47943e-05
-0.00210746
-2.05714e-05
1.06846e-06
0.000452624
-1.26682e-05
-1.98932e-05
-3.70783e-06
0.000426261
-0.00497405
0.185123
-0.00014427
0.000763804
-0.176512
0.0519129
-0.000195725
0.00119085
0.272511
0.000229019
8.92859
-2.24392e-05
0.559063
-0.0752265
-9.25494e-06
-5.82276e-06
-2.96185e-05
-4.97792e-05
0.00054137
-1.45346e-05
2.55981e-05
-0.000163638
-7.16221e-05
0.00012491
0.261341
-1.14405e-05
-7.7903e-05
-0.082382
-6.123e-05
0.0678874
-0.000121322
-0.00286584
-3.59916e-05
0.295331
0.283905
-4.353e-05
-5.47378e-05
0.111057
-5.06943e-05
0.195508
-3.06919e-05
-2.69077e-05
0.22213
-5.59896e-05
-0.00134958
-0.94145
-7.33754e-06
0.000913606
1.76362e-05
-1.29704e-05
-3.93831e-05
0.153875
0.278198
-6.01775e-05
-6.37035e-05
-2.85264e-05
-3.78375e-05
0.00221662
0.204783
-3.12584e-05
-0.000356789
-0.0394114
-0.0130814
0.0117823
-5.33073e-05
-0.000306187
0.00253288
3.89352e-05
-1.44596e-05
0.000212174
0.255856
-2.48895e-05
0.000257825
-0.0552742
0.00823957
0.00693248
-1.69597e-05
-3.68426e-05
4.3458e-06
-4.45422e-06
0.386456
0.00050482
-8.19401e-05
-5.94119e-05
-6.9559e-05
5.39497e-06
-3.60806e-05
-9.02206e-06
0.000706383
-0.00037033
-0.718321
0.00280668
-0.61734
0.054961
8.20428e-05
0.000513721
-3.20517e-05
-3.80367e-06
0.24452
-5.10713e-05
-6.61938e-05
0.000389659
0.00279306
0.00725019
0.10665
-0.0190249
-4.04599e-05
0.190569
-8.8356e-06
-4.9209e-05
0.000529716
8.58578e-07
-2.26955e-05
0.00385137
-0.143756
-2.79797e-05
0.0821144
-5.61268e-05
-2.10702e-05
-6.36872e-05
-0.00741626
1.54981e-05
-0.00012017
0.427278
-6.36774e-05
-0.00193897
0.097269
-7.52603e-06
0.00194208
-3.0587e-05
0.0813237
0.00159281
-6.03841e-06
0.170619
0.000648922
0.000826467
5.00864e-06
0.33446
5.29479e-05
-0.0358282
-6.75039e-05
0.000414318
0.314776
-2.49213e-05
0.0218622
-2.56366e-05
0.00121828
0.000491173
-7.49811e-06
-0.0238117
-4.78907e-05
0.00267821
0.00106878
0.000331729
7.07011e-05
0.00175315
-3.09367e-05
-0.0498167
4.10114e-05
0.0528388
-1.95811e-05
0.000305096
-4.98242e-05
0.000468068
-1.59516e-05
-0.000404243
0.0211755
-5.66884e-05
-3.81286e-05
0.0170825
-6.93194e-05
-0.0726582
-7.23999e-05
0.0978074
-0.0508815
0.000225679
-2.74096e-05
-3.27646e-05
-6.81588e-06
-1.51655e-05
0.00308878
-0.000693981
0.00129691
-5.67947e-05
-2.25497e-05
0.0108014
-7.28029e-05
0.000185272
-0.74265
-1.60587e-05
-0.744063
0.000424611
-0.000242626
0.00212285
0.24167
0.0148037
0.0069855
0.0141559
-4.09556e-05
0.0382253
0.182529
-0.0335022
-1.09289e-05
-9.87581e-06
0.00143401
0.172951
0.0506644
0.0557273
-4.47193e-05
-0.00195915
0.00021583
0.0913744
-0.0903673
1.10756e-05
0.00250263
-5.54775e-05
0.00159021
-0.000216867
-1.24894e-05
0.00390689
-0.189005
-5.53539e-06
0.0218427
-2.88263e-06
-2.89801e-05
0.171292
0.283632
-3.20428e-05
-4.38125e-05
-6.20681e-05
-2.76648e-05
0.000276445
0.00396027
-7.18967e-05
-2.863e-05
-1.85645e-05
-0.000218167
-1.84069e-05
-2.26926e-05
0.0115351
-1.47534e-05
0.331137
0.262017
0.277533
0.00251193
0.000824502
-0.00884937
5.15363e-05
0.164515
0.0333014
0.336029
-5.75458e-05
0.112457
0.0601037
-3.05708e-05
-2.06511e-05
0.00163925
0.136008
0.0393958
-1.55677e-05
-4.19661e-05
0.138581
0.285577
0.225253
-6.60495e-05
1.40852e-05
-0.0123218
-3.3832e-05
0.204323
-0.71182
0.0378974
0.0864405
-1.62983e-05
-3.53963e-05
-3.46928e-05
-2.29551e-05
0.126422
-4.85646e-05
-0.000111223
-6.13723e-06
0.00179632
0.330055
-0.000224863
-0.36074
0.0885424
0.0325667
0.000234675
-1.45989e-05
-1.19692e-05
0.0576388
-1.85988e-05
-1.41114e-05
-5.20101e-05
-0.0360648
0.000152531
-0.799031
0.00454006
-2.04943e-05
0.0990404
0.000348663
-4.14871e-05
0.168158
0.00458616
0.000116675
-3.17878e-05
-0.217826
0.319206
-3.39735e-06
0.0284971
-0.125077
-0.326414
0.116594
0.00172802
-3.93506e-05
-6.89428e-05
0.126752
-6.63527e-05
-0.0236619
0.000387137
0.131007
0.00285755
-1.15614e-05
-3.61676e-05
-4.3692e-05
-2.74241e-05
-0.0665479
0.0868161
-5.59362e-06
0.0652776
3.94086e-05
-4.13146e-05
-2.40605e-05
-3.29712e-05
0.00475291
-6.29107e-05
0.0444227
0.000471959
-4.06013e-05
-3.81744e-05
0.000891934
0.231423
0.000252381
-5.8176e-05
0.000543712
-1.5184e-05
-7.05219e-05
-9.83651e-05
0.424635
0.0495232
0.237735
-2.33937e-05
-3.55953e-05
-4.8678e-05
-0.000185334
-3.28111e-05
-4.87773e-05
0.00383104
0.000593741
0.0100315
-8.41701e-06
0.377861
0.0522377
-4.61155e-06
0.423275
0.00237253
-0.000170553
0.00714429
-5.34162e-05
-0.324282
-5.52636e-05
-3.3397e-05
-2.1339e-05
-1.73768e-05
0.00435462
-3.32097e-05
-6.36821e-05
-0.000131523
0.0491811
0.0779063
-3.51552e-06
-3.64029e-05
-7.16691e-05
-5.00642e-05
0.00452295
-1.78613e-05
0.00208054
-7.53392e-05
0.244237
-5.30485e-05
0.236571
-2.39047e-05
0.107001
-6.69307e-05
-1.50452e-05
-0.325127
0.00203224
-0.00227648
0.0467911
0.000138025
0.000223933
-9.05257e-06
0.303776
-4.89184e-06
-3.06313e-05
0.00664842
-0.000255152
-0.677141
0.101917
0.00369985
-0.282737
0.00464816
0.0221812
-9.56569e-06
-7.13099e-05
-9.33569e-05
0.36822
-0.000119778
0.390357
0.0668992
-3.81743e-05
-5.55598e-06
-3.80185e-05
0.0821208
0.0124848
-6.99909e-05
-1.37093e-05
-4.14291e-05
-7.67938e-06
0.000177049
0.0147981
0.0387824
-2.4512e-05
-0.0331861
0.00216757
0.170486
0.00165172
-6.49037e-05
-6.97173e-05
0.134171
-3.64063e-05
0.00284417
0.068452
-4.33635e-05
-5.25216e-05
0.00394845
-0.00613946
-2.89841e-05
0.107038
-6.41098e-05
0.00567071
-0.000386186
0.000146668
-5.59398e-05
0.309357
-3.19543e-05
0.000167925
0.0142512
-0.0560963
0.000678135
0.00118375
-0.000114916
0.000482622
2.05608e-06
-0.123942
-9.83867e-05
-3.74825e-05
-3.55287e-05
-2.08745e-05
-2.65824e-06
0.0360644
-1.45934e-05
-2.02759e-05
-3.74691e-05
0.00217554
-8.33227e-06
0.000120568
0.000768402
0.00668061
0.00380373
5.34329e-06
0.0457005
0.0115504
0.00917247
0.00253971
0.000529792
0.00442104
-0.115422
0.0568274
-2.72381e-06
-0.0332817
0.130777
-2.32627e-06
-6.54751e-05
-1.72185e-05
0.00216294
0.00241169
-2.83958e-05
6.0401e-05
0.383436
-3.64449e-05
-7.27149e-06
0.108374
0.0802724
-0.000220114
-1.8686e-05
0.850753
0.0636311
-0.00154272
-2.13255e-05
0.368382
-0.000174017
0.00073704
0.161053
-7.01628e-05
-1.80537e-05
1.33522e-05
0.00813123
-3.3067e-06
0.154275
0.370031
-3.90677e-05
-0.329048
-0.0110234
0.138116
-2.09224e-05
-0.00721725
-2.57864e-06
-4.01729e-05
0.288286
0.0169144
0.00504126
0.029216
-0.000128522
0.000697926
-3.199e-05
0.201544
0.10269
-5.9871e-06
-6.07822e-05
-0.000161853
-1.95682e-05
0.00048125
0.198959
-0.117651
0.000753607
-6.82504e-05
-3.65897e-05
0.309062
-2.24666e-05
0.00063617
-3.59398e-05
-5.16979e-05
0.0556115
0.0188437
-0.00416705
0.0108396
-1.3149e-05
0.00760189
-3.34242e-05
0.000276517
0.700441
0.250662
-1.43715e-05
4.25429e-06
-0.000231332
-1.49893e-05
-1.19081e-05
0.257013
0.38332
-2.98638e-05
4.54034e-06
-3.26492e-06
-2.78359e-05
0.0180708
-1.89602e-05
0.129748
0.00324209
-0.000336105
-3.96999e-05
0.000353369
0.345578
6.83339e-05
0.114149
-0.505464
-3.51543e-05
0.183665
0.000161624
4.17554e-05
0.316345
0.355349
0.14908
-0.000166054
-3.8537e-05
-0.018541
-1.93141e-05
6.68767e-05
-1.89256e-05
0.115631
1.69781e-05
0.00335344
0.0318719
0.000593435
-6.95031e-06
0.0118393
-8.96381e-05
-8.80964e-07
0.00753204
-1.30186e-05
-0.000435637
0.000110607
-1.70632e-05
0.76385
-5.26084e-05
0.0110098
-3.3173e-05
-3.15811e-05
-0.395143
0.186092
-1.69469e-05
0.000345313
-0.000172579
0.000612209
0.000159677
-0.00012813
-2.42103e-05
-7.18703e-05
-0.0126357
9.83338e-06
0.111416
0.000722617
0.00647376
-3.75387e-05
-5.67624e-05
0.227117
-1.5414e-05
0.105581
-2.58427e-06
0.287183
0.0595781
0.205499
-0.0064602
0.0095516
0.00468158
-3.60187e-05
0.235585
0.00168615
-8.37246e-06
0.336438
-0.569418
-2.59441e-05
-8.10077e-05
5.09995e-05
4.80192e-05
-2.93563e-05
0.229799
-3.51896e-06
-0.000236742
-0.00015473
-0.00013668
-1.42297e-05
0.000613502
-1.09709e-05
0.11463
-2.74617e-05
0.00481938
7.30353e-05
0.000251848
0.0024828
0.0172778
0.0023172
-3.89275e-05
-0.00024803
0.236001
0.828469
-4.51061e-05
0.0548313
-2.28823e-05
-0.0290213
-4.67504e-06
-3.06184e-05
0.243217
-0.000279806
0.140526
0.366338
0.000190018
0.211592
-4.71165e-05
-7.78814e-06
0.403988
0.00197062
-4.02192e-05
0.00779452
-3.722e-05
0.000679365
-1.26262e-05
0.00146463
-5.89729e-05
-0.568109
-0.247702
0.121209
0.00513337
-6.52503e-05
0.000761185
0.169966
-4.58506e-05
-3.19025e-05
0.00171094
-2.14759e-05
-0.00133155
-0.585779
0.114009
0.116783
0.000242634
-4.89248e-05
0.354244
-1.0486e-05
0.000747069
-3.15925e-06
0.261427
-6.53466e-05
0.000567697
0.12474
0.00417823
-2.66598e-05
0.000145763
-0.908597
-4.90613e-06
0.0029269
-3.56682e-05
0.669016
0.379442
0.00219075
-0.00165562
-3.09951e-05
0.00987315
0.00113114
0.000271863
-3.42943e-05
-4.80468e-05
-2.51248e-05
0.000212538
-6.99856e-06
0.000674372
-1.23598e-06
-2.91532e-05
0.146308
-4.03762e-05
-4.28294e-05
-0.00010836
4.29903e-06
0.163957
-4.28215e-05
5.13855e-05
0.297694
-0.000335154
0.0963376
-1.37637e-05
0.276704
-0.000311391
0.104883
-6.1627e-05
0.00169478
-3.46185e-05
0.000241986
0.00130509
0.000726544
0.0093421
0.367459
0.00931531
0.134696
-5.45698e-05
0.00142064
0.000248973
0.0125881
-1.95032e-05
-3.18984e-05
-1.63007e-05
0.000200615
0.00025948
0.0115963
0.000634323
-0.0101635
-0.0977518
0.0142677
-3.94499e-05
0.0198451
0.00257555
-1.66916e-05
-1.72979e-05
-2.37098e-05
-0.611818
-1.41959e-05
0.129925
-4.14258e-05
-9.48732e-05
0.300059
0.000683254
-1.98177e-05
-1.65628e-05
0.212797
-4.38079e-05
-4.17408e-05
-6.76786e-05
2.40011e-05
-2.44533e-05
-4.8065e-05
-0.000194969
-0.00474448
-0.000353508
0.0118759
0.0313555
0.149985
0.317537
-2.57801e-05
-2.78117e-05
-0.000462355
-4.75088e-05
0.00258223
0.0747314
0.165382
-1.70066e-05
-8.56589e-06
0.0951027
-0.00713194
-2.11067e-05
-3.82692e-05
-2.92316e-05
-0.411592
0.181673
-4.43172e-05
0.000160486
-7.85401e-06
0.0145758
0.0011403
0.00247537
-4.49155e-05
5.12597e-05
-6.5007e-06
0.000284826
0.0110524
-1.96307e-05
-4.97435e-05
-3.89344e-05
0.0975184
-3.8842e-05
0.360525
-1.17386e-05
0.22992
0.000147922
0.000731161
-3.12978e-05
-3.15288e-05
0.11509
-0.0772853
-0.00131116
0.0446295
-0.511471
-3.35348e-05
0.300098
2.6965e-05
-3.21486e-05
-0.118072
-0.00200501
0.00226283
1.64894e-06
0.10026
0.0899285
-2.97485e-05
0.000163949
0.0457809
0.000354844
-3.82571e-05
-3.24188e-05
-6.28944e-05
-8.18109e-05
0.00220017
0.00794214
-0.000140702
0.00186167
-2.39309e-05
-3.65702e-05
-0.086784
-4.15932e-05
0.000296926
-0.000254543
-3.17119e-05
0.000706694
-2.09781e-05
-4.41674e-05
0.00944051
-2.70264e-05
0.312141
-1.83068e-05
1.11145
0.185657
0.00269436
-4.15357e-05
2.76375e-06
0.389653
-1.68324e-05
-6.07961e-05
-1.16313e-05
0.0245063
0.0416098
0.000116749
0.188309
0.000686413
0.00683552
-3.59665e-06
0.000778626
-2.24386e-05
-1.30711e-05
0.0987819
0.19486
-0.00825929
-6.69711e-05
0.00105814
0.000964404
-0.24301
0.32202
0.00768571
0.000362781
-9.04249e-06
0.3518
-3.74167e-05
-4.10463e-05
0.00701325
0.00120701
-4.5166e-05
0.00404136
0.0002674
5.86408e-05
-2.68055e-05
0.160429
-6.81249e-05
-2.79212e-05
0.265242
-0.0020784
-2.44336e-05
0.0628845
-2.57191e-05
-1.52604e-05
0.00469238
0.00431615
-1.112
-2.93704e-05
-1.84897e-05
-3.4573e-05
0.0120205
-4.33203e-05
0.059809
0.0352151
0.151502
0.056441
0.842907
0.000360849
0.322031
-0.00732634
-7.73093e-06
5.64953e-05
8.10048e-05
-0.000100191
-0.00861594
0.25393
0.0757238
0.142543
0.0512185
-3.26725e-05
0.00200727
-2.75832e-05
0.0503819
-2.89062e-05
-7.41453e-05
-6.25612e-05
-6.83229e-05
-4.11148e-05
0.00234599
0.130693
-2.44791e-05
-7.59861e-05
-3.56815e-05
0.253518
-6.49905e-05
0.139594
0.0943844
0.110055
-9.6005e-06
-4.23368e-05
0.181104
0.00404988
-1.05676e-05
-0.0256231
-1.1977e-06
0.00512254
0.00256294
0.00284484
0.000308523
0.318757
-3.61196e-05
-2.2416e-05
-0.0178424
0.0658359
1.94321e-05
0.000162806
-3.78685e-05
0.100422
-2.12928e-05
-3.82687e-05
-6.73412e-05
-2.82128e-05
-0.43132
0.225908
0.0176664
-0.000410135
0.394953
0.0274658
-1.9117e-05
-5.85642e-05
-2.5396e-05
0.000456638
-3.04949e-05
-3.15447e-05
-2.38721e-05
-3.2672e-05
-2.40675e-05
0.123802
-6.47327e-05
0.0155129
-2.01308e-06
-0.000276431
-3.73311e-05
-0.00512879
-2.01123e-05
1.96332e-06
-0.000159053
0.00117437
0.0235314
-3.24194e-05
0.0835117
0.00137554
9.0295e-05
-1.44702e-05
-3.13283e-05
0.077593
0.704237
-3.27257e-05
-3.93761e-05
0.00451791
-0.00188794
0.0033162
0.261226
-4.18207e-05
0.00530611
-6.70815e-05
-2.22262e-05
-1.15427
-7.64177e-05
0.193287
-1.35979e-05
-6.96289e-05
-1.55322e-05
0.211291
0.140952
-1.93899e-05
-0.000854103
-0.00135153
-2.63771e-05
-3.7178e-05
-3.93861e-05
0.00310091
0.301366
0.00118433
-0.000116986
0.00036088
-2.16779e-05
-2.5241e-05
-6.40669e-05
-2.5894e-05
0.00419638
-2.05369e-05
0.000106288
0.0363297
0.000215127
-1.64946e-05
0.0662729
0.00115225
-2.07872e-05
0.00280675
-3.2968e-05
0.0180499
-1.23694e-05
0.202722
0.00104826
-4.16763e-05
0.00228719
0.00267386
-7.27295e-05
0.0857607
2.66238e-05
-0.000259397
0.0195899
-4.21221e-05
0.00487152
0.000997459
0.00408136
-3.17523e-05
-3.49184e-05
-1.53692e-05
-0.00504285
8.34232e-05
0.000137735
-0.208287
0.089559
0.10617
1.17254e-06
-0.0168455
0.196444
0.310524
-2.36526e-05
-4.20741e-05
0.000499307
0.212445
-4.73208e-05
-3.78733e-05
0.64119
0.202271
1.04
-0.0070656
0.00509396
0.0885079
0.0320878
-8.22806e-06
1.00906
0.00600431
-6.36792e-05
-4.43303e-05
-5.78681e-05
0.0807375
0.00281728
-0.277111
-6.4395e-05
0.0215995
-6.20588e-05
-0.0197317
0.0633307
-3.48789e-05
-1.87014e-05
0.350214
-0.132938
0.000976903
-7.05283e-05
-3.96646e-05
-1.05521e-05
0.0355504
0.000714336
0.0576134
0.313696
-3.06508e-05
0.106916
0.0062721
-1.34218
-2.7549e-05
-1.5113e-05
-0.61963
0.00915887
-3.5778e-05
0.000773543
-0.00399501
-1.1777e-05
0.107216
0.107245
0.286184
0.333247
-2.67265e-05
-1.60769e-05
-0.00461067
0.0369523
0.740747
-3.348e-05
-0.00340361
0.000273181
-0.0289721
-5.14035e-05
1.39791e-08
0.0111907
0.0188242
0.0110815
0.0163065
0.0367206
-2.7925e-05
0.0112624
0.336035
-2.00732e-05
0.00545993
0.00313143
-2.30369e-05
0.00379562
0.0959423
0.0192509
3.48735e-07
0.0277345
0.00301719
0.573859
2.38767e-06
-8.19549e-05
-4.869e-05
-8.10373e-05
-4.94107e-05
0.000676067
6.35899e-05
0.000482132
0.0204674
6.73084e-06
0.239496
-1.11727e-05
-0.000250782
-8.60872e-06
0.423273
0.0080307
0.211404
6.70263e-06
-9.4902e-07
0.678291
0.00842029
-1.29874e-05
0.000667273
0.0196704
-0.161364
0.0127002
-4.17256e-05
-4.0648e-05
-4.66438e-05
-0.0026941
-5.24045e-05
0.00144876
0.0137287
0.00189817
0.00011327
0.0101264
0.254173
-4.89157e-05
-0.0997887
4.04486e-05
0.000702802
-4.65232e-05
-3.03536e-05
0.000895165
0.403886
-2.44797e-05
0.148266
0.0971362
0.0168884
0.00819659
-4.25743e-05
-2.38813e-05
-2.63117e-05
-6.67488e-05
0.609113
0.236574
-0.0017834
0.0807444
-4.47156e-05
-6.17126e-05
-6.28585e-05
1.53577e-07
0.0676746
-6.86342e-05
0.245181
0.00207376
-4.02304e-05
-0.0184522
0.0113332
0.0977582
0.422428
-6.9698e-05
-1.83486e-05
-1.05238e-05
-9.75422e-05
-0.00805042
-0.00165962
0.037397
-9.4439e-06
-4.63198e-05
0.00170189
-7.46715e-06
0.00472748
-2.59332e-05
0.00317795
0.00507727
0.000202089
0.000313666
-3.03369e-05
0.000607743