/*--------------------------------*- C++ -*----------------------------------*\
| =========                 |                                                 |
| \\      /  F ield         | OpenFOAM: The Open Source CFD Toolbox           |
|  \\    /   O peration     | Version:  v2012                                 |
|   \\  /    A nd           | Website:  www.openfoam.com                      |
|    \\/     M anipulation  |                                                 |
\*---------------------------------------------------------------------------*/
FoamFile
{
    version     2.0;
    format      ascii;
    class       pointVectorField;
    location    "400";
    object      pointDisplacement;
}
// * * * * * * * * * * * * * * * * * * * * * * * * * * * * * * * * * * * * * //

dimensions      [0 1 0 0 0 0 0];


internalField   nonuniform List<vector> 
14332
(
(0 0 0)
(-0.0316776 0.208814 0)
(0 0 0)
(-0.0316776 0.208814 0)
(0 0 0)
(0 0 0)
(0 0 0)
(0 0 0)
(0 0 0)
(0 0 0)
(0 0 0)
(0 0 0)
(0 0 0)
(0 0 0)
(0 0 0)
(0 0 0)
(0 0 0)
(0 0 0)
(0 0 0)
(0 0 0)
(0 0 0)
(0 0 0)
(0 0 0)
(0 0 0)
(0 0 0)
(0 0 0)
(0 0 0)
(0 0 0)
(0 0 0)
(0 0 0)
(0 0 0)
(0 0 0)
(0 0 0)
(0 0 0)
(0 0 0)
(0 0 0)
(0 0 0)
(0 0 0)
(0 0 0)
(0 0 0)
(0 0 0)
(0 0 0)
(0 0 0)
(0 0 0)
(0 0 0)
(0 0 0)
(0 0 0)
(0 0 0)
(0 0 0)
(0 0 0)
(0 0 0)
(0 0 0)
(0 0 0)
(0 0 0)
(0 0 0)
(0 0 0)
(0 0 0)
(0 0 0)
(0 0 0)
(0 0 0)
(0 0 0)
(0 0 0)
(0 0 0)
(0 0 0)
(0 0 0)
(0 0 0)
(0 0 0)
(0 0 0)
(0 0 0)
(0 0 0)
(0 0 0)
(0 0 0)
(0 0 0)
(0 0 0)
(0 0 0)
(0 0 0)
(0 0 0)
(0 0 0)
(0 0 0)
(0 0 0)
(0 0 0)
(0 0 0)
(0 0 0)
(0 0 0)
(0 0 0)
(0 0 0)
(0 0 0)
(0 0 0)
(0 0 0)
(0 0 0)
(0 0 0)
(0 0 0)
(0 0 0)
(0 0 0)
(0 0 0)
(0 0 0)
(0 0 0)
(0 0 0)
(0 0 0)
(0 0 0)
(0 0 0)
(0 0 0)
(0 0 0)
(0 0 0)
(0 0 0)
(0 0 0)
(0 0 0)
(0 0 0)
(0 0 0)
(0 0 0)
(0 0 0)
(0 0 0)
(0 0 0)
(0 0 0)
(0 0 0)
(0 0 0)
(0 0 0)
(0 0 0)
(0 0 0)
(0 0 0)
(0 0 0)
(0 0 0)
(0 0 0)
(0 0 0)
(0 0 0)
(0 0 0)
(0 0 0)
(0 0 0)
(0 0 0)
(0 0 0)
(0 0 0)
(0 0 0)
(0 0 0)
(0 0 0)
(0.01546 0.210049 0)
(0.0128412 0.20998 0)
(0.0102225 0.209912 0)
(0.0076037 0.209843 0)
(0.00498495 0.209775 0)
(0.0023662 0.209706 0)
(-0.000252552 0.209637 0)
(-0.0028713 0.209569 0)
(-0.00549005 0.2095 0)
(-0.00810881 0.209431 0)
(-0.0107276 0.209363 0)
(-0.0133463 0.209294 0)
(-0.0159651 0.209226 0)
(-0.0185838 0.209157 0)
(-0.0212026 0.209088 0)
(-0.0238213 0.20902 0)
(-0.0264401 0.208951 0)
(-0.0290588 0.208882 0)
(-0.0316089 0.206195 0)
(-0.0315403 0.203576 0)
(-0.0314717 0.200958 0)
(-0.0314031 0.198339 0)
(-0.0313344 0.19572 0)
(-0.0312658 0.193101 0)
(-0.0311972 0.190483 0)
(-0.0311286 0.187864 0)
(-0.0310599 0.185245 0)
(-0.0309913 0.182626 0)
(-0.0309227 0.180008 0)
(-0.0308541 0.177389 0)
(-0.0307854 0.17477 0)
(-0.0307168 0.172151 0)
(-0.0306482 0.169533 0)
(-0.0305796 0.166914 0)
(-0.0305109 0.164295 0)
(-0.0304423 0.161676 0)
(-0.0303737 0.159058 0)
(-0.0303051 0.156439 0)
(-0.0302364 0.15382 0)
(-0.0301678 0.151201 0)
(-0.0300992 0.148583 0)
(-0.0300306 0.145964 0)
(-0.0299619 0.143345 0)
(-0.0298933 0.140726 0)
(-0.0298247 0.138108 0)
(0 0 0)
(0 0 0)
(0 0 0)
(0 0 0)
(0 0 0)
(0 0 0)
(0 0 0)
(0 0 0)
(0 0 0)
(0 0 0)
(0 0 0)
(0 0 0)
(0 0 0)
(0 0 0)
(0 0 0)
(0 0 0)
(0 0 0)
(0 0 0)
(0 0 0)
(0 0 0)
(0 0 0)
(0 0 0)
(0 0 0)
(0 0 0)
(0 0 0)
(0 0 0)
(0 0 0)
(0 0 0)
(0 0 0)
(0 0 0)
(0 0 0)
(0 0 0)
(0 0 0)
(0 0 0)
(0 0 0)
(0 0 0)
(0 0 0)
(0 0 0)
(0 0 0)
(0 0 0)
(0 0 0)
(0 0 0)
(0 0 0)
(0 0 0)
(0 0 0)
(0 0 0)
(0 0 0)
(0 0 0)
(0 0 0)
(0 0 0)
(0 0 0)
(0 0 0)
(0 0 0)
(0 0 0)
(0 0 0)
(0 0 0)
(0 0 0)
(0 0 0)
(0 0 0)
(0 0 0)
(0 0 0)
(0 0 0)
(0 0 0)
(0 0 0)
(0 0 0)
(0 0 0)
(0 0 0)
(0 0 0)
(0 0 0)
(0 0 0)
(0 0 0)
(0 0 0)
(0 0 0)
(0 0 0)
(0 0 0)
(0 0 0)
(0 0 0)
(0 0 0)
(0 0 0)
(0 0 0)
(0 0 0)
(0 0 0)
(0 0 0)
(0 0 0)
(0 0 0)
(0 0 0)
(0 0 0)
(0 0 0)
(0 0 0)
(0 0 0)
(0 0 0)
(0 0 0)
(0 0 0)
(0 0 0)
(0 0 0)
(0 0 0)
(0 0 0)
(0 0 0)
(0 0 0)
(0 0 0)
(0 0 0)
(0 0 0)
(0 0 0)
(0 0 0)
(0 0 0)
(0 0 0)
(0 0 0)
(0 0 0)
(0 0 0)
(0 0 0)
(0 0 0)
(0 0 0)
(0 0 0)
(0 0 0)
(0 0 0)
(0 0 0)
(0 0 0)
(0 0 0)
(0 0 0)
(0 0 0)
(0 0 0)
(0 0 0)
(0 0 0)
(0 0 0)
(0 0 0)
(0 0 0)
(0 0 0)
(0 0 0)
(0 0 0)
(0 0 0)
(0.01546 0.210049 0)
(0.0128412 0.20998 0)
(0.0102225 0.209912 0)
(0.0076037 0.209843 0)
(0.00498495 0.209775 0)
(0.0023662 0.209706 0)
(-0.000252552 0.209637 0)
(-0.0028713 0.209569 0)
(-0.00549005 0.2095 0)
(-0.00810881 0.209431 0)
(-0.0107276 0.209363 0)
(-0.0133463 0.209294 0)
(-0.0159651 0.209226 0)
(-0.0185838 0.209157 0)
(-0.0212026 0.209088 0)
(-0.0238213 0.20902 0)
(-0.0264401 0.208951 0)
(-0.0290588 0.208882 0)
(-0.0316089 0.206195 0)
(-0.0315403 0.203576 0)
(-0.0314717 0.200958 0)
(-0.0314031 0.198339 0)
(-0.0313344 0.19572 0)
(-0.0312658 0.193101 0)
(-0.0311972 0.190483 0)
(-0.0311286 0.187864 0)
(-0.0310599 0.185245 0)
(-0.0309913 0.182626 0)
(-0.0309227 0.180008 0)
(-0.0308541 0.177389 0)
(-0.0307854 0.17477 0)
(-0.0307168 0.172151 0)
(-0.0306482 0.169533 0)
(-0.0305796 0.166914 0)
(-0.0305109 0.164295 0)
(-0.0304423 0.161676 0)
(-0.0303737 0.159058 0)
(-0.0303051 0.156439 0)
(-0.0302364 0.15382 0)
(-0.0301678 0.151201 0)
(-0.0300992 0.148583 0)
(-0.0300306 0.145964 0)
(-0.0299619 0.143345 0)
(-0.0298933 0.140726 0)
(-0.0298247 0.138108 0)
(-0.00683061 0.20946 0)
(-0.000339489 0.00525901 0)
(-0.0310967 0.186699 0)
(-0.0298644 0.139645 0)
(-0.0304871 0.163407 0)
(-0.000470933 0.00583798 0)
(0.0138031 0.209991 0)
(-0.000222868 0.00433485 0)
(-0.000102165 0.00273004 0)
(-2.49016e-05 0.00119289 0)
(-0.000838503 0.00816807 0)
(-6.35188e-05 0.00194517 0)
(-0.000137095 0.0031697 0)
(-0.0248867 0.208976 0)
(-0.000914875 0.00696115 0)
(-2.97649e-05 0.00131864 0)
(-0.00114273 0.00637143 0)
(-3.89939e-05 0.00130884 0)
(-0.00138576 0.00486512 0)
(-0.0314928 0.202288 0)
(-2.76242e-05 0.00115682 0)
(-3.43337e-05 0.00122053 0)
(-1.92212e-05 0.000776305 0)
(-2.04886e-05 0.000755684 0)
(-1.57057e-05 0.000617261 0)
(-0.000281051 0.00489457 0)
(-7.26848e-05 0.00208479 0)
(0.00355502 0.209731 0)
(-0.0308196 0.176102 0)
(-0.0302036 0.15259 0)
(-1.37759e-05 0.000518703 0)
(-9.05139e-06 0.00035063 0)
(-0.000835073 0.00724536 0)
(-0.000771699 0.0083538 0)
(-0.00100312 0.00664767 0)
(-0.00136878 0.00631803 0)
(-0.000430853 0.00590507 0)
(-0.000207637 0.0043561 0)
(-0.000114242 0.00281462 0)
(-4.2128e-05 0.00146001 0)
(-5.90732e-05 0.00191112 0)
(-2.54119e-05 0.00117391 0)
(-2.29955e-05 0.000989511 0)
(-1.04693e-05 0.000398406 0)
(-0.0145378 0.209258 0)
(-0.0312958 0.194335 0)
(-5.48974e-06 0.000210191 0)
(-5.24937e-06 0.000202054 0)
(-0.00156265 0.00370319 0)
(-0.000578306 0.00672193 0)
(-0.000402687 0.00587648 0)
(-0.000314497 0.00516945 0)
(-0.000233548 0.0042968 0)
(-0.000173464 0.00381942 0)
(-5.47148e-05 0.00172315 0)
(-7.83059e-05 0.00232442 0)
(-0.000116062 0.00298795 0)
(-1.69392e-05 0.000632086 0)
(-8.10085e-05 0.00224746 0)
(-2.35424e-05 0.0010654 0)
(-1.71006e-05 0.000705716 0)
(-1.58025e-05 0.000627353 0)
(-1.31455e-05 0.000512827 0)
(-2.56699e-05 0.000928184 0)
(-2.64139e-06 0.000101444 0)
(-0.00237072 0.169823 0)
(-0.00284299 0.168894 0)
(-0.00301235 0.170534 0)
(-0.00347927 0.169505 0)
(-0.00369237 0.171115 0)
(-0.00413714 0.16998 0)
(-0.00439557 0.171546 0)
(-0.00481404 0.170319 0)
(-0.00511068 0.171847 0)
(-0.00549983 0.170513 0)
(-0.0058298 0.171988 0)
(-0.00618735 0.170555 0)
(-0.00654504 0.171976 0)
(-0.00687889 0.170448 0)
(-0.00726041 0.17182 0)
(-0.00757118 0.170203 0)
(-0.00798124 0.171495 0)
(-0.00824295 0.169859 0)
(-0.00868622 0.170978 0)
(-0.00888165 0.169293 0)
(-0.00936808 0.170291 0)
(-0.00949878 0.168414 0)
(-0.010021 0.169421 0)
(-0.0101104 0.167398 0)
(-0.0106495 0.168351 0)
(-0.0106995 0.166293 0)
(-0.0112315 0.167052 0)
(-0.0112537 0.165011 0)
(-0.0117869 0.165718 0)
(-0.0117849 0.163613 0)
(-0.0123437 0.16427 0)
(-0.01229 0.162084 0)
(-0.0128524 0.162533 0)
(-0.012748 0.16032 0)
(-0.0133024 0.160583 0)
(-0.0122148 0.159899 0)
(-0.0126317 0.15808 0)
(-0.0121193 0.157672 0)
(-0.000994007 0.0488472 0)
(-0.000955889 0.0473086 0)
(-0.0125136 0.155802 0)
(-0.0120099 0.155412 0)
(-0.0009904 0.0477103 0)
(-0.000953501 0.0462403 0)
(-0.0123853 0.153488 0)
(-0.0118879 0.153108 0)
(-0.000986843 0.0466301 0)
(-0.000949426 0.0451534 0)
(-0.000983077 0.0455543 0)
(-0.000943603 0.044062 0)
(-0.012243 0.151134 0)
(-0.0117556 0.150762 0)
(-0.000974911 0.0443992 0)
(-0.000935602 0.0429504 0)
(-0.0120931 0.148739 0)
(-0.0116152 0.148379 0)
(-0.000963862 0.0432094 0)
(-0.000925005 0.0418049 0)
(-0.000897749 0.0415288 0)
(-0.011931 0.146297 0)
(-0.0114638 0.145931 0)
(-0.0123953 0.14674 0)
(-0.000950703 0.0419995 0)
(-0.000912125 0.0406344 0)
(-0.0117625 0.143772 0)
(-0.0113007 0.143423 0)
(-0.000935827 0.0407849 0)
(-0.000974589 0.0420696 0)
(-0.00089732 0.0394468 0)
(-0.00618 0.173447 0)
(-0.0134358 0.162837 0)
(-0.0138791 0.160755 0)
(-0.0140296 0.163019 0)
(-0.0144528 0.16097 0)
(-0.0146331 0.163059 0)
(-0.0150214 0.16092 0)
(-0.0152448 0.162898 0)
(-0.0156057 0.160524 0)
(-0.0158541 0.16256 0)
(-0.0161926 0.160032 0)
(-0.0164591 0.162041 0)
(-0.0167672 0.159356 0)
(-0.0170555 0.161384 0)
(-0.0173301 0.158495 0)
(-0.0176408 0.160496 0)
(-0.017881 0.157467 0)
(-0.0182105 0.159349 0)
(-0.0184154 0.156266 0)
(-0.0187654 0.158034 0)
(-0.0189324 0.154823 0)
(-0.0192982 0.156474 0)
(-0.0194291 0.153106 0)
(-0.019811 0.154635 0)
(-0.0199096 0.151093 0)
(-0.0195229 0.149617 0)
(-0.0199817 0.147363 0)
(-0.0203713 0.148836 0)
(-0.0204104 0.14498 0)
(-0.0207973 0.146292 0)
(-0.0207862 0.142404 0)
(-0.021189 0.143408 0)
(-0.02114 0.139517 0)
(-0.021564 0.140184 0)
(-0.0214563 0.13623 0)
(-0.021896 0.136549 0)
(-0.0217657 0.132507 0)
(-0.0221764 0.132664 0)
(-0.0220755 0.128708 0)
(-0.0224433 0.128674 0)
(-0.0223225 0.124591 0)
(-0.022688 0.124237 0)
(-0.0225251 0.119979 0)
(-0.0228839 0.11928 0)
(-0.0226961 0.114926 0)
(-0.0230403 0.113952 0)
(-0.0228369 0.10959 0)
(-0.0231736 0.108312 0)
(-0.0229504 0.103972 0)
(-0.0232793 0.102385 0)
(-0.0230362 0.0980864 0)
(-0.0233501 0.0961534 0)
(-0.0230926 0.0919542 0)
(-0.0233894 0.0897288 0)
(-0.0231214 0.0856665 0)
(-0.0195977 0.14592 0)
(-0.0217247 0.128122 0)
(-0.0227104 0.099555 0)
(-0.0166956 0.164182 0)
(-0.000918903 0.0395518 0)
(-0.000880626 0.0382405 0)
(-0.0115725 0.141201 0)
(-0.0111261 0.140874 0)
(-0.0235891 0.100373 0)
(-0.000900122 0.0382969 0)
(-0.000862227 0.0370141 0)
(-0.0113635 0.138601 0)
(-0.0109405 0.138279 0)
(-0.000879469 0.0370198 0)
(-0.000842342 0.0357731 0)
(-0.000825335 0.0357389 0)
(-0.0111546 0.135951 0)
(-0.0107447 0.135636 0)
(-0.000856952 0.0357217 0)
(-0.00082091 0.03452 0)
(-0.0228523 0.129189 0)
(-0.010943 0.133276 0)
(-0.0105418 0.132936 0)
(-0.0113242 0.133411 0)
(-0.019672 0.158076 0)
(-0.000832831 0.0344129 0)
(-0.000866245 0.0354923 0)
(-0.000798148 0.0332604 0)
(-0.0107226 0.130539 0)
(-0.0103283 0.130196 0)
(-0.000808189 0.0331186 0)
(-0.000774297 0.0319972 0)
(-0.000782812 0.0318275 0)
(-0.000749456 0.0307318 0)
(-0.0104923 0.127756 0)
(-0.0101038 0.127424 0)
(-0.00075691 0.0305454 0)
(-0.000723753 0.0294662 0)
(-0.000716172 0.0296227 0)
(-0.0102484 0.124927 0)
(-0.00987182 0.124579 0)
(-0.000691419 0.0283928 0)
(-0.000684359 0.028539 0)
(-0.000697107 0.0282007 0)
(-0.00999527 0.122048 0)
(-0.00963655 0.121711 0)
(-0.0095011 0.124013 0)
(-0.00928307 0.121246 0)
(-0.00913987 0.123443 0)
(-0.00893399 0.120715 0)
(-0.00878598 0.122913 0)
(-0.00858976 0.120085 0)
(-0.00872056 0.117795 0)
(-0.00838394 0.117163 0)
(-0.00825237 0.119295 0)
(-0.00805878 0.11647 0)
(-0.000665624 0.0271565 0)
(-0.000669852 0.026944 0)
(-0.00816728 0.114165 0)
(-0.00785487 0.113491 0)
(-0.00774421 0.115743 0)
(-0.00755131 0.112748 0)
(-0.00791807 0.168664 0)
(-0.000640237 0.0259667 0)
(-0.000642265 0.0256981 0)
(-0.00743574 0.114917 0)
(-0.00725423 0.11192 0)
(-0.0073494 0.109684 0)
(-0.00706302 0.108875 0)
(-0.00696394 0.111044 0)
(-0.00678442 0.107994 0)
(-0.00668008 0.110082 0)
(-0.00651303 0.107035 0)
(-0.00640669 0.109029 0)
(-0.0062489 0.106004 0)
(-0.00614288 0.107914 0)
(-0.00599262 0.104915 0)
(-0.00608272 0.102932 0)
(-0.00583403 0.101876 0)
(-0.0108641 0.142967 0)
(-0.000610835 0.0246726 0)
(-0.000614298 0.0244508 0)
(-0.00574455 0.103785 0)
(-0.00559379 0.100779 0)
(-0.0056671 0.0987875 0)
(-0.00543581 0.0977248 0)
(-0.00536159 0.099642 0)
(-0.00521239 0.0966147 0)
(-0.00513748 0.0984581 0)
(-0.00499645 0.0954627 0)
(-0.000584733 0.0234614 0)
(-0.000586059 0.0232164 0)
(-0.000617091 0.0242538 0)
(-0.00505574 0.0935432 0)
(-0.00484832 0.0924302 0)
(-0.00478767 0.0942803 0)
(-0.00464814 0.0912858 0)
(-0.00458599 0.0930656 0)
(-0.00445464 0.0901014 0)
(-0.00439179 0.0918126 0)
(-0.00426779 0.0888809 0)
(-0.00420527 0.0905229 0)
(-0.00408793 0.0876318 0)
(-0.00413832 0.0859153 0)
(-0.00396419 0.0847077 0)
(-0.00391517 0.0863651 0)
(-0.00379765 0.0834882 0)
(-0.000557118 0.0222576 0)
(-0.00055795 0.0225754 0)
(-0.000557146 0.0219818 0)
(-0.00383437 0.081749 0)
(-0.00367481 0.0805771 0)
(-0.00363791 0.0822512 0)
(-0.00352167 0.0793837 0)
(-0.00348413 0.0809852 0)
(-0.00337447 0.0781635 0)
(-0.00333613 0.0797404 0)
(-0.00323276 0.0769264 0)
(-0.0032603 0.0753214 0)
(-0.00312465 0.0741285 0)
(-0.00309656 0.0756624 0)
(-0.00299445 0.0729173 0)
(-0.00296552 0.074367 0)
(-0.00286953 0.0716902 0)
(-0.00288722 0.0701549 0)
(-0.0027686 0.0689924 0)
(-0.00274982 0.0704575 0)
(-0.00265483 0.0678206 0)
(-0.00263459 0.0692011 0)
(-0.00254534 0.0666305 0)
(-0.000529126 0.0210501 0)
(-0.000528222 0.0207614 0)
(-0.00255656 0.0651675 0)
(-0.00245275 0.0640443 0)
(-0.00244026 0.0654353 0)
(-0.00235262 0.0629079 0)
(-0.00233969 0.0642414 0)
(-0.0022566 0.0617626 0)
(-0.00224315 0.0630387 0)
(-0.00216448 0.0606129 0)
(-0.00217089 0.0592727 0)
(-0.00208326 0.0581769 0)
(-0.00207617 0.0594587 0)
(-0.00199913 0.0570728 0)
(-0.00199151 0.0582901 0)
(-0.00191841 0.0559602 0)
(-0.00192008 0.0546913 0)
(-0.0018433 0.0536356 0)
(-0.00917479 0.172041 0)
(0.000886716 0.199349 0)
(0.000614192 0.198422 0)
(-0.00053797 0.199153 0)
(-0.000682247 0.198212 0)
(-0.00194293 0.198837 0)
(-0.00194953 0.197775 0)
(-0.00333348 0.198417 0)
(-0.00330593 0.197451 0)
(-0.0046421 0.197946 0)
(-0.00447277 0.19697 0)
(-0.00584478 0.197392 0)
(-0.00610669 0.198344 0)
(-0.00725004 0.197728 0)
(-0.0076217 0.198644 0)
(-0.00870923 0.19789 0)
(-0.00921814 0.198819 0)
(-0.0101956 0.197928 0)
(-0.0108502 0.198798 0)
(-0.0116564 0.197834 0)
(-0.0124129 0.198605 0)
(-0.0130852 0.197546 0)
(-0.0139038 0.19829 0)
(-0.0144599 0.197127 0)
(-0.0153171 0.197827 0)
(-0.013677 0.19639 0)
(-0.00318575 0.19647 0)
(-0.0157341 0.196567 0)
(-0.0166235 0.197199 0)
(-0.000502156 0.0198839 0)
(-0.000499381 0.0195571 0)
(-0.00564697 0.196431 0)
(-0.00628275 0.110873 0)
(-0.00183925 0.0523121 0)
(-0.00176648 0.0513142 0)
(-0.010367 0.122256 0)
(-0.00191038 0.0571133 0)
(-0.0169024 0.195879 0)
(-0.0178058 0.196403 0)
(-0.00489232 0.0904292 0)
(-0.00713873 0.106564 0)
(-0.000474904 0.0187362 0)
(-0.000470564 0.0183642 0)
(-0.000496561 0.0192393 0)
(-0.0100872 0.119332 0)
(-0.0104527 0.119404 0)
(-0.0101475 0.116442 0)
(-0.010504 0.116404 0)
(-0.010176 0.113381 0)
(-0.0105253 0.113242 0)
(-0.010172 0.110152 0)
(-0.0105095 0.109877 0)
(-0.0101306 0.106743 0)
(-0.0104509 0.106324 0)
(0.0013151 0.200246 0)
(-0.0179514 0.195008 0)
(-0.0188695 0.195416 0)
(-0.00175697 0.0499362 0)
(-0.00168829 0.0489968 0)
(-0.0170174 0.156492 0)
(-0.00431585 0.0933861 0)
(-0.0100472 0.103131 0)
(-0.0103539 0.102618 0)
(-0.0107766 0.105776 0)
(-0.0106602 0.101969 0)
(-0.0110976 0.10504 0)
(-0.0109611 0.101145 0)
(-0.0114127 0.104133 0)
(-0.0112572 0.100154 0)
(-0.0117227 0.103057 0)
(-0.0115463 0.0989985 0)
(-0.012025 0.101788 0)
(-0.011822 0.0976692 0)
(-0.0123146 0.100331 0)
(-0.0120839 0.0961457 0)
(-0.0125909 0.0986872 0)
(-0.012337 0.0944054 0)
(-0.0128527 0.0968297 0)
(-0.0125749 0.0924594 0)
(-0.0130991 0.0947735 0)
(-0.0127961 0.0903464 0)
(-0.013329 0.0925223 0)
(-0.0129997 0.0880338 0)
(-0.0135396 0.0900568 0)
(-0.0131843 0.0855192 0)
(-0.0137288 0.0873571 0)
(-0.000446275 0.0175594 0)
(-0.000451958 0.0179862 0)
(-0.000441246 0.0171742 0)
(-0.0133498 0.0827976 0)
(-0.0138977 0.0844209 0)
(-0.0188897 0.19392 0)
(-0.0198183 0.194208 0)
(-0.0179211 0.193654 0)
(-0.0134938 0.0798739 0)
(-0.014044 0.0812602 0)
(-0.00167362 0.0475682 0)
(-0.00160914 0.0466886 0)
(-0.00162226 0.0480522 0)
(-0.00154709 0.0458005 0)
(-0.0136158 0.0767686 0)
(-0.014166 0.0778745 0)
(-0.000417984 0.0164012 0)
(-0.000411914 0.0160013 0)
(-0.00992761 0.0993741 0)
(-0.019748 0.192653 0)
(-0.0206432 0.19279 0)
(-0.0137109 0.0734374 0)
(-0.0142619 0.074257 0)
(-0.0144293 0.08577 0)
(-0.0015588 0.0470993 0)
(-0.00148729 0.0448995 0)
(-0.0014713 0.0435602 0)
(-0.00141499 0.042713 0)
(-0.0137806 0.069872 0)
(-0.014332 0.0704625 0)
(-0.0116736 0.199569 0)
(-0.0133583 0.0990874 0)
(-0.00139517 0.0413348 0)
(-0.00134265 0.0405495 0)
(-0.0138292 0.066127 0)
(-0.0143776 0.0665229 0)
(-0.0148707 0.0708579 0)
(-0.0149152 0.0667139 0)
(-0.0144001 0.0624313 0)
(-0.0149442 0.0624224 0)
(-0.0143994 0.0581816 0)
(-0.0149391 0.0578898 0)
(-0.0143708 0.0537837 0)
(-0.0149037 0.0531618 0)
(-0.0205073 0.191197 0)
(-0.0213502 0.191199 0)
(-0.0215078 0.192772 0)
(-0.0221892 0.191074 0)
(-0.0219536 0.189449 0)
(-0.0227419 0.189155 0)
(-0.0230552 0.190801 0)
(-0.0235272 0.188687 0)
(-0.0231894 0.187042 0)
(-0.0238959 0.18632 0)
(-0.0242731 0.187958 0)
(-0.0245578 0.185439 0)
(-0.0249486 0.186978 0)
(-0.0251729 0.184395 0)
(-0.0255756 0.185825 0)
(-0.025735 0.183178 0)
(-0.0261298 0.184369 0)
(-0.026239 0.18168 0)
(-0.0266222 0.182743 0)
(-0.0266912 0.179874 0)
(-0.0270811 0.180928 0)
(-0.0270911 0.177749 0)
(-0.0274748 0.178527 0)
(-0.0274379 0.17527 0)
(-0.0278019 0.175688 0)
(-0.0277326 0.172465 0)
(-0.0280756 0.172626 0)
(-0.0279783 0.16928 0)
(-0.0283015 0.16929 0)
(-0.0281898 0.16578 0)
(-0.0284833 0.165623 0)
(-0.0283644 0.162036 0)
(-0.0286242 0.161647 0)
(-0.0284953 0.158011 0)
(-0.0287287 0.157422 0)
(-0.0285929 0.153767 0)
(-0.0288008 0.153013 0)
(-0.0286614 0.149355 0)
(-0.0288448 0.148335 0)
(-0.0286979 0.144664 0)
(-0.028855 0.14341 0)
(-0.0287096 0.139903 0)
(-0.028842 0.138504 0)
(-0.028698 0.135118 0)
(-0.0288134 0.133518 0)
(-0.0286667 0.130087 0)
(-0.0285374 0.131652 0)
(-0.0283754 0.154447 0)
(-0.0273917 0.172112 0)
(-0.025883 0.180475 0)
(-0.0235666 0.184624 0)
(-0.028914 0.131856 0)
(-0.0289938 0.152165 0)
(-0.0143144 0.0492318 0)
(-0.0148309 0.0482436 0)
(-0.0154833 0.0573313 0)
(-0.0110558 0.0960555 0)
(-0.000390277 0.0152764 0)
(-0.000383625 0.0148731 0)
(-0.0142287 0.0445259 0)
(-0.0147281 0.0432285 0)
(-0.0014289 0.0439586 0)
(-0.00102683 0.0472052 0)
(-0.0141166 0.0397213 0)
(-0.0146098 0.0381483 0)
(-0.028607 0.169168 0)
(-0.00131895 0.0391275 0)
(-0.00127034 0.0384041 0)
(-0.000363093 0.0141799 0)
(-0.000355899 0.013773 0)
(-0.000374853 0.0143978 0)
(-0.0120276 0.0900384 0)
(-0.0260852 0.186995 0)
(-0.0175846 0.197768 0)
(-0.000336447 0.0131122 0)
(-0.000342603 0.0134654 0)
(-0.00124295 0.0369412 0)
(-0.00119807 0.0362756 0)
(-0.000328568 0.0126957 0)
(-0.0127858 0.0809436 0)
(-0.00518797 0.169031 0)
(-0.00116739 0.0347784 0)
(-0.00112628 0.0341727 0)
(-0.00120983 0.0353728 0)
(-0.00115461 0.0355991 0)
(-0.00108637 0.0335534 0)
(-0.00111256 0.0349115 0)
(-0.00104761 0.0329206 0)
(-0.000310348 0.0120734 0)
(-0.000301998 0.0116546 0)
(-0.00107179 0.034212 0)
(-0.00100997 0.0322754 0)
(-0.000983234 0.0309566 0)
(-0.000948703 0.0303666 0)
(-0.00964013 0.0998727 0)
(-0.00949459 0.0960434 0)
(-0.00922046 0.0965598 0)
(-0.00905211 0.0926239 0)
(-0.0087906 0.0931051 0)
(-0.00860277 0.0890513 0)
(-0.00836055 0.089472 0)
(-0.0132122 0.069172 0)
(-0.0114043 0.152728 0)
(-0.0216073 0.144161 0)
(-0.00815804 0.0853478 0)
(-0.0079301 0.0857513 0)
(-0.000919599 0.0290216 0)
(-0.000888146 0.0284869 0)
(-0.000915121 0.0297651 0)
(-0.000857491 0.0279397 0)
(-0.0137869 0.0499161 0)
(-0.000284911 0.0110676 0)
(-0.000276265 0.01065 0)
(-0.000828459 0.026638 0)
(-0.00080065 0.0261444 0)
(-0.00174076 0.0484404 0)
(-0.00771377 0.0815759 0)
(-0.00749683 0.0819786 0)
(-0.00791743 0.0811723 0)
(-0.00113101 0.0331746 0)
(-0.00117064 0.0336921 0)
(-0.000882487 0.0291551 0)
(-0.000260162 0.0100923 0)
(-0.00025139 0.00968222 0)
(-0.000265159 0.0101513 0)
(-0.000769764 0.0248217 0)
(-0.000744726 0.0243806 0)
(-0.00726203 0.0776962 0)
(-0.00705974 0.0781181 0)
(-0.00315254 0.172266 0)
(-0.00108863 0.0314602 0)
(-0.00112505 0.031894 0)
(-0.000236212 0.00915337 0)
(-0.000244283 0.00953617 0)
(-0.00022684 0.00872922 0)
(-0.000712208 0.0230403 0)
(-0.000689871 0.0226505 0)
(-0.00244812 0.138354 0)
(-0.0026889 0.137086 0)
(-0.00279782 0.139066 0)
(-0.00303694 0.137725 0)
(-0.00314854 0.139674 0)
(-0.00338981 0.13827 0)
(-0.00352473 0.140437 0)
(-0.00375411 0.138705 0)
(-0.0039392 0.140647 0)
(-0.00411936 0.138943 0)
(-0.00432048 0.140817 0)
(-0.00448784 0.139067 0)
(-0.00428616 0.13702 0)
(-0.00470504 0.140876 0)
(-0.00485469 0.139066 0)
(-0.00509148 0.140807 0)
(-0.00521844 0.138874 0)
(-0.00547438 0.140598 0)
(-0.00534454 0.142593 0)
(-0.00558105 0.138556 0)
(-0.00573961 0.142335 0)
(-0.00561295 0.144344 0)
(-0.0060197 0.144026 0)
(-0.00589387 0.146048 0)
(-0.00680659 0.0737133 0)
(-0.00662138 0.0741609 0)
(-0.0148163 0.165162 0)
(-0.0278827 0.178684 0)
(-0.0121824 0.105756 0)
(-0.000210617 0.00815767 0)
(-0.000203191 0.00781432 0)
(-0.00104013 0.0296341 0)
(-0.00107296 0.0299825 0)
(-0.000655947 0.0212964 0)
(-0.000636245 0.0209572 0)
(-0.000667851 0.0222437 0)
(-0.000616675 0.0205982 0)
(-0.00067581 0.021616 0)
(-0.000646099 0.0218187 0)
(-0.000597252 0.0202203 0)
(-0.000566755 0.0189911 0)
(-0.000549599 0.0186602 0)
(-0.0103528 0.135124 0)
(-0.000624617 0.0213762 0)
(-0.0262053 0.111391 0)
(-0.0259539 0.112508 0)
(-0.026129 0.117209 0)
(-0.0063121 0.145672 0)
(-0.00618906 0.147707 0)
(-0.0023182 0.065425 0)
(-0.00343855 0.0825396 0)
(-0.000789382 0.031595 0)
(-0.000915535 0.0447176 0)
(-0.00245643 0.0625104 0)
(-0.00641008 0.143594 0)
(-0.00162747 0.0821162 0)
(-0.00136189 0.06781 0)
(-0.00123408 0.0611404 0)
(-0.00369931 0.0787629 0)
(-0.0154004 0.0710672 0)
(-0.00634873 0.0696511 0)
(-0.00618358 0.0701171 0)
(-0.00643312 0.0745048 0)
(-0.00601617 0.0704855 0)
(-0.0062458 0.0747574 0)
(-0.00584634 0.0707654 0)
(-0.00605828 0.0749109 0)
(-0.00567376 0.0709303 0)
(-0.00587026 0.0749643 0)
(-0.00550012 0.0709923 0)
(-0.00528866 0.0668596 0)
(-0.00512957 0.0669527 0)
(-0.00532862 0.0710139 0)
(-0.00497366 0.0670105 0)
(-0.00651017 0.0690777 0)
(-0.0153073 0.158473 0)
(-0.00575151 0.0659981 0)
(-0.00531319 0.136876 0)
(-0.0056684 0.136438 0)
(-0.00539179 0.134755 0)
(-0.00573975 0.134226 0)
(-0.00546046 0.132536 0)
(-0.00035251 0.0170049 0)
(-0.000378662 0.0182082 0)
(-0.000364451 0.017352 0)
(-0.000338188 0.0161557 0)
(-0.000349426 0.0164798 0)
(-0.000375979 0.0176676 0)
(-0.000360225 0.0167729 0)
(-0.000333657 0.0155941 0)
(-0.000343769 0.015867 0)
(-0.000387013 0.0179494 0)
(-0.000317193 0.0146965 0)
(-0.000326666 0.0149517 0)
(-0.000300093 0.0137888 0)
(-0.000308971 0.0140286 0)
(-0.000335608 0.0151756 0)
(-0.000317286 0.0142369 0)
(-0.000290731 0.0135198 0)
(-0.000343929 0.0153656 0)
(-0.000324968 0.0144119 0)
(-0.000189116 0.00730985 0)
(-0.000298485 0.0132946 0)
(-0.000305585 0.013457 0)
(-0.00018103 0.00695784 0)
(-0.000192161 0.00734938 0)
(-0.00475842 0.0628406 0)
(-0.00461989 0.0629499 0)
(-0.00481939 0.0670021 0)
(-0.00448214 0.0629925 0)
(-0.0207102 0.138365 0)
(-0.013475 0.036368 0)
(-0.022348 0.116001 0)
(-0.0228943 0.082172 0)
(-0.00952521 0.16622 0)
(-0.0258601 0.118062 0)
(-0.0260254 0.122725 0)
(-0.00051818 0.0174237 0)
(-0.000503216 0.017139 0)
(-0.00325095 0.167834 0)
(-0.000985288 0.0276949 0)
(-0.00101465 0.0279694 0)
(-0.0263 0.121954 0)
(-0.0261841 0.127336 0)
(-0.0258949 0.127935 0)
(-0.0260402 0.132378 0)
(-0.0257361 0.132804 0)
(-0.0258662 0.137289 0)
(-0.0255426 0.137329 0)
(-0.0256485 0.141962 0)
(-0.0253107 0.141443 0)
(-0.0253935 0.146128 0)
(-0.00965154 0.19695 0)
(-0.0046663 0.0669225 0)
(-0.00434452 0.0629659 0)
(-0.00661964 0.147268 0)
(-0.00650195 0.149315 0)
(-0.00414615 0.058952 0)
(-0.00402459 0.0589851 0)
(-0.00420783 0.0628873 0)
(-0.00390295 0.0589516 0)
(-0.00407246 0.0627474 0)
(-0.00378174 0.0588561 0)
(-0.00393917 0.0625631 0)
(-0.00366213 0.0587189 0)
(-0.00349312 0.0549457 0)
(-0.00338743 0.0548756 0)
(-0.00354415 0.0585377 0)
(-0.00328275 0.0547555 0)
(-0.025045 0.145309 0)
(-0.0251078 0.149838 0)
(-0.000351542 0.0155199 0)
(-0.000168626 0.00651391 0)
(-0.000176139 0.00684313 0)
(-0.00110635 0.030306 0)
(-0.00104437 0.0282191 0)
(-0.00114008 0.0306012 0)
(-0.0010737 0.028424 0)
(-0.00117459 0.0308807 0)
(-0.00110286 0.0285915 0)
(-0.00121002 0.0311391 0)
(-0.000279271 0.0123508 0)
(-0.00028585 0.012503 0)
(-0.00113214 0.0287273 0)
(-0.00124564 0.0313577 0)
(-0.00342756 0.0583019 0)
(-0.00317872 0.0545785 0)
(-0.00302722 0.0510142 0)
(-0.00293345 0.05086 0)
(-0.00307592 0.054357 0)
(-0.0028421 0.0507036 0)
(-0.00297477 0.0540907 0)
(-0.00275253 0.0505103 0)
(-0.00287552 0.0537785 0)
(-0.00266438 0.0502706 0)
(-0.00253281 0.0469323 0)
(-0.00245566 0.04677 0)
(-0.00257769 0.0499939 0)
(-0.00237957 0.0465683 0)
(-0.00249245 0.0496799 0)
(-0.00230451 0.0463267 0)
(-0.000159659 0.006134 0)
(-0.00218483 0.0431656 0)
(-0.00211952 0.0429959 0)
(-0.00223073 0.0460479 0)
(-0.00205489 0.0427875 0)
(-0.0057912 0.131955 0)
(-0.00551734 0.130279 0)
(-0.00328075 0.13632 0)
(-0.00116155 0.0288349 0)
(-0.000471049 0.0158982 0)
(-0.000458209 0.0156587 0)
(-0.000488154 0.0168327 0)
(-0.000445146 0.0153958 0)
(-0.000472979 0.0165044 0)
(-0.000431883 0.0151103 0)
(-0.00694838 0.148797 0)
(-0.000403545 0.0140021 0)
(-0.000392112 0.0137584 0)
(-0.0112324 0.169101 0)
(-0.00683385 0.150868 0)
(-0.0063621 0.151315 0)
(-0.00191419 0.186593 0)
(-0.00194265 0.185223 0)
(-0.00278412 0.186121 0)
(-0.00278545 0.184755 0)
(-0.00362323 0.185568 0)
(-0.0264651 0.126611 0)
(-0.00381305 0.054901 0)
(0.00767192 0.207479 0)
(0.00698061 0.206914 0)
(0.00544106 0.207394 0)
(0.00486975 0.206914 0)
(0.00330504 0.207314 0)
(0.0027717 0.206855 0)
(0.00104072 0.207218 0)
(0.000635047 0.206724 0)
(-0.00138007 0.207061 0)
(-0.00154352 0.206519 0)
(-0.00369582 0.206799 0)
(-0.00375515 0.20732 0)
(-0.00604735 0.207002 0)
(-0.00636925 0.20748 0)
(-0.00855734 0.207116 0)
(-0.00363159 0.206245 0)
(-0.00907947 0.20756 0)
(-0.0111813 0.207159 0)
(-0.0104912 0.206695 0)
(-0.0129784 0.206684 0)
(-0.0140095 0.20718 0)
(-0.0154836 0.20659 0)
(-0.0144525 0.206132 0)
(-0.0167053 0.205992 0)
(-0.0178818 0.206408 0)
(-0.0187899 0.205775 0)
(-0.0200679 0.20616 0)
(-0.0206594 0.205464 0)
(-0.0219796 0.205813 0)
(-0.0222891 0.205032 0)
(-0.0235927 0.205328 0)
(-0.023652 0.204462 0)
(-0.0248999 0.204687 0)
(-0.0247678 0.203731 0)
(-0.0259028 0.203839 0)
(0.00246751 0.20634 0)
(0.00351125 0.207715 0)
(-0.0256564 0.202843 0)
(-0.0266401 0.202771 0)
(-0.0247021 0.202716 0)
(-0.0210043 0.204709 0)
(-0.0156817 0.205517 0)
(-0.0247414 0.148817 0)
(-0.024786 0.153168 0)
(-0.00215737 0.0457142 0)
(-0.00193771 0.0396842 0)
(-0.000925225 0.0256772 0)
(-0.00025972 0.011408 0)
(-0.000265829 0.0115519 0)
(-0.000291739 0.0126224 0)
(-0.00027125 0.0116638 0)
(-0.00808492 0.0896546 0)
(-0.00198852 0.183854 0)
(-0.000148878 0.00574756 0)
(-0.000139667 0.00536318 0)
(-0.00277334 0.0471615 0)
(-0.0260151 0.142275 0)
(-0.0254453 0.132944 0)
(-0.0244126 0.152026 0)
(-0.0244296 0.156217 0)
(-0.00729735 0.150273 0)
(-0.00738293 0.148123 0)
(-0.000457714 0.0161552 0)
(-0.00279847 0.183376 0)
(-0.000296866 0.0127072 0)
(-0.000275911 0.0117418 0)
(-0.000250598 0.0107123 0)
(-0.000254868 0.0107861 0)
(-0.0262957 0.201765 0)
(-0.0271733 0.20146 0)
(-0.0240621 0.155008 0)
(-0.0240361 0.15896 0)
(-0.023676 0.15761 0)
(-0.0236046 0.161362 0)
(-0.00669039 0.152881 0)
(-0.00620184 0.153245 0)
(-0.00415059 0.142571 0)
(-0.000363395 0.0126524 0)
(-0.000353729 0.01245 0)
(-0.00188197 0.0395519 0)
(-0.00175891 0.0363891 0)
(-0.00582525 0.129642 0)
(-0.00556247 0.127994 0)
(-0.00526012 0.128597 0)
(-0.00531463 0.126317 0)
(-0.00502865 0.126867 0)
(-0.00507915 0.124608 0)
(-0.00481131 0.125114 0)
(-0.00485178 0.122853 0)
(-0.00459456 0.123332 0)
(-0.00463106 0.121131 0)
(-0.00439135 0.121478 0)
(-0.00443116 0.119375 0)
(-0.00419926 0.11959 0)
(-0.0042477 0.117463 0)
(-0.00401461 0.11769 0)
(-0.00406088 0.115546 0)
(-0.00383522 0.115777 0)
(-0.00387906 0.113663 0)
(-0.00610142 0.131264 0)
(-0.0036636 0.113841 0)
(-0.00370814 0.111755 0)
(-0.00431534 0.115151 0)
(-0.00349979 0.111887 0)
(-0.00354423 0.109831 0)
(-0.0037405 0.109613 0)
(-0.00357601 0.107717 0)
(-0.0033883 0.107893 0)
(-0.00342003 0.105806 0)
(-0.00414092 0.121735 0)
(-0.0048558 0.120399 0)
(-0.00324059 0.105939 0)
(-0.00327154 0.10388 0)
(-0.00344096 0.103678 0)
(-0.0032929 0.101778 0)
(-0.00312936 0.101947 0)
(-0.00315072 0.0998811 0)
(-0.0029942 0.10001 0)
(-0.003016 0.0979805 0)
(-0.0028661 0.0980705 0)
(-0.00288647 0.0960602 0)
(-0.00274411 0.0961177 0)
(-0.00276177 0.0941332 0)
(-0.00289927 0.0940083 0)
(-0.0027724 0.0921114 0)
(-0.00264328 0.0922199 0)
(-0.00265149 0.0902267 0)
(-0.00277369 0.0900395 0)
(-0.00265285 0.0881835 0)
(-0.00330817 0.0996371 0)
(-0.00253706 0.0883526 0)
(-0.0025387 0.0863407 0)
(-0.00264527 0.0860958 0)
(-0.00253233 0.084292 0)
(-0.00243093 0.0844993 0)
(-0.00242527 0.0824911 0)
(-0.00232876 0.0826562 0)
(-0.00232344 0.0806921 0)
(-0.00223147 0.080819 0)
(-0.00222641 0.078898 0)
(-0.00213872 0.0789897 0)
(-0.0021338 0.0771097 0)
(-0.00205031 0.0771681 0)
(-0.00204532 0.0753297 0)
(-0.000899688 0.025449 0)
(-0.00623873 0.0788723 0)
(-0.000837865 0.0234203 0)
(-0.00368309 0.186909 0)
(-0.00451757 0.186259 0)
(-0.000229858 0.00976998 0)
(-0.000233804 0.00984198 0)
(-0.0232537 0.159836 0)
(-0.0231401 0.163459 0)
(-0.00205063 0.182467 0)
(-0.0019774 0.0593852 0)
(-0.00189628 0.0581516 0)
(-0.00195719 0.0603647 0)
(-0.00187646 0.0590767 0)
(-0.00193142 0.0612301 0)
(-0.00185137 0.0598899 0)
(-0.0251523 0.154134 0)
(-0.000273601 0.0126181 0)
(-0.00026433 0.0123354 0)
(-0.000247129 0.0114377 0)
(-0.000237951 0.0111419 0)
(-0.000483685 0.0161149 0)
(-0.000435934 0.0145873 0)
(-0.000446048 0.0147325 0)
(-0.00241253 0.080458 0)
(-0.00100296 0.0262217 0)