/*--------------------------------*- C++ -*----------------------------------*\
| =========                 |                                                 |
| \\      /  F ield         | OpenFOAM: The Open Source CFD Toolbox           |
|  \\    /   O peration     | Version:  v2012                                 |
|   \\  /    A nd           | Website:  www.openfoam.com                      |
|    \\/     M anipulation  |                                                 |
\*---------------------------------------------------------------------------*/
FoamFile
{
    version     2.0;
    format      ascii;
    class       volScalarField;
    location    "250";
    object      ddt0(omega);
}
// * * * * * * * * * * * * * * * * * * * * * * * * * * * * * * * * * * * * * //

dimensions      [0 0 -2 0 0 0 0];


internalField   nonuniform List<scalar> 
13917
(
6.54595e-05
-8.77214e-05
-0.0392239
0.000329724
-1.22787e-05
-0.0222042
-0.0249459
-0.0850524
-0.262605
0.0032772
0.187391
-0.0144701
0.000352706
-2.75136
4.95236e-05
-3.96714e-05
-0.000101084
-0.00687085
-0.0129855
-2.63425e-05
7.26392e-06
-0.0351709
-2.92986e-05
-0.0606412
-4.02749e-05
0.00250442
-0.0018043
0.000652107
0.0976588
0.00804966
0.000184275
-0.000207922
0.000313733
2.67714e-06
-2.27386e-05
0.049109
-2.92968e-05
0.136953
0.000604865
-0.323943
-6.55949e-05
1.01191e-05
-1.11988e-05
0.00209087
-7.30058e-05
0.00012092
-0.00702361
-0.0200953
-0.489877
-5.22542e-05
-0.00087196
-1.92874e-05
-0.951772
-2.68862e-05
-0.000102806
-0.000733726
-0.256494
-6.9956e-05
-0.00037008
-7.20442e-05
2.98958
-8.96761e-05
-2.9664
-3.08318e-05
-0.0119955
6.48459
8.27915e-06
1.15262e-05
-0.0920782
0.000228664
-9.21476e-06
-0.233844
-0.83537
-3.16789e-05
0.00408528
0.00144655
-0.39478
-0.000113659
0.0481907
6.75099e-06
-9.12443e-06
8.4107e-06
0.0152321
0.0622498
-0.721033
-9.23685e-05
-2.21044e-05
4.98528
-0.000734432
-2.57059e-06
-0.197675
0.00807065
-6.52511e-05
-0.000107007
5.72605
-0.0925415
-0.0702046
-0.0148539
-0.046649
-0.00348032
-5.53232e-05
-8.56091e-06
0.00122396
-8.61352e-05
-5.7259e-05
-0.0860966
0.0517701
-0.0214581
-9.87942e-05
0.000673796
1.71295
-0.59117
-0.0251456
-0.168478
-2.0009e-05
0.395177
-3.97089e-05
0.0842173
0.31112
-1.90872e-05
9.6921e-06
-0.123927
0.426623
0.000457917
-5.70208e-05
-0.000108979
-7.98787e-05
-5.86706e-05
-3.39372e-05
-0.286566
-0.1013
-1.22392e-05
-6.1679e-05
8.22804e-06
0.0552549
-0.049775
0.000305377
-0.00121915
8.35554e-06
2.66097e-05
0.0487373
-4.23323e-05
-5.63461e-05
0.00432127
7.72797e-06
-0.0622278
0.105825
-1.7808e-05
-3.79439e-05
-0.00011798
-0.0171525
0.160951
-0.0495984
0.000680538
-0.000509616
-2.69568
0.000152193
-0.00418828
-2.18555
-0.0216399
-9.95948e-05
-0.00125427
3.4057e-06
-0.072433
-0.0270469
-0.0511263
-8.15848e-05
-0.0173284
-6.60443e-05
0.000248844
0.000495616
1.32024
-0.0238543
-0.000107667
-0.107393
0.000938994
-0.141692
-0.099578
-0.038957
-8.76259e-05
0.00908845
0.000315698
-4.2057e-05
-2.40492e-05
0.000137196
0.0415406
0.0630577
-4.29298
-0.00255788
-0.0679088
0.0382394
-0.906139
0.0628899
-2.62169e-05
0.00389202
0.000115881
-2.26092e-05
-7.31864e-05
0.0103245
2.12186
-0.000347245
-5.28386e-05
-0.0158072
-0.0181993
-1.04165
0.13817
-2.21546e-05
-7.64805e-05
-0.0148371
0.0319522
-5.44169e-05
-0.048402
-1.92929
-0.0644747
-5.3495e-05
0.0280284
-0.0125523
-2.792
-4.50953e-05
1.84229
-8.48716e-05
0.00279306
-6.62312e-05
0.117798
0.00390188
-6.23678e-06
0.589424
-0.000526296
-5.58464e-05
0.0552829
-0.0197377
-0.00255087
-0.0260488
-2.65828
-6.11499e-05
-0.000212811
-0.205287
-1.39646
-5.32573e-06
-4.77266e-05
-0.254627
-0.0719529
-3.55076e-06
0.118604
-0.0077352
-0.000812719
-4.42044e-05
-4.50294e-06
0.0003903
-1.99991
3.504e-05
0.0161233
0.00179737
-7.01311e-05
-6.43092e-05
-0.0333635
-0.106238
-0.0449674
0.000146553
7.8423e-05
-5.81876e-07
0.557595
-2.29133
0.201159
-5.9093e-05
-1.34657
-0.235259
-0.0343621
0.051142
0.00171939
-3.41008e-06
-6.48978e-05
-0.00796777
0.097241
-0.0261215
-0.00031959
0.330796
0.00149108
-3.64273e-05
0.185813
-2.90355e-05
-0.130566
-0.000246497
-1.00452e-05
3.86452e-05
0.000647278
-0.0017826
0.0879142
9.53917e-05
3.88095e-06
0.030161
-0.0304702
-0.526384
-4.43272e-05
-0.0421035
3.27883e-06
3.01243e-06
-3.84874e-05
0.178113
-4.0355e-05
0.00465437
-2.99028e-05
-5.87782e-05
-0.0165707
-0.000130198
-0.281234
0.000921217
0.0057491
-4.05961e-05
-6.08248e-05
1.72568
0.420977
-3.94336e-05
-6.53523e-05
0.239454
-8.12243e-05
-0.699784
-4.44376e-05
0.0775773
0.000132962
0.0940657
-0.00332738
0.280059
-6.42436e-05
-0.184509
0.0153817
5.20031e-05
-0.0838532
0.0399358
-0.000118219
0.0246457
0.00211266
-0.451059
-5.88553e-06
1.10505
-0.000287956
1.73661
0.0125059
0.00837468
0.0066789
-0.0649092
4.74131e-06
0.000632619
2.13823
-7.05485e-05
-8.12074e-05
-0.0255393
0.010277
-9.4421e-05
0.045483
0.0831398
-5.4e-05
0.59866
0.0486345
-3.28919e-05
-5.21089e-05
1.18695e-05
-4.10695e-05
0.0325983
-0.0608612
0.135332
2.16476
-3.60372e-05
0.0192085
0.785872
-0.00811186
-0.0427457
0.106971
-0.123178
-5.78579e-05
0.228765
-5.9221e-05
0.886641
-7.10696e-05
0.437855
-0.00845671
0.000177544
-4.95403e-07
-0.0140217
0.0102626
-0.0113266
-0.581754
3.03302
-3.60483
0.00113363
0.00240737
-4.78329e-05
-1.69872
-0.03592
-9.33506e-05
-0.0562319
-2.28649e-05
0.00264707
0.000123737
4.04385e-06
-0.00010755
0.259738
-0.000107061
-0.246851
-4.61161
0.205025
-0.0081335
-0.000120905
0.0130481
-5.00446e-05
-3.68544e-05
0.0230986
-7.21829e-05
-2.58842e-05
0.00847342
-5.0069e-06
-2.52983e-05
-5.04388e-05
0.0250835
7.42914e-06
0.755483
0.220167
0.0171968
0.0628207
-0.262108
-1.2904
-0.0077646
-3.47857e-05
0.00289793
0.000515998
-0.000274378
-2.61571e-05
-0.0970095
-0.00280386
0.253713
-1.85938e-05
-0.0117385
-4.78768e-05
0.000587763
-0.0120106
-9.11815e-05
0.312807
-9.89627e-05
-3.70333e-05
-0.640245
-0.149244
-0.175702
0.0160194
-0.0594502
-0.0649886
0.42901
-0.395096
-4.39567e-05
-0.0110424
-9.15681e-05
-7.161e-05
0.0223238
-0.0080133
-1.36629e-05
-0.00322689
-0.00656153
-0.716278
-3.62167e-05
-0.0496947
-5.76969
0.15002
0.197487
6.78601e-06
-9.89183e-05
-2.49109e-05
-3.91135e-05
-5.33025e-05
0.0824913
0.0271255
0.000121953
-2.92686
-0.00067752
-0.0731082
1.31503
0.116742
0.0795886
0.0509654
-0.051514
-0.00113948
-0.00836956
-0.00634503
1.54388
0.0292265
-0.00620765
-0.0284526
-6.72279e-05
0.0284944
-0.000981401
-2.05427e-05
3.87912e-05
-0.000137746
-0.35684
-0.173779
-8.02336e-05
-4.33722e-05
0.063543
-1.82331
-7.47742e-06
0.668507
3.22292e-05
0.0440655
-8.54769e-05
-1.3243
0.814734
-0.000129162
-8.71482e-05
-0.159193
0.0500748
1.57035
3.2036e-07
-1.82397
-0.267587
0.173695
9.2052e-06
-0.599202
1.68068
-0.00831916
-5.13483e-05
-0.000117915
0.00703074
-0.171581
-2.06549e-06
-5.08196e-05
-5.19212e-05
-5.19296e-05
-1.46255
-0.00986225
-0.00799385
0.0586305
-5.44411e-05
-5.55937e-05
-0.0121872
-0.0200517
-0.00149224
-6.40683e-05
-2.89477e-05
1.21918e-05
0.184364
-0.670665
-1.70504e-05
-3.44913e-06
0.302398
-0.00690654
-0.00332375
-8.89544e-05
-0.000133818
-0.000117464
-0.0283136
0.0336579
0.0626659
-0.000374556
-0.0224295
-1.40413
0.0062563
-4.25282e-05
-1.50734
1.39293e-05
-6.10664e-05
-4.09188e-05
0.033895
0.00392383
-6.68318e-05
0.152518
0.0103853
-9.12694
-0.0197115
0.000642831
-0.00752236
-7.22442e-07
0.331291
0.104752
-0.152883
-0.000100365
-0.00117595
0.0576455
0.103691
1.54071
-0.0155596
0.0211775
-1.63684e-05
-0.000228125
-8.52373e-05
0.00250335
0.00256725
1.37731e-05
-0.0127248
-0.00186112
-0.1517
1.43451
-0.000116475
-0.0695466
0.749971
0.000260082
-5.01989e-05
-0.0126038
1.43779
-0.184001
0.0504976
-3.79601e-05
0.474798
0.00673075
-7.12227e-05
-0.000804142
-0.0350419
0.000702033
0.00705687
0.034448
-0.0134132
-0.00376534
0.60168
-0.000125794
-1.07012
1.91388e-06
-2.06288e-05
-0.0515808
1.32446
0.0110338
-0.000125826
-0.000116035
-4.22308e-06
0.00119104
-0.0900993
-0.0194811
-0.000251127
-0.0530076
-0.0140346
-8.48134e-05
0.539329
-0.00722967
0.846609
-5.20252e-05
-0.0173505
-0.000138766
-4.83704
0.00369985
0.005396
-0.00123315
-5.91589e-05
-1.40405e-05
-8.0345e-05
0.00972967
0.000166905
0.0390258
-0.0258442
-0.0167085
-5.37624e-05
-0.00449917
0.0649326
0.0557457
1.69661e-05
6.44719e-05
-4.7749e-05
-0.000190413
-0.000383268
1.89256
2.71638e-06
0.760769
-0.00043982
0.231665
0.0085504
-0.961238
0.00645103
-0.000113594
-0.00746266
1.30422
-0.000102822
6.74392e-06
0.0626241
0.0422966
-0.0275799
-1.25742e-05
-9.63534e-05
0.0651671
0.000185353
-0.0106854
-0.0305758
7.59515e-06
-0.0186901
-0.0466993
3.29285e-05
0.000207932
-4.86165e-05
0.453944
9.22319e-06
-6.08582e-05
1.50904
-8.92088e-05
1.23224
-0.000473627
0.000160553
-4.79963e-05
0.00141198
-3.68972e-05
-0.000441587
-6.11463e-05
0.00480163
4.03178e-05
0.17757
0.0408508
0.151048
-2.49579e-05
1.56302e-06
0.00415306
0.000599796
0.227187
-0.292744
-0.00621663
-2.8096e-05
0.00756251
0.0237857
0.874291
0.0379224
-0.00859221
0.0964926
0.000200997
0.00172099
0.00278936
0.016652
-0.0060535
0.0719238
-0.0050657
0.000161854
-0.0389233
4.73985e-05
-1.2406e-05
-0.000112855
0.000704244
-0.000102577
-3.59749e-05
-5.82604e-05
-0.0155398
-5.47931e-05
-0.0100686
-2.34316e-05
-2.07284e-05
7.16262e-06
-8.05151e-05
7.5665e-06
-0.000211208
-4.77756e-05
-1.29876
-0.00892746
-0.101973
-5.61728e-05
-4.84922e-06
0.000581696
-0.00115064
-1.4111e-05
0.000863402
0.00528474
0.258673
-0.000223216
-0.0111675
-2.43679e-05
5.93593e-06
-5.63827e-05
-0.000110954
2.13478
-1.98835e-06
-8.0788
-0.000228714
0.695723
0.000980039
0.00546178
0.341252
-4.17584e-05
2.35085e-06
-0.0103548
-2.79745e-07
-0.000110853
-0.0108606
-9.01363e-05
3.47909e-06
-0.000711937
-4.64806e-05
-5.64476e-05
-0.000176643
-0.00345805
0.0810427
7.38536e-05
3.5173e-05
-6.76912e-05
0.0635321
0.00873165
-0.000114571
-9.74119e-05
-0.0107117
0.258896
0.51311
0.000338029
0.000150662
-6.13348e-05
-5.21752e-05
-0.0066149
1.22617e-05
0.0810209
8.80517e-06
0.124038
-9.13859e-05
-8.02442e-05
-0.969803
-2.18734e-05
-0.00102659
-9.03967e-05
-3.96302e-05
0.000584544
-0.00302076
-9.42858e-05
1.10506
-0.27744
0.00870757
-4.21816e-05
3.05782e-07
-0.0575885
-12.0637
-5.89108e-06
-1.1655
2.61657e-06
0.000282932
5.23653e-05
-1.11581e-05
-0.222094
-2.58212e-05
0.932946
-0.000889105
8.40628e-06
-2.79169e-05
1.76607e-06
-6.46474e-05
0.000184693
-0.0278837
1.73829e-05
-2.39777e-05
-0.161606
-0.143383
-0.00373748
0.000786473
-0.0140895
-0.000422471
-4.28343e-05
0.000267869
-1.14594
0.00702045
-1.04839e-05
-9.56741e-05
-0.265732
-0.0037083
3.08453
5.22891e-06
1.00401e-05
0.447999
-0.00301306
-9.98295e-05
2.60541
-0.0390289
-6.37432e-05
0.00234889
-5.66472e-05
-2.16858e-05
-5.50425e-05
-1.23407
8.76482e-06
8.20677e-05
-4.43187e-05
0.865102
0.000391364
0.04362
0.00246449
5.03983e-06
0.000110406
-2.10149e-05
2.53294
-4.29683e-05
2.62509e-05
2.49903e-06
-0.0594949
4.98061e-06
-0.0100884
-0.56704
0.00862072
-4.48029e-05
0.0464821
1.91963
-6.41811e-05
0.753474
4.45362
2.17484
-0.152544
-0.152809
2.69745
-0.00477838
-0.000108032
0.0356231
-0.0028603
-0.0546024
4.55554e-05
-6.73013e-05
-0.000116768
-2.62915e-05
-0.000591789
-0.000184021
0.364921
-6.29667e-05
-6.04187e-06
1.03384
0.0545765
7.14542e-06
-0.00416149
-0.000934908
-6.30804e-05
0.0230729
-0.00194907
-6.76703e-05
0.000359056
-0.493463
0.305458
-0.0724376
4.53676e-05
0.0511392
0.0090897
2.28456
-0.0435062
-0.0120983
-9.09305e-05
-3.22394e-05
-8.69219e-05
8.97465e-06
-0.000103471
-4.23811e-05
-0.000138436
0.000195385
-2.87175
-0.0660316
7.66336e-05
-0.0089979
0.0902998
0.000266441
-5.27111e-05
-0.970973
-6.43675e-05
-0.00010486
-0.000124022
-2.99931
-5.55918e-06
-5.41003e-05
-0.0668407
0.0467187
0.465045
-0.0275482
0.0462475
-5.09574e-05
-0.00528623
-6.16193e-05
-4.44302e-05
-3.96062e-05
0.0736336
0.345786
-1.51621e-05
-1.87919e-05
-9.65589e-05
0.210794
-0.000103461
-0.00123375
4.47105e-08
-9.79407e-05
-0.0010646
1.10921e-05
-0.000867209
0.0703047
-0.203225
-7.67593e-05
0.00442487
-0.000125091
-1.13437
-0.282478
-2.91007e-05
1.43502
-0.0139721
-0.0175325
5.58882e-06
0.191483
4.88348e-06
-0.000641866
0.000490969
-0.0226558
0.0485987
0.476424
1.4395
1.58784
-6.22467e-05
-0.133068
-1.10331e-05
3.83846e-05
-0.102499
-7.88108e-05
7.90314e-06
-0.000115144
-6.38507e-05
-2.63773
-3.73419e-05
-3.02794e-05
-0.0175882
4.98905e-05
-0.011505
0.02636
-0.0659474
2.30042
0.00577199
-0.0033334
0.00193341
-0.0706867
-0.00553762
5.72126
0.0142802
-0.00030807
1.85573e-05
-0.142851
0.483429
-2.27299e-05
-0.00869157
-0.00157202
5.18753e-05
-0.000665092
-5.23944e-05
0.000558858
5.67224e-06
-0.00856691
0.00441456
-5.47583e-05
-0.00203969
-2.59049e-05
0.00239589
-6.09095e-05
-0.000150736
-0.0111001
-8.17591e-05
-7.90789e-06
-1.34681e-05
0.0543076
0.00654926
0.960015
-2.47714e-05
-8.33824e-05
-0.0166787
-8.70666e-05
4.03784e-05
0.00601356
4.93538e-05
-0.0102699
-1.21871e-05
0.47974
-2.34344e-05
-0.00384921
0.125251
-0.0790077
-5.64725e-05
-8.18604e-05
0.0497474
-3.92335e-05
-4.8909e-05
2.34833
-1.10745
4.42293e-05
0.257057
-2.8841e-05
-3.4886e-07
0.0664167
-0.000139417
-4.02805e-05
-1.22178
-8.91037e-06
0.0739339
-1.07101e-05
-4.36249e-05
-0.000117155
-0.0715965
-0.161185
-6.45312e-05
-0.000122456
-5.09838e-05
1.14426e-05
-4.29232e-05
0.0664244
-0.00309725
8.76136e-07
-0.108517
0.0018625
-0.127901
-0.121637
0.00318981
-4.24916e-06
-5.16026e-05
-0.00010277
0.101451
4.70705e-05
-0.099966
1.15542
-3.71615e-05
-0.103058
0.0999045
-0.00942774
-0.0195208
0.00377596
0.0151661
0.0510926
0.00254113
0.368417
0.000792973
-0.0188868
-6.19016e-05
-0.0604371
0.000719865
7.9005e-06
-9.56763e-05
7.94297
0.000533916
-7.88276e-05
0.00154988
0.00128116
7.10552e-05
0.150844
-7.93021e-05
1.29354
3.13541e-05
1.95728
-0.00593732
0.0563429
-0.000868453
-3.29436e-05
-9.1737e-05
-0.0176599
-4.01596e-05
-6.25155e-05
-6.50808e-05
-0.00014991
-6.62101e-05
0.000322935
1.45923
0.0301154
0.00241999
-0.00466072
0.238359
0.0531036
-6.4342e-05
0.774607
0.10212
-5.04303e-05
-5.03198e-05
-0.00114758
2.29901
2.74009e-06
-0.00652916
0.0982155
0.000960291
-2.59672e-05
9.42456e-05
-1.56663e-05
-0.0078859
0.000411321
-4.75169e-05
2.7211
0.0833855
0.000776408
-2.95802
-0.0177119
1.4236
-7.94152e-05
-0.000492813
0.09429
-6.40795
-0.0125453
0.0597306
-0.000236039
7.11498e-06
-6.05226e-06
-9.01007e-05
-2.49194e-05
-5.65964e-05
0.00159879
-5.3927e-05
-0.158412
-4.70979e-05
-0.000744184
-4.29695e-05
0.00573913
-0.089606
0.251941
-5.92576e-05
0.0554673
-5.6583e-06
0.0834644
-2.23133e-05
5.17124e-05
-1.45589e-05
0.0532369
-1.14207
0.0709997
-5.86961e-05
-0.0630786
-0.000102417
-0.000286327
-0.866024
-4.38169e-05
-4.03914e-05
-0.000143824
-0.000718786
-0.0807994
-5.62134e-05
0.00011077
0.000212966
-3.42336e-05
0.000881068
-0.000101369
-5.60338e-05
-7.43624e-05
-1.29639
-0.000244133
0.0582815
-0.168432
-0.00546631
-0.212348
-0.000222513
-5.59043e-05
0.000318657
-1.04486
0.000174774
0.00030822
-0.00863974
0.990094
-6.59438e-05
-0.544937
-0.00214832
-0.00837551
-4.3699e-05
-3.41799e-05
0.72136
-6.36497e-05
8.01182e-06
0.000670383
8.573e-06
-8.87095e-05
-0.000432723
-0.0334256
0.0834281
-0.00696561
0.000499723
-0.0368151
0.739528
-0.326046
-0.00447037
0.0238863
2.2356
-0.00389329
6.34487
-9.68628e-06
5.97737
-0.161909
-4.17665e-06
-5.40858e-06
-4.46226e-05
6.56861e-05
7.78955e-05
2.10381e-05
1.27952e-05
-0.0045776
-0.000170714
0.000372967
-0.297441
0.000129934
-0.000234799
-0.25646
-9.08828e-05
0.574943
-2.59774e-05
0.000955483
-6.73967e-05
-1.04774
0.737432
-0.000101494
3.86244e-05
0.27875
2.21696e-05
2.31467
-4.50815e-05
-6.17667e-06
-0.132237
-3.10363e-05
-6.32186e-05
-3.60004
-5.95355e-06
-0.00397805
-0.000306815
-3.23026e-05
-6.57648e-05
0.0475132
2.11054
-9.05415e-05
-0.000103893
-6.69065e-05
-0.000190374
-0.000110498
-0.675203
-9.97825e-05
0.0474805
-0.0389553
1.3917
-6.46666
-3.26006e-05
-0.0411426
0.0189588
0.000200024
-2.03613e-05
-0.0203129
0.00162823
-8.39221e-05
0.000882837
-0.0771421
0.0437295
0.00627782
-2.79065e-05
-0.000112092
7.05894e-06
4.21424e-06
0.768878
-0.0138126
-8.95329e-05
-4.44635e-06
-0.000286606
6.22292e-06
-8.2313e-05
-7.18129e-06
-0.0362477
0.000385841
-0.119295
0.000531574
-2.5938
-0.18443
0.000260712
-0.0095902
-5.55827e-05
0.000180756
-0.977779
-8.91815e-05
-9.6497e-05
-0.012232
-0.03624
-0.00193047
0.396157
0.0449508
-6.2505e-05
0.193066
-1.11387e-05
-5.64975e-05
0.0037894
7.41234e-06
2.79524e-05
-0.0335511
-2.26069
-1.40931e-05
0.110005
-8.28593e-05
-1.28225e-05
-0.000107867
0.0418861
-0.000216753
6.27315e-05
10.619
-0.000119713
0.0894512
-0.117088
-7.29067e-06
0.000123936
-4.48446e-05
-0.568099
-0.00774034
5.50204e-07
0.0892877
-0.0101736
0.0029554
9.96402e-06
0.637735
7.26011e-05
-0.0383177
0.000165073
0.00248518
-1.08107
-2.56163e-05
0.0518086
-6.102e-05
-0.00147912
0.000622718
-8.04173e-06
-0.313388
-7.65802e-05
-0.0396998
-0.00378093
-0.00503843
0.000562883
-0.000534206
-9.97471e-05
-0.0736557
2.78932e-05
0.891587
0.000144415
-0.026846
-7.37039e-05
0.000176687
-2.68801e-05
0.00626941
0.0387
-9.8278e-05
-5.77743e-05
0.46811
-6.71091e-05
0.944947
-0.000113409
0.0911837
1.49485
9.71466e-06
-4.15808e-05
-4.84752e-05
-5.02186e-06
-3.86202e-05
-0.00502217
0.0036675
-0.00110586
-0.000227748
-3.22241e-05
0.0213576
-0.000122364
6.33041e-05
0.773611
-2.56026e-05
-4.66454
-0.01134
0.000238988
-0.0178037
-0.381466
0.0281386
0.0769149
0.148819
-6.96333e-05
0.0906394
2.58811
0.0559755
-2.21799e-05
-1.92017e-05
-0.0845824
0.0736622
0.569458
0.118197
0.000120777
-0.000513778
-0.00434291
-0.199827
-0.208971
-0.00850277
-0.0896478
-8.73407e-05
0.00594548
-0.00500075
-2.51605e-05
0.00361841
0.0443951
-5.10692e-06
0.0183576
4.3981e-06
-2.43838e-05
0.0817928
0.0372551
-5.49668e-05
0.000131937
-0.000115354
-1.43473e-05
0.00121018
-0.0778237
8.79118e-05
-4.12298e-05
-2.7513e-05
-0.00469647
-0.000388214
-0.000323105
0.0297695
-2.21165e-05
-0.232573
2.55873
-0.0750598
0.0127326
-0.00176623
0.292422
-0.00250932
0.041201
0.00929171
0.258246
-9.77257e-05
-1.85035
-0.251699
-5.97673e-05
-3.48866e-05
0.0109978
3.87954
0.280111
5.42566e-06
-0.000103659
-0.196038
1.15534
0.218128
-0.000196101
-4.40458e-05
-0.0892926
-0.000102274
-0.149947
-3.51189
0.053306
0.310538
-2.72198e-05
-6.13264e-05
-5.68974e-05
-8.29114e-05
0.261339
-0.00733761
-0.000325437
-1.6841e-05
0.00445349
2.27785
-0.00426303
1.10566
0.747636
0.454069
0.0423579
-2.04819e-05
-1.9666e-05
0.089049
-3.41128e-05
1.22735e-05
-9.75058e-05
0.262748
-0.0038155
-3.39024
0.00571483
-3.3985e-05
-0.289338
-0.000888758
-6.3622e-05
1.98139
0.00915704
-6.49881e-05
3.51216e-05
-0.815857
2.4185
4.21363e-06
-4.16096
-0.0473511
-0.00786681
0.313363
0.00607218
-8.40852e-05
-0.000108624
0.385962
-0.000433421
0.0778387
-0.000506673
0.240287
-2.27582
-7.26555e-05
9.46628e-05
-8.86094e-05
-0.000103937
1.89239
0.949389
-8.83237e-07
0.821413
-0.00827297
-0.000104895
-2.25337e-05
-4.79837e-05
-0.0180086
-0.000107737
0.0915345
0.0015361
-8.00789e-05
-6.66022e-05
-0.00100057
-1.62675
-0.00342241
-9.65534e-05
-0.000610118
-2.50505e-05
-0.000168437
-0.000953761
1.76992
0.0774459
3.2956
-4.84554e-05
-5.94099e-05
-9.80428e-05
-0.0163504
-5.38035e-05
-9.25019e-05
-0.160427
-0.0180581
0.0295702
8.31152e-06
2.14004
0.0311718
-3.90213e-06
2.71443
-0.0515007
-0.00505098
0.0373317
-0.000107289
-2.50905
0.000153971
-0.000107198
-2.53169e-05
-3.55933e-05
0.159115
-2.65136e-05
0.00014118
-0.000602421
-0.267759
-0.17991
2.67259e-06
-5.70867e-05
-0.000188158
-7.53385e-05
-0.00439258
-5.28837e-05
-0.00190748
-0.000120348
0.00399698
3.63107e-05
-0.136748
-4.57257e-05
1.08265
-0.000102144
-3.34388e-05
-0.158995
0.0286059
0.00237547
0.0600784
0.000180659
-0.0053219
-6.68833e-06
-1.21301
2.22861e-06
-5.06497e-05
-0.0195234
-0.00413954
-2.444
3.46692
-0.00775103
-2.7304
0.00746314
0.055882
-1.88088e-05
-0.000390762
-0.00110688
-0.547628
-4.94924e-05
-0.696865
0.359579
2.25467e-05
-2.21796e-07
-9.71785e-05
0.389851
0.0155509
-0.000100292
-2.24961e-05
-1.85873e-05
-0.000345484
-0.00396709
0.0503186
0.0737686
-3.56847e-05
0.156203
0.00484879
-1.87119
-0.00859298
-0.000123844
-0.000234398
-0.374554
-6.01707e-05
-0.000890758
0.00735788
-0.000119454
-0.000219353
-0.0195063
-0.0258464
-0.000101041
0.372226
-0.000276345
-0.244613
-8.98463e-05
0.000102125
-2.85153e-05
2.40668
-5.58964e-05
0.00577855
0.0155218
1.57049
-0.00349257
0.00299342
-0.000307092
0.00101894
4.87562e-06
1.23548
-0.000718146
-2.21199e-05
-0.00135532
-2.92125e-05
-3.66073e-08
0.206819
-2.05249e-05
-2.4482e-05
-9.82365e-05
-0.0751706
-1.41047e-05
-4.40358e-05
-0.0358932
0.0460523
0.00452363
8.9563e-06
0.0169278
0.0485754
0.0382966
0.00573405
0.000839816
-0.0223997
0.00208575
0.133419
1.69179e-07
-0.0260104
0.102469
8.33639e-07
-0.000246047
-4.09175e-05
0.00967503
0.0110984
9.44218e-06
0.00496796
-1.01178
-6.88297e-05
-1.40339e-05
0.38264
0.225894
-0.00631799
-3.38937e-05
0.376494
-0.057932
0.249719
-3.56948e-05
-0.454777
0.00179022
0.0029233
4.43979
-0.000625431
-4.14377e-05
-0.00107865
0.032534
-0.00223117
0.13172
1.98
-5.91076e-05
0.920817
0.0659613
3.01458
-4.41324e-05
-0.00122413
2.00875e-06
-8.65568e-05
-0.0428463
0.100757
0.159157
-0.000740633
4.27881e-05
-0.00406921
2.58059e-05
2.99937
0.694781
-7.25467e-07
-9.41069e-05
0.000199714
3.8202e-06
-0.0103558
-0.162317
-6.65867
-0.00449974
-0.000105459
3.72734e-05
0.0117432
-1.59741e-05
-0.00910775
-5.18435e-05
-9.84721e-05
0.148601
0.100559
0.244627
0.0190467
-1.90753e-05
0.00806893
-4.23278e-06
0.000664527
0.519567
2.3207
-1.991e-05
1.22065e-05
-0.00257019
-9.18246e-05
-1.95911e-05
-0.105575
-0.827184
-4.20015e-05
7.12041e-06
4.62232e-06
-4.23192e-05
0.036632
-1.52012e-05
0.232156
-0.00686075
-5.67057e-05
-6.08863e-05
0.00098212
2.60115
-0.00286926
0.0732661
-2.08491
-0.000110227
-1.67786
0.000287794
0.00117586
0.0816519
-1.92478
3.1608
-0.00826825
-6.67748e-05
0.0341398
-1.54552e-05
2.52131e-05
-4.58065e-05
0.279931
9.5631e-05
0.18775
0.18362
-0.00467666
-8.26354e-06
0.0605933
-0.000868708
8.66053e-07
-0.0920642
-3.22436e-05
0.0019486
-0.001846
-4.00332e-05
0.456538
-8.2477e-05
-0.188622
-0.000103418
-4.72391e-05
-0.560394
-0.109442
-6.10182e-05
-0.000345304
-0.00507707
0.00279394
-0.0205823
-0.000366459
8.35218e-05
-0.000440906
0.0760622
-6.26769e-05
0.200431
0.00211789
0.0530568
-0.00885717
-3.63854e-05
-0.128769
-4.01617e-05
0.00180307
-1.80897e-05
2.39554
0.180778
0.175996
0.200634
0.0067508
0.00337045
5.3418e-06
-0.177979
0.00418947
-4.18106e-06
0.166554
-0.175007
-9.47643e-05
-6.62337e-05
-0.000445985
-0.000481771
-0.00283746
-1.29109
-3.75695e-06
2.60706e-06
-0.00383468
0.000411372
-2.25243e-05
-0.051408
-7.8486e-06
0.136204
-8.42933e-05
0.00956162
-0.000904939
-0.00392772
0.0157401
0.275669
0.00536295
-6.34332e-05
0.033355
-0.113617
3.84884
-6.93528e-07
0.122803
-0.00109746
0.0144075
7.96961e-07
-3.92341e-05
-0.0433935
-0.00523095
1.86915
-1.4792
0.000341007
-0.40098
-9.77436e-05
5.12964e-06
-1.89373
-0.00358523
-4.33995e-05
-0.188605
-0.000351577
0.00088884
0.000143616
0.00425954
-8.60226e-05
0.129937
-0.12355
0.985788
-0.0348186
-0.000440969
0.00235399
2.16921
-5.64941e-05
-0.000101413
0.00586637
-5.55874e-05
0.026062
-2.17255
0.727402
0.364258
-0.0178538
-2.72847e-06
-0.205555
-1.69204e-05
-0.0374915
8.71631e-07
1.06432
-0.000114901
-0.000624093
0.0410684
-0.00644112
-4.09419e-05
0.000112625
-4.01567
2.35868e-06
-0.0618104
-5.18707e-05
0.302084
-0.0036683
-0.0573299
0.00299775
-4.68565e-05
2.8791
0.101501
-0.00345867
-4.93299e-05
2.81441e-05
-3.40626e-05
-0.0188142
-8.16323e-06
-0.0518623
1.19722e-05
-4.43098e-05
-0.824031
-6.19018e-05
-0.000350388
-0.000240977
5.85936e-06
-0.0963485
-6.57887e-05
5.97846e-05
0.059233
-0.00351698
0.321356
-2.14122e-05
2.89155
-0.00492967
-0.15589
-9.38047e-05
-0.105078
5.03105e-05
-0.00534926
-0.116838
-0.066904
0.0286192
-0.65682
0.0218932
0.568635
-1.37581e-05
-0.0864
0.000869957
0.050322
-1.51739e-05
4.93255e-05
-2.5583e-05
-0.0155082
0.000985764
-4.60886
-0.0111885
0.0344115
-7.32574
0.0390288
-9.94524e-05
0.66405
0.0150724
-5.42587e-05
-5.78109e-05
-5.02011e-05
-0.0492159
-2.03167e-05
1.19461
-6.28684e-05
-0.000828871
-0.766493
0.00624196
-2.99684e-05
-2.53889e-05
-2.52978
-6.84593e-05
-5.53513e-05
-0.000447918
6.54619e-05
-0.000513637
-0.000116548
0.640098
-0.00239809
0.000739424
0.0485796
2.92168
-0.0636782
-1.45317
-4.85073e-05
-4.97948e-05
0.00607458
-4.13303e-06
0.00203998
0.149545
0.0983928
-3.13336e-05
-7.9863e-06
-0.0948889
0.376682
-4.00702e-05
-6.14106e-05
-8.88374e-05
-0.853992
0.0690427
-0.000426286
1.2814e-05
-2.21933e-06
0.0439561
-0.0512352
0.00613105
-0.000520196
0.000473261
-1.23582e-05
-0.00109945
0.0300234
-6.09587e-05
-6.81261e-05
-0.000322432
-0.0160011
-3.68568e-06
2.6893
-2.76607e-05
0.00928873
0.000417314
0.000353579
-5.37819e-05
-4.89383e-05
0.167897
-0.00874271
-0.00493059
-0.16007
-1.13653
-0.000104389
0.0338217
-0.00406475
-6.57457e-05
-0.0468923
0.0425795
-0.0506125
4.50857e-06
-0.235415
2.55309
2.53397e-06
0.000595465
0.195858
0.000927491
-9.77218e-05
-4.98439e-05
-9.73848e-05
-0.000187784
0.00101232
-0.211137
0.00750474
0.00407215
-5.9577e-05
-0.000105626
0.0522289
-6.31073e-05
0.00123145
-0.000214995
0.000118408
-0.00400343
-3.44223e-05
-7.25897e-05
0.000933939
-4.03148e-05
0.198438
-3.20097e-05
3.36425
-0.183911
-0.0065543
-0.000117131
7.35198e-06
-0.618512
-3.73632e-05
-0.000199144
-2.37858e-05
0.0640819
0.0707492
-0.00174337
-0.145701
0.000464945
0.34393
-4.91645e-07
-0.0290215
-1.27494e-05
-1.44306e-05
1.05627
0.00560664
0.207006
-0.000160604
-0.0220826
-0.0258338
-1.61435
0.00865949
0.000327007
-0.000643426
-1.93472e-05
-0.884763
-4.97194e-05
-5.92057e-05
-0.0926072
-0.0742809
0.000102343
0.012122
0.000560575
7.7066e-05
-0.000455536
-0.330759
-0.000284655
-4.20542e-05
2.31213
0.00501651
-4.00614e-05
-0.208113
-3.81743e-05
-2.13145e-05
-0.0160734
0.0195695
-4.7941
-4.81632e-05
-1.92004e-05
-6.05808e-05
0.0533034
-7.04771e-05
0.00189937
0.00359829
-0.202558
-0.267931
3.5634
0.000289682
-1.25859
-0.0496923
-2.43261e-06
0.000176647
0.000779316
0.000108318
-0.0327899
-0.027044
3.84747
-0.122455
0.0777925
-9.39642e-05
-0.054269
-4.07998e-05
0.47224
-0.00100195
2.68525e-05
-0.000246649
-0.000121587
-7.64826e-05
-0.0353585
4.09174
-5.09538e-05
-0.000223841
-6.13276e-05
-0.758026
-0.000195034
2.45548
0.501277
0.195168
-1.0576e-05
-7.94416e-05
0.16711
0.225859
-7.07762e-06
0.0506952
2.9066e-06
0.0220032
0.0138768
-0.0110581
-0.0135063
0.229736
-5.25581e-05
5.78553e-06
0.205807
-0.182811
-0.000406398
0.00093528
-8.29382e-05
-1.97764
-3.47716e-05
-6.15917e-05
-0.000174282
-5.66089e-05
-1.52437
0.122185
0.0914339
0.00123366
-0.758652
-0.0769595
-3.96262e-05
-0.00231279
-4.27939e-05
-0.0209294
-5.11255e-06
-7.83364e-07
-3.71935e-05
-5.02172e-05
-1.32301e-05
0.4098
9.23904e-05
0.0709608
3.87064e-05
-0.00039468
-7.11332e-05
-0.0469261
-3.45048e-05
-0.00214074
-0.00382957
0.00408163
-1.01211
-5.14559e-05
0.298459
0.00395347
0.000923096
-3.33045e-05
-5.25546e-05
-0.232781
8.21986
-4.37105e-06
-6.08725e-05
-5.84238
0.0448638
0.00156808
-0.0571009
-0.000121367
0.0346799
-0.00254998
-4.52147e-05
-0.132845
0.000245275
0.00892513
-1.96349e-05
-0.000141351
-2.15579e-05
0.0652026
-0.200709
-3.94871e-05
0.00618086
0.092271
-3.88887e-05
-5.5207e-05
-6.75746e-05
0.0119486
0.0587718
0.00316897
0.000195724
-0.00106635
-3.62148e-05
-5.4748e-05
-0.000217355
-3.98822e-05
-0.0629177
-3.81364e-05
-0.0208469
0.157366
-0.000544339
-4.24647e-05
0.265822
-0.0281044
-3.50526e-05
0.00701111
-0.00191574
0.0805268
-1.97886e-05
4.00385
-0.00172099
-0.000100554
0.00433542
0.00195815
-0.000334689
2.02385
-0.0167444
0.000612343
0.0627033
-9.2255e-05
0.0195484
0.00305449
0.0141824
-4.71276e-05
-7.89837e-05
-3.38723e-05
0.000727547
-0.017131
-0.0186238
0.350501
1.45985
0.383587
7.41856e-06
-0.0261421
-0.12074
0.00828735
-4.07233e-05
-0.000104295
-0.0135959
-0.00256722
-8.53343e-05
-0.00430266
2.92077
-0.438997
4.26116
-0.0193713
-0.0166256
-0.13329
0.0682665
1.65428e-06
2.75618
-0.143846
-9.77647e-05
-2.32144e-05
-8.58134e-05
2.46258
0.00597808
-0.135776
-0.000173599
0.204575
-8.56943e-05
-3.90912
0.00456574
-0.000106483
-0.00354799
-1.14711
0.0210889
-0.00137296
-0.000161374
-7.32525e-05
-2.62964e-05
0.0250193
-0.066948
0.282605
0.0338775
-4.4007e-05
0.942436
0.0288532
0.951242
-4.05328e-05
-1.985e-05
1.64317
-0.00171266
-7.87339e-05
-0.00139841
0.0090233
0.000418559
0.164382
-0.0610041
2.60733
-0.129785
5.1318e-05
-1.02525e-05
0.00279223
0.306736
0.250779
-1.88609e-05
0.0246109
-0.000825909
0.0192429
0.000166252
2.12377e-06
0.0557944
0.394276
0.112038
0.0790049
-0.208553
-4.13012e-05
-0.184015
-0.156144
-5.36737e-05
-0.00483694
-0.0105792
-4.12819e-05
-0.0741358
-0.15557
0.0619329
7.3639e-06
-0.0419572
-0.0287177
2.69183
1.14294e-05
-2.67108e-05
-9.08737e-05
0.000249505
-9.51983e-05
0.0017929
0.000620442
0.000799418
-0.163145
-0.00335064
-0.076255
-5.79981e-06
0.000650006
-7.88138e-05
-3.1245
-0.00378736
2.97193
5.05033e-05
0.000177417
8.45568
0.0197114
-2.05563e-05
-0.000790436
0.276097
-0.154448
0.0256194
-9.76517e-05
-7.77265e-05
-8.89563e-05
-1.16482
-7.70354e-05
0.0391355
0.00588134
0.0089774
-1.9461e-05
0.0403556
2.33392
-9.97837e-05
-2.19241
0.000198141
0.000283095
-7.65707e-05
-1.44641e-05
-0.00417624
-0.326804
-3.57825e-05
2.05772
0.0974234
0.0325188
0.0327387
-6.66169e-05
-3.917e-05
-0.00154088
0.000108999
2.97832
-0.613456
0.00410903
0.174652
-9.83262e-05
-8.3825e-05
-8.99258e-05
8.56375e-06
-7.25304
-7.24774e-05
2.02796
0.000960226
0.000170944
0.176538
0.3227
-0.220264
2.60676
-0.00012943
-1.52932e-05
-8.0806e-06
0.000309639
-0.0970456
0.00744559
1.5536
-4.12423e-06
-3.79654e-06
0.0140055
-8.08892e-06
0.150639
-5.18065e-05
0.00885388
0.00939448
0.000775178
0.000560448
-4.60635e-05
-0.00340767
0.000457796
0.019661
-0.0035753
0.00123608
-5.40335e-05
0.0406071
-7.85229e-05
0.532245
-0.0661916
-0.00812534
-6.03244e-05
0.00343003
-8.50289e-05
-0.00663142
-0.000151899
9.31414e-05
0.000207381
0.646635
0.0485579
0.00302737
0.00110959
0.0145013
0.00535408
0.176571
-0.891942
0.000219529
-1.06664
0.0680126
-6.08341e-05
-0.00353713
-0.44192
-0.00657483
3.76585e-06
-0.00160902
-0.0328974
0.0282162
-1.86722
-7.15276e-05
0.150012
1.12727e-06
-7.74921e-05
-0.00410447
0.034901
-6.74512e-06
0.141535
0.804491
0.113963
3.75556
0.018022
2.59566
0.0478277
-4.32804e-05
-0.000294038
1.11799e-05
0.00440249
-0.0156315
-0.123304