/*--------------------------------*- C++ -*----------------------------------*\
| =========                 |                                                 |
| \\      /  F ield         | OpenFOAM: The Open Source CFD Toolbox           |
|  \\    /   O peration     | Version:  v2012                                 |
|   \\  /    A nd           | Website:  www.openfoam.com                      |
|    \\/     M anipulation  |                                                 |
\*---------------------------------------------------------------------------*/
FoamFile
{
    version     2.0;
    format      ascii;
    class       volVectorField;
    location    "250";
    object      U_0;
}
// * * * * * * * * * * * * * * * * * * * * * * * * * * * * * * * * * * * * * //

dimensions      [0 1 -1 0 0 0 0];


internalField   nonuniform List<vector> 
13917
(
(1.08975 0.104219 0)
(1.01985 0.0370582 -5.60129e-21)
(0.354102 -0.0271495 0)
(1.05028 -0.0211716 2.71334e-21)
(0.996593 0.00520766 0)
(0.363336 0.128322 5.86178e-21)
(0.264409 -0.0665159 -1.62007e-19)
(0.378661 0.00964186 3.6884e-20)
(0.501382 0.105573 -7.87682e-20)
(1.12749 0.113512 0)
(1.37049 -0.0645424 0)
(1.16303 -0.130219 -9.57889e-20)
(1.0505 -0.0226127 1.50721e-20)
(-0.284406 0.00845979 1.07001e-19)
(0.978269 0.090047 7.4742e-21)
(0.999485 0.0831036 0)
(1.0148 0.0416723 0)
(1.12978 0.0567479 0)
(1.15559 -0.129881 9.91888e-20)
(1.00214 0.00550794 1.22534e-22)
(1.00004 0.00196127 3.53882e-21)
(0.238304 -0.0691038 1.09579e-19)
(1.00178 0.00859551 0)
(0.429302 0.00706004 0)
(0.995636 0.0122965 0)
(0.278796 -0.126208 6.24299e-21)
(0.786329 0.0524085 0)
(0.771416 0.145196 0)
(0.813082 0.627164 -1.23722e-20)
(1.13011 0.0693472 9.44247e-20)
(1.09862 0.0955 -3.43659e-20)
(1.05803 0.0818559 0)
(0.844363 0.0803777 4.20389e-20)
(0.910548 0.0014752 2.02524e-20)
(0.992167 0.00939332 0)
(0.967417 -0.113532 -1.40036e-19)
(1.00166 0.00844344 -2.0139e-21)
(-0.0752445 0.0216652 -8.01293e-20)
(1.05847 -0.034054 -4.00957e-20)
(0.0827462 -0.0702141 -8.34432e-20)
(1.00796 0.000597609 1.1239e-22)
(0.999985 0.000795999 -5.74878e-22)
(1.01864 0.00294854 7.13364e-21)
(0.726762 0.238079 6.77387e-20)
(1.03695 0.02355 0)
(0.892738 0.0180839 -2.18353e-20)
(1.13036 0.0544712 0)
(1.16729 0.0534416 0)
(0.115352 0.239671 0)
(1.00397 0.000730471 4.02265e-23)
(1.09054 0.0189368 0)
(0.965977 0.00464895 1.83843e-20)
(0.0848321 0.224203 -1.61296e-20)
(0.905951 0.00344302 -4.37245e-20)
(1.01374 0.0424793 1.75642e-21)
(1.08302 0.0426409 -4.61591e-20)
(1.36695 -0.0546765 -3.85359e-20)
(0.996106 0.0237609 1.60273e-22)
(1.06854 0.0455728 3.84765e-20)
(1.03553 0.0230356 9.14927e-21)
(1.30363 -0.113093 0)
(1.02134 0.0373836 3.97583e-23)
(-0.209252 0.00405912 -1.16715e-19)
(1.00225 0.0058235 -6.44829e-22)
(0.392644 0.13834 -2.5086e-20)
(1.44197 0.363785 1.07111e-19)
(0.995504 0.00119812 1.33896e-20)
(0.9882 -0.00352406 -7.77004e-21)
(1.23977 0.121298 0)
(1.06597 0.11965 0)
(0.997029 0.00556785 0)
(0.530805 0.107556 8.75107e-20)
(0.172014 0.0342945 1.27524e-20)
(0.996296 0.0120871 0)
(0.121282 0.314615 0)
(1.12016 -0.187466 2.30287e-20)
(-0.00855024 0.0263725 -7.92452e-20)
(1.05272 0.026985 -1.02559e-20)
(0.32705 -0.180868 -7.3068e-20)
(1.00001 0.00376225 -5.5149e-21)
(1.00035 0.00497516 2.15972e-22)
(0.996039 0.00176112 9.72008e-21)
(0.417473 0.199676 1.18913e-19)
(-0.0325025 0.0262576 -3.41474e-20)
(0.121669 0.00268146 2.31508e-19)
(1.05164 0.0258247 -1.9201e-20)
(1.00076 0.00581915 -1.4632e-21)
(1.47373 0.400146 -6.37535e-20)
(1.08848 0.0183331 0)
(1.01909 0.00300088 -3.01264e-21)
(0.117028 0.0468793 -8.90302e-20)
(1.14037 0.0884281 1.19974e-19)
(1.02136 0.0205702 0)
(0.976446 0.0481546 5.9599e-22)
(1.4494 0.41634 4.10803e-21)
(0.386054 0.0646763 0)
(1.275 0.0348171 1.35828e-19)
(1.15343 0.0540992 0)
(1.18786 -0.274843 5.20803e-20)
(0.621983 0.174194 0)
(1.01011 0.00419014 -2.74606e-21)
(0.844544 0.0100819 8.53624e-20)
(0.713693 0.223558 4.15794e-20)
(1.06131 0.0208042 3.33702e-22)
(1.01472 0.0100085 -2.77246e-21)
(0.580551 0.0967492 0)
(0.891645 0.547729 1.82037e-22)
(1.16894 0.0568698 0)
(1.01656 0.042353 -2.36242e-21)
(1.10131 0.105157 9.38519e-22)
(0.207942 -0.0417889 0)
(0.0820307 -0.0789924 6.61684e-20)
(1.18972 -0.169259 0)
(0.553739 0.0963495 0)
(0.948791 0.00449435 -8.60919e-21)
(0.0790655 -0.00695801 7.49713e-20)
(1.0016 0.011867 -6.03793e-21)
(0.209818 0.188553 2.51474e-20)
(-0.216008 -0.0237418 -1.78397e-19)
(0.908314 0.0159223 2.1078e-20)
(1 0.00154637 6.03142e-22)
(1.23128 0.118684 0)
(-0.223922 -0.0132849 2.58594e-20)
(0.779153 0.137455 -1.90134e-21)
(1.00547 0.000574543 -2.66879e-21)
(0.977682 0.0454584 0)
(1.03244 0.0263102 1.12148e-20)
(1.00517 0.00049764 0)
(1.01597 0.0018507 0)
(0.364105 0.0814563 -8.01444e-20)
(-0.094421 -0.0303342 -8.55377e-20)
(0.951163 0.00344351 3.39548e-20)
(1.03736 0.0244489 0)
(0.999999 0.00157886 -6.63675e-21)
(1.05858 0.0860881 3.27947e-20)
(0.440207 -0.000820236 -2.53513e-22)
(1.08857 0.107753 3.05747e-20)
(0.598164 0.177549 0)
(0.995264 0.00137118 -1.71744e-20)
(0.90882 0.0115856 0)
(1.05928 -0.094383 -2.76819e-20)
(1.02241 0.0121823 0)
(0.963373 0.0168584 -3.46813e-20)
(0.677524 0.241322 0)
(0.987681 -0.00342706 0)
(0.653942 0.120963 2.88482e-20)
(0.892555 0.623242 1.77722e-20)
(0.96797 0.00510305 -1.54245e-20)
(1.02105 0.0103367 1.91507e-22)
(1.05439 0.0895187 4.36903e-20)
(1.17548 0.0016372 -1.71145e-21)
(0.0885328 -0.0402033 1.67657e-19)
(1.24758 -0.0581911 1.088e-21)
(1.04152 0.164296 -3.75908e-20)
(1.0718 0.0617312 0)
(0.0329383 0.142324 0)
(1.06145 0.118237 0)
(0.885737 0.084901 0)
(-0.028413 0.0217768 6.19264e-20)
(1.05873 0.081028 -3.32079e-20)
(0.942898 0.0416665 1.88449e-20)
(0.779986 -0.00829347 0)
(1.00014 0.00362909 8.32229e-21)
(1.27217 0.0261146 -1.44094e-19)
(1.19087 -0.161244 0)
(1.19329 -0.26591 -6.03335e-20)
(1.06014 0.0216226 1.33456e-22)
(1.16955 0.0308132 1.54438e-22)
(1.03013 0.0197485 -3.99912e-21)
(0.837006 0.00670226 -5.35715e-20)
(1.05792 0.154314 2.08846e-20)
(-0.00742775 -0.0122794 -5.75676e-20)
(1.17876 -0.196716 7.62354e-20)
(1.01303 0.0505463 0)
(0.697755 0.129091 -8.00683e-21)
(1.03693 0.18533 -1.66801e-20)
(-0.0656237 -0.0352654 -3.64492e-20)
(0.171134 0.193977 8.5291e-20)
(0.680092 0.124613 2.8519e-20)
(1.01177 0.0215894 -3.55094e-21)
(1.14047 0.08387 -7.9487e-20)
(1.10208 0.0937114 0)
(1.02291 0.01188 -9.49456e-21)
(1.00078 0.0062613 3.91728e-21)
(0.946676 0.112808 -1.38583e-21)
(0.341678 -0.135562 4.18437e-20)
(1.17083 0.0324677 8.74351e-20)
(0.17707 0.141073 -5.74026e-20)
(1.1066 0.0539504 -3.9289e-20)
(1.25764 -0.208318 -1.38356e-21)
(1.04587 0.0142667 0)
(0.291451 0.000748028 2.74583e-19)
(1.2088 0.0559277 5.85854e-20)
(1.0005 0.00903708 0)
(0.569962 0.112967 1.40782e-19)
(0.797132 0.0527928 -9.43222e-21)
(1.00671 0.000230347 0)
(1.02162 0.0215253 0)
(0.94612 0.465273 0)
(1.38246 0.419767 -1.45301e-19)
(1.08423 -0.00858614 2.66281e-20)
(1.0037 0.000664058 0)
(1.1666 0.0180247 -2.79594e-21)
(1.17355 -0.00235338 0)
(0.135476 0.0293275 1.43024e-20)
(1.08249 0.145674 0)
(0.992457 0.00883264 0)
(0.99539 0.0246821 0)
(1.15547 0.0505766 7.99208e-21)
(0.353984 -0.091724 0)
(0.965681 0.0170918 3.21223e-20)
(0.251005 -0.0548652 -6.61546e-20)
(0.0842071 0.0208335 2.99829e-20)
(1.26059 -0.199416 0)
(1.01443 0.0101102 1.25739e-21)
(0.537775 0.482175 3.23106e-20)
(1.15182 0.0409897 0)
(0.18263 0.0144396 0)
(1.00343 0.0145013 0)
(1.32657 -0.0920797 0)
(1.01143 0.020695 3.01165e-21)
(1.12333 0.0694424 0)
(1.00777 0.000731792 2.04729e-21)
(-0.0152406 0.0326053 -6.68954e-20)
(0.581089 0.0896569 3.0991e-20)
(1.00073 0.0863457 -7.2139e-22)
(1.31883 0.427104 1.56146e-19)
(1.07448 0.0611982 3.03982e-20)
(1.01383 0.00958646 -8.37419e-21)
(0.999673 -0.122959 1.83091e-19)
(1.1684 -0.195005 -7.97653e-20)
(1.10668 0.0519384 5.53205e-20)
(0.436838 -0.0191551 0)
(0.0708737 0.0188321 2.44698e-20)
(1.01072 0.00231675 -2.92268e-21)
(1.06086 0.0827734 1.85249e-20)
(0.159379 0.0537956 8.34663e-22)
(-0.116692 0.0891338 -2.32298e-20)
(1.00014 0.00408486 -4.98547e-21)
(1.00639 0.00716988 2.29126e-21)
(0.236848 -0.097192 -5.53811e-21)
(1.27832 0.061789 0)
(1.00006 0.000188759 -4.09087e-24)
(1.11548 -0.179053 7.19936e-21)
(1.1326 0.0791256 0)
(0.789259 -0.0148189 -1.03534e-20)
(1.08621 0.0938931 -6.62241e-20)
(1.0002 0.0039026 -4.02299e-21)
(1.0029 0.196769 5.79334e-21)
(0.0415812 0.0193988 -8.74273e-21)
(1.0382 0.00246659 -5.04469e-21)
(1.15553 0.0823231 1.36841e-21)
(0.588722 0.22608 0)
(1.03215 0.0251323 2.54785e-21)
(0.995571 0.022289 -8.92326e-21)
(1.20847 -0.0616418 3.46044e-20)
(0.209229 -0.118633 3.6525e-20)
(1.23873 -0.0599866 9.3781e-20)
(0.948257 0.117333 1.43659e-20)
(0.981793 0.0924064 0)
(1.00005 0.000331783 1.4858e-22)
(-0.260982 -0.0114496 2.98099e-20)
(0.982293 0.0969548 -2.17705e-20)
(1.06034 -0.270488 1.18739e-19)
(1.01345 0.00966183 7.88907e-21)
(0.210224 0.0209515 4.31169e-20)
(-0.220081 0.00906683 5.32214e-20)
(0.833859 0.0811107 0)
(0.307158 -0.178881 7.46442e-20)
(1.12276 -0.196209 1.00094e-21)
(1.00026 0.00472577 -3.89994e-21)
(1.00634 0.000650879 0)
(1.13428 0.0520648 -2.70779e-20)
(-0.033034 0.0332497 0)
(1.17524 0.0978924 6.46618e-21)
(1.0673 0.0435817 -5.07335e-22)
(1.07995 0.146133 -2.1801e-20)
(1.08909 -0.100891 -2.64438e-20)
(1.01595 0.00122869 0)
(1.04921 0.00138462 0)
(1.00255 0.00506641 -2.52859e-23)
(0.667786 0.125064 -7.0253e-20)
(1.08135 -0.00826193 -2.19301e-20)
(1.0001 0.000191787 4.56972e-23)
(1.00615 0.102553 -1.73226e-21)
(1.03706 0.1665 1.02632e-20)
(0.781631 0.00410579 1.30137e-19)
(1.0787 -0.165271 -8.30561e-21)
(1.00876 0.136308 3.71709e-21)
(1.04175 0.00958069 0)
(1.07854 0.0720191 -3.95615e-20)
(0.44775 -0.0119858 0)
(0.908566 0.0820886 0)
(1.00315 0.0142286 -1.84295e-21)
(0.823744 0.109678 -1.37264e-19)
(0.998493 0.00363415 -1.25824e-20)
(1.04175 0.00858224 1.18762e-20)
(1.00175 0.0114865 5.62875e-21)
(0.91359 0.6672 -2.16048e-20)
(1.00208 0.000972238 -9.91658e-22)
(1.12332 0.068375 5.37289e-20)
(1.08276 0.0942266 4.62056e-20)
(1.02966 0.0188914 -1.32323e-20)
(1.17089 0.0157859 0)
(1.03662 0.0531505 -8.68346e-21)
(0.12267 0.158331 4.5899e-20)
(1.03459 0.18065 1.88841e-20)
(1.13669 0.0897396 0)
(1.02805 0.013519 -9.54964e-21)
(0.996226 0.0214654 6.95149e-21)
(0.173672 -0.0427721 -7.83051e-22)
(-0.241726 -0.0021165 1.24226e-19)
(1.00184 0.0122005 4.15676e-21)
(1.00695 0.000642479 4.97249e-21)
(1.05199 -0.00231287 6.86227e-20)
(1.0147 0.0207954 6.37555e-21)
(0.19005 0.0386133 -4.94464e-20)
(1.02711 0.013363 1.10457e-20)
(0.0138888 0.0388424 7.94068e-20)
(1.04242 -0.00935898 0)
(1.28217 0.231637 6.43004e-20)
(1.11682 0.0140404 -3.62155e-20)
(0.133074 0.389106 -2.83273e-19)
(0.946629 0.0409964 -1.74068e-20)
(1.07118 0.0784794 0)
(0.543157 0.366828 0)
(1.00853 0.100109 5.80627e-22)
(1.27066 0.0665593 0)
(1.0512 0.537988 0)
(0.996737 0.0374769 0)
(-0.116427 -0.00376966 0)
(0.575575 0.0909381 -7.9375e-20)
(-0.198082 0.0116785 0)
(0.923418 0.018938 3.02248e-20)
(-0.142824 -0.0406226 -1.63338e-19)
(1.06588 0.081131 -7.68969e-21)
(0.4183 -0.102199 1.53309e-19)
(0.558438 0.342333 0)
(0.977265 0.357689 3.31092e-21)
(0.992261 0.349744 -8.71269e-21)
(0.298818 -0.0273866 5.55653e-20)
(0.999905 0.00482377 9.10528e-21)
(1.06432 0.155695 -3.70348e-20)
(0.251863 -0.0472721 0)
(0.983603 0.0238448 -9.78331e-21)
(1.00428 0.0660773 0)
(-0.232276 0.00982104 0)
(0.937173 0.504996 0)
(1.01737 0.0477396 0)
(1.09625 0.014032 -1.98363e-19)
(0.775336 0.60167 1.2777e-20)
(1.00863 0.00359974 3.30509e-21)
(-0.246782 -0.0200285 1.1283e-19)
(1.01841 -0.058925 -3.23345e-20)
(1.00271 0.00534946 2.6322e-23)
(1.00909 0.0096787 0)
(0.998597 0.0034452 1.11928e-20)
(1.02141 0.0100866 0)
(1.08019 0.075892 8.13703e-20)
(0.69007 0.128544 3.30059e-20)
(0.361909 -0.197628 0)
(0.220741 -0.0492103 0)
(0.99874 0.0122697 -1.52118e-22)
(1.15866 0.0775503 -9.04621e-20)
(-0.259424 0.0890894 -1.78136e-19)
(1.1412 0.0120589 1.98619e-20)
(0.227003 -0.0581213 5.88741e-20)
(0.009155 0.0394482 0)
(0.554612 0.0907532 3.28519e-20)
(1.01184 0.00434593 4.09007e-21)
(1.09785 -0.284886 -5.63098e-20)
(1.01004 0.00926563 -7.62628e-23)
(1.28297 -0.0802831 -5.01621e-20)
(1.03464 0.0235727 1.53859e-20)
(0.109965 0.442756 6.14953e-20)
(1.13033 0.0794477 4.05158e-20)
(1.06601 -0.0193327 1.45845e-20)
(0.999867 0.00568413 5.25031e-23)
(1.15311 0.0475984 -7.33126e-21)
(1.1436 0.0814334 1.53296e-20)
(1.14126 0.068667 -1.67486e-22)
(0.397972 1.25338 -5.81393e-20)
(0.27409 -0.0928484 0)
(0.181045 0.0124666 0)
(1.00965 0.203507 -1.0086e-20)
(1.12222 0.113331 0)
(1.00615 0.00690585 -2.66033e-21)
(-0.0382876 0.0840256 -8.94449e-20)
(0.22489 -0.0866662 1.74517e-19)
(0.999814 0.0274492 0)
(1.07532 0.078673 0)
(0.996511 0.00960651 -1.14793e-20)
(1.10143 0.121017 -3.40523e-20)
(1.04285 -0.00858472 -8.32151e-21)
(0.999916 0.00419632 2.82108e-21)
(1.03247 0.0557923 1.93466e-20)
(0.489713 -0.269074 6.87585e-21)
(1.03082 0.0559134 -4.35057e-21)
(0.235675 -0.137338 -5.76275e-21)
(0.0105455 0.108507 0)
(1.33667 -0.122383 -2.35086e-21)
(0.470837 0.354119 -1.01632e-19)
(0.998287 0.0371585 1.73206e-21)
(0.534869 0.436313 -2.55618e-21)
(0.499691 0.377356 0)
(1.00294 0.00936734 1.18039e-21)
(0.899559 0.511385 -2.652e-21)
(0.98505 0.0236521 1.66947e-20)
(0.995177 0.0106472 7.97287e-21)
(1.13182 0.0704348 0)
(1.0001 0.000498273 7.93121e-23)
(0.994548 0.0116391 -1.22671e-20)
(1.0102 0.00915768 0)
(1.08513 0.0751331 0)
(1.00005 0.00304211 -6.72816e-21)
(-0.131573 -0.0456772 1.3985e-19)
(0.537015 -0.278095 0)
(-0.165697 0.0857396 0)
(1.2126 0.0641412 -1.53629e-19)
(0.102057 -0.121897 4.63269e-20)
(0.180567 0.0208013 -2.50659e-20)
(1.13966 0.00968198 3.55027e-20)
(0.999163 0.0119118 2.17935e-21)
(1.11183 0.0878137 1.30206e-20)
(1.05866 -0.0314788 3.60935e-20)
(1.06511 0.087172 4.87085e-22)
(1.00052 0.00923 0)
(0.655701 0.123936 -6.07453e-20)
(0.294377 -0.0871562 5.13694e-20)
(0.58957 -0.294597 0)
(0.988846 0.0823436 0)
(1.13645 0.0869149 0)
(0.926471 0.0155741 3.09499e-20)
(1.0606 -0.0355713 7.70989e-21)
(1.14318 0.0667038 0)
(1.01952 0.0565591 0)
(1.08243 -0.306331 0)
(1.01749 0.0412356 5.33663e-21)
(1.00205 0.00114491 -7.5441e-22)
(0.229108 0.0437399 0)
(-0.0778474 -0.0371687 -1.55076e-19)
(-0.0503831 -0.0414904 1.30328e-19)
(1.18435 0.13703 -1.19999e-19)
(-0.189627 0.0837419 4.84994e-20)
(-0.0733648 -0.00324055 6.98051e-20)
(0.315409 0.0113051 0)
(-0.0888937 0.0232605 1.18053e-21)
(1.01514 0.00187125 -1.9378e-21)
(1.14367 0.0514407 -6.6936e-20)
(1.02134 0.0565438 0)
(0.99323 0.0252501 -2.21847e-21)
(1.08495 0.134665 -8.03939e-20)
(1.13342 0.0543012 6.216e-20)
(1.01706 5.43864e-06 0)
(1.12104 0.0679415 7.43309e-21)
(1.13381 0.0165211 3.06834e-20)
(-0.11975 0.0204187 -4.34688e-20)
(1.00311 0.00946347 1.617e-22)
(1.221 0.0773005 2.89495e-20)
(0.0919879 0.126324 0)
(1.32005 0.235894 0)
(-0.136344 -0.0473797 0)
(1.00005 0.00273008 6.72398e-21)
(0.998775 0.0277892 0)
(1.01013 0.000304091 -5.50078e-21)
(1.05762 0.12204 0)
(1.01175 0.00404532 0)
(0.413437 -0.167189 4.41724e-20)
(0.376542 -0.162085 0)
(1.01087 0.130818 2.76546e-21)
(0.0529987 0.0965124 0)
(1.08297 0.0404194 3.67978e-20)
(1.28194 0.0180712 1.85435e-20)
(0.351121 0.00739252 -1.77676e-22)
(0.914582 0.620023 0)
(1.32367 -0.130296 4.28031e-20)
(1.02735 -0.0834554 1.75005e-20)
(1.22882 0.0780391 0)
(1.11874 0.0708913 -1.32218e-20)
(1.12392 0.101045 -2.96286e-20)
(1.13925 -0.051293 3.11769e-20)
(1.34299 -0.209513 0)
(0.386043 0.183155 -1.36956e-19)
(1.1363 -0.0862889 0)
(1.18583 0.0581239 3.37436e-21)
(1.01268 0.000543141 -6.49071e-21)
(1.06787 0.104434 -4.40148e-20)
(1.09301 0.0233063 0)
(1.02754 0.00394091 5.23361e-21)
(1.05327 0.119708 1.65508e-20)
(1.05542 0.025535 1.48251e-21)
(-0.0999287 0.0230868 -1.91229e-20)
(0.562347 0.100404 0)
(1.01405 0.0197492 -2.52938e-21)
(1.01579 0.000958229 -1.48508e-20)
(0.419767 -0.118649 -4.83566e-20)
(0.168349 0.0213902 -1.45362e-20)
(1.00009 0.000376997 -1.24119e-22)
(-0.167694 -0.0382788 -8.80813e-20)
(1.05672 0.0023112 -1.33885e-20)
(1.18674 0.0634794 -9.20143e-20)
(1.01352 0.0214368 -5.32239e-22)
(0.157844 0.0244457 3.25048e-20)
(1.0019 0.160077 9.62323e-22)
(1.05667 0.0876219 1.19199e-21)
(1.03547 0.0353093 0)
(0.139494 -0.135116 6.04296e-20)
(1.1687 0.0401491 -4.57182e-20)
(-0.369802 0.080232 -1.75213e-19)
(1.00006 0.000450023 -6.21012e-23)
(0.075215 0.021623 -5.40042e-20)
(0.142095 0.157948 -2.60302e-20)
(1.06194 -0.0163001 -1.30126e-20)
(1.0277 0.0044616 -1.24447e-20)
(-0.0288506 0.0276294 -3.90046e-19)
(0.684395 0.035208 2.56398e-20)
(1.14495 0.00304528 2.49443e-20)
(1.00953 0.00969749 -1.24436e-21)
(1.00924 0.0415515 1.22375e-21)
(1.10241 -0.191133 0)
(1.1022 0.1263 -1.82044e-20)
(1.01762 4.7336e-05 1.06326e-21)
(1.00871 0.00917228 0)
(1.00533 0.00197887 -1.38248e-21)
(1.00559 0.00202473 2.8255e-21)
(0.181269 0.0186175 0)
(1.08569 0.129474 -1.04267e-19)
(1.1416 0.00429483 0)
(1.15812 0.0317733 4.33538e-20)
(1.00641 0.000526015 0)
(1.00973 0.00394699 8.23444e-21)
(1.1395 0.085634 0)
(0.469354 0.0465404 0)
(1.09675 0.0576542 3.31605e-22)
(1.03131 0.0200798 8.72996e-21)
(0.995593 0.0109509 -6.8652e-21)
(0.992561 -0.00045844 0)
(1.05528 -0.0123372 -5.55417e-20)
(0.466335 -0.0211876 -5.79429e-20)
(1.00092 0.00537279 2.82113e-21)
(0.992926 0.00245361 0)
(1.10779 -0.3008 2.7107e-20)
(1.13862 -0.046248 -3.46248e-20)
(1.11719 0.0118498 1.62629e-20)
(0.997858 0.0263938 -5.58603e-21)
(1.02833 0.0583835 -8.38984e-21)
(1.04428 0.0866566 0)
(1.18773 0.0532051 0)
(1.04093 0.508964 0)
(1.16542 0.028777 -1.51541e-19)
(1.11156 0.0912899 0)
(1.16212 0.0842875 0)
(1.09055 0.154409 1.10922e-20)
(1.13398 0.086834 4.15884e-20)
(1.00242 0.013922 -1.20147e-21)
(0.0647213 0.0225117 0)
(0.99284 -0.000774594 0)
(1.00505 0.0688465 6.41096e-22)
(1.06973 -0.00659677 -3.55038e-23)
(1.07017 0.108108 1.29835e-22)
(1.03645 0.27753 -3.58163e-22)
(1.00891 0.00084177 2.99184e-21)
(1.31249 0.221996 0)
(1.12835 0.0652033 -2.78396e-20)
(-0.0403493 0.10586 -3.21071e-19)
(1.15835 0.0842094 -5.51191e-20)
(0.901894 0.14153 3.13786e-20)
(1.13712 0.0178797 4.70352e-21)
(0.999724 0.00611199 0)
(0.83568 0.0648632 -1.31264e-20)
(1.29264 0.217858 7.50039e-20)
(0.145257 0.000303452 -7.15838e-20)
(1.01681 0.0389798 0)
(1.0916 0.0478544 -1.11518e-20)
(1.15382 0.0290004 1.14328e-20)
(0.0358131 0.0437121 0)
(0.0809845 0.0109024 -5.94203e-20)
(1.1553 0.0572222 -3.70242e-20)
(1.19279 0.132601 4.94595e-20)
(0.995648 0.0823447 1.6994e-21)
(1.05389 0.053895 -3.70848e-20)
(0.996764 0.0268093 -3.51805e-21)
(0.919226 0.238524 1.52726e-20)
(0.691273 0.220739 0)
(0.973707 -0.00823813 0)
(1.1527 0.0371715 -6.35863e-21)
(0.584559 0.200287 0)
(0.167075 0.00425593 -3.33635e-20)
(-0.359533 0.0836399 9.91961e-20)
(1.03175 0.0677195 1.37372e-20)
(1.28002 0.009617 -3.54764e-20)
(1.03756 0.160866 0)
(1.01119 0.109742 2.52362e-21)
(0.969269 0.0188765 2.18759e-20)
(0.215643 0.658234 0)
(0.751628 0.0889827 0)
(0.585949 0.120681 0)
(1.14245 0.0330403 4.1596e-20)
(1.01582 0.00206551 -1.03397e-21)
(-0.231188 -0.0218891 5.12443e-20)
(1.1108 -0.184934 0)
(1.00892 0.000646806 0)
(1.08497 0.0708512 4.71614e-20)
(1.21265 0.0135815 0)
(0.853842 0.0808543 -7.15254e-20)
(1.12819 0.0694848 -1.36649e-19)
(0.303995 -0.169015 -2.10629e-20)
(1.12754 0.10032 0)
(1.12469 -0.0464255 -2.43027e-20)
(0.822976 0.0667589 1.12445e-20)
(1.05725 0.0316698 -2.27575e-20)
(-0.104199 0.0195413 4.14449e-20)
(1.00011 0.00369916 5.38668e-21)
(1.00092 0.00569868 -2.5957e-21)
(0.800042 0.10323 8.92061e-20)
(0.722228 0.0864138 -1.39246e-20)
(0.39867 0.318317 1.16662e-19)
(1.05793 0.0303839 -8.30765e-21)
(1.01422 0.0486848 0)
(0.993391 0.00309122 0)
(1.09396 -0.101947 -1.36941e-20)
(0.0914856 0.282104 0)
(1.18862 -0.25613 1.09062e-19)
(1.05597 0.0544493 1.95297e-20)
(1.31048 -0.123515 -6.6992e-20)
(1.15467 0.0439541 -5.79982e-20)
(1.01338 0.0220881 -2.04957e-21)
(1.29889 0.445753 0)
(1.1752 -0.25462 -5.49458e-20)
(1.07954 -0.395099 -4.38148e-20)
(1.00489 0.0154587 2.30077e-22)
(1.13386 0.103101 -5.11281e-20)
(1.05443 0.0269804 -1.52471e-21)
(0.100489 0.13132 0)
(1.13005 0.109627 0)
(1.04546 0.268022 -1.76145e-20)
(1.09196 0.0496438 -3.28338e-21)
(1.00745 0.00205469 -8.07279e-21)
(1.02563 0.00668602 5.19694e-21)
(1.03369 0.0269661 -1.73582e-20)
(1.02603 0.34907 -1.83799e-20)
(0.891892 0.023548 5.10577e-20)
(1.09889 0.052078 5.77202e-20)
(0.57071 0.922358 -2.85491e-20)
(1.16515 0.0323291 3.03074e-20)
(1.00827 0.00359126 -3.15518e-21)
(1.12139 0.0940888 -7.15756e-20)
(0.399778 0.351398 -2.47161e-19)
(0.933826 -0.0705139 1.39083e-19)
(1.03753 0.00319237 0)
(0.902523 0.0350933 -2.22886e-20)
(1.00829 0.00916994 0)
(1.08624 -0.0387058 0)
(1.07093 0.0454455 -3.75474e-20)
(0.652239 0.0323664 -5.56009e-20)
(1 0.00415877 -6.65779e-21)
(1.35753 0.433854 -6.59839e-20)
(1.08882 -0.0315495 -1.7074e-20)
(1.36931 -0.0831371 0)
(1.1446 0.095846 0)
(0.187678 0.0312133 3.31165e-22)
(1.06798 0.260353 2.50969e-20)
(1.00877 0.0398399 -4.59065e-22)
(-0.0271246 0.033155 3.93154e-20)
(0.109848 0.0119652 0)
(1.00624 0.0290282 -4.00788e-23)
(1.06815 -0.00781369 -8.26301e-21)
(1.04093 0.167997 -9.81718e-20)
(1.14392 0.0392328 -3.7005e-20)
(1.17866 0.0937697 0)
(1.00023 0.000544223 0)
(1.03671 0.035428 -1.71249e-20)
(1.26289 0.227675 0)
(1.0667 -0.0211679 4.6891e-21)
(1.13833 0.0676235 0)
(1.20071 -0.0587585 5.85999e-20)
(1.02628 0.00657347 -4.4107e-21)
(1.17628 -0.0125717 5.31541e-20)
(0.365844 -0.0193978 -9.95584e-20)
(1.03675 0.0014384 0)
(1.04882 -0.0142397 8.47293e-21)
(1.00488 0.00217819 -1.10513e-21)
(-0.25289 -0.00138657 -9.81119e-20)
(1.00001 0.00197103 -8.04262e-22)
(0.988788 0.0784759 0)
(-0.0111134 -0.0173349 0)
(0.996002 0.0627566 -1.18282e-22)
(0.748203 0.0971911 5.28482e-20)
(1.07066 0.063765 0)
(0.839456 0.0868746 5.77283e-20)
(1.00517 0.00222578 1.23935e-21)
(1.04715 0.197395 1.12984e-20)
(1.00152 0.0110944 2.58521e-21)
(1.11825 0.0731048 8.35682e-20)
(1.00715 0.00122381 3.42122e-21)
(1.12026 0.223892 -2.00479e-20)
(1.05642 0.00333356 -1.37826e-20)
(0.491541 0.288174 -5.93294e-20)
(0.502156 0.789216 -2.30113e-20)
(0.473293 0.0413967 6.77226e-20)
(1.00979 0.000278604 -1.10478e-21)
(0.999888 0.00525454 -9.31179e-21)
(1.13038 0.087449 -1.46943e-22)
(1.10887 0.0944481 -2.01668e-20)
(-0.207238 0.00628134 -8.13746e-20)
(0.492927 0.0752909 0)
(1.12823 0.0575654 0)
(0.993519 0.00937488 -9.4187e-21)
(1.08815 0.0783607 1.80865e-20)
(0.363498 0.295833 -3.27374e-20)
(1.09686 -0.388261 9.91507e-20)
(1.10282 0.0529069 7.04362e-20)
(1.13615 0.0470429 -5.38544e-20)
(0.396894 -0.21936 0)
(1.08405 0.112218 8.35327e-21)
(1.08792 -0.0953707 0)
(1.1145 0.0791494 4.22711e-21)
(0.922602 0.445794 0)
(1.12601 0.0570399 3.75122e-20)
(0.332811 0.379055 1.29998e-19)
(1.12268 0.0590595 -4.56325e-20)
(1.05732 -0.0135308 0)
(1.2186 0.0169872 0)
(1.01252 0.101163 -2.96352e-21)
(1.03096 0.00517208 2.05525e-20)
(1.08605 -0.0363089 8.02857e-21)
(1.10163 0.10152 -3.9877e-20)
(1.05064 0.0883537 -3.284e-20)
(1.00038 0.0111232 9.95067e-21)
(1.00669 0.000397614 -3.38414e-21)
(1.16038 0.0384606 0)
(1.06392 0.0101688 -1.71613e-20)
(1.13671 0.0695934 -1.47014e-20)
(0.994211 0.00930275 1.27269e-20)
(0.996003 0.00821574 0)
(0.999973 0.00160252 0)
(1.02455 0.0582674 -3.59408e-21)
(1.02126 0.00169697 -3.3276e-21)
(1.04815 0.0763084 -1.72306e-20)
(1.00445 0.00238974 5.29092e-22)
(0.158954 0.0211966 0)
(1.14519 -0.139719 0)
(0.443074 -0.213665 -1.0513e-19)
(1.01077 0.0039178 1.17993e-23)
(1.00015 0.00259879 -1.76043e-21)
(0.81896 0.162763 4.7656e-20)
(1.12009 0.0704733 1.58794e-20)
(0.953882 -0.000947987 2.91581e-20)
(1.0466 0.0147995 0)
(1.14227 0.148879 0)
(1.24435 -0.0595629 4.86579e-20)
(1.08899 -0.0339603 -1.04426e-20)
(1.13283 0.0918493 -1.38836e-20)
(1.05043 0.0152037 -1.12191e-20)
(0.999879 0.00181873 2.27057e-21)
(1.00577 0.00178349 -1.42786e-21)
(1.03503 0.0539287 4.65769e-21)
(-0.247407 0.0061357 0)
(1.00011 0.00219599 0)
(1.10413 0.170246 0)
(1.04938 0.0783085 1.81101e-20)
(-0.254049 0.0945768 2.07153e-19)
(0.995998 0.217994 -9.02919e-21)
(1.14684 0.144418 4.93681e-20)
(1.36271 -0.0905356 0)
(1.01865 0.00622514 -3.2888e-21)
(1 6.37204e-05 -2.15762e-22)
(1.15267 -0.139978 -9.48116e-21)
(0.988589 0.0012356 6.77517e-21)
(0.987002 0.0369836 0)
(1.0351 0.033164 1.21279e-20)
(1.01413 0.0524977 0)
(0.998735 0.00408009 0)
(1.08042 0.0556857 -3.97366e-20)
(1.00648 0.00608357 0)
(1.01455 0.000782533 8.17994e-21)
(1.0559 0.0840851 -2.37193e-20)
(0.882532 -0.0195938 0)
(-0.245878 0.00449536 -1.60388e-19)
(1.07726 0.0976419 0)
(1.0366 0.00085853 -2.39555e-20)
(1.00839 0.000681923 -1.90281e-21)
(0.0789112 0.0509017 0)
(1.01259 0.360218 2.19854e-20)
(1.00264 0.0359594 -7.75013e-22)
(1.01766 0.0385509 0)
(1.03971 0.0202645 0)
(1.03598 0.165964 -1.27812e-20)
(0.121371 -0.00491483 0)
(0.909809 0.14075 -2.39722e-20)
(1.05886 -0.0124354 -1.40564e-20)
(1.01041 0.00236647 5.91306e-23)
(1.01485 0.00096963 -8.75407e-21)
(1.14195 -0.0847314 0)
(1.08094 0.0979507 0)
(1.16106 0.0512181 0)
(0.919351 0.0192525 -4.05161e-20)
(-0.146396 -0.0011687 0)
(1.02745 0.0392245 -1.67894e-20)
(0.968724 0.0548861 -1.4971e-20)
(0.0791935 -0.000668364 4.52149e-21)
(0.996277 0.0092511 1.16518e-20)
(1.09495 0.0219029 0)
(1.00516 0.0255281 -6.31684e-22)
(1.00256 0.00137701 0)
(1.09756 0.106457 3.96969e-20)
(0.772384 0.012018 0)
(1.04766 0.02716 3.24917e-20)
(0.718213 0.0940088 -5.8993e-20)
(0.0726845 -0.087883 4.84938e-20)
(1.1443 0.0915399 -7.93016e-20)
(1.0027 0.0142993 4.40468e-24)
(1.02291 0.00333614 0)
(1.2362 -0.219248 0)
(1.10998 0.166472 -1.21309e-20)
(1.0001 0.000619265 2.64591e-25)
(1.10537 0.162331 1.23839e-20)
(1.02244 0.00350572 -4.26471e-21)
(1.09832 0.0985974 3.626e-20)
(1.03061 -0.00217264 1.25122e-20)
(1.03219 0.00679274 0)
(1.09604 0.125481 2.83554e-20)
(1.03813 0.0156563 -5.59766e-21)
(0.899472 -0.414735 -3.46451e-20)
(1.09929 0.0812292 2.30862e-20)
(0.999973 0.00157334 0)
(1.01813 0.00376873 2.8396e-21)
(0.981615 -0.00246082 -1.44191e-21)
(1.00929 0.0155994 -1.26062e-21)
(1.0487 -0.0125872 0)
(0.332699 0.805125 0)
(1.03581 0.00377816 -1.91615e-20)
(1.02861 0.0105252 6.30422e-21)
(0.383565 0.0975346 -2.54725e-20)
(0.603911 0.116764 7.37763e-20)
(1.12952 -0.0488102 0)
(1.10564 0.096165 0)
(1.14742 0.0625014 2.47787e-21)
(1.07785 0.0270504 -2.58931e-20)
(1.02237 0.0131532 2.65428e-23)
(0.888456 0.0162328 -1.77107e-20)
(0.113588 0.0277221 -7.35295e-21)
(1.13066 0.222295 -1.33825e-20)
(0.998821 0.00776238 0)
(1.03412 0.0344189 0)
(0.506647 0.0799211 -3.45532e-20)
(1.11578 0.0379796 0)
(0.305952 -0.0574935 0)
(1.00001 0.00198783 0)
(0.951533 9.90217e-05 -1.62744e-20)
(-0.27015 -0.00168206 -1.70846e-19)
(1.11381 0.0282211 -5.08991e-20)
(1.04991 0.0259891 2.13494e-20)
(-0.412239 0.0287701 -1.4173e-19)
(0.233724 0.334378 0)
(1.00949 0.0151413 2.33022e-21)
(1.11662 0.0785094 -6.59705e-20)
(1.00603 0.00182139 9.0884e-22)
(1.03693 0.0156172 1.95474e-23)
(1.01108 0.0041471 7.62927e-21)
(0.231588 0.0234595 -2.33096e-20)
(1.02091 0.00152438 6.80366e-21)
(1.03426 -0.00548858 1.06473e-20)
(1.02288 0.0128577 -4.41077e-21)
(0.859859 -0.406025 4.00154e-20)
(1.05924 -0.0271643 0)
(1.1833 0.0570393 0)
(0.690006 -0.0632123 -6.944e-20)
(1.03258 0.00488986 -1.17427e-20)
(0.847251 0.0374696 4.84648e-20)
(1.00092 0.00505663 1.8928e-21)
(0.238479 -0.053154 -4.14113e-20)
(1.00585 0.00837538 -7.15423e-22)
(1.03641 0.00308109 1.93105e-20)
(0.998806 0.00454111 -5.71134e-21)
(1.24701 -0.219116 0)
(0.998601 0.00447992 1.332e-20)
(1.13022 0.104119 6.89144e-20)
(0.15815 -0.0896976 -1.55171e-20)
(0.462989 -0.0356456 -9.55551e-20)
(0.907448 0.0350546 0)
(1.03352 -0.0481304 7.3627e-20)
(-0.0100993 -0.0250516 4.62953e-20)
(0.997334 0.0216472 2.94376e-21)
(-0.258261 -0.0190653 5.7556e-20)
(1.27391 -0.119594 0)
(0.0288908 -0.0359051 0)
(0.0654974 -0.108436 -1.89861e-21)
(0.358912 0.093786 -9.01427e-22)
(0.23344 0.291558 3.24603e-19)
(1.12346 0.0927507 0)
(1.0108 0.0426486 -1.23174e-21)
(0.28881 -0.169331 0)
(1.11171 0.0296489 5.51128e-20)
(0.187523 -0.077678 -1.72558e-19)
(1.02706 0.00489118 1.57346e-20)
(1.02213 0.0203295 0)
(1.00403 0.0370537 7.07094e-22)
(1.00099 0.00540109 -1.80303e-21)
(1.08456 0.0233277 0)
(0.900878 0.0963878 2.58061e-20)
(-0.211943 -0.0023003 1.1962e-19)
(1.02194 0.0194867 -9.80983e-21)
(0.994287 0.00423317 2.18424e-20)
(-0.310071 0.0889241 2.18482e-22)
(1.05658 0.456596 0)
(0.981712 -0.00368225 1.52986e-21)
(0.80545 -0.0385696 -8.40441e-20)
(1.08632 0.0582744 5.33409e-21)
(1.04342 0.0211647 -7.75576e-21)
(0.572381 0.825063 6.53415e-21)
(0.800224 -0.0327913 4.35623e-20)
(0.955365 0.0480814 -3.18532e-22)
(1.06033 -0.0258719 1.96243e-20)
(0.0490392 -0.071545 4.9394e-20)
(0.074772 -0.00879608 0)
(0.228992 0.151482 1.04755e-19)
(1.03034 -0.00158241 -1.5872e-20)
(1.17411 0.0448426 2.9904e-22)
(1.1267 0.0660719 0)
(-0.217706 -0.019516 -3.06978e-20)
(0.557218 0.0841665 -3.61274e-20)
(1.15107 -0.202533 0)
(1.01446 0.0216831 4.38437e-21)
(1.05157 0.0159748 9.7421e-23)
(1.02612 0.0393904 2.22673e-20)
(1.01818 0.000253614 3.65816e-21)
(1.0269 0.0593749 -7.52759e-21)
(1.01511 0.00163173 -1.25793e-20)
(1.04617 0.0854572 0)
(1.08068 0.112649 2.40989e-20)
(0.119818 0.0923585 0)
(1.22909 0.0930198 3.08295e-20)
(1.03491 -0.00498328 -5.82157e-21)
(1.13587 0.090599 -2.6522e-20)
(0.327945 0.014051 9.33447e-21)
(1.09418 0.103317 0)
(0.973615 0.0186192 1.19382e-20)
(-0.0654306 0.0213392 0)
(1.02846 0.0184524 3.50092e-21)
(0.987796 0.0349133 0)
(0.824165 0.0782814 0)
(0.2116 0.103102 0)
(0.998469 0.00315533 -1.41839e-20)
(1.00452 0.0157566 -2.37786e-22)
(0.236161 -0.042255 -8.57937e-20)
(1.09473 -0.0439476 -8.6707e-21)
(1.04546 0.15647 -3.00173e-20)
(1.16759 0.090096 5.60641e-20)
(0.982735 -0.1054 -8.10908e-20)
(1.00776 0.0146003 -1.22538e-21)
(1.11534 0.096226 0)
(0.972852 0.0204519 0)
(1.00424 0.0093493 3.80734e-22)
(0.970506 0.0166395 -2.85144e-20)
(0.368555 -0.154637 -4.19493e-20)
(0.132396 -0.0127365 1.04696e-20)
(1.02972 0.00912775 7.42459e-21)
(1.0186 0.00384812 0)
(1.00513 0.0268462 7.1558e-22)
(1.0068 0.161297 9.22989e-20)
(1.02336 0.057177 3.14758e-21)
(1.09397 0.0446685 -4.02244e-20)
(0.989496 0.00126046 -1.24283e-20)
(1.01639 0.0457103 0)
(1.11498 0.0934594 0)
(1.03321 0.00429119 0)
(1.11914 0.0725124 -6.3635e-20)
(1.19067 0.363111 0)
(-0.0336376 -0.0478304 -3.32591e-20)
(1.03089 0.0245386 0)
(1.1052 0.237568 0)