/*--------------------------------*- C++ -*----------------------------------*\
| =========                 |                                                 |
| \\      /  F ield         | OpenFOAM: The Open Source CFD Toolbox           |
|  \\    /   O peration     | Version:  v2012                                 |
|   \\  /    A nd           | Website:  www.openfoam.com                      |
|    \\/     M anipulation  |                                                 |
\*---------------------------------------------------------------------------*/
FoamFile
{
    version     2.0;
    format      ascii;
    class       surfaceVectorField;
    location    "900";
    object      ddtCorrDdt0(Uf);
}
// * * * * * * * * * * * * * * * * * * * * * * * * * * * * * * * * * * * * * //

dimensions      [0 1 -2 0 0 0 0];


internalField   nonuniform List<vector> 
20580
(
(-0.00247946 -0.000993598 9.73238e-19)
(-0.00243592 -0.00108147 -2.89231e-18)
(-0.00240192 -0.000974169 -8.08463e-18)
(-0.00134051 0.000384138 -2.87246e-20)
(-0.00134721 0.000401871 -1.08174e-18)
(-0.00137211 0.00038677 2.78252e-18)
(-0.00133082 0.000358508 7.43821e-20)
(-0.00130501 0.000375341 5.22162e-19)
(0.00152535 -9.7544e-05 1.6892e-17)
(0.00219845 -0.00021667 -2.50635e-18)
(0.00157353 -5.73944e-05 -3.07622e-18)
(-4.04005e-05 1.00025e-05 -8.67608e-19)
(-3.63986e-05 9.29761e-06 7.40729e-20)
(-3.79011e-05 5.52383e-06 8.96254e-19)
(-0.00150366 0.000605528 1.13092e-18)
(-0.00149591 0.000635391 7.76386e-19)
(-0.00146579 0.000612818 5.39796e-19)
(-0.0011993 -0.000224561 7.4946e-19)
(-0.00121211 -0.000240314 -4.57027e-18)
(-0.000235713 1.40888e-05 -1.56495e-19)
(-0.000231022 1.46078e-05 -7.65812e-19)
(-0.000223787 9.36305e-06 -1.2146e-18)
(0.0140558 -0.0014912 4.04454e-18)
(0.0139859 -0.00148375 -4.32763e-18)
(0.0132019 -0.00128923 -1.2123e-18)
(-5.90132e-05 0.000469969 5.46367e-18)
(-5.34113e-05 0.000460309 7.13421e-19)
(-5.67307e-05 0.000452716 3.03335e-18)
(-0.00224093 0.00173389 1.09872e-18)
(-0.00218324 0.0017038 -1.63624e-17)
(-0.0021907 0.00176643 -5.07145e-18)
(-6.10236e-05 0.000188741 -5.17396e-18)
(-6.57818e-05 0.000193486 -3.07784e-18)
(-6.5121e-05 0.000198195 -3.26036e-19)
(-0.000129064 0.000701931 -1.14539e-18)
(-0.000135775 0.00070823 4.83289e-18)
(-0.000132902 0.000693156 2.1368e-18)
(0.0104906 -0.000700614 2.20782e-18)
(0.0103632 -0.00069883 1.53838e-18)
(0.0107304 -0.000749933 6.34063e-18)
(-0.00198766 -6.41242e-05 9.70644e-19)
(-0.00202036 -6.09403e-05 -4.9315e-18)
(-0.0019926 -3.77087e-05 2.80443e-18)
(-0.00330736 0.000274082 -2.26415e-18)
(-0.00344614 0.00015029 -9.7238e-19)
(-0.00342074 0.000406519 3.72464e-18)
(0.00231798 0.000189773 -1.87744e-17)
(0.00159039 0.000247839 -5.17121e-19)
(0.00203499 0.000228365 -2.96195e-17)
(-0.000684036 0.000289156 7.81343e-19)
(-0.000700361 0.000289424 2.1501e-19)
(-0.000696976 0.000303451 -2.25282e-19)
(-0.00498795 0.0003333 -8.66815e-19)
(-0.00493801 0.00044167 8.05264e-18)
(-0.0053701 0.000471941 -1.38158e-19)
(-0.00255761 -0.00101816 -3.61486e-19)
(-0.00251599 -0.000923851 -3.59294e-18)
(-0.00220836 5.62641e-05 3.44383e-18)
(-0.00218581 8.63318e-05 -1.97299e-18)
(-0.00216293 5.01848e-05 -1.59409e-18)
(-0.000954018 0.00119909 -8.20463e-19)
(-0.000919993 0.00119955 -5.5674e-19)
(-0.000934894 0.00116549 -1.00864e-18)
(0.0108716 8.61943e-05 3.31293e-17)
(0.010594 -0.00186904 -8.13815e-18)
(0.0129618 -0.00135263 2.82452e-17)
(-1.06637e-06 3.78415e-06 4.02437e-20)
(-1.73847e-06 5.01857e-06 -2.38796e-18)
(-1.06861e-06 3.17289e-06 -2.8175e-18)
(-0.00843716 0.00337983 2.08577e-18)
(-0.00827705 0.0047352 1.75916e-17)
(0.00195194 0.00106137 4.20995e-18)
(-0.00226076 -0.000606236 6.32371e-18)
(-0.00229914 -0.000612755 -1.61543e-18)
(-0.00228668 -0.000573064 6.76121e-19)
(-0.00105503 -0.00102841 -4.1276e-18)
(-0.00222293 -0.00122995 -1.44274e-18)
(-0.00177761 -0.00120282 1.85177e-18)
(-0.00914384 -0.00192683 2.06374e-18)
(-0.00958286 -0.00230551 -1.06973e-17)
(-0.00167002 -0.0031591 1.45006e-18)
(0.0158579 0.00197582 1.57944e-18)
(0.0156741 0.00175636 -9.52995e-19)
(0.0152585 0.00169977 -8.47717e-19)
(-0.000405128 0.000187846 3.63751e-19)
(-0.000400497 0.000195112 -4.98184e-19)
(-0.000392547 0.000184585 1.81292e-19)
(0.00764936 4.94203e-05 2.66223e-17)
(0.0063096 0.000399264 7.31194e-19)
(0.00840887 0.000257072 2.16958e-17)
(-0.00121131 -0.000216425 1.1901e-18)
(-0.00118631 -0.000214262 4.19277e-18)
(-0.00223278 -0.000881214 -1.31463e-19)
(-0.00218859 -0.000843258 1.40842e-18)
(-0.00224719 -0.000826369 -1.026e-17)
(0.0187137 -0.00240459 -4.56761e-18)
(0.0186807 -0.00249573 2.02956e-18)
(0.0194037 -0.00257086 1.68789e-18)
(-0.00195385 0.00138804 9.84885e-19)
(-0.00198972 0.0013618 2.45215e-18)
(-0.00198583 0.00141848 -2.27553e-18)
(0.0170858 0.00170929 -7.6921e-19)
(0.0176313 0.00195844 2.71081e-19)
(0.0175585 0.00163776 7.44181e-18)
(-3.38964e-07 2.44315e-06 -1.30051e-18)
(-1.05844e-06 4.53371e-06 -1.46415e-18)
(-0.00546668 0.00341776 2.35069e-17)
(-0.00260427 0.0028373 -2.68523e-18)
(-0.00200265 0.00268847 3.41201e-17)
(0.0125046 0.000931383 -9.2979e-18)
(0.0134472 0.00113821 5.38764e-18)
(0.0154584 0.000837186 5.75679e-18)
(-0.000403181 0.000662716 3.00752e-18)
(-0.000402279 0.000647981 -5.91336e-19)
(-0.000416014 0.000662341 1.99637e-18)
(0.019508 -0.00230641 3.4216e-18)
(0.0205993 -0.00257285 -1.48091e-17)
(0.01948 -0.00248463 -1.00137e-17)
(0.0159784 0.00216997 1.62107e-18)
(0.0164039 0.0022681 -1.68278e-19)
(-9.13177e-05 0.000244418 6.9414e-18)
(-6.59736e-05 0.000212954 1.28952e-17)
(-0.000653623 0.00314766 1.25178e-18)
(-0.000298557 0.00302494 1.83642e-17)
(-0.000618133 0.00315112 -5.84e-19)
(0.0155493 0.00171557 1.42146e-18)
(0.0153055 0.00143326 9.55385e-18)
(0.0148687 0.00157354 5.22508e-18)
(-0.000374134 0.000385263 7.86873e-19)
(-0.000370502 0.000391409 1.43491e-18)
(-0.000360849 0.000380359 -4.14511e-18)
(-0.000302132 -7.50157e-06 3.93525e-20)
(-0.000301881 -6.73781e-06 -2.91659e-20)
(-0.00211005 0.000200726 1.667e-18)
(-0.00212886 0.000307551 -4.08508e-18)
(-0.00220526 0.000212277 -2.23915e-18)
(-0.000963561 0.000837673 -1.14246e-18)
(-0.000936415 0.000813787 1.19526e-20)
(-0.000969361 0.000814022 2.60155e-19)
(-0.000123483 0.000688038 -6.93652e-18)
(-0.000119094 0.0007054 -6.34947e-18)
(0.00918766 0.000612514 9.38168e-18)
(0.00951853 0.000555222 -1.02742e-17)
(0.00906412 0.000285418 -1.18262e-17)
(-7.82284e-05 0.000758923 1.15915e-18)
(-7.92858e-05 0.000744608 5.73238e-18)
(-8.6531e-05 0.000760936 1.09478e-17)
(-0.00316019 0.000383724 -1.28372e-18)
(-0.00316735 0.000152895 -6.26172e-18)
(-0.00159344 -0.000366942 1.11705e-18)
(-0.0016222 -0.000374759 1.55846e-18)
(-0.00160116 -0.000391588 2.62682e-18)
(0.0098041 -0.000551888 -4.58699e-18)
(0.0101289 -0.000589585 9.26661e-18)
(0.00978881 -0.000554636 2.78707e-18)
(-0.000404477 0.00067571 -3.43525e-19)
(-0.00039128 0.000661679 -1.92958e-18)
(-0.00219632 -0.00095199 2.33768e-18)
(-0.00229012 -0.000920571 3.08705e-18)
(0.0194493 -0.00213587 8.52181e-18)
(0.0187327 -0.002109 4.40271e-18)
(-0.000767832 0.00105618 -6.00937e-19)
(-0.00181564 0.00127168 -5.77295e-19)
(-0.00214476 0.000755345 -6.46336e-19)
(0.0125155 -0.00100567 -3.45953e-18)
(0.0125611 -0.00106609 9.55962e-19)
(0.0132199 -0.00121474 -6.5503e-18)
(-5.64731e-05 0.000183733 1.52373e-19)
(-5.72617e-05 0.000179467 -2.89302e-18)
(-0.000564032 -0.00100784 1.06172e-18)
(-0.000684509 -0.000970596 3.67725e-18)
(-1.47082e-05 0.000316745 -3.43788e-18)
(-1.75499e-05 0.00031605 -8.24298e-19)
(-1.72754e-05 0.000331607 -5.14194e-18)
(-0.000955208 0.000854313 -1.48332e-18)
(-0.000984934 0.000852197 -3.72594e-19)
(-6.10935e-05 0.00254727 -4.95747e-18)
(-0.000118158 0.00258249 6.78972e-19)
(-0.000105693 0.00251087 -4.5068e-19)
(-1.24954e-05 0.00251088 -1.10602e-18)
(-1.18257e-05 0.00258993 -2.84796e-18)
(0.012357 -0.000952683 -5.99011e-18)
(0.0115012 -0.000874427 5.32937e-18)
(5.33653e-05 0.00175845 -2.52225e-17)
(5.20931e-05 0.00177874 -3.28642e-18)
(-0.000576461 0.000623627 -2.30385e-18)
(-0.000562294 0.000631147 -3.50128e-18)
(-0.000559306 0.000610599 9.04099e-19)
(0.00354362 -0.000121139 -3.43382e-19)
(0.00268837 -6.86906e-06 -8.7739e-18)
(0.00310789 -4.24105e-05 1.62292e-17)
(0.00584457 0.000575342 -4.2635e-19)
(0.00493801 0.000561218 -3.16609e-17)
(0.00590826 0.000463795 -1.59455e-17)
(-0.00236193 1.09372e-05 2.07946e-18)
(-0.00238209 4.29471e-05 -4.27726e-18)
(-0.00240894 4.68367e-06 -9.89122e-18)
(-0.00022145 0.000601629 4.06383e-18)
(-0.000214307 0.000605086 -2.07187e-18)
(-0.000225155 0.000617015 6.8094e-19)
(0.0124151 -0.00107368 5.09696e-19)
(0.0115079 -0.000818404 6.12246e-18)
(-0.00172851 -0.000308171 2.42447e-18)
(-0.00171118 -0.000288902 -1.00412e-19)
(-0.00174107 -0.000289223 3.6641e-19)
(-0.000736462 0.00103474 -3.37497e-18)
(-0.000711327 0.00102447 -2.77427e-18)
(-0.000725372 0.00100576 -5.00154e-18)
(0.00268924 0.000156691 1.51877e-17)
(0.00303 0.000134407 4.11239e-18)
(-0.000384064 8.28822e-05 -1.33736e-19)
(-0.00038292 8.93952e-05 1.1498e-19)
(-0.000395366 8.75092e-05 -8.65758e-19)
(-0.00822841 0.00310414 2.42542e-18)
(-0.00611359 0.00310866 -1.23038e-17)
(-0.000210803 0.000359047 -4.9551e-18)
(-0.000201054 0.000347919 -2.13764e-18)
(-0.000201623 0.000358224 -1.44171e-20)
(-0.000591676 0.000620765 -1.47313e-19)
(-0.000591064 0.000640934 -2.86141e-18)
(-0.0028392 0.00243757 7.39338e-18)
(-0.0028818 0.00244515 1.39657e-17)
(-0.00285443 0.00247991 7.16809e-18)
(-0.00190713 0.0013703 1.12932e-20)
(-0.00191359 0.0014227 1.05276e-18)
(0.0100747 -0.000914666 2.36674e-18)
(0.0102766 -0.000843248 -4.65563e-18)
(0.0105009 -0.000876574 -2.57836e-18)
(0.0123146 -0.0010391 -1.82617e-18)
(0.0130208 -0.0012239 1.73816e-18)
(0.00595355 0.000517288 8.08493e-18)
(0.00645228 0.000469976 -3.07589e-18)
(0.00781385 0.000346609 1.3148e-17)
(-0.000974713 0.00122295 9.78646e-19)
(-0.000980738 0.00119247 -8.3666e-19)
(0.0139225 -0.000231061 1.06699e-18)
(0.0133295 -0.000461898 -2.5016e-18)
(0.0137324 -0.000188139 -3.20337e-18)
(-8.79841e-05 0.000487178 -2.00206e-18)
(-8.59721e-05 0.000473904 -2.88495e-18)
(-7.54235e-05 0.00047473 8.22577e-18)
(0.00832554 -9.07121e-05 -5.45286e-18)
(0.0064618 -3.86709e-05 2.42586e-17)
(-7.3758e-05 0.000778352 -2.56636e-18)
(-6.92726e-05 0.000755257 -1.55837e-17)
(-0.00122393 -0.00020697 -3.50176e-18)
(-0.00123496 -0.000220333 -1.10186e-18)
(0.00382141 0.000377114 5.20915e-19)
(0.0041446 0.000336388 -2.32663e-17)
(0.00543186 0.000468716 3.32512e-18)
(0.00462192 0.000486522 -1.48054e-18)
(0.0129619 0.00260189 -4.05855e-18)
(0.012209 0.00241968 -1.05268e-17)
(0.011757 0.00227196 -1.68463e-18)
(-0.000693841 0.00303736 -6.54391e-18)
(-0.000680181 0.00295067 -1.6911e-19)
(-0.000607178 0.00295651 -5.98103e-18)
(-0.000320787 0.000429839 -4.01556e-18)
(-0.000312492 0.000432842 -5.0505e-19)
(-0.000327573 0.000442729 -2.27016e-18)
(-0.00247332 0.000547589 -1.36768e-18)
(-0.00264099 0.000552714 -8.43993e-21)
(-0.00257531 0.000414307 -3.74845e-18)
(0.0138827 -0.000123101 -1.1879e-17)
(0.0139333 -0.000196034 7.53204e-18)
(0.0140116 -0.000163287 -1.73598e-17)
(-0.00201041 0.00257829 -3.85485e-18)
(-0.0020609 0.00261544 2.041e-18)
(-0.00199716 0.00263185 -3.31895e-18)
(-0.00231731 0.000543363 1.63609e-18)
(-0.00233502 0.000690855 -3.40103e-18)
(-6.77037e-05 0.00166546 1.37855e-17)
(-5.6614e-05 0.00164764 -9.20997e-18)
(-7.62511e-05 0.00164281 7.2361e-18)
(-0.000101214 0.00173545 -2.36154e-20)
(-8.96232e-05 0.001704 9.18019e-18)
(-7.2048e-05 0.00173749 2.03206e-17)
(-0.000211153 0.000669477 2.90716e-18)
(-0.000219899 0.000662588 -6.4053e-18)
(-0.000225534 0.000683333 2.07775e-18)
(-0.000413723 0.000367668 1.04368e-18)
(-0.000426067 0.000377788 -9.1467e-19)
(-0.0004209 0.000364094 -9.86242e-19)
(-0.00241359 0.000302125 1.61142e-18)
(-0.00243192 0.00033979 5.88285e-18)
(-0.00246337 0.000288601 5.31321e-18)
(-0.000400082 0.000354386 -1.49754e-18)
(-0.000400722 0.000372462 -1.77096e-18)
(0.0057826 0.000589153 2.30879e-17)
(0.00713934 0.000542379 2.03437e-17)
(-0.00120778 -0.000192869 2.83394e-20)
(-0.0012369 -0.000193997 -1.17143e-18)
(-0.000668582 0.000290541 4.51947e-19)
(-0.000671298 0.00027677 4.87603e-19)
(-0.00086493 0.0014894 -5.03475e-19)
(-0.000883993 0.00152591 -8.24291e-19)
(-0.000845718 0.00151016 -8.45751e-20)
(-0.00038601 0.000384196 5.43169e-19)
(-0.000390163 0.000399981 2.80257e-18)
(-0.00370291 0.00159368 1.03661e-18)
(-0.00376894 0.0015425 -2.41692e-18)
(-0.00378707 0.0016569 -2.94974e-18)
(-0.00269126 0.00117123 -5.1305e-18)
(-0.00265871 0.00112624 5.05645e-18)
(-0.00263119 0.00118017 -8.22092e-18)
(-0.00201474 -0.00062426 -4.32345e-20)
(-0.00199747 -0.000594298 -1.61489e-18)
(-0.00197739 -0.000634011 4.83693e-18)
(-0.0015658 -0.000356522 -1.09232e-18)
(-0.00158605 -0.000341556 2.62802e-18)
(-0.000272289 0.000128613 1.40883e-18)
(-0.000270123 0.00013299 -1.06933e-18)
(-0.000280038 0.000133614 -1.08839e-18)
(-0.000241167 1.24468e-05 2.39844e-19)
(-0.000241012 1.83448e-05 -5.00962e-19)
(0.000963902 2.18639e-06 1.24893e-18)
(0.00140439 -0.000120281 5.78168e-18)
(0.00436943 -0.000204407 -1.38363e-17)
(0.00494318 -0.000257703 1.14579e-17)
(-0.000950477 0.00283973 1.19196e-19)
(-0.000894099 0.00284051 4.92588e-18)
(-0.000930312 0.00287708 2.08131e-19)
(-0.000571944 0.000246227 4.02899e-20)
(-0.000554057 0.000246494 3.30169e-19)
(-0.000558175 0.000235378 1.51516e-19)
(-0.000506969 0.000640873 -1.87348e-18)
(-0.000522716 0.000646246 -4.7002e-19)
(-0.000515866 0.000660389 -2.98515e-19)
(0.0140502 -0.00166617 -1.18246e-18)
(0.0145091 -0.00175885 2.14753e-18)
(0.0141817 -0.00161835 -3.94956e-18)
(-0.004588 -0.000975162 -3.29418e-18)
(-0.00469443 -0.00084711 -1.24912e-17)
(-0.00465837 -0.00109463 -1.12709e-17)
(0.000111358 0.00192121 1.121e-18)
(8.91455e-05 0.00190097 -7.1856e-18)
(0.000100158 0.00195111 -8.80013e-18)
(-0.000333431 0.00043145 1.3131e-18)
(-0.000317414 0.000414847 8.03986e-19)
(-0.00166908 0.00198147 -1.74935e-18)
(-0.00168036 0.00193286 2.49996e-18)
(-0.00163053 0.00195156 1.17401e-17)
(0.0175611 -0.00255534 -7.81882e-19)
(0.0169409 -0.00239141 -2.35947e-18)
(0.0176222 -0.00259986 3.97153e-18)
(-0.00219556 -0.000115935 -2.90766e-18)
(-0.00221987 -0.00013682 -3.73667e-18)
(-0.00221536 -9.78879e-05 1.5908e-18)
(-0.00089003 0.00119443 3.96558e-19)
(-0.00090522 0.00122491 5.69304e-19)
(-0.00166231 0.00105472 1.16123e-18)
(-0.00168966 0.00102202 -2.18655e-18)
(-0.0016411 0.00102458 -2.4215e-18)
(-0.00614322 0.00331025 -3.99067e-18)
(-0.00639395 0.00332702 -9.96713e-18)
(0.0188196 -0.00231579 -1.91382e-18)
(0.018095 -0.00221298 2.71211e-18)
(-0.00227899 0.00177754 1.52129e-17)
(-0.00228868 0.00172049 1.40397e-18)
(0.0123106 0.00243532 -2.05763e-18)
(0.0111907 0.00242784 -1.60485e-18)
(0.0106189 0.00230765 5.38629e-18)
(4.07157e-05 0.00174748 3.56229e-19)
(0.00671089 0.000534285 -2.56195e-17)
(0.00549111 0.000490156 -6.8881e-18)
(-0.000117134 0.00153197 4.5012e-18)
(-9.63358e-05 0.00154557 -5.38954e-19)
(-9.32942e-05 0.00152026 8.60633e-18)
(-0.00215568 -0.000162922 -1.97844e-19)
(-0.00212503 -0.000156816 -1.05497e-17)
(-0.00214067 -0.000184892 -3.64218e-18)
(-0.00278307 0.00245326 -1.88004e-17)
(-0.00282222 0.00239778 -5.10716e-18)
(-0.000278232 0.000938566 2.66281e-19)
(-0.000268008 0.000923602 5.56786e-19)
(-0.000277993 0.000916714 -7.84176e-18)
(-8.5562e-05 0.000494534 -5.9828e-18)
(-9.51684e-05 0.000499994 -5.60556e-18)
(1.50894e-05 0.00206089 -2.62046e-17)
(4.62783e-05 0.00209024 -1.88276e-17)
(3.28338e-06 0.00210339 3.44271e-18)
(-0.00875612 0.00418898 2.51613e-17)
(-0.00226346 0.00412052 -6.50288e-18)
(-0.00258389 0.00396273 3.34409e-18)
(-0.000608988 0.00101425 -6.89405e-19)
(-0.000616714 0.00103444 1.76466e-18)
(-0.000594628 0.0010289 -1.389e-18)
(-0.0003848 7.61608e-05 3.5458e-19)
(-0.000373301 7.89987e-05 4.81896e-20)
(0.0047521 0.000422327 -1.37612e-17)
(0.0117593 0.000145204 9.38073e-19)
(0.0117377 3.46649e-05 1.69898e-18)
(0.0113901 -7.13593e-06 -2.97932e-18)
(-0.00167419 0.00202021 -3.6318e-18)
(-0.00171624 0.00199623 5.15466e-19)
(-0.00226701 0.000432111 -2.82267e-18)
(-0.00217555 0.000548063 2.74292e-18)
(-0.00362815 0.0016643 4.22612e-19)
(-0.00362106 0.00155379 -2.32073e-18)
(-0.00272235 0.00121609 -4.88788e-18)
(-0.00275015 0.00116186 -1.96331e-18)
(-0.00485895 -3.69927e-05 -3.39703e-18)
(-0.00484011 0.000124459 -1.03323e-17)
(-0.004704 2.37215e-05 7.7465e-18)
(-0.000132563 0.00080257 1.03383e-19)
(-0.000142913 0.000802824 4.2295e-18)
(-0.000140011 0.000820817 8.72842e-18)
(-6.45838e-05 0.000606127 -3.13146e-18)
(-5.8131e-05 0.000611301 6.83721e-18)
(-5.77409e-05 0.000594827 -4.69794e-18)
(-4.90818e-05 0.000147844 4.36949e-19)
(-4.9049e-05 0.0001513 6.60602e-19)
(-4.53174e-05 0.000142071 4.55599e-19)
(0.0117425 0.000643289 -3.61178e-17)
(0.010475 0.000829579 -1.28157e-17)
(-0.00210359 -0.000114508 7.87842e-19)
(-0.00210609 -0.000139974 -2.75489e-18)
(-0.00208363 -0.000125114 4.68338e-18)
(-0.00120961 -4.10769e-05 1.03109e-19)
(-0.00122399 -5.00418e-05 -7.77614e-19)
(-0.00123039 -3.39134e-05 1.28744e-18)
(-2.33461e-06 9.26783e-06 -7.34987e-19)
(-2.43483e-06 8.10203e-06 3.69363e-18)
(-3.62818e-06 1.10459e-05 5.09109e-18)
(0.0163928 0.00173827 -1.64338e-19)
(0.0159801 0.00176705 -1.37158e-19)
(0.0166553 0.00204129 2.84674e-18)
(-0.00240039 0.000255267 -1.1253e-17)
(-0.00236133 0.000306176 -5.80414e-18)
(-0.00211076 0.000104568 -1.53805e-18)
(-0.00202506 0.00015976 -1.11376e-18)
(0.0106626 -0.000767977 -5.22237e-18)
(0.0101797 -0.000653799 -5.95902e-18)
(0.0156153 -0.0017368 6.21917e-19)
(0.0146069 -0.00137299 5.44924e-19)
(0.0155004 -0.00153281 1.95187e-18)
(0.015637 -0.00179719 -3.24923e-18)
(0.0168553 -0.0020651 -2.03351e-18)
(0.0088147 0.000603676 4.1253e-18)
(0.00934585 0.000875443 2.29885e-17)
(-0.000883503 0.00146722 -5.36026e-19)
(-0.000848496 0.00145498 1.77231e-18)
(0.0241449 -0.00153899 2.38296e-20)
(0.0238514 -0.00136054 7.77643e-18)
(0.0257499 -0.00136164 2.28713e-18)
(-5.19944e-05 0.000178964 2.07708e-18)
(-4.7929e-05 0.000174055 -2.24883e-18)
(-4.79923e-05 0.000169466 4.05924e-18)
(-0.000275396 0.00012339 -1.67916e-18)
(-0.000264679 0.000122276 2.70802e-18)
(-0.00271817 0.00042698 3.54174e-18)
(-0.00272178 0.000485671 3.29293e-19)
(-0.00266453 0.000458449 -1.26769e-17)
(-2.22394e-05 7.40727e-06 1.56838e-18)
(-2.01266e-05 9.48931e-06 4.01383e-18)
(-1.87921e-05 6.22976e-06 -1.77631e-18)
(0.0134921 0.00261823 2.2691e-17)
(0.0145715 0.00263732 2.43134e-17)
(-0.00048675 -0.000563364 2.71194e-18)
(-0.000878024 -0.000575888 2.7228e-18)
(-0.000597728 -0.000471127 2.20417e-19)
(-0.00171058 1.1744e-05 -1.54779e-18)
(-0.00169215 -7.70053e-05 -5.19862e-18)
(-0.0015656 2.13315e-06 -5.93468e-18)
(-0.000278886 0.000119075 -1.06216e-18)
(-0.000285726 0.000124701 -3.07012e-18)
(-0.00170051 -0.000343053 -7.23081e-20)
(-0.00171638 -0.000324703 -2.24744e-18)
(-0.00168437 -0.000323169 -2.41837e-18)
(-0.00175183 0.000122482 2.42361e-18)
(-0.00180931 1.46281e-05 6.16587e-18)
(-0.00448917 -0.00114134 9.99577e-18)
(-0.00441256 -0.000920463 9.61587e-18)
(-0.000760714 0.00314281 -1.6436e-19)
(-0.000902162 0.00144448 -1.70834e-18)
(-0.000887808 0.00140926 1.25829e-18)
(-0.000922843 0.00141801 1.05961e-18)
(-0.00217194 -0.000143342 5.76113e-18)
(-0.00215612 -0.000106947 3.60292e-18)
(0.000909661 0.000159152 2.77136e-17)
(0.000906029 0.000198696 4.23661e-18)
(0.0120343 0.000285781 -3.2912e-20)
(0.0117608 0.000198716 -2.3335e-18)
(-0.00216431 -0.000804913 -1.00188e-18)
(-0.0021275 -0.000854351 3.09594e-18)
(-0.000135898 0.00138321 2.09435e-18)
(-0.000126027 0.00137968 1.74043e-18)
(-0.000131751 0.00140008 3.5302e-18)
(-0.000155499 0.000773999 1.63227e-19)
(-0.000146872 0.00077209 -5.48323e-18)
(-0.000148972 0.000756454 -3.6522e-18)
(-0.00038953 0.000263345 8.87429e-20)
(-0.000394258 0.00027441 6.59691e-19)
(-0.000404636 0.000267329 6.64217e-19)
(-0.0116226 0.00429922 2.24742e-18)
(-0.0116452 0.00442248 1.2339e-17)
(-0.00212361 -0.000100309 6.17943e-19)
(-0.00209074 -8.88118e-05 -1.99645e-18)
(0.0101867 -0.000686797 3.19265e-19)
(0.00960311 -0.000667509 -2.44875e-19)
(-0.00150224 0.000570995 2.80198e-18)
(-0.00153602 0.000592855 -4.35961e-19)
(-0.000600216 0.000991539 -6.39398e-19)
(-0.000623005 0.000999829 -1.02383e-18)
(-0.00282021 0.000522918 -5.39772e-19)
(-0.00299543 0.000466477 2.9669e-18)
(-0.00288012 0.000328017 -2.91982e-18)
(-0.00213763 -0.000773356 -6.17331e-19)
(-0.00218408 -0.000760812 -1.38895e-18)
(-0.000870614 0.000146469 -5.10183e-19)
(-0.000890088 0.000153735 -4.31134e-19)
(-0.000872409 0.000161535 -3.59327e-19)
(-0.000830484 0.000427999 -8.69154e-20)
(-0.000807662 0.000428267 -6.30572e-19)
(-0.000815732 0.000412233 3.95947e-19)
(3.92506e-05 0.00179137 -8.81707e-18)
(1.33331e-05 0.00181328 -2.64187e-17)
(4.59848e-05 0.00183215 -8.46598e-18)
(-0.00275817 0.0024612 -5.48533e-18)
(-0.00272461 0.00247025 4.73277e-18)
(-0.00274448 0.00243745 9.44966e-18)
(0.0164438 0.00118667 1.69686e-18)
(0.0168954 0.00137214 -8.04924e-19)
(0.0174196 0.00122712 4.82761e-18)
(0.0194317 -0.00169844 1.16083e-19)
(0.0193045 -0.00148336 -5.64907e-18)
(0.0203494 -0.00178679 -7.6092e-18)
(-0.0019569 -6.48182e-05 -3.23375e-19)
(-0.00197793 -8.92761e-05 1.21196e-18)
(0.000334135 0.00323423 3.45334e-18)
(0.000418494 0.00314084 -1.46616e-17)
(0.000380371 0.00332652 -1.85701e-17)
(0.0155725 0.00115572 2.82401e-18)
(0.0160983 0.00106099 5.57208e-18)
(-8.98283e-05 0.00108453 -2.29535e-17)
(-8.55865e-05 0.00106673 5.21624e-18)
(-7.29558e-05 0.00108015 5.37877e-18)
(-0.00205813 -0.000281105 -4.98594e-19)
(-0.00206298 -0.000266104 -3.00628e-18)
(-0.0020396 -0.000273622 -1.98863e-18)
(0.0140693 -0.00146932 -3.86772e-18)
(0.0149508 -0.00165487 -9.37728e-19)
(0.0139686 -0.00144608 -3.34945e-19)
(-0.00139228 0.00070186 -5.84069e-19)
(-0.00140767 0.000721637 -1.44677e-18)
(-0.00137353 0.000721398 -7.64212e-19)
(-0.00357303 2.41593e-06 1.30745e-18)
(-0.00370293 -0.000127368 5.4567e-18)
(-0.0037135 0.000132371 3.32334e-18)
(-0.000495899 0.000639778 3.75796e-20)
(-0.000498499 0.000628793 5.35886e-19)
(-0.00278499 0.00248493 -1.08043e-17)
(-3.20551e-06 4.68306e-05 -3.72955e-18)
(-7.15753e-06 5.28158e-05 8.49472e-19)
(-7.234e-06 5.8318e-05 -5.06075e-18)
(-0.00203017 0.00132711 1.49176e-19)
(-0.00207733 0.00131261 -2.67258e-18)
(-0.00205923 0.00137252 -6.08101e-19)
(-0.000771553 0.00108742 -1.47403e-18)
(-0.000795248 0.00109002 -3.35034e-21)
(-0.000787156 0.00111274 1.84969e-18)
(-0.000116148 0.000675236 -5.38192e-19)
(-0.000123188 0.000667969 2.91297e-18)
(-0.00269603 -0.00170796 -3.66412e-18)
(-0.00262792 -0.00180624 -3.0033e-18)
(-0.00277945 -0.00184378 -8.76152e-19)
(-0.000876459 0.000302974 3.121e-20)
(-0.000857201 0.000292838 -2.89639e-20)
(-0.000878405 0.000286264 -1.13529e-19)
(-0.000288114 0.00229226 3.57853e-17)
(-0.000417026 0.00236538 8.7161e-19)
(-0.000272596 0.000112414 1.86913e-18)
(-0.000283391 0.000114401 2.69618e-18)
(-0.00264185 -0.00102853 -2.29017e-18)
(-0.00273139 -0.00103136 -1.50151e-18)
(-0.00267576 -0.00094621 4.81432e-18)
(0.0102368 -0.00084083 1.43484e-18)
(0.0097094 -0.00074774 -3.14801e-19)
(0.012046 0.00245742 -8.1809e-18)
(0.0115647 0.00247536 -1.07979e-17)
(0.0133528 0.00257019 -8.19403e-18)
(-0.00016299 0.00138916 -1.63029e-17)
(-0.000178158 0.00135958 -1.46733e-17)
(-0.000190964 0.0013976 -1.99628e-17)
(-0.00205413 -0.000297043 6.39001e-19)
(-0.00207226 -0.000287322 5.17373e-21)
(-2.0587e-06 3.09042e-05 -8.37768e-20)
(-1.34091e-06 2.29497e-05 -4.25976e-18)
(-1.36435e-06 2.34213e-05 5.1361e-18)
(-2.66221e-06 0.00204262 -1.1254e-18)
(1.6654e-05 0.00202109 -3.95975e-17)
(-0.000122011 0.000306435 1.04622e-18)
(-0.000115399 0.00029393 7.5437e-19)
(-0.000122843 0.000299673 2.96708e-18)
(-0.0019873 0.00130516 3.52589e-18)
(0.009863 -0.002132 -1.68258e-17)
(0.0064724 -0.00125099 8.13815e-18)
(0.00796139 -0.00139337 1.91549e-19)
(-0.000157278 0.00139212 -2.93495e-18)
(-0.000146997 0.00136303 -5.31469e-18)
(-0.00137049 0.000674178 -3.03398e-20)
(-0.00140922 0.000673131 1.05931e-18)
(-6.18073e-06 0.000279479 5.4296e-19)
(-7.47534e-06 0.000293124 6.21031e-19)
(0.0187088 -0.00154735 6.36486e-18)
(0.0194522 -0.00180764 -3.50367e-18)
(-0.000418842 0.000189832 -2.14852e-19)
(-0.00040858 0.000179091 5.19154e-19)
(0.00650748 -0.00224467 -1.38221e-17)
(0.00626768 0.00228945 1.48122e-17)
(0.0192253 -0.00126488 3.90701e-18)
(0.0190878 -0.00104709 -2.26436e-18)
(0.0201008 -0.0012743 9.01453e-18)
(-0.0019641 0.00254173 -4.56702e-18)
(-0.00202084 0.00253074 -1.89464e-18)
(-2.28823e-06 1.03626e-05 -4.97871e-18)
(-1.30747e-06 7.41966e-06 9.61602e-19)
(-0.00183194 0.00332112 -4.75893e-18)
(-0.00257474 0.00363287 -4.36889e-17)
(-0.00279057 0.00377164 1.45062e-17)
(0.0121943 -0.000993285 -2.4847e-18)
(0.012195 -0.000940972 -6.70962e-18)
(0.0128106 -0.00112578 4.74265e-18)
(0.0163498 0.00187603 -4.04384e-18)
(0.0158 0.00196571 -3.18516e-18)
(-0.00341664 -8.72601e-05 -4.29942e-18)
(-0.00197714 0.00030911 1.46353e-19)
(-0.00197522 0.000347919 6.64063e-18)
(-0.00193752 0.000317228 6.6309e-18)
(9.37655e-05 0.0021407 1.3985e-17)
(6.09831e-05 0.00210432 4.21755e-18)
(9.18443e-05 0.00209203 -1.42141e-17)
(-0.00258995 -0.00158799 -3.18676e-18)
(-0.00272575 -0.00160885 4.2068e-18)
(-0.00171681 -0.00036274 4.81518e-18)
(-0.00168457 -0.000364975 3.33448e-18)
(-0.000737983 0.00294898 -5.42266e-18)
(-0.0007008 0.00290394 1.14818e-17)
(-0.00101224 0.00159233 4.54808e-19)
(-0.000976841 0.00155361 -1.36504e-18)
(-0.000996808 0.00154538 8.10656e-19)
(0.0107975 -0.000342384 3.94026e-19)
(0.010501 -0.000392038 3.71328e-18)
(0.0105953 -0.000404213 -1.85079e-18)
(-0.00372077 -0.000401237 8.74375e-19)
(-0.00365633 -0.000513147 8.98334e-18)
(-0.00360863 -0.000366112 1.20441e-17)
(-0.000178693 1.12853e-05 -7.1019e-19)
(-0.000187891 1.52485e-05 1.78677e-18)
(-0.000180323 2.16222e-05 -2.46876e-18)
(-0.00156525 0.000269569 2.02796e-18)
(-0.00153263 0.00026123 1.1722e-18)
(-0.00153822 0.000289312 1.34992e-18)
(-0.00268564 0.000720493 6.39364e-18)
(0.0166471 0.00160211 -3.95477e-18)
(0.0161323 0.00146569 -2.63467e-18)
(0.0170321 -0.000473593 1.57856e-18)
(0.0172694 -0.000404858 2.25664e-18)
(0.01723 -0.000544508 1.64334e-18)
(-0.000377139 0.000258847 -5.79582e-19)
(-0.000385965 0.000254126 -1.43595e-18)
(0.000119058 0.0019354 -3.33293e-17)
(-0.000102665 0.000476087 1.30286e-18)
(-9.91534e-05 0.000467194 4.74908e-18)
(-9.24758e-05 0.000465027 6.63365e-18)
(-0.00187049 -0.000988432 1.33214e-18)
(-0.00190152 -0.0010659 4.36497e-18)
(-0.00194547 -0.000995019 1.96869e-18)
(-0.00476365 -0.000662192 -3.44597e-19)
(-0.00481765 -0.000493737 8.36898e-18)
(-0.00461481 -0.000579395 1.01174e-17)
(-0.00158824 0.000282157 -3.1962e-20)
(-0.00158444 0.000259225 1.35534e-18)
(-0.00239239 0.000219267 -8.51175e-19)
(-0.0024346 0.000214579 -4.61156e-18)
(-0.00379123 -0.000321132 -8.58949e-18)
(-0.00383369 -0.000463574 -7.00838e-18)
(-0.000229168 0.000528534 9.6978e-18)
(-0.000241846 0.000532886 3.24183e-18)
(-0.000229447 0.000514534 9.17153e-19)
(-7.96097e-05 0.00168245 1.45239e-17)
(-5.75179e-05 0.00168809 -5.16e-18)
(-0.00211571 -9.6779e-05 -3.4736e-18)
(-0.00211305 -3.48764e-05 -9.24485e-19)
(-0.00217177 -8.05455e-05 -3.8263e-19)
(-0.00841989 -0.00366565 1.1087e-18)
(-0.00880765 -0.00329185 -1.13602e-17)
(-0.00759802 -0.00336432 -8.38987e-18)
(-5.53137e-05 0.000302396 -2.72351e-18)
(-5.24934e-05 0.000290249 -2.32715e-18)
(-5.02412e-05 0.000291705 -1.43353e-18)
(-0.00011097 0.000661455 -2.04002e-18)
(-0.000107749 0.000679618 -1.21801e-18)
(-0.000166269 0.00140159 -3.13545e-18)
(0.0175944 -0.00206465 6.91698e-19)
(0.0177272 -0.00208269 -4.72287e-18)
(0.0187907 -0.00222666 4.57547e-22)
(0.000499567 0.000154503 -1.28462e-17)
(-0.000162812 0.000196674 3.33639e-17)
(0.00052233 0.000128386 -4.17202e-18)
(-0.00226321 -2.39264e-05 -1.0651e-18)
(-0.00224213 -4.69688e-06 -3.22499e-18)
(-0.00227728 3.41188e-06 2.04604e-18)
(-0.000587474 0.000246618 -4.63366e-19)
(-0.000583721 0.000258018 -6.26808e-20)
(-0.00437477 -0.0012819 -6.99258e-19)
(-0.00442111 -0.00139329 9.9602e-18)
(-0.00486203 -0.000188916 1.52877e-18)
(-0.00484786 -0.00035377 2.77338e-18)
(-0.0046921 -0.000273305 -5.61808e-18)
(-0.00211197 -0.000659876 2.46165e-18)
(-0.0020874 -0.000624831 1.47755e-19)
(-0.00211914 -0.000623686 1.00392e-18)
(-0.00237964 0.000175014 -8.14392e-19)
(-0.00234497 0.000220675 -1.95281e-18)
(0.0175442 -0.0020433 -9.99384e-19)
(0.0164475 -0.00188222 3.65653e-18)
(0.0143709 -0.000365003 1.26545e-18)
(0.0144589 -0.000490456 -2.70662e-18)
(0.0145541 -0.000466332 -6.08427e-18)
(-0.00160508 0.000393687 3.35971e-19)
(-0.00160645 0.000419343 4.27937e-19)
(-0.00163411 0.000397849 1.53833e-18)
(-0.00189711 -2.65467e-05 2.49666e-18)
(-0.0019237 -2.85605e-05 4.33201e-18)
(-0.00189946 -4.94458e-05 1.46554e-18)
(-0.00207949 0.00309798 -6.16526e-18)
(-0.000441464 0.00177846 -8.64231e-18)
(0.0073967 0.0004317 -1.01436e-17)
(-0.000443603 0.000341351 -9.87117e-19)
(-0.000455247 0.000352981 -2.29783e-18)
(-0.000435216 0.000348669 -4.34204e-19)
(-4.87932e-05 0.000142038 -8.26499e-19)
(-4.823e-05 0.000136992 9.58353e-19)
(-4.35599e-05 0.000132448 1.64053e-18)
(-0.0021349 -0.000689557 9.17998e-18)
(-0.0020925 -0.000693839 3.97414e-18)
(-0.00197445 0.0018041 -2.01537e-18)
(-0.00199032 0.00175494 -1.21315e-18)
(-0.00193269 0.00176669 2.43554e-18)
(-0.000432749 0.000189377 5.45984e-19)
(-0.000444874 0.00018965 1.14908e-18)
(-0.000433966 0.000180985 -7.62268e-20)
(-6.77513e-06 5.24372e-05 -1.52602e-19)
(-6.88822e-06 5.32047e-05 3.07806e-18)
(-4.67214e-06 4.54095e-05 -3.2558e-19)
(-0.000127848 0.000316043 -2.27468e-18)
(-0.000120663 0.000311142 -1.89908e-18)
(-7.65358e-05 1.2675e-05 2.07901e-19)
(-8.18781e-05 1.298e-05 9.03708e-19)
(-7.58674e-05 7.45863e-06 1.95336e-19)
(-0.00191684 0.000183047 2.27501e-18)
(-0.00195259 0.000190193 1.59095e-19)
(-0.00194419 0.00015666 2.01602e-18)
(-5.42804e-05 0.000152284 -8.51373e-19)
(0.0141026 -0.00149881 3.086e-18)
(0.0150182 -0.00170567 5.89002e-18)
(-0.00224921 5.68298e-05 -1.04093e-18)
(-0.00222068 2.57225e-05 2.48891e-18)
(-0.000410503 0.000546289 -6.20688e-18)
(-0.000402552 0.000551078 -3.22226e-18)
(-0.000418262 0.000557539 5.46187e-18)
(0.016673 0.00136802 -1.63593e-18)
(0.0137731 -0.00155577 -2.01957e-18)
(0.0135705 -0.00142725 2.90959e-18)