/*--------------------------------*- C++ -*----------------------------------*\
| =========                 |                                                 |
| \\      /  F ield         | OpenFOAM: The Open Source CFD Toolbox           |
|  \\    /   O peration     | Version:  v2012                                 |
|   \\  /    A nd           | Website:  www.openfoam.com                      |
|    \\/     M anipulation  |                                                 |
\*---------------------------------------------------------------------------*/
FoamFile
{
    version     2.0;
    format      ascii;
    class       volScalarField;
    location    "150";
    object      omega_0;
}
// * * * * * * * * * * * * * * * * * * * * * * * * * * * * * * * * * * * * * //

dimensions      [0 0 -1 0 0 0 0];


internalField   nonuniform List<scalar> 
13851
(
0.237144
0.0265837
0.02639
4.18222
0.0220851
0.03007
0.0265131
0.0219025
4.48188
0.0220621
0.0922479
0.0220913
0.0221793
6.54052
0.0524805
0.214014
7.98608
0.0221629
5.20159
0.237829
0.0602937
0.0285575
22.0293
0.0222638
7.12403
0.102803
1.54623
5.5714
4.5377
0.0218222
3.68096
0.0265311
0.230731
4.73427
0.058136
4.55569
0.0222741
10.0187
3.82971
0.0222486
4.32788
4.644
17.7074
0.998011
4.76402
0.0219686
0.0215871
0.212829
0.0246672
0.0221691
9.00091
0.0222259
0.2142
0.0404606
6.6986
0.0222414
0.23562
4.28025
0.829928
7.70865
0.0220982
0.663089
0.0221069
0.0248911
0.291518
0.317467
11.6252
0.0716531
0.0223764
3.87281
3.86589
0.0745806
0.0220948
9.28521
0.0441743
0.0247873
6.58238
0.0217029
7.27795
0.0219904
0.0224087
2.35836
0.0564556
6.46399
7.29463
3.71169
0.0289706
6.87233
0.0220585
3.6764
0.0222708
0.0267495
24.8013
3.80002
4.00102
0.56245
0.0219905
0.223064
8.92392
0.304646
0.230633
0.0450766
0.0493658
0.0221543
0.0219657
0.0700439
0.0219662
3.78204
0.0267449
0.0221122
0.0340657
0.0219688
0.340867
0.09461
0.220434
0.0386357
0.0218055
0.0218454
4.40434
3.78957
0.336398
0.0219336
0.0223354
4.485
1.42031
0.136176
0.0219906
0.073794
4.40842
0.0697534
0.0284665
0.0392761
10.7135
4.69799
0.0954229
3.96533
0.0690979
3.74936
0.0378161
0.0691452
1.83325
0.0228687
0.0220594
0.122658
6.51375
0.0243013
0.0216937
3.75945
4.36444
0.0769134
0.230787
0.315855
0.101584
1.19166
0.022364
0.0220882
0.0221103
3.83973
0.0629728
0.0253479
0.022243
4.54311
0.0689676
0.213436
6.68903
4.66391
4.71769
7.46336
0.0336316
5.26428
0.0221127
0.0218069
0.0892412
0.0221398
3.95617
2.86946
0.256018
0.0217945
0.0440417
0.249342
1.11079
0.942551
0.0327839
0.069091
20.0957
4.36268
0.230304
0.0303581
0.0222944
0.021889
6.69723
0.0628421
10.853
0.0302279
0.02411
0.218272
0.22134
0.0225629
0.0225997
0.0785137
1.6314
4.0569
4.23281
0.0526503
3.24525
4.11196
0.023908
0.0681107
4.49672
0.0287527
0.211288
0.0223101
2.17438
0.022237
0.0599243
0.0259386
0.0221427
0.476955
0.0226493
3.65016
0.0217905
0.238897
9.13199
3.96029
0.029976
0.0693161
0.0222649
0.103242
0.0220356
0.0589139
4.58124
0.0297742
0.0287683
0.0221245
4.22727
0.0218174
22.0001
4.20027
0.261414
0.0222514
6.66764
6.94411
4.78369
0.211425
0.0448233
0.172376
0.371142
0.0441965
0.526086
0.0368045
7.15193
0.256752
0.0218818
0.0302771
0.223821
4.47698
5.31489
0.0218826
0.140508
0.0220561
0.351744
1.1867
0.0310494
0.0700608
0.262816
0.0220469
0.0469331
0.182101
5.42775
0.0220974
0.0221393
0.0300444
4.77263
5.9676
0.06852
0.0219704
1.14306
1.1465
0.197167
0.0692708
4.69712
9.53438
0.0318258
0.0463826
10.9904
0.0219602
0.022109
0.203078
0.0779957
0.0218206
0.0222342
0.0220282
0.0220075
0.0447821
0.0221031
4.52274
0.0637452
0.0221034
4.48176
4.59917
0.0222659
0.242095
9.53485
0.0230463
0.0222918
0.0667377
7.59888
4.21467
0.101296
0.0220745
5.32692
0.0221056
0.110606
7.50324
5.35125
0.0251494
11.7227
10.6201
3.68763
0.305724
0.0475689
3.90849
4.34989
5.61339
0.0227301
5.51665
25.3301
0.982217
0.833449
0.0239243
0.0991379
0.0313794
6.26593
0.0520951
0.0218856
0.0215227
0.0316324
3.75534
3.10067
0.0219503
4.01157
0.0316123
0.0396729
0.0256431
9.70937
1.04721
0.218619
0.0255183
0.0278153
4.4564
0.0223074
1.78337
0.0316386
0.0666882
0.0318688
0.0220564
0.0221009
0.29623
0.353883
0.256762
11.0972
4.5011
0.0244268
4.20147
0.372141
0.0217854
5.3198
0.152019
7.37157
0.0308106
0.108688
0.396525
8.71839
0.267757
5.63189
0.0233911
3.86971
14.5629
0.0390645
5.57182
0.043816
4.2052
0.0454726
0.0575222
0.256024
0.604673
0.0220863
0.0308434
0.0842266
0.0444132
0.0219923
0.0694239
5.17092
0.022095
0.0685781
5.01731
0.0261144
11.1439
0.0653203
4.41344
0.0297031
0.0969289
2.72445
1.60806
0.0685359
6.26652
9.1213
3.43561
0.0220463
0.269864
0.0437654
0.10837
0.0219493
19.1587
5.10967
7.94001
0.027745
0.264309
1.19338
5.70482
0.0216288
7.11381
0.874358
19.4239
0.038296
5.94701
0.0220826
0.0221283
8.31838
1.545
0.0220619
0.0266585
0.0698958
0.021842
5.20856
0.100246
0.148063
0.0298728
0.0234138
0.0222286
9.10605
0.022093
0.022211
3.99529
5.20646
0.0277416
0.333096
0.0221129
0.0221012
0.0267513
0.259512
0.0640947
0.0220089
0.0239144
0.320445
0.0249214
4.69125
0.0220857
0.0334389
4.80022
0.038202
0.0215845
0.0221298
0.0297046
0.0228252
3.36462
4.17999
0.0453588
6.85892
0.0268583
0.0220727
4.49261
0.446971
0.0369184
0.0221299
4.36747
0.0360439
16.9552
0.0221544
0.0399629
0.279119
0.0480773
4.34177
1.36625
8.20308
0.0244627
0.330103
0.0220489
4.47469
0.0652205
0.222417
0.0435547
0.0251919
0.038173
0.0899854
0.022096
6.33206
4.43535
4.9523
5.20456
4.16468
5.13289
1.71604
0.0290139
0.0222126
17.5012
0.0220649
0.0219875
0.031371
3.9618
0.0262831
0.0228397
0.114798
0.0671159
0.0220631
5.44137
0.0219897
4.50486
2.78242
0.0219899
0.0251267
1.08564
5.38966
0.0218265
8.36751
18.2709
0.0217871
3.74257
4.26896
0.238969
0.0244172
3.99007
7.57793
0.0218124
3.01281
0.0223505
0.0219923
3.07992
4.20305
0.0532204
0.063128
0.0220647
0.0866619
4.47036
3.8742
0.0219738
6.40553
0.022001
0.0223833
0.069513
0.0333084
0.0216216
0.0247871
3.7504
0.542976
3.76753
0.0256056
0.0220535
4.81669
0.0221867
0.275935
0.0334568
0.0444133
0.0443992
4.77258
7.75906
0.0299887
7.13472
0.024718
0.0987222
4.68457
5.21397
0.0223134
0.0220525
0.0505294
3.77399
0.334298
0.0854825
20.1513
0.0335664
0.0436058
5.72784
5.31627
0.225344
4.46965
0.325308
4.59328
0.0230395
0.790797
6.05838
0.0220916
20.6816
4.56365
0.0337625
0.0692126
0.0221988
6.44506
0.105039
13.4516
0.0220932
0.0221662
0.0270099
0.0656715
0.0220945
3.98652
0.0221607
0.324613
0.0245011
0.110199
0.0221476
0.0220635
0.0557822
6.83903
0.068073
4.01249
0.0399684
0.0218534
0.0218748
0.0895503
0.0238991
0.164868
0.0270993
0.0360858
0.646499
0.0221882
6.16881
0.0222549
0.148508
6.14573
4.81048
0.0293587
15.9711
0.110002
0.489813
4.48332
0.0220749
5.08843
0.0316335
0.0408797
4.83581
7.05835
0.0218031
0.157408
0.0225269
4.53542
7.82182
0.0225396
0.0779904
5.19182
0.0222649
0.0222544
0.104769
7.48695
3.74236
0.0222987
0.257493
0.0245254
0.0220654
0.518032
0.263716
0.290176
0.0216012
0.183119
0.0507237
0.0893401
0.0227834
0.023874
0.0966563
0.0268697
0.196405
0.074777
0.0743341
0.179687
5.08583
4.53458
5.01715
8.72793
0.221162
5.0563
0.0448761
3.43576
0.246018
0.0220798
0.0422862
2.03249
0.0302721
0.0219915
0.0219852
0.149636
6.42702
0.0337829
4.18163
0.0218581
3.95521
0.194173
10.1078
0.15758
0.029974
0.0263842
8.51265
0.289417
0.0430881
1.68046
0.0231813
13.5589
0.149872
0.324089
0.0420555
3.80598
0.0220818
0.022247
0.0236055
0.0220652
4.67662
0.0220066
0.430885
4.73502
0.161523
3.88139
8.03892
0.344481
0.59634
0.0290259
0.0221841
0.0221167
0.0217108
0.0218734
0.022142
0.100228
0.32216
0.0550482
5.55929
0.023886
4.46903
0.0222941
3.93931
0.0518827
0.0222843
0.0221395
4.80419
0.03033
4.41638
4.61756
0.0657326
0.106228
0.0217635
4.64998
0.025334
0.026317
0.642304
0.0221879
0.0228802
0.0220356
0.0655353
6.28493
0.0358694
0.0429575
1.07245
3.9133
0.0297352
0.0284078
4.66888
0.0217064
4.63099
0.0222026
0.02496
7.17482
0.128825
0.220406
0.140899
0.068694
0.0222305
0.0222939
0.106422
0.0231354
0.0222374
0.0347957
0.832542
0.0219929
0.415208
10.7184
4.11298
0.137198
3.77619
0.0382516
0.0221801
0.257946
0.021872
0.030937
4.98936
4.47794
5.06595
4.69465
0.0226658
0.0224892
0.0817519
0.0236199
0.0219309
22.5
0.352786
5.47452
0.149668
0.131415
0.0220719
0.021829
13.7599
0.149148
0.0255917
0.0222545
0.218641
0.401979
4.17383
0.0223454
0.0221544
7.86383
0.0227512
0.0441326
0.0218445
3.97189
0.0219825
5.63005
0.0220893
0.231349
0.0554974
0.0819257
0.0426823
0.0220913
0.0266561
0.0220281
0.366184
0.0227998
4.5183
0.0233129
4.99185
4.58659
0.0394229
0.0220094
4.33311
4.2976
0.0309264
0.12767
0.0221169
7.15042
0.0221202
2.02742
0.0220805
0.0220251
4.32383
0.0447857
0.0221207
0.0411067
4.29088
5.47724
5.11058
0.0218821
4.78049
0.0220915
0.0219994
0.022364
0.0214851
0.022237
4.94731
5.04981
0.0226643
0.0221569
0.0538169
0.0219706
3.95729
0.26877
5.80606
3.89071
0.0265763
0.197518
0.0220854
0.0602245
0.150997
0.0220519
0.0222109
8.9356
7.91768
0.104412
17.1915
0.095599
0.0221117
0.0561122
0.130498
8.09468
0.0424797
3.54131
0.153144
0.0222258
9.36791
7.74254
4.99475
6.85263
2.80264
0.0244377
0.166903
0.0222097
4.87617
0.0295065
0.0218881
4.99047
0.0237114
0.0220099
0.0223177
0.0234602
3.9839
1.79214
0.0219097
0.0573404
7.39728
0.0240948
16.5544
0.023538
0.123761
4.14993
0.0221065
0.336017
0.0338251
0.0414974
6.10603
0.0237002
2.00276
0.0954545
4.34682
0.0226736
4.98878
0.0383235
4.99559
8.83401
6.19873
0.0657542
0.0221032
0.0226736
0.0222647
0.0541659
0.0221327
4.34895
0.0317272
0.0288958
0.0294731
0.0243747
0.0218764
0.0313008
0.031242
0.0251307
0.0299459
4.35367
0.345701
0.0371137
0.062245
5.0667
0.022901
3.72688
0.0217151
0.0365369
0.0228089
0.0220893
0.0533003
0.0220684
0.0219034
0.0478376
0.0220938
0.696627
0.0235977
21.6617
5.55753
0.39943
1.49382
0.0223964
3.9054
0.289697
0.0222285
0.0309283
0.0227319
3.67914
0.0234782
0.0470515
5.28207
5.71278
0.11439
0.0224708
4.8012
5.25923
3.23194
0.0337136
0.0218441
0.0219504
0.101631
0.0220915
9.15602
0.301673
0.0222038
0.420632
0.796624
0.022009
4.45908
6.29659
0.345262
0.0234976
4.77172
0.0991441
0.0220332
7.03377
0.0283058
0.0219724
0.0219953
0.0416292
0.0549755
4.59237
3.70564
0.0582957
4.69793
0.0451969
0.0220587
0.0897482
0.0219896
12.0337
0.0220001
0.0220512
0.0250426
0.0230784
4.70483
6.08472
0.332724
7.92497
4.5209
0.0300642
0.022107
0.0236013
2.80619
0.0219743
0.0219794
0.0549315
7.05631
0.334309
0.0216558
0.046188
0.0432518
0.246132
16.696
0.0217836
0.0216076
0.0250226
8.52279
0.0348111
4.4315
0.0238355
0.0221653
0.0219808
0.0219926
0.0259192
0.342216
4.58567
4.73928
0.0293781
0.0220736
13.6095
0.0228289
5.91594
5.79033
0.0319749
5.4922
4.63049
3.73068
0.0794672
0.0419846
4.52462
0.039015
0.0363009
0.085226
0.544388
0.0230462
5.75735
0.0220606
4.86906
8.20607
0.0217197
0.0245278
0.0544889
1.74166
0.0448134
0.0221447
0.0338201
0.0233641
0.0293415
1.55954
0.0221709
4.43503
6.06987
0.0220684
0.0399724
0.0548113
0.0220969
4.43156
12.35
3.90425
4.23413
0.0220571
0.0262744
0.0298431
0.0223862
0.332595
0.0455346
0.0222584
0.0942915
0.0263221
5.02328
0.0558297
9.09726
0.0232946
0.024077
0.052057
0.150061
0.110954
0.0220391
14.2979
4.78509
25.8603
4.69637
4.93509
4.64082
5.25423
0.0220383
0.0220537
0.0222613
0.331302
0.0637747
0.109573
7.00008
0.0225679
0.0216726
0.0220642
0.295091
0.0216825
0.0311039
0.0245835
4.1304
0.0232713
0.0218786
0.0221021
0.0220693
0.0221635
0.0363642
0.332028
0.0364284
5.28769
0.0220574
0.0219963
4.43986
4.69347
6.79094
3.924
0.0520013
3.81003
0.0218381
0.0735677
0.0240737
0.0220946
0.0263094
4.9832
0.0240892
0.152772
13.1671
0.0226796
0.0220695
0.0270054
0.344122
0.0222726
4.11325
0.0222407
0.323966
0.0221332
0.0226563
0.0311215
0.113399
0.022191
2.18391
3.80302
0.267628
4.78337
0.0220809
6.78151
4.75427
0.0220695
8.43514
0.0223731
0.0426761
0.0222925
0.0224536
0.0219746
0.0220612
0.022826
0.027905
0.102976
0.0225763
0.0221061
0.0654532
0.0217785
5.34927
0.0221328
0.0413138
0.0446431
6.22428
5.65639
0.0221568
0.346926
0.0218373
0.0382293
0.0896463
3.65931
0.0692631
0.0222729
0.176111
0.0824452
0.131463
5.65948
0.0383667
0.266672
0.0857257
0.103946
0.0232478
0.0219502
4.19805
4.7713
0.0265164
0.0220299
15.1961
0.0218642
0.0589401
0.0219906
0.112094
9.60589
0.0215486
5.92326
0.0298577
0.0221726
0.248142
0.0218875
0.0409176
4.20291
0.0542483
4.21891
0.0219703
0.0222657
0.0447667
0.0222302
0.0222481
0.0335043
0.0366093
0.103807
0.118726
0.0221895
0.0461852
0.0219243
0.0220789
0.02222
0.0220722
10.2996
0.0220417
0.0235688
0.342482
0.0218582
0.0220188
4.80822
0.0222517
20.3071
0.024379
4.92486
0.767919
0.0559827
13.9637
0.0926881
2.49637
0.0228897
0.436788
0.0305408
0.0219327
0.0219697
0.0235275
0.0396222
0.0220561
0.068655
0.0219283
0.0240893
16.4533
8.88672
6.33188
0.0262029
0.0495776
6.02258
4.00118
0.0221808
0.0305463
2.60791
0.0225362
0.0512792
12.3225
4.75878
0.032115
0.060969
0.0232864
0.916347
0.0222861
0.03874
5.8351
0.0222919
0.0219265
5.55588
0.0573709
0.331344
4.82025
0.151823
0.022586
0.0219312
0.022718
4.85346
6.06162
5.33252
0.0766387
0.0220715
5.15441
0.0221195
0.32383
0.0269827
0.0246012
0.0601344
0.0220761
4.50646
4.5928
0.0217404
0.103291
0.065262
12.4503
0.0596379
0.0843056
0.331345
0.0447893
0.339231
0.089128
0.0221226
0.0479855
0.0872348
4.13367
0.0220537
2.9944
0.0638092
0.0890054
0.0222734
4.38458
0.0299575
0.0242448
0.02194
0.0469482
0.0457266
0.0631991
0.022133
0.0231244
0.0732489
25.8815
0.0835827
0.0221658
0.0227778
0.0477632
0.616827
0.0221796
0.124947
11.6963
0.0572999
4.86878
0.0541213
9.5384
2.14936
0.0220419
9.82731
0.0222386
0.0267281
0.0425617
0.0457728
0.164358
0.0661333
0.0501124
0.0534783
0.0385003
0.0251751
0.0216743
0.0962156
0.0286617
0.0301112
5.59229
0.0287455
0.0328609
0.0219842
5.47374
0.115941
0.0221875
0.0271005
0.0234093
7.65229
0.281385
0.0425503
4.76184
5.44573
5.51022
0.151201
0.335964
0.0219287
0.338775
0.0219634
0.0272727
10.9746
4.42113
4.24958
9.33638
0.0221306
9.26511
0.0219257
0.127786
0.0265473
3.43502
4.88541
0.0292975
0.0220277
3.46819
0.0448251
0.0220452
4.22705
0.0220803
0.0243551
0.0286459
0.0222784
0.0376275
0.0235344
0.022073
0.0397284
2.72032
0.0559135
0.0835744
0.0220418
7.86017
4.43813
0.0220113
0.517514
0.0264593
0.0301636
5.23903
0.0220083
0.0229914
0.0290848
4.71954
0.0220526
0.0221845
0.0534168
3.01373
0.0219945
0.0343315
0.0380781
5.51715
0.0615128
0.0525671
0.372613
0.0220847
0.137
0.0217312
8.68337
0.0360313
0.0220662
0.0314527
0.149916
0.022153
0.022501
0.254392
4.48242
0.0228049
8.0179
0.0221914
0.0217221
0.0977005
0.0220526
0.0220405
4.85803
0.022275
0.0556275
0.242313
3.67694
5.47018
0.0219506
0.0243083
0.0289261
0.0220829
0.0220927
0.0221101
2.12071
0.022201
0.336941
0.191826
0.0219168
0.0217958
0.0369589
0.191145
0.416075
0.0638351
0.0867217
0.0247857
4.53086
0.104952
0.0378764
0.05675
0.0834715
0.146378
12.6662
0.051758
4.42876
5.01401
3.97081
0.02704
0.022088
0.0481745
0.0347947
0.0219191
0.0228188
0.178182
0.0222447
0.022668
0.0220693
0.021605
0.0249283
0.0222975
6.71683
0.0220251
7.97537
0.0220904
0.110518
0.0231109
0.197118
0.101344
0.0221081
5.03993
0.024177
0.0222295
0.0549356
0.0219082
0.0327145
0.0221637
4.57547
0.0254889
0.0573123
0.110712
5.02737
0.0307993
0.336911
5.64659
0.0633451
0.0223902
0.0238747
0.142174
0.095822
8.16068
0.02183
3.7958
0.0222684
0.0977934
5.00011
0.0436231
2.96713
0.0271161
0.0417435
0.0260475
4.46269
0.0373082
0.0221432
0.0591992
0.256007
0.0244091
0.0220613
0.0221457
3.83805
0.022255
0.0298056
4.67059
0.0274935
0.0220421
0.0718399
0.0267073
4.96877
0.021673
0.0220572
0.0218906
0.0263941
0.0228622
0.0224162
0.096095
4.53842
0.0220267
0.0221114
5.32611
0.0226175
5.48435
0.025078
4.19943
0.021952
0.0252592
0.0218367
4.56892
4.84532
0.0329189
0.0832168
0.0273261
0.022045
0.0221251
4.56969
0.0221381
0.126356
0.0218304
0.0583252
0.0221966
5.30633
0.0218674
0.0633353
0.0219185
0.855273
3.62889
0.0218788
0.0520342
4.56491
0.103437
4.08023
2.71834
0.428428
0.0236164
0.0441158
0.15302
5.45651
0.0225067
0.051723
0.0290376
0.0221175
4.66817
3.99821
0.104534
0.289107
2.59203
0.0383902
4.84285
0.0219095
0.0218689
0.155829
4.91166
0.603645
0.292416
5.18108
0.0218411
4.45789
4.57196
5.59618
0.0222039
5.96589
3.72305
3.61319
4.21893
4.47349
0.129954
0.0368427
0.336677
0.0261539
0.0220761
10.0025
0.149124
0.0216551
6.10835
0.0221943
0.0316036
0.0594896
0.0275601
6.79888
0.0370002
5.38263
0.062028
0.0265105
5.01747
4.09467
0.250445
0.0224387
0.026217
0.108869
0.0702895
0.021854
0.0650372
0.0711401
0.260923
0.022056
0.41687
0.0254683
0.0601849
4.24612
0.337506
0.0232213
0.199402
4.60697
0.022286
0.0233046
4.86208
1.2521
0.0260965
0.0269369
0.0221046
0.0975111
0.0284929
4.65226
0.162786
0.0227109
0.0222237
0.0710823
0.0327308
4.88192
7.45125
0.0219475
0.0220547
0.0315034
0.0221978
0.0260247
0.0234925
0.0234808
0.0263158
0.021998
0.0260658
0.0222483
0.0670268
5.4962
0.0222649
5.233
11.5977
0.0217315
0.319742
0.203531
0.119109
0.0230206
0.148041
0.0316045
0.0883733
0.0368451
0.0242057
0.0222101
7.8857
0.0328277
4.12724
0.0229708
0.0220628
0.022043
0.0907217
0.0220194
0.0703811
0.090138
2.33793
0.0219538
4.59172
9.75875
4.62991
0.0218321
0.244115
1.20723
9.35834
7.49739
0.0226338
0.0225686
0.268632
5.09731
3.93906
0.0558372
0.472798
0.0222316
0.0219704
0.046093
0.022201
0.0221665
0.305728
0.0222665
0.0988895
0.0219398
4.20885
5.21288
5.03415
4.23315
4.8913
0.022181
0.0221556
5.00503
0.0218526
0.0218937
0.021725
0.178438
4.66229
7.32943
0.0285169
0.0224158
0.0239839
0.0419872
7.21857
0.0220427
3.01364
4.22374
0.0221953
0.0221831
4.81334
0.118807
0.0244732
0.0220632
5.14896
4.90401
0.0222208
0.35982
0.0222552
4.51474
5.19644
0.0247368
4.4758
6.56349
5.34907
0.0219134
0.022507
0.0222478
0.0222865
4.72838
0.0219883
0.392513
0.33495
9.75696
0.0233397
0.0774897
5.31965
0.0665054
5.0923
3.74523
0.0216408
0.0289154
0.029223
0.203466
4.88277
0.0215875
5.8166
0.0355313
0.0602417
0.0230144
0.0219581
1.16723
0.0507238
3.95919
0.0222005
0.0731771
0.0231827
0.202804
0.0262618
4.513
4.98138
0.480322
0.141122
0.0220441
0.0248583
0.135699
0.290277
4.77562
4.69955
0.0221517
3.5543
0.10412
3.92326
0.0303767
0.0561545
0.0517953
0.0223635
5.307
0.0220859
0.0423757
4.26526
4.25501
9.84681
4.52644
0.0307433
0.0691163
0.0218196
4.19844
0.0295242
6.27127
0.0218072
5.01835
0.0215553
0.0220268
0.0413294
0.0328108
0.0349289
0.0220886
4.48464
0.0614066
0.0219907
0.0456599
4.5948
0.994756
0.0220732
3.7027
0.0258446
0.0453229
0.0412518
0.0217045
0.0893043
0.0220217
10.5423
0.102304
0.0310051
0.0220546
1.44747
0.053312
0.0218056
5.20173
6.14847
0.892712
0.0217179
5.43798
0.0221511
0.236847
0.0326208
0.168631
6.60187
4.68593
0.0356961
4.57554
0.061321
0.0304693
0.0218753
5.19397
0.158875
0.1654
0.0643879
0.0222438
3.24658
0.129075
2.06715
0.334317
4.4687
4.44961
11.2353
5.30705
0.0309942
0.0331422
0.0221102
0.0223512
0.0216095
0.306714
0.0317815
0.0348751
3.78061
0.0219912
0.0218788
0.0574359
0.257175
0.0331565
0.0218553
4.0362
0.0260615
0.0658942
0.0224054
5.73705
0.0300961
5.00368
0.0638724
0.0443165
0.0665162
0.0221038
7.00972
5.10707
0.100267
0.0221733
0.0219203
8.22934
3.7174
4.49676
0.0219958
0.101355
5.1509
0.0223289
0.0220212
0.0223023
4.6198
0.117231
0.0396638
0.031542
0.0297414
4.93582
0.125722
1.02726
0.0300506
0.0421067
0.0215988
0.182774
0.0723016
0.0220539
4.4335
3.74088
4.26514
4.36326
3.72443
4.92299
4.90861
0.023286
0.0219968
5.32124
5.71284
6.40339
0.0222087
0.054889
0.0220683
0.0220235
1.97421
4.26689
0.0955824
0.0220276
2.38568
0.149924
0.0674775
5.25902
8.10622
0.745686
0.0219252
4.47522
1.53947
1.20723
0.0414107
0.0581599
0.0222254
0.0219143
0.050474
0.06074
0.0258795
0.0561371
0.0332171
0.026343
0.322712
4.91773
0.0336459
0.0592959
4.70078
0.307291
0.0221192
0.516748
1.32225
5.17407
0.0529877
0.0224533
0.0363178
0.030098
0.03219
0.0217037
0.034146
0.0398209
0.0647571
0.422276
0.0222311
0.0238446
4.54111
4.70829
4.03154
5.28459
0.172723
0.0215339
0.0220637
0.0375167
0.0218057
4.39973
0.0220623
0.0222746
0.0217612
4.45716
21.4359
0.0225813
0.0935515
0.0318816
0.038831
0.0365891
0.0364357
0.0554024
0.0465022
4.25651
0.029981
5.43021
0.0483715
3.98548
0.0349275
0.0219439
0.0218657
0.151696
0.257328
0.0218466
0.0437346
0.0354674
0.0800165
4.1071
4.38965
4.84853
0.0222745
6.47218
0.0320962
0.0425075
0.0220552
0.0978349
0.0246516
4.3915
2.66202
0.047076
0.0220943
4.66912
0.0277856
5.30238
5.91709
0.32876
0.0255399
0.225281
4.8504
6.25784
4.41925
0.0829769
0.0221172
0.0485106
0.0219983
5.68761
0.0258885
0.0385319
2.70831
3.91687
0.022061
0.022051
4.04411
0.0537002
4.67193
0.0333816
0.0220644
0.0564829
0.364126
0.0465214
3.73935
0.0419622
6.06465
0.0275395
0.0222476
0.0220385
0.721106
0.022838
0.182784
0.0220768
0.0221978
0.537022
0.0298737
0.0223663
0.0220551
0.0417261
5.86934
0.0595752
0.051254
0.0271911
0.085415
0.0221457
0.246343
0.0379091
0.05906
0.0747209
0.0327552
0.111285
0.0480653
0.0219674
0.102666
4.08989
4.1727
0.0224265
11.4043
5.19034
0.0220363
0.0227996
1.18864
5.06177
0.0283022
4.9913
3.82776
0.0223221
0.130467
0.0216053
0.0295959
0.0871815
10.3922
0.725478
0.330937
5.0099
4.31029
4.37727
0.0246008
4.47342
0.0220605
1.21785
4.47536
0.022114
0.0220858
4.26641
0.0221618
0.0221001
3.40166
4.92994
0.508056
0.0298267
4.75341
0.0221059
4.67945
4.69826
0.0221916
3.56973
10.1391
4.94579
4.37493
4.56169
4.41629
0.0219197
0.0234102
0.0886807
0.0971128
0.0220948
0.302655
0.022063
4.47789
1.64784
0.0533796
0.362668
4.41789
1.14954
0.332783
0.0639816
7.90821
2.2994
0.0281622
0.0216516
2.5581
0.0382265
0.0218428
4.27147
0.0220365
3.24276
0.0221925
4.40968
0.0285376
0.0220285
25.4848
0.027988
0.0378038
4.45275
5.3617
7.55331
0.0327834
0.0623952
0.0237691
0.0541052
0.21458
0.0557334
0.0222131
2.24991
0.090045
0.0370403
4.67907
0.0550805
0.0410515
0.339698
0.110255
0.0631243
0.0220251
0.427138
0.0218676
0.210516
0.392474
5.18252
0.0218978
0.0501062
4.04777
0.0244421
0.0917548
0.039156
0.0550823
5.17167
0.0898468
0.0236892
16.9355
0.0219058
4.62525
0.0221344
0.0239381
0.206527
4.54495
0.0370154
0.436149
0.925437
0.0398334
0.0225711
0.195408
0.0596234
3.81078
0.0269529
21.0916
0.251104
0.0395135
0.0359314
0.140901
0.0459962
0.0794682
0.0896755
0.0421706
0.0261145
0.0224142
10.4387
0.0220748
0.0341904
0.021608
0.174166
0.0351037
0.0889274
4.71929
0.0231327
0.566702
0.0215102
0.0222184
0.022194
0.0222108
0.0304447
0.0219746
0.133438
9.55434
0.0881037
0.0631201
0.027732
0.0222523
0.337657
0.022127
4.78473
5.17134
4.68498
0.229034
0.0408316
0.0317491
0.0221854
0.0313515
0.107664
0.0534387
4.60533
0.0871004
3.6801
0.227513
0.0222114
0.0218632
4.20422
0.0220384
0.0370295
0.0700109
3.03183
0.0245263
4.53686
0.0221789
0.0282127
0.0220694
0.0228752
0.194968
0.166067
0.0225445
0.0418421
0.0358965
0.0647653
0.0846803
0.774795
0.526001
0.618901
0.20093
0.0293471
0.0237526
0.0831463
4.51354
5.07021
4.76817
0.0409212
5.80721
0.160223
0.0235697
0.0220208
0.0904757
0.0221538
0.0414283
5.42331
0.0220172
0.0219182
5.0648
1.85103
0.066408
8.48786
0.0221707
6.78379
0.0527218
4.00321
0.0304954
0.0221552
4.72887
0.0619888
0.0220805
0.0913095
0.0222555
0.247679
0.0341955
0.0565284
4.39036
0.0353451
5.27125
0.0219751
3.68628
0.0221976
0.0294773
0.0229241
0.0602589
0.0221465
0.0626433
4.65977
1.62306
0.068335
0.0360115
0.0844842
0.0220319
0.0220578
0.0240496
4.41618
0.0283973
4.3742
5.69489
0.218969
0.0222205
0.234401
0.431573
0.265887
0.028983
5.56886
0.022053
0.0215365
0.0220298
8.83702
0.0223505
0.0220776
4.7428
0.0220217
0.300704
0.117398
0.0219263
4.72958
0.033065
4.36407
0.0220894
5.15104
0.0235165
0.0765658
5.90047
0.0984207
0.0219989
0.0318304
4.91394
0.0410386
0.246379
0.0393976
0.0293234
0.213283
0.0314054
0.0226157
22.1332
0.0352446
0.033596
0.211561
0.0220314
0.0219375
0.0221901
0.0383195
0.0222136
0.0273498
5.27914
10.7377
0.11636
6.41922
0.0900404
0.0446555
3.90586
3.6748
0.022574
9.49705
7.56697
4.63769
10.3572
0.0382299
4.91137
4.84946
11.8052
10.1174
4.96674
0.0465378
0.095031
0.0309979
0.0295043
0.0222453
4.1584
0.0222859
4.08329
0.147629
0.49586
0.0215993
0.113407
0.0502762
0.023735
0.0222934
0.0221196
0.144359
0.0250601
0.022697
0.0559486
3.831
0.0262763
0.250419
0.0218533
0.14452
0.0940959
0.0222594
0.0286844
0.0219758
4.45663
4.88108
0.300127
14.9755
0.036877
0.138755
0.022141
0.0578551
0.0221209
0.0226871
0.0222371
5.01342
0.0218365
0.0635139
1.5884
0.0303334
0.03942
0.0220347
3.81445
0.398459
8.25571
5.55399
0.319189
2.93388
5.01716
3.10678
0.351421
8.42247
0.147618
0.0337732
8.34961
4.13818
0.0220659
3.99086
0.228487
5.15307
0.021619
0.0941066
3.85018
0.0222741
4.10234
0.025656
7.72005
0.0220959
0.0221306
0.0944778
0.286985
0.0308534
0.0910426
0.0219049
0.0224626
4.41346
5.27645
4.2169
0.0781299
0.0225854
0.0225497
0.0221441
0.0399597
1.48612
4.90915
4.94425
7.66699
0.0390806
0.0219632
0.0219914
7.33492
4.47202
1.10487
0.0269576
0.0263127
0.0930764
3.82609
4.54851
0.0215335
0.0220017
5.44634
0.0239079
0.35024
0.0290584
0.0221946
0.0359461
0.0500834
5.65163
4.84917
0.0222029
0.0219199
0.0268155
0.336795
3.93017
0.022267
0.209298
4.77784
0.0215409
1.6601
4.72453
7.40821
0.0221208
4.00103
5.33246
0.0439063
0.428198
0.0269619
0.335771
4.27048
0.0289003
0.0219999
4.38141
6.82059
0.0219294
0.248144
0.247454
0.0373268
1.28512
4.91452
5.1027
4.03361
0.0337669
0.0237217
0.0242949
4.39444
5.6555
5.38372
5.32699
5.37514
0.0217906
0.0632802
0.0220724
0.0221206
0.0259354
0.0219958
0.0220771
0.0222222
4.89823
19.6249
7.30504
0.0648121
0.402885
0.0369714
0.0219284
0.0219938
5.30341
0.0221495
6.43715
4.75083
0.0221865
0.0220471
4.4754
0.0229449
0.99569
0.0288423
0.0217749
0.0217898
5.1052
0.0217121
3.83435
4.94504
0.0215838
0.0641179
0.022063
0.023993
0.0220785
0.157946
4.45151
0.0219973
4.45213
0.656082
0.0248737
0.0220408
0.0229424
0.024764
0.0222307
3.39972
6.22444
5.13218
0.0563271
4.19073
0.0222741
0.0296333
0.0225853
0.264779
0.0238047
5.0209
0.0218808
4.62006
3.9645
5.86038
0.240731
0.0218753
0.0550951
0.0220369
4.79348
0.022034
0.03121
0.0296413
0.0288417
0.0223797
0.0222519
0.0344616
4.557
0.022251
0.0235536
0.0258857
0.0364483
0.294914
0.0221946
4.01978
4.62235
0.0255059
4.92914
3.97973
3.21751
5.19294
0.0215423
0.0236016
3.91696
4.88378
0.231648
4.55553
4.91372
0.0362242
0.0676932
0.0395202
4.90411
0.0220586
0.021975
5.2855
0.219021
3.88113
0.0275987
0.0217389
0.0220661
4.37948
0.111569
0.0240592
0.364103
0.0219809
0.0937498
0.0379581
0.0387446
0.0222819
0.0221944
0.0219552
0.0273139
1.94361
7.15111
0.0215931
0.0220628
3.98809
0.0222317
0.0725737
0.0261886
0.0258373
0.0529551
0.0222862
4.77824
0.037539
0.0254468
21.0744
0.136643
0.0237796
0.0424223
0.0220714
0.0228588
4.24676
0.316979
4.30809
0.0227497
0.0221631
0.0809426
0.027907
0.0220546
0.0546818
3.7732
0.0278381
0.0499205
0.0265738
0.203914
0.0221262
0.0218209
3.86915
5.30841
5.26929
0.0220362
0.286196
0.0216888
0.0220486
0.103719
4.94023
0.105391
0.0331355
0.293821
0.0237682
0.0376353
0.0535031
0.871006
0.022734
0.0216587
0.0227025
0.0241743
0.0320577
0.0220001
2.10748
6.4299
0.0224436
0.0340735
0.0224791
0.0217446
4.43371
5.11877
3.99079
0.120317
0.0224473
0.0855872
4.13214
0.154822
0.15233
0.036137
0.0313977
5.3504
0.364011
2.02905
0.0217849
0.0322176
0.0221521
0.0366237
4.32946
0.0216337
0.046087
0.025699
0.0324865
0.0235388
0.0219521
0.0219002
4.83413
0.0650608
0.0394634
0.103846
0.0381233
6.37208
0.0334293
0.570129
0.0219846
3.71264
5.75083
5.19196
0.0222648
0.0412566
0.0220884
0.0220684
3.84592
0.0645318
3.66436
0.0220305
0.0477968
0.204401
4.77908
0.0290421
0.021727
4.88544
0.022286
0.0222847
0.022976
0.0220574
4.01711
0.0219048
0.0219412
0.0400549
0.0281657
0.185085
0.179789
0.034428
4.64023
0.0223163
0.284017
0.0219511
3.65558
0.0383056
0.736562
0.256983
4.41239
0.180235
3.76005
0.024279
4.70141
0.0345953
4.71439
0.30488
0.0284306
0.387134
0.0223017
4.29978
0.0243339
0.0444652
0.0280828
11.8944
0.238234
3.75802
0.0326868
0.0220611
4.92126
0.409011
0.0838725
0.257241
5.12772
3.79077
0.043981
0.562523
0.0571132
0.02195
0.0583685
0.4753
0.0837193
31.1717
0.168564
0.0218423
0.0222017
0.195922
0.0220903
5.37212
0.0831485
0.022098
4.52117
6.67938
2.62337
0.14602
0.0222989
0.0299839
0.026203
3.87854
4.61809
0.0262783
5.03034
0.0220155
0.0328266
5.49823
0.0220375
0.0499354
0.0219641
0.0288685
0.0222518
0.195412
5.25649
0.0312294
0.0309915
0.0217796
0.211026
0.022026
0.0218796
0.0346675
0.0219611
0.364987
3.8466
11.9632
4.37698
0.0218453
3.68383
0.0221956
0.0381118
0.189731
0.0224218
5.20745
0.0851674
0.022175
0.0217241
0.0547139
0.0419387
0.239151
0.332859
0.0261348
0.0248385
4.37724
0.0960107
1.39703
3.10562
19.7018
4.08814
3.66287
8.03751
0.0222079
0.0221193
0.0558697
0.0224057
0.0631569
0.0523882
6.43045
3.69012
8.10574
0.0217952
0.0218815
0.163646
3.32745
3.70265
9.73052
4.54778
0.0565932
0.0341826
8.74437
4.28306
0.0312472
3.92088
0.0348964
0.0383272
4.38612
0.0602332
0.022285
4.92179
2.0481
0.0274973
0.208946
0.0238008
5.93343
5.02584
6.09536
0.0220496
0.0217044
0.24014
0.0220483
0.0221582
0.0220496
0.0217697
0.0220526
0.0220561
3.69414
0.0303492
0.0496317
3.97344
0.0219363
0.0220631
0.0403228
0.0300598
0.0308959
0.0220691
0.0828655
0.0337975
0.0270513
0.0977498
4.85006
0.0220786
0.0594259
0.0220894
0.0220597
0.0216018
0.0221005
4.0305
0.0220544
0.0220701
0.0221124
0.0510022
4.18041
4.09484
3.73732
10.4603
0.0630398
4.60595
4.76489
0.0219857
0.0450911
5.39339
0.335051
0.0221251
0.0348042
0.0641632
0.0390966
0.0220766
0.0584762
0.0605998
0.0469802
0.0216475
0.067815
6.16492
0.0215898
10.2685
4.05897
0.0457668
0.757323
0.0410187
0.0221052
0.0292252
0.0220647
0.318843
3.77536
0.021759
0.047479
0.0220266
0.021989
0.0223449
0.0222864
0.0411555
0.0221805
0.182425
0.223306
0.0281975
0.0258929
0.0607222
0.0220683
0.0468903
0.0444773
0.0227444
0.0221166
0.0221494
4.18019
0.0220711
1.09793
0.0609189
0.022256
0.0221316
0.0219023
5.25869
0.0272245
0.044868
0.0655487
3.81648
0.0288837
4.29386
9.7038
0.0453997
0.0220126
0.601914
0.0470571
5.89996
0.0896996
3.66985
0.0217561
0.0609423
0.0588463
4.35764
0.0220624
0.0648095
3.84478
0.0219345
5.0516
6.76237
4.34995
0.0220351
0.0219278
4.40822
0.0220693
4.36967
0.318094
3.8394
5.14103
0.0219014
0.410877
0.589658
5.25785
0.026022
9.13948
0.0229056
0.0278791
0.0220945
4.72461
5.21914
0.0518517
4.84838
0.0220624
3.70488
4.45188
5.22973
0.0219318
0.0220844
3.86875