/*--------------------------------*- C++ -*----------------------------------*\
| =========                 |                                                 |
| \\      /  F ield         | OpenFOAM: The Open Source CFD Toolbox           |
|  \\    /   O peration     | Version:  v2012                                 |
|   \\  /    A nd           | Website:  www.openfoam.com                      |
|    \\/     M anipulation  |                                                 |
\*---------------------------------------------------------------------------*/
FoamFile
{
    version     2.0;
    format      ascii;
    class       volScalarField;
    location    "250";
    object      omega_0;
}
// * * * * * * * * * * * * * * * * * * * * * * * * * * * * * * * * * * * * * //

dimensions      [0 0 -1 0 0 0 0];


internalField   nonuniform List<scalar> 
13917
(
5.47522
0.0330576
0.122286
0.0217235
0.0266214
0.0327246
0.0233579
0.0664637
0.022901
6.23235
0.0618383
0.0215137
0.0242739
1.41433
0.0251104
7.0466
0.0257687
0.0514741
0.0676674
8.96136
0.0274152
0.0215277
0.0304325
0.0215306
0.0221362
0.0288167
1.93754
9.12273
0.0366331
0.0213202
7.94234
0.0403071
0.0217232
2.92802
0.0216153
0.0628004
0.0225639
0.0277575
0.0233915
0.0292796
0.0252067
0.0226247
0.0223867
0.0628198
0.0624853
0.138643
0.0264819
7.20281
1.21924
0.0216255
0.0214979
0.0754493
17.1351
0.0214574
0.0214948
0.0742827
7.01724
0.0303877
0.0225174
0.103551
4.2808
0.0295364
0.0219698
0.0220585
2.78978
0.0284066
0.0401534
0.0554723
0.0575899
5.65385
1.88742
3.0075
0.0215522
0.0221767
0.0278926
0.0223553
0.0234756
0.022099
0.0222598
0.0217555
0.0217737
0.0258779
0.0215477
1.58022
0.0211676
0.0891661
0.039215
0.0216337
0.0290545
0.0252075
0.0216052
0.0224501
1.18292
0.0213509
0.0217194
0.0398799
1.72407
0.0254138
0.0215311
0.0976866
0.0233853
0.0231602
0.0217918
0.0223037
0.0234579
1.13498
2.97275
0.0297678
0.0230607
2.01066
0.0215155
2.89622
0.0364549
4.69725
2.79089
0.022544
0.0630897
0.0224034
0.105274
0.0215377
0.0250285
0.0216604
0.0440161
0.0574188
5.30043
2.31501
0.021988
0.0289449
0.0212157
0.0581874
0.0252642
0.103795
3.44332
0.0225261
0.0464255
2.01193
3.90931
5.16437
0.0303595
0.0277887
0.774025
0.0218556
1.01163
0.0211704
0.0215163
0.026043
1.71334
0.576327
8.39111
0.0214758
0.0275935
0.0227778
0.0215081
0.0215438
1.82813
0.022097
0.0222078
3.49339
0.0246023
0.0231461
0.0211372
2.7005
0.0236605
0.753264
3.03797
0.110514
20.7974
5.84698
0.0199664
0.0318792
0.0216227
3.32338
0.0228841
2.98863
0.0460326
0.0238245
0.0217265
0.0852957
0.0250191
0.0239795
0.0223445
0.02156
0.0214957
0.134106
0.106983
0.0952007
0.0214819
0.134624
0.0213174
0.0844747
0.0464162
0.0580595
0.0912942
5.11249
0.0213529
5.0867
0.0231539
3.42182
0.021594
0.0219113
0.0253776
5.41005
6.48783
0.0224146
1.93711
0.0293538
0.0278154
0.0218561
0.0827709
0.0217716
0.0209599
0.03144
0.0354752
8.38176
0.0452373
0.029886
2.83947
0.023396
0.0207306
0.0207214
5.90971
0.101201
0.128934
0.0213689
0.0219874
2.03357
5.9787
0.0206063
0.0205786
0.0252017
0.0207894
0.0207802
3.18055
7.81101
0.021595
0.0200196
0.0478454
3.23201
0.025147
0.0213671
1.97
1.08924
0.106125
2.84049
0.0642659
0.0211754
5.707
0.0495774
0.0341671
0.0460438
0.0222834
8.26104
0.0215379
0.030053
0.0419304
0.0216676
0.025105
0.0220473
0.0256119
0.0218263
3.61924
1.07398
0.0215784
0.0205525
0.0221657
0.0205556
0.0215413
0.0242034
0.0272642
0.0217588
4.11505
2.85009
0.0213844
0.0239871
0.539333
0.0207584
0.0709733
3.25089
0.0207684
4.19541
0.02175
2.68306
0.0238194
0.0241472
0.0217142
0.0211496
0.0921613
0.0247909
0.467522
0.0241862
1.02247
0.0268897
1.66496
5.55356
0.0232208
0.0338218
0.0259086
0.0226888
0.0262972
0.0222339
0.0214521
0.0235677
0.0847525
0.0274656
0.0295392
0.0221678
0.0213516
3.48029
8.45316
0.0211651
0.0265027
0.0227056
0.55718
0.070994
2.76519
2.55024
0.0283794
0.11172
0.0238062
1.11067
0.729397
0.122179
0.0239807
0.0249615
1.91029
0.0218305
0.0351919
0.0573959
0.0254754
3.30568
0.0212108
0.0282338
0.021555
21.0682
0.020844
0.028358
0.0296851
0.0277446
0.0247319
0.0458885
0.766767
0.021665
0.0218261
2.89499
0.831968
2.48325
1.43313
0.0206974
0.0215594
1.18897
0.1112
0.0207097
0.0262758
0.02147
0.0404432
0.0288175
0.0709381
0.0634356
0.0706161
0.0281177
3.09063
0.021239
0.0216688
0.0279099
0.106438
0.0254721
6.24365
0.0279899
0.28651
0.0215151
0.0849287
0.0265123
1.17276
0.0228102
0.133371
0.498419
0.0313574
0.0213945
0.323912
0.0220907
3.22608
0.0989544
0.0228369
1.2004
0.0219557
0.152107
0.0208974
8.04963
0.157793
0.0223161
2.05566
0.060539
0.0221121
2.49634
0.114625
0.0221209
0.096268
0.0215018
0.0623225
0.120684
0.0212337
0.0231351
0.0221506
0.0211382
0.0209658
0.0212696
3.85938
0.104011
0.0215826
0.0213341
0.021428
0.0334751
0.15564
0.0210485
0.0199884
0.0700283
0.0828907
0.0211681
0.0222474
2.34195
1.80797
0.0316379
0.0714836
0.367646
0.0216469
0.0209278
0.025974
0.0209561
0.0210645
0.0216409
0.0209458
0.0215393
6.39596
0.0215257
0.030587
3.77762
0.0337084
0.0209788
0.0214982
2.52971
0.0254671
6.48838
0.0213546
0.021333
0.0222101
0.0208619
0.0225103
0.0220898
2.32423
0.0268803
1.27159
0.0213284
0.0262459
0.0277421
0.0217416
0.0617986
2.46222
0.0214553
1.64878
0.0210039
0.0214498
0.0214041
0.0219658
0.02092
0.0222931
3.46113
3.79934
0.0209015
1.68048
0.0691066
0.0217451
0.0364419
0.0423707
2.5586
0.0234162
1.17261
0.292241
0.293522
0.0221012
0.0275829
0.0280323
0.022223
2.20377
0.0220096
0.0214323
0.0217217
0.0230176
0.0268185
0.0964712
0.034031
0.0252286
0.0246602
0.0504862
0.0382752
0.0215834
1.30108
0.0268696
0.0241799
3.02226
0.0211759
0.0396233
0.0926288
0.0208782
3.41032
0.021587
0.0208603
0.0341564
0.0213707
0.0228349
0.0824714
3.62156
1.85776
0.021136
0.0218153
0.0242818
1.98169
2.11074
0.0215355
0.021478
0.0211219
0.038873
0.553204
0.0212825
0.0251877
0.021865
0.0211241
0.0251478
0.024108
0.0228178
0.0345466
0.0208814
0.021447
0.0220942
2.79593
0.0205465
0.0222849
0.0218283
0.0258798
0.0419775
0.0440139
0.0436098
0.104784
0.0219986
0.0446756
3.36098
6.33504
3.43254
0.0211161
0.0213808
0.0264951
0.0213582
2.82883
0.0208585
0.693764
0.0231395
3.07726
0.079575
0.0223881
4.32972
0.0208981
0.0377537
0.0247832
0.0231201
3.17235
0.0211896
0.114088
0.0223542
0.022592
0.0214049
0.0931184
0.0255402
0.0204628
0.0631007
0.0357793
0.60538
0.938311
3.52196
2.5833
0.0205559
5.85346
0.0217336
3.93391
0.585036
0.0237121
0.0269798
0.0232013
0.0266856
0.0222663
0.0212077
0.0247421
0.0242215
0.432723
0.0211745
0.0370132
0.0214148
0.0204416
0.0246038
0.123562
2.53671
11.6668
0.0435335
0.0240253
0.177386
3.1456
0.0209426
2.43133
0.0239615
0.0551521
0.0213524
0.250242
0.0211092
0.0254229
0.0215268
0.599822
0.0272869
2.86856
0.0226398
0.0267185
0.0215243
0.0232023
2.97377
0.119117
0.0217348
0.0776437
0.0213511
0.0228774
0.022797
2.8521
0.0211786
0.0258722
0.0208491
0.0216348
0.10673
0.0228078
0.0712733
0.026139
0.0208578
4.2189
0.0379219
0.0215086
18.78
0.110504
0.0960274
0.0962672
0.0208806
0.0258212
2.90979
0.119236
0.0253193
0.0225655
0.0255902
0.0251279
0.0212419
0.0313564
0.0452476
0.0228369
4.39842
0.0275113
0.743521
2.16101
0.0292859
0.0273766
0.0872743
3.72047
0.0214579
0.0312295
0.0316261
0.0208675
0.0226824
0.0245712
0.0255492
0.0226826
5.62058
0.0259181
0.0215129
0.0539285
0.0224087
2.74172
0.0217457
0.0212152
3.56667
0.0395412
0.349635
0.021565
0.0230944
0.0212268
0.021696
0.0239292
0.0211432
5.95882
0.0250765
0.546427
0.357048
0.0315208
3.52943
0.0218175
0.0236609
0.0215862
3.17016
1.99895
0.0233181
5.94101
0.67635
0.0208547
0.0211887
0.0225273
0.945245
0.361057
0.0274896
0.0216806
0.0222848
0.0566797
0.0232915
0.0705092
0.0260184
0.0216924
0.0217644
0.0240009
0.0238724
0.0246749
0.123667
0.0228844
0.0254399
5.67142
0.0233152
0.691842
0.0224025
0.0284862
0.0230486
0.11478
0.0249037
0.0358874
2.49754
0.240041
0.0213746
0.02289
0.0243023
0.0213129
0.0215268
0.0289944
0.0272033
0.124596
0.0716426
0.0208586
0.143312
0.0228815
0.0230318
0.0798718
0.0216101
0.037714
1.65838
0.020435
0.0394559
0.0541556
0.0258802
0.021087
0.0209413
0.0212372
7.07535
0.021704
0.0219672
0.0280207
0.0211611
0.0210222
0.0709584
0.916114
0.0344208
1.81145
0.0374435
1.21025
0.0215323
0.0238014
0.137946
0.0237499
0.0260256
0.024747
0.0225951
0.0215466
0.0231247
0.0455848
0.0210856
0.0411005
0.0217808
0.597838
0.0224162
0.0233695
0.0215637
0.0465995
0.0242795
2.60022
0.0356153
0.0265522
2.81318
0.0217999
3.80513
0.0221982
0.0432751
0.0229023
0.0210663
0.0213684
3.22421
0.023852
0.10838
1.74849
0.02131
0.0260143
0.0199917
0.0263004
0.551051
0.0200713
5.52233
0.0223127
0.0424675
0.0620613
0.424197
0.0206658
0.0224311
0.0686824
0.0208772
0.0214387
0.0220232
0.0213572
0.0281115
0.020645
0.0845122
0.0216926
5.65012
3.92437
0.389589
1.43017
1.74546
7.77871
0.655944
0.0208014
0.0227923
0.0214411
0.0218021
0.0211234
0.0239197
0.0211972
0.191907
0.0214571
0.137976
0.021671
0.0246417
0.0608176
0.0211733
0.0306142
0.0217987
0.023278
0.0231212
0.022083
3.60353
0.0482124
0.0318366
0.0211646
0.0214766
0.0216935
0.0218267
2.87946
0.020822
0.103878
0.0210977
0.289911
0.0239852
0.0211776
0.036866
0.0297782
0.0208345
0.35841
2.39533
0.0226308
0.0462667
0.0208725
0.10006
0.0228124
0.0218222
3.44288
0.0235752
0.0217528
0.0530034
3.78397
0.0233445
0.80255
0.222698
0.0229336
0.0224177
0.0213821
0.307646
0.0214547
0.0676936
0.0214823
3.45185
0.0241689
2.18431
0.021334
0.0210193
0.219374
0.0233848
0.0231106
3.27055
0.0220202
0.0209564
0.857845
0.0229493
0.0228
0.0445278
0.0220748
2.85442
0.0294563
0.0423641
0.088702
0.0222617
3.37145
0.0217974
0.0417931
0.021366
3.56451
0.29272
0.0215939
0.0228435
0.0226682
0.021537
0.0224534
0.0214206
0.0216324
0.0213694
0.0243199
0.0204358
0.0219364
0.0428367
3.33425
2.60749
0.0496249
0.0216979
0.237131
0.0211681
0.140314
0.541215
21.6458
0.0208509
0.0208114
0.0216829
0.0214098
0.0208064
0.0221984
0.0212272
0.0278799
0.0209624
14.573
0.83019
0.0209932
3.19862
0.0213727
0.0212739
0.0293392
2.82663
0.0419358
0.0236629
0.349531
0.0214296
0.0213073
0.166013
0.0228884
1.81989
0.0217855
0.086945
0.0209803
0.0217049
0.0255174
0.155501
0.0219576
2.9993
0.0303702
0.0240817
0.0226301
0.0214705
0.0209219
0.0521
0.025623
0.0227657
3.08983
12.6043
0.120853
0.0544972
0.0215805
3.20919
0.0216593
2.38863
0.0403106
0.0231766
0.0218851
2.22572
1.74611
0.165959
0.0247203
0.584876
0.022462
0.0212013
0.0260036
0.0216642
0.0214697
0.294115
4.00501
0.0217072
0.023473
3.28539
0.0222808
0.0206926
0.687246
2.70393
0.0217536
0.0217204
0.0232326
0.0214825
0.0212802
0.0289868
0.0234371
0.0214335
0.53444
0.0247892
0.0993731
0.559083
0.0299899
3.46475
0.0215781
0.0216502
0.0325254
3.86435
0.0946222
0.0270673
0.0262966
0.0216668
0.0217956
0.0233091
2.56685
0.0271869
0.0219724
0.0331613
0.021149
0.225027
0.0455769
0.0647532
0.0353504
0.168868
0.361162
2.33959
3.12222
0.0279934
0.178336
0.0207285
0.0378753
0.0489095
0.522783
0.0225826
0.0231166
0.022929
0.609256
0.0221006
2.51459
0.0264436
0.0565711
2.38589
0.0226064
0.0548623
0.0222063
0.0214309
0.0266562
0.0664114
0.0212904
0.0208146
0.0218979
0.280098
0.0209557
0.022032
0.022261
0.0217926
0.0213949
0.0605482
0.0399255
0.0219736
0.0211391
0.0713168
0.0295992
0.0302032
3.43013
0.0215711
0.0214234
1.86906
0.0219773
0.0221334
3.13818
3.37326
0.0264612
0.0381494
0.0237029
7.64759
0.108855
0.0261618
1.41674
0.0212533
0.0490861
2.72833
0.108556
0.517742
1.15752
0.0215308
0.0214259
0.0246101
0.0214057
0.0214774
0.127096
0.0234677
0.030289
0.0206199
0.0342819
2.53909
0.0220942
2.14036
1.69562
0.021418
0.0431236
0.0236964
0.0219538
0.0213091
3.28286
0.0427286
3.59584
0.0237998
5.23088
0.055828
0.0231116
0.354816
0.0264732
0.026244
0.0211861
0.109888
0.0213147
0.023111
0.0285217
0.023338
0.0216821
0.0341692
2.149
0.0211473
0.120417
0.0882402
0.0214381
0.0211504
0.0259302
0.172801
0.139354
0.021019
0.0243792
0.0270662
0.59524
6.65431
0.0214527
0.0209918
0.0215326
0.0214757
0.0267277
0.0224647
0.164914
0.0218701
0.0224701
0.0598156
0.0272346
0.0490807
2.70899
5.07087
0.021581
0.0219907
0.0209355
0.0218969
0.0401382
3.5313
0.0357973
0.0633715
0.0252409
0.0316279
0.0222278
0.0288634
0.0230071
0.0612983
0.0213197
0.096243
0.0285787
0.0209455
0.0215688
2.96467
0.0322976
0.045139
3.47112
0.0803263
0.0212265
0.344642
0.024608
0.0212484
2.49122
0.539123
0.021341
0.0264426
0.0618485
0.0265712
0.0217169
0.020633
0.0211598
0.0209593
0.021316
0.0244551
0.0352843
4.39779
0.0267762
0.0229759
0.0248152
0.0538106
0.0211147
0.0269076
0.129551
0.111455
2.94374
0.0220169
0.0206256
3.48834
0.0211183
0.0694669
0.0219526
0.030827
0.0215559
0.0211828
0.170304
0.0231736
0.0219854
0.02147
2.50958
0.168545
3.20456
0.0216464
0.0213986
1.1796
0.02309
0.0216561
0.0821688
0.535157
0.0235131
0.0256308
0.0216914
0.208436
0.0212519
0.0230439
0.0216846
0.0205991
0.109866
0.0212446
0.02094
0.469119
0.0352415
2.2022
0.113148
0.0211985
0.0244454
0.0210241
0.0212003
0.0226945
0.0224275
0.0214386
0.100536
0.0214461
0.0449458
0.026353
0.0283574
0.0214922
0.0248609
0.0212373
3.35846
0.0211864
0.503219
0.04098
0.0227746
0.0325907
0.0255829
0.0245509
0.0213798
0.0266452
0.0209803
0.0209454
0.268475
0.0298735
0.0275761
0.0220233
0.0214643
0.0225043
0.0523423
0.02115
2.79953
0.0306564
0.0217623
0.0213216
0.0208222
0.0306384
0.0335965
1.75761
0.0265695
0.209453
0.0280734
0.0610499
0.0225646
2.64376
0.0206173
0.0211286
0.0227372
0.0457356
0.0208455
2.92
0.0214112
0.0223379
0.0856528
0.106171
8.5047
0.0385316
0.0229653
0.109653
0.0377969
0.0213972
2.65413
0.0213825
0.0237153
2.05793
0.0207413
2.94173
0.0348881
0.0210837
0.0213747
0.021418
3.46393
0.0247951
0.020634
0.0438428
0.0212043
0.0210027
0.0236549
0.0215124
0.0295405
0.0215181
0.023289
0.020764
1.77953
0.0271845
0.0207817
0.0207902
0.0217312
0.0213072
0.0223153
0.0216846
0.0216846
0.0215343
0.0214634
0.0218258
0.0213864
0.0460704
0.0208232
0.0469827
0.0214783
0.0372947
0.0209937
0.0214301
0.0211455
0.0212402
0.0277373
0.0239957
0.0227262
2.25935
0.0255803
3.43575
2.73554
0.0464062
1.58323
0.0214356
0.0213764
1.64913
2.34039
0.0226024
3.25449
0.0208954
0.064974
0.674347
0.0222658
0.0486311
1.41286
2.12408
0.0226132
0.0302255
0.0210075
0.0859929
0.0224314
3.11684
7.86581
0.0214821
0.0311125
0.427742
0.0262711
1.90565
0.113282
0.0220963
0.0209847
0.0337108
3.27443
0.0214019
0.0249593
0.0215716
0.811406
0.0852382
0.0213944
0.0210187
0.169253
0.0211729
0.0214247
0.0216762
0.0208333
1.01524
0.0256179
0.0239082
3.175
0.0213202
0.0413579
0.021553
0.0341263
0.0361842
0.0953906
0.0209697
0.0235663
0.0228272
0.0231337
0.0223062
0.0213639
2.18015
0.0218823
0.0208744
0.0211568
0.200866
0.0209681
0.49365
2.31498
0.768172
0.0214417
0.0210665
0.0212468
0.792135
0.0215103
0.303289
0.0227601
1.73712
0.0220543
0.0232928
0.161495
0.0214196
0.0251873
3.30691
0.0626888
2.89661
0.0223512
2.99792
1.75255
0.0213906
3.0696
0.0214645
0.023518
5.16526
0.0223837
0.0319444
3.66732
0.0254108
0.0406211
0.0214919
0.201987
0.021401
0.500803
0.0212532
4.18634
0.0214185
0.0215338
0.0227841
0.595231
0.02109
0.0262594
0.0438117
1.26443
0.0212427
0.0247306
3.2523
0.115851
1.53307
0.0477823
0.0209929
0.0655716
1.66075
0.0225831
0.370943
0.0210701
0.0866449
6.54604
0.0211464
6.48672
0.0213231
2.78204
0.620265
0.022328
0.022914
0.512535
0.679313
0.0214559
0.0219223
0.0208523
0.0214006
2.43803
0.041361
0.15245
0.0215759
0.0236369
2.98026
0.027303
0.748974
0.171239
0.0211656
0.0213737
0.101151
2.30625
2.11578
0.66458
0.100277
0.0289075
0.0445269
3.15541
2.57838
0.535888
0.0209848
0.0483395
0.0302784
0.0459108
0.0213529
0.0230327
0.0389136
0.0994424
0.744076
0.0230698
1.32859
3.1453
0.0321746
0.0214144
0.021415
0.0893322
0.0211217
3.51867
0.0238963
0.0238309
0.121389
0.0232468
0.0207702
0.02669
0.0242746
0.0213695
3.38566
0.0269061
3.55497
0.0212727
2.96829
0.167706
0.104486
0.0212449
0.0233618
0.0256484
0.120078
0.0726435
0.040212
2.5367
1.0325
0.020187
0.0230367
0.0228161
0.0724956
6.28545
0.0222862
0.0207477
0.0218914
0.57086
0.123962
0.0213061
0.0344646
0.120517
0.0209595
0.0254519
0.0224814
3.52462
0.0245787
0.422979
0.343628
0.023828
0.0227871
0.234105
0.0211422
0.0341851
2.97302
0.0249772
0.0600327
0.0247687
0.0351222
2.28935
2.95604
0.0214763
0.917142
0.624879
0.0207414
0.070623
0.0410533
0.0731804
1.99633
0.6836
0.694017
0.0661149
2.8207
0.0234995
0.0385393
0.0214622
0.0215529
0.021394
0.0209669
0.16447
0.0970331
0.0212927
0.0357072
0.0935621
0.0211322
0.524809
2.86078
0.021398
0.0214892
0.0215202
0.0218732
0.0292981
0.021398
5.43236
0.0242133
0.0438058
0.0235321
0.0446197
0.0434022
0.0277242
1.40765
0.0213667
0.0219218
0.0212324
0.0211767
3.22028
0.0523124
0.0245396
4.91769
0.0216095
0.0216634
0.0264052
0.0209208
0.0216307
0.0505746
0.0228321
3.11802
2.25046
3.16078
0.0215274
3.4211
0.0212453
0.179751
0.0207512
0.0784016
2.23646
0.0216412
0.358972
3.3395
0.0262066
0.0225823
0.0228593
0.0239294
2.43656
0.0208116
0.0215575
0.0239351
0.0278964
0.101323
0.0227323
0.0229563
0.0211358
0.0247683
0.26727
0.0260014
0.0227592
0.0726463
0.0811161
3.15667
0.933932
0.0237165
0.0218674
2.96975
0.0213589
0.0398
0.0215289
2.47168
0.0221577
0.0217252
0.0284615
2.64576
0.021381
0.0209692
0.0205974
0.0751114
13.9461
0.0737698
0.0214654
0.0225618
0.0209616
3.23852
0.0219283
0.306028
0.0345956
0.0216113
0.126578
0.0279978
0.0427083
0.0217043
0.0216268
0.0247275
0.031603
0.0850665
0.021531
0.0215876
0.0220821
2.82555
0.0218358
0.0222319
2.91906
0.0220654
0.0282106
0.0225459
0.0211893
0.0215849
0.579149
0.0221652
1.38079
0.219844
0.0205158
1.74622
0.0215554
0.0642913
0.0331872
0.0225163
0.0212947
0.0204801
0.0213875
1.06666
0.0303816
3.40843
2.68816
0.0209963
0.0268212
0.0288001
0.147736
0.021372
0.383917
3.03639
1.66934
0.0217173
0.0219805
0.0216225
0.487141
3.19402
0.023667
0.0215159
0.0245347
5.58159
0.0215074
0.0220101
0.0220992
0.0632081
0.137889
0.0206242
2.56677
0.0256256
0.021406
2.39179
0.0345312
1.77001
1.02208
0.0259258
0.0236347
0.0222405
0.0237384
0.0216682
0.0494861
0.0338095
0.021689
0.0224834
0.130133
2.19478
0.0207929
0.068878
3.26263
1.84656
0.0218855
0.0214299
0.264353
0.410918
0.0519794
0.0211611
3.17093
0.038738
0.0206656
4.36442
0.0236915
0.0214857
0.105906
0.0213556
0.0303928
0.0210428
0.0202525
0.0214693
0.0205945
2.80136
0.021185
0.0212017
0.0463556
0.0226785
0.0227994
0.0753306
0.0213771
0.0214642
0.02198
0.0217855
0.189813
0.226389
0.170911
0.933794
0.0291734
0.505411
0.0381905
2.76779
2.54376
2.79419
0.0209658
0.0254607
0.0213876
0.0213902
0.0212673
0.0230104
0.0979484
0.035488
0.0291514
0.0211137
0.0213813
0.0336889
0.0215396
0.021567
0.0213775
3.29014
0.025119
7.63125
0.0215232
0.256389
0.021613
0.0216865
0.02177
0.0286497
0.0210784
0.0518715
2.86884
0.0303245
3.51869
0.594134
0.029096
0.023622
0.334304
0.0704119
0.0214925
0.0212351
0.0205171
2.71889
0.0202722
0.0530629
0.035845
0.0475354
1.52817
1.47236
0.0389333
3.44176
0.0214924
0.020572
0.0819996
0.223939
0.0213433
0.0214978
1.13648
0.0209983
0.126855
0.0228661
0.0219403
0.0230302
0.0214314
0.0442911
2.80645
3.03365
0.0225982
0.0223699
0.0532557
0.0218387
0.0502408
0.0209525
0.0752808
0.0508353
0.0215643
0.0214602
0.0205871
0.0817363
0.0420904
0.102145
1.11839
0.0245521
1.24128
0.0430849
0.0602167
2.626
0.0212592
2.65956
0.0217509
3.31933
0.168018
2.66028
2.69071
0.0262679
0.0354032
0.0896216
0.0213893
3.77002
0.0213605
0.0214089
0.022988
0.0216617
0.0245487
0.144009
0.171175
4.68439
0.0230043
0.029728
0.0218477
0.0217343
0.0215323
0.084337
0.0498332
2.3614
0.0311244
0.0213627
0.0208548
0.0217256
0.113009
0.0225824
0.0219698
0.0227742
0.0615459
0.0248067
0.0318194
0.031575
2.67682
0.0243951
0.0252356
0.0213783
0.0230153
0.342381
0.177653
0.0336659
0.0209214
2.40917
0.0254646
0.021141
0.0318638
2.87404
0.442904
0.0264643
0.0210143
2.51556
0.02159
0.0209662
0.0214278
2.08475
0.289052
0.0291108
2.08256
2.45563
0.0252852
0.0314661
0.038905
3.5509
0.0249153
3.15704
0.0216145
0.0486257
0.0268013
3.16356
0.0255689
0.0211177
3.0229
0.021648
0.0217546
1.54112
0.265334
0.0502336
0.555603
0.0224784
0.0218736
0.436321
0.0211412
0.0211975
0.0214915
0.030574
0.0213619
0.0264676
0.0251857
0.367393
0.159938
0.0217004
3.78397
0.0248096
2.96098
3.38491
0.0214668
0.0215252
0.0228262
0.612345
0.099113
0.041677
2.87168
2.5642
1.02991
0.0228739
0.244856
3.30777
0.0399356
0.142562
0.0214191
0.0213073
0.021514
0.0218503
0.0213082
0.025364
3.08042
0.0267618
0.231783
7.7529
0.164481
2.80039
3.17969
0.0253212
3.31402
0.0648846
0.0434923
0.0207323
0.0214146
0.0407536
4.02369
0.0221642
2.60099
3.09198
0.0210075
0.0214733
0.0222156
0.0594573
0.0216403
0.0450105
2.68997
0.0207706
0.0214122
0.0209829
0.0217145
0.0554324
2.89672
0.0282123
0.655003
0.0696786
0.0211652
0.249434
0.0857566
0.0252929
0.170824
0.150489
2.31388
1.78811
3.39602
0.0213308
0.371605
2.94405
0.102423
1.16457
0.0212052
0.0221499
0.0223453
0.0221371
2.46833
0.0415745
0.0215096
0.0235367
0.306009
3.0279
0.0227847
0.0252425
3.51991
3.14836
0.0215418
0.023995
0.0662412
0.0213219
0.0214063
2.19462
0.0211239
0.121592
0.245271
2.54491
0.0210644
0.0500977
0.0844037
0.0211204
0.0208878
2.61589
2.14256
0.0217785
0.0278648
0.100163
0.108442
3.33008
1.84863
0.023012
0.253867
0.358091
0.0263652
0.0211351
0.0595654
0.0205454
0.02113
3.17102
0.0284596
0.0586256
0.022471
0.024735
0.0211208
0.0207189
0.0216811
0.0217598
2.34198
0.0223904
0.935813
6.0333
0.0307045
0.0432298
2.41952
3.05955
2.36094
0.0226579
0.0226145
0.0266166
0.0229232
0.121776
0.364489
0.0216757
0.679527
3.2123
0.0233998
0.0523479
0.0452989
0.0566223
0.0614308
0.0218992
0.0680551
0.074349
0.0817311
0.090391
0.062795
0.0494888
0.0248771
0.0211208
0.0253856
0.0521552
0.0210923
0.157392
3.41267
0.12269
2.9569
0.020769
0.0209432
0.0574182
2.24132
0.0217304
0.0224376
0.0376973
4.31603
1.06365
0.0213622
0.0260628
0.0227646
3.08628
0.296815
0.022395
0.143077
2.99692
0.058526
3.13744
0.0588776
0.401383
3.37567
0.019948
3.27555
3.12413
0.0218198
0.0449108
0.0634862
0.0235116
0.0210403
1.01283
0.991335
0.0214388
0.0214831
2.27439
0.172265
0.0505891
0.0214869
0.128501
0.0789261
3.08112
3.69783
0.0214642
0.021372
0.021709
0.0239028
3.05369
1.15657
2.83843
0.0488401
0.166274
0.519329
0.0239948
0.0210967
3.06164
0.0211753
3.22515
0.0219807
3.17242
0.0218219
0.0218035
0.754975
0.0217637
0.0637461
0.51612
0.0237579
0.0223772
0.0218699
0.0958149
3.19021
0.101753
3.00361
0.0273452
0.0252842
0.0235962
0.0487973
3.43945
4.71422
0.0633139
0.113932
0.0702222
1.3291
0.0230755
0.0212012
0.02079
0.0207337
0.159126
0.0495303
0.404093
0.0301395
0.0840266
0.0211254
0.284637
0.938298
2.70136
0.021457
0.0219281
0.0202898
2.95857
0.0272982
0.629439
0.157274
0.0690275
0.156806
0.0205515
0.0268611
0.0961062
0.161251
0.171626
0.0216105
0.0756119
0.0216344
0.0219403
0.0709285
0.908116
1.52566
0.021528
0.0558049
0.0955909
3.01424
5.26684
2.97237
2.61208
0.021138
0.038818
0.0215424
0.0784788
0.0214117
0.0723348
0.0222991
0.0322745
0.244628
0.529532
0.028211
0.0748437
3.10024
0.0636955
0.0224206
1.63231
0.058907
0.0257036
0.02214
2.50352
0.0240575
0.0836341
0.166873
0.412623
3.95821
0.0289346
2.63313
2.84754
1.0643
0.552514
0.024992
0.062156
0.0567715
2.86149
0.0503934
0.021681
0.140791
0.0410699
0.163753
0.0238991
4.92147
0.562093
0.142263
0.0230551
1.45649
0.0224624
3.00394
0.0976104
0.322834
7.48098
0.0209741
0.0203106
3.03485
3.2195
0.0301927
0.0216423
0.0307187
0.0261322
2.38548
0.0571107
3.14812
0.0231636
3.20597
0.0792134
1.06204
0.0216617
0.127816
3.97837
0.0279746
0.0484678
0.020663
0.0224496
0.021489
0.252795
0.0211718
0.0215143
3.33067
0.452069
0.0207178
3.34968
0.0217376
0.0214098
0.0212827
0.0210962
0.0215496
0.171646
3.36062
0.0208434
1.7151
0.040881
0.0307936
0.236309
0.0500917
0.0229589
0.0249404
0.0213074
0.249169
0.0257452
3.38155
0.0261053
1.73223
0.145884
0.0447541
0.171714
3.27663
0.0208349
3.55364
0.0363037
0.0405092
0.0330482
0.0211637
0.0354422
0.099156
0.0214691
0.0518417
0.0214222
2.71325
0.0809653
2.30325
0.094689
0.0920761
3.28534
0.021412
0.0214157
0.0382618
0.0219736
0.0215276
0.0215412
0.0236798
0.0211061
0.0212069
0.0218652
0.0313782
0.0220881
0.0237974
0.023035
0.0307221
0.0561035
0.0222201
2.84653
0.0221141
0.0212437
0.0540685
0.0285685
0.0236427
0.0211009
1.63805
0.0221615
3.10866
0.0222299
0.0708673
0.0212979
0.0213619
0.0740628
3.46599
0.0425295
0.027575
0.0204862
3.10318
0.0215006
0.0211728
0.0458583
0.0223344
0.0905672
3.07788
0.0581863
0.132012
0.0304118
3.98939
0.0213609
0.021457
0.0418569
0.255706
0.0367993
0.0630899
2.75678
0.0238571
0.0214327
0.0236859
0.126814
0.0350379
0.0214794
0.0584545
0.0546504
0.0408116
0.0215574
0.0215226
0.129725
0.0405914
0.168132
0.510057
0.022489
0.0434335
0.0215381
0.02942
2.03339
0.0214684
0.100624
0.0328385
0.052831
1.00751
0.0214519
0.0212976
0.0212596
3.27161
0.11302
0.022223
0.0711626
0.0633994
0.0215264
0.0213346
0.0907969
3.32321
0.130086
3.11676
0.110176
0.024519
0.169762
0.0691099
0.0244668
0.615255
0.0508378
0.66506
0.0214084
0.0547558
0.0760208
0.0217564
1.68533
0.0290427
0.05969
0.0236361
0.0839871
0.0211095
3.8986
0.0225201
0.0208504
0.0213022
0.0208415
0.0218733
0.0217819
0.0210213
0.022387
0.0214295
0.0217316
0.245612
0.0467975
0.0217012
0.0406879
0.0226105
0.0255591
0.0206726
0.0304975
0.0256158
0.338928
0.0214618
0.0214978
0.0456754
0.102298
0.0214436
0.021419
0.0731893
0.0221957
0.0605838
0.0389407
0.0214853
5.60175
0.0222707
0.0217324
0.0524545
3.48269
0.024159
0.0378181
0.0214428
0.0229416
0.0215281
0.0237512
0.0211771
0.0215061
0.0381786
0.0389984
6.3854
0.0339351
0.0213971
0.0242966
3.30576
0.0366209
0.0976752
0.0588115
0.0215148
0.0361888
0.865452
0.105745
1.72822
0.0231297
3.33025
0.363243
0.0252733
0.0215153
0.0501225
0.0217121
0.0348192
3.05749
0.0213965
0.185052
0.0215129
2.82617
0.0376139
0.021765
0.0392198
2.93892
0.533937
0.022293
0.0452302
0.0246457
0.0207042
2.45031
0.0206456
0.0271173
0.0211071
0.0230782
2.4661
0.0436775
0.022225
0.0250765
0.155229
0.0213969
0.0215617
0.0239622
0.0232252
0.021365
0.0222603
0.0227935
0.0216174
0.0211027
0.0381125
0.0586761
0.100139
0.0210538
0.0361798
2.94646
4.32096
0.0226464
0.0214144
0.0227161
0.053959
0.0216828
0.02109
0.0211926
0.0211459
0.0235642
0.0235896
0.0258742
0.0400619
0.0221279
0.020696
0.0221648
0.0391172
0.032131
0.0602844
0.0216802
0.0243824
3.14558
0.0252233
0.0225739
4.0663
3.17557
0.0560785
0.0421717
0.0908427
0.0213306
0.311151
0.0240904
7.45132
0.021398
0.0212416
0.170967
0.0208597
0.19939
2.92847
0.0216185
15.1171
0.0248388
0.0250733
0.0236929
0.0486918
0.0250128
0.023209
1.51475
0.020932
0.0224341
3.41964
0.022268
0.0213562
0.0249684
3.12779
0.0216925
0.0216935
3.12799
0.0284053
0.0236513
0.0357048
0.0204832
11.0567
0.0223782
0.0217602
0.073051
0.0353406
2.52516
0.0221639
1.76442
0.0258904
0.0569596
2.33994
0.0213957
0.0255277
0.0515409
0.0216889
1.76718
0.0217069
0.0220987
2.87279
0.0220375
0.0284383
0.0566424
0.765503
0.0244513
0.0233422
0.0217557
0.0223113
0.0511975
0.0226178
0.0246517
0.0592816
0.0335234
0.0215745
3.37101
0.0275599
0.020697
0.021966
0.0212504
0.0211597
0.0205008
0.0214005
0.0213814
0.0247906
0.0223039
0.0329009
0.0204985
0.0205533
0.0254142
0.0486706
0.0207964
0.0266666
0.0470092
0.0247977
0.0246816
0.0213343
0.0221031
0.0224718
0.0295746
0.0248633
0.0228118
2.4894
0.0214828
2.53672
0.0226243
0.0510022
0.061391
0.0213813
0.0363744
0.0249255
3.0923
3.0024
0.0228218
0.0214957
0.0221979
0.0242675
0.0314473
0.0247113
0.179742
0.0354128
0.0253937
0.0430276
0.0376548
0.0473154
0.0248083
0.108614
0.0567522
0.0241263
0.538809
0.0289893
0.0738189
0.0218003
0.0212461
0.048071
0.0521058
0.0213891
0.0354731
0.0214315
0.0214948
0.0213491
0.0216368
0.021367
0.0213979
0.0213531
0.0217407
0.094058
0.0226172
0.0213469
0.0219885
0.0218333
0.102025
2.91941
0.0450876
0.0224725
3.31227
0.0213561
0.0213561
0.248049
0.0253548
0.0222365
0.0217374
0.0214499
0.121509
0.0215077
0.02288
0.0217642
0.0272691
3.68404
0.0214398
0.0432375
0.0418166
0.0227357
0.0311238
0.0216853
0.0214945
0.0423443
1.81279
0.0220993
0.0285121
2.13324
0.0568695
0.0213948
3.22492
0.0219053
0.0201659
0.0432176
3.11985
0.0213833
0.0208095
0.0220697
0.0273046
0.027562
0.021401
0.0217805
0.0299156
0.0214945
0.0247742
0.0229722
1.10223
0.0216395
1.80092
0.170046
0.0321976
0.021276
0.0524954
0.0213108
0.0222051
0.0214132
0.0347099
0.0205895
0.0205326
0.0296947
0.0453989
0.17269
0.0215623
0.0207617
0.0221024
0.021198
2.84916
0.0223733
0.0219295
0.0216593
0.0409567
0.0314087
0.0221834
0.0221674
0.0300338
0.0214502
0.0229022
0.0221482
0.0216702
0.114136
0.0211571
0.0266608
0.02165
0.0214207
0.0332652
0.0571748
2.76202
0.0213465
0.0435055
0.300935
2.80222
3.13966
0.0278043
0.0213784
0.0225876
0.0248465
2.29834
0.0215436
0.0227883
0.0235561
0.0246824
0.0205274
0.0344032
0.0314497
0.953849
0.0216505
0.0215017
0.0602315
0.9425
0.0204242
0.0225604
0.0256812
0.0205472
0.0218109
0.030452
0.022979
0.0213719
0.0215111
0.0225079
0.0488796
0.0274116
0.0218101
0.0216164
0.0217093
0.1089
0.0203132
0.0211163
0.0232941
0.0537226
0.022936
3.89713
0.0226146
0.0213442
0.0214364
0.0220408
0.0212201
0.0257956
0.0434279
0.0212621
0.0210347
0.0216228
0.021292
0.021732
0.0336831
2.4044
0.0251527
0.0622547
0.0285929
0.0212925
0.131426
0.0222097
3.11013
0.0215595
0.0215115
0.0208135
0.0213874
0.0218373
0.0245695
0.0363685
0.624709
0.02462
0.035062
0.0215033
0.0285715
0.0214227
0.0221707
0.0254887
2.39274
2.82503
0.0215509
3.19523
0.128631
0.02934
1.60802
0.0206254
0.0213917
0.0214625
0.0219937
2.55745
0.0211639
0.0423048
0.166004
0.0218217
0.0530946
0.0204806
0.0263165
0.365119
1.74385
0.0215237
0.145725
0.0651511
0.16887
0.0232938
3.41593
0.0218469
0.115682
0.0682419
0.0206319
0.0323064
0.0260952
0.0222363
0.445074
0.0245982
0.0214291
0.024265
0.181601
0.0214884
0.041918
0.0214827
0.0202536
0.0232994
0.0253692
0.0214373
0.0519643
0.0239854
0.0231672
0.0204947
0.0213618
0.479439
0.0536987
0.10868
0.0260304
0.0227317
0.0246843
0.0234136
0.0213313
0.0218998
0.02772
0.0220769
0.0224227
0.0205403
0.0230658
2.59701
0.0216487
0.167011
0.0840521
0.0216408
0.0214633
0.0205593
0.0246122
0.0295681
0.0203937
0.0228914
0.022108
0.0216461
0.0211398
0.0216435
0.0214376
0.0214232
0.128261
0.0219385
0.0252444
0.021439
0.0946987
0.498323
0.021354
0.211827
0.0214292
0.0223433
0.0273566
0.366781
0.0244463
0.0210336
0.0213071
0.0285891
0.0315328
0.0874265
0.0221624