/*--------------------------------*- C++ -*----------------------------------*\
| =========                 |                                                 |
| \\      /  F ield         | OpenFOAM: The Open Source CFD Toolbox           |
|  \\    /   O peration     | Version:  v2012                                 |
|   \\  /    A nd           | Website:  www.openfoam.com                      |
|    \\/     M anipulation  |                                                 |
\*---------------------------------------------------------------------------*/
FoamFile
{
    version     2.0;
    format      ascii;
    class       volScalarField;
    location    "800";
    object      ddt0(omega);
}
// * * * * * * * * * * * * * * * * * * * * * * * * * * * * * * * * * * * * * //

dimensions      [0 0 -2 0 0 0 0];


internalField   nonuniform List<scalar> 
13917
(
0.000346354
5.43568e-06
0.0527439
0.000114512
-1.21666e-06
-0.00546668
0.0206732
0.0489007
-0.0720524
0.000728962
0.00405686
0.00155538
0.000120423
-0.0577824
5.41651e-05
5.05826e-05
6.32015e-06
0.000993924
0.00157388
-4.68423e-06
1.22804e-07
0.0168226
-4.35594e-06
0.0601996
-4.37397e-06
0.0115474
-0.00118418
-0.00308388
0.000131713
-0.000851411
0.000357084
0.000154066
6.99163e-06
-8.61296e-06
-1.87869e-06
-0.0116568
-4.45999e-06
-0.0719191
0.000214717
-0.00603158
-8.39263e-06
7.45019e-07
1.68309e-06
-0.00322066
2.07767e-05
8.21234e-05
0.000970019
0.00143706
0.000636509
-8.27841e-06
0.000232451
4.05627e-07
0.00364602
-0.00022537
5.96269e-06
0.000203809
0.00381115
-2.44702e-06
0.000118029
7.57472e-06
-0.142566
5.35892e-06
0.253397
-5.24604e-06
0.000247738
0.260667
1.31602e-06
1.32792e-06
0.0057034
0.000204072
-7.43562e-07
-0.0503715
-0.0657028
-3.1273e-06
0.00282489
0.0018701
-0.0302581
3.75113e-05
0.0130806
-9.41533e-09
-1.72322e-06
1.3966e-06
0.000655621
-0.0801713
-0.0850212
3.60143e-05
-2.99244e-06
0.662064
0.000232802
1.40607e-06
-0.0779578
0.00503858
-1.6164e-06
1.28472e-05
1.42495
0.0470719
0.0035882
0.00170504
0.00344004
0.0387398
-6.87232e-06
8.19693e-05
-0.00331441
6.59624e-05
-5.46756e-06
-0.0487437
0.0249217
0.00167302
6.75331e-06
0.000436966
-0.0884075
-0.0396171
0.00221289
-0.0703594
8.78669e-07
0.0154984
-5.04228e-06
-0.0211655
-0.0320725
-1.39219e-05
7.67361e-07
0.00493723
-0.0439509
-0.000469989
-8.45712e-06
9.26722e-06
6.5908e-06
-8.73737e-06
1.1398e-06
0.0155349
-0.0526323
5.71729e-08
1.42965e-05
5.00824e-07
0.642607
0.0681722
0.000387535
0.0154288
1.45416e-06
0.000130905
0.000110732
-1.68202e-07
2.61183e-06
-0.00127194
1.204e-06
0.0259127
-0.0518767
8.15506e-07
7.62443e-08
0.00015524
0.00126325
0.00649162
0.00208923
0.000456061
0.000167945
-0.144506
0.000170173
0.312451
0.0479147
0.666812
1.94125e-05
-0.00587778
1.55278e-07
0.00348947
0.00215408
0.0034121
6.43182e-05
0.00140619
4.68992e-06
-0.000416657
8.122e-05
-0.0544108
0.00228614
1.22772e-05
0.133631
0.000998268
-0.0563798
-0.00444029
0.0448388
-4.42401e-06
0.0106514
0.00046295
5.36634e-07
-3.32385e-06
2.22616e-05
0.0410424
0.0169604
-0.216674
0.000533296
0.00319604
-0.00360838
-0.103559
0.00938807
-3.93941e-06
0.0366033
0.00327069
6.88342e-06
-2.25734e-06
0.00503903
2.2493
0.000233304
-8.38901e-06
0.00121596
0.0012511
-0.0513258
0.454227
-1.90972e-06
-2.53437e-06
0.00145356
0.0650459
1.82338e-06
0.00744252
-0.0195151
0.00321013
-5.0999e-06
-0.0842071
0.00115205
-0.0553916
-5.10902e-06
-0.120185
-4.56245e-06
-0.000786671
-9.02266e-06
-0.0762336
-0.0624801
5.75179e-05
-0.960599
0.000182241
-5.50336e-06
-0.00972326
0.0022922
0.00052433
0.0758871
0.0251834
-7.24123e-06
0.000164235
-0.0906324
-0.0661075
-1.59217e-06
-6.76978e-06
-0.0200226
0.00427654
-6.99411e-07
0.00839286
0.00205357
-0.0011317
0.000296121
-9.51935e-07
-0.000188103
-0.0285017
2.27262e-05
0.00416041
-0.016171
6.94593e-06
-2.70122e-06
0.00182669
-0.0046616
0.00202669
7.8078e-05
4.09896e-05
-3.1607e-07
-0.0756259
-0.0529972
0.000737255
-6.10369e-06
-0.0623955
0.312167
0.400898
-0.00328567
0.00206313
-8.4965e-07
-9.5708e-06
0.000987395
-0.0530342
0.00350173
0.000111122
0.59765
0.00104434
6.96216e-07
-0.0274682
-5.04462e-06
0.126549
0.000211973
-1.8034e-06
8.23253e-05
0.000329617
0.00257859
-0.000209793
0.000186963
2.13959e-05
0.0527291
0.0798269
-0.0690446
-5.10585e-06
0.475952
8.9135e-07
2.16908e-05
-5.02848e-06
-0.0233955
-6.68993e-06
0.00497423
0.000273619
3.02655e-06
0.0012467
3.58681e-05
0.00854533
0.000294583
0.00254476
8.91539e-06
-2.86474e-06
-0.0801191
-0.0729085
-4.94878e-06
-9.16246e-06
-0.0191551
-3.51609e-06
-0.0765911
4.42843e-06
-0.0855526
5.18722e-05
0.0747203
0.00054784
-0.00245275
2.49201e-06
0.945277
0.0872372
7.5352e-05
0.00381404
0.0214747
2.47428e-06
-0.0604616
-0.00274454
0.146444
-0.000232778
-0.00699576
0.000186964
-0.117825
0.0217843
0.000518001
0.00213008
0.0330051
-3.46886e-07
0.000322002
-0.0994847
-6.49624e-07
2.69266e-05
-0.0692998
0.00630611
1.3342e-05
-0.00505863
0.0365349
-7.46097e-06
0.00274255
-0.000845095
-5.52043e-06
-6.31972e-06
1.76382e-06
5.2673e-07
0.0509881
0.0796836
-0.0106592
-0.0928988
-4.0617e-06
0.0019787
-0.0133704
0.000869036
0.000165412
-0.0717049
-0.0701162
-6.62735e-06
0.00392789
-7.15616e-06
-0.0787705
6.28106e-06
-0.00374018
0.00224369
0.000166956
-1.02622e-06
0.00119635
0.00378248
0.00140959
-0.0794437
-0.0943171
-0.0693109
-0.000104166
0.000982184
-6.87511e-06
-0.0737422
0.000750454
-1.92117e-06
0.411501
-2.28704e-06
-0.00520567
5.17161e-05
-4.05802e-07
3.39256e-05
0.0108369
3.32876e-05
-0.0110377
-0.0858641
0.00360414
-0.0916947
2.49092e-06
-0.088425
-0.0183412
-5.34686e-06
0.00684381
-5.3345e-07
-2.40454e-06
-0.00181553
-1.10339e-06
-2.17129e-06
-5.78087e-06
-0.00159232
8.04748e-08
-0.0207823
0.0558141
0.00171039
0.0130227
-0.0266036
-0.0472637
0.00086944
-4.03054e-06
0.00509394
0.000201993
0.000193457
-3.84188e-06
0.0421987
0.0326691
0.0753339
4.64659e-05
0.00312632
0.000321994
0.000239024
0.00130496
2.21386e-05
0.00397811
6.77411e-06
-6.26647e-06
-0.091854
-0.0537248
-0.0558005
0.00243723
0.0322793
-0.0683164
-0.111513
0.0190853
-4.41805e-06
0.00132644
2.38137e-05
-1.4198e-06
0.212717
0.00102957
1.1342e-05
0.00118218
0.000792599
-0.000447146
-5.17891e-06
0.00359099
-0.397261
-0.0451855
-0.014761
7.08462e-08
-3.13877e-06
6.87299e-06
0.000228524
-5.88162e-06
0.0718476
0.0404539
0.000113781
-0.0938611
0.00019917
0.00336331
-0.129025
-0.0369625
0.00358685
0.000876434
0.00344923
0.000856615
0.0047007
0.000976428
0.00393234
-0.00710261
0.00111534
0.00203529
-1.47653e-06
0.615589
0.000266723
6.8491e-06
0.000220683
4.25329e-05
-0.0215822
-0.0599656
-4.25104e-06
-2.03114e-06
0.092442
-0.061125
-1.48235e-06
-0.029638
6.43983e-05
0.00871048
-4.60081e-06
-0.0470434
0.362518
0.000153337
1.57493e-05
-0.0301618
0.00838291
-0.020933
-2.18804e-07
-0.0247619
0.00984487
-0.00433184
6.12148e-06
-0.073824
-0.159016
0.000899713
-6.06792e-06
5.57209e-06
0.00191523
0.0114414
1.13241e-05
-6.49478e-06
-7.9065e-06
-7.91433e-06
-0.0507313
0.204115
0.00089151
0.0120622
-7.28308e-06
-7.06524e-06
0.00337521
-0.16637
0.00041038
7.96813e-06
-2.85989e-06
1.40719e-06
-0.0346925
-0.126641
-2.72438e-06
-1.39176e-07
0.00397708
0.00097608
0.000550473
-2.3793e-06
3.24384e-05
0.000117691
0.00199384
-0.0471557
0.0166469
0.00555403
0.00243205
0.521092
0.00370887
-4.92635e-06
-0.0344609
1.54362e-06
3.18322e-05
0.000136407
0.326617
-0.00173261
-8.26142e-06
0.0748317
0.00212408
-0.079516
0.00263426
5.79223e-05
0.00084319
-1.03666e-06
-0.0976138
0.032906
-0.0620887
4.77924e-06
0.000289
0.010284
-0.0802964
-0.151497
0.00169919
0.00310348
4.70238e-05
7.19829e-05
-1.82237e-06
0.00368939
-0.00299892
1.47094e-06
0.00113431
-0.0218679
-0.0557669
-0.027843
5.254e-05
0.00324411
0.189091
0.000109233
2.70995e-06
-0.00844807
-0.011623
0.0358203
0.00451786
-8.09809e-07
-0.0356432
0.00187475
-8.60289e-06
0.000289308
0.0017171
0.000286022
0.000581974
0.00890077
0.00469951
0.000804273
-0.0960714
5.36749e-05
0.073495
-5.83564e-07
-2.92274e-06
0.504513
-0.0177984
0.0237085
5.4262e-05
1.30195e-05
-1.18284e-07
0.00104586
-0.00439897
0.00315282
8.50307e-05
0.00333014
0.00110268
-3.75999e-06
-1.68467
0.00301944
0.00288488
-5.38293e-06
0.00483564
3.97131e-05
-0.176809
0.00115859
0.000924879
0.000309016
-8.42665e-06
3.32339e-06
8.35354e-06
0.00165322
0.000101807
0.0148153
-0.0389974
0.0014151
-7.54943e-06
0.00450341
0.159435
0.0211093
2.03391e-05
-9.48304e-05
-6.12497e-06
0.000390994
0.000122594
-0.164508
-6.55245e-07
8.74424
0.000372391
0.00379218
0.00485426
-0.0669033
0.000724194
3.30868e-06
-0.0435649
-0.0215034
-1.39634e-06
0.000132919
0.408867
0.00692441
0.00319895
-2.34172e-06
1.65194e-05
0.00428272
0.000175528
0.00153666
0.00168796
5.68794e-06
0.00126989
0.0571264
2.15613e-05
8.2544e-05
-7.54905e-06
-0.0462874
6.32412e-07
4.05625e-05
-0.0548198
2.13083e-05
0.00284715
0.000174012
-5.9602e-05
-7.43264e-06
0.00055847
-4.80143e-06
0.00107242
-8.72253e-06
0.000334469
6.46261e-05
-0.342314
0.0105115
-0.179131
3.64445e-06
-7.27387e-07
0.00205019
0.000510077
-0.102921
-0.137216
0.000954669
-2.87063e-06
-0.00325896
-0.048607
0.00302663
0.0199756
0.000965821
0.0113241
0.000267324
0.000950803
0.00443181
0.00160329
0.000897126
0.0208703
0.000909867
0.000107864
0.0020217
7.16773e-05
9.48928e-06
0.000385207
0.000369434
0.000145738
-4.41172e-06
-8.11199e-06
0.00127804
8.35999e-05
0.00181443
-2.05047e-06
-2.21845e-06
5.12605e-07
2.99436e-05
4.03408e-06
0.000104796
-7.58915e-06
-0.0430916
0.00168634
0.022543
-6.60197e-06
-5.53905e-07
0.00013851
0.000836835
2.18447e-06
-0.0600792
0.00119537
-0.00596896
0.00038529
0.00402467
3.62245e-05
3.00528e-07
-8.49524e-06
3.51762e-05
-0.0723982
-2.58847e-07
0.72704
0.000115408
-0.0190751
0.000506183
0.00124999
0.00366369
-7.43426e-06
3.00975e-07
0.00165981
3.66527e-07
4.07275e-06
0.00726478
1.61567e-05
-3.44915e-07
0.000216354
-6.87175e-06
-3.29186e-06
0.000148946
0.00377307
-0.248555
0.000228834
2.16854e-05
-8.64969e-06
-0.0937699
0.00163744
2.13585e-06
5.47123e-06
-0.0291241
0.369325
-0.0585479
0.000237826
0.00010683
-7.27959e-06
-2.8477e-06
0.00112508
0.000268458
0.00761913
-0.000477397
-0.0544277
1.00236e-05
1.75655e-05
-0.0634198
-2.15456e-06
0.000289355
-2.92115e-06
-6.61285e-06
0.00037394
-0.00309021
3.15884e-05
-0.00585423
-0.00595511
-0.000441982
-4.84584e-06
4.50474e-06
0.00308615
0.514488
-1.34447e-06
0.35706
3.44008e-06
0.000325291
1.76507e-05
9.89809e-06
0.0100523
1.24001e-05
0.165228
0.000378251
7.16193e-07
4.19783e-06
1.6071e-07
-5.77574e-06
7.73501e-05
0.00159854
1.69923e-05
7.77338e-07
-0.0808533
0.000574743
0.000846665
0.000395536
0.00127
0.000148388
-1.7945e-07
2.86407e-05
-0.0452448
0.000881365
-1.79074e-06
1.19454e-05
-0.119794
0.000593404
-0.109776
1.03224e-07
1.82341e-06
-0.0603807
0.000540216
3.90124e-05
-0.0660715
-0.00371736
-5.6922e-06
0.00387645
-8.48451e-06
7.37317e-06
-6.45511e-06
-0.0787338
4.504e-06
2.80387e-05
-2.31875e-07
0.364129
0.000174247
0.00880155
0.00641109
1.1562e-05
-3.93802e-05
-3.14201e-06
-0.0953598
-6.26346e-06
1.86157e-05
-1.11188e-07
0.00323149
3.5555e-08
0.0047954
-0.00361624
0.0900017
-4.02696e-05
-0.00144838
-0.0589991
-2.88876e-06
-0.0140138
-0.171389
-0.0635976
-0.0267267
-0.082012
-0.0310625
0.00369716
6.19645e-06
0.000854575
0.000528914
-0.0141363
4.92063e-06
-1.54642e-06
1.71132e-06
-3.82652e-06
0.000191746
0.000740272
-0.0589209
-1.4833e-06
-4.40177e-07
-0.0190357
0.00341458
1.04684e-06
-0.000987508
0.000286412
2.26532e-05
0.0192675
-0.000658077
1.45725e-05
0.000170306
-0.0173849
-0.058005
-0.00179696
1.58798e-05
0.0085616
0.00341355
-0.0630282
-0.0816322
0.00229896
-4.96032e-06
3.93939e-05
1.09073e-05
4.24352e-06
3.34257e-05
-1.23379e-06
0.000119457
0.000257756
-0.104125
0.00467674
2.79892e-05
0.00367774
-0.117029
0.000323354
5.39058e-07
0.0213887
2.25491e-06
2.65464e-06
-0.000124065
-0.149437
8.16356e-07
-5.21146e-06
-7.56009e-05
-0.00299731
0.0749117
0.00311517
-0.00813276
-5.20006e-06
0.0054472
1.3603e-06
-6.4577e-06
1.78111e-06
0.0487888
-0.0558294
5.11755e-06
3.53682e-06
-2.39004e-06
0.484389
2.50694e-05
0.000305935
3.58983e-07
8.9428e-06
0.00511236
1.36188e-05
0.000910631
0.00633161
-0.0538627
4.29414e-06
-0.000766385
4.96032e-05
-0.0604528
-0.109771
-2.80421e-06
-0.0767498
0.00154422
-0.000189924
1.18829e-07
0.00320899
-5.29238e-07
0.000189469
0.000360294
0.00319789
0.0772234
-0.00014115
0.00389022
-0.0280641
-8.53526e-06
-0.00205812
9.73234e-06
7.98326e-05
-0.00140328
-8.87412e-07
-2.09227e-07
2.80866e-05
1.54713e-05
-0.0861933
-3.67724e-06
-4.49612e-06
0.00127003
0.000490898
0.00107346
-0.0626297
0.00326053
-0.0701662
0.00170105
0.00056738
0.000921303
-0.025631
0.000890154
-0.121604
0.00816844
0.000192062
1.52372e-05
-0.0185042
0.00328584
3.52521e-07
0.00399184
0.000446761
4.26582e-05
0.000215822
1.44972e-05
0.000384757
7.18813e-07
0.000933372
0.00199791
-6.67263e-06
0.000800601
2.6044e-06
-0.000864185
-8.48476e-06
-0.000259393
0.00125963
9.07929e-05
2.33702e-05
5.47336e-06
-0.00259338
-0.00103672
0.0167541
-1.93232e-06
4.28812e-06
0.00142871
-2.95692e-06
0.00345126
0.000793102
4.28688e-05
0.00145958
4.96363e-06
-0.0751331
1.08359e-06
0.000791873
-0.0326283
0.00190319
-6.05243e-06
3.28614e-05
0.0159344
-5.69943e-06
-6.49783e-06
-0.0683495
-0.0939182
2.20499e-05
0.00378989
-5.07099e-06
2.3378e-05
0.0647053
3.24493e-05
-3.66477e-06
0.00420304
7.24171e-06
0.142469
-2.04823e-06
-3.74375e-06
1.83031e-06
0.00330881
-0.0262322
-1.4832e-06
1.23412e-06
-5.38756e-06
5.72153e-05
-7.05972e-06
0.0225855
0.00126865
-1.92169e-07
0.0745703
0.000241774
-0.0128683
-0.0715155
-0.0116209
6.29274e-06
1.29455e-06
-1.39479e-06
-0.0157044
4.29907e-05
-0.0272172
-0.0573
1.15502e-05
-0.0109394
-0.00420414
0.000992615
0.00352341
0.00202526
-0.0251167
0.0865295
-0.00169377
0.248313
-0.0863982
0.00169707
4.73896e-05
-0.0383736
-0.000362903
5.91155e-06
7.23339e-05
-0.214058
0.00021931
-4.11948e-06
0.00148405
0.000862227
0.000259935
-0.0240344
3.87542e-05
-0.00863612
0.000909051
0.00771368
0.00253406
0.00851487
0.00025623
6.07372e-06
1.30315e-05
0.0732745
-5.35498e-06
1.58558e-05
-3.74623e-06
3.16105e-05
-3.77989e-07
8.96366e-05
0.00407595
-0.00774224
-0.00553063
-0.00333807
0.0977812
0.0207978
7.87161e-07
0.422183
0.0667923
-3.50522e-06
-6.62026e-06
0.000330508
-0.0676335
7.50588e-07
0.00124604
-0.0900529
0.000196303
-1.37589e-06
8.47479e-05
1.00779e-05
0.00355945
0.000164222
-7.51563e-06
-0.279015
0.0171742
0.00038377
0.454232
0.00164319
-33.6182
2.2195e-05
0.000161736
0.141522
0.548102
0.00228961
-0.00596436
0.00017093
4.686e-07
1.55608e-05
4.76859e-06
-1.89418e-06
2.25507e-06
-0.000163948
-5.49909e-06
0.00368167
-6.93341e-06
0.000233184
9.7653e-06
0.000977547
0.00335963
0.069429
-3.19575e-06
0.00811583
1.54806e-05
0.176796
-2.07741e-06
0.000185959
-2.30217e-06
0.0106374
-0.052252
0.0036589
-5.65898e-06
0.00457974
-8.92494e-07
0.000201907
-0.082387
6.07293e-06
1.63385e-06
0.000462935
0.000313568
-0.00220816
-5.68669e-06
3.59768e-05
8.88995e-05
-4.34385e-06
0.000757457
8.91536e-06
-6.27549e-06
1.20616e-05
-0.0224967
7.96409e-05
-0.00199718
0.050699
0.000901507
-0.0301714
7.20626e-05
-6.21123e-06
0.000105762
-0.0202679
9.74119e-05
0.000127467
0.000925945
-6.01935
-5.81248e-06
0.0356907
0.000954851
0.00180459
-1.05838e-07
5.15264e-06
0.00387093
1.86449e-06
4.88647e-07
0.000346065
6.00632e-06
2.4385e-05
0.000197268
0.00180244
-0.0079157
0.0243328
0.000201564
0.00186287
0.0605723
-0.0174887
0.000787877
0.00397571
-0.0662661
0.000644343
-0.132021
3.4567e-06
-18.0091
0.0329823
8.31658e-06
-1.02227e-06
-6.57029e-06
5.47639e-05
0.000496477
1.14028e-05
-3.17474e-06
0.00225308
5.87731e-05
3.35071e-05
-0.0634718
5.84487e-05
0.000116454
-0.0743037
3.65895e-05
-0.0264106
0.000141903
0.00409015
-5.67903e-06
-0.0152564
-0.0570541
-7.79579e-07
5.93331e-05
0.0218242
0.000158592
-0.0341023
-7.31629e-06
8.14351e-06
-0.0451065
5.22785e-05
0.00173543
-0.217562
-3.69508e-07
0.000958759
0.000189451
1.799e-06
-9.41705e-06
0.00688567
-0.0571271
9.4424e-06
8.55027e-05
-1.69386e-06
0.000115551
0.00336045
0.0313082
7.43109e-06
-0.0088897
0.485217
0.00284428
0.716325
4.87092e-05
0.00294983
0.00154499
-5.84929e-06
-2.22521e-06
0.00148491
-0.0668244
1.27936e-05
0.000217626
0.0557669
0.00889811
0.0392005
2.15501e-05
3.0025e-06
1.32133e-06
6.1502e-07
-0.0611543
0.00117751
0.00010607
6.43401e-05
9.53995e-05
7.32072e-07
-3.63816e-06
-4.53324e-07
0.00179568
0.000850814
0.106268
-0.00335931
-0.0387998
-0.014956
3.41981e-06
0.001017
-6.84745e-06
0.000108168
-0.00211882
3.56172e-06
3.80055e-05
0.00111536
0.00313192
-0.00751584
0.0509469
-0.00772179
1.88396e-06
-0.0623287
1.95708e-06
2.68296e-05
7.26143e-05
4.61126e-07
2.24125e-05
0.00567603
-0.0121202
6.7025e-06
0.0927929
3.03612e-06
5.03165e-06
3.66542e-05
-0.00944621
0.000178799
0.00014209
-0.209
3.2804e-05
0.0160549
-0.0295208
-1.4569e-06
-0.00293787
-7.23995e-06
-0.034245
0.00155063
4.34064e-07
0.0445525
0.001062
-0.00108799
1.15023e-06
-0.053933
0.000128676
0.0136859
7.83207e-05
0.000460012
-0.0291196
2.02254e-06
-0.0139962
-1.48322e-06
0.000744237
1.71385e-06
-1.5519e-06
-0.0589546
2.56838e-05
0.00303916
0.00121929
-0.008892
2.65148e-05
0.00116209
5.19061e-06
0.0525951
0.000136581
-0.0126116
-7.5576e-05
0.00174781
2.93642e-06
0.000475929
-1.02108e-06
0.00176959
0.0818738
1.68643e-05
-3.90139e-06
-0.00200872
4.69702e-05
0.210811
3.2873e-05
0.0897261
0.00293375
0.000226176
-5.68724e-06
-6.51484e-06
-9.08624e-08
-1.69519e-06
0.00169203
0.00243615
0.00454685
0.000103311
-5.46253e-06
0.533178
9.12303e-05
0.000213297
-0.00859342
-1.41867e-06
-0.135808
0.00109108
0.000448613
0.0142225
-0.055199
-0.136227
0.110558
0.170481
-5.82911e-06
0.00625518
-0.0622599
0.0553278
-3.12083e-06
-1.19276e-07
0.00311257
0.0300839
-0.018431
0.0467701
4.65068e-05
0.00122035
0.000667384
-0.0317119
0.0180511
0.000911899
0.00356419
4.41302e-05
0.000352707
0.00225291
-3.55734e-06
-0.00195664
-0.0498333
-2.16585e-07
0.44469
-2.74619e-07
6.87812e-06
0.00349897
-0.0829659
-7.31841e-06
5.22332e-05
1.96357e-05
5.70436e-06
0.000415064
0.00637232
8.32865e-05
-6.27108e-06
-4.6039e-06
0.000909087
0.000176228
0.000152602
0.0155771
-1.62616e-06
-0.0956881
-0.0579474
-0.109384
0.00012122
0.000767697
0.0193886
0.00049136
0.00332797
0.093443
0.205017
8.52089e-06
-0.216537
-0.0234551
-6.86351e-06
-4.50405e-06
0.00744484
-0.104519
-0.0800862
1.36271e-05
-1.36686e-06
-0.0519803
-17.4211
0.592437
6.27348e-05
-0.000112149
0.00161348
7.22556e-07
-0.0701997
-0.180632
0.0248543
0.441813
-6.8601e-07
-5.92648e-06
-8.26812e-06
0.000213771
-0.0485975
0.000857753
0.00019947
1.42636e-06
-0.000963219
-0.0637597
0.000908582
0.0328184
-0.0269516
-0.00014826
-0.00596899
-2.08002e-06
-2.86659e-06
0.106666
-7.21056e-06
5.74611e-06
1.76e-05
0.0058365
0.000620317
-0.259388
0.0022141
-3.94942e-06
-0.154907
0.000391156
-4.59407e-07
-0.0359236
-0.00269347
0.000254284
2.82246e-05
-0.0124481
-0.123327
4.91026e-07
-0.050912
0.494626
-0.144274
0.385459
0.00086082
-4.57702e-06
3.63484e-05
0.161448
0.00013935
0.135021
0.00038292
0.317627
0.00520839
3.47827e-06
-8.23532e-05
-4.09664e-06
4.1371e-06
-0.104766
-0.0315089
2.12144e-07
-0.0426484
0.000913149
-1.4002e-06
1.92115e-05
-6.2226e-06
0.00499731
1.85351e-05
-0.00158937
0.00051062
-4.61415e-06
-9.28593e-06
-0.0616585
0.0587444
0.000617423
4.54172e-05
0.000401181
-1.09267e-06
5.22649e-05
0.000270746
-0.0605938
-0.0231559
-0.113513
-4.64983e-06
-8.43276e-06
7.45958e-06
0.00302683
-5.83321e-06
8.93158e-06
0.00604675
0.0013536
0.00197833
7.86508e-06
-0.126745
-0.0170454
-8.62641e-07
-0.0781391
0.00326709
0.000767109
-0.00449861
5.5929e-06
-0.0825476
-0.000185999
1.16276e-05
-4.61021e-06
-3.32654e-06
0.0106576
5.9171e-06
6.97649e-05
0.000371882
-0.0135571
-0.0288236
-5.9984e-07
-8.90251e-06
6.74098e-05
4.68256e-06
0.00280642
1.03648e-07
0.00201546
8.79592e-05
-0.0572059
5.8646e-05
-0.0647201
-4.11942e-06
-0.176869
1.41737e-05
9.53731e-07
-0.173017
0.0656602
0.0604582
0.0115675
0.000184431
0.000738396
-4.66834e-07
-0.0604981
4.84447e-07
-5.49953e-06
0.00274306
0.00164802
-0.273179
-0.0708638
0.00394078
-0.0333362
0.00142784
0.290234
1.0937e-05
0.000132812
0.000299372
-0.102544
-8.33055e-05
-0.10779
-0.0274268
3.40291e-05
5.93719e-07
-2.41558e-06
-0.0452363
0.0087559
7.70889e-05
-3.50777e-06
5.76486e-05
0.000181427
0.000642459
0.000336725
0.00550764
-5.9025e-06
-0.0058137
0.00124039
0.0066105
0.00194024
3.00342e-05
7.47388e-05
-0.155984
-8.72832e-06
0.00249124
0.0658781
1.01908e-05
9.53812e-05
0.00637515
0.0119415
6.43515e-06
-0.113308
9.58934e-05
-0.000737496
0.000947126
2.77179e-05
5.59867e-05
-0.113416
-7.09134e-06
0.000921428
0.0241341
-0.114843
0.000771967
0.00127888
0.000203916
-0.000935083
1.3229e-06
-0.121243
0.000245616
1.47348e-05
0.000315065
-5.07359e-06
-2.79205e-07
0.00984049
-2.33808e-06
-4.38372e-06
-1.82651e-06
0.0042795
5.57325e-07
0.000185768
0.00186397
0.00891289
0.00204621
9.7366e-07
0.0169177
0.0539922
0.00573386
0.00277289
-0.0013339
0.00474879
0.11194
0.0476034
-2.79189e-07
0.00382096
0.0780958
-2.07331e-07
8.50407e-05
-7.82902e-06
0.0569134
0.00395719
2.50527e-05
0.00705522
-0.103532
-8.30093e-06
9.77838e-07
0.0317835
-0.0333326
0.00169295
-9.7224e-06
0.000134884
-0.0187573
-0.00813999
-4.55328e-06
-0.10659
0.00205545
0.000381665
-0.0896736
0.00018274
-5.80131e-06
0.000314318
0.00393571
0.000444021
0.0382988
-0.135643
-4.02985e-06
-0.00390077
0.019944
-0.0667431
-4.16478e-06
-0.000372056
1.25792e-06
-4.45792e-06
-0.11025
0.416281
0.00498618
0.545091
0.000194023
0.000826544
-1.23842e-07
-0.130649
-0.0572371
3.95425e-07
1.17425e-05
-0.000119013
1.52827e-05
0.00106589
-0.0376025
-0.0666273
0.000872597
2.83615e-05
3.15958e-05
-0.11107
4.22191e-05
0.00102818
-3.48874e-06
1.80646e-05
0.0744112
0.483863
0.000504488
0.00204709
-3.02824e-06
0.00239899
2.72851e-06
-0.000680042
-0.0998692
-0.0629447
-2.28722e-06
1.40059e-06
0.000722721
7.74117e-05
5.68845e-07
-0.103847
-0.105649
-4.20596e-06
4.59679e-06
4.66526e-07
-6.23043e-06
0.00396871
6.02585e-06
0.0470451
0.00221931
0.00158335
-1.40016e-07
0.00014612
-0.145185
0.000528774
0.0170756
-0.117729
1.90355e-06
0.00228794
5.11449e-05
-0.000394486
0.00644673
-0.0507387
-0.0651091
0.0015014
-5.76325e-06
-0.00261568
6.07409e-06
0.000186498
-1.07538e-07
0.058216
0.000196797
0.70115
0.000272967
0.000823481
-7.22973e-07
0.0105593
0.000235016
6.73454e-08
0.0384679
-1.37557e-07
0.00086103
0.000449717
3.18286e-07
-0.0814042
2.59694e-05
0.0577767
9.81183e-06
-6.27335e-06
-0.114516
-0.0673819
5.80176e-06
-0.000211125
0.000858363
0.000845987
0.00144728
0.000239408
5.67221e-05
0.000150152
-0.00305383
5.11648e-06
0.0779885
-0.000333879
0.00117239
0.00289256
4.85822e-05
-0.093366
-8.32162e-07
0.0552131
7.51177e-05
-0.101536
-0.95867
0.0869139
0.0811515
-0.0031835
-0.000620483
2.11934e-05
-0.0682715
0.000483389
-2.05987e-07
-0.0611472
0.0632673
1.15595e-05
0.000106887
0.000239663
0.000243916
0.000500598
-0.0377173
-7.27808e-07
0.000451914
0.000674887
7.17262e-05
-3.50135e-06
0.00240533
2.33743e-06
0.0853231
1.58174e-05
0.00260188
0.000337573
0.000645109
0.00127814
0.573028
0.00351339
-4.64771e-06
0.0125666
-0.0163343
-0.450175
4.0739e-05
0.132595
0.000296755
0.017824
5.27089e-07
3.95218e-05
-0.0872923
0.00124208
-0.0587404
-0.0534944
0.000130088
-0.161348
-2.33216e-06
3.02432e-06
-0.0538002
-0.00639638
3.93636e-05
-0.0579951
0.00014774
-0.00205147
6.32312e-05
0.00114179
9.23313e-06
0.0710932
0.0791203
-0.0136774
-0.000298178
0.000138043
0.000968179
-0.0609278
3.17163e-05
2.36384e-06
0.000470022
-3.00644e-06
0.000249531
-0.203795
-0.0871642
-0.080289
0.00129648
4.34672e-05
-0.110744
-1.08139e-06
0.0019554
-9.23506e-07
-0.433219
4.57659e-05
0.000709285
-0.0496491
0.00294965
-6.37442e-06
-3.23943e-05
-0.158903
5.18549e-07
0.00436961
-9.96472e-07
-0.0328527
-0.105936
0.00277746
-0.00169498
-7.05797e-06
0.013081
0.00366087
0.000615897
-8.4437e-07
4.99177e-05
-5.68533e-06
0.00128188
-7.19766e-07
0.00243914
1.11269e-06
4.43502e-06
-0.220192
7.30808e-07
0.00014432
0.000180345
7.00253e-07
-0.0595919
-1.47276e-06
0.000226066
-0.101625
0.00112523
0.0752042
-9.90067e-07
-0.119902
0.00124544
-0.0913159
3.87532e-05
0.00327454
3.59782e-05
0.000739871
0.00368394
0.0030278
0.0132987
-0.0975149
0.00607913
0.387803
-3.22593e-05
0.00313461
0.00197902
0.25213
1.3986e-05
3.35974e-05
-1.70486e-06
0.00118185
-0.00126223
0.623442
0.00112295
0.0893917
0.00489848
-0.00240308
-2.42504e-06
0.662607
-0.00528649
1.87736e-06
1.76815e-05
-1.40848e-06
0.139701
-1.60215e-06
-0.132927
-1.11493e-07
0.000261752
-0.0644091
0.00106321
-3.35211e-06
-1.92469e-06
-0.0142118
-2.61432e-06
3.05089e-05
0.000149716
0.000197845
0.000177789
1.93445e-06
0.00347003
0.00295186
0.000899935
0.0148588
-0.0768783
-0.0557731
-0.045256
-4.7027e-06
-3.6742e-06
0.000847549
4.31608e-05
-0.00128358
0.107631
-0.0651601
-1.35857e-06
-4.57215e-07
-0.0280176
0.00881193
-5.40618e-06
-4.02716e-06
2.74246e-05
-0.360277
0.0265003
0.000146699
0.00020855
-1.41093e-06
0.00542248
0.00347506
0.00247189
0.000225978
0.000336178
1.10866e-06
0.000400059
0.00517452
2.44516e-06
1.41689e-05
0.00013124
0.0400076
3.3203e-05
-0.0709948
-4.01785e-06
-0.0830999
0.00018191
0.000209913
-6.07111e-06
-6.32963e-06
0.00151812
-0.0297298
-0.00348473
-0.0069751
-0.257605
5.04676e-06
-0.0902556
0.00340598
-2.10117e-06
0.441947
-0.0080714
0.00314098
1.31786e-06
-0.0360145
-0.067067
1.7711e-05
-0.000671206
-0.0269103
0.00018167
-1.96125e-06
-8.16333e-07
1.52934e-05
0.000108695
0.000777038
-0.00698059
0.00491503
0.00152387
-3.13091e-06
1.17585e-06
0.109949
-2.2307e-06
0.000528216
-1.84861e-05
4.00473e-05
0.000816391
-4.17339e-06
2.47756e-05
0.00757641
-6.09593e-06
-0.0756043
-3.40826e-06
-4.77413
-0.0552086
0.00399532
3.9606e-06
9.08151e-07
-0.112214
-6.14552e-06
7.14995e-05
6.51746e-07
-0.000354265
0.514414
0.000454378
-0.0656154
-0.000459603
0.0511691
2.31764e-06
0.0014378
1.06258e-05
-2.50119e-06
-0.0407971
-0.0717938
0.225296
5.51755e-05
0.00141805
0.00181137
-0.0746878
-0.10382
0.00779783
0.000364156
6.43612e-07
-0.0882743
2.9681e-06
1.19682e-05
0.00673633
0.00308157
4.11036e-05
-0.0047748
-0.000784939
1.58695e-05
0.000185432
-0.166147
0.00010438
-6.28565e-06
-0.0640935
-0.000381866
-4.321e-06
-0.0250417
-6.12697e-06
-3.3806e-06
0.00486476
0.00529693
-0.331345
-3.01469e-06
2.24254e-05
-5.74455e-06
-0.00756197
-3.53351e-06
-0.0686752
0.513579
-0.0518103
-0.0158385
-0.424156
-0.000127699
-0.0729918
0.0171734
-1.45456e-06
9.50272e-05
0.00069615
-6.90159e-05
0.00137195
-0.0657106
-0.100085
-0.0415136
-0.0106956
-1.95265e-08
0.00290473
-6.61117e-06
-0.0403785
0.000274747
8.27542e-05
8.47648e-05
3.61756e-05
-4.15884e-06
0.00289263
-0.0974578
-5.23467e-06
7.47257e-05
-8.55671e-06
-0.043173
7.07467e-05
-0.194323
0.0597356
0.245661
-9.64628e-07
-4.29808e-06
-0.0114753
-0.0505022
-1.39072e-06
0.00267172
-5.5599e-07
0.00339297
-0.00280533
0.00167647
0.00114226
0.00998692
-3.41552e-06
1.18344e-05
0.0113747
-0.020937
0.000212138
0.000228268
-4.60529e-06
-0.07963
-3.60223e-06
-9.09188e-06
4.80886e-05
-3.25336e-06
-0.0284991
-0.0586977
0.106031
0.00151307
-0.116474
0.248573
-7.00471e-06
0.000436565
-4.65084e-06
-0.00737466
1.79422e-05
3.67924e-05
-3.33617e-06
-6.66012e-06
4.7638e-06
-7.22743
7.10277e-05
0.000845813
1.08361e-05
0.00058398
2.18246e-05
-0.000267866
-4.68086e-06
0.000430913
0.000679244
0.000562114
-0.196734
-6.48195e-06
-0.0461149
0.00101035
-0.00136906
1.15756e-05
-5.80452e-06
-0.0298513
-0.132335
1.8957e-05
3.16254e-06
0.00799663
0.0167843
0.00145811
-0.093268
1.0214e-05
-0.00285208
0.000453935
-4.25584e-06
0.11268
8.72182e-05
-0.000282206
-1.33671e-06
3.04165e-05
-3.52176e-06
-0.0366303
-0.0503973
-3.95192e-06
0.0474173
0.0128494
-6.35295e-06
5.12928e-06
-8.08772e-06
0.0416427
-0.098972
0.000764343
0.000150909
0.000419368
-4.84378e-06
-1.80687e-06
6.69713e-05
-5.94821e-06
0.00730116
-1.34939e-06
0.00162651
0.0341884
0.000310445
-5.01963e-07
0.146869
0.00189613
-4.7144e-06
0.00168016
0.000388204
0.0729802
1.65999e-05
-0.166692
0.000716421
-2.12743e-06
0.000512468
0.00139761
0.000112675
-0.198217
0.00146964
0.000463967
0.106138
-3.15473e-06
0.00498528
-0.00212373
0.00294355
-6.44263e-06
-3.68637e-06
-1.39071e-06
-0.000464352
0.00135855
0.00128835
0.0142971
-0.0602795
0.0598046
2.01752e-07
0.0100518
-0.0465406
-0.114415
-3.19611e-06
-1.18616e-06
0.00119261
0.00394776
3.02376e-05
0.00064983
0.0474568
-0.0284669
-15.8605
-0.000679291
0.00512482
-0.027957
-0.194469
3.29481e-06
28.5913
0.0255916
1.45233e-05
3.47001e-05
1.87537e-05
-0.119759
0.00567266
0.0728473
6.23497e-05
0.0983677
8.52352e-06
0.37221
-0.0258632
9.31229e-07
0.000572548
-0.0900778
0.133522
0.000928325
4.85941e-05
2.37375e-05
2.16426e-06
0.025168
0.00347632
0.681841
-0.109853
9.66945e-08
-0.0358236
0.00328789
-0.00874663
-6.54009e-06
-3.43126e-06
-0.00878755
0.0158169
-4.24179e-06
0.000694824
0.00213505
0.000370361
0.0910549
0.0212821
-0.14085
-0.106502
4.65173e-05
6.45239e-07
-0.000126213
-0.0236712
-0.051121
1.21977e-05
0.00722027
-0.00141612
0.0223633
5.67948e-05
-2.7059e-07
-0.0569208
0.665951
0.244732
-0.00717319
-0.0060429
-5.45885e-06
0.00824998
-0.102557
9.30728e-07
-0.00197375
0.00320095
-5.54071e-06
0.00509218
-0.0536389
-0.0412521
2.28512e-07
0.00728272
0.00367697
-0.278414
3.81552e-06
0.000107761
4.67892e-06
9.34534e-05
2.87112e-06
0.000724373
0.00015262
0.00133988
-0.0461384
0.000550957
-0.0556019
1.95104e-05
0.000408816
0.000141422
-0.0549752
-0.00370516
-0.0635491
0.000110416
0.000112701
-0.160801
-0.00871398
-7.86542e-07
0.000550082
0.549218
0.0495406
-0.00222317
-3.18005e-06
-4.19466e-06
-3.07988e-06
0.17248
2.23388e-05
-0.00287965
-0.00109549
0.0415494
0.00017868
0.0101643
-0.0566846
2.42814e-06
-0.0349091
0.000247758
0.000120121
-9.13711e-07
1.25303e-05
0.000832656
-0.124818
-5.91486e-06
-0.0602591
0.010393
-0.00161672
0.00380419
-2.58902e-06
-5.6716e-06
0.000344899
7.71175e-05
-0.246748
-0.451433
0.0004398
0.00945981
-3.18006e-06
6.34094e-06
1.04322e-05
7.67107e-07
-0.207397
7.45589e-05
-0.0710577
-0.00404158
5.94874e-05
-0.00716187
0.657071
-0.0354965
-0.0678859
8.69579e-05
1.17464e-05
-1.3498e-06
0.000113047
-0.0121065
0.0140856
-0.16731
-1.21256e-06
4.56163e-05
0.000178126
-1.5598e-06
0.00677333
1.41682e-06
-0.000716427
-0.00227623
0.00017263
0.000811761
-2.93602e-06
0.000744568
0.000499392
0.00720561
0.00293242
-0.000349939
-6.91739e-06
0.00767625