/*--------------------------------*- C++ -*----------------------------------*\
| =========                 |                                                 |
| \\      /  F ield         | OpenFOAM: The Open Source CFD Toolbox           |
|  \\    /   O peration     | Version:  v2012                                 |
|   \\  /    A nd           | Website:  www.openfoam.com                      |
|    \\/     M anipulation  |                                                 |
\*---------------------------------------------------------------------------*/
FoamFile
{
    version     2.0;
    format      ascii;
    class       volScalarField;
    location    "800";
    object      omega;
}
// * * * * * * * * * * * * * * * * * * * * * * * * * * * * * * * * * * * * * //

dimensions      [0 0 -1 0 0 0 0];


internalField   nonuniform List<scalar> 
13917
(
0.0418541
0.0222403
5.02747
0.0234924
0.022111
0.443995
4.97851
5.18765
6.33205
0.0706347
0.167289
0.0702067
0.0235666
11.7712
0.0265722
0.0253801
0.0223643
0.0587089
0.0688338
0.0221155
0.0222677
4.96016
0.0220973
5.02505
0.0220212
4.69648
0.0417389
0.0548277
0.832708
0.114696
0.0449884
0.028834
0.0363951
0.025772
0.0220368
0.292426
0.0221057
4.66306
0.025345
6.73799
0.0219226
0.0222861
0.0215839
0.0842669
0.0221141
0.0275987
0.057842
0.0781637
2.76876
0.0220217
0.0274698
0.0223809
3.0962
0.0261837
0.0223797
0.0275405
0.166418
0.022052
0.0254163
0.0220687
10.007
0.0222431
26.2357
0.0221042
0.409129
19.1096
0.0221055
0.0220508
0.189546
0.0378551
0.0221184
6.30083
5.07463
0.0220271
2.88167
0.0817006
6.49647
0.0228469
4.43011
0.0222383
0.0222062
0.0221128
0.381561
4.72205
4.88392
0.0227272
0.0221821
18.711
0.0271328
0.0215741
4.92395
0.098989
0.0219046
0.0231172
18.6364
0.382962
0.131743
0.0714457
0.140092
0.11098
0.0218254
0.0326549
0.083927
0.0232594
0.0218091
6.46474
0.506696
0.082642
0.0223727
0.0481931
4.90725
6.13872
0.0900345
6.42491
0.0230377
3.48535
0.0220184
1.51599
5.74332
0.0261349
0.0222745
0.18586
5.26199
0.0516013
0.0219876
0.022926
0.0220837
0.0219957
0.0216082
0.423831
4.38704
0.0229461
0.0221439
0.022275
4.67413
4.93268
0.0425415
0.115246
0.0220983
0.0259995
0.300815
0.0217808
0.0226269
0.106789
0.0220512
6.11919
0.882178
0.0223237
0.0217519
0.0295552
0.0611276
3.38117
0.0948456
0.0430765
0.0278151
6.11964
0.0361736
0.79362
8.91014
4.54665
0.0243923
0.042383
0.0222381
0.12691
0.0884825
0.137911
0.023226
0.065527
0.0219359
0.0337158
0.0434735
7.71712
0.0975623
0.022705
5.45945
0.047591
4.42079
1.94269
5.96462
0.0219433
0.102018
0.0469253
0.0217741
0.0221733
0.0305082
4.64427
0.420067
7.63122
0.0393903
0.129882
0.309446
5.24604
0.378892
0.0221074
0.121698
0.0407578
0.0226154
0.021914
0.258123
9.75112
0.0264924
0.0220367
0.0606133
0.0603459
5.51313
1.74196
0.0220387
0.0220667
0.069888
4.76038
0.0225284
5.0359
7.62365
0.130368
0.0218167
0.642275
0.0605955
7.0635
0.0219779
10.7463
0.021936
0.101864
0.0219072
4.75247
6.5296
0.0257468
2.56611
0.0282123
0.0218207
0.293354
0.0956637
0.0388617
4.82424
10.335
0.0217798
0.029423
4.92375
4.77103
0.0222304
0.0219566
5.53409
0.149791
0.0222668
0.283332
0.109808
0.0403959
0.0389321
0.0222303
0.0469913
8.30662
0.0219235
0.133082
0.144689
0.0220563
0.0220405
0.0750771
4.10511
0.0889378
0.0308746
0.026778
0.0222713
6.73313
7.2902
0.292873
0.0218279
5.32252
7.36931
1.74571
4.40625
0.0867409
0.022217
0.0219411
0.0581144
4.85337
0.135212
0.0250807
2.44225
0.0440425
0.0216005
8.69168
0.022092
5.48541
0.0259753
0.022262
0.0279374
0.0427439
0.0426513
0.293462
0.0332931
0.0220487
0.394517
4.81434
7.27093
0.0219789
2.80423
0.0221737
0.02204
0.0220255
1.28594
0.0221064
0.112304
0.0378223
0.0219133
0.0607575
0.0233123
2.21954
0.0461632
0.0888682
0.0218167
0.0220307
5.00552
5.96919
0.022013
0.0219243
8.75931
0.0219262
4.94702
0.0218101
4.8192
0.0223449
0.589238
0.0351378
2.9837
0.0240845
2.71864
0.332975
0.0279531
0.149697
0.602121
0.0223118
4.52056
0.121884
6.22185
0.0249233
7.07984
0.0303036
4.98182
0.271465
0.121374
0.117758
5.13975
0.0222189
0.0453261
4.84694
0.0221932
0.0236522
6.64445
0.31611
0.0226363
0.305104
0.76081
0.0218668
6.68431
0.304103
0.0220856
0.0219045
0.022181
0.0217464
0.397993
5.77714
0.641547
4.85584
0.0220251
0.150294
7.00552
0.0458564
5.01633
4.78148
6.49152
0.0217743
0.284472
0.0218843
11.0046
0.0220665
3.7322
0.109669
0.0246641
0.0222009
0.065834
0.112697
0.081661
7.60723
4.82835
10.8909
0.0490963
0.0657696
0.0219642
4.84273
4.86707
0.0220789
1.26081
0.0220491
0.353466
0.0223435
0.0222287
0.0233444
4.05883
0.0233023
3.8726
5.19269
0.150811
0.477243
0.022295
0.490095
0.438194
0.0220443
0.351731
0.0221824
0.0220368
0.114783
0.0222616
0.0220255
0.0218806
0.389057
0.0222492
6.06032
4.0457
5.66145
0.377638
3.96546
7.03615
0.0452002
0.0220306
0.200897
0.0251297
0.0309526
0.0221005
5.97546
4.86829
3.84777
0.0253351
0.124499
0.0246656
0.0258385
0.0812655
0.0230768
0.285245
0.0223621
0.0220975
4.90827
4.38083
4.41118
0.146412
6.81472
4.56177
4.92422
6.53498
0.0216389
0.0636582
0.0231446
0.0220991
0.803645
0.058915
0.0218956
0.0690927
0.0428392
6.5476
0.0220404
0.130689
11.6744
0.955308
4.89064
0.0222565
0.0220848
0.0225738
0.0363968
0.0217766
4.38809
0.525725
0.0331212
5.20145
0.0274614
0.128247
5.04292
0.905156
0.145394
0.302686
0.130128
0.0669179
0.18776
0.0450836
0.163287
0.60209
0.0509652
0.0912601
0.0218993
2.50644
0.0283857
0.021658
0.0347899
0.0229599
6.0796
6.40747
0.021919
0.0216191
4.45737
9.91199
0.0222618
6.28555
0.022855
0.269645
0.0219338
5.81879
1.10221
0.0294938
0.0223963
3.99397
0.314611
7.38659
0.0222694
7.42974
2.30153
8.98944
0.0216684
4.75824
6.79768
0.0458856
0.0218978
0.0223511
0.0817056
0.386505
0.0218264
0.0219102
0.021963
0.0219576
5.93163
0.903767
0.0452012
0.406542
0.0219869
0.0218325
0.122144
5.9914
0.0355089
0.0219493
0.0220328
0.0220682
8.8521
5.6514
0.0221759
0.0220685
0.285143
0.0449024
0.0351056
0.0220773
0.0234261
0.027704
0.0896887
0.474317
0.419241
0.204932
0.11139
1.73978
0.0862198
0.0219888
6.99275
0.0220714
0.0239788
0.0243456
2.40252
0.0816981
0.0218396
0.957812
0.13026
11.1001
0.112596
0.0362036
0.0451731
0.022192
7.09896
0.646821
5.21787
0.0222669
0.0308114
0.406141
4.81101
27.2674
0.0755688
0.170783
0.0252856
0.0244513
0.0220784
0.0560501
0.0905696
0.022183
0.0599794
0.137962
5.28181
6.67527
0.0243358
0.12484
0.767239
0.0291412
0.0224314
3.45845
6.65443
5.9701
0.36294
0.0216233
6.21448
0.0799632
0.0218814
0.0332372
0.0832608
0.0349896
0.112423
4.48445
0.182806
0.0395503
7.05164
0.0232933
8.17973
0.0222391
0.0221695
2.88784
6.61587
0.679009
0.0232853
0.022655
0.0220718
0.0447917
3.24354
0.129573
0.0246928
0.135274
0.0648069
0.0219393
2.69784
0.126152
0.281628
0.0219617
0.176981
0.0229239
8.3608
0.0722129
0.0810715
0.0311908
0.0218872
0.0216817
0.0221212
0.130921
0.0279674
0.400343
6.87575
0.0649422
0.0218759
0.180011
0.71838
0.290943
0.0219018
0.0273345
0.0219179
0.0292684
0.0256043
6.65733
0.0222306
6.87985
0.029039
0.16615
0.0991256
5.08824
0.0849274
0.0222959
5.05889
20.3812
0.0220613
0.0242445
1.64861
0.282456
0.134985
0.0222376
0.0224285
0.426294
0.0248124
0.081011
0.07091
0.0216826
0.0600979
5.03661
0.0218803
0.0229253
0.0219825
6.12546
0.0222666
0.0249279
6.96433
0.0234913
6.5394
0.0279141
0.0370946
0.0219753
0.0532168
0.0220335
0.0649306
0.0218923
0.0942306
0.0228564
25.7807
3.08455
5.99553
0.0224338
0.0222083
0.081513
0.0518059
5.37749
6.36126
0.0581143
0.0220393
0.385436
0.725451
0.281769
0.370284
0.0553996
4.30646
0.0412251
0.0417892
0.173028
0.201063
0.0572252
1.14132
0.0565473
0.0235252
0.0884812
0.0280786
0.021735
0.0290307
0.0480979
0.0288178
0.0220406
0.0219373
0.0650495
0.023432
0.0819351
0.0220418
0.0220627
0.0222741
0.0233147
0.0215342
0.0263975
0.0220024
6.00409
0.0686065
0.357086
0.0218003
0.0222481
0.0495335
0.068242
0.0227527
8.37404
0.0881473
11.4273
0.0291542
0.142784
0.0224687
0.0222697
0.0219406
0.023325
8.68371
0.0222557
3.98013
0.0267705
6.31281
0.0516679
0.0897531
0.162913
0.0216825
0.022291
0.0699598
0.0220524
0.0224489
8.15244
0.0228135
0.0221817
0.0288736
0.0219497
0.0216803
0.028872
0.0286994
6.75098
0.0365652
0.0218777
0.0218931
4.90631
0.129081
0.0222376
0.0222704
8.35419
1.22156
9.90986
0.0364381
0.0235407
0.0217912
0.0216606
0.0519977
0.0377778
0.29809
0.0253524
4.55633
0.0223673
0.0237863
10.6029
0.0220557
0.028536
0.0220109
0.0220818
0.0464227
0.0430235
0.0225524
6.51394
4.71695
0.0999136
0.0219852
0.0215897
0.12667
3.44927
0.0222613
1.13186
0.0215898
0.0453261
0.0217073
0.0217783
0.409761
0.0220028
0.508515
0.0425636
0.0222739
0.0216172
0.0220791
0.021925
0.0228414
4.12133
0.0218505
0.0217721
6.04434
6.21501
0.0410627
0.0500331
0.0763282
0.0255191
0.0217962
0.0284227
5.82539
0.100167
0.0221342
0.022331
6.40879
0.0387624
4.87963
0.0222672
0.0228663
7.3013
0.0356089
0.0226358
8.62922
1.6775
0.0219208
0.155279
0.0219381
0.0219803
0.0217879
5.04626
0.0215267
0.0218767
0.02179
1.30813
0.024669
0.266862
0.0640225
0.0217646
0.0332783
0.0221757
4.8457
0.0219725
0.0218661
0.022183
0.131473
0.0221751
0.182572
6.26392
4.65956
0.0267959
0.304112
6.0603
0.0220271
7.56112
9.24249
5.46482
3.99477
6.0143
38.0816
0.167124
0.0223776
4.44656
0.0355603
4.87666
0.0216638
0.0219
0.0222366
0.022169
0.0264301
0.0315755
5.27455
0.0218888
0.0220756
6.82316
0.336743
0.0220784
0.0374373
0.0309533
0.0222465
2.88748
0.0377949
0.023906
0.0246133
6.20665
8.96151
1.2971
0.0216942
0.318588
0.130175
5.05346
6.54987
0.0953817
0.0219302
0.0225351
0.0223703
0.021493
0.0234112
0.0216311
0.0278385
0.0400416
5.39331
0.14932
0.021894
0.138841
4.9669
0.0439202
0.0223345
7.35017
0.0218949
0.0223618
0.0383271
6.16045
0.0221745
0.0219631
5.09585
0.302011
0.527555
0.122059
0.293642
0.0219386
0.203805
0.0223682
0.0220058
0.02237
4.54226
7.26793
0.0217618
0.0216131
0.0220329
1.67895
0.0231588
0.0310213
0.022052
0.0225024
0.197397
0.0217789
0.0665237
0.4087
4.40616
0.0220232
0.0910672
0.0245393
5.2646
4.93173
0.0220275
5.09125
0.0819377
1.44841
0.0221736
4.06422
0.0222457
0.0273443
0.0450433
0.122462
4.62766
0.287984
0.170528
6.75735
0.0218691
0.335925
0.021767
0.0280722
5.15539
0.0221108
0.0222532
0.0229371
0.0222237
5.08784
0.0216774
0.0220884
0.0611581
0.0506711
0.0554242
0.607301
0.13776
8.39699
0.0691376
0.0378278
0.0407082
5.37996
0.042349
14.1925
4.67809
0.0257049
0.0217786
3.79277
0.28206
0.022328
0.127982
0.0359942
0.0222981
0.0268909
0.0222696
0.04493
0.0222921
0.0543929
0.112998
0.0218922
0.0681956
0.0218136
0.0632191
0.0218887
0.0263043
0.0648779
0.0235863
0.0221122
0.0217727
2.1536
0.0903796
6.39145
0.0220242
0.0221829
0.0659808
0.0220113
0.105067
0.0904897
0.0223003
0.110207
0.0217963
10.0343
0.0222897
0.0390339
5.95377
0.329724
0.0219457
0.0238063
7.06991
0.0220089
0.0219297
4.8469
4.91763
0.0244162
0.163711
0.0221061
0.0221024
4.5118
0.0231689
0.0216931
0.32319
0.0218149
0.616634
0.0222001
0.0216966
0.0222333
0.140626
4.23183
0.0221403
0.0223109
0.0219392
0.0262781
0.0220789
1.03475
0.065488
0.0222689
5.81246
0.0517752
0.348666
4.61817
3.56887
0.0217493
0.0222798
0.0220696
0.851186
0.0267559
4.28352
6.53378
0.0240726
5.12482
2.37618
0.0549126
0.153731
0.0749093
0.392252
4.56755
0.0672194
1.50512
4.8138
0.0691818
0.0255209
5.19982
0.0555968
0.0216765
0.0234316
13.0726
0.0396443
0.0219122
0.0553922
0.116462
0.0403256
5.06037
0.0239771
6.71383
0.0410471
0.274662
0.145956
0.34322
0.0301137
0.0217886
0.0226748
4.83442
0.0220046
0.024268
0.0218191
0.0234406
0.0218926
0.0362214
0.160154
1.859
0.0455014
0.0597774
3.72203
0.410712
0.0218839
1.36008
4.27524
0.0217357
0.0219208
0.0323253
7.4509
0.0222551
0.0788322
0.72909
0.0506646
0.022073
0.0231272
0.0218287
0.128422
0.0410441
0.0219937
32.0268
4.35545
0.0447508
1.43029
0.0700124
8.2415
0.0234229
0.0258565
3.87963
1.8097
0.0962291
1.84124
0.0292922
0.0222769
0.0219566
0.0222326
0.0220385
0.0226745
0.0557098
0.0219537
0.136076
0.0219484
0.0295091
0.0217471
0.0891551
0.132598
1.08525
0.022013
0.339498
0.0219556
3.87113
0.0220444
0.0257109
0.0221281
0.268886
5.41034
0.148349
0.0219478
0.149665
0.0220533
0.0310037
4.9178
0.0219542
0.0223901
0.0487476
0.033193
5.07117
0.0219549
0.0303476
0.0230613
0.0220489
0.0325541
0.0225511
0.0217545
0.0237919
7.3065
0.0247991
0.305116
5.9681
0.0572413
4.16709
0.0245123
0.0217605
0.0316344
9.59913
0.0233076
0.0377639
0.0452562
8.11229
0.0219103
5.81012
0.0698784
0.0797131
0.0217258
0.0216329
0.166641
0.0224576
0.0222863
0.0340521
0.0216761
0.0245484
0.0296441
0.0773175
0.275178
4.86293
0.0251386
0.0823025
0.301226
8.10291
0.0395088
0.292616
7.22862
0.0426834
12.8951
0.0237737
22.6025
5.85071
0.0216531
0.022262
0.0219628
0.0225861
0.048113
0.0217462
0.0240457
0.0951595
0.0234527
0.0363431
5.03065
0.0305205
0.0243587
6.33956
0.0226453
6.20011
0.024408
0.0565688
0.0218997
7.79787
6.82768
0.0220527
0.0227154
4.05909
0.0298044
7.21861
0.0220253
0.0218115
5.24105
0.0227329
0.0453881
8.21461
0.0220705
0.0604528
0.0303462
0.0216285
0.0219098
4.32944
6.31798
0.022258
0.0236452
0.0220741
0.0272264
0.0365485
6.85802
0.0227325
2.5592
2.57972
0.280897
2.55883
0.0226797
0.128037
0.213425
0.0294113
0.0220675
0.0653271
4.86362
0.0234878
0.0479799
5.16313
3.67714
0.2856
0.0254165
0.0223063
0.0222469
0.0220715
8.43709
0.0608593
0.0239359
0.0228247
0.0247109
0.0222708
0.0219953
0.0220503
0.0809577
0.0392775
5.65711
0.0483531
4.98473
3.83852
0.0311333
0.05589
0.0218182
0.0291777
9.4117
0.0221765
0.0237748
0.0564331
0.134929
0.0568897
3.89968
0.299104
0.0219003
4.68103
0.0215946
0.0222968
0.0477775
0.0222742
0.0219156
0.191751
7.08108
0.0218218
4.00285
0.0221588
0.0217381
0.0236789
2.65826
0.0302711
0.0243649
12.2287
0.0230666
0.292021
4.01323
0.0222463
0.0497998
0.0220139
6.52143
0.0803831
0.0220519
4.40175
0.0598
0.0821776
0.0222791
7.47034
0.0296015
0.372536
0.0228772
0.0758703
7.90973
0.0217628
1.51883
0.0221306
0.0693061
0.0535582
0.0222454
4.76399
0.023777
0.132226
0.0640303
0.0982039
0.0419675
0.0452509
0.022654
5.11613
0.0325022
7.49294
0.0304431
0.0701683
0.0219994
0.0467068
0.022061
0.0733721
4.6396
0.0228551
0.021843
3.36226
0.0229156
0.580636
0.0225528
4.19686
0.280716
0.0366882
0.022001
0.0219507
0.0221138
0.0216306
0.119047
0.0591882
0.0390493
0.0263293
0.0220855
2.44141
0.0237318
0.0353268
0.25119
0.0220466
11.5133
0.0563007
0.0301917
1.27492
5.06795
0.423953
4.24906
10.1825
0.0219042
0.434979
5.50049
0.358936
0.022175
0.022246
0.126008
4.4135
6.01479
0.818181
0.0222427
0.0529712
0.0434436
4.02524
5.03987
0.0453217
0.143016
0.0241608
0.0899512
0.0956626
0.0221669
0.121366
8.22887
0.0221338
1.55094
0.0222538
0.0219801
5.31041
4.85707
0.0218569
0.022314
0.0225569
0.0218214
0.0513566
0.198456
0.0231019
0.0219965
0.0221013
0.0425049
0.0287713
0.0284421
0.422021
0.022037
4.95529
8.15925
5.36599
0.167278
0.0573246
0.419957
0.0354924
4.37437
0.426543
11.2305
0.0224943
6.83275
3.98839
0.0217748
0.0220439
0.118425
4.85817
9.89644
0.0217641
0.0220558
4.36774
7.68748
9.50879
0.0242831
0.0240783
1.79325
0.0222282
4.62481
6.64472
0.301445
4.53174
0.0220805
0.0219386
0.0218929
0.0263859
4.78037
0.0429539
0.0257565
0.0226905
0.0955715
7.98313
0.0424471
6.3032
5.6521
5.69523
2.14804
0.022058
0.0221737
4.11991
0.0216654
0.0216753
0.0231826
2.97885
0.0402441
8.43238
0.154816
0.0220358
6.22551
0.0420077
0.0218968
6.50033
0.180837
0.025287
0.0220979
5.05498
4.95664
0.0221823
7.6569
2.63879
5.95261
4.16144
0.0919539
0.0219473
0.0226477
2.48289
0.0261144
4.15336
0.044573
5.5241
0.320964
0.0229651
0.0295373
0.0219475
0.0227647
4.9176
7.48541
0.0220719
5.17401
0.0461364
0.0220634
0.0250697
0.0219463
0.187757
0.0225347
2.3612
0.0540816
0.0219387
0.0218799
0.0949905
9.03409
0.0422387
0.0242732
0.0459073
0.0220551
0.0232827
0.0280201
9.87771
4.61191
4.89883
0.021726
0.0218732
0.0224214
0.129495
0.0218867
0.0224729
0.192186
0.0650706
0.316411
0.0216403
5.00199
4.56842
0.0222842
9.77084
0.130179
0.0391264
2.05199
0.022363
5.04669
0.029981
0.0231661
0.0240507
0.0216615
0.274086
0.0226007
0.0227397
0.031092
3.94113
4.20965
0.0222469
0.0220261
0.0237473
0.0220254
0.156386
0.0224701
0.0963923
0.0236937
4.89682
0.0226725
5.19416
0.0217279
6.21606
0.0224801
0.0216446
6.49519
0.346128
0.118062
0.293099
0.0453722
0.0441571
0.0220513
5.91635
0.0220681
0.0218933
0.0892631
0.0680794
9.05198
4.88465
0.142882
7.20396
0.152143
1.53651
0.0219067
0.0253501
0.0286899
4.95464
0.025025
4.93146
5.0417
0.0221847
0.0220813
0.0220388
2.0758
3.37048
0.0235067
0.0221145
0.0261952
0.0291363
0.0411
0.428587
0.37777
0.0220671
0.591842
0.0968575
9.68865
0.0818865
0.0234688
0.0241771
6.08952
0.0218898
0.102538
4.81212
0.0228167
0.0259162
0.197871
0.13577
0.0228431
7.36063
0.0247315
0.339323
0.0420091
0.0309656
0.0227834
4.892
0.0218686
0.105821
1.51699
5.03754
0.0547091
0.0739873
0.0259186
0.0497689
0.0222664
5.17439
0.0272191
0.021997
0.031247
0.0220948
0.0222693
3.00659
0.0220745
0.0221795
0.0220737
0.146258
0.0222798
0.0343536
0.0809308
0.283113
0.136578
0.0222542
0.274258
0.517002
0.269076
0.0969012
0.0275941
0.181704
4.59287
0.838914
0.0222845
7.92245
4.20585
0.0222839
0.0244504
0.021651
0.743528
0.121634
0.0220495
1.33393
4.91024
0.0218196
0.0222442
4.00238
4.74955
0.0697873
0.021665
11.6119
3.7883
3.22176
0.0220364
5.00031
0.0878572
0.0747763
4.82642
0.0268139
0.0216632
0.0315137
0.226493
0.0337715
4.26206
5.08692
0.0218371
6.72926
0.598252
5.00709
0.0217258
0.0509605
0.0223262
0.0219452
5.23718
2.16692
0.32074
1.50872
0.0299242
0.0558114
0.0223127
5.05579
6.59033
0.0220546
0.0223244
0.0321924
0.0218012
0.056068
5.42467
7.68319
0.0565279
0.0225592
0.0221425
5.19779
0.0252848
0.058608
0.0218147
0.0231208
0.941494
2.60031
0.330083
2.94744
0.0221722
0.346038
0.0224263
0.0498332
9.68876
7.41627
0.0220793
0.022294
0.0371338
0.025972
0.0222186
5.52134
4.93434
0.0217953
0.0215151
0.0221927
0.021976
2.7304
0.0217362
4.05307
0.119189
0.0676512
0.0218802
0.0507404
5.19105
0.0357287
0.517455
5.59911
0.0222906
8.19733
0.0335694
0.0359219
0.413046
8.2519
5.10916
0.0644423
0.0219142
0.296197
0.0217483
0.0254946
0.0222366
3.93122
0.032416
4.7074
0.29279
0.0534537
0.0221274
0.362232
0.0276121
0.0222705
0.275755
0.0216026
0.0391001
0.0365216
0.0222006
9.79457
0.0235745
0.573677
0.0229282
0.0219483
5.46075
4.56112
0.0242889
0.0327966
0.0415784
0.062722
0.063836
0.0266077
0.0263765
0.025667
0.275769
0.0252752
3.91406
0.0632844
0.300849
0.123662
0.0227092
5.6524
0.0216135
4.88584
0.0243899
4.8401
8.3193
10.1023
8.08805
0.355646
0.0825287
0.0220195
5.33186
0.0920682
0.0220512
8.91471
5.84376
0.023399
0.0239016
0.0323286
0.0323444
0.0340983
6.01472
0.022284
0.0303705
0.0369501
0.0330547
0.0221662
0.0931868
0.0216137
4.00924
0.0238095
0.157327
0.0337496
0.043125
0.142712
2.2907
0.0986414
0.0218523
0.282667
5.16054
20.8679
0.0224183
3.78552
0.0301525
1.85533
0.0220682
0.0248388
4.82978
0.0552112
5.48519
8.42767
0.0339244
5.78927
0.022003
0.0216018
10.1003
0.060041
0.0247376
6.11605
0.0277709
0.0475394
0.0299646
0.0795321
0.0222243
5.79244
5.30273
7.42699
0.333418
0.0260672
0.0618694
5.50814
0.0242942
0.0223534
0.0919479
0.021703
0.327788
7.16473
7.24123
6.09944
0.0610503
0.0224889
5.1143
0.0216004
0.0829414
0.0222369
22.2604
0.0240636
0.0496814
4.45189
0.138749
0.0220315
0.0329386
7.58624
0.0220896
0.164407
0.021807
9.69855
4.91418
0.12859
0.0797198
0.021959
0.249849
0.149712
0.0428383
0.0218126
0.0225075
0.0221476
0.0599068
0.0221271
0.0941852
0.0221438
0.0218154
6.66105
0.0218894
0.0276431
0.0253608
0.0222754
4.46608
0.0218843
0.0350871
5.00529
0.0515724
3.74638
0.0220771
4.93979
0.0543537
6.06024
0.0238104
0.139349
0.0221634
0.0447005
0.134471
0.122421
0.318215
4.91684
0.261137
2.48047
0.0271783
0.122935
0.0435532
1.49006
0.0253136
0.0221085
0.0220452
0.0565451
0.0488086
1.78395
0.0595141
4.57591
7.0625
0.102846
0.0220326
3.69393
0.219207
0.0225262
0.0242574
0.0220942
4.57885
0.0220458
9.36122
0.0218755
0.0277393
5.62918
0.0854152
0.0220527
0.0220383
8.9008
0.0218958
0.0243014
0.0257177
0.0336395
0.0286666
0.0222127
0.161251
0.08247
0.0453558
0.412363
4.77684
4.42566
7.04186
0.0217431
0.0220042
0.111078
0.0225054
0.0485874
3.78982
4.56157
0.021661
0.0220518
3.99199
0.332162
0.0216783
0.021855
0.0268523
11.9378
4.47685
0.0273314
0.0354741
0.0222028
0.420234
0.13641
0.147878
0.0321595
0.0460017
0.0224574
0.0409584
0.354429
0.0228371
0.0221985
0.0270858
4.96312
0.0255209
8.1273
0.0221119
4.74452
0.0379207
0.0283624
0.0217866
0.0219378
1.02523
8.07512
0.0587048
4.61549
8.90203
0.0225953
4.89376
0.150011
0.0219286
3.25609
0.306269
0.129293
0.0222546
4.1532
4.91861
0.0219669
0.0411985
4.84215
0.0477434
0.0220801
0.0218077
0.0224827
0.0241393
0.0939177
0.345782
0.0788868
0.088549
0.0217357
0.0222339
4.35466
0.0218635
0.0517966
0.0268653
0.0220969
0.0558495
0.022035
0.0239311
0.382156
0.0220071
5.12923
0.0220315
19.923
4.53384
0.10884
0.0222991
0.0222928
5.02232
0.0216494
0.02455
0.0223776
0.411791
2.05995
0.036121
4.55987
0.0433621
0.472003
0.0225981
0.0776986
0.0218001
0.022144
5.39714
4.59049
2.32301
0.024071
0.0783647
0.0780375
4.84838
5.02457
0.363756
0.0419518
0.0215952
4.90492
0.0219344
0.0220031
0.33631
0.124303
0.0287524
0.21605
0.0494727
0.0325513
0.028677
5.99275
0.0247496
0.0220018
7.38194
0.0493456
0.0217247
4.00241
0.0220375
0.0221168
0.187131
0.177606
11.0634
0.0217427
0.0250646
0.0219319
2.25079
0.0218885
0.548095
2.09838
4.39886
3.92031
34.7054
0.0307259
5.1789
0.876245
0.0222124
0.0313042
0.0451406
0.0308601
1.22589
4.91187
4.80807
4.30496
2.46741
0.0221875
0.118997
0.0220442
5.11463
0.0298559
0.0232219
0.0244537
0.0228248
0.0219015
0.120921
4.8297
0.0217299
0.0239232
0.0218717
5.32167
0.0237476
6.04374
3.76013
2.25
0.0220991
0.0219084
5.07745
0.38236
0.0221431
0.355989
0.0222302
0.166016
0.20271
0.110026
0.0565919
11.1732
0.0218139
0.0217991
0.241358
3.85567
0.0307353
0.0497744
0.0219554
9.63028
0.022025
0.0219619
0.0233578
0.0220134
4.98357
4.79697
0.508049
0.0638204
5.00976
0.6879
0.0216665
0.0326902
0.0217064
1.28281
0.0220144
0.0251616
0.022013
0.0219326
0.0217908
3.02196
0.0228301
1.72612
0.0215881
0.0328546
0.023116
1.5415
0.0220553
0.0333668
0.0370076
0.0764633
6.64743
0.0219293
4.88299
0.076968
0.0477879
0.0220059
0.0219633
4.09568
17.4506
0.02203
0.0219106
0.317016
0.280405
0.0390759
4.98378
0.0228542
0.309653
0.0328696
0.0217146
5.41723
0.0229835
4.53849
0.0220409
0.0228214
0.0221253
4.94992
4.35615
0.0216823
0.255924
0.246032
0.0220631
0.02189
0.0219237
0.27555
4.97313
0.0717603
0.0243413
0.0425407
0.0220397
0.0220701
0.0239725
0.0220121
0.208363
0.0220806
0.0688739
0.801606
0.0383028
0.0216229
3.4648
0.0839572
0.0220481
0.0912924
0.0321767
0.415204
0.0246984
9.84464
0.0633099
0.0220224
0.1001
0.0998421
0.0250971
6.39903
0.0647834
0.0302637
0.473722
0.0219643
0.176489
0.092607
0.146518
0.0219522
0.021996
0.0216457
0.0331114
0.0607132
0.0596201
6.65788
5.01534
3.84499
0.0222676
1.88319
4.57705
5.2858
0.0220146
0.0220582
0.0597325
4.74898
0.0244214
0.0376067
34.0044
5.74945
19.5385
0.11522
0.194179
3.97053
0.561444
0.0216129
14.7308
0.309087
0.0224036
0.0223944
0.0229536
5
0.112658
5.40664
0.0243161
10.338
0.0221869
1.05604
4.40122
0.0222492
0.0363383
4.95657
4.39672
0.0615117
0.0230142
0.0239252
0.0224268
0.261815
0.131416
5.27498
5.15487
0.0217619
5.6256
0.199125
0.277888
0.0220329
0.0221665
0.250991
0.2729
0.0219795
0.0551025
0.074759
0.0399649
3.91048
5.14228
5.12841
5.05333
0.0258963
0.0216685
0.0674916
5.05259
10.327
0.0219676
0.308299
0.0969911
0.433841
0.0224382
0.0222575
1.25858
2.94813
8.29845
1.702
4.59403
0.0219714
0.265897
5.01115
0.0222726
0.0635427
0.124583
0.021692
0.186278
5.81282
0.257654
0.0222565
5.59733
0.135699
26.6091
0.0215071
0.0237849
0.0222162
0.023113
0.0221772
0.0585633
0.0420246
0.0439268
0.322147
0.035966
4.95655
0.0255777
0.0293115
0.0290901
10.3085
0.0586709
5.55384
0.0289779
0.0282398
20.5404
0.0978207
0.0220875
0.0441252
3.228
5.56325
0.355726
0.0220008
0.0219304
0.0219636
0.575196
0.0233339
2.48588
1.3391
0.272832
0.0332625
0.319164
6.26031
0.0221757
7.52447
0.0346576
0.0521782
0.0219754
0.0219335
0.0594761
5.01646
0.0220823
5.41699
0.634576
0.10127
0.22683
0.0218983
0.022031
0.0314539
0.0229329
24.4134
23.1659
0.090783
1.02562
0.0219876
0.0221423
0.0222369
0.0222462
7.34941
0.0233666
5.09932
0.089151
0.0224658
0.388241
4.81764
4.10376
9.62023
0.0237572
0.0217797
0.0221344
0.0234788
0.695918
0.266621
6.48612
0.0221585
0.0224517
0.175859
0.0222602
0.283275
0.0238298
0.162322
0.185668
0.0431597
0.041579
0.021738
0.0520148
0.0398068
0.236559
0.0815887
0.0442643
0.0218778
0.284112
0.021907
5.3124
4.4196
0.966337
0.0220956
0.113928
0.0220428
0.0545364
0.0231468
0.0227149
0.0285625
10.0875
4.54392
0.081102
0.0500845
0.263731
0.0863784
4.09844
4.99718
0.0318206
4.9113
0.427434
0.0218736
0.05718
5.16535
0.0974515
0.0222379
0.0597468
2.21159
0.435314
9.54009
0.0221956
0.339968
0.022099
0.0219491
0.0448346
0.309476
0.0222641
4.68242
5.25159
0.289774
10.886
0.388371
5.10556
0.396589
0.0217359
0.0252712
0.0216525
0.0437565
0.339757
0.489178
0.0246342
0.043647
0.0216353
4.88067
0.0418723
0.0522492
4.72212
0.101368
6.183
5.25148
0.0219909
7.31154
0.0221189
0.0287489
0.0489193
4.69587
0.167322
0.0282164
0.0232029
0.607748
0.0362677
4.71167
5.37852
0.0322001
3.76099
0.0483097
0.0222732
1.12068
0.0698001
0.0230947
10.0362
13.8649
0.0314765
0.0262932
0.14037
6.26391
0.0219749
0.0222867
0.0216775
0.0217713
0.0223763
4.8593
0.0323674
4.76327
0.0219621
0.0219623
0.8614
0.0222408
0.023977
0.0220644
0.0220422
0.67527
0.021774
4.97939
0.0220179
0.0232206
0.0434381
0.0222006
0.145065
0.0217877
0.0222654
0.021807
0.0287896
0.0928065
0.0247699
4.47865
0.0219594
0.0451517
0.031274
4.9556
0.0228296
0.0222694
0.0216957
0.0216951
0.433544
0.021925
0.0219247
0.0250226
3.51128
0.0219415
0.0443676
0.0335636
0.0220416
4.69781
6.21672
0.302974
4.75906
0.025169
0.120701
0.022175
0.100689
0.385957
0.022349
0.677839
0.13788
4.10797
0.0315037
0.0220409
1.59933
0.0457357
1.00867
5.8104
0.021575
0.0220009
7.98109
3.7619
0.0651205
0.0599914
0.0232216
9.55566
5.70109
0.0215112
0.0219762
0.0221543
0.0221762
0.0222495
0.0220459
0.0360387
5.23635
0.0318854
0.0222213
0.423873
0.021997
1.02801
0.0482333
0.0220668
0.0285763
0.0219308
0.439411
0.0251799
0.0497503
0.0219788
0.0223368
5.12472
5.52335
0.0221779
0.05634
0.0455068
0.0318632
0.0240753
0.0222714
0.0227844
2.15183
0.69233
0.0422343
4.43588
0.0225343
23.3908
0.121227
0.0265444
20.0909
0.0231705
5.29974
5.43002
4.02722
5.73626
4.92914
4.55242
0.0216433
0.0281953
0.0248832
0.0216403
0.0217469
0.0305712
0.0773777
0.0217945
0.029893
0.135993
0.0812925
0.314998
0.263756
0.0352756
2.37225
9.80859
0.0343996
0.0250888
0.137633
7.96277
4.78015
0.0258445
0.0216235
0.0218901
0.0217967
0.0338215
4.57009
0.444339
0.0217446
5.33391
0.0219888
0.146636
4.17241
0.0820956
0.228204
0.0897806
0.33131
0.0229098
0.0337324
0.0218795
0.261386
0.0219844
0.0231648
0.0354997
0.163364
0.0221794
0.0246072
6.35487
0.0218293
0.0220902
0.0294716
5.41073
0.135608
0.315492
0.039039
0.0221509
3.79951
0.0379318
0.0235281
0.0220325
0.0316032
0.0273732
0.0220423
0.0283639
5.17903
0.0237896
0.0216585
0.0483695
0.0218964
0.0323065
0.0305575
0.0220733
0.0220057
4.82161
0.0217265
0.0220411
0.0216632
0.0260935
0.0214772
5.54592
0.0265546
0.256607
0.0219658
0.02193
0.0220634
4.94892
0.0694699
0.0220504
0.0216079
5.67485
0.0252915
0.0760438
0.021871
0.176642
0.0235613
0.0215592
6.34337
0.0217628
0.0222961
0.0221503
0.0220122
0.0243178
0.0221283
0.0220413
1.6834
1.43279
4.80931
0.277241
7.7922
0.0218797
5.06835
0.0219728
4.32632
7.3391
0.0218072
9.84885
0.0219846
4.56312
11.4048
0.26566
4.90034
4.7396
1.01517
0.262763
5.74836
5.339
0.045691
0.0452591
5.32669
0.0236307
0.0216692
1.412
0.0241869
0.028659
12.1066
0.0231107
0.278479
4.45448
6.73132
0.428477
0.132571
0.0222523
0.0287013
0.0492196
0.0223463
7.15377
0.426796
0.111531
0.0219307
0.0220712
7.354
0.0217043
0.950124
0.0218721
8.73982
4.77874
0.0345036
0.0266446
0.0220209
10.0281
3.8137
0.0257719
0.035036
0.022286
0.0222856
0.0635868
0.0232779
0.0324389
0.0712745
0.0245162
0.0347923
0.0220478
0.0327364
13.9093
0.0225742
10.795
0.0219922
0.708201
0.0551594
0.0220464
10.6986
0.137662
0.0218677
0.164738
0.022046
0.323414
0.0222258
0.0220203
3.97264
0.0221497
0.123497
0.0236145
0.152346
0.0218704
0.0223779
0.021871
0.0305915
0.0244523
0.022335
0.0226686
0.0255548
0.0225045
0.133938
0.0685694
0.0302222
0.0234535
0.0216279
2.33693
10.7348
0.0228499
0.0225874
0.0227143
0.0392894
0.0222754
0.036611
0.0215711
0.0222853
0.290565
0.0234458
0.0222847
0.0219176
5.3468
9.96604
0.0216005
0.0772414
0.0591379
0.286301
0.263514
6.96821
4.8255
0.835648
0.0230772
0.150636
0.0219337
0.0317398
6.60621
5.00787
0.144773
0.024089
14.0054
0.0220483
0.0496646
0.439886
0.0222611
0.146501
0.0236643
0.0234346
0.0836318
0.155823
3.53969
3.87265
0.0218608
0.0216009
5.18602
4.50343
0.0222739
0.0296296
0.131805
0.0220681
0.0220208
0.0243967
0.248825
0.0217859
5.03109
0.0299965
0.0222912
0.269405
0.0793316
0.073308
0.133703
5.58379
0.0246067
0.0373834
0.027686
0.0239266
9.04177
0.0335832
3.55819
4.96956
0.0716404
4.55087
0.0492469
0.0504544
0.402661
0.0217369
4.89294
0.103335
0.0346623
0.0295616
0.0221807
0.0216699
4.07946
0.0455871
4.29918
3.46181
0.0221189
4.99876
0.0218468
0.0219738
0.0291606
10.9459
0.0820944
0.0216774
3.5332
0.0220098
0.0240078
4.58461
0.0239189
3.96461
0.0222733
4.8435
4.179
0.070689
4.29626
0.0235112
4.05872
0.0216216
5.84265
5.21522
4.77918
5.12763
0.0219507
0.0218443
0.287656
4.48128
4.14243
4.23343
4.27707
0.022191
5.07931
4.02116
0.0224623
6.97175
0.0318828
0.0344001
12.1845
0.03955
4.68896
0.0219785
0.0391239
0.037261
0.246068
5.90654
0.0381347
4.14371
4.34968
0.022174
0.0248355
0.024006
0.0252815
4.16507
0.0220227
0.0217731
0.0406658
4.59289
4.75703
0.0293351
4.28836
4.81009
0.0219805
8.06976
5.44861
0.194432
4.41774
0.0738026
0.0246312
0.0221755
0.182483
0.0271539
0.092034
9.63147
4.95051
0.0296209
0.0809557
0.0260337
0.0411895
0.0216581
0.0445952
0.024904
0.104217
4.4432
8.5016
3.86195
0.0216649
0.138604
0.0689506
4.93785
0.0233009
4.90077
4.70106
5.14662
0.0221213
0.182743
5.15482
10.6676
6.88755
0.0378211
5.53381
6.95456
0.0694365
0.076143
0.0244369
0.0298853
5.04404
0.0463332
0.0221884
3.87656
0.0220943
0.0223405
0.132731
0.134283
0.0218377
0.0983057
0.0250278
4.37059
11.042
0.0241171
3.44184
0.0220826