/*--------------------------------*- C++ -*----------------------------------*\
| =========                 |                                                 |
| \\      /  F ield         | OpenFOAM: The Open Source CFD Toolbox           |
|  \\    /   O peration     | Version:  v2012                                 |
|   \\  /    A nd           | Website:  www.openfoam.com                      |
|    \\/     M anipulation  |                                                 |
\*---------------------------------------------------------------------------*/
FoamFile
{
    version     2.0;
    format      ascii;
    class       volVectorField;
    location    "350";
    object      ddt0(U);
}
// * * * * * * * * * * * * * * * * * * * * * * * * * * * * * * * * * * * * * //

dimensions      [0 1 -2 0 0 0 0];


internalField   nonuniform List<vector> 
13917
(
(0.0232975 0.0014667 2.55151e-18)
(-0.00148174 -0.00457341 1.12143e-18)
(0.000614772 0.00889824 -8.34165e-20)
(-0.000548855 0.00297516 -2.42686e-18)
(0.000768361 -0.00243999 1.59269e-20)
(-0.000819588 -0.00317727 -4.51683e-19)
(-0.000102878 0.00534769 7.33311e-18)
(-0.0288219 -0.0309572 1.60293e-19)
(0.00122103 0.00481418 7.54992e-18)
(0.00271206 -0.00782279 -1.61961e-17)
(-0.0230692 -0.0268049 8.53623e-19)
(-0.00133606 0.00200774 2.76692e-18)
(0.000167241 2.93877e-05 9.49206e-19)
(-0.0101538 0.0367801 5.11065e-18)
(-0.00517526 0.0014598 -9.40451e-20)
(0.0229363 0.00112663 2.95643e-18)
(0.00166938 1.34414e-05 1.69676e-19)
(-0.0229033 -0.0158971 -5.93271e-19)
(-0.000112333 0.00853549 -8.12338e-18)
(0.0254376 0.000242843 3.81506e-18)
(-0.00850591 0.0056999 4.73831e-20)
(-0.00286814 -0.00101129 9.37094e-19)
(-0.000340131 0.00705252 1.25434e-18)
(-0.00282226 -0.00107933 2.03617e-19)
(-0.00186764 0.0037315 8.73454e-19)
(-0.0103142 0.0049493 8.34788e-19)
(0.0639591 0.00170086 -1.33552e-18)
(0.00145056 -0.00555594 2.2687e-17)
(-0.016997 -0.000124393 2.28068e-19)
(-0.00429664 0.000644258 -1.47554e-20)
(0.00424849 -0.00484247 -6.14324e-18)
(0.000381388 0.00777987 1.95796e-18)
(-0.00136134 0.00289185 -3.82884e-18)
(0.0220905 0.0031014 1.63352e-17)
(0.00156791 -0.00327618 -3.31552e-20)
(-0.0312094 -0.0393859 -5.99007e-19)
(-0.00453625 0.00240315 -1.84422e-18)
(-2.98659e-05 -4.70907e-05 1.95434e-19)
(-7.82063e-05 0.00538937 -1.15285e-17)
(-0.00454706 0.00860203 1.7683e-18)
(0.000533329 2.00897e-05 -8.90516e-21)
(0.00397272 -0.000258505 -5.58132e-20)
(0.000784971 0.00415675 -1.81824e-17)
(-7.67193e-06 0.00836714 -3.73631e-18)
(0.000223055 0.00837012 -5.72554e-18)
(-0.00287708 0.00344841 -2.77194e-19)
(-0.00785244 0.00539202 -1.17001e-19)
(0.0512051 0.0075174 -8.48992e-18)
(0.0193906 -0.0741643 -1.52893e-19)
(0.00145354 -0.00332098 2.46663e-19)
(-0.00138983 0.00193238 -1.40363e-18)
(-0.00214732 0.00667183 -1.36203e-17)
(0.01785 0.000882694 -6.39723e-18)
(-0.00236629 0.00104464 2.78966e-20)
(-0.00238217 0.00129885 1.46659e-18)
(-0.00219071 0.00689167 9.63363e-18)
(-0.00512999 -0.00307548 -6.7836e-18)
(-0.000289945 0.00702898 1.14435e-18)
(0.00381578 -0.000250585 2.56417e-20)
(-0.00233153 0.0030349 2.74941e-18)
(0.0220375 0.00435617 2.7179e-18)
(0.000166469 -0.00306225 -1.11234e-19)
(-0.00120338 6.14606e-05 -7.46779e-21)
(-0.00181656 0.00363558 3.08663e-18)
(0.0233538 0.009693 -2.01891e-17)
(-0.0167572 -0.00657093 -3.18315e-20)
(-0.019542 -0.0038621 9.35924e-19)
(-0.0258705 -0.0426228 -2.70591e-19)
(-0.0271849 -0.0187794 -2.4318e-19)
(0.0201399 0.00149898 1.89694e-18)
(0.000384697 0.0100722 8.17667e-18)
(0.0218088 0.00275343 -9.73532e-19)
(0.00010662 0.00197467 -3.74682e-18)
(0.00375453 -0.000338085 -2.53851e-20)
(-0.00852374 0.00632444 -1.66379e-20)
(-0.00287625 0.00369294 -4.09028e-19)
(-0.00313396 -0.00254539 2.3082e-19)
(0.00361724 -0.000319609 -4.9537e-21)
(-0.00274769 0.00359709 1.42398e-18)
(-0.00136152 0.00296579 -2.52549e-18)
(-0.00358247 0.000433613 -2.40879e-19)
(0.00175056 -5.29257e-06 1.66728e-19)
(-9.28614e-08 0.00190279 3.0268e-18)
(-0.00171714 0.0087363 1.54008e-18)
(-0.000525195 0.000150865 -1.24775e-19)
(-0.0221267 0.0133671 -5.2571e-19)
(0.000908281 0.0077544 5.35957e-18)
(-0.00044133 7.28882e-05 1.87211e-18)
(-0.00487452 0.00838394 -1.30085e-18)
(0.00182695 1.77916e-05 -2.15073e-19)
(0.0020035 4.73684e-05 6.03465e-21)
(0.00116151 0.00424258 1.7764e-17)
(0.0216153 -0.0584582 1.50659e-19)
(0.0020384 -0.00254032 1.07583e-19)
(-0.00326008 0.00133358 -1.09745e-18)
(-0.0194661 -0.000720356 1.84484e-19)
(0.0707364 0.0167115 1.0644e-18)
(0.00137992 -8.14957e-05 -7.52598e-20)
(-0.000475808 8.6293e-05 8.74292e-19)
(0.00273708 0.0204029 -2.18949e-18)
(-8.94956e-05 5.82648e-05 2.44252e-20)
(-0.000182896 8.93053e-05 -4.66883e-20)
(-0.00366568 0.000523511 -4.56885e-19)
(0.00126212 -0.000188265 -5.75291e-20)
(-0.0029856 -0.00232212 1.16916e-20)
(-0.00142422 0.00790632 6.94052e-18)
(0.0315906 0.00422188 -8.29461e-18)
(-0.000401928 -0.00379267 5.23559e-19)
(0.00407823 -0.00014231 -5.06405e-20)
(0.0697661 -0.00439831 1.41021e-18)
(-0.000115833 0.000167708 5.5339e-19)
(0.0226648 0.00338617 -1.86726e-17)
(-0.0167207 0.00205757 5.35381e-19)
(0.0356965 0.00140543 1.01733e-20)
(0.0216894 0.00981267 2.67925e-17)
(-0.00355792 0.00375621 -3.21984e-19)
(-0.000216392 0.00843705 8.33635e-18)
(0.00146904 0.000123503 2.23333e-20)
(0.000548671 0.00890661 -9.1945e-18)
(6.19558e-05 0.00155553 -2.22468e-18)
(0.00186554 -1.27377e-05 -1.21224e-19)
(0.00345133 -0.000522408 6.30325e-20)
(-0.0218933 -0.00434418 -9.78099e-19)
(-0.00111069 0.00790142 -5.78943e-18)
(0.0170755 0.00142663 -9.27826e-19)
(0.00135019 0.0085985 8.64842e-18)
(-0.00159699 0.00353936 -4.15965e-18)
(-0.00908583 0.00677311 1.24873e-19)
(-0.000490202 -0.00250848 -1.14239e-19)
(-0.000997553 0.00797452 1.08576e-17)
(0.00101123 0.00626058 5.5266e-18)
(0.00380047 0.00510932 -1.58486e-19)
(0.0160987 0.00594726 1.39219e-17)
(-0.00366281 0.00366932 -2.58089e-18)
(0.000615677 0.00799965 -4.89655e-18)
(0.075771 -0.00628663 6.35126e-18)
(0.0171724 -0.00854972 2.91606e-18)
(0.0140356 0.00155911 -5.73605e-19)
(-0.0117672 0.0044656 -8.67713e-19)
(0.000296072 -2.75153e-05 7.78452e-20)
(0.0439702 -0.0820678 -1.7775e-20)
(0.00352503 -0.000388331 2.84184e-20)
(-0.000695153 0.00788164 -1.05025e-17)
(-0.0016339 -0.000552265 3.07737e-19)
(-0.000116917 0.00179644 2.33748e-18)
(0.00417781 0.000572485 -1.69605e-20)
(0.000279018 0.00977994 -6.98535e-18)
(0.0366849 0.000184418 -1.23893e-19)
(0.0453464 0.00255687 -1.61855e-17)
(-0.00243682 0.00113432 1.2414e-19)
(-0.00495136 0.00767296 4.72927e-19)
(-0.000487055 0.000101488 1.17221e-19)
(-8.7133e-05 0.00171749 -2.86459e-18)
(0.000142449 0.00155042 8.54876e-19)
(0.0894397 0.00914352 -2.37649e-18)
(-0.00310982 -0.00178737 2.70904e-20)
(0.00131576 -0.000221401 -1.1351e-19)
(0.0157416 0.005612 -7.25991e-18)
(0.00101378 5.32312e-05 -7.25598e-22)
(0.00135558 8.95713e-05 -2.32393e-20)
(-0.00103852 7.31597e-05 1.95961e-18)
(0.0318234 0.0131186 -2.52556e-18)
(-0.00562752 0.00136817 2.43609e-19)
(0.044304 -0.0778725 -4.42617e-19)
(0.0255323 0.0211704 2.02332e-18)
(0.00729812 0.0225155 1.66918e-18)
(0.0118694 -6.62685e-05 1.25527e-17)
(0.0561887 0.0290244 -1.38295e-17)
(-0.00192712 0.000279355 1.73252e-20)
(-0.0128328 0.00474602 -7.33961e-19)
(-0.00291071 -0.00125626 1.07816e-18)
(0.0185838 0.00587075 1.00157e-19)
(0.00129302 0.00474689 -3.75974e-18)
(0.0168819 -0.000531297 -9.74207e-18)
(-0.000964516 0.00720778 2.23216e-18)
(0.00036857 9.63848e-05 -1.05478e-19)
(-0.000439384 0.00297323 2.29416e-18)
(-0.00252065 0.00619627 -3.55572e-18)
(0.000989439 0.00617307 -2.27653e-18)
(-0.00585349 0.00122798 3.32211e-19)
(0.000744161 0.00414356 -2.57772e-18)
(-0.00281479 -0.00121833 -3.70162e-19)
(-0.00148017 0.00190153 2.06829e-18)
(-0.00423261 0.00824914 -1.68349e-18)
(0.000498422 0.00900359 3.09909e-18)
(0.00419735 0.00528635 1.02291e-18)
(-0.00143561 0.00182842 -1.5405e-18)
(-0.00447655 0.00791476 1.12682e-17)
(-0.00440246 0.000929924 -8.4452e-21)
(-0.0386576 0.0129626 4.45989e-19)
(-0.000884608 0.007243 4.45225e-18)
(6.58989e-05 0.0082815 -3.79562e-18)
(-0.00252226 0.00812396 4.40244e-19)
(0.0245273 0.00159763 8.80521e-18)
(0.00191324 -0.00258602 -6.19709e-20)
(0.017602 0.00149759 -3.57356e-18)
(-0.00209785 0.00512672 5.01544e-18)
(0.0157704 0.00642854 -1.35813e-19)
(0.0016079 -0.00313728 -5.19818e-21)
(-0.00300869 -0.00177181 -3.44488e-20)
(-0.00682044 0.00497223 -3.00777e-19)
(0.0208043 0.00151043 -5.80794e-18)
(0.0142867 0.00137439 8.83342e-19)
(-0.00436183 0.00172685 -4.91961e-19)
(0.0472565 0.00250922 -3.00119e-18)
(-0.0097787 -0.00125887 3.184e-20)
(-0.00470692 0.00790805 -1.65381e-19)
(0.0035484 -0.000473633 1.55628e-19)
(-0.00251997 0.00653033 -2.77687e-18)
(-0.0036351 0.000308743 3.36619e-19)
(0.000147457 -0.00166578 -2.71749e-19)
(0.00667999 -2.41213e-05 1.93727e-19)
(0.0112828 -0.000682803 -6.77538e-20)
(0.0508393 0.0080225 -7.43361e-18)
(0.000345829 0.00794785 -2.25353e-18)
(-0.011105 0.00532187 4.76938e-19)
(0.0307893 0.00867822 4.93099e-18)
(-0.000296316 -6.37105e-05 7.5394e-19)
(0.00247369 0.000192786 7.91772e-21)
(0.00246754 0.000236479 -2.63064e-20)
(0.0611706 0.0298728 2.04663e-17)
(-0.00304306 0.00807268 8.78168e-18)
(-0.00497145 0.00752238 7.67029e-18)
(-0.00020545 0.000402869 2.45708e-18)
(-0.00102831 4.90171e-05 4.9641e-21)
(0.0740608 -0.0112532 -3.02242e-18)
(0.0179202 0.00132976 -8.30543e-18)
(0.00239854 0.000150305 -3.50301e-20)
(0.0023458 0.000150847 4.03061e-21)
(0.00053829 6.55564e-06 6.20396e-21)
(0.00252043 0.00026741 3.59334e-20)
(0.00251404 0.000313123 -3.23896e-20)
(0.0218846 0.00251354 -4.83749e-19)
(0.0451213 0.0140706 1.60812e-17)
(-0.00316952 -0.00034925 -7.84305e-19)
(-0.00222881 0.000510863 -4.53447e-21)
(-0.00112286 0.00724989 -6.91452e-18)
(0.0202058 0.00233602 -1.24473e-17)
(0.00139412 4.7484e-05 5.23715e-21)
(-0.000176316 0.000368057 -2.62028e-18)
(0.0550768 8.31037e-05 3.20023e-19)
(-0.00120552 0.00786173 -1.73373e-18)
(-0.00325532 0.00818234 -1.1863e-19)
(0.030248 0.00802046 -2.21729e-17)
(-0.000861676 0.00643614 9.87938e-19)
(-0.00166915 -0.000499281 -3.90424e-19)
(0.0407911 0.0264642 2.81918e-18)
(-0.00117922 0.00728307 4.26514e-18)
(-0.0150496 0.00208246 1.55511e-18)
(1.4451e-05 0.00788217 5.22364e-18)
(-0.00417596 0.00175184 7.42936e-19)
(0.0471113 0.01147 -5.57919e-18)
(6.62801e-05 0.00165837 1.97312e-18)
(-0.00198906 0.00771581 -3.84278e-19)
(-0.000951201 0.0072952 3.4223e-18)
(-0.00327471 -0.000522673 5.07825e-19)
(0.00037829 6.1542e-06 1.57223e-21)
(-0.00164961 0.00363413 3.4534e-18)
(-0.00281478 0.00118107 -3.21376e-20)
(0.00269677 -0.00300043 3.16923e-20)
(0.0170017 0.00200548 1.07003e-17)
(0.0148295 -0.100646 3.7088e-18)
(0.00350747 -0.000957932 -5.78921e-20)
(0.00232618 0.00010693 2.32553e-20)
(-0.00315141 -0.00173918 -5.28836e-20)
(0.00233571 7.07485e-05 -3.29146e-20)
(0.000101421 0.00164633 7.71163e-19)
(-9.53261e-05 4.59905e-05 -1.38145e-18)
(-0.000889131 0.00669985 -1.52849e-18)
(0.00363145 -0.000938122 -2.68598e-20)
(0.0128728 0.00184926 -5.36685e-18)
(0.0318238 0.00564807 5.61157e-18)
(-0.0013484 0.00130505 4.49357e-18)
(-0.00273917 -0.000854293 -2.01117e-19)
(-0.00462577 0.00183053 1.7834e-18)
(0.00217378 0.00103381 6.17486e-20)
(-0.000444959 0.0189861 4.92874e-19)
(0.0171143 0.00237755 -2.00583e-18)
(0.00220738 0.000969245 -4.52747e-20)
(0.0199517 0.00178072 2.42833e-18)
(0.00270639 -0.00282507 2.40489e-19)
(0.0313337 0.0132936 -7.56995e-18)
(0.000317604 6.92799e-05 1.00266e-19)
(-0.0054691 0.000875123 -1.02155e-20)
(-0.00344885 -0.000556199 -1.10168e-18)
(-0.00154539 -0.000806855 -3.79489e-19)
(-0.00084796 0.00905256 1.47607e-17)
(0.000297956 -9.76374e-05 2.74632e-19)
(0.00556138 0.0232916 -1.96399e-18)
(-0.00300133 0.00590385 -6.75727e-19)
(0.0262 -0.10045 2.27659e-18)
(0.00436282 0.000714674 6.28765e-20)
(0.0204026 0.00677889 1.14994e-18)
(0.0132257 0.00152032 1.49036e-18)
(0.00155004 7.23082e-05 2.05176e-20)
(-0.000590198 0.00720688 -2.61817e-18)
(-0.0010063 0.000276656 -4.52701e-20)
(-0.0039889 0.00369114 4.68525e-19)
(0.000191531 -0.00156174 -3.18144e-21)
(-0.00256128 0.00364869 1.9459e-18)
(0.00229022 -0.00262419 -2.27703e-19)
(0.000391903 -0.000135448 1.79853e-19)
(-0.00212718 0.00577364 2.21203e-18)
(-0.00884771 -0.0295183 1.34376e-19)
(-0.00199068 0.00763001 -3.17069e-18)
(-0.00247833 0.00355667 -5.16518e-19)
(-0.000165633 0.000338686 5.63312e-19)
(0.0155439 0.00586042 -5.11801e-18)
(0.0208333 0.00128453 1.4648e-18)
(1.89263e-05 -0.00247645 -1.43445e-19)
(-0.00192062 0.00968501 2.88333e-19)
(-0.00386012 0.00379305 6.71128e-19)
(0.0277579 0.0151478 -1.75945e-19)
(-0.000586516 0.00826134 1.32469e-17)
(0.0297582 0.00475454 -1.20113e-17)
(0.0165241 0.00106954 4.7778e-19)
(-0.012079 -0.0265147 -3.4787e-20)
(0.0022678 0.00577577 -2.0959e-18)
(-0.00314934 -0.000874201 3.11828e-19)
(-0.00106505 0.00897232 -7.82054e-18)
(0.0212917 0.000964084 1.90102e-20)
(0.00078274 0.00881621 7.88951e-18)
(-2.87703e-05 3.91809e-05 -2.79337e-18)
(-0.00539656 0.00134791 1.40991e-19)
(0.0532847 0.00365431 3.35053e-18)
(-0.00303169 -0.00151044 -2.87491e-19)
(-0.000595801 -0.00607342 -5.22645e-19)
(3.64621e-05 0.00825742 5.37864e-18)
(0.00158622 1.51346e-05 3.29862e-20)
(0.0188201 0.0059631 1.29718e-17)
(-0.000401181 0.000110927 8.09901e-19)
(0.00138318 0.00703235 3.10685e-18)
(0.00203026 0.00252749 -3.27271e-20)
(0.0230763 -0.000639355 -5.37222e-18)
(9.96321e-05 -0.000742372 1.13935e-19)
(-0.00193568 0.0073697 6.06689e-19)
(-0.0105575 -0.00100766 1.27996e-19)
(-0.0104324 -0.0294064 7.63459e-21)
(0.00181832 4.12737e-05 -6.08505e-21)
(0.000102371 0.00790464 6.37175e-18)
(-0.000528734 0.00791346 -3.3886e-18)
(-0.00306806 0.00140956 8.08862e-20)
(-0.00300795 -0.00157435 5.1717e-21)
(0.023068 0.0039061 1.38959e-17)
(-0.00114914 0.00791543 -1.43836e-17)
(0.025212 0.0102931 3.44753e-18)
(-0.0152865 0.0212835 -5.04848e-18)
(0.00218231 0.000891175 -1.58273e-20)
(-0.00311447 -1.22429e-06 3.5589e-19)
(-0.00170576 0.00783157 -8.94832e-18)
(0.00169094 0.00555112 -5.82603e-19)
(0.00222849 0.000828791 1.34617e-19)
(0.000135404 -4.02703e-05 4.12076e-20)
(-0.00189268 0.00156178 8.25985e-20)
(-0.0116127 0.0126491 -2.41107e-18)
(-0.00178847 0.00745665 2.32016e-18)
(-0.00185326 0.00784959 1.41015e-18)
(0.000379471 0.00727291 1.88117e-18)
(-0.00153393 0.0197904 2.89035e-18)
(0.00111804 0.0069555 -4.62404e-18)
(0.023743 0.0026101 9.87172e-18)
(-0.000593194 -0.00258047 2.03411e-19)
(-0.00302445 0.00149813 -2.68938e-19)
(0.00236449 -0.00291813 -2.74684e-20)
(-0.000410599 0.00941465 4.61665e-18)
(0.00135934 2.37241e-05 -1.35612e-20)
(0.0235484 0.00125421 -1.2147e-17)
(0.00143519 0.00693525 1.72941e-18)
(0.00281872 1.09803e-05 3.42418e-20)
(-0.00238881 0.0013149 -3.1576e-19)
(0.00120698 0.00619878 2.10596e-18)
(-0.000468095 0.00930069 3.04382e-21)
(0.0317292 -0.0119951 8.7187e-20)
(0.00366377 -3.30818e-05 6.2544e-20)
(-0.00486421 0.00801377 -7.12123e-19)
(-0.00538337 0.00235778 -1.46856e-18)
(-0.0118422 -0.00149062 -9.29596e-20)
(-0.00140345 0.00134745 4.06837e-18)
(0.000805587 0.0107463 -7.86424e-18)
(0.00208334 0.00309699 -1.68369e-19)
(0.0245985 0.021687 1.9048e-18)
(-0.00266258 0.00827278 -4.93577e-18)
(0.00361742 8.38231e-06 4.68081e-20)
(0.031236 -0.0345093 -2.39835e-19)
(-0.00379341 -0.000866261 2.4736e-19)
(0.0104975 0.0055993 -1.836e-20)
(0.00198672 -0.00143128 -2.02006e-19)
(0.0265247 0.000374707 7.28146e-18)
(0.0110713 0.00527635 4.72782e-20)
(-0.00391587 0.00270958 1.22104e-18)
(0.0668933 -0.0138763 4.18442e-18)
(-0.00431099 0.0185652 2.20162e-18)
(-0.00394781 0.00164031 -3.88492e-19)
(0.0271824 0.0158844 4.26437e-18)
(-0.000244353 0.00827468 -1.39805e-17)
(-0.003406 0.00271835 1.72815e-18)
(-0.00116329 0.00911267 -1.18335e-17)
(-0.0028978 0.000246193 1.56049e-18)
(-0.00511961 0.0204448 -8.58553e-19)
(0.000685901 0.00892354 1.33332e-17)
(-0.00046618 0.000101555 1.34681e-19)
(0.000537919 0.00514799 -1.45991e-17)
(-0.00231493 0.00359595 -1.57667e-18)
(-0.00149209 -0.000663431 -3.0925e-19)
(-0.00053379 -0.000432274 -2.03701e-19)
(-0.000898826 -0.00255277 8.42677e-19)
(0.014394 -0.00736799 -6.1997e-18)
(0.00747791 0.019453 -1.69525e-18)
(-0.002807 0.00142209 1.97154e-20)
(-0.000820411 -0.00285394 4.18635e-20)
(-0.0025293 -0.00100824 7.76517e-19)
(-0.000810288 0.00716593 -6.21163e-18)
(-0.0167032 -0.051596 7.06901e-20)
(0.00205575 0.0017123 -8.32364e-20)
(-0.00186011 0.000270027 -1.36905e-20)
(-8.93792e-05 0.00827986 -1.80907e-17)
(0.00146828 0.00666951 -2.17992e-18)
(-0.00159728 -0.000799581 8.72111e-19)
(-0.00371696 0.00267422 1.48066e-18)
(0.0236623 0.00047931 1.46415e-18)
(0.0800181 0.0284884 -1.41603e-18)
(-0.0128223 -0.0111322 2.21414e-20)
(-6.14306e-05 0.00860743 6.82326e-18)
(0.00195748 0.00879799 -9.30507e-18)
(0.00307347 0.000400457 -2.04935e-20)
(0.00206404 0.00149696 2.3817e-19)
(-0.00802357 0.00396638 6.78834e-20)
(-0.000478104 -0.000407787 -7.02447e-19)
(0.00211686 0.00162624 -2.3153e-19)
(-0.00323306 -0.000385822 3.52866e-20)
(0.00212955 0.00142324 7.44826e-20)
(0.0030262 0.000420503 -6.5625e-21)
(0.0466168 0.025696 -7.27445e-18)
(-0.0029764 0.000329322 -8.13024e-19)
(-0.00373593 0.00876601 -4.36067e-19)
(0.012997 0.00205516 1.02274e-17)
(-0.000630835 0.00716778 3.96694e-18)
(8.15778e-05 -0.00172726 1.87094e-19)
(-0.000105824 0.00166476 4.4526e-18)
(0.0285335 0.0158137 -7.54905e-18)
(-0.00723109 0.00469856 7.59675e-21)
(0.0166686 0.00115282 -1.27593e-17)
(0.00204702 0.0022244 4.10805e-20)
(-0.000472911 0.000750954 2.87885e-18)
(0.00232065 0.00312783 2.19246e-19)
(0.0025809 0.000354931 3.19682e-20)
(-0.00440269 0.00226777 1.62028e-18)
(-0.0038808 -0.00112566 2.78366e-19)
(0.0246857 -0.000601128 -2.82244e-20)
(0.0032195 0.00049586 8.09727e-21)
(-0.00154929 0.00787911 8.38293e-18)
(-0.000494859 0.00073082 -8.7798e-19)
(0.000485281 0.00649335 -1.06914e-17)
(0.00344283 0.000756198 -5.1941e-21)
(-0.00354435 0.000222002 -1.8211e-19)
(-0.00103955 0.00653145 -1.14174e-18)
(0.0248944 0.00920815 5.72967e-18)
(-0.00181264 0.00153361 -7.7135e-19)
(0.0516934 0.0223002 -5.96753e-19)
(-0.00010835 -0.00175255 -4.01274e-19)
(-0.000104454 -0.000164147 1.07524e-18)
(-0.00247307 -0.0010362 -1.14363e-18)
(-0.00383689 -0.000740867 8.95627e-19)
(0.000301534 -0.0015364 1.36553e-19)
(-0.000403645 9.59083e-06 -2.01184e-18)
(0.0159255 0.00566087 -1.48889e-17)
(0.0175905 0.00296649 -2.6022e-19)
(0.000351582 -0.00146782 -3.6679e-19)
(0.0238324 0.00464376 -1.1135e-18)
(0.000338316 0.00831967 8.84447e-18)
(-0.000115581 0.000106155 4.00415e-18)
(-0.000668622 0.00727085 -4.89975e-18)
(2.73066e-05 0.00807353 6.99654e-18)
(0.0296226 0.0173843 6.84395e-18)
(0.000405486 0.00535548 -3.05558e-18)
(-0.0015702 0.00779737 1.2894e-17)
(0.0116201 0.00227463 1.58673e-19)
(0.0106949 0.00230169 -2.34496e-19)
(-0.00394883 -0.000997844 5.39813e-19)
(-0.0168565 -0.0141072 4.07607e-20)
(0.00353992 0.000950171 -4.07676e-21)
(-0.00410048 0.00163164 7.69063e-19)
(0.00280075 0.00999144 5.22425e-18)
(0.00199114 3.80537e-05 7.16844e-21)
(-0.00224011 0.00103593 -1.79789e-18)
(-0.00320058 0.00142806 -4.0623e-20)
(0.000679134 0.00498787 -8.60366e-18)
(-0.0069147 0.00650544 3.28144e-19)
(0.000339725 0.00897292 -4.52071e-18)
(0.000166278 0.00736616 -9.34513e-19)
(0.00490163 0.000285179 2.07931e-19)
(-0.00234391 -0.000420659 -1.02676e-20)
(-0.024962 -0.0100473 9.60028e-19)
(-0.0022427 0.00997736 -8.02641e-19)
(-0.00277148 0.00134582 1.1316e-18)
(-0.0085447 0.0364006 7.39288e-20)
(-0.000387187 0.00661995 1.05034e-17)
(-0.00280712 0.00587237 1.33031e-18)
(0.0201761 0.0188899 -1.27567e-17)
(-0.000395377 0.000137897 -1.87801e-18)
(-0.00187273 0.010157 -9.10623e-19)
(-0.0027164 0.00599864 -2.2294e-18)
(-7.49843e-05 -0.00048671 5.21473e-19)
(0.0149007 0.00448639 6.07378e-18)
(-0.000139375 -0.000154165 -7.30264e-20)
(0.00257037 0.000403171 6.60608e-21)
(-0.00080432 0.00718269 7.30272e-18)
(0.00213338 0.00210727 -4.7584e-20)
(-0.000271842 -7.76964e-05 9.4215e-19)
(-0.00176738 0.00578719 -5.83541e-18)
(0.0137351 0.00551067 7.83844e-18)
(0.0531701 -0.016579 4.91414e-19)
(-0.000953157 8.07511e-05 -6.52556e-19)
(2.58873e-05 0.00319397 -2.76805e-18)
(0.00529967 -0.000368558 -1.54918e-19)
(-0.00253083 0.00772076 3.65633e-18)
(0.0197098 -0.00134807 3.36857e-19)
(-0.00264963 0.00120463 2.00684e-18)
(-0.00236239 0.00121442 -4.86582e-19)
(-0.000872165 5.95561e-05 3.57956e-18)
(-0.00100064 0.00730322 -6.49515e-20)
(-0.0306617 -0.00247051 -8.82155e-20)
(-0.000204512 -0.00284916 1.2116e-19)
(0.00145039 3.83638e-05 9.41831e-21)
(-0.00293128 -0.00182448 -2.4456e-20)
(-0.00138323 -0.000605136 -8.90172e-19)
(0.000964839 -0.00959248 2.52196e-19)
(-0.00139946 0.00586929 -1.68978e-18)
(0.00192502 4.96053e-05 2.87271e-20)
(4.05158e-05 0.00737976 -3.09189e-18)
(-4.02063e-05 -0.000450109 1.85166e-19)
(-0.00264648 -0.000857796 -1.85712e-18)
(-0.00226249 0.00353052 5.0815e-18)
(0.0274519 0.00387059 -2.95629e-18)
(0.00199385 -0.00017993 -7.30057e-20)
(0.000243277 0.00419225 3.2462e-18)
(0.00251673 -0.00304057 5.09288e-19)
(0.000475361 0.00641332 -5.65326e-18)
(-0.000987347 0.00743451 9.7891e-18)
(-0.0177785 0.0111777 3.33009e-18)
(-0.00104715 0.00725817 -2.23964e-18)
(0.00480283 0.0193026 6.68668e-19)
(-0.00247011 0.00320367 -1.66119e-18)
(-0.0211437 -0.00854239 2.90938e-18)
(0.0152684 0.00666866 -7.99346e-18)
(0.0423263 0.0230792 9.15996e-18)
(0.0130419 0.00242908 7.36401e-18)
(0.000470262 -0.00236726 4.47733e-19)
(-0.00235248 -0.00115738 -3.38195e-19)
(0.00495844 0.000467454 -9.38994e-20)
(-0.000866084 0.00114021 -5.60034e-19)
(0.0214449 0.00922004 4.35232e-18)
(0.00224336 0.00112512 -4.49872e-20)
(-0.0110575 0.0266146 7.0288e-19)
(-0.00194628 0.00510684 2.7436e-18)
(0.0145666 0.00734709 2.64293e-18)
(0.00145816 0.019525 3.22153e-18)
(0.00066644 0.00421176 7.96826e-18)
(0.0068638 -0.00992978 -2.4442e-17)
(0.000452968 -0.00149811 -7.54511e-19)
(0.000617972 0.00783044 -3.96255e-18)
(0.00147873 -0.000105572 2.00658e-20)
(0.00435843 -0.00331908 -6.77258e-20)
(0.0168252 0.00711648 -5.85656e-18)
(0.00205659 0.00195319 4.16735e-20)
(0.000602711 0.00844384 -2.21438e-17)
(-0.000752439 5.23809e-05 2.36871e-20)
(-5.79147e-05 7.76579e-05 -6.57866e-18)
(-0.00245368 -0.00113419 2.83037e-19)
(0.000283038 0.00889559 -2.47914e-18)
(0.00197103 -0.00941072 -6.73853e-20)
(0.00223411 -1.40105e-06 4.26395e-20)
(0.000231558 0.00834692 -1.98578e-18)
(-0.00067438 0.00723563 4.34607e-18)
(0.0363492 -0.0282385 1.72783e-19)
(-0.00202924 0.00969046 -1.40727e-18)
(0.0148548 0.00626584 -7.81382e-18)
(0.0287588 0.0187491 -5.16825e-18)
(0.00197992 -0.000174908 6.53138e-20)
(0.0186745 0.00127697 -4.64701e-18)
(-0.0010706 0.000168391 4.42807e-20)
(0.0188394 -0.00490684 -6.71301e-18)
(0.0369944 -0.00589475 8.26323e-21)
(0.00470454 -0.00355449 2.85983e-19)
(0.00177707 0.00904351 5.13516e-19)
(-0.000225232 7.39247e-05 -7.88596e-20)
(-0.000500646 0.00656661 -7.15227e-18)
(0.000962904 0.0040211 3.09002e-18)
(0.00213167 0.00185372 9.36576e-20)
(0.00142138 -0.000108672 -9.86286e-20)
(-8.41401e-05 2.04859e-05 5.94164e-19)
(0.0015925 0.00993821 7.12827e-18)
(-0.00109276 0.000226649 2.32672e-18)
(0.000650841 0.0076609 -8.34887e-18)
(-0.00222144 0.000957909 1.04791e-18)
(0.00220884 2.0153e-05 -8.34303e-20)
(0.00113947 7.53315e-05 2.20878e-20)
(-0.00353499 0.00424743 -3.25013e-18)
(0.023134 0.0127711 -4.82059e-19)
(0.0136874 -0.00766496 2.8571e-18)
(-6.53956e-05 0.00780108 -1.18987e-17)
(-0.00125866 0.00581134 2.54641e-19)
(-0.000135532 0.0109965 -1.37291e-17)
(0.0200003 0.00248433 2.02542e-17)
(0.00206912 -0.00150313 -5.32717e-19)
(0.0204634 0.00975503 -1.03209e-17)
(-7.28342e-05 7.59438e-06 -5.56772e-18)
(-0.000215378 0.00826886 -1.00359e-17)
(-0.000941067 0.00112452 6.41327e-19)
(0.00158389 0.0105036 4.97104e-19)
(-0.00132391 -0.000622033 1.00676e-18)
(-4.52928e-05 -0.0103957 6.01065e-21)
(-0.000166779 0.00185442 -1.413e-18)
(0.0432251 -0.0173003 4.64167e-19)
(-0.000770571 0.00667719 6.07673e-18)
(0.0273029 0.00934587 8.88672e-18)
(0.00199562 1.32352e-05 -9.12651e-20)
(-0.000779337 0.00661978 2.8244e-18)
(0.000724765 -0.00339003 1.41797e-19)
(-0.000172905 5.14073e-05 6.13817e-20)
(0.0243966 0.00292419 -6.83671e-18)
(0.00528501 0.0277555 -2.53464e-18)
(0.00104982 -0.00366895 -2.81635e-20)
(-0.00200754 0.00794615 -4.97018e-19)
(-0.000226788 0.000375901 6.49265e-19)
(0.00447443 -0.0025372 2.75236e-20)
(-0.000419509 6.54917e-05 -1.61094e-19)
(0.0246295 0.00347336 5.35551e-18)
(-0.00104657 0.000256431 -1.29526e-18)
(-0.00173415 0.00140164 7.59417e-21)
(0.00220177 0.00118895 -2.56239e-20)
(0.000964452 -0.00352615 -3.22891e-19)
(-0.000509892 0.00938451 -1.1346e-18)
(-0.000379018 8.47057e-05 1.0405e-20)
(-0.00143493 0.00818578 -7.03529e-18)
(0.00169849 -2.53846e-05 1.52315e-20)
(-2.30885e-05 -0.000674791 3.01081e-19)
(0.0198813 0.00093539 -8.56504e-18)
(0.00116803 0.0077373 6.42405e-18)
(-0.0025573 0.00113121 -7.06209e-19)
(0.0134448 0.000928521 1.33848e-17)
(0.000671075 0.00843032 -1.08572e-17)
(0.0190521 -0.0242807 4.12954e-20)
(-0.00271334 0.00569965 -5.68482e-18)
(0.000522585 -0.00143063 5.49222e-19)
(-0.00503637 0.0018175 1.73936e-19)
(0.0271954 0.00312879 -7.27696e-18)
(0.000500679 0.00827574 -7.31523e-18)
(-0.00746628 0.00387765 -3.07594e-20)
(-0.00445112 0.00254404 9.90945e-20)
(-0.000383064 -0.011174 5.52375e-19)
(0.00178082 -3.75878e-05 3.51537e-20)
(-0.00125922 -0.00213174 -4.74919e-19)
(-0.00781684 -0.0310565 -9.89312e-20)
(-0.000957403 0.00744358 2.95851e-18)
(-0.00258778 0.00463944 -4.17498e-19)
(0.0252087 0.0213084 -1.54928e-19)
(-0.000561773 0.00672449 -5.15848e-18)
(-0.0121416 -0.0586713 -6.46553e-19)
(0.0230908 -0.00206469 -7.80049e-19)
(-0.0137271 -0.0284082 -3.07015e-19)
(-0.00164679 0.00699542 -2.15273e-19)
(-0.0022196 0.00827202 -2.50392e-18)
(0.0201597 0.00197627 3.45369e-18)
(0.00214371 -0.00266742 -6.40348e-19)
(-0.0128922 -0.0134787 -6.71794e-19)
(-0.00312558 -0.0395811 2.35096e-20)
(-7.23322e-05 -0.000640397 -1.69325e-18)
(0.00198883 -2.52351e-05 7.77144e-20)
(0.00105598 7.59276e-05 -3.13719e-20)
(0.00548804 -0.00015659 8.9633e-20)
(-0.000358411 -2.55215e-05 -1.01411e-18)
(0.0189588 0.00134461 1.05869e-17)
(0.00119027 0.00646211 9.29719e-18)
(0.000973518 -0.000262318 6.14045e-20)
(0.000166805 0.00818816 -1.71295e-18)
(0.00200948 6.43982e-06 -1.44253e-20)
(0.0300635 0.00564449 -6.44867e-18)
(0.00287554 -0.00276749 2.78857e-19)
(-0.000344798 -0.00259276 5.63428e-19)
(0.0140783 0.00509747 -9.90102e-18)
(-0.000808733 0.00741033 2.81484e-18)
(-0.0036939 -0.0513492 -2.03143e-18)
(-0.000146343 0.00217339 1.80411e-18)
(0.000753627 0.00496697 -1.2795e-20)
(0.00033492 -0.002731 2.50298e-19)
(-9.73623e-05 0.00279934 1.52693e-18)
(-0.000287029 0.00573922 5.67656e-18)
(-0.00148547 -0.00104285 1.3987e-18)
(0.0156648 0.00148669 1.15618e-17)
(-0.00296781 0.0064393 -6.16547e-19)
(-0.0198317 -0.0218968 2.28416e-19)
(0.00577969 -0.0416158 1.38885e-18)
(-0.0111585 -0.0148707 2.07412e-19)
(0.0144716 0.00632255 3.96226e-18)
(-7.34434e-05 0.00322345 3.56632e-18)
(0.00117598 -0.000142414 -5.92192e-19)
(0.000785881 -0.00353018 1.27767e-19)
(0.0173711 0.00259588 1.03156e-17)
(0.059206 -0.0170653 -2.18706e-18)
(-0.00215654 0.0052606 6.13689e-19)
(0.0164018 0.00132838 1.02746e-17)
(-0.0373399 0.0835964 -4.09494e-19)
(4.52712e-05 -0.000785252 -2.74631e-19)
(-8.39686e-05 -0.00257001 2.35594e-19)
(-0.00448839 0.00210455 -7.72611e-19)
(-0.00188522 0.00786 -6.12304e-19)
(-0.000544838 -0.0266941 -1.65621e-19)
(-0.000867339 0.00673389 -1.39624e-18)
(-9.18002e-05 0.00273966 -7.47265e-19)
(0.000167379 0.00422917 -3.22951e-18)
(-1.88434e-05 0.00832203 7.54689e-18)
(-0.00320521 -0.0012163 -3.65133e-19)
(-0.00162495 0.00796565 -2.10625e-18)
(0.00102678 0.00649551 -5.34211e-20)
(-0.00318356 0.00123364 6.79624e-19)
(-0.00146543 0.0029841 3.83267e-18)
(0.00111168 -0.00014398 3.98678e-19)
(-0.00030717 0.00568373 -5.36409e-18)
(-0.00294521 0.000177035 -5.33843e-20)
(-8.79914e-05 0.00827819 8.75699e-18)
(-0.00437489 0.00367605 -3.0513e-19)
(0.00639116 -0.00192749 2.2594e-19)
(0.0159873 0.00146668 -9.40349e-18)
(-0.0129254 0.00141749 7.72324e-20)
(-0.0228112 0.0642432 1.3419e-19)
(-0.00421867 0.00254551 -3.72013e-19)
(-0.00412916 -0.00176886 4.75205e-19)
(-0.00143038 0.00509967 1.46611e-18)
(-0.00127978 0.00815971 -2.42056e-19)
(0.0019052 -6.39986e-06 -2.03125e-19)
(0.000780593 0.00775761 1.63653e-18)
(0.0183805 0.0130506 1.07267e-18)
(0.00701895 -0.0306617 2.62009e-19)
(-0.000816913 0.0012204 -9.85117e-19)
(-0.00421807 0.00378748 2.55565e-18)
(-0.000335284 -1.12723e-05 1.35517e-18)
(-0.000725749 0.000843612 1.88779e-18)
(-1.80032e-05 0.00175815 2.68715e-18)
(-0.0120912 -0.00575511 -5.5144e-20)
(0.00326454 0.000669829 9.27116e-22)
(-0.00314576 0.004423 -7.10411e-18)
(-0.00164868 0.00812443 1.14342e-17)
(0.000667758 -0.00138266 4.17123e-20)
(-0.000311467 0.00820028 -3.79392e-18)
(0.00126377 0.00479416 8.41895e-19)
(0.000546133 0.00503679 1.98248e-18)
(-0.00201778 0.00814282 4.53303e-18)
(-0.00324788 -2.90363e-05 -1.89824e-19)
(0.000624133 0.00782082 -9.11547e-18)
(0.046456 0.0211209 3.03343e-19)
(0.00212853 -9.25999e-05 -5.78665e-20)
(-0.000739608 0.00742541 2.03456e-18)
(-0.000677106 0.00700499 -2.90096e-19)
(0.0010496 0.00644387 -3.12188e-18)
(-0.000713382 -0.00183289 2.85696e-19)
(0.000144591 -0.0015581 6.47777e-19)
(-0.00117767 -0.002188 8.72736e-19)
(0.0203561 0.00133621 3.95374e-18)
(-0.00140878 0.00279773 1.50277e-18)
(0.00321168 -0.00283843 1.95474e-20)
(0.00145325 0.00696058 -4.03603e-18)
(-0.00158691 -0.00103609 -1.20267e-18)
(-3.75868e-05 -0.00192553 3.26702e-19)
(-0.00193493 0.00698041 -9.42948e-18)
(0.017008 0.0241829 -2.13081e-18)
(-0.0129827 -0.0164041 5.73053e-21)
(0.076046 0.022561 4.54907e-18)
(-0.0112291 0.0115232 1.16809e-19)
(-0.00211049 0.0078989 -5.94044e-18)
(5.37256e-05 0.00175126 -4.9095e-18)
(-0.00291278 -0.0027906 -4.52498e-20)
(2.1172e-05 0.0106425 -3.54106e-18)
(0.00503798 -0.00332512 -1.99332e-19)
(-0.00156308 -0.0024212 2.30951e-19)
(0.00177266 3.59996e-05 -2.72725e-20)
(0.00192702 -4.54533e-05 -1.81605e-19)
(-0.000370308 0.00214933 -6.9357e-18)
(-0.00476666 0.00362788 -1.84481e-19)
(-0.0175914 0.013124 -4.26949e-18)
(-0.000645792 -0.0018403 1.18987e-18)
(0.00118494 0.021848 5.70542e-21)
(-0.00277352 -0.00223107 2.46571e-19)
(0.038144 -0.0067632 -3.78424e-19)
(-0.0041407 0.00268045 -3.82973e-19)