/*--------------------------------*- C++ -*----------------------------------*\
| =========                 |                                                 |
| \\      /  F ield         | OpenFOAM: The Open Source CFD Toolbox           |
|  \\    /   O peration     | Version:  v2012                                 |
|   \\  /    A nd           | Website:  www.openfoam.com                      |
|    \\/     M anipulation  |                                                 |
\*---------------------------------------------------------------------------*/
FoamFile
{
    version     2.0;
    format      ascii;
    class       volVectorField;
    location    "950";
    object      ddtCorrDdt0(U);
}
// * * * * * * * * * * * * * * * * * * * * * * * * * * * * * * * * * * * * * //

dimensions      [0 1 -2 0 0 0 0];


internalField   nonuniform List<vector> 
13917
(
(-0.00736767 -0.00698669 -9.22127e-18)
(-0.000680624 -0.00147907 1.0214e-19)
(-0.0237567 -0.153713 1.56775e-19)
(-0.00040422 -0.00213212 -1.42856e-18)
(0.000111378 0.000752605 3.5088e-18)
(-0.00021574 0.0308137 1.06664e-16)
(-0.0327369 -0.136223 9.78053e-19)
(-0.0734098 -0.110692 -9.677e-19)
(-0.0940839 0.106962 4.85352e-17)
(-0.0108945 -0.0193165 -5.58524e-19)
(0.0434865 -0.0605332 -3.15714e-17)
(0.00867926 -0.0282814 2.27197e-19)
(-0.00046909 -0.0023128 1.84452e-18)
(-0.234871 -0.0465774 2.16771e-18)
(0.00204267 -0.00232157 1.43033e-18)
(0.000953332 -0.00282497 3.48376e-19)
(-0.00056309 -0.0017002 1.4236e-18)
(0.00379632 0.028467 2.33188e-17)
(0.00758716 -0.0278947 -1.02032e-19)
(0.00023914 0.000307303 5.41993e-18)
(2.54952e-05 0.000594773 5.00161e-18)
(-0.0380187 -0.13191 -1.391e-18)
(0.000285781 0.000459995 1.94557e-18)
(-0.0377538 -0.127948 -3.90937e-18)
(0.000187478 -0.0010451 8.6829e-18)
(-0.0237587 -0.0916902 -1.05222e-19)
(0.00115182 0.00716771 -9.09166e-17)
(0.00585409 0.00995977 -8.19734e-20)
(0.0346175 0.0240592 4.10503e-17)
(-0.0549233 -0.00860763 1.48787e-17)
(-0.0109683 -0.00556289 -5.86917e-19)
(-0.0033241 -0.00183669 -8.14349e-19)
(0.0028337 0.00435894 -2.58755e-18)
(9.15697e-06 0.000378628 1.54454e-18)
(0.000241865 -0.00100259 -1.04151e-19)
(0.0133394 -0.090192 -7.80443e-18)
(0.00028337 0.00049716 1.26736e-17)
(-0.282811 0.0271775 -2.93261e-18)
(-0.000143212 -0.00433981 5.49973e-18)
(-0.063187 -0.0365985 -2.46984e-18)
(-4.64527e-05 -4.87585e-05 -1.41786e-18)
(1.62135e-06 0.000243069 4.92308e-18)
(-0.000157773 0.000296189 4.82007e-20)
(0.0096627 0.0141674 -3.57661e-18)
(-0.000496417 0.000920271 -1.4636e-18)
(0.000399923 0.00133445 -1.24549e-17)
(0.00554207 0.0272966 -1.37468e-17)
(0.034314 0.0255725 -6.80333e-18)
(-0.000880996 0.0443915 -7.24286e-17)
(0.000275966 9.07751e-06 6.50676e-19)
(0.00396128 0.00375478 -4.91738e-18)
(6.80487e-05 -0.00163399 -9.94569e-19)
(-0.00224916 0.0374033 2.51046e-17)
(3.73126e-05 0.000589992 -8.76273e-17)
(-0.000512935 -0.00189342 -2.29245e-18)
(-0.000662003 0.00556567 8.00591e-18)
(0.045617 -0.0573498 2.37919e-17)
(0.000109385 -0.00195295 -4.34838e-18)
(-0.00146983 0.00334605 -9.64882e-18)
(-0.000493929 0.000797115 1.78101e-19)
(0.261948 -0.184473 3.24125e-19)
(-0.000693319 -0.00132611 2.61849e-18)
(-0.213188 -0.0679875 -3.31528e-19)
(0.000239088 0.000323475 -6.70025e-18)
(0.000912755 0.0296573 -7.25215e-17)
(0.0614704 -0.0371884 1.97668e-17)
(1.13834e-05 0.000734205 4.09289e-18)
(-5.61148e-05 -0.000685683 -3.10121e-18)
(0.107547 0.0156234 -9.42364e-18)
(-0.00166179 -0.00733498 5.62878e-21)
(0.000142165 0.000747179 -2.56644e-18)
(-0.10423 0.114435 -4.27374e-17)
(0.0408559 0.0447747 -7.42291e-17)
(0.00025593 -0.000915093 -6.24762e-18)
(0.00168668 0.0445181 3.7571e-17)
(-0.00219951 -0.0317557 8.7368e-18)
(-0.0491801 0.0277602 -5.02541e-17)
(-0.000125302 0.00185108 -7.92229e-19)
(-0.0168441 -0.0629098 -1.84328e-18)
(6.08221e-05 0.000872961 6.5509e-18)
(0.000149787 0.000745133 8.90052e-18)
(-9.44864e-06 0.000778411 -9.74299e-18)
(0.00302098 0.0293801 4.24283e-17)
(-0.279405 0.033408 4.86488e-18)
(0.142472 0.186723 -1.807e-17)
(-7.96917e-05 0.00181153 4.35585e-18)
(0.000201097 0.000520778 -3.15555e-18)
(0.0231297 -0.0473232 1.22405e-17)
(0.00373632 0.00344427 6.44403e-18)
(-0.000143296 0.000310718 -1.66671e-19)
(-0.0594267 0.0504281 3.00182e-19)
(-0.0270183 -0.0250798 1.283e-17)
(-0.000603866 -0.000710424 2.04578e-19)
(0.000795019 -0.001893 -2.01804e-18)
(0.0442307 -0.0440972 -1.87381e-17)
(-0.00210204 0.0295616 2.06115e-17)
(0.0668628 -0.023919 1.34189e-17)
(0.0257226 0.0295017 1.30056e-17)
(-0.00119884 -0.0458357 2.95585e-18)
(0.0048855 0.0183184 1.48015e-18)
(-0.000223004 -0.000423598 -2.19539e-19)
(-0.000128753 0.00371455 1.51275e-18)
(0.00794808 0.0144652 -1.15966e-17)
(0.000836737 0.0019484 8.51954e-18)
(-0.000420717 -0.000602532 -6.09336e-19)
(-0.0647053 0.109646 -5.89334e-17)
(0.0335146 0.0155884 1.96619e-17)
(0.0372813 0.0279971 -3.35407e-17)
(-0.000589785 -0.00170024 9.57054e-19)
(-0.00969702 -0.00916502 -2.69187e-18)
(0.228267 0.0456189 -4.0014e-18)
(-0.0751043 -0.0384965 3.32439e-18)
(0.00783589 -0.0360166 -2.39488e-19)
(-0.0676723 0.106888 -2.03409e-19)
(0.000170307 -0.00106113 3.68604e-18)
(-0.00537936 0.0425984 -7.0071e-17)
(0.000281133 -0.000563667 6.90995e-18)
(8.63207e-05 0.0387124 -1.04444e-16)
(-0.235755 -0.0528339 8.59532e-18)
(0.000429619 0.000503832 -3.24485e-17)
(1.10006e-05 0.000446392 1.43567e-18)
(0.103529 0.0208161 2.83601e-17)
(-0.299334 -0.0447715 1.74172e-17)
(0.00539469 0.00933758 -1.95128e-17)
(0.000233469 -3.97502e-05 2.97079e-18)
(0.000752971 -0.00184654 1.64663e-17)
(-0.000685171 0.000302912 -5.43214e-20)
(0.000259888 -1.24286e-05 -1.63123e-18)
(-0.000228353 0.000150775 5.18584e-19)
(-0.00123509 0.0303938 1.536e-17)
(-0.212684 -0.0804362 1.33822e-19)
(0.000139999 -0.00109998 5.75085e-19)
(-0.000533212 0.000881006 4.71694e-19)
(1.24091e-05 0.000496001 -1.11871e-18)
(0.0120978 0.130203 -3.92801e-17)
(-0.020751 -0.142757 3.64178e-18)
(-0.00656078 -0.00775671 3.19976e-18)
(0.00479953 0.019551 -5.1771e-17)
(4.78937e-05 0.000701181 -7.75598e-19)
(0.000241692 0.000490829 -2.57333e-18)
(0.0239299 -0.0865647 -2.28861e-18)
(-0.000515533 0.00021361 2.02795e-19)
(0.000387241 -0.00131007 4.18823e-18)
(0.00847611 0.0167113 -5.09047e-18)
(2.0822e-05 -0.000823691 6.86512e-18)
(-0.116476 0.129645 3.05134e-17)
(0.0385714 0.0192062 4.0145e-18)
(0.000147359 -0.00176991 -6.35415e-18)
(-0.00047471 0.00024843 -1.07567e-18)
(-0.00277321 -0.00300804 -3.88096e-19)
(0.0297547 -0.00220354 -3.40161e-17)
(-0.00556898 0.0429233 5.73357e-17)
(0.0336065 -0.0306678 7.15325e-18)
(0.0050207 -0.00765375 1.45838e-18)
(-0.00378223 0.00248523 1.25821e-18)
(0.0692025 0.00107811 3.5739e-17)
(-0.00142287 -0.00674372 8.11457e-21)
(0.122951 -0.0863003 -1.06601e-17)
(-0.045646 0.0238681 3.39749e-17)
(0.0162522 0.127487 5.89784e-17)
(0.0011126 -0.000841708 5.7468e-18)
(-0.00156705 0.00725446 2.73702e-17)
(7.76754e-05 0.000755333 -3.41162e-18)
(0.0625402 -0.0242779 -7.63837e-18)
(0.00898691 -0.0353187 -3.24805e-19)
(0.000207309 -0.0455033 -2.5532e-18)
(0.000631208 0.00196565 -3.84171e-18)
(0.0314432 0.011508 1.08888e-18)
(-0.000571239 0.000462966 4.07629e-19)
(-0.000365975 0.00405828 -2.39973e-17)
(0.00323843 -0.00892765 2.84678e-18)
(0.314279 0.0513405 3.8207e-17)
(0.0039429 -0.038022 -4.15284e-18)
(-0.000453522 -0.00205962 4.66442e-18)
(-0.162888 0.144364 2.49137e-17)
(0.00782165 -0.00744033 6.10988e-18)
(-0.188426 -0.0897567 1.74305e-18)
(-0.00058218 0.0395357 -2.31718e-17)
(-0.12685 0.134929 -2.41156e-17)
(-0.000387679 -0.00145699 1.82962e-18)
(-0.0313349 -0.025461 -2.2533e-17)
(-0.0123375 -0.00555527 1.00159e-17)
(-0.000480873 0.000298003 6.41702e-19)
(0.000169185 0.000525288 5.22405e-18)
(0.00408773 -0.00102691 8.39315e-18)
(-0.0190079 -0.0919932 2.88306e-19)
(-0.0445135 -0.0984442 1.18643e-17)
(0.133364 0.0150091 -2.12944e-17)
(-0.00371888 0.0128435 -1.88265e-17)
(0.00997165 -0.0477036 1.33782e-18)
(0.0806332 -0.0997468 5.06204e-18)
(0.205904 0.217436 4.21119e-17)
(0.00359465 -0.0794363 2.82646e-17)
(0.000256251 0.000564031 -2.14973e-18)
(0.00163179 0.0202987 4.03484e-17)
(0.00135753 0.00671679 5.53397e-17)
(-7.27936e-05 -1.75664e-05 -3.65951e-19)
(-0.000607669 -0.000714165 -1.17022e-18)
(0.0308857 0.00871285 1.33806e-17)
(0.0422557 -0.0361789 1.24095e-17)
(0.00434022 -0.00134464 -4.86246e-18)
(0.000271257 1.39789e-05 -2.1686e-18)
(0.0289665 0.00620492 -1.27267e-17)
(0.0279903 -0.00328806 3.32255e-17)
(0.0428912 0.0388278 -4.79439e-17)
(-0.0748938 0.155488 1.87501e-17)
(0.000224864 -0.000811562 -9.11781e-18)
(0.000122327 -0.00203844 3.72578e-18)
(0.0268837 0.0264136 -8.73623e-19)
(-0.00916073 -0.12688 1.22821e-19)
(0.00052077 -0.00172121 -1.42661e-17)
(-0.0423898 -0.141617 -1.9768e-18)
(0.0491703 0.0295187 -1.46145e-17)
(0.0115154 -0.0475351 -2.81235e-18)
(-0.000392095 -0.00064232 -5.27365e-19)
(0.0165292 0.0312877 -1.0535e-16)
(0.0237421 0.0194659 2.03159e-17)
(0.228164 0.0369197 3.66137e-17)
(0.000141891 -0.00156908 -2.47715e-18)
(0.362787 -0.0785161 1.38045e-17)
(-0.000339104 -0.00138985 -1.23722e-18)
(-0.0516187 0.0160779 4.95032e-17)
(-6.65344e-05 -6.97541e-05 2.23516e-18)
(-0.2332 0.0446799 -2.72724e-17)
(-0.0518328 0.108332 5.19107e-17)
(0.00103652 -0.00298777 2.09968e-19)
(0.0473824 -0.0250401 -1.68755e-18)
(-0.00392226 0.00292277 -1.29836e-17)
(-0.000361191 -0.000667983 -3.03489e-19)
(0.0125053 -0.0872819 4.10642e-18)
(0.00300727 -0.0369396 2.40751e-18)
(-0.00261433 0.0126698 7.93212e-18)
(0.00800808 -0.158852 2.89174e-19)
(0.0576572 0.0282611 4.80551e-17)
(-0.000305118 -0.000198092 1.97047e-18)
(-0.00366611 -0.00182809 1.37611e-18)
(-0.0620816 0.0561239 -8.37877e-17)
(0.0947231 0.165526 8.16668e-18)
(8.04698e-05 0.000807369 -8.40423e-18)
(0.000165127 -0.000725754 -3.62019e-18)
(-0.0483059 -0.037988 -1.27648e-17)
(0.0805217 -0.0199699 2.47833e-17)
(1.29655e-05 4.01482e-05 4.30478e-18)
(0.00968376 -0.074762 -1.10644e-18)
(-0.00184498 0.0673468 5.92193e-18)
(-0.00185091 0.0066554 -1.49828e-17)
(-0.00777878 -0.00413231 9.42751e-19)
(8.37702e-05 0.00074582 2.19103e-18)
(0.00919328 -0.00460074 -2.47087e-18)
(0.0175833 0.0259525 4.16045e-18)
(-1.50864e-05 0.000361528 1.72648e-18)
(-0.0278598 -0.0400623 6.11024e-18)
(0.00633607 0.0211006 8.37213e-18)
(-0.000646357 0.000330484 -8.93881e-20)
(7.29774e-05 -0.00197348 6.91934e-18)
(0.0259758 -0.0238348 -5.78257e-18)
(-0.0500688 -0.0414928 4.94091e-18)
(0.0319395 -0.0293323 8.38784e-19)
(0.00438054 -0.00113558 -3.39532e-18)
(0.00205436 -0.00243785 3.63571e-18)
(1.16463e-05 7.18896e-05 -2.34987e-18)
(-0.314936 -0.0433475 -4.48497e-18)
(0.0487514 0.110901 3.37915e-17)
(-0.004679 -0.0654965 -7.66897e-19)
(-0.000351621 -0.000717355 2.90002e-18)
(0.115151 0.0442776 6.51919e-17)
(-0.259957 0.010783 -5.98224e-18)
(0.0839974 -0.0783702 2.97247e-17)
(-0.0176706 -0.0615201 2.37132e-18)
(-0.00180325 -0.033265 -7.80844e-18)
(9.96172e-05 0.000753187 1.45112e-18)
(0.0001369 -6.42495e-05 -1.87151e-18)
(0.00963509 0.0265969 -1.04988e-17)
(-0.170842 0.0373 1.8646e-17)
(0.0637017 0.0580796 3.20983e-17)
(-0.00123962 0.00330694 -6.09206e-18)
(-0.064549 0.151975 2.10421e-17)
(-0.000401587 -0.0166674 4.15403e-18)
(-0.00019088 0.000102136 -1.39568e-18)
(0.110595 0.0366959 -8.37475e-18)
(0.000247309 0.000269631 2.09104e-18)
(-0.169168 0.138573 -2.59824e-17)
(0.00388619 -0.00129776 -5.7686e-18)
(2.32166e-05 3.97151e-05 -1.78441e-18)
(0.00146205 -0.00343296 -4.08528e-18)
(0.00562553 -0.00785003 -6.61298e-18)
(-0.000981323 0.00722666 -3.95868e-17)
(0.00846828 -0.0777156 -2.79092e-18)
(0.0035152 -0.00449376 2.15664e-19)
(0.000159531 0.000688067 -5.2391e-18)
(-0.0115185 0.12817 -3.71238e-17)
(0.00636078 -0.155064 8.98644e-19)
(0.0562059 0.107679 -2.95403e-17)
(0.00014524 -0.00145794 1.76398e-18)
(-0.05766 0.0445671 -4.57381e-17)
(5.44063e-05 0.00092657 -5.92369e-18)
(0.00013818 0.000630304 4.70216e-18)
(0.000291657 -0.000399758 -5.51249e-18)
(0.0425348 0.0210552 -9.22472e-18)
(0.000195049 5.83555e-05 1.45191e-18)
(-0.0568412 0.0162115 -2.54249e-17)
(-0.00703104 -0.00397282 -4.48875e-18)
(-0.00052913 0.000513979 6.79985e-20)
(0.0302782 0.00435103 1.21757e-17)
(-0.00140288 -0.000614259 -1.97425e-18)
(-0.00106984 0.0430195 8.95865e-17)
(0.00731393 -0.00732665 -1.42197e-17)
(-0.0260668 -0.0218789 8.25589e-18)
(-0.000397667 0.000633556 2.78696e-19)
(0.000115499 -0.00207451 -1.80996e-18)
(0.238984 0.0436421 -2.18909e-17)
(-0.326393 -0.032363 1.0047e-17)
(0.000280863 -0.000747797 -1.33922e-18)
(4.03039e-05 -8.22487e-05 -3.58132e-18)
(0.104318 0.0285096 2.18173e-18)
(-0.000462952 -0.00126507 -6.08396e-19)
(0.0312852 0.0482725 -4.63627e-17)
(-0.000421347 0.00058472 7.35081e-20)
(-0.229172 0.0524593 2.03086e-17)
(-0.000362365 -0.000476989 -1.90136e-18)
(0.0262468 -0.0301433 1.07723e-17)
(0.0102163 0.00496772 4.99187e-18)
(0.00399978 0.0459226 6.14698e-17)
(0.00106556 -0.000959893 -7.14346e-18)
(0.0101008 0.128411 -2.29904e-17)
(0.0117844 0.0278905 2.22112e-17)
(0.00110594 -0.00339121 6.07811e-18)
(0.0818848 -0.0156944 -1.94238e-17)
(0.0407163 0.00470486 -2.01505e-17)
(0.000100066 -0.00208469 3.02599e-18)
(-0.296993 -0.0429061 -8.34556e-19)
(0.000757745 0.0197491 2.82643e-17)
(-0.255825 0.0167299 -4.62681e-19)
(0.000675683 -4.16394e-05 -9.25383e-18)
(-0.138571 -0.0410564 -1.67988e-18)
(-0.00437422 -0.00143455 5.50109e-20)
(0.156471 0.0345394 -5.41975e-17)
(0.0110204 0.0261341 2.907e-17)
(0.0234836 0.00140763 -3.78114e-22)
(0.0228979 -0.000557725 1.21634e-17)
(-0.0483736 -0.148747 1.02273e-18)
(9.42018e-05 0.000954968 7.67184e-19)
(0.00321563 -0.00984835 -2.35336e-18)
(0.22226 0.0474844 2.06807e-17)
(0.000202061 -0.00201699 -3.04076e-18)
(0.000134073 -0.00248163 -1.24397e-17)
(-0.286166 0.0184523 -2.12287e-18)
(0.032164 0.0108254 -1.57255e-17)
(-0.000599408 -0.00191545 -4.54096e-18)
(0.072568 -0.090385 -3.41514e-18)
(0.03111 0.0251688 -5.94494e-17)
(-9.70396e-05 -0.000391017 2.55043e-18)
(-0.249822 -0.0474398 -8.91123e-18)
(0.0348927 -0.0939054 -2.33628e-19)
(0.000262249 0.00027669 -6.38064e-18)
(-9.60089e-05 -0.00101025 -1.20403e-18)
(-2.00705e-06 0.000977848 5.19329e-18)
(-0.000464644 0.000323752 7.11225e-19)
(-0.0241604 0.134147 1.04673e-17)
(-0.140234 0.139556 -5.45434e-18)
(-0.0127047 0.0317363 -2.81003e-17)
(0.231165 0.0456269 -8.08202e-17)
(0.000251109 -0.00072788 2.75221e-19)
(-0.029498 -0.0441174 -2.60117e-17)
(-0.000463535 0.00727646 -1.77876e-17)
(0.0183269 0.0048159 3.79361e-17)
(-0.0478966 -0.139006 2.13371e-18)
(-0.173478 0.047541 1.90109e-17)
(-0.0550645 0.106123 2.80476e-17)
(-0.000343769 -0.000330612 -1.12457e-20)
(-0.00368571 -0.0642082 3.5667e-18)
(-0.000149576 -0.000924858 -1.47971e-18)
(0.364108 -0.0725963 -9.56005e-18)
(-0.000532283 0.000712767 1.93957e-19)
(0.0051124 0.0487906 -7.3958e-17)
(-0.00749373 0.0692766 -2.0742e-17)
(0.00150529 -0.00254368 -6.0895e-18)
(0.000150622 0.000891766 -3.34834e-18)
(0.0247997 0.0239155 -3.0423e-17)
(-0.0328351 -0.0287326 2.81201e-17)
(0.0130838 0.0467026 -3.28664e-17)
(0.028312 0.0761081 2.46929e-17)
(0.173671 0.0505961 -2.7049e-17)
(0.242087 0.0361045 -3.42662e-17)
(0.00986405 -0.00516542 -4.92971e-18)
(-0.0103113 -0.0176034 -5.83587e-19)
(0.000200672 -0.000642025 1.59309e-18)
(0.11118 0.171624 3.9598e-18)
(-0.0348605 -0.115057 -5.477e-18)
(-6.25346e-05 -0.00193513 9.14459e-18)
(-0.00107733 0.130202 8.46284e-17)
(0.00028268 -6.77066e-05 -1.93957e-18)
(-0.0814907 0.164924 7.71063e-17)
(-0.000295884 -0.00046421 3.95954e-18)
(7.33173e-05 0.000968425 -6.33705e-18)
(-0.0012613 -0.00108251 2.16006e-18)
(-0.012485 -0.0468816 -2.22936e-18)
(-0.00122131 -0.00123824 -2.43971e-18)
(-0.0416532 -0.0431719 -7.56797e-18)
(0.0946355 0.0472586 1.13586e-17)
(0.0294326 -0.054873 -1.67167e-17)
(0.00995292 0.0302971 8.09185e-17)
(2.50015e-05 -0.0020226 4.47301e-18)
(0.0151059 0.0297292 3.6214e-17)
(0.0121492 0.0306209 -4.0227e-17)
(0.000324918 0.000110861 1.14199e-18)
(0.0313774 0.012907 -3.54181e-17)
(0.000233626 -0.00201668 7.31758e-18)
(0.000205252 -0.000604219 1.26418e-18)
(-0.0514665 -0.012356 -4.68719e-17)
(2.19689e-05 0.000104262 -1.35174e-18)
(0.00023124 -0.00110074 -1.0414e-17)
(-0.000171466 -0.00085072 2.28507e-18)
(-0.0405448 0.135978 8.19256e-17)
(5.07773e-05 0.000801376 -3.46008e-18)
(-0.148052 -0.044885 1.42181e-18)
(-0.0161165 -0.0509753 -1.77663e-18)
(-0.0117687 0.0257046 2.41981e-18)
(0.00687073 -0.0723241 -1.12457e-17)
(-0.0533744 -0.0507362 -9.39852e-19)
(0.191588 0.0370232 7.72124e-17)
(0.0178152 0.0039817 -3.02155e-17)
(0.000300964 -0.000565979 1.28237e-18)
(-0.044698 0.115504 5.36666e-17)
(-4.95907e-05 -0.00392573 -3.88766e-18)
(-0.00423994 -0.00238213 4.94903e-19)
(0.000274362 0.00053163 -6.21684e-19)
(-0.132707 0.133747 -4.089e-17)
(-0.0205867 -0.125245 -2.18761e-19)
(-0.0189 -0.0513264 4.37917e-18)
(0.00134479 -0.0025817 3.07005e-17)
(0.0101235 0.0787686 3.16825e-17)
(0.000588097 -0.000178823 7.14574e-18)
(-2.39066e-05 -0.00452872 -4.88619e-18)
(0.0150533 0.0432095 2.31259e-17)
(-0.000691245 -0.00199773 2.0726e-18)
(-0.00691123 -0.0616651 -3.61792e-18)
(-0.000667905 -0.00161892 -3.95893e-20)
(0.000187993 6.76838e-05 2.08294e-18)
(0.0238642 0.0551198 -3.08878e-17)
(-0.186066 -0.0862962 -8.71376e-18)
(-0.164087 -0.0920196 6.86986e-18)
(0.00537626 -0.0354923 3.79265e-18)
(-0.0200238 0.0263029 -5.13499e-18)
(-0.285089 -0.0465498 -5.91838e-18)
(0.161347 0.0579345 -1.8276e-17)
(-0.120683 0.0244319 4.19068e-17)
(-0.000282222 0.000114273 -7.96945e-19)
(0.0176344 0.0276588 1.20844e-17)
(-0.000803694 -0.00181907 5.13198e-19)
(0.000157959 -0.00198447 3.60304e-18)
(-0.0684702 0.157624 1.29501e-16)
(0.00806155 0.0281995 -2.6139e-18)
(9.19412e-06 5.67378e-05 9.2871e-20)
(-0.0218777 0.0262444 -3.226e-17)
(0.0152815 0.00700774 3.42074e-17)
(-0.149698 0.0188073 -5.35172e-17)
(0.000319538 -3.59519e-05 2.48064e-18)
(0.0755115 0.0141344 -2.49171e-17)
(0.110361 0.056466 1.11476e-17)
(0.0263113 -0.0320952 1.58312e-17)
(-0.150046 -0.0510045 1.20184e-18)
(3.7244e-05 0.000753884 1.8565e-18)
(-4.80481e-05 -0.00190801 -1.56407e-18)
(-0.000191314 -4.07436e-05 6.88836e-19)
(-0.000653862 -0.00685126 1.54161e-18)
(-0.000357693 -0.000311432 -1.12412e-18)
(-0.019014 -0.0803364 -2.89624e-19)
(-0.0113018 0.0305073 3.77902e-17)
(0.00313313 -0.00450725 6.33128e-18)
(0.0769872 0.0401977 6.23488e-18)
(-0.000149027 0.00550429 -5.90302e-19)
(0.0617518 -0.0281638 1.49699e-18)
(0.150812 0.0629548 -2.50568e-17)
(0.03849 0.0172849 2.63815e-17)
(0.0269958 -0.0537795 1.43602e-17)
(0.0255939 -0.0901736 3.03161e-18)
(0.0780418 0.0105596 4.39517e-17)
(-0.0261925 0.0149547 -6.72185e-18)
(0.00664073 0.119958 -1.42313e-17)
(0.0130373 -0.0122904 -3.08429e-18)
(0.0142859 -0.0575867 -9.02438e-18)
(0.00206459 0.0306416 2.07624e-17)
(0.00886008 -0.0185595 7.12891e-18)
(0.0490928 0.0220518 -1.36458e-17)
(-0.000446745 -3.08358e-05 4.86403e-19)
(-0.0207256 0.143234 -2.30032e-17)
(0.00385885 0.00478048 3.1991e-18)
(-0.000150913 0.0005398 -1.67347e-19)
(-0.000523563 -0.00630061 -2.67123e-18)
(0.000119839 0.00197274 -1.132e-18)
(-0.140879 0.0233465 8.4126e-18)
(-0.0739132 0.111448 -9.15085e-18)
(-0.000419331 -0.00126193 -1.98174e-18)
(-0.000211277 7.19483e-05 -5.84046e-19)
(-0.00676442 -0.108241 2.14437e-19)
(0.203094 0.0352548 -1.00754e-16)
(2.04911e-05 7.94516e-05 -1.50997e-18)
(-0.171668 -0.0458812 1.33216e-18)
(0.00106193 9.57074e-05 1.66365e-18)
(-0.0142067 -0.0699802 -4.05706e-18)
(-0.000416664 -0.00133035 -4.65277e-18)
(0.0811262 0.0392429 7.05804e-17)
(-0.124613 0.149644 1.11116e-16)
(-0.0031143 -0.00263055 5.76754e-19)
(-0.000925489 0.000137452 -1.11351e-19)
(-0.0442783 -0.0531317 -3.96288e-19)
(-0.0424054 -0.0874172 -5.22612e-18)
(0.040701 0.0243417 -1.55337e-17)
(1.41316e-05 9.57998e-05 3.26012e-18)
(0.0351314 0.0290076 -1.35134e-17)
(-0.00100483 0.0401841 -3.62144e-17)
(0.1082 0.00952314 -1.36652e-17)
(-0.000157982 0.00053603 1.208e-18)
(0.0979766 0.21997 9.0534e-18)
(0.0752159 0.0919719 -5.16255e-17)
(0.0191634 0.00160513 6.2828e-18)
(-0.000126612 -0.000973452 1.77422e-18)
(-0.000397073 -0.00196849 4.16226e-18)
(-0.00490745 -0.0312314 5.43673e-18)
(-0.0803711 0.163848 3.13827e-17)
(7.039e-05 7.65882e-05 -5.00783e-20)
(-6.38881e-05 -0.000992967 5.19174e-20)
(0.000219523 -0.000156456 2.99024e-18)
(0.000200434 -0.000192784 2.53385e-18)
(0.116684 0.040333 3.2757e-19)
(-0.0650632 0.157176 5.77592e-17)
(0.0182153 0.00224558 -1.19413e-17)
(-0.063971 -0.0955161 -2.73046e-18)
(0.000150928 -3.84533e-05 2.12583e-18)
(-0.000214402 -0.000404938 1.3411e-19)
(0.0149757 0.074524 -4.34662e-17)
(0.0226918 0.0857166 7.9867e-17)
(-0.00530183 0.00837962 -7.7549e-18)
(-0.000538361 0.000470699 -2.47069e-19)
(0.000270091 -0.000702451 3.27471e-19)
(5.26601e-06 0.000288263 -2.79561e-18)
(0.113844 0.0200628 -2.93148e-17)
(0.237533 0.184062 -4.24052e-17)
(0.000184519 0.000444743 3.83539e-18)
(8.94124e-05 0.000280328 -7.07394e-18)
(-0.00490867 -0.0622197 2.40209e-18)
(0.0133515 -0.0111493 -3.83367e-18)
(0.0105969 0.00433359 2.18501e-18)
(-1.03438e-05 -0.00199409 -1.16341e-18)
(-0.0011227 -0.00152147 -2.44912e-18)
(-0.00182079 -0.00285671 -2.18202e-19)
(0.0481532 0.0186255 2.74837e-17)
(0.0378603 0.00385587 1.05888e-17)
(-0.0528506 -0.102957 1.00855e-17)
(-0.0403984 0.12452 -5.51881e-17)
(0.0439762 0.0556656 -7.0795e-17)
(-0.0770422 0.155214 -6.50849e-17)
(-0.0283248 -0.0188654 1.57701e-17)
(0.000183554 -0.0013343 2.18118e-19)
(0.0211988 0.0290285 8.53114e-17)
(-3.01608e-06 0.000356772 4.98676e-18)
(0.000143075 -0.00257328 7.93334e-18)
(0.00228865 -0.000968474 -7.52104e-18)
(-0.0262854 0.146957 7.17921e-17)
(0.0175347 -0.00599672 1.47216e-17)
(-0.000220402 -0.000104288 -1.47153e-19)
(0.0247709 -0.0323083 -1.32664e-17)
(-0.0654604 -0.00644872 -9.88781e-19)
(0.0564083 0.0623146 -4.21774e-17)
(0.0398456 0.058642 -4.86605e-18)
(0.00592576 0.00200751 6.94482e-18)
(0.0166124 0.00738176 1.98138e-18)
(0.000126855 0.000870194 3.87863e-19)
(0.0587279 0.103656 5.87945e-17)
(0.0255723 -0.0309525 -1.12291e-17)
(-0.196715 -0.0766397 1.90406e-18)
(-0.000609414 -0.00164145 -1.66199e-18)
(-0.00174466 0.00750496 -5.69029e-18)
(-0.0736175 -0.0965444 -1.17138e-17)
(-0.165164 0.0524306 2.08155e-17)
(0.101226 0.0174674 -4.89292e-17)
(0.0271454 0.0323169 -6.73014e-19)
(0.00676384 -0.0381624 -4.30464e-18)
(0.00104044 -0.00269812 1.56801e-17)
(-0.00204531 0.00104577 1.5885e-18)
(-6.02019e-05 -0.00198753 -7.16443e-18)
(0.0122285 0.00204734 7.32866e-18)
(0.00781348 0.0155553 1.13365e-17)
(-4.66143e-05 -0.00194211 -1.90903e-18)
(0.0241468 0.0171355 -2.17689e-18)
(0.00554386 0.0208088 7.66277e-17)
(-0.191886 -0.0706465 -1.59225e-18)
(0.0444536 0.0273348 -3.09332e-18)
(-0.00127123 -0.0018389 -2.27616e-19)
(0.0583467 -0.0292626 -9.84844e-18)
(-0.105913 0.141955 -1.45031e-16)
(0.00157989 -0.00385895 3.44728e-18)
(0.00033437 -0.00164875 4.28681e-18)
(0.0131163 0.0513547 1.05803e-17)
(-0.0289383 0.118876 3.33498e-17)
(-0.150426 0.130569 6.09122e-18)
(-0.0926654 -0.0829308 8.40287e-18)
(-0.00024978 0.000155882 -5.7664e-19)
(-0.252762 -0.0503863 -5.61709e-18)
(-0.00342026 -0.0308392 -5.15836e-18)
(-0.000187426 -6.72984e-05 1.03963e-18)
(-0.00678497 0.00262872 -1.13588e-17)
(0.0446584 -0.00670151 5.26149e-18)
(0.00286671 0.00388698 -1.78254e-17)
(-0.0529808 -0.0034648 2.83001e-18)
(-0.0184224 -0.066915 1.00978e-19)
(0.0108745 0.114472 6.22919e-18)
(0.0104105 -0.0100965 -1.11639e-17)
(0.0545096 0.105482 -1.48174e-17)
(-0.00026985 0.00226919 -1.37025e-18)
(-0.116788 0.01861 -3.30565e-17)
(7.4518e-05 0.000789266 9.52142e-18)
(0.000160822 0.000418148 -4.62992e-18)
(-0.0608866 0.0356336 4.23975e-17)
(-0.0320144 0.117401 -1.5585e-17)
(0.00680296 0.0330495 -1.24564e-16)
(-0.000126293 0.00229984 -1.73832e-19)
(-0.000441448 -0.00202812 -1.85628e-18)
(0.000107874 0.000345149 4.89057e-18)
(0.000295261 -0.0172923 -4.94163e-18)
(0.000448233 0.0456121 4.31696e-17)
(9.7882e-05 -0.0442191 2.47429e-18)
(-0.00218329 0.00121815 -2.8423e-18)
(0.0270074 -0.0503317 2.4244e-18)
(0.0255745 0.0213061 3.6326e-17)
(-0.000459145 -0.00136616 -1.3675e-18)
(0.0485871 -0.0213998 1.39538e-18)
(-0.00114959 -0.0429705 4.75814e-18)
(-0.0129145 -0.0529202 -9.19295e-18)
(1.22215e-05 -0.00163674 4.7536e-19)
(0.0243211 0.109018 5.11317e-17)
(-9.70973e-06 0.00194916 -1.81573e-18)
(0.132631 0.056806 3.85882e-18)
(-0.0130046 -0.0199858 -9.88115e-18)
(0.0166116 -0.0072849 7.37545e-18)
(-0.00236076 0.0075756 2.39668e-18)
(-1.41643e-05 -0.000248475 -4.36782e-20)
(-0.000221624 0.000555292 1.41311e-19)
(-0.000684432 0.000420837 -1.91484e-19)
(0.0236544 -0.00290095 -8.09004e-18)
(0.000791088 0.00151671 1.44646e-17)
(-0.137243 0.0354134 8.21042e-17)
(0.0415029 0.0533716 4.10203e-17)
(0.0301083 0.0132928 -4.24308e-18)
(-6.97936e-05 -0.000391256 2.89494e-19)
(-0.0132851 0.113012 2.28117e-17)
(0.00904533 0.034682 3.02701e-18)
(0.0281229 -0.0994057 -3.97628e-18)
(-2.04654e-05 0.000398779 -3.29521e-18)
(0.000966193 0.000672677 1.38025e-17)
(-2.73609e-05 -0.00101429 -2.82629e-19)
(0.00365296 -0.00633896 6.58655e-19)
(-0.00146925 0.00350151 1.79199e-17)
(0.0712766 0.0925699 1.4818e-17)
(8.14093e-05 0.000922459 8.78791e-19)
(0.0432056 -0.0322156 -1.35608e-17)
(0.00447549 -0.00527976 4.78765e-19)
(0.0401317 -0.0611314 1.12011e-17)
(-0.0206495 -0.0276315 -8.94335e-18)
(0.061397 0.0444755 -1.08964e-16)
(0.016405 -0.00965398 -3.86093e-19)
(-0.000364363 -0.00192101 -2.92852e-18)
(-0.130936 0.0393467 1.66074e-17)
(0.151943 0.0259262 -1.60001e-17)
(-0.000240351 -0.00179191 5.44615e-18)
(0.00209482 -0.00109177 5.36249e-18)
(-0.128268 0.161007 -6.68586e-18)
(-0.0813734 -0.0723537 -1.54646e-17)
(0.0630403 0.0527335 -4.91337e-17)
(4.69243e-05 9.44211e-05 2.80625e-18)
(-0.000913432 0.000293001 5.14086e-21)
(0.0247763 -0.0292299 -1.35322e-17)
(0.0015543 -0.00280819 5.41261e-18)
(0.00897743 0.045483 4.86465e-17)
(0.0247084 -0.0218378 1.88488e-17)
(-0.000204992 0.000559168 -6.24642e-20)
(0.0271509 -0.00673101 4.73661e-18)
(-0.0259045 -0.151778 2.0588e-19)
(-8.27104e-05 0.000351625 -6.20246e-19)
(-0.000159972 -0.0012622 -2.18829e-18)
(0.000243052 -0.000109413 4.20565e-19)
(-0.32631 -0.031088 -4.0171e-18)
(2.25817e-05 0.000628462 -3.16244e-18)
(0.00120773 -0.0025268 -3.7509e-17)
(0.31557 0.0590062 1.7992e-17)
(0.000443716 -0.00242233 1.31703e-18)
(-0.0425367 0.121509 4.98744e-17)
(-0.00395054 0.00202027 2.75627e-18)
(0.00318704 0.00460075 1.9596e-18)
(0.000234146 -0.000159943 -3.13403e-18)
(0.00900415 -0.00873174 -2.26458e-18)
(0.000306723 -0.000221864 -4.12369e-18)
(-0.0264939 0.0101631 -3.45899e-18)
(-6.63911e-06 -0.000162037 -2.45738e-18)
(0.0140019 -0.0166347 -9.39031e-19)
(0.000989586 0.000163663 -8.98751e-20)
(0.147481 0.0547423 7.21786e-18)
(0.0270769 0.0477835 2.13272e-18)
(0.0279634 0.0888075 5.27948e-17)
(-0.000146027 -4.20163e-05 -4.92815e-20)
(0.000123294 0.000981824 2.65438e-19)
(-0.0270594 -0.0158495 -1.70882e-17)
(-0.0144514 -0.00721267 3.01232e-19)
(-0.311581 -0.00353237 -4.97559e-18)
(-0.0299332 0.0949479 -2.62297e-17)
(0.00136377 0.0277804 -3.00843e-18)
(0.000252351 -0.000675702 -4.10687e-18)
(-0.0545922 0.141878 -1.03746e-16)
(0.00390332 0.0335743 -1.43318e-19)
(-0.0116732 -0.0539705 1.03035e-17)
(-0.15431 0.0194134 -8.46104e-17)
(0.0128008 0.0229524 -2.40533e-17)
(-0.0150753 -0.0559868 2.31515e-19)
(-0.00493923 -0.00792246 -2.3293e-18)
(-0.000235805 -0.0157272 -5.54894e-19)
(-0.0591777 0.0857041 7.8999e-17)
(0.0283738 0.00873592 1.14497e-17)
(0.000319792 0.0265429 3.68377e-18)
(0.00870728 0.0360804 1.33074e-16)
(-0.00453502 0.0255536 1.27778e-17)
(0.000718239 -0.00153653 5.66897e-19)
(0.0475898 -0.00708781 -2.22679e-17)
(0.000993351 -0.00357663 -3.08632e-19)
(-0.000127427 0.000538597 8.43368e-19)
(0.00374366 -0.00592125 1.8538e-18)
(-0.0106007 -0.00807644 9.96647e-18)
(-0.00247118 -0.00289599 -5.44322e-20)
(0.000294839 -0.000140439 -1.32022e-18)
(8.52972e-05 -4.2177e-05 2.64918e-18)
(0.0285875 0.017259 1.87545e-17)
(0.00151629 0.000986555 -8.08136e-18)
(0.00604593 0.0478058 -4.78069e-17)
(0.000267406 -0.00049917 3.88649e-18)
(0.000227442 0.000244405 -2.00016e-18)
(1.01401e-05 0.000533433 3.64168e-19)
(-0.000968754 -0.00180272 1.14988e-18)
(-4.84224e-05 0.000406554 3.31236e-20)
(-0.00234862 -0.00158534 -5.10696e-20)
(0.000267685 -5.31793e-05 1.2797e-18)
(0.0878402 0.0374727 5.90366e-17)
(0.00492858 -0.0281614 2.0261e-18)
(-0.0136847 0.0278559 -1.65532e-17)
(-0.000307607 -0.000361488 -7.77344e-19)
(5.11997e-05 0.000550252 4.99295e-18)
(0.00661303 0.00730632 1.49845e-17)
(-0.0275661 0.0167657 5.32038e-18)
(6.85697e-05 -0.00121596 3.67473e-18)
(0.114388 0.056794 -3.17046e-18)
(0.00152793 -0.0238073 1.27767e-18)
(0.416153 -0.0236738 3.01949e-18)
(0.00439315 -0.00567324 -6.43343e-18)
(0.0076998 0.0913973 -8.19873e-17)
(0.000405127 0.00119139 -1.67622e-18)
(-2.63927e-05 0.000498568 -2.30654e-18)
(0.000170344 -0.000183046 -6.68889e-19)
(-0.00135872 -0.000826294 3.20947e-18)
(0.449111 -0.193407 7.23827e-18)
(4.00002e-05 0.000481173 -6.796e-18)
(-0.0745354 0.149305 -3.3863e-17)
(-0.00255492 -0.00176234 -8.80782e-20)
(0.00724853 0.00381135 2.14335e-17)
(0.0112513 -0.00390363 -1.39104e-19)
(0.000528441 -0.0252993 -5.61124e-19)
(0.036801 -0.0589263 -1.20302e-17)
(-0.000375118 0.000356159 -9.40001e-20)
(5.22961e-07 1.45483e-05 1.10181e-19)
(0.00624641 -0.0286931 8.78982e-20)
(8.61945e-05 -0.000764533 5.44057e-18)
(0.000336357 -0.00188095 -9.95026e-18)
(0.0943298 0.0764639 -2.59729e-17)
(-0.000513671 -0.00206181 -3.20536e-18)
(6.12717e-05 0.000974723 5.00086e-18)
(-0.00354615 0.00459161 1.00837e-17)
(0.000146148 -0.00063586 -3.77096e-18)
(-0.000340098 2.22395e-05 7.51027e-19)
(-0.00307509 -0.00222558 -6.99214e-19)
(-0.00100177 0.00155168 7.05607e-18)
(-0.321004 -0.00824144 -1.83691e-18)
(-0.00569869 -0.00450984 2.6945e-18)
(-0.000105826 0.000374428 9.03751e-19)
(-0.000120086 -7.28193e-05 2.3084e-19)
(-0.166212 0.0607797 -2.80335e-17)
(0.0242699 -0.00188002 -6.40725e-18)
(-0.000137662 -0.00195866 2.86561e-18)
(-0.000679899 -0.00156061 -1.46157e-18)
(0.105753 0.0621524 1.9123e-17)
(-0.125701 0.155986 -6.54725e-17)
(0.273802 0.0363376 -3.35327e-17)
(0.00585564 0.00143027 -3.30251e-17)
(0.000936587 -0.00147482 3.38816e-18)
(-0.0002901 -0.000217692 -1.37026e-18)
(-0.000300122 4.46286e-05 -1.12304e-18)
(0.0100499 -0.0188506 1.0745e-17)
(-0.00637625 -0.00479654 1.26413e-18)
(0.0931024 -0.0783934 8.18862e-18)
(0.000613834 1.66098e-05 9.91042e-18)