/*--------------------------------*- C++ -*----------------------------------*\
| =========                 |                                                 |
| \\      /  F ield         | OpenFOAM: The Open Source CFD Toolbox           |
|  \\    /   O peration     | Version:  v2012                                 |
|   \\  /    A nd           | Website:  www.openfoam.com                      |
|    \\/     M anipulation  |                                                 |
\*---------------------------------------------------------------------------*/
FoamFile
{
    version     2.0;
    format      ascii;
    class       volVectorField;
    location    "700";
    object      U;
}
// * * * * * * * * * * * * * * * * * * * * * * * * * * * * * * * * * * * * * //

dimensions      [0 1 -1 0 0 0 0];


internalField   nonuniform List<vector> 
13917
(
(-0.0540437 0.0013085 -6.23914e-23)
(1.03185 0.0618592 -1.64854e-22)
(0.709286 0.095433 0)
(1.07143 0.026126 0)
(1.01649 0.0339302 2.89614e-23)
(1.03121 0.0607372 0)
(1.11022 0.0491852 -2.38572e-20)
(1.02679 0.0696168 -2.79152e-21)
(1.12424 0.0227488 0)
(-0.00476611 -0.0743979 0)
(1.03126 0.0702145 3.63031e-23)
(1.05084 0.026065 -1.69669e-20)
(1.01755 0.0002453 0)
(0.61753 0.0290309 1.09048e-20)
(1.02858 0.0496707 1.1054e-21)
(-0.0622849 -0.000591518 0)
(0.986124 -4.69233e-05 0)
(1.03357 0.0715179 1.59769e-21)
(1.17281 0.118954 0)
(-0.0201547 -0.0484924 -5.68142e-20)
(1.05384 0.0747503 9.37948e-21)
(1.01713 0.0264342 -2.67147e-21)
(1.14152 0.0825127 5.01289e-22)
(1.01655 0.0260685 0)
(1.07111 0.0437336 0)
(1.0493 0.0749051 6.98955e-21)
(0.554984 0.0945028 -6.88649e-21)
(-0.00495197 -0.0684358 0)
(1.03902 0.0744631 -7.06738e-22)
(0.99207 -0.00130156 0)
(-0.0133321 -0.0882638 3.01174e-20)
(1.17673 0.08567 0)
(1.06387 0.0327403 -1.37641e-20)
(-0.02074 0.0146279 2.70061e-20)
(0.999157 0.0124829 0)
(1.0313 0.0690895 5.9674e-21)
(1.04827 0.0509769 -1.22196e-20)
(0.997757 0.00042425 -9.76522e-22)
(1.11238 0.0488557 2.60224e-20)
(1.07201 0.0879568 -1.66882e-20)
(0.990147 -1.09401e-05 -1.78251e-22)
(0.994388 0.0043174 0)
(1.11139 0.0169553 -3.84686e-20)
(1.18618 0.11165 -3.77495e-20)
(1.18293 0.111423 3.23907e-20)
(0.744405 0.112714 0)
(1.05473 0.0730819 2.10074e-21)
(-0.00680676 -0.0102734 1.27005e-20)
(0.870469 0.061598 0)
(0.999391 0.0127497 0)
(1.04963 0.0254602 1.5014e-20)
(1.13001 0.132602 0)
(-0.149594 -0.00941466 -4.82969e-20)
(1.0349 0.029185 0)
(1.03819 0.0305533 5.2278e-21)
(1.1309 0.131741 3.93778e-20)
(-0.00648392 -0.08846 -4.52762e-20)
(1.13935 0.08253 1.26412e-20)
(0.994098 0.00400428 -2.28214e-22)
(0.73433 0.110567 -1.15778e-20)
(0.0315565 0.0283971 -3.83661e-20)
(1.00174 0.0165144 0)
(0.987361 -0.000208081 -1.60503e-23)
(1.07037 0.0423877 -2.64219e-20)
(0.208914 0.0430541 4.68301e-22)
(0.987121 -0.000498266 -9.54237e-25)
(1.03673 0.0736551 5.89338e-22)
(1.03017 0.0687625 0)
(1.03215 0.0716267 1.14293e-21)
(-0.0918421 -0.00107706 -4.19543e-20)
(0.311032 0.0581302 1.1636e-20)
(-0.0333406 0.0116305 3.443e-20)
(1.06155 0.0100029 -9.43764e-21)
(0.993819 0.00398833 -4.99101e-22)
(1.05482 0.0766894 -9.43818e-21)
(1.06448 0.0494987 -7.33224e-21)
(1.0172 0.0330739 -5.73778e-22)
(0.993522 0.00370433 4.63302e-22)
(1.06404 0.0481135 -6.68988e-21)
(1.0649 0.0336126 -1.90275e-20)
(1.02966 0.035441 -6.83791e-21)
(0.986392 1.12795e-05 -1.06259e-22)
(1.06045 0.00916405 2.67802e-20)
(0.294418 0.0601141 0)
(1.02035 0.00541906 0)
(1.04058 0.0821696 -5.13998e-21)
(1.175 0.0841055 0)
(1.01954 0.00274489 1.46202e-20)
(1.07026 0.0862287 1.90466e-20)
(0.985273 -3.07984e-05 0)
(0.985552 4.21168e-05 -5.2087e-24)
(1.11386 0.0169488 2.06314e-20)
(0.849 0.0613358 0)
(0.996566 0.00969013 0)
(1.03844 0.0373694 1.18421e-20)
(1.03781 0.0751308 1.79822e-21)
(0.72011 0.101261 3.34859e-22)
(0.988956 0.000254014 -1.56558e-21)
(1.0203 0.00304356 -9.49501e-21)
(1.05844 0.125357 -3.27874e-21)
(0.987791 -0.000156354 1.57884e-22)
(0.987106 -0.000132837 -2.09733e-22)
(1.03055 0.0363653 3.16945e-21)
(0.990886 0.000831901 1.00794e-21)
(1.01671 0.0323828 0)
(0.253256 0.0532973 -9.70308e-21)
(0.0383322 -0.0200798 0)
(1.0014 0.0161147 4.96848e-23)
(0.99466 0.00434108 0)
(0.475704 0.0857205 -6.48042e-21)
(1.03281 0.00020184 -8.50989e-21)
(-0.0109527 0.0162539 -7.12135e-20)
(1.04037 0.0759005 3.18899e-22)
(-0.019405 -0.0105012 1.2577e-20)
(0.220508 0.0456223 3.64256e-21)
(1.06216 0.0525177 0)
(1.1743 0.116844 0)
(0.9851 -0.000155714 0)
(0.847681 0.102961 0)
(1.05685 0.00325385 0)
(0.985905 4.79785e-05 2.32669e-22)
(0.993008 0.00390388 -2.64789e-22)
(1.03539 0.0741464 2.24608e-22)
(1.14881 0.118697 -6.4461e-22)
(-0.124222 -0.00199655 -4.04477e-22)
(0.26064 0.0581638 3.97931e-20)
(1.07071 0.0401062 0)
(1.05389 0.0783605 -4.42537e-21)
(1.00264 0.0144542 0)
(1.15077 0.119084 -2.59853e-20)
(1.14483 0.0485094 0)
(0.897383 0.128653 -1.29021e-20)
(0.0548019 0.0295167 6.20596e-21)
(1.06077 0.0525802 0)
(1.18042 0.0942451 0)
(0.452163 0.0820638 9.95155e-22)
(0.0332099 0.0266584 8.18016e-21)
(-0.154031 -0.00459855 0)
(1.04672 0.0754192 0)
(0.997933 0.000272589 0)
(0.828786 0.00796787 0)
(0.993249 0.0036956 5.05926e-22)
(0.268148 0.054249 -9.26597e-21)
(1.01451 0.0179402 -4.001e-21)
(1.05683 0.0104426 0)
(0.995714 0.00399323 0)
(0.314375 0.0611208 -3.75516e-20)
(0.848598 0.0129177 -1.43483e-21)
(-0.000119355 -0.0151519 0)
(1.03598 0.0300621 0)
(1.06968 0.0820836 9.82228e-21)
(0.986819 -0.000199172 6.23648e-23)
(1.05581 0.00944872 0)
(1.05727 0.00246475 -1.09137e-20)
(0.639383 0.0946425 0)
(1.01311 0.0263796 7.16526e-22)
(0.990951 0.000930496 -2.01957e-21)
(0.0296042 0.0258555 2.93086e-20)
(0.986414 -0.000105469 3.26883e-22)
(0.985169 -0.000110923 0)
(1.0185 0.0120066 1.272e-20)
(0.189885 0.0247642 2.07543e-20)
(1.04192 0.0551803 4.53242e-21)
(0.800823 0.00691853 0)
(0.0797433 0.0162398 -8.90106e-21)
(0.97305 0.124958 -3.00866e-21)
(-0.116959 -0.0112251 5.34916e-20)
(0.00566134 0.0117379 -4.08352e-21)
(0.988288 -0.000592987 0)
(1.04562 0.0765668 4.92051e-21)
(1.01637 0.0266465 3.60093e-21)
(0.0687379 0.0328848 4.22522e-20)
(1.1242 0.020783 0)
(0.0888167 0.0340127 0)
(1.11427 0.115983 -2.26085e-20)
(0.986317 -0.000183599 -1.37385e-22)
(1.07251 0.0252194 0)
(1.0721 0.132445 -2.5081e-20)
(1.14342 0.0465655 2.29408e-20)
(1.0416 0.0563123 -4.44538e-21)
(1.1088 0.0194524 0)
(1.0161 0.0262398 -1.16137e-21)
(1.0488 0.0260894 2.50213e-21)
(0.809896 0.111117 0)
(0.820365 0.102296 -1.97328e-20)
(0.87042 0.126537 -1.06374e-20)
(1.04765 0.0255824 0)
(0.801042 0.109902 -1.91657e-20)
(0.992059 -0.00124656 4.23423e-23)
(1.03114 0.0814167 3.44345e-21)
(1.11188 0.116782 -3.33055e-20)
(1.17706 0.10872 -3.14309e-20)
(1.00723 0.123519 2.34509e-20)
(-0.0502329 -0.00223312 -3.48014e-20)
(0.996821 0.0099523 0)
(-0.117464 -0.00203228 -4.26169e-20)
(1.08297 0.0583139 1.35333e-20)
(0.0786853 0.0327687 -6.07655e-21)
(0.998732 0.0119767 0)
(1.01311 0.025947 4.07176e-21)
(1.05623 0.0698496 9.90266e-21)
(-0.0844307 -0.000864642 0)
(-0.163361 -0.00609122 2.99254e-20)
(1.04265 0.0474072 0)
(0.56272 0.098595 1.52497e-21)
(1.0398 0.0666383 0)
(1.07117 0.083686 -2.19455e-20)
(0.993277 0.00396368 2.7333e-22)
(1.08969 0.133016 0)
(1.02869 0.0352828 0)
(0.999652 0.0100801 -6.51548e-22)
(1.01665 0.0344874 0)
(1.01677 0.0346946 -4.69251e-22)
(0.00241241 -0.0128676 0)
(1.17996 0.0923829 -3.32136e-20)
(1.04846 0.0762621 0)
(0.130867 0.0153042 -2.67694e-20)
(1.00702 0.00150053 2.74409e-21)
(0.98918 0.000670887 6.12612e-22)
(0.98917 0.000590354 -6.10052e-22)
(-0.00558563 0.0088773 -3.78195e-20)
(0.915132 0.11777 3.09703e-20)
(0.714778 0.103756 9.6533e-21)
(1.03252 0.00299171 6.26712e-21)
(0.988804 -8.01174e-06 1.58084e-23)
(0.383918 0.0719475 2.00731e-21)
(-0.123476 -0.00396004 0)
(0.988537 0.000671951 7.36936e-22)
(0.98832 0.000634422 6.86857e-22)
(0.990972 0.000212996 -1.40109e-22)
(0.989468 0.000551493 5.99446e-22)
(0.989469 0.00046733 0)
(-0.0399672 0.00986711 -3.96602e-20)
(0.0232476 -0.00768552 -5.27506e-20)
(1.02289 0.0301299 0)
(0.989075 -0.000887182 -6.34147e-24)
(1.13108 0.115088 2.5632e-20)
(-0.0559387 0.00776597 0)
(0.985601 -0.000141375 5.40451e-22)
(1.03198 0.00288264 -1.24168e-20)
(0.533449 0.0955296 0)
(0.257018 0.0527003 4.20882e-20)
(0.85936 0.112517 -1.36684e-20)
(0.118022 0.013734 0)
(1.11614 0.130169 2.19684e-20)
(1.01511 0.0181268 4.70358e-21)
(0.0281578 0.0127669 4.12358e-21)
(1.13346 0.116302 0)
(1.04142 0.0749582 -6.50097e-21)
(1.16143 0.103003 -2.29471e-20)
(1.04289 0.0462817 0)
(0.0171369 -0.010832 3.22654e-20)
(1.05787 0.00493618 0)
(1.09389 0.0927004 2.60806e-20)
(1.11396 0.111715 6.15994e-22)
(1.02222 0.0306963 -4.24415e-21)
(0.994192 4.64582e-05 -7.83475e-23)
(1.07148 0.0414074 -1.08913e-20)
(1.0141 0.0309136 -3.59607e-22)
(0.997184 0.0102044 0)
(-0.0978104 0.00291686 4.0245e-20)
(0.629778 0.0148994 -7.45986e-22)
(0.993427 0.00507788 1.5969e-23)
(0.988142 0.000695395 -8.69406e-22)
(1.01365 0.0271571 -8.2549e-22)
(0.988197 0.000776366 1.82916e-22)
(1.05817 0.00420346 0)
(1.02621 0.000494313 -1.28028e-20)
(1.11602 0.07987 3.36559e-20)
(0.993691 0.00517612 2.96417e-22)
(-0.147997 -0.00212825 0)
(0.0502973 -0.0149004 1.45473e-20)
(1.03957 0.0216549 1.44693e-20)
(1.01456 0.0306097 0)
(0.638878 0.102759 1.70339e-20)
(0.989793 -0.000404059 0)
(1.05344 0.118529 0)
(-0.0830413 0.00605074 -3.75991e-20)
(0.989753 -0.000365821 0)
(-0.07837 0.00235777 -8.83435e-20)
(0.996759 0.00974484 0)
(0.203955 0.0277175 0)
(0.987386 -0.000120818 -2.11664e-22)
(1.02806 0.0465154 0)
(1.02228 0.031216 4.56228e-21)
(1.01203 0.0170864 -2.92866e-21)
(0.971619 0.117217 0)
(0.996335 0.000719667 3.6264e-21)
(0.89232 0.119541 -6.1582e-22)
(1.08048 0.0685581 -2.54951e-20)
(0.587343 0.0053266 -4.35698e-22)
(0.995923 0.00427536 0)
(0.692251 0.111119 -2.13055e-21)
(-0.165096 -0.0048153 0)
(0.985116 -0.000109529 -5.92778e-22)
(1.13394 0.0948691 6.20035e-20)
(1.01511 0.0320781 1.98523e-22)
(1.05958 0.0545487 -1.16865e-20)
(1.0161 0.0332778 1.04673e-22)
(1.06554 0.0473776 7.78741e-21)
(0.996551 0.00964485 -2.73025e-23)
(0.99656 0.000943694 -7.65355e-22)
(1.07712 0.13264 5.7346e-21)
(1.00779 0.0232284 -2.49305e-22)
(1.09302 0.0911514 2.17129e-20)
(1.06511 0.0461863 -7.82119e-21)
(1.0312 0.00303205 -2.21989e-20)
(0.0453469 0.028228 0)
(-0.0904394 -0.00324325 6.58942e-21)
(1.00091 0.0129584 6.03856e-22)
(0.996786 9.55032e-05 0)
(1.06091 0.0545182 0)
(1.02433 0.0378915 1.67283e-21)
(1.17285 0.104547 0)
(0.0443202 -0.0142135 2.95334e-20)
(0.114363 0.035139 0)
(0.987994 -0.00338084 0)
(0.980929 0.133292 0)
(1.01404 0.0298135 -3.79375e-22)
(0.321665 0.0626258 -2.87517e-20)
(1.03045 0.0376994 -1.31495e-21)
(0.728221 0.0955761 0)
(1.02564 0.000498358 0)
(1.02804 0.0485354 7.51764e-22)
(0.587735 0.098878 4.45872e-21)
(1.01534 0.0272525 2.22901e-21)
(1.03162 0.0626631 1.06582e-22)
(1.17466 0.108631 9.66718e-20)
(0.986052 5.01234e-06 2.98992e-22)
(0.0763985 0.0335984 3.2379e-23)
(1.02 0.0041952 4.57262e-21)
(1.17073 0.0473682 4.33477e-20)
(0.99288 -0.000768479 -1.60172e-22)
(-0.0248986 -0.060139 -1.51159e-20)
(0.999976 0.00604741 -4.08667e-21)
(1.09433 0.0877489 0)
(1.04034 0.0679716 1.03416e-21)
(0.989591 -0.00395894 -4.73879e-24)
(0.984939 -0.00014838 -5.53295e-22)
(1.16497 0.101021 -5.12502e-20)
(0.297797 0.0580466 1.79566e-20)
(1.03936 0.0361296 0)
(1.01478 0.0269385 0)
(0.00530834 0.0196443 0)
(0.286742 0.0572849 8.31249e-20)
(0.267181 0.0474152 -4.08507e-20)
(0.664067 0.0334259 -1.53355e-20)
(0.989414 -0.000297165 0)
(1.02532 0.0305906 -5.6009e-21)
(0.245787 0.0511604 -4.40709e-20)
(0.990051 0.134695 0)
(0.9894 -0.000252975 8.1987e-24)
(1.01561 0.0328484 -1.68116e-22)
(1.04226 0.0279579 -3.70155e-21)
(1.04928 0.0910372 6.38042e-21)
(1.09489 0.0893808 -2.94322e-20)
(1.14761 0.127634 0)
(1.09853 0.129371 0)
(1.05053 0.116137 2.07625e-21)
(1.16502 0.0531395 0)
(-0.0252328 0.00682827 3.49172e-21)
(1.00314 0.0150073 -6.6696e-22)
(1.04035 0.0361255 0)
(1.01653 0.0341612 0)
(0.838445 0.107006 -2.82847e-23)
(0.986468 -5.41202e-05 6.16081e-22)
(-0.0566808 -0.00170064 -1.09806e-20)
(1.16504 0.0514468 0)
(0.853168 -0.00688461 9.96699e-23)
(1.03845 0.0314689 -3.87468e-22)
(1.09018 0.137592 0)
(0.99688 0.000325124 1.10332e-22)
(0.894597 0.0681908 -6.34657e-21)
(0.994145 0.00321005 -2.32472e-22)
(0.729448 0.10504 -2.17111e-20)
(0.655813 0.105429 -1.30259e-20)
(1.03928 0.0691738 3.05584e-21)
(1.04009 0.0225486 5.29361e-21)
(0.444015 0.072074 -4.86125e-20)
(0.994001 -0.000715811 3.17086e-22)
(0.0700896 0.0175044 0)
(0.949007 0.1193 0)
(0.994192 0.00296616 4.86053e-22)
(0.91172 0.0679436 1.71248e-21)
(1.02147 0.0327337 -6.77818e-21)
(1.01181 0.00805497 4.67978e-22)
(0.993173 0.00604564 7.04416e-22)
(-0.00982259 -0.0423521 2.9831e-20)
(1.01353 0.00975367 -8.55878e-22)
(1.05187 0.0487052 3.9719e-22)
(0.340074 0.0655601 -2.15928e-21)
(1.05147 0.110235 0)
(1.04177 0.044002 1.09837e-20)
(0.160695 0.0274328 -3.98583e-20)
(0.753904 0.0827036 -6.54367e-20)
(1.05285 0.0459873 -1.01386e-20)
(0.942827 0.115763 -1.94741e-21)
(1.02698 0.0299194 -3.218e-21)
(1.04801 0.109551 0)
(0.746605 0.0986518 -4.5033e-20)
(1.02037 0.00366444 6.72489e-22)
(1.11699 0.0391896 0)
(1.06646 0.0455074 1.98672e-20)
(1.01274 0.016588 -7.14016e-21)
(1.00721 0.00760485 9.0362e-21)
(1.00406 0.0158776 0)
(0.00272522 0.0235958 9.12031e-21)
(0.997959 0.128123 4.01874e-21)
(1.03942 0.0338394 -5.94305e-21)
(1.00378 0.0160252 2.31215e-21)
(1.01613 0.0245703 0)
(1.1236 0.0966591 1.47624e-20)
(1.03696 0.0683905 3.25056e-21)
(0.991186 -0.000688099 8.907e-23)
(0.988146 -0.000536516 0)
(1.19003 0.104523 -2.15845e-20)
(1.09835 0.137436 0)
(1.0126 0.0178238 -3.54157e-21)
(1.05172 0.0478068 8.40921e-21)
(0.229054 0.0495386 -1.06284e-20)
(0.509427 0.0742519 5.69265e-21)
(0.985403 -0.000178269 8.12399e-23)
(1.16251 0.118932 0)
(0.364242 0.0669556 0)
(0.992126 0.000271582 -2.36017e-22)
(0.990679 -0.000615766 5.91676e-24)
(1.051 0.06902 1.15757e-20)
(1.007 0.00723589 -2.94024e-21)
(0.991137 -0.000682726 -9.02526e-23)
(1.02297 0.0307671 2.62187e-21)
(0.990656 -0.000603045 -6.97411e-24)
(0.991882 0.000218269 2.47556e-22)
(0.0229471 0.00746378 4.22383e-20)
(1.02787 0.0307627 -3.32499e-21)
(1.07589 0.091251 -6.15293e-22)
(-0.136818 -0.000587781 0)
(1.13151 0.0943598 -4.89434e-20)
(1.00009 0.010568 0)
(1.05438 0.00965667 -8.87659e-21)
(0.170822 0.0273683 2.89439e-20)
(1.05449 0.0696454 -8.72644e-21)
(-0.136771 -0.00335179 5.80193e-20)
(0.992298 -0.000767507 0)
(1.03437 0.00864683 -6.34976e-24)
(0.994406 -0.000730652 -4.9631e-22)
(0.989781 0.000413436 6.99386e-23)
(1.04733 0.0497093 1.42746e-20)
(1.02068 0.0329397 2.06586e-21)
(0.252238 0.0536898 -1.04867e-21)
(0.996027 0.00212776 0)
(0.241001 0.0518329 2.7953e-20)
(1.03378 0.00878955 0)
(1.14012 0.0615323 -5.29486e-20)
(0.996159 0.00259141 2.82037e-22)
(1.02789 0.0342415 -2.91443e-21)
(1.11771 0.128587 -2.29171e-20)
(0.263133 0.0462491 1.13439e-20)
(1.04205 0.0270636 3.96652e-21)
(0.344553 0.0525496 0)
(1.00097 0.0112755 2.76055e-21)
(1.00482 0.00249406 -2.19701e-21)
(1.01544 0.0237833 -7.45263e-23)
(1.02221 0.0331363 0)
(0.998789 0.00911681 -2.65008e-21)
(1.01494 0.00206031 -5.45391e-21)
(0.0392072 0.0273834 -6.76175e-21)
(0.0590729 0.0301752 0)
(0.998363 0.00864549 4.00012e-21)
(0.654797 0.109404 0)
(1.19146 0.106162 2.42986e-20)
(1.03122 0.000844441 1.86432e-20)
(1.13297 0.099578 5.46839e-20)
(1.19981 0.0701644 -1.91479e-20)
(0.122401 0.0173965 3.87141e-20)
(1.12288 0.0401449 3.34969e-20)
(0.259287 0.0530805 -7.03552e-20)
(0.983111 0.00595237 -9.74217e-22)
(1.00098 0.0053841 4.34155e-22)
(1.02134 0.033356 4.28876e-21)
(0.988439 -0.00151884 -1.22851e-23)
(0.996454 0.00276155 -2.18591e-22)
(1.04171 0.0451492 -5.55429e-21)
(0.412686 0.0670896 -2.58422e-20)
(0.985496 4.83485e-05 3.99178e-22)
(1.03476 0.0280916 0)
(1.03947 0.0373615 -2.82735e-21)
(1.12001 0.0323878 0)
(1.05979 0.0761621 0)
(0.904765 0.109401 4.23849e-20)
(1.15355 0.0860336 3.95788e-20)
(0.995952 0.00534713 0)
(1.0146 0.0309764 0)
(1.0341 0.0730013 -1.33053e-21)
(1.07902 0.104691 0)
(1.03854 0.0335033 6.31776e-21)
(0.552095 0.0160726 -1.64898e-20)
(1.12366 0.075496 0)
(1.08209 0.067995 0)
(0.0792747 0.0226931 3.81974e-22)
(1.02056 0.0048098 -5.26927e-21)
(1.07885 0.10688 0)
(1.00382 0.128636 -4.14025e-21)
(1.00229 0.00514993 0)
(-0.0269663 0.017159 -3.16939e-20)
(1.00525 0.00248298 2.76159e-21)
(0.989768 0.000331579 5.18408e-22)
(1.12576 0.0975602 0)
(0.992233 -0.000777552 0)
(1.00681 0.00166025 2.58576e-21)
(1.09812 0.134064 -1.34573e-21)
(0.0075027 0.0226508 -3.14516e-20)
(0.267258 0.0483365 -1.97473e-21)
(1.01856 0.0112948 9.59913e-23)
(1.08165 0.0215385 2.73018e-20)
(0.996111 0.0063617 -1.89683e-22)
(0.457591 0.0747775 2.7533e-21)
(0.485816 0.0874153 2.2261e-20)
(1.03705 0.0319748 1.13099e-20)
(1.03699 0.0298291 0)
(1.01769 0.0101403 0)
(1.11535 0.107249 -4.34466e-21)
(0.991101 0.03284 -1.43699e-22)
(1.00202 0.0144252 -1.06974e-21)
(0.985536 -7.53004e-05 -4.26568e-22)
(1.01256 0.0251588 -2.37527e-21)
(1.01273 0.0158234 -1.68378e-21)
(1.00606 0.0207592 0)
(1.09728 0.0651668 0)
(0.985181 -5.2066e-05 0)
(1.15244 0.0878475 -1.97776e-20)
(1.00218 0.00482787 4.52162e-21)
(1.01753 0.0254586 0)
(1.06619 0.0443609 -4.5114e-21)
(0.0251452 -0.010024 0)
(0.987726 0.000892945 3.70557e-22)
(1.09873 0.0302067 -2.84858e-20)
(0.997389 0.0104871 9.02621e-22)
(1.13852 0.0599253 0)
(1.13983 0.106598 0)
(1.04176 0.0861121 -7.2548e-22)
(1.11522 0.113804 0)
(1.05 0.129168 7.84155e-21)
(1.06152 0.0429464 1.6082e-20)
(1.03448 0.0726667 2.79123e-22)
(0.0965082 0.0353005 0)
(0.0302127 0.00552777 0)
(-0.121388 0.00200614 0)
(0.999291 0.0115465 -2.01698e-21)
(1.01415 0.0228158 0)
(0.996094 0.00541207 1.3862e-22)
(1.03869 0.0155713 6.10398e-21)
(0.206817 0.0467618 0)
(0.99017 -0.000459242 0)
(0.860891 0.0220564 -9.57034e-22)
(1.08436 0.057559 -2.75636e-20)
(0.160898 0.0450646 0)
(1.06227 0.123062 0)
(1.11095 0.0191675 2.17307e-20)
(-0.0108108 -0.0455907 7.07502e-21)
(0.997977 0.00854187 -3.72742e-21)
(1.1895 0.0686693 3.98316e-22)
(0.988562 0.000344834 0)
(0.997391 0.0095889 -4.71831e-22)
(0.136835 0.0421109 2.66622e-20)
(0.991735 -0.000737317 0)
(0.759646 0.0952202 -3.26814e-20)
(0.988814 -6.83936e-05 -5.61252e-23)
(1.02969 0.000493319 -1.32833e-20)
(1.0148 0.0235993 -1.46094e-21)
(0.942034 0.10758 -1.98821e-20)
(1.00594 0.0206182 0)
(0.987646 0.00078173 0)
(1.18941 0.109901 5.70608e-22)
(1.13071 0.098642 -4.91281e-20)
(0.846454 0.0410534 3.01799e-21)
(0.350456 0.0643598 -2.75168e-20)
(0.0550123 0.0289477 -7.55445e-20)
(0.107841 0.0172221 -3.96412e-20)
(0.987789 0.000877967 4.23652e-23)
(-0.109323 -0.001318 -1.3714e-20)
(0.986405 -0.000220684 0)
(0.0449098 0.0278954 0)
(0.903008 0.0130192 -4.73303e-22)
(0.997645 0.00972857 -1.93487e-22)
(0.997589 0.000844712 -1.28575e-22)
(0.987125 -0.000201933 -1.34279e-22)
(1.12212 0.074633 2.04277e-20)
(1.10719 0.0176278 0)
(0.991681 -0.000739266 0)
(0.989032 0.000368347 3.0334e-21)
(1.02285 0.000791584 0)
(0.392404 0.0689301 1.00298e-19)
(1.0214 0.0130666 1.36368e-20)
(1.17464 0.0797691 0)
(1.03366 0.027398 -1.09918e-22)
(0.987499 0.000696188 2.30977e-22)
(0.985416 -0.000157205 6.16545e-22)
(0.805739 0.114843 -1.64036e-20)
(0.304183 0.0471041 0)
(-0.00743819 -0.0439295 6.18633e-23)
(1.15972 0.100984 0)
(1.09846 0.0639524 0)
(0.526966 0.0780829 -3.43566e-20)
(-0.0529556 0.00878548 -4.60227e-21)
(0.993337 0.00626201 -7.14117e-22)
(0.345405 0.0579527 0)
(1.02202 0.000454999 1.72882e-20)
(1.21074 0.0831984 -9.10336e-20)
(1.03813 0.0160434 -6.43218e-21)
(0.461982 0.0741898 0)
(1.01207 0.015187 1.64483e-21)
(1.00652 0.0213367 1.26705e-22)
(1.05821 0.0103853 -1.13709e-20)
(0.855768 0.0367809 -9.10762e-21)
(1.11953 0.0786237 -3.47721e-20)
(0.185688 0.0338407 0)
(0.985529 6.59801e-05 0)
(1.11541 0.0773151 1.75228e-20)
(1.00074 0.0138981 0)
(0.989097 4.84299e-05 0)
(-0.0162058 0.00547181 0)
(0.989067 0.121724 4.13671e-22)
(1.00076 0.0141959 0)
(1.11472 0.127677 -2.23853e-20)
(1.03169 0.00323064 1.6543e-20)
(0.996544 0.00847754 -7.75685e-22)
(0.988185 -9.03073e-05 0)
(-0.0022701 0.00922701 3.2378e-22)
(1.02188 0.0128039 -8.63267e-21)
(1.01459 0.0316866 2.98486e-22)
(0.990181 -0.000486686 -2.58381e-22)
(1.00057 0.0139002 8.79416e-22)
(0.851684 0.109915 -4.19349e-20)
(0.987292 -0.00019047 0)
(1.15222 0.125528 2.47132e-20)
(0.986987 6.47043e-05 -1.10818e-21)
(1.00088 0.00602741 1.00227e-21)
(0.0230336 0.0265045 4.141e-20)
(1.17618 0.0811065 -3.34534e-20)
(1.03606 0.0310476 -8.758e-21)
(-0.197735 -0.00910713 6.87424e-20)
(0.793199 0.0932809 0)
(1.02864 0.0677139 -9.01234e-23)
(0.981831 0.129136 4.79326e-21)
(0.997562 0.00808526 1.25376e-21)
(1.02802 0.0503504 3.85421e-21)
(0.0128532 -0.0161573 -2.41989e-20)
(0.709024 0.0848182 -1.98058e-20)
(1.05174 0.0675715 0)
(1.04943 0.050978 1.11029e-20)
(1.0068 0.0216452 0)
(0.986673 0.000113533 6.50611e-22)
(1.00577 0.016674 0)
(0.985835 -0.00365334 0)
(1.13903 0.110657 0)
(1.07489 0.0556128 0)
(0.0506454 0.0205939 4.4381e-22)
(1.12171 0.0792137 3.47273e-20)
(1.04421 0.0700907 1.52057e-21)
(0.447338 0.0827316 -4.71881e-20)
(1.0077 0.0237967 7.55002e-22)
(1.09955 0.0838506 0)
(1.03115 0.123552 -2.4961e-20)
(-0.0681768 0.00452906 3.48511e-22)
(0.996768 0.00990662 5.43948e-22)
(1.00838 0.0255597 -7.25183e-23)
(0.985551 -0.00563759 -4.19999e-23)
(1.00133 0.00601083 -1.04779e-21)
(0.9861 0.000169178 -9.64456e-22)
(0.98538 -0.000130338 -1.70398e-22)
(0.996333 0.00643435 0)
(1.01017 0.00178821 3.23709e-21)
(-0.106576 -0.00216399 -4.39473e-20)
(1.15628 0.0426914 7.32032e-20)
(0.99373 0.00136794 0)
(1.17487 0.106445 0)
(0.985672 0.000107413 5.45319e-22)
(0.0591081 -0.0083398 -4.99939e-20)
(0.996571 0.00947244 -4.08483e-22)
(1.00223 0.014255 -1.18058e-21)
(-0.0112739 0.0197326 -3.23563e-20)
(1.14065 0.102449 1.70069e-20)
(0.864006 0.0126131 2.87347e-23)
(1.06281 0.0142866 2.77573e-20)
(0.995268 -0.000333661 -1.34e-22)
(1.00034 0.0129108 0)
(1.0746 0.0181964 0)
(1.11563 0.0553524 0)
(1.01024 0.0167634 0)
(-0.144616 -0.00476688 -4.83503e-22)
(1.08208 0.0740156 3.61831e-21)
(0.952478 0.0188185 7.46844e-22)
(0.886806 0.0114739 4.56969e-23)
(1.00817 0.0250171 3.80569e-23)
(0.0543593 0.0299894 -3.1424e-20)
(1.08126 0.0227572 0)
(0.990596 0.000516345 0)
(1.00087 0.0141426 0)
(-0.0719251 0.00804093 3.66949e-20)
(0.287858 0.0544437 2.30734e-21)
(1.08326 0.0600375 0)
(-0.13137 -0.00224355 2.42972e-20)
(0.888966 0.0391944 0)
(1.00039 0.00651165 9.7596e-22)
(1.00138 0.0135032 0)
(1.04592 0.0497333 6.62455e-21)
(0.272597 0.0556334 -5.19605e-21)
(0.962971 0.00613023 -1.8633e-22)
(1.11818 0.0805488 -3.93511e-20)
(1.07313 0.0182177 -5.16994e-21)
(1.09828 0.0314946 -1.03294e-20)
(1.21309 0.083112 1.08426e-19)
(1.01406 0.0294783 8.04885e-22)
(1.15245 0.126515 0)
(1.15572 0.0447984 -6.62049e-20)
(1.03739 0.0362719 -4.78564e-21)
(1.06453 0.0342417 2.24077e-20)
(0.990939 0.000514683 1.25753e-21)
(1.11391 0.0550428 -7.55502e-21)
(1.01408 0.030565 0)
(0.697278 0.0802547 0)
(1.05807 0.0562082 0)
(0.997399 0.00838293 1.62405e-22)
(-0.138781 -0.00474963 1.2896e-20)
(0.993177 -0.000939961 0)
(0.899274 0.0353365 0)
(1.04964 0.0495548 -6.89276e-21)
(1.03362 0.0596117 0)
(1.09007 0.0548988 -9.7459e-21)
(0.752493 0.090384 9.68329e-21)
(0.985581 3.70189e-05 0)
(1.18836 0.0645357 -6.47447e-20)
(0.327257 0.0490744 9.82873e-21)
(0.901006 0.0149722 -2.05878e-23)
(1.04047 0.0153266 1.21624e-20)
(1.05948 0.0561631 1.2555e-20)
(1.00782 0.00108293 -1.65626e-21)
(1.03422 0.0124704 0)
(1.05762 0.0081705 1.91554e-20)
(1.01928 0.0415382 -3.80449e-22)
(0.996292 0.00230132 1.56513e-22)
(0.858106 0.122968 -1.59302e-20)
(1.14591 0.126466 -1.8558e-20)
(0.996772 0.00753054 -3.69002e-21)
(0.620001 0.0777991 -3.93149e-20)
(1.12265 0.0236538 0)
(1.11994 0.0337347 1.15131e-21)
(1.08843 0.126043 2.30225e-20)
(1.02538 0.0314204 0)
(1.18785 0.0698617 -3.49363e-20)
(0.76581 0.108723 6.41848e-22)
(0.987291 0.000802923 -1.45426e-21)
(1.14214 0.101282 3.32194e-20)
(1.10972 0.123844 1.80949e-20)
(1.15328 0.0455356 0)
(1.00374 0.0138684 0)
(0.999641 0.00970245 -2.86538e-21)
(1.00534 0.0164273 -6.92673e-23)
(-0.0960325 -0.00281394 5.17451e-20)
(1.0621 0.0323336 1.23253e-20)
(0.996639 0.00937609 3.6101e-22)
(1.16794 0.0483352 0)
(1.01083 0.0174505 0)
(1.00056 0.0114815 0)
(1.14343 0.131884 -4.80854e-20)
(0.853513 0.116519 -1.56866e-21)
(1.01747 0.0398955 2.12097e-21)
(0.459453 0.0704098 -2.73789e-21)
(1.05057 0.0891697 -2.10411e-22)
(0.237341 0.0497423 4.1446e-20)
(1.05833 0.0073031 2.63703e-20)
(1.01722 0.0334626 1.02526e-21)
(0.554923 0.0827581 -1.99977e-20)
(0.997536 0.00943093 2.13428e-22)
(1.0019 0.0172241 -5.58189e-23)
(0.985348 -0.000162213 0)
(0.986384 0.000222272 0)
(1.06044 0.0164655 0)
(1.05642 0.0577672 1.65699e-20)
(1.04157 0.0884707 0)
(1.00334 0.0135813 3.27064e-21)
(0.991997 -0.000974077 1.15054e-22)
(1.01035 0.0230514 -7.1535e-22)
(0.921642 0.0156892 3.20316e-21)
(1.05095 0.0497191 8.20544e-21)
(1.12336 0.0383302 0)
(0.992793 -0.00078628 3.63655e-22)
(1.16046 0.104474 0)
(1.0286 0.0477625 -7.47157e-22)
(0.219095 0.0334473 -4.34248e-21)
(1.01713 0.040638 -1.58442e-21)
(0.985969 -0.00020159 4.49704e-22)
(0.0356063 -0.0146275 0)
(1.06383 0.0360804 -9.24708e-21)
(-0.101402 0.00146397 -4.07248e-20)
(1.10588 0.0145476 0)
(1.01539 0.0405645 0)
(1.01465 0.0295252 0)
(0.997774 0.010207 9.67437e-22)
(1.03985 0.0144822 1.22298e-20)
(0.0900647 0.0342973 0)
(1.11106 0.0566458 -2.45264e-20)
(1.03194 0.0685503 0)
(0.481306 0.0668875 4.80105e-21)
(1.03364 0.0120676 1.04156e-20)
(1.1531 0.0476236 -3.61663e-20)
(0.988987 -0.000863035 1.87994e-23)
(1.0007 0.0145987 -8.03477e-23)
(0.995981 0.0356001 0)
(0.989262 -0.000935507 9.38478e-24)
(0.0369506 0.0108016 -2.77582e-20)
(1.10147 0.0286413 1.9454e-20)
(1.01476 0.0414796 -1.6075e-21)
(1.17024 0.116267 0)
(1.01458 0.0391233 6.48836e-22)
(0.989133 0.00189776 0)
(0.987286 0.000393872 0)
(1.10569 0.133045 0)
(0.997184 0.00797153 2.55551e-21)
(1.03291 0.028593 -8.71047e-21)
(1.05388 0.0443385 1.54513e-20)
(1.01288 0.0218747 -1.2784e-21)
(1.16755 0.050249 0)
(0.988936 0.00176831 2.53642e-22)
(1.03241 0.0902133 3.66219e-21)
(1.03634 0.0363274 0)
(-0.063098 0.000474192 4.21398e-20)
(-0.108326 0.00123075 0)
(1.02076 0.0356456 0)
(0.230473 0.0499261 -4.62633e-20)
(0.357772 0.0590949 6.74624e-22)
(-0.0670093 -0.00123992 -4.52088e-20)
(1.02429 0.0396728 7.00215e-22)
(0.997783 0.00552519 -3.08567e-21)
(0.996118 0.0078448 2.67035e-22)
(1.04824 0.0166752 0)
(1.05754 0.0382943 0)
(1.01771 0.0107794 0)
(1.11309 0.0568717 4.17302e-20)
(1.0214 0.0165902 -6.31493e-23)
(1.03774 0.0676708 -4.12719e-21)
(1.03394 0.0293739 8.99303e-21)
(0.439701 0.0739811 0)
(1.06139 0.0307863 6.59339e-21)
(1.14835 0.0340504 6.52154e-21)
(1.08991 0.127361 -2.11908e-20)
(0.998789 0.011486 -2.78986e-21)
(1.07182 0.0900905 -1.35004e-21)
(1.06307 0.0366459 0)
(0.99804 0.0106421 2.1898e-22)
(1.09845 0.0522357 0)
(0.994088 -0.000672064 0)
(0.0509692 0.0282853 0)
(1.13986 0.113116 -1.78789e-20)
(0.99342 -0.00385585 -9.47797e-23)
(1.00054 0.0127619 1.73599e-21)
(1.04191 0.00125006 -1.83866e-20)
(1.0153 0.0265954 -2.37474e-21)
(1.0109 0.0237785 -6.99622e-22)
(0.0893097 0.0215084 -3.08716e-20)
(0.998616 0.00598185 0)
(1.01207 0.125229 -2.72677e-21)
(1.01205 0.0145634 0)
(0.935731 0.000414704 0)
(1.02573 0.0441831 -1.17754e-21)
(1.01684 0.0177871 0)
(1.19004 0.0660256 -4.37402e-20)
(1.0021 0.017067 0)
(0.999022 0.00642072 0)
(0.876919 0.0122097 3.0981e-23)
(0.368542 0.0601116 -2.88914e-20)
(1.03982 0.048298 -5.34697e-21)
(1.16391 0.102781 8.45584e-20)
(0.996166 0.00762776 -3.3361e-21)
(1.05341 0.124056 1.01056e-21)
(0.995218 -0.000432138 -1.4545e-22)
(1.01143 0.0240946 3.14111e-21)
(-0.0362833 0.00399264 -7.33575e-20)
(0.986982 0.000288996 0)
(1.07249 0.0275617 0)
(1.17281 0.106284 2.97211e-20)
(-0.0448415 0.00387236 7.78926e-20)
(0.99573 -0.000303924 1.4493e-22)
(1.03388 0.0446119 2.17097e-21)
(0.496889 0.0765394 0)
(0.994392 0.00375781 7.93033e-22)
(1.018 0.0318097 0)
(1.01353 0.0226267 0)
(0.392885 0.0696386 0)
(1.04033 0.00225478 -2.57064e-21)
(1.19001 0.111834 0)
(1.0508 0.0219967 -5.35627e-21)
(-0.0214942 0.0188329 4.6356e-20)
(1.02708 0.0460387 0)
(0.356052 0.0721567 1.23044e-21)
(1.00415 0.0162426 0)
(0.991184 -0.000727965 0)
(1.01814 0.0112961 0)
(1.01275 0.00132579 0)
(0.993079 -0.00114973 1.3865e-23)
(0.123231 0.0385904 2.38413e-20)
(1.04648 0.043636 0)
(1.00567 0.00852189 1.34939e-21)
(1.03834 0.0374977 1.79755e-21)
(0.994411 0.00347935 -4.24154e-22)
(0.996046 0.00758866 -1.97092e-23)
(1.14073 0.109186 0)
(1.05145 0.045094 0)
(0.196901 0.0440254 7.90994e-21)
(1.07613 0.0890663 1.24874e-20)
(1.19704 0.0733181 -3.69909e-20)
(1.0134 0.129552 -8.21567e-21)
(1.09627 0.0319263 0)
(-0.00946771 0.0196591 -8.9017e-21)
(1.03739 0.0384423 -4.99519e-21)
(1.14143 0.105122 -1.64798e-20)
(1.03708 0.00822175 0)
(-0.118663 0.000948542 0)
(0.958722 0.00111987 0)
(1.06611 0.013019 7.95945e-21)
(0.995201 -0.000484365 1.43776e-22)
(0.997431 0.0100317 -3.10424e-22)
(1.0379 0.0320083 0)
(0.994672 -0.00056596 1.57234e-22)
(0.991677 0.00196091 5.87209e-22)
(0.993895 0.00587812 3.61613e-22)
(1.03977 0.013136 5.92009e-21)
(1.0948 0.0676135 5.77248e-21)
(0.987169 0.000707889 9.51539e-22)
(1.04639 0.0423875 7.25756e-21)
(1.17234 0.0933134 5.42265e-20)
(0.0665149 0.0115845 -2.65369e-22)
(0.196617 0.0286808 2.20607e-20)
(1.17119 0.103779 0)
(1.01595 0.0269221 -2.39434e-21)
(1.01887 0.0106329 -4.3712e-22)
(1.02001 0.0146316 0)
(0.577238 0.0849669 -2.05035e-20)
(0.98379 0.0350424 0)
(-0.146876 -0.00829227 6.69245e-20)
(0.989906 -1.54039e-05 2.40153e-24)
(0.998164 0.00594214 3.11521e-21)
(1.02591 0.00236273 -4.68829e-21)
(1.0267 0.0273816 3.28546e-21)
(0.98973 -2.70268e-05 2.99964e-22)
(0.994287 -0.000784254 0)
(1.02623 0.0139915 -3.22107e-21)
(1.10012 0.0858888 -1.42797e-20)
(1.00617 0.00857648 1.40136e-21)
(-0.00231492 -0.0433146 0)
(1.03782 0.0388179 -1.61281e-21)
(1.00521 0.011222 -6.07816e-21)
(0.107123 0.0378323 0)
(1.03796 0.00837848 -1.43717e-21)
(1.00451 0.016163 -1.69337e-21)
(1.00106 0.0154256 0)
(0.00850683 0.00842028 2.47363e-20)
(1.07598 0.108171 7.04015e-21)
(0.985522 -0.000117946 2.02737e-22)
(0.872843 0.011537 -3.65016e-22)
(0.998736 0.0119454 1.8246e-21)
(1.00329 0.0154095 -2.40995e-21)
(0.54803 0.0742888 0)
(0.996459 0.00822073 0)
(0.631866 0.0917905 0)
(1.07432 0.0279298 0)