/*--------------------------------*- C++ -*----------------------------------*\
| =========                 |                                                 |
| \\      /  F ield         | OpenFOAM: The Open Source CFD Toolbox           |
|  \\    /   O peration     | Version:  v2012                                 |
|   \\  /    A nd           | Website:  www.openfoam.com                      |
|    \\/     M anipulation  |                                                 |
\*---------------------------------------------------------------------------*/
FoamFile
{
    version     2.0;
    format      ascii;
    class       volScalarField;
    location    "350";
    object      omega_0;
}
// * * * * * * * * * * * * * * * * * * * * * * * * * * * * * * * * * * * * * //

dimensions      [0 0 -1 0 0 0 0];


internalField   nonuniform List<scalar> 
13917
(
0.0355805
0.0220169
2.90653
0.0222443
0.0221091
0.454182
4.00128
2.52312
5.09257
0.05518
0.100546
0.0439598
0.0222721
18.2443
0.0255702
0.0243648
0.0221221
0.0407245
0.0430095
0.0221124
0.0222666
4.03089
0.0220902
1.67375
0.0220064
3.92366
0.0417697
0.0536264
0.676941
0.0788996
0.0371649
0.025889
0.0357949
0.0259553
0.0220274
0.191922
0.0220992
5.13869
0.0229244
6.76698
0.0218891
0.0222858
0.021558
0.0809806
0.0218519
0.0275742
0.0399463
0.0506096
2.96553
0.0220185
0.0240437
0.022392
3.7754
0.0262631
0.0221375
0.0243531
0.0999528
0.0219992
0.023458
0.0218337
11.4163
0.0220156
25.0534
0.0221008
0.420437
9.33518
0.0221086
0.0220625
0.11102
0.033236
0.0221165
4.40778
6.20245
0.0220123
2.93627
0.0506291
6.79411
0.0221656
3.81881
0.0222363
0.022204
0.0221155
0.385646
5.24346
7.42532
0.0221024
0.0221792
6.15881
0.0238789
0.0215465
6.00906
0.0713717
0.0218055
0.0228533
8.36033
0.38874
0.0790946
0.0469273
0.0854836
0.107042
0.0218091
0.0329467
0.0817352
0.0223075
0.0217716
4.47247
0.410194
0.0529942
0.0221202
0.0399388
6.95773
6.4577
0.0551951
4.54657
0.0230656
3.0232
0.022003
1.46957
5.83652
0.0262135
0.0222737
0.110102
5.25344
0.0504218
0.0219765
0.0227107
0.0218615
0.021984
0.0215905
0.43204
4.5006
0.0229694
0.0218663
0.0222741
0.362629
1.46079
0.0359863
0.11412
0.0221016
0.0261462
0.171848
0.0217086
0.0225924
0.0995048
0.0220628
1.12055
0.71511
0.0223309
0.0216931
0.0264455
0.0396325
3.12747
0.057567
0.0386533
0.0248516
8.57773
0.0321597
0.272387
7.77066
0.361636
0.0241536
0.0428039
0.0222363
0.0756299
0.0542621
0.0839619
0.0222967
0.0426868
0.0217771
0.0339968
0.0386068
8.30625
0.0595968
0.022364
0.419235
0.0424865
4.52889
2.00877
0.8937
0.0218721
0.0735427
0.0381993
0.0216999
0.0221701
0.0293578
3.53854
0.228233
11.8035
0.0300189
0.0786691
0.184633
8.51677
0.224967
0.0221009
0.120585
0.0404307
0.0223088
0.0218109
0.214493
3.67025
0.0234638
0.0220341
0.039634
0.0389947
6.24021
0.281018
0.0220299
0.02201
0.0457794
3.07388
0.0224914
4.08118
7.457
0.0789552
0.0217805
0.556863
0.0403932
7.72362
0.0219526
10.4802
0.021873
0.0706058
0.021885
5.40892
4.69826
0.0246166
1.41328
0.025022
0.0217853
0.190819
0.0582506
0.0297458
1.24075
8.81917
0.0217655
0.0262333
6.22839
6.44431
0.0222285
0.0219446
5.5652
0.0884842
0.0222668
0.156501
0.0707179
0.0415249
0.0326348
0.0222283
0.0426601
8.15805
0.0216667
0.0939863
0.140489
0.0218465
0.0219938
0.0467733
3.94451
0.0547652
0.0296154
0.0256314
0.0222712
7.6543
3.25375
0.165335
0.0217945
6.42153
8.13864
0.287581
3.82739
0.0534862
0.0222147
0.0219332
0.0398344
5.50078
0.0819739
0.0232726
0.306043
0.0299468
0.0215853
1.68413
0.0220889
0.427776
0.0232598
0.022262
0.0262507
0.0384064
0.0428482
0.161316
0.0309825
0.0217523
0.259072
1.31877
4.93664
0.0219547
0.303292
0.0221738
0.0217458
0.022011
1.02905
0.0221056
0.0755711
0.032065
0.0217652
0.0396099
0.0225886
2.4739
0.0414243
0.0655878
0.0217027
0.0219862
6.82712
6.33904
0.0219964
0.0219092
1.41544
0.0218519
6.27883
0.0217044
5.51164
0.0218039
0.365627
0.0270679
3.03723
0.0238679
0.333763
0.301654
0.0262338
0.0883133
0.468636
0.0221666
4.74995
0.124264
6.86348
0.0249222
7.06826
0.02663
8.19047
0.244899
0.102222
0.0997605
3.49574
0.0222163
0.0397692
7.28669
0.0221474
0.0230791
7.23998
0.25838
0.0222837
0.167747
0.629218
0.0218544
6.44273
0.18139
0.0220822
0.0218811
0.0221814
0.0216865
0.247237
0.629527
0.711074
7.09904
0.0220087
0.10481
7.56212
0.0316092
4.1338
5.56187
5.01625
0.0217552
0.160611
0.02186
7.71158
0.0218365
3.76492
0.0709216
0.0227055
0.0221978
0.0435985
0.0798484
0.0537359
9.69036
7.51776
10.8223
0.0445035
0.052378
0.021953
6.83943
4.14418
0.0219957
0.309071
0.0220393
0.190432
0.0218043
0.0222264
0.0226592
3.54663
0.0226401
3.74323
10.5067
0.0900831
0.461472
0.0221502
0.471984
0.414568
0.0220343
0.285847
0.0221269
0.0220241
0.0792342
0.0222616
0.022012
0.0218556
0.208341
0.0222476
6.25372
3.05385
6.12561
0.225684
3.86856
7.60876
0.0312714
0.0220156
0.121019
0.0228435
0.0270896
0.0220928
0.815664
3.65282
2.29934
0.024412
0.0777373
0.0246839
0.0231064
0.0533568
0.0225693
0.162942
0.022103
0.0220964
6.55433
4.47769
4.49574
0.107032
7.15307
4.82287
7.46932
6.86174
0.0216219
0.0426136
0.0226076
0.0220381
0.264463
0.0405199
0.0217311
0.049
0.0303589
6.62314
0.0220299
0.0785826
18.7308
0.559938
4.78712
0.022255
0.0220047
0.0222719
0.032406
0.0217574
2.83363
0.563609
0.030744
7.71739
0.0243066
0.0771132
7.92514
0.724067
0.0868291
0.176403
0.078309
0.048763
0.112108
0.0306874
0.0999172
0.556692
0.0333137
0.0572413
0.0218053
0.318836
0.0244734
0.0215636
0.0311527
0.0222059
6.82474
4.57967
0.0218507
0.0215977
2.07952
9.85681
0.0222618
6.53858
0.02206
0.17263
0.0218613
6.37387
0.266671
0.0264038
0.0220337
3.8905
0.190321
8.23042
0.0222694
7.25384
2.59612
2.07999
0.0215734
6.7724
7.37054
0.0314887
0.0218737
0.0221413
0.0506719
0.212475
0.0216853
0.0218892
0.0219578
0.021952
6.62781
0.263533
0.03118
0.220412
0.0219574
0.0218172
0.0764107
7.44564
0.0284982
0.0217812
0.0220195
0.0220739
2.02511
9.6998
0.0221735
0.0220698
0.157806
0.0304861
0.027064
0.0220047
0.0227394
0.0254052
0.0559299
0.360488
0.227054
0.121922
0.0699373
0.287149
0.0646595
0.0219663
7.08379
0.0220778
0.0232902
0.0226243
0.311611
0.0698748
0.0218212
0.553449
0.0880405
19.801
0.0703292
0.0349239
0.0313858
0.0221892
5.74162
0.388747
4.93404
0.0220517
0.0259401
0.219733
5.657
26.2719
0.0493035
0.12239
0.0243371
0.0231415
0.0220089
0.0525507
0.0862576
0.0222212
0.0398454
0.134207
4.85746
7.59608
0.023309
0.0745604
0.250212
0.0271743
0.0223893
3.59911
2.19823
1.54328
0.201392
0.0216046
6.52104
0.0495772
0.0218492
0.0277696
0.0520808
0.034441
0.0770369
3.8654
0.108943
0.0284301
5.84787
0.0223884
7.92547
0.0222371
0.0221667
0.303275
2.17411
0.639402
0.0223746
0.022314
0.0220715
0.0303601
3.29158
0.0792892
0.0232384
0.0815131
0.0427041
0.0218639
1.44481
0.0771273
0.166548
0.0219315
0.10559
0.0222023
15.0911
0.0565154
0.0698797
0.0261451
0.0218778
0.0216032
0.0218762
0.109221
0.0279267
0.199694
7.72816
0.0423071
0.0218642
0.107719
0.664942
0.209902
0.021661
0.0272046
0.0218977
0.0244003
0.0235517
7.40116
0.0222282
2.51628
0.0243392
0.100143
0.072657
6.26662
0.0722687
0.0221066
5.68218
14.6515
0.0219624
0.022582
0.276874
0.172704
0.0815663
0.0222376
0.0220511
0.282075
0.0227582
0.0535111
0.0446139
0.0216015
0.0387412
2.63056
0.0216426
0.0220344
0.0219779
6.01678
0.0222655
0.024132
7.72944
0.0230252
1.8164
0.0249286
0.0365206
0.0219703
0.046777
0.0220202
0.0481624
0.0218838
0.0765854
0.0220615
29.5293
3.06186
7.51203
0.0221837
0.0222059
0.0602788
0.04177
5.61458
6.53797
0.0405181
0.0220309
0.2018
0.696563
0.165186
0.187115
0.03793
3.61504
0.0353812
0.0291494
0.105757
0.171688
0.0400353
1.10071
0.0399597
0.0222763
0.0546244
0.0262752
0.0216037
0.0243224
0.0399073
0.0260423
0.0220277
0.021921
0.0425705
0.0223285
0.0542024
0.0220325
0.0220555
0.0222732
0.0226918
0.0214964
0.0244605
0.0219982
6.43884
0.0429147
0.381466
0.0217835
0.022247
0.0474861
0.0495036
0.0227915
2.91603
0.0688766
3.77368
0.024375
0.0878406
0.0219498
0.0222687
0.0219344
0.0226174
9.67739
0.0222549
0.327638
0.024657
7.02286
0.0467006
0.0696483
0.0982436
0.0216454
0.022291
0.0437986
0.0220572
0.0223067
1.27982
0.0224235
0.0221811
0.0252068
0.0219388
0.0216498
0.025993
0.0285819
8.65596
0.0314118
0.02164
0.021867
5.86446
0.107131
0.0220862
0.0220474
1.91111
0.267702
10.26
0.0349623
0.0222904
0.0217768
0.0216359
0.0340026
0.0320667
0.156641
0.0252618
4.75115
0.0220649
0.0234293
10.9446
0.0220458
0.0244935
0.0219401
0.0220803
0.0390287
0.04392
0.0220457
1.8393
4.59244
0.0734178
0.0219613
0.021537
0.0769351
0.315617
0.0222613
0.262411
0.0215415
0.0374377
0.0215432
0.0216314
0.228062
0.0217669
0.253852
0.0341319
0.0222731
0.0215899
0.0220967
0.0218839
0.0220046
4.26563
0.0216433
0.0216631
5.26502
2.20339
0.029074
0.0408568
0.0504692
0.0233019
0.0217216
0.0282814
6.31395
0.0803039
0.0221288
0.0220042
6.20123
0.0291909
7.70798
0.022266
0.0229095
7.29936
0.0275099
0.0220738
9.74988
1.7548
0.0218817
0.0971398
0.0219317
0.0217592
0.02177
6.49354
0.0214909
0.0216074
0.0217138
0.23628
0.0226855
0.171242
0.0646702
0.0216141
0.0331595
0.0221737
7.24387
0.0219594
0.0216455
0.0221818
0.0797591
0.0221743
0.108632
6.23178
0.952395
0.0266653
0.181463
7.14024
0.0219786
7.46743
12.0051
6.80571
3.90177
5.52486
37.0307
0.101656
0.0221532
3.88726
0.0275318
4.34506
0.0215747
0.0217981
0.0220921
0.0221668
0.0236599
0.0308244
5.502
0.0217913
0.0220744
7.58049
0.26142
0.0220973
0.0395202
0.0262955
0.021887
2.88157
0.0411672
0.023624
0.0226692
6.28657
9.19788
1.34722
0.0215411
0.1924
0.0873559
6.43735
5.41886
0.0581898
0.0218555
0.0219808
0.0220675
0.0214679
0.022737
0.0216162
0.0254842
0.0346162
8.37478
0.0883484
0.0216184
0.085264
7.6047
0.0367341
0.0223022
7.53777
0.02176
0.0222425
0.0379175
9.66071
0.0221753
0.0219307
4.18148
0.160867
0.235014
0.0753468
0.193483
0.0219048
0.120852
0.0223265
0.0219945
0.022334
3.34035
7.97093
0.0216457
0.0215834
0.0219498
0.277634
0.0226073
0.0259594
0.0220565
0.0222124
0.118889
0.0216158
0.0487059
0.296253
4.46313
0.021833
0.0753968
0.0234436
6.28529
7.36043
0.0220137
6.81102
0.0533876
1.46092
0.0221736
3.64638
0.0222456
0.0242972
0.0382063
0.0754016
2.77164
0.174424
0.108034
2.73564
0.0218588
0.172703
0.0216236
0.0261842
4.31338
0.0220424
0.0222532
0.0223639
0.0218875
7.55967
0.021646
0.0220809
0.0394997
0.0400925
0.0371542
0.595122
0.0845683
9.45493
0.0433953
0.0287731
0.0287178
5.84444
0.0295438
10.4211
3.93444
0.0231811
0.0216073
3.67023
0.166094
0.0223331
0.0799265
0.028624
0.0218118
0.0238209
0.0219029
0.0382544
0.0222921
0.0372579
0.106336
0.0218681
0.0489245
0.0216788
0.0559137
0.0218784
0.0263715
0.0435901
0.0223937
0.0217848
0.0216545
2.09924
0.0683457
1.15094
0.0220083
0.021969
0.0431542
0.0219425
0.0711733
0.0683852
0.0218132
0.0709737
0.0216702
6.88351
0.0222871
0.0281775
6.67287
0.166406
0.0219116
0.0231187
6.92395
0.0219966
0.0219097
6.43596
6.73911
0.0243287
0.103361
0.022103
0.0217773
3.09115
0.0225101
0.021655
0.175274
0.0216698
0.246146
0.0221975
0.0216616
0.0220996
0.0863109
4.16846
0.0221001
0.0221782
0.0219065
0.0251616
0.0220773
0.989615
0.0465333
0.0222688
0.571002
0.0469997
0.181375
4.85916
3.7188
0.0216384
0.02224
0.0219743
0.690102
0.0257135
4.22812
7.4659
0.023821
4.4701
2.32028
0.0373052
0.0960445
0.0641664
0.393771
2.25961
0.0590153
0.874169
5.32049
0.0433164
0.0245491
5.7164
0.0537525
0.0215855
0.0223829
14.1409
0.0356443
0.0218449
0.0484484
0.0768342
0.0346372
5.53838
0.0231609
1.27863
0.0288855
0.161765
0.0902213
0.205373
0.0257965
0.0216706
0.022312
1.96737
0.0219879
0.0239729
0.0217592
0.0227411
0.0217808
0.0342523
0.0973611
1.93092
0.0430258
0.0607572
1.71878
0.316177
0.0217629
0.267202
2.95486
0.0216822
0.0219003
0.0267573
8.46401
0.0222545
0.0532484
0.555069
0.0435032
0.0220614
0.0221395
0.0216671
0.0802701
0.0369844
0.0219892
31.272
3.68293
0.0405621
0.27634
0.0438408
1.96382
0.0229443
0.0234507
0.693668
0.279728
0.0588934
1.74789
0.0261006
0.0222762
0.0217193
0.0220029
0.0220273
0.0226419
0.0484614
0.0219216
0.0807743
0.0219382
0.0255738
0.0216126
0.0688627
0.0795836
0.610651
0.0219709
0.203329
0.0217224
0.375724
0.0220336
0.0259463
0.0221227
0.142818
6.25526
0.0910154
0.0219128
0.0885976
0.0219416
0.0271311
6.45035
0.0217544
0.0223574
0.0386149
0.027764
4.30868
0.0219218
0.0287287
0.0220884
0.0220364
0.0318024
0.0222508
0.0217382
0.0235505
7.52808
0.0233648
0.17094
1.54786
0.0403241
4.11475
0.0232248
0.0217441
0.0299383
8.76831
0.0221935
0.0341669
0.0309388
1.94048
0.0218704
6.84347
0.0498144
0.0533465
0.0216708
0.0216068
0.104819
0.0224107
0.0222859
0.0339648
0.0215918
0.024291
0.0260072
0.0482423
0.285628
3.84794
0.0228528
0.0511566
0.262454
7.97475
0.0284622
0.249336
8.28379
0.0312173
12.3516
0.0238409
15.7062
6.31335
0.0215527
0.022262
0.02195
0.0219382
0.0386471
0.0216039
0.0240738
0.0581767
0.02248
0.0342576
5.9191
0.0299985
0.022744
5.0413
0.0220789
6.4783
0.0226353
0.0530255
0.0218593
7.40043
7.65894
0.0219403
0.0219973
3.39366
0.0293629
8.20251
0.0220217
0.0216629
4.73953
0.0220323
0.0437472
12.8549
0.0220688
0.0431976
0.0266339
0.0216001
0.0218978
3.74459
7.31226
0.0219774
0.0224605
0.0220177
0.0249882
0.0371827
7.25491
0.022571
2.5893
0.301728
0.164036
0.299921
0.0220193
0.0787483
0.183867
0.0288936
0.0220595
0.0415098
5.74019
0.023276
0.0451502
1.92255
3.5622
0.285888
0.0254224
0.022166
0.0222464
0.0220761
9.19772
0.0402958
0.0225126
0.0220419
0.0231175
0.0222699
0.0219348
0.022051
0.0504734
0.0281821
0.467465
0.0454652
7.7134
3.71732
0.0293498
0.0379636
0.0218016
0.0271348
8.24188
0.0219859
0.0230054
0.0376441
0.0815262
0.0578935
2.93534
0.163103
0.0217673
5.11657
0.0215676
0.0219076
0.0443425
0.0222734
0.0216598
0.112482
1.63167
0.0216749
1.56633
0.0219587
0.0216294
0.0229326
2.72296
0.0267752
0.0226161
14.0628
0.0224295
0.154764
3.89356
0.0222462
0.046772
0.0220098
6.61576
0.0538622
0.0220576
3.36489
0.0404683
0.0778096
0.0222784
8.05144
0.0287734
0.425664
0.0220218
0.0690884
7.58262
0.0216544
1.44927
0.0220879
0.0499714
0.0518327
0.0222453
6.16712
0.0232088
0.0798383
0.0455993
0.0983581
0.0384654
0.0420349
0.0225119
1.96104
0.0308431
7.5559
0.0293397
0.0440065
0.0218293
0.037962
0.0220432
0.045751
1.80812
0.0224488
0.0217833
3.43455
0.0221831
0.252517
0.0220632
1.92095
0.166238
0.0315451
0.0219836
0.0219296
0.0221099
0.0216125
0.0758574
0.0533712
0.0394726
0.0243828
0.0220824
0.298606
0.0224875
0.0307078
0.243399
0.0220318
18.5203
0.0377648
0.0246822
1.29109
5.77586
0.272369
1.1017
1.05358
0.0218609
0.307671
6.70417
0.357088
0.0221731
0.0222532
0.0758879
3.57877
6.12625
0.450858
0.0217575
0.0498068
0.0315346
3.93035
6.1128
0.0310548
0.0849584
0.0232735
0.0683325
0.0585869
0.0221647
0.0797599
1.76632
0.0221311
0.282286
0.0222531
0.0217649
5.67465
5.89138
0.0218434
0.0217871
0.0221163
0.0216807
0.0450635
0.115796
0.0221317
0.0219843
0.0220978
0.0295745
0.0255601
0.0254846
0.257426
0.0220267
6.37221
9.28081
5.88318
0.145174
0.0424491
0.223949
0.0277112
3.84754
0.235148
1.03031
0.0222124
8.95058
3.88368
0.0217597
0.0220316
0.0829201
7.67867
5.00925
0.0216059
0.0219517
4.44459
1.98367
0.902393
0.0231186
0.0239879
1.89979
0.022127
4.82465
10.0856
0.207584
0.870672
0.0220644
0.0219021
0.021884
0.0261948
4.91766
0.030035
0.0231795
0.0227202
0.0777325
8.86651
0.0295807
0.455022
6.48653
5.45766
2.18317
0.0220502
0.0221721
1.54468
0.0216387
0.0215877
0.0227857
3.32716
0.0299125
13.3666
0.0982873
0.0220217
6.93453
0.0335648
0.0217875
7.4827
0.164178
0.02537
0.0217524
6.63805
8.00992
0.0221805
2.53313
0.301615
10.2015
0.8823
0.0704175
0.0218896
0.0221069
1.21402
0.0238157
0.982075
0.035673
0.791247
0.175717
0.0228918
0.028384
0.0218723
0.0226451
7.92365
8.06852
0.0220745
6.25678
0.0315821
0.0219622
0.0245704
0.0219232
0.110965
0.0221083
2.1936
0.0495235
0.0218783
0.0218702
0.0959329
9.64407
0.0311717
0.0233313
0.0363274
0.0220397
0.0224015
0.0242064
10.3665
4.54293
7.87944
0.0217026
0.0218635
0.0221819
0.0794547
0.0218597
0.0222077
0.112582
0.0422116
0.204291
0.0215474
7.93409
4.49135
0.0222843
10.8629
0.0781817
0.0283095
2.06203
0.0221359
7.20043
0.0290053
0.0229152
0.0238976
0.0216355
0.153
0.0223032
0.0219724
0.0312273
3.81543
4.16739
0.0222461
0.0220215
0.0227447
0.0218398
0.0966433
0.0224528
0.0645908
0.0224688
5.67984
0.0219731
4.83858
0.0217015
7.5006
0.0220376
0.0216174
11.0263
0.309975
0.111742
0.200865
0.0438831
0.0314765
0.0220532
6.89185
0.0220722
0.0218666
0.0896721
0.0426434
14.135
6.54061
0.0879353
2.42699
0.0979971
0.353125
0.0217433
0.0232969
0.0244688
6.76055
0.0250821
7.20247
5.00564
0.0217759
0.0220924
0.0219589
1.11018
3.27988
0.0224004
0.0221073
0.0249978
0.0258015
0.0303203
0.237045
0.269108
0.0220636
0.678316
0.0686602
8.6624
0.0543027
0.0227944
0.0229022
7.04208
0.0218812
0.0694853
2.73387
0.0225526
0.0241345
0.115769
0.141509
0.0226829
7.66007
0.0231451
0.171345
0.0292396
0.0293749
0.0220535
7.74447
0.021852
0.0910059
1.47581
8.41668
0.0395385
0.0550221
0.0232592
0.0462481
0.0222658
8.7357
0.0238487
0.021742
0.0260838
0.0220914
0.0222692
3.83384
0.0220672
0.0221794
0.0219854
0.0863166
0.0222941
0.0300989
0.0505169
0.180568
0.0884194
0.0222538
0.216349
0.450795
0.164389
0.0690561
0.0278152
0.107307
0.96552
0.467931
0.0222845
0.870404
2.55622
0.0222839
0.0230118
0.0216289
0.735868
0.0842
0.0217397
1.2959
6.98508
0.0218025
0.0222505
3.25318
4.76516
0.0436836
0.0216344
3.81804
3.65887
3.28514
0.0220232
6.79387
0.0541689
0.0679293
7.09195
0.0239795
0.0216402
0.0264809
0.143261
0.0269008
3.34988
8.08122
0.0217754
1.34578
0.470084
6.51417
0.0216975
0.0534653
0.0223649
0.021884
5.86483
0.287873
0.160423
0.291699
0.0283212
0.0398699
0.0221069
8.44319
7.2476
0.0220589
0.0220065
0.0321064
0.0216179
0.0378471
4.87725
3.5524
0.0402311
0.0220755
0.02176
6.12486
0.024726
0.0398402
0.021757
0.0227099
0.539174
0.296905
0.196392
2.97449
0.0221707
0.179748
0.0221839
0.0463344
9.80193
8.4969
0.0220716
0.0222938
0.027416
0.0257206
0.0222169
5.72932
6.95823
0.0216957
0.0214828
0.0221911
0.0219648
2.71374
0.0216204
3.12781
0.07527
0.0424236
0.0217734
0.0435617
8.37917
0.0276878
0.412642
9.12152
0.0221725
7.46612
0.0333192
0.0361367
0.332795
8.34946
6.5456
0.0407656
0.0218718
0.220828
0.0216297
0.025459
0.0222146
2.81468
0.0308753
0.623563
0.166818
0.0378915
0.0221256
0.217363
0.0241298
0.0222704
0.265619
0.0215848
0.0280864
0.0288198
0.0221704
7.35458
0.0229856
0.585475
0.022713
0.0219274
9.16615
4.78684
0.0240915
0.0330918
0.029301
0.0501631
0.0404884
0.0234988
0.0252086
0.0234
0.151197
0.0248729
2.39089
0.0563692
0.169596
0.0760236
0.0220343
5.60867
0.0215982
3.34738
0.0243225
7.4274
0.553745
1.24258
0.569123
0.191276
0.0726717
0.0217275
5.13095
0.0808051
0.0220539
9.51924
1.23449
0.023213
0.0224947
0.0276493
0.0276381
0.0267278
6.41772
0.0222841
0.0247676
0.0274803
0.0312117
0.0221644
0.0565656
0.0215705
2.19275
0.0234903
0.101027
0.027945
0.0315536
0.103855
0.292156
0.0697821
0.021796
0.213422
4.59742
24.646
0.0218946
1.22355
0.0254966
1.76132
0.0220722
0.0240696
5.28283
0.0356937
6.65931
8.67748
0.0334797
7.56863
0.0218974
0.0215562
9.86082
0.060622
0.0239508
5.066
0.0250559
0.044225
0.0286001
0.0589974
0.0219549
0.364117
0.939099
8.09964
0.165409
0.0238086
0.0499999
6.70027
0.0236414
0.0222425
0.0699474
0.0216701
0.280148
11.6675
8.12876
6.37468
0.0392912
0.021924
6.68093
0.0215755
0.051726
0.022235
27.0939
0.0231638
0.0453584
4.56207
0.0865347
0.0220265
0.0309206
12.6148
0.022103
0.0968506
0.0217287
3.63375
7.26659
0.0771834
0.078125
0.0219489
0.147402
0.0893292
0.0315822
0.0217351
0.0219084
0.022147
0.038531
0.0221241
0.0573693
0.0221721
0.0217129
8.97645
0.0217701
0.0249714
0.0230415
0.0222747
4.62902
0.0217846
0.0315215
5.95114
0.0337185
2.12653
0.0220746
7.98761
0.0350896
5.55874
0.0230363
0.083169
0.0217561
0.0318541
0.0801684
0.074145
0.170697
6.71057
0.154076
1.29956
0.0271482
0.0735598
0.0398163
0.36158
0.0249029
0.0217332
0.0220317
0.0369637
0.0434056
0.28278
0.0398242
1.54224
0.632281
0.104523
0.0219482
0.319214
0.192715
0.0224759
0.0239696
0.0220597
0.320011
0.0220388
10.5716
0.0217667
0.0240696
6.77985
0.0721564
0.0220426
0.0220251
8.21302
0.0218042
0.0236616
0.0234457
0.0303941
0.0253869
0.0220464
0.100937
0.0833908
0.0427627
0.205484
6.76121
4.57041
7.2563
0.0217184
0.0219691
0.0954172
0.0219387
0.0461484
1.21669
4.85149
0.0216317
0.0220517
3.85967
0.204853
0.0216462
0.0217949
0.0266305
17.3997
3.62973
0.0246639
0.0309061
0.022199
0.223269
0.0820877
0.140301
0.0321165
0.0422437
0.0224778
0.0321762
0.196315
0.0227858
0.0218843
0.0246209
3.45327
0.0248794
9.19494
0.0221055
5.22647
0.034382
0.0282975
0.0217675
0.0219162
0.649257
1.12526
0.0592549
4.52375
13.8042
0.0224512
6.01835
0.0931279
0.0218312
0.306208
0.174521
0.0777091
0.0222538
4.11542
6.46876
0.0217198
0.0377153
4.76945
0.0408003
0.021994
0.0217123
0.0220477
0.022643
0.0641922
0.181394
0.0799516
0.0628021
0.0216915
0.0221165
0.638715
0.021777
0.0432287
0.0267972
0.0216979
0.040159
0.022022
0.0233956
0.193608
0.0219969
6.72524
0.0220182
10.2458
4.55309
0.0709032
0.0221187
0.0222927
7.04975
0.0216243
0.0232671
0.0223668
0.27518
0.378567
0.0286299
4.72128
0.0403246
0.234251
0.022634
0.0491578
0.0216426
0.0221387
6.44524
4.91794
0.636393
0.023028
0.0504362
0.0497456
6.87893
6.27123
0.176407
0.0338795
0.0215718
6.59305
0.0217537
0.0218038
0.16685
0.0750551
0.0279224
0.193792
0.0457146
0.0300309
0.0254036
7.34292
0.0230942
0.0219903
8.46792
0.0455323
0.0216756
3.9088
0.0220329
0.0221099
0.110662
0.128371
16.3955
0.0216945
0.0245822
0.0218925
2.23661
0.0218085
0.551952
0.29984
4.42626
3.80482
32.1273
0.030508
6.45333
0.87992
0.0222096
0.0297446
0.0425409
0.0302856
1.25382
5.76956
7.28789
4.19063
2.27053
0.0220996
0.0722207
0.022041
6.18318
0.0254365
0.0221948
0.0230331
0.0222145
0.0218333
0.0738817
7.44185
0.0217083
0.0227994
0.0218622
6.06234
0.022698
8.35103
2.56036
0.682829
0.0220959
0.0218389
5.46652
0.383261
0.0221387
0.26252
0.022228
0.116861
0.181057
0.0702285
0.0373799
2.6473
0.0217547
0.0216332
0.139032
3.73986
0.0267354
0.04302
0.0219
9.93026
0.0220081
0.0219501
0.0225332
0.021974
7.29131
5.45092
0.234657
0.0404198
7.17659
0.275851
0.0216426
0.026191
0.0216707
1.25711
0.0217501
0.0244414
0.0219893
0.0219121
0.0216624
2.62061
0.022022
1.70811
0.0214961
0.0332238
0.0226121
1.61336
0.0220441
0.0267343
0.0274916
0.0619679
10.2735
0.0219065
4.93591
0.0577732
0.0431062
0.0218166
0.0219351
4.02933
19.381
0.0217532
0.0217591
0.158552
0.149203
0.0388991
5.47535
0.0225946
0.185156
0.0261957
0.021686
0.407979
0.0220517
3.94426
0.0220313
0.0222469
0.0221193
5.51127
4.41067
0.0216533
0.241394
0.138971
0.0220605
0.021748
0.0218798
0.26308
5.98574
0.0541009
0.0225843
0.0335902
0.0220271
0.0220281
0.0227919
0.0220029
0.120343
0.0220548
0.0431485
0.470775
0.0312747
0.0216074
0.831904
0.0530808
0.0220365
0.0682634
0.0261883
0.226424
0.0247667
12.2357
0.0461254
0.0219285
0.0701745
0.0690069
0.0232636
8.14623
0.0410365
0.0246991
0.23647
0.0218841
0.128478
0.0873492
0.108388
0.0219332
0.0219386
0.0216217
0.0341735
0.038796
0.0382824
0.527184
6.35858
2.68353
0.0222667
1.9122
4.43406
6.18949
0.0219898
0.0219507
0.0394841
3.96135
0.0237794
0.0280175
31.7017
6.25965
12.9659
0.119168
0.114905
3.8566
0.329273
0.0215659
8.79245
0.153739
0.0220108
0.0219102
0.0225
8.26558
0.0763469
1.21597
0.0231671
0.76329
0.0219276
0.262447
4.33933
0.0221456
0.0276488
6.65397
0.761049
0.0457123
0.0223004
0.0234066
0.0224122
0.201353
0.0793582
0.79175
6.18816
0.0216971
6.60269
0.135952
0.194904
0.0220293
0.0221649
0.23826
0.285124
0.0219238
0.0413695
0.0748743
0.039506
2.00733
3.84682
8.50536
6.40841
0.0249028
0.0215997
0.068078
4.94115
4.96547
0.0217426
0.26273
0.0927747
0.47855
0.0218351
0.0222562
1.198
0.30552
0.539243
1.66824
4.4555
0.0219504
0.263175
6.40978
0.0222303
0.0644818
0.0779087
0.0216587
0.109912
4.95126
0.249098
0.0222552
5.48241
0.0822252
28.2923
0.0214795
0.0224303
0.0220159
0.0221026
0.0219965
0.0468323
0.0385569
0.0413339
0.356892
0.0275589
5.73037
0.0251104
0.0243813
0.0262725
10.2457
0.0594896
6.80371
0.0265343
0.0277679
23.2205
0.100206
0.0220799
0.0411002
0.309789
2.04752
0.199854
0.0219198
0.0218673
0.0218627
0.240483
0.0228395
2.49576
1.33817
0.258374
0.0291245
0.18034
7.26314
0.0219985
1.97939
0.032238
0.0514676
0.0218545
0.0217221
0.0424501
7.62573
0.02208
6.60198
0.42847
0.098117
0.143756
0.0218102
0.0220215
0.0259967
0.0220577
26.7398
28.0739
0.0808264
0.653191
0.0219007
0.0219076
0.0219451
0.022246
10.3817
0.0223317
6.7341
0.0878945
0.0218457
0.379392
0.852237
4.04256
10.346
0.0225175
0.0216241
0.0221295
0.0222413
0.764683
0.242299
7.22299
0.0221544
0.0218936
0.15322
0.0222602
0.154711
0.0236833
0.147007
0.167433
0.0397761
0.0377916
0.0216844
0.0376619
0.0363198
0.195801
0.0834872
0.0408976
0.0218613
0.213332
0.0218456
1.54038
4.21253
0.942395
0.0220491
0.10917
0.0219763
0.037965
0.0223494
0.0219746
0.0281844
10.6874
3.72816
0.0806475
0.0442728
0.203442
0.0690509
3.08414
7.36759
0.0298393
6.88709
0.295721
0.021778
0.058081
7.09205
0.100615
0.0222358
0.0443808
2.21322
0.225423
9.13404
0.0218681
0.213969
0.0221035
0.021899
0.0304767
0.183707
0.0222639
4.54983
8.95612
0.158455
11.7387
0.373227
8.6117
0.206018
0.0216899
0.0235508
0.0215747
0.0420081
0.161352
0.233747
0.0240411
0.0396314
0.0215485
7.58434
0.0300481
0.039347
4.01239
0.1021
9.76967
8.46381
0.0219286
8.39819
0.0221212
0.0282003
0.0463
4.41088
0.100577
0.027765
0.022139
0.573755
0.0304595
3.6068
7.67126
0.0331465
3.63576
0.0319679
0.0222731
1.15213
0.0534563
0.0229521
11.1868
18.5975
0.0261096
0.0260747
0.0852995
6.89638
0.0219298
0.0219739
0.0216498
0.0217306
0.0224027
6.50557
0.0306482
5.52225
0.0219542
0.021735
0.859189
0.0218685
0.0232193
0.0220542
0.0220311
0.250131
0.0216813
6.06318
0.0217324
0.0222659
0.0386184
0.0222265
0.151246
0.0216878
0.0222651
0.0217202
0.0253489
0.0893295
0.0228234
4.35473
0.0218789
0.0422033
0.0259946
7.26606
0.0228402
0.0222688
0.0215493
0.0216355
0.248439
0.0218673
0.0217626
0.0231368
0.570223
0.0219327
0.0422156
0.031536
0.0219702
0.858132
10.4758
0.170598
0.50839
0.0229794
0.0733413
0.022157
0.103027
0.200868
0.0218677
0.246049
0.0850435
0.290931
0.0298263
0.0220305
1.54032
0.0399857
0.61608
4.39839
0.0214905
0.0219646
9.10388
3.62852
0.0413248
0.0539508
0.0227443
14.6455
0.396212
0.0214816
0.0219583
0.0218483
0.0221725
0.022248
0.0220438
0.0359291
6.63366
0.029766
0.0221833
0.457201
0.0219807
0.674956
0.0445202
0.0216928
0.0250474
0.0218929
0.307298
0.0245816
0.0540607
0.0219347
0.021988
6.74114
6.69709
0.0221772
0.0366459
0.0445796
0.0297685
0.0239378
0.0222712
0.0219945
1.05598
0.448266
0.0293367
0.327781
0.0219255
25.202
0.0742823
0.024628
15.2408
0.0230102
5.00844
0.750831
3.94644
0.538232
6.60033
4.37786
0.0215316
0.0252157
0.0249324
0.0215693
0.0216205
0.0255448
0.0758063
0.0216785
0.0291712
0.0806968
0.0726576
0.338063
0.149329
0.0300346
1.19866
1.68637
0.0342446
0.0251161
0.0838295
12.4818
5.33434
0.0252691
0.0215441
0.0218215
0.0217137
0.0279702
4.80543
0.305274
0.0215868
6.73564
0.0219758
0.0914465
2.78485
0.0834892
0.160666
0.0927009
0.32294
0.0227868
0.033691
0.0218402
0.226182
0.0219333
0.0224403
0.0276113
0.0993553
0.022176
0.024671
5.67169
0.0218124
0.0218554
0.0289375
7.84707
0.0884087
0.197334
0.0393899
0.0221493
3.68968
0.0376628
0.022597
0.0220207
0.0292772
0.025237
0.0220348
0.0240549
5.76794
0.0230996
0.0215953
0.0470868
0.02186
0.0312453
0.0301589
0.0220653
0.0219903
6.11659
0.0216822
0.0220285
0.0216255
0.0254128
0.0214497
6.83894
0.0243533
0.164192
0.0219586
0.0217421
0.0217177
6.86881
0.0435148
0.0220514
0.0215195
0.850609
0.0252519
0.0492678
0.0218424
0.107992
0.0229771
0.0215343
0.87856
0.0215969
0.022245
0.0221455
0.0217416
0.024178
0.0221301
0.0220325
1.62854
1.55589
6.06974
0.164721
11.9329
0.0218024
8.4342
0.021964
3.32189
11.7879
0.0217914
12.6315
0.0219762
4.43436
11.0597
0.289332
6.50784
5.30984
0.666129
0.230037
9.53731
1.32071
0.0395081
0.0306788
5.93566
0.0234567
0.0216297
0.270787
0.0229214
0.0280505
5.10144
0.0227023
0.182762
4.61707
2.99105
0.234956
0.0789299
0.0222518
0.0278348
0.0488799
0.0219999
2.3495
0.300898
0.112
0.0218632
0.0220685
11.4068
0.0216483
0.530637
0.0217436
11.5568
7.13047
0.0345411
0.0252988
0.02196
10.6122
1.83874
0.024933
0.0311031
0.0222857
0.0222855
0.0402808
0.0231361
0.0322464
0.0623568
0.0239034
0.0268061
0.0220398
0.0315843
18.39
0.0219583
6.26789
0.0217956
0.267247
0.0561522
0.0220348
1.81315
0.0826112
0.0218172
0.15116
0.0220428
0.196073
0.0221733
0.0220046
3.02745
0.0221449
0.0768252
0.0226806
0.0908137
0.0217547
0.0222894
0.021845
0.0297698
0.0240514
0.0222418
0.0225336
0.0255864
0.022395
0.0808269
0.0602064
0.0246794
0.0235636
0.0215247
2.30626
1.21174
0.0227445
0.0224906
0.0226198
0.0356991
0.022085
0.0321537
0.0215432
0.0222853
0.152939
0.0233179
0.0222847
0.0218826
6.6718
14.8892
0.0215787
0.0655833
0.0611395
0.174254
0.145003
8.67412
7.3039
0.472452
0.0222583
0.0898656
0.0219244
0.0316967
11.1032
6.74759
0.129339
0.0239861
18.8211
0.0220369
0.0419455
0.264987
0.0221734
0.0881599
0.0230055
0.0228668
0.0637065
0.0969099
1.51329
3.75562
0.0217785
0.0215511
6.3893
4.62781
0.0221762
0.0284301
0.0793481
0.0220846
0.0220122
0.0234697
0.221074
0.0217439
6.05797
0.0290703
0.0219628
0.159536
0.0491576
0.0456615
0.0945913
5.95319
0.0244299
0.0289222
0.0278166
0.0236293
12.6902
0.0265758
0.582243
7.01374
0.0620502
3.60706
0.0414524
0.0445064
0.297258
0.0216952
7.56151
0.0702904
0.0323294
0.0287527
0.0221769
0.0215976
2.63455
0.039489
2.71223
0.345492
0.0221157
6.27646
0.0218203
0.0219256
0.0284937
12.5795
0.0506881
0.0215399
0.973689
0.0219654
0.0234832
4.02955
0.0231455
3.84988
0.0222726
7.51732
0.346939
0.0703721
0.636349
0.0232853
3.98684
0.0215253
6.94606
6.46786
6.5875
8.2715
0.0219422
0.0217039
0.195648
4.22708
4.08351
4.09646
4.17672
0.0220163
8.45193
3.93387
0.0223518
0.606913
0.0321466
0.030291
7.47076
0.0366455
3.3259
0.0218712
0.0361318
0.0286466
0.15705
9.90963
0.0350254
4.06446
1.90312
0.0221713
0.024464
0.0234922
0.0232868
4.11986
0.0220078
0.0217361
0.037618
4.4932
4.39908
0.0257723
4.22649
4.04772
0.0219279
11.617
6.45478
0.113969
4.32031
0.0561864
0.0240574
0.0221719
0.131655
0.0247607
0.0668438
11.4986
6.4054
0.0283257
0.0500194
0.0258633
0.0289918
0.021641
0.0302645
0.0247278
0.0746531
1.37951
0.666462
3.89719
0.021563
0.0848475
0.0432265
6.78094
0.0234205
7.73001
1.74185