/*--------------------------------*- C++ -*----------------------------------*\
| =========                 |                                                 |
| \\      /  F ield         | OpenFOAM: The Open Source CFD Toolbox           |
|  \\    /   O peration     | Version:  v2012                                 |
|   \\  /    A nd           | Website:  www.openfoam.com                      |
|    \\/     M anipulation  |                                                 |
\*---------------------------------------------------------------------------*/
FoamFile
{
    version     2.0;
    format      ascii;
    class       volScalarField;
    location    "350";
    object      p;
}
// * * * * * * * * * * * * * * * * * * * * * * * * * * * * * * * * * * * * * //

dimensions      [0 2 -2 0 0 0 0];


internalField   nonuniform List<scalar> 
13917
(
-0.059975
0.00849663
-0.0461182
-0.0300056
0.0312344
0.461623
-0.0476369
-0.0444389
-0.0649922
-0.106965
-0.0573183
-0.0552779
-0.0305963
-0.036364
0.0562002
0.0346686
0.0146438
-0.0799899
-0.055052
0.0164678
0.0249761
-0.0458239
0.0211307
-0.0475025
0.032394
-0.0502858
0.223583
0.236183
0.104592
-0.142018
-0.0713819
-0.024802
0.177957
0.115806
0.0366779
-0.0535085
0.0211263
-0.0384963
-0.0356508
-0.0586798
0.00652182
0.0238621
-0.00521651
0.26294
-0.0108963
0.132844
-0.0781252
-0.0744683
0.515581
0.0114474
-0.0444718
0.0633096
0.517984
0.12005
0.0159852
-0.0438336
-0.0576897
0.0327655
-0.0332566
-0.0098986
-0.366699
0.00708395
-0.037819
0.0166076
0.453151
-0.379272
0.0313252
0.0391972
-0.070662
-0.0316334
0.0308512
-0.0682563
-0.0778248
0.0316732
0.504331
-0.0562401
-0.0510198
-0.0217389
-0.0554482
0.0248357
0.0223258
0.0307488
0.439847
-0.0384476
-0.400772
-0.0211629
0.0205257
-0.329659
-0.0433849
-0.00556385
-0.053018
-0.136404
0.00177623
0.0558713
-0.339013
0.454025
-0.0634903
-0.076612
-0.0578572
0.336324
0.00516785
0.174089
0.27133
-0.0280743
0.00320326
-0.0762977
0.073889
-0.0755368
0.0130101
-0.0741034
-0.243273
-0.0583398
-0.0565429
-0.0730464
0.0802401
0.511503
0.0236664
0.504584
-0.048243
0.118885
0.0239384
-0.0716335
-0.0416588
0.23006
0.00990497
0.0543802
-0.00642205
0.010137
-0.00314955
0.461567
-0.0472091
0.0778297
-0.0108981
0.0251998
-0.16077
-0.0468428
-0.0580483
0.350797
0.0317524
0.118015
-0.0542142
-0.00340569
0.0667503
0.29742
0.0399162
-0.0667321
0.0460546
0.0615011
-0.00320057
-0.0207382
-0.061697
0.506093
-0.0590256
-0.00348715
-0.0375549
-0.410438
-0.027352
-0.0548689
-0.0495928
-0.165843
0.0883035
0.223229
0.022862
-0.0631714
-0.0564364
-0.0576756
-0.027263
-0.0676557
-0.00658851
0.17955
-0.0217714
-0.302954
-0.0568239
0.0178585
-0.0596889
0.0026469
-0.0450867
0.511729
-0.0669226
0.0131451
-0.140527
-0.0759094
-0.00397694
0.0207619
0.0876084
-0.0519219
-0.226033
-0.405401
-0.0663957
-0.0569982
-0.054865
-0.402251
-0.23252
0.024548
0.368171
0.215499
0.00263957
0.00190461
0.0557734
-0.316612
-0.0406308
0.0117198
-0.0644726
-0.0610795
-0.0759289
-0.109779
0.0362813
0.0336865
-0.0748397
-0.0483615
0.0646731
-0.0468393
-0.0760471
-0.0569923
0.00361698
0.326434
-0.0709416
-0.206254
0.021816
-0.350408
0.0131881
-0.128324
0.00696292
-0.0348333
-0.0788627
0.0340799
-0.275952
-0.0399758
0.00412791
-0.053882
-0.0567526
-0.0651525
-0.0461003
-0.0777962
0.00320706
-0.0275639
-0.0536915
-0.410682
0.0232619
0.012357
-0.06298
-0.0643551
0.0146054
-0.0549801
-0.100478
0.215852
-0.0557178
0.0225949
0.0348849
-0.0639239
-0.0178422
-0.162015
0.352393
-0.00651333
0.0332704
-0.0580496
-0.0612024
-0.0589044
0.0863902
0.0528712
0.014872
-0.0411684
-0.154828
-0.0559058
0.00465424
-0.114413
-0.0354288
-0.0542358
-0.0532678
-0.0566516
0.0226748
0.00884285
-0.0767664
-0.0400848
-0.0826596
-0.0320955
-0.112236
-0.0496378
-0.00320009
-0.251978
0.0154064
-0.057724
-0.0395344
0.0145573
0.0290787
0.00123468
0.223473
-0.0547559
0.0281174
-0.0179051
-0.166678
-0.0472661
-0.153875
0.0220212
-0.0559702
0.0285058
-0.0181243
0.0232403
0.0120789
0.0132345
-0.132513
-0.0518567
-0.00657811
-0.064306
-0.00512708
0.5207
0.00435125
-0.130469
-0.0073178
0.032432
-0.257182
-0.0419767
0.0234239
0.00801319
-0.253291
0.00934907
-0.0757404
-0.0067045
-0.0359756
-0.0237091
-0.23404
-0.0545672
0.48745
0.0846633
-0.169233
0.358025
0.0269166
-0.0652811
-0.0568161
0.0336069
-0.0414437
0.36413
-0.034737
0.105459
-0.0514926
-0.0327305
-0.344746
0.353398
0.0483619
0.0366778
-0.0472127
0.0258391
-0.0277176
-0.246854
0.0464869
0.0286604
-0.0373707
0.0508085
0.0131081
-0.055506
0.139851
0.00683117
-0.0451003
-0.0538374
0.0155139
0.0106147
0.0282474
-0.00365195
-0.160931
-0.0644295
0.409564
-0.260952
0.0282685
-0.168375
-0.404684
-0.0603802
-0.0452985
-0.0421279
-0.0749342
0.00292507
-0.0561389
0.00906684
-0.349668
-0.00904773
0.478746
-0.103331
-0.0351609
0.026208
-0.0736854
-0.146512
-0.0877205
-0.0805091
-0.340586
-0.208092
0.0294935
-0.100211
0.0124815
-0.411891
-0.0476879
0.028835
-0.165981
0.0314829
-0.117732
-0.023537
0.0257714
-0.000861679
-0.0620012
0.000751711
-0.062374
-0.394992
-0.0572428
0.392822
0.0318157
0.342119
0.3754
0.0196399
0.0802718
0.0449925
0.032956
-0.142573
0.0149484
0.0338078
0.00871582
-0.15892
0.0247895
-0.0514806
-0.0585312
-0.399679
-0.229745
-0.0562245
-0.168304
-0.0593739
0.0277593
-0.124755
-0.0352069
-0.0320691
0.0246422
-0.0645474
-0.0497338
-0.0595238
0.045296
-0.0999543
0.102149
-0.0364497
-0.0859795
0.0118983
-0.0565766
0.0118812
0.0133099
-0.0772358
-0.0461736
-0.0461696
-0.164111
-0.39988
-0.0409494
-0.169752
-0.0420172
-0.00223119
-0.0761906
0.0101493
0.0362348
-0.116197
-0.0781175
-0.00590858
-0.0984822
-0.0600474
-0.0393773
0.0195738
-0.0707228
-0.397307
-0.266513
-0.0501581
0.0250493
0.0300446
0.00229475
-0.0227294
0.00282014
-0.05285
0.417619
0.0262327
-0.410697
-0.0433139
-0.0622212
-0.172225
0.0376276
-0.0572658
-0.0539492
-0.0700225
-0.101062
-0.109615
-0.0531553
-0.0565599
0.452338
-0.0529203
-0.0731195
-0.000177507
-0.143583
-0.0464143
-0.0109869
-0.0184986
-0.0236842
-0.0408662
-0.0744298
0.00970353
-0.00307662
-0.0505254
-0.170122
0.0147737
-0.0496922
-0.0277909
-0.209011
0.0109155
-0.0943624
-0.0697671
-0.0231589
-0.0067427
-0.0552416
-0.216127
-0.412781
0.015069
-0.0709325
0.517191
-0.264358
-0.0109224
-0.406507
-0.152949
-0.0591993
0.0100387
0.0205786
-0.0564349
-0.117441
-0.0061101
0.0107748
0.0102501
0.00999179
-0.111149
-0.119524
-0.0589424
-0.219258
0.00863056
0.00550457
-0.0972118
-0.101362
-0.0599544
-0.00736218
0.032568
0.0347493
-0.2638
-0.399096
0.0191461
0.0350748
-0.0564937
-0.0532025
-0.0540387
0.0310525
0.0031225
-0.0106019
-0.0719197
-0.0380145
-0.227826
-0.124336
-0.0846203
-0.106427
-0.128088
0.0230381
-0.0664048
0.034305
0.0280465
-0.0348382
-0.139135
0.00172236
0.00530372
-0.263068
-0.148432
-0.386014
-0.0862447
0.128334
-0.0612288
0.0264416
-0.153531
-0.245908
-0.0435181
0.0121472
-0.0514656
-0.221971
-0.0413932
-0.110979
-0.0777254
-0.172669
0.0383543
-0.0208834
0.0322275
0.11018
0.289921
0.0542042
-0.0693896
0.355205
-0.0423541
-0.41337
0.00112576
-0.0618812
-0.0695099
0.0244159
0.0610969
0.371294
-0.0995213
-0.0579323
-0.208218
-0.00293152
-0.044923
-0.0561207
0.00528864
-0.0519666
-0.0641771
0.170044
-0.137833
-0.0531887
-0.10731
-0.0511893
-0.145579
-0.0245429
-0.0415522
0.0235643
0.0193218
-0.0549865
-0.0945559
0.431784
-0.0250965
0.0163743
0.0346825
-0.0501089
0.512702
-0.0576484
-0.0227198
-0.0573551
-0.0720557
0.011415
-0.260459
-0.0577788
-0.0589835
0.019888
-0.102682
-0.0228975
-0.396151
-0.11134
-0.00613562
-0.0523264
0.00760379
-0.00867605
-0.00729627
0.00687852
0.134169
-0.179826
0.111893
-0.068048
0.00725576
-0.113948
0.426484
-0.0530157
-0.0172564
0.125132
0.0113348
-0.0433716
-0.0350118
-0.151622
0.0251881
-0.304761
-0.0433454
-0.0573101
-0.137594
-0.0860863
-0.0274423
0.0208201
-0.0422819
-0.113769
0.0217228
-0.0342905
-0.0759597
-0.202604
-0.0812834
0.0146284
-0.00783974
-0.216983
-0.0357828
-0.0884502
-0.05784
-0.00918902
-0.060127
-0.0476561
-0.0172884
-0.0277448
0.0108391
-0.0411215
0.0255194
0.0452705
-0.310374
0.0367694
-0.093422
-0.0366589
0.181943
0.0105624
-0.00829778
0.0235293
-0.101417
0.00774345
-0.0796135
-0.0273563
-0.390432
0.212401
-0.106587
0.00318599
0.0261471
-0.12212
-0.085172
-0.0372629
-0.0833818
-0.0816103
0.0350673
-0.153611
0.449028
-0.0586893
-0.177304
-0.0733886
-0.057132
-0.0526629
-0.048986
-0.128145
0.0765757
-0.0807635
0.447029
-0.0821638
-0.03088
-0.0644998
0.0230015
-0.0127236
-0.0429975
-0.0747585
-0.0169723
0.0255507
0.00829678
-0.0700344
-0.030324
-0.0905825
0.0343055
0.0321333
0.0257028
0.00741011
-0.00777185
-0.0146985
0.011414
-0.0945
-0.0549371
0.374825
0.00402344
0.0204555
0.198307
-0.103476
0.0748607
-0.238256
-0.113756
-0.330202
-0.0436091
-0.103671
-0.0219541
0.0233634
0.00964422
-0.00353189
-0.363976
0.0201723
-0.102623
-0.0154601
-0.406193
0.0409983
-0.120159
-0.0573876
-0.00343714
0.0146858
-0.0551948
0.0397842
0.0441331
-0.220413
0.0170496
0.0284467
-0.0444857
0.0113725
-0.00183845
-0.0225038
0.138581
-0.0364256
-0.0454731
-0.0174456
0.00611145
-0.0423295
0.0162628
0.0268451
0.0111056
-0.233513
-0.0727539
-0.247591
0.122447
-0.0313017
0.00363448
-0.0020208
-0.0533812
-0.0494662
-0.0572751
0.108911
-0.0428817
0.00140101
0.0641202
-0.258781
0.0317314
-0.0471768
0.0223105
0.0129224
-0.0691893
0.23074
-0.0181366
-0.0905684
-0.057852
-0.139858
0.0227854
-0.00824434
-0.0571236
-0.105975
0.0151701
-0.0990096
-0.00786948
-0.0706713
-0.01495
-0.0129274
-0.119674
-0.0138706
-0.0623435
-0.0709842
0.0261221
-0.00437387
0.0465243
0.0139597
-0.0272106
0.264378
-0.0160889
-0.00913176
-0.0502755
-0.0645568
-0.0519219
-0.0805252
-0.0819252
-0.0382766
-0.00287903
0.135964
-0.0730666
-0.0897432
0.0283351
-0.00581778
-0.0801158
-0.0627442
-0.269206
0.025973
0.0771707
-0.0401978
-0.057588
-0.0199274
-0.3932
0.481611
0.0134107
-0.125512
0.00937538
-0.0130981
0.00385963
-0.11146
-0.00760811
-0.0182239
-0.00345584
-0.0623072
-0.0344658
-0.211935
0.279557
-0.0138117
0.173587
0.0185598
-0.266884
0.014066
-0.0166489
0.0285291
-0.057104
0.0286541
-0.10503
-0.0621689
-0.0476713
0.121151
-0.0540145
-0.320396
0.0311149
-0.0439996
-0.381768
-0.317068
-0.0549441
-0.0489883
-0.397437
-0.112347
0.0190202
-0.0537046
-0.0572224
-0.0481108
-0.0103315
0.000867186
0.0255228
0.0187675
-0.0419193
0.129951
-0.0383169
0.000673662
0.0338818
-0.410672
-0.0384942
0.0462396
0.199895
-0.0503551
-0.0162409
0.148309
0.204442
0.0766519
-0.0344884
-0.0573816
-0.26387
0.502394
-0.0145757
-0.214965
-0.144078
-0.387042
-0.07971
-0.0568651
0.00985355
-0.0225214
0.0026943
-0.00616769
0.00485416
-0.00222793
-0.0122748
-0.0491737
-0.41057
-0.0710764
-0.0183822
-0.101104
-0.159108
-0.0652223
0.0567318
-0.0439824
-0.00571764
0.0431346
0.194085
-0.412163
0.0281831
0.0206019
-0.044743
-0.0547573
-0.066906
-0.0839669
-0.0535785
0.0157068
-0.118996
0.0576924
0.0173395
0.0597894
-0.0519121
-0.246062
-0.0104782
-0.00474656
0.0225895
-0.0737762
0.00819791
-0.0523391
0.0388241
0.0136891
-0.120212
-0.0143787
-0.103285
-0.14566
-0.0466141
-0.00562442
-0.0640982
0.00116529
-0.0911971
-0.15318
0.0329578
-0.249517
-0.0831021
0.484847
0.0285799
-0.0616029
0.0268118
-0.0425681
-0.0608415
-0.0852844
-0.0495861
-0.0580404
-0.0586419
-0.105967
0.00689515
-0.0935206
-0.0131385
0.0204473
-0.0460251
0.03579
0.0268726
-0.00553406
-0.0144205
-0.408662
-0.00269988
0.021487
-0.0608732
-0.0849423
-0.0668858
0.451115
-0.0586533
-0.380138
-0.0549241
-0.0613796
-0.0484928
-0.043387
-0.0525217
-0.373532
-0.0486599
-0.0391776
-0.0149302
-0.0612562
-0.0582439
0.0610007
-0.103924
-0.0616374
-0.0232721
-0.042899
-0.0151785
-0.0623355
0.0154625
-0.0717596
0.31159
0.00960941
-0.0994124
-0.0103725
0.0387855
0.00756188
0.121401
-0.0779916
-0.0311553
-0.0184146
-0.0102021
0.307711
-0.126085
-0.0869574
0.0338457
0.00387065
-0.0694832
0.023241
-0.122525
-0.128774
-0.0229995
-0.0999683
-0.0101222
-0.331899
0.0591755
-0.05049
-0.0372904
-0.089181
0.0172514
0.0225883
-0.0588379
0.0170026
0.0123206
-0.384777
-0.113402
0.0984898
-0.0592808
0.0161033
-0.0185245
-0.0528038
-0.00502641
-0.00307079
-0.0687153
-0.0116047
-0.0592719
0.0223186
-0.00256865
0.0286469
-0.0585229
-0.050444
0.0447078
0.0365408
0.0159334
0.0492524
0.0127938
0.435229
-0.0954186
0.0153071
-0.0617741
0.0327296
-0.095059
-0.0420515
0.412861
-0.0101096
0.0546047
0.0241688
0.0883053
0.0607741
-0.0499197
-0.293773
0.0821751
-0.0453512
0.499505
-0.0701086
-0.0590697
-0.0207494
0.438543
-0.0496112
0.0307143
-0.296776
-0.0393949
-0.0557945
0.0420686
-0.0411171
0.230144
-0.0103016
-0.0288924
-0.384525
-0.0081273
0.00901558
-0.0161691
-0.125743
-0.0532637
-0.0385029
0.011069
-0.105985
-0.0493473
-0.0603121
-0.110922
-0.222052
-0.0483408
-0.00942148
0.0142523
-0.047869
0.0212462
0.0796841
0.000176831
0.00121078
-0.00175688
0.0915332
-0.0566933
0.462914
0.137193
0.271561
-0.0588776
-0.0520937
-0.00416782
-0.0709036
-0.0545602
-0.00317019
0.0117636
-0.0541462
-0.366112
0.0272524
-0.0950373
-0.135908
-0.0556129
0.0444481
-0.0293997
-0.0129372
-0.106532
-0.00222908
0.011144
-0.385205
-0.0566656
0.0314875
-0.100995
-0.0557986
-0.323723
0.0344168
-0.0394538
-0.0528721
-0.0913432
-0.0569253
0.262533
-0.0296164
0.0231484
-0.0156453
0.0063822
0.038853
0.0684537
-0.0278343
0.0185598
-0.0591983
0.0116567
-0.0463439
-0.0125944
-0.120354
-0.0572618
-0.283841
0.0304284
-0.223588
-0.0152746
-0.0507709
0.0319859
0.114732
0.0282048
-0.0586685
-0.0877953
-0.0578678
0.0179159
-0.072519
0.0172624
-0.0337259
-0.0878083
-0.0116745
0.0606776
-0.0814379
-0.0517758
-0.0455186
0.0192449
0.0447237
-0.0284759
0.0251394
0.135186
0.0178022
0.00222182
0.0761699
-0.0636013
-0.0188365
-0.0565956
-0.0604908
-0.0828891
-0.0510111
-0.0169038
0.00239857
0.0504896
-0.124745
-0.0300885
-0.00265729
-0.056491
-0.308506
0.0121161
-0.393918
-0.100653
-0.0922391
-0.00335655
-0.00369245
-0.0587741
0.0598561
0.0264326
0.180466
-0.00947519
0.0897849
-0.0377171
-0.0584265
0.439802
-0.0486047
-0.0352634
-0.0607615
-0.0605457
-0.0596275
-0.0517408
0.188226
-0.382003
-0.0674482
-0.385277
0.0936116
-0.355913
-0.397555
-0.0116377
0.015725
0.0135907
-0.0255606
-0.0799129
-0.0132927
0.0946182
-0.0570368
-0.0245659
0.086575
-0.0564375
0.135229
-0.0343858
-0.0609069
-0.0192603
-0.0491909
-0.0349377
0.119601
0.0108586
-0.100723
-0.283822
0.016336
-0.0265135
-0.0613202
0.132689
-0.410869
0.0122939
-0.0123287
-0.0445898
-0.0258336
0.165066
-0.397375
0.0344612
-0.0900644
-0.0350228
-0.00407648
0.00757827
-0.0561806
-0.329198
-0.00355533
-0.0306632
0.0351324
-0.0142879
0.193477
-0.0419476
0.0558782
0.431339
-0.0549611
-0.0593931
-0.0925148
-0.0249874
-0.058405
0.103185
0.126932
0.0314731
-0.0578415
-0.0452791
0.0731918
0.189543
-0.0463172
0.433345
0.427037
0.112275
0.0349714
0.0272724
0.0346781
-0.291059
-0.0690599
-0.0334381
-0.0272672
-0.0302094
0.0224063
0.0229368
0.0394842
-0.0609809
-0.048634
-0.0600478
0.141678
-0.39903
-0.0613843
0.0447135
-0.0716983
0.00474253
0.0212892
-0.0973747
0.0096674
0.00747357
-0.0666555
-0.0796318
0.266571
-0.0615185
-0.0548109
-0.00490528
-0.0405685
-0.00493541
-0.0166864
0.0812415
0.0264962
-0.0178466
-0.0740781
-0.141465
-0.0116193
-0.0542723
0.00505926
-0.0103844
0.00708934
0.452956
-0.0285715
-0.0345714
-0.390623
-0.00695191
-0.0579998
-0.0564815
0.0147386
0.136566
0.0120244
-0.0643116
-0.0948551
0.040361
-0.0547169
-0.0747753
0.250926
0.0226379
-0.275314
0.102036
0.406973
-0.0274549
0.161574
-0.129177
-0.00952325
0.336453
0.0434593
-0.101984
0.218254
0.0146019
-0.409569
0.0366725
-0.0784149
-0.0930258
0.34701
0.0365911
0.0829285
0.0547353
-0.0456542
0.072457
-0.0515108
0.0939654
-0.0581134
-0.00375836
-0.0761678
0.0424691
-0.0554391
-0.0483142
0.0147275
0.00291996
0.498804
-0.0235315
-0.0616487
-0.0158615
-0.0527709
-0.0596927
-0.0432049
0.0207618
0.0153247
0.0310985
-0.00253354
-0.110088
0.0579383
0.207594
-0.0164502
0.0150789
-0.115886
-0.0313583
-0.0389617
-0.0605485
0.0408219
-0.397217
-0.0682852
-0.0432783
0.501902
-0.0473587
-0.17596
-0.0505248
-0.29758
0.0113378
-0.147204
-0.376424
0.444847
0.0179777
0.0576827
-0.0594475
-0.0565888
-0.0506275
-0.272524
-0.022544
0.127628
-0.0682387
-0.0559571
-0.39475
-0.0573554
-0.0658556
0.00947275
-0.123245
-0.057096
0.0181718
-0.129348
-0.226772
0.0300053
-0.0583537
0.0189436
-0.0125097
-0.0368994
-0.0464103
0.00670145
-0.0232056
-0.00955661
-0.0110693
-0.0239917
-0.0769085
-0.0291451
0.015624
0.016905
-0.0520429
-0.0348388
-0.0307849
-0.169923
0.037585
-0.0569382
-0.402771
-0.037976
0.120268
-0.0921224
-0.0649844
-0.0584638
-0.0584965
-0.0548077
-0.318776
0.0155535
-0.246856
-0.0574214
0.00290135
0.0244408
-0.146496
-0.314496
-0.313648
-0.0144006
0.0193809
-0.0456494
-0.314654
-0.307296
-0.0132619
0.094251
0.501771
0.0370297
-0.0426101
-0.408801
-0.0532235
-0.311782
0.0450705
0.0165548
0.00786588
0.114373
-0.0386638
-0.0557766
-0.0390584
0.0728331
-0.0748792
-0.326956
-0.0517482
-0.0885585
-0.410202
-0.0478508
0.466559
0.0326146
0.0174176
-0.0529477
-0.00263738
-0.00996339
0.0346892
0.520742
-0.0643715
-0.407124
-0.135628
0.0277504
-0.0830364
-0.0692556
-0.000925072
-0.413303
0.232467
0.110667
-0.0198854
-0.398268
-0.22941
0.0284962
-0.188993
-0.0538926
-0.395627
-0.312728
-0.12642
0.0158258
-0.0170522
-0.259469
-0.0359471
-0.0505339
-0.0748388
-0.307704
-0.0703885
0.0720442
0.0831624
0.0123028
0.0598392
-0.356495
-0.0482572
0.0348528
-0.412517
-0.0582843
0.0206535
0.0801437
0.0152805
-0.0958795
-0.00846057
0.511168
0.105223
0.0141134
0.00707114
0.334871
-0.0424739
-0.0680931
0.0066241
-0.07677
0.0420936
-0.0232541
-0.0452262
-0.298129
-0.0496589
-0.275134
0.000284953
0.00716057
0.0190637
-0.0580261
0.00929426
0.0174182
-0.07282
-0.0664802
-0.0556228
-0.0112074
-0.188484
-0.0503923
0.014737
-0.344219
-0.0690878
-0.0519591
0.488746
0.0176184
-0.412318
0.0952541
0.0583166
0.0885475
-0.00258919
-0.055242
0.00366575
-0.026866
0.16182
-0.0591177
-0.0502709
0.0192059
0.0112504
-0.0177971
-0.00462144
-0.112835
0.0629359
-0.115205
-0.0312382
-0.0442585
-0.026345
-0.0437257
-4.61542e-05
-0.115957
-0.0138055
-0.00337056
-0.399506
0.335953
0.357551
-0.0533843
0.171266
-0.065569
0.0385501
-0.208816
0.0351538
0.00987114
0.33495
-0.0547953
-0.407957
-0.369576
-0.10528
-0.150294
-0.136643
-0.217774
-0.0057311
-0.0364061
-0.046458
-0.0746175
0.108325
-0.14001
-0.0434049
-0.0214415
0.0471199
0.0239129
-0.266245
0.450636
-0.029542
0.0240509
0.0361499
-0.0337832
-0.0656769
-0.200907
-0.118822
0.014539
0.392692
-0.129111
-0.0786082
-0.0927396
0.00842465
-0.0246395
-0.0812758
0.00783158
-0.118697
-0.0483065
0.0405854
-0.015614
-0.0753038
0.346498
0.059888
-0.0393797
-0.0292332
-0.0906822
-0.0496244
0.0659511
-0.0266499
-0.241987
0.00741092
0.0783186
0.507029
-0.348527
-0.0842836
-0.11474
-0.0396413
0.119024
0.0271918
-0.35763
-0.0433851
-0.0157205
-0.0530147
0.015879
0.0155862
0.521333
0.0310488
0.0140346
0.0264947
-0.064049
0.0596918
-0.0319486
-0.0617623
-0.215767
-0.132952
0.0271185
-0.0135027
0.234543
-0.195357
-0.1303
0.132899
-0.0916783
-0.0484413
-0.269783
0.0156024
-0.207317
-0.054507
0.0153197
-0.0274549
-0.00251814
0.43558
-0.150573
-0.0189034
0.495335
-0.10979
0.00444519
0.0578501
-0.061809
-0.0439861
-0.055051
-0.00313337
-0.334513
-0.0614431
0.461579
0.024226
-0.0704164
-0.0566986
0.148725
-0.32977
-0.041803
-0.0021466
-0.0524948
-0.188729
-0.0567173
-0.057143
-0.177573
0.00221837
-0.111069
0.0214348
-0.374964
-0.000362212
0.255544
0.0619947
0.0149955
-0.0367017
-0.0794296
-0.0852696
-0.0570509
0.0491862
-0.0834416
0.00577843
-0.277337
-0.0475272
0.0382537
-0.00455863
0.167666
-0.0154743
-0.0699779
-0.0425738
-0.192466
-0.0843871
-0.0149745
-0.0208967
-0.0430207
0.0798679
-0.0749254
0.00103043
0.0326027
-0.277082
-0.0831789
-0.0676444
0.360347
0.0168932
-0.114427
0.00416156
0.107535
-0.340551
-0.39428
0.0304461
0.0241442
-0.049771
0.107936
0.0559961
-0.0392434
-0.0930878
-0.00661497
-0.00601651
0.0282292
0.0142534
0.313217
-0.0112238
-0.0587509
-0.106414
-0.054708
-0.00186017
-0.0570969
-0.189684
-0.0584706
0.00100702
-0.408663
0.0378769
-0.0810505
0.168402
0.190536
0.0151039
-0.177567
-0.372461
-0.0547251
0.0126051
-0.130616
-0.0110162
0.110453
0.0537169
-0.0620246
0.0780904
-0.299375
-0.0555041
-0.0793673
0.0303599
-0.225546
-0.0448787
0.0159101
0.432005
-0.00351247
-0.0478106
-0.0628986
0.0519256
-0.319164
0.0236967
0.440281
0.0553564
0.0147823
-0.399457
-0.042364
0.0901073
0.174007
-0.052519
-0.0967945
-0.0572755
-0.0411148
0.0458735
-0.0380919
-0.0549996
0.0924504
-0.0581807
0.0505892
-0.0540592
-0.0584856
-0.025176
-0.0393854
-0.0029622
-0.0488866
0.0977337
-0.254408
-0.290769
-0.298306
-0.217429
-0.120987
0.100919
-0.0182244
-0.0417396
0.10696
0.0401293
-0.271162
-0.058728
0.0725776
-0.0329927
-0.0426859
-0.0449713
-0.0540631
-0.0781424
0.0146253
-0.0438739
-0.0516305
0.0566224
0.0176136
-0.0576368
-0.00664588
-0.0566597
0.0666172
-0.142163
-0.0544626
-0.0688642
-0.159234
-0.0769113
-0.133057
0.00434916
-0.104584
-0.0444031
-0.405902
-0.0232537
-0.0551324
-0.0504154
0.488454
0.0351847
0.0484226
-0.0402977
-0.0534788
-0.398031
-0.216352
0.166043
-0.0967721
0.0121404
-0.00728014
-0.172547
0.288244
0.0419282
-0.0525646
-0.028972
0.099626
0.0644487
-0.120148
-0.00373805
-0.0687711
-0.0477883
-0.408988
-0.0866244
-0.035862
-0.0991638
-0.385999
0.0420762
0.0437899
-0.126281
-0.00141027
0.230041
-0.408735
-0.0474179
-0.0387976
-0.0596497
-0.0239707
-0.0576853
-0.00457864
-0.0621541
0.0242326
-0.39358
0.00292894
0.0502234
-0.0434984
-0.110346
0.013766
0.0504145
-0.399569
0.0482441
-0.0707412
-0.00285295
-0.29799
-0.165308
-0.0664817
0.31993
0.0114687
-0.0601598
-0.0574466
-0.0694761
-0.0022434
-0.0248635
0.0137764
-0.0589414
0.0300958
-0.0578234
0.0515906
-0.00604385
-0.242093
-0.00337573
-0.0304318
-0.0381487
0.0220121
-0.0429331
-0.000208703
-0.013921
-0.0424282
-0.0525936
-0.0604911
0.0460195
-0.257307
-0.0530909
-0.0521545
0.0100983
-0.0602441
-0.0216538
-0.0669349
-0.0580226
-0.0573964
-0.170446
-0.0802449
-0.167285
-0.280304
0.123944
-0.0591976
0.0511534
-0.215023
0.0894297
-0.0209744
0.0404303
-0.0596725
0.00639634
-0.0884255
-0.0712433
-0.0486919
-0.141178
0.343293
0.0215119
-0.084422
0.199435
0.0638395
0.0831095
0.0421769
-0.0486788
0.0407461
-0.045479
-0.00266727
-0.0445455
-0.215019
-0.0205294
0.0325372
0.0392929
-0.0678785
0.00240776
0.045007
-0.0384112
-0.00988281
-0.0385778
0.0197243
-0.0580921
0.334229
0.126251
-0.195939
-0.37155
-0.0433098
-0.115594
0.000796901
0.0301577
0.0672753
-0.0237428
0.156003
-0.0562238
-0.0396904
-0.00307214
0.0379182
-0.0572637
-0.0681159
-0.00279023
0.00394949
0.118586
-0.405954
-0.0534033
-0.0339987
-0.0362072
0.0256478
-0.191866
-0.0577093
0.338285
0.167906
0.0468015
0.063476
-0.0682101
-0.128408
0.0709847
-0.013218
-0.029081
-0.0472005
0.0723451
-0.345786
0.0214925
-0.0402038
0.00377601
0.137563
0.00330878
0.0137005
-0.24359
-0.213672
0.278581
-0.0615768
-0.408194
0.0507061
-0.0475839
-0.058727
0.000604137
-0.0571762
-0.0546864
-0.068469
0.0272803
-0.0510132
-0.382458
-0.0164563
0.0329929
-0.0469692
-0.0539158
0.0277562
-0.00540035
-0.0128437
-0.0334061
-0.120491
-0.0995672
0.323807
-0.124916
-0.00108343
0.0341978
-0.0488207
0.000310091
-0.0721372
0.126017
-0.0211391
-0.0853991
0.0261034
0.0447866
-0.145869
0.0157149
-0.217587
0.0290506
-0.327355
-0.0468607
-0.107453
0.0257117
0.0161144
-0.081592
-0.00296432
-0.0152585
0.0620347
-0.204575
-0.228491
-0.0614309
-0.0436587
0.0749558
-0.065173
0.0706535
-0.0645549
-0.0133697
0.0269325
-0.412637
-0.0406278
-0.293046
-0.00949742
-0.0720619
-0.0679469
-0.410643
-0.0483112
-0.127607
-0.0691121
-0.00449282
-0.0915066
-0.0102509
-0.00886513
-0.099781
-0.0581879
0.0976866
0.294157
0.089467
0.0181799
-0.0373318
-0.0946379
-0.0317029
0.016141
-0.392602
0.0723967
-0.00318422
-0.0541618
0.013705
0.0249186
-0.0936219
-0.170868
-0.404274
-0.00218055
0.0836876
0.0153865
0.418151
0.0040026
0.457355
-0.058314
-0.0478875
-0.0588808
-0.391718
0.156275
-0.120007
0.479116
0.0255854
0.0715457
0.118193
0.134379
0.496522
-0.0469508
-0.336646
-0.0521156
0.50932
0.0376548
-0.0665907
0.0128581
-0.411886
-0.049797
-0.0299508
-0.0264109
-0.0159565
0.00759264
-0.0756981
-0.324651
0.00070538
-0.0215396
0.00706264
-0.063336
-0.0209709
-0.170086
-0.0622647
-0.297241
0.0314144
0.0080762
-0.0375193
0.432592
0.0285599
-0.0898136
0.0239356
-0.179361
0.180192
-0.0959711
-0.0634746
-0.322264
0.00044317
-0.0142714
-0.0554963
-0.0590397
-0.0396041
-0.0493267
0.0175714
-0.0631407
0.03086
0.00927301
-0.0148939
0.0308636
-0.398111
-0.0390728
-0.0592735
-0.0542424
-0.0900922
-0.145993
-0.00217522
-0.0530285
-0.00221188
0.485851
-0.016563
0.0609377
0.0321058
0.0127653
-0.010612
-0.159817
-0.0275229
0.444591
-0.0116731
0.169855
-0.0015656
0.496083
0.0230699
-0.0556896
-0.0513534
-0.0911736
-0.339422
0.0131226
-0.0423372
-0.117949
0.0150548
-0.00554696
0.0198367
-0.0525166
-0.330693
-0.0170027
-0.00738962
-0.0712661
-0.0561424
0.208972
-0.0397336
0.0427166
-0.0544027
-0.0526477
-0.000844207
-0.0571233
-0.0278059
-0.0522958
0.0395297
-0.0128212
0.0247669
-0.0386763
-0.0471134
-0.00224837
0.393853
-0.0554744
0.0133917
-0.00715341
0.00572794
0.413258
-0.0434503
-0.112357
-0.0341368
-0.0713254
0.0231483
0.0386066
-0.0239432
0.015529
-0.0800379
0.0431215
-0.0561865
-0.280543
-0.0584444
-0.00256827
-0.058762
-0.0695296
0.0233944
-0.131005
-0.054032
-0.0580357
0.104986
-0.374811
-0.0968848
0.0179667
-0.130591
-0.124839
-0.0329189
-0.170795
-0.0558628
-0.0429415
-0.0580088
0.0132358
-0.163592
0.293122
-0.152724
0.0148394
0.0237712
-0.00289723
0.175854
-0.0569059
-0.0579913
-0.111529
-0.39873
-0.0614491
0.0236908
0.498358
-0.0485983
-0.0436855
0.0328651
0.0184416
-0.0675953
-0.0494614
0.0481206
-0.0551011
-0.385832
-0.0465378
-0.357062
0.346596
-0.098061
-0.0569405
-0.222066
-0.00705617
-0.303231
-0.0901374
-0.0116708
-0.0216934
0.0141717
-0.317042
-0.135472
-0.0488083
-0.0114363
-0.309302
-0.00509958
-0.0962155
-0.0473935
0.03832
-0.0565293
-0.121365
-0.0483536
-0.097365
-0.0187401
0.0473267
0.0634479
-0.0828413
-0.0569955
-0.311453
-0.0441685
-0.00329668
-0.412054
-0.188705
-0.0599643
0.0126026
0.017074
-0.0622663
0.425562
0.0215091
-0.0900745
0.311869
0.201915
-0.0571864
-0.0473552
-0.231996
-0.051618
0.0559311
-0.00795031
0.300932
-0.0478775
-0.318776
-0.013986
0.20563
0.331635
0.379779
-0.0242643
0.0231786
0.386587
-0.080616
-0.261933
0.425813
-0.060423
0.0177852
0.420041
-0.0537614
0.0531894
0.289353
-0.101337
-0.00241069
-0.0803495
-0.0446998
0.42902
0.0244516
-0.0618435
-0.0842514
-0.389505
-0.00704708
-0.0325529
0.0111114
-0.0286045
0.0117028
-0.0936165
0.045404
0.108866
0.386712
-0.0560705
-0.046219
0.0872283
-0.0421625
-0.0145382
-0.210893
0.279354
-0.360193
-0.000787326
0.119644
-0.340186
0.337833
0.0469189
0.0921664
-0.087354
-0.0489235
-0.125011
0.0179262
0.0122712
0.00852198
-0.0769156
0.0271772
0.482118
0.496698
0.410728
-0.0305606
-0.19178
-0.33993
0.0131206
-0.17709
0.0432691
0.233403
0.00486484
-0.0140433
-0.0881308
-0.143673
0.0138986
-0.390467
-0.20393
0.333411
-0.188364
0.00339658
0.0177236
-0.0531682
-0.0281545
-0.392841
-0.391122
0.0556242
-0.227052
0.0148768
-0.00410219
-0.00721972
0.0271058
-0.337061
-0.0293158
-0.293166
0.306108
-0.0247296
0.446217
-0.314422
-0.0526737
-0.322625
-0.0307206
-0.0137732
0.0288717
-0.0303292
0.468765
0.366691
-0.117333
0.027891
-0.0241454
0.144062
0.0146377
-0.0553326
0.085169
0.191113
0.254808
0.0605464
0.0246008
-0.00269993
-0.0814641
0.0217537
0.0308122
0.330986
0.0655947
0.00787718
-0.110744
0.00939304
-0.303389
-0.0521649
0.488645
0.0397386
0.32317
0.028434
-0.0766968
-0.021117
-0.0266786
0.124964
-0.286012
-0.0522864
0.323935
-0.00643828
-0.0747672
-0.0985754
-0.058192
-0.111856
0.0391422
-0.117835
-0.183362
-0.000339401
0.275378
-0.0719554
0.340535
0.0254619
-0.0954339
0.42273
-0.101908
-0.0424799
-0.0152417
-0.0616916
0.0316291
0.0174845
-0.0517749
-0.054445
0.016465
-0.0517911
-0.360747
-0.0549374
-0.370891
0.422866
-0.282917
-0.19739
-0.00213374
-0.0255327
-0.00948714
0.142967
-0.114262
-0.123051
0.0601784
0.0190968
-0.0107255
-0.235559
-0.0599902
-0.0864763
-0.04999
0.356579
-0.409955
-0.195629
0.021749
-0.402486
0.030571
0.117063
0.152156
-0.0487536
-0.0579996
0.115854
-0.0289689
0.299503
-0.0492569
-0.0500085
-0.397029
0.168968
-0.0619759
-0.0523729
0.0268404
0.477468
-0.110968
0.0691197
-0.34129
-0.402575
-0.0537123
0.112052
-0.0574221
-0.403002
0.0226961
-0.00735111
-0.00221943
0.000453317
0.0635277
-0.411994
0.0620759
-0.0396784
0.0110642
-0.0144614
0.447179
-0.0177694
-0.00588008
0.02334
0.0336899
-0.0669886
-0.00690289
-0.412457
-0.0177481
-0.0283617
-0.0142228
0.0556682
0.368651
-0.00718142
0.017865
-0.00414886
-0.0416526
0.308506
-0.0366183
-0.0498319
0.0124734
0.10046
-0.0528738
-0.119701
0.0753079
0.0217974
-0.0143068
-0.00594245
-0.208609
0.0125019
-0.00820478
-0.0352165
-0.288822
0.010298
0.186
0.0571475
0.0270492
-0.0473944
-0.406532
-0.0542161
-0.0475611
-0.0376535
-0.0570396
0.051139
0.353851
-0.150808
-0.0224431
-0.0606498
-0.0595043
-0.0490087
0.0612855
0.0326845
0.482669
-0.032005
-0.238348
-0.0455169
-0.0112822
0.0290391
-0.408492
-0.0626346
-0.0570795
0.0688379
0.0254328
-0.407419
-0.0709254
-0.00724767
0.0170067
-0.0147471
0.0223806
0.024183
0.0391062
0.185348
-0.0525258
0.0288259
0.0515296
0.454471
0.0191341
-0.234006
0.0665133
-0.0208657
-0.0446251
0.0148153
-0.167128
0.0701926
0.251835
0.0237397
-0.00943469
-0.251662
-0.3412
0.0139699
-0.0575518
0.211748
0.0344057
0.0903579
0.0162811
-0.0270933
-0.274169
-0.206447
-0.0493973
-0.0489506
-0.0249189
-0.39271
-0.0783475
-0.00938066
-0.10835
0.0697834
-0.042903
-0.0495951
-0.0539587
-0.279441
-0.0723106
-0.0499559
-0.0125465
-0.0331937
0.105853
-0.00914164
-0.0118168
-0.0514046
0.312049
-0.00900427
0.118174
-0.0599824
0.0847933
0.420048
-0.0556348
-0.0434598
-0.280877
-0.28974
0.177814
0.107518
-0.0575014
-0.41045
-0.0400038
0.0834673
-0.0103588
0.00624803
-0.00409163
-0.0544772
-0.0407105
-0.185788
-0.0144035
-0.204323
0.0153514
-0.0597809
-0.0554797
0.319743
-0.186758
0.323396
0.387684
0.0665162
0.172336
0.00871416
0.135099
0.0234195
-0.0132989
-0.0579648
-0.0565431
0.0223146
0.102365
-0.068933
0.0048625
-0.00816819
0.122667
-0.412163
-0.133521
-0.0590094
0.20996
0.0159809
-0.0621914
0.200801
-0.0193041
0.0370451
0.0214947