/*--------------------------------*- C++ -*----------------------------------*\
| =========                 |                                                 |
| \\      /  F ield         | OpenFOAM: The Open Source CFD Toolbox           |
|  \\    /   O peration     | Version:  v2012                                 |
|   \\  /    A nd           | Website:  www.openfoam.com                      |
|    \\/     M anipulation  |                                                 |
\*---------------------------------------------------------------------------*/
FoamFile
{
    version     2.0;
    format      ascii;
    class       surfaceVectorField;
    location    "1000";
    object      ddtCorrDdt0(Uf);
}
// * * * * * * * * * * * * * * * * * * * * * * * * * * * * * * * * * * * * * //

dimensions      [0 1 -2 0 0 0 0];


internalField   nonuniform List<vector> 
20642
(
(0.00693688 0.00124127 -4.54914e-18)
(0.00613936 0.00107753 5.39506e-18)
(0.0079063 0.000603042 7.49838e-18)
(-0.0165587 -0.0156038 5.12281e-19)
(-0.018472 -0.0155731 -5.97082e-19)
(-0.0171558 -0.0135315 4.63662e-19)
(-0.0101761 -0.0094437 2.59366e-18)
(-0.00914766 -0.00950994 2.99467e-20)
(-0.00690485 -0.010838 4.41103e-19)
(-0.00290565 0.000656372 -8.84651e-19)
(-0.00298374 0.000624001 -2.28288e-19)
(-0.00290157 0.000577542 -3.1064e-19)
(0.008769 -0.00345144 -7.54906e-20)
(0.0093055 -0.00359336 -6.88955e-20)
(0.00883764 -0.00399051 1.89116e-19)
(-0.0144099 -0.0154364 3.08745e-19)
(-0.015211 -0.0177871 5.13089e-19)
(-0.00477796 0.00210852 5.64139e-19)
(-0.00472536 0.00202566 1.11185e-18)
(-0.00483044 0.00202772 9.70577e-19)
(-0.0273022 0.00944659 2.38349e-20)
(-0.0271781 0.0140611 -3.97452e-18)
(-0.0173447 0.0166689 -1.64607e-19)
(-0.00358461 0.00314338 4.72218e-18)
(-0.00363959 0.00307766 -2.93158e-18)
(-0.00368036 0.00318345 -2.52788e-18)
(0.000261891 0.0029105 1.38335e-18)
(0.00042082 0.00286803 -1.64015e-17)
(-0.0300606 0.00983142 1.14431e-18)
(-0.0340044 0.00466316 -1.63242e-19)
(-0.00234012 -0.000579811 -4.39373e-19)
(-0.00243284 -0.000602001 -8.72011e-19)
(-0.0023822 -0.000504375 -8.1847e-19)
(-0.00062273 2.74807e-06 -2.27668e-20)
(-0.000619192 4.02971e-06 8.54192e-19)
(-0.0306309 0.095141 2.61714e-18)
(-0.0440297 0.104687 -4.33326e-19)
(-0.0182193 0.099759 6.17095e-20)
(-0.00210922 -0.0125439 6.40636e-20)
(-0.00258696 -0.0133291 2.88358e-19)
(-0.00313207 -0.012344 1.11125e-19)
(0.00734167 0.00144229 -1.00838e-17)
(0.00516674 0.00169748 -1.92947e-17)
(-0.000408937 7.94112e-05 4.02451e-20)
(-0.000368422 8.34219e-05 5.25733e-20)
(-0.000260555 3.99451e-05 1.38863e-19)
(-0.0304059 0.0103438 1.67352e-18)
(-0.029655 0.0108612 9.09939e-19)
(-0.0327888 0.0065398 -2.42834e-18)
(-0.00372584 -0.000760461 -4.49428e-18)
(-0.0035654 -0.00126054 3.3457e-18)
(-0.0031391 -0.0007869 -5.85619e-18)
(-0.00250435 0.000292964 1.70424e-17)
(-0.00105406 -0.000714883 -1.50586e-18)
(0.000299855 -4.60487e-05 1.4662e-17)
(-0.00708853 4.05114e-05 -1.51308e-19)
(-0.00698148 0.000300212 5.92891e-21)
(-0.00726017 0.000262024 -1.54657e-19)
(0.00222648 -0.00325655 -1.26365e-19)
(0.00204667 -0.00326667 -6.13746e-20)
(0.0022135 -0.00344983 2.92926e-20)
(-0.00601034 0.00281811 4.21174e-18)
(-0.00600733 0.00281758 3.52529e-18)
(-0.00601137 0.00282244 -3.57693e-18)
(0.00240602 -0.00320365 -4.38631e-19)
(0.00223573 -0.00306104 -3.18942e-19)
(-0.00408631 1.02335e-06 -1.61545e-18)
(-0.00416814 7.19639e-05 1.09768e-18)
(-0.00417531 -4.01333e-05 4.29409e-19)
(-0.00801937 0.00124348 9.22226e-20)
(-0.00774827 0.000910291 -1.1383e-20)
(-0.00825088 0.000796762 -5.225e-20)
(-0.0149315 -0.0362468 5.15466e-20)
(-0.0148267 -0.0304072 -4.43396e-19)
(-0.0105656 -0.0360977 1.55874e-18)
(-0.000228922 0.00296368 2.12987e-17)
(-0.0148476 0.0063808 1.01423e-19)
(-0.0130703 0.00559724 3.2133e-19)
(-0.0149013 0.00447739 3.99889e-19)
(0.00390456 -0.00114732 -1.15637e-20)
(0.0039252 -0.000958067 -5.11887e-19)
(0.00375636 -0.00103367 3.05878e-19)
(-0.000139981 0.00268728 -5.8458e-18)
(-0.000335339 0.00370632 3.60756e-18)
(-0.00750332 0.00248238 -1.75837e-18)
(-0.00769928 0.00246533 2.45811e-18)
(-0.00751723 0.0023133 9.74625e-20)
(-0.00325776 -6.72913e-05 3.38374e-19)
(-0.00317518 -0.000112224 -9.81718e-19)
(-0.00316923 -2.09395e-05 -1.23505e-18)
(0.0146431 -0.00134708 4.2626e-18)
(0.0147575 -0.00200853 -3.67446e-18)
(0.0157355 -0.00199829 1.74163e-18)
(0.00340847 0.000685595 -8.46828e-21)
(0.00336688 0.000783538 -3.16776e-20)
(0.00352217 0.000790477 -4.00657e-20)
(-0.0346905 0.0149852 -3.73828e-19)
(-0.0282899 0.0247005 -3.13244e-18)
(-0.0050189 -0.0028715 5.32768e-21)
(-0.00509216 -0.00265626 4.41184e-19)
(-0.00528505 -0.00285843 1.96443e-20)
(0.000744845 -3.19281e-05 -3.44104e-19)
(0.000982791 -5.02173e-05 2.50755e-20)
(0.000674486 -2.80714e-05 1.4864e-19)
(-0.00483287 0.00218185 1.55427e-18)
(-0.00472906 0.00217702 5.71464e-19)
(-0.00648453 -0.000604876 3.0628e-19)
(-0.00658876 -0.000726822 5.86921e-19)
(-0.00663944 -0.000553156 4.38702e-19)
(-0.000664688 9.48572e-06 -1.16409e-19)
(-0.000553338 3.78135e-06 4.18144e-20)
(-0.000930312 -3.93522e-05 1.29076e-19)
(-0.00178145 0.00437267 -2.34438e-19)
(-0.00199804 0.00471932 -1.12305e-19)
(-0.00156811 0.0046596 6.2001e-20)
(-0.00311692 0.00272914 3.43179e-19)
(-0.0031575 0.00263642 1.38292e-18)
(-0.00303575 0.00266408 -3.06583e-19)
(-0.00671484 -0.0014051 -1.86021e-18)
(-0.00713678 -0.00130539 -4.14149e-18)
(-0.00696108 -0.00183666 1.08909e-18)
(-0.00649499 -0.000953017 1.48295e-18)
(-0.00621349 -0.00143436 1.06373e-19)
(0.0236814 0.0131424 -2.17914e-19)
(0.0220047 0.01363 9.08036e-19)
(0.0241386 0.0129777 -1.80362e-18)
(-0.00713782 -0.000230376 4.66661e-20)
(-0.00689183 -0.000149009 -4.80174e-20)
(-0.00704788 -0.0142727 3.63085e-18)
(-0.00863511 -0.0134504 6.45165e-18)
(-0.00738098 -0.0132418 -3.8076e-18)
(-0.00878197 -0.011109 -3.4498e-18)
(-0.00117249 -0.00407203 4.25645e-18)
(-0.0271567 -0.0102751 -3.345e-19)
(0.00336467 0.000597028 5.0243e-19)
(0.00348669 0.000610474 -9.66519e-20)
(-0.00230139 -0.000657581 3.87299e-19)
(-0.00225707 -0.000561376 7.13466e-19)
(-0.00537015 0.0099601 -6.78685e-19)
(-0.00574855 0.0108531 3.28581e-18)
(-0.00641072 0.00994259 -1.89113e-18)
(0.0160436 0.00176601 3.09787e-18)
(0.0213336 0.00204871 -5.92421e-18)
(0.0164247 0.00183561 -3.61966e-18)
(-0.00165408 -0.00229606 -3.96172e-20)
(-0.00155419 -0.00221005 9.54873e-19)
(-0.00153061 -0.00236743 -1.54483e-19)
(-0.00200752 -0.00219283 -9.0078e-19)
(-0.00189241 -0.00213355 7.26256e-20)
(-0.00199222 -0.00202894 -6.62408e-19)
(-0.00505593 0.00932436 5.45926e-19)
(-0.00453737 0.0100738 -8.90613e-19)
(-0.000412847 0.00262557 4.10335e-18)
(-0.00602677 0.00282885 -2.74983e-18)
(-0.00600661 0.0028054 2.60973e-18)
(-0.00162797 0.00407327 -1.66378e-19)
(-0.00193797 0.00405026 -8.45942e-20)
(0.0244522 0.0133514 -9.12013e-19)
(0.0227847 0.0125872 -6.92116e-19)
(0.0230334 -0.00096079 -5.10601e-18)
(0.0271894 -0.0023756 1.5915e-18)
(0.0249949 -0.00411359 -6.84471e-18)
(0.00598916 0.000492347 -1.18535e-19)
(0.0059189 0.000325433 1.36118e-20)
(0.00576966 0.000488582 -7.91165e-21)
(0.000755791 -7.75103e-05 3.53893e-20)
(0.000748451 -8.71318e-05 5.34239e-20)
(0.000878107 -0.000119016 2.30211e-20)
(-0.00398507 4.41002e-05 -7.55634e-19)
(-0.00399789 -6.00544e-05 6.7677e-19)
(0.0143183 -0.00908395 1.3162e-18)
(0.0139369 -0.00889603 8.80608e-18)
(0.0139952 -0.00869384 3.47134e-19)
(0.00479214 0.00413264 2.31987e-19)
(0.00511244 0.00349122 2.19973e-19)
(0.00556917 0.00390656 2.22709e-19)
(-0.0166566 0.00736152 -9.91701e-20)
(-0.0189232 0.00828379 -1.41943e-18)
(-0.0188899 0.00571982 1.21425e-18)
(-0.0402648 0.00572987 -6.30384e-19)
(-0.0408173 0.015 2.16614e-18)
(-0.0249811 0.0154004 1.20609e-18)
(0.0167711 0.00111938 6.75596e-18)
(0.0155758 0.00155731 1.74765e-18)
(0.0162987 0.00156193 -5.19089e-18)
(0.0135907 -0.0104025 -2.10716e-18)
(0.0130407 -0.0102236 -2.03616e-18)
(0.0141334 -0.0100984 -1.57172e-18)
(0.0137324 -0.00089202 5.7832e-18)
(0.0147195 -0.000854207 -3.81988e-20)
(-0.001762 0.000727609 -5.9242e-20)
(-0.00181701 0.00077559 -4.43688e-19)
(-0.00182002 0.000702243 -8.51881e-19)
(-0.00147522 0.00383174 4.9022e-20)
(-0.00130593 0.00405377 3.74967e-19)
(-0.00675062 0.000505397 -9.6299e-21)
(-0.00669083 0.000259872 2.34966e-19)
(-0.00457039 -0.000684299 9.28014e-19)
(-0.00465561 -0.000589449 8.74091e-20)
(-0.00466807 -0.000746353 -1.85167e-19)
(0.00601925 -0.00453849 -1.19413e-19)
(0.00625029 -0.00473821 -1.48497e-19)
(0.00582229 -0.00488438 -2.35534e-19)
(-0.00136332 0.00362199 -5.36415e-20)
(-0.00161101 0.00359691 -7.55326e-20)
(-0.00446383 -0.000597546 9.96346e-19)
(-0.00445627 -0.000754343 -4.11005e-19)
(-0.00332916 -9.02954e-05 -6.21865e-19)
(-0.00332701 -4.12845e-06 2.29721e-18)
(-0.00103402 -0.00459919 -1.01187e-19)
(-0.000780195 -0.00464315 2.54463e-20)
(-0.000893115 -0.00436389 3.18881e-19)
(2.6921e-05 8.97714e-05 -3.84878e-21)
(-2.41602e-05 8.96648e-05 -9.2119e-20)
(3.39504e-05 4.18929e-05 -1.37114e-20)
(-0.00170107 0.000750388 -8.33305e-19)
(-0.00170287 0.000680102 2.14501e-18)
(0.0185188 -0.0104391 5.83389e-18)
(0.0170081 -0.0109911 -2.21642e-18)
(0.0179803 -0.0107938 7.58498e-18)
(-0.000277376 -0.00031616 5.06975e-19)
(-0.000292539 -0.000354676 -2.90244e-19)
(-0.000240759 -0.000352639 7.60853e-19)
(0.035593 0.0295849 8.24222e-19)
(0.0389088 0.0301294 1.02744e-18)
(0.0324952 0.0364005 1.83199e-18)
(-0.00738612 0.00269684 -4.46594e-18)
(-0.00726056 0.00245748 -4.98302e-18)
(-0.000235783 -0.000167676 4.00313e-19)
(-0.00019213 -0.000175046 4.09825e-19)
(-0.000232239 -0.000123974 8.47177e-19)
(-0.00642793 -0.000460612 1.78144e-19)
(-0.00635168 -0.000570662 -9.95669e-19)
(-0.000438192 7.16659e-05 -9.44874e-20)
(-0.000518646 0.000123858 -1.84905e-19)
(-0.000840031 0.000199052 -2.84498e-20)
(-0.000871241 0.000180016 3.13382e-20)
(-0.000905901 0.000226732 -7.86068e-20)
(-0.00321058 0.00277853 -3.47648e-18)
(-0.0205906 -0.0200301 1.99238e-18)
(0.0146581 -0.0125044 -3.7532e-19)
(0.00283138 0.00125817 3.03013e-21)
(0.00288324 0.00139192 1.02618e-19)
(0.00274072 0.00134924 -4.764e-20)
(-0.0025881 -0.0030853 2.07221e-19)
(-0.00242281 -0.00318944 2.19092e-19)
(-0.00260205 -0.0032969 -1.8196e-20)
(-0.0142554 0.00879158 -2.83445e-19)
(0.0157821 -0.0469251 7.89189e-19)
(0.0125581 -0.0412069 6.26373e-19)
(0.0206247 -0.0424172 -3.92893e-19)
(0.000915133 6.9307e-05 2.04566e-21)
(0.000948326 6.44337e-05 -1.22096e-20)
(0.000732254 3.41512e-05 3.34896e-21)
(-0.000253497 -0.000202843 -1.49248e-18)
(-0.000271888 -0.000156541 -5.40833e-20)
(0.00200574 -0.0210462 -3.17626e-19)
(-0.000929745 -0.0181086 -4.68474e-19)
(0.00371098 -0.0199354 -8.57653e-20)
(-0.000383637 -0.000101255 -2.66482e-19)
(-0.000441001 -9.73379e-05 2.46508e-20)
(-0.000330448 -5.19974e-05 1.72548e-20)
(-0.000330887 -0.000110076 -7.52632e-20)
(-0.000390382 -0.00016199 1.82981e-20)
(-0.00119518 -0.00478188 -7.73527e-19)
(-0.00124414 -0.00451204 -6.90415e-19)
(0.00119594 0.00011933 7.44448e-20)
(0.00122158 0.000108797 1.12998e-20)
(0.00115629 8.30717e-05 3.41171e-20)
(0.00571724 -0.0042634 1.971e-19)
(0.00613104 -0.00408845 -1.68299e-19)
(0.0335063 -0.00122095 6.28061e-22)
(0.0327495 -0.00176237 -7.3763e-19)
(0.0335258 -0.000677257 4.58509e-18)
(0.003355 -0.00680067 -4.82063e-19)
(0.0028618 -0.00634832 -6.53325e-18)
(0.00176423 -0.00703445 -5.19802e-18)
(0.00607005 0.000695676 -3.85228e-22)
(0.00620155 0.000514566 -5.46714e-20)
(-0.00243197 0.00467894 -8.8919e-20)
(-0.00220423 0.00511584 -1.10284e-19)
(-0.0142277 -0.0433478 4.45138e-19)
(-0.0181989 -0.0355064 7.231e-19)
(-0.000645306 6.58074e-05 1.16884e-18)
(-0.000639326 8.45182e-05 6.87075e-19)
(0.0149422 -0.00276474 4.13145e-19)
(0.0137979 -0.00209561 -5.80365e-18)
(-0.0118591 0.00473795 2.276e-19)
(-0.0112942 0.00643223 -2.3526e-19)
(0.0148201 -0.00917457 -2.81638e-18)
(0.0144125 -0.00946016 -2.48924e-18)
(-0.00494735 -0.000963657 7.02792e-19)
(-0.00502045 -0.000839393 1.49774e-19)
(-0.00485159 -0.000877528 -7.49183e-19)
(-0.00392459 -0.000218237 6.32541e-18)
(-0.00429602 -0.000616854 -3.08644e-18)
(-0.00135229 5.191e-05 9.02822e-20)
(-0.00141976 5.94272e-05 -1.3067e-19)
(-0.00136311 6.2088e-05 3.76211e-20)
(-0.00478436 -0.00765818 4.21687e-18)
(-0.00565502 -0.00782959 8.6033e-18)
(-0.00535644 -0.00693204 4.60774e-18)
(-0.00134418 0.00079367 -9.72267e-19)
(-0.00140071 0.000783748 -1.7818e-18)
(-0.00135025 0.00073942 -9.44607e-19)
(1.49755e-05 0.000135611 2.80597e-20)
(8.91772e-05 8.28093e-05 8.1443e-20)
(-0.000888961 0.00353834 2.79749e-19)
(-0.000660737 0.00344886 3.188e-19)
(-0.000828307 0.00332146 5.58633e-21)
(-0.0214214 0.00906119 -7.67033e-19)
(-0.0185486 0.0113843 -1.09592e-18)
(-0.00316323 0.00363619 2.83414e-19)
(-0.00322587 0.00409345 -2.20223e-18)
(-0.00356475 0.0037447 1.41448e-18)
(0.0251035 0.00179111 3.46465e-18)
(0.0259839 0.00149002 -1.29846e-17)
(0.0245807 0.00173746 -1.04077e-17)
(0.0189378 -0.01038 3.92511e-18)
(0.0197566 -0.0102079 -1.60815e-18)
(-0.00390738 0.000105974 1.01621e-18)
(-0.00381454 0.000128748 -6.50264e-19)
(-0.00383578 3.73299e-05 1.53713e-19)
(-0.00681946 0.000846356 -1.32306e-19)
(-0.00649283 0.000693248 -6.85272e-20)
(0.00275757 -0.000469722 1.31058e-19)
(0.00274644 -0.000397252 7.30903e-20)
(0.00267057 -0.000446851 1.30138e-19)
(-0.00327177 0.00321953 1.20715e-18)
(-0.00280205 0.00351529 -3.99339e-19)
(-0.00519352 0.00345135 -3.82292e-18)
(-0.00528333 0.00339843 -2.17086e-18)
(-0.00528769 0.00350442 1.11299e-18)
(0.00572492 0.00450173 5.02901e-19)
(0.00275254 0.00377499 -1.21135e-19)
(0.00849059 0.00596588 -6.21406e-19)
(0.0332108 -0.000333355 -2.43065e-18)
(0.0334206 -7.05268e-06 -6.59756e-20)
(0.0330461 -0.000583262 -2.13859e-18)
(-0.00506613 -0.00103852 1.03753e-18)
(-0.00490681 -0.00109301 1.47082e-19)
(-0.00784324 0.00156637 3.4313e-18)
(-0.00769045 0.00133244 1.48295e-18)
(-0.00805537 0.00135411 -1.9841e-18)
(-0.012514 -0.0512761 -1.79514e-18)
(-0.00851623 -0.0501999 -4.51257e-19)
(0.0353685 0.00221168 -7.7034e-19)
(0.0308527 0.00251058 -1.82617e-18)
(0.0325406 0.00552195 -1.86684e-19)
(0.0300985 0.00259298 -6.07425e-18)
(0.0302966 0.00266268 1.13207e-17)
(0.0312328 0.00260291 -8.57227e-19)
(-0.00872905 0.00230193 -1.53699e-19)
(-0.00826973 0.00173189 1.04056e-19)
(-0.00913739 0.00170115 -1.07788e-19)
(0.000773557 -2.53881e-05 -5.61863e-19)
(-0.108007 -0.0397936 2.20438e-19)
(-0.113099 -0.039514 -1.29548e-18)
(-0.108832 -0.0303801 3.70012e-19)
(-0.00111826 0.0035905 2.6317e-19)
(-0.00124997 0.00341733 -5.16595e-20)
(0.0345963 -0.000341213 1.41299e-18)
(0.0332303 -0.00152978 4.24859e-18)
(0.000984971 -0.0018213 1.66867e-19)
(0.00101947 -0.00174395 2.18369e-19)
(0.00108616 -0.00183665 2.42153e-19)
(-0.00166217 0.000540025 3.92838e-19)
(-0.00171211 0.000575808 1.34419e-18)
(-0.00172226 0.000516024 2.2887e-18)
(-0.00707958 0.00567788 -2.00247e-21)
(-0.0069234 0.00407999 -1.03128e-19)
(-0.00582149 0.00511957 -5.91536e-20)
(0.0130711 -0.0107172 3.30175e-18)
(0.014422 -0.0105556 1.96312e-18)
(-0.0364782 -0.0446136 1.74245e-18)
(-0.00911316 -0.0129248 -1.76336e-17)
(-0.00985621 -0.0120491 -1.72439e-17)
(-0.00869981 -0.0127527 1.47822e-18)
(-0.00178549 -0.002217 6.15234e-19)
(-0.00177306 -0.00238426 -1.2443e-18)
(-0.00639899 -0.000382287 2.41485e-19)
(-0.00636677 -0.000319333 -1.42185e-18)
(-0.00633188 -0.000359115 6.65635e-20)
(-4.05553e-05 -0.00011432 -2.56389e-20)
(-0.000107973 -0.000127717 -2.24665e-20)
(-3.87835e-05 -0.000195724 -4.93805e-21)
(-0.00161536 0.000507212 -8.4524e-19)
(-0.00160851 0.000559989 -1.53343e-18)
(0.0109357 -0.0503481 6.88934e-20)
(0.0187592 -0.0515548 5.92981e-18)
(0.00407089 -0.00248359 -1.86852e-20)
(0.0042927 -0.00254226 3.44469e-20)
(0.00424912 -0.00234569 -4.75522e-21)
(0.00117121 0.000129699 -2.76329e-20)
(0.00118484 0.000145615 -2.01531e-20)
(0.033988 0.00106311 -1.30213e-18)
(0.0342113 0.00157893 2.59187e-18)
(0.0340458 0.0012597 -5.62207e-19)
(-0.00117554 9.56675e-06 -1.44197e-20)
(-0.00117783 3.72554e-06 -5.31142e-20)
(-0.000880669 7.6918e-06 1.72037e-19)
(-0.00132582 4.24036e-05 -5.34167e-20)
(-0.00122211 4.47821e-05 -1.03e-19)
(9.87382e-06 -0.000943972 -5.89278e-19)
(-2.33833e-06 -0.00100395 -4.54349e-19)
(7.34553e-05 -0.000998887 -2.58391e-20)
(0.0100535 -0.00403767 3.68893e-18)
(0.0101209 -0.0045013 3.94022e-18)
(0.00934579 -0.00458707 5.32467e-18)
(-0.00708882 -0.00479228 2.75547e-20)
(-0.00675565 -0.00442877 4.81749e-21)
(-0.00660364 -0.00491945 1.43224e-20)
(-0.106492 -0.0540613 -5.25241e-19)
(0.0112627 -0.00309772 6.87536e-19)
(0.0106552 -0.00362148 -1.50557e-17)
(0.0108176 -0.00283597 2.4953e-19)
(0.00430624 -0.027524 -7.78321e-20)
(0.00239558 -0.0248053 6.51383e-19)
(0.00605841 -0.0248264 -1.44294e-18)
(0.0155507 0.00169724 -3.67516e-18)
(0.00581934 -0.00799182 1.16098e-17)
(0.00873179 -0.00600279 1.46076e-17)
(0.00810351 -0.00741049 -2.96223e-18)
(0.00142186 -0.000416918 1.50449e-21)
(0.00146838 -0.000459633 -4.29091e-21)
(0.00147868 -0.000399232 -7.97906e-21)
(-0.00937924 0.00283455 4.92421e-20)
(-0.00841068 0.00304226 -4.52578e-19)
(0.00263466 -0.00325294 -3.79545e-19)
(0.00286019 -0.00329187 1.25622e-20)
(0.00264768 -0.00344681 5.78121e-22)
(0.0294356 -0.00403942 6.57834e-18)
(0.0299958 -0.00369177 -4.99154e-18)
(0.029847 -0.00343317 -6.1518e-18)
(-0.00346949 0.00313824 1.77743e-18)
(0.0205701 0.00291161 -5.38364e-19)
(0.0213169 0.000816821 -1.63995e-18)
(0.0225142 0.00337672 -4.86121e-18)
(-0.00950678 0.00448665 -2.7561e-18)
(-0.00916285 0.00440637 3.81431e-19)
(-0.009303 0.00490379 -1.22956e-18)
(-0.000857616 -7.71716e-05 -5.25482e-20)
(-0.000980474 -0.000112742 -1.38199e-19)
(-0.000881247 -6.80171e-05 1.29108e-19)
(-0.00293091 0.000740483 1.22258e-18)
(-0.00284433 0.000693823 -1.13375e-18)
(-0.00620868 0.0117769 4.49717e-18)
(-0.00789023 0.0130581 -1.61568e-18)
(-0.00740621 0.011806 -3.56343e-19)
(-0.00509424 0.00348761 -3.89866e-18)
(-0.00510637 0.0033827 5.92682e-19)
(-0.0075332 -0.0045603 -8.05279e-20)
(-0.00740034 -0.00516621 1.19193e-19)
(-0.00319863 0.00255278 1.39224e-18)
(-0.00313779 0.00247873 1.37469e-18)
(-0.00325233 0.00246265 -4.47098e-18)
(0.0025916 -0.00309829 2.82196e-19)
(-0.00226704 -0.000723658 -5.32274e-20)
(-0.00235305 -0.000744129 -1.60531e-18)
(0.00771652 0.0110018 3.75098e-18)
(0.00435003 0.0107854 2.7705e-18)
(0.00991223 0.0101384 -5.8915e-18)
(-0.00395605 -0.00762885 -2.57224e-18)
(-0.00591428 -0.00853626 4.22283e-18)
(0.00356442 0.00314097 -2.20765e-19)
(0.00426924 0.00615168 2.30157e-19)
(-0.00218602 -0.000711281 -5.81415e-19)
(-0.00222731 -0.000799587 -8.60869e-19)
(0.0123208 0.0115781 -2.84532e-18)
(0.00631103 0.0120533 1.71935e-19)
(0.0040486 -0.00127382 5.16143e-20)
(0.00380455 -0.00133143 1.28774e-19)
(0.0287707 0.0283305 7.41238e-19)
(0.0324852 0.0253196 7.23874e-19)
(-0.00983776 0.00409832 1.25962e-18)
(-0.0100614 0.00463164 9.20964e-19)
(-0.00633548 -0.000543158 2.03474e-18)
(-0.00680414 -0.000492132 4.35069e-18)
(0.00123711 0.00823429 -1.08146e-18)
(0.000751359 0.00735773 3.87494e-19)
(0.000199001 0.00820384 -1.36101e-18)
(0.00534356 0.00095322 -1.57189e-19)
(0.0059488 0.000329631 -2.47864e-18)
(0.00428285 0.000894302 7.16532e-19)
(0.00292666 0.00119277 9.47986e-20)
(0.0028117 0.00115601 -6.9997e-20)
(0.0234759 0.00166292 1.3544e-18)
(0.0248887 0.00133425 2.08137e-20)
(0.0240242 0.00171756 -6.06371e-18)
(-0.00518805 0.000576723 -1.84025e-18)
(-0.00527551 0.0005357 -2.11083e-18)
(-0.00517657 0.000477649 4.53898e-19)
(0.0329258 -0.000760798 -1.22526e-18)
(0.033362 -8.91416e-05 4.54906e-18)
(0.00334879 0.000895245 -3.85673e-20)
(0.00321175 0.000795133 -4.27862e-20)
(0.00385973 -0.00241113 3.14353e-20)
(0.00387916 -0.0026015 9.92694e-20)
(-0.00691892 -0.000600378 2.95332e-19)
(-0.00677293 -0.000533458 2.02416e-20)
(-0.00676531 -0.000712364 5.05308e-19)
(0.0137521 0.00155844 1.33174e-18)
(0.0148463 0.00156537 3.30459e-18)
(0.0150859 0.00107756 8.27935e-18)
(0.0297906 0.0025558 -6.0923e-18)
(0.0276095 0.00253649 -1.49144e-17)
(-0.00436318 -0.00373577 1.71447e-19)
(-0.00460742 -0.00377071 -1.03533e-19)
(-0.00443911 -0.00400705 -1.91096e-19)
(-0.0189739 -0.0171499 -1.02753e-18)
(-0.0172857 -0.0148552 -7.91223e-19)
(-0.0202048 -0.0106334 1.41028e-18)
(-0.0134824 -0.00179584 -5.21808e-19)
(-0.0139688 -0.00298977 -3.96437e-19)
(-0.0127856 -0.00266549 -6.60327e-19)
(-0.0064946 -0.000360041 2.38049e-19)
(-0.000940369 0.00377688 1.97129e-19)
(-0.00521669 0.0116898 2.75871e-18)
(-0.000520764 -0.00463951 -1.01965e-19)
(-0.000621291 -0.00487594 1.82485e-19)
(0.00213295 -0.000173261 -8.37013e-20)
(0.00206917 -0.000156548 -1.22002e-19)
(0.00212546 -0.000114138 -9.05296e-20)
(0.0114569 -0.00283283 4.98475e-20)
(0.0107624 -0.0025174 3.38708e-19)
(0.0107228 -0.00316472 3.31357e-20)
(0.01229 -0.0025794 -5.15044e-19)
(0.0122261 -0.00322493 -4.16775e-19)
(-0.00556042 -0.0117771 1.73617e-17)
(-0.00769292 0.00173949 4.42623e-18)
(-0.00799213 0.00177014 7.86509e-19)
(-0.00764392 0.00166612 2.19835e-20)
(0.00906983 -0.00664433 -6.5647e-18)
(0.00869012 -0.00658284 -6.15232e-18)
(0.0097614 -0.00685319 -1.00656e-17)
(0.000664877 -0.000120295 3.4582e-19)
(0.000577379 -8.05502e-05 -2.94022e-19)
(0.000626213 -0.000148354 3.4676e-19)
(-0.00148227 0.00128463 -1.03854e-19)
(-0.00146525 0.00135128 4.6122e-20)
(-0.00140222 0.00127405 1.45418e-20)
(-0.00155615 0.00129301 -7.63877e-20)
(-0.00149425 0.00121681 -1.99462e-19)
(0.00345546 -0.00858672 1.67602e-18)
(0.00107944 0.0108987 7.45194e-18)
(0.00164723 0.00926972 5.90086e-18)
(0.000382206 0.0105822 1.76819e-18)
(0.0168353 0.0110413 -2.85713e-18)
(0.0195492 0.0108279 -4.89253e-19)
(0.0170596 0.0121131 1.29506e-18)
(-0.000774317 1.82015e-05 -4.54639e-19)
(-0.000794089 1.96908e-05 -9.86342e-19)
(-0.000776788 3.47023e-05 7.97845e-19)
(0.000764853 -6.52348e-05 -1.36428e-20)
(0.000576519 -4.24174e-05 7.60823e-20)
(-0.0155862 -0.0517408 -1.3528e-18)
(-0.00976573 -0.0600054 -1.30186e-18)
(0.0227807 0.00163463 -6.90874e-19)
(-0.00125564 0.00111644 2.60352e-19)
(-0.00130968 0.00114372 2.02726e-19)
(-0.00123846 0.00117341 -2.94834e-20)
(-0.00119041 0.00107806 -2.06812e-19)
(-0.00126705 0.00106033 -4.90778e-20)
(-0.000899277 1.77515e-05 3.89548e-20)
(-0.000493923 6.56223e-06 9.13755e-20)
(-0.00163341 0.00129968 1.34908e-20)
(-0.00162591 0.00136624 -4.73037e-20)
(-0.0017088 0.00129958 -1.53016e-19)
(-0.00164352 0.00123219 -2.41809e-20)
(0.0130929 -0.000239182 5.20619e-18)
(0.012948 -0.000601501 1.95889e-18)
(-0.00161895 -0.0103602 7.12383e-18)
(-0.00046532 -0.0100265 -4.40196e-18)
(0.00274881 -0.00877924 -2.90843e-18)
(0.000896302 -0.00416091 7.90889e-20)
(0.000930809 -0.00397256 1.87753e-19)
(0.000732429 -0.0040348 1.39377e-19)
(0.00179739 -0.000697045 5.96423e-20)
(0.0018592 -0.000751882 1.78592e-20)
(0.00176638 -0.000770865 3.66979e-21)
(-0.00615069 0.0053949 2.89889e-19)
(-0.00655845 0.00550456 5.10801e-19)
(-0.00642623 0.00513498 6.35679e-19)
(0.0183669 -0.000374678 3.82033e-18)
(0.0173189 0.000101263 -2.40564e-18)
(0.0175922 -0.000474556 2.32742e-18)
(-0.00114025 5.97953e-05 -2.17386e-19)
(-0.000963001 3.54061e-05 -7.18e-20)
(-0.00098966 3.51045e-05 9.05021e-20)
(-0.000769725 3.2185e-06 5.53623e-19)
(-0.000758342 1.88854e-05 2.86272e-19)
(-0.0174631 -0.0240913 7.46582e-19)
(-0.0212541 -0.0207031 -7.18031e-19)
(0.0355265 0.000339631 1.85935e-18)
(0.0365921 0.000985213 3.58829e-18)
(0.0353172 8.79054e-06 1.31753e-17)
(0.00258779 0.00971712 4.70823e-18)
(0.00957537 -0.00676848 -3.54568e-18)
(0.0084129 -0.00644575 -4.23668e-18)
(-0.0109654 0.00754816 -8.82804e-19)
(-0.0116601 0.00709354 1.36584e-19)
(-0.0117767 0.00793 1.02852e-19)
(0.000905699 -0.00180495 9.69589e-20)
(0.000953853 -0.00190001 9.89008e-20)
(0.00938084 -0.00518871 4.68351e-18)
(0.0107932 -0.00464468 7.29947e-18)
(-0.0057798 0.00535093 -2.60285e-18)
(-0.00594053 0.00575797 8.66688e-19)
(-0.0108196 0.0040892 3.4316e-19)
(-0.0122714 0.00354834 3.13869e-19)
(-0.00551089 0.00186876 3.51417e-18)
(-0.00530609 0.0017838 1.39174e-18)
(-0.00551043 0.00161835 1.02842e-17)
(-0.00413665 -0.0037082 -1.24952e-19)
(-0.00428526 -0.00351153 2.05237e-19)
(-0.00189578 -0.0103094 1.5174e-17)
(-0.00144824 0.000777321 -9.98277e-19)
(-0.00144734 0.000728745 -4.84763e-19)
(-0.0014927 0.000764581 2.99785e-19)
(-0.00764025 0.000841196 1.55374e-19)
(-0.0078463 0.000806388 -1.20303e-18)
(-0.00772954 0.00101001 4.6137e-19)
(-0.00890562 0.00416215 3.4294e-18)
(-0.00859943 0.00391434 -3.94188e-20)
(-0.00899996 0.00379287 -9.63621e-19)
(0.00127624 -0.00441998 3.08915e-19)
(0.00105831 -0.00427716 -5.24226e-20)
(0.00131088 -0.00422851 3.6906e-19)
(-0.00055531 -8.71214e-06 2.25036e-19)
(-0.00400873 0.00015439 -1.18701e-18)
(0.00771876 -0.0014952 -1.26761e-20)
(0.0072279 -0.0015989 5.98452e-22)
(0.00738654 -0.00110244 7.93321e-21)
(0.00327878 0.0019755 5.31977e-20)
(0.00339316 0.00184688 7.11291e-20)
(0.00347072 0.00199942 2.06243e-19)
(0.0270137 0.000723004 -3.82604e-18)
(0.0260085 0.00103172 -2.78622e-18)
(0.0265657 0.00112759 -1.11183e-17)
(0.0604042 -0.0054817 -5.63946e-19)
(0.0397753 0.00282411 -1.28372e-18)
(0.0440438 0.00500741 2.02642e-18)
(0.000284499 0.00365794 -6.8132e-20)
(0.000461301 0.00348918 -1.62148e-19)
(0.000222339 0.00344259 1.04914e-19)
(-0.00112292 0.00107649 6.59754e-20)
(-0.00114028 0.0010135 1.16233e-20)
(0.00433753 -0.00275749 1.03318e-19)
(0.00453339 -0.00260816 3.31048e-19)
(-0.00110141 0.00113806 5.32154e-20)
(-0.0010597 0.00107043 1.04909e-20)
(-0.00144594 0.000825659 3.85931e-18)
(-0.000738196 2.04044e-06 -6.26266e-19)
(-0.000609191 6.43404e-07 8.62963e-21)
(-0.00624631 0.00223264 -1.21333e-18)
(-0.00628741 0.00231758 7.68457e-19)
(-0.00635409 0.00224921 -9.30018e-19)
(0.000103942 0.00384133 -1.36339e-19)
(0.000372181 0.0039151 -1.12769e-19)
(0.0316664 0.00291367 3.40832e-18)
(0.0322265 0.00298486 9.71664e-19)
(0.00378139 -0.00713558 2.76495e-18)
(0.00442623 -0.00653257 6.51945e-18)
(-0.00167264 -0.000980539 1.85404e-18)
(-0.00165227 -0.000889706 1.74789e-19)
(-0.00158651 -0.000968343 2.96393e-19)
(0.00643684 -0.00232645 -4.1938e-20)
(0.00685052 -0.00237526 1.98322e-20)
(0.00661762 -0.00270406 -6.28365e-20)
(0.0244653 0.013469 -1.40871e-18)
(0.0239549 0.0134246 -8.87374e-19)
(0.0238389 0.0140905 -3.36451e-19)
(-0.00220694 0.000822709 3.9307e-19)
(-0.00227628 0.000841352 1.80316e-19)
(-0.00223169 0.000764703 4.58004e-19)
(-0.000687758 -0.0133158 7.54668e-19)
(-0.00245247 -0.0156332 -5.39718e-19)
(-0.00274 -0.0127264 9.13272e-20)
(0.0274196 0.000285086 -1.64982e-18)
(0.0279685 0.000463573 -5.52997e-18)
(-0.00214558 0.000808895 -1.81816e-21)
(-0.00219083 0.000876889 1.26586e-19)
(0.017085 0.000539265 -2.50153e-19)
(0.0178813 0.000704923 -3.27808e-18)
(0.00315344 0.00210537 -1.61353e-19)
(0.00309635 0.00194165 -5.39706e-20)
(0.0109706 -0.00341363 -2.17189e-18)
(0.0101793 -0.00348144 -4.1875e-18)
(-0.000814049 -8.11902e-05 -6.82019e-20)
(-0.000654465 -3.66305e-05 1.88146e-20)
(-0.00151619 -0.0110117 -2.00553e-19)
(-0.000768387 -0.0109348 -4.64653e-19)
(-0.00121984 -0.0102763 -1.63044e-19)
(0.00144806 -0.0045462 -9.26204e-20)
(0.00119019 -0.00460066 1.96803e-19)
(0.00138237 -0.00171761 3.5161e-19)
(0.00143892 -0.00163838 -2.04181e-19)
(0.00133184 -0.00162969 -3.09641e-19)
(0.00209607 0.000524377 7.29272e-19)
(0.00113568 0.000546592 -1.04983e-18)
(0.00184226 -0.000321041 2.07629e-18)
(0.00128648 -1.04313e-05 2.95617e-19)
(0.00126056 -1.76306e-05 5.15581e-20)
(0.00110685 -8.61265e-07 1.65395e-19)
(0.00682456 -0.0315973 -1.30894e-19)
(0.00208288 -0.0300072 -1.69169e-19)
(-0.00587314 0.000341547 1.76078e-19)
(-0.00595832 0.000288203 1.2526e-18)
(-0.00584987 0.000244134 8.69736e-19)
(-0.00703365 0.00711616 -1.45045e-19)
(-0.00848204 0.00620701 8.93729e-20)
(-0.0138832 -0.00712215 -1.31012e-19)
(-0.0142911 -0.0124501 1.70146e-18)
(-0.0114755 -0.00989211 4.53224e-19)
(0.0306733 0.00283698 -2.91497e-18)
(-0.00123814 8.29913e-05 -3.9767e-20)
(-0.00126084 7.20152e-05 1.25098e-19)
(-0.00623817 0.00315537 1.178e-20)
(-0.006149 0.00321549 -3.0792e-18)
(-0.00614213 0.00309114 1.38124e-18)
(0.00826946 -0.00235193 1.18349e-20)
(0.00801715 -0.00190685 3.0785e-20)
(0.00774272 -0.00243654 8.1396e-21)
(-0.00517339 -0.00110713 4.44466e-19)
(-0.00529749 -0.00118424 2.14721e-19)
(-0.00513497 -0.00125376 -4.26658e-21)
(0.00858489 -0.00292422 -7.69369e-20)
(0.00817124 -0.00336825 -1.31163e-19)
(-0.00437909 -0.00053331 2.07771e-18)
(-0.00447269 -0.000457709 4.0462e-19)
(0.00293385 0.00151741 1.09849e-19)
(0.00298746 0.00164728 2.16035e-20)
(0.00283051 0.00161813 1.00436e-20)
(0.00133676 -2.05353e-05 1.35153e-19)
(0.00129948 -5.14881e-06 -1.80056e-19)
(-0.0101302 0.0119775 -1.2429e-18)
(-0.010948 0.0132646 4.38244e-19)
(-0.0085579 0.0118019 5.90266e-19)
(0.00178848 -0.00145119 -1.34869e-20)
(0.00171966 -0.00219199 1.52236e-20)
(0.00244089 -0.00181337 1.32378e-20)
(-0.00746659 0.000943671 -1.43469e-18)
(-0.00750833 0.00075649 3.59779e-19)
(-0.00429156 -0.000454506 -6.94659e-19)
(-0.0042835 -0.000581131 -7.61687e-20)
(-0.000763101 -8.94782e-06 -1.77482e-20)
(-0.000748912 -8.00452e-06 -9.02647e-20)
(-0.000756764 -2.21181e-05 -9.57998e-19)
(0.033731 0.000550799 -4.02051e-18)
(0.0339119 0.000864665 -7.91864e-18)
(0.0126337 0.00176472 -7.61451e-18)
(0.0117594 0.00199155 -4.721e-18)
(0.0026957 -0.000194522 3.76338e-21)
(0.00267918 -0.000125208 -1.72941e-20)
(0.00261025 -0.000176721 1.61863e-20)
(-0.0285777 -0.0120362 -7.67098e-19)
(-0.0305397 -0.0145573 -3.3253e-19)
(-0.0294922 -0.0176079 -4.11376e-18)
(-0.00521846 -0.000975017 -1.11844e-18)
(0.0302829 -0.00106816 -6.50389e-19)
(0.0273219 0.00143863 2.60439e-19)
(0.0225001 -0.00145415 -8.36956e-20)
(-0.0122278 3.2319e-05 3.97791e-21)
(-0.0127442 -0.000298996 -1.75926e-18)
(-0.0125936 0.000408279 -7.61399e-19)
(0.00481932 -0.00580528 -1.00478e-19)
(0.00429461 -0.00525444 -1.04319e-17)
(0.00360691 -0.00579603 -1.56599e-18)
(0.0187217 0.00239156 1.85693e-18)
(0.0197125 0.00443018 8.58998e-19)
(0.00443727 0.00273607 4.5798e-21)
(0.00478203 0.00309492 -7.03558e-20)
(0.0041291 0.00316759 -1.19692e-21)
(-0.00182564 0.00370445 7.62429e-20)
(-0.00413421 0.00270954 -7.60365e-19)
(0.00607855 -0.00231433 1.89947e-20)
(0.0062594 -0.00199452 -3.53765e-21)
(0.0154724 -0.0115277 -1.99007e-20)
(0.0161235 -0.0111779 -3.94753e-18)
(0.0384275 -0.00208761 4.33469e-19)
(0.0322739 -0.00372489 2.29564e-19)