/*--------------------------------*- C++ -*----------------------------------*\
| =========                 |                                                 |
| \\      /  F ield         | OpenFOAM: The Open Source CFD Toolbox           |
|  \\    /   O peration     | Version:  v2012                                 |
|   \\  /    A nd           | Website:  www.openfoam.com                      |
|    \\/     M anipulation  |                                                 |
\*---------------------------------------------------------------------------*/
FoamFile
{
    version     2.0;
    format      ascii;
    class       pointVectorField;
    location    "1000";
    object      pointDisplacement;
}
// * * * * * * * * * * * * * * * * * * * * * * * * * * * * * * * * * * * * * //

dimensions      [0 1 0 0 0 0 0];


internalField   nonuniform List<vector> 
14386
(
(0 0 0)
(9.62287e-06 7.6989e-05 0)
(0 0 0)
(9.62287e-06 7.6989e-05 0)
(0 0 0)
(0 0 0)
(0 0 0)
(0 0 0)
(0 0 0)
(0 0 0)
(0 0 0)
(0 0 0)
(0 0 0)
(0 0 0)
(0 0 0)
(0 0 0)
(0 0 0)
(0 0 0)
(0 0 0)
(0 0 0)
(0 0 0)
(0 0 0)
(0 0 0)
(0 0 0)
(0 0 0)
(0 0 0)
(0 0 0)
(0 0 0)
(0 0 0)
(0 0 0)
(0 0 0)
(0 0 0)
(0 0 0)
(0 0 0)
(0 0 0)
(0 0 0)
(0 0 0)
(0 0 0)
(0 0 0)
(0 0 0)
(0 0 0)
(0 0 0)
(0 0 0)
(0 0 0)
(0 0 0)
(0 0 0)
(0 0 0)
(0 0 0)
(0 0 0)
(0 0 0)
(0 0 0)
(0 0 0)
(0 0 0)
(0 0 0)
(0 0 0)
(0 0 0)
(0 0 0)
(0 0 0)
(0 0 0)
(0 0 0)
(0 0 0)
(0 0 0)
(0 0 0)
(0 0 0)
(0 0 0)
(0 0 0)
(0 0 0)
(0 0 0)
(0 0 0)
(0 0 0)
(0 0 0)
(0 0 0)
(0 0 0)
(0 0 0)
(0 0 0)
(0 0 0)
(0 0 0)
(0 0 0)
(0 0 0)
(0 0 0)
(0 0 0)
(0 0 0)
(0 0 0)
(0 0 0)
(0 0 0)
(0 0 0)
(0 0 0)
(0 0 0)
(0 0 0)
(0 0 0)
(0 0 0)
(0 0 0)
(0 0 0)
(0 0 0)
(0 0 0)
(0 0 0)
(0 0 0)
(0 0 0)
(0 0 0)
(0 0 0)
(0 0 0)
(0 0 0)
(0 0 0)
(0 0 0)
(0 0 0)
(0 0 0)
(0 0 0)
(0 0 0)
(0 0 0)
(0 0 0)
(0 0 0)
(0 0 0)
(0 0 0)
(0 0 0)
(0 0 0)
(0 0 0)
(0 0 0)
(0 0 0)
(0 0 0)
(0 0 0)
(0 0 0)
(0 0 0)
(0 0 0)
(0 0 0)
(0 0 0)
(0 0 0)
(0 0 0)
(0 0 0)
(0 0 0)
(0 0 0)
(0 0 0)
(0 0 0)
(0 0 0)
(9.62312e-06 5.10052e-05 0)
(9.62311e-06 5.19676e-05 0)
(9.6231e-06 5.293e-05 0)
(9.62309e-06 5.38923e-05 0)
(9.62309e-06 5.48547e-05 0)
(9.62308e-06 5.58171e-05 0)
(9.62307e-06 5.67794e-05 0)
(9.62306e-06 5.77418e-05 0)
(9.62305e-06 5.87041e-05 0)
(9.62304e-06 5.96665e-05 0)
(9.62303e-06 6.06289e-05 0)
(9.62302e-06 6.15912e-05 0)
(9.62301e-06 6.25536e-05 0)
(9.623e-06 6.35159e-05 0)
(9.62299e-06 6.44783e-05 0)
(9.62298e-06 6.54407e-05 0)
(9.62297e-06 6.6403e-05 0)
(9.62297e-06 6.73654e-05 0)
(9.62296e-06 6.83277e-05 0)
(9.62295e-06 6.92901e-05 0)
(9.62294e-06 7.02525e-05 0)
(9.62293e-06 7.12148e-05 0)
(9.62292e-06 7.21772e-05 0)
(9.62291e-06 7.31396e-05 0)
(9.6229e-06 7.41019e-05 0)
(9.62289e-06 7.50643e-05 0)
(9.62288e-06 7.60266e-05 0)
(8.66051e-06 7.6989e-05 0)
(7.69815e-06 7.6989e-05 0)
(0 0 0)
(0 0 0)
(0 0 0)
(0 0 0)
(0 0 0)
(0 0 0)
(0 0 0)
(0 0 0)
(0 0 0)
(0 0 0)
(0 0 0)
(0 0 0)
(0 0 0)
(0 0 0)
(0 0 0)
(0 0 0)
(0 0 0)
(0 0 0)
(0 0 0)
(0 0 0)
(0 0 0)
(0 0 0)
(0 0 0)
(0 0 0)
(0 0 0)
(0 0 0)
(0 0 0)
(0 0 0)
(0 0 0)
(0 0 0)
(0 0 0)
(0 0 0)
(0 0 0)
(0 0 0)
(0 0 0)
(0 0 0)
(0 0 0)
(0 0 0)
(0 0 0)
(0 0 0)
(0 0 0)
(0 0 0)
(0 0 0)
(0 0 0)
(0 0 0)
(0 0 0)
(0 0 0)
(0 0 0)
(0 0 0)
(0 0 0)
(0 0 0)
(0 0 0)
(0 0 0)
(0 0 0)
(0 0 0)
(0 0 0)
(0 0 0)
(0 0 0)
(0 0 0)
(0 0 0)
(0 0 0)
(0 0 0)
(0 0 0)
(0 0 0)
(0 0 0)
(0 0 0)
(0 0 0)
(0 0 0)
(0 0 0)
(0 0 0)
(0 0 0)
(0 0 0)
(0 0 0)
(0 0 0)
(0 0 0)
(0 0 0)
(0 0 0)
(0 0 0)
(0 0 0)
(0 0 0)
(0 0 0)
(0 0 0)
(0 0 0)
(0 0 0)
(0 0 0)
(0 0 0)
(0 0 0)
(0 0 0)
(0 0 0)
(0 0 0)
(0 0 0)
(0 0 0)
(0 0 0)
(0 0 0)
(0 0 0)
(0 0 0)
(0 0 0)
(0 0 0)
(0 0 0)
(0 0 0)
(0 0 0)
(0 0 0)
(0 0 0)
(0 0 0)
(0 0 0)
(0 0 0)
(0 0 0)
(0 0 0)
(0 0 0)
(0 0 0)
(0 0 0)
(0 0 0)
(0 0 0)
(0 0 0)
(0 0 0)
(0 0 0)
(0 0 0)
(0 0 0)
(0 0 0)
(0 0 0)
(0 0 0)
(0 0 0)
(0 0 0)
(0 0 0)
(0 0 0)
(0 0 0)
(0 0 0)
(0 0 0)
(0 0 0)
(9.62312e-06 5.10052e-05 0)
(9.62311e-06 5.19676e-05 0)
(9.6231e-06 5.293e-05 0)
(9.62309e-06 5.38923e-05 0)
(9.62309e-06 5.48547e-05 0)
(9.62308e-06 5.58171e-05 0)
(9.62307e-06 5.67794e-05 0)
(9.62306e-06 5.77418e-05 0)
(9.62305e-06 5.87041e-05 0)
(9.62304e-06 5.96665e-05 0)
(9.62303e-06 6.06289e-05 0)
(9.62302e-06 6.15912e-05 0)
(9.62301e-06 6.25536e-05 0)
(9.623e-06 6.35159e-05 0)
(9.62299e-06 6.44783e-05 0)
(9.62298e-06 6.54407e-05 0)
(9.62297e-06 6.6403e-05 0)
(9.62297e-06 6.73654e-05 0)
(9.62296e-06 6.83277e-05 0)
(9.62295e-06 6.92901e-05 0)
(9.62294e-06 7.02525e-05 0)
(9.62293e-06 7.12148e-05 0)
(9.62292e-06 7.21772e-05 0)
(9.62291e-06 7.31396e-05 0)
(9.6229e-06 7.41019e-05 0)
(9.62289e-06 7.50643e-05 0)
(9.62288e-06 7.60266e-05 0)
(8.66051e-06 7.6989e-05 0)
(7.69815e-06 7.6989e-05 0)
(9.7857e-06 3.53381e-05 0)
(1.03697e-05 7.50567e-05 0)
(9.80485e-06 5.3471e-05 0)
(9.87405e-06 6.17595e-05 0)
(1.09585e-05 3.8782e-05 0)
(5.15765e-06 -1.71938e-05 0)
(3.93977e-06 -1.87158e-05 0)
(7.08205e-06 1.0122e-05 0)
(1.43022e-05 7.11671e-05 0)
(2.84848e-06 -1.8909e-05 0)
(1.64254e-05 9.03213e-05 0)
(1.99666e-06 -3.23478e-05 0)
(1.71301e-05 8.30279e-05 0)
(1.69564e-05 5.94252e-05 0)
(1.94772e-06 -1.64134e-05 0)
(1.01837e-05 7.88776e-05 0)
(1.71051e-06 -2.72324e-05 0)
(1.52805e-06 -1.51038e-05 0)
(1.43727e-06 -2.23571e-05 0)
(1.14958e-06 -1.19628e-05 0)
(9.98125e-07 -1.55331e-05 0)
(8.90707e-06 2.82856e-05 0)
(6.78224e-06 -6.26362e-06 0)
(4.45941e-06 -2.01376e-05 0)
(1.02543e-05 6.93624e-05 0)
(1.04987e-05 6.26042e-05 0)
(6.69282e-07 -7.17826e-06 0)
(6.3997e-07 -8.86412e-06 0)
(1.73728e-05 9.27161e-05 0)
(1.79669e-05 7.5199e-05 0)
(1.69078e-05 9.00784e-05 0)
(1.29933e-05 5.51066e-05 0)
(9.68164e-06 3.42323e-05 0)
(2.66003e-06 -1.96844e-05 0)
(3.37983e-06 -1.79252e-05 0)
(1.90133e-06 -3.00674e-05 0)
(1.89764e-06 -2.9791e-05 0)
(1.7958e-06 -1.77007e-05 0)
(1.07462e-05 8.12901e-05 0)
(4.2497e-07 -5.11272e-06 0)
(3.43884e-07 -4.5019e-06 0)
(1.51974e-05 4.365e-05 0)
(1.13551e-05 4.1256e-05 0)
(1.02708e-05 3.70078e-05 0)
(9.45306e-06 3.42669e-05 0)
(9.42697e-06 2.14764e-05 0)
(6.49528e-06 3.44812e-06 0)
(5.22567e-06 -1.14244e-05 0)
(4.84125e-06 -2.08099e-05 0)
(4.37684e-06 -1.92894e-05 0)
(8.56113e-07 -9.03779e-06 0)
(1.82394e-06 -2.96024e-05 0)
(3.14109e-06 -1.88125e-05 0)
(2.20766e-06 -3.47619e-05 0)
(8.46797e-07 -1.26905e-05 0)
(1.01126e-06 -1.56017e-05 0)
(1.37689e-06 -1.35889e-05 0)
(2.69312e-06 -1.91133e-05 0)
(1.41235e-07 -1.7338e-06 0)
(9.81562e-05 0.000551466 0)
(0.000101367 0.000562829 0)
(9.97353e-05 0.000583915 0)
(0.000102847 0.00059293 0)
(0.000101252 0.000612701 0)
(9.80456e-05 0.000601222 0)
(9.96252e-05 0.000628691 0)
(0.000102723 0.000638037 0)
(0.000101106 0.000652272 0)
(9.79029e-05 0.000640976 0)
(9.93542e-05 0.0006615 0)
(0.000102552 0.000670692 0)
(0.000100884 0.000676887 0)
(0.000104101 0.000683428 0)
(0.000102642 0.000686379 0)
(9.93683e-05 0.00067698 0)
(0.000101371 0.000683319 0)
(0.000104684 0.00069142 0)
(0.000103653 0.000687023 0)
(9.98569e-05 0.000674895 0)
(0.000102675 0.00067921 0)
(0.000105914 0.00068881 0)
(0.000104936 0.000680319 0)
(0.000101615 0.000671194 0)
(0.000103863 0.000670129 0)
(0.000100416 0.000662126 0)
(0.000102811 0.000659484 0)
(0.00010618 0.000665505 0)
(0.00010524 0.000653984 0)
(0.000101743 0.000647882 0)
(0.000104222 0.000641926 0)
(0.000100627 0.000635915 0)
(0.000103138 0.000629391 0)
(9.94714e-05 0.000622238 0)
(0.000101984 0.000615432 0)
(0.00010542 0.000622232 0)
(0.000104294 0.000608392 0)
(0.000100833 0.000600851 0)
(0.000103152 0.000594168 0)
(9.96924e-05 0.000586782 0)
(0.000102038 0.000580454 0)
(9.85436e-05 0.000573389 0)
(0.000100924 0.000567485 0)
(9.75334e-05 0.000561038 0)
(9.98655e-05 0.000555715 0)
(9.66328e-05 0.000549237 0)
(9.88204e-05 0.000544498 0)
(9.56637e-05 0.000536559 0)
(9.78855e-05 0.000532734 0)
(9.45715e-05 0.000522964 0)
(9.6914e-05 0.000520657 0)
(9.33633e-05 0.00050916 0)
(9.58108e-05 0.000508479 0)
(9.22851e-05 0.000495824 0)
(9.49631e-05 0.000495852 0)
(9.16204e-05 0.000481927 0)
(9.45478e-05 0.000482735 0)
(9.14129e-05 0.000467733 0)
(9.44412e-05 0.000469722 0)
(9.15708e-05 0.000453792 0)
(9.4742e-05 0.00045653 0)
(9.22209e-05 0.000439908 0)
(9.5691e-05 0.000442745 0)
(9.35613e-05 0.000425641 0)
(9.74806e-05 0.00042816 0)
(9.56347e-05 0.00041094 0)
(9.99533e-05 0.000413013 0)
(9.81983e-05 0.000396647 0)
(0.000102505 0.000398824 0)
(0.000100796 0.000383904 0)
(0.000104984 0.000386597 0)
(0.000103342 0.000373117 0)
(0.000107625 0.000376207 0)
(0.000106077 0.000364575 0)
(0.000110462 0.000367555 0)
(0.000109039 0.000357724 0)
(0.00011353 0.000360136 0)
(0.000112372 0.000351516 0)
(0.000117064 0.000353346 0)
(0.000116213 0.00034565 0)
(0.000121108 0.000346816 0)
(0.000120577 0.000339545 0)
(0.000125463 0.000339976 0)
(0.00012528 0.000332973 0)
(0.00012997 0.000332958 0)
(0.000130166 0.00032665 0)
(0.000134485 0.000326195 0)
(0.000134747 0.000320637 0)
(0.000138842 0.000319185 0)
(0.000139171 0.000313973 0)
(0.000143486 0.000311158 0)
(0.000144228 0.000306463 0)
(0.000148851 0.000302628 0)
(0.000150337 0.000298908 0)
(0.000154921 0.00029479 0)
(0.00015326 0.000297574 0)
(0.00015908 0.000289701 0)
(0.000121956 0.000354332 0)
(0.000101793 0.000429941 0)
(0.000100106 0.000531858 0)
(0.000107472 0.00061522 0)
(0.000156927 0.000292367 0)
(0.000162609 0.000284202 0)
(0.000157041 0.000292437 0)
(0.000159973 0.000287093 0)
(0.000165502 0.000278224 0)
(0.000162656 0.00028088 0)
(0.000167995 0.000271044 0)
(0.000165019 0.000273122 0)
(0.000170256 0.000262113 0)
(0.000167184 0.000263193 0)
(0.000172305 0.000250963 0)
(0.000169196 0.000251094 0)
(0.000174063 0.00023778 0)
(0.000177437 0.00023914 0)
(0.000178789 0.000224212 0)
(0.000182088 0.000227068 0)
(0.000183055 0.000210247 0)
(0.0001796 0.000208422 0)
(0.000183582 0.000192726 0)
(0.000186266 0.000214172 0)
(0.000180045 0.000191977 0)
(0.000183828 0.000174425 0)
(0.000180273 0.000175024 0)
(0.000183914 0.000155607 0)
(0.000180329 0.000157549 0)
(0.0001839 0.000136594 0)
(0.000180451 0.00013953 0)
(0.000183866 0.000117899 0)
(0.0001807 0.000121692 0)
(0.000183899 9.99163e-05 0)
(0.000180967 0.000104716 0)
(0.000183936 8.33418e-05 0)
(0.000186893 7.96109e-05 0)
(0.000186706 6.24482e-05 0)
(0.000189593 6.01406e-05 0)
(0.000189056 4.17512e-05 0)
(0.00019181 4.13866e-05 0)
(0.000190942 2.244e-05 0)
(0.000188308 2.33446e-05 0)
(0.000189939 3.08606e-06 0)
(0.000187298 4.07778e-06 0)
(0.000188762 -1.68454e-05 0)
(0.000193625 2.46606e-05 0)
(0.000186031 -1.58448e-05 0)
(0.000187442 -3.74706e-05 0)
(0.000184597 -3.6572e-05 0)
(0.000185982 -5.91853e-05 0)
(0.000182959 -5.77828e-05 0)
(0.000184309 -8.16429e-05 0)
(0.000181166 -8.00167e-05 0)
(0.00018246 -0.000104749 0)
(0.000185615 -0.000104123 0)
(0.000183728 -0.000128382 0)
(0.000186798 -0.000125179 0)
(0.000184896 -0.000150301 0)
(0.000181759 -0.00015283 0)
(0.000182854 -0.000174219 0)
(0.000179777 -0.000176878 0)
(0.000181115 -0.000199806 0)
(0.000177779 -0.000199878 0)
(0.000178822 -0.00022153 0)
(0.000185893 -0.000170741 0)
(0.000175597 -0.000221949 0)
(0.000176606 -0.000244246 0)
(0.000173249 -0.000244943 0)
(0.000174177 -0.000268539 0)
(0.000170761 -0.000269238 0)
(0.000171598 -0.000293452 0)
(0.000152439 0.000295123 0)
(0.000168086 -0.000293838 0)
(0.00016875 -0.000317923 0)
(0.000172155 -0.000316151 0)
(0.00016914 -0.000340275 0)
(0.000172312 -0.000337225 0)
(0.000169257 -0.000361476 0)
(0.000166054 -0.000364398 0)
(0.000166171 -0.000385133 0)
(0.000162986 -0.000388527 0)
(0.000163173 -0.000409039 0)
(0.000169135 -0.000380583 0)
(0.000159966 -0.00041241 0)
(0.000160151 -0.000433481 0)
(0.000156943 -0.000436482 0)
(0.000157065 -0.000458197 0)
(0.00015387 -0.000459979 0)
(0.000153971 -0.000481786 0)
(0.000150748 -0.000481403 0)
(0.000150884 -0.000503629 0)
(0.000147646 -0.000500919 0)
(0.000147748 -0.000523488 0)
(0.000150795 -0.000525702 0)
(0.000147616 -0.000545874 0)
(0.000150447 -0.000547445 0)
(0.000147253 -0.000568225 0)
(0.000144474 -0.000565319 0)
(0.000144027 -0.000588019 0)
(0.000146638 -0.000590306 0)
(0.000143331 -0.000610258 0)
(0.000140749 -0.000607665 0)
(0.000140019 -0.000630064 0)
(0.000137469 -0.000627091 0)
(0.000136709 -0.000649275 0)
(0.000134153 -0.000645337 0)
(0.000133334 -0.000666992 0)
(0.000135717 -0.000670026 0)
(0.000132299 -0.000687177 0)
(0.000129925 -0.00068385 0)
(0.000128901 -0.000704032 0)
(0.000126521 -0.000700401 0)
(0.000125513 -0.00072002 0)
(0.00012313 -0.0007159 0)
(0.00012211 -0.000734506 0)
(0.000124348 -0.000736807 0)
(0.000120925 -0.000750377 0)
(0.000118699 -0.000747506 0)
(0.00011754 -0.000762993 0)
(0.000115328 -0.000759517 0)
(0.000114209 -0.00077404 0)
(0.00011201 -0.000769962 0)
(0.000110909 -0.000783191 0)
(0.00011298 -0.00078522 0)
(0.000109676 -0.000793667 0)
(0.000107626 -0.000790871 0)
(0.000106408 -0.000801155 0)
(0.000104375 -0.000797818 0)
(0.000103182 -0.000807316 0)
(0.000101175 -0.000803046 0)
(9.99992e-05 -0.000811714 0)
(0.000101867 -0.000815141 0)
(9.86912e-05 -0.000819241 0)
(9.68528e-05 -0.000814974 0)
(9.55652e-05 -0.000822509 0)
(9.37426e-05 -0.000817274 0)
(9.24867e-05 -0.000824253 0)
(0.00015945 0.000290396 0)
(0.00015491 0.000291704 0)
(0.000162115 0.00028911 0)
(0.000157847 0.000289357 0)
(9.06923e-05 -0.000817915 0)
(8.94735e-05 -0.000823931 0)
(9.11197e-05 -0.000829398 0)
(8.81377e-05 -0.000827801 0)
(8.65229e-05 -0.000821235 0)
(8.95933e-05 -0.000832597 0)
(8.66669e-05 -0.000829902 0)
(8.78921e-05 -0.000833108 0)
(8.50933e-05 -0.000830018 0)
(9.40456e-05 0.000553583 0)
(0.000177958 0.00012684 0)
(0.000147377 -0.000478545 0)
(0.000167232 -0.000268169 0)
(0.000111361 0.000343486 0)
(8.86968e-05 0.00048192 0)
(9.63322e-05 0.000381149 0)
(0.000179891 -5.45057e-05 0)
(3.96699e-05 0.000255795 0)
(3.80215e-05 0.000248365 0)
(4.03476e-05 0.000272832 0)
(3.86426e-05 0.000265101 0)
(4.09789e-05 0.000289604 0)
(3.9261e-05 0.000281858 0)
(3.70158e-05 0.000257267 0)
(3.76042e-05 0.00027406 0)
(3.98973e-05 0.000297117 0)
(3.81592e-05 0.000288552 0)
(4.04707e-05 0.000309848 0)
(3.8657e-05 0.000300152 0)
(3.55816e-05 0.000251923 0)
(4.09611e-05 0.000320132 0)
(3.91138e-05 0.000309269 0)
(4.14364e-05 0.000328245 0)
(3.9543e-05 0.000315957 0)
(4.18783e-05 0.00033453 0)
(4.00188e-05 0.0003215 0)
(3.76266e-05 0.000303689 0)
(3.82318e-05 0.000309006 0)
(3.58044e-05 0.000292666 0)
(3.6534e-05 0.00029726 0)
(3.4056e-05 0.000282027 0)
(3.48806e-05 0.000284739 0)
(3.72734e-05 0.000300722 0)
(3.57077e-05 0.000285889 0)
(3.23149e-05 0.000269475 0)
(3.80742e-05 0.000303443 0)
(3.66163e-05 0.000286249 0)
(4.377e-05 0.000347747 0)
(3.90565e-05 0.000305053 0)
(3.78374e-05 0.000286211 0)
(4.04289e-05 0.000305346 0)
(3.94509e-05 0.000286064 0)
(3.66397e-05 0.000268168 0)
(3.8456e-05 0.000268369 0)
(3.54916e-05 0.000251654 0)
(3.74244e-05 0.000251455 0)
(3.43226e-05 0.000235946 0)
(3.63055e-05 0.000235009 0)
(3.31176e-05 0.000220898 0)
(3.5113e-05 0.000219779 0)
(3.17436e-05 0.000206936 0)
(3.38721e-05 0.000206394 0)
(3.03999e-05 0.0001945 0)
(3.28532e-05 0.000194095 0)
(2.96395e-05 0.000183269 0)
(3.24233e-05 0.000182761 0)
(2.97956e-05 0.000172557 0)
(3.3047e-05 0.000172881 0)
(3.05628e-05 0.000162607 0)
(3.33654e-05 0.000163076 0)
(3.17024e-05 0.000153113 0)
(3.45747e-05 0.000154958 0)
(3.33307e-05 0.000144356 0)
(3.61362e-05 0.000147215 0)
(3.50625e-05 0.000136765 0)
(3.77034e-05 0.000140532 0)
(3.64657e-05 0.000130623 0)
(3.86079e-05 0.000135328 0)
(3.72037e-05 0.00012635 0)
(3.87164e-05 0.000131873 0)
(3.72361e-05 0.000123664 0)
(3.83904e-05 0.000130028 0)
(3.67216e-05 0.000122262 0)
(3.75195e-05 0.000129472 0)
(3.55909e-05 0.00012218 0)
(3.61952e-05 0.000129864 0)
(3.43429e-05 0.000122933 0)
(3.52782e-05 0.000130484 0)
(3.42011e-05 0.00012381 0)
(3.59248e-05 0.000131104 0)
(3.63353e-05 0.000124787 0)
(3.86117e-05 0.000132352 0)
(4.05755e-05 0.000126407 0)
(4.31018e-05 0.000134769 0)
(4.61536e-05 0.000129163 0)
(4.87503e-05 0.000138246 0)
(5.26958e-05 0.000132784 0)
(3.62419e-05 0.000165586 0)
(4.00931e-05 0.000138355 0)
(5.53273e-05 0.000142033 0)
(4.07581e-05 0.000140206 0)
(3.72514e-05 0.000220007 0)
(2.71756e-05 0.000183823 0)
(4.21143e-05 0.000305827 0)
(0.000164594 0.000264577 0)
(4.35028e-05 0.000120823 0)
(9.72471e-05 0.000484448 0)
(3.01111e-05 0.000141326 0)
(3.37608e-05 0.000115542 0)
(4.28842e-05 0.00032675 0)
(4.45326e-05 0.0003272 0)
(4.52674e-05 0.00034974 0)
(4.67782e-05 0.000349104 0)
(4.76706e-05 0.000372722 0)
(4.90274e-05 0.000372181 0)
(5.01035e-05 0.00039569 0)
(5.13822e-05 0.000396061 0)
(5.25815e-05 0.000418272 0)
(5.37931e-05 0.000419459 0)
(5.50424e-05 0.000440045 0)
(5.25896e-05 0.000396229 0)
(5.50218e-05 0.00042013 0)
(5.37731e-05 0.000396924 0)
(5.62838e-05 0.000420981 0)
(5.51298e-05 0.000398025 0)
(5.76951e-05 0.000421902 0)
(5.67815e-05 0.000398127 0)
(0.000194593 4.33352e-05 0)
(0.000196435 2.94971e-05 0)
(5.92863e-05 0.000421834 0)
(5.85184e-05 0.00039726 0)
(6.04213e-05 0.000445319 0)
(3.51636e-05 0.000121442 0)
(8.87234e-05 0.000437227 0)
(9.68704e-05 0.00062788 0)
(0.000124818 0.000325268 0)
(0.000134609 0.000331231 0)
(0.000134778 -0.000622879 0)
(9.18145e-05 -0.000810267 0)
(8.2198e-05 -0.000825273 0)
(0.000102247 -0.000792557 0)
(0.000113011 -0.000754314 0)
(0.000145721 -0.000611357 0)
(0.000123017 -0.00075027 0)
(0.000111594 -0.000793765 0)
(0.000156641 -0.000414681 0)
(0.000178554 0.000110323 0)
(0.000175842 0.000132787 0)
(0.000176486 0.000116016 0)
(0.000174013 0.000138795 0)
(0.000174411 0.000121635 0)
(0.000172125 0.000144316 0)
(0.000172137 0.00012696 0)
(0.000169986 0.000149375 0)
(0.000169679 0.000132327 0)
(0.000167647 0.000152792 0)
(0.000167265 0.000134636 0)
(0.000165113 0.000154614 0)
(0.000164607 0.000136133 0)
(0.000162305 0.000158007 0)
(0.00016162 0.00014151 0)
(0.000159036 0.000167545 0)
(0.00015859 0.000148846 0)
(0.000156123 0.000172521 0)
(0.000155603 0.00015736 0)
(0.000153324 0.000180632 0)
(0.000152559 0.000168046 0)
(0.00015041 0.000191468 0)
(0.000149501 0.000181279 0)
(0.000150979 0.000202643 0)
(0.000148195 0.000213581 0)
(0.000148588 0.000225375 0)
(0.000146017 0.000235766 0)
(0.000146392 0.000248619 0)
(0.000144063 0.00025798 0)
(0.000144437 0.000271897 0)
(0.000142211 0.000280404 0)
(0.000142544 0.000296072 0)
(0.000140371 0.00030429 0)
(0.000139729 0.000288816 0)
(0.000140726 0.000320903 0)
(0.000138676 0.000328182 0)
(0.000138992 0.000345543 0)
(0.000137073 0.000351532 0)
(0.000137403 0.000369689 0)
(0.000135586 0.00037531 0)
(0.000136028 0.000393753 0)
(0.000134219 0.000398718 0)
(0.000134795 0.000417476 0)
(0.000132915 0.00042057 0)
(0.000133607 0.000439573 0)
(0.000132068 0.000401686 0)
(0.000137501 0.000388401 0)
(0.000131651 0.000440003 0)
(0.00013248 0.000458814 0)
(0.000130492 0.000456562 0)
(0.000131531 0.000474363 0)
(0.000133281 0.000476399 0)
(0.000132549 0.000490997 0)
(0.000133924 0.000491027 0)
(0.000133321 0.000504821 0)
(0.000131817 0.000504033 0)
(0.000132615 0.000516567 0)
(0.000134237 0.000501495 0)
(0.000130854 0.000514958 0)
(0.000131673 0.000526299 0)
(0.000129603 0.000522562 0)
(0.000130505 0.000532603 0)
(0.000128189 0.000526705 0)
(0.000129144 0.000535348 0)
(0.000131107 0.000540295 0)
(0.000129686 0.000542059 0)
(0.000131277 0.00054699 0)
(0.000129799 0.000547842 0)
(0.000128014 0.000541006 0)
(0.000128106 0.000545569 0)
(0.000130997 0.000553912 0)
(0.000126046 0.000537083 0)
(0.000126203 0.000541714 0)
(0.000144583 0.000287868 0)
(0.000151437 0.000155863 0)
(0.000148377 0.000171296 0)
(0.000150168 0.000144943 0)
(0.000147077 0.000160414 0)
(0.000123891 0.000532666 0)
(0.000124299 0.000540269 0)
(0.000148715 0.000133291 0)
(0.000145508 0.000147823 0)
(0.000147015 0.000118669 0)
(0.0001437 0.000131971 0)
(0.000145149 0.000100493 0)
(0.000141743 0.000112951 0)
(0.000143167 7.97035e-05 0)
(0.000139708 9.17035e-05 0)
(0.00013833 0.000124605 0)
(0.00013624 0.000102379 0)
(0.000134944 0.000134583 0)
(0.000132759 0.000110989 0)
(0.000131538 0.000142212 0)
(0.000129242 0.000116544 0)
(0.000130485 8.54034e-05 0)
(0.00012685 8.89108e-05 0)
(0.000128121 5.76236e-05 0)
(0.00012434 6.15211e-05 0)
(0.000125745 3.01296e-05 0)
(0.000121915 3.59947e-05 0)
(0.000123389 4.9122e-06 0)
(0.000119517 1.26327e-05 0)
(0.00012095 -1.81211e-05 0)
(0.000116997 -9.18271e-06 0)
(0.000118395 -3.99007e-05 0)
(0.000114384 -3.0499e-05 0)
(0.000115768 -6.14338e-05 0)
(0.000111735 -5.19279e-05 0)
(0.000113125 -8.3309e-05 0)
(0.000109088 -7.32733e-05 0)
(0.000110548 -0.00010488 0)
(0.000128 0.000147053 0)
(0.000106488 -9.31723e-05 0)
(0.000108007 -0.000124757 0)
(0.000103933 -0.000111378 0)
(0.00010529 -0.000142521 0)
(0.000101333 -0.000129919 0)
(0.000102647 -0.000160924 0)
(0.000117975 4.3433e-05 0)
(9.86592e-05 -0.000148859 0)
(0.000100061 -0.000179917 0)
(9.59066e-05 -0.000165937 0)
(9.74584e-05 -0.000197811 0)
(9.31828e-05 -0.000180746 0)
(9.47384e-05 -0.000212162 0)
(9.04119e-05 -0.000193981 0)
(9.19502e-05 -0.000225638 0)
(8.75433e-05 -0.000208139 0)
(8.90445e-05 -0.00024073 0)
(0.000107575 -4.21133e-05 0)
(8.45476e-05 -0.000224253 0)
(8.60344e-05 -0.000257216 0)
(9.0309e-05 -0.000276509 0)
(8.72907e-05 -0.000292241 0)
(8.30181e-05 -0.000272474 0)
(8.42624e-05 -0.000306965 0)
(7.99773e-05 -0.000286452 0)
(8.12013e-05 -0.000321622 0)
(8.53287e-05 -0.000343848 0)
(8.22658e-05 -0.000358754 0)
(7.81362e-05 -0.000336034 0)
(7.92e-05 -0.000373141 0)
(7.50837e-05 -0.000349773 0)
(7.61403e-05 -0.000386403 0)
(7.20596e-05 -0.000362178 0)
(7.31214e-05 -0.000397514 0)
(6.90945e-05 -0.000372031 0)
(7.01853e-05 -0.000405441 0)
(7.40791e-05 -0.000431733 0)
(7.11612e-05 -0.000438374 0)
(6.73294e-05 -0.000410804 0)
(6.8296e-05 -0.000443991 0)
(6.45282e-05 -0.000415062 0)
(6.54822e-05 -0.00044902 0)
(6.17821e-05 -0.000418683 0)
(6.27465e-05 -0.000452111 0)
(6.63308e-05 -0.000482522 0)
(6.3613e-05 -0.000483815 0)
(6.01023e-05 -0.000452353 0)
(6.09799e-05 -0.000482456 0)
(5.75298e-05 -0.000450449 0)
(5.84173e-05 -0.000479409 0)
(5.50198e-05 -0.00044727 0)
(5.59168e-05 -0.000474975 0)
(5.92056e-05 -0.000506401 0)
(5.66953e-05 -0.000500767 0)
(5.34942e-05 -0.000468669 0)
(5.42909e-05 -0.000493374 0)
(5.11528e-05 -0.000461086 0)
(5.18924e-05 -0.000484815 0)
(5.49605e-05 -0.000516266 0)
(5.25452e-05 -0.000507966 0)
(4.90677e-05 -0.00047229 0)
(5.02063e-05 -0.000500037 0)
(5.3126e-05 -0.000529163 0)
(5.08385e-05 -0.000521261 0)
(4.81191e-05 -0.000493532 0)
(4.85783e-05 -0.000511059 0)
(5.11681e-05 -0.000538677 0)
(4.89436e-05 -0.000526837 0)
(4.6359e-05 -0.000498354 0)
(4.67585e-05 -0.000512842 0)
(4.92424e-05 -0.000540483 0)
(4.70764e-05 -0.00052611 0)
(4.94309e-05 -0.00055263 0)
(4.72774e-05 -0.000538632 0)
(4.49172e-05 -0.000511528 0)
(4.51166e-05 -0.000524324 0)
(4.73771e-05 -0.000549982 0)
(4.52126e-05 -0.000535737 0)
(4.73501e-05 -0.000559745 0)
(4.52037e-05 -0.000545332 0)
(4.30525e-05 -0.000521385 0)
(4.3053e-05 -0.000530075 0)
(4.51236e-05 -0.00055314 0)
(4.29697e-05 -0.000536939 0)
(4.49721e-05 -0.000559818 0)
(4.27922e-05 -0.000542791 0)
(4.08164e-05 -0.000520151 0)
(4.06293e-05 -0.000525186 0)
(4.2531e-05 -0.000547751 0)
(4.03804e-05 -0.000529148 0)
(3.85087e-05 -0.00050593 0)
(4.21898e-05 -0.000551444 0)
(4.00498e-05 -0.000531627 0)
(4.17683e-05 -0.000553578 0)
(3.9648e-05 -0.000532532 0)
(4.12639e-05 -0.000554212 0)
(3.91446e-05 -0.000531833 0)
(4.06704e-05 -0.000553065 0)
(3.85322e-05 -0.000529188 0)
(4.00293e-05 -0.000550181 0)
(3.78183e-05 -0.000524473 0)
(3.63717e-05 -0.000503518 0)
(3.92821e-05 -0.000544981 0)
(3.70639e-05 -0.000518655 0)
(3.8451e-05 -0.000537877 0)
(3.6276e-05 -0.000511475 0)
(3.75739e-05 -0.000529224 0)
(3.53848e-05 -0.000502352 0)
(3.66075e-05 -0.00051869 0)
(4.06631e-05 -0.000563717 0)
(4.34468e-05 -0.000575148 0)
(3.43876e-05 -0.00049132 0)
(3.55622e-05 -0.00050636 0)
(3.31782e-05 -0.000474591 0)
(8.62759e-05 -0.000381405 0)
(9.70607e-05 -0.000115573 0)
(3.3335e-05 -0.000478506 0)
(3.44597e-05 -0.000492462 0)
(3.66925e-05 -0.000519976 0)
(3.55379e-05 -0.000505317 0)
(3.77803e-05 -0.000532833 0)
(3.65646e-05 -0.000517365 0)
(0.000102117 -0.000213675 0)
(3.43285e-05 -0.000489508 0)
(3.52934e-05 -0.000500848 0)
(0.000121769 0.000531943 0)
(0.000122391 0.000541449 0)
(0.000124814 0.000549539 0)
(0.000123021 0.000549167 0)
(0.000125434 0.000558068 0)
(0.000123686 0.000554803 0)
(0.000125999 0.000565806 0)
(0.000124295 0.000560222 0)
(0.000126477 0.000572962 0)
(0.000124858 0.000565825 0)
(0.000122538 0.000553104 0)
(0.000123245 0.000557593 0)
(0.000125358 0.000571708 0)
(0.000124103 0.000563872 0)
(0.000121837 0.0005485 0)
(0.000123036 0.000554075 0)
(0.000125101 0.000571923 0)
(0.000124379 0.000561096 0)
(0.000122004 0.000541261 0)
(0.000123575 0.000545681 0)
(0.000125646 0.000566457 0)
(0.000124913 0.000547345 0)
(0.000126574 0.000567927 0)
(0.000125822 0.000545961 0)
(0.000123833 0.000523996 0)
(0.000124613 0.000520316 0)
(0.000125939 0.000540147 0)
(0.000124517 0.000512504 0)
(0.00012292 0.00049241 0)
(0.000122788 0.000482637 0)
(0.00012392 0.000500498 0)
(0.000122416 0.000469314 0)
(0.000123286 0.000486225 0)
(0.000122114 0.000454338 0)
(0.000121027 0.000437199 0)
(0.000120901 0.000421204 0)
(0.000121892 0.000437717 0)
(0.000120656 0.000402266 0)
(0.000119441 0.000384967 0)
(3.30585e-05 -0.000472745 0)
(3.39631e-05 -0.000483723 0)
(0.000117027 -9.27105e-05 0)
(0.000119566 0.000532446 0)
(0.000118778 0.000522291 0)
(8.57409e-05 -0.000178115 0)
(3.88176e-05 -0.000544905 0)
(0.000167827 0.000169614 0)
(3.17306e-05 -0.000455308 0)
(3.25764e-05 -0.000466184 0)
(6.78826e-05 -0.000338332 0)
(0.000116356 0.000521172 0)
(0.000115491 0.000511887 0)
(3.03481e-05 -0.000437297 0)
(3.11403e-05 -0.000447814 0)
(3.3372e-05 -0.000476153 0)
(2.951e-05 -0.000426196 0)
(0.000127024 0.000515977 0)
(0.000112993 0.000509361 0)
(0.000111941 0.000500613 0)
(0.00012714 -5.51972e-07 0)
(0.000146552 6.6727e-05 0)
(0.000109365 0.000496243 0)
(0.000108035 0.000488237 0)
(0.000109274 -0.000158261 0)
(5.4013e-05 -0.000418413 0)
(6.71137e-05 -0.000512869 0)
(0.000174414 -0.00019902 0)
(0.000104098 0.00057414 0)
(6.19771e-05 0.000444562 0)
(6.34098e-05 0.000467511 0)
(0.000109121 0.000388159 0)
(0.000104366 0.000569084 0)
(3.14988e-05 0.000267578 0)
(2.97682e-05 0.000255546 0)
(2.89847e-05 0.000254472 0)
(2.73183e-05 0.000243713 0)
(2.66413e-05 0.000243126 0)
(2.50339e-05 0.00023296 0)
(2.45315e-05 0.000232965 0)
(2.30285e-05 0.000222977 0)
(2.27642e-05 0.000222897 0)
(2.13223e-05 0.000213494 0)
(2.13443e-05 0.000213144 0)
(1.99947e-05 0.000204038 0)
(2.01607e-05 0.000203371 0)
(1.89563e-05 0.000194753 0)
(1.91559e-05 0.00019352 0)
(1.81366e-05 0.000184826 0)
(1.82661e-05 0.000182693 0)
(1.74542e-05 0.000173631 0)
(1.74292e-05 0.000171624 0)
(1.83226e-05 0.000179115 0)
(1.73686e-05 0.000169164 0)
(1.83046e-05 0.000175018 0)
(1.73621e-05 0.000165728 0)
(1.82555e-05 0.000168625 0)
(1.73577e-05 0.000158538 0)
(1.82239e-05 0.00015789 0)
(1.73117e-05 0.000147008 0)
(1.82145e-05 0.000144477 0)
(1.72785e-05 0.000133746 0)
(1.81671e-05 0.000130216 0)
(1.71856e-05 0.000119554 0)
(1.80451e-05 0.000116101 0)
(1.70381e-05 0.000105918 0)
(1.78544e-05 0.000103842 0)
(1.68304e-05 9.46534e-05 0)
(1.67663e-05 0.000162715 0)
(1.69559e-05 0.000163978 0)
(1.6277e-05 0.000109042 0)
(1.63476e-05 0.000154166 0)
(1.6637e-05 0.000156699 0)
(1.61087e-05 0.000148287 0)
(1.6436e-05 0.000151631 0)
(1.59003e-05 0.000143635 0)
(1.61959e-05 0.000146395 0)
(1.55859e-05 0.000138512 0)
(1.58219e-05 0.000139746 0)
(1.53154e-05 0.000135082 0)
(1.49947e-05 0.000130425 0)
(1.47402e-05 0.000126563 0)
(1.64846e-05 0.000146474 0)
(1.61055e-05 0.00013894 0)
(1.44732e-05 0.000122656 0)
(1.42427e-05 0.000119293 0)
(1.67445e-05 0.000144517 0)
(1.64515e-05 0.000137276 0)
(1.40289e-05 0.000115781 0)
(1.37612e-05 0.000113405 0)
(2.16362e-05 0.000209697 0)
(1.91203e-05 0.000154206 0)
(4.27515e-05 0.000297493 0)
(5.39241e-05 0.000437911 0)
(5.65347e-05 0.00045902 0)
(5.55118e-05 0.000456582 0)
(5.83682e-05 0.000477002 0)
(5.73736e-05 0.000473954 0)
(6.0237e-05 0.000491961 0)
(5.92895e-05 0.000489261 0)
(6.20444e-05 0.000505059 0)
(6.11626e-05 0.000503309 0)
(6.39946e-05 0.000518824 0)
(6.3072e-05 0.00051756 0)
(6.59235e-05 0.000533563 0)
(6.50336e-05 0.000531556 0)
(6.45448e-05 0.000518201 0)
(6.78688e-05 0.000547801 0)
(6.708e-05 0.000544361 0)
(6.99724e-05 0.000560165 0)
(6.92654e-05 0.000555027 0)
(6.64875e-05 0.000537221 0)
(6.87054e-05 0.000545885 0)
(1.70855e-05 0.000142105 0)
(1.69432e-05 0.000134922 0)
(1.6208e-05 0.00012992 0)
(1.69345e-05 0.000127446 0)
(1.61185e-05 0.000122614 0)
(1.714e-05 0.000119988 0)
(1.62898e-05 0.000115472 0)
(1.76276e-05 0.000112847 0)
(1.68488e-05 0.000108371 0)
(1.84411e-05 0.000106067 0)
(3.71048e-05 0.00013765 0)
(1.35642e-05 0.000109999 0)
(1.32346e-05 0.00010877 0)
(1.3506e-05 0.000111669 0)
(1.29581e-05 0.000106838 0)
(6.60311e-05 0.000525604 0)
(6.82145e-05 0.000532257 0)
(1.84383e-05 0.000118058 0)
(0.000105259 0.000480735 0)
(0.000103627 0.000473298 0)
(0.000106503 0.000485576 0)
(0.000163748 0.000117301 0)
(6.55018e-05 0.000510041 0)
(6.76632e-05 0.000514655 0)
(6.47922e-05 0.00049144 0)
(6.70415e-05 0.00049368 0)
(6.98811e-05 0.000517507 0)
(6.92287e-05 0.000493686 0)
(7.15386e-05 0.00056458 0)
(6.6356e-05 0.000469949 0)
(6.8446e-05 0.000468166 0)
(6.55395e-05 0.000444926 0)
(6.74593e-05 0.000444005 0)
(1.32833e-05 0.000109198 0)
(1.27316e-05 0.000103481 0)
(1.77029e-05 0.000101713 0)
(1.93797e-05 9.99383e-05 0)
(1.30616e-05 0.000105582 0)
(1.2511e-05 9.94351e-05 0)
(1.21797e-05 9.82811e-05 0)
(1.19873e-05 9.39638e-05 0)
(1.23103e-05 9.48927e-05 0)
(1.18321e-05 8.93754e-05 0)
(1.2148e-05 8.95619e-05 0)
(1.17084e-05 8.3965e-05 0)
(1.20056e-05 8.38685e-05 0)
(1.16109e-05 7.93392e-05 0)
(1.18907e-05 7.95475e-05 0)
(1.15228e-05 7.71698e-05 0)
(1.18087e-05 7.7248e-05 0)
(1.14656e-05 7.70442e-05 0)
(1.17503e-05 7.6065e-05 0)
(1.14461e-05 7.669e-05 0)
(1.17236e-05 7.52778e-05 0)
(1.14488e-05 7.57476e-05 0)
(1.17115e-05 7.50149e-05 0)
(1.30371e-05 0.000106155 0)
(2.27513e-05 0.000219645 0)
(7.20327e-05 0.000517923 0)
(7.08642e-05 0.000563307 0)
(0.00013036 0.000171817 0)
(0.000126761 0.000176647 0)
(0.000128025 0.000579013 0)
(1.61133e-05 0.000104501 0)
(5.6224e-05 0.000373246 0)
(5.80173e-05 0.000372731 0)
(5.59183e-05 0.000348554 0)
(5.77532e-05 0.000348916 0)
(5.97658e-05 0.000372938 0)
(5.95221e-05 0.000350303 0)