/*--------------------------------*- C++ -*----------------------------------*\
| =========                 |                                                 |
| \\      /  F ield         | OpenFOAM: The Open Source CFD Toolbox           |
|  \\    /   O peration     | Version:  v2012                                 |
|   \\  /    A nd           | Website:  www.openfoam.com                      |
|    \\/     M anipulation  |                                                 |
\*---------------------------------------------------------------------------*/
FoamFile
{
    version     2.0;
    format      ascii;
    class       volScalarField::Internal;
    location    "1000";
    object      V0;
}
// * * * * * * * * * * * * * * * * * * * * * * * * * * * * * * * * * * * * * //

dimensions      [0 3 0 0 0 0 0];


value           nonuniform List<scalar> 
13917
(
0.00162469
0.0421659
0.00431483
0.0433393
0.0899797
0.0536062
0.0226434
0.0436839
0.0211209
0.00125545
0.0471703
0.0622358
0.176396
0.0444493
0.0627207
0.00135918
0.163471
0.0468926
0.00641261
0.00164825
0.0322716
0.106556
0.011709
0.117249
0.0324756
0.0331783
0.0212266
0.00135142
0.0417554
0.16331
0.00130736
0.00761476
0.0453214
0.00169818
0.141134
0.0445457
0.0502911
0.17324
0.020605
0.0279807
0.200655
0.140463
0.0308931
0.00554394
0.00663982
0.00834345
0.0395584
0.00324264
0.0513105
0.11368
0.0618372
0.00934347
0.00143015
0.078889
0.0776143
0.00695536
0.00118718
0.0131674
0.150419
0.010389
0.00767072
0.123413
0.161833
0.0371524
0.00246313
0.153384
0.0407393
0.0415895
0.0420124
0.00128145
0.0037007
0.00126315
0.0722913
0.149487
0.0320961
0.0383401
0.074767
0.156842
0.0438998
0.0331551
0.0845226
0.180163
0.0773379
0.00346755
0.149401
0.0368116
0.00829452
0.169485
0.0292811
0.138079
0.151872
0.0278632
0.0605843
0.149353
0.0682576
0.0407849
0.028957
0.175113
0.139555
0.0266875
0.170535
0.131493
0.0710138
0.152001
0.0974218
0.00282981
0.0026182
0.137107
0.139459
0.020056
0.169778
0.00195738
0.0384212
0.00329578
0.00272319
0.0380834
0.00727273
0.167728
0.00476315
0.0721009
0.17244
0.157801
0.0386451
0.0082256
0.00146947
0.00210188
0.0333595
0.0313408
0.134756
0.00658808
0.0127453
0.0119067
0.00208427
0.0426454
0.00656475
0.0211075
0.00827498
0.00138181
0.0366796
0.184205
0.0620927
0.156335
0.00308748
0.0983617
0.0681261
0.152065
0.0034257
0.1213
0.00221028
0.0892717
0.0265042
0.199961
0.0698105
0.0614202
0.0243141
0.0957512
0.144456
0.00171378
0.183206
0.156633
0.138104
0.00374658
0.054535
0.0702478
0.00454051
0.0236629
0.00122522
0.00451683
0.173353
0.0362338
0.104144
0.00230668
0.0245663
0.00790603
0.0102689
0.167726
0.0390129
0.00973548
0.0158714
0.0508973
0.0308273
0.114252
0.0513529
0.00552545
0.0046024
0.0140638
0.0588871
0.0076497
0.168969
0.0384429
0.0135683
0.00657522
0.00680286
0.00149548
0.113804
0.00149915
0.0264258
0.00213301
0.139351
0.101699
0.0345846
0.00137452
0.00119477
0.0514609
0.0161706
0.0429929
0.0254541
0.152892
0.00885903
0.0834791
0.142997
0.075561
0.0735304
0.00293176
0.0065379
0.0307658
0.00290431
0.169554
0.151968
0.144334
0.00429292
0.00770821
0.00754526
0.150013
0.167962
0.0217832
0.00147235
0.130763
0.145851
0.152408
0.146968
0.151163
0.00112453
0.00298502
0.0764125
0.169113
0.0111986
0.00143275
0.159194
0.152532
0.0207828
0.00270421
0.0055216
0.00260558
0.0109615
0.0868029
0.00495229
0.00982951
0.0333396
0.00856208
0.0509266
0.00235056
0.0586201
0.0145065
0.0143006
0.0838418
0.179748
0.0317941
0.101555
0.130209
0.00144034
0.0375976
0.157932
0.143397
0.0956244
0.139055
0.0669797
0.178292
0.0158969
0.157635
0.00131735
0.00275604
0.0942538
0.0957142
0.0103832
0.15901
0.0227377
0.00146828
0.154288
0.00126904
0.134905
0.00451646
0.180947
0.0662408
0.0707343
0.124381
0.00518025
0.169636
0.0222801
0.0255892
0.0390883
0.124655
0.0206345
0.00132783
0.139434
0.012406
0.101474
0.0395719
0.0970864
0.035918
0.141604
0.172585
0.0117394
0.102019
0.0171307
0.036142
0.124772
0.00178912
0.00109792
0.13562
0.167063
0.0368607
0.0843449
0.00496903
0.00276998
0.00672828
0.188962
0.0141525
0.0924695
0.00325809
0.0847473
0.00366645
0.139984
0.0596092
0.0191593
0.0959349
0.0404896
0.00646719
0.1786
0.00187328
0.147292
0.010078
0.161631
0.00165452
0.127936
0.0152116
0.0384173
0.179422
0.187757
0.00733313
0.00304802
0.0703358
0.0940256
0.00187088
0.00290404
0.00541311
0.0428814
0.164473
0.0762167
0.00262268
0.0118883
0.175129
0.120313
0.0573399
0.0289989
0.0133094
0.00773993
0.0147669
0.0239475
0.00902094
0.00165306
0.124916
0.0720545
0.064595
0.00484666
0.170634
0.00124207
0.0107242
0.118419
0.0599976
0.0145248
0.16622
0.0547293
0.128235
0.00679187
0.00897449
0.0434118
0.0825916
0.0036187
0.159191
0.00499519
0.00615464
0.126397
0.0523902
0.0786447
0.132512
0.135954
0.00157609
0.126514
0.0424286
0.0201574
0.0264693
0.0577439
0.00606559
0.00398749
0.0441483
0.00552756
0.0767361
0.0264578
0.00453797
0.127073
0.0197271
0.0300363
0.134196
0.130509
0.134802
0.00767089
0.0231508
0.0590428
0.131022
0.104139
0.0139499
0.0456751
0.165018
0.190447
0.00581116
0.0163699
0.102277
0.0510471
0.00657741
0.0291664
0.144128
0.00586799
0.0030482
0.145447
0.163346
0.0368429
0.133147
0.162772
0.0652467
0.137656
0.142336
0.00406665
0.0731339
0.0214365
0.0013643
0.0123244
0.135727
0.0709594
0.00552217
0.0395971
0.00122741
0.165903
0.0861926
0.152572
0.145104
0.0484029
0.080671
0.00818476
0.145234
0.00242637
0.0941467
0.0132783
0.134401
0.0718416
0.0104365
0.00666326
0.0555969
0.0234375
0.134284
0.143896
0.102266
0.079412
0.142098
0.157606
0.00186504
0.0064574
0.14181
0.0172568
0.00489296
0.149292
0.0121837
0.00662332
0.00382703
0.0180021
0.00276373
0.131813
0.131704
0.0745097
0.156527
0.133542
0.0559388
0.00603829
0.140977
0.0754369
0.0579491
0.0201375
0.0271419
0.00428916
0.00816047
0.126414
0.095606
0.0409057
0.0202589
0.0552676
0.0349147
0.0129933
0.0250044
0.00518687
0.128183
0.0169794
0.00831077
0.133958
0.00164427
0.119806
0.132886
0.0119292
0.154944
0.169912
0.0122689
0.00171119
0.0205741
0.128841
0.0310324
0.116848
0.00686429
0.00964409
0.060651
0.0857724
0.1167
0.0144733
0.108074
0.126741
0.197761
0.104174
0.116113
0.107326
0.0172332
0.158032
0.0078266
0.137688
0.107019
0.0324363
0.0018795
0.135961
0.0260712
0.130357
0.0150934
0.0109031
0.02842
0.01177
0.0225034
0.04327
0.0412321
0.0020758
0.00371547
0.00141962
0.139477
0.103518
0.12005
0.0763678
0.00284395
0.147189
0.0823381
0.02739
0.00247083
0.0217917
0.026765
0.00142571
0.144102
0.00628332
0.179386
0.139767
0.00162848
0.167526
0.00325891
0.176458
0.138765
0.101545
0.00449368
0.106868
0.118209
0.00568215
0.0122875
0.100571
0.00332925
0.00209848
0.00370611
0.122595
0.00108464
0.160837
0.0070208
0.110718
0.129697
0.15563
0.132308
0.0137301
0.0281377
0.162704
0.136458
0.153212
0.00369294
0.0922879
0.00801824
0.0762896
0.122843
0.166855
0.00795616
0.00410027
0.00175916
0.00931529
0.0163969
0.00470616
0.00132854
0.134152
0.00629093
0.147334
0.00599668
0.0722897
0.0035212
0.116961
0.101577
0.0586493
0.0938142
0.0160325
0.00260508
0.153493
0.0151538
0.120032
0.13507
0.00157758
0.0263975
0.103133
0.0073762
0.111437
0.134741
0.177738
0.00164505
0.109633
0.093206
0.124189
0.0997462
0.00422001
0.189212
0.00687146
0.169086
0.141022
0.00711353
0.00667435
0.0793389
0.0011463
0.00307717
0.0490223
0.00680479
0.147173
0.0545453
0.00162393
0.00291077
0.0364507
0.0407293
0.0843722
0.136823
0.111649
0.155334
0.00968649
0.0266851
0.00511368
0.0159662
0.0470672
0.00922441
0.0964223
0.0153591
0.00664574
0.00124442
0.136507
0.0870368
0.132488
0.134671
0.126362
0.183928
0.109951
0.150366
0.000961342
0.0136608
0.161369
0.006241
0.122146
0.00227153
0.135199
0.127949
0.00164305
0.00916361
0.139029
0.0499005
0.15726
0.130359
0.0319313
0.0113912
0.115635
0.00119654
0.0225973
0.112358
0.138746
0.0848517
0.0015344
0.0299777
0.13347
0.109018
0.0014551
0.0174377
0.0233341
0.0013622
0.0871285
0.13287
0.132881
0.0483327
0.0025792
0.140384
0.0143235
0.0370873
0.023622
0.00482792
0.0947696
0.00748773
0.011902
0.0668311
0.0266025
0.132039
0.0178191
0.0963525
0.00307999
0.0404362
0.12236
0.00129305
0.168601
0.0857454
0.0462505
0.0482341
0.0212189
0.00299176
0.173908
0.00765233
0.00377823
0.168991
0.0812613
0.0367829
0.147191
0.0786577
0.0697538
0.0611108
0.143907
0.00810386
0.00687041
0.138788
0.00331906
0.0173923
0.0163232
0.00710471
0.0759237
0.00637275
0.022564
0.134436
0.00970198
0.0120408
0.0110751
0.0960591
0.137521
0.0925855
0.00115165
0.0504781
0.142972
0.0113507
0.114506
0.134666
0.00597378
0.0232667
0.0613598
0.0280844
0.0306114
0.00246592
0.0500512
0.0623082
0.00427138
0.130322
0.132422
0.152249
0.149185
0.0544076
0.0370083
0.0261847
0.094364
0.15909
0.106044
0.0843873
0.0421809
0.0164157
0.146807
0.00678569
0.0599341
0.0044691
0.0591213
0.141682
0.00215147
0.0326753
0.00147602
0.0299808
0.0629643
0.0932171
0.132606
0.0788015
0.00158027
0.0191321
0.0472814
0.0268655
0.0852363
0.0104891
0.179093
0.115315
0.115337
0.135168
0.004438
0.0260782
0.0575421
0.00638824
0.0844961
0.152076
0.127534
0.0146225
0.137103
0.0758004
0.044268
0.105459
0.0097342
0.122318
0.0315356
0.0638376
0.00124008
0.00142504
0.0708862
0.00239271
0.021749
0.00123224
0.086569
0.146643
0.129369
0.0768231
0.0425859
0.113349
0.0175495
0.0946936
0.034028
0.0733659
0.00309432
0.0469813
0.0145702
0.0151965
0.13093
0.0232336
0.0311622
0.134697
0.0204996
0.15959
0.00187865
0.00879841
0.149031
0.129482
0.0890799
0.102136
0.104327
0.00509338
0.141748
0.0236384
0.114045
0.160193
0.0704501
0.0982277
0.00521332
0.0924949
0.146625
0.140051
0.00536897
0.0557713
0.00677373
0.138896
0.026268
0.161232
0.102417
0.0013634
0.133051
0.033983
0.00682108
0.0014451
0.156841
0.0841689
0.0043569
0.146854
0.0870212
0.102361
0.00301996
0.104463
0.00515211
0.0497884
0.00171951
0.0599591
0.0116842
0.118987
0.163391
0.143539
0.164137
0.169003
0.00214982
0.0517228
0.129367
0.0793588
0.137651
0.130827
0.00890474
0.0437643
0.00244816
0.021716
0.00697397
0.00808068
0.0248712
0.00129934
0.0615888
0.00945485
0.091743
0.00123424
0.136949
0.0456453
0.163172
0.134382
0.0500641
0.153663
0.139374
0.136811
0.0835015
0.0179181
0.137283
0.0523881
0.00727624
0.00451281
0.00396468
0.00695741
0.0895773
0.118215
0.109701
0.00424356
0.107792
0.00112502
0.121266
0.145228
0.158621
0.0786233
0.126877
0.149245
0.109563
0.0146797
0.13034
0.00141603
0.0831184
0.123202
0.00177223
0.0873117
0.104247
0.118256
0.00168328
0.0181218
0.156637
0.137229
0.148938
0.125786
0.00298243
0.133204
0.0274219
0.037136
0.0615798
0.147319
0.139943
0.0247871
0.0865274
0.0276639
0.00146076
0.0949871
0.122507
0.0803658
0.0921835
0.13673
0.00546504
0.0122079
0.0242776
0.00148964
0.00174331
0.0884115
0.00539503
0.140264
0.00146157
0.133829
0.00790668
0.0127922
0.0178472
0.0364261
0.0107656
0.0164538
0.00273043
0.165372
0.102084
0.159343
0.084352
0.0124006
0.0645815
0.0487014
0.0127306
0.000789076
0.141021
0.0185248
0.00136799
0.175312
0.123369
0.0773674
0.00264799
0.0396603
0.165229
0.0162469
0.0696875
0.125301
0.0604903
0.0386731
0.0853671
0.111473
0.164494
0.143565
0.113261
0.0962539
0.00142989
0.0478267
0.0473577
0.128517
0.00140094
0.139144
0.155508
0.0377518
0.0453629
0.0273356
0.159793
0.00486484
0.118904
0.096271
0.00860855
0.0970747
0.182869
0.00842639
0.00472202
0.0074202
0.00709386
0.139448
0.00749469
0.00189524
0.180783
0.00668201
0.105824
0.0136124
0.0103263
0.111861
0.0220055
0.130622
0.0239816
0.042567
0.0538355
0.00561551
0.0154014
0.0116493
0.0058072
0.106429
0.00527606
0.0411022
0.0773829
0.0964994
0.13536
0.155907
0.136506
0.0278519
0.00272506
0.131652
0.0502926
0.027165
0.060948
0.0584248
0.0143303
0.00609566
0.0880304
0.133419
0.029008
0.113351
0.0481853
0.00136106
0.0500108
0.0963936
0.023408
0.142865
0.0496853
0.00195602
0.00132092
0.0608631
0.0148172
0.040218
0.00106766
0.0254638
0.0252441
0.00347464
0.127671
0.00794523
0.00292791
0.00430994
0.108534
0.0519694
0.145829
0.103099
0.146096
0.0668372
0.0929405
0.0028694
0.135475
0.0125578
0.142469
0.00815583
0.00446667
0.0481494
0.00673481
0.0246504
0.0911042
0.00640661
0.0529689
0.0483777
0.0908757
0.00142531
0.00950149
0.0011402
0.0264447
0.00525283
0.0131494
0.153363
0.0717713
0.0155458
0.146702
0.0884641
0.0104418
0.0663884
0.0357803
0.0337956
0.0404711
0.0428392
0.00908225
0.0109222
0.106494
0.0110831
0.0515695
0.075509
0.111535
0.133586
0.00276259
0.0052123
0.14224
0.0148383
0.154493
0.0852949
0.00121534
0.0580391
0.139802
0.135045
0.0796215
0.152967
0.0476509
0.00278688
0.103197
0.0196793
0.137813
0.157054
0.00693695
0.00283884
0.00552406
0.0512825
0.175547
0.140056
0.05246
0.00715173
0.00185613
0.148287
0.0142398
0.0360721
0.0100938
0.0274892
0.153708
0.0366281
0.00548001
0.0937582
0.0252346
0.150266
0.130923
0.0565959
0.00179455
0.0148169
0.14306
0.00459343
0.0107995
0.129008
0.00946489
0.127753
0.135285
0.00527892
0.104476
0.100975
0.0573502
0.00619586
0.0260204
0.0430481
0.143348
0.103385
0.140879
0.0907589
0.0182837
0.0185259
0.00113573
0.0249832
0.0221319
0.0138372
0.0136353
0.132066
0.0329857
0.00719068
0.00387624
0.00254089
0.0583093
0.123253
0.00132857
0.115917
0.119504
0.0316124
0.0199305
0.050976
0.14392
0.00326248
0.0193905
0.0536343
0.0878941
0.0115832
0.00330039
0.00137177
0.107179
0.0962364
0.0507602
0.149258
0.138363
0.0148836
0.108717
0.0262457
0.013529
0.0464378
0.00288473
0.117303
0.0642951
0.0444091
0.148754
0.00355284
0.113134
0.142876
0.0131159
0.00760956
0.0128862
0.0040898
0.105852
0.0143552
0.123077
0.127767
0.0834865
0.164028
0.0528459
0.00383563
0.048277
0.0125821
0.0972603
0.134912
0.0690726
0.150609
0.13635
0.00143791
0.157638
0.0466688
0.00707653
0.151932
0.00941285
0.0105429
0.0138748
0.0740768
0.115657
0.12178
0.136025
0.151046
0.0477755
0.109515
0.130267
0.139897
0.126382
0.0373099
0.0986428
0.00293979
0.012458
0.141351
0.11584
0.126698
0.0129593
0.133435
0.0245816
0.103834
0.154492
0.131771
0.0114927
0.0586976
0.00362237
0.128528
0.156974
0.0276971
0.159226
0.148217
0.00178478
0.0814814
0.133338
0.0141167
0.00990339
0.00102654
0.155064
0.0227027
0.0145881
0.13239
0.14486
0.00433498
0.0965742
0.180769
0.0117502
0.127002
0.00182397
0.157848
0.115986
0.0812859
0.131255
0.00238278
0.134
0.146773
0.00751403
0.0888413
0.131046
0.147858
0.125608
0.00991626
0.0600921
0.0940647
0.151608
0.0179623
0.0861998
0.148614
0.146723
0.0448498
0.130761
0.0235466
0.103168
0.136328
0.0581054
0.15893
0.0524064
0.0757729
0.0357761
0.133816
0.00650633
0.0901951
0.0347062
0.141547
0.0435607
0.107063
0.157555
0.0246872
0.0653604
0.0212941
0.0105554
0.128388
0.0015151
0.00293223
0.00632789
0.00234187
0.0925644
0.079454
0.0213707
0.00839673
0.119732
0.00135501
0.140607
0.00471271
0.0834923
0.0198357
0.0066309
0.031424
0.0144339
0.141456
0.00954784
0.12094
0.124888
0.0181419
0.00191693
0.00160334
0.0479962
0.0879668
0.0178874
0.14187
0.00689163
0.152383
0.0411468
0.146462
0.121154
0.00142835
0.119742
0.0132769
0.0737254
0.0207698
0.0115044
0.0753643
0.13813
0.00280989
0.128571
0.0920027
0.0464643
0.137179
0.00693548
0.0635295
0.0175879
0.00147675
0.0935885
0.0228635
0.0662835
0.117608
0.0136013
0.126417
0.141122
0.0133486
0.125874
0.135087
0.0276472
0.075118
0.00560058
0.0482051
0.138267
0.115398
0.152927
0.129585
0.114307
0.00777305
0.0803247
0.101393
0.128644
0.111743
0.0865004
0.0697531
0.002702
0.140309
0.0248256
0.0485406
0.127988
0.00342475
0.0787545
0.144301
0.00146382
0.0061815
0.00178844
0.123419
0.00221062
0.026736
0.0834774
0.00142157
0.0805669
0.0646128
0.00517927
0.0560734
0.0365055
0.00146595
0.040648
0.0084437
0.0741032
0.00279785
0.0922671
0.11401
0.109325
0.00143794
0.0881101
0.148589
0.0889749
0.0794973
0.13064
0.117674
0.0149599
0.0294335
0.103986
0.0346654
0.00140259
0.0494988
0.0105622
0.0107355
0.138291
0.00716551
0.0254421
0.0611993
0.00371592
0.158426
0.0075904
0.00120187
0.130173
0.00125207
0.120368
0.00238693
0.00711202
0.0382226
0.0726907
0.113283
0.0823037
0.104386
0.0342194
0.140626
0.0767505
0.00153279
0.0142234
0.00303099
0.106252
0.0201106
0.00178295
0.107963
0.0848561
0.00271239
0.100846
0.105192
0.00404666
0.00857248
0.0113607
0.0839548
0.00366111
0.0266782
0.0623096
0.0018099
0.00452686
0.108042
0.148261
0.00599871
0.0130652
0.0135055
0.0755212
0.018814
0.0144202
0.0246825
0.0797278
0.132699
0.0358015
0.00147082
0.0318202
0.101501
0.0965818
0.0481285
0.131295
0.00166993
0.0213036
0.119248
0.0103574
0.136245
0.146345
0.0153819
0.0113118
0.0879924
0.00249616
0.106004
0.00177821
0.133445
0.00144504
0.00336965
0.00422251
0.154298
0.0290294
0.0371248
0.0293867
0.0116767
0.00748757
0.00197578
0.0253407
0.145759
0.027226
0.13067
0.00593737
0.0013412
0.162933
0.150274
0.0447338
0.0105675
0.0286023
0.156126
0.0179167
0.0110466
0.139325
0.133939
0.0471714
0.00162372
0.0673192
0.13193
0.00257602
0.0178657
0.0416119
0.00446513
0.110812
0.0329938
0.00257395
0.153569
0.023543
0.0146063
0.00805536
0.00812119
0.00244724
0.0713548
0.0536984
0.026089
0.12139
0.00446667
0.0103517
0.0143409
0.00582245
0.0168173
0.0830447
0.00862334
0.00268687
0.0246747
0.00523426
0.132078
0.0545601
0.0727738
0.125021
0.00355229
0.0251331
0.152999
0.0390752
0.00390165
0.115127
0.104621
0.00195612
0.125415
0.07325
0.151514
0.0583333
0.00990126
0.071124
0.00507361
0.0130114
0.0109504
0.0571043
0.0134315
0.0693909
0.0499623
0.0368259
0.083577
0.058866
0.153783
0.137875
0.00170337
0.00538913
0.0353425
0.00545117
0.104428
0.069419
0.0390294
0.135448
0.133589
0.0177727
0.0233546
0.00152671
0.0131224
0.00706375
0.0737141
0.00830044
0.099193
0.00289221
0.147286
0.00399022
0.00778523
0.139756
0.0111632
0.0012979
0.0429599
0.122742
0.13589
0.0270049
0.00670125
0.138078
0.048384
0.129289
0.160103
0.0031572
0.127219
0.023944
0.123084
0.18194
0.00431349
0.0155114
0.0613005
0.00474142
0.0491969
0.00197705
0.0555149
0.140999
0.0489007
0.00136268
0.0725859
0.00847787
0.0441781
0.00267684
0.111974
0.103806
0.0578253
0.00378473
0.104052
0.139926
0.145681
0.00428775
0.00152303
0.0105278
0.106453
0.0562178
0.119516
0.00138542
0.139448
0.00366986
0.00761531
0.107294
0.00914309
0.047969
0.153193
0.0331988
0.114531
0.0228614
0.026152
0.0152615
0.0574975
0.067037
0.11212
0.00178914
0.142536
0.172428
0.00247913
0.0490419
0.10765
0.0232752
0.128383
0.138506
0.101803
0.0279983
0.0300482
0.152475
0.154192
0.0277245
0.0507319
0.0100758
0.0159335
0.135111
0.156857
0.154387
0.0747122
0.0541251
0.00892318
0.00141695
0.00273387
0.120619
0.136229
0.0278973
0.00317638
0.0856232
0.133545
0.002448
0.00304459
0.124069
0.0335291
0.0477915
0.0873583
0.00168885
0.113745
0.12522
0.0159432
0.00508695
0.0600892
0.0299445
0.0530793
0.00424565
0.00376407
0.136295
0.00399112
0.0611134
0.104382
0.00597092
0.00819766
0.0268151
0.0551674
0.0259357
0.0632362
0.137939
0.0384198
0.0659246
0.0419934
0.0271169
0.135006
0.0220739
0.00340215
0.0107862
0.140374
0.0116502
0.00845042
0.0142807
0.134599
0.0560976
0.149841
0.00302784
0.0471734
0.108984
0.00919651
0.00497011
0.157365
0.0013031
0.0255169
0.0818421
0.0104118
0.100762
0.101023
0.131806
0.151974
0.100456
0.121029
0.00215878
0.15307
0.131951
0.00721093
0.0221889
0.0581184
0.0044263
0.0760721
0.104317
0.043267
0.0491149
0.146853
0.156447
0.00331794
0.0540162
0.0538671
0.112845
0.0681744
0.0029408
0.00911291
0.00276588
0.14968
0.0421835
0.080771
0.083503
0.134528
0.133873
0.00382191
0.00687853
0.0313367
0.111565
0.103728
0.00806441
0.0502263
0.0682037
0.0769827
0.00142539
0.0193096
0.00102393
0.0854281
0.154003
0.0653651
0.104779
0.0864309
0.0101479
0.115873
0.00716518
0.00169669
0.0257779
0.00126321
0.0991491
0.160261
0.0145448
0.132961
0.0110991
0.154534
0.133893
0.152744
0.00270545
0.152307
0.0468362
0.0869779
0.00741824
0.0358996
0.0379953
0.00758198
0.0022711
0.117582
0.150682
0.131577
0.00267822
0.0776466
0.0734248
0.0550139
0.140954
0.00933257
0.126517
0.147506
0.0380438
0.0725494
0.0120775
0.00166796
0.00176843
0.0222348
0.170504
0.0173725
0.0359119
0.0135217
0.127402
0.00442678
0.00567835
0.0683186
0.0816891
0.155532
0.0138409
0.0700323
0.003109
0.00640873
0.0231966
0.00338889
0.00619002
0.00496287
0.00237873
0.0962281
0.0027372
0.0415294
0.00144219
0.00330397
0.00274936
0.0022036
0.1461
0.0137922
0.131354
0.101669
0.00118051
0.0769821
0.0745685
0.0163281
0.0438387
0.0144588
0.00309221
0.0027555
0.00530031
0.0225198
0.0259851
0.0488636
0.102538
0.0620413
0.0107434
0.00637893
0.00799481
0.0188555
0.156271
0.138362
0.0970078
0.00348093
0.0524223
0.0806101
0.0271978
0.0204414
0.0142943
0.0284904
0.0597105
0.00291859
0.0228777
0.0135988
0.0834037
0.0165168
0.010357
0.126364
0.0294926
0.137808
0.00630417
0.0154684
0.110566
0.0139927
0.00171388
0.131787
0.0363522
0.141911
0.00507099
0.0670323
0.115848
0.154492
0.0117593
0.0039596
0.159626
0.0070101
0.00331671
0.140956
0.0523591
0.0131926
0.00135459
0.0215597
0.00133602
0.0676834
0.124497
0.0964
0.00214638
0.0131078
0.135386
0.00172116
0.0797348
0.050236
0.0268895
0.0029999
0.0496355
0.00955928
0.0227688
0.0355599
0.00339834
0.111753
0.108552
0.0719983
0.0129697
0.087093
0.0498288
0.154909
0.131704
0.00261713
0.0443389
0.00141939
0.155117
0.00161515
0.00135638
0.0721978
0.0533892
0.0212328
0.0246889
0.00368148
0.0104373
0.00172093
0.00307816
0.026512
0.110827
0.00273726
0.00138513
0.0688028
0.00341599
0.074902
0.106641
0.0740563
0.0577551
0.146442
0.0132844
0.00130208
0.0450081
0.153664
0.00321027
0.00269125
0.00740466
0.00225471
0.0650269
0.00205698
0.00773809
0.0055522
0.147116
0.103359
0.00745103
0.00132284
0.090198
0.00439918
0.00183756
0.0955396
0.0647382
0.125202
0.0175154
0.0676711
0.0104216
0.00263696
0.14149
0.0935719
0.138393
0.0430678
0.00491034
0.00200238
0.0340508
0.00258873
0.0115716
0.0934971
0.155187
0.0155659
0.152107
0.00324216
0.00300931
0.00811725
0.0107208
0.00155783
0.105267
0.0027862
0.0015083
0.00984207
0.00261011
0.155706
0.0504446
0.0375006
0.02667
0.00246645
0.0107506
0.0514772
0.0227558
0.13805
0.00146394
0.108483
0.151452
0.00179317
0.00192364
0.058849
0.0283967
0.0110791
0.111057
0.105895
0.0109643
0.110948
0.0028402
0.158211
0.00236465
0.115724
0.0202105
0.00537006
0.111799
0.147431
0.0121358
0.0106008
0.101445
0.0498788
0.00851654
0.00365598
0.00215639
0.00718929
0.0290389
0.15447
0.139539
0.0171243
0.121598
0.0451636
0.136457
0.1522
0.00145668
0.0268571
0.00975076
0.0234664
0.0866178
0.129835
0.118431
0.0430517
0.036174
0.00639906
0.0239642
0.00722381
0.000879523
0.0214308
0.0079872
0.0058945
0.00220711
0.00659342
0.154945
0.0205365
0.0169601
0.0276929
0.00716351
0.13925
0.0435243
0.00671596
0.00144489
0.0274305
0.00585902
0.00755072
0.00555976
0.00527042
0.0328342
0.0048504
0.00453344
0.00427655
0.00406337
0.00474249
0.00694213
0.0906349
0.129265
0.0146158
0.00581073
0.111938
0.00727096
0.00215031
0.0106533
0.00180763
0.15383
0.132796
0.122061
0.00294664
0.0375722
0.0527371
0.00594123
0.00633242
0.0545383
0.0777237
0.0454661
0.0235599
0.00192062
0.155316
0.0233576
0.00457146
0.00149694
0.00606852
0.00198663
0.00868003
0.130862
0.00206487
0.125425
0.00209444
0.00147204
0.0510214
0.0150781
0.0121111
0.062504
0.130773
0.0253799
0.0411121
0.139632
0.130399
0.00804113
0.00308156
0.012339
0.0603417
0.00345436
0.00781021
0.00179355
0.00157376
0.0656259
0.104399
0.0413238
0.174381
0.00195083
0.0529744
0.00297936
0.00626567
0.00334029
0.108058
0.143035
0.142073
0.00144605
0.137397
0.00228576
0.122811
0.00214438
0.0377844
0.0601413
0.0837151
0.143365
0.0058859
0.113072
0.146445
0.0547621
0.0358778
0.00355121
0.00132495
0.010842
0.00165933
0.177671
0.147342
0.0219732
0.0127592
0.00197052
0.00587714
0.0130396
0.00348763
0.00528358
0.00321325
0.170891
0.132968
0.139522
0.144027
0.00437409
0.0424278
0.124685
0.0250864
0.00415113
0.113662
0.105027
0.0305181
0.00139912
0.106132
0.0352032
0.151365
0.0015509
0.120172
0.0720639
0.00461567
0.00574933
0.00349412
0.15125
0.0124016
0.0107043
0.00392911
0.00308656
0.113288
0.0044607
0.0719619
0.107285
0.0177874
0.0538284
0.0113639
0.0779771
0.0137212
0.0148134
0.00769677
0.00142866
0.00234318
0.00232805
0.12852
0.0111893
0.107205
0.00434078
0.111043
0.0118067
0.0678349
0.0122167
0.153148
0.113165
0.157408
0.0241927
0.00149789
0.00423965
0.0641395
0.0271484
0.00506398
0.153927
0.105513
0.00244933
0.0189035
0.0112274
0.00348652
0.129737
0.00130231
0.153992
0.0028286
0.00170134
0.0526929
0.0235144
0.0162936
0.00553984
0.00608752
0.00215168
0.0494783
0.0423458
0.00328824
0.0513664
0.0072141
0.0326748
0.0050819
0.0113714
0.00290351
0.0177095
0.0387471
0.0391278
0.00154901
0.0107204
0.00333135
0.00113826
0.106285
0.151913
0.00150268
0.0021564
0.0944248
0.0450175
0.0218576
0.0579403
0.00270626
0.0418052
0.00145234
0.0292595
0.00143521
0.0111143
0.0611556
0.0439762
0.00727711
0.00548417
0.157196
0.00585351
0.153029
0.0232234
0.0636636
0.154761
0.0994146
0.0773941
0.00204245
0.00270825
0.14815
0.00242108
0.0441749
0.0980524
0.091547
0.125671
0.052389
0.00312032
0.00180699
0.139695
0.0260417
0.00741158
0.00875352
0.003992
0.00607787
0.0278638
0.0161284
0.120071
0.155621
0.0461461
0.00195397
0.142325
0.00253323
0.00342248
0.0106533
0.00279163
0.00140834
0.13284
0.00141929
0.0117942
0.00841343
0.0711203
0.110928
0.0873932
0.00374797
0.0665405
0.0701913
0.120342
0.00242603
0.00428315
0.00788352
0.00383436
0.00387943
0.00231938
0.0754666
0.0972266
0.00750861
0.0403991
0.0553967
0.0529108
0.0287522
0.112252
0.108312
0.0428466
0.0271135
0.0379013
0.0343428
0.148591
0.0612457
0.00491363
0.0371062
0.00225706
0.0388057
0.0995412
0.00565833
0.00955701
0.126173
0.112786
0.0267749
0.0284228
0.00139741
0.0267933
0.0100343
0.0963716
0.105349
0.0253795
0.00202795
0.00724341
0.0360628
0.149117
0.00174826
0.0619853
0.10979
0.00665151
0.0196129
0.00787402
0.0014876
0.0064578
0.0262513
0.0250259
0.00140575
0.0920915
0.060837
0.0137269
0.1534
0.00772804
0.00948428
0.00529221
0.0320526
0.063551
0.0187988
0.00356786
0.00717734
0.0648677
0.00546178
0.00535729
0.0103129
0.0580016
0.06045
0.00846415
0.0110073
0.00279948
0.112394
0.0628702
0.00928987
0.0555663
0.00906591
0.00734362
0.0671776
0.00887452
0.153493
0.00995067
0.055819
0.0707684
0.0989209
0.116612
0.00205279
0.00354931
0.046826
0.0248896
0.00502012
0.0588625
0.101712
0.0145964
0.00217927
0.00751729
0.0015255
0.0152026
0.0140074
0.00326329
0.00471272
0.014331
0.0972135
0.00567268
0.0952196
0.067573
0.00523225
0.00440219
0.0465402
0.0272152
0.0202695
0.0292947
0.0278805
0.00417299
0.1147
0.00153029
0.0229761
0.135832
0.134718
0.135499
0.0461373
0.0447481
0.128428
0.0239547
0.066942
0.0488448
0.152738
0.00643595
0.0432028
0.0106585
0.0271228
0.155753
0.133185
0.00960052
0.0947994
0.00308143
0.068912
0.0708633
0.0137203
0.0110335
0.0618989
0.0639645
0.0114753
0.0265457
0.0126255
0.0108024
0.105052
0.00211905
0.0254534
0.043491
0.0182441
0.0019207
0.133717
0.0114742
0.145989
0.0242879
0.107998
0.0333898
0.0917268
0.069057
0.0898287
0.0108315
0.00126885
0.0124928
0.071356
0.0281493
0.00142369
0.0327488
0.0038102
0.00580515
0.076066
0.0137725
0.0733095
0.00368817
0.0276966
0.0281561
0.0013686
0.136689
0.0432573
0.0582264
0.0136394
0.0425583
0.00700983
0.00180407
0.0764845
0.0887619
0.0636411
0.00184871
0.0497367
0.0389926
0.00998761
0.00158106
0.116191
0.0226501
0.00829774
0.0142679
0.146672
0.0128851
0.140617
0.0354546
0.111867
0.0503466
0.00493144
0.00696967
0.113283
0.0453254
0.00480575
0.0715492
0.055949
0.0195878
0.0554396
0.0777563
0.0247629
0.0525631
0.0532919
0.112654
0.00770131
0.00490973
0.00392512
0.115244
0.00792177
0.00139903
0.00102473
0.153496
0.0738847
0.0198268
0.0063108
0.0530901
0.113391
0.0909452
0.135045
0.0540844
0.0187632
0.14475
0.00752759
0.0373377
0.126045
0.047153
0.00775953
0.0132062
0.004795
0.0447152
0.0296115
0.0013755
0.043189
0.0222752
0.00132576
0.00143833
0.00521844
0.00841546
0.00371183
0.10531
0.141588
0.0472881
0.00335889
0.101813
0.119505
0.00274777
0.135875
0.152614
0.0079117
0.0446156
0.00120856
0.0164477
0.0152762
0.0362466
0.0136492
0.0442791
0.0258015
0.0373072
0.128064
0.0233838
0.00143242
0.0798175
0.0973532
0.0223637
0.00142775
0.0457724
0.0459284
0.0018896
0.136531
0.0353844
0.00787992
0.133921
0.00189863
0.0237212
0.0516361
0.0150867
0.00688302
0.00329081
0.0266115
0.0115605
0.0138481
0.00955888
0.00826314
0.0743508
0.014245
0.00610668
0.0424647
0.0100159
0.0511851
0.0284775
0.00167504
0.136952
0.0104056
0.00988222
0.0828451
0.014767
0.0222674
0.0383041
0.0248135
0.0056135
0.0375731
0.0145031
0.0464032
0.00791067
0.105781
0.00142205
0.0122315
0.121696
0.0470153
0.11734
0.136805
0.133678
0.0784982
0.0731896
0.0227939
0.0242251
0.0594982
0.148292
0.14922
0.147206
0.00772761
0.137642
0.0622566
0.0399594
0.0400718
0.0185423
0.102421
0.028995
0.0256829
0.0364188
0.0496598
0.0608232
0.00486519
0.0814536
0.0116365
0.0220537
0.00556145
0.0182637
0.0817925
0.0080304
0.013681
0.00140184
0.00173692
0.0233982
0.0505552
0.0259767
0.015231
0.00977649
0.152895
0.121824
0.0121841
0.153248
0.0404668
0.0548475
0.0406107
0.0476103
0.0108722
0.0387813
0.0509943
0.114803
0.158513
0.00457703
0.0360066
0.0888254
0.00593487
0.00770385
0.105737
0.0187877
0.103418
0.0609879
0.0771025
0.0448208
0.075033
0.10389
0.0863703
0.0732816
0.00383268
0.128501
0.105657
0.0817491
0.0436779
0.00378525
0.00178189
0.0422123
0.0377277
0.00138637
0.0778989
0.100944
0.0878654
0.0153291
0.13907
0.0634325
0.0669288
0.00955285
0.08109
0.0210514
0.0633095
0.0362502
0.00148982
0.101544
0.041513
0.0100637
0.0196979
0.018455
0.118476
0.0552777
0.0222314
0.0283863
0.0274305
0.0376949
0.0123828
0.00781799
0.139175
0.00892707
0.0533755
0.131349
0.0459497
0.0021821
0.104608
0.135694
0.0285541
0.0674438
0.0420617
0.102096
0.0482821
0.0271609
0.0558746
0.0391591
0.0176037
0.0369894
0.152641
0.00314974
0.00323915
0.0736714
0.099754
0.00623665
0.140731
0.0515212
0.0691393
0.00740053
0.167835
0.145601
0.0206816
0.0410689
0.00271241
0.0631645
0.149106
0.0267848
0.136157
0.0017577
0.0662926
0.0418652
0.0461887
0.0136935
0.0093556
0.0257237
0.0528315
0.00966958
0.0746619
0.138788
0.0300801
0.0468386
0.0256191
0.0982146
0.0630887
0.0440868
0.0817616
0.0128394
0.00813394
0.00212816
0.0786008
0.0439151
0.126902
0.00298395
0.00197773
0.0678035
0.0778289
0.0261701
0.0231083
0.00677114
0.0669807
0.0233845
0.0217873
0.0141667
0.146479
0.00820249
0.0111986
0.0484562
0.048094
0.0591278
0.0133613
0.0519961
0.151328
0.0231547
0.012694
0.153673
0.0467084
0.00987216
0.152096
0.0733631