/*--------------------------------*- C++ -*----------------------------------*\
| =========                 |                                                 |
| \\      /  F ield         | OpenFOAM: The Open Source CFD Toolbox           |
|  \\    /   O peration     | Version:  v2012                                 |
|   \\  /    A nd           | Website:  www.openfoam.com                      |
|    \\/     M anipulation  |                                                 |
\*---------------------------------------------------------------------------*/
FoamFile
{
    version     2.0;
    format      ascii;
    class       volVectorField;
    location    "850";
    object      cellDisplacement;
}
// * * * * * * * * * * * * * * * * * * * * * * * * * * * * * * * * * * * * * //

dimensions      [0 1 0 0 0 0 0];


internalField   nonuniform List<vector> 
13851
(
(-0.0210997 -0.0230398 0)
(-0.0173502 0.0271336 0)
(-0.0172913 0.0255343 0)
(-0.0179317 0.137185 0)
(-0.000476275 0.00447538 0)
(-0.0173938 0.0477336 0)
(-0.0178723 -0.0643308 0)
(-0.00125428 0.00410857 0)
(-0.0218953 -0.0534221 0)
(-0.000857606 0.106986 0)
(-0.0182235 0.0871799 0)
(-0.00376466 0.0600059 0)
(-0.00270603 0.127641 0)
(-0.0215963 -0.0389397 0)
(-0.0200609 -0.0215315 0)
(-0.0223544 -0.0960039 0)
(-0.0188069 0.0952375 0)
(-0.0134397 0.0398306 0)
(-0.0202655 0.0221347 0)
(-0.0210595 -0.0214934 0)
(-0.0199934 -0.00543321 0)
(-0.0139316 0.117092 0)
(-0.0175174 0.153009 0)
(-0.000189659 0.00204792 0)
(-0.0194164 0.0641991 0)
(-0.0215622 -0.0879917 0)
(-0.0220169 -0.0630284 0)
(-0.0206891 0.00341383 0)
(-0.0225702 -0.08602 0)
(-0.00984989 0.0378893 0)
(-0.0184882 0.110343 0)
(-0.0178533 -0.0617877 0)
(-0.021245 -0.0311268 0)
(-0.0212874 -0.0242764 0)
(-0.0179 0.0819935 0)
(-0.0226946 -0.0920918 0)
(-0.000165696 0.00179873 0)
(-0.0185841 0.102955 0)
(-0.0195212 0.0607477 0)
(-0.00909603 0.109487 0)
(-0.0207978 -0.000652617 0)
(-0.0225661 -0.0858997 0)
(-0.0184668 0.111591 0)
(-0.0170513 0.152977 0)
(-0.0224252 -0.0791476 0)
(-0.0094139 0.077351 0)
(-0.00242841 -0.00556372 0)
(-0.0221102 -0.0794607 0)
(-0.0143102 0.0915164 0)
(-0.00243151 0.127707 0)
(-0.0199189 0.0417319 0)
(-0.000682119 0.132847 0)
(-0.0223189 -0.0944256 0)
(-0.0197607 -0.0700786 0)
(-0.0219287 -0.0549555 0)
(-0.00897174 0.110818 0)
(-0.0212276 -0.0296201 0)
(-0.0207792 0.000259668 0)
(-0.0223233 -0.0787136 0)
(-0.0210409 -0.0122795 0)
(-0.00360269 0.0580106 0)
(-0.0219971 -0.0625474 0)
(0.000292524 0.0866379 0)
(-0.0143491 0.0931365 0)
(-0.0155146 0.161136 0)
(-0.0155409 0.161836 0)
(-0.0210255 -0.0115503 0)
(-0.00522746 0.163662 0)
(-0.0112683 0.0959264 0)
(-0.0180932 0.129384 0)
(-0.0186598 0.102236 0)
(-0.0201795 -0.00321456 0)
(-0.0056617 0.115798 0)
(-0.0210706 -0.0136875 0)
(-0.0200071 -0.0575574 0)
(-0.0123336 0.118913 0)
(-0.0188 0.0955656 0)
(-0.00898724 0.0136342 0)
(-0.0194393 0.0629338 0)
(-0.00667637 0.0842034 0)
(-0.0114693 0.0954486 0)
(-0.0189681 0.0819419 0)
(-0.0177878 0.0838871 0)
(-0.021527 -0.0356008 0)
(-0.0210881 -0.0145328 0)
(-0.0185498 0.107444 0)
(-0.0141491 0.116218 0)
(-0.0225527 -0.0849412 0)
(-0.00216362 0.108195 0)
(-0.0184606 0.111655 0)
(-0.000418337 0.133603 0)
(-0.018 -0.0603225 0)
(-0.0196761 0.0534143 0)
(-0.0185254 0.108667 0)
(-0.0198495 0.0450203 0)
(-0.0168747 0.152385 0)
(-0.008542 0.0884479 0)
(-0.022243 -0.0868848 0)
(-0.020349 0.0210425 0)
(-0.0180321 0.113741 0)
(-0.0222415 -0.0851956 0)
(-0.00634885 0.160642 0)
(-0.00807545 0.160751 0)
(-0.00533678 0.121496 0)
(-0.0101431 0.0713165 0)
(-0.0197526 0.0155569 0)
(-0.00995238 0.0717428 0)
(-0.0186406 0.103128 0)
(-0.0179818 -0.0578009 0)
(-0.0132748 0.0396257 0)
(-0.0138759 0.132675 0)
(-0.00962539 0.0771143 0)
(-0.0196228 0.0487781 0)
(-0.0190885 0.0550135 0)
(-0.0215318 -0.0459788 0)
(-0.0196612 -0.0685297 0)
(-0.00714598 0.0333232 0)
(-0.00153627 0.00472804 0)
(-0.0179152 0.138023 0)
(-0.0180816 0.129821 0)
(-0.0169322 0.146521 0)
(-0.0121319 0.0381284 0)
(-0.0106018 0.101984 0)
(-0.021176 -0.0187968 0)
(-0.0205635 0.00720854 0)
(-0.00790138 0.164723 0)
(-0.00859115 0.0868088 0)
(-0.0171959 0.112615 0)
(-0.0211246 -0.0163724 0)
(-0.0203928 -0.0195342 0)
(-0.0137575 0.119346 0)
(-0.0173562 0.0743201 0)
(-0.0185746 0.102908 0)
(-0.0213171 -0.0256887 0)
(-0.0183189 0.0854006 0)
(-0.0197429 0.0501502 0)
(-0.00479235 0.163408 0)
(-0.0185752 0.106257 0)
(-0.00516383 0.158719 0)
(-0.02048 -0.0273638 0)
(-0.0189285 0.0832177 0)
(-0.00606249 0.136044 0)
(-0.00206975 0.109764 0)
(-0.0124484 0.163214 0)
(-0.0197543 0.0482332 0)
(-0.0111986 0.125368 0)
(-0.0087545 0.0120718 0)
(-0.0184976 0.109982 0)
(-0.022238 -0.069916 0)
(-0.0172775 0.112587 0)
(-0.0222083 -0.0832983 0)
(-0.0195805 0.0501877 0)
(-0.0191325 0.0548486 0)
(-0.0203214 0.0185378 0)
(-0.00259793 0.13453 0)
(-0.000439965 0.121812 0)
(-0.00334979 0.049062 0)
(-0.0195024 0.0616745 0)
(-0.0203527 -0.0253802 0)
(-0.0177554 -0.0332838 0)
(-0.000427059 0.00467507 0)
(-0.022624 -0.088643 0)
(-0.0197579 0.0137415 0)
(-0.0220747 -0.0775042 0)
(-0.0216198 -0.0400831 0)
(-0.0220136 -0.0591934 0)
(-0.0219926 -0.0582011 0)
(-0.0198991 0.0426852 0)
(-0.0138284 0.131389 0)
(-0.0204395 0.016142 0)
(-0.00330773 0.0556709 0)
(-0.00696713 0.0317314 0)
(-0.019741 0.0245825 0)
(-0.000405221 0.0040578 0)
(-0.019864 0.0443031 0)
(-0.0216067 -0.0424769 0)
(-0.02204 -0.0708202 0)
(-0.00710594 0.030527 0)
(-0.0199948 -0.0623692 0)
(-0.022049 -0.0722691 0)
(-0.0205831 0.00596336 0)
(-0.0170339 0.151933 0)
(-0.0139653 0.128167 0)
(-0.0203903 -0.0215818 0)
(-0.0187691 0.0970468 0)
(-0.0222621 -0.071081 0)
(-0.0212994 -0.0335283 0)
(-0.0043092 0.155546 0)
(-0.00309279 0.131555 0)
(-0.00993492 0.0549629 0)
(-0.0197519 0.0481277 0)
(-0.0203001 -0.0226216 0)
(-0.0215891 -0.0385819 0)
(-0.0175345 0.044406 0)
(-0.0112424 0.123721 0)
(-0.0222846 -0.0907308 0)
(-0.0213095 -0.0347906 0)
(-0.0153497 0.00508247 0)
(-0.0141891 0.053643 0)
(-0.00698777 0.163417 0)
(-0.0188423 0.0869205 0)
(-0.0201898 0.0286378 0)
(-0.0206763 0.00520763 0)
(-0.0200716 -0.0242054 0)
(-0.0169985 0.162242 0)
(-0.0201975 0.0282809 0)
(-0.000687778 0.148025 0)
(-0.020682 -0.0435905 0)
(-0.0218219 -0.0498921 0)
(-0.016833 0.06037 0)
(-0.0223867 -0.0995172 0)
(-0.0104693 0.10154 0)
(-0.0188836 0.085564 0)
(-0.00117452 0.0205674 0)
(-0.0180897 0.0772593 0)
(-0.0128345 0.120025 0)
(-0.00237188 0.126283 0)
(-0.0210447 -0.0166842 0)
(-0.0149575 0.0301087 0)
(-0.0127253 0.166521 0)
(-0.00693967 0.0288575 0)
(-0.0209774 -0.01729 0)
(-0.0215075 -0.0346607 0)
(-0.019796 0.047586 0)
(-0.00552676 0.154428 0)
(-0.0207412 -0.0455068 0)
(-0.000625122 0.0106465 0)
(-0.0119831 0.163074 0)
(-0.00493024 0.0793434 0)
(-0.0179923 0.078613 0)
(-0.0178796 0.138973 0)
(-0.00460867 0.155009 0)
(-0.0168898 0.0574943 0)
(0.000990421 0.0807786 0)
(-0.0206985 0.00415272 0)
(-0.0100189 0.0363041 0)
(-0.0174869 0.152713 0)
(-0.0206241 0.00772505 0)
(-0.0180003 0.113187 0)
(-0.000399628 0.00441263 0)
(-0.0178818 0.131117 0)
(-0.0211369 -0.0168969 0)
(-0.0224482 -0.0803268 0)
(-0.0223491 -0.0980624 0)
(-0.0191854 0.0135239 0)
(-0.0127389 0.163871 0)
(-0.0210349 -0.0166845 0)
(-0.020033 -0.065015 0)
(-0.0168539 0.151377 0)
(-0.0146848 0.127813 0)
(-0.0222356 -0.0697934 0)
(-0.0204703 0.00769913 0)
(-0.00128289 0.00639131 0)
(-0.0183169 0.00975005 0)
(-0.0222844 -0.0889119 0)
(-0.022646 -0.0896695 0)
(-0.0229089 -0.102205 0)
(-0.00976877 0.0539049 0)
(-0.0074118 0.164954 0)
(-0.00252819 0.106763 0)
(-0.0213812 -0.0342836 0)
(-0.0204801 0.0109703 0)
(-0.018414 0.00914131 0)
(-0.0198548 0.0103559 0)
(-0.0204476 0.00926778 0)
(-0.00640505 0.106013 0)
(-0.00688259 0.160843 0)
(-0.0219505 -0.0742997 0)
(-0.0208534 -0.00470606 0)
(-0.00231444 0.0811921 0)
(-0.0021103 0.126125 0)
(-0.0052331 0.154985 0)
(-0.0217495 -0.0464873 0)
(-0.0179792 0.135016 0)
(-0.020191 -0.0092991 0)
(-0.0123487 0.0384504 0)
(-0.0206359 0.00362982 0)
(-0.0204016 0.0147197 0)
(-0.0214028 -0.0413121 0)
(-0.0198692 0.00828365 0)
(-0.0217303 -0.0455357 0)
(-0.0205661 0.0105958 0)
(-0.0182432 0.0233023 0)
(-0.0198704 -0.0227095 0)
(-0.0183947 0.11183 0)
(-0.0105043 0.06603 0)
(-0.00333012 0.0464491 0)
(-0.0213852 -0.0395924 0)
(-0.0178107 0.0962335 0)
(-0.0104311 0.0347514 0)
(-0.00120895 0.019867 0)
(-0.00494386 0.0813209 0)
(-0.000685626 0.00556179 0)
(-0.0194479 -7.56592e-05 0)
(-0.00345374 0.048962 0)
(-0.021871 -0.0522638 0)
(-0.0200599 -0.00601973 0)
(-0.00950215 0.0977189 0)
(-0.0226767 -0.0911677 0)
(-0.0211914 -0.0195318 0)
(-0.00192833 0.13247 0)
(-0.0210223 -0.0190845 0)
(-0.0201341 0.0313763 0)
(-0.00621619 0.136902 0)
(-0.00165928 0.133358 0)
(-0.020073 -0.00406328 0)
(-0.021419 -0.0304153 0)
(-0.018924 0.0890148 0)
(-0.0200349 0.0148175 0)
(-0.000612435 0.00567747 0)
(-0.0204681 0.014724 0)
(-0.00346886 0.0578462 0)
(-0.0200307 0.0174317 0)
(-0.0201153 0.0322736 0)
(-0.0209242 -0.00816927 0)
(-0.0176282 -0.032417 0)
(-0.0183617 0.112904 0)
(-0.0185149 0.104656 0)
(-0.0187532 0.097687 0)
(-0.0194877 0.0542048 0)
(-0.00455866 0.161631 0)
(-0.0197392 0.050305 0)
(-0.0211549 -0.0177921 0)
(-0.0206544 0.0050142 0)
(-0.0143412 0.0540427 0)
(-0.018542 0.107973 0)
(-0.0225265 -0.0837166 0)
(-0.0129698 0.16595 0)
(-0.0131789 0.165773 0)
(-0.00099758 0.148352 0)
(-0.019861 0.0220154 0)
(-0.00998638 0.149122 0)
(-0.0225753 -0.0860606 0)
(-0.00732276 0.161589 0)
(-0.00200302 0.012363 0)
(-0.00275305 -0.00566557 0)
(-0.0157552 0.0973679 0)
(-0.0187382 0.0984457 0)
(-0.0127872 0.166479 0)
(-0.01049 0.0640892 0)
(-0.0198183 0.0465267 0)
(-0.00942876 0.150709 0)
(-0.0173249 0.0766475 0)
(-0.0178259 -0.0357419 0)
(-0.0214358 -0.0312217 0)
(-0.0206614 0.0021571 0)
(-0.0223226 -0.0925019 0)
(-0.0125906 0.120405 0)
(-0.0167644 0.0572946 0)
(-0.0229345 -0.103838 0)
(-0.00339423 0.131927 0)
(-0.0203652 0.0166969 0)
(-0.0182351 0.0211011 0)
(-0.0200244 -0.00134768 0)
(-0.00933756 0.151579 0)
(-0.00242876 0.108339 0)
(-0.00960977 0.0961545 0)
(-0.0188803 0.080381 0)
(-0.0181087 0.112146 0)
(-0.0205571 0.00351193 0)
(-0.0185288 0.10465 0)
(-0.0229097 -0.102681 0)
(-0.0113743 0.125535 0)
(-0.0206488 0.00654782 0)
(-0.0213337 -0.0305814 0)
(-0.0115601 0.0123745 0)
(-0.0209535 -0.0094573 0)
(-0.0208379 -0.015952 0)
(-0.0203273 0.0220877 0)
(-0.0156659 0.0964971 0)
(-0.0216534 -0.0991308 0)
(-0.022306 -0.0785144 0)
(-0.0189389 0.0863548 0)
(-0.0187662 0.0841087 0)
(-0.0224852 -0.0816984 0)
(-0.0145426 0.0698567 0)
(-0.0215856 -0.0411728 0)
(-0.0184469 0.112582 0)
(-0.0186322 0.0288034 0)
(-0.0222389 -0.0699522 0)
(-0.0187527 0.0320216 0)
(-0.0205675 0.0104314 0)
(-0.0197927 -0.0214323 0)
(-0.0204537 -0.0887245 0)
(-0.0203518 0.0133463 0)
(-0.0183607 0.105629 0)
(-0.000731239 0.121916 0)
(-0.0179134 0.0315654 0)
(-0.0178439 0.0971031 0)
(-0.0200537 -0.0602742 0)
(-0.00924555 0.084566 0)
(-0.0202565 -0.0113511 0)
(-0.0212862 -0.0244588 0)
(-0.00576828 0.114692 0)
(-0.0206456 -0.0399978 0)
(-0.0178286 0.1422 0)
(-0.0163674 0.0570455 0)
(-0.0175338 0.146416 0)
(-0.0208433 -0.0721731 0)
(-0.0189458 0.0878901 0)
(-0.0169098 0.0614286 0)
(-0.021489 -0.0875131 0)
(-0.0168609 0.162291 0)
(-0.0205165 0.00949484 0)
(-0.0196012 0.021011 0)
(-0.0228906 -0.101313 0)
(-0.0211186 -0.0159992 0)
(-0.0178327 0.131955 0)
(-0.00626438 0.107116 0)
(-0.0189016 0.0788786 0)
(-0.0185766 0.0404588 0)
(-0.0216252 -0.0965694 0)
(-0.0118563 0.0452816 0)
(-0.0185964 0.105358 0)
(-0.0210832 -0.0146603 0)
(-0.0191503 0.076614 0)
(-0.0168045 0.0544443 0)
(-0.0203934 0.0118502 0)
(-0.0218687 -0.0559868 0)
(-0.0179625 0.135797 0)
(-0.00967789 -0.00578743 0)
(-0.0185461 0.107784 0)
(-0.0184889 0.101355 0)
(-0.0174807 0.156025 0)
(-0.0148703 0.127394 0)
(-0.0202791 0.023117 0)
(-0.00285149 0.118971 0)
(-0.00035869 0.00354775 0)
(-0.0219492 -0.0559407 0)
(-0.0218034 -0.0526191 0)
(-0.000948775 0.108994 0)
(-0.0172929 0.0296401 0)
(-0.0206719 -0.0388049 0)
(-0.00690166 0.0383281 0)
(-0.0210804 -0.0145976 0)
(-0.0199261 0.0197882 0)
(-0.0207934 -0.0145319 0)
(-0.0187091 -0.0222734 0)
(-0.0146352 0.0672903 0)
(0.000625456 0.133433 0)
(-0.0189019 0.0878723 0)
(-0.00924359 0.0983225 0)
(0.000825883 0.132577 0)
(-0.0226022 -0.089314 0)
(-0.0212661 -0.0235366 0)
(-0.0135344 0.119893 0)
(-0.0222482 -0.0764325 0)
(0.000467931 0.0851971 0)
(-0.003418 0.0462566 0)
(-0.0165067 0.0569638 0)
(-0.0205319 0.00515729 0)
(-0.0207931 -0.0789046 0)
(-0.00933444 0.0873059 0)
(-0.0157934 0.0473327 0)
(-0.0169188 0.145428 0)
(-0.0170126 0.0163254 0)
(-0.0187895 0.0952477 0)
(-0.00371101 0.0559954 0)
(-0.0192244 -0.0469963 0)
(-0.0223942 -0.0776688 0)
(-0.0115153 0.152055 0)
(-0.00284962 -0.00141155 0)
(-0.00291311 0.0551438 0)
(-0.0186241 -0.0197351 0)
(-0.0157779 0.000426688 0)
(-0.0176645 0.138423 0)
(-0.0226443 -0.0909321 0)
(-0.0192794 0.0113439 0)
(-0.0165707 0.166344 0)
(-0.0166702 0.0542038 0)
(-0.00387263 0.0754242 0)
(-0.0213669 -0.0280076 0)
(-0.0222665 -0.0766324 0)
(-0.00807226 0.157054 0)
(-0.00655713 0.115957 0)
(-0.0211825 -0.019113 0)
(-0.00570613 0.158208 0)
(-0.017322 0.156138 0)
(-0.00510911 0.121791 0)
(-0.0175814 0.0686281 0)
(-0.0188179 0.0828233 0)
(-0.0201939 -0.0494005 0)
(-0.0211544 -0.0177798 0)
(-0.0218997 -0.0572893 0)
(-0.019121 0.0777636 0)
(-0.00870179 0.138871 0)
(-0.0195344 0.0525842 0)
(-0.00681602 0.10559 0)
(-0.0225939 -0.0871373 0)
(-0.0208009 -0.0700068 0)
(-0.0213464 -0.0366374 0)
(-0.0185955 0.0381416 0)
(-0.0125527 0.118818 0)
(-0.0116033 0.151216 0)
(-0.0198158 0.0221351 0)
(-0.000531048 0.00506793 0)
(-0.0181447 0.127083 0)
(-0.0213463 -0.0270076 0)
(-0.0187624 0.0964564 0)
(-0.0175777 0.154256 0)
(-0.0226131 -0.0895018 0)
(-0.0192169 0.0754812 0)
(-0.0204405 0.013109 0)
(-0.0061859 0.153162 0)
(-0.000953187 0.0391855 0)
(-0.0175639 0.146919 0)
(-0.000610438 0.106578 0)
(-0.00910923 0.0836493 0)
(-0.00718977 0.154137 0)
(-0.0199152 0.0418331 0)
(-0.0174814 0.0137118 0)
(-0.00509858 0.137522 0)
(-0.0162713 0.144255 0)
(-0.0190932 0.0436302 0)
(0.00103846 0.110264 0)
(-0.0195335 0.0594768 0)
(-0.00815567 0.0889966 0)
(-0.0212064 -0.0203253 0)
(-0.0176735 0.137235 0)
(-0.00687479 0.0848742 0)
(-0.0174855 -0.00650112 0)
(-0.0186697 0.0940553 0)
(-0.0208849 -0.00613045 0)
(-0.0102803 0.0368279 0)
(-0.0187196 0.0972838 0)
(-0.0176218 0.146012 0)
(-0.0126573 -0.0158843 0)
(-0.0190975 0.0811186 0)
(-0.0202974 0.0203897 0)
(-0.0208939 -0.013123 0)
(-0.00842651 0.139126 0)
(-0.0225651 -0.0875745 0)
(-0.0207622 0.00116408 0)
(-0.0128455 -0.0153788 0)
(-0.0197231 0.0472464 0)
(-0.0109112 0.0989134 0)
(-0.00833423 0.0894649 0)
(-0.0228637 -0.103754 0)
(-0.0205407 0.0117168 0)
(-0.0188778 0.0401236 0)
(-0.0207355 -0.0803119 0)
(-0.000157119 0.107625 0)
(-0.0212679 -0.0728872 0)
(-0.0211519 -0.0176984 0)
(-0.0196069 0.0566681 0)
(-0.0136576 -0.00500539 0)
(-0.0189632 0.0877039 0)
(-0.00919051 0.0866267 0)
(-0.0111259 0.0982253 0)
(-0.0196804 0.0189085 0)
(-0.0191776 -0.0598836 0)
(-0.00975987 -0.00784677 0)
(-0.012123 0.120321 0)
(-0.019149 0.0786363 0)
(-0.0183551 0.104972 0)
(-0.0191208 0.0800179 0)
(-0.0173242 0.0148376 0)
(-0.00276888 0.106883 0)
(-0.0218035 -0.0491114 0)
(-0.00133162 0.049624 0)
(-0.0190035 0.0747607 0)
(-0.0191752 -0.0322517 0)
(-0.0200069 -0.0524609 0)
(-0.0190474 0.0196262 0)
(-0.0224681 -0.0815016 0)
(-0.0205456 0.01158 0)
(-0.0176578 0.038354 0)
(-0.0184463 0.112597 0)
(-0.0174359 -0.0274928 0)
(-0.0195807 0.0349669 0)
(-0.0225379 -0.0845673 0)
(-0.0219282 -0.0549401 0)
(-0.0100227 0.106047 0)
(-0.00665101 0.106575 0)
(-0.00866927 0.160515 0)
(-0.0191693 0.0776831 0)
(-0.0224824 -0.0909582 0)
(-0.0212388 -0.0743062 0)
(-0.0173888 0.155022 0)
(-0.0192231 -0.0620793 0)
(-0.0197682 -0.0238759 0)
(-0.0178825 0.138449 0)
(-0.0194598 0.0630375 0)
(-0.0166434 0.147245 0)
(-0.0212321 -0.0215471 0)
(-0.021702 -0.0507407 0)
(-0.0227967 -0.0972234 0)
(-0.0140779 0.071826 0)
(-0.0223574 -0.0802622 0)
(-0.0202693 0.0233611 0)
(-0.00335899 0.0715792 0)
(-0.0196565 0.0544134 0)
(-0.0199441 0.0401263 0)
(-0.0140208 0.129507 0)
(-0.0204724 -0.0249815 0)
(-0.00820563 0.112264 0)
(-0.0163939 0.166279 0)
(-0.0172786 0.120225 0)
(-0.0177817 0.141321 0)
(-0.00916805 0.09988 0)
(-0.000466027 0.00477821 0)
(-0.00321605 0.153024 0)
(-0.0190095 0.0458001 0)
(-0.00365789 0.0538412 0)
(-0.019898 0.0426766 0)
(-0.000564635 0.00575166 0)
(-0.0216685 -0.0494869 0)
(-0.00793583 0.140791 0)
(-0.0216752 -0.0953314 0)
(-0.00543443 0.120323 0)
(0.00103929 0.111972 0)
(-0.0163189 0.123006 0)
(-0.0189858 0.086614 0)
(-0.0194788 0.0264338 0)
(-0.0197674 0.0489815 0)
(-0.0175249 0.0712847 0)
(-0.0072502 0.0416745 0)
(-0.0124409 0.0182827 0)
(-0.0197065 0.0270974 0)
(-0.0156458 0.04997 0)
(-0.0194608 0.050097 0)
(-0.0176738 0.0174685 0)
(-0.00762795 0.156969 0)
(-0.0223839 -0.0821252 0)
(-0.00114735 0.0504985 0)
(-0.0230394 -0.108433 0)
(-0.000851209 0.0144442 0)
(-0.0220434 -0.100495 0)
(-0.01842 0.113848 0)
(-0.0221726 -0.0669382 0)
(-0.000532122 0.156115 0)
(-0.0177418 0.14228 0)
(-0.0161191 0.145372 0)
(-0.017879 0.122887 0)
(-0.0199705 0.0388943 0)
(-0.014157 -0.00254538 0)
(-0.0195168 0.0603822 0)
(-0.00988355 0.150087 0)
(-0.0187107 0.0289398 0)
(-0.0175982 0.153185 0)
(-0.0197085 0.0498067 0)
(-0.0117203 0.0138701 0)
(-0.019412 0.0513549 0)
(-0.0152786 0.00278056 0)
(-0.0228022 -0.0973705 0)
(-0.0197023 0.0521922 0)
(-0.011887 0.0945071 0)
(-0.00617542 0.163672 0)
(-0.0209234 -0.0070361 0)
(-0.000556682 0.0142645 0)
(-0.000757816 0.019239 0)
(-0.0216018 -0.0899776 0)
(-0.0230174 -0.107379 0)
(-0.0225164 -0.0856869 0)
(-0.00140505 0.133151 0)
(-0.0202637 0.0175212 0)
(-0.016864 0.0169088 0)
(0.000812586 0.114589 0)
(-0.0224498 -0.0854033 0)
(-0.0203073 0.0158641 0)
(-0.0181424 0.10921 0)
(-0.00878841 -0.00581619 0)
(-0.021918 -0.0723507 0)
(-0.0122018 0.156263 0)
(-0.0213595 -0.0884818 0)
(-0.00111743 0.141917 0)
(-0.0110159 0.123661 0)
(-0.0171665 0.121325 0)
(-0.00344717 0.152458 0)
(-0.0220319 -0.0769315 0)
(-0.0202018 -0.00582154 0)
(-0.0201053 -0.000472531 0)
(-0.0164848 0.147488 0)
(-0.0172393 0.156461 0)
(-0.0202253 0.023889 0)
(-0.0217924 -0.0489844 0)
(-0.0187433 0.0959327 0)
(-0.0221744 -0.0824225 0)
(-0.0215728 -0.0378155 0)
(-0.0144208 0.140695 0)
(-0.0228504 -0.102594 0)
(-0.0209417 -0.0150491 0)
(-0.0128161 0.0470008 0)
(-0.0196913 -0.0230391 0)
(-0.0202096 0.0241947 0)
(-0.0150204 0.106663 0)
(-0.0066034 0.0822381 0)
(-0.00662194 0.0787845 0)
(-0.0220356 -0.0966371 0)
(-0.0225059 -0.0826801 0)
(-0.0192967 -0.0453667 0)
(-0.0206 0.00890238 0)
(-0.00733667 0.0436026 0)
(-0.0224943 -0.0843008 0)
(-0.015951 0.154835 0)
(-0.020087 0.0336225 0)
(-0.0193394 0.0543931 0)
(-0.0170451 0.0599737 0)
(-0.0174063 0.0219771 0)
(-0.0200685 0.03451 0)
(-0.018198 0.107217 0)
(-0.0143483 0.139714 0)
(-0.0218368 -0.0540888 0)
(-0.0145279 0.0654829 0)
(-0.017637 0.143451 0)
(-0.0220693 -0.098476 0)
(-0.0216207 -0.0469247 0)
(-0.0181902 0.051503 0)
(-0.0186222 0.0977967 0)
(-0.00304963 0.118112 0)
(-0.000954518 0.0167484 0)
(-0.000776449 0.147159 0)
(0.000607373 0.115898 0)
(-0.0224849 -0.0819718 0)
(-0.000783747 0.00649093 0)
(-0.0224603 -0.0865326 0)
(-0.0217822 -0.0480501 0)
(-0.019323 0.0558848 0)
(-0.019659 0.0541607 0)
(-0.0203707 0.0199895 0)
(-0.0216108 -0.0458591 0)
(-0.0179475 0.121573 0)
(-0.00126562 0.155868 0)
(0.000756874 0.0561538 0)
(-0.0020799 0.124619 0)
(-0.00860878 0.0165839 0)
(-0.0122561 0.019476 0)
(-0.000543746 0.00546588 0)
(-0.0197073 0.0297771 0)
(-0.0197002 0.0447868 0)
(-0.012445 0.156697 0)
(-0.0207179 0.00190705 0)
(-0.0123341 0.11218 0)
(-0.0218474 -0.0511097 0)
(-3.07807e-05 0.00404666 0)
(-0.0179256 0.137377 0)
(-0.0175247 0.0883898 0)
(-5.43694e-05 0.00855411 0)
(0.000769255 0.0750697 0)
(-0.0221178 -0.0642768 0)
(-0.0173751 0.0504654 0)
(-0.022094 -0.0645073 0)
(-0.0200028 0.0373012 0)
(-0.0204292 -0.0274177 0)
(-0.0205815 -0.011221 0)
(-0.0125075 -0.0194848 0)
(-0.0212602 -0.022945 0)
(-0.0100095 0.137025 0)
(-0.0175019 0.016162 0)
(-0.0224147 -0.0834032 0)
(0.000510253 0.055902 0)
(-0.00571354 0.136314 0)
(-0.0135557 0.0160277 0)
(-0.0207977 -0.0651955 0)
(-0.022345 -0.0750248 0)
(-0.0172659 0.0704087 0)
(-0.0183721 0.0457196 0)
(-0.0184609 0.103034 0)
(-0.0195857 0.0577057 0)
(-0.00368772 0.155772 0)
(-0.0112854 0.139593 0)
(-0.0226507 -0.0900953 0)
(-0.00832635 0.0158674 0)
(-0.0226839 -0.0916727 0)
(-0.00098855 0.0110078 0)
(-0.0171406 0.0129842 0)
(-0.0195096 0.0595705 0)
(-0.0214478 -0.0554591 0)
(-0.0214852 -0.0440132 0)
(-0.0185653 0.0844174 0)
(-0.0195571 0.0242161 0)
(4.67914e-05 0.035907 0)
(-4.55956e-05 0.0037247 0)
(-0.0196104 0.0352499 0)
(-0.0142601 0.0701074 0)
(5.97456e-05 0.031416 0)
(-0.0194065 -0.0551654 0)
(-0.018209 0.112734 0)
(-0.00401021 0.0358435 0)
(-0.0177552 0.126327 0)
(-0.0175651 0.14489 0)
(-0.0222122 -0.0706499 0)
(-0.0186077 0.0823017 0)
(-0.0182888 0.119733 0)
(-0.00523473 0.159254 0)
(0.000643638 0.0584259 0)
(-0.0186571 0.0882258 0)
(-0.00727253 0.0462322 0)
(-0.0180218 0.0281561 0)
(-0.0218105 -0.0499461 0)
(-0.0229645 -0.105389 0)
(-0.0194869 0.0618243 0)
(-0.0226466 -0.0900237 0)
(-0.0123532 0.091019 0)
(-0.0118511 0.0931849 0)
(-0.0148759 0.152979 0)
(-0.0105629 0.124788 0)
(-0.010852 0.0566617 0)
(-0.0174892 0.154296 0)
(-0.0214233 -0.036074 0)
(-0.022142 -0.065259 0)
(-0.0220834 -0.102159 0)
(-0.0214572 -0.054312 0)
(0.000180171 0.118536 0)
(-0.00988681 0.0399887 0)
(-0.0179446 0.13053 0)
(-0.0207344 -0.01144 0)
(-0.0173 0.0124015 0)
(0.000272458 0.0239598 0)
(-0.0215591 -0.0479593 0)
(-0.0193664 0.0607482 0)
(-0.0205739 0.0101466 0)
(-0.00228206 0.134146 0)
(-0.00221745 0.0273124 0)
(-0.0223246 -0.0740524 0)
(-0.000859723 0.141396 0)
(-0.0188996 0.0260553 0)
(-0.00662179 0.0368013 0)
(-0.019968 0.0392848 0)
(-0.000885382 0.00448003 0)
(-0.0184692 0.11148 0)
(-0.000782112 0.0925681 0)
(-0.0179118 0.114912 0)
(-0.0197529 0.000775612 0)
(-0.0145608 0.15482 0)
(-0.0183064 0.049166 0)
(-0.00540941 0.116038 0)
(-0.0171632 0.0345186 0)
(-0.00301432 0.0283957 0)
(-0.0225163 -0.0900035 0)
(-0.00252839 0.140554 0)
(-0.0229028 -0.10191 0)
(-0.0148279 0.0618766 0)
(-0.0214277 -0.0319816 0)
(-0.021473 -0.0331243 0)
(-0.0179292 0.0568073 0)
(-0.00242964 0.0209668 0)
(-0.0177787 0.144535 0)
(-0.0225542 -0.0864569 0)
(-0.0177811 0.0377384 0)
(-0.0214898 -0.058545 0)
(-0.0018314 0.124355 0)
(-0.0227686 -0.0953725 0)
(-0.0129802 0.0473518 0)
(-0.0201693 0.0260165 0)
(-0.00334026 0.0782307 0)
(-0.00316713 0.0293642 0)
(-0.0221042 -0.0652237 0)
(-0.0191445 0.0170122 0)
(-0.00308157 0.0576896 0)
(-0.0198427 -0.069098 0)
(-0.0208883 -0.00498754 0)
(-0.016746 0.16503 0)
(-0.0208977 -0.00575247 0)
(-0.00957165 0.0550691 0)
(-0.0215958 -0.0389325 0)
(-0.00241506 0.0838859 0)
(-0.00381216 0.0341797 0)
(-0.00286916 0.133694 0)
(-0.00327309 -0.00663609 0)
(-0.000898054 0.0277853 0)
(-0.0206637 0.00554086 0)
(-0.0216724 -0.0432034 0)
(-0.015 0.0323182 0)
(-0.000709053 0.00724726 0)
(-0.0189861 0.0372204 0)
(-0.00971111 0.0755464 0)
(-0.0177821 0.14424 0)
(-0.0187151 0.0866676 0)
(-0.021575 -0.0379103 0)
(-0.0197104 0.0516773 0)
(-0.0170779 0.0371468 0)
(-0.0219956 -0.0749564 0)
(-0.00352476 0.0737053 0)
(-0.0199101 -0.00228998 0)
(-0.015784 0.154566 0)
(-0.0140231 -0.00424489 0)
(-0.000969582 0.0109299 0)
(-0.0179616 0.127929 0)
(-0.0197243 0.0511111 0)
(-0.0205941 -0.0129838 0)
(-0.0187945 0.0958499 0)
(-0.0209645 -0.0373969 0)
(0.000127492 0.0849304 0)
(-0.0187254 0.0493704 0)
(-0.0215377 -0.0601486 0)
(-0.0191392 0.0792454 0)
(-0.0193622 0.000428928 0)
(-0.0221617 -0.0689678 0)
(-0.0207247 -0.0100767 0)
(-0.00135344 0.0217395 0)
(-0.0178823 0.137428 0)
(-0.0179098 0.136557 0)
(-0.0223888 -0.0771189 0)
(-0.0197144 0.0497902 0)
(-0.0229135 -0.106702 0)
(-0.00895963 0.137795 0)
(-0.0132177 0.163625 0)
(0.00124252 0.132983 0)
(-0.0212877 -0.0261105 0)
(-0.0149661 0.10525 0)
(-0.00164219 0.0102063 0)
(-0.0208101 -0.00149369 0)
(-0.0119524 0.11405 0)
(-0.00223553 0.0192767 0)
(-0.0102117 0.104695 0)
(-0.0117758 0.113968 0)
(-0.0199481 0.0402543 0)
(-0.0202866 0.0204391 0)
(-0.00805737 0.0610007 0)
(-0.0188319 0.0468436 0)
(-0.0214779 -0.0332438 0)
(-0.0135511 0.0976016 0)
(-0.0187486 0.0980442 0)
(-0.0047112 0.142888 0)
(-0.0212608 -0.0448477 0)
(-0.0204351 0.0168082 0)
(-0.00344187 0.0513882 0)
(-0.0225081 -0.0912642 0)
(-0.0154368 0.109034 0)
(-0.0180013 0.0573645 0)
(-0.0167905 0.165508 0)
(-0.0121744 0.112094 0)
(-0.019045 0.0781539 0)
(-0.0214413 -0.0893356 0)
(-0.0208827 -0.00474044 0)
(-0.0157121 -0.0162772 0)
(-0.0227 -0.0920922 0)
(-0.0185082 0.0318814 0)
(-0.0212239 -0.0210915 0)
(-0.019442 0.064668 0)
(-0.0227011 -0.0921377 0)
(-0.0205166 -0.032977 0)
(-0.00465691 0.118948 0)
(-0.0122865 0.0931696 0)
(-0.000512057 0.014832 0)
(-0.0203552 -0.0878011 0)
(-2.89896e-05 0.0763965 0)
(-0.0211261 -0.0164229 0)
(-0.0137347 0.128652 0)
(-0.00728812 0.151517 0)
(-0.00333011 0.155507 0)
(-0.0089916 0.136786 0)
(-0.00940997 0.0539651 0)
(-0.018775 -0.0701365 0)
(-0.0153679 0.102717 0)
(-0.0174147 -0.00351315 0)
(-0.0142286 0.117424 0)
(-0.0201006 0.0327169 0)
(-0.0225701 -0.0934219 0)
(-0.018731 0.0194952 0)
(-0.0168411 0.115497 0)
(-0.0207851 -0.00032389 0)
(-0.0054654 0.13746 0)
(-0.0187868 0.0960921 0)
(-0.00800852 0.0168315 0)
(-0.0141459 0.13351 0)
(-0.00222634 0.141239 0)
(-0.0113609 0.0755197 0)
(-0.0159306 0.12731 0)
(-0.00388729 0.0775165 0)
(-0.00807663 0.0593585 0)
(-0.0053888 0.161419 0)
(-0.000254185 0.122989 0)
(-0.0182309 0.111326 0)
(-0.0154698 0.0504675 0)
(-0.0196125 0.0565042 0)
(-0.0207385 0.00053647 0)
(-0.0208055 -0.00536224 0)
(-0.019708 0.0474921 0)
(-0.0145492 0.0288063 0)
(-0.019636 0.0552861 0)
(-0.0208429 -0.00903384 0)
(-0.00129207 0.021932 0)
(-0.0152109 0.105513 0)
(-0.00500168 0.136555 0)
(-0.0188051 0.0951737 0)
(-0.00390405 0.143824 0)
(-0.00757917 0.160488 0)
(-0.0209942 -0.0114463 0)
(-0.0178476 0.141328 0)
(-0.0175595 0.113899 0)
(-0.0136164 0.0613916 0)
(-0.0224422 -0.080155 0)
(-0.0210152 -0.0126213 0)
(-0.0229007 -0.105476 0)
(-0.0152894 0.110674 0)
(-0.00743168 0.0411272 0)
(-0.0135985 -0.00956111 0)
(-0.0200782 0.0124254 0)
(-0.00380528 0.118999 0)
(-0.020783 0.000172148 0)
(-0.0189742 0.0765176 0)
(-0.0010691 0.0435606 0)
(-0.0212886 -0.028491 0)
(-0.0183235 0.108054 0)
(-0.0133847 0.0163129 0)
(-0.0201241 0.0315533 0)
(-0.0184956 0.110213 0)
(-0.0214562 -0.0381225 0)
(-0.0148962 0.063218 0)
(-0.0224986 -0.0829314 0)
(-0.0197485 0.0271951 0)
(-0.00462969 0.0538304 0)
(-0.0221413 -0.0652232 0)
(-0.0113525 0.138416 0)
(-0.0128679 0.0262906 0)
(-0.00746599 0.0913869 0)
(-0.0199035 -0.0568225 0)
(-0.0204395 -0.0837486 0)
(-0.021818 -0.0497344 0)
(-0.0184429 0.112419 0)
(-0.0206024 -0.0611505 0)
(-0.0219411 -0.0557084 0)
(-0.0200457 -0.0452934 0)
(-0.0033502 0.112676 0)
(-0.00666158 0.164168 0)
(-0.00641323 0.0782731 0)
(-0.0181769 0.119957 0)
(-0.0137959 -0.00300591 0)
(-0.00291655 0.0286081 0)
(-0.011542 0.12678 0)
(-0.0143325 0.066999 0)
(-0.0216396 -0.0411644 0)
(-0.0227488 -0.0944246 0)
(-0.0220841 -0.0688214 0)
(-0.0204978 0.0138673 0)
(-0.0193179 0.0700848 0)
(-0.00641487 0.153731 0)
(-0.00641338 0.114992 0)
(-0.0153357 0.0530577 0)
(-0.0190197 0.0796793 0)
(-0.0137466 -0.00793735 0)
(-0.00130903 0.00135954 0)
(-0.0175768 0.0892044 0)
(-0.0194841 0.0609514 0)
(-0.0227631 -0.107754 0)
(-0.00240687 -0.00157983 0)
(-0.0163527 0.11176 0)
(-0.018478 0.0438099 0)
(-0.0207264 -0.0048347 0)
(-0.0184918 0.110412 0)
(-0.0126833 -0.0186684 0)
(-0.00953592 -0.00939955 0)
(-0.0175744 -0.0289451 0)
(-0.0190491 0.0810656 0)
(-0.0193406 -0.0573921 0)
(-0.021097 -0.0150519 0)
(-0.010766 0.125077 0)
(-0.00203456 0.0253067 0)
(-0.0130022 0.0241943 0)
(-0.00781846 0.0903117 0)
(-0.013007 0.118088 0)
(-0.0215328 -0.0421126 0)
(-0.0228211 -0.0985052 0)
(-0.0220994 -0.0633532 0)
(-0.00166582 0.156206 0)
(-0.00371654 0.0779197 0)
(-0.0176582 0.142008 0)
(-0.0158669 -0.00233869 0)
(-0.0202519 0.0245376 0)
(-0.020761 0.00121625 0)
(-0.00689222 0.154822 0)
(-0.0189427 0.0886895 0)
(-0.0225131 -0.0833064 0)
(-0.0182949 0.119572 0)
(-0.0211664 -0.0775002 0)
(-0.0193763 -0.00253981 0)
(-0.0215923 -0.0387746 0)
(-0.0188185 0.0194809 0)
(-0.0122277 0.147497 0)
(-0.0150863 0.152475 0)
(-0.0178328 0.12494 0)
(-0.0138414 0.0765866 0)
(-0.0169285 0.164397 0)
(-0.00324406 0.114111 0)
(-0.0219293 -0.0558061 0)
(-0.0190823 0.0797267 0)
(-0.00799918 0.0184488 0)
(-0.0082389 0.140405 0)
(-0.0160721 0.126914 0)
(-0.0187201 0.0924339 0)
(-0.0193415 0.00586156 0)
(-0.00202191 0.022944 0)
(-0.0192328 -0.0305554 0)
(-0.00127466 0.145721 0)
(-0.0186384 -0.0269305 0)
(-0.0164959 0.163083 0)
(-0.000545914 0.0604154 0)
(-0.0225308 -0.0851285 0)
(-0.0223923 -0.0772794 0)
(-0.00339951 0.115349 0)
(-0.0192881 -0.00211026 0)
(-0.0204265 -0.0811482 0)
(-0.00335452 0.0692467 0)
(-0.0229878 -0.106444 0)
(-0.0225069 -0.082708 0)
(-0.019687 0.0528234 0)
(-0.0228734 -0.100512 0)
(-0.00435732 0.074462 0)
(-0.0137284 0.111102 0)
(-0.0157053 0.0924347 0)
(-0.0037637 0.133358 0)
(-0.0221868 -0.0742701 0)
(-0.0194408 0.00243453 0)
(0.000151438 0.0229508 0)
(-0.0212196 -0.0573977 0)
(-0.00325647 0.151878 0)
(-0.0214728 -0.0339493 0)
(-0.0198367 -0.00205086 0)
(-0.0214612 -0.0324426 0)
(-0.000870092 0.145356 0)
(-0.0132487 0.103083 0)
(-0.00795821 0.161308 0)
(-0.020526 -0.000899574 0)
(-0.0200644 0.0151869 0)
(-0.00588702 0.10616 0)
(-0.0225504 -0.0848136 0)
(-0.0210538 -0.0129037 0)
(-0.0174279 0.156903 0)
(-0.0192062 0.0759933 0)
(-0.0219046 -0.0545148 0)
(-0.0219641 -0.0567945 0)
(-0.0212499 -0.0223412 0)
(-0.0054894 0.105947 0)
(-0.00286492 0.105388 0)
(-0.0144505 0.017483 0)
(-0.0224404 -0.0889175 0)
(-0.0207725 -0.0758572 0)
(-0.0199672 0.0196046 0)
(-0.0182739 0.120861 0)
(-0.0155518 -0.0150663 0)
(-0.00541965 0.0094026 0)
(-0.000402907 0.10828 0)
(-0.0226532 -0.106417 0)
(-0.00889536 0.0100027 0)
(-0.0186051 -0.00180137 0)
(-0.0116214 0.124378 0)
(-0.0224212 -0.0804161 0)
(-0.00665434 0.137981 0)
(-0.00716563 0.0469382 0)
(-0.00239522 0.0791957 0)
(-0.0083825 0.102134 0)
(-0.000756807 0.00781914 0)
(-0.0104927 0.15306 0)
(-0.0221456 -0.0723541 0)
(-0.0123566 0.146448 0)
(-0.0210432 -0.0129257 0)
(-0.00270844 0.100216 0)
(-0.00799786 0.0907233 0)
(-0.0211799 -0.0190336 0)
(-0.0214682 -0.0329257 0)
(-0.0224634 -0.0806619 0)
(-0.0223881 -0.0793483 0)
(-0.010449 0.159417 0)
(-0.0225526 -0.0873654 0)