/*--------------------------------*- C++ -*----------------------------------*\
| =========                 |                                                 |
| \\      /  F ield         | OpenFOAM: The Open Source CFD Toolbox           |
|  \\    /   O peration     | Version:  v2012                                 |
|   \\  /    A nd           | Website:  www.openfoam.com                      |
|    \\/     M anipulation  |                                                 |
\*---------------------------------------------------------------------------*/
FoamFile
{
    version     2.0;
    format      ascii;
    class       volScalarField;
    location    "600";
    object      k_0;
}
// * * * * * * * * * * * * * * * * * * * * * * * * * * * * * * * * * * * * * //

dimensions      [0 2 -2 0 0 0 0];


internalField   nonuniform List<scalar> 
13917
(
0.0211951
0.000180461
0.00027745
0.000153895
0.000163565
0.000179417
0.000167077
0.000199438
0.000163733
0.00142849
0.000197379
0.000151284
0.000169871
0.0127141
0.00016659
0.0174181
0.000147993
0.000194889
0.000220895
0.0167572
0.000177719
0.000149854
0.00018908
0.000149833
0.000158395
0.000180149
0.0013658
0.00102777
0.00018836
0.000137449
0.000757813
0.00020138
0.000154158
0.0354356
0.000145337
0.000199795
0.000160465
0.00015884
0.000167117
0.000183492
0.000149485
0.000144985
0.000159928
0.000219144
0.000218854
0.000231399
0.000175762
0.0169792
0.00422087
0.000145436
0.00015108
0.000219505
0.0109553
0.000150741
0.000151327
0.000219161
0.000927577
0.000189092
0.000144317
0.00024947
0.0272708
0.000156202
0.000164974
0.000157714
0.0295858
0.00155486
0.00019046
0.000198802
0.000196867
0.021414
0.0150467
0.0329085
0.00015047
0.000143625
0.000179071
0.00015994
0.000157843
0.000143025
0.000159253
0.000154532
0.000153459
0.000148864
0.000150302
0.0190874
0.000142488
0.000209011
0.00019994
0.00014678
0.000182785
0.000146948
0.000138932
0.000160313
0.00402524
0.000143236
0.000153832
0.000190311
8.61237e-05
0.000150406
0.000145844
0.00021431
0.00015273
0.000152281
0.000153777
0.000144731
0.000157474
0.0300765
0.0288685
0.000156212
0.000145781
0.00665217
0.000145438
0.0364829
0.000188255
0.0164804
0.0288522
0.00016114
0.000218206
0.000140937
0.000255974
0.000149356
0.00014732
0.000141842
0.00019236
0.000212451
0.0248323
0.0238573
0.000157075
0.000180949
0.000144353
0.000212893
0.000176129
0.000241287
0.0545009
0.000161041
0.000206831
0.00819961
0.028707
0.0273713
0.000182509
0.00015864
0.0133659
0.00014244
0.0290535
0.000144939
0.000149835
0.000149962
0.01477
0.0117232
0.0160095
0.000151042
0.000179752
0.000154344
0.000149603
0.000149372
0.00073586
0.000151757
0.00014422
0.0559559
0.000146433
0.00014242
0.000143026
0.0316301
0.00016495
0.0140087
0.0278347
0.000228798
0.00816049
0.023148
0.000132317
0.000184504
0.000150422
0.0506643
0.000163565
0.026979
0.000202442
0.000148266
0.000153875
0.000223041
0.000175069
0.000166012
0.000159685
0.000149909
0.000151076
0.000253909
0.000256135
0.000243321
0.000150898
0.000253526
0.000137445
0.000207468
0.000202644
0.000215424
0.00022789
0.0209265
0.000143274
0.0250442
0.000165433
0.0539064
0.000145006
0.000151132
0.000172679
0.0210399
0.0232094
0.000159082
0.00164545
0.000178599
0.000180521
0.00014243
0.000222122
0.000153445
0.000141191
0.000168584
0.000170096
0.0166091
0.000205744
0.000181982
0.0368279
0.000154533
0.000135924
0.000135818
0.0224108
0.000231405
0.000258169
0.000143886
0.000167685
0.0142465
0.0214487
0.000135496
0.000135386
0.000149349
0.000136033
0.00013595
0.0308733
0.0210545
0.000151287
0.000132403
0.000204818
0.0315156
0.000146745
0.000143846
0.00177365
0.0315467
0.000235463
0.0375444
0.000212205
0.000145015
0.0240919
0.000206275
0.000186469
0.000205645
0.000158359
0.0198376
0.000149591
0.000186564
0.000199525
0.000151737
0.000149579
0.000157627
0.000160308
0.000145092
0.0321683
0.0206289
0.000142175
0.000135397
0.000152373
0.000135436
0.000149595
0.000170569
0.000181835
0.00014278
0.0329865
0.0305013
0.000148953
0.000157865
8.95775e-05
0.000135104
0.000210424
0.0360432
0.000135181
0.0261204
0.000144603
0.030171
0.000148981
0.000163526
0.000152075
0.000144549
0.000232767
0.000153916
0.000239962
0.000170269
0.0222672
0.00015152
0.000169534
0.027372
0.000142952
0.000193357
0.000161401
0.000161911
0.000162596
0.000159095
0.000143659
0.000151774
0.000222162
0.000163604
0.000185351
0.000158558
0.00014373
0.0556199
0.0177901
0.000143503
0.000165366
0.000162003
0.00016335
0.000227478
0.032411
0.0271788
0.00103334
0.000220781
0.000156975
0.0151788
0.000150138
0.000271579
0.000169202
0.000165802
0.00141144
0.00015125
0.000182425
0.000215072
0.000147637
0.0499779
0.000142898
0.000184712
0.000137374
0.00789185
0.000139855
0.000183209
0.000179675
0.000738033
0.0001456
0.000205712
0.0225867
0.000153376
0.000151197
0.0389565
0.025106
0.0218755
0.0100074
0.000134988
0.000151289
0.0343501
0.000222737
0.000135088
0.000162591
0.000150918
0.000194457
0.000184136
0.000219294
0.000210699
0.000210084
0.000184617
0.0302305
0.000144756
0.000153409
0.000165069
0.000248286
0.000147354
0.0185067
0.00018426
0.00426391
0.000151614
0.000218685
0.000168713
0.00225412
0.000144416
0.000247057
0.000116751
0.0001822
0.000149317
0.0012707
0.000139263
0.0271479
0.000230366
0.000144486
0.00254148
0.00015345
0.00179318
0.000139412
0.0188932
0.00300459
0.000159117
0.0188222
0.000206114
0.000157124
0.0300323
0.000271739
0.000157801
0.000232843
0.000150864
0.000206673
0.000274683
0.000143127
0.000165689
0.000158451
0.000144217
0.000140996
0.000145259
0.031295
0.000225721
0.00015246
0.000145636
0.000148916
0.000192563
0.000206534
0.000135686
0.000132451
0.000226656
0.000217568
0.000144966
0.000158659
0.0242127
0.00818634
0.00229615
0.000223384
0.00904586
0.000139362
0.000135389
0.000173734
0.000140873
0.000135778
0.000151644
0.000135483
0.000138884
0.022874
0.000151215
0.000186192
0.0355482
0.000193166
0.000141429
0.000149362
0.0302166
0.000172866
0.0214302
0.000136613
0.000144562
0.000139597
0.000136138
0.000160024
0.000154017
0.0220454
0.000152036
0.0336615
0.000144526
0.000179667
0.000153403
0.000152998
0.000211501
0.0225566
0.000150685
0.0242866
0.000141817
0.000144396
0.00014852
0.000153571
0.000140673
0.000151924
0.0550566
0.0268737
0.000140461
0.000128784
0.000225503
0.000149401
0.000195864
0.000203547
0.030992
0.000167205
0.0302485
0.00392355
0.0031569
0.00015413
0.0010764
0.000156683
0.000157797
0.00496164
0.000139985
0.000150388
0.000153856
0.00016476
0.000176994
0.000241412
0.000194193
0.000150562
0.000159017
0.000194675
0.00019466
0.000152462
0.0211731
0.000181133
0.00017025
0.0273419
0.000142542
0.000195793
0.000225234
0.000140137
0.0540215
0.000145249
0.00013611
0.000193588
0.000136693
0.000153393
0.000220707
0.0593951
0.0266725
0.000142885
0.000154762
0.000150035
0.00289012
0.00246285
0.000151841
0.000151068
0.000142574
0.000197125
0.00412481
0.000144801
0.00014695
0.000150629
0.000143856
0.000155104
0.000170512
0.000141491
0.000194679
0.000140151
0.000149297
0.000157967
0.0331885
0.000136419
0.000159535
0.000145088
0.000178346
0.000201136
0.000195299
0.000200909
0.000214617
0.00015706
0.00019258
0.0522576
0.0231645
0.0398713
0.000142686
0.000148106
0.000152226
0.000146893
0.0308021
0.000135362
0.0116567
0.000165358
0.0423286
0.000213911
0.000159967
0.00697253
0.000140383
0.000198432
0.000149618
0.000147664
0.0452387
0.000136135
0.000274947
0.000162131
0.000157428
0.000148492
0.000236942
0.000155219
0.000135261
0.000219695
0.00019517
0.0173769
0.0095738
0.0568224
0.0301595
0.000136481
0.0221219
0.000147524
0.0277368
0.0112502
0.000148723
0.000182536
0.000153807
0.000180563
0.00015894
0.000136205
0.00014975
0.000168053
0.00540595
0.00014355
0.000197626
0.000150082
0.000135173
0.00014617
0.000257099
0.0173719
0.00774251
0.000203486
0.000170215
8.65573e-05
0.033168
0.000139695
0.0136744
0.000166137
0.0002155
0.000146906
0.00134818
0.000143558
0.00015549
0.000150052
0.0169087
0.000182062
0.0332194
0.00014207
0.000180399
0.000145605
0.000154032
0.0315956
0.000224228
0.000146337
0.000222553
0.000143735
0.000146948
0.000155588
0.0343481
0.000143563
0.000161344
0.000135286
0.000145933
0.000248491
0.000153468
0.000220137
0.00015
0.000139973
0.0282559
0.000198663
0.000151449
0.0128551
0.000280171
0.000198696
0.000225225
0.000140192
0.000167904
0.0307738
0.000258745
0.000172084
0.00016049
0.000156116
0.000148407
0.000145283
0.00172903
0.000203534
0.000163378
0.0257796
0.000182636
0.000188003
0.00381597
0.000164208
0.00018135
0.000226963
0.0280297
0.000143696
0.000161127
0.001689
0.000140064
0.000142981
0.000146485
0.00015151
0.000154597
0.0224916
0.000178381
0.000142884
0.000212127
0.000141318
0.0341684
0.000144598
0.000144342
0.0581662
0.000199153
0.00575667
0.000151031
0.000144674
0.000143917
0.000153144
0.000169981
0.000144461
0.0241293
0.000173647
0.00270397
0.00604228
0.000160836
0.0572578
0.000154831
0.000148884
0.000145897
0.0378424
0.0235809
0.000166278
0.0242545
0.0133312
0.000139972
0.0001439
0.000160082
0.0267066
0.00334704
0.000182453
0.000152965
0.000159552
0.000216795
0.000156008
0.000219108
0.000178707
0.000153467
0.000154677
0.000149327
0.000169828
0.000159017
0.000153571
0.000162864
0.000152074
0.0238746
0.000164061
0.0105592
0.000159658
0.000175059
0.000164997
0.000274935
0.000146732
0.000196177
0.0150108
0.00378684
0.000147234
0.000162918
0.000157655
0.000145154
0.000149808
0.000169166
0.000153315
0.000245088
0.000220291
0.00013992
9.8639e-05
0.000163621
0.000164888
0.000224238
0.00015171
0.000198501
4.05698e-05
0.000135473
0.000199151
0.000207144
0.000178327
0.000143197
0.000140966
0.000145221
0.0185314
0.000153929
0.000145203
0.000184261
0.000144847
0.000142035
0.000217375
0.000241074
0.000173153
0.0125536
0.000191881
0.0367355
0.00014979
0.000158759
3.49786e-05
0.000148866
0.00015882
0.000145923
0.000142714
0.000150946
0.000163998
0.000196874
0.000143152
0.00170681
0.000149608
0.011341
0.000159758
0.000167034
0.0001374
0.000205999
0.00016432
0.0279038
0.000174534
0.000149065
0.0323257
0.000155121
0.0301536
0.000158225
0.000180003
0.000155204
0.000141891
0.000146841
0.0472677
0.000169692
0.000201277
0.0123212
0.000144987
0.000178768
0.000132289
0.000152553
0.00885265
0.000132549
0.0243227
0.000159721
0.000180755
0.000217036
0.000178513
0.000136531
0.0001432
0.000213073
0.000140109
0.000150428
0.000157074
0.000147692
0.000184528
0.000136419
0.000208605
0.000153454
0.0204685
0.0299853
0.000186881
0.0365533
0.0216886
0.0181539
0.000164133
0.000139436
0.00014669
0.000149261
0.000155128
0.0001427
0.00016993
0.000144628
0.000205849
0.000150738
0.00187367
0.000153497
0.00017321
0.000209143
0.000143061
0.000186002
0.000155114
0.000147997
0.000165594
0.000139369
0.0597525
0.000205693
0.00102947
0.000143485
0.000145867
0.00015067
0.000150095
0.0279231
0.000139646
0.000223568
0.000143266
0.00414919
0.000162633
0.000144872
0.000197389
0.00015698
0.000139777
0.00614296
0.00994942
0.000160054
0.000205953
0.000139942
0.000213784
0.000142334
0.000150112
0.0270959
0.000145248
0.00015428
0.000211632
0.0254229
0.000145355
7.13999e-05
0.000523166
0.00014508
0.000154745
0.000148073
0.00625111
0.000145482
0.000222874
0.00015056
0.0552657
0.000163581
0.013012
0.000145648
0.000135261
0.00361515
0.000158068
0.00015837
0.0499107
0.000156709
0.000141033
0.000128937
0.000145102
0.000146818
0.000203215
0.000157371
0.0322036
0.000184117
0.000203553
0.000223232
0.000159358
0.0530912
0.000154444
0.000201115
0.00014506
0.035048
0.0036962
0.000151359
0.000142186
0.000146782
0.000151862
0.000140893
0.000139446
0.000142664
0.000146466
0.000171383
0.000135476
0.00015609
0.000203618
0.0273383
0.0300787
0.000208852
0.000150715
0.00325633
0.000143849
6.56303e-05
0.00772737
0.00760242
0.000135784
0.000139537
0.000147512
0.000149767
0.00013561
0.000139438
0.000144344
0.000182518
0.000141105
0.0114428
0.000143489
0.000141731
0.0460183
0.00014523
0.000145319
0.00015493
0.0353261
0.00019732
0.00014499
0.00533638
0.000144407
0.000145232
0.000507062
0.000147082
0.00150178
0.000154689
0.000186322
0.000141504
0.000142296
0.000173277
0.000185414
0.000156714
0.036223
0.00015888
0.000156975
0.000155423
0.000146039
0.000140736
0.000211742
0.000177227
0.000162906
0.041054
0.0152025
0.000183105
0.000214159
0.000142181
0.0408425
0.000141835
0.0264803
0.000198508
0.000165825
0.000155996
0.0206357
0.0294868
0.012923
0.000151272
0.0145998
0.000140942
0.000144651
0.000178563
0.000153095
0.000150351
0.000213364
0.0251411
0.000142315
0.000167184
0.0314332
0.000162859
0.00013514
0.014746
0.0354708
0.000154602
0.000150899
0.000166277
0.000149165
0.000144798
0.00016919
0.000163538
0.000148893
0.00836114
0.000151945
0.000167386
0.00574199
0.000157578
0.0352749
0.000151212
0.000153221
0.000199508
0.0250096
0.00102005
0.000174733
0.000174871
0.000152121
0.000154852
0.000145674
0.0286249
0.000153575
0.000151731
0.000193164
0.000144474
0.00356285
0.000205011
0.000222055
0.000195613
0.000132319
0.00199342
0.0173433
0.0461076
0.000158695
0.000140618
0.000135264
0.000196204
0.000205398
0.0129238
0.000162062
0.000147603
0.000164189
0.000184515
0.000157075
0.0297917
0.000179339
0.000208621
0.0273722
0.000142561
0.000215117
0.000158443
0.000150121
0.000156365
0.000169012
0.000136239
0.000139405
0.00015613
0.0198702
0.000141091
0.000156764
0.000158861
0.000154435
0.000149547
0.000209422
0.000200918
0.000151761
0.000143056
0.000207112
0.00022043
0.000177074
0.054353
0.000151535
0.000145419
0.0242152
0.000145197
0.000157468
0.0462688
0.0371779
0.000165115
0.00019619
0.000165465
0.0194795
0.000222114
0.000175442
0.0109766
0.000144365
0.000206012
0.029067
0.000261822
0.0113767
0.00117463
0.000138692
0.000148927
0.000168801
0.000149754
0.000149602
0.000129146
0.000145106
0.000188234
0.000137265
0.000194237
0.03114
0.000157484
0.00282619
0.0205373
0.000145619
0.000204087
0.000164297
0.000156357
0.00014534
0.0406737
0.000202797
0.0275817
0.000167985
0.0255341
0.000207871
0.000144517
0.000182986
0.000179582
0.000174921
0.000145186
0.000246023
0.000145377
0.000163989
0.000179741
0.000162976
0.000152283
0.000194421
0.00897564
0.000143198
0.000231738
0.000186818
0.000150421
0.000143578
0.000149744
0.0137716
9.33925e-05
0.000141152
0.000171916
0.000115443
0.000176015
0.0237181
0.000149984
0.000141017
0.000138672
0.00014605
0.000166328
0.000159572
0.0155736
0.000150615
0.000161162
0.000169779
0.000115805
0.000208456
0.0354543
0.0256738
0.000151174
0.000145887
0.000140603
0.000155676
0.00020093
0.0586618
0.00108763
0.000210313
0.000171919
0.000191261
0.000158682
0.000158618
0.000163287
0.000218398
0.000143373
0.000212862
0.000178249
0.00014011
0.000150717
0.0419815
0.000191091
0.000169887
0.0266946
0.000219601
0.000143927
0.000107092
0.000160447
0.00014311
0.0185916
0.0045636
0.000143449
0.000165135
0.000216439
0.000177172
0.000154051
0.000136257
0.000143796
0.000141128
0.000144888
0.000171976
0.000192152
0.0292381
0.000177968
0.000164641
0.000174299
0.000206626
0.000142652
0.000177151
0.000253838
0.000281996
0.0290784
0.00015612
0.000136104
0.0368266
0.000141947
0.00019159
0.000156729
0.000186321
0.000152193
0.000142363
4.53756e-05
0.000165736
0.000155678
0.000145664
0.0230181
3.56655e-05
0.0330119
0.000149108
0.000148919
0.0014154
0.000142597
0.000139545
0.000216269
0.00420669
0.000166759
0.000177297
0.000153711
0.016163
0.000143411
0.000158293
0.000152259
0.000135978
0.000277995
0.000143519
0.000140899
0.000204106
0.000195678
0.0161259
0.000274892
0.000142792
0.000172538
0.00014209
0.000143516
0.000155503
0.000154434
0.000150369
0.00027517
0.000149881
0.00020279
0.000155702
0.000149353
0.000149439
0.000161841
0.00014476
0.0420242
0.000135925
0.000193022
0.000201854
0.000157407
0.00019251
0.000177127
0.000173055
0.000149421
0.00015332
0.000141583
0.000140067
0.00212016
0.000176806
0.000155662
0.000143963
0.000144838
0.000140865
0.000196574
0.000144439
0.0365719
0.00018894
0.000142813
0.000143535
0.00013856
0.000188744
0.000162674
0.0263921
0.000159964
0.00339418
0.000150367
0.000210755
0.000158457
0.0237785
0.000137197
0.000135692
0.000162636
0.00140087
0.00013884
0.0402319
0.00014977
0.000144799
0.000217753
0.000250599
0.0200086
0.00165897
0.000164474
0.000218935
0.000157717
0.000139093
0.0252032
0.000145305
0.000149151
0.00223834
0.000137849
0.0413599
0.000826655
0.000143011
0.000146838
0.000139398
0.0554393
0.000148048
0.000136235
0.000204395
0.00014289
0.000141735
0.000146139
0.000139212
0.000187878
0.000150609
0.000156026
0.000139065
5.33475e-05
0.000173722
0.00013924
0.000139323
0.000154332
0.000143434
0.00015976
0.000149624
0.000144165
0.000150762
0.000145283
0.000155101
0.000148875
0.000194388
0.000138503
0.000206194
0.0001493
0.000184832
0.000140787
0.000150211
0.000144486
0.000136145
0.000180066
0.000162664
0.000162758
0.0193485
0.000154502
0.0544749
0.0362527
0.000206229
0.0391857
0.000149257
0.0001485
6.7643e-05
0.025301
0.000141448
0.0329642
0.000139462
0.000222802
0.0132253
0.000159429
0.000206894
0.0202528
0.031444
0.000143416
0.000189145
0.000141947
0.000131236
0.000160874
0.0455203
0.0184701
0.000151017
0.000172449
0.000227497
0.000148796
0.00200269
0.00314102
0.000157654
0.000141064
0.00227306
0.0375107
0.00013906
0.000174853
0.000151642
0.000241493
0.000221786
0.000149747
0.000141121
0.00594109
0.000143077
0.000145624
0.000153207
0.000139575
9.02161e-06
0.000166395
0.000169867
0.0425596
0.000144902
0.000194594
0.000150271
0.00238487
0.000194623
0.000179366
0.000140445
0.000168213
0.000145004
0.000146368
0.000159193
0.000149058
0.00388256
0.00015577
0.000140021
0.000143285
0.0011792
0.000140958
0.0148231
0.0135718
0.00379701
0.000147958
0.000141864
0.000143668
0.000101534
0.000151449
0.0244523
0.000143976
8.79425e-05
0.000157094
0.000148064
7.99721e-05
0.0001501
0.000147002
0.035863
0.000217433
0.0396948
0.000146288
0.0410353
0.00787094
0.000149413
0.0363283
0.000150473
0.00016144
0.0250028
0.000157726
0.000182166
0.0268944
0.000170698
0.0002009
0.00014912
0.0119591
0.000145626
0.0148805
0.000143551
0.0255904
0.00014585
0.000146032
0.000154462
0.0134083
0.000142245
0.000155689
0.0001989
0.026325
0.000144577
0.000170434
0.0484751
0.000201761
0.000170056
0.000204452
0.00014075
0.000216734
0.00011378
0.000159567
0.000378426
0.000135449
0.000225885
0.0202636
0.000142661
0.0237466
0.000143564
0.0364332
2.68059e-05
0.000159633
0.000156186
0.0139349
0.0140863
0.000145328
0.000156405
0.000139747
0.000149762
0.0259435
0.000199045
8.36694e-05
0.000148235
0.000167959
0.0423192
0.000156656
9.63212e-05
0.0112887
0.000142468
0.000144791
0.000259898
0.0233253
0.00286098
0.017085
0.000277151
0.000182195
0.00017855
0.0445286
0.0296532
0.00582201
0.000141069
0.000205818
0.000188031
0.000201945
0.000148195
0.000164805
0.000196714
0.000213388
0.00449833
0.000145771
0.000130947
0.0410118
0.00018468
0.000145045
0.000145231
0.000198378
0.000142225
0.0566555
0.000169095
0.000143456
0.000234762
0.000168216
0.000139126
0.00018015
0.000171739
0.000148576
0.0537576
0.000153638
0.0583668
0.000142286
0.0375555
6.80443e-05
0.000264723
0.000136169
0.000165778
0.000171666
0.000214363
0.000215665
0.000201039
0.0263538
0.000241898
0.000132873
0.000164465
0.000147288
0.000221434
0.0215643
0.000145797
0.000138902
0.000156057
0.000129405
0.000213977
0.00014275
0.00019117
0.000231513
0.000140994
0.000164274
0.000159628
0.0572286
0.000163892
0.00123654
0.0272781
0.000169522
0.000160793
0.000307386
0.000143528
0.000186564
0.0298089
0.000169775
0.000205511
0.000173681
0.000195543
0.020584
0.0391094
0.000148886
0.0195414
0.000238271
0.000137929
0.000226829
0.00020031
0.000214265
0.00309475
0.000225264
0.0100173
0.000214681
0.0304537
0.000166739
0.000199291
0.000155098
0.000150772
0.000149357
0.000141374
8.80904e-05
0.000212741
0.000136252
0.000183263
0.000245522
0.000143309
0.00929473
0.0324192
0.000137654
0.000151135
0.000160502
0.000155004
0.000187334
0.000145616
0.0245672
0.000171447
0.000201859
0.000163361
0.000200914
0.000176856
0.000172679
9.17161e-05
0.000148621
0.0001555
0.000136011
0.000141825
0.0473058
0.000212386
0.000169555
0.0267485
0.000148637
0.000152471
0.00017331
0.000139786
0.000142669
0.000202809
0.000163657
0.030465
0.0182751
0.0270395
0.000149072
0.0294974
0.00014458
0.000306386
0.000138939
0.00022844
0.0200864
0.000145818
0.000152708
0.0312619
0.000174709
0.000153974
0.000141639
0.000168108
0.0186883
0.000139321
0.000151265
0.000152577
0.000159461
0.000266967
0.000157305
0.000164335
0.000142259
0.000151747
0.000190444
0.000177956
0.000157465
0.000221495
0.000195508
0.0458318
0.0129973
0.00016007
0.000154348
0.0297918
0.0001486
0.000200034
0.000149641
0.0270098
0.000148577
0.000150108
0.000165573
0.0292987
0.000144658
0.000140406
0.000137039
0.000233497
0.01365
0.000217288
0.00014523
0.000158454
0.000141162
0.0425386
0.000170387
0.0041672
0.000195006
0.000148684
0.0002569
0.00017377
0.00158082
0.000152495
0.00013945
0.000172434
0.000182497
0.000217033
0.000150812
0.000152282
0.000148078
0.0374704
0.00014697
0.000154076
0.0372952
0.000157144
0.000153903
0.000161784
0.000143916
0.000144121
0.00767825
0.000158048
0.0225575
0.00108782
0.000133831
0.0013426
0.000152169
0.000214025
0.000190699
0.0001554
0.000136366
0.000133711
0.000145516
0.00861933
0.000189388
0.0417141
0.0328752
0.000141811
0.000152413
0.000181968
0.00194402
0.000146135
0.000427531
0.0405878
0.0212897
0.000143778
0.000157001
0.000152833
0.0001712
0.0462623
0.000142954
0.00014572
0.000172937
0.0241114
0.000150369
0.000157282
0.000156351
0.000221976
5.29705e-05
0.000137384
0.0313093
0.000166394
0.000144892
0.0107575
0.000194938
0.00183933
0.00659035
0.000174528
0.000162222
0.000155207
0.000165564
0.000153096
0.000192824
0.00018859
0.00014416
0.000161344
0.000252411
0.0169806
0.000139159
0.000214153
0.0283401
0.00195212
0.000144696
0.000149415
0.00221342
0.0111228
0.000191523
0.000144792
0.0327521
0.000199483
0.00013426
0.0288289
0.00016739
0.000150484
0.000245091
0.000147638
0.000159512
0.000141489
0.000133141
0.000148364
0.000136988
0.0293302
0.000135926
0.000142884
0.000205188
0.00016244
0.000160426
0.000226674
0.000149438
0.000145366
0.000156665
0.000154838
0.00320569
0.0035267
0.000110882
0.0157007
0.000172316
0.0147923
0.000171224
0.0355876
0.0242144
0.0292274
0.000141351
0.000170752
0.0001464
0.000149399
0.000142283
0.000147382
0.000266749
0.000195895
0.00018124
0.000143037
0.000144819
0.000193611
0.000151243
0.00015192
0.000149433
0.0456659
0.000173736
0.01674
0.000148855
0.00172784
0.000152632
0.000149603
0.000152303
0.000186011
0.000142955
0.000207977
0.0362255
0.00018451
0.0352278
0.00818332
0.000157732
0.000167897
0.00194325
0.000215777
0.000137082
0.000141853
0.000133829
0.0332614
0.00013315
0.000190369
0.000170265
0.000204973
0.00125338
0.000492887
0.000199518
0.0555713
0.000139202
0.000136936
0.000230582
0.018742
0.000147804
0.000149034
0.000520159
0.00014117
0.000236815
0.000157703
0.000168766
0.000163327
0.000148474
0.000202498
0.0349079
0.0320811
0.000162177
0.000145685
0.000204356
0.000155558
0.000204597
0.000141184
0.000228942
0.000211029
0.000151922
0.000150105
0.000134079
0.000216882
0.000175853
0.000268175
0.000106523
0.000171592
0.0175505
0.000203947
0.000219274
0.0322193
0.000144829
0.0334903
0.000154562
0.0454721
5.32025e-05
0.0324453
0.0283106
0.000149457
0.000193792
0.000209307
0.000147614
0.0267087
0.000149081
0.000148701
0.000164707
0.000153261
0.000173034
5.37863e-05
0.00551972
0.0257798
0.000164677
0.000183101
0.000155388
0.000149105
0.000150006
0.000220713
0.000209204
0.0257423
0.000187962
0.000136531
0.000139834
0.000151792
0.00027989
0.000159861
0.000152864
0.000162827
0.000206713
0.000174276
0.000183524
0.000174357
0.0347593
0.000170888
0.000176032
0.000146139
0.000164875
0.000127746
0.000181531
0.000187981
0.000139735
0.0129601
0.000176245
0.000144398
0.000190569
0.0391948
0.00359983
0.000175742
0.000141278
0.0292671
0.000152286
0.000141068
0.000136796
0.00225255
0.000446317
0.00015724
0.00196038
0.0197673
0.00017032
0.000174251
0.00019692
0.0581845
0.0001729
0.0447381
0.000152351
0.000173288
0.000151666
0.0470935
0.000176974
0.000141007
0.0435781
0.000147201
0.000154474
0.0230075
0.0218732
0.000186437
0.000106209
0.000161015
0.000155883
0.0045355
0.000144429
0.000143091
0.00014874
0.000188459
0.000145877
0.000170858
0.000170159
0.000257945
0.00512903
0.000153655
0.0276483
0.000169265
0.0410989
0.0354803
0.000148562
0.000150968
0.000163667
0.000237349
0.000270805
0.00020041
0.0384785
0.0319344
0.000242801
0.000148927
0.0171329
0.0275693
0.000173863
0.00071695
0.000150096
0.00014681
0.000148533
0.000154604
0.000143761
0.000176469
0.0329981
0.00016946
0.00155155
0.0204095
0.0184295
0.026756
0.0461617
0.000165256
0.0506255
0.00021582
0.000204143
0.000138748
0.00014805
0.000201357
0.0311134
0.000152379
0.0243466
0.0447241
0.000141911
0.000149658
0.000145729
0.000207467
0.00015273
0.000203073
0.0339651
0.000138912
0.000144146
0.000141572
0.000154137
0.00021439
0.0350204
0.000178683
0.020065
0.000214988
0.000143465
0.00217194
0.000218382
0.000147045
0.000212504
0.0028616
0.0242822
0.00010763
0.0325288
0.000147203
0.00965162
0.037351
0.000223347
0.0187686
0.000142257
0.000157551
0.000159728
0.000158128
0.0284802
0.000200073
0.000150815
0.000167372
0.00120005
0.037807
0.000148486
0.000165614
0.0566557
0.0451558
0.000150593
0.000168315
0.000214304
0.000144199
0.000144748
0.0174756
0.00014325
0.000188891
0.00157226
0.0325664
0.000142711
0.0002023
0.000229206
0.000143984
0.000134862
0.0279604
0.00341685
0.000149569
0.000172764
0.000229217
0.000279992
0.0507787
0.00147852
0.000164242
0.00331403
0.00482864
0.000178407
0.000142255
0.000195275
0.000136576
0.000135684
0.030247
0.000180992
0.000210736
0.000161232
0.000156418
0.000142257
0.000137026
0.000153403
0.000154501
0.00875895
0.000160596
8.72089e-06
0.0245678
0.000187153
0.000202861
0.0203649
0.0432258
0.01059
0.000141799
0.000162295
0.000179199
0.000163651
0.000233528
0.00632997
0.000153245
0.000131404
0.0377625
0.000165901
0.000211618
0.000204574
0.000215126
0.000218942
0.000156161
0.000223702
0.00022859
0.000234239
0.000242973
0.000220702
0.000207469
0.00016
0.000142178
0.000176267
0.00021124
0.000143058
0.000160797
0.0539041
0.000238868
0.0416568
0.000134528
0.000139641
0.000169317
0.0159343
0.000154106
0.000159169
0.000198299
0.0299366
0.00438421
0.000149088
0.000171389
0.000163206
0.00746446
0.00224254
0.000160292
7.55028e-05
0.0376726
0.000215052
0.0439059
0.000211251
0.000357983
0.052401
0.000132194
0.0510986
0.0425871
0.000155055
0.000201416
0.000211483
0.000161403
0.0001415
0.000240568
0.0206798
0.000140702
0.00014115
0.0219378
0.000591086
0.000205143
0.000151226
0.000244623
0.000223076
0.0447522
0.0358954
0.000149381
0.000144493
0.00015384
0.000156479
0.0407055
0.000745015
0.0337661
0.00020865
7.54636e-05
0.0109153
0.000156487
0.000141924
0.0378943
0.000141811
0.0473823
0.000163634
0.045319
0.000155266
0.000154127
0.00282851
0.000146586
0.000219456
0.013834
0.00016996
0.000157713
0.000155836
0.000261308
0.0313952
0.00022245
0.0430629
0.000161214
0.000153598
0.000168333
0.000203832
0.0567096
0.0266443
0.000211034
0.000275867
0.000224166
0.00906448
0.00015737
0.000141415
0.000139074
0.000138766
0.000193483
0.000192838
0.00133997
0.000184134
0.000233265
0.000144072
0.00431634
0.000236893
0.00657121
0.000145079
0.000156489
0.000133234
0.0401153
0.000181291
0.0119264
0.000229313
0.000222655
0.000119476
0.00013395
0.000181389
0.000222664
0.000146042
0.000298537
0.000146823
0.000227604
0.000152103
0.000148043
0.000211265
0.0177929
0.000132493
0.000150885
0.00020753
0.000239414
0.02705
0.0249166
0.0383981
0.034837
0.000143066
0.000197579
0.000147794
0.000229708
0.000143843
0.000214989
0.00015601
0.000191186
0.00344188
0.0130682
0.000158564
0.000211504
0.0425388
0.000222583
0.000157186
0.0202573
0.000218507
0.00015068
0.000149519
0.0305301
0.000170199
0.000219746
3.07933e-05
0.000675803
0.0250406
0.000157289
0.0228455
0.0357955
0.0064022
0.000239427
0.000174506
0.000218135
0.000213919
0.035013
0.000186901
0.000153462
0.000929996
0.000179758
0.000159254
0.000167704
0.0251302
0.000142539
0.00393615
0.000164968
0.000138038
0.000160488
0.0319007
0.000223678
0.00324165
0.0208924
0.000141011
0.000133249
0.0362515
0.0491423
0.000158805
0.000153003
0.000185509
0.000168383
0.0206026
0.000192928
0.042587
0.000164814
0.0425561
0.000218767
0.0116032
0.000153206
0.00026143
0.0263057
0.000159602
0.000208826
0.000134262
0.000161083
0.000149829
0.00355906
0.000144576
0.000149261
0.0509386
0.0130726
0.000138602
0.0533557
0.00015439
0.000148056
0.000144841
0.000141874
0.000150892
0.000405404
0.0518841
0.000138769
8.20926e-05
0.00020163
0.000190043
0.00084554
0.000209601
0.000163826
0.000174758
0.00014344
0.00361934
0.000170251
0.0548182
0.000169009
0.0229236
0.00051451
0.000202371
0.00919907
0.0423952
0.000139765
0.0304594
0.000195122
0.000200601
0.000171806
0.00014489
0.000168753
0.000271678
0.000149308
0.000181575
0.000144218
0.0343297
0.000232973
0.015994
0.000255711
0.000248059
0.0494145
0.000149961
0.000143818
0.000198964
0.000156773
0.000150917
0.000151116
0.000167109
0.000143688
0.000143233
0.000155766
0.00018541
0.000157765
0.000167046
0.000157773
0.000172855
0.000215967
0.000158858
0.0386265
0.000158072
0.000144332
0.000212778
0.000185765
0.000157766
0.000143614
0.000118617
0.000157981
0.0363316
0.000158721
0.000217108
0.000144264
0.000147161
0.000210616
0.0553218
0.000203224
0.000177978
0.000134479
0.0454416
0.000150059
0.000142973
0.000206067
0.000160088
0.00022682
0.0424729
0.000214402
0.000220264
0.000184934
0.025391
0.000148591
0.000150295
0.000198943
0.00288935
0.000197349
0.000212956
0.0278025
0.000167575
0.000149787
0.000168806
0.000260532
0.000195396
0.00014958
0.000216454
0.000214629
0.000199875
0.000150733
0.000149456
0.000245625
0.000199201
0.00795198
0.0136112
0.000157778
0.000203241
0.000150652
0.000187557
0.0014349
0.000150955
0.000230253
0.000505981
0.000207436
0.0173673
0.000148695
0.000147367
0.000143309
0.0490891
0.000273871
0.000158358
0.000209574
0.000220322
0.000150455
0.000147722
0.000239867
0.0517478
0.000249005
0.0410492
0.000219911
0.000172872
5.69098e-05
0.000224878
0.000172727
0.000113685
0.000210893
9.94686e-05
0.000149113
0.000214883
0.000230016
0.000154603
7.40495e-05