/*--------------------------------*- C++ -*----------------------------------*\
| =========                 |                                                 |
| \\      /  F ield         | OpenFOAM: The Open Source CFD Toolbox           |
|  \\    /   O peration     | Version:  v2012                                 |
|   \\  /    A nd           | Website:  www.openfoam.com                      |
|    \\/     M anipulation  |                                                 |
\*---------------------------------------------------------------------------*/
FoamFile
{
    version     2.0;
    format      ascii;
    class       surfaceVectorField;
    location    "600";
    object      Uf;
}
// * * * * * * * * * * * * * * * * * * * * * * * * * * * * * * * * * * * * * //

dimensions      [0 1 -1 0 0 0 0];


internalField   nonuniform List<vector> 
20642
(
(0.352698 0.0312704 -6.68393e-22)
(0.362036 0.0328612 2.23918e-20)
(0.372901 0.0375193 -8.19212e-21)
(1.00133 0.0304084 -2.01853e-22)
(1.00096 0.0306005 -1.20297e-21)
(1.00134 0.0310524 -1.38284e-21)
(1.04979 0.154274 -2.21507e-21)
(1.04876 0.153247 1.81653e-20)
(1.04925 0.154795 5.80142e-21)
(1.04124 0.0295725 -2.47551e-20)
(1.04075 0.0305037 4.23787e-21)
(1.04011 0.0293343 3.61228e-21)
(1.00072 0.0157185 0)
(1.00047 0.0159906 0)
(1.00085 0.0161614 0)
(1.00186 0.0301039 1.46063e-21)
(1.00139 0.0296936 6.00617e-22)
(1.05668 0.0602241 2.15623e-21)
(1.05557 0.0587264 1.31909e-20)
(1.05506 0.0603297 1.15212e-20)
(0.994603 0.0320773 3.213e-24)
(0.994438 0.0311044 -2.20835e-22)
(0.993472 0.0320578 2.64366e-24)
(1.08069 0.0474135 1.70832e-20)
(1.0793 0.0480699 6.60628e-21)
(1.08082 0.0493075 4.07556e-20)
(0.00855198 -0.0393327 1.09298e-20)
(0.0164798 -0.043115 2.0496e-20)
(0.99494 0.0331046 0)
(0.995687 0.0321167 1.70115e-22)
(1.0264 0.0228865 0)
(1.02653 0.0236965 0)
(1.02725 0.0232464 -7.20742e-21)
(1.01389 0.000441515 1.31974e-21)
(1.01429 0.000335219 -3.77838e-21)
(0.875066 0.022718 8.73338e-22)
(0.803644 0.0218073 1.53982e-21)
(0.882286 0.0254466 0)
(1.00451 0.0256824 6.4812e-22)
(1.00417 0.0259749 -1.33957e-21)
(1.00464 0.0263015 0)
(0.340813 0.0286991 5.15025e-22)
(0.322898 0.0229702 -8.8085e-21)
(0.994139 -0.000217699 -6.23952e-24)
(0.994053 -0.000227479 5.47296e-22)
(0.994121 -0.000130847 4.89767e-22)
(0.995075 0.0341534 0)
(0.995306 0.0351921 0)
(0.996077 0.0340847 -3.00699e-22)
(1.05018 0.133899 -8.98126e-22)
(1.05005 0.135401 2.98902e-21)
(1.04859 0.134381 -3.90502e-21)
(0.355824 0.0356728 1.53989e-20)
(0.3907 0.0420824 4.75099e-22)
(0.387734 0.0427341 5.62597e-22)
(1.00797 0.0476575 -7.00154e-22)
(1.00722 0.0485248 0)
(1.00701 0.047255 0)
(1.005 0.014074 -1.48158e-21)
(1.00526 0.0141526 0)
(1.00516 0.0145046 -6.99385e-22)
(1.05586 0.0960595 2.20819e-21)
(1.05755 0.0958554 8.22734e-21)
(1.05646 0.0978351 -2.55345e-20)
(1.00471 0.0138802 -1.70936e-21)
(1.00485 0.0135788 -1.93815e-21)
(1.0325 0.0394513 5.32408e-21)
(1.03294 0.0404187 7.46498e-21)
(1.03189 0.0398837 -8.31882e-21)
(1.00403 0.0458241 -1.53932e-22)
(1.00499 0.0462576 -1.5215e-21)
(1.00482 0.0450143 1.356e-21)
(0.930123 0.0828786 -1.52755e-21)
(0.963688 0.0838745 4.74446e-21)
(0.965688 0.0810595 -1.54511e-21)
(0.0110941 -0.0329722 -1.0209e-20)
(0.997845 0.0399262 -1.83509e-21)
(0.998496 0.0408463 1.29671e-21)
(0.998924 0.0395111 1.27454e-21)
(1.02303 -0.0154534 0)
(1.02365 -0.0155558 -2.08875e-24)
(1.02323 -0.0149414 -1.63065e-23)
(0.00367939 -0.0236571 -7.22243e-21)
(0.0145646 -0.0289946 5.44432e-21)
(1.07654 0.11927 0)
(1.0777 0.120811 1.22415e-20)
(1.07539 0.120363 -4.83104e-21)
(1.03281 0.0316669 -1.09846e-20)
(1.03221 0.0308298 -4.92554e-21)
(1.03318 0.0309562 -4.91568e-21)
(0.400635 0.053296 0)
(0.420125 0.0589545 7.89404e-23)
(0.415789 0.0588351 0)
(0.9974 0.00554521 -4.48342e-22)
(0.997279 0.00534485 -4.30776e-22)
(0.99725 0.00553006 1.71474e-21)
(0.99512 0.0302137 -2.86437e-24)
(0.994405 0.0299657 1.96852e-22)
(1.0149 0.0341384 -8.94352e-22)
(1.0153 0.0349636 -2.59907e-21)
(1.01443 0.0348593 -1.24762e-21)
(0.996909 0.000189524 -2.05958e-22)
(0.997859 0.000362318 -1.85407e-21)
(0.99696 0.000132603 -4.92389e-21)
(1.05775 0.0616292 -4.84669e-21)
(1.05814 0.059968 -6.18475e-21)
(1.0118 0.0620998 6.08263e-22)
(1.0111 0.0633615 4.78402e-21)
(1.01281 0.0633229 -9.76959e-22)
(0.998785 -0.000243278 2.00357e-23)
(0.998831 -0.000123283 2.89389e-23)
(0.999657 -0.00045823 -5.90693e-23)
(0.992933 -0.000721452 -1.3847e-22)
(0.992736 -0.000680018 2.89941e-22)
(0.992849 -0.000492195 0)
(1.07476 0.038599 2.06353e-21)
(1.07284 0.0390783 -2.788e-20)
(1.0735 0.0371502 1.70923e-21)
(1.06009 0.137251 -7.93536e-21)
(1.06154 0.137585 -6.97682e-22)
(1.06036 0.138948 0)
(1.05991 0.135246 -2.66539e-20)
(1.05823 0.136567 2.0765e-21)
(1.0013 0.123715 0)
(1.0035 0.123358 0)
(1.00168 0.125847 2.47448e-21)
(1.00886 0.0468423 -8.114e-22)
(1.00925 0.0480727 2.75488e-22)
(0.227982 0.0492636 1.75343e-20)
(0.312863 0.0587767 8.37703e-21)
(0.311102 0.0612522 4.11016e-21)
(0.959832 0.0286006 -7.508e-23)
(0.950913 0.0285791 0)
(0.989555 0.0292447 -2.83043e-24)
(0.997502 0.00557717 0)
(0.997482 0.00574723 0)
(1.02563 0.0226638 -2.51121e-21)
(1.0262 0.0222255 0)
(1.02028 0.118911 4.92604e-21)
(1.01829 0.119298 -3.42637e-21)
(1.01895 0.11715 -1.27175e-22)
(0.176615 0.0159337 -1.99357e-22)
(0.22828 0.021533 9.5924e-23)
(0.171645 0.0150598 -1.30336e-20)
(1.01529 0.0206774 0)
(1.01522 0.0200777 4.71317e-21)
(1.01472 0.0202499 -4.68517e-21)
(1.01659 0.0222576 -7.31932e-21)
(1.01645 0.0216357 -9.73968e-22)
(1.01709 0.0219577 -4.39341e-21)
(1.02167 0.118619 3.86465e-21)
(1.02114 0.120705 6.8113e-21)
(0.128329 0.00561531 -2.39499e-20)
(1.05407 0.0958689 1.27861e-21)
(1.05544 0.0939857 -1.33064e-20)
(0.993135 -0.000777229 -1.42956e-22)
(0.993014 -0.000942151 -1.23223e-24)
(1.00086 0.123883 0)
(0.999778 0.121674 -3.34507e-21)
(0.492353 0.0964274 -7.30942e-21)
(0.450281 0.0939728 -1.42895e-21)
(0.432605 0.0923141 3.69967e-21)
(0.996381 0.00538848 -3.44473e-22)
(0.996052 0.00543819 -6.78963e-23)
(0.996338 0.00577172 -6.59101e-22)
(1.01127 -0.000634611 -7.6859e-22)
(1.01161 -0.000609296 -1.90146e-24)
(1.01358 -0.000857998 4.58439e-24)
(1.0332 0.0388381 -3.51834e-21)
(1.03208 0.0384602 -4.08356e-22)
(0.806323 0.128135 -3.6717e-21)
(0.807425 0.128516 0)
(0.770865 0.126387 -9.8614e-23)
(1.02153 -0.0365868 -5.6458e-22)
(1.03343 -0.0326127 -1.77473e-22)
(1.02866 -0.0380977 -1.12913e-21)
(0.997233 0.0389985 -3.61156e-22)
(0.996717 0.0380787 9.51926e-22)
(0.997783 0.0377762 2.43706e-21)
(0.995809 0.0302244 -1.7214e-22)
(0.995378 0.0294001 0)
(0.99401 0.0341666 -9.24201e-23)
(0.309404 0.0326628 0)
(0.296296 0.0287944 5.39125e-21)
(0.289975 0.0280378 -1.46354e-21)
(0.941615 0.146658 0)
(0.958219 0.146453 0)
(0.911773 0.141829 -8.99435e-21)
(0.387426 0.0490737 4.42009e-21)
(0.383386 0.0493691 -1.09008e-20)
(1.04037 0.0155999 -1.11552e-21)
(1.04134 0.0161701 -1.82131e-20)
(1.0401 0.0163272 -8.43768e-21)
(0.993317 -0.000828236 -1.55163e-22)
(0.993258 -0.000588434 3.47687e-22)
(1.00642 0.0494385 3.32991e-21)
(1.00747 0.0498156 0)
(1.02564 0.0399245 -9.3477e-22)
(1.02588 0.0409701 1.45936e-20)
(1.02483 0.0400713 -2.13959e-21)
(1.0025 0.0160502 0)
(1.00244 0.0162835 0)
(1.00269 0.0163855 1.20394e-21)
(0.993493 -0.000891331 -1.35789e-22)
(0.993373 -0.00107083 1.44898e-24)
(1.02653 0.0395672 2.33033e-21)
(1.02537 0.0389376 -3.78573e-21)
(1.03255 0.0320691 5.31439e-21)
(1.03336 0.032316 -5.5313e-21)
(1.00992 0.0218056 0)
(1.00952 0.0212598 -2.91827e-21)
(1.00999 0.0211853 -3.73726e-21)
(0.993502 -0.000139238 5.23114e-22)
(0.993544 -0.000143242 4.56058e-22)
(0.993519 -0.000100435 6.45186e-24)
(1.04069 0.0148169 1.34182e-20)
(1.03943 0.0149279 1.92828e-20)
(0.894308 0.146311 1.08678e-20)
(0.937722 0.149926 1.62008e-22)
(0.929224 0.150578 1.4221e-20)
(1.01177 0.00370191 -1.09003e-21)
(1.01185 0.00418033 -3.05977e-21)
(1.01131 0.00393102 3.32736e-21)
(0.985888 0.0380016 4.62835e-22)
(0.984126 0.0385776 0)
(0.985022 0.0365487 0)
(1.07804 0.117644 1.20131e-20)
(1.07531 0.117597 8.13967e-21)
(1.01147 0.00210467 0)
(1.011 0.00209911 2.22277e-21)
(1.01063 0.00153781 -5.52659e-21)
(1.01262 0.060759 1.83744e-21)
(1.01099 0.0607286 -5.45427e-22)
(0.994137 -0.000205166 4.57562e-22)
(0.994665 -0.000311839 5.00075e-22)
(0.996139 -0.000579755 4.0827e-22)
(0.996103 -0.000576246 1.93765e-22)
(0.996509 -0.000665332 4.91196e-22)
(1.0757 0.0403395 1.56029e-20)
(0.97184 0.0285086 9.86395e-21)
(0.909223 0.0317957 -8.22493e-23)
(0.996616 0.00413123 3.89403e-22)
(0.996467 0.00412009 -1.12019e-21)
(0.996476 0.00392517 9.01531e-22)
(1.01471 0.0253309 -3.04517e-21)
(1.01426 0.02471 1.17287e-21)
(1.01414 0.0253827 -5.36452e-21)
(0.996706 0.0403495 1.21718e-24)
(0.97368 0.0675093 0)
(0.973874 0.0691682 -1.61614e-21)
(0.973687 0.0653223 1.49921e-21)
(0.993677 8.87044e-05 5.65949e-22)
(0.993738 8.34834e-05 -8.56297e-22)
(0.993298 2.63946e-05 -9.15851e-22)
(1.01175 0.00247784 0)
(1.0118 0.00203766 7.36053e-21)
(0.982502 0.0718623 0)
(0.984383 0.0701956 0)
(0.98249 0.0691306 0)
(1.00453 -0.000467196 -5.46306e-22)
(1.00421 -0.00049384 -5.23313e-23)
(1.00262 -0.000237214 -2.22468e-23)
(1.00495 -0.000510366 2.48006e-22)
(1.00605 -0.000893851 8.17971e-24)
(1.00989 0.0222834 0)
(1.01029 0.0222149 -4.19674e-21)
(0.995439 0.00035458 4.37556e-23)
(0.99543 0.000354917 -1.31647e-21)
(0.99472 0.000264226 -8.95319e-22)
(1.00262 0.0156825 0)
(1.00229 0.0155848 0)
(0.866779 0.159516 -4.26421e-21)
(0.865548 0.15877 2.12959e-20)
(0.822358 0.15767 -1.36792e-21)
(0.489821 0.0730987 -2.40768e-21)
(0.480985 0.0696444 8.96482e-21)
(0.46596 0.0660894 -7.87127e-21)
(0.996785 0.00548084 9.27674e-24)
(0.99678 0.00504802 -1.79864e-23)
(0.992625 -0.000863878 4.23067e-22)
(0.992516 -0.00067128 2.9415e-23)
(0.89074 0.0798793 3.0353e-22)
(0.885234 0.0818267 2.27036e-21)
(1.02372 0.000853853 4.05961e-21)
(1.02389 0.000982051 1.11292e-20)
(0.442852 0.0651711 -7.25191e-24)
(0.427089 0.0599034 8.60274e-23)
(0.999174 0.0416962 2.08677e-21)
(0.998079 0.0421997 -5.23239e-22)
(0.798259 0.128724 2.92843e-21)
(0.844589 0.133629 1.81109e-21)
(1.02234 0.0408537 -5.75823e-21)
(1.02269 0.0418958 -4.8227e-21)
(1.02317 0.0407313 1.00066e-20)
(1.05035 0.131952 3.37484e-21)
(1.05185 0.133174 3.52568e-21)
(0.998716 -0.00075677 -9.10558e-23)
(0.999295 -0.000956109 1.85084e-22)
(0.998678 -0.000810685 -1.68288e-22)
(1.05194 0.149314 1.12337e-20)
(1.05301 0.150364 -2.60626e-21)
(1.05361 0.148677 -1.53955e-21)
(1.04029 0.00961379 3.13128e-21)
(1.04023 0.0104589 6.24338e-21)
(1.03935 0.00969857 -7.12583e-21)
(0.994052 -0.000155575 9.38553e-22)
(0.993382 -0.000140793 -5.14241e-22)
(0.993725 -0.000568398 -1.95609e-22)
(0.993854 -0.00042124 9.69208e-22)
(0.993894 -0.000666617 -3.87424e-22)
(0.996226 0.037107 -1.08394e-21)
(0.995611 0.0383259 -1.05236e-21)
(1.03889 0.122507 0)
(1.03726 0.121744 1.3539e-21)
(1.03901 0.120505 0)
(0.226256 0.0250893 1.41568e-20)
(0.246312 0.0306659 8.78164e-21)
(0.233259 0.0254684 7.85587e-21)
(0.866752 0.144184 -1.85384e-21)
(0.858446 0.145147 3.95578e-21)
(1.03379 0.0382983 1.21509e-20)
(1.0344 0.037725 1.25168e-20)
(1.0334 0.0373389 4.59525e-21)
(1.00535 0.0489582 7.89462e-21)
(1.0056 0.0503277 1.32347e-21)
(0.999824 0.00687896 5.02245e-22)
(0.999642 0.00666114 1.89423e-21)
(0.999787 0.00665117 -1.0842e-21)
(1.0405 0.12283 1.09514e-21)
(1.03904 0.123893 -6.37212e-21)
(1.08009 0.0759635 1.20275e-20)
(1.07892 0.0772483 9.15312e-21)
(1.08101 0.0774256 1.23177e-21)
(0.989449 0.10219 -2.40307e-21)
(0.991709 0.102096 5.24818e-22)
(0.989727 0.103786 -8.31938e-22)
(0.533278 0.109535 -1.25199e-20)
(0.495893 0.103307 -1.51511e-21)
(0.506314 0.103957 -1.52265e-21)
(1.02139 0.0411194 0)
(1.02179 0.0398657 2.64777e-21)
(1.07309 0.126905 1.02789e-20)
(1.07098 0.127435 -2.1981e-20)
(1.07277 0.129059 5.45837e-21)
(0.840239 0.0766954 1.617e-22)
(0.896021 0.0771788 -2.12582e-21)
(0.418379 0.087839 -2.88063e-21)
(0.473851 0.0914388 -6.00568e-22)
(0.48529 0.0908968 5.2333e-23)
(0.15774 0.0230372 -1.25297e-20)
(0.152075 0.0224302 9.98945e-21)
(0.173175 0.0281489 1.19794e-20)
(1.0022 0.0446851 -1.25776e-21)
(1.00314 0.0453191 -4.05978e-21)
(1.00302 0.0439458 7.76944e-22)
(0.996717 0.00021344 1.56477e-21)
(0.837374 0.0233385 0)
(0.893912 0.0192816 0)
(0.84979 0.0203714 1.50599e-21)
(0.993601 -0.000726107 -2.23686e-22)
(0.993656 -0.000968872 -9.66644e-24)
(0.856713 0.160437 1.44453e-20)
(0.907249 0.165117 1.1098e-20)
(1.00604 0.0103508 2.87404e-21)
(1.00577 0.00996331 -1.80123e-21)
(1.00573 0.0103332 0)
(1.03694 0.0145735 -1.06895e-21)
(1.03769 0.0152351 1.06547e-21)
(1.03672 0.0153879 -8.37587e-23)
(0.992063 -0.00171517 -3.47053e-24)
(0.992274 -0.00156455 0)
(0.992194 -0.00151786 8.85085e-23)
(0.963726 0.149458 -1.30361e-22)
(0.919068 0.14544 0)
(0.834349 0.0117731 8.71952e-22)
(0.324146 0.0598812 3.70776e-21)
(0.347804 0.0623687 0)
(0.265583 0.0454495 -6.93047e-21)
(1.01585 0.0211961 4.28887e-21)
(1.0153 0.0213734 0)
(1.01332 0.0596457 -1.51403e-21)
(1.01392 0.058474 -1.21579e-20)
(1.01249 0.0583016 -4.50929e-21)
(1.00641 -0.000604915 -1.36629e-24)
(1.00648 -0.000662404 1.54547e-23)
(1.0083 -0.000939049 2.02633e-22)
(1.03621 0.013977 -8.71721e-21)
(1.03709 0.013771 -3.43112e-22)
(0.96844 0.0703725 0)
(0.966324 0.0664831 0)
(1.00263 0.0127422 6.80431e-22)
(1.00257 0.0129641 -6.83389e-22)
(1.00244 0.0126377 -3.06262e-21)
(0.995418 0.000329704 1.22011e-21)
(0.995807 0.000386946 1.35536e-21)
(0.475545 0.101989 7.97039e-21)
(0.464344 0.0994386 -8.92157e-22)
(0.443356 0.0947477 7.15226e-21)
(0.998424 -0.000459535 0)
(0.998648 -0.000454474 0)
(0.997859 -0.000237477 1.33538e-22)
(0.998673 -0.000688657 -1.30701e-22)
(0.997888 -0.000579463 -1.43762e-22)
(1.00943 0.00764572 -2.94093e-21)
(1.00957 0.00812055 1.96917e-21)
(1.00904 0.00781346 -6.26047e-21)
(0.733616 0.12094 -5.73952e-21)
(0.744492 0.122161 -3.72551e-21)
(0.699198 0.114706 -4.09852e-21)
(1.00905 0.0338231 -2.04598e-21)
(1.00975 0.034049 -3.48635e-21)
(1.00935 0.0331304 2.12589e-21)
(0.819054 0.0271614 -4.6172e-22)
(0.540733 0.0979431 0)
(0.533058 0.0971839 0)
(0.568177 0.100386 0)
(0.975597 0.0716661 -2.6642e-23)
(0.979165 0.072512 8.33478e-23)
(0.978798 0.0699061 8.42084e-23)
(0.180834 0.0160743 -5.81854e-22)
(0.364427 0.082133 -7.72194e-21)
(0.419717 0.0882686 -1.58874e-21)
(0.373716 0.0851421 -2.16757e-21)
(1.01945 -0.00416337 0)
(1.01956 -0.00460151 2.16048e-26)
(1.01992 -0.0043153 0)
(1.00127 0.0438812 1.19214e-21)
(1.00131 0.045393 1.44418e-21)
(1.00451 0.0139241 -1.70944e-21)
(1.00429 0.0139454 6.73082e-22)
(1.00462 0.0143189 -3.39881e-21)
(0.556238 0.105912 1.26535e-20)
(0.557579 0.107578 7.81985e-21)
(0.521815 0.0997491 -2.12391e-22)
(1.08071 0.0456002 8.08992e-21)
(0.589124 0.102372 1.61364e-21)
(0.540003 0.0993449 -3.37627e-21)
(0.56384 0.101243 5.67472e-22)
(1.01924 0.0983415 -6.67558e-21)
(1.02065 0.09821 -4.7121e-21)
(1.01978 0.100067 -3.86635e-21)
(1.00204 -0.000527444 4.96065e-23)
(1.00302 -0.000761183 2.15664e-24)
(1.00152 -0.000488284 3.81687e-22)
(1.04231 0.0300054 -6.3142e-21)
(1.04177 0.0289108 2.09022e-21)
(1.01665 0.119874 -3.42315e-21)
(1.0148 0.120516 -7.03861e-21)
(1.01532 0.118397 -5.83855e-21)
(1.0812 0.0743136 -2.64146e-20)
(1.07913 0.0741762 7.22208e-23)
(1.00866 0.0345239 -1.29193e-21)
(1.0084 0.0335187 -1.51926e-21)
(1.07141 0.0393201 -7.25344e-21)
(1.07025 0.0379361 1.37483e-20)
(1.06949 0.0396794 4.78591e-20)
(1.0044 0.0135707 2.95892e-21)
(1.02502 0.0224126 -2.45574e-21)
(1.02514 0.0230594 -9.67648e-21)
(1.02059 0.133253 3.43968e-21)
(1.02272 0.132978 0)
(1.02038 0.134716 7.41725e-21)
(1.0509 0.148591 7.68151e-21)
(1.04887 0.15011 1.32732e-20)
(0.988824 0.100165 -4.39979e-22)
(0.986131 0.101924 -1.5643e-21)
(1.0248 0.0217117 0)
(1.02428 0.022134 0)
(1.01751 0.133866 -5.86169e-21)
(1.01965 0.131611 7.805e-21)
(1.02264 -0.0159251 -4.63721e-23)
(1.0223 -0.0152119 0)
(0.987379 0.0378345 4.70108e-22)
(0.986303 0.0397769 -1.71641e-22)
(1.01806 0.0966941 -1.98607e-21)
(1.01727 0.0986822 -7.12981e-21)
(1.05981 0.133395 6.44547e-22)
(1.06167 0.133865 -1.67205e-20)
(1.02662 0.130512 6.24503e-21)
(1.02782 0.12982 -1.13153e-20)
(1.02634 0.128818 5.84961e-21)
(0.367183 0.0341353 4.65192e-21)
(0.384861 0.0399341 -1.45981e-20)
(0.371918 0.0352358 -1.54614e-20)
(0.996724 0.00433204 3.96794e-22)
(0.996717 0.00414765 4.68618e-22)
(0.247363 0.0274431 -9.64382e-21)
(0.260241 0.0322572 -1.69966e-20)
(0.239908 0.0263805 -9.18855e-21)
(1.03371 0.0529704 -7.61654e-21)
(1.03272 0.0534658 0)
(1.03277 0.0520987 2.92217e-21)
(0.572937 0.11595 4.05894e-21)
(0.562496 0.115145 2.02687e-21)
(0.997119 0.0051616 6.15202e-23)
(0.997249 0.00516763 -1.12582e-22)
(1.00269 0.0124985 1.36955e-21)
(1.00284 0.0128414 1.4619e-21)
(1.01079 0.0463516 4.21677e-21)
(1.01134 0.0474479 -2.72532e-21)
(1.01179 0.0463366 6.25902e-21)
(0.303965 0.0281626 -9.60793e-21)
(0.300556 0.0286767 1.66253e-21)
(0.319796 0.0328954 -4.32675e-21)
(0.16087 0.0221633 -9.24399e-21)
(0.135917 0.0169936 -1.81378e-20)
(1.01329 0.0306944 -2.84425e-21)
(1.01307 0.0313265 3.49394e-21)
(1.01263 0.0305777 -1.39406e-21)
(0.963343 0.089664 -6.41936e-22)
(0.973897 0.0886317 0)
(0.963531 0.091248 1.21598e-21)
(1.00271 0.0374306 0)
(1.00266 0.0364757 7.10511e-22)
(1.00342 0.0370621 -1.11307e-21)
(1.01412 0.0608797 3.46014e-21)
(0.993554 -0.000474892 5.37215e-23)
(1.01782 0.121302 -3.11954e-21)
(1.00919 0.0206801 2.52488e-21)
(1.00908 0.021235 -5.10964e-21)
(0.999019 0.0047489 -8.02828e-22)
(0.998956 0.00453551 -8.24396e-22)
(0.998824 0.00456625 -1.79907e-21)
(0.999111 0.0160593 8.69241e-22)
(0.999282 0.0156364 1.14945e-21)
(0.999539 0.016143 -1.59684e-21)
(0.998586 0.0160676 2.24981e-22)
(0.998916 0.0165648 2.1172e-22)
(0.382679 0.0666015 9.69504e-21)
(1.07348 0.125272 -3.19484e-21)
(1.07492 0.126491 9.13421e-21)
(1.00322 0.0466491 -2.8045e-21)
(0.643481 0.104588 0)
(0.643748 0.104602 0)
(0.678915 0.110621 -4.267e-23)
(1.00255 0.000843849 -1.41559e-21)
(1.00183 0.000661548 0)
(1.00349 0.00100896 0)
(0.99614 -0.00332248 0)
(0.996003 -0.00326781 1.71107e-22)
(0.996101 -0.00311551 0)
(0.996172 -0.00352459 2.7136e-22)
(0.99627 -0.00338643 0)
(0.355598 0.0789244 6.20415e-21)
(1.02443 0.132262 -3.92888e-21)
(1.02557 0.131212 2.1977e-21)
(1.02373 0.130431 1.90649e-21)
(1.01502 0.134491 -1.71179e-20)
(1.01447 0.134856 -2.55122e-21)
(1.01368 0.132973 -3.2988e-21)
(1.02181 0.00343296 1.30881e-22)
(1.02204 0.00384942 -1.37446e-21)
(1.02229 0.00344145 2.61887e-21)
(1.01103 -0.000563834 1.34028e-22)
(1.00793 -0.000374064 -3.42755e-25)
(0.777619 0.0762656 -1.17883e-22)
(0.78271 0.0742473 -2.9823e-22)
(0.253876 0.0282536 -5.45935e-22)
(0.996275 -0.00273918 7.09644e-22)
(0.996253 -0.00287496 2.09724e-24)
(0.996138 -0.00272774 1.02809e-21)
(0.99626 -0.00257875 7.03234e-22)
(0.996393 -0.00273534 -6.05422e-23)
(0.999008 -0.000279747 -7.85873e-23)
(0.998563 -0.000201044 2.68987e-23)
(0.996211 -0.00373679 3.23207e-23)
(0.996061 -0.00369057 -1.70335e-22)
(0.99625 -0.00397864 5.17439e-23)
(0.996354 -0.00381675 -2.5142e-22)
(0.371154 0.0434851 -2.86437e-22)
(0.385106 0.0472459 1.71994e-20)
(0.424526 0.0736972 3.89803e-21)
(0.424539 0.0750461 -1.43272e-20)
(0.457692 0.077256 -2.84353e-22)
(1.00733 0.0173939 4.52741e-21)
(1.0073 0.0169626 -1.04757e-21)
(1.00762 0.0173862 1.12163e-22)
(1.02024 -0.00712649 9.57422e-25)
(1.02026 -0.00756947 -4.74611e-23)
(1.01978 -0.00722892 -1.43096e-23)
(1.03006 0.109193 1.0514e-21)
(1.02859 0.107985 -3.73099e-21)
(1.03027 0.107509 6.21419e-21)
(0.354065 0.0464314 1.02699e-21)
(0.342908 0.0418472 0)
(0.360194 0.047074 7.19807e-21)
(0.997021 -0.000490177 -2.69834e-22)
(0.996276 -0.00032541 0)
(0.996456 -0.000337819 1.40962e-23)
(1.02136 0.00349193 -7.6489e-21)
(1.02157 0.00308544 1.84692e-22)
(0.963421 0.0870109 3.41414e-21)
(0.924234 0.0887939 -7.76023e-22)
(0.849894 0.160652 4.08717e-21)
(0.840437 0.160312 -2.41862e-20)
(0.890882 0.165847 2.73694e-22)
(1.02472 0.133648 1.89603e-21)
(0.645648 0.105216 0)
(0.612912 0.0983425 -6.7455e-21)
(1.01311 0.106364 1.23804e-21)
(1.01184 0.104931 2.75061e-21)
(1.01126 0.106753 -3.82692e-21)
(1.00628 0.0103513 6.05692e-21)
(1.00625 0.0106981 1.28131e-21)
(0.464118 0.0905045 -1.71833e-21)
(0.470582 0.0918587 7.85174e-21)
(1.03132 0.110611 8.80168e-22)
(1.02945 0.111084 -1.12182e-20)
(0.999771 0.0424466 -1.10237e-22)
(1.00005 0.04115 -2.59403e-22)
(1.0554 0.119156 0)
(1.05415 0.120218 0)
(1.05595 0.120995 5.62665e-22)
(1.01346 0.0300498 -1.49571e-21)
(1.01394 0.0307403 -1.40459e-21)
(0.432942 0.0719986 1.52955e-20)
(1.04025 0.0112097 1.38727e-20)
(1.03948 0.0112574 0)
(1.04024 0.0119987 0)
(1.02201 0.0755331 -3.96494e-21)
(1.0209 0.0760268 -7.37826e-22)
(1.02235 0.076738 6.74711e-21)
(1.022 0.0974177 2.34719e-21)
(1.02365 0.0963234 2.45643e-21)
(1.02171 0.095558 3.8893e-21)
(1.00676 0.0173869 0)
(1.00707 0.0173694 1.87971e-21)
(1.00671 0.0169885 -9.30022e-22)
(0.998948 -9.1816e-05 0)
(1.0342 0.0392854 -5.62668e-23)
(1.00063 0.0137678 1.95477e-22)
(1.00088 0.0136292 5.34997e-22)
(1.00065 0.0133231 -5.85667e-22)
(0.995949 0.00434682 3.06755e-23)
(0.996102 0.00453652 -9.06003e-22)
(0.995954 0.00455812 1.65086e-21)
(0.282215 0.0416638 8.08106e-21)
(0.271287 0.037022 -7.74803e-21)
(0.264101 0.0363352 0)
(0.721156 0.0157063 -4.36794e-22)
(0.760592 0.0170578 0)
(0.789087 0.0187602 2.95329e-22)
(0.993922 0.000634579 -2.36124e-24)
(0.994085 0.000770982 -4.94495e-22)
(0.994082 0.000500853 -2.07978e-22)
(0.996173 -0.00238817 -4.96204e-23)
(0.996277 -0.00241471 -3.72473e-22)
(1.0027 0.0133152 -6.62985e-22)
(1.0025 0.0131936 -1.40339e-23)
(0.996078 -0.00236803 -6.1511e-22)
(0.996115 -0.00223498 -8.75431e-23)
(1.04119 0.01115 1.17366e-20)
(1.01785 0.00070174 -2.10455e-22)
(1.01311 0.000415776 1.24779e-21)
(1.04281 0.0799199 0)
(1.04287 0.0816479 -7.84161e-22)
(1.04126 0.0808617 0)
(0.993757 0.000507399 -4.97494e-22)
(0.993752 0.000798765 -5.40302e-23)
(0.146891 0.0260274 5.98097e-21)
(0.165524 0.0318151 6.25885e-21)
(0.496656 0.07584 7.53106e-21)
(0.514895 0.0797431 -7.81159e-21)
(1.02082 0.0180601 1.02305e-22)
(1.02122 0.0176128 -1.60963e-20)
(1.02041 0.0174275 5.28381e-21)
(1.00149 0.0138793 -5.6624e-22)
(1.00132 0.0141016 0)
(1.00156 0.0143074 -1.10028e-21)
(1.00157 0.124583 0)
(0.999551 0.122532 0)
(1.00233 0.125194 0)
(0.99862 -0.00611935 -1.98115e-23)
(0.998737 -0.00643565 -4.8423e-23)
(0.99885 -0.00614874 1.11543e-22)
(0.987152 0.067924 -8.45997e-22)
(0.986323 0.0693752 -5.74855e-22)
(0.988434 0.069403 1.05289e-21)
(0.301084 0.0474538 9.13511e-21)
(0.293627 0.0464495 -2.05589e-22)
(0.998506 -0.00583668 -1.36677e-22)
(0.998392 -0.00612071 2.49856e-22)
(0.326815 0.0374332 0)
(0.320163 0.0366547 1.13529e-21)
(0.995801 0.00414581 -7.95646e-22)
(0.995945 0.00413328 -8.09286e-22)
(0.779741 0.126486 8.84059e-21)
(0.732431 0.12056 0)
(1.00229 -0.000518134 -1.89058e-23)
(1.00081 -0.000266577 2.32691e-24)
(1.00513 0.0251037 -6.59637e-22)
(1.00499 0.0245146 0)
(1.00544 0.024728 0)
(1.00649 0.0174099 1.6208e-21)
(1.00681 0.0178075 0)
(1.00468 0.00961409 2.33589e-21)
(1.00441 0.00930187 -2.062e-21)
(1.00464 0.00929626 1.61477e-21)
(1.03782 0.13737 0)
(1.03871 0.136238 -8.70707e-21)
(1.03918 0.138028 7.12229e-21)
(0.996932 0.000435236 -4.06667e-21)
(0.997084 0.000415607 8.44494e-23)
(0.995794 0.000201606 -3.64803e-21)
(0.972582 0.0706726 -9.14443e-23)
(0.972954 0.0735533 -8.63705e-23)
(1.027 0.0573936 -6.73805e-22)
(1.02585 0.0578341 8.53239e-21)
(1.02621 0.0563661 2.82883e-21)
(0.991801 -0.00184436 2.3091e-24)
(0.992092 -0.00202769 -4.89797e-23)
(0.981461 0.092274 1.78601e-22)
(0.980131 0.0894169 -1.32921e-22)
(0.978773 0.0892735 3.05271e-22)
(0.133955 0.021209 2.65679e-22)
(0.997543 -0.000636844 -3.36037e-23)
(0.997734 -0.000637218 -2.34693e-22)
(1.04364 0.0984736 1.06669e-20)
(1.04411 0.100114 -2.73384e-21)
(1.04545 0.0989501 3.31969e-21)
(1.00065 0.0146562 7.3196e-22)
(1.00062 0.0142101 8.56675e-22)
(1.0009 0.0145229 6.15087e-22)
(1.02066 0.0413079 -6.30137e-23)
(1.01978 0.0413697 -5.49013e-21)
(1.0202 0.0402796 4.88244e-21)
(1.00066 0.0152303 0)
(1.00099 0.0154535 0)
(1.02726 0.0392996 0)
(1.02745 0.0403126 0)
(0.996357 0.00412507 -1.64295e-22)
(0.996222 0.00412084 8.48185e-22)
(0.996223 0.00391888 -1.10837e-22)
(0.997707 0.000583579 4.26757e-23)
(0.99663 0.000391839 2.3956e-21)
(1.0122 0.115889 4.20124e-21)
(1.01181 0.117921 3.92616e-21)
(1.01387 0.117033 -5.97716e-21)
(1.00213 0.0139675 -6.17157e-22)
(1.00197 0.0150036 0)
(1.00112 0.0142343 -5.38994e-22)
(1.02341 0.0748492 -2.80746e-21)
(1.02181 0.0742055 -1.35416e-20)
(1.02806 0.039004 4.48346e-21)
(1.02704 0.0384394 0)
(1.02101 0.00346313 -8.29538e-22)
(1.02081 0.0030707 9.38282e-21)
(1.02058 0.00341275 -4.12671e-21)
(0.486994 0.102999 0)
(0.512161 0.107881 -1.27835e-20)
(0.301494 0.0259481 -2.22095e-21)
(0.276732 0.0239968 3.17201e-21)
(0.999135 0.00605441 4.09479e-22)
(0.998961 0.00584988 -4.70953e-23)
(0.99909 0.0058362 -1.53472e-21)
(1.00851 -0.0232915 -9.11606e-23)
(1.01085 -0.0238747 1.48548e-22)
(1.00951 -0.0218694 -4.21738e-22)
(1.02118 0.0422188 -3.53184e-21)
(0.990169 0.0187278 -2.22033e-21)
(0.989149 0.0166543 -4.23512e-22)
(0.9905 0.0171104 -2.61953e-22)
(1.07679 0.149607 3.59716e-22)
(1.07596 0.151749 -1.90434e-20)
(1.07866 0.150733 0)
(0.514425 0.0781243 -6.78395e-21)
(0.495019 0.0727247 1.08138e-21)
(0.489551 0.0710534 9.20778e-21)
(0.607184 0.104618 -2.25019e-21)
(0.632361 0.104668 1.24508e-21)
(1.04006 -0.0210848 -2.71597e-21)
(1.03726 -0.0267256 -1.44673e-22)
(1.03026 -0.0238239 -3.6567e-22)
(0.994619 0.102251 1.03433e-21)
(0.993992 0.100107 3.20751e-22)
(1.00164 0.0136913 -1.14918e-21)
(1.00144 0.0134833 -1.08999e-21)
(0.974891 0.154831 -6.38303e-21)
(0.945346 0.150493 -7.06388e-22)
(0.994609 0.0199676 3.8271e-22)
(0.992383 0.0201499 2.53143e-22)
(1.04983 0.155509 -6.91417e-21)
(1.05259 0.153988 -5.99476e-21)
(1.01813 0.000769998 -1.03433e-20)
(1.01298 0.000238181 -4.11948e-21)
(1.00482 0.025415 -4.39986e-24)
(1.00438 0.0251219 -1.99254e-21)
(0.974713 0.0848631 2.52352e-21)
(1.00357 0.0137095 1.6216e-21)
(1.00379 0.013773 1.68952e-21)
(1.00373 0.0140639 -2.59671e-22)
(1.00057 0.0311007 -4.06959e-22)
(1.00052 0.0304697 1.70276e-22)
(1.05974 0.1316 1.78069e-20)
(1.05812 0.132802 2.73039e-20)
(0.994777 -0.000280372 0)
(0.994872 -0.000238722 9.41986e-23)
(0.994662 -0.000173142 0)
(0.585942 0.11225 1.34854e-20)
(0.549829 0.104346 -1.40303e-20)
(1.01166 0.00282708 0)
(1.01167 0.00332416 0)
(1.01127 0.0030481 4.72247e-21)
(1.09831 0.0908814 -2.10879e-20)
(1.09969 0.0928497 -1.60514e-20)
(1.00056 -0.0107963 5.08641e-24)
(1.00098 -0.0109341 -1.24039e-23)
(1.00066 -0.0112731 -4.84539e-26)
(0.284051 0.0298265 5.03448e-22)
(0.287486 0.0268005 -1.04789e-21)
(0.999581 0.00302964 0)
(0.99939 0.00289674 2.28836e-21)
(0.999519 0.00281064 0)
(1.02457 0.074435 1.63738e-21)
(1.02445 0.073078 -1.42106e-20)
(1.02574 0.0739123 5.89732e-22)
(1.00204 0.0377922 1.34312e-21)
(1.0029 0.0383562 -3.22895e-22)
(1.04247 -0.015942 1.31974e-22)
(1.04416 -0.0186737 -1.3408e-21)
(0.995419 -0.000432098 0)
(0.994835 -0.000357146 -2.2127e-22)
(1.05748 0.121576 7.99953e-21)
(1.05919 0.122308 -1.18271e-21)
(1.05889 0.12038 1.5454e-20)
(0.902505 0.161373 1.59898e-21)
(0.944944 0.166409 -1.098e-20)
(0.909728 0.161207 0)
(1.01571 0.0250703 2.32272e-21)
(1.01517 0.0252321 -4.13507e-21)
(1.0153 0.0244017 9.20609e-21)
(1.00334 0.0136222 8.51406e-22)
(1.00343 0.0133432 0)
(0.458998 0.0700556 5.83777e-21)
(0.465823 0.0709294 -8.49734e-23)
(0.884311 0.162732 -1.24623e-21)
(0.895247 0.162508 -2.09044e-20)
(0.931351 0.167107 -2.31444e-20)
(0.812624 0.129057 8.26201e-21)
(0.83966 0.130733 2.34202e-21)
(0.787484 0.128375 1.94173e-21)
(0.936487 0.0235496 7.81949e-22)
(0.876339 0.0214885 2.76472e-21)
(0.998384 -0.00554913 -1.39038e-22)
(0.998624 -0.00555488 -6.55723e-23)
(1.00861 0.0183326 -2.25645e-23)
(1.00859 0.0178493 2.96549e-21)
(1.00894 0.018294 -1.1984e-22)
(0.831526 0.160395 -2.42594e-21)
(0.822589 0.160254 1.1915e-20)
(0.873642 0.165931 -7.25896e-22)
(0.996078 0.102436 -8.84682e-22)
(0.995111 0.104291 2.95584e-21)
(0.998127 -0.00555778 -1.36661e-23)
(0.998214 -0.00525431 3.57763e-22)
(1.00029 0.0148912 1.22594e-21)
(1.02033 0.0215708 7.61672e-21)
(1.02051 0.0222513 -7.73696e-21)
(1.01988 0.0217788 -3.75253e-21)
(0.997856 0.0534582 1.02305e-21)
(0.996408 0.0530599 0)
(0.996775 0.05478 -1.51714e-22)
(1.02469 0.0757045 -1.29881e-21)
(1.02972 0.125564 0)
(1.03126 0.124836 -1.34645e-21)
(1.02983 0.123713 -6.31489e-21)
(1.00356 0.0974713 -2.01704e-22)
(1.00427 0.0956959 -4.37639e-21)
(1.00566 0.0972949 9.57204e-22)
(0.988592 0.0663857 -2.3021e-22)
(0.98622 0.0660141 -1.09283e-22)
(1.09208 0.0912876 0)
(1.09021 0.0918709 0)
(1.09156 0.0935139 0)
(0.421949 0.0536861 -5.88945e-21)
(0.404277 0.0478994 -3.4325e-22)
(0.415765 0.0527299 7.63846e-22)
(0.999868 0.00708241 2.32476e-21)
(0.999996 0.00707357 1.41073e-21)
(1.01614 0.0257447 7.55906e-23)
(1.01625 0.0249172 -4.72404e-21)
(1.00014 0.0159136 3.45135e-22)
(1.00027 0.0163526 3.26071e-23)
(1.04198 0.143076 -2.0013e-21)
(1.04355 0.143346 -1.38524e-20)
(1.04128 0.144442 5.80666e-21)
(0.995974 -0.000319202 -6.36743e-23)
(0.995779 -0.000161401 3.79941e-22)
(0.995826 -0.000319276 -2.62798e-22)
(0.342566 0.0282148 2.31608e-20)
(1.09395 0.0910406 0)
(1.09232 0.0895753 0)
(0.896641 0.0407137 1.84581e-22)
(0.892548 0.0411201 2.15179e-22)
(1.01617 0.0224862 1.26316e-21)
(1.01677 0.0228028 -2.72282e-21)
(0.998519 0.100201 -1.48629e-21)
(0.997796 0.10202 -4.21045e-21)
(1.00012 0.101623 -1.43142e-21)
(1.00704 -0.0248875 0)
(1.00728 -0.0228269 0)
(0.978521 0.0290881 9.63667e-23)
(0.987368 0.0285064 -1.18345e-22)
(0.938979 0.0320401 -1.54959e-22)
(0.992873 -0.00156882 -1.52742e-22)
(0.992846 -0.00140344 -2.65931e-22)
(0.993002 -0.00147692 -4.28365e-22)
(1.01567 0.135824 -2.87075e-21)
(1.00398 0.126592 -2.63508e-21)
(1.00107 0.037433 1.30638e-21)
(1.00123 0.0385877 -6.59034e-23)
(1.02043 0.0184188 6.10445e-21)
(1.02123 0.0186721 0)
(1.03881 0.151668 0)
(1.03997 0.151199 -1.30621e-21)
(1.0208 0.151352 0)
(1.00048 -0.0126457 4.20879e-24)
(1.00097 -0.0128389 1.52108e-23)
(1.00087 -0.0122767 -5.16588e-23)
(0.54784 0.0996991 0)
(0.510212 0.0956258 0)
(1.02707 0.132174 3.78613e-21)
(0.992738 -0.00165504 4.29953e-22)
(0.992884 -0.00174731 -1.26428e-22)