/*--------------------------------*- C++ -*----------------------------------*\
| =========                 |                                                 |
| \\      /  F ield         | OpenFOAM: The Open Source CFD Toolbox           |
|  \\    /   O peration     | Version:  v2012                                 |
|   \\  /    A nd           | Website:  www.openfoam.com                      |
|    \\/     M anipulation  |                                                 |
\*---------------------------------------------------------------------------*/
FoamFile
{
    version     2.0;
    format      ascii;
    class       volVectorField;
    location    "750";
    object      ddt0(U);
}
// * * * * * * * * * * * * * * * * * * * * * * * * * * * * * * * * * * * * * //

dimensions      [0 1 -2 0 0 0 0];


internalField   nonuniform List<vector> 
13917
(
(0.000509766 -0.00165328 -1.54499e-18)
(-0.000521693 -0.000530268 4.12774e-18)
(0.0193769 -0.0016867 -1.55094e-18)
(-0.00107727 -0.00142684 7.05606e-21)
(-0.000187676 0.000108059 1.12505e-18)
(-0.000238971 0.0035016 1.10993e-16)
(0.0207596 -0.00191422 1.48643e-18)
(0.0184221 -0.0018566 -1.69875e-19)
(0.0201508 -0.00450486 9.84655e-19)
(0.00152768 -0.00208288 6.97471e-18)
(-0.00155889 -0.00374893 -4.92095e-18)
(-0.00196626 -0.00322135 1.39117e-18)
(-0.000775956 -0.00144604 -4.25415e-20)
(0.0129271 -0.000531686 -8.43218e-19)
(9.24544e-05 -8.38128e-05 4.29343e-19)
(-1.99941e-05 -0.000340798 -1.77468e-18)
(-0.000522779 -0.000467425 -8.56748e-19)
(-0.000453128 -0.00326022 -4.71133e-18)
(-0.00199673 -0.00312915 -2.98293e-19)
(-0.000248823 8.03869e-06 1.31659e-17)
(-2.30559e-05 3.13678e-05 -1.49746e-18)
(0.0204581 -0.00185522 -7.39403e-19)
(-0.000259413 2.41653e-05 -5.32073e-18)
(0.016029 -0.00198122 -2.92476e-18)
(-0.000352274 1.59919e-05 -4.88555e-18)
(0.0200944 -0.00169643 1.73484e-18)
(5.78833e-05 0.00113784 1.1555e-17)
(0.000641161 0.00145575 -2.90876e-17)
(0.00205757 0.00327096 1.39988e-17)
(0.00127377 -0.00362816 8.08511e-18)
(0.000612826 -0.00193483 7.62518e-19)
(3.8255e-05 -0.00122912 -2.03073e-18)
(0.000236212 0.000850545 7.07255e-18)
(-0.000125355 0.000371552 -3.00886e-17)
(-0.000216248 5.76054e-05 -3.87733e-18)
(-0.00142644 -0.00396603 -2.36071e-18)
(-0.000262925 3.09279e-05 -2.57324e-19)
(0.0162234 -0.000825429 -9.63687e-19)
(-0.00107192 -0.00174409 -2.52766e-19)
(0.0137233 -0.00134796 1.09052e-17)
(-0.000532826 -1.13217e-05 1.48214e-18)
(2.97481e-05 1.2714e-05 3.3172e-18)
(-0.000410865 -0.000198656 -2.33271e-18)
(0.000833994 0.00197772 -4.48747e-17)
(-0.000670769 -0.000837582 1.95536e-18)
(-5.33266e-05 0.000487392 1.69718e-17)
(-0.000743892 -0.00323557 4.34766e-18)
(-0.0011213 -0.00362128 -3.21699e-18)
(-0.000717961 0.00478773 -2.84234e-17)
(-0.000404301 -4.83433e-06 -2.81482e-18)
(0.000584239 -0.00199776 3.39538e-19)
(-0.00013775 0.000111563 2.49476e-18)
(-0.00184548 0.0047641 3.09675e-17)
(-0.000105575 0.000397554 1.46584e-18)
(-0.000502077 -0.000460509 1.95577e-18)
(0.000665584 -0.00182757 8.36289e-19)
(-0.00251087 -0.00376341 2.15047e-18)
(-0.000389923 -0.000123907 -4.58575e-18)
(-0.000504488 -0.00154804 -2.37328e-19)
(-0.000694592 -0.000799786 -6.08322e-19)
(0.00590477 -0.0100475 -1.05642e-17)
(-0.000544061 -0.000552766 1.65018e-20)
(0.00864776 -0.000413746 6.34376e-19)
(-0.000279569 6.941e-06 -5.50574e-18)
(-9.89707e-05 0.0033655 -8.58316e-17)
(0.00242681 0.00844555 1.0542e-17)
(-3.67885e-05 0.000113373 7.02457e-18)
(-8.28952e-05 9.83749e-05 -1.10946e-17)
(-0.00185389 -0.00423504 1.53554e-18)
(0.000666295 -0.00108397 -5.78893e-19)
(-0.000151624 0.000106304 -1.59197e-18)
(0.0172077 -0.00447502 -1.26851e-19)
(0.0104247 -0.00165397 -5.7938e-18)
(-0.000263469 2.10584e-05 6.10354e-18)
(0.00020716 0.00539468 -1.56961e-17)
(-0.0020396 -0.00319442 3.71544e-18)
(0.0120856 -0.000791325 1.57037e-18)
(-0.000588261 -0.00119632 -5.78364e-19)
(0.0197368 -0.00172318 1.13668e-19)
(-3.7549e-05 5.19395e-05 -4.37232e-18)
(-0.000123054 4.82698e-05 -9.14693e-19)
(-3.12398e-05 0.000114022 -9.04033e-18)
(0.000180632 0.00334272 -5.9236e-17)
(0.0170355 -0.000858859 -2.08623e-18)
(-0.00205813 0.00140627 3.10327e-17)
(-0.000603199 -0.00117367 -2.13258e-19)
(-0.000180532 3.82731e-05 -1.12121e-18)
(0.00435162 0.00686282 -1.57539e-17)
(-0.00032557 -0.00199513 1.19282e-18)
(-0.000362928 -0.000211353 1.57974e-19)
(0.0142904 -0.00179304 -1.2545e-18)
(0.00171156 -0.00287206 6.78299e-18)
(-0.000573966 -0.000477369 -1.57041e-18)
(-0.000141419 -4.95511e-05 6.01982e-18)
(0.00305912 0.00830358 1.23482e-17)
(-0.000391859 0.0032628 -4.42232e-17)
(-0.00156673 -0.00379232 -2.29609e-18)
(-0.000747586 -0.00351872 -6.64227e-18)
(-0.00212667 -0.00353083 -1.18771e-18)
(0.000675559 0.00220692 -8.92979e-17)
(-0.00046838 -0.000112864 4.448e-18)
(-0.00011793 0.000751411 -2.1097e-18)
(0.000746049 0.00207567 5.00254e-17)
(-0.000621074 -0.00138475 9.33826e-21)
(-0.00054432 -0.000264306 2.75507e-18)
(0.0151993 -0.00558321 3.4061e-18)
(0.00223836 0.00279234 -3.10455e-17)
(-0.000644839 -0.00367224 7.02064e-18)
(-0.00052344 -0.000509663 -1.65293e-18)
(0.0015402 -0.00178373 3.74702e-18)
(0.00342962 -0.00111116 -3.67824e-18)
(0.0141336 -0.00138269 -1.25668e-17)
(-0.00193747 -0.00332734 2.63085e-19)
(0.016959 -0.00532217 -2.51634e-18)
(-0.000108558 0.0001718 -5.83375e-18)
(-0.000830398 0.00509696 3.21321e-17)
(-0.000346877 -1.90309e-05 -1.13308e-18)
(-0.000160751 0.00440007 1.67426e-16)
(0.0141977 -0.00101559 3.00762e-18)
(-3.51505e-05 0.000393324 -6.12238e-18)
(1.7853e-05 2.31561e-05 -1.28504e-18)
(-0.00142532 -0.00424106 -6.65366e-19)
(0.0143294 -0.000982058 1.98981e-18)
(0.000486606 0.00137278 1.81537e-18)
(-0.000448807 -6.98484e-06 8.5642e-19)
(-0.000169964 -5.23641e-05 -1.55974e-17)
(-0.000634248 -0.000739421 -1.09636e-18)
(-0.000460966 -4.15652e-06 1.58759e-18)
(-0.000371259 -0.000101434 -9.02792e-19)
(-0.000270717 0.00341011 3.14793e-17)
(0.0160761 -0.00125649 -4.46609e-18)
(-0.000104625 0.000165049 1.09889e-17)
(-0.000674178 -0.000849666 1.73594e-18)
(4.58394e-06 2.72861e-05 2.65451e-18)
(0.00131868 -0.00620733 2.07901e-18)
(0.0153999 -0.00206853 6.3465e-19)
(0.000882281 -0.00156341 -1.5189e-19)
(0.000137593 0.00227361 3.67003e-17)
(-3.92253e-05 0.000114871 -7.2335e-18)
(-5.33979e-05 0.000389223 2.38951e-17)
(-0.00225268 -0.00394435 4.0149e-19)
(-0.000782665 -0.000448506 -1.0912e-18)
(-0.000148302 0.000105523 2.00335e-17)
(0.000956212 0.00221291 -1.22649e-17)
(-6.81994e-05 9.59891e-05 1.56048e-17)
(0.000768577 -0.00594475 -2.60362e-18)
(0.00210104 0.00303163 1.01846e-17)
(-0.000125804 0.000117412 -2.92553e-18)
(-0.000238559 -0.000392235 8.58237e-19)
(0.00014242 -0.00111112 -4.53367e-19)
(-0.00129011 -0.00324385 -4.45425e-18)
(-0.00078005 0.00504133 4.69359e-17)
(-0.00181502 -0.00348507 -2.61203e-18)
(0.000841552 -0.000459785 -2.63004e-18)
(-0.000313757 -0.00159483 -7.0381e-20)
(-0.00493929 0.0048608 9.23574e-18)
(0.000564163 -0.00103322 1.81357e-18)
(-0.000617072 -0.00377005 -3.43366e-19)
(0.0114378 -0.000556937 -1.21659e-18)
(0.00149554 -0.00614881 -2.63049e-17)
(-1.35826e-05 0.000198544 9.6329e-18)
(-0.000264668 0.00110926 1.64347e-17)
(-2.09174e-05 4.20497e-05 1.16318e-17)
(-0.00178579 -0.00376039 4.59176e-18)
(-0.00135616 -0.00330301 -5.25588e-19)
(-0.00214357 -0.0035205 1.72249e-18)
(-0.00059258 -0.00136281 3.89916e-19)
(-0.000906268 -0.00336799 2.2461e-18)
(-0.00064508 -0.00066756 4.29013e-18)
(-0.000281355 0.000800653 -1.9776e-17)
(0.000738547 -0.000711461 -4.1187e-18)
(-0.00234094 0.000333157 -2.44631e-18)
(-0.00270427 -0.00336922 8.34771e-19)
(-0.000415742 -0.000476914 1.17823e-17)
(-0.00696503 -0.00538106 -3.62189e-18)
(0.000959269 -0.000276521 -9.51105e-18)
(0.0164786 -0.00135141 2.81588e-18)
(-0.000303089 0.00447778 -1.25746e-18)
(-0.00274921 -0.00571695 1.48691e-19)
(-0.000505283 -0.000312626 1.903e-18)
(0.00167422 -0.00302301 1.04522e-17)
(0.000590454 -0.00204597 2.01235e-18)
(-0.000749868 -0.00045337 -2.49717e-18)
(-0.000197328 4.02114e-05 1.26358e-18)
(0.000343635 0.000225169 -2.83732e-17)
(0.0200609 -0.00180154 -2.64992e-18)
(0.00459452 -0.00432678 -1.63177e-18)
(-0.00734928 0.00480463 -9.1257e-18)
(0.000493173 -0.00249417 4.20796e-19)
(-0.00174592 -0.00354915 2.90899e-19)
(-0.00215359 -0.0038621 2.08649e-18)
(-0.0017999 0.000931347 5.05499e-18)
(0.00325078 -0.00370418 2.85572e-17)
(-0.000253757 4.93138e-05 -1.74754e-18)
(1.39495e-05 0.00236287 2.27366e-17)
(5.6324e-05 0.00108527 -2.69104e-17)
(-0.000479382 -6.85989e-06 -6.57637e-18)
(-0.00063606 -0.000487855 3.65617e-18)
(0.00226117 0.00214683 -9.0457e-18)
(-0.00280367 -0.000997702 6.87696e-18)
(-0.000907766 -0.00196661 -2.63333e-19)
(-0.000408667 -3.50554e-06 7.53318e-19)
(-0.0007196 -0.00321669 -2.10001e-18)
(-0.00162091 -0.00321074 4.58746e-18)
(0.00954536 -0.00131357 2.30131e-18)
(-0.000766733 -0.0057465 4.7543e-19)
(-0.000224419 6.51648e-05 -2.84865e-18)
(-0.000399502 -0.000123028 3.13981e-18)
(-0.000801321 -0.00347635 6.59829e-19)
(0.0198853 -0.00213922 -1.26277e-18)
(-0.000160452 8.81398e-05 -1.60435e-17)
(0.0207409 -0.00181857 1.46025e-18)
(0.00810837 -0.00073812 3.01718e-18)
(-0.00207287 -0.00355372 -1.97069e-18)
(-0.000509143 -0.000261218 -9.0644e-20)
(0.00164827 0.00386435 -1.04226e-16)
(-0.00085698 -0.00331389 -5.99995e-18)
(0.00139055 -0.000346177 -5.46107e-18)
(-0.000371065 -9.39829e-05 3.57287e-18)
(0.0046532 -0.0130161 -3.68306e-17)
(-0.000496367 -0.000299007 -9.85478e-19)
(0.0011948 -0.00368957 1.15243e-18)
(-0.000530724 -1.43467e-05 6.76497e-19)
(0.0167319 -0.00088076 9.60574e-19)
(0.0157234 -0.00576658 -4.83209e-18)
(2.5667e-07 -0.000347309 -1.46761e-18)
(0.00145089 -0.000272107 -2.00246e-17)
(-0.000227315 -0.00165136 -2.23646e-19)
(-0.000527429 -0.000242773 -1.29103e-18)
(-0.00175132 -0.00399399 1.07444e-19)
(-0.00229718 -0.00333145 -1.41036e-18)
(0.000505409 -0.00248636 -2.55441e-18)
(0.0161855 -0.00213376 2.1032e-18)
(0.00734331 -0.000484475 -1.45111e-18)
(-0.000490887 -7.15449e-05 -4.33132e-18)
(0.000140794 -0.00126327 4.24491e-19)
(0.0152463 -0.00207522 7.16805e-18)
(-0.00154744 0.00192863 -1.30927e-17)
(-0.00012091 4.69321e-05 -5.31315e-18)
(-0.000413269 -8.07575e-05 2.18079e-18)
(0.014125 -0.00134638 1.06505e-17)
(-0.00169249 -0.00389351 -5.05255e-19)
(-2.90725e-05 1.57756e-06 -8.89568e-19)
(-0.00239661 -0.00392116 2.73342e-18)
(-0.000256697 -0.00409432 -5.07691e-18)
(-0.000261476 0.0010452 -3.81398e-18)
(0.000334328 -0.00169162 -9.97458e-19)
(-8.36903e-05 4.3045e-05 -1.02506e-17)
(0.000949348 9.57296e-05 -1.59596e-18)
(0.00936217 -0.000670472 2.24749e-18)
(-0.000565156 -0.000846403 -1.0652e-18)
(0.00214937 -0.00313848 7.1884e-18)
(0.000786063 0.00257184 -2.85205e-17)
(-0.000735536 -0.00073119 -1.40431e-19)
(-0.000393594 -0.000112475 1.13931e-17)
(-0.00156164 -0.003305 1.53449e-19)
(0.0146934 -0.00141554 -1.93815e-19)
(-0.00164316 -0.00344869 -1.62239e-18)
(0.000388506 0.000222689 4.36545e-18)
(8.01312e-05 -0.000116365 -5.78975e-19)
(-9.38416e-06 2.87e-06 -6.99573e-18)
(0.0138322 -0.000873365 -5.06101e-18)
(-0.000220059 -0.00710705 5.23027e-18)
(-0.00218532 -0.00389704 2.92289e-18)
(-0.000535785 -0.000241798 4.07488e-18)
(0.0071141 -0.000952372 1.51251e-17)
(0.0136459 -0.000588154 2.99907e-18)
(-0.00143709 -0.0037822 1.02394e-18)
(0.0191647 -0.00170229 5.09891e-19)
(-0.00205353 -0.00322974 3.64879e-18)
(-7.49659e-05 4.86459e-05 5.8572e-18)
(-0.000500359 -9.71732e-06 6.60552e-19)
(-0.000605524 -0.00324716 1.92805e-18)
(0.0152268 -0.000852848 -9.30096e-19)
(-0.00122486 -0.0042477 4.44233e-18)
(-0.000620841 -0.00152841 9.10673e-19)
(-0.00046668 -0.00576941 -7.89053e-18)
(-0.00159248 -0.00264625 -1.83715e-18)
(-0.000370604 -7.29127e-05 4.18253e-18)
(-0.000203431 -0.0059147 -9.6815e-18)
(-0.000266251 -3.36424e-07 5.08737e-18)
(-0.00480296 -0.0051727 7.37859e-18)
(-0.00087124 -0.00191724 -1.04263e-19)
(-8.14344e-05 1.54201e-06 2.12164e-18)
(5.77391e-05 -0.000377576 2.0882e-18)
(0.000705848 -0.000431465 1.69276e-18)
(-0.000204599 0.001085 -3.48284e-17)
(-0.00234912 -0.0039409 -2.92382e-18)
(0.000367308 -0.000297618 1.09326e-17)
(-0.000579796 -0.000930189 6.43444e-20)
(0.000699756 -0.00566239 3.89337e-18)
(0.0149083 -0.00229627 4.96899e-19)
(0.00510772 -0.00660496 5.53069e-18)
(-0.000372755 -8.43204e-05 1.10133e-17)
(-0.00238191 -0.00380458 4.42275e-18)
(-2.43601e-05 0.000104737 -2.94302e-18)
(-0.000602634 -0.000931074 1.4344e-18)
(-0.000338514 -1.48483e-05 8.24318e-19)
(0.00231754 0.00331734 -5.05273e-18)
(-0.000313157 1.70333e-08 7.51066e-18)
(0.000933004 -0.00380133 1.67722e-17)
(0.000424925 -0.00161185 1.76573e-18)
(-0.000603971 -0.000652577 -2.52412e-18)
(-0.000834671 -0.00325033 7.36378e-19)
(-0.000452573 -0.000871996 -1.72331e-18)
(-0.000475229 0.00462444 -4.90896e-17)
(0.000953629 -0.000286474 6.3725e-18)
(0.00155872 -0.00279761 -1.09846e-17)
(-0.000901918 -0.00059142 -4.19267e-18)
(-0.000379654 -0.00010669 -3.20711e-18)
(0.00227413 -0.000711964 1.59871e-17)
(0.0140712 -0.000859855 -2.976e-18)
(-0.000341651 -2.78187e-05 -5.89335e-19)
(-0.000511057 -1.20485e-05 -3.39749e-18)
(0.000906383 -0.00602481 6.21937e-18)
(-0.000521019 -0.00035637 5.69462e-18)
(0.0114504 -0.00189192 2.86232e-18)
(-0.000804855 -0.00056645 1.93532e-18)
(0.0172826 -0.000888199 6.02654e-19)
(-0.000650255 -0.0010809 -1.93825e-18)
(0.0048109 -0.000930785 -8.51144e-18)
(-0.000707225 -0.00254184 -9.59151e-19)
(0.000722465 0.00538062 3.7632e-17)
(-1.31944e-05 0.00017716 -1.47866e-19)
(0.000958324 -0.00598939 4.45408e-18)
(0.00131239 0.00337763 -2.80077e-17)
(4.96231e-05 -0.000413697 -1.28222e-17)
(-0.00171506 -0.00391234 -3.10253e-18)
(0.00305422 0.00240229 6.34841e-20)
(-0.000373477 -0.000211394 6.31992e-18)
(0.0158399 -0.00103897 -2.38759e-19)
(-8.33181e-05 0.00234935 1.12661e-17)
(0.0140605 -0.000562853 -3.66823e-18)
(-2.69792e-05 0.000317092 -2.21744e-17)
(0.0138868 -0.0012084 -4.72408e-18)
(0.000258935 -0.00136668 1.5724e-18)
(0.00516343 -0.00227805 -5.44553e-17)
(0.000993761 0.00312299 2.64322e-18)
(0.00181507 0.0012289 -1.18901e-17)
(0.0016764 0.00109226 -1.14686e-17)
(0.0205685 -0.00147764 7.14334e-19)
(-7.96864e-05 6.5277e-05 -3.60265e-18)
(0.000964305 -0.000754909 -3.56924e-20)
(0.0048925 -0.00136513 -5.75109e-18)
(-0.000294018 -2.65577e-05 3.45747e-18)
(-0.00021751 -0.000382269 -1.46428e-17)
(0.0138625 -0.000616649 -2.9051e-19)
(0.00209093 0.00231292 1.05653e-17)
(-0.000470172 -0.000512867 2.44839e-18)
(-0.00216681 -0.00385899 -6.82007e-19)
(0.00212887 0.00334039 -3.50579e-17)
(-0.000456795 -8.2183e-05 3.28614e-18)
(0.0136983 -0.000960672 -9.58201e-19)
(-0.00205653 -0.00388258 -2.47041e-18)
(-0.000292813 -1.91755e-06 -1.69923e-18)
(-0.000452705 -0.000157474 -6.30096e-19)
(2.23509e-05 0.000102863 3.60371e-18)
(-0.000192434 -0.000398381 7.48702e-19)
(0.000585244 -0.00560374 -1.6155e-17)
(-0.00475682 -0.00566858 -2.25773e-18)
(-0.00149232 0.00368194 -4.09631e-17)
(0.00374981 -0.000958464 -9.82994e-18)
(-0.000311421 6.73859e-06 7.95523e-19)
(0.00245396 -0.00324967 -7.61353e-18)
(-0.00149355 0.00222179 -5.20256e-17)
(-0.00103029 -0.00292479 1.05137e-18)
(0.0208012 -0.00180359 2.49912e-19)
(0.0160412 -0.000992852 -4.49423e-18)
(0.0178609 -0.00537228 4.77448e-18)
(-0.000497656 -0.000133486 1.90283e-18)
(-0.00161616 -0.00384467 -2.44625e-18)
(-0.000512005 -0.00017646 4.89934e-18)
(0.00362134 -0.0104639 3.66646e-17)
(-0.000677648 -0.000783207 2.39695e-18)
(0.000852283 0.00565845 -6.96146e-17)
(-0.000260335 -0.00413265 1.19015e-17)
(-0.000963337 -0.00170592 5.6465e-19)
(-0.000113845 7.37754e-05 7.65705e-18)
(-0.000850486 -0.00342945 -6.81412e-18)
(0.00192119 -0.0031074 1.30815e-18)
(-0.000645768 -0.0037493 -3.61037e-18)
(0.00325001 0.00807147 3.25539e-18)
(0.00322651 -0.00170077 2.79433e-17)
(0.000643545 -5.77278e-05 1.87503e-18)
(0.00113026 9.68558e-05 8.23359e-18)
(0.00121294 -0.00205159 -4.43901e-18)
(-0.000415579 -7.27897e-05 -3.41931e-18)
(-0.00133222 0.00191901 5.8504e-18)
(0.019951 -0.00178694 -2.22254e-18)
(-0.000413483 -0.000186423 -1.3229e-18)
(0.000694969 -0.00590471 5.9894e-18)
(-0.000212462 5.8588e-05 3.44714e-18)
(-0.000232104 -0.00537975 -4.89537e-18)
(-0.000641997 -0.00107816 3.81291e-19)
(-8.38652e-05 6.12115e-05 -4.53229e-18)
(-0.000338045 -0.000790619 -3.783e-18)
(0.0183698 -0.00157711 1.944e-18)
(-0.000302676 -0.00076396 2.60676e-18)
(0.0151924 -0.00141022 -4.27546e-19)
(-0.0044701 -0.00442043 1.48871e-18)
(-0.00156903 -0.00367652 -2.07151e-18)
(0.00100819 0.00356934 -6.6086e-17)
(-0.000369603 -0.000226429 1.42364e-17)
(0.001351 0.00360579 5.6521e-17)
(0.00105083 0.00351744 -6.06489e-17)
(-0.000334116 -7.43659e-06 1.22202e-18)
(0.00208377 0.00250721 4.38333e-18)
(-0.000311397 -2.91593e-05 1.11141e-17)
(-0.000233098 4.83681e-05 5.12679e-19)
(0.00134233 -0.00353783 -1.15054e-19)
(-4.65514e-05 4.14233e-06 6.89718e-18)
(-0.000201553 2.9884e-05 -9.38982e-20)
(-0.000437813 -0.000176728 -4.62045e-18)
(0.000638237 -0.00543826 -7.09815e-19)
(-3.41536e-05 4.50189e-05 -2.41507e-19)
(0.014418 -0.00124024 2.08901e-18)
(0.0188921 -0.00180502 -6.57826e-18)
(-0.00259583 0.000583629 5.0975e-17)
(0.00320073 -0.00350897 5.61493e-18)
(0.0160022 -0.0014805 -2.38817e-18)
(0.00305318 -0.000382467 1.18723e-18)
(-0.000977503 -0.00288972 -1.55562e-18)
(-0.000302597 1.10432e-05 -7.75922e-18)
(0.000216793 -0.00479915 4.21584e-18)
(-0.00112419 -0.0017168 6.70755e-20)
(0.000143782 -0.00132509 -5.91562e-19)
(-0.000250599 4.56197e-05 5.17358e-18)
(-0.00129419 -0.005684 -1.98506e-18)
(0.0203067 -0.00196459 3.55426e-18)
(0.0182389 -0.00191457 2.33831e-18)
(-4.98079e-06 -0.000212468 2.99502e-18)
(-0.000546342 -0.00427527 -4.95677e-18)
(-8.00401e-05 0.000304955 1.45714e-17)
(-0.0010873 -0.00179337 2.74866e-19)
(-0.000572001 -0.00371008 6.69942e-18)
(-0.000386092 -0.000585132 2.30662e-18)
(-0.00230375 -0.00382029 4.51779e-18)
(-0.00055436 -0.000505952 -3.21632e-18)
(-0.000295163 -8.11878e-10 4.1716e-18)
(0.012607 -0.00223651 -3.87284e-18)
(0.0162115 -0.00134131 -4.53441e-18)
(0.0165717 -0.00139203 3.98007e-18)
(0.00259121 -0.00208137 1.03674e-17)
(-0.00197685 0.000424946 -1.75868e-17)
(0.0165451 -0.00106737 1.81797e-18)
(0.00950765 -0.00195793 -3.48003e-18)
(0.0134379 -0.000612494 5.50668e-18)
(-0.00042026 -9.49709e-05 1.57722e-18)
(-0.000636814 -0.00337725 -6.30268e-18)
(-0.000389349 -0.000602112 -2.78779e-18)
(-0.000310565 -0.000104906 9.79818e-19)
(-0.000495659 -0.0056633 3.75836e-18)
(-0.000740408 -0.00328271 -3.11836e-18)
(-0.000196388 -2.35079e-05 2.20166e-18)
(0.000225754 -0.00332263 1.08387e-17)
(-0.00084594 -0.00283658 -3.54509e-18)
(0.0135675 -0.000588634 6.02441e-18)
(-0.000325093 -1.61365e-05 5.85979e-18)
(-0.00132556 -0.00397083 -1.57795e-17)
(-0.0150078 0.0056044 2.56568e-17)
(0.00591146 -0.00105561 -1.04372e-18)
(0.0147469 -0.00123719 6.09479e-19)
(-3.25429e-05 4.16111e-05 -1.68088e-18)
(-0.000466295 -0.00017469 -1.73036e-18)
(-0.000511809 -1.16256e-05 4.54634e-18)
(0.000555444 -0.000951267 1.3833e-18)
(-0.000454452 -0.000125889 5.65565e-18)
(0.0193833 -0.00181023 4.72502e-18)
(-0.00131678 0.00352445 3.23415e-17)
(0.000401744 -0.000344564 1.33319e-17)
(-0.0009206 -6.64216e-05 -3.89611e-17)
(-0.000320135 -0.0018626 -4.55452e-19)
(-0.00183226 -0.00375275 3.47421e-20)
(0.0120013 -0.00234875 4.67483e-20)
(0.00237309 0.00309435 1.69524e-18)
(-0.00155385 -0.00365605 3.33975e-18)
(-0.00223714 -0.00393647 6.76371e-19)
(-0.000944773 -0.00396189 1.80345e-17)
(0.000941278 -0.00309806 -3.54486e-18)
(-0.000373835 -0.00476643 1.93793e-18)
(-0.00119351 -0.00281454 -1.79068e-18)
(-0.00184909 -0.00370246 -4.24505e-18)
(3.65048e-05 0.00342796 2.38475e-18)
(-0.00148652 -0.00287744 -1.61546e-18)
(-0.000539702 -0.00373674 -4.29492e-18)
(-0.000495131 -2.5372e-05 -6.26148e-18)
(0.000297899 -0.00589192 -4.96119e-18)
(-0.000920267 -0.0020963 3.83252e-19)
(-0.000551475 -0.000505387 -4.63614e-18)
(0.000358702 -0.000926666 -1.76841e-18)
(-0.000674575 -0.00125583 -1.13353e-18)
(0.0136605 -0.000631261 3.96607e-19)
(0.0165894 -0.00527474 -1.92774e-18)
(-0.000512469 -0.000335059 -1.31081e-18)
(-0.000384072 -5.95473e-05 2.05866e-18)
(0.0185336 -0.00222534 -2.71232e-18)
(0.00240206 -0.00013077 -8.02751e-18)
(-6.49882e-05 3.11944e-06 -2.71745e-18)
(0.0142608 -0.0011913 -1.06185e-18)
(-0.000742761 -0.00133574 -4.3147e-19)
(0.0023522 -0.00363751 -1.1726e-17)
(-0.000549001 -0.000340685 2.51159e-18)
(0.00754052 -0.000995519 8.43762e-19)
(-0.00160001 -0.00495908 5.81564e-18)
(5.46427e-05 -0.00117472 1.33605e-18)
(-0.00128512 -0.000845554 4.73261e-18)
(0.0165139 -0.00151633 1.17613e-18)
(0.00538574 -0.00408993 -1.97136e-17)
(-0.00405751 0.0012552 -1.15867e-16)
(-3.80828e-06 3.86327e-06 2.52235e-18)
(0.00880297 -0.000811252 -3.64188e-18)
(-4.81927e-05 0.0046012 -1.09558e-16)
(0.00135884 -0.00684714 3.95573e-18)
(-0.000591138 -0.000514514 3.57818e-18)
(-0.00244807 0.00147437 -2.93956e-17)
(0.0157283 -0.00510361 -8.34507e-18)
(-0.00100219 -0.00291126 1.7015e-18)
(-0.000448392 -0.000165857 -3.7049e-18)
(-0.000427191 -0.000383714 -4.48161e-18)
(-0.00196744 -0.0031746 -4.96367e-18)
(-0.000410496 -0.00546022 -8.44973e-18)
(-0.000122888 -2.98443e-05 -7.28734e-19)
(-0.000449465 -0.000145538 3.06255e-18)
(-0.000409174 -2.23426e-05 -4.00751e-18)
(-0.000409983 -2.58792e-05 -1.39693e-18)
(0.0062976 -0.000754404 -7.5273e-18)
(-0.000460048 -0.00563037 5.11413e-18)
(-0.00103734 -0.00288308 -4.387e-19)
(0.00315588 -0.00452136 -2.43987e-17)
(-0.00046748 -6.99834e-06 6.14569e-19)
(-0.00047115 -0.000104143 -5.90947e-18)
(-0.000484793 -0.00421742 7.872e-18)
(0.0202626 -0.00375954 7.60642e-18)
(-0.000144458 -0.00222459 -1.54434e-18)
(-0.000672538 -0.000694079 -3.6037e-18)
(-0.0002492 4.25429e-05 6.45271e-19)
(-6.23181e-05 0.000109814 -7.14101e-18)
(0.000694025 -0.00663864 7.77019e-18)
(-0.00181378 -0.000458894 -3.05523e-17)
(-0.000159105 3.06072e-05 6.11143e-18)
(-0.000161664 0.00010488 9.27191e-19)
(-0.00164389 -0.00383913 -4.3079e-18)
(-0.00118296 -0.00279572 2.09151e-18)
(-0.000773523 -0.00254008 -4.35495e-18)
(-0.000436803 -0.000151532 9.07359e-18)
(-0.000433288 -0.000730388 5.78712e-18)
(-3.53452e-05 -0.000962162 2.11124e-19)
(-0.00126168 -0.00371044 3.80709e-18)
(0.00278546 0.0020936 -2.82732e-18)
(0.0028958 -0.00456159 -2.57058e-18)
(0.000336556 -0.00485752 -9.13916e-18)
(-0.000793295 -0.00408499 -1.67578e-17)
(-0.00070904 -0.00578008 1.02992e-18)
(0.00144303 -0.00286164 -1.35501e-17)
(-0.000353758 -6.98718e-05 -8.63703e-19)
(0.00949408 -0.000864276 -1.71235e-18)
(-3.80849e-05 0.000109235 6.14431e-18)
(-0.000170007 -0.000392248 2.01206e-17)
(-0.000997004 -0.00168655 -1.9224e-19)
(0.000467948 -0.00582892 7.62862e-19)
(0.00156142 0.000387679 8.58726e-18)
(-0.000516441 -2.39299e-05 1.44824e-18)
(0.00569468 -0.00145747 -1.68075e-17)
(0.00101836 -0.00387518 -2.90969e-18)
(0.00628865 0.00252183 -3.0307e-17)
(-0.000771682 -0.00409548 -8.0679e-18)
(0.000519558 0.00062569 3.37725e-17)
(-0.000890096 -0.00289412 -1.30457e-18)
(-0.000111769 7.81072e-05 -8.5437e-18)
(0.00907647 -0.00556164 -5.32662e-18)
(0.00498842 -0.00133667 -4.12184e-18)
(0.0204209 -0.00117557 3.94504e-18)
(-0.000520742 -0.00048931 1.49788e-18)
(-0.000611813 -0.0021082 -2.49211e-19)
(0.00257201 -0.0046621 1.00136e-17)
(0.0164183 -0.00110782 8.29262e-20)
(0.00299664 -2.60862e-05 -6.32234e-18)
(-0.000852227 -0.00359401 -2.21679e-18)
(0.00286963 -0.00216699 7.81499e-18)
(3.17523e-05 -0.000286426 2.42733e-18)
(-0.000428288 -0.00121843 1.49919e-18)
(-0.000358578 -0.000148294 6.23549e-20)
(0.00106805 0.000911827 1.06168e-17)
(0.000761862 0.00205469 1.26714e-17)
(-9.89631e-05 8.91181e-05 2.64806e-18)
(-0.000863196 -0.00327946 -8.80722e-20)
(0.000790298 0.00253003 3.14577e-17)
(0.0206665 -0.00114078 -1.67251e-18)
(-0.00380784 0.00118415 1.10558e-16)
(-0.000304595 -0.000794282 1.0064e-18)
(-0.00169349 -0.00371764 9.68565e-19)
(-0.0022783 -0.00486823 -3.38175e-18)
(0.000102318 -0.000425578 -1.25139e-17)
(-0.000112906 7.2385e-05 -5.08413e-18)
(0.00125581 0.00536396 -6.31071e-17)
(0.000978508 -0.00748147 -1.87439e-18)
(0.00736983 -0.00435404 -1.55444e-18)
(0.00226864 -0.00466108 -1.26056e-17)
(-0.000401926 -0.000110533 -1.10356e-19)
(0.0139872 -0.0010354 -2.27167e-18)
(-0.001952 -0.00316345 3.34813e-18)
(-0.000560358 -1.69471e-05 -7.27994e-18)
(0.00031593 -0.00184485 1.43367e-18)
(-0.00146542 -0.00353159 4.40022e-19)
(0.000291829 0.000801757 -1.70612e-17)
(0.00110728 -0.00362217 -8.40059e-18)
(0.0197727 -0.00166955 1.3735e-18)
(-0.0004405 -0.00469972 1.9437e-18)
(-0.00121438 -0.00266416 -4.58354e-18)
(0.00919215 -0.00547047 -1.29829e-17)
(-0.000573874 -0.00129608 1.79787e-18)
(0.012887 -0.00050711 -2.13652e-18)
(-6.30304e-05 4.55208e-05 4.12922e-18)
(-0.000171775 3.01542e-05 -5.42165e-18)
(-0.00274327 -0.00376598 -4.62959e-18)
(0.00290347 -0.00741053 -4.54912e-18)
(0.00058066 0.00376136 -1.24531e-17)
(-0.000621028 -0.0013137 2.50206e-20)
(-0.000444209 -0.000485353 2.5496e-18)
(-0.000161175 0.000104254 8.12687e-18)
(-0.0015163 -0.0026825 1.0512e-18)
(-7.37955e-05 0.00515975 1.05206e-17)
(-0.00185521 -0.0034851 3.01524e-18)
(-0.000407701 -0.00126292 5.28704e-19)
(-0.00189144 -0.00363635 -6.30946e-18)
(-0.000929965 -0.00339421 5.27679e-18)
(-0.00049687 -0.0003436 -1.07575e-17)
(0.00307746 -0.00162429 3.39233e-17)
(-0.00190251 -0.00346135 3.23902e-18)
(-0.00169587 -0.00365049 9.33406e-21)
(-0.000421882 -0.000131001 4.14378e-18)
(-0.00054397 -0.00465341 1.18324e-17)
(-0.000638987 -0.00122732 7.20121e-19)
(-0.0109018 -0.0115943 9.36923e-19)
(0.00148387 -0.00220253 7.57423e-19)
(0.00157379 0.000269521 -2.44232e-18)
(-0.000356461 -0.00211366 1.22465e-18)
(-0.0004705 -4.20489e-05 -5.09329e-19)
(-0.000493692 -0.000466201 9.21529e-19)
(-0.00139995 -0.000787792 1.42704e-18)
(0.00187278 0.000921344 -1.18014e-17)
(-1.35476e-05 0.0005042 -3.04671e-17)
(0.00142144 -0.00514311 4.74925e-18)
(0.00324714 0.00480881 -1.1339e-17)
(-0.000849 -0.00334303 -2.87068e-18)
(-0.000453011 -7.67812e-05 -4.75283e-18)
(-0.000451024 -0.00469379 -5.11601e-18)
(0.000788679 0.00382059 1.28024e-16)
(-0.000975871 -0.00380842 -4.68424e-19)
(-0.000587015 -0.000824006 9.88816e-19)
(-1.81851e-05 0.00043071 7.49031e-18)
(-0.000419366 -0.000136312 1.54247e-19)
(-0.00108366 -0.00217291 1.10846e-18)
(-0.000449394 -0.00159344 3.56747e-19)
(0.0168613 -0.00479843 5.80241e-18)
(-8.10145e-05 5.70381e-05 -2.39916e-19)
(-0.000290935 -0.00238423 -7.54145e-18)
(-0.00094481 -0.00215957 1.86719e-18)
(-0.00158193 -0.00374364 1.51563e-18)
(0.00194015 -0.00267803 -6.61547e-18)
(0.00949277 -0.00151627 1.78961e-18)
(0.00170544 8.85343e-05 -3.90568e-18)
(-0.000468805 -0.000371527 5.34031e-18)
(0.0145373 -0.000907332 -5.42085e-18)
(0.00380257 6.79226e-05 -7.54739e-18)
(-0.000411949 -0.000277156 -6.48585e-18)
(-0.00102933 -0.00166176 3.95504e-19)
(-0.00108964 -0.00522747 -2.83239e-18)
(0.00289182 -0.00446276 2.71952e-17)
(-0.00125389 -0.00419296 -3.66918e-18)
(-0.000104948 3.71195e-06 1.82655e-18)
(-0.0013926 -0.000875646 -1.55898e-18)
(0.00433327 -0.000990682 -1.95753e-17)
(-0.000949353 -0.00173421 -1.15442e-18)
(-0.000515984 -0.00370636 6.22637e-18)
(-0.00161229 -0.00327039 -1.05951e-18)
(-0.000441291 -0.000481206 -7.82733e-19)
(-0.00161537 -0.00318901 -1.82914e-18)
(0.0189888 -0.00171823 4.3705e-18)
(-0.000583357 -0.000806343 9.01378e-19)
(-0.000811213 -0.00130134 -4.82559e-20)
(-0.000387324 -2.04183e-05 8.77887e-19)
(0.0139186 -0.000919649 -2.60585e-18)
(3.50377e-08 3.41298e-05 -1.12883e-17)
(-4.87433e-05 -0.000216455 -4.31428e-18)
(-0.00228218 0.000184653 -9.92193e-18)
(-0.000214687 -0.000277245 1.21735e-18)
(-0.000235142 -0.00767391 3.34479e-18)
(-0.000293126 -0.00156969 -4.03247e-19)
(0.000318375 0.000884063 3.9428e-17)
(-0.000382733 -2.37884e-05 3.38312e-18)
(0.00105347 -0.000281182 9.70039e-18)
(-0.000323154 -3.83329e-06 -3.76231e-18)
(0.0005535 -0.00300743 2.96514e-18)
(-0.000479467 -2.51113e-05 3.83544e-18)
(0.00214712 -0.000504859 1.6899e-18)
(-0.000685755 -0.00132544 5.14784e-19)
(-0.011687 0.00145053 -4.74995e-17)
(0.00239527 0.00521948 -2.99405e-17)
(0.0198911 -0.00362302 -9.563e-19)
(-0.00051788 -1.09673e-05 2.21888e-18)
(-0.000104062 7.22955e-05 3.94981e-18)
(0.00132919 -0.00279385 2.5366e-18)
(0.000891648 -0.00215448 4.3897e-19)
(0.0142724 -0.000726542 3.3944e-19)
(0.0208512 -0.00477162 -5.50213e-20)
(-0.000373921 -0.00322662 4.42102e-19)
(-0.000265858 5.8011e-05 1.12433e-18)
(0.000591511 -0.00537723 1.16455e-18)
(0.000533628 0.00378171 -1.13896e-16)
(-0.00198218 -0.0036893 9.37673e-19)
(0.00104498 -0.00505505 -1.58437e-18)
(-0.000588852 -0.00318351 -5.97635e-18)
(0.0187935 -0.00176725 -4.53059e-18)
(0.000928314 -0.00140948 2.86431e-19)
(-0.00160973 -0.00260378 1.33075e-18)
(0.000341456 -0.00457567 -1.86609e-17)
(0.002051 0.00206999 -1.91114e-18)
(-3.12476e-05 -0.0031653 2.71937e-19)
(0.000752649 0.00409841 6.20541e-17)
(1.0323e-05 -0.0031165 3.05849e-18)
(-0.000919519 -0.0014835 8.28851e-20)
(-0.00116087 -0.00356651 4.4012e-18)
(5.97123e-05 -0.000466459 1.07499e-17)
(-0.00055991 -0.00062083 2.33834e-18)
(-0.000700701 -0.00214492 -9.66743e-19)
(0.00101773 -0.00188765 -8.71702e-19)
(6.29167e-05 -0.00107285 2.06025e-18)
(-0.000309255 1.34142e-05 2.61664e-18)
(-0.000464482 -6.66323e-06 2.80697e-18)
(-0.000996762 -0.00337235 -5.96957e-18)
(-0.000831843 -0.00147683 1.47322e-20)
(-0.000353322 -0.00374315 -8.84922e-18)
(-0.00022605 6.39297e-05 -1.82538e-18)
(-0.00022089 7.71362e-05 -4.65597e-18)
(6.1744e-06 2.91563e-05 9.26083e-18)
(-0.000266445 -0.0006682 4.41857e-18)
(-0.00037458 -0.000256435 1.00797e-18)
(-0.000209258 -0.00106385 -1.05606e-18)
(-0.000385106 -1.81693e-05 -4.90163e-18)
(0.00721758 -0.000869279 -1.93247e-18)
(-0.00192059 -0.00310759 -8.09517e-19)
(-0.00150199 0.00328804 -7.91324e-19)
(-0.000466724 -0.000115242 -2.94048e-18)
(-5.01797e-05 2.73792e-05 1.00801e-18)
(0.000601736 0.00123063 -4.73319e-17)
(0.000659082 -0.00318847 7.65284e-19)
(-0.000116042 0.000152984 9.74609e-18)
(-0.00156625 -0.00562737 -1.99206e-17)
(0.00191951 -0.00163666 3.58221e-18)
(0.00483549 -0.00976226 6.77609e-17)
(-0.000695105 -0.00217115 -2.01562e-18)
(-0.000341233 -0.00443924 6.04536e-18)
(-0.000676212 -0.00114682 -1.38006e-18)
(-1.10586e-05 2.61461e-05 2.49297e-18)
(-0.000443189 -2.39213e-05 -4.21367e-18)
(-0.000393738 -0.000844174 -1.60006e-19)
(-0.00553474 0.000575035 1.09411e-17)
(-2.61231e-05 2.34195e-05 -2.19477e-18)