/*--------------------------------*- C++ -*----------------------------------*\
| =========                 |                                                 |
| \\      /  F ield         | OpenFOAM: The Open Source CFD Toolbox           |
|  \\    /   O peration     | Version:  v2012                                 |
|   \\  /    A nd           | Website:  www.openfoam.com                      |
|    \\/     M anipulation  |                                                 |
\*---------------------------------------------------------------------------*/
FoamFile
{
    version     2.0;
    format      ascii;
    class       surfaceScalarField;
    location    "750";
    object      phi;
}
// * * * * * * * * * * * * * * * * * * * * * * * * * * * * * * * * * * * * * //

dimensions      [0 3 -1 0 0 0 0];
oriented        oriented;


internalField   nonuniform List<scalar> 
20673
(
-0.15828
0.157884
0.000406684
0.363521
-0.306412
-0.0570782
0.0288918
-0.0747108
0.0458192
0.143466
-0.26989
0.126408
-0.363927
-0.114344
0.478292
-0.0261055
0.00378471
0.0223209
0.05083
-0.0487648
-0.00206629
0.0196693
0.0262442
-0.0459131
0.0349099
-0.058633
0.0237233
-0.0620365
0.149999
-0.0879567
-0.0962143
0.0992228
-0.00300746
0.147744
-0.00072389
-0.147021
-0.0982523
0.0127309
-0.0014897
-0.0112414
0.194664
-0.0265274
-0.168124
0.241516
-0.233041
-0.00845725
-0.0959334
0.29394
-0.197978
0.128603
-0.15142
0.0228202
0.143156
0.00458789
0.337824
0.264383
-0.602162
-0.380397
0.573853
-0.193449
0.0513124
-0.000482411
-0.599776
0.335892
0.263922
0.0703102
-0.0506407
-0.313301
-0.0548034
0.368135
-0.00105352
0.0451814
-0.0441276
-0.10882
0.0728638
0.0359559
-0.0978292
0.0450636
0.0527643
-0.0610704
0.0438507
0.0172205
-0.134942
0.0939913
0.0409543
0.15251
-0.157351
0.00485034
0.193637
-0.195634
0.0020128
-0.103287
0.135791
-0.0325041
0.171817
-0.0393853
-0.132431
-0.38499
0.365201
0.0198072
0.085428
-0.0998925
0.0144652
-0.366091
-0.233647
-0.00954781
-0.0144941
0.0240422
-0.177061
-0.0578492
-0.0251356
0.00101868
0.0241165
-0.582161
0.592576
-0.0103347
0.685177
-0.394228
-0.290945
0.364312
-0.535494
0.171169
-0.0411291
-0.0258068
0.0669348
-0.172333
-0.147669
0.32002
0.0861811
0.080312
-0.166493
0.13781
-0.0092013
-0.0159598
-0.103118
0.119076
0.00235548
0.00512859
-0.00748405
-0.683531
0.438564
0.245038
0.0388429
-0.157716
0.118904
-0.288399
0.0417798
0.246624
0.000258159
0.00209739
0.0464968
0.12532
0.172602
-0.268509
0.201062
-0.21677
0.0157375
-0.106225
0.010008
0.27687
-0.349769
0.0729286
0.0749179
0.161348
-0.236248
-0.326997
0.154684
-0.0407875
-0.0391024
0.0798904
0.154355
0.209201
0.0127307
-0.166108
0.503977
0.00903439
-0.0351397
-0.0885609
0.0907384
-0.00217656
-0.515425
0.320891
0.257496
-0.362365
-0.094293
0.0950769
-0.000784086
-0.163633
0.173623
-0.00997894
-0.525846
0.161939
-0.0249673
0.0598773
0.00348005
0.0107676
-0.0142473
0.137491
-0.450761
-0.00202541
-0.00726543
0.00929091
-0.0240036
0.141611
-0.117611
-0.00994589
-0.00389077
0.0138369
0.0653285
0.191149
-0.256464
0.0451821
-0.0459664
0.0007844
-0.6127
0.322622
0.290087
-0.329742
0.602411
-0.272645
-0.258687
0.01405
0.018445
-0.0324955
0.0221888
-0.0317363
-0.00381745
-0.00287291
0.00669078
-0.211796
0.277138
0.367394
0.20683
-0.574194
-0.0905592
0.00199921
0.202325
-0.16348
0.513598
-0.149301
-0.0087131
-0.0104712
0.0191845
0.116453
-0.014331
-0.102117
-0.0443207
0.360855
-0.316498
-0.263146
0.0614763
0.201682
-0.0423448
-0.0482137
0.0197146
-0.0363482
0.0166334
0.0831617
-0.115742
0.0325806
0.118933
-0.000580916
-0.118351
-0.0572566
-0.0400292
0.0972841
0.0564292
-0.0599765
0.00354653
-0.45758
0.559576
-0.101949
0.127102
-0.00110814
-0.125994
0.0249795
-0.0661097
-0.266281
0.074311
0.191978
-0.480371
0.0849161
0.395493
0.0702141
-0.059036
-0.0111781
-0.0123931
-0.05342
0.0658146
0.0867048
-0.102662
0.0934429
0.200528
0.148739
-0.147125
-0.00159892
-0.00577281
-0.000388787
0.00616188
-0.00375024
-0.0213858
-0.101655
0.125214
-0.023563
0.0684683
0.00174594
-0.272294
0.109489
0.162806
0.0136466
-0.0119226
-0.00172392
-0.365899
0.499763
-0.133821
0.011399
-0.00656137
-0.00483768
-0.0198054
0.0232389
-0.00343315
-0.0678096
0.162824
-0.0950141
0.50404
0.18114
-0.0880229
-0.00627279
0.00350343
0.0173997
-0.0209031
-0.0478552
-0.0499752
-0.611705
0.124069
0.487703
-0.238513
-0.0246178
0.0926397
0.220681
-0.313297
-0.537286
-0.0743393
-0.490789
0.585864
-0.0950775
0.0234993
0.0207201
-0.0285681
0.00784816
-0.0737191
-0.198573
0.151443
-0.299094
0.20176
-0.582153
-0.112013
0.0530154
0.0589987
0.0175663
0.0527442
-0.00632524
-0.151941
0.0494272
0.00700043
-0.116754
0.437646
0.108551
-0.176361
-0.0925948
0.105099
-0.0125026
0.447434
-0.18592
-0.26151
-0.224481
0.275911
-0.0514208
-0.0711978
0.0311115
0.0400844
-0.0740711
0.331568
0.0689273
0.00304037
-0.0719674
0.0237573
0.0340567
-0.0578124
0.00901592
-0.297409
0.500249
-0.163314
-0.336896
0.211598
-0.211292
-0.000288858
0.147249
0.00204605
-0.149292
0.0027236
0.0109231
0.025413
-0.110668
0.0852546
-0.0693414
-0.0522887
0.121638
0.213781
-0.201571
-0.0121933
0.0120848
-0.0104858
-0.00159852
-0.164907
0.00128654
0.0258179
-0.0818434
0.0560258
0.00192289
-0.0118684
-0.0675079
-0.0445044
-0.155155
0.216674
-0.0615138
-0.0792476
-0.0152423
0.0944897
0.239351
0.361803
-0.601146
0.104372
-0.0212079
-0.129157
0.0275036
0.0326152
-0.089873
-0.195211
-0.0710634
-0.146365
0.143871
0.00249478
0.126817
0.223233
-0.350022
0.0338405
0.0932611
0.150355
-0.133031
-0.0173132
0.00722208
-0.00298547
-0.00423648
0.107633
0.000106177
-0.107746
-0.0162696
0.238468
-0.222173
0.0768027
-0.0659264
-0.0108759
-0.0519634
-0.0591227
0.111093
0.0301994
-0.00947873
0.0059557
0.00544353
0.0845019
-0.0155741
-0.26387
0.400702
-0.136792
0.0146227
0.101835
-0.00242919
0.154949
0.298741
0.148699
-0.091818
0.459242
0.187105
-0.0823718
-0.104727
0.0530198
-0.054073
-0.0375675
0.118889
-0.0813169
0.0164225
-0.00433622
0.140101
-0.14404
0.00394985
-0.0982405
0.0928914
0.005348
-0.00428306
0.0664211
-0.0621378
0.013208
-0.0170252
-0.105863
0.0803187
0.0255455
0.626515
-0.28051
-0.345961
-0.0243474
-0.0209474
0.0452939
-0.0976497
-0.0111715
0.633919
-0.633852
-0.2988
0.254513
0.0147613
-0.0810328
0.0662736
-0.0850407
0.0769485
0.00809347
0.0240803
0.169201
-0.193284
-0.3413
-0.342176
0.151508
-0.000899327
-0.15061
0.144676
0.00257641
0.0113322
-0.00785161
-0.0654802
0.090669
-0.0251887
-0.282904
-0.10207
-0.0830973
0.359996
0.00730092
0.111632
0.0179298
0.0491307
-0.0670603
-0.285415
0.0609444
0.0570278
-0.0479645
-0.00906395
-0.00571079
-0.00222495
0.00793605
-0.000687927
-0.0975554
-0.415405
-0.0649292
-0.0535925
0.0339879
0.0196025
0.138432
-0.00462947
-0.133801
0.00186568
-0.00162434
-0.000241184
-0.491643
0.287492
0.204183
0.0600255
-0.100812
-0.393731
0.129908
0.00610689
0.102029
-0.108131
-0.127905
-0.45419
-0.0173156
-0.00649699
0.0238127
0.0683682
-0.056959
-0.0114091
0.0722999
0.169233
-0.112258
0.027466
0.0847948
0.0438816
0.169912
-0.45214
0.0367809
0.00853867
0.07689
0.116737
-0.00910658
-0.0141567
0.154271
-0.0811689
0.025235
0.0559341
-0.0068222
0.0011115
-0.591576
0.490959
0.100666
0.184235
0.00941746
-0.0263873
0.0176744
0.00150052
-0.00107264
-0.000427387
-0.308257
0.547628
-0.464094
0.442182
0.0219615
-0.0265305
0.00271375
-0.108604
0.0892444
0.0193603
0.400621
-0.602472
0.201857
-0.077359
0.085624
-0.00826503
-0.13048
0.12997
0.000512309
-0.10423
0.0249836
-0.166615
-0.00335145
0.169975
0.583505
-0.221684
0.142245
-0.00562479
-0.136611
-0.0104171
0.0104016
1.58203e-05
-0.282743
0.380394
-0.0976603
0.0596212
-0.12561
0.0659935
-0.030302
-0.0173922
0.0476933
-0.240639
0.333293
-0.286845
-0.0628975
-0.0203949
-0.101855
0.122247
0.00225901
0.0197945
-0.0220535
0.101086
-0.075674
0.11382
0.0732899
0.00374506
0.190931
0.240214
0.372352
-0.612562
-0.0137523
0.017256
0.0068188
0.0651403
-0.0719589
0.0589139
-0.0860668
0.0271534
-0.382288
-0.0698146
0.00427497
0.00663135
-0.0109064
-0.0152641
0.0150553
0.000208485
-0.0461498
0.071968
0.048322
-0.00313966
-0.120313
0.0963066
0.25378
0.474211
-0.66447
0.190348
-0.130819
0.000256627
0.130565
-0.00181915
0.017458
-0.0156388
0.107775
-0.122123
0.0143501
-0.170147
0.245077
-0.0939397
0.0284597
-0.142332
-0.00906949
-0.0933366
-0.452281
0.545611
-0.0886034
0.0802564
0.0083477
0.255839
0.282003
-0.537801
0.076205
0.000598154
-0.201289
0.225365
-0.0718736
0.472507
0.0706418
0.116583
-0.187209
0.0556426
-0.124976
0.10064
-0.115882
0.0170544
-0.0944127
-0.0148447
0.132729
-0.117873
0.369952
-0.0869195
-0.28303
0.0712879
-0.0865988
0.0153116
-0.0335441
-0.0476245
0.0541549
-0.047334
-0.223023
-0.268583
0.0776351
-0.0190455
-0.0585898
-0.484966
0.0168312
0.468137
0.181106
0.188849
-0.474189
0.108334
0.0597234
-0.0359649
-0.0591487
0.52228
-0.463069
-0.0942129
0.100322
-0.168794
0.00218994
-0.266375
0.393221
0.00195589
0.14955
-0.23535
0.0179762
0.2174
-0.00822796
0.00545816
0.00276991
0.0750397
-0.126996
0.110946
-0.125272
-0.276961
-0.103148
0.3801
0.0606182
-0.347436
-0.00337087
0.00379832
-0.00042731
0.0226941
-0.0176743
-0.0050197
0.291265
0.208535
-0.394036
0.628288
-0.234178
-0.0731622
-0.015441
-0.293166
-0.0603025
0.35351
-0.00562326
0.0163913
0.0973655
-0.374329
-0.023964
0.0066486
-0.323699
0.251033
0.0726556
0.101566
-0.022118
-0.0794458
0.205237
-0.137
-0.068236
0.0126945
-0.00630328
-0.00639123
0.0514054
-0.206554
-0.00462252
-0.0628842
-0.0512792
0.0156266
0.0356504
0.175555
-0.104898
-0.0547547
-0.0538489
-0.0163057
0.0710234
-0.0547154
0.0455898
-0.274489
0.228922
-0.00742505
-0.0187368
0.026162
-0.0498722
0.0255244
0.000268947
-0.0155331
-0.183987
0.174652
0.00933618
-0.0229946
0.000128926
0.0228655
-0.160708
-0.0473075
0.208033
0.00536835
-0.0169503
0.0115822
-0.0371403
-0.0141406
0.0595423
-0.0878462
0.0283071
0.0900825
-0.0305356
0.0557915
-0.0268998
-0.564485
0.333329
0.231168
0.133417
0.0169476
0.0062458
-0.0120184
-0.186718
0.294472
-0.107739
0.225336
-0.0112396
-0.214076
-0.0181256
0.0166355
-0.0570715
0.0718355
-0.218927
-0.041005
0.259963
-0.0738764
0.0695938
-0.0300388
-0.0310315
-0.602993
0.327536
0.275515
-0.023098
0.00329308
-0.101704
0.0274871
0.0742173
-0.267179
0.523061
0.507182
-0.362198
-0.144935
0.108206
-0.593177
0.236992
0.263298
-0.0148718
0.0861606
-0.0600419
0.0792853
-0.019243
-0.0433423
0.0294467
0.0138972
-0.00835008
0.00497954
-0.377075
0.00100404
0.376104
-0.0488852
0.108509
-0.00819945
0.00856766
-0.00036809
0.11805
-0.156082
0.0380339
0.00826213
-0.0232185
0.0213995
0.00933224
0.208636
-0.478771
0.270173
0.0876967
-0.0287803
0.318598
-0.494878
0.176325
-0.0280968
0.0881226
-0.137024
-0.189954
0.0104701
0.00222441
-0.0231436
-0.107334
0.173417
0.0868505
-0.260278
0.459679
-0.573886
0.114222
0.129911
-0.122609
-0.0798642
0.0944904
0.113522
-0.11875
0.00523331
-0.0150893
-0.033425
0.0485126
0.00875188
-0.00338305
0.00223373
-0.000367993
0.0163083
0.125944
0.0497756
-0.111807
0.015534
-0.479585
0.0032379
-0.00173702
-0.036724
-0.0100108
0.0467347
-0.0203359
0.283748
-0.26338
0.0777335
-0.0823553
-0.300925
0.500783
-0.199831
0.0350532
0.0648899
-0.0999433
-0.0947382
-0.228971
-0.31512
-0.249353
-0.285747
0.102088
0.183676
-0.0357818
-0.00666937
0.0424512
-0.0682789
-0.217448
-0.0272986
0.0295574
-0.00349289
-0.00180649
0.0053
0.0784045
-0.0796156
0.00121173
0.019433
-0.0391092
0.0196743
-0.218782
0.264395
-0.0351611
-0.018433
0.0350581
0.590819
-0.246891
-0.34388
-0.0694625
-0.295563
0.108864
0.209226
-0.339312
0.130105
-0.0636964
-0.0712432
-0.367224
0.607449
-0.396657
0.45969
-0.0630052
0.388978
-0.0703452
0.0780708
-0.0929415
-0.334181
-0.278511
-0.0212257
-0.00176916
0.00158499
0.0460038
-0.047588
0.00344783
0.00270654
-0.00615425
-0.0681508
-0.0377123
-0.00735875
-0.0222172
0.029576
-8.7993e-05
-0.00199324
0.00208143
0.156336
-0.0382864
-0.472655
0.095615
0.100814
0.00983185
-0.110648
-0.258162
0.0810903
0.195224
-0.192161
-0.00304653
0.228702
0.39785
0.0244603
0.0536248
-0.0356954
-0.0609655
0.0625507
-0.191247
0.200853
-0.00959213
0.0982868
0.0257533
-0.124038
-0.171482
-0.0125025
-0.252719
0.194854
0.00335144
0.110173
0.183413
-0.238374
0.054984
-0.0722713
0.0816671
-0.00939646
-0.179292
0.272765
-0.439929
0.380829
0.0143056
-0.0199284
0.0261592
0.00404071
0.0315888
-0.00542882
0.0505594
0.076269
-0.126824
0.00654104
-0.00309308
0.025391
-0.0328158
-0.0070573
0.0161573
-0.00910003
-0.0135897
-0.00123662
0.0148266
0.146368
0.366085
-0.512443
-0.12125
0.000238665
0.121013
0.222216
-0.03878
0.343336
-0.26848
-0.0748323
-0.0980988
0.0275598
0.0705395
0.0069948
0.482861
-0.536559
0.053637
0.00624226
-0.124081
0.117843
-0.00422535
-0.141032
0.145258
-0.0175911
0.0117033
0.00588805
0.343493
0.247364
0.10967
-0.00588285
-0.103786
-0.00046813
-0.00810338
0.00857215
0.0883802
-0.00590107
-0.0824774
0.000989503
-0.0216615
0.020672
0.239679
-0.24594
0.225635
0.522843
0.11113
-0.150096
-0.0148012
0.50833
-0.299654
-0.0482391
-0.00781423
0.0560539
-0.0310002
-0.0123406
-0.156751
0.141918
-0.00240095
0.00634987
-0.00394889
0.0167128
0.184362
0.0941116
0.010262
-0.0220918
0.0150348
-0.013561
0.0476185
-0.00638103
0.0847864
-0.00827862
-0.0843152
0.0962147
0.0134531
0.118574
-0.135264
0.0166931
0.0760351
0.0302214
-0.106252
-0.160908
0.169758
-0.00885468
0.0906461
-0.102123
0.011478
0.0230842
-0.133767
-0.00950845
0.143272
0.0977392
0.00254549
-0.100281
-0.530283
0.544376
-0.0140666
0.0913353
-0.0230428
-0.0682913
0.207181
-0.0172232
-0.189961
-0.426882
0.301361
0.125513
-0.15116
0.00107716
-0.25845
0.175623
0.082843
-0.00350282
-0.0140881
0.0284199
0.0400484
0.0834841
-0.376611
-0.515913
0.42257
-0.053431
-0.00693761
0.0603692
-0.000401653
0.000313667
0.594593
-0.222226
-0.0194265
0.0204162
-0.305284
0.226148
0.0791347
0.116497
-0.0818463
-0.0346512
0.0150108
0.319581
-0.334545
-0.0095293
0.00557133
0.00395818
0.0596453
-0.0861113
0.0264662
0.0327274
0.17889
0.301304
-0.193324
-0.107983
0.0301672
-0.0375259
-0.108241
0.0706834
-0.010939
0.0108256
0.000113484
0.239684
-0.606904
-0.0018742
0.00909222
-0.00721765
-0.00227215
0.0987971
-0.0195087
-0.0792876
-0.351117
-0.0757688
-0.000286075
-0.00258661
0.0677536
-0.0286236
-0.0391305
-0.121667
0.156987
-0.0353212
0.122562
0.384665
-0.221109
0.260784
-0.0396527
-0.130558
-0.0546377
0.089692
-0.0434129
0.526209
-0.517133
0.154985
0.65272
-0.43997
-0.212695
0.409016
0.24376
-0.00243937
0.00671471
-0.0422115
-0.0558868
0.0346698
-0.0886109
0.110146
-0.0215365
0.574867
-0.100582
-0.0502945
-0.407248
-0.0109642
0.109252
-0.0522167
0.0257134
0.0265037
0.146107
-0.157208
0.0111077
-0.108959
0.332218
0.451433
-0.242179
-0.282908
-0.0948581
0.377767
0.0256351
-0.00904721
0.0222555
0.396231
0.167691
-0.563894
-0.26969
-0.13884
0.408537
0.0154279
-0.0185167
-0.142396
0.0996124
0.105625
0.0524185
-0.298328
-0.138152
0.2547
-0.116527
0.170983
-0.215519
0.0445534
-0.00299768
0.100737
0.054563
-0.0708661
0.030276
0.088506
0.0123027
-0.136541
0.0555948
0.0809481
0.016657
0.074012
-0.00211909
0.11307
0.451897
-0.296283
-0.15558
-0.00836259
-0.00205409
-0.452471
0.243974
-0.0186195
0.244867
0.00503903
-0.249906
0.0671101
0.024227
0.0704296
0.0285427
-0.0989671
-0.015062
0.401003
-0.385894
-0.0106066
0.0989886
0.0957416
-0.12811
0.0323704
-0.00342025
-0.000447437
0.00386805
-0.0749667
-0.0615727
-0.00705187
0.0968255
-0.0897704
0.133691
-0.137916
0.324606
0.135088
0.0899727
-0.0358174
0.0909615
-0.042913
0.0369531
0.00595948
0.160296
-0.339555
-0.145262
0.17908
-0.0338056
0.0985059
0.0116402
-0.00572789
-0.0174904
-0.00249711
0.00249664
0.109877
-0.110456
-0.0521891
0.102751
-0.0263293
-0.206694
0.19756
-0.218675
0.0211328
-0.205105
0.257548
-0.0654389
-0.0238081
0.0892498
-0.0462189
0.0188383
0.137088
0.0013441
0.019125
-0.0337024
-0.00921077
-0.00263293
-0.00830611
0.0298395
-0.218958
0.189141
-0.00573045
0.0998434
0.082381
-0.0227344
0.0730603
0.0982325
-0.171278
-0.286568
0.0777669
0.208809
-0.0239431
-1.76898e-05
0.0239605
0.0861515
-0.061387
-0.0247653
-0.0770024
0.0633468
0.0136559
-0.0430634
-0.0547949
0.0978596
-0.538028
0.0472417
-0.0191564
-0.00394127
0.0110493
-0.469119
0.454119
0.172411
-0.176987
0.00459302
-0.00956026
-0.10377
0.113332
-0.121573
0.0182856
-0.0216513
0.115646
0.0497468
-0.00974502
-0.0400012
0.100429
-0.0243916
-0.0227972
0.184805
-0.162012
0.0435167
0.0464562
0.257371
-0.196783
-0.0605765
-0.0146361
0.00104667
0.267655
-0.5759
-0.013592
0.409845
0.066799
0.0108354
0.0655886
0.0205619
0.0259947
-0.000138483
-0.0258573
0.0904026
0.16698
0.249479
-0.26572
-0.448587
0.178904
-0.000669474
-0.141667
0.00310326
0.112101
-0.079487
0.212052
-0.014476
0.0970357
-0.103418
0.125282
-0.256552
0.271598
-0.0556182
-0.0566378
0.107769
0.00432971
-0.0736469
0.0713786
0.00226735
-0.0415049
0.356999
-0.315455
-0.0746169
-0.0240009
0.0986193
-0.0672849
-0.0162927
0.0128004
0.0400238
0.109982
0.105764
-0.0353282
-0.18011
0.0348552
-0.258677
0.538598
-0.279862
0.290535
0.0836842
-0.374215
-0.0844345
0.305109
-0.0762822
-0.019103
0.0953897
0.152548
-0.0663663
-0.0551121
0.0937032
-0.0385908
-0.0349324
0.0198431
-0.130681
-0.0156847
-0.22458
-0.378358
0.0230443
-0.0806423
0.057601
0.0219683
0.00402552
-0.0938485
0.0817199
0.0121285
0.0571887
-0.339938
-0.185393
0.144697
0.0406971
-0.116998
-0.400086
-0.15025
-0.0437205
0.193963
-0.0450572
0.206417
0.0135373
0.0542162
-0.292418
0.615054
-0.0575734
0.179192
0.000137337
-0.179337
0.0824756
0.0167482
0.139824
-0.0652956
-0.0745236
-0.00781109
-0.00519523
0.0130066
-0.0300599
-0.0786266
0.108692
0.0396942
-0.260777
-0.0143685
0.0182842
-0.00391552
-0.00101223
-0.00148511
0.350229
-0.269457
-0.08074
0.214721
0.0301446
0.0934252
-0.070229
-0.0231971
0.0710726
-0.114132
0.10788
-0.000103439
-0.349453
-0.241967
0.59144
0.0388788
0.262421
-0.100447
0.0783317
0.235079
-0.061671
-0.102002
-0.0167413
-0.140181
0.119784
0.384203
-0.0936713
-0.138538
0.14121
-0.00267134
-0.049476
0.394125
-0.173293
-0.220841
-0.257295
-0.0340388
0.291318
0.675271
-0.393982
-0.281228
0.0154207
0.00727352
-0.421011
0.622776
-0.194093
0.00286098
0.000534245
0.00668799
0.000281816
0.203552
-0.203817
0.0745658
-0.00897839
-0.0176011
-0.183954
0.071673
0.0641176
0.235354
0.124488
-0.0152193
-0.10926
-0.0954628
-0.378688
0.133219
-0.0121325
-0.121082
0.327063
-0.588085
0.261093
0.111881
-0.091669
-0.0202076
-0.212731
-0.0925554
-0.0429567
0.0424895
0.0440313
-0.0407608
-0.00327158
-0.0207617
-0.0314548
-0.56192
-0.0718626
-0.240541
0.115381
-0.117495
-0.145242
0.151579
-0.00632952
0.00386286
-0.0186552
0.0147924
0.0527866
-0.0458354
-0.00695107
-0.127965
-0.0234523
-0.336488
-0.00746354
0.343975
0.0955069
-0.0174349
-0.0202578
0.0201184
-0.081465
0.00781726
0.0470707
-0.102181
0.131859
0.0021584
-0.134016
-0.0428407
-0.00353149
0.0463725
-0.160006
0.138608
0.0214109
0.157759
-0.166834
-0.00167452
0.0857579
-0.0840828
-0.0694582
-0.0115726
-0.137294
0.00932998
-0.006939
0.0177253
-0.0107869
0.139267
-0.140771
0.00150474
-0.273707
0.0806065
0.193092
0.0897136
-0.0992752
0.0604558
0.115111
-0.400129
0.314405
0.0857183
-0.177699
0.0274353
0.00522282
0.143529
-0.158771
-0.052503
-0.385087
-0.0370803
0.422205
0.180898
0.13799
-0.0135339
-0.124456
-0.0593006
0.23504
-0.175741
-0.12746
0.0254596
0.00463133
-0.341102
-0.230033
0.463621
-0.233566
0.128276
-0.549282
0.21101
-0.163881
-0.0471112
0.222393
0.222057
-0.444472
0.0350406
0.175428
-0.21045
0.628173
-0.284935
-0.343181
-0.00935261
-0.000176495
-0.144626
0.138147
0.00647603
0.0391612
-0.0441647
0.239902
-0.517232
0.277377
-0.350764
-0.209656
0.560431
-0.0440045
0.0864641
-0.0424594
0.140774
-0.0221951
0.24702
-0.200243
-0.0467758
0.0520091
0.0278203
-0.0798285
0.132098
-0.0478147
-0.0842788
-0.0892859
0.0611896
0.0014833
0.0868815
-0.113372
0.0264918
-0.0838633
0.254125
-0.170259
-0.630312
0.0181891
0.61213
0.601136
-0.192056
-0.252517
0.0171882
0.0100547
-0.0105407
0.000486037
-0.603932
0.253177
-0.082763
0.0173237
0.0654395
-0.116709
0.151767
-0.00137459
-0.00682478
0.0992664
-0.13405
0.0347896
0.100276
0.0318255
-0.0074551
0.0899358
-0.437529
0.0997469
0.337795
0.279753
0.31726
-0.00146977
-0.429582
0.280478
0.14911
-0.302161
0.0896471
0.212534
-0.0566929
-0.0265053
0.0831992
0.245157
-0.00666815
0.0999105
0.447405
-0.547303
-0.000861159
0.16692
-0.166048
-0.0561211
-0.420479
0.476653
0.324651
-0.473803
0.14916
-0.162889
0.00511276
-0.0111906
0.0150535
0.165018
-0.166476
0.00147064
0.2477
0.146417
0.465811
0.126845
0.0215292
-0.027257
0.0138045
0.326311
-0.0924134
-0.233868
-0.114454
0.274776
0.08181
-0.0297996
-0.0759828
0.0892254
-0.0132437
-0.00368072
-8.33389e-05
0.00376433
-0.117154
0.110105
-0.0504138
-0.223301
-0.233821
-0.35771
0.504922
-0.180266
0.00468098
-0.138452
-0.003766
0.0155204
-0.081975
0.0664543
0.0587396
0.115914
-0.0292097
0.0104729
-0.279991
0.079424
0.200592
0.0435964
-0.218449
0.174862
0.00346261
-0.00497775
0.00151523
0.149825
-0.450725
0.00469717
0.202467
0.278087
-0.35412
0.0760666
0.337154
0.261028
-0.598128
-0.00441022
-0.142703
0.0901138
0.0105254
0.204442
-0.269801
0.0653759
0.0712593
0.00330624
0.00128694
0.0217097
-0.0229969
0.0377121
0.228902
-0.309037
-0.117755
0.42678
-0.0909395
-0.00566033
0.0965991
-0.0661058
-0.327605
0.567301
-0.0731412
0.0891394
-0.0159981
-0.434635
0.125588
-0.152122
-0.275079
0.360916
-0.0858549
0.432514
-0.151011
-0.281503
-0.0968472
-0.241703
-0.0976177
0.339327
0.0259796
-0.0922575
0.131544
0.0455159
-0.177055
0.400573
-0.586686
0.186115
0.373913
-0.502507
0.128597
-0.00859284
-0.272276
0.280872
0.023943
-0.317572
0.29367
-0.331551
0.0742408
-0.0296243
0.0382045
-0.00858124
0.285357
0.0502897
-0.33565
-0.105706
0.395894
-0.29018
0.0486125
-0.0111853
-0.0374271
-0.0514752
0.0545157
-0.146352
0.123553
-0.147661
0.00169675
-0.112493
0.110797
-0.0456547
-0.162828
0.208499
0.467691
-0.157759
-0.309913
0.1273
-0.0469873
0.00945854
0.105648
0.00623767
0.2731
-0.483054
0.209972
-0.296733
0.103425
-0.00332436
0.0561109
-0.0515185
-0.0767147
0.128237
0.00546686
-0.0137429
0.00827618
0.528856
0.173302
0.00186421
-0.0195384
-0.174106
0.146039
0.0280639
-0.270021
0.0582352
0.0120562
-0.0116953
-0.000360828
-0.0135229
0.0107577
0.00276505
0.350665
-0.326679
0.0912096
-0.092883
0.493146
0.108041
-0.333644
0.0919523
0.429875
-0.189935
-0.00484537
0.0114769
0.46984
-0.247474
-0.324698
0.281789
-0.0582634
-0.264669
0.0690026
0.195658
0.0382362
0.0782589
-0.0943324
0.0403884
0.301157
0.072577
-0.373741
0.103262
-0.120044
0.0167809
0.371875
0.168717
-0.540562
-0.00288302
0.504676
-0.484521
-0.0201129
0.34254
0.359085
0.221381
-0.580451
0.00195069
0.459005
0.025814
-0.0196041
0.0246946
-0.00509037
0.0163858
-0.0713394
0.0549537
-0.00825227
-0.177139
-0.0360596
-0.0656446
-0.00434581
0.00432185
2.40055e-05
-0.285326
0.345971
0.000485214
-0.0196415
-0.0658949
0.0267929
-0.00334603
-0.00099965
0.00200287
0.0245328
-0.0265355
0.00940461
0.0392079
-0.0230112
0.0195917
-0.0657628
0.0888083
0.183516
0.0772907
0.00378084
-0.14439
-0.0297176
0.00648117
-0.0432053
-0.408098
0.0569779
0.0843367
0.276552
0.279898
0.0464428
0.539602
0.159576
-0.221245
0.0616755
0.125818
-0.142509
0.0166935
-0.0130113
0.0189203
-0.00590891
0.36733
-0.282961
0.425458
-0.183247
-0.242203
-0.00200726
0.00916825
-0.00716095
0.0178391
-0.0773534
0.0595171
-0.265967
0.257374
0.0137342
0.0149535
-0.165025
0.150082
-0.0662553
-0.205866
0.272135
0.0249485
0.0190825
0.084942
-0.071207
0.16666
-0.207408
0.0407549
-0.163218
-0.10146
0.0212779
-0.019991
0.00457254
-0.00110981
0.00889737
-0.0154587
-0.359496
0.0843987
-0.0735143
-0.0347194
-0.0145649
0.110309
-0.00361584
-0.00157526
0.00519132
-0.060283
-0.119701
0.116429
0.00327042
0.259321
0.168179
-0.252037
-0.068909
-0.211059
-0.507055
-0.114208
0.0728756
0.510683
-0.36431
0.166628
0.00437141
-0.0662488
-0.0937513
0.0082756
-0.00653348
-0.0017422
-0.120461
0.0301046
0.0903581
-0.096195
-0.228518
0.112636
0.0172494
-0.0116299
-0.00561978
0.153481
0.324674
-0.251503
-0.0731584
0.010212
0.000340119
-0.010552
-0.356354
0.0900058
-0.299607
-0.00253375
0.0801093
-0.105758
0.0256481
0.0157755
-0.0181762
0.48245
0.302925
-0.344393
-0.043725
0.0539836
-0.0102589
-0.0959278
0.0598684
-0.0225406
0.0823786
-0.0598374
-0.125681
0.0338987
0.0917832
-0.0385405
-0.0613517
-0.487958
0.177558
0.310433
-0.0923825
0.0892536
0.00313374
0.179225
0.145461
0.00897505
0.35964
-0.368569
-0.0699712
-0.216588
-0.0630177
0.0147791
-0.000905122
-0.00277531
-0.364451
0.0865438
0.277917
0.498096
-0.124186
-0.0656758
0.343796
0.0174413
0.0583557
-0.170102
-0.00997434
0.180087
-0.227589
-0.201987
-0.297607
0.0787133
-0.00388241
0.359364
-0.0582152
-0.00204262
-0.0623667
-0.0241966
0.0865682
-0.0266912
-0.0058479
0.0325396
-0.321722
0.0811064
0.115341
-0.0341922
-0.0811439
0.183057
-0.153196
0.0116049
-0.00603341
0.0150231
0.00222636
-0.00236421
0.00197554
-0.110671
0.112368
0.000867598
-0.0143906
0.464244
0.00467076
-0.0404525
-0.460975
0.480654
-0.0748391
-0.141906
0.158279
-0.153094
-0.00517571
-0.0700849
-0.0604793
0.00704913
0.0499398
0.0236971
-0.0736379
0.0923272
0.0107242
-0.103053
-0.0203754
0.0773893
-0.057014
-0.285734
-0.275676
0.561471
-0.0527427
0.09054
-0.037795
0.103782
0.32873
-0.0892344
0.1497
0.0494797
-0.0409256
-0.00855418
0.234641
0.108718
0.181246
-0.642207
0.2197
-0.259966
0.0402895
0.105178
-0.252369
0.147206
0.00854621
-0.000270532
0.46548
-0.100011
-0.365455
0.514149
-0.178217
0.00614147
-0.0273484
0.126773
-0.0994193
0.137919
-0.136772
-0.00114628
-0.0262164
0.00595792
-0.0993428
-0.00190808
0.101251
0.0105905
0.000536272
-0.0111267
-0.00800002
-0.123515
0.105718
-0.157233
0.00560541
-0.0156051
-0.164871
0.0176625
0.0671614
-0.0848235
-0.000531461
0.0457131
0.197393
-0.00658439
-0.190811
-0.302988
-0.05758
0.360557
0.00140762
0.0297513
-0.0311589
-0.0315262
-0.252917
0.26194
-0.132435
0.0357682
0.0966678
0.146325
-0.000214567
-0.337515
0.114545
0.222963
-0.0234926
0.183078
-0.136531
0.24173
0.151972
0.283618
0.313393
0.128564
0.0032958
-0.0190848
0.0501956
-0.372267
0.130255
-0.115369
-0.0148796
0.10541
0.209044
-0.314419
0.105276
-0.0891175
-0.0161537
-0.252372
0.579507
0.155048
0.00323708
-0.124486
-0.224008
0.164716
0.314058
-0.0783425
-0.235712
-0.295296
-0.0691444
0.0322185
-0.0345149
0.00229507
-0.0768475
-0.0370864
0.113941
-0.0274871
0.0753052
-0.0478183
0.268205
0.191505
-0.322894
0.260458
0.0624624
0.00730861
-0.275435
-0.0786519
0.02283
0.103194
-0.126022
-0.118276
0.0414348
-0.230025
-0.107497
0.0273689
0.102602
-0.25767
0.363094
-0.026288
0.0795588
-0.0532697
-0.287624
0.0347132
0.00328787
0.181512
-0.0145611
-0.0035648
-0.0688464
0.0906278
-0.0217802
-0.0873971
0.398255
-0.310814
-0.224598
0.184039
0.0405798
0.00284686
-0.022451
0.354148
-0.345133
0.473365
-0.114547
-0.358769
-0.00334795
-0.00026766
0.0105571
-0.0154023
0.0213659
-0.192847
-0.00378649
-0.0862318
0.0900157
0.545995
-0.281567
0.227143
-0.00999749
0.230515
-0.212512
-0.353741
-0.0837746
-0.0837216
0.017824
0.0658981
0.303266
-0.281593
-0.0216718
0.016921
0.0622255
-0.0791463
0.20115
0.401281
-0.443638
0.0899154
-0.292461
0.200074
0.000197146
-0.0995422
0.0239461
0.00316776
-0.0271136
-0.22754
-0.068005
-0.00879613
-0.229739
0.238557
-0.345401
-0.142521
0.189917
-0.18616
0.483862
-0.146659
0.0150285
0.124017
-0.117773
-0.585096
0.257495
0.0188994
0.0603862
0.115582
-0.0851991
0.0324572
0.0305766
-0.00518553
-0.0183827
-0.00556068
0.390621
-0.30407
-0.298495
0.0470039
-0.261935
0.333877
-0.0719108
-0.0139607
-0.171331
0.144815
0.000604885
0.0248876
-0.0254923
-0.000762832
-0.00328484
0.00404769
0.225586
-0.174174
0.00575456
0.00259091
-0.00985639
-0.132944
0.136618
-0.00367239
-0.0911302
0.0873418
-0.110807
0.0807525
-0.00777209
-0.0113477
0.103888
0.00139222
0.0208265
0.0575394
-0.0783649
0.0293274
-0.00713846
0.124053
0.00792933
-0.131987
0.174539
0.0147817
-0.0330875
0.0781503
-0.395487
-0.0126196
0.208985
-0.134669
0.077707
-0.0600437
-0.127509
0.134282
-0.00676327
0.369838
-0.286316
0.116201
0.00829419
-0.0868581
0.10969
-0.0133131
0.0167438
-0.000221687
-0.0165221
0.215841
-0.0112384
-0.20458
-0.0766645
0.056289
0.0327555
0.122063
-0.154825
-0.0119083
0.0825858
-0.0706788
-0.044501
-0.0494093
0.0939116
0.113307
-0.0750665
-0.156328
0.171292
-0.363341
0.208507
0.0622052
0.303405
-0.431523
0.128153
-0.0360387
0.202706
-0.504244
-0.0260089
0.186443
-0.365208
0.10663
0.258607
-0.00504242
0.111724
-0.106676
-0.0099761
0.100623
0.0123154
0.000701185
-0.0130167
0.082951
0.0201917
-0.103141
-0.0402732
-0.0540582
-0.0540864
-0.00687872
0.0724048
0.262216
-0.359278
0.0970892
0.00311431
0.00555939
-0.0537104
0.048151
0.320514
-0.390071
0.0695765
0.356414
-0.148481
-0.00463478
0.153123
0.000932488
0.00912227
0.331825
-0.593955
0.262141
0.121334
-0.00974994
-0.111582
0.0745181
-0.0121405
-0.0623758
0.108197
-0.147111
0.0389223
0.371267
-0.272899
-0.0983539
-0.278938
0.224524
0.054408
-0.180021
0.318592
-0.138568
-0.0752768
-0.0571569
-0.146589
0.0943092
0.234244
-0.000928071
-0.0420278
0.0474178
-0.0366809
-0.0107365
-0.121166
0.11555
-0.0868048
0.0136637
-0.0214115
0.14546
0.0854498
-0.0841517
-0.0012966
-0.215045
0.215344
-0.195207
0.149559
0.00869521
0.0569513
-0.0656464
-0.0605358
0.0854901
-0.024954
-0.00296665
-0.0085433
0.0235446
-0.0371873
-0.593121
-0.408749
0.306908
0.101849
-0.152891
0.30728
0.343452
-0.0644592
-0.278976
0.123808
0.152108
-0.0653584
-0.0639336
0.1293
0.368352
-0.0708226
-0.29749
0.00345264
0.0917594
-0.0952084
-0.502174
0.44611
-0.157179
-0.296352
0.126187
-0.0259072
-0.00103869
0.0980742
-0.0610867
0.0819147
-0.352324
0.0670264
0.0397991
-0.169756
-0.238986
0.00984777
0.0582835
-0.068131
0.277558
0.223249
-0.181375
0.14199
0.459025
-0.185904
0.014117
0.0728436
-0.0869604
0.00379402
0.0600309
-0.100062
0.280994
-0.0688353
-0.0516236
0.35532
-0.137263
-0.218028
0.147931
-0.0172168
0.0120218
0.233836
0.0972135
-0.331032
0.20204
-0.272002
-0.134364
0.107021
0.166389
0.00603603
0.00601854
0.286215
0.121428
-0.171854
0.050437
0.241994
-0.276052
0.116304
-0.501353
0.133283
-0.00746287
-0.1034
-0.162295
-0.217125
-0.235794
0.45295
-0.168352
-0.039048
0.0042234
0.00617844
-0.201185
-0.00585267
0.207055
-0.0630199
0.0785401
-0.0581028
0.00197276
-0.00336587
0.0273122
-0.213275
0.0121077
-0.448586
0.231493
0.0420295
0.130262
-0.172282
-0.00440313
0.000381387