/*--------------------------------*- C++ -*----------------------------------*\
| =========                 |                                                 |
| \\      /  F ield         | OpenFOAM: The Open Source CFD Toolbox           |
|  \\    /   O peration     | Version:  v2012                                 |
|   \\  /    A nd           | Website:  www.openfoam.com                      |
|    \\/     M anipulation  |                                                 |
\*---------------------------------------------------------------------------*/
FoamFile
{
    version     2.0;
    format      ascii;
    class       volVectorField;
    location    "200";
    object      U;
}
// * * * * * * * * * * * * * * * * * * * * * * * * * * * * * * * * * * * * * //

dimensions      [0 1 -1 0 0 0 0];


internalField   nonuniform List<vector> 
13851
(
(0.982661 -0.0101426 1.503e-22)
(0.972693 -0.202444 3.487e-21)
(1.02547 -0.0946102 2.78985e-21)
(0.983644 -0.0066395 2.90403e-22)
(1.04031 -0.0981281 5.85329e-22)
(0.930763 0.0299595 -1.47986e-21)
(1.03258 -0.0103318 0)
(1.03029 -0.0816602 -3.5768e-22)
(1.01949 0.00617399 1.71314e-22)
(1.00561 -0.0895273 -2.97742e-21)
(0.985003 -0.0739988 0)
(0.872253 -0.122204 6.17255e-21)
(1.03198 -0.0971187 6.21366e-21)
(0.0189377 0.112439 1.70056e-20)
(1.018 -0.00170927 -6.10811e-21)
(1.01605 -0.0650343 6.53839e-21)
(1.03242 -0.05017 0)
(0.985769 -0.043001 1.03387e-21)
(1.04022 -0.102708 7.75256e-21)
(1.01866 0.00611978 0)
(0.98505 -0.00670017 -4.22809e-22)
(1.0274 -0.0943547 2.76727e-21)
(0.999544 -0.00034842 -9.70708e-23)
(1.00902 0.000299198 4.03632e-22)
(0.999436 -0.000208095 0)
(1.02857 -0.0818288 -1.4798e-20)
(1.05121 -0.0439289 8.79777e-21)
(0.0094897 -0.0266094 0)
(0.98397 -0.0111373 -3.65988e-23)
(1.00269 -0.0401837 -2.31603e-21)
(0.922869 0.0381004 3.40158e-21)
(1.03262 -0.051822 9.44035e-21)
(1.02442 -0.0933996 5.4502e-22)
(0.968132 0.10658 -4.6419e-22)
(1.01008 0.000465792 0)
(1.0462 -0.158515 0)
(1.01014 -0.166137 7.01096e-21)
(1.0337 -0.106147 1.96416e-22)
(1.0043 -0.0913313 -3.16764e-21)
(0.969623 0.108259 4.92603e-22)
(1.00034 -0.00698201 1.86114e-21)
(0.997547 0.0020305 0)
(-0.0212344 0.105179 -2.86664e-20)
(0.990656 -0.0905123 0)
(0.984278 -0.092023 -5.50496e-22)
(0.108655 0.0208019 0)
(0.987334 -0.116368 8.4832e-22)
(0.78347 -0.0228944 -5.22141e-22)
(1.05229 -0.0452393 -2.77375e-20)
(1.0597 0.0525123 0)
(1.05306 -0.106501 -1.32959e-20)
(1.03818 -0.108257 -7.91346e-21)
(-0.0160228 0.00277302 2.61345e-20)
(1.01712 -0.00128703 3.29147e-21)
(1.00401 -0.000698228 1.50427e-21)
(0.997563 0.00251534 0)
(1.01204 -0.000651768 -3.33316e-23)
(-0.0248942 -0.000468397 -1.67341e-20)
(1.00252 -0.0388159 0)
(1.03167 -0.0147125 9.82849e-21)
(1.03303 -0.106968 -8.05887e-21)
(0.878307 -0.0952164 0)
(0.959631 -0.0482239 1.04237e-21)
(1.04026 -0.100857 1.18599e-20)
(0.997717 -0.0910843 -3.47096e-22)
(0.97588 -0.00726352 0)
(1.01018 -0.168452 3.52824e-21)
(0.985301 -0.130159 0)
(1.05904 -0.0742188 1.36708e-20)
(0.984517 -0.0417849 7.53239e-22)
(0.35795 0.00526247 -2.57626e-20)
(1.02603 -0.191002 0)
(0.909465 -0.196147 0)
(1.01734 -0.00131579 2.9559e-21)
(1.00498 -0.000901752 1.30294e-21)
(1.02427 0.0103119 0)
(1.02838 -0.0934323 -7.87085e-21)
(0.69199 0.00838655 -4.05631e-22)
(1.0453 -0.0865852 0)
(0.286607 -0.0026807 0)
(1.03304 -0.0222649 -5.19267e-21)
(0.973535 0.0194669 5.09736e-23)
(1.01625 -0.010226 8.1437e-21)
(0.0858523 0.031953 9.67201e-23)
(0.960374 -0.0512335 -8.97637e-22)
(0.895579 -0.114768 2.51643e-21)
(0.949918 0.0371148 2.61348e-21)
(1.02813 -0.0362985 6.50301e-22)
(1.04291 -0.0519658 0)
(1.01902 -0.0195843 0)
(1.04588 -0.155001 -6.05307e-21)
(1.00824 0.0289347 0)
(0.989257 -0.13009 0)
(1.04642 -0.0600765 0)
(1.04422 -0.0508576 0)
(1.01015 -0.000244371 3.56229e-23)
(1.04069 -0.0991764 0)
(0.95363 -0.0823522 0)
(1.05002 0.0566979 4.73002e-22)
(1.00848 -0.000129952 -5.43663e-23)
(-0.0388354 0.0492938 4.84043e-20)
(1.0528 -0.0915385 -1.93908e-20)
(0.994756 -0.0190318 0)
(1.06582 -0.0343917 2.30935e-20)
(0.998707 0.000290153 -9.22056e-23)
(0.963456 0.0558289 3.57972e-21)
(1.05434 -0.0964614 -1.05827e-20)
(0.999234 0.00301467 5.20045e-23)
(1.00039 -0.200442 0)
(0.928567 0.0209395 4.54942e-21)
(1.00878 9.54361e-05 2.01629e-23)
(1.01991 -0.0204252 0)
(1.00649 0.0295422 3.45948e-22)
(1.00246 0.000172193 3.93576e-22)
(1.01025 0.000144465 0)
(0.74848 -0.0629176 8.00587e-22)
(0.986683 -0.0871965 -3.23041e-20)
(0.99841 0.000939043 -4.89603e-23)
(1.00252 0.00022904 -1.24763e-21)
(1.00245 -0.000350589 3.10489e-21)
(-0.0179504 0.105974 5.59296e-20)
(1.0639 -0.0346597 -9.57568e-21)
(1.03455 -0.0972605 0)
(0.931812 -0.0406452 4.4866e-21)
(0.809418 -0.0332456 -2.66654e-22)
(0.991276 -0.0221884 0)
(0.812421 -0.0595102 1.94595e-22)
(1.04888 -0.088893 3.22398e-22)
(0.985813 -0.00454805 0)
(1.03706 -0.10236 0)
(1.00072 -0.0067402 0)
(1.00905 0.00385621 4.46083e-22)
(0.384338 -0.00609747 2.31236e-20)
(1.01661 -0.00974777 -5.83662e-21)
(0.770656 -0.0610744 1.6815e-21)
(1.00805 0.00123473 0)
(0.998478 0.000817353 -2.74158e-22)
(1.02034 -0.17985 -1.39287e-21)
(0.111113 0.0425747 9.35442e-21)
(0.0975225 0.109012 0)
(-0.0549631 0.0442297 -4.25032e-20)
(1.0036 -0.000633128 1.24348e-23)
(1.03404 0.0213661 -3.12542e-22)
(0.993201 -0.0023343 -3.88209e-22)
(1.02315 -0.0407222 0)
(0.997481 -0.0955495 0)
(0.984407 0.0218752 2.28885e-23)
(1.03661 -0.102565 1.05245e-20)
(1.03159 -0.0100331 3.9812e-21)
(0.979655 -0.087688 0)
(1.08163 -0.126479 0)
(1.00283 -0.000371741 -3.28305e-21)
(0.0263875 0.109193 -2.09666e-20)
(1.01181 -0.000697991 1.01444e-22)
(1.03753 -0.0368681 -1.0557e-20)
(1.02202 -0.0401087 -4.83169e-21)
(1.00566 0.00731621 5.57195e-22)
(1.00765 -0.0364125 4.49362e-21)
(1.03814 -0.107287 0)
(1.05237 -0.104811 1.53954e-21)
(1.00285 0.0106212 -5.89725e-23)
(1.05876 -0.0588893 1.53021e-20)
(-0.0242504 -0.0011573 4.1606e-20)
(1.0094 0.00380261 -4.79269e-22)
(1.00347 -0.0523079 -4.47577e-21)
(0.995388 -0.000453056 -7.3005e-23)
(0.978165 0.0182656 -1.87792e-22)
(1.06081 -0.0753523 0)
(0.986831 -0.00450467 0)
(0.834149 -0.0720854 -5.33084e-20)
(0.674342 0.0141662 -3.4273e-25)
(1.01654 -7.74802e-06 -1.18462e-22)
(1.00508 0.00696595 -1.34561e-21)
(0.0830474 0.114533 -1.08381e-20)
(1.00926 0.00344778 4.64822e-22)
(0.782809 0.0135841 -5.77772e-22)
(1.04805 -0.0875522 -7.82223e-21)
(1.03043 0.0238026 -3.48558e-22)
(1.0396 -0.102104 -1.63554e-20)
(0.999545 0.0042042 0)
(1.03137 -0.0542794 0)
(1.02381 -0.187282 0)
(1.01718 -0.00866492 -4.49856e-21)
(1.02818 -0.0958292 0)
(1.00133 0.00179744 -7.51199e-25)
(1.00468 -0.00067268 1.30838e-22)
(0.975745 -0.00947659 0)
(1.00414 -0.000644015 0)
(1.03784 -0.0992402 0)
(0.99929 -0.0734316 -9.39447e-22)
(0.992564 -0.123195 0)
(-0.0209794 0.00294602 -2.29278e-20)
(1.02027 -0.0223995 0)
(1.05234 -0.0740523 0)
(0.906674 -0.0991664 1.22021e-21)
(1.03517 -0.0358023 -1.6721e-20)
(1.03304 0.0206481 0)
(0.96607 0.125063 0)
(1.03058 0.0228337 3.73623e-22)
(1.02406 0.0108481 9.69293e-23)
(0.992488 -0.0232203 0)
(0.448188 -0.0519856 0)
(0.998938 6.72028e-05 1.58259e-21)
(1.00903 -0.00944386 -3.19022e-21)
(1.00343 -0.0771854 0)
(1.01762 -0.00920064 4.42267e-21)
(0.833756 -0.0969447 6.4711e-21)
(1.03609 -0.0508538 -1.90135e-20)
(0.633181 -0.0325206 6.73759e-21)
(1.00127 0.00710013 -2.94035e-23)
(0.94809 -0.110554 -4.28461e-21)
(0.995451 -0.0182061 -2.05027e-21)
(0.940442 0.115702 1.98937e-22)
(1.00047 0.00420045 3.43149e-23)
(0.994019 -0.000318241 0)
(0.976766 -0.0619612 2.80205e-22)
(0.965518 -0.0543567 3.64495e-22)
(0.0216774 0.0375154 0)
(1.01736 -0.00360477 0)
(0.658387 -0.037748 -7.76444e-21)
(1.03545 -0.0518984 1.25527e-20)
(1.03411 -0.0230606 -6.10178e-21)
(1.02552 -0.0829277 -9.55167e-21)
(1.03872 -0.103518 -7.61708e-21)
(0.809645 -0.113267 -3.39439e-21)
(1.00202 -0.000353704 2.68122e-22)
(1.04629 -0.0655277 -4.77419e-21)
(0.998675 0.000166969 9.33349e-23)
(-0.0446982 0.0287086 -5.81864e-21)
(1.00079 0.00472271 3.49326e-23)
(1.02745 -0.0804505 6.61925e-21)
(0.965759 -0.090327 0)
(1.01617 -8.99439e-05 0)
(1.01943 -0.0215982 0)
(1.05893 -0.105419 0)
(0.984518 -0.0612936 5.14383e-22)
(0.911952 -0.0982052 -7.14656e-21)
(1.00225 -0.093313 -6.72787e-22)
(0.993193 -0.0014501 3.67117e-22)
(1.00945 -0.00984449 0)
(0.92841 0.0486246 -1.6244e-21)
(1.04768 0.0723781 3.11655e-22)
(1.00258 0.0164043 0)
(1.00199 -0.0778852 0)
(0.998623 0.000466015 8.89239e-23)
(0.751042 -0.0873053 -6.79402e-22)
(1.05113 -0.0919683 2.03675e-20)
(0.95746 0.10357 3.25621e-22)
(1.01978 -0.0405778 1.81294e-22)
(1.02124 -0.0522803 1.54076e-21)
(1.01947 0.0436466 -3.01965e-22)
(1.04819 0.0732421 0)
(1.02165 -0.0267527 6.35732e-22)
(1.021 -0.0412017 1.55479e-22)
(1.06506 -0.0976276 -1.28148e-20)
(0.937613 -0.0337315 1.05199e-21)
(1.00013 -0.072683 1.10215e-21)
(1.01875 -0.176545 2.0786e-21)
(0.719069 0.0170489 0)
(1.02183 -0.00519096 -4.71156e-21)
(0.993887 -0.00111568 -3.89328e-22)
(0.984372 -0.0380521 7.17915e-22)
(0.795083 -0.0502212 0)
(0.995892 -0.0139563 0)
(1.03731 -0.103883 0)
(1.03414 -0.0359414 9.16024e-21)
(1.02209 -0.0259304 0)
(1.04673 -0.0587643 0)
(1.04036 -0.0866671 1.88686e-20)
(1.01853 -0.0333914 1.25895e-22)
(1.0224 0.0446489 0)
(1.03625 -0.0372046 8.95416e-21)
(0.885612 0.00974056 -3.59734e-21)
(1.04591 -0.0849566 0)
(1.01517 -0.0638186 -6.11802e-21)
(1.00914 0.00420037 -1.40812e-21)
(0.987313 0.0224953 0)
(0.970195 -0.0355038 0)
(0.757901 -0.144148 -3.77419e-21)
(0.981093 -0.0717457 2.14327e-23)
(1.00335 0.0173902 -1.0068e-23)
(1.00196 0.00677359 0)
(0.999063 0.000352291 0)
(1.06623 -0.0958712 0)
(0.771315 -0.0540684 0)
(0.78844 0.0586815 0)
(1.02078 0.00867455 1.74899e-23)
(1.02038 -0.00202443 0)
(0.869087 0.00939083 -1.51687e-21)
(0.950489 0.0188976 0)
(1.03646 -0.103099 0)
(1.00401 -0.0380029 2.82776e-21)
(1.03163 -0.0155437 -1.07996e-20)
(1.05534 -0.0781722 9.39833e-22)
(0.946816 0.0138321 -1.50104e-24)
(1.0378 -0.103159 9.5347e-21)
(1.00711 -0.0519317 5.34795e-21)
(0.891039 -0.0970823 0)
(1.00897 0.00465326 0)
(0.785634 -0.0921091 0)
(1.05891 -0.0575218 -1.62687e-20)
(1.03073 -0.0496857 0)
(0.794788 -0.143915 9.27692e-21)
(1.00388 -0.0183173 0)
(0.955017 0.0520006 -1.20172e-21)
(0.932388 -0.072137 -4.62819e-21)
(1.02007 0.00817094 0)
(1.0643 -0.0883797 -1.39201e-20)
(1.04474 -0.0606434 -8.15844e-21)
(1.00387 -0.0366672 2.7192e-21)
(0.195107 0.0190879 0)
(1.00639 -0.05254 2.9232e-21)
(1.01893 -0.025891 -9.28119e-21)
(1.01701 -0.0824237 0)
(0.996887 0.00134298 -1.26128e-22)
(1.02185 -0.0534697 0)
(0.994013 -0.0263823 0)
(0.814904 -0.156724 5.83268e-22)
(1.05823 -0.14409 -2.54283e-20)
(1.01763 -0.00401613 -4.18191e-21)
(1.05684 -0.0944357 1.14994e-20)
(1.01909 -0.00329751 0)
(0.759837 0.000894843 0)
(1.01448 0.0489456 4.32647e-22)
(1.00094 -0.000534115 0)
(1.00559 0.0116149 -4.54598e-22)
(1.05727 -0.140756 1.10454e-20)
(1.04652 -0.0636661 4.77156e-21)
(1.03948 -0.0354952 -1.74121e-20)
(1.02037 -0.0017334 0)
(1.00451 -0.0180873 0)
(1.01802 -0.0253588 8.03678e-21)
(0.984777 -0.0794808 1.39045e-22)
(0.149699 0.0975099 -6.91163e-20)
(0.857993 -0.084793 -2.66509e-20)
(0.974526 -0.0386025 0)
(0.84346 -0.15488 0)
(1.04683 -0.113931 -8.5213e-21)
(1.01765 -0.00167826 0)
(1.05085 -0.0750465 0)
(1.03606 -0.10346 0)
(1.0124 0.0316033 0)
(0.97929 -0.0679825 4.49619e-22)
(1.04128 -0.110731 -1.11944e-21)
(1.04049 -0.103268 8.47251e-21)
(1.00753 0.0303336 0)
(0.772167 -0.071253 -6.46506e-21)
(0.879234 -0.078395 8.29774e-22)
(1.01819 -0.00139248 6.39813e-21)
(1.00573 -0.042052 -8.22622e-23)
(1.00408 -0.0435533 -3.19226e-22)
(1.02341 -0.117005 0)
(1.04046 -0.0349359 5.83758e-21)
(0.978067 -0.0698789 -3.99253e-22)
(-0.0478816 0.0255761 -1.72427e-20)
(1.00484 0.00726196 -1.22587e-21)
(0.804124 -0.0383982 3.12292e-21)
(1.00613 0.0119889 -3.87534e-22)
(1.01908 -0.00305076 5.68977e-21)
(0.99895 0.000658799 -3.38686e-23)
(0.999432 0.0034444 -1.38317e-22)
(1.00556 0.00591348 0)
(0.918089 -0.0867157 -1.00386e-21)
(1.02608 -0.0394364 0)
(1.01039 -0.0137077 4.45452e-21)
(1.06488 -0.0861632 2.15047e-20)
(0.996166 0.00179031 -6.47958e-23)
(0.864241 -0.0934069 6.28553e-21)
(1.00919 -0.0674156 0)
(0.856504 0.0301037 -1.47199e-21)
(0.854305 -0.0775648 4.45613e-20)
(1.0099 -0.0140433 -4.57238e-21)
(0.964463 -0.0559357 2.93555e-22)
(1.04142 -0.0609096 0)
(0.82595 0.0296692 -2.32029e-21)
(1.00096 -0.00474891 0)
(0.998243 0.000851497 -6.33994e-24)
(1.00624 0.0362956 0)
(0.00925644 0.0442294 -1.2803e-20)
(1.00458 -0.000707641 -1.27774e-21)
(0.304415 0.000593583 6.62376e-21)
(1.01159 0.0290996 7.64356e-23)
(1.03976 -0.111249 -8.44514e-21)
(0.784256 -0.067123 1.94768e-20)
(1.00466 -0.0551595 -2.95723e-22)
(1.00732 -0.0531126 3.3162e-22)
(1.0329 0.0363096 0)
(1.0069 0.00331324 0)
(1.01764 -0.000775417 -4.43532e-22)
(0.976077 -0.0367712 0)
(1.05862 -0.0946627 0)
(0.0552941 0.119612 -1.72148e-20)
(1.06413 -0.0756091 0)
(0.858983 -0.123693 -8.49705e-22)
(0.919475 -0.0749436 -1.95299e-21)
(0.996021 0.001228 -2.6165e-22)
(1.02242 -0.0054406 3.01165e-21)
(0.838352 -0.0799493 1.37467e-20)
(0.357903 -0.00689113 -2.70329e-21)
(0.962984 -0.086636 0)
(1.00514 -0.0875008 2.31699e-20)
(1.00512 0.0372411 5.99992e-22)
(1.04166 -0.0626273 0)
(1.00703 -0.000353253 -9.87506e-24)
(1.0372 -0.112117 -7.57059e-21)
(1.01911 0.00227765 -1.58951e-22)
(1.01748 -0.0649083 0)
(1.03208 0.0345388 -1.60696e-22)
(1.02822 -0.0114682 0)
(0.998915 0.000217671 -1.5122e-23)
(1.02037 0.00766177 -3.91802e-22)
(0.995475 0.000137413 9.70154e-23)
(1.0411 -0.101037 0)
(0.986793 -0.0675459 -4.25421e-22)
(0.807082 -0.0137254 2.53908e-20)
(0.981202 -0.0399505 0)
(1.056 -0.0963141 -2.62978e-22)
(0.957978 0.00504273 -1.02533e-21)
(1.06317 0.0413203 0)
(1.0186 -0.0543831 -5.84519e-21)
(1.0212 -0.119578 -5.1692e-21)
(1.03035 -0.0482853 4.44583e-21)
(0.972512 -0.0602946 -1.41532e-22)
(0.998652 0.000967595 1.46369e-22)
(1.01979 0.00716407 0)
(1.00403 -0.000426473 -8.68571e-23)
(1.0345 -0.109527 9.8507e-21)
(0.881411 0.0962654 0)
(1.0386 -0.102708 -4.02918e-23)
(0.959501 0.00237215 2.08303e-21)
(0.784716 -0.0136633 -2.68031e-20)
(0.964392 0.104761 0)
(0.955412 0.0417198 0)
(1.00179 -0.000332471 2.52794e-21)
(1.06034 -0.106954 9.21434e-21)
(1.00131 -0.00450174 -3.25996e-21)
(1.0576 0.0313934 0)
(0.997908 0.000215399 -1.15214e-22)
(1.0058 -0.126969 0)
(0.972264 -0.0182895 -1.48886e-20)
(1.02221 -0.0907814 0)
(0.651512 -0.0209506 8.24929e-22)
(1.03225 0.0228124 -1.5382e-22)
(0.959694 -0.0294062 0)
(0.945206 0.000830867 5.54662e-21)
(0.101338 0.0562277 5.34438e-20)
(1.00136 0.00205435 2.62677e-23)
(1.04157 -0.0658915 0)
(1.04632 -0.0878076 9.16998e-21)
(1.01809 -0.0336009 -1.45242e-22)
(1.01736 0.00154107 3.27037e-22)
(1.01648 -0.0255442 0)
(1.0831 -0.122794 0)
(1.0394 -0.108657 0)
(0.977603 -0.0454692 -4.21052e-22)
(0.439595 -0.0657879 -4.00996e-21)
(1.00279 -0.000503422 -1.01815e-22)
(1.0051 0.0122677 -3.04046e-22)
(-0.0279834 0.0831603 0)
(1.00199 -0.0529922 5.10136e-21)
(1.00196 0.00632979 4.0135e-23)
(1.02902 -0.0217413 0)
(1.00713 0.00329717 -6.75889e-22)
(0.982616 -0.00854016 -1.37544e-22)
(1.01729 0.00348694 -4.11254e-22)
(0.998447 -0.0641525 -1.8745e-21)
(1.00638 -0.0329627 0)
(1.00136 0.0066892 3.12882e-23)
(1.0325 0.0220479 1.77676e-22)
(1.03418 -0.0868524 2.3214e-21)
(1.01656 -0.010925 0)
(1.06228 -0.0791308 1.85661e-20)
(1.008 0.00138257 -1.1199e-21)
(0.986023 0.0324843 0)
(0.964261 -0.0462882 0)
(1.00149 0.000111318 -4.76927e-22)
(0.999254 -0.00134304 -6.01226e-22)
(1.00428 0.000266622 0)
(1.00437 0.00010393 -4.43095e-22)
(0.789647 0.0804167 -5.74419e-22)
(1.02367 -0.0252819 0)
(0.942794 0.0383315 1.54037e-21)
(1.01747 -0.00814704 0)
(1.00815 -0.000498617 -2.23242e-24)
(-0.0744148 0.0694577 3.91224e-21)
(0.629711 -0.0159629 0)
(1.01883 -0.0098246 -5.27822e-21)
(0.987165 0.0355697 6.90477e-22)
(1.01981 -0.0552352 1.62259e-21)
(1.02601 0.0983177 3.39826e-21)
(0.0589896 0.0400234 -2.57361e-20)
(1.00446 0.0117435 -1.15974e-22)
(1.02996 -0.045538 -1.21394e-21)
(1.00102 -0.00557835 0)
(1.03691 -0.096764 -1.20394e-20)
(1.02887 -0.0137082 -2.35035e-21)
(-0.0690567 0.0519318 0)
(0.998696 0.000873936 6.15622e-23)
(-0.0154064 0.00959262 2.8621e-20)
(1.00067 -0.0713672 -1.63711e-21)
(0.997319 0.00168849 0)
(0.991589 0.0361796 1.2879e-22)
(0.875664 -0.0714171 -7.6925e-21)
(1.02592 -0.0808595 -7.71161e-21)
(0.99644 0.00132556 1.33046e-21)
(1.00343 0.000336525 0)
(0.826602 -0.00671084 -1.03959e-20)
(1.00333 -0.000585141 0)
(1.01095 0.00337574 8.09635e-22)
(1.00982 0.00496095 4.12474e-22)
(1.02967 -0.0091572 -4.17941e-21)
(0.3865 -0.0209817 -9.27294e-21)
(1.05314 -0.101541 1.25238e-20)
(1.03959 -0.119643 1.29663e-20)
(1.03555 -0.100576 0)
(0.963717 -0.0517549 4.71048e-22)
(1.00245 0.0110473 -1.24676e-23)
(1.04906 -0.104096 -4.37321e-21)
(0.909516 0.100547 1.05338e-20)
(1.03288 -0.0548958 0)
(1.05716 -0.0597686 -1.29175e-20)
(1.0273 0.0876574 -4.30079e-21)
(0.88498 -0.0532325 -2.46481e-21)
(0.976716 -0.117557 2.73422e-21)
(1.01496 -0.000865533 3.26769e-21)
(-0.073508 0.0503763 2.36116e-20)
(0.164077 0.0146772 0)
(0.265149 -0.0201801 0)
(1.0049 -0.0532053 0)
(0.993183 0.0387333 -3.87048e-23)
(0.882057 -0.0495928 1.53356e-21)
(0.962705 -0.0333592 -3.74892e-22)
(0.937597 -0.0314331 -2.69496e-21)
(0.961707 0.120556 1.44728e-21)
(1.01049 -0.135446 -6.17718e-21)
(1.00646 -0.0369864 -3.17617e-21)
(1.01699 -0.137041 5.1247e-21)
(1.00573 -0.133473 8.76522e-22)
(0.998814 0.00099309 -1.9465e-22)
(0.967327 -0.0321915 0)
(1.05384 -0.103152 -1.60028e-21)
(0.610016 -0.000165761 -1.27557e-21)
(1.01866 -0.041485 7.74794e-21)
(1.01106 -0.00704259 3.20223e-21)
(1.00582 0.00696631 -6.59574e-22)
(1.00426 -0.00925989 -1.47243e-21)
(1.03876 -0.0990899 6.26025e-22)
(0.990452 -0.0610336 -2.56668e-21)
(1.03184 -0.0475353 -2.88938e-22)
(0.466639 -0.0538711 7.4661e-21)
(1.0115 0.00142422 -3.32163e-22)
(-0.0234412 0.0885022 0)
(0.73036 -0.0152527 -6.75449e-23)
(0.941415 0.080666 0)
(0.910919 0.0615985 -4.32319e-21)
(1.06063 -0.0778483 -1.64957e-20)
(1.00187 0.00535967 -1.72126e-23)
(1.02006 0.006694 3.78117e-22)
(0.915734 0.00787743 0)
(1.05437 -0.104294 5.56048e-21)
(1.03865 -0.0378512 -3.78605e-21)
(1.06687 -0.131138 0)
(1.03869 -0.144317 3.72582e-22)
(0.997848 0.0028552 0)
(0.951229 0.00688325 0)
(0.804634 -0.0791779 1.66782e-21)
(1.02115 -0.113793 1.01702e-20)
(1.04081 -0.106907 -1.31483e-20)
(0.404597 -0.0259265 -4.50358e-22)
(1.00775 -0.142548 1.71193e-21)
(1.00064 -0.00585881 0)
(1.02904 -0.0112066 -4.23981e-21)
(0.766987 0.0351771 0)
(0.909286 -0.0714651 2.09399e-21)
(1.04726 -0.135359 -1.14528e-20)
(1.06608 -0.0748699 0)
(0.956237 -0.0473418 -1.10121e-21)
(0.999301 0.00371232 -3.45292e-23)
(1.00502 -0.00481055 3.06781e-21)
(1.00936 -0.129186 6.75153e-21)
(0.998061 0.0026924 -1.60731e-22)
(1.01747 -0.0408003 0)
(0.999936 0.00437144 0)
(1.00566 0.00169847 1.5585e-21)
(1.00686 -0.130744 1.79374e-22)
(1.04003 -0.0999444 -2.25592e-20)
(0.963409 0.00289172 9.25623e-22)
(0.998325 0.00299468 0)
(0.438105 -0.026079 6.81491e-21)
(0.96737 0.13462 1.40793e-21)
(1.00797 0.00438279 -1.71861e-21)
(1.01076 -0.00111905 5.02011e-24)
(0.996628 -0.0149769 4.63029e-22)
(1.01785 -0.00102856 -6.74408e-21)
(0.00197337 0.0382533 -2.68853e-20)
(0.954751 0.107585 5.06433e-22)
(0.945214 0.106421 6.97168e-23)
(0.177432 -0.00864648 0)
(0.873942 0.0331779 1.35927e-20)
(1.06661 -0.0714885 -1.84182e-20)
(0.59284 0.00956881 -4.92162e-21)
(0.604946 -0.0221125 -4.82234e-21)
(1.00687 0.0307897 1.74559e-23)
(1.05726 -0.0750605 -1.38333e-20)
(1.00222 0.00565926 1.8721e-23)
(0.992418 -0.0256018 0)
(1.02022 -0.0685091 -9.42163e-21)
(1.05488 -0.0934635 1.77599e-20)
(0.757205 -0.0674145 0)
(1.06563 -0.128364 -8.29288e-21)
(1.03476 -0.0626608 7.47288e-21)
(1.01832 0.00521854 2.9567e-22)
(1.01269 -0.0633742 8.09568e-21)
(1.03694 0.0200124 -7.12626e-23)
(0.999591 0.00629548 -2.44929e-22)
(1.04846 -0.102303 1.42584e-20)
(1.01705 -0.00760987 -4.29162e-21)
(0.975298 -0.0409399 -1.73611e-22)
(1.01696 0.00164187 -3.32665e-22)
(1.04954 -0.057561 0)
(1.03824 -0.102611 -1.57551e-20)
(1.03072 -0.0141751 0)
(1.00127 -0.00376866 0)
(1.01026 -0.0683188 2.68266e-21)
(1.02439 -0.0180307 1.50846e-20)
(1.03928 -0.0981801 -6.44897e-22)
(1.03254 -0.109324 -9.58803e-21)
(1.03925 -0.10367 2.36585e-21)
(1.01012 -0.0629764 2.42872e-21)
(1.04687 -0.138566 -3.05344e-22)
(1.01782 0.00485891 -3.37451e-22)
(0.962641 -0.0785219 0)
(1.01626 0.0459699 2.26543e-22)
(0.07441 0.0210596 2.27967e-20)
(0.996626 -0.0185641 8.78295e-22)
(1.01052 -0.000170232 -2.32725e-22)
(1.01344 -0.197284 1.76688e-22)
(0.995366 -0.0323844 -1.89256e-22)
(0.742387 -0.0600726 -2.95138e-20)
(0.827072 -0.076893 1.99404e-21)
(-0.0518564 0.060919 0)
(1.03428 -0.0274154 1.71888e-21)
(1.01857 0.00240878 1.82307e-22)
(1.02858 -0.197229 -1.65266e-22)
(1.00315 0.0184953 0)
(1.00599 0.00226802 0)
(0.998847 0.000947275 -1.11204e-22)
(1.00552 0.00189366 -1.50708e-21)
(0.999759 0.0252433 2.47288e-23)
(0.979028 -0.0395216 3.96071e-22)
(0.998359 -0.0627076 0)
(0.998499 0.0028063 -1.53347e-22)
(1.04601 -0.119029 0)
(1.00005 -0.0716761 1.1018e-21)
(1.0441 -0.117696 0)
(1.0078 0.00761368 1.04573e-21)
(0.999273 0.00107961 -1.33371e-22)
(0.999619 -0.000660556 3.59426e-22)
(1.03545 -0.103412 0)
(0.919152 -0.098765 0)
(1.07476 -0.101813 3.65417e-20)
(1.04877 -0.0585106 0)
(1.00248 0.0186288 8.53343e-24)
(1.00831 -0.000432608 4.646e-24)
(1.01011 0.000916421 3.55491e-22)
(1.00619 0.00898873 1.37704e-21)
(1.02318 -0.116405 -5.33654e-23)
(0.354507 -0.11287 -2.48142e-22)
(1.02385 -0.0173858 -1.50294e-20)
(0.998766 0.00304664 -1.29986e-22)
(1.03038 -0.00876399 8.74025e-21)
(1.00583 0.00839854 -2.01185e-22)
(1.00424 -0.119145 0)
(-0.0215045 -0.00323905 2.48579e-20)
(1.01371 -0.0643384 -5.89989e-21)
(0.927273 -0.0826462 -1.11848e-20)
(0.834618 -0.0374598 7.15333e-22)
(1.00157 -0.00354857 1.71335e-21)
(1.04029 -0.117584 -2.29707e-20)
(0.0693861 0.0551003 -3.84641e-20)
(1.05708 -0.0773198 -1.75206e-20)
(0.877546 -0.138643 -9.52114e-21)
(1.03185 -0.0224627 1.55124e-20)
(0.985346 -0.0397157 9.67676e-22)
(1.07348 -0.100281 -3.38794e-20)
(0.982451 -0.0378497 0)
(0.949567 0.123389 -2.0942e-21)
(1.01837 -0.0092637 0)
(0.883411 -0.0608698 1.33605e-21)
(0.997999 0.000212457 -1.89747e-24)
(1.08284 -0.0632552 4.02598e-20)
(0.677635 -0.031618 2.44657e-21)
(1.02929 0.0102213 -2.67968e-22)
(0.994606 -0.0269868 3.2764e-21)
(0.955525 -0.0442925 -8.01383e-22)
(1.01116 0.00374381 0)
(1.03119 -0.0527084 0)
(0.830581 -0.0118946 -2.41842e-21)
(0.0741852 0.13138 0)
(1.048 -0.100887 0)
(1.03859 -0.104496 0)
(1.00448 -0.0604838 -5.67785e-24)
(1.00005 0.00404401 5.06368e-23)
(1.0078 0.00713951 -5.36799e-22)
(-0.09246 0.0660708 -3.59198e-21)
(1.0411 -0.145145 -2.60017e-21)
(0.984446 -0.0637056 0)
(0.85805 -0.0806697 -4.51346e-21)
(1.02392 0.00108796 -1.80383e-22)
(1.01612 -0.000240657 0)
(0.998642 0.000864915 1.3379e-22)
(0.866317 0.0670453 5.70848e-21)
(1.00127 -0.14392 0)
(1.00789 -0.0482096 1.85935e-21)
(0.993266 -0.00767192 1.40878e-21)
(0.968213 -0.0487639 -2.58884e-22)
(1.04664 -0.0460514 1.28725e-20)
(0.99949 -0.000699588 -2.68888e-22)
(-0.0103747 0.0795303 0)
(0.93553 -0.034658 5.41946e-23)
(0.832786 -0.0390757 7.06202e-21)
(0.997088 0.00175569 -1.17682e-22)
(1.02431 -0.0167119 1.40415e-20)
(0.631332 0.00823411 4.8887e-21)
(-0.002713 -0.0272182 2.9863e-20)
(1.04749 -0.15156 2.00408e-20)
(1.0363 0.0191468 9.94165e-23)
(1.00597 -0.151888 1.8177e-21)
(1.01736 -0.00986698 -4.09199e-21)
(0.972238 -0.0553503 1.84201e-23)
(1.0241 -0.105199 -8.33847e-21)
(1.02136 -0.0924574 0)
(1.02227 -0.0498391 -7.04461e-21)
(-0.022072 0.054879 2.79999e-20)
(1.03002 0.0404423 -1.52181e-22)
(1.04443 0.0215194 0)
(1.01122 -0.161116 -7.76511e-21)
(1.01076 -0.0001273 -9.61487e-24)
(0.998903 3.40891e-05 -1.63979e-21)
(1.00637 -0.0342466 0)
(1.01802 0.00448064 -4.3034e-22)
(-0.0109082 0.0786762 1.17458e-21)
(1.02478 -0.0664124 3.33631e-21)
(1.04062 -0.10819 -1.32454e-20)
(0.964475 0.00038124 -1.48894e-21)
(0.969345 -0.0394066 -3.57575e-22)
(1.01811 0.00564672 0)
(0.828824 -0.0270263 4.81196e-21)
(1.00626 0.000522613 6.13817e-22)
(1.03245 0.0397932 0)
(0.998622 0.000800134 -1.20276e-22)
(1.00184 -0.00272755 -1.6235e-21)
(1.00402 -6.70131e-05 2.21776e-21)
(0.918362 -0.0683385 4.47642e-21)
(1.00544 0.00626662 1.24401e-21)
(0.997744 0.000419256 -1.88033e-22)
(0.922195 -0.0462642 1.8132e-21)
(1.02995 -0.0117065 1.30768e-20)
(0.650901 -0.0013193 -1.41675e-21)
(0.997713 3.24434e-05 -1.82224e-22)
(1.03473 0.0203648 1.31243e-22)
(1.06236 -0.11179 -1.89261e-20)
(0.999064 -0.120844 0)
(1.01871 -0.0403082 6.78786e-22)
(1.01235 0.00103167 -2.93456e-22)
(0.906749 0.019544 -2.45754e-21)
(0.953001 -0.0891817 2.01185e-20)
(1.02321 -0.0261129 0)
(0.999617 -0.0888988 2.60116e-21)
(1.08087 -0.0625024 -1.22856e-20)
(1.01774 0.00380596 0)
(1.05488 0.0400652 1.99054e-23)
(-0.0226685 0.0958318 -6.27919e-20)
(0.912576 0.0244122 4.06207e-21)
(1.01719 -0.052033 -5.74945e-21)
(1.01107 0.00122558 -3.66993e-22)
(0.998942 0.00284036 0)
(0.94452 0.0523902 2.75308e-22)
(1.01871 -0.0946425 0)
(1.00007 -0.0698991 1.01958e-21)
(1.00662 -0.0507088 -3.47945e-21)
(1.05762 0.0413362 0)
(1.01602 -0.00101786 0)
(1.0352 0.0199394 -2.56589e-22)
(1.07761 -0.136049 -2.95887e-20)
(0.95041 0.15393 4.75681e-22)
(1.03726 -0.0984966 0)
(0.758228 -0.0786417 0)
(1.02378 -0.0160416 -4.02165e-21)
(1.03761 -0.0975481 1.00166e-20)
(1.05103 -0.11102 1.52726e-20)
(0.831041 -0.166161 0)
(1.00653 -0.0473629 -1.70638e-21)
(0.548672 -0.0616345 -7.44428e-21)
(1.03737 -0.101089 0)
(1.03085 -0.0113674 0)
(0.407655 -0.0291039 2.45045e-20)
(0.96407 -0.0741056 0)
(0.975346 -0.105375 -2.96807e-20)
(0.0897093 0.13401 9.8299e-21)
(0.965238 -0.0728578 0)
(1.02418 -0.0521921 0)
(1.01796 -0.0729838 0)
(1.01756 0.00415035 4.27749e-22)
(0.97534 -0.0345585 -3.02813e-22)
(-0.0325124 0.00448974 0)
(0.18534 0.00816977 0)
(1.00941 0.0132923 0)
(1.00561 -0.000407001 4.2979e-23)
(1.05669 -0.105253 1.6404e-20)
(0.884993 0.0107371 -1.4656e-22)
(0.997171 0.000226213 2.18176e-22)
(-0.0119971 -0.0116206 0)
(1.02302 0.000881921 2.04015e-22)
(1.01286 -0.0137616 2.29404e-21)
(-0.0249823 0.0798794 -1.29112e-21)
(0.648532 0.00811455 1.46493e-23)
(1.00835 -0.062922 0)
(1.00622 0.00250668 0)
(1.01939 -0.00273603 -1.95831e-21)
(-0.0057702 -0.022512 -3.36136e-20)
(1.02606 -0.115557 0)
(1.05053 -0.133808 0)
(1.00591 0.0262538 -2.40302e-22)
(0.889203 -0.0873587 -1.23258e-20)
(1.02314 -0.112365 6.53745e-21)
(0.963982 -0.104021 -2.96057e-22)
(1.0534 -0.0949064 2.7347e-21)
(1.06324 -0.084761 0)
(1.01732 -0.0260077 0)
(1.029 -0.0128706 0)
(0.852893 -0.191567 -3.71018e-21)
(1.08507 -0.0992615 -2.13179e-20)
(0.344562 -0.00620685 4.10806e-21)
(1.00557 0.0414153 -8.5046e-22)
(1.06258 -0.0742078 0)
(0.00429989 0.0720015 -4.056e-20)
(0.953317 -0.102181 2.02828e-20)
(0.71061 -0.00536344 1.91624e-21)
(1.02143 -0.0108154 0)
(1.06806 -0.0675478 -2.35827e-20)
(1.00825 0.00435134 1.12562e-21)
(1.01122 -0.0639219 -5.19183e-21)
(0.993968 -0.0257774 -1.56272e-21)
(0.804054 -0.158104 0)
(1.00987 -0.000275577 -1.06382e-20)
(0.536534 -0.066174 -1.65983e-20)
(0.997278 -3.64216e-05 1.57627e-22)
(1.0621 -0.110247 3.07021e-20)
(1.00355 -0.00503276 0)
(1.02239 -0.108667 -5.49535e-21)
(1.06719 -0.0730144 0)
(1.06595 -0.0669463 0)
(0.93023 -0.0803578 -2.8545e-20)
(1.06935 -0.0889347 -1.31357e-20)
(0.997297 -0.0652125 3.82169e-21)
(1.00887 0.000299092 0)
(1.05985 -0.108585 -1.70532e-20)
(0.781709 0.0230464 -2.81253e-22)
(0.958393 -0.0569023 -3.9821e-22)
(1.01514 -0.0409284 -4.40502e-21)
(0.644827 0.0121412 -4.2969e-23)
(0.996011 -0.0129276 0)
(0.138391 0.133853 -9.24887e-21)
(1.03085 -0.0501144 4.58041e-22)
(1.01476 -0.0212316 5.55128e-23)
(0.920912 -0.1068 3.97686e-21)
(-0.00897252 0.0485403 -1.28642e-20)
(0.670078 -0.00601707 1.23906e-21)
(1.0217 -0.0510972 0)
(1.00835 0.0429889 6.94975e-22)
(1.00673 0.0111889 0)
(0.824824 -0.0355974 -1.47739e-20)
(1.01412 -0.000476319 5.91965e-21)
(0.733085 -0.0784006 3.60921e-23)
(0.614052 -0.0357054 0)
(1.00684 0.00686593 5.23913e-22)
(1.05057 -0.0294143 1.3665e-20)
(1.03495 -0.108385 0)
(0.958081 0.14111 8.14676e-22)
(0.369607 -0.0304606 0)
(1.01961 -0.0179999 -7.46498e-21)
(1.01325 -0.00088348 0)
(0.64666 -0.00313954 -7.53836e-21)
(0.653722 -0.0316446 8.78357e-21)
(1.04013 -0.106123 1.36204e-20)
(1.01715 -0.0504781 6.15579e-21)
(1.00562 0.0240732 -7.18822e-23)
(1.03052 -0.0540127 -8.21798e-22)
(-0.0472112 0.0708066 0)
(1.04939 -0.110694 -1.9081e-20)
(0.997679 0.00024927 3.06969e-22)
(1.01856 -0.074335 0)
(1.01035 0.00357302 -4.2843e-22)
(1.00123 0.000168334 3.38315e-21)
(1.00403 -0.0470679 1.19912e-22)
(1.00704 -0.000271884 0)
(1.01673 -0.126482 -5.82731e-21)
(1.06509 -0.00957783 -1.29957e-20)
(1.01238 -0.0141788 1.15561e-21)
(1.03382 0.0219891 1.64059e-22)
(1.00676 0.0117462 0)
(1.00757 -0.0350522 0)
(0.479311 0.00341929 1.69389e-20)
(0.870065 -0.0733137 0)
(1.0432 -0.0651771 1.70385e-23)
(0.555714 -0.0572116 -9.43105e-21)
(1.00386 -0.00509835 -1.23874e-21)
(1.04012 -0.0649726 0)
(1.00748 0.0111617 2.34953e-22)
(1.01005 0.00366372 4.39191e-22)
(1.0074 -0.0184559 5.92728e-21)
(1.01164 -0.0137662 5.34088e-21)
(0.543229 -0.00938425 -8.65269e-21)
(1.01863 -0.0103769 8.82427e-21)
(1.07073 -0.0992904 0)
(1.02126 -0.0114494 -3.33792e-21)
(1.0185 -0.0527694 -5.94401e-21)
(1.00683 -0.0486399 1.5406e-22)
(0.00637077 -0.0259905 3.19062e-23)
(1.00347 0.00031247 2.46547e-21)
(0.795814 0.0300381 -6.27546e-23)
(1.00038 -0.0705192 0)
(1.02674 -0.102325 1.10722e-20)
(1.02575 -0.0675184 -7.21487e-21)
(1.03307 -0.0698476 -8.90978e-21)
(0.347982 0.00101 -6.92937e-21)
(1.0512 -0.0572945 0)
(0.986666 -0.0604864 -3.77155e-22)
(0.811692 -0.148843 1.32429e-20)
(0.839341 -0.0731886 -4.04565e-22)
(-0.0217297 0.0339758 2.94053e-22)
(1.03478 -0.0789572 5.83136e-21)
(0.979962 -0.0818314 -5.11217e-23)
(0.99722 -0.0174399 -2.44981e-21)
(1.06929 -0.0866119 -1.09107e-20)
(1.05408 -0.093 -1.42328e-20)
(0.396405 -0.0307579 -8.72698e-23)
(1.01169 0.00085128 -2.93166e-22)
(0.0831875 0.0862058 -1.89155e-20)
(1.00826 0.00719022 1.07192e-21)
(1.00731 0.00749939 -1.15812e-21)
(0.0337295 0.121402 1.77217e-20)
(0.995568 -0.0234903 4.8561e-22)
(1.03669 -0.101199 0)
(1.02254 -0.050993 0)
(1.00945 0.00501287 4.83387e-22)
(0.953753 0.00417221 2.58893e-22)
(1.00866 0.00471506 0)
(1.01975 -0.00278641 0)