/*--------------------------------*- C++ -*----------------------------------*\
| =========                 |                                                 |
| \\      /  F ield         | OpenFOAM: The Open Source CFD Toolbox           |
|  \\    /   O peration     | Version:  v2012                                 |
|   \\  /    A nd           | Website:  www.openfoam.com                      |
|    \\/     M anipulation  |                                                 |
\*---------------------------------------------------------------------------*/
FoamFile
{
    version     2.0;
    format      ascii;
    class       volVectorField;
    location    "200";
    object      U_0;
}
// * * * * * * * * * * * * * * * * * * * * * * * * * * * * * * * * * * * * * //

dimensions      [0 1 -1 0 0 0 0];


internalField   nonuniform List<vector> 
13851
(
(0.98266 -0.0100458 1.47869e-22)
(0.971992 -0.202752 7.85173e-21)
(1.02539 -0.0945967 0)
(0.983654 -0.00654503 -7.61215e-23)
(1.04025 -0.0980791 0)
(0.930871 0.0304876 0)
(1.03256 -0.0103417 1.44717e-20)
(1.03021 -0.0816429 -8.64062e-21)
(1.01952 0.00615702 3.60267e-22)
(1.00554 -0.0894495 3.41993e-21)
(0.984781 -0.0739521 0)
(0.871459 -0.121045 -6.24948e-21)
(1.03206 -0.0969807 0)
(0.018737 0.112766 2.53203e-20)
(1.01799 -0.00170981 3.0587e-21)
(1.01599 -0.0650294 -3.40929e-21)
(1.03236 -0.0501706 0)
(0.985681 -0.042938 -4.38869e-22)
(1.04028 -0.102626 1.57231e-20)
(1.01868 0.00610431 -6.39541e-22)
(0.98506 -0.00660939 3.41692e-22)
(1.02733 -0.0943413 1.59763e-20)
(0.999532 -0.000347558 -9.62808e-25)
(1.00904 0.000298057 9.01109e-22)
(0.999426 -0.000207484 9.53136e-23)
(1.0285 -0.0818111 6.62249e-21)
(1.05115 -0.0439458 8.7905e-21)
(0.00947697 -0.0266446 0)
(0.983967 -0.0110454 -3.62769e-23)
(1.00263 -0.0401546 0)
(0.922916 0.0386992 -1.73826e-21)
(1.03256 -0.0518222 9.43028e-21)
(1.02434 -0.0933837 0)
(0.968245 0.106647 2.49465e-22)
(1.0101 0.000464393 -1.11405e-21)
(1.04585 -0.158287 -2.32701e-20)
(1.00971 -0.16575 -6.67446e-21)
(1.03369 -0.106177 -9.26571e-21)
(1.00423 -0.0912448 3.14431e-21)
(0.969731 0.108386 0)
(1.00035 -0.00694782 4.84053e-22)
(0.997555 0.00205001 -1.91115e-22)
(-0.0212357 0.105165 0)
(0.990329 -0.0903297 2.07238e-22)
(0.984004 -0.0918079 -2.26012e-22)
(0.108519 0.0208182 2.41337e-20)
(0.987017 -0.116003 1.80933e-22)
(0.783421 -0.0248546 -2.52766e-22)
(1.05223 -0.0452567 -4.49053e-21)
(1.06024 0.0523163 -7.76677e-22)
(1.05293 -0.106425 0)
(1.03811 -0.108116 0)
(-0.0160162 0.00279761 -1.2985e-20)
(1.01711 -0.00128728 6.63444e-21)
(1.00401 -0.000696339 0)
(0.997573 0.00253583 1.92455e-22)
(1.01203 -0.000654741 3.26428e-23)
(-0.0249001 -0.000411376 3.35618e-20)
(1.00246 -0.0387856 -2.11567e-21)
(1.03164 -0.0147206 9.82415e-21)
(1.03301 -0.107011 0)
(0.878648 -0.0950642 0)
(0.959507 -0.0480719 -4.76292e-22)
(1.0402 -0.100793 -1.19719e-20)
(0.997347 -0.0913416 8.62647e-22)
(0.975884 -0.00714025 -3.61223e-22)
(1.0096 -0.168009 -4.42201e-21)
(0.985071 -0.130034 -3.56839e-22)
(1.05894 -0.0742211 0)
(0.98443 -0.0417168 -4.13126e-22)
(0.359461 0.00524504 -6.92546e-21)
(1.02548 -0.190536 5.0241e-21)
(0.909745 -0.197104 2.07167e-21)
(1.01733 -0.00131608 0)
(1.00498 -0.00089762 -2.67081e-21)
(1.0243 0.0102902 0)
(1.0283 -0.0934166 -1.18893e-20)
(0.692592 0.00837902 -5.94373e-21)
(1.04521 -0.0865612 -7.68873e-21)
(0.288179 -0.00271075 0)
(1.033 -0.0222722 0)
(0.973813 0.0193721 0)
(1.01624 -0.0102221 2.98204e-21)
(0.0857525 0.0319603 2.83743e-20)
(0.960239 -0.0510836 5.05043e-22)
(0.895018 -0.113651 -1.59586e-21)
(0.950148 0.0374937 1.15708e-21)
(1.02901 -0.0370822 -3.48579e-23)
(1.04284 -0.0519725 0)
(1.01897 -0.0195922 8.27085e-23)
(1.04554 -0.154777 1.76383e-20)
(1.00817 0.0288811 1.17604e-22)
(0.989059 -0.130277 2.09477e-22)
(1.04635 -0.0600813 -1.01843e-20)
(1.04416 -0.0508656 1.49619e-21)
(1.01015 -0.000246178 -1.03201e-22)
(1.04062 -0.0991217 0)
(0.953778 -0.0822319 -7.56954e-21)
(1.05063 0.0565045 4.54616e-22)
(1.00848 -0.000131201 1.73475e-22)
(-0.0387756 0.0495814 -9.7677e-21)
(1.0527 -0.0915075 -1.22896e-21)
(0.994733 -0.0189767 -2.15007e-21)
(1.06576 -0.0344265 0)
(0.998714 0.000291073 0)
(0.963902 0.0561528 -2.3772e-21)
(1.05423 -0.0964194 -2.29782e-20)
(0.999247 0.00302722 0)
(1.00061 -0.200172 -1.96046e-21)
(0.928583 0.0214162 0)
(1.00878 9.43045e-05 0)
(1.01986 -0.0204331 -1.15899e-22)
(1.00645 0.0295103 -3.35131e-22)
(1.00247 0.000172018 0)
(1.01026 0.000142881 0)
(0.749454 -0.063478 7.12525e-22)
(0.986811 -0.0870686 -5.59811e-21)
(0.998415 0.000949355 0)
(1.00254 0.000229598 0)
(1.00245 -0.000349022 4.59439e-21)
(-0.017943 0.105956 -2.69998e-20)
(1.06384 -0.0346926 0)
(1.03462 -0.0971292 0)
(0.932626 -0.0397225 -4.03804e-21)
(0.809447 -0.0350753 -2.2042e-21)
(0.9912 -0.0221444 -2.72313e-22)
(0.812289 -0.0607101 1.39086e-21)
(1.04879 -0.0888654 2.52295e-21)
(0.985829 -0.00445947 -5.17987e-22)
(1.03705 -0.102315 0)
(1.00072 -0.0067076 -4.31654e-22)
(1.00907 0.00385623 -9.19176e-22)
(0.385853 -0.0060964 0)
(1.01659 -0.00974457 -3.91407e-21)
(0.771846 -0.0614634 1.16063e-21)
(1.00807 0.00123523 -1.2834e-22)
(0.998483 0.000826653 1.6063e-22)
(1.01973 -0.179366 -7.23162e-22)
(0.111413 0.0429673 -4.11016e-21)
(0.0968578 0.108287 -9.7718e-22)
(-0.0548849 0.0445073 -1.04689e-20)
(1.00361 -0.000631465 -2.63205e-21)
(1.03407 0.0213419 3.09882e-22)
(0.993195 -0.00229116 0)
(1.0231 -0.0407173 2.82339e-21)
(0.997091 -0.0953603 -6.15928e-22)
(0.984379 0.0221235 6.18931e-23)
(1.0366 -0.102529 0)
(1.03157 -0.0100423 -4.11246e-21)
(0.979435 -0.0875368 3.72701e-22)
(1.08138 -0.126447 0)
(1.00284 -0.000369877 0)
(0.0262058 0.109507 5.64502e-22)
(1.0118 -0.000700718 2.55841e-23)
(1.03748 -0.0368758 -1.12129e-20)
(1.02197 -0.0401028 0)
(1.00569 0.00732997 -6.17557e-22)
(1.0076 -0.0363891 3.10569e-21)
(1.03809 -0.107149 0)
(1.05224 -0.104739 -1.19686e-20)
(1.00288 0.0106375 0)
(1.05867 -0.0589053 0)
(-0.0242563 -0.00110731 2.07967e-20)
(1.00943 0.00380203 4.78122e-22)
(1.0034 -0.0522956 0)
(0.995388 -0.000421826 7.31552e-23)
(0.978093 0.0185197 0)
(1.06071 -0.0753555 0)
(0.986847 -0.00442045 1.11524e-22)
(0.834305 -0.0720139 -3.32019e-20)
(0.674947 0.0141381 7.64727e-21)
(1.01654 -2.10833e-05 0)
(1.00512 0.0069812 -1.34244e-21)
(0.082385 0.113976 5.59706e-21)
(1.00929 0.00344715 -1.41813e-21)
(0.78271 0.0114189 -3.50123e-22)
(1.04795 -0.0875269 0)
(1.03048 0.0237624 0)
(1.03967 -0.102012 -1.2176e-20)
(0.999562 0.00421883 0)
(1.03131 -0.0542783 0)
(1.02329 -0.186807 -2.79312e-21)
(1.01717 -0.00866289 -8.96637e-21)
(1.0281 -0.0958176 -1.68154e-20)
(1.00135 0.00180108 -1.49678e-24)
(1.00466 -0.000672724 0)
(0.975742 -0.00935432 3.35082e-22)
(1.00415 -0.000641643 -2.2239e-21)
(1.03779 -0.099198 -9.6401e-21)
(0.999347 -0.0734326 -1.28389e-21)
(0.99223 -0.122956 2.26314e-21)
(-0.0209714 0.00297456 -1.15713e-20)
(1.02022 -0.0224048 -1.63684e-23)
(1.05225 -0.0740494 0)
(0.907035 -0.0990621 0)
(1.03512 -0.0358083 0)
(1.03308 0.0206256 0)
(0.965944 0.125519 -1.35689e-21)
(1.03063 0.0227976 7.50339e-23)
(1.02409 0.0108274 4.11865e-22)
(0.99241 -0.0231822 2.76148e-22)
(0.448002 -0.0518692 -8.29988e-21)
(0.998948 6.75908e-05 1.58002e-21)
(1.00902 -0.00943144 0)
(1.00343 -0.0771549 1.76497e-21)
(1.01761 -0.00919866 0)
(0.834658 -0.0979176 -2.08967e-20)
(1.03603 -0.0508565 0)
(0.634225 -0.0324063 -4.37809e-21)
(1.00129 0.00711508 -6.66399e-23)
(0.948646 -0.110139 -5.88368e-23)
(0.995431 -0.0181531 0)
(0.940108 0.116135 0)
(1.00048 0.00421174 -3.43905e-23)
(0.99402 -0.000279195 3.28063e-22)
(0.976562 -0.061929 1.58028e-22)
(0.965368 -0.0542263 0)
(0.0216261 0.0375196 0)
(1.01735 -0.00360498 0)
(0.659382 -0.0376123 1.12255e-22)
(1.03538 -0.0519003 -6.30505e-21)
(1.03407 -0.0230683 0)
(1.0257 -0.0826957 0)
(1.03868 -0.103423 7.61913e-21)
(0.810773 -0.11301 4.39396e-21)
(1.00201 -0.000353502 8.26759e-24)
(1.04621 -0.0655286 0)
(0.99868 0.000167492 0)
(-0.0446662 0.0287347 -1.16506e-20)
(1.00081 0.00473435 -5.67107e-24)
(1.02737 -0.0804333 0)
(0.965363 -0.0902035 1.28161e-22)
(1.01618 -0.000102225 0)
(1.01938 -0.0216038 0)
(1.05879 -0.105361 -1.49357e-20)
(0.984365 -0.061265 1.25542e-21)
(0.912612 -0.0991055 1.39188e-20)
(1.00186 -0.0936271 3.35342e-22)
(0.99319 -0.00140689 0)
(1.00944 -0.00983234 -1.81616e-21)
(0.928556 0.0492157 6.68183e-21)
(1.04847 0.0713062 2.3834e-21)
(1.00263 0.0164323 1.05224e-22)
(1.00199 -0.0778468 -1.48879e-21)
(0.998631 0.000467636 0)
(0.752124 -0.0870766 5.40889e-21)
(1.05103 -0.0919349 2.50304e-21)
(0.957185 0.103619 -4.26042e-22)
(1.01973 -0.0405697 -4.89466e-21)
(1.02118 -0.0522751 -1.5387e-21)
(1.01968 0.0436931 -1.16811e-22)
(1.04888 0.0719398 -1.84307e-21)
(1.02162 -0.0267475 6.35169e-22)
(1.02095 -0.0411948 0)
(1.06492 -0.0975999 1.97471e-20)
(0.937597 -0.0335668 -9.63862e-22)
(1.00017 -0.0727034 1.10721e-21)
(1.01817 -0.176048 -1.99958e-21)
(0.719259 0.0170101 0)
(1.02182 -0.00519383 0)
(0.993885 -0.00107622 0)
(0.984295 -0.0379795 0)
(0.79366 -0.0498677 1.15751e-21)
(0.995848 -0.0139231 0)
(1.03741 -0.103827 9.68712e-21)
(1.03409 -0.0359465 -9.65992e-23)
(1.02206 -0.0259259 -5.20507e-21)
(1.04666 -0.05877 1.04028e-20)
(1.04051 -0.0864224 0)
(1.0185 -0.0333742 8.7054e-23)
(1.02261 0.0446689 -1.11842e-22)
(1.0362 -0.0372112 2.96e-22)
(0.884901 0.0101306 7.70771e-21)
(1.04582 -0.0849355 0)
(1.01511 -0.0638145 0)
(1.00916 0.0042005 -9.70252e-22)
(0.987555 0.0224454 9.12101e-23)
(0.970028 -0.0354135 0)
(0.759269 -0.1441 0)
(0.980885 -0.0717108 -4.231e-23)
(1.0034 0.0174197 -1.38835e-22)
(1.00198 0.00678603 1.58103e-23)
(0.999072 0.000353222 1.21547e-22)
(1.06609 -0.0958492 -6.57074e-21)
(0.770064 -0.0532894 0)
(0.787976 0.0567911 2.09547e-22)
(1.02081 0.00865725 -3.42686e-22)
(1.02037 -0.00202646 6.42527e-21)
(0.86823 0.00978633 -8.72958e-21)
(0.950505 0.0192175 0)
(1.03646 -0.103066 -1.3279e-20)
(1.00395 -0.0379746 2.76847e-21)
(1.03161 -0.0155517 -1.15053e-20)
(1.05524 -0.0781664 0)
(0.946903 0.0140323 3.92591e-24)
(1.0379 -0.103092 -4.75617e-21)
(1.00704 -0.0519211 2.3444e-21)
(0.890615 -0.0959068 1.65299e-20)
(1.00899 0.00465411 -9.95431e-22)
(0.786664 -0.0918468 -4.73675e-21)
(1.05883 -0.0575385 -1.62518e-20)
(1.03067 -0.0496854 4.62389e-21)
(0.796065 -0.143784 0)
(1.00385 -0.0182868 5.63307e-21)
(0.955396 0.0523934 0)
(0.932793 -0.0718708 3.63264e-21)
(1.0201 0.00815439 3.72609e-22)
(1.06418 -0.0883685 -1.17358e-20)
(1.04466 -0.0606468 -1.02268e-20)
(1.00382 -0.0366379 0)
(0.195551 0.0194812 1.7422e-20)
(1.00631 -0.0525299 -5.83042e-21)
(1.01889 -0.0258828 8.09443e-21)
(1.01717 -0.082245 -2.31463e-20)
(0.996892 0.00136588 2.37924e-22)
(1.02179 -0.0534648 0)
(0.993927 -0.0263531 -5.24069e-22)
(0.81616 -0.156652 3.64294e-21)
(1.05795 -0.143943 -6.74881e-21)
(1.01762 -0.00401641 0)
(1.05672 -0.0944024 -2.31887e-20)
(1.01908 -0.00329869 0)
(0.760132 0.000872262 0)
(1.01472 0.0490676 0)
(1.00092 -0.000533282 2.62433e-22)
(1.00564 0.0116332 -3.94449e-22)
(1.057 -0.140611 0)
(1.04645 -0.0636687 -9.38907e-21)
(1.03943 -0.0355049 0)
(1.02036 -0.00173537 -1.06233e-20)
(1.00449 -0.018058 -5.50732e-21)
(1.01798 -0.0253498 -4.1146e-21)
(0.984537 -0.0793976 8.6446e-23)
(0.149574 0.0976975 -2.07592e-21)
(0.858132 -0.0846922 -2.66321e-20)
(0.974439 -0.0384999 0)
(0.844618 -0.154729 0)
(1.04694 -0.114071 0)
(1.01763 -0.00167868 -6.80645e-21)
(1.05076 -0.0750414 0)
(1.03606 -0.103436 1.9988e-20)
(1.01235 0.0314217 6.42978e-22)
(0.979086 -0.0679449 9.03942e-23)
(1.04118 -0.110593 0)
(1.04056 -0.103198 -4.31654e-21)
(1.00759 0.030381 0)
(0.77236 -0.06951 4.46467e-21)
(0.879868 -0.0780994 2.34049e-22)
(1.01818 -0.00139304 0)
(1.00561 -0.0420948 1.83902e-22)
(1.00395 -0.0435924 -3.56898e-22)
(1.02324 -0.117119 0)
(1.04041 -0.0349465 0)
(0.977846 -0.0698411 6.97605e-23)
(-0.0478464 0.0256095 1.14963e-20)
(1.00488 0.00727847 1.22279e-21)
(0.804834 -0.0359711 -3.18685e-21)
(1.00618 0.0120058 -8.0084e-22)
(1.01907 -0.00305197 -5.68735e-21)
(0.99896 0.00066089 0)
(0.999446 0.00345732 -2.83654e-23)
(1.00559 0.00592564 6.47794e-25)
(0.918669 -0.0863781 8.79589e-22)
(1.0263 -0.039699 -9.90237e-22)
(1.01038 -0.0136934 0)
(1.06476 -0.0861571 1.97085e-20)
(0.996174 0.00181827 -2.63778e-22)
(0.863678 -0.0922091 -8.20454e-21)
(1.00914 -0.067419 4.41253e-21)
(0.855974 0.0286691 6.27611e-21)
(0.854456 -0.0774827 4.45365e-20)
(1.00988 -0.0140279 0)
(0.9643 -0.0557986 2.45224e-22)
(1.04135 -0.0609107 8.07874e-21)
(0.825451 0.0280699 -6.09507e-21)
(1.00097 -0.00471882 6.3206e-22)
(0.998248 0.000862674 1.06593e-22)
(1.0063 0.0364196 1.0407e-21)
(0.00929048 0.0445031 -1.28114e-20)
(1.00458 -0.000704429 5.00465e-21)
(0.305035 0.000803087 -4.46333e-21)
(1.01148 0.0289596 -1.25896e-22)
(1.03967 -0.1111 -9.6811e-21)
(0.784382 -0.0670681 -2.28695e-21)
(1.00447 -0.0552108 3.01383e-22)
(1.00714 -0.0531792 -4.91141e-22)
(1.03304 0.0362205 2.40424e-22)
(1.00693 0.00331672 0)
(1.01763 -0.000775756 3.08406e-21)
(0.975997 -0.036672 0)
(1.05849 -0.0946307 1.4204e-20)
(0.0549727 0.119892 0)
(1.06402 -0.0756163 -1.59887e-20)
(0.859999 -0.123399 2.69087e-22)
(0.919943 -0.0746615 -1.54461e-21)
(0.996027 0.00125633 0)
(1.0224 -0.00544376 3.01057e-21)
(0.83849 -0.0798591 1.37358e-20)
(0.359435 -0.00690833 0)
(0.962623 -0.0864875 -3.04994e-22)
(1.00526 -0.0873584 2.73614e-21)
(1.00518 0.0373917 -7.80106e-22)
(1.04159 -0.0626275 8.77212e-21)
(1.00702 -0.000353947 0)
(1.03729 -0.112247 -7.59266e-21)
(1.01912 0.00225883 0)
(1.01742 -0.0649026 4.36955e-21)
(1.0322 0.0344591 0)
(1.0282 -0.0114743 4.034e-21)
(0.998922 0.00021823 -9.75714e-23)
(1.0204 0.00764428 -1.0879e-22)
(0.995477 0.000168354 8.50137e-23)
(1.04103 -0.100969 1.40698e-20)
(0.986617 -0.0675538 -1.11367e-21)
(0.807391 -0.013709 -2.53936e-20)
(0.981117 -0.0398706 1.55309e-21)
(1.05588 -0.0962747 1.24551e-20)
(0.958002 0.00526023 -2.20615e-22)
(1.06374 0.0397488 0)
(1.01854 -0.0543776 0)
(1.02098 -0.119694 0)
(1.03029 -0.0482849 4.62551e-21)
(0.972305 -0.060258 3.39459e-22)
(0.998658 0.000976333 -6.90765e-23)
(1.01981 0.00714723 9.53438e-23)
(1.00402 -0.000426459 -2.70285e-23)
(1.0345 -0.109603 0)
(0.88083 0.094637 3.85193e-21)
(1.03857 -0.10263 1.30923e-20)
(0.959517 0.00257482 0)
(0.785006 -0.0136729 2.68048e-20)
(0.964631 0.104857 3.24097e-23)
(0.955708 0.0420605 1.21441e-21)
(1.0018 -0.000331306 -1.31427e-21)
(1.06018 -0.106894 -1.75029e-22)
(1.00131 -0.00447322 4.04085e-21)
(1.05802 0.0295697 -4.63862e-21)
(0.997912 0.000216627 -6.26998e-23)
(1.00543 -0.126999 5.90487e-21)
(0.972088 -0.0205831 9.33873e-21)
(1.02213 -0.0907596 -8.55906e-21)
(0.652438 -0.0208594 8.26109e-22)
(1.03229 0.0227752 0)
(0.959518 -0.0292531 0)
(0.944947 -0.00151106 -2.1468e-20)
(0.101385 0.0564843 1.23111e-22)
(1.00137 0.00205872 -1.04662e-24)
(1.0415 -0.0658891 0)
(1.04622 -0.0877816 0)
(1.01806 -0.0335843 0)
(1.01737 0.00152617 -3.95285e-23)
(1.01645 -0.025533 0)
(1.08286 -0.122772 0)
(1.03932 -0.10852 0)
(0.977497 -0.0453826 0)
(0.439034 -0.0642075 -1.51458e-20)
(1.00277 -0.000503259 -1.65445e-22)
(1.00515 0.0122877 4.01328e-22)
(-0.0279758 0.0831357 2.145e-20)
(1.00191 -0.05298 0)
(1.00198 0.00634142 0)
(1.03007 -0.0226332 0)
(1.00715 0.0033001 6.54051e-22)
(0.98262 -0.00844228 3.65659e-22)
(1.01731 0.00347273 2.37994e-24)
(0.998353 -0.0641781 -1.68596e-22)
(1.00634 -0.0329362 -1.42827e-21)
(1.00139 0.00670307 3.13464e-23)
(1.03254 0.0220154 -6.78679e-24)
(1.03433 -0.0866731 1.92159e-20)
(1.01654 -0.010921 -3.52149e-21)
(1.06217 -0.0791306 2.28539e-21)
(1.00802 0.00138328 -1.1176e-21)
(0.986216 0.0325438 -8.13213e-22)
(0.964054 -0.0462069 8.3609e-22)
(1.0015 0.000111214 -4.84763e-22)
(0.999272 -0.00130726 0)
(1.00429 0.000266272 -9.90545e-23)
(1.00438 0.000103471 0)
(0.789546 0.0784449 1.42664e-21)
(1.02364 -0.0252793 4.76925e-21)
(0.943027 0.0387904 -2.75079e-21)
(1.01745 -0.00814555 1.36264e-20)
(1.00813 -0.000499805 0)
(-0.0743053 0.0698185 0)
(0.630676 -0.0158904 0)
(1.01882 -0.00982339 0)
(0.987381 0.0356142 1.29341e-21)
(1.01975 -0.0552299 -1.62029e-21)
(1.02683 0.0976358 3.31064e-22)
(0.0588978 0.0400156 0)
(1.00451 0.011765 9.57177e-22)
(1.03007 -0.0458973 1.21085e-21)
(1.00103 -0.0055478 1.65225e-21)
(1.03685 -0.096731 1.90802e-20)
(1.02885 -0.0137142 -2.34934e-21)
(-0.0689848 0.0519463 1.88389e-20)
(0.998703 0.000879984 1.77489e-22)
(-0.0153988 0.00961076 -4.52234e-20)
(1.00071 -0.0714309 5.48523e-22)
(0.997326 0.00170882 0)
(0.991794 0.0361827 0)
(0.875847 -0.0713292 7.69015e-21)
(1.02585 -0.0808413 -7.69738e-21)
(0.996884 0.000463254 -2.87809e-21)
(1.00345 0.000337349 0)
(0.826952 -0.00461898 5.86907e-21)
(1.00333 -0.00058391 -2.67374e-21)
(1.01097 0.00337263 3.91884e-22)
(1.00985 0.0049605 4.4735e-22)
(1.02965 -0.00916503 1.25044e-20)
(0.387995 -0.0209896 9.35666e-21)
(1.05301 -0.101481 -1.24963e-20)
(1.03945 -0.119461 -4.21332e-21)
(1.03561 -0.10042 1.38402e-20)
(0.963579 -0.0516196 -1.57127e-22)
(1.00248 0.0110653 0)
(1.04915 -0.104025 -1.77787e-20)
(0.909111 0.0987823 -1.00746e-20)
(1.03281 -0.0548953 6.01853e-21)
(1.05708 -0.0597825 -1.25321e-20)
(1.02817 0.0870879 0)
(0.885626 -0.0521993 0)
(0.977113 -0.11711 -1.15115e-21)
(1.01495 -0.000865686 0)
(-0.073427 0.0503991 -2.35677e-20)
(0.163934 0.0146985 3.28206e-21)
(0.264937 -0.020078 9.95407e-21)
(1.00483 -0.0531956 0)
(0.99341 0.0387158 -7.08068e-22)
(0.882492 -0.0502988 -1.25989e-22)
(0.962524 -0.0332361 0)
(0.937572 -0.0312869 0)
(0.961479 0.120947 -6.60149e-22)
(1.01 -0.135588 4.07212e-21)
(1.0064 -0.0369614 1.47829e-21)
(1.01652 -0.137247 0)
(1.00538 -0.132964 4.8422e-23)
(0.998821 0.00100019 -1.85419e-22)
(0.967161 -0.032083 0)
(1.05371 -0.103088 1.311e-20)
(0.610963 -0.00014 -1.27585e-21)
(1.0186 -0.0414761 -5.00731e-21)
(1.01105 -0.00703576 0)
(1.00585 0.00697904 -3.00102e-24)
(1.00425 -0.00923682 -2.8981e-21)
(1.0387 -0.0990426 4.85546e-22)
(0.990323 -0.0610279 -5.32957e-22)
(1.03247 -0.0483811 4.35303e-22)
(0.466015 -0.0522003 -2.47344e-20)
(1.01152 0.00142217 -1.15019e-23)
(-0.0234373 0.0884791 3.99527e-20)
(0.730994 -0.0151833 -6.77032e-23)
(0.941834 0.0810785 2.45795e-21)
(0.910558 0.0594032 -5.81895e-21)
(1.06053 -0.0778483 0)
(1.00189 0.00536968 -6.66647e-24)
(1.02009 0.00667628 0)
(0.915695 0.00834358 1.48659e-22)
(1.05445 -0.104215 2.51188e-20)
(1.0386 -0.0378595 9.3747e-22)
(1.06662 -0.131048 -1.51075e-21)
(1.03841 -0.144078 -1.25294e-20)
(0.997859 0.00287484 1.7977e-22)
(0.951242 0.0071385 5.19729e-22)
(0.804755 -0.0785919 0)
(1.02099 -0.113873 -1.01381e-20)
(1.04073 -0.106788 1.31193e-20)
(0.406076 -0.0259238 -7.20211e-21)
(1.00733 -0.142019 8.80237e-22)
(1.00064 -0.00582659 0)
(1.02902 -0.0112134 1.26001e-20)
(0.768378 0.0343251 -3.09545e-22)
(0.90975 -0.0712035 2.11113e-21)
(1.04703 -0.135182 -1.06666e-20)
(1.06597 -0.0748802 0)
(0.95612 -0.0471767 0)
(0.999315 0.00372665 -3.46129e-23)
(1.00502 -0.00479634 5.19466e-21)
(1.00898 -0.12927 0)
(0.998072 0.00271018 0)
(1.01742 -0.0407901 7.31269e-21)
(0.999953 0.00438503 0)
(1.00568 0.00170208 0)
(1.00655 -0.130235 0)
(1.03997 -0.099887 0)
(0.963435 0.00307834 1.29101e-21)
(0.998337 0.00301182 -3.62882e-24)
(0.438805 -0.025943 5.24776e-21)
(0.967264 0.135121 1.61234e-21)
(1.008 0.00438542 1.18672e-21)
(1.01075 -0.00112157 0)
(0.996581 -0.0149465 4.64566e-22)
(1.01784 -0.00102894 -5.10888e-23)
(0.00200309 0.038512 1.82574e-22)
(0.95447 0.107761 3.42928e-22)
(0.944892 0.106724 0)
(0.177279 -0.00850862 1.85252e-20)
(0.87437 0.0353891 -7.59908e-23)
(1.06651 -0.0715027 -1.83962e-20)
(0.593783 0.00956704 7.71914e-21)
(0.606015 -0.0220254 -6.26151e-21)
(1.00692 0.0308397 2.39363e-22)
(1.05717 -0.0750607 0)
(1.00225 0.005669 -2.44179e-23)
(0.992332 -0.0255658 -5.24676e-22)
(1.02016 -0.0685002 -4.9099e-21)
(1.055 -0.0932918 4.55505e-22)
(0.75676 -0.065858 1.8307e-21)
(1.06539 -0.128275 0)
(1.03469 -0.0626576 -7.46246e-21)
(1.01834 0.00520306 2.94328e-22)
(1.01263 -0.0633723 -1.05055e-20)
(1.037 0.0200044 0)
(1.00006 0.0056785 2.34668e-21)
(1.04835 -0.102233 1.43355e-20)
(1.01704 -0.00760828 -4.28921e-21)
(0.975204 -0.0408418 1.68659e-22)
(1.01697 0.00162798 -2.11639e-23)
(1.04947 -0.0575696 0)
(1.03822 -0.102539 -1.52415e-20)
(1.03069 -0.0141823 -9.05337e-21)
(1.00128 -0.00374064 8.32344e-22)
(1.01021 -0.0683192 0)
(1.02436 -0.0180312 1.24813e-20)
(1.03922 -0.0981346 -1.08924e-20)
(1.03251 -0.109399 0)
(1.03921 -0.103576 -2.3615e-21)
(1.01005 -0.0629776 0)
(1.04662 -0.138384 1.12574e-20)
(1.01784 0.0048442 3.38857e-22)
(0.962347 -0.0783764 -6.6445e-22)
(1.01647 0.0460538 0)
(0.0743741 0.0211541 -5.80403e-22)
(0.996605 -0.0185145 0)
(1.01052 -0.000171967 0)
(1.01341 -0.196947 1.60048e-21)
(0.995313 -0.0323354 0)
(0.742497 -0.0600276 -2.86434e-20)
(0.827858 -0.0766213 2.79125e-21)
(-0.0517939 0.0609084 2.86708e-20)
(1.03542 -0.0286788 0)
(1.01859 0.00239128 8.90802e-23)
(1.02816 -0.1968 -3.20591e-21)
(1.00319 0.0185288 -2.20349e-23)
(1.00601 0.00227171 0)
(0.998855 0.000952836 -6.38605e-23)
(1.00554 0.00189782 -1.50436e-21)
(0.999798 0.0253631 -2.76469e-23)
(0.978942 -0.0394345 -1.03144e-21)
(0.998263 -0.0627255 3.90917e-21)
(0.998511 0.00282182 -1.55905e-22)
(1.04606 -0.119336 6.33702e-21)
(1.00011 -0.0717239 0)
(1.04425 -0.11801 6.64039e-21)
(1.00783 0.0076212 -5.49408e-22)
(0.999284 0.00108384 0)
(0.999605 -0.000658922 0)
(1.03544 -0.103397 -5.68265e-21)
(0.919596 -0.0987315 -1.18396e-21)
(1.0746 -0.101798 2.33207e-21)
(1.04869 -0.0585181 0)
(1.00253 0.0186644 5.18839e-23)
(1.0083 -0.000433796 6.52329e-24)
(1.01013 0.000915243 -3.54495e-22)
(1.00623 0.0090028 -3.30186e-22)
(1.02314 -0.116135 1.15282e-20)
(0.354534 -0.113642 -1.95531e-21)
(1.02383 -0.0173861 7.55193e-21)
(0.998779 0.00306153 0)
(1.03036 -0.00877251 -4.32562e-21)
(1.00587 0.00841292 0)
(1.00393 -0.119092 0)
(-0.0215035 -0.00320297 -2.77304e-21)
(1.01365 -0.0643357 5.8907e-21)
(0.927422 -0.0825411 0)
(0.834971 -0.0357353 -7.44004e-21)
(1.00158 -0.00352205 -7.92895e-22)
(1.04016 -0.117413 -1.52868e-20)
(0.0694125 0.0553604 1.27629e-20)
(1.05698 -0.0773171 -1.55745e-20)
(0.876698 -0.137608 -4.11382e-21)
(1.03182 -0.0224689 1.02822e-20)
(0.985266 -0.0396476 8.27542e-22)
(1.07332 -0.100266 0)
(0.982373 -0.037771 -6.02562e-22)
(0.949282 0.123879 2.36775e-21)
(1.01835 -0.00926235 -9.69262e-21)
(0.88398 -0.0610879 2.05913e-21)
(0.998003 0.000213457 -1.47778e-22)
(1.08274 -0.0632986 1.35085e-20)
(0.67854 -0.0314928 2.45155e-21)
(1.02933 0.0101903 1.33735e-23)
(0.994565 -0.026933 -7.70226e-22)
(0.95542 -0.0441281 0)
(1.01119 0.00374048 -3.97314e-22)
(1.03113 -0.0527076 0)
(0.829359 -0.0115186 1.57688e-21)
(0.0735475 0.131335 0)
(1.0479 -0.100822 0)
(1.03868 -0.104451 0)
(1.00426 -0.0605282 0)
(1.00006 0.00405628 -5.07559e-23)
(1.00784 0.00714638 -2.72362e-24)
(-0.0922892 0.0664443 -1.07757e-21)
(1.04081 -0.144915 1.2747e-20)
(0.984281 -0.0636851 4.00968e-22)
(0.858772 -0.0803743 1.36456e-21)
(1.02393 0.00105714 9.44797e-23)
(1.01611 -0.000240957 2.40852e-22)
(0.998647 0.000872513 -7.18077e-23)
(0.866725 0.0690589 -1.25757e-20)
(1.00095 -0.143497 5.53279e-21)
(1.00782 -0.0481951 -9.56378e-21)
(0.993272 -0.00761237 -1.40441e-21)
(0.968011 -0.0487029 -3.04319e-22)
(1.04658 -0.0460637 -6.42527e-21)
(0.999477 -0.000697718 -1.31758e-22)
(-0.0103859 0.0795076 0)
(0.935538 -0.0344826 -1.42288e-21)
(0.833206 -0.0389568 -1.34002e-20)
(0.997095 0.00177792 0)
(1.02429 -0.0167129 -9.4486e-21)
(0.632147 0.0082298 0)
(-0.00272841 -0.0272006 1.54722e-20)
(1.04717 -0.151357 1.62012e-21)
(1.03635 0.0191337 0)
(1.00591 -0.151377 9.09353e-22)
(1.01734 -0.00986443 6.08744e-21)
(0.972035 -0.0553083 0)
(1.02401 -0.105228 0)
(1.02128 -0.0924367 0)
(1.02221 -0.049834 7.03621e-21)
(-0.022074 0.0548642 -2.8857e-20)
(1.0302 0.0403829 1.56282e-22)
(1.04453 0.0214978 0)
(1.01087 -0.160758 -5.38237e-21)
(1.01076 -0.000129272 -2.72537e-22)
(0.99891 3.43565e-05 0)
(1.00632 -0.0342204 0)
(1.01804 0.00446535 -2.02813e-22)
(-0.0109198 0.0786538 0)
(1.02471 -0.0664048 -6.60665e-21)
(1.04054 -0.108061 -1.32113e-20)
(0.964493 0.000558354 0)
(0.969164 -0.0393248 3.39947e-22)
(1.01813 0.00563189 1.07281e-22)
(0.827485 -0.0267601 -1.37907e-21)
(1.00628 0.000522523 2.85097e-23)
(1.03262 0.0397092 -4.22732e-22)
(0.99863 0.000804678 6.16111e-23)
(1.00185 -0.00270301 0)
(1.00404 -6.43307e-05 -2.19853e-21)
(0.918772 -0.0680881 -4.47501e-21)
(1.00547 0.00627972 6.52961e-22)
(0.997746 0.000433226 -6.2279e-23)
(0.921849 -0.046888 1.65075e-21)
(1.02992 -0.0117139 -1.30716e-20)
(0.651717 -0.00129056 -2.07722e-21)
(0.997712 3.32559e-05 0)
(1.03477 0.0203506 -2.86095e-22)
(1.06219 -0.111723 0)
(0.998727 -0.120735 5.05558e-22)
(1.01902 -0.0402085 2.29791e-22)
(1.01236 0.00102925 -5.66771e-22)
(0.906452 0.0201097 0)
(0.953137 -0.0890763 0)
(1.02317 -0.0261096 0)
(0.999913 -0.0885689 7.94097e-22)
(1.08076 -0.0625441 0)
(1.01776 0.00379092 -2.14436e-22)
(1.05513 0.0400819 0)
(-0.022674 0.0958169 1.57469e-20)
(0.912424 0.025005 -1.48092e-21)
(1.01712 -0.0520262 -2.93622e-21)
(1.01109 0.00122404 3.65965e-22)
(0.998954 0.0028537 0)
(0.944294 0.050101 -9.57901e-21)
(1.01862 -0.0946193 0)
(1.00001 -0.0699766 1.15071e-21)
(1.00656 -0.0506963 0)
(1.0579 0.0413271 0)
(1.01601 -0.00101804 0)
(1.03524 0.0199266 -1.22284e-22)
(1.07732 -0.135991 0)
(0.950241 0.153747 0)
(1.03721 -0.0984586 0)
(0.757308 -0.0777412 3.21324e-22)
(1.02375 -0.0160423 -4.01936e-21)
(1.03755 -0.0975111 1.95602e-22)
(1.05089 -0.110921 -2.04697e-20)
(0.832251 -0.166106 -4.10188e-21)
(1.00646 -0.0473461 5.03167e-21)
(0.549764 -0.0632032 -7.64883e-21)
(1.03742 -0.100945 -1.29501e-20)
(1.03082 -0.0113757 -1.17478e-20)
(0.407575 -0.0290678 -2.59562e-20)
(0.963806 -0.0739726 -1.08766e-21)
(0.975545 -0.105295 2.96956e-20)
(0.0890592 0.134039 0)
(0.965447 -0.0726833 0)
(1.02405 -0.0522014 2.47988e-22)
(1.0179 -0.0729706 -8.78845e-21)
(1.01757 0.00413585 4.25926e-22)
(0.975266 -0.0344555 -2.93455e-22)
(-0.0325077 0.00455989 -4.00897e-21)
(0.185232 0.00818254 0)
(1.00945 0.0133017 6.07856e-22)
(1.00559 -0.000407467 3.90175e-23)
(1.05655 -0.10519 0)
(0.88493 0.0112386 -1.51707e-22)
(0.997173 0.00024531 1.47971e-22)
(-0.0119993 -0.0115929 -2.76051e-20)
(1.02302 0.000853139 0)
(1.01284 -0.0137511 -2.24086e-21)
(-0.0249806 0.0798547 1.22309e-23)
(0.649282 0.00810877 0)
(1.00811 -0.0629796 0)
(1.00624 0.00251042 0)
(1.01938 -0.0027375 1.89644e-21)
(-0.00578507 -0.0224877 1.67286e-20)
(1.026 -0.115298 -1.10285e-20)
(1.05029 -0.133646 -6.55853e-22)
(1.00597 0.0262787 3.09328e-22)
(0.889347 -0.0872544 -1.16905e-20)
(1.023 -0.112449 0)
(0.964359 -0.104029 1.15019e-21)
(1.05329 -0.0948673 1.09455e-20)
(1.06312 -0.084754 -2.1727e-20)
(1.01729 -0.0259975 -4.76179e-21)
(1.02898 -0.012877 2.26218e-21)
(0.853425 -0.192085 6.52534e-21)
(1.08489 -0.0992727 2.39018e-20)
(0.346101 -0.0062196 0)
(1.00569 0.0415981 1.10346e-21)
(1.06248 -0.0742143 1.50293e-20)
(0.00426909 0.071989 -3.81871e-20)
(0.953503 -0.10208 -1.61062e-20)
(0.711255 -0.00532448 1.92302e-21)
(1.02141 -0.010816 0)
(1.06796 -0.0675671 0)
(1.00828 0.00435334 0)
(1.01116 -0.0639222 5.47278e-21)
(0.99393 -0.0257215 2.19895e-21)
(0.802939 -0.157191 1.66856e-21)
(1.00986 -0.000275686 0)
(0.537914 -0.0661095 1.67444e-20)
(0.997279 -1.84407e-05 0)
(1.06194 -0.110183 2.72151e-21)
(1.00355 -0.00501307 -1.10503e-21)
(1.02227 -0.108717 0)
(1.06708 -0.0730274 0)
(1.06585 -0.066964 -2.14128e-21)
(0.930386 -0.0802486 1.3743e-20)
(1.06922 -0.0889305 0)
(0.997196 -0.0652461 -3.81473e-21)
(1.00888 0.000298013 0)
(1.05969 -0.108519 1.70112e-20)
(0.781394 0.0210271 -2.19406e-22)
(0.958233 -0.056742 -4.01846e-22)
(1.01508 -0.0409159 4.39957e-21)
(0.645533 0.012118 0)
(0.99597 -0.012895 0)
(0.137674 0.133854 8.37077e-21)
(1.03089 -0.050352 -1.52598e-21)
(1.01473 -0.0212196 0)
(0.921599 -0.106423 6.67353e-22)
(-0.00893405 0.0488218 1.28735e-20)
(0.670858 -0.00597294 -8.64882e-23)
(1.02155 -0.0510707 1.94185e-23)
(1.00849 0.0431464 -1.2681e-21)
(1.00677 0.0112036 4.3146e-22)
(0.825231 -0.0354934 7.06506e-21)
(1.01411 -0.000476461 0)
(0.733544 -0.0790748 0)
(0.61516 -0.0355911 0)
(1.00687 0.00687522 0)
(1.05052 -0.0294354 1.38726e-20)
(1.03495 -0.108442 0)
(0.957896 0.141631 -2.85701e-21)
(0.37024 -0.0322255 -8.59051e-22)
(1.01959 -0.0179955 0)
(1.01324 -0.000887319 0)
(0.648138 -0.0061133 -7.60706e-21)
(0.654698 -0.0315253 0)
(1.04007 -0.106006 -1.35903e-20)
(1.01709 -0.0504705 6.21063e-21)
(1.00569 0.0240968 4.12138e-23)
(1.03046 -0.0542452 2.20027e-22)
(-0.0471793 0.0707784 5.34875e-20)
(1.04925 -0.110592 1.90276e-20)
(0.99768 0.000263882 0)
(1.0185 -0.0743201 4.538e-21)
(1.01038 0.00357083 -4.27323e-22)
(1.00125 0.000169192 0)
(1.00388 -0.0471118 0)
(1.00704 -0.000272669 0)
(1.01644 -0.126644 0)
(1.06532 -0.0114782 -4.65875e-21)
(1.01237 -0.0141672 1.2063e-21)
(1.03386 0.0219594 -1.62407e-22)
(1.00681 0.0117613 8.44574e-22)
(1.00752 -0.0350282 -3.1034e-21)
(0.480605 0.00340421 5.7473e-21)
(0.870236 -0.0732282 0)
(1.04313 -0.0651765 0)
(0.556864 -0.0585962 8.61216e-21)
(1.00386 -0.0050797 0)
(1.04005 -0.0649703 6.64895e-21)
(1.00753 0.0111745 -6.81259e-22)
(1.01007 0.00366202 0)
(1.00738 -0.0184329 -1.93934e-21)
(1.01162 -0.0137538 3.25457e-21)
(0.544413 -0.00934613 -8.67617e-21)
(1.01861 -0.0103752 1.44822e-21)
(1.07057 -0.0992712 0)
(1.02124 -0.0114496 -6.6454e-23)
(1.01844 -0.0527635 0)
(1.00668 -0.0486983 0)
(0.00634245 -0.0259858 0)
(1.00349 0.000313066 -1.60458e-21)
(0.797068 0.0295765 -8.70167e-23)
(1.00033 -0.0706044 0)
(1.02679 -0.10211 -1.10483e-20)
(1.02568 -0.0675102 5.40217e-21)
(1.033 -0.0698392 0)
(0.349526 0.000985595 -6.97917e-21)
(1.05113 -0.0573048 0)
(0.986523 -0.060465 -8.84303e-22)
(0.81063 -0.14779 -7.56922e-21)
(0.83815 -0.0735909 -1.63448e-21)
(-0.0217142 0.0339819 -2.65931e-20)
(1.0347 -0.0789422 -1.18613e-20)
(0.979752 -0.0817455 -1.32908e-22)
(0.997201 -0.0173921 0)
(1.06916 -0.086611 -4.22949e-20)
(1.05397 -0.0929663 -1.14024e-20)
(0.397171 -0.0323618 -2.41569e-20)
(1.0117 0.000849277 -9.1215e-22)
(0.0827502 0.0852898 2.95023e-21)
(1.00829 0.00719596 5.34585e-22)
(1.00734 0.00750815 0)
(0.0334034 0.121706 0)
(0.995494 -0.023462 -4.91345e-22)
(1.03678 -0.101109 -3.08951e-20)
(1.02249 -0.0509882 0)
(1.00948 0.00501314 5.18436e-22)
(0.953762 0.0044054 2.60121e-22)
(1.00869 0.00471658 -2.79828e-22)
(1.01974 -0.00278806 2.30606e-21)
(1.00193 0.0200727 0)
(1.03095 -0.0214611 0)
(1.01808 -0.15954 -1.5138e-20)