/*--------------------------------*- C++ -*----------------------------------*\
| =========                 |                                                 |
| \\      /  F ield         | OpenFOAM: The Open Source CFD Toolbox           |
|  \\    /   O peration     | Version:  v2012                                 |
|   \\  /    A nd           | Website:  www.openfoam.com                      |
|    \\/     M anipulation  |                                                 |
\*---------------------------------------------------------------------------*/
FoamFile
{
    version     2.0;
    format      ascii;
    class       surfaceScalarField;
    location    "950";
    object      meshPhi;
}
// * * * * * * * * * * * * * * * * * * * * * * * * * * * * * * * * * * * * * //

dimensions      [0 3 -1 0 0 0 0];
oriented        oriented;


internalField   nonuniform List<scalar> 
20642
(
-0.00282009
-0.000761531
0.00358235
0.00822272
-0.0143734
0.00609294
0.0021901
0.00217692
-0.00438621
0.00214614
-0.00723321
0.00495756
0.0111601
-0.0164252
0.00516801
0.0146369
-0.0064854
-0.00250315
0.00725566
-0.00484121
0.0179362
-0.0102118
-0.00776905
0.00318058
0.000841466
-0.00409326
0.00337223
0.000245095
0.00787389
0.0100062
0.00922394
-0.00898531
-0.00040756
-0.00034033
-9.48794e-05
0.0108129
-0.0161572
0.00531323
0.0114347
-0.0156653
0.00413371
-4.05977e-07
-0.00282061
-0.000358126
-0.000268559
0.000417337
-0.0175414
0.00780232
0.00968245
0.00645332
-0.00414847
-0.00233709
-0.00375163
0.0018118
0.00194014
0.011985
-0.00746022
-0.00459158
0.00191821
0.00918341
-0.0112769
0.00241664
0.00336174
-0.00581858
-0.0103532
0.0120764
0.0105768
-0.00487796
-0.00580323
-0.012899
0.00540656
0.00742786
-0.0118251
0.00665462
0.00515442
0.00306744
-0.0155157
0.00588654
0.00956682
-2.04587e-05
-0.000286423
0.000297711
0.00298089
8.98846e-05
0.00640291
-0.00180372
-0.00463235
-0.00963371
0.00552184
0.00398038
-0.00340798
0.00144679
0.00195743
-0.000503891
0.00959966
-0.009266
0.00135546
-0.0116082
0.00945603
0.00182445
-0.0113927
0.000302857
-0.00118503
0.00028813
-0.0067035
0.00412391
0.00713587
-0.0115609
0.00436025
5.36091e-06
0.000100609
-0.0002467
0.00574167
-0.00863555
0.00279693
-0.00413132
-0.0006301
0.00469497
0.00198387
0.00251156
-0.00451734
0.00532271
-0.00336942
-0.00233835
0.00611686
-0.003788
0.0101844
0.0017133
-0.0049618
0.00325024
0.00171997
-0.00709273
-0.00682021
0.0138893
0.00725312
-0.00789382
-5.03548e-05
0.00912044
0.00280246
-0.00742193
0.00459339
-0.00197162
0.00278443
-0.000813738
-0.00972823
0.012216
-0.00267814
-0.0128757
0.00895291
0.00373395
0.00635577
-0.0035731
0.0026451
-0.0037854
0.00615202
0.00883336
-0.00319159
-0.00709442
0.00474422
0.00802632
-0.00436925
-0.00365095
-0.00469402
-0.00701805
0.0116293
4.23454e-05
2.80234e-06
-6.4416e-05
0.00454688
0.00591423
0.00357882
4.71158e-05
-0.0036378
-0.000559164
0.000364099
0.000191617
0.00662947
-0.0152624
0.0085758
0.0108321
-0.00951581
-0.00971829
0.00313097
-0.00212485
-0.00100721
0.00147427
0.00258474
-0.00407482
-0.002697
-0.000713961
0.00651474
-0.00425639
-0.00241645
0.00658
0.00213364
-0.0123278
0.00480038
0.0137561
-0.00647331
-0.00739961
0.00981224
-0.0151301
0.00522199
0.00889011
-0.00242996
0.00596831
0.00765212
-0.006719
-0.00301671
-0.00882239
-0.00512743
0.0137775
-0.000389377
-0.000405542
0.000511895
0.00230271
0.00408231
-0.00462192
0.00237675
0.00223098
0.00525745
-0.00431809
-0.00139563
0.0161458
-0.00682722
-0.00935842
0.0039471
0.00240207
-0.00122783
-0.00145161
0.00212461
0.0109229
-0.00385627
0.000219477
-0.000759344
0.000258911
0.000787655
-0.00122998
-0.00409741
0.00912984
-0.0162532
0.00116427
-0.00976682
0.00843173
0.00302767
0.00918962
-0.0123714
-0.00894352
-0.0153552
0.00824704
0.00708105
-0.000668481
-0.000446158
0.000718219
-0.00280483
0.00114404
-0.00763816
0.0126746
-0.0050695
-0.000129078
-9.28177e-05
0.00014896
3.66757e-05
-0.00021853
-0.0131281
0.00416332
-0.00152183
-0.000165343
0.00133391
0.0159998
-0.00631509
0.00309133
-0.000184682
-0.00291318
0.00284193
0.000963959
-0.00380429
0.00878521
-0.0135743
-0.00262787
-0.00610246
-0.00555162
-0.0062878
-0.0001068
-0.000840926
0.00373462
-0.00229326
0.0146631
-0.00883296
-0.000672597
0.00423655
-0.00168603
-0.00683024
0.00842387
0.00316904
0.00325126
0.000665662
-0.000812531
-7.78224e-06
-0.00340232
-0.0016964
0.00507511
0.00108569
-0.00334315
0.0022056
-0.00106174
0.000401586
-0.00874996
0.00319422
0.00542763
-0.00615806
-0.00915795
-0.00328849
-0.00298165
0.00623869
-0.00151745
0.00287687
-0.0013604
-0.00228647
-0.00234499
-0.00931579
0.00392254
0.00528841
-0.00439497
-0.00799693
-0.00932799
-0.00247698
0.011592
0.0026995
-0.00601515
0.0060486
-0.00248239
-0.00361911
-0.0032962
0.00764697
-0.00436216
0.00314923
-0.00166813
-0.00148353
-0.00931869
0.00752938
0.00584578
-0.00216742
-0.00371519
-0.0123557
0.00678676
-0.00783232
0.00417178
0.00366239
-0.00164458
-0.00067953
0.00232333
-0.0147881
0.00602382
0.00869465
-0.000325145
-0.0140396
0.0145919
-0.000569844
0.00310436
0.00566678
-0.00053283
0.00361324
-0.00180869
0.0094133
-0.00783101
0.00569903
-0.00393229
-0.00189613
-0.00732718
-0.00155093
0.0087987
0.00398945
-0.00253005
0.0164288
0.000693529
0.00244938
-0.00313451
0.00297882
-0.0129186
-0.0075908
0.0111617
-0.00363855
0.000129413
4.02655e-05
-0.000236202
0.00349241
0.00208443
-0.00598673
-0.00938941
0.0137399
-0.0109339
-0.0029442
0.000222002
-0.00207813
0.00160503
0.00105258
-0.00266093
-0.000181655
-0.000243766
0.000275803
4.53207e-05
0.000490348
0.0102205
-0.0075567
-0.00303026
0.00138257
0.00302906
-0.00441355
-0.0158477
0.00611092
0.0096252
0.000498369
-0.00292125
-0.00277234
0.00569855
-0.0127586
0.00664152
0.00609108
0.000406284
-0.00283272
0.00607224
-0.00323288
9.33948e-05
-9.27141e-05
-3.33034e-06
-0.00567664
-0.00917628
0.0187836
-0.01134
-0.00762905
0.000633561
0.00240729
-0.0030457
0.00496499
0.00843454
-0.00539963
-0.0030326
-0.00250274
0.00684416
-0.00437098
0.000144341
-0.000379477
0.00014035
-0.00466515
0.00669279
0.00383805
-0.00741246
0.00355296
0.00272621
0.00324872
-0.00854183
-0.0074082
-0.00370435
0.00519474
-0.00156571
0.00822786
0.00775874
-0.00793713
-0.00190746
0.00502897
-0.00313388
0.00117753
-0.00460221
0.00496813
-0.00828039
0.00902581
-0.00141987
-0.00634077
0.00441577
-0.000436233
0.000406453
0.00851415
0.00758756
0.00549196
-0.00803319
0.00245388
0.00283937
-0.00685048
0.003596
0.00323297
-0.00195373
0.00357113
-0.00162181
-0.00676928
0.00780386
-0.0016308
0.0029228
-0.00129317
0.00325717
-0.00900437
0.00566106
0.00156461
0.00158009
-0.0023927
0.0118277
0.0110668
0.00251975
-0.00555179
-0.00609302
0.0115644
-0.0027509
-0.000545772
0.00329424
0.000263083
-0.00190857
0.0133419
-0.00951353
-0.00394379
-0.00777027
0.00995657
-0.0021959
-0.00936425
-0.00364138
0.0129328
0.00326822
-0.00576241
-0.00360519
0.00938908
-0.014686
-0.00788572
0.00974658
-0.0021186
-0.01753
0.00756847
0.00988905
-0.0118633
-0.00573173
0.00395063
0.00406074
0.00175593
-0.0069328
-0.00155055
-0.00258784
0.00413044
-0.00062821
0.00155274
-0.00152331
-0.000255971
-0.00333632
0.00347191
-0.00336839
0.00299806
0.00303955
-0.00735685
0.00420642
0.00312784
0.00316661
-0.00682759
0.00364729
0.00285241
-0.00348847
0.000380824
-7.75038e-06
3.55083e-05
-0.00651441
-0.00585434
0.00115208
0.00472764
-0.00309501
-0.00176239
0.00276953
0.00181746
-0.000170187
6.86716e-05
-0.000169107
-0.00331173
-0.00349874
0.003214
-0.00185518
-0.000844208
-0.00190526
-0.00257856
0.00449038
-0.0142543
0.00817853
0.00592382
0.000115087
-0.000175291
5.03817e-05
-0.00508109
-0.00341362
0.00845379
0.00169763
-0.00313606
0.00143701
-0.000613486
0.000216714
0.000242672
-0.000556305
0.00312401
0.00388453
-0.0116693
-0.00226839
-0.000858365
0.00311922
-0.00234455
0.00232574
-0.00388242
0.00378852
0.00431684
-0.00813199
0.00651496
-0.00852003
0.00293517
0.00314295
0.00165902
-0.00677602
0.00570939
0.00889873
0.00682652
-0.00521061
-0.00165973
0.00908213
0.00414122
0.00205055
0.00130862
0.00190316
-0.00327066
0.00981754
-0.00757601
-0.00228292
-0.00890222
0.00584335
0.00301315
-0.0160654
0.00676992
0.00912508
-1.78998e-05
-0.00487116
-0.0131199
0.0167544
-0.00374258
0.00748309
0.00267307
-0.0102903
0.00283555
-0.00138953
-0.00144658
-0.0135358
0.00296771
0.0105485
-0.00942787
0.00305814
0.00622448
-0.000505009
0.0031295
0.00316934
-0.0142423
-0.00328066
0.00263464
-0.00209652
-0.000933801
0.000141416
0.00799531
-0.00512895
-0.00292385
-0.00395186
-0.005603
-0.00225782
0.00119864
-0.00165947
0.00450253
-0.0124575
0.00490415
0.00731677
0.0115871
-0.0167126
0.00501263
0.00344802
0.0041148
-0.0075722
0.000411982
-0.0029936
0.00248826
0.00394975
-0.00988675
0.00590974
0.00140098
0.00143299
0.00290499
-0.00258375
0.00132992
0.0018003
-0.00277848
0.0101249
0.00487573
-0.00349612
-0.0001381
0.000181549
-0.0102704
-0.00421718
0.014388
-0.0100744
-0.00611913
-0.00970355
-0.00270973
0.0121417
-0.00447974
0.00541924
-0.000964112
-0.000939766
-0.00055426
0.000968394
-0.00669889
-0.00608294
0.00354327
-0.00909681
0.00548278
4.48921e-05
-0.00744286
-0.00526931
-0.00502322
0.0102765
-0.0012132
-0.000395625
-0.000352138
0.00407074
-0.00790246
0.00378265
-0.0146081
-0.00133196
0.0158227
0.00259379
-0.00997433
0.00728366
-0.00410609
0.0151625
0.0116794
-0.00582331
0.00262896
-0.010157
0.00737424
-0.00218798
0.00071365
0.00410507
-0.00814292
0.0040141
0.00351371
-0.0134337
0.00985003
0.005632
0.00413224
0.00376281
0.00780586
-0.00209733
0.00272929
-0.000894603
-0.00114581
0.00274917
-0.000454582
-0.00229804
-0.0086157
-0.00260906
0.0110136
0.000902953
-0.00311564
0.00218065
-0.00681506
-0.0121851
-0.00310893
0.0152429
0.00327451
-0.00402132
0.000732214
0.00422812
-0.000184523
-0.00404683
0.00246381
0.00597197
0.000263327
0.000129743
-0.000396262
0.00139791
0.00623107
0.0157374
-0.0042588
0.00442035
-0.00205891
-0.0146704
0.00243469
-0.0020231
0.00419548
-0.000605752
0.000178563
0.0140626
-0.00272143
0.0105269
-0.00240565
0.012562
-0.0103048
-0.00153541
-0.0128923
0.00519652
-0.00277118
-0.000519762
-0.000157553
0.000461349
0.00259604
-0.00196636
0.00367195
-0.00320129
-0.000966623
0.00140592
-0.00433022
0.000751206
0.00258198
-0.00340409
-0.00300384
-0.000747146
-0.00473492
-0.00105138
0.00546732
-0.00926545
0.00391532
0.00530091
-0.0137085
0.00427545
-2.70257e-05
0.000286927
-0.000853371
0.000106231
-0.00359134
-0.00227396
0.00582948
-0.00241536
0.00372908
-0.00131828
0.00296159
-0.0109351
0.00781535
-0.0125347
0.00998215
0.0020324
0.00169658
-0.00276225
-0.000634688
0.00339673
-0.00148362
0.00500506
-0.00352184
0.0142301
-0.00344861
-0.000284189
0.00307664
-0.013867
0.00812328
0.0055884
-0.00186456
-0.00105022
0.00290898
0.00678322
-0.0054012
-0.00348691
0.00308181
-0.0188478
0.00996171
-0.00714088
-0.002967
0.0131849
-0.00810179
-0.00513278
-0.00368013
-0.00696643
0.00367389
0.00326585
-0.00972729
0.00527446
0.00442205
0.00966239
-0.00574727
0.00418377
-0.000436322
-0.00378103
0.00169815
-0.00367966
0.00197609
-0.0115965
0.00205831
-0.00822824
0.0110296
-0.00989802
-0.00658967
0.00136115
0.003289
-0.00467063
-0.000320008
0.000308781
-0.000162048
-0.00271506
-0.000610569
0.00474669
-0.00120843
0.00476183
-0.006361
-0.00668095
0.00434631
-0.00924602
0.00487602
-0.00230505
0.00317647
0.00508886
0.00985225
-0.0149702
-0.00274453
-0.00484889
0.00750817
-0.00318684
-0.0036534
-0.00909585
-0.00468205
-0.00629985
-0.00636914
0.00229409
0.00234529
-0.00465415
-0.00271013
-0.000822054
0.00347059
0.0031919
-0.00610904
-0.00266465
-0.00736545
0.00453641
0.0141922
0.00111504
-0.0116103
0.0103665
-0.00403014
0.00291728
0.00109795
-0.00792816
0.00292663
0.00481639
-0.00145783
0.00326954
-0.00376363
-0.000285716
0.0141646
-0.00861744
-0.00565183
-0.0120428
0.00551392
-0.00590639
-0.00490284
0.0107757
-0.0140066
0.0049874
0.00888818
0.0039816
-0.00690736
0.0029274
-0.00376335
0.00167092
0.00724496
-0.0121417
0.00477902
-0.00598221
0.00147936
-0.00848285
0.0133195
-0.00500252
0.00578092
-0.0117217
0.00481944
-0.00266416
0.000472758
-0.002657
0.00644046
-0.00386564
0.00993444
-0.00626596
0.0114235
-0.00824326
-0.00347956
0.00804747
-0.00503082
-0.00337601
-0.0111844
9.63167e-05
0.0108707
0.0128475
-0.00623146
0.00277483
-0.00926296
0.00636265
0.00272941
0.00900992
-0.0119338
0.0101373
0.00346822
-0.0138141
-0.00505099
0.00866734
-0.00366923
0.000442631
-0.0127584
0.0122731
0.000430126
-0.00296555
0.00245505
1.03621e-05
7.14966e-05
-0.00166378
0.00492037
0.00946128
-0.00514283
0.000357706
-0.0102955
0.00529963
0.00872961
0.00335829
0.00315798
-0.00651767
-0.00795731
-0.00508987
0.0130298
-0.000425023
-0.000139318
-0.00525926
0.00108188
0.00224539
0.00216147
0.00631015
-0.00131966
-0.00508466
-0.00292476
-6.13649e-05
0.00289607
0.0124381
-0.00876498
-0.00375047
0.00448523
0.00318626
-0.00257358
-0.00762312
-0.00259931
0.00246182
0.0014831
0.00473328
0.00282126
0.00278675
-0.00560263
-0.0129649
0.004325
0.0106026
-0.00558061
-0.00507426
0.00229699
-0.00109851
0.00682205
-0.00279975
0.00149351
-0.00963232
-0.00224928
0.00560581
0.00602817
-0.00204566
0.00810726
-0.0137488
0.000808143
-0.0023249
0.000549179
-0.00320345
0.00257907
0.00125405
-0.00477828
0.00333882
0.000866481
-0.00363774
0.000289668
-0.00390054
-0.00252263
0.0118667
0.00236462
-0.0124768
0.00998446
0.00719409
-0.00383768
-0.00636201
-0.0016048
0.0079027
-0.00280932
0.00496085
-0.00391135
0.00744922
-0.00262882
-0.00487693
-0.00614156
-0.00120178
0.0072831
0.0128378
-0.00359214
-0.00409836
0.00786027
0.00419542
-0.00567952
0.00747394
0.00234698
0.0047208
0.00692553
-0.0116598
0.00920359
-0.00936901
-8.84617e-05
5.79091e-05
-0.00256928
0.00203654
-0.00311301
0.0130623
-0.0105877
0.0115727
0.00702295
0.00192992
-0.00921804
0.00133386
0.000420649
-0.00232729
-0.0028153
0.00262709
-0.00154302
0.00830625
0.00435326
-0.00963938
0.00463491
-0.00243092
-0.0022251
0.000693942
-0.00114861
0.000180739
0.00427209
-0.00709466
0.00277288
-0.00162679
0.00361613
-0.00566887
0.00540618
0.000266035
0.00309981
0.00250236
-0.00564711
-0.00295327
0.00441402
-0.00362605
-0.000805956
0.00111309
0.00328622
-0.00936243
0.000491274
-0.00771897
0.00151805
-0.00505066
-0.00692659
0.00401989
0.0028983
-0.000821203
0.000911043
0.00843816
0.00359244
-0.00804024
-0.00419374
-0.00168628
0.00584312
0.010567
-0.00305786
-0.00757014
0.00540395
-0.00401107
-0.00141461
-0.00356538
0.00598011
-0.00245439
-0.0101536
0.00647951
0.00359337
-0.00518478
-0.0116308
0.0156465
-0.00789046
-0.011431
0.00577979
0.00560523
0.00841806
-0.00576861
-0.00663058
-0.00954598
0.00795684
-0.00200969
-0.00600175
0.0087979
-0.00532562
-0.0061167
0.00289731
0.003223
0.00162372
-0.00640582
-0.00506825
-0.00393
-0.00350149
0.00619234
-0.0039522
-0.00261469
0.00155602
0.000759655
-0.00231748
-0.00207962
0.00174235
-0.00315946
0.0033463
-0.00737471
0.00227923
0.00304133
-0.00256212
0.00112478
-0.00235412
-0.00407769
0.00815487
-0.00257287
0.00147422
0.00697784
-0.0117784
0.00478823
0.00659087
0.00327365
-0.00253899
0.0056221
-0.00317479
-0.00908101
0.00590938
0.00309785
-0.0031363
-0.00354618
0.00667507
-0.00396304
-0.00404427
0.00800011
0.0106271
-0.00193587
-0.00883256
0.011728
-0.00828498
0.00570645
0.00225108
-0.00948605
0.00467514
0.00476345
-0.00371623
-0.00959255
0.0132833
0.0026904
0.0085968
-0.0114808
-0.000734497
0.000226424
-0.0036771
0.0145874
0.00797601
0.00317158
-0.0107674
-0.0032004
0.0138753
0.00347607
0.00407691
-0.00761552
-0.000250666
-0.00581205
0.00221105
0.00328712
0.0025141
0.00997016
-0.0158131
0.00563437
0.00716665
0.00267126
-0.00381705
0.0011763
0.00263574
0.00197098
-0.00253539
0.000362473
-0.0037446
-0.00262187
0.00628035
0.0102174
-0.00767711
0.00356763
0.00381891
-0.00685357
0.00304577
0.00377064
-0.0083905
0.011262
-0.00291405
-0.00209167
0.00517944
0.00987853
-0.00798327
-0.00201629
0.00943094
0.00309257
-0.00153161
-0.00253438
0.00536216
0.00112532
0.0011705
-0.00796317
-0.00271057
0.0104681
-0.00989236
-0.00330927
0.0130094
-0.00532564
-0.00488535
-0.003477
0.00806584
-0.00476616
-0.00309616
0.00442579
-0.00134481
6.34191e-07
-0.00308618
-0.0109036
-0.00425745
0.0151422
0.00856467
-0.00539807
-0.00375496
0.00189749
0.00185057
0.00275921
-0.00438902
0.00363109
-0.00324805
-0.000377828
0.00689983
-0.00870715
0.000287894
0.00280731
-0.00311612
0.000513007
-0.00157028
-0.0104711
0.00334999
0.00701205
-0.00154558
-0.00221329
0.000365583
0.00259545
0.0040982
-0.00346038
-0.000651164
-4.95719e-05
-4.57201e-05
6.24806e-05
-0.000185973
0.000587775
-0.0131927
0.00386181
0.0015202
-0.0133221
0.00246677
0.00214134
0.000858971
-0.00313087
-0.00530266
0.00252814
0.00274818
-0.00372763
0.00794935
0.00805274
0.00684545
0.0053914
-0.00141747
0.000704733
0.00200472
-0.00271279
-0.0038644
-0.00180233
-0.000141232
0.00192552
3.17206e-05
0.00180887
-0.00184119
8.90879e-05
9.80866e-05
-0.000223665
-0.00255568
0.00673262
0.00651036
0.00989084
-0.00326753
-0.00730264
-0.000899104
0.00337187
-0.00250541
0.00015179
-0.000167896
0.00573744
0.00216555
0.00236945
0.00274274
-0.00267774
-0.00128977
0.000524242
0.000171574
-0.000877029
0.000253034
0.00243867
0.00293332
0.00673182
0.000995328
-0.00796599
-0.00572831
0.00272068
0.00296671
0.0115865
-0.00332994
-0.000900566
0.00290655
0.000231376
-0.000550119
0.00795421
-0.00185184
0.00555678
-0.00435121
-0.00121121
0.00248556
0.00115184
0.0030607
0.00372143
-0.00386794
0.00728245
0.00597075
-0.00444862
-0.00153702
0.00301798
-0.00132196
-0.00267932
-0.00542648
0.00417852
-0.00679046
0.00260619
0.000314899
-0.000558611
-0.00261582
0.00415742
-0.0015576
-0.00805262
0.00441109
0.00468579
-0.00240798
0.0106278
-0.00292652
-0.0150565
0.011767
0.00112052
-0.00514621
0.0137557
-0.00581522
-0.00211294
0.00787127
0.00166839
0.00207158
-0.00374885
-0.000432503
0.000785228
-0.000558896
0.00434377
0.00359262
-0.0137381
0.00828937
0.00529049
-2.63763e-06
0.000103831
0.00348326
-0.00179139
0.00562953
0.00652437
-0.0121819
0.012075
-0.00797024
-0.00422937
-0.00338103
-0.00361103
-0.00286102
-0.00311246
-0.00676958
0.00977683
0.000110828
-3.7048e-05
0.00157826
0.00189843
0.010242
-0.00380061
-0.0145599
-0.00252564
0.00244862
0.00575042
0.00620635
-0.00279239
0.00413586
-0.000179851
0.000156393
-0.00308389
0.00613542
-0.00307828
-0.000348305
-0.000478649
0.000532232
0.00104818
0.00446459
-0.00586415
-0.0069207
-0.00182733
-0.00248108
-0.00127675
0.00203526
-0.000758357
0.00374495
0.00034116
-0.0111869
-0.00337417
0.0145166
0.00235018
-0.00629475
-0.00205842
0.00868754
-0.00619772
-0.0095485
-0.0012464
-0.00257582
0.00348887
-0.00314433
-0.000353932
0.00409973
0.00825823
0.00952503
-0.00778999
-0.00506257
-0.0100805
-0.000978376
0.000387154
0.000459013
-0.0100403
0.00938985
-0.000180533
-0.000217551
-0.007124
0.00374039
0.00334626
0.0068606
-0.00991203
0.00296696
-0.00326953
-0.00284207
-0.00771864
0.0018388
0.002812
0.0107622
-0.0136122
0.00380172
-0.0077712
-0.00981508
0.0132628
-0.00872445
0.00388645
0.00478624
0.00686273
-0.00328996
-0.00180673
-0.00728393
0.0048384
0.00750794
-0.0124192
-0.000217165
3.6699e-05
0.00532348
-0.00461323
-0.00036569
-0.000895033
0.000205114
-0.000595515
-0.00298501
-0.00616449
0.00138692
9.85202e-05
-0.00202986
0.00165207
-0.00162068
-0.00363851
0.0053268
-0.00174349
0.000480292
0.00155724
-0.00245549
0.00227141
0.00289507
-0.00102644
0.000433632
0.00107951
0.00314663
-0.0100452
0.00713058
-0.0112511
0.00857111
-0.00138313
-0.00119251
0.00290622
-0.00622182
0.00328259
0.00529548
0.00175462
-0.00415677
0.00573216
-0.00169015
0.000917484
-0.00323378
0.00227162
0.00275958
0.00802617
-0.0109786
0.00407075
-0.00523388
0.0010881
0.00420064
-0.00509128
0.000851873
-0.0088014
-0.00289275
0.011451
0.00254618
-0.00168141
-0.000865597
0.00980337
-0.00209415
-0.00777824
-0.0103961
-0.00355795
0.0139349
-0.00167695
0.00696159
0.0120729
-0.00730471
0.00223409
-0.00153186
-0.00582169
0.00319533
0.000108455
-0.00121994
0.000786598
-0.00812441
0.00277595
-0.00137627
-0.0050744
-0.00233455
-0.00674816
-0.00185891
0.00266777
0.004414
-0.0152858
0.0108502
0.00136415
-0.00642892
-0.0112242
0.00239855
0.00957908
-0.0122141
-0.00305023
0.00184393
-0.00700957
0.0051471
-0.0072913
0.00590613
-0.00193187
0.0022229
-0.00604769
-0.0032078
0.00374643
0.0118704
-0.00304628
0.00669217
0.000937581
-0.00462758
-0.00315993
0.0121984
-0.00103071
-0.00576799
0.000892138
-0.00110345
-0.00265051
0.00678857
0.0114647
-0.00204186
0.00281145
-0.0107167
0.00780693
-0.0108177
0.00702144
0.00371607
-0.00208271
0.00270934
-0.000627475
0.000439595
-0.000671474
0.000222399
-0.0108016
0.0151956
0.000166588
0.00925328
-0.014809
0.0101003
0.00463423
-0.00805221
0.00544796
0.00253191
0.00335428
0.000124035
0.000404987
-0.00108205
-0.00451124
0.00249289
0.00198843
0.00135275
0.00419739
0.000329715
-0.000246127
-8.48901e-05
0.00813484
-0.00484957
-0.00346557
-0.00725279
-0.000279885
0.0011254
0.00794954
-0.00485975
-0.00327752
0.00123042
-0.00510224
0.00376347
-0.00459438
0.0133819
-0.00885428
-0.00762931
0.00651931
0.00141994
-0.00615512
-0.0061791
-0.00195523
0.00788219
0.00359432
-0.00178858
-0.00181482
0.00367886
-0.00290392
0.00025772
-0.004475
0.00345713
-0.00496239
-0.00905688
0.00323268
-0.00296681
0.0126416
-0.0044113
0.00235515
-0.00284232
0.000317164
-0.00331931
0.00618996
-0.00442172
-0.00382332
0.00821598
-0.00353574
0.00442357
0.00199903
0.00609043
-0.00826777
0.00699389
0.00248697
-0.00772079
0.00802025
-0.00267236
0.0094007
-0.00402464
0.00266558
0.0074698
-0.0102668
-0.00354821
0.00491072
0.0022403
-0.0112781
0.00237433
0.00748866
-0.0100914
0.00646016
-0.000124434
0.00591872
-0.0101223
-0.00300217
0.0130626
-0.011932
0.00395712
0.0072675
0.00586143
-0.00157969
0.00377452
-0.00262086
-0.00202052
-0.0131975
-0.00534878
0.00264259
0.00268977
0.00707887
-0.010447
0.00201595
-0.0122202
0.010125
0.000509101
-0.000587085
-0.000563061
-0.000633459
0.000967337
0.00460581
0.00207318
-0.0068043
0.00324849
0.00770903
-0.0110504
-0.0111095
0.00267908
-0.00596157
0.00778619
-0.00087051
0.00309543
-0.0022447
-0.0107737
0.0137659
-0.00314852
-0.00544636
0.0119371
-0.00854921
-0.00229975
0.00534299
-0.00251668
-9.03112e-05
-0.00515245
0.0036972
-0.00243289
-0.00305272
0.00548373
-0.0132243
0.00304178
-0.00011623
0.00045157
-0.00326872
0.00308199
-0.00591206
0.00915509
-0.00333655
0.00153286
-0.00476884
0.00241604
-0.00965414
0.0139918
-0.00438952
-0.015655
0.0109596
0.00457507
-0.00288775
-0.00703255
0.00973014
0.00339216
0.00456941
0.00321012
-0.000683295
-0.00253053
-0.0041702
-0.00343303
0.00752992
-0.0137791
0.00254617
0.00711013
-0.0122177
0.00433216
0.0034248
-0.00471038
0.00112811
-1.47213e-05
0.000124617
-0.00859802
-0.00319023
0.0117047
0.00391499
-0.0134282
0.00948398
-8.23612e-05
-9.86862e-05
0.00572912
-0.00304365
0.00632741
-0.00336695
-0.0137465
0.00404116
-0.00288071
0.00601804
0.0156102
-0.0117688
-0.00389368
0.00482633
0.000701871
-0.0056998
0.00120291
-0.000226187
-0.00120642
-0.00513624
-0.00461977
-0.00849087
-0.00895789
-0.00285457
0.0116358
-0.0114686
0.0077384
0.00361228
-0.00958187
-0.00322205
0.0126128
-0.00420041
0.000702198
0.00398785
0.0138278
-0.00677809
-0.00708253
0.00866344
-0.0119672
-0.00252632
0.0030062
-0.000482072
0.00142875
0.00304928
0.0106923
-0.0137863
-0.0027288
-0.00642061
0.0111305
-0.0025274
-0.0154144
0.0122526
-0.00553232
-0.000641859
0.00584341
-0.00297344
-0.00635687
0.00922934
0.00903791
-0.00475525
-0.00446575
0.00940412
-0.0066524
-0.00286659
-0.00201608
-0.00688331
0.00226822
0.00643259
-0.0089223
0.00968409
-0.00927291
-0.0118122
-0.00437602
0.00223507
0.00212697
0.00587913
0.00338981
0.00455575
-0.00216269
-0.00244171
-0.00507607
0.00911839
-0.00407057
0.00281177
0.00745175
-0.0104515
-0.00398706
-0.00762995
0.00151292
-0.00750945
-0.00371299
0.0113248
-0.0077186
0.00824348
-0.00332137
-0.00499768
-0.0034267
0.0025432
0.00251264
-0.00143736
-0.00425662
-0.00290252
0.000734173
-0.00265681
0.00190303
-0.0107978
0.00798642
-0.00246576
0.00159613
0.0012562
0.0111385
0.00339263
-0.014323
0.00609381
-0.00567522
-0.000671303
0.00602097
0.0116975
0.00726136
0.00309327
0.00514803
-0.00175794
-0.00339911
0.00478533
-0.0149027
0.010016
-0.0115953
0.00754178
0.00382252
-0.00172298
0.0041073
-0.0111861
-0.00708153
0.00106633
0.00510628
-0.00275512
0.00888666
-0.0138828
0.00487999
-0.00528295
0.00200633
0.0061083
-0.0083555
0.00659688
-0.00326006
0.000789935
0.00241697
-0.0107651
0.0140046
-0.00163577
-0.00205071
9.96092e-06
0.000966407
-0.00491954
-0.00242129
0.00527459
-0.00303522
0.00194172
-0.000907097
-0.002397
0.00326185
0.0116846
-0.0149916
-0.00314358
-0.00222173
-0.00329583
-0.00548717
0.00868939
-0.0162611
0.0121386
0.00398675
-0.013081
-0.00214491
0.00313646
-0.00164166
-0.00160568
-0.00218051
-0.00314516
0.00360731
0.00368673
-0.0074236
-0.00108838
0.00264225
0.00904755
-0.013354
0.00477581
-0.00927021
0.00448612
-0.00863261
-0.00209225
0.00267187
-0.000643228
-0.00166596
-0.00211748
0.00139815
-0.000674011
-0.000103738
0.000533205
0.0016081
0.00148085
0.0124582
-0.00423882
-0.00834652
0.00118361
-0.00673075
0.00522719
0.0119773
0.00337733
-0.0153947
-0.00823377
-0.00947052
0.00639266
-0.00315029
-0.00414169
0.0112733
-0.00378177
0.00471924
0.00582836
-0.00213047
0.00415121
-0.00204015
-0.0058102
-0.00456552
0.0067019
0.0024867
-0.0012038
-0.00128453
0.00400714
-0.0126185
0.00847173
-0.00321073
-0.00479221
-0.00123963
0.00586889
0.00119709
-0.00233529
0.00113728
0.00151046
0.00428662
-0.00519658
0.000830253
0.0033346
-0.00259785
0.010858
-0.00801504
-0.00295775
0.000842078
0.0024362
-0.00257937
0.00614546
-0.00366977
-0.00272782
-0.0056678
0.00827231
-0.0077512
0.00463586
0.00294226
-0.00426163
0.00784361
-0.00364521
-0.00030574
0.00249353
0.00802101
0.0043085
0.00540961
-0.00276582
-0.00267728
0.0062593
-0.00296335
-0.00328931
0.00278621
-0.00522031
0.00208618
0.00315682
-0.0102304
0.00169654
-0.00338299
-0.00183898
-0.00793783
0.00949382
0.00531517
-0.00269062
0.00938742
-0.0131307
0.000702229
0.00493734
-0.00156554
-0.00346674
-0.00653658
0.00220022
-0.00131018
-0.00133789
-0.00840402
-0.00402422
0.0122525
0.0036542
0.00119402
-0.00280072
0.00360791
-0.00589873
0.00864971
-0.00302353
-0.00400723
-0.00476659
0.00641294
-0.00554963
0.00182213
0.0012664
-0.00308467
-0.00273609
-0.007022
-0.00223578
0.00897813
0.00243694
0.000768498
0.000698875
-0.00563486
-0.00868529
0.00861349
0.0117783
-0.00307479
0.00357912
-0.0020094
-0.0102833
0.00383694
0.000378061
-0.000133014
-0.000355674
0.00711106
-0.00850906
0.0106828
-0.00236478
-0.00277891
0.00357369
-0.00178121
-0.0018013
-0.00957303
0.0123393
-0.00637554
-0.00598317
-0.00709438
0.00206501
-0.00740713
-0.00638655
0.0104211
-0.0036729
-0.00433943
0.00790665
-0.0109488
0.00479585
0.0116749
0.0038765
0.0075144
0.00227856
0.00142619
0.00158982
0.011393
0.000293502
-0.0117641
-0.000416566
-0.00117789
-0.00598863
-0.0103856
0.00171125
0.00116979
-0.00296384
0.00866787
-0.0045391
0.0030027
0.00151314
-0.00456725
0.00170936
-0.00176225
0.00854799
0.0013064
0.00146839
-0.00172044
0.00354677
0.0153106
-0.00369523
-0.0014754
-0.00308901
-0.00539273
0.00832663
-0.00253024
0.00128508
0.00124436
-0.00419491
0.00728698
0.00434479
-0.00718789
0.00284277
-0.00368893
-0.00550112
0.00277459
-0.00388292
-0.00443323
0.00821078
0.000300547
0.00679547
-0.00710017
-0.00319222
0.0017282
0.0014581
0.000758685
-0.00327101
0.00247211
0.0142761
0.000311682
-0.0026419
-0.00586992
0.00793832
-0.00292199
-0.00366871
0.0121857
0.00680268
-0.00331756
-0.0049599
0.00849186
-0.00354521
0.00274775
-0.00212891
-0.000619923
-0.0079744
-0.00247088
0.00177547
-0.00309933
3.84799e-05
-0.00011799
-0.00381939
0.000541389
0.00319157
0.00447179
0.00214351
0.00215772
-0.00430345
0.00713085
0.0021622
0.000133211
-8.07385e-05
0.00553326
0.00166335
-0.00359871
0.0057376
-0.00227968
-0.00875196
0.00886364
-0.013526
0.0140148
-0.00995655
-0.0041427
0.00541004
0.0034295
0.014373
-0.00259656
0.00331558
0.00584225
-0.00743829
0.00154879
0.0132753
0.0122998
-0.00098095
0.00137237
-0.00268183
0.00130863
0.00146467
-0.00572739
0.009045
-0.00330034
0.00316911
0.000121184
-0.0033159
0.00151434
0.00348564
-0.000588832
-0.00323638
0.00365477
-0.012499
-0.00257949
0.00412549
-0.00157775
-0.000413634
-0.0067571
0.00230766
-0.00325998
0.00297423
-0.00388974
-0.00699926
0.00251593
-0.0134632
0.0108003
-0.00626497
0.00393196
0.00229277
0.00201183
-0.010468
3.49359e-06
0.000322509
-0.00489674
0.00679212
-0.00193283
0.00240108
0.00221496
0.00438824
-0.0019225
0.00318355
-0.00674571
0.00355105
0.00718121
-0.00535525
0.00375802
0.00343286
0.00204334
-0.00312381
0.00107866
0.00028275
-0.00121628
-0.00365602
-0.00282298
-0.00107188
0.00845636
-0.00382342
0.00404675
-0.00749531
-0.0036694
-0.00978136
0.00718023
-0.00240392
-0.00485286
-0.00681584
0.0100656
-0.00310882
-0.00530685
0.00833481
-0.00997903
-0.0079525
0.0128174
-0.00389766
-0.00300627
-0.00431443
0.00805764
-0.00380068
-0.00816433
0.003714
0.00237128
0.0038052
-0.00617696
-0.00109562
0.00389396
-0.00213499
-0.00177824
-0.00695312
0.00400058
-0.0125771
0.0111753
-0.0121722
0.00091576
-0.000933558
0.00672719
0.000680898
0.00208139
-0.00282423
-0.005607
-0.00196699
0.00732691
0.00355527
-0.00106554
-0.00213392
0.00201896
0.00515885
-0.00749319
-0.0122812
0.00792103
-0.00248027
-0.00850302
-0.0101859
0.00619429
0.00384833
-0.00377696
0.00902292
-0.000888141
0.00334007
-0.00247716
-0.0101527
-0.0107445
0.002575
0.00526401
0.00852467
0.00331251
-0.000166996
0.00471704
0.00985017
0.00140172
0.00108277
0.00729235
-0.00478551
-0.00263465
-0.00455894
0.00224547
0.00217281
-0.0069578
0.0117356
-0.00750785
-0.00455596
-0.00784298
-0.0012614
0.00330193
-0.00115897
-0.0052335
0.0132497
-0.00808699
-0.0043683
-0.00417888
0.00850433
-0.00490238
0.0120301
-0.00721128
0.000204072
-0.00206368
0.0118194
-0.00532269
0.00291685
0.00759144
0.00470116
-0.00213495
-0.0028213
-0.00441762
0.00604709
0.00239668
0.00310286
0.0038565
0.00968306
0.00433077
0.0101598
-0.0145201
-0.00395431
0.00534334
0.0132292
-0.00097074
0.000212546
0.000275048
-0.00932514
-0.0010266
-0.00679477
0.00154062
-0.00119927
-0.00359325
-0.00401655
0.00755957
-0.00216304
0.00496668
-0.00301392
0.00193839
0.00336276
0.00809649
-0.0123603
0.00353007
-0.00667264
-0.00501875
0.00233321
-0.00498043