/*--------------------------------*- C++ -*----------------------------------*\
| =========                 |                                                 |
| \\      /  F ield         | OpenFOAM: The Open Source CFD Toolbox           |
|  \\    /   O peration     | Version:  v2012                                 |
|   \\  /    A nd           | Website:  www.openfoam.com                      |
|    \\/     M anipulation  |                                                 |
\*---------------------------------------------------------------------------*/
FoamFile
{
    version     2.0;
    format      ascii;
    class       volVectorField;
    location    "850";
    object      cellDisplacement;
}
// * * * * * * * * * * * * * * * * * * * * * * * * * * * * * * * * * * * * * //

dimensions      [0 1 0 0 0 0 0];


internalField   nonuniform List<vector> 
13851
(
(-0.00795625 0.12031 0)
(-0.00375115 0.160313 0)
(-0.018184 0.171299 0)
(-0.00769911 0.117845 0)
(-0.0226153 0.167067 0)
(-0.00462328 0.124109 0)
(-0.0148001 0.0485907 0)
(-0.0190779 0.1603 0)
(-0.00185708 0.0427691 0)
(-0.0138225 0.171113 0)
(-0.000465045 0.0222491 0)
(-0.00596831 0.177315 0)
(-0.0249519 0.18371 0)
(0.00147973 0.190159 0)
(-0.003454 0.0136815 0)
(-0.0156576 0.152853 0)
(-0.0181268 0.128744 0)
(-0.0101349 0.14029 0)
(-0.0232299 0.182393 0)
(-0.00186531 0.0422829 0)
(-0.00775847 0.116702 0)
(-0.0186642 0.170923 0)
(-4.77454e-05 0.00175881 0)
(-0.000254666 0.00554823 0)
(-3.51003e-05 0.00128994 0)
(-0.0187603 0.16112 0)
(-0.0201179 0.105027 0)
(0.0139812 0.194012 0)
(-0.0081339 0.119957 0)
(-0.0126816 0.133606 0)
(-0.00442588 0.123699 0)
(-0.0182358 0.130437 0)
(-0.0179547 0.170633 0)
(-0.00151191 0.071052 0)
(-0.000315014 0.00678399 0)
(-0.0268528 0.133478 0)
(-0.0272172 0.136971 0)
(-0.0190729 0.180525 0)
(-0.013586 0.171956 0)
(-0.00151187 0.0701532 0)
(-0.00799492 0.0904111 0)
(-0.000114659 0.00462146 0)
(-0.0223392 0.193103 0)
(-0.000480225 0.0234513 0)
(-0.000466653 0.0229785 0)
(-0.0166617 0.192084 0)
(-0.000478017 0.0240348 0)
(-0.00255598 0.107814 0)
(-0.0202931 0.105884 0)
(-0.00164088 0.0619416 0)
(-0.0248418 0.151501 0)
(-0.0254012 0.16817 0)
(-0.0004707 0.193657 0)
(-0.00237301 0.0103519 0)
(-0.00128962 0.0126272 0)
(-0.000113208 0.00457864 0)
(-0.000199291 0.00575819 0)
(0.00477929 0.193663 0)
(-0.0126129 0.132187 0)
(-0.015253 0.0631665 0)
(-0.0185642 0.180699 0)
(-0.0153527 0.188884 0)
(-0.00722316 0.144398 0)
(-0.0231963 0.169098 0)
(-0.00730864 0.160272 0)
(-0.00732694 0.122936 0)
(-0.0272599 0.137148 0)
(-0.000489593 0.0248974 0)
(-0.0224258 0.131041 0)
(-0.00994686 0.139631 0)
(-0.0275236 0.136911 0)
(-0.0272215 0.131633 0)
(-0.00337656 0.160542 0)
(-0.00244847 0.0102531 0)
(-0.00200106 0.0210351 0)
(-0.00224417 0.0540521 0)
(-0.0188903 0.170001 0)
(-0.0285988 0.181708 0)
(-0.0220116 0.153614 0)
(-0.0273096 0.128072 0)
(-0.016412 0.0815394 0)
(-4.02802e-05 0.0020081 0)
(-0.0101939 0.0612925 0)
(-0.0188453 0.1924 0)
(-0.00728999 0.145445 0)
(-0.00632019 0.176846 0)
(-0.0048247 0.121217 0)
(-0.00605834 0.167798 0)
(-0.0196461 0.123069 0)
(-0.000819698 0.0299605 0)
(-0.0268283 0.135042 0)
(-0.00390086 0.103799 0)
(-0.000502096 0.0255397 0)
(-0.020421 0.129541 0)
(-0.0197306 0.120608 0)
(-0.000150606 0.004168 0)
(-0.0228929 0.167342 0)
(-0.0245981 0.189451 0)
(-0.00160921 0.0618264 0)
(-0.000115901 0.00323113 0)
(0.00279829 0.192107 0)
(-0.0232653 0.148928 0)
(-0.00988822 0.116506 0)
(-0.020891 0.0768803 0)
(-8.49078e-06 0.000338481 0)
(-0.00453856 0.118449 0)
(-0.0238458 0.14912 0)
(-6.00687e-05 0.00242204 0)
(-0.0272135 0.128628 0)
(-0.00468712 0.125288 0)
(-0.000154395 0.00379518 0)
(-0.000835537 0.0306943 0)
(-0.00398272 0.103346 0)
(-6.76999e-05 0.00149055 0)
(-0.000196992 0.00479362 0)
(-0.00236026 0.131297 0)
(-0.0245808 0.188939 0)
(-7.61558e-05 0.00302595 0)
(-0.00048089 0.0072533 0)
(-0.000966376 0.0101153 0)
(-0.0212152 0.193147 0)
(-0.0207685 0.0789078 0)
(-0.0246761 0.184502 0)
(-0.00188987 0.102605 0)
(-0.00267592 0.107393 0)
(-0.000440529 0.0186066 0)
(-0.00265864 0.106208 0)
(-0.0226424 0.151797 0)
(-0.00757996 0.115243 0)
(-0.022112 0.176717 0)
(-0.00787996 0.0884021 0)
(-0.00202091 0.0351764 0)
(-0.0275434 0.137738 0)
(-0.0100388 0.0587804 0)
(-0.00228276 0.130403 0)
(-0.000947513 0.0157493 0)
(-7.01389e-05 0.00278241 0)
(-0.0272845 0.135388 0)
(-0.00578288 0.188409 0)
(-0.000223151 0.185386 0)
(0.00190896 0.192264 0)
(-0.00114611 0.0114646 0)
(-0.00262497 0.0721235 0)
(-0.000248443 0.01016 0)
(-0.0162629 0.122883 0)
(-0.000493875 0.0241466 0)
(-2.87456e-05 0.00129974 0)
(-0.0217447 0.177192 0)
(-0.014507 0.0482337 0)
(-0.000453279 0.0222881 0)
(-0.0257728 0.120644 0)
(-0.00111323 0.0121059 0)
(0.00210077 0.190401 0)
(-0.000190736 0.00556493 0)
(-0.0181703 0.105946 0)
(-0.0160381 0.122837 0)
(-0.00429932 0.0692272 0)
(-0.0133648 0.127076 0)
(-0.0252736 0.169483 0)
(-0.0246488 0.152424 0)
(-2.27774e-05 0.000950636 0)
(-0.0215597 0.116952 0)
(0.00414244 0.193695 0)
(-0.00192604 0.0340514 0)
(-0.0130614 0.144574 0)
(-0.000198722 0.00803803 0)
(-3.62148e-05 0.0016448 0)
(-0.0226302 0.130241 0)
(-0.00762039 0.114046 0)
(-0.0218918 0.191087 0)
(-0.0285774 0.180592 0)
(-0.000783972 0.0204258 0)
(-0.00443942 0.0703805 0)
(-0.000435101 0.185872 0)
(-0.00178868 0.0315808 0)
(-0.00256819 0.108968 0)
(-0.0224419 0.151629 0)
(-0.00291644 0.0761905 0)
(-0.0236218 0.182685 0)
(-6.07041e-05 0.00246468 0)
(-0.0181453 0.134253 0)
(-0.0272723 0.133628 0)
(-0.00964707 0.0534993 0)
(-0.0188117 0.171703 0)
(-7.37154e-06 0.000295602 0)
(-8.42902e-05 0.00281828 0)
(-0.0074704 0.123973 0)
(-0.00134241 0.0139691 0)
(-0.0220829 0.170999 0)
(-0.0111551 0.166821 0)
(-0.000490682 0.0247007 0)
(9.70607e-05 0.193664 0)
(-0.000842427 0.0314819 0)
(-0.0218392 0.137453 0)
(-0.0153791 0.188464 0)
(-0.0178041 0.106296 0)
(-0.00262718 0.071064 0)
(-0.00142724 0.0663226 0)
(-0.00286979 0.0749769 0)
(-0.00230987 0.0552559 0)
(-0.000454768 0.0191725 0)
(-0.0164362 0.19131 0)
(-0.000294928 0.00403926 0)
(-0.008649 0.069187 0)
(-0.012785 0.166473 0)
(-0.0100627 0.0556459 0)
(-0.00850042 0.185197 0)
(-0.0186926 0.126715 0)
(-0.0280868 0.160699 0)
(-3.78144e-05 0.00155482 0)
(-0.0279223 0.160155 0)
(-0.00985526 0.114755 0)
(-0.0013202 0.0661098 0)
(-3.88693e-05 0.00157537 0)
(-0.000215382 0.00880655 0)
(-0.000435932 0.0204726 0)
(-0.00770344 0.146598 0)
(-0.0153509 0.192257 0)
(-0.00586237 0.0267107 0)
(-0.0281171 0.162176 0)
(-0.0186689 0.128733 0)
(-0.0166558 0.082623 0)
(-0.0273279 0.184361 0)
(-0.0240756 0.17315 0)
(-0.0277225 0.147383 0)
(-5.01193e-05 0.00173581 0)
(-0.0207042 0.135025 0)
(-7.09543e-06 0.000282597 0)
(-0.00453221 0.193513 0)
(-3.5888e-05 0.00145789 0)
(-0.0184812 0.160511 0)
(-0.00648357 0.155116 0)
(-0.000728099 0.0189929 0)
(-0.000827545 0.0307802 0)
(-0.0248126 0.144543 0)
(-0.00953111 0.150573 0)
(-0.0092565 0.185147 0)
(-0.00705273 0.160943 0)
(-0.000237046 0.00971294 0)
(-0.00887785 0.0699309 0)
(-0.00437144 0.122495 0)
(-0.00140846 0.0590812 0)
(-3.19815e-05 0.00137113 0)
(-0.0125167 0.167307 0)
(-1.25289e-05 0.000499455 0)
(-0.0278585 0.152487 0)
(-0.02318 0.151018 0)
(-0.00138212 0.0688347 0)
(-0.0156662 0.12492 0)
(-0.0163962 0.137934 0)
(-0.00332353 0.0907331 0)
(-0.00137927 0.058762 0)
(-0.0149581 0.101588 0)
(-0.0158992 0.124997 0)
(-0.0243925 0.136673 0)
(-0.00504063 0.140783 0)
(-0.0111358 0.16593 0)
(-0.0273321 0.137262 0)
(-0.0285219 0.192115 0)
(-0.00945899 0.0340516 0)
(-0.000226461 0.00924371 0)
(-0.0098525 0.137321 0)
(-0.00338058 0.126114 0)
(-0.000409031 0.0165517 0)
(-0.022107 0.18434 0)
(-0.0176532 0.107621 0)
(-0.0149464 0.0996077 0)
(-0.0203877 0.127629 0)
(-0.0272063 0.183712 0)
(-0.000792208 0.0333059 0)
(-0.00325381 0.0898632 0)
(-0.0180272 0.107501 0)
(-0.00401707 0.126323 0)
(-0.0219496 0.151909 0)
(-0.0154466 0.152102 0)
(-0.00215363 0.037561 0)
(-3.05068e-05 0.00152799 0)
(-0.000392939 0.0177456 0)
(-0.0273496 0.131239 0)
(-0.000452264 0.021597 0)
(-2.32685e-05 0.00100016 0)
(-2.40938e-05 0.000987659 0)
(-6.92489e-06 0.000276473 0)
(-0.0242926 0.135185 0)
(-0.00325521 0.125339 0)
(-0.00247635 0.110521 0)
(-0.00219201 0.050283 0)
(-0.00590112 0.0168952 0)
(-0.00390186 0.125507 0)
(-1.51544e-05 0.000747739 0)
(-0.021655 0.178318 0)
(-0.0128241 0.130857 0)
(-0.015382 0.065728 0)
(-0.0223929 0.137851 0)
(-2.82594e-05 0.00139305 0)
(-0.022631 0.183977 0)
(-0.0137115 0.143489 0)
(-0.00613273 0.176184 0)
(-0.00237828 0.0410841 0)
(-0.027879 0.153778 0)
(-0.0214852 0.115134 0)
(-0.0178428 0.129335 0)
(-0.0274449 0.13547 0)
(-0.01085 0.104597 0)
(-0.0045845 0.119672 0)
(-0.0281467 0.177267 0)
(-0.00214075 0.048724 0)
(-0.0237159 0.134205 0)
(-0.0202704 0.131499 0)
(-0.0127375 0.129375 0)
(-0.00692436 0.188385 0)
(-0.0135787 0.144486 0)
(-0.0143934 0.102348 0)
(-0.02664 0.187081 0)
(-0.000140828 0.00567589 0)
(-0.0165248 0.139032 0)
(-0.000479207 0.0202993 0)
(-0.0273407 0.131292 0)
(-0.0264911 0.132911 0)
(-0.00642976 0.0292218 0)
(-0.023814 0.145372 0)
(-0.00646904 0.0249088 0)
(-0.028432 0.19193 0)
(-0.00328315 0.0927472 0)
(-6.04871e-05 0.00217306 0)
(-0.00463971 0.0809314 0)
(-0.026444 0.134929 0)
(-0.0206271 0.133032 0)
(-0.0183608 0.102343 0)
(-0.00550698 0.0149801 0)
(-0.0108438 0.103013 0)
(-0.0141859 0.102061 0)
(-0.000465436 0.0224804 0)
(0.00588396 0.19101 0)
(-0.0202808 0.190518 0)
(-0.0086639 0.139361 0)
(-0.0274242 0.135069 0)
(-0.0158394 0.185298 0)
(-0.00324926 0.0134507 0)
(-0.0217496 0.139718 0)
(-0.0212562 0.178813 0)
(-0.00398612 0.106111 0)
(-0.00854082 0.152333 0)
(-0.025517 0.163221 0)
(-0.0227745 0.183001 0)
(-0.0039962 0.0963852 0)
(-0.00274217 0.125198 0)
(-0.0281334 0.168168 0)
(-0.00295854 0.0112753 0)
(-0.000568874 0.0251484 0)
(-0.000556426 0.0247298 0)
(-0.0140836 0.180272 0)
(-0.0184351 0.100353 0)
(-0.00830879 0.152909 0)
(-0.00351142 0.193518 0)
(-0.00455334 0.072444 0)
(-0.00261405 0.124421 0)
(-0.00453796 0.0801578 0)
(-0.00602173 0.0226998 0)
(-1.33805e-05 0.000533967 0)
(-5.79884e-05 0.00234373 0)
(-0.00408643 0.0638597 0)
(-0.0280869 0.167699 0)
(-0.00092925 0.0441499 0)
(-0.0105017 0.082525 0)
(-0.0235951 0.132513 0)
(-0.000156301 0.00635236 0)
(-0.00567431 0.17598 0)
(-0.0140466 0.157002 0)
(-0.0021284 0.110478 0)
(-0.0215894 0.190802 0)
(-0.010536 0.0843879 0)
(-0.00754561 0.147367 0)
(-0.0198532 0.134362 0)
(-0.00222805 0.110046 0)
(-0.00728611 0.0837448 0)
(-8.31626e-05 0.00330288 0)
(-0.00365118 0.0967 0)
(0.00526274 0.192182 0)
(-0.00162975 0.0172381 0)
(-0.0073879 0.187948 0)
(-0.00390156 0.105202 0)
(-0.0256549 0.164091 0)
(-0.0211589 0.191405 0)
(-0.000538617 0.0246896 0)
(-0.000551751 0.0251765 0)
(-0.00304645 0.0845463 0)
(-0.00240257 0.0380713 0)
(-0.00171568 0.00629701 0)
(-0.00881108 0.138168 0)
(-0.0239197 0.143465 0)
(0.00205066 0.189795 0)
(-0.0228876 0.126636 0)
(-0.0277072 0.147409 0)
(-0.0281646 0.174269 0)
(-0.0001648 0.00668426 0)
(-0.00988493 0.0351289 0)
(-0.0205573 0.190831 0)
(-0.0274676 0.134602 0)
(-0.00648664 0.154262 0)
(-0.0251136 0.188509 0)
(-0.00357213 0.0968596 0)
(-0.0199566 0.135869 0)
(-8.79425e-05 0.00267188 0)
(-0.0162951 0.184819 0)
(-0.00126257 0.0313397 0)
(-0.015951 0.15228 0)
(-0.0030763 0.0839052 0)
(-0.0138855 0.0557828 0)
(-5.98105e-06 0.000238623 0)
(-0.00205733 0.0473372 0)
(-0.000189068 0.00766215 0)
(-0.023411 0.167863 0)
(-0.00932845 0.153619 0)
(-0.0277391 0.191791 0)
(-0.00948678 0.139076 0)
(-0.0239302 0.147025 0)
(-0.00587469 0.125048 0)
(-0.00135517 0.057699 0)
(-0.0159714 0.141648 0)
(-0.0135102 0.180248 0)
(-0.0177249 0.127826 0)
(-0.00042202 0.019809 0)
(-6.29436e-05 0.00250074 0)
(-0.00200277 0.0458027 0)
(-6.50191e-05 0.0021626 0)
(-0.0176542 0.181746 0)
(-0.00119053 0.0597643 0)
(-0.0235022 0.173931 0)
(-0.00603877 0.12538 0)
(-0.0279411 0.192069 0)
(-0.00154425 0.0718995 0)
(-0.0047645 0.120011 0)
(-0.000845643 0.00905507 0)
(-0.024952 0.143012 0)
(-0.00714157 0.081544 0)
(-0.00132717 0.0573831 0)
(-1.62197e-05 0.000642411 0)
(-0.0114651 0.179571 0)
(-0.0012148 0.0566386 0)
(-0.0174098 0.169353 0)
(-0.0282364 0.166878 0)
(-0.00279768 0.0747259 0)
(-0.000354431 0.0161049 0)
(-0.00120219 0.0571094 0)
(0.00762418 0.191988 0)
(-1.02632e-05 0.000411853 0)
(-0.0201307 0.139209 0)
(-0.0222447 0.153568 0)
(-0.000779766 0.0330956 0)
(-0.00105727 0.026094 0)
(-0.0139201 0.103929 0)
(-0.0256687 0.119664 0)
(-0.0253864 0.166755 0)
(-0.00906617 0.142575 0)
(-0.00288817 0.174896 0)
(-6.51108e-05 0.00224238 0)
(-0.00472409 0.0830228 0)
(-0.0184903 0.19312 0)
(-0.0127479 0.145443 0)
(-2.1926e-05 0.000896534 0)
(-0.00558613 0.16787 0)
(-0.00229767 0.0368287 0)
(-0.00779339 0.11943 0)
(-0.00139405 0.0323287 0)
(-0.0114591 0.154627 0)
(-0.012937 0.123616 0)
(-3.42171e-05 0.00140328 0)
(-0.00274641 0.0735627 0)
(-0.0263298 0.186908 0)
(-0.0105668 0.0636693 0)
(-0.0229612 0.131299 0)
(-0.00106677 0.0175042 0)
(-0.00500696 0.112485 0)
(-0.00038959 0.017979 0)
(-6.51899e-05 0.00136426 0)
(-0.00681233 0.0879751 0)
(-0.000127854 0.00278026 0)
(-0.000116309 0.0025965 0)
(-0.00272162 0.110895 0)
(-0.0151431 0.0968221 0)
(-0.0046953 0.122081 0)
(-0.00945125 0.0509147 0)
(-0.000114654 0.00350591 0)
(-0.000104824 0.191534 0)
(-0.0282098 0.165592 0)
(-0.0106691 0.0570053 0)
(-0.0048815 0.112448 0)
(-0.0162308 0.141959 0)
(-0.00143736 0.0602472 0)
(-0.0177171 0.192356 0)
(-0.00482669 0.0837084 0)
(-0.000911951 0.0433093 0)
(-0.00751692 0.0849986 0)
(-0.0214863 0.16919 0)
(-0.0144737 0.0624863 0)
(-0.00911764 0.193235 0)
(-4.41939e-05 0.00175552 0)
(-0.00196941 0.193623 0)
(-0.0106957 0.164869 0)
(-0.000123546 0.00497391 0)
(-0.00476984 0.111121 0)
(-0.0241516 0.190644 0)
(-0.0181534 0.161481 0)
(-0.000604822 0.0302977 0)
(-0.000612163 0.00910392 0)
(-0.00211745 0.0999324 0)
(-0.00101044 0.00972306 0)
(-0.00151871 0.0288109 0)
(-0.00230959 0.0411291 0)
(-0.0138336 0.0468371 0)
(-0.0274758 0.134967 0)
(-0.0243189 0.151541 0)
(-0.026263 0.15721 0)
(-0.0254459 0.179998 0)
(-0.00760263 0.145579 0)
(-2.91376e-05 0.00121969 0)
(-0.0219386 0.186442 0)
(-0.00121579 0.0595599 0)
(-0.0183973 0.133929 0)
(-0.021491 0.119337 0)
(-0.00146692 0.0604173 0)
(-0.0019993 0.102411 0)
(-0.0278745 0.159547 0)
(-0.00160951 0.00770443 0)
(-0.00851108 0.193192 0)
(-0.0178146 0.192127 0)
(-0.0154088 0.191518 0)
(-0.0133099 0.145108 0)
(-0.00465487 0.111147 0)
(-0.00198068 0.105946 0)
(-0.000368447 0.0167455 0)
(-0.00499734 0.139678 0)
(-0.00139758 0.0666362 0)
(-0.0108516 0.180714 0)
(-0.0131867 0.128403 0)
(-0.0109274 0.181281 0)
(-0.0275892 0.154903 0)
(-5.00996e-05 0.00199171 0)
(-0.000378584 0.017092 0)
(-0.0245202 0.150737 0)
(-0.0282536 0.167206 0)
(-0.0155227 0.126837 0)
(-0.00740652 0.0529241 0)
(-0.00418683 0.0671212 0)
(-0.00848438 0.082067 0)
(-0.0223637 0.169847 0)
(-0.0103422 0.151262 0)
(-0.00625433 0.167059 0)
(-0.00308992 0.17438 0)
(-0.000745454 0.0146011 0)
(-0.0195946 0.193127 0)
(-0.0285144 0.179886 0)
(-0.00411804 0.118375 0)
(-0.00120207 0.0585674 0)
(-0.0227668 0.13219 0)
(-1.80093e-05 0.000732705 0)
(-0.00192398 0.0445093 0)
(-4.16028e-05 0.00193464 0)
(-0.0222219 0.186881 0)
(-0.0183537 0.106335 0)
(-0.0260685 0.131425 0)
(-0.0268779 0.142445 0)
(-0.000104162 0.0042167 0)
(-0.0055763 0.125778 0)
(-0.00221332 0.103046 0)
(-0.0146363 0.179569 0)
(-0.0249667 0.166741 0)
(-0.0275055 0.13621 0)
(-0.0275565 0.151124 0)
(-0.00764653 0.0871335 0)
(-0.0140504 0.0542149 0)
(-0.00396761 0.167614 0)
(-0.0281926 0.175766 0)
(-0.0265378 0.143031 0)
(-0.0229615 0.124243 0)
(-0.00691387 0.144205 0)
(-6.37089e-05 0.00258028 0)
(-0.00612766 0.0589064 0)
(-0.0115367 0.180185 0)
(-9.63478e-05 0.00389087 0)
(-0.0152858 0.126672 0)
(-5.22494e-05 0.00212179 0)
(-0.00194193 0.0285512 0)
(-0.0276313 0.156512 0)
(-0.0229112 0.168906 0)
(-0.00617823 0.124294 0)
(-8.84369e-05 0.00357503 0)
(-0.00843216 0.187835 0)
(-0.00141257 0.0653146 0)
(-0.00254961 0.0423262 0)
(-0.000186255 0.00571531 0)
(-0.000425187 0.0171766 0)
(-0.00214152 0.00821612 0)
(0.00534684 0.192363 0)
(-0.00137592 0.0678856 0)
(-0.00133082 0.0671135 0)
(-0.0140828 0.19147 0)
(-0.00201841 0.0990407 0)
(-0.022776 0.120753 0)
(-0.0282593 0.167356 0)
(-0.0280912 0.160657 0)
(-0.00398221 0.0974207 0)
(-0.0223447 0.133624 0)
(-1.35701e-05 0.000552721 0)
(-0.000464035 0.0197027 0)
(-0.0166034 0.154201 0)
(-0.0255603 0.1866 0)
(-0.00292224 0.124914 0)
(-0.0259983 0.133164 0)
(-0.019017 0.140893 0)
(-0.00171844 0.0392739 0)
(-0.0148739 0.152508 0)
(-0.00233951 0.0671013 0)
(-0.000618783 0.0307868 0)
(-0.0242328 0.157448 0)
(-0.00902115 0.0487419 0)
(-0.00879369 0.140438 0)
(-0.00104354 0.0254699 0)
(-0.020615 0.123872 0)
(-0.0232243 0.174959 0)
(-0.0149622 0.0622209 0)
(-0.00692259 0.0803561 0)
(-0.0143139 0.157525 0)
(-0.0142533 0.0789603 0)
(-0.0223422 0.168359 0)
(-0.0174106 0.181132 0)
(-0.0241017 0.171982 0)
(-0.0142929 0.152871 0)
(-0.0266067 0.141405 0)
(-0.00165566 0.037684 0)
(-0.00678035 0.152853 0)
(-0.00333833 0.0920926 0)
(-0.013158 0.191671 0)
(-0.0100242 0.113793 0)
(-0.000158174 0.00422862 0)
(-0.0272352 0.130256 0)
(-0.0111584 0.129196 0)
(-0.021452 0.191612 0)
(-0.0280899 0.164033 0)
(-0.0136746 0.1926 0)
(-0.00534527 0.167278 0)
(-0.00125497 0.0307756 0)
(-0.0272034 0.129934 0)
(-2.40588e-05 0.00103936 0)
(-0.00213579 0.0322952 0)
(-3.88497e-05 0.00154548 0)
(-0.00214741 0.0315032 0)
(-1.36704e-05 0.00060704 0)
(-0.00921852 0.13917 0)
(-0.0115863 0.153405 0)
(-8.1518e-05 0.00328831 0)
(-0.0134863 0.184392 0)
(-0.0107074 0.165754 0)
(-0.013516 0.184893 0)
(-0.00368079 0.062121 0)
(-2.51973e-05 0.00100557 0)
(-6.52664e-05 0.00241889 0)
(-0.0208559 0.178421 0)
(-0.0144214 0.187896 0)
(-0.0248261 0.127135 0)
(-0.0206115 0.125822 0)
(-3.14646e-05 0.00136272 0)
(-0.000109025 0.00327947 0)
(-0.000531173 0.010321 0)
(-0.00435857 0.0729612 0)
(-0.0270516 0.16464 0)
(-0.0032496 0.180643 0)
(-0.0140332 0.0777027 0)
(-7.42943e-05 0.00299975 0)
(-0.0139636 0.0448746 0)
(-0.00437534 0.0720859 0)
(-0.0119244 0.178325 0)
(0.00257278 0.193709 0)
(-0.0151046 0.153075 0)
(-0.0235456 0.189878 0)
(-0.00211322 0.101054 0)
(-0.00677152 0.078142 0)
(-0.0261147 0.158423 0)
(0.00653361 0.191962 0)
(-0.0224773 0.135439 0)
(-0.0061256 0.177906 0)
(-0.0162349 0.0831764 0)
(-0.0100304 0.138189 0)
(-0.0247062 0.127756 0)
(-0.00959854 0.137689 0)
(-0.00135182 0.0658701 0)
(-0.0102787 0.0550784 0)
(-0.00198317 0.10477 0)
(-1.3635e-05 0.000540878 0)
(-0.0231584 0.0969226 0)
(-0.0282224 0.166675 0)
(-0.00208212 0.0540029 0)
(-0.010667 0.124604 0)
(-0.0068475 0.14314 0)
(-0.00164015 0.0311622 0)
(-0.0180534 0.13257 0)
(-0.00368129 0.125447 0)
(0.00035838 0.187434 0)
(-0.024011 0.157943 0)
(-0.0217802 0.183832 0)
(-0.000532289 0.024654 0)
(-4.70481e-05 0.00190632 0)
(-0.00356894 0.0598892 0)
(-0.00160793 0.191568 0)
(-0.0268282 0.140956 0)
(-0.00936103 0.151621 0)
(-0.0280953 0.165244 0)
(-0.00134198 0.0361972 0)
(-0.00081519 0.00239429 0)
(-5.63938e-05 0.0022382 0)
(-0.00202444 0.0979129 0)
(-0.0274043 0.148324 0)
(-0.0138349 0.139598 0)
(-0.00819829 0.107514 0)
(-0.0004035 0.0186267 0)
(-0.0197459 0.111838 0)
(-6.77492e-05 0.00252019 0)
(-0.0216953 0.192965 0)
(-0.00487998 0.141476 0)
(-0.0282885 0.186528 0)
(-0.00013196 0.00532619 0)
(-0.0140047 0.0753166 0)
(-0.0283871 0.17267 0)
(0.00772767 0.193855 0)
(-0.0267603 0.134994 0)
(-0.00233677 0.0660894 0)
(-0.0276029 0.148133 0)
(-0.0102729 0.0584002 0)
(-0.00041995 0.0195481 0)
(-0.0167499 0.177274 0)
(-0.0172027 0.170499 0)
(-0.0164833 0.134719 0)
(-0.0151412 0.192469 0)
(-0.00313706 0.0866772 0)
(-0.00205919 0.0635025 0)
(-0.0272196 0.139033 0)
(-0.000175426 0.00463571 0)
(-0.000164893 0.0022194 0)
(-0.0130219 0.125233 0)
(-0.00158713 0.0365635 0)
(-0.020622 0.192941 0)
(-0.017469 0.150436 0)
(-0.0252188 0.166051 0)
(-0.00633615 0.124694 0)
(-0.000396788 0.0180453 0)
(-0.00179468 0.0405254 0)
(-0.00357998 0.126191 0)
(-0.000426428 0.00759031 0)
(-0.00307415 0.0858824 0)
(-3.35055e-05 0.00133199 0)
(-0.00640687 0.0747327 0)
(-0.0012739 0.0155599 0)
(-0.0281808 0.178525 0)
(-0.0042073 0.0661074 0)
(-0.000109793 0.0043543 0)
(-0.00296887 0.10586 0)
(-0.0143856 0.055406 0)
(-0.0283826 0.172646 0)
(-1.80798e-05 0.000707151 0)
(-0.00250521 0.0696775 0)
(-0.0252984 0.140371 0)
(-0.0113181 0.178221 0)
(-0.000971383 0.045503 0)
(-0.000571329 0.0118312 0)
(-0.00422443 0.126359 0)
(-0.0231439 0.189501 0)
(-0.0151572 0.0989393 0)
(-0.0279701 0.174887 0)
(-0.0230405 0.0976353 0)
(-0.00146144 0.0339747 0)
(-0.00188617 0.0655468 0)
(-0.0224189 0.193062 0)
(-0.00434274 0.125612 0)
(-0.0156497 0.139794 0)
(-0.00066945 0.0129621 0)
(-6.75188e-05 0.00272064 0)
(-0.00122299 0.0582142 0)
(-0.0164983 0.172005 0)
(-0.0108097 0.159937 0)
(-0.0136341 0.142273 0)
(-0.00184969 0.0649327 0)
(-0.00200122 0.00931283 0)
(-0.00244769 0.0684705 0)
(-0.0260486 0.122241 0)
(-0.00130309 0.0619575 0)
(-0.0217818 0.170726 0)
(-0.00305236 0.12567 0)
(-0.0137524 0.0738853 0)
(-0.0217796 0.169376 0)
(-0.025261 0.152643 0)
(-0.0272918 0.129379 0)
(-0.0135689 0.139234 0)
(-0.0060317 0.184486 0)
(-0.0251741 0.18009 0)
(-0.0145591 0.0535468 0)
(-0.0200992 0.191996 0)
(-0.00706389 0.152163 0)
(-0.0184542 0.188439 0)
(0.000974403 0.187743 0)
(-0.0272063 0.187438 0)
(-0.000894081 0.040523 0)
(-0.0162386 0.158656 0)
(-0.00152353 0.0349831 0)
(-0.00867471 0.137096 0)
(0.0037412 0.193595 0)
(-0.0199668 0.192242 0)
(-0.00407024 0.0759072 0)
(-7.64317e-05 0.00244099 0)
(-0.0247755 0.147162 0)
(-3.08305e-05 0.00148659 0)
(-0.000142312 0.00567432 0)
(0.00268803 0.193732 0)
(-0.00129399 0.0347421 0)
(-0.0108918 0.0789089 0)
(-0.0189908 0.193034 0)
(-0.0284522 0.17539 0)
(-0.000538699 0.0250814 0)
(-0.00222636 0.0340295 0)
(-0.00590928 0.020892 0)
(0.00668378 0.193827 0)
(-0.0269397 0.165296 0)
(-0.0264377 0.142133 0)
(-0.00432468 0.0965493 0)
(-0.0209446 0.190148 0)
(-0.0151346 0.17967 0)
(-0.0152317 0.187535 0)
(-0.0236295 0.149759 0)
(-0.0234016 0.13369 0)
(-0.0141257 0.104014 0)
(-0.0143539 0.0597868 0)
(-0.00303793 0.159782 0)
(-0.0248185 0.115816 0)
(-0.0274354 0.133273 0)
(-0.00347003 0.0959522 0)
(-0.0226931 0.127293 0)
(-0.0209001 0.192807 0)
(-0.0187765 0.188808 0)
(-0.0285391 0.179971 0)
(-0.0118035 0.058716 0)
(-0.0226679 0.115961 0)
(-0.00244762 0.0411096 0)
(-0.0145333 0.153464 0)
(-0.0104777 0.123862 0)
(-0.00550778 0.178786 0)
(-0.000536251 0.0022676 0)
(-0.0275941 0.140156 0)
(-0.000141636 0.00562965 0)
(-0.0251821 0.140722 0)
(-0.00672257 0.069473 0)
(-0.0158842 0.178429 0)
(-0.0229123 0.121793 0)
(-0.0225034 0.117542 0)
(-0.0241895 0.189833 0)
(-0.023951 0.128979 0)
(-0.0111058 0.155188 0)
(-0.000225714 0.00504424 0)
(-0.0250881 0.14328 0)
(-0.00245361 0.109345 0)
(-0.00707808 0.147338 0)
(-0.0148852 0.128236 0)
(-0.0284795 0.176465 0)
(-0.00039829 0.0160461 0)
(0.00191628 0.187584 0)
(-0.000919028 0.0429139 0)
(-0.0130045 0.096653 0)
(-0.0279279 0.159146 0)
(0.00426031 0.192078 0)
(-0.0284102 0.173984 0)
(-0.000877594 0.0397617 0)
(-0.00343375 0.0947474 0)
(-0.00440643 0.0770077 0)
(-0.0282732 0.187654 0)
(-0.000943788 0.00417781 0)
(-0.00257348 0.131647 0)
(-0.0280133 0.157579 0)
(-0.00381534 0.0623722 0)
(-0.0192813 0.0816299 0)
(-0.0182271 0.181623 0)
(-0.00136776 0.0645816 0)
(-0.00469042 0.184125 0)
(-0.0132845 0.0835281 0)
(-0.000242814 0.00700143 0)
(-0.00288498 0.164189 0)
(-0.0281579 0.163765 0)
(-0.0248362 0.168433 0)
(-0.0155963 0.138154 0)
(-0.00444148 0.0952964 0)
(-0.000902555 0.0421327 0)
(-0.0153752 0.19298 0)
(-0.0252648 0.154418 0)
(-0.000117557 0.00466026 0)
(-0.0164274 0.159459 0)
(-0.00167082 0.0308345 0)
(-0.00053648 0.00735865 0)
(-0.000550855 0.0247315 0)
(-8.70138e-05 0.00259847 0)
(-0.0122983 0.18083 0)
(-0.00129913 0.0562662 0)
(-0.0109465 0.0808932 0)
(-0.00267928 0.073318 0)
(-0.00443697 0.0784172 0)
(-0.0132751 0.125477 0)
(-0.0278772 0.151542 0)
(-0.0233802 0.190692 0)
(-0.0202982 0.1372 0)
(-0.00630855 0.184859 0)
(-0.00667285 0.0678938 0)
(-0.0198863 0.139387 0)
(-0.00426695 0.0751975 0)
(-0.00175222 0.0318831 0)
(-0.0112924 0.099476 0)
(-0.0107093 0.0808422 0)
(-0.0279872 0.156153 0)
(-0.0108546 0.0595055 0)
(-0.0246118 0.130879 0)
(-0.0119601 0.0611531 0)
(-0.015921 0.139943 0)
(-0.000558255 0.0252059 0)
(0.0114059 0.193933 0)
(-0.000544227 0.0083481 0)
(-0.00421018 0.168249 0)
(-0.0106747 0.160805 0)
(-0.026535 0.175972 0)
(-0.0176886 0.150827 0)
(-0.0190501 0.148824 0)
(-0.0274874 0.135413 0)
(-0.0207803 0.121735 0)
(-0.00984983 0.150462 0)
(-0.00550685 0.1783 0)
(-0.00329306 0.13042 0)
(-0.00674523 0.193505 0)
(-0.0198119 0.155549 0)
(-0.000452275 0.0220225 0)
(-0.00994396 0.111855 0)
(-0.0238089 0.127887 0)
(-0.0234934 0.148227 0)
(-0.00506579 0.184502 0)
(-0.000473353 0.00982542 0)
(-0.00226462 0.185456 0)
(-0.0034492 0.0586104 0)
(-0.00380283 0.0633653 0)
(0.00123025 0.189542 0)
(-0.000478276 0.0199743 0)
(-0.0236715 0.183606 0)
(-0.0165743 0.136035 0)
(-0.00240826 0.042306 0)
(-0.00574553 0.126088 0)
(-0.00248559 0.0424332 0)
(-0.00625239 0.0212911 0)
(-3.71768e-05 0.00162189 0)
(-0.0159799 0.0816527 0)
(-0.0271603 0.138532 0)
(-0.00394272 0.0636322 0)
(-0.0268514 0.167168 0)
(-0.0149965 0.193084 0)
(-0.0128853 0.164793 0)
(-0.000589974 0.187563 0)
(-0.0140389 0.0585229 0)
(-0.000331679 0.00598687 0)
(-0.000489996 0.0208668 0)
(-0.00848643 0.0835653 0)
(-0.00224877 0.0386774 0)
(-0.025441 0.145783 0)
(-0.0172986 0.0590716 0)
(-0.00245894 0.0541481 0)
(-0.00837343 0.108594 0)
(-4.62695e-05 0.0016546 0)
(-0.0285784 0.181481 0)
(-0.00289049 0.18015 0)
(-0.00703426 0.146303 0)
(-0.025568 0.188714 0)
(-0.0272168 0.158245 0)
(-0.00623623 0.0608422 0)
(-0.00220086 0.089803 0)
(-0.0191965 0.139624 0)
(-0.0039531 0.0626097 0)
(-0.000822238 0.0410408 0)
(-0.00414816 0.115201 0)
(-0.00172632 0.0764837 0)
(-0.00211623 0.0217612 0)
(-0.000479331 0.0238621 0)
(-0.00135493 0.0636073 0)
(-0.00319239 0.193341 0)
(-0.000723025 0.017864 0)
(-0.0242407 0.18443 0)
(-0.0174601 0.149016 0)
(-0.0195637 0.110627 0)
(-3.89444e-05 0.00170641 0)
(-0.00139261 0.036682 0)
(-0.0092015 0.181418 0)
(-0.0069907 0.151173 0)
(-0.00260644 0.111309 0)
(-0.00204644 0.0526233 0)
(-0.00929107 0.0588606 0)
(-0.00275972 0.105731 0)
(-0.0132177 0.0965332 0)
(-0.0120352 0.178984 0)
(-0.000907424 0.0417139 0)
(-0.00542903 0.162051 0)
(-0.0243746 0.181997 0)
(-0.00106377 0.0523565 0)
(-9.075e-05 0.00292231 0)
(-0.00962935 0.0840437 0)
(-0.00776803 0.148798 0)
(-0.00511896 0.113753 0)
(-0.0207094 0.0848996 0)
(-0.0165044 0.178091 0)
(-0.0199796 0.156125 0)
(-0.01752 0.0597031 0)
(-0.00434528 0.0940336 0)
(-0.00186027 0.179539 0)
(-0.00244689 0.0547013 0)
(-0.0278431 0.191279 0)
(-0.026511 0.178378 0)
(-0.00269859 0.131097 0)
(-0.0251769 0.176752 0)
(-0.00157419 0.00463231 0)
(-0.00036032 0.0143445 0)
(-0.00797724 0.104675 0)
(-0.00062295 0.0300395 0)
(-0.00128078 0.0586072 0)
(-0.000747174 0.0186497 0)
(-7.77293e-05 0.00142029 0)
(-0.00198605 0.0515092 0)
(-0.0249739 0.152875 0)
(-0.000191685 0.00760437 0)
(-0.00194672 0.0501061 0)
(-0.0167589 0.0853623 0)
(-0.0214156 0.138533 0)
(-0.0273842 0.149968 0)
(-0.0100142 0.151431 0)
(-0.00921962 0.141491 0)
(-0.00138388 0.0165952 0)
(-0.0249368 0.116624 0)
(-0.0209828 0.184955 0)
(-0.0186054 0.0618013 0)
(-0.0210158 0.191854 0)
(-0.0154848 0.183332 0)
(-0.025618 0.1422 0)
(-0.000259721 0.0103081 0)
(-0.0238652 0.133428 0)
(-0.0076063 0.0552482 0)
(-5.65602e-05 0.00204235 0)
(-0.00791842 0.102871 0)
(-0.0286576 0.184434 0)
(-0.026485 0.137686 0)
(-0.00120033 0.0607014 0)
(-0.020828 0.0827399 0)
(-0.000406204 0.0188987 0)
(-0.00827755 0.0539095 0)
(-9.45499e-06 0.000376146 0)
(-0.0101343 0.104953 0)
(-0.00225568 0.0893215 0)
(-0.00404089 0.132955 0)
(-2.59511e-05 0.00107959 0)
(-0.0212122 0.138841 0)
(-0.00896832 0.153581 0)
(-0.0278446 0.150293 0)
(-0.000125205 0.00265411 0)
(-0.00473355 0.161793 0)
(-2.66332e-05 0.00118301 0)
(-0.00816523 0.18598 0)
(-0.015317 0.170385 0)
(-0.0278695 0.17248 0)
(-0.0261061 0.124121 0)
(-0.0254242 0.147813 0)
(-0.016795 0.181308 0)
(-0.0284742 0.178332 0)
(-0.00103748 0.0517356 0)
(-0.0162931 0.191025 0)
(-0.000160469 0.00489131 0)
(-0.0114807 0.173299 0)
(-0.000181297 0.00720587 0)
(-0.0151311 0.128402 0)
(-0.0215368 0.105713 0)
(-0.0137762 0.0887901 0)
(-0.0283612 0.172512 0)
(-0.0176579 0.145905 0)
(-0.0200093 0.132074 0)
(-0.00089073 0.0409353 0)
(-0.0248547 0.17553 0)
(-0.00270649 0.109721 0)
(-0.0063189 0.0265308 0)
(-0.0193939 0.106727 0)
(-0.0138674 0.141059 0)
(-0.000387629 0.0154508 0)
(-0.00840539 0.137226 0)
(-0.00329593 0.164239 0)
(-0.00184372 0.0972181 0)
(-0.00340325 0.154662 0)
(-0.00278633 0.03107 0)
(-0.0209581 0.121624 0)
(-0.00431009 0.097725 0)
(-0.00210641 0.103328 0)
(-0.0251364 0.187862 0)
(-0.00760578 0.148343 0)
(-0.000347755 0.0138794 0)
(-0.0169369 0.0552968 0)
(-0.00942247 0.193083 0)
(-0.0178808 0.160913 0)
(-0.0101742 0.179923 0)
(-0.0191978 0.18704 0)
(-0.00286963 0.0896197 0)
(-0.000247773 0.00985599 0)
(-0.0274997 0.165677 0)
(-0.00827425 0.13616 0)
(-0.0216926 0.152132 0)
(-0.0203713 0.133309 0)
(-0.0280151 0.168575 0)
(-0.000609602 0.029597 0)
(-0.0222771 0.175706 0)
(-0.00715869 0.154881 0)
(-0.0100557 0.117555 0)
(-0.00523615 0.113519 0)
(-0.0110764 0.076898 0)
(-0.00966759 0.193434 0)
(-0.00951309 0.152607 0)
(-0.0283983 0.173939 0)
(-0.000428711 0.0196537 0)
(-0.0213984 0.107061 0)
(-0.0265864 0.152905 0)
(-0.0171907 0.110246 0)
(-0.0279795 0.16668 0)
(-0.0268742 0.168521 0)
(-4.19872e-05 0.00161196 0)
(-0.00831514 0.168524 0)
(-0.0282453 0.16803 0)
(-0.0082928 0.169312 0)
(-0.0274158 0.1393 0)
(-0.00189205 0.0145174 0)
(-0.00986596 0.0863087 0)
(-0.028088 0.160261 0)
(-0.020367 0.18518 0)
(-0.0120264 0.193144 0)
(-0.00146431 0.0107442 0)
(-0.0140295 0.0496542 0)
(-0.0107464 0.0827577 0)
(-0.0285159 0.178479 0)
(-0.0266977 0.133524 0)
(-0.0158 0.0830311 0)
(-0.00399977 0.114755 0)
(-0.0167407 0.172648 0)
(-0.00972292 0.184248 0)
(-0.0274087 0.168578 0)
(-0.00236636 0.110916 0)
(-0.0100203 0.0396016 0)
(-0.0276068 0.149737 0)
(-0.0198007 0.116023 0)
(-0.00663933 0.0869647 0)
(-0.0263932 0.157965 0)
(-0.0144328 0.188336 0)
(-0.0149989 0.0508933 0)
(-0.00332833 0.0583149 0)
(0.0124517 0.193963 0)
(-0.027954 0.173048 0)
(-0.000429578 0.0180545 0)
(-0.00277549 0.0324889 0)
(-0.00181128 0.18505 0)
(-5.01778e-05 0.00192295 0)
(-3.14911e-05 0.00147068 0)
(-0.00256654 0.0284385 0)
(-0.00221409 0.101906 0)