/*--------------------------------*- C++ -*----------------------------------*\
| =========                 |                                                 |
| \\      /  F ield         | OpenFOAM: The Open Source CFD Toolbox           |
|  \\    /   O peration     | Version:  v2012                                 |
|   \\  /    A nd           | Website:  www.openfoam.com                      |
|    \\/     M anipulation  |                                                 |
\*---------------------------------------------------------------------------*/
FoamFile
{
    version     2.0;
    format      ascii;
    class       surfaceVectorField;
    location    "800";
    object      ddtCorrDdt0(Uf);
}
// * * * * * * * * * * * * * * * * * * * * * * * * * * * * * * * * * * * * * //

dimensions      [0 1 -2 0 0 0 0];


internalField   nonuniform List<vector> 
20537
(
(-0.00337867 0.000492912 7.57206e-20)
(-0.00347142 0.000414449 9.8139e-20)
(-0.00333868 0.000353768 2.54583e-19)
(-0.045697 -0.0374193 1.42789e-18)
(-0.0166242 -0.0185445 2.55022e-18)
(-0.0397296 -0.0539308 3.39589e-18)
(-0.00695555 -0.0109051 7.36646e-20)
(-0.00770994 -0.0107383 9.49328e-20)
(-0.00759192 -0.0115183 -6.87501e-21)
(-0.00362319 0.000600254 2.40883e-19)
(-0.00359566 0.000477492 -5.56463e-20)
(-0.00378809 0.000530682 -1.71702e-19)
(-0.00134485 -0.00780495 -1.18463e-18)
(-0.00148358 -0.00808388 -1.66005e-18)
(-0.00163117 -0.00779924 -2.80377e-18)
(-0.0301023 -0.0278655 -1.18543e-18)
(-0.0221086 -0.0306168 -1.58915e-18)
(-0.0315077 -0.0196519 -6.30531e-18)
(-0.00075687 -0.00107371 -3.66715e-19)
(-0.000773923 -0.00111343 -5.81037e-19)
(-0.000723545 -0.00109872 -7.35745e-19)
(-0.00591083 -0.00614278 -1.94711e-18)
(-0.00560359 -0.00596386 -1.6025e-18)
(-0.00562753 -0.00639899 -8.63079e-19)
(0.00145719 0.00101238 3.08768e-20)
(0.00151473 0.00105234 8.23211e-20)
(0.00152077 0.000985158 -9.47581e-20)
(-0.0192703 -0.00397865 1.46511e-18)
(-0.0178306 -0.00285121 1.31098e-18)
(-0.0173586 -0.00479975 1.74364e-18)
(-0.000566615 0.0140325 -3.14609e-19)
(-0.00362353 0.0143726 -2.87731e-19)
(-0.00339007 0.0102662 -1.25684e-18)
(-0.0117865 -0.0404862 1.4112e-18)
(-0.00692366 -0.0476496 -2.54628e-18)
(-0.00900855 -0.0458361 -4.13772e-18)
(0.0121607 -0.000334617 -3.75198e-18)
(0.00621427 -0.0012903 -8.31045e-18)
(0.0101749 -0.00058886 -6.81968e-18)
(-0.0515409 0.0402142 -6.99781e-18)
(-0.0601228 0.033742 6.02409e-18)
(-0.0413949 0.0425662 6.58499e-18)
(-0.000716558 -0.000123282 6.99326e-21)
(-0.000690305 -0.000116723 2.4495e-19)
(-0.0007022 -0.000147815 1.39324e-19)
(-0.00527309 -0.00185647 -1.99091e-20)
(-0.00535245 -0.00203728 -7.76259e-21)
(-0.00552079 -0.00184467 -1.91509e-21)
(-0.00320409 -0.00276376 -9.87066e-19)
(-0.00319512 -0.00265555 -9.11762e-19)
(-0.00308754 -0.00271279 6.87088e-19)
(-0.00693958 9.77757e-05 2.01581e-19)
(-0.00659658 -0.000243964 3.25171e-19)
(-0.00714354 -0.000336853 7.81817e-19)
(0.00448751 -0.00395732 2.07259e-18)
(0.00524174 -0.00465562 -4.35969e-18)
(0.00479555 -0.00509426 -5.27051e-18)
(0.00140109 0.000972791 -6.6858e-20)
(0.00139169 0.00104244 1.14526e-20)
(-0.00364911 0.000727693 -1.07664e-22)
(-0.00350791 0.000643501 4.5411e-20)
(-0.00629191 -0.0103847 -4.55407e-20)
(-0.00600305 -0.0111526 2.47475e-22)
(0.00107298 -3.53949e-05 1.07918e-20)
(0.00115159 -3.15228e-05 -1.43002e-19)
(0.00127516 -3.37276e-05 1.05243e-19)
(0.00109314 8.85607e-05 -9.5962e-20)
(0.000991292 4.93206e-05 -5.46162e-20)
(0.00114818 8.44226e-05 1.62947e-20)
(0.000981472 -1.86034e-05 -3.95984e-20)
(0.000772281 -2.81682e-05 -3.16262e-20)
(-0.00624232 -0.00592405 -6.05784e-19)
(-0.00628407 -0.006386 -5.89737e-19)
(-0.00184735 -0.00312815 1.93597e-18)
(-0.0017977 -0.00305076 -4.31032e-19)
(-0.00189281 -0.00305724 -6.66417e-19)
(0.000334757 -0.00479718 -2.76114e-18)
(0.000417004 -0.00337868 -1.51346e-17)
(-0.00336051 0.000571619 -1.48689e-19)
(-0.00329511 0.000549239 -4.4946e-19)
(-0.00410576 -0.00100462 -1.11317e-19)
(-0.00409042 -0.00110402 -1.80001e-19)
(-0.00421838 -0.00103886 2.81935e-20)
(-0.0400585 -0.0213454 -1.73712e-18)
(-0.0301097 -0.0367803 -2.25954e-19)
(-0.00333206 -0.00279498 -2.05073e-19)
(-0.00322073 -0.00287337 -5.43829e-19)
(-0.00787984 -0.00999488 3.77826e-19)
(-0.00856862 -0.0105442 9.79348e-20)
(-0.0190492 -0.0465244 3.0385e-18)
(-0.0175274 -0.0485604 -9.80034e-21)
(-0.0190167 -0.049185 -1.41543e-19)
(0.00104272 9.0113e-05 -5.53925e-20)
(0.00110998 0.000133481 8.44007e-20)
(-0.00208172 -0.00584766 -4.77036e-19)
(-0.00210251 -0.00589837 -2.81185e-18)
(-0.00219106 -0.00584078 -9.83082e-18)
(-0.00133068 -0.00576792 -7.10197e-18)
(-0.00187784 -0.00573899 -2.18978e-18)
(-0.00194571 -0.00584076 -5.35705e-18)
(0.00351541 -0.0176301 2.56647e-18)
(0.00501404 -0.0166409 5.48283e-19)
(0.00282963 -0.0161926 -1.78934e-18)
(-0.0208424 -0.00406169 -1.25192e-18)
(-0.0196396 -0.0057551 4.32589e-20)
(-0.0207376 -0.0419379 2.18293e-19)
(-0.0223333 -0.0431687 -2.8908e-20)
(-0.00195717 0.000557859 9.48615e-20)
(-0.00200151 0.000603313 2.20509e-19)
(-0.00202413 0.000543908 -2.5337e-19)
(0.000774209 -0.00102274 1.85959e-20)
(0.000821341 -0.000977796 -1.34751e-20)
(0.000761953 -0.000952234 -4.74928e-21)
(-0.000749749 -0.00503164 -8.57892e-19)
(-0.00142154 -0.00485609 3.7585e-18)
(-0.0018727 -0.00488765 1.91038e-19)
(-0.00742539 0.0119593 4.69369e-20)
(-0.00793246 0.00305467 -1.01486e-19)
(-0.00777553 0.00919913 -1.9491e-19)
(-0.00627786 0.0201481 -8.44889e-20)
(-0.00623941 0.0147324 7.38374e-19)
(0.00722744 0.00739394 3.2472e-18)
(0.0004355 0.00468896 3.27876e-18)
(0.000577036 0.010148 3.99567e-18)
(0.00240374 -0.0119583 1.26552e-19)
(-0.00152439 -0.00222712 -4.79168e-19)
(0.000705188 -0.00227734 -1.07543e-18)
(-0.0225808 -0.0686039 -5.53897e-18)
(-0.0279858 -0.0523898 5.89885e-18)
(-0.0400687 -0.0861787 1.51485e-18)
(-0.00189572 -0.003203 9.94351e-19)
(-0.00180144 -0.00319474 2.28655e-18)
(-0.00334081 0.0121499 1.63459e-18)
(-0.00204871 0.0101832 9.24471e-19)
(-0.00502905 0.0094233 -1.75205e-19)
(-0.00145782 -0.00604891 1.25082e-18)
(-0.0014201 -0.00601862 -4.91052e-18)
(-0.00147405 -0.00599268 -2.82225e-18)
(-0.000419953 -0.00555831 1.64258e-18)
(-0.000584547 -0.00561454 5.90595e-18)
(-0.000557519 -0.00537336 4.60074e-18)
(-0.000128099 0.00112197 2.35618e-18)
(-9.2986e-05 0.000558411 -4.72917e-18)
(-0.000357252 0.000486829 -1.67408e-19)
(-0.00075316 -8.03187e-05 -3.3353e-19)
(-0.000773946 -6.68991e-05 -2.21467e-19)
(-0.000769227 -9.94265e-05 -4.9801e-19)
(-0.000996146 4.02001e-05 -9.10031e-20)
(-0.0010122 3.3959e-05 1.50025e-20)
(-0.00100179 5.26973e-05 4.00559e-20)
(0.000725489 -0.00106883 -2.65054e-20)
(0.000791473 -0.00109704 -6.736e-22)
(0.00177144 -2.72732e-05 4.61069e-20)
(0.00180687 -1.71752e-05 1.03284e-20)
(0.00172587 -2.67052e-05 1.45069e-20)
(-0.00246855 0.00422066 3.21806e-18)
(-0.00287064 0.00576904 -6.03015e-19)
(-0.00321111 0.00464838 -1.523e-17)
(-0.00398087 -0.000963198 1.98393e-19)
(-0.00410857 -0.000889106 -3.10056e-19)
(-0.00107369 -0.00121595 -1.85754e-19)
(-0.00103966 -0.00117443 -7.0595e-19)
(-0.00101606 -0.00121606 -1.02342e-18)
(0.00368476 -0.0185585 4.90405e-19)
(0.00313413 -0.0188276 -3.0124e-19)
(0.0713613 0.0111751 7.26461e-18)
(0.0660617 0.0203661 1.01329e-17)
(0.0660129 0.0181823 1.65639e-17)
(-0.0262102 0.0150847 -2.22759e-18)
(-0.024441 0.0219379 1.4914e-19)
(-0.0206645 0.0163672 -3.94249e-21)
(-0.000733049 -0.00746572 2.01151e-21)
(-0.000762339 -0.00772391 5.15812e-19)
(-0.000502397 -0.00763049 2.87829e-19)
(0.0461043 -0.00811974 2.41112e-19)
(0.0444541 -0.0168994 4.58407e-19)
(0.035349 -0.0111928 1.14334e-18)
(-0.00333507 -0.000694343 -4.4713e-19)
(-0.00368382 -0.000554262 -5.20391e-19)
(-0.00373962 -0.00107502 -4.12643e-19)
(-0.00161285 -0.00588397 -1.46963e-19)
(-0.00140363 -0.00586726 1.60339e-18)
(0.0126941 -0.0302925 -4.9949e-19)
(0.00744377 -0.0213302 1.91359e-18)
(-0.00215843 -0.00495781 -1.39877e-18)
(-0.00226634 -0.0049675 -1.93407e-19)
(-0.00220269 -0.00485877 -1.45005e-18)
(-0.00659473 0.000470808 -6.84767e-20)
(-0.00715971 0.000599388 -1.152e-19)
(0.0128986 -0.00255529 -1.90091e-18)
(0.0126582 -0.00258017 1.32551e-18)
(0.0115441 -0.0023114 -6.56859e-18)
(-0.00527186 -0.00594431 3.02006e-18)
(-0.00533023 -0.00600781 -2.37974e-18)
(-0.00331189 -0.00594014 -1.24025e-18)
(-0.0679089 -0.0579573 1.47493e-18)
(-0.0507375 -0.0225597 -3.29133e-18)
(-0.000736165 -0.000103645 1.18005e-19)
(-0.000722753 -6.61738e-05 -5.61766e-20)
(-0.000917691 0.000105181 -9.5729e-20)
(-0.000940572 0.000108518 -2.35591e-21)
(-0.000918616 0.000129112 -8.12919e-21)
(0.00181992 0.00155465 -4.892e-20)
(0.0018814 0.00150751 2.08624e-20)
(0.00179966 0.00147396 -3.88326e-20)
(-0.00579815 -0.0101614 4.62898e-19)
(-0.00629474 -0.0100512 -7.45482e-19)
(0.00967615 -0.00232039 1.17152e-18)
(0.0103587 -0.00225758 -6.45993e-18)
(0.00939009 -0.00228859 1.10619e-18)
(-0.00294878 -0.00619558 -4.38113e-18)
(-0.00283599 -0.00631315 2.47351e-18)
(-0.00300947 -0.006386 -6.78211e-18)
(0.0130505 -0.00263915 -1.30155e-18)
(0.0120629 -0.00239582 5.43767e-19)
(-0.00144886 -0.00155732 -2.86371e-19)
(-0.00147285 -0.00150337 1.16691e-19)
(-0.00139888 -0.0014997 5.96277e-19)
(-0.0179614 0.0208083 4.34557e-18)
(-0.0106327 0.0163427 3.85784e-20)
(-0.022478 0.0202177 -3.2917e-19)
(-0.00123494 -0.000450856 -2.90323e-19)
(-0.00127538 -0.000469684 -2.96788e-19)
(-0.00126579 -0.000432771 2.76036e-19)
(0.000750977 -0.00149467 2.99084e-18)
(-0.00279311 -0.00303095 -6.36888e-18)
(0.000473289 -0.00339172 -6.12084e-18)
(-0.0265713 0.0099425 2.70377e-18)
(-0.0319846 0.0137933 -1.69914e-18)
(-0.0169169 -0.0339042 -1.62797e-18)
(-0.0143472 -0.0350586 3.53711e-18)
(-0.0442381 0.0108287 8.01454e-19)
(-0.043352 0.00233962 1.10833e-18)
(-0.0412837 0.00245974 -1.80885e-19)
(-0.018996 0.0687708 2.12347e-18)
(-0.0171979 0.0619332 -5.84964e-20)
(-0.0243548 0.0596553 -1.25239e-18)
(-0.0025943 -0.00323717 -5.03017e-19)
(-0.00270147 -0.00321693 -1.22995e-18)
(-0.00267614 -0.00334478 -8.17223e-19)
(0.00267005 -0.000544755 -9.19181e-20)
(0.00263658 -0.000501055 -1.14254e-20)
(0.00261419 -0.000535832 -7.15055e-20)
(-0.0020276 -0.00584253 6.7015e-18)
(-0.00207089 -0.00577314 8.02707e-18)
(0.0153076 -0.00851007 5.05862e-20)
(0.021813 -0.00990538 1.20623e-18)
(0.0159664 -0.0134217 3.48295e-21)
(0.0122673 -0.0347459 2.69768e-19)
(-0.00275117 -0.00382017 -7.24839e-19)
(-0.00284913 -0.00386986 2.50867e-21)
(-0.00275764 -0.00394668 4.6244e-19)
(-0.00249045 -0.00317395 9.25231e-19)
(-0.00247366 -0.00329259 3.11901e-21)
(0.00151242 -1.45569e-05 -1.13347e-19)
(0.00151942 -2.14732e-05 1.07777e-20)
(0.00166364 -2.57399e-05 -6.19898e-21)
(-0.00103626 -0.00781541 2.54452e-18)
(-0.00122969 -0.00756013 -8.25431e-19)
(0.0134739 0.00727471 1.18817e-19)
(0.0119596 0.00794464 4.28467e-18)
(0.0118488 0.00645053 -1.71053e-18)
(-0.00554596 0.0145124 3.60896e-19)
(-0.00134551 0.0146562 4.22243e-20)
(0.0011713 -9.33876e-06 -1.64863e-19)
(0.00149179 -1.7756e-05 -1.18085e-19)
(-0.01046 0.0424191 -5.3931e-18)
(-0.0116252 0.0411202 -1.15133e-17)
(-0.0120141 0.0447015 9.6313e-20)
(-0.00214737 -0.0061312 -9.9507e-19)
(-0.00206006 -0.00605633 -2.48908e-18)
(-0.00216247 -0.0060202 5.49362e-19)
(-0.00310539 0.000361689 -7.84852e-20)
(-0.00318544 0.000347466 1.8093e-19)
(-0.00317067 0.000413226 5.45917e-20)
(-0.000925014 -0.00305296 -5.11584e-19)
(-0.000905983 -0.00312487 7.49172e-19)
(0.000211675 -6.242e-05 7.12035e-21)
(0.000212502 -9.92663e-05 -1.72804e-20)
(0.00017207 -6.50479e-05 -2.19627e-20)
(-0.0496997 0.0299817 -2.25741e-19)
(-0.0500291 0.042004 -1.94543e-19)
(-0.0400519 0.0362485 4.80369e-19)
(-0.00182526 -0.00604382 7.64403e-19)
(-0.00187385 -0.00611198 2.84135e-18)
(-0.00178659 -0.00612955 -5.21667e-19)
(0.000307281 -0.000914635 2.26554e-20)
(0.000367762 -0.000879765 -1.33053e-20)
(0.000307484 -0.000836069 -2.06301e-20)
(-0.00431872 -0.00592722 7.86402e-19)
(0.00137499 -0.00560275 -8.43358e-19)
(-0.0090551 -0.0413342 -4.10422e-18)
(-0.0167395 -0.0333561 -4.8052e-18)
(0.00137937 2.96777e-05 1.0886e-20)
(0.00114995 6.87399e-06 1.27878e-19)
(0.00139219 2.13172e-05 1.01646e-19)
(0.00269628 -0.00059643 4.6403e-20)
(0.00272677 -0.000554594 -3.69475e-21)
(0.0105452 -0.00826522 -6.20851e-19)
(0.0142119 -0.00500261 6.5587e-19)
(0.000758123 3.31331e-05 -7.01826e-20)
(0.000783273 2.07842e-05 5.25327e-19)
(0.00144755 4.92743e-05 9.18229e-20)
(0.00134098 2.93641e-05 7.04611e-19)
(-0.0152806 -0.154805 -7.37035e-18)
(-0.0473499 -0.191482 -5.00589e-18)
(0.0149114 0.00590303 -3.13218e-18)
(0.0155012 0.00720105 -5.73755e-18)
(0.000640029 -0.000530489 3.3564e-21)
(0.000674453 -0.000560464 -2.90652e-20)
(0.00062035 -0.000581605 -2.5352e-20)
(-0.000153782 0.000104666 3.37967e-20)
(-0.000110008 9.99144e-05 -3.09931e-19)
(-0.000194337 6.0816e-05 4.81388e-20)
(-0.000935153 5.90462e-05 2.10483e-19)
(-0.0009309 5.22207e-05 3.0225e-19)
(-0.000949105 4.37666e-05 -3.45565e-19)
(0.000273529 -0.00509995 1.20886e-18)
(-0.000242406 -0.0064076 -1.49993e-17)
(-0.0010259 -0.00306793 2.81329e-18)
(-0.000965728 -0.00298124 2.17319e-18)
(0.0138934 -0.0002092 1.61306e-18)
(0.0159163 0.000817306 -1.91527e-18)
(-0.0060113 -0.0143027 -1.81293e-20)
(-0.0185885 -0.0799449 -2.6439e-18)
(-0.0102552 -0.056771 3.51739e-18)
(0.00257335 -0.000817865 5.30939e-20)
(0.00253987 -0.000864496 -2.54326e-19)
(0.00261547 -0.000861473 2.32613e-19)
(-0.0094502 -0.089389 -2.20858e-18)
(-0.029609 -0.0998013 -5.88973e-18)
(-0.0025388 -0.00619431 -7.22825e-19)
(-0.00242536 -0.00616563 -1.85239e-18)
(-0.00245684 -0.00632102 3.19049e-18)
(-0.00362587 0.000875386 2.86939e-19)
(-0.00381995 0.000837638 -4.10731e-19)
(0.00182774 -0.00959809 1.6863e-18)
(0.00153087 -0.00930752 1.24898e-18)
(0.00199006 -0.00898871 1.47104e-18)
(-0.00190172 0.000574918 3.31677e-20)
(-0.00191561 0.000521186 2.99409e-20)
(0.000332163 0.000708058 -8.37941e-21)
(0.000289551 0.000746562 -2.0279e-20)
(0.000267839 0.000691863 -4.85174e-22)
(0.0130653 -0.00266329 -1.75835e-18)
(0.013266 -0.00278987 1.51361e-17)
(-0.00120189 -0.000464152 4.80834e-21)
(-0.00119717 -0.000426695 1.08132e-19)
(0.00815066 -0.113658 -2.1846e-19)
(0.000184803 0.000286231 -3.27938e-21)
(0.000234221 0.00028074 8.81882e-21)
(0.000207507 0.000232696 8.59855e-21)
(0.000604618 -0.000493898 1.22729e-20)
(0.000664632 -0.000471311 1.97185e-20)
(-0.00512445 -0.0059424 7.59133e-18)
(-0.00486681 -0.0059385 -1.70314e-18)
(-0.003148 -0.00593496 4.64555e-18)
(0.0277317 -0.00608202 2.5491e-18)
(0.0127234 -0.000551039 9.15917e-19)
(0.0175113 -0.0096087 -3.62272e-19)
(-0.0866348 -0.0588368 1.06541e-18)
(-0.0914945 -0.0669046 1.82628e-18)
(-0.0915789 -0.0656836 3.60134e-18)
(-0.00913155 0.0394997 1.1241e-18)
(-0.00757407 0.0438679 2.23889e-18)
(-0.000970163 4.93014e-05 -1.99879e-19)
(-0.000983195 2.6596e-05 3.19812e-20)
(0.00413869 0.00345451 -3.69145e-20)
(0.00438275 0.00393363 2.26687e-19)
(0.00470047 0.00336003 -2.91673e-19)
(0.00159779 -0.00118447 -1.73759e-20)
(0.00160327 -0.0011254 1.46267e-19)
(0.00165127 -0.00117251 8.17387e-20)
(-0.00301228 -0.00183003 2.94455e-19)
(-0.00306396 -0.00190357 -1.55356e-19)
(-0.00294841 -0.00187673 -4.43432e-19)
(-0.0059197 -0.00380632 6.50977e-19)
(-0.00700586 -0.00456289 -2.16312e-19)
(0.00242037 -0.00863197 -3.0257e-19)
(0.00130907 -0.00894499 1.22553e-19)
(0.00169192 -0.00769796 -7.20146e-19)
(0.00238788 -0.0100825 1.56938e-18)
(0.00162787 -0.0102817 -1.02675e-19)
(-0.000736658 -0.00102401 8.22809e-19)
(-0.000790863 -0.00103924 -4.05227e-19)
(-0.00383837 0.0239077 3.04125e-20)
(-0.00440504 0.0280654 7.64164e-20)
(-0.00141142 -0.00592217 3.01602e-19)
(-0.00145666 -0.00592856 -1.87371e-19)
(-0.000906112 6.19903e-05 -2.26149e-19)
(-0.000881752 7.30989e-05 4.0091e-20)
(-0.000889892 8.48813e-05 -4.32131e-19)
(-0.038649 0.0420019 -3.85704e-18)
(-0.0560792 0.0323514 9.52689e-21)
(0.00172288 -2.29279e-05 -5.57567e-20)
(0.00180644 -2.95571e-05 -1.49091e-19)
(-0.00214781 -0.00226921 -3.59598e-19)
(-0.0021136 -0.00233556 2.53829e-19)
(-0.00206469 -0.00224822 -6.85491e-19)
(-0.00308836 -0.00178716 1.10593e-20)
(-0.00297793 -0.00175368 9.5527e-20)
(-0.00058027 0.0014441 -7.90954e-20)
(-0.000518254 0.00142069 -8.68802e-20)
(-0.000517069 0.0014855 -1.50004e-19)
(-0.00361686 -0.00102588 -7.29547e-20)
(-0.00351883 -0.00100269 -4.00443e-21)
(-0.00354545 -0.00108304 -3.31988e-20)
(-0.000274906 -0.00538969 -3.86462e-18)
(-0.000253327 -0.00565615 -3.43927e-19)
(-0.00151033 -0.00608522 3.69512e-19)
(-0.00144971 -0.00612697 1.22656e-18)
(-0.000122106 -0.00208432 -8.31369e-21)
(-0.000144373 -0.00197546 1.50028e-19)
(-0.000238778 -0.0020507 2.9491e-21)
(-0.00198161 -0.00398696 2.8061e-19)
(-0.00205226 -0.00404336 4.93993e-20)
(-0.001971 -0.00407838 1.57915e-18)
(-0.00249324 0.00294048 7.50883e-19)
(-0.00173313 0.00378081 5.64818e-18)
(0.000367826 0.000669919 -6.4688e-20)
(0.000390636 0.000723833 -6.37061e-20)
(-0.00433829 -0.00185854 -3.83499e-19)
(-0.00426009 -0.00177732 -5.60191e-19)
(-0.00432706 -0.00176651 5.5088e-19)
(0.0012836 -0.00109093 5.40216e-21)
(0.00134463 -0.00108989 3.40447e-20)
(0.00131429 -0.00103593 2.52627e-20)
(0.00344279 -0.00815793 1.03322e-19)
(0.00337506 -0.00954871 6.82459e-20)
(-0.00210722 -0.00505545 -5.11683e-19)
(-0.00205796 -0.00494555 -1.07786e-18)
(-0.00347856 0.000878923 3.96252e-19)
(-0.00358476 0.000998578 -1.64171e-19)
(-0.000559899 0.016383 -2.71299e-18)
(-0.00984138 0.0154666 -2.17913e-17)
(-0.000324429 0.0130524 -1.41143e-17)
(0.00808964 -0.00235799 5.83397e-18)
(0.00990021 -0.00237409 1.2689e-18)
(0.00169584 0.000246918 7.41847e-20)
(0.00169031 0.000274261 1.42605e-19)
(0.00172417 0.000264194 2.69381e-21)
(-0.000644096 0.00146818 1.25501e-19)
(-0.000638199 0.00140419 -5.73775e-20)
(-0.0825879 -0.0567362 -5.28382e-19)
(-0.0896211 -0.0524744 -1.21914e-18)
(0.000403724 0.000630818 -8.58167e-20)
(0.000346243 0.00061674 1.7274e-20)
(-0.0272238 -0.0346468 1.26644e-18)
(-0.0186268 -0.0169933 8.61329e-19)
(-0.00269865 -0.00626092 5.23726e-18)
(-0.00264687 -0.00608405 -1.78861e-18)
(0.00254156 0.00520156 -1.77251e-19)
(0.00209823 0.00539912 -1.67299e-19)
(0.00254408 0.00580126 4.95207e-20)
(0.00463914 -0.00319092 7.45265e-18)
(0.00363605 -0.00372451 7.40534e-18)
(0.000299822 -0.00105803 -6.10996e-21)
(0.000232625 -0.00109357 -3.3001e-21)
(0.000299867 -0.00114335 -8.99157e-21)
(-0.00347246 -0.00294136 -5.46908e-19)
(-0.00345126 -0.0028337 8.67088e-19)
(-0.00357422 -0.00287505 1.40828e-19)
(-0.00540191 -0.00586076 1.05717e-17)
(-0.00112795 -0.000448232 -6.22913e-19)
(-0.00109465 -0.000428966 -1.70762e-19)
(-0.00112695 -0.000419433 -2.47285e-19)
(-0.00594219 -0.0117857 5.86203e-19)
(-0.00533044 -0.0113083 1.3361e-19)
(-0.000253848 -0.000430226 -2.99371e-21)
(-0.000243555 -0.000358543 -4.88285e-20)
(-0.000319079 -0.000404588 -3.19626e-21)
(0.00138066 -4.72295e-05 5.32306e-20)
(0.00144428 -4.07247e-05 -9.01503e-21)
(0.00156781 -3.23304e-05 3.52134e-21)
(-0.00289894 -0.000787707 -2.56062e-19)
(-0.00311767 -0.000361406 1.31561e-19)
(-0.000921257 7.92412e-05 -1.83663e-19)
(-0.000945382 6.27045e-05 -4.04288e-20)
(-0.00108538 -0.00863655 -1.2927e-18)
(-0.00121791 -0.00901115 2.95962e-18)
(-0.000859673 -0.00896697 -9.32666e-19)
(-0.0084498 0.0110517 -9.53921e-19)
(-0.00999817 0.0128057 -1.33597e-18)
(-0.0104973 0.0102975 -1.13594e-18)
(0.00367101 -0.0205492 4.97064e-19)
(-0.000437605 0.00143676 6.08036e-18)
(-9.70627e-05 0.0017042 5.77379e-18)
(0.00272044 -0.000637145 3.42903e-21)
(0.00277744 -0.000654266 5.03249e-20)
(0.00274097 -0.000681578 4.39246e-20)
(-0.00271952 -0.00501957 1.06535e-18)
(-0.00260385 -0.00499911 1.62943e-19)
(-0.00265928 -0.00490115 2.12945e-18)
(0.0734905 0.000412811 -1.24752e-17)
(0.0678813 0.00518521 -7.10015e-18)
(-0.00219044 -0.00212922 -6.60666e-19)
(-0.00217706 -0.00220205 5.94692e-19)
(-0.00211215 -0.00212649 2.91972e-19)
(0.0039138 0.00308384 -2.12978e-20)
(0.00362065 0.0034413 -2.43903e-19)
(-0.0338189 -0.00306107 -9.17852e-19)
(-0.0396001 0.0120622 -8.90295e-19)
(-0.0372065 -0.00521094 -2.66816e-19)
(0.0030469 0.00495102 -3.16579e-20)
(0.00258015 0.00463942 -1.24639e-19)
(0.00175154 0.00159757 -4.38563e-20)
(0.00184172 0.00163735 -2.29209e-20)
(0.00260956 -0.000772406 9.9027e-21)
(0.00253188 -0.000781006 -6.95633e-20)
(-0.0098468 0.0368061 5.16258e-18)
(-0.024386 0.0437531 4.23399e-18)
(-0.0256308 0.0320807 -3.35816e-18)
(-0.000431786 3.20939e-05 -2.4438e-20)
(-0.000454109 5.8829e-05 5.40374e-21)
(-0.000394814 3.20111e-05 3.66353e-19)
(-0.00151028 -0.000132245 -5.19837e-20)
(-0.00148393 -0.000111188 7.95023e-20)
(-0.00152857 -0.000106082 2.19036e-19)
(-0.0122797 0.00480664 2.4806e-19)
(-0.0108893 0.00459401 -7.15724e-19)
(-0.0116406 0.00352387 8.40527e-19)
(-0.0011268 -0.000478661 -2.64714e-19)
(-0.00116244 -0.000471471 -1.91876e-19)
(0.0806586 -0.0383486 -9.45233e-19)
(0.0800188 -0.0390709 4.75374e-19)
(0.0784744 -0.0416265 -9.07173e-19)
(-0.00304941 -0.0029399 1.52512e-18)
(-0.00297185 -0.00285105 6.11087e-19)
(-0.0029201 -0.00295487 4.88107e-19)
(0.0133655 -0.00274059 -1.78097e-18)
(0.0131736 -0.00270626 5.31602e-18)
(0.0134564 -0.00278178 9.48236e-18)
(-1.69122e-05 -0.00146539 2.16309e-20)
(-3.23639e-05 -0.00155162 2.30745e-20)
(6.18652e-05 -0.00151174 2.58043e-20)
(0.0148585 -0.00343897 3.29261e-18)
(0.0150899 -0.00333019 -5.46192e-19)
(0.0149903 -0.00329619 4.40849e-18)
(-0.0030316 0.000326515 7.47867e-20)
(-0.00302714 0.000389196 -4.22788e-19)
(-0.00752551 -0.0118694 -6.69029e-20)
(-0.0168766 0.00567864 5.02052e-19)
(-0.00495003 0.0127252 -5.0189e-19)
(2.92468e-05 -0.00104221 -8.88417e-21)
(0.00010731 -0.00100287 6.02842e-21)
(3.77421e-05 -0.000960956 -6.03455e-21)
(0.00147519 -0.0011922 9.72623e-21)
(0.00145471 -0.00125929 -2.64672e-20)
(0.0014129 -0.00119596 7.4053e-20)
(0.00820441 0.00598835 -3.61748e-21)
(0.00664433 0.0082274 1.62962e-19)
(0.00550636 0.00582321 6.25271e-19)
(-0.0293178 0.00116732 2.00417e-19)
(-0.0261468 0.00475623 -2.8719e-19)
(-0.0225396 0.000635841 1.58968e-18)
(0.0111872 0.00636897 -5.26223e-18)
(0.0133729 0.011729 9.8179e-19)
(-0.000819891 -0.000245153 -7.03176e-20)
(-0.000800797 -0.000223759 -4.30152e-19)
(-0.000827703 -0.000223706 -1.17485e-19)
(0.0132982 -0.00271061 -5.96804e-18)
(0.0135814 -0.00277078 -1.22756e-17)
(-0.00315425 -0.00293656 -5.36456e-19)
(-0.00311789 -0.00302467 -1.88495e-19)
(-0.00149584 -0.00160553 1.77335e-19)
(-0.0014192 -0.00160476 -1.76939e-19)
(0.0144452 -0.000501479 -5.94686e-18)
(0.014325 -0.000263653 3.824e-18)
(0.014263 -0.000589649 -4.59906e-18)
(0.000387676 -0.00663608 1.27492e-18)
(0.000693066 -0.00671018 2.01038e-18)
(0.000611186 -0.00632432 -6.90025e-19)
(0.015614 -0.00360311 -6.94794e-19)
(0.0155576 -0.00347575 1.37433e-18)
(0.0156235 -0.00354874 -4.03886e-18)
(0.00121874 -2.27465e-05 1.60579e-19)
(0.00121728 -2.46966e-05 -1.9821e-19)
(0.000859422 -1.10196e-05 -3.74061e-20)
(-0.00296115 -0.00420656 7.25955e-19)
(-0.0029548 -0.00433289 2.8424e-19)
(-0.00308025 -0.00428408 -5.21033e-19)
(0.0002457 -5.1631e-05 7.65211e-20)
(0.000173355 -2.82107e-05 3.69839e-20)
(0.00206373 0.00358033 -1.14326e-18)
(0.00242286 0.00293406 -3.21113e-18)
(0.00170417 0.00274764 -4.4102e-18)
(-4.02098e-05 -0.00108328 -9.0112e-21)
(3.12843e-05 -0.0011302 -9.15867e-21)
(-0.00656764 -0.00570468 2.7064e-19)
(-0.0062084 -0.00552671 2.26636e-19)
(0.0481536 -0.0421768 -2.06887e-18)
(0.0489369 -0.0395152 -3.13503e-18)
(0.0631176 -0.0445752 -4.27105e-18)
(0.00166836 0.000229751 -2.45732e-20)
(0.0017021 0.000221315 1.01499e-19)
(0.00266481 -0.000617087 -4.94454e-20)
(-0.00153438 -0.00588779 5.53337e-19)
(-0.0015427 -0.00593055 1.80329e-18)
(-0.00156504 -0.00590215 1.76714e-18)
(-0.00712665 -0.0089779 3.03217e-19)
(-0.00703369 -0.00757183 -7.36911e-19)
(-0.00851608 -0.00780142 -1.48015e-18)
(0.0739523 -0.0377148 2.57e-18)
(0.0781234 -0.0362488 -9.52167e-19)
(0.0565483 -0.00191945 -5.95805e-19)
(0.0430419 0.000186175 -2.06546e-18)
(0.00153344 -0.00119105 4.55372e-20)
(0.00157923 -0.00124674 -2.1714e-19)
(-0.0014948 -0.000159023 -2.35779e-20)
(-0.00154558 -0.000154527 -5.21297e-20)
(-0.04691 -0.00550537 3.52145e-19)
(-0.0477543 -0.0107604 4.96e-19)
(0.0212599 0.0316565 -3.18012e-19)
(0.0133059 0.0351866 -4.09169e-19)
(0.0191845 0.0244297 9.8257e-19)
(-6.30898e-05 -0.00323908 4.13502e-19)
(-2.29411e-05 -0.00302063 -1.0831e-20)
(0.000145392 -0.0031687 2.66938e-20)
(-0.0136099 0.0047129 8.97287e-19)
(-0.0128599 0.00613047 -7.17285e-19)
(0.000191956 -0.000152374 9.36446e-21)
(0.000250836 -0.00013706 1.33475e-20)
(0.0150989 -0.00322059 2.62695e-18)
(0.0148759 -0.00317026 -1.25298e-18)
(0.0151503 -0.00325207 -6.32149e-18)
(-0.0022229 -0.00621445 1.7078e-18)
(-0.00210043 -0.00625362 -1.64961e-18)
(-0.0107094 -0.0363571 -9.34279e-20)
(-0.0132279 -0.0423662 -3.95629e-19)
(-0.00306416 -0.0397954 -1.93306e-18)
(-0.00315061 -0.00174902 2.77886e-19)
(-0.00321998 -0.0017042 2.08609e-19)
(-0.00311415 -0.00167226 3.4953e-19)
(-0.00390771 -0.00224769 -7.40819e-20)
(-0.00378852 -0.00222326 3.49698e-19)
(-0.00389723 -0.00216074 8.72758e-20)
(-0.0113935 0.00485352 1.64616e-20)
(-0.0121921 0.00235886 -4.98262e-19)
(-0.00983699 0.00322379 1.15464e-18)
(0.0290542 0.0247655 2.5047e-19)
(0.0186359 0.0417169 -2.08245e-19)
(-0.00213502 -0.00123366 3.42671e-19)
(-0.00219126 -0.00127217 3.80416e-19)
(-0.00219169 -0.00121434 2.37125e-20)
(-0.00319277 -0.00181893 -5.85785e-19)
(-0.0016466 -0.00571202 -3.33737e-18)
(-0.00160709 -0.00573039 -1.01143e-18)
(-0.0016597 -0.00576371 9.48401e-19)
(-0.0317682 0.0975809 2.82489e-18)
(-0.0446556 0.110578 1.64034e-18)
(-0.0420664 0.097159 -3.42304e-18)
(-0.0062427 0.0116909 6.11393e-19)
(-0.00690331 0.00935892 1.63249e-18)
(-0.00533501 -0.00586507 -9.74674e-19)
(-0.00476994 -0.00585945 -5.37858e-18)
(0.00490595 -0.00247426 1.44827e-18)
(0.00346813 -0.00182751 1.43628e-17)
(0.00350368 -0.00210092 2.24991e-18)
(-0.000710334 -0.000491519 1.65923e-19)
(-0.000693542 -0.000458398 2.2163e-19)
(-0.000730155 -0.000465334 -4.77101e-19)
(0.00148944 -0.00113366 -9.54796e-21)
(-0.00627554 0.000708633 5.86418e-20)
(-0.00624143 0.0012074 -7.53775e-20)
(-0.00581702 0.000966429 2.08795e-19)
(-0.0184766 -0.0256687 5.30226e-19)
(-0.030468 -0.058285 -2.84213e-18)
(-0.0391971 -0.0552902 2.81024e-18)
(0.00216142 -0.000769398 -1.17134e-19)
(0.00211703 -0.000785404 -3.41545e-20)
(0.00216295 -0.000815319 2.34247e-20)
(0.0123113 -0.00380173 -3.04099e-18)
(0.0127872 -0.00492034 -3.15277e-18)
(0.0191305 -0.00314505 -3.11972e-18)
(-0.00225989 -0.00214207 -1.40497e-18)
(-0.00221511 -0.00206086 2.51934e-19)
(-0.002083 -0.00125237 5.2296e-20)
(-0.00208236 -0.00119476 -3.15765e-19)
(-0.00264608 -0.00380685 -2.76555e-18)
(-0.00272796 -0.00374706 -8.48394e-19)
(0.0146251 -0.000477636 -9.10418e-19)
(0.0144797 -0.000812142 -6.06056e-19)
(0.00211621 -0.000904914 5.81764e-20)
(0.00226359 -0.000924515 4.52521e-20)
(0.00216478 -0.00112334 6.52543e-21)
(-0.0122846 0.00738866 -1.6902e-18)
(-0.00958843 0.00694984 -3.21457e-19)
(-0.00223436 -0.00228324 1.61907e-19)
(-0.0236669 -0.0812198 -1.58561e-19)
(-0.0126244 -0.0796378 -1.14797e-18)
(-0.0164749 -0.0991214 -5.79904e-19)
(-0.00306039 -0.00607692 -1.77229e-18)
(-0.00289563 -0.00602856 1.36999e-18)
(-0.00519113 -0.00166485 -2.26553e-19)
(-0.00506038 -0.00185484 2.50786e-20)
(0.00025008 0.000783479 -5.45887e-20)
(0.000315192 0.000800611 7.92619e-21)
(-0.0156748 0.0214016 -1.28462e-19)
(-0.0263276 0.0259516 -2.59033e-19)
(0.00429459 -0.00156218 4.02788e-20)
(0.0046151 -0.0012734 3.91788e-20)
(0.00413265 -0.00116488 6.81151e-20)
(0.0158827 -0.00416764 1.24185e-17)
(0.0160807 -0.00402125 1.6691e-19)
(0.0160966 -0.00406808 -5.49756e-19)
(0.00177162 0.0121116 5.2653e-20)
(0.00234522 0.0163169 1.64995e-19)
(-0.000115042 -0.00343812 -6.88422e-21)
(-0.000253451 -0.00327515 -1.00741e-20)
(-0.000161603 -0.00135674 -6.29482e-21)
(-8.86508e-05 -0.00141384 3.32225e-20)
(-0.000192957 -0.00144289 -8.86762e-21)
(0.000131653 -7.25657e-05 -2.6474e-20)
(8.46192e-05 -8.08269e-05 -3.61126e-21)
(0.000106403 -0.000119749 -3.33317e-20)
(-0.00162342 -0.00566006 -3.15059e-18)
(-0.00168525 -0.00568481 -1.45498e-18)
(-0.000390198 0.00909644 2.69442e-19)
(0.00492103 -0.00577761 8.65898e-20)
(-0.0249236 -0.0127406 -8.2005e-19)
(-0.0143 0.0292325 -8.02852e-19)
(-0.0198314 0.0102591 -4.78668e-19)
(0.00149347 0.00131783 1.63882e-19)
(0.0015743 0.00134468 -7.10649e-21)
(0.00150052 0.00139684 2.40153e-19)
(-0.000529524 -0.00023865 -3.62826e-20)
(-0.000559353 -0.00024507 2.79623e-19)
(-0.000537657 -0.00026482 4.01575e-19)
(-0.0234918 -0.073847 -4.16726e-20)
(-0.025691 -0.0632838 -3.57644e-18)
(0.00420653 0.0110909 -2.68235e-21)
(0.00316801 0.0113499 1.26529e-18)
(0.00994622 0.00689081 1.46507e-19)
(0.00281675 -0.0104925 7.10064e-19)
(0.00298581 -0.00971051 1.42293e-18)
(-0.00387631 -0.000929051 4.77272e-20)
(-0.00389026 -0.00102112 1.43921e-19)
(-0.00109833 -0.00126549 5.35243e-20)
(-0.001125 -0.00122094 2.10154e-19)
(-0.00237315 -0.00518727 1.04307e-18)
(-0.00248099 -0.00520237 5.87168e-19)
(-0.00241521 -0.00530974 -2.41425e-18)
(-0.000955861 0.0128805 1.33585e-19)
(0.00618908 0.00829561 -1.84525e-19)
(0.0081231 -0.0040856 2.03895e-18)
(0.012095 -0.00256141 3.5538e-18)
(-0.00421959 -0.00171612 6.00247e-19)
(-0.00420539 -0.0017037 5.91752e-20)
(-0.00419182 -0.00170591 1.11751e-19)
(-0.0179652 -0.0291416 -4.37811e-18)
(-0.0215186 -0.0265338 -5.12493e-18)
(0.000248984 0.000881284 -8.29648e-20)
(0.000190134 0.000867352 3.37743e-21)
(0.000221001 0.000822287 -1.15522e-20)
(0.0150587 -0.00319488 4.3248e-18)
(0.0152509 -0.00329045 4.20679e-18)
(-0.00197256 -0.00392765 -1.61696e-18)
(-0.00190219 -0.00396121 -3.47388e-19)
(-0.00318422 -0.00255734 -9.23601e-19)
(-0.00329435 -0.00259379 -1.21767e-19)
(0.0158018 -0.00411709 1.27638e-17)
(0.0159844 -0.00396421 -1.72529e-18)
(0.0159226 -0.00398303 -3.89449e-18)
(-0.00248605 -0.000101119 5.68536e-20)
(-0.00253368 -6.17316e-05 6.43396e-20)
(-0.00255955 -0.000120843 -5.73596e-20)
(-0.046698 0.0200443 1.02427e-19)
(-0.0526849 0.0214408 5.006e-19)
(0.0140867 -0.00215699 -3.22374e-18)
(0.0139716 -0.0019745 -9.45475e-19)
(0.0142051 -0.00206781 7.1488e-18)
(0.00149337 0.0012453 5.82442e-20)
(0.00141902 0.00128302 1.4269e-19)
(-0.00183043 -0.00547748 4.27173e-18)
(-0.00177753 -0.00552535 8.32969e-19)
(-0.0018603 -0.00555953 1.50394e-18)