/*--------------------------------*- C++ -*----------------------------------*\
| =========                 |                                                 |
| \\      /  F ield         | OpenFOAM: The Open Source CFD Toolbox           |
|  \\    /   O peration     | Version:  v2012                                 |
|   \\  /    A nd           | Website:  www.openfoam.com                      |
|    \\/     M anipulation  |                                                 |
\*---------------------------------------------------------------------------*/
FoamFile
{
    version     2.0;
    format      ascii;
    class       volVectorField;
    location    "800";
    object      U;
}
// * * * * * * * * * * * * * * * * * * * * * * * * * * * * * * * * * * * * * //

dimensions      [0 1 -1 0 0 0 0];


internalField   nonuniform List<vector> 
13851
(
(1.04346 0.02121 2.98019e-21)
(0.597258 -0.0596448 -1.06356e-21)
(1.00218 -0.0137434 0)
(1.04477 0.0207215 -1.43602e-22)
(1.02214 -0.0229163 0)
(0.994899 0.092433 -1.84065e-21)
(1.0221 0.00498158 0)
(1.01418 -0.00598551 2.84747e-21)
(1.03349 -0.00812811 0)
(0.996127 0.011222 -2.21993e-21)
(0.999659 -0.0317507 0)
(0.331202 0.0322046 0)
(1.04173 -0.0405583 2.77482e-20)
(0.0132994 -0.0310603 -2.56931e-20)
(1.01846 0.00078088 0)
(1.01685 0.00766568 -1.10902e-24)
(1.02391 0.00358245 0)
(1.03046 0.026954 -1.80363e-21)
(1.03473 -0.0464359 0)
(1.0334 -0.00755454 0)
(1.04421 0.0201382 2.01651e-21)
(1.00451 -0.0151102 2.87211e-21)
(0.996224 -0.000548501 0)
(1.02218 -0.00095089 1.56005e-22)
(0.997074 -0.000260656 -4.90275e-23)
(1.01301 -0.00532187 0)
(1.02783 0.0014027 -7.26043e-21)
(0.000920465 -0.061246 1.88418e-20)
(1.04258 0.0205425 -2.43614e-21)
(1.02659 0.0156197 0)
(0.956758 0.1039 2.90352e-21)
(1.02369 0.00321022 0)
(1.0023 -0.0117428 7.01491e-23)
(0.932787 0.0261159 0)
(1.02376 -0.00106184 -1.61692e-22)
(1.0395 -0.0169764 2.92249e-20)
(1.0403 -0.0162834 1.72851e-20)
(1.002 -0.0469809 5.64269e-21)
(0.993221 0.0119911 -3.31183e-21)
(0.94285 0.0338949 0)
(1.03351 0.00882869 0)
(0.987445 -0.003307 8.99314e-23)
(0.00907703 0.0394767 0)
(0.978893 -0.0191846 2.72831e-22)
(0.966969 -0.019539 -1.55876e-21)
(0.0884167 0.0306536 0)
(0.914988 -0.0104508 -1.43945e-21)
(0.730977 -0.0898764 6.68204e-22)
(1.02802 0.00106683 0)
(1.06626 -0.0283791 -1.74419e-22)
(1.03244 -0.0183278 -1.107e-20)
(1.0357 -0.025827 0)
(-0.0179973 -0.0124572 2.41109e-20)
(1.01887 0.000430093 -1.56294e-21)
(1.02501 0.000420785 -9.06178e-23)
(0.987112 -0.00326953 0)
(1.01276 -0.00178637 1.23247e-22)
(-0.0390506 -0.0252191 3.46954e-20)
(1.02709 0.0154673 0)
(1.02311 0.00488825 1.36883e-21)
(0.997637 -0.047198 0)
(0.620198 -0.141254 -1.10127e-20)
(1.05474 0.0565797 3.51594e-21)
(1.02485 -0.0259322 -1.08658e-20)
(0.972138 -0.00798789 5.56227e-21)
(1.04574 0.0247083 -1.68921e-21)
(1.03644 -0.0161123 -9.4496e-21)
(0.886625 -0.0184438 5.81715e-23)
(1.02864 -0.00691692 0)
(1.0317 0.027364 -1.69874e-21)
(0.521449 -0.0133951 0)
(1.03492 -0.0152361 -1.2421e-20)
(0.643708 -0.0467052 3.75859e-21)
(1.01855 0.000384165 1.33747e-21)
(1.02696 0.000946404 0)
(1.04055 -0.0109974 9.26415e-23)
(1.00632 -0.0143433 -2.15961e-21)
(0.570231 -0.0214917 -1.38129e-20)
(1.02315 -0.0122983 0)
(0.522375 -0.0152078 -8.308e-21)
(1.02453 0.00492368 4.81898e-21)
(0.941595 -0.0498377 3.7023e-22)
(1.02231 0.00391985 6.93644e-22)
(0.075391 0.0209125 -1.38432e-20)
(1.05007 0.0613754 4.63261e-21)
(0.35769 0.0290904 -1.7967e-21)
(1.06888 0.0812735 0)
(0.613769 0.00914373 0)
(1.02558 0.00100896 0)
(1.01132 -0.0215429 0)
(1.03944 -0.0170961 -3.02285e-20)
(1.06633 -0.0103379 9.54031e-23)
(0.889179 -0.0284228 -7.41639e-23)
(1.02559 -0.00143909 0)
(1.02599 0.00101996 0)
(1.01307 -0.00108861 0)
(1.02335 -0.0236913 0)
(0.744636 -0.0415526 0)
(1.06989 -0.0286274 -2.31139e-22)
(1.01126 -0.000694151 0)
(-0.0654081 -0.0179597 -2.47447e-20)
(1.02765 -0.0138349 0)
(1.0348 0.0154624 0)
(1.03109 0.00239889 -5.08966e-21)
(0.990792 -4.30854e-05 1.25088e-23)
(1.09554 0.0723507 -1.47586e-21)
(1.02935 -0.0154094 7.30192e-21)
(0.98716 -0.00100624 2.35985e-23)
(1.04945 -0.0135672 -3.05406e-20)
(0.983968 0.0835692 1.90236e-21)
(1.0166 -0.000734604 1.13817e-22)
(1.01186 -0.0223333 3.81947e-22)
(1.06691 -0.00703492 0)
(1.01059 -0.00014579 2.9561e-22)
(1.01866 -0.000992064 -2.97167e-22)
(0.951198 0.0930814 -8.39882e-21)
(0.775377 -0.0438273 0)
(0.988539 -0.00181905 1.05665e-22)
(1.02637 -6.63787e-05 0)
(1.02478 0.000244071 -2.33346e-24)
(0.00531586 0.046105 -2.61147e-20)
(1.03064 0.00236899 5.95601e-21)
(1.02388 -0.0446343 -9.30063e-21)
(0.919269 0.119099 1.92101e-21)
(0.772535 -0.0943409 -9.83502e-22)
(0.993292 -0.021297 -1.09314e-22)
(0.782577 -0.0718614 -2.42071e-22)
(1.02531 -0.0132422 -1.60008e-21)
(1.04512 0.0197472 2.2452e-22)
(1.02083 -0.0361738 0)
(1.0331 0.00843562 0)
(1.0318 -0.00129952 -2.00874e-22)
(0.546858 -0.016424 0)
(1.02201 0.00373899 0)
(0.966832 0.128137 -3.51125e-21)
(1.02979 -0.000501978 0)
(0.988642 -0.00166674 9.15342e-23)
(1.03465 -0.0156867 -1.58582e-20)
(0.0162271 -0.161423 0)
(0.325503 0.00298163 5.35599e-21)
(-0.080666 -0.0176047 1.75924e-20)
(1.02517 0.000370259 9.35036e-23)
(1.06239 -0.0181734 2.96132e-22)
(0.988411 -0.0100243 0)
(1.02438 0.00687756 -2.38168e-21)
(0.972269 -0.0167113 -6.12317e-22)
(0.961171 0.00151696 -4.44482e-23)
(1.01862 -0.037215 0)
(1.02185 0.00488244 1.06528e-21)
(0.973617 -0.0278612 5.32758e-22)
(1.038 -0.0150773 -8.66587e-21)
(1.02621 0.00025253 -2.32771e-23)
(0.0201888 -0.0238231 3.43924e-20)
(1.01222 -0.0017177 -1.38875e-22)
(1.02566 0.00390821 -3.77799e-21)
(1.02448 0.00719995 3.09165e-21)
(1.0402 0.00254218 -2.76213e-22)
(1.02651 0.0125259 -1.17301e-22)
(1.03517 -0.0267187 0)
(1.0317 -0.0182487 1.01505e-20)
(0.983604 0.00218437 0)
(1.02901 -0.00251664 -7.22294e-21)
(-0.0361495 -0.0243495 0)
(1.03155 -0.00149633 -1.15249e-22)
(1.02169 0.0157733 3.22602e-21)
(0.988331 -0.00714929 -2.859e-23)
(0.9594 -0.000656314 7.21654e-24)
(1.02921 -0.0073342 -2.70836e-22)
(1.04465 0.0189204 -2.66826e-22)
(0.60785 -0.0347517 -2.91276e-21)
(0.549146 -0.0211923 4.61028e-21)
(1.02115 -0.00609618 0)
(1.04013 0.00298173 -4.77044e-22)
(0.271837 -0.0164928 -9.1326e-21)
(1.03104 -0.00143249 -1.0883e-22)
(0.720788 -0.102977 2.27121e-21)
(1.02472 -0.0126812 0)
(1.06556 -0.011773 2.10094e-23)
(1.03737 -0.0458205 -1.06435e-20)
(0.986534 -0.000822094 4.83738e-23)
(1.02292 0.00324197 8.41138e-23)
(1.03731 -0.0152142 1.00437e-20)
(1.02146 0.00339522 0)
(1.00428 -0.0174288 -4.60414e-21)
(0.98768 0.000480298 -1.73646e-23)
(1.00267 -0.000846257 3.66129e-22)
(1.04495 0.0244368 -1.78885e-21)
(1.02642 0.00050323 -1.14534e-22)
(1.01941 -0.0264593 0)
(1.01326 0.0190366 -5.0569e-21)
(0.910777 -0.0137675 1.31935e-22)
(-0.0237281 -0.0138223 0)
(1.01181 -0.0237201 0)
(1.02635 -0.00661217 -9.81384e-21)
(0.634314 -0.139161 0)
(1.02545 0.00437123 -2.81344e-21)
(1.06013 -0.0171183 0)
(0.98326 0.0643817 -3.91461e-22)
(1.0639 -0.0125325 -9.64948e-23)
(1.04142 -0.0107756 -4.96351e-23)
(0.993945 -0.0216428 1.36694e-22)
(0.249081 -0.0128592 -2.28825e-20)
(1.02114 4.44971e-05 -7.0364e-23)
(1.02516 0.00479497 0)
(1.00854 0.0152404 0)
(1.02159 0.00356976 0)
(0.313617 -0.129005 -1.06641e-20)
(1.02436 0.00254612 -3.48045e-21)
(0.639577 -0.0220619 2.07833e-20)
(0.985395 0.000771302 -1.73591e-23)
(0.89282 -0.0239803 1.82555e-20)
(1.03459 0.0148665 -3.36796e-22)
(0.949684 0.0910043 3.85199e-21)
(0.986824 0.00010916 1.73635e-23)
(0.987684 -0.00841401 0)
(0.995884 -0.0387824 0)
(1.03513 0.0578298 -6.17739e-21)
(0.0480002 0.0376133 -2.88091e-20)
(1.0193 0.00166891 -6.35928e-22)
(0.653045 -0.0227464 -2.36747e-20)
(1.02414 0.00254988 2.22496e-21)
(1.02475 0.00489641 0)
(0.864359 -0.0328246 -1.94918e-20)
(1.03046 -0.0305793 -8.66409e-21)
(0.82627 -0.0217542 0)
(1.00039 -0.000432728 1.90675e-22)
(1.02498 -0.00307576 4.17312e-21)
(0.992477 -1.32439e-05 -3.85819e-23)
(-0.0404505 0.00880459 0)
(0.986637 0.000345977 0)
(1.01304 -0.00400067 -1.46768e-21)
(0.881043 0.0261741 4.4462e-21)
(1.02068 -0.00567635 0)
(1.01131 -0.0229694 -3.09822e-22)
(1.03288 -0.0162587 0)
(1.01519 0.0321598 0)
(0.378252 -0.121595 8.98058e-21)
(0.948772 -0.0149672 -6.75984e-21)
(0.987942 -0.00959952 0)
(1.02502 0.00485339 -2.26279e-22)
(0.975243 0.108035 4.74269e-22)
(1.08771 -0.0626856 0)
(0.978701 0.00214008 2.32454e-23)
(1.00785 0.0165885 -4.42259e-21)
(0.988842 -8.12337e-05 3.67302e-23)
(0.760882 -0.0230787 1.58304e-21)
(1.027 -0.0143856 0)
(0.939089 0.0704391 -5.63942e-22)
(1.02446 0.00795791 -1.64817e-21)
(1.02209 0.00698739 2.17291e-22)
(1.07594 0.0121555 -2.30617e-23)
(1.0867 -0.0724795 0)
(1.02497 0.00652551 -2.38554e-21)
(1.02437 0.00758835 -1.08942e-21)
(1.0326 -0.0135386 -2.19123e-22)
(0.95593 0.00442635 4.06936e-21)
(1.01394 0.017772 5.86751e-21)
(1.0374 -0.0155869 0)
(0.464859 -0.0147347 -9.76694e-22)
(1.01915 0.00294796 1.72377e-21)
(0.988064 -0.00887049 0)
(1.03353 0.0260435 0)
(0.775507 0.155041 7.06158e-22)
(0.994202 -0.0160902 1.64484e-22)
(1.02995 -0.0565288 -3.20941e-21)
(1.0253 0.00456933 -5.9244e-23)
(1.02486 0.00636484 2.38577e-21)
(1.02591 -0.00120194 -4.3816e-21)
(0.899198 -0.0322933 -1.87699e-20)
(1.00953 -0.0311276 2.79749e-22)
(1.07861 0.0114318 -3.90853e-23)
(1.02547 0.00410665 6.26627e-21)
(0.809312 0.0941069 0)
(1.02343 -0.0112946 -9.04127e-21)
(1.0173 0.00829658 -1.0977e-22)
(1.0323 -0.00133447 2.21717e-22)
(0.949186 -0.0500098 -6.87915e-22)
(0.986798 -0.0286288 -1.4687e-23)
(0.868184 -0.019349 -9.22846e-21)
(1.00084 -0.036226 0)
(0.978321 0.00292996 0)
(0.985922 0.00139162 0)
(0.990446 1.41299e-05 -3.3415e-24)
(1.03247 -0.0129956 8.70996e-21)
(0.788481 0.163575 6.44784e-22)
(0.694689 -0.0995235 0)
(1.03774 -0.00876235 -1.89675e-22)
(1.01739 0.00167189 -3.09705e-22)
(0.809585 0.116557 0)
(0.936831 -0.0603097 -5.85846e-23)
(1.01897 -0.0401544 -1.13958e-20)
(1.02693 0.0145685 0)
(1.02331 0.00491156 -2.03864e-22)
(1.0274 -0.00825223 0)
(0.937587 -0.056462 4.48273e-23)
(1.03628 -0.0524915 0)
(1.02188 0.0139386 -1.29909e-21)
(0.362773 0.0403921 1.59447e-20)
(1.0331 -0.00117459 0)
(0.780003 -0.0234113 1.48502e-20)
(1.02913 -0.00222827 -7.52334e-21)
(1.02375 0.00412069 1.3516e-21)
(0.873739 -0.0213006 2.8163e-20)
(1.02978 0.0103699 1.01495e-22)
(1.07757 0.0827732 4.89236e-22)
(0.802109 -0.0271506 -2.86477e-20)
(1.03682 -0.00836037 1.94533e-22)
(1.03107 -0.0112028 0)
(1.02501 -0.00132355 -3.41144e-21)
(1.02729 0.0143918 0)
(0.0685443 -0.172793 0)
(1.02154 0.0143341 -1.79421e-21)
(1.02519 0.00700875 0)
(0.827239 -0.0359384 8.68468e-21)
(0.987745 -0.00447539 1.04401e-22)
(1.02185 0.00670884 2.82266e-22)
(0.994947 -0.0230256 -1.63839e-22)
(0.910656 -0.0189823 1.60495e-20)
(1.03868 -0.0171273 -6.25634e-21)
(1.0194 0.00186166 -1.34017e-21)
(1.02974 -0.0140749 0)
(1.01864 0.0018029 -6.47717e-22)
(0.541044 -0.0205397 1.63659e-20)
(1.07354 0.0189215 4.46831e-22)
(0.997851 -0.00069273 4.95466e-23)
(1.04701 0.00388018 2.25104e-22)
(1.03845 -0.0172339 0)
(1.0252 -0.00248375 0)
(1.02593 0.00387347 -6.20261e-21)
(1.01717 0.00155372 2.89235e-22)
(1.02943 0.0100101 -6.96645e-23)
(1.02527 0.00708947 0)
(0.994908 -0.0287569 -2.5224e-22)
(0.148402 0.00896726 -2.23026e-20)
(0.648397 -0.051448 -1.9359e-20)
(1.03954 0.0324271 4.8584e-21)
(0.914467 -0.0198341 -3.13672e-20)
(0.800888 -0.0951038 2.99452e-21)
(1.01869 0.000803017 -1.01304e-21)
(1.02576 -0.00690843 0)
(1.01684 -0.0415426 1.14886e-20)
(1.07585 -0.0180609 0)
(1.00643 0.0391575 -6.10944e-21)
(1.03529 -0.0234359 1.07503e-20)
(1.03408 -0.0501415 0)
(1.0642 0.00478964 0)
(0.83941 0.158183 2.10033e-21)
(0.793372 -0.0256591 1.09981e-20)
(1.01823 0.000630805 -1.16322e-22)
(0.998476 -0.030259 0)
(0.997854 -0.0302875 0)
(0.951674 -0.0276647 -5.68538e-21)
(1.02608 0.00374948 4.23281e-21)
(1.00222 0.0400506 0)
(-0.0453631 0.00528476 5.50331e-21)
(1.04086 0.00333127 4.02739e-22)
(0.846933 0.135644 -2.60908e-21)
(1.04712 0.00344466 -2.43048e-22)
(1.01842 0.00167142 2.92884e-22)
(0.988093 -4.38725e-05 -4.72946e-23)
(0.986958 -0.000829856 -4.31479e-23)
(1.03784 0.00215281 0)
(0.827667 -0.0253625 0)
(1.02401 -0.0592519 0)
(1.02567 0.00614136 2.29134e-22)
(1.03102 -0.0104709 0)
(0.987115 -0.00532833 -1.3924e-22)
(0.35521 0.0493976 -2.11617e-20)
(1.01493 0.0111782 0)
(0.777177 -0.0672833 6.51549e-21)
(0.643634 -0.0408534 0)
(1.026 0.00642196 -5.22289e-22)
(1.0326 0.0619727 1.04713e-20)
(1.02409 -0.000787877 0)
(0.742267 -0.0750046 -7.40859e-21)
(1.03334 0.0075576 -4.24186e-22)
(0.988645 -0.00208559 -1.09364e-22)
(1.06253 0.00917284 0)
(-0.0147102 -0.0158903 1.02918e-20)
(1.02698 0.000668971 5.94191e-23)
(0.126329 -0.175633 0)
(1.06974 -0.0176861 0)
(1.0361 -0.0237915 1.23873e-20)
(0.502042 -0.0307951 -2.01508e-20)
(0.996279 -0.0315799 -1.47185e-22)
(0.996379 -0.0321556 1.02922e-22)
(1.08217 -0.00267396 0)
(1.03196 -6.08767e-05 -4.40648e-22)
(1.01715 0.000208771 -1.518e-21)
(1.03918 0.0304237 -8.62451e-23)
(1.03038 -0.0138054 9.80912e-21)
(0.0722549 -0.0241062 2.66643e-20)
(1.03022 -0.00738313 0)
(0.865277 -0.0213848 -1.7226e-20)
(0.802888 -0.027228 -2.015e-20)
(0.987432 -0.00569311 1.09193e-22)
(1.01926 0.00310768 -1.10672e-21)
(0.612382 -0.0427844 -2.52237e-21)
(0.547677 -0.0150305 8.35256e-21)
(0.890694 0.0402694 -1.48236e-20)
(0.797656 -0.0426625 1.94853e-20)
(1.0612 0.0105801 -7.31571e-22)
(1.02391 -0.00128918 0)
(1.00737 -0.000634855 1.23014e-22)
(0.85481 -0.0873116 4.81812e-21)
(1.02675 -0.00814599 1.39528e-22)
(1.01714 0.0069499 -2.03498e-23)
(1.07935 -0.00353029 0)
(1.0219 0.00458961 0)
(0.991757 3.61502e-05 0)
(1.03598 -0.00861366 -2.04549e-22)
(0.988003 -0.00677599 -2.75229e-23)
(1.02587 -0.0249384 1.29314e-20)
(1.00844 0.0281592 2.61484e-21)
(0.592535 -0.0193185 3.34857e-20)
(1.03434 0.0289243 -3.10575e-21)
(1.02992 -0.0149033 0)
(1.04313 0.0398794 0)
(1.07699 -0.078576 1.9335e-21)
(1.0212 0.0079363 0)
(0.927646 -0.026226 4.6242e-21)
(1.02391 0.00437563 -2.80355e-21)
(0.992952 -0.0398408 0)
(0.988463 -0.00142502 0)
(1.03516 -0.00827208 0)
(1.00269 -0.000519636 -1.8774e-22)
(0.990492 -0.0534292 1.13398e-21)
(0.963339 -0.0959852 -3.8918e-21)
(1.02752 -0.0317145 -1.38393e-20)
(1.04319 0.0361334 7.31905e-22)
(0.553878 -0.0239936 -3.52197e-20)
(0.929801 0.011412 7.01728e-22)
(1.08519 0.0757924 -6.03508e-23)
(1.02463 7.63484e-06 4.09005e-23)
(1.03351 -0.0162764 1.4666e-20)
(1.03293 0.00715889 7.72024e-23)
(1.07248 -0.0891883 -6.99882e-22)
(0.990635 -0.000157729 -8.84751e-23)
(0.80835 -0.0157333 0)
(1.0316 -0.135183 0)
(1.00279 -0.00705979 2.16661e-24)
(0.623548 -0.0225277 0)
(1.06502 -0.0146436 -1.64453e-22)
(0.98283 -0.0270746 0)
(1.01941 -0.141647 -1.74084e-21)
(0.0867148 -0.000617218 3.22618e-20)
(0.987753 0.000484887 1.5959e-23)
(1.02339 -0.00232261 -4.00895e-21)
(1.02378 -0.0129879 0)
(1.00919 -0.0313723 -1.52932e-22)
(1.02484 -0.00665183 0)
(1.02555 0.00753247 1.27244e-21)
(1.0379 -0.0147247 0)
(1.03538 -0.0253707 0)
(1.03316 0.0346567 -4.19182e-21)
(0.552404 0.12912 1.18787e-20)
(1.00068 -0.000637035 2.12901e-22)
(1.04816 0.00439886 -2.86986e-22)
(0.00850318 0.0369494 -1.34797e-21)
(1.02144 0.0168052 -2.55447e-21)
(0.986201 0.00138285 0)
(0.553193 0.0143749 5.95419e-21)
(1.03182 -0.000229574 4.69089e-22)
(1.04413 0.0212757 0)
(1.02862 -0.00663742 1.24442e-22)
(1.01501 0.0180396 0)
(1.02744 0.0125636 -1.75854e-22)
(0.985737 0.000874301 0)
(1.0635 -0.015395 1.29136e-22)
(0.850521 -0.0385394 1.10951e-20)
(1.02247 0.00408877 0)
(1.02977 -0.00849691 0)
(1.02996 -0.000473372 0)
(1.08318 0.0243797 -1.13369e-22)
(0.985093 -0.0336982 -3.06237e-24)
(1.01075 -0.000163989 0)
(1.03749 0.0085547 -3.08886e-22)
(1.01661 -0.000314523 -2.00413e-22)
(1.0157 -0.000455964 -2.74909e-22)
(0.731982 -0.106339 -8.93369e-21)
(1.02472 0.0060091 1.71517e-21)
(1.04757 0.0907215 9.27314e-22)
(1.02119 0.00323885 1.23346e-21)
(1.00789 -0.00094045 -1.5446e-23)
(-0.105989 -0.0270701 3.70554e-21)
(0.610146 -0.0219772 0)
(1.02159 0.00372919 0)
(1.08828 0.0232135 1.00181e-22)
(1.02101 0.0072974 0)
(1.09336 -0.0520384 1.19483e-21)
(0.0692224 0.028808 0)
(1.04794 0.00484357 3.68691e-22)
(1.02036 -0.0636041 0)
(1.03302 0.00778305 0)
(1.01682 -0.0226856 0)
(1.02259 0.00473763 -1.85158e-21)
(-0.0462292 0.0266897 0)
(0.98797 -0.000850849 3.77384e-23)
(-0.0155318 -0.00477148 -8.61059e-22)
(1.01561 0.016182 3.16815e-21)
(0.987634 -0.00369676 -1.45679e-22)
(1.08857 0.0165059 0)
(0.673834 -0.0357659 -2.02064e-20)
(1.01203 -0.00332958 3.34892e-22)
(0.954554 -0.0838408 0)
(1.028 -2.98501e-05 0)
(0.864744 0.104757 -1.83821e-22)
(1.02374 0.000216326 0)
(1.03015 -0.00232228 2.33515e-22)
(1.03324 -0.00167388 1.10792e-22)
(1.02135 0.00468329 0)
(0.573704 -0.0173534 -7.74935e-21)
(1.03064 -0.0172783 8.89838e-21)
(1.03793 -0.0212004 5.67286e-21)
(1.03897 -0.0348103 0)
(1.04103 0.0559563 -5.82173e-21)
(0.983121 0.00183608 -5.9904e-24)
(0.928445 -0.0657245 9.74274e-21)
(0.995399 -0.100656 -7.93719e-21)
(1.02308 0.00269608 -1.81636e-21)
(1.02852 -0.00260882 6.2868e-21)
(1.09035 -0.045941 0)
(0.888081 0.115819 -6.91873e-22)
(0.933034 -0.0223578 1.54354e-20)
(1.01809 0.000358566 -5.0379e-22)
(-0.0511862 0.0265113 0)
(0.106144 0.0244941 -3.53901e-21)
(0.163913 0.00842477 2.81008e-20)
(1.02138 0.015046 2.76072e-21)
(1.09317 0.0142542 -5.34599e-22)
(0.885606 0.0563114 0)
(0.983909 -0.0282524 1.57809e-23)
(0.9735 -0.020943 2.40583e-21)
(0.966916 0.0754344 -2.69242e-21)
(0.694602 -0.0334151 0)
(1.02663 0.0131866 1.41054e-22)
(0.67875 -0.0425573 1.44948e-20)
(1.04995 -0.0176552 -4.05975e-22)
(0.988158 -0.00101674 3.45085e-23)
(0.98558 -0.0276472 -1.72928e-24)
(1.03142 -0.017425 2.12645e-22)
(0.57829 -0.0200836 -1.3787e-20)
(1.02434 0.00839993 8.48469e-22)
(1.02313 0.00322462 -8.21072e-22)
(1.03944 0.00226479 0)
(1.02905 0.00684671 0)
(1.02087 -0.025441 -4.78257e-22)
(1.01582 0.0254898 5.46591e-21)
(0.662515 -0.00155164 0)
(0.535208 0.125718 -1.65661e-20)
(1.02815 -0.00151822 0)
(0.0101211 0.0378393 1.86097e-20)
(0.629009 -0.0239668 0)
(1.03538 0.0908602 4.90742e-21)
(0.998663 -0.129272 -3.77116e-22)
(1.02921 -0.00809427 2.84479e-22)
(0.986689 0.00128167 3.79915e-23)
(1.03435 -0.00849686 0)
(0.945784 -0.00994198 0)
(0.903236 -0.063447 8.8084e-21)
(1.02587 0.00366124 0)
(1.03768 -0.0165147 0)
(1.03971 -0.017919 -1.82463e-20)
(0.986957 -0.00287437 3.64981e-23)
(1.03807 0.0470725 -3.17516e-21)
(0.829718 0.0827763 -2.63602e-22)
(0.964571 -0.0239834 7.25851e-21)
(1.03317 -0.0252611 -1.50312e-20)
(0.582994 -0.0177271 0)
(1.04891 -0.0167585 1.44284e-20)
(1.03344 0.0082174 -2.04831e-22)
(1.02189 0.00464235 1.1148e-21)
(0.50994 0.0313075 -8.82068e-21)
(0.788602 -0.0280294 3.29723e-20)
(1.03866 -0.0181727 -1.30605e-20)
(1.03081 -0.00715023 -5.50804e-21)
(1.06465 0.0594435 -3.7114e-21)
(0.986762 -0.00102653 -1.369e-23)
(1.0272 0.00399131 8.76664e-23)
(0.785583 -0.024719 0)
(0.987118 -0.00251517 3.87382e-23)
(1.02449 0.0087994 -3.33718e-22)
(0.986555 -0.000429288 -2.31346e-23)
(1.03014 0.000330448 0)
(1.05016 -0.0177914 0)
(1.02352 -0.0252981 9.74432e-21)
(1.04628 0.0347618 5.96951e-22)
(0.986988 -0.00217631 7.2809e-23)
(0.205909 -0.17834 0)
(1.0009 0.0564823 2.28769e-21)
(1.03314 -0.000529292 -1.20896e-22)
(1.00951 -0.00200076 7.22038e-23)
(0.994843 -0.0165742 -1.73778e-22)
(1.01788 0.000331924 2.07138e-21)
(-0.022926 -0.0156957 0)
(0.945848 0.079056 1.17767e-21)
(0.942421 0.0892188 1.39169e-21)
(0.12262 0.0081764 -2.53338e-20)
(0.87562 0.0964426 3.20463e-22)
(1.03088 -0.00629634 0)
(0.552717 -0.0191426 -4.99824e-21)
(0.61584 -0.0209037 3.47344e-20)
(1.0642 0.00443091 0)
(1.02807 -0.00718894 0)
(0.986697 0.00157374 -3.15074e-23)
(0.994171 -0.0227836 -1.02392e-22)
(1.01619 0.00462806 -1.20856e-22)
(0.894462 -0.0418959 5.30597e-20)
(0.815138 0.159253 0)
(1.03738 -0.0165519 0)
(1.02188 0.000392276 3.27232e-21)
(1.0318 -0.00739568 2.8607e-22)
(1.01724 0.00974794 1.15995e-21)
(1.05566 -0.0214397 0)
(0.969896 -0.0732854 -1.32397e-22)
(1.02985 -0.019485 1.20721e-20)
(1.02109 0.00306435 3.55048e-22)
(1.03782 0.0334827 -1.67428e-21)
(1.02495 -0.00627755 1.35279e-22)
(1.02665 -0.00125372 -4.95867e-21)
(1.02655 -0.0332853 5.10744e-22)
(1.02284 0.00482622 1.21817e-21)
(1.03323 0.00694217 9.73452e-23)
(1.01465 0.0105038 -1.1479e-21)
(1.02355 0.00512472 -1.18547e-21)
(1.02092 -0.0237665 -7.02449e-21)
(0.987862 -0.0485651 2.91352e-21)
(1.03027 -0.0295886 0)
(1.01713 0.011247 0)
(1.03889 -0.017959 1.46363e-20)
(1.03113 -0.00705752 -5.67582e-23)
(0.953038 0.0625458 -7.48391e-21)
(1.07399 0.0154212 0)
(0.0618948 0.0240592 0)
(1.03385 0.0142394 -6.7492e-24)
(1.01485 -0.00106405 3.35052e-22)
(1.04892 -0.0139731 1.48947e-20)
(1.03115 0.0180971 -1.5184e-21)
(0.450536 -0.0247763 -1.70215e-20)
(0.769608 -0.0250035 7.27907e-22)
(0.000565553 0.0411936 -2.86547e-20)
(0.54082 0.00563004 -4.75242e-21)
(1.0268 -0.0076876 1.43371e-22)
(1.03684 -0.0149872 2.7402e-20)
(0.977196 0.00301832 -4.00342e-23)
(1.03074 0.000227987 1.16362e-23)
(0.987774 -0.000684417 9.80904e-23)
(1.03042 0.000437519 0)
(0.969034 0.00460967 2.12399e-24)
(1.03591 0.030116 4.5809e-21)
(1.01587 0.0184025 0)
(0.987122 -0.00188685 0)
(0.718032 -0.090715 -1.66019e-21)
(1.01562 0.017328 0)
(0.693649 -0.097633 3.28246e-23)
(1.03905 0.00064587 -4.63755e-24)
(0.987431 -0.000264105 -5.55015e-23)
(0.994913 -0.00101882 -1.19135e-22)
(1.01383 -0.0402979 2.0835e-21)
(0.610271 -0.144189 0)
(1.035 -0.0131192 0)
(1.02638 -0.0013741 0)
(0.976712 0.00231409 3.01356e-23)
(1.00858 -0.000877833 -7.09969e-23)
(1.02733 -0.0010419 1.16588e-22)
(1.04251 0.00260179 -3.72856e-22)
(1.04355 -0.0221389 2.11936e-20)
(0.345536 0.0441136 -6.56438e-21)
(1.02343 0.00506002 0)
(0.987029 -0.00157486 -6.25723e-23)
(1.02131 0.00477249 -2.20364e-21)
(1.0418 0.00268742 3.66676e-22)
(0.906814 0.000399855 0)
(-0.0282274 -0.0227926 -1.79088e-20)
(1.01692 0.00907354 0)
(0.718842 -0.0435508 3.03248e-20)
(0.86521 0.107102 1.57032e-22)
(1.0328 0.00656077 4.68279e-22)
(1.03741 -0.0215263 -2.04192e-20)
(0.0523407 -0.0061205 -2.62953e-20)
(1.02804 -0.007945 0)
(0.324758 0.0177397 1.56699e-20)
(1.02446 0.00500111 -1.58889e-21)
(1.03237 0.0260651 0)
(1.03449 -0.0129517 -6.60404e-22)
(1.0346 0.0272806 -1.39745e-21)
(0.963944 0.0843298 9.98333e-22)
(1.02145 0.00357742 0)
(0.890885 0.0864945 -6.94358e-21)
(0.990783 -7.85836e-05 -9.16818e-23)
(1.0349 -0.00443153 0)
(0.647698 -0.0232259 -6.97755e-23)
(1.04094 -0.0144085 -1.50014e-22)
(1.0329 0.0173093 -9.85507e-22)
(1.06979 0.0521484 0)
(1.03069 -0.00248353 0)
(1.02323 0.00351191 2.91004e-21)
(0.787839 0.136548 -1.80523e-22)
(0.194422 -0.0293138 -5.74953e-21)
(1.02895 -0.0193229 -6.86377e-22)
(1.03181 -0.0565032 0)
(0.995896 -0.0308991 0)
(0.986778 -0.00027316 -1.96434e-23)
(1.0382 0.000481176 -4.34028e-22)
(-0.125264 -0.0277547 -3.24119e-20)
(1.03953 -0.0178355 1.55843e-20)
(1.01237 0.0320177 0)
(0.787935 -0.0254602 0)
(1.02727 -0.0120852 2.45539e-22)
(1.01363 0.000151345 0)
(0.98837 -0.00122686 0)
(0.865413 0.0934479 -1.28053e-22)
(1.03728 -0.0174069 2.45276e-20)
(1.02314 0.0133312 -5.25594e-22)
(1.03954 0.0144159 1.55349e-21)
(0.98722 -0.0345763 2.07043e-23)
(1.02679 0.0015181 2.68405e-21)
(0.99447 -0.00111133 2.53907e-22)
(0.0281648 0.0265561 -8.66562e-21)
(0.892803 0.0226558 -5.4871e-21)
(0.683599 -0.0275476 1.43512e-20)
(0.987502 -0.00409053 1.04216e-22)
(1.02326 0.0049598 0)
(0.561017 -0.021024 -1.9931e-20)
(-0.0105285 -0.0489343 2.85146e-20)
(1.03944 -0.0172124 1.61409e-20)
(1.0542 -0.0203889 5.55604e-23)
(1.03876 -0.0161463 2.26615e-23)
(1.02188 0.00373851 7.62312e-22)
(0.990939 -0.0373069 0)
(0.986695 -0.0237424 1.57163e-21)
(1.00063 -0.00783678 -5.2187e-23)
(1.02281 0.00681511 -1.37167e-21)
(0.0275348 0.0401314 0)
(1.08238 0.00358041 2.06238e-23)
(1.0521 -0.0243431 -6.99897e-23)
(1.04139 -0.0165295 1.94606e-20)
(1.01546 -0.00118065 -2.23754e-22)
(1.0138 5.64136e-05 0)
(1.02721 0.0127887 0)
(1.03044 -0.00720191 -2.65466e-22)
(0.0293894 0.0289439 1.68163e-20)
(1.01806 0.00300011 -6.61089e-22)
(1.03426 -0.0250623 1.52796e-20)
(1.04594 0.0323594 -1.19654e-21)
(0.986803 -0.0301866 0)
(1.03255 -0.00723963 0)
(0.771594 0.133975 0)
(1.027 -0.000442209 1.01308e-23)
(1.08408 0.00125539 2.2611e-22)
(0.987683 -0.000545141 3.81091e-23)
(1.03263 0.00599021 2.81611e-22)
(1.02846 0.000503712 0)
(0.785231 -0.027815 2.38513e-20)
(1.03859 0.0023985 1.66704e-22)
(0.988885 -0.00303688 0)
(0.91187 -0.0725839 3.80205e-21)
(1.02216 0.00476027 -1.13582e-21)
(0.587461 -0.0217217 0)
(0.992778 -0.000181919 -1.24183e-22)
(1.05882 -0.0194904 1.17515e-22)
(1.03486 -0.0163856 2.47902e-21)
(0.861831 0.00129961 -7.33704e-21)
(1.02663 -0.0493463 -7.30166e-23)
(1.02683 -0.00165769 -2.4003e-22)
(0.855355 0.0851521 0)
(0.740103 -0.0493431 -1.24118e-20)
(1.0248 0.00617056 -2.5791e-21)
(0.886487 -0.0271938 -3.32946e-20)
(1.03439 -0.00425214 5.94634e-21)
(1.0292 -0.00699637 4.0171e-22)
(1.05506 -0.0259761 8.316e-23)
(0.0141856 0.0345446 1.43786e-20)
(0.897932 0.0905396 4.99244e-21)
(1.02187 0.00873604 5.36292e-22)
(1.02816 -0.00126783 -1.2036e-22)
(0.987201 -0.00132066 3.13767e-23)
(1.02543 -0.131911 4.02199e-21)
(0.996161 -0.00656682 9.51598e-23)
(1.01318 0.0147432 3.46946e-22)
(1.02235 0.0140118 8.54297e-22)
(1.05576 -0.025612 -2.06279e-23)
(1.01875 0.000504047 0)
(1.05721 -0.0198686 -1.18866e-22)
(1.03837 -0.0158632 2.23288e-20)
(1.02203 -0.00558176 0)
(1.01791 -0.0254326 1.69423e-21)
(0.805979 0.169457 0)
(1.02311 0.00488912 9.96804e-22)
(1.01811 -0.0237044 -1.7518e-21)
(1.03387 -0.0192311 0)
(0.934293 -0.0186841 -3.6459e-20)
(1.02354 0.0140434 -7.60183e-22)
(0.163289 -0.112915 0)
(1.0373 -0.0358297 0)
(1.02217 0.00482432 0)
(0.196749 -0.00363088 9.19136e-22)
(0.983495 0.0671704 -5.51591e-22)
(0.731757 -0.097694 -2.33747e-20)
(0.209452 -0.021259 5.65745e-21)
(0.779002 -0.0344919 -1.96573e-20)
(1.00937 -0.0468208 -1.69624e-22)
(1.01321 0.0047077 5.26589e-24)
(1.02984 -0.0068585 0)
(1.04041 0.0295028 -1.49859e-21)
(-0.0462692 -0.0203008 -2.6375e-20)
(0.107587 0.0108299 4.98905e-20)
(1.04753 0.00119046 -3.55455e-22)
(1.00486 -0.000593722 0)
(1.03255 -0.016896 0)
(0.925233 -0.0417369 1.12892e-23)
(0.988758 -0.00432157 -1.39911e-22)
(-0.0174349 -0.028591 2.5637e-20)
(1.02652 -0.0114759 0)
(1.0246 0.00554311 0)
(0.0167052 0.033301 3.80367e-20)
(0.56304 -0.0215548 -1.71673e-20)
(0.995086 -0.0312423 4.14911e-24)
(1.03099 0.000190235 0)
(1.01814 0.00164971 -3.00704e-22)
(-0.0143623 -0.0434267 -3.11065e-20)
(1.0433 -0.0224642 -2.42479e-20)
(1.0383 -0.0180533 1.14489e-20)
(1.06357 0.00481023 -1.12185e-22)
(0.683794 -0.0551771 0)
(0.969838 -0.0281132 0)
(0.657416 -0.129281 0)
(1.02858 -0.0150754 -5.82503e-21)
(1.03044 -0.0101405 -7.82151e-22)
(1.02542 0.00737883 0)
(1.02239 0.00470991 0)
(0.736887 -0.0192142 2.9073e-21)
(1.03643 -0.0117575 1.54446e-21)
(0.54091 -0.0150403 0)
(1.0629 0.015179 0)
(1.02972 -0.00695876 0)
(0.040345 0.0250156 -2.09206e-21)
(0.720528 -0.0931223 5.09793e-20)
(0.608188 -0.022423 0)
(1.02164 0.00403558 6.7962e-22)
(1.0313 -0.00521263 9.28772e-21)
(1.03295 -0.000731621 3.53727e-22)
(1.0168 0.0105314 -2.02168e-21)
(1.03348 0.0173704 -1.06389e-21)
(0.285971 0.0194093 0)
(1.01032 0.000122853 1.64397e-21)
(0.667245 -0.0219304 -6.10053e-21)
(0.989035 -0.00425469 1.93903e-22)
(1.03442 -0.0162252 1.06697e-20)
(1.02933 0.00524311 -2.15235e-23)
(0.978718 -0.0244888 1.79969e-21)
(1.03114 -0.00669891 5.94557e-21)
(1.03074 -0.00498473 -9.92596e-21)
(0.722537 -0.0412362 0)
(1.03251 -0.0109112 7.80627e-21)
(1.01408 0.0184337 9.2414e-22)
(1.02105 -0.000814903 -1.10712e-22)
(1.03399 -0.0166569 -2.499e-20)
(0.700771 -0.0953654 -2.56886e-21)
(1.04163 0.0739229 9.78989e-21)
(1.02462 0.00971537 0)
(0.543639 -0.0219355 -4.11186e-21)
(0.994031 -0.0153725 7.5531e-23)
(0.289016 -0.00135191 -5.63099e-22)
(1.01791 -0.0588342 -1.47469e-22)
(1.0255 0.0071323 1.01832e-21)
(0.867925 -0.0229142 -2.98564e-20)
(-0.0348243 -0.0162605 -3.11443e-20)
(0.600583 -0.0223507 -2.11323e-21)
(1.00784 -0.0441979 -4.93485e-22)
(1.06601 0.0157816 0)
(1.04557 0.00278556 -4.60342e-22)
(0.670648 -0.0271591 -1.82273e-21)
(1.01557 0.000169957 -1.81595e-21)
(0.889351 0.0633813 0)
(0.639189 -0.0219127 0)
(1.03841 0.00124023 1.53127e-22)
(1.02772 0.00372085 0)
(0.995389 -0.0531062 -4.43169e-21)
(0.997411 0.0589135 -5.3579e-21)
(0.150373 -0.0821934 3.25154e-21)
(1.02396 0.00553827 -1.57384e-21)
(1.01382 -0.00232398 0)
(0.671748 -0.0118636 1.30035e-20)
(0.642089 -0.022794 2.46398e-20)
(1.0329 -0.026477 1.92708e-20)
(1.02232 0.00886062 3.62103e-22)
(1.06188 0.00526483 -1.2202e-22)
(1.01364 -0.0587148 1.44898e-22)
(-0.000139817 0.0353362 1.69015e-20)
(1.03382 -0.0198556 4.60876e-21)
(0.98903 -0.00330622 -3.43352e-23)
(1.01257 0.00391397 1.14049e-22)
(1.03075 -0.00202231 -1.144e-22)
(1.02607 0.000222702 -8.29956e-23)
(0.997234 -0.03096 -1.17011e-23)
(1.0079 -0.000585865 0)
(0.819135 -0.0341415 0)
(1.059 -0.0892977 -6.94466e-22)
(1.0249 0.005787 1.59504e-22)
(1.06413 -0.0174435 0)
(1.04652 0.00292304 3.02667e-23)
(1.02679 0.0123682 1.48427e-23)
(0.541201 -0.0183989 -9.23516e-21)
(0.666827 -0.0366243 2.12801e-20)
(1.02405 -0.00241921 3.62181e-21)
(0.166115 -0.123818 -2.77834e-21)
(1.02888 0.00502689 1.78099e-23)
(1.02308 -0.00170038 8.98714e-22)
(1.04514 0.00217751 0)
(1.03104 -0.00186154 -1.8107e-25)
(1.02792 0.00879142 2.2385e-22)
(1.02511 0.00583989 1.33115e-22)
(0.58217 -0.0197813 1.45115e-22)
(1.02183 0.00388268 2.77521e-22)
(1.03399 -0.0131426 6.64281e-22)
(1.02188 0.00414829 -3.08664e-23)
(1.02169 0.00808913 0)
(0.997398 -0.0317317 1.38945e-23)
(-0.00556536 -0.0558368 -4.31556e-20)
(1.02765 -0.000114611 0)
(0.493035 0.0408772 9.02853e-21)
(1.01344 0.0142696 0)
(1.03961 -0.0282781 1.90979e-20)
(1.01785 0.00222304 3.33861e-21)
(1.01959 -0.00136234 3.52417e-21)
(0.524918 -0.0160171 0)
(1.02706 -0.00148836 1.20906e-21)
(1.01613 0.0295295 0)
(0.294373 0.0274924 1.42322e-20)
(0.720841 0.0438063 2.24885e-21)
(-0.0182774 0.0171693 0)
(1.01782 -0.00621733 -3.70163e-21)
(0.988205 -0.0328136 0)
(1.03375 0.0136655 -6.00334e-22)
(1.03223 -0.0103492 -1.24326e-20)
(1.02841 -0.01424 -1.90972e-21)
(0.140039 -0.0988813 -2.29334e-21)
(1.02634 -0.00141415 2.75726e-22)
(0.17604 -0.0532964 6.99924e-21)
(1.03802 0.000112996 2.84046e-22)
(1.03918 0.00104275 -1.62969e-22)
(0.0482529 -0.03602 -1.3096e-20)
(0.995435 -0.0215579 -6.68318e-23)
(1.04409 -0.0471751 0)
(1.02255 0.00667462 0)