/*--------------------------------*- C++ -*----------------------------------*\
| =========                 |                                                 |
| \\      /  F ield         | OpenFOAM: The Open Source CFD Toolbox           |
|  \\    /   O peration     | Version:  v2012                                 |
|   \\  /    A nd           | Website:  www.openfoam.com                      |
|    \\/     M anipulation  |                                                 |
\*---------------------------------------------------------------------------*/
FoamFile
{
    version     2.0;
    format      ascii;
    class       surfaceVectorField;
    location    "950";
    object      ddtCorrDdt0(Uf);
}
// * * * * * * * * * * * * * * * * * * * * * * * * * * * * * * * * * * * * * //

dimensions      [0 1 -2 0 0 0 0];


internalField   nonuniform List<vector> 
20580
(
(-0.0328297 0.0323174 -2.45418e-18)
(-0.033674 0.0335891 -3.94231e-18)
(-0.0339431 0.031922 -4.43538e-18)
(-0.000645938 0.00275444 5.31588e-18)
(-0.000549029 0.00284757 -4.75069e-20)
(-0.000711398 0.00290175 -2.15452e-18)
(-0.000743876 0.00261355 6.84298e-19)
(-0.000591184 0.00263458 -6.73112e-18)
(-0.015481 -0.0106677 -1.16577e-17)
(-0.0415181 -0.0152011 8.36666e-17)
(-0.0240136 -0.0142417 1.08305e-17)
(-0.000266221 3.54781e-05 -1.38742e-20)
(-0.000252668 3.72257e-05 1.347e-21)
(-0.000279509 2.16961e-05 7.66703e-20)
(0.000872596 0.00406435 5.08544e-18)
(0.00112688 0.00399764 -2.96548e-19)
(0.000931971 0.00378014 7.45305e-18)
(-0.000305635 -0.00302505 2.15633e-18)
(-0.000277644 -0.00341271 -1.10008e-18)
(0.000349679 -4.75366e-05 2.13823e-19)
(0.000339886 -5.38298e-05 -2.02745e-19)
(0.000263351 -3.92327e-05 -1.09571e-19)
(0.146125 0.00373955 6.92657e-19)
(0.146582 0.00375899 -1.42827e-18)
(0.150241 0.00340714 -3.11719e-19)
(-0.00017921 -0.000563696 -3.63258e-18)
(-0.000160741 -0.000409074 1.65746e-18)
(-0.000179831 -0.000387899 -2.07841e-18)
(0.0233213 0.000542141 8.09439e-18)
(0.021567 0.000354587 1.41962e-18)
(0.0228214 -0.00125078 2.51172e-17)
(-0.000304269 0.000409076 8.24206e-21)
(-0.000314613 0.000366747 -1.62194e-19)
(-0.000310982 0.000385488 5.28116e-19)
(-0.000200394 -0.00199949 2.1638e-18)
(-0.00023388 -0.00199163 2.91471e-18)
(-0.000220294 -0.00203478 3.58496e-19)
(0.160182 -0.00159496 -1.29017e-19)
(0.158814 -0.00298464 3.06286e-19)
(0.158594 -0.00127789 6.48054e-19)
(-0.011656 0.00494632 9.86755e-18)
(-0.0117888 0.00563036 2.7527e-19)
(-0.0110858 0.00544379 1.58133e-18)
(-0.0912588 -0.0367861 4.30708e-18)
(-0.089202 -0.0409856 -2.98142e-17)
(-0.0947811 -0.0393164 -1.56216e-17)
(-0.0948363 0.0195893 -4.54455e-17)
(-0.0897421 0.0228144 -5.58704e-17)
(-0.0950524 0.0211279 -4.0557e-17)
(0.000417593 0.000787655 -5.00574e-18)
(0.000397021 0.000850877 9.56698e-20)
(0.000425113 0.000787295 -4.50983e-18)
(-0.0113575 0.0619325 -9.31987e-19)
(-0.00986376 0.0630498 -2.52936e-18)
(-0.011957 0.0640909 -4.56909e-19)
(-0.0316253 0.0332668 8.64487e-18)
(-0.0315384 0.0313117 3.41652e-18)
(-0.0101236 0.0113047 1.39561e-17)
(-0.00923399 0.010998 1.08362e-17)
(-0.00996629 0.0102846 -4.45145e-18)
(0.00141705 -0.00251198 4.91502e-18)
(0.00121161 -0.00262155 2.06122e-18)
(0.00134552 -0.00236549 -9.2167e-19)
(-0.105985 0.0619383 -1.10892e-16)
(-0.0855541 0.0591803 -2.1472e-17)
(-0.0684441 0.0487012 -3.84334e-17)
(-1.95691e-05 6.76285e-05 7.27178e-21)
(-3.13866e-05 8.26265e-05 1.93017e-19)
(-1.99203e-05 5.67244e-05 1.14729e-19)
(0.127113 0.124704 1.47209e-17)
(0.146171 0.130296 4.51385e-18)
(0.137664 0.144066 1.83847e-17)
(-0.0350104 -0.0267729 -1.21353e-17)
(-0.0368063 -0.0283374 -2.68365e-18)
(-0.0374024 -0.0258537 -4.33789e-19)
(-0.0758121 0.0389663 2.30329e-20)
(-0.0677646 0.0379714 2.44635e-18)
(-0.0647067 0.0321442 -3.53071e-18)
(-0.0311974 0.0597582 6.5224e-19)
(-0.0318265 0.0586656 -2.32031e-18)
(-0.0313611 0.05978 -6.77149e-19)
(0.162244 -0.0122162 8.25333e-20)
(0.166388 -0.0125299 1.43147e-18)
(0.166961 -0.0114543 -4.41617e-18)
(0.000470073 -0.000136626 -3.08609e-19)
(0.000476864 -0.000228414 -7.31904e-19)
(0.000460652 -0.00020748 4.12362e-19)
(-0.0884649 0.00802145 -1.07758e-16)
(-0.0862804 0.0120043 -1.73403e-16)
(-0.0943338 0.00592926 1.22759e-17)
(-0.000519734 -0.0029829 -5.40826e-18)
(-0.000309803 -0.00280294 2.64335e-18)
(-0.0373446 0.0297012 1.66415e-19)
(-0.0385097 0.0286975 1.45707e-18)
(-0.0367683 0.0282376 -3.67741e-19)
(0.200913 -0.0323742 -2.2991e-18)
(0.202728 -0.0324228 6.12876e-19)
(0.201811 -0.0349512 1.63201e-18)
(0.0121214 0.00259916 -1.13017e-17)
(0.0121886 0.00342443 2.62348e-19)
(0.0128484 0.002618 -4.46119e-18)
(0.16448 -0.016769 -1.14485e-18)
(0.160105 -0.017613 -1.91969e-18)
(0.163662 -0.0181401 -1.99717e-17)
(-6.00111e-06 4.6043e-05 8.85998e-20)
(-2.01569e-05 8.16214e-05 -2.99616e-19)
(-0.307044 -0.0745656 -9.47143e-17)
(-0.288291 -0.0707589 3.88763e-18)
(-0.287699 -0.0764001 -6.91749e-17)
(-0.245284 -0.0247624 -4.96711e-18)
(-0.239901 -0.0205622 1.93085e-17)
(-0.239394 -0.0217678 1.29964e-18)
(0.000219672 -0.00179061 4.79107e-19)
(0.000216483 -0.00174444 8.24734e-20)
(0.000264359 -0.00175392 -2.8087e-19)
(0.136357 0.0194894 2.02363e-18)
(0.0803602 0.0300249 -2.49388e-18)
(0.146402 0.0157735 -4.27257e-18)
(0.158157 -0.0116324 2.11556e-18)
(0.157611 -0.0129585 8.0746e-18)
(-0.0602897 0.0240091 7.70071e-17)
(-0.061646 0.0253281 -5.10432e-17)
(-0.0518745 -0.0154207 -3.61689e-18)
(-0.0487682 -0.0194906 5.27734e-18)
(-0.053712 -0.0105828 5.02674e-17)
(0.149847 -0.00656889 -1.53712e-18)
(0.150221 -0.00572041 1.84258e-18)
(0.15508 -0.00638569 2.93398e-18)
(0.000358676 -0.00116527 3.65923e-19)
(0.000347594 -0.0011874 -3.95277e-19)
(0.000331899 -0.0011574 -1.12713e-18)
(-0.000185862 0.000109269 3.76952e-19)
(-0.000167601 8.5083e-05 -4.9318e-19)
(-0.0759674 -0.00495863 2.09224e-18)
(-0.0791473 -0.00545044 -2.91053e-18)
(-0.0758514 -0.00801297 7.64045e-18)
(0.00152891 -0.000134601 5.78007e-18)
(0.00145077 -0.000256297 7.30481e-18)
(0.00148687 2.13087e-05 -6.21509e-18)
(-0.000198788 -0.00200007 -3.83814e-18)
(-0.000198163 -0.00200098 -2.88348e-19)
(-0.176758 0.0347258 5.01428e-18)
(-0.166093 0.0334582 3.1211e-18)
(-0.180364 0.0229163 2.50554e-17)
(-0.000153159 -0.00188683 3.6306e-18)
(-0.000182688 -0.00190211 7.68517e-18)
(-0.000214729 -0.00187804 -4.94921e-18)
(-0.0908099 -0.0319145 9.53969e-19)
(-0.0857569 -0.0362686 4.25036e-18)
(-0.00629824 -0.00828932 -6.27751e-18)
(-0.00706461 -0.00855734 -9.70218e-19)
(-0.00641969 -0.00917336 4.5964e-18)
(0.180514 -0.00140791 -1.89548e-18)
(0.177888 -0.00048621 -1.39545e-18)
(0.179321 -0.000613832 2.67173e-18)
(0.000174838 -0.00182016 -1.50817e-19)
(0.00016855 -0.00179894 1.36292e-19)
(-0.0378715 0.0309501 -6.99462e-20)
(-0.0363383 0.0303598 -9.19522e-19)
(0.133944 0.0194918 1.03868e-17)
(0.163123 0.0111234 1.28346e-17)
(0.0695904 -0.033847 -5.15434e-19)
(0.0956563 -0.0387975 -1.18196e-18)
(0.0937673 -0.0372914 3.05253e-18)
(0.16433 -0.008222 -9.01398e-19)
(0.164401 -0.0087889 3.1345e-19)
(0.166885 -0.00917362 -2.24687e-18)
(-0.000299106 0.0004419 5.83128e-19)
(-0.000300956 0.000430827 -9.195e-19)
(-0.0774945 0.0358185 -2.75252e-18)
(-0.0743855 0.037676 -9.73674e-19)
(-5.09144e-05 0.000733702 9.72162e-19)
(-7.66488e-05 0.000729049 1.59391e-18)
(-6.80434e-05 0.000697984 -2.88417e-18)
(0.00150506 -0.000293669 -1.8665e-18)
(0.0016105 -0.000131377 1.6181e-18)
(-0.0334694 0.00900003 -5.53112e-18)
(-0.0340572 0.00653137 -4.60054e-18)
(-0.031425 0.00711473 -7.32228e-18)
(-0.0327898 0.0109393 7.74952e-19)
(-0.0356276 0.010789 -8.86306e-18)
(0.162597 -0.00689237 -4.74489e-18)
(0.150542 -0.0068823 -3.13715e-19)
(-0.00658624 0.0124168 1.46803e-17)
(-0.00723014 0.0128491 -1.58166e-18)
(0.000646368 -0.00142259 1.14277e-18)
(0.00059984 -0.0014751 -9.88156e-19)
(0.000618901 -0.00140318 -1.70059e-18)
(-0.0703178 -0.0233948 -5.80054e-18)
(-0.0674277 -0.0220636 -3.36405e-17)
(-0.0696103 -0.0198709 -1.83163e-17)
(-0.0959109 0.011322 -8.09686e-17)
(-0.0913168 0.014878 -3.75626e-17)
(-0.0978789 0.00984303 2.74942e-18)
(-0.0114087 0.0147228 3.91119e-18)
(-0.010552 0.0152032 -5.61177e-18)
(-0.0115728 0.0159754 -3.75484e-18)
(-0.00010325 -0.00203271 6.53643e-19)
(-0.00012584 -0.00200694 -7.42696e-19)
(-0.000154144 -0.00201801 -3.31268e-19)
(0.163128 -0.00853357 -3.94363e-19)
(0.152232 -0.00668395 -3.15983e-18)
(-0.0100686 -0.00589879 6.09555e-18)
(-0.00943425 -0.00535049 4.02168e-18)
(-0.0102291 -0.00510035 -2.21619e-18)
(0.000555743 -0.00221049 1.20893e-18)
(0.000479701 -0.0022504 -2.97378e-18)
(0.000541595 -0.00215164 -5.9785e-18)
(-0.0926619 0.01838 -4.08533e-17)
(-0.0930211 0.0154834 6.84358e-17)
(0.00029306 0.000430361 2.94292e-19)
(0.000316193 0.000400213 -3.90988e-18)
(0.000295444 0.000460333 -3.08494e-18)
(0.0984774 0.121987 -3.88896e-17)
(0.0909733 0.102224 -2.67971e-17)
(-6.52202e-05 -0.00148852 1.78586e-19)
(-9.07565e-05 -0.00143163 4.99042e-19)
(-9.85239e-05 -0.00146075 3.89596e-19)
(0.000648058 -0.00133841 -1.89747e-19)
(0.000664184 -0.00138691 1.53782e-18)
(0.0915492 0.00529172 8.13334e-18)
(0.0920735 0.0122171 3.69052e-17)
(0.100253 0.00556193 -7.68091e-17)
(0.0112688 0.00242234 -3.53878e-17)
(0.0119749 0.00154365 -1.72712e-17)
(0.154803 -0.00382791 -6.61131e-19)
(0.156737 -0.00231452 -3.42669e-19)
(0.155183 -0.00222407 -1.7278e-18)
(0.161932 -0.00838142 5.95733e-18)
(0.164686 -0.00986373 6.96239e-19)
(-0.0875139 0.0137483 1.89163e-17)
(-0.0921108 0.0126109 -5.77626e-17)
(-0.0958574 0.0094025 -4.41139e-17)
(0.00151589 -0.00265878 4.57272e-18)
(0.00162673 -0.00239475 -1.1114e-18)
(0.201472 -0.00597793 -5.32392e-18)
(0.201009 -0.00817852 -1.37052e-17)
(0.200781 -0.00862567 1.51895e-18)
(-0.000202931 -0.00099133 -2.35381e-18)
(-0.000217308 -0.000982529 1.88109e-18)
(-0.000218247 -0.000820532 5.07673e-18)
(-0.0886853 0.00556999 -4.27263e-17)
(-0.0839193 0.00978954 -1.95072e-18)
(-0.000168896 -0.00184429 5.82436e-18)
(-0.000141357 -0.00187545 -1.82165e-18)
(-0.000774935 -0.00290911 3.95127e-19)
(-0.000735581 -0.00323048 -2.44254e-18)
(-0.247357 -0.00702973 -2.4596e-19)
(-0.25188 0.000219345 -7.40646e-18)
(-0.0853043 0.0151755 -7.72972e-17)
(-0.0840737 0.0171156 3.79064e-17)
(-0.137208 0.0955258 1.84025e-18)
(-0.157239 0.0799894 5.03896e-18)
(-0.169661 0.0864837 -4.8676e-18)
(-0.048384 -0.0167448 -3.46964e-18)
(-0.0445463 -0.0175635 3.15169e-17)
(-0.0451782 -0.0147129 2.1701e-17)
(0.000229318 -0.00139688 1.77563e-19)
(0.000187102 -0.00144574 4.30776e-19)
(0.00022152 -0.00141069 4.43539e-19)
(-0.0871292 -0.0150935 8.8268e-18)
(-0.0882262 -0.0192588 -6.23048e-18)
(-0.0838116 -0.0182083 -1.04512e-18)
(0.0948141 0.0179467 -7.69871e-18)
(0.102468 0.0146083 1.29638e-17)
(0.104259 0.0096769 2.15265e-17)
(0.0257739 -0.045246 -8.96278e-17)
(0.02822 -0.0486838 -2.79255e-17)
(0.0238004 -0.0491491 -4.64306e-17)
(-0.0862252 -0.0112581 9.93913e-18)
(-0.0904778 -0.0123109 2.03884e-18)
(-0.00634809 0.00619988 -1.996e-18)
(-0.00602123 0.00611926 -1.28682e-17)
(-0.00621839 0.00577649 -1.51317e-18)
(-0.00816375 0.00588519 3.14604e-18)
(-0.00765018 0.00567189 -1.7289e-17)
(-0.00789652 0.00641692 5.05473e-18)
(-0.000104481 -0.00200729 2.09524e-18)
(-0.000120817 -0.00203835 -2.26692e-19)
(-0.000158047 -0.00198921 2.9908e-18)
(0.000446807 -0.00105959 -3.01836e-19)
(0.000448116 -0.00106371 -1.92672e-18)
(0.000464714 -0.00103117 1.86123e-18)
(-0.00473495 0.0159559 6.33693e-19)
(-0.00369327 0.0163517 2.17456e-17)
(-0.00457438 0.0170427 -1.36754e-18)
(0.000406907 -0.00106592 -1.45226e-19)
(0.000444572 -0.00110385 -3.31258e-19)
(-0.0941157 0.0126515 5.96061e-17)
(-0.10332 0.00782984 -4.42217e-17)
(-0.000741855 -0.00260095 3.85112e-18)
(-0.00101924 -0.00278982 3.23258e-18)
(0.000439207 0.000718565 2.51892e-18)
(0.000407456 0.000783125 -3.67771e-18)
(-0.000563477 -0.00493308 4.15386e-18)
(-0.000628321 -0.00529339 -6.56496e-18)
(-0.000929447 -0.00504494 5.16608e-18)
(0.000390515 -0.00115012 -2.27189e-18)
(0.000374749 -0.00118892 -2.5233e-19)
(0.0261821 0.0489429 -1.28552e-17)
(0.0235077 0.0503285 -7.70988e-18)
(0.0261797 0.0520065 6.92952e-18)
(0.0149419 0.0189962 1.50107e-17)
(0.0135852 0.0185488 1.00203e-17)
(0.0146667 0.017587 2.26692e-17)
(-0.0467911 0.0230532 2.24268e-18)
(-0.0481607 0.0222063 5.53129e-18)
(-0.0482721 0.02421 3.20839e-18)
(-0.00562201 -0.00798581 1.16278e-18)
(-0.0061685 -0.00753649 -6.08892e-18)
(0.000329066 -0.000454591 8.82658e-19)
(0.000310131 -0.000483332 -1.08025e-18)
(0.000329087 -0.000458519 -2.59464e-19)
(0.00036233 -4.73266e-05 -1.29854e-18)
(0.000358367 -5.89951e-05 5.8002e-19)
(0.0185481 -0.00717824 2.72902e-17)
(-0.00365646 -0.00255904 1.12198e-17)
(-0.0708416 -0.0263063 3.03451e-19)
(-0.0710925 -0.0240735 -1.45873e-17)
(-0.0332174 -0.0281544 1.75252e-17)
(-0.0347564 -0.0252498 2.22552e-17)
(-0.0356179 -0.0292087 2.37487e-17)
(0.000464179 0.000470063 1.61238e-18)
(0.000470204 0.000379867 -7.01201e-19)
(0.00045464 0.000470842 -1.40336e-18)
(0.000511778 -0.00166287 4.8274e-19)
(0.000508994 -0.00166888 1.38089e-18)
(0.00047563 -0.00166711 2.43962e-18)
(0.162915 -0.013391 3.00455e-19)
(0.166263 -0.0147711 1.11319e-18)
(0.164957 -0.0135996 7.01992e-19)
(-0.0210102 0.0514297 5.19755e-21)
(-0.0199679 0.0526003 1.28143e-18)
(-0.0218666 0.0527543 1.82021e-19)
(-0.0104663 0.0188587 7.8298e-19)
(-0.0102062 0.0176456 9.56814e-18)
(-0.0116768 0.0181918 3.49758e-17)
(0.000267255 -0.00134251 -2.03908e-19)
(0.000210312 -0.00136869 -3.46674e-19)
(0.0117778 -0.0139623 9.615e-18)
(0.0119098 -0.0123773 -8.78303e-18)
(0.0106704 -0.0132916 1.56243e-17)
(0.201918 -0.0259127 -2.46368e-18)
(0.195918 -0.0236801 -2.75564e-18)
(0.202912 -0.0245801 -9.24811e-19)
(-0.0152629 0.00972703 -3.55022e-18)
(-0.0158585 0.0105155 9.43161e-19)
(-0.0145374 0.0104544 -7.98165e-18)
(0.00100965 -0.00268104 -6.42218e-18)
(0.00105078 -0.0028412 -1.41858e-18)
(0.00543525 0.00330229 -1.18179e-18)
(0.00523634 0.00388971 -1.25242e-18)
(0.00494593 0.00335372 1.15537e-18)
(-0.310259 -0.0711256 -5.52935e-17)
(-0.306579 -0.0767783 8.05964e-17)
(0.200074 -0.0310947 -4.87487e-19)
(0.193444 -0.0283136 -1.8426e-18)
(0.0250345 0.000394278 -1.67397e-17)
(0.0237242 0.00192853 -5.82654e-17)
(-0.176429 0.045728 7.858e-18)
(-0.188744 0.0444286 -4.12765e-19)
(-0.204594 0.0303468 2.74618e-18)
(-0.00637402 0.0115257 1.29106e-17)
(-0.0950687 0.0118549 -6.17557e-17)
(-0.0887244 0.0163183 -6.17245e-17)
(-0.00424135 0.00335837 4.99211e-18)
(-0.00431512 0.00382927 -1.97558e-17)
(-0.00388498 0.0036102 1.78465e-17)
(-0.0165639 0.00797079 3.06097e-18)
(-0.0162139 0.00702563 -9.74498e-18)
(-0.0174198 0.00707154 -7.86851e-18)
(0.0909458 -0.00198612 -1.24675e-16)
(0.0859299 0.00482957 -3.51774e-17)
(-0.000627487 -0.00179909 -2.21981e-18)
(-0.000587257 -0.00177238 -2.51462e-18)
(-0.000567354 -0.00182071 -7.48021e-18)
(-0.00017911 -0.00102356 9.29269e-19)
(-0.000174821 -0.00113078 -9.26209e-18)
(-0.0176649 0.0123594 1.74747e-17)
(-0.0183571 0.0139304 1.14104e-17)
(-0.0190152 0.0124063 1.70739e-18)
(0.0148304 0.0975203 8.47824e-19)
(0.0186428 0.1028 -1.28228e-19)
(0.0128963 0.100423 1.48103e-17)
(6.44318e-05 -0.00239615 2.03062e-18)
(2.858e-05 -0.0024745 -6.1285e-19)
(-5.77083e-05 -0.00244044 3.67898e-21)
(0.000276302 0.00044729 2.00832e-18)
(0.000290579 0.000414293 4.95247e-20)
(-0.0822021 0.0155401 -9.79233e-17)
(0.173599 -0.00214876 -4.986e-18)
(0.171657 -0.0026002 1.11244e-18)
(0.176499 -0.00313031 5.42118e-19)
(0.011825 -0.0153585 -1.27796e-17)
(0.0131465 -0.0143802 -1.14501e-18)
(-0.0837578 -0.0103357 -6.52243e-19)
(-0.0864586 -0.00785695 2.74975e-18)
(0.0286856 0.047536 1.08372e-17)
(0.0256446 0.0464458 1.29911e-17)
(0.0163333 0.0194493 7.29702e-18)
(0.0151291 0.0204785 -1.89931e-18)
(-0.012797 0.056452 2.17571e-18)
(-0.0109735 0.0577563 2.06052e-19)
(-0.0113883 0.0554139 4.5262e-18)
(-0.000270666 -0.00178146 -5.01671e-19)
(-0.000299198 -0.00180174 2.04214e-19)
(-0.000318665 -0.00173515 2.73901e-18)
(-0.000141843 -0.00169719 -4.22902e-19)
(-5.434e-05 -0.00173559 -3.85155e-18)
(-0.000109332 -0.00161237 -1.86579e-18)
(-0.00028332 0.000410669 -6.01795e-20)
(-0.000283787 0.000421197 -2.90622e-19)
(-0.000272886 0.000428133 -7.44231e-19)
(-0.250908 -0.0313749 -4.83549e-17)
(-0.248465 -0.0288086 3.85159e-18)
(-0.0146394 0.00712355 3.36088e-18)
(-0.0153171 0.00692665 -3.87406e-18)
(-0.0146554 0.00631318 3.76116e-18)
(-0.00151678 -0.000664903 1.63091e-18)
(-0.00161545 -0.000779887 -4.59095e-20)
(-0.00168236 -0.000601607 -4.24085e-18)
(-3.99861e-05 0.000145476 3.97988e-20)
(-4.20591e-05 0.000128079 -1.66965e-19)
(-5.9237e-05 0.000155055 3.80675e-19)
(0.165875 -0.0143571 5.64537e-19)
(0.166238 -0.0134597 2.55445e-18)
(0.16136 -0.0146318 -6.5127e-18)
(-0.00558309 0.0155696 1.19133e-17)
(-0.00470049 0.0151793 2.97835e-18)
(-0.0724138 -0.00453349 8.77561e-18)
(-0.0750804 -0.00163273 4.43095e-18)
(0.160489 -0.000923023 -7.64718e-19)
(0.1615 -0.00166276 -4.05437e-19)
(0.141373 0.00365133 -2.01682e-18)
(0.145651 0.00280972 3.5566e-19)
(0.142104 0.00403197 -4.09297e-18)
(0.1411 0.00398932 -1.65441e-19)
(0.137482 0.00414045 6.80019e-19)
(-0.197447 0.0317273 -5.72541e-18)
(-0.177702 0.0514816 -2.84411e-18)
(-0.000210109 -0.00475587 -3.58593e-18)
(-0.000511558 -0.0046217 1.31601e-17)
(-0.029635 0.0706573 1.95901e-18)
(-0.0290837 0.0720984 3.77258e-18)
(-0.0322378 0.0713146 5.12702e-18)
(-0.000286147 0.000465222 1.37822e-19)
(-0.000278371 0.000486457 -5.95749e-19)
(-0.000278499 0.000474926 -2.20855e-18)
(0.000338383 -0.000413917 1.34357e-18)
(0.000307269 -0.000440697 2.2374e-18)
(-0.00145746 0.0219924 5.47881e-18)
(-0.00020534 0.022006 -1.31027e-17)
(-0.000944942 0.0207875 -5.75471e-18)
(-0.000196273 3.89381e-05 -4.95317e-20)
(-0.000183536 4.74712e-05 -7.04119e-20)
(-0.00018227 3.39575e-05 -9.07131e-20)
(-0.115546 0.113227 -1.34943e-17)
(-0.106137 0.108019 7.66988e-18)
(-0.0525647 0.0434257 -7.37199e-19)
(-0.0536551 0.0424821 -3.51427e-19)
(-0.0535827 0.0429754 -1.5935e-18)
(-0.0749665 0.00955925 3.92211e-19)
(-0.0734354 0.012253 -5.36864e-18)
(-0.0777858 0.0117014 -1.6247e-17)
(0.000356133 -0.000378354 3.45048e-19)
(0.000357244 -0.000389821 -1.20768e-18)
(-0.00951129 -0.00725594 -4.03859e-18)
(-0.00977644 -0.00641237 -2.4604e-18)
(-0.00892858 -0.00669523 -4.87319e-18)
(-0.0790681 0.00712309 3.40814e-18)
(-0.0744857 0.00502637 6.83493e-18)
(-0.0223575 0.0504766 -2.48034e-18)
(-0.0204934 0.0500794 6.88143e-20)
(-0.0522023 -0.0186032 -4.31518e-18)
(0.000116585 -0.00457034 -5.24827e-18)
(0.000164115 -0.00427451 4.77339e-18)
(0.000451725 -0.00434938 2.98944e-18)
(-0.015958 0.00874839 6.21784e-18)
(-0.0146272 0.00881038 1.86904e-18)
(-0.0736169 0.0229523 4.50072e-17)
(-0.0708715 0.0228248 1.26816e-16)
(0.170685 -0.00168623 -3.36697e-18)
(0.176053 -0.00198859 -3.17997e-18)
(-0.0393795 0.0277461 -4.92392e-19)
(-0.0401247 0.0292172 4.00548e-18)
(-0.00255976 0.00112285 -3.37409e-18)
(-0.00247043 0.00125259 -8.13919e-19)
(-0.00272773 0.00140735 6.44823e-18)
(-0.000260344 -0.00189037 -2.209e-18)
(-0.000254098 -0.00189548 -3.64315e-18)
(-0.000244705 -0.00193031 -6.30788e-18)
(0.000464214 -0.000736412 -8.0277e-20)
(0.000454071 -0.00075762 8.09089e-19)
(0.000464624 -0.000694375 9.63126e-19)
(0.0172727 0.0949913 -4.05589e-19)
(0.013432 0.0943379 -1.4318e-17)
(-0.0141213 0.00793307 1.05911e-18)
(-0.0136001 0.00709259 -7.86975e-18)
(0.154973 -0.00214464 3.46767e-19)
(0.147354 -0.00330666 5.1095e-19)
(0.000582649 0.00407124 -1.3905e-18)
(0.00071096 0.00432915 1.1524e-18)
(8.87747e-05 -0.00233924 1.38202e-18)
(0.000176686 -0.00232836 3.47676e-19)
(-0.0892456 -0.022883 -5.28675e-18)
(-0.0902658 -0.0274812 -3.63091e-18)
(-0.0852135 -0.0269989 9.15236e-18)
(-0.0402149 0.0268518 4.64547e-19)
(-0.0386925 0.0263754 3.28628e-18)
(-0.000170645 0.000828408 5.11559e-19)
(-0.000194157 0.000860004 -4.91945e-18)
(-0.000150569 0.000899585 1.2193e-18)
(0.000568635 0.000957805 1.89364e-18)
(0.000581701 0.000849047 1.33973e-18)
(0.000539383 0.000956675 9.36626e-19)
(-0.00814007 0.0127286 -3.66144e-17)
(-0.00845517 0.0116593 -4.99426e-18)
(-0.00926643 0.0125512 1.13783e-17)
(0.0909563 -0.00773773 -3.03814e-17)
(0.0891843 -0.0145252 2.06353e-17)
(0.0844209 -0.00778379 1.13446e-16)
(-0.0595243 0.114792 -2.13708e-18)
(-0.0644077 0.11986 6.56349e-18)
(-0.0631144 0.114882 -6.01265e-18)
(0.110774 0.0310368 1.70617e-18)
(0.10455 0.0330037 1.25444e-18)
(0.0378152 0.048683 2.76972e-18)
(-0.0112936 0.00412708 2.4967e-18)
(-0.0122459 0.0042801 1.57688e-18)
(-0.0570283 0.015317 6.57182e-18)
(-0.0627476 0.0302949 -3.41836e-17)
(-0.072398 0.0269288 1.82725e-18)
(-0.054057 0.111128 1.04264e-18)
(-0.0497635 0.108699 -4.46252e-20)
(-0.000584686 -0.000692208 1.73757e-18)
(-0.000497186 -0.000718063 -4.54221e-18)
(-0.000515725 -0.000621608 -5.87136e-18)
(-0.0201012 0.0012727 8.39012e-19)
(-0.0195114 0.00220997 1.07116e-18)
(-0.0191344 0.00103241 6.44817e-19)
(0.145765 0.00351376 -1.30508e-18)
(0.142853 0.00370248 -2.6265e-18)
(0.145734 0.00328935 -1.27471e-19)
(0.00158448 0.00317377 3.79253e-18)
(0.00181365 0.00317935 -1.09956e-17)
(0.00166173 0.0029542 -5.22564e-18)
(-0.0897098 -0.0467028 4.96652e-18)
(-0.0900458 -0.0513327 3.11072e-17)
(-0.0941431 -0.0468723 2.2538e-17)
(0.000454225 -0.00166116 -1.12582e-18)
(0.000484164 -0.00160109 -6.75314e-19)
(0.100552 -0.00759858 -8.36335e-17)
(-6.2518e-05 0.000648116 9.56562e-19)
(-8.39339e-05 0.000673125 1.41019e-19)
(-8.08666e-05 0.000700576 -1.77591e-18)
(0.0122877 0.00447267 7.54953e-18)
(0.0123358 0.00532664 -1.57903e-17)
(0.0130556 0.00443567 3.17812e-17)
(0.000594726 -0.00236244 4.33816e-18)
(0.000726624 -0.00231715 -1.52844e-18)
(0.000618746 -0.00245916 4.34339e-18)
(-0.00017675 -0.00201844 -2.72418e-19)
(-0.000197611 -0.00203716 -7.07759e-18)
(-0.033568 0.0411358 2.06284e-18)
(-0.0345683 0.0416471 -2.32471e-19)
(-0.0335838 0.0422489 3.52397e-19)
(0.000151182 0.00132058 -5.35901e-19)
(0.000161551 0.00126903 1.15635e-18)
(9.24319e-05 0.00129819 2.62299e-18)
(-0.0185213 0.0480512 2.24978e-17)
(-0.0182608 0.0517252 6.34026e-18)
(0.000338026 -0.00037064 -7.94804e-20)
(0.000360883 -0.000330614 -1.24887e-18)
(-0.0305531 0.0339688 1.43976e-18)
(-0.0294072 0.034674 9.09991e-19)
(-0.0292298 0.033095 -8.03549e-19)
(0.15319 -0.00393093 1.04732e-18)
(0.145008 -0.00401925 -3.58366e-19)
(-0.161304 0.0739105 1.37488e-18)
(-0.178279 0.0576816 -2.4316e-18)
(-0.139491 0.0794891 1.03162e-17)
(-0.00295364 0.000809341 5.18899e-18)
(-0.00288901 0.0005539 9.11119e-18)
(-0.00318644 0.000652464 1.24695e-17)
(-0.020645 0.000284667 -4.51962e-18)
(-0.0211534 0.00156405 5.95738e-19)
(-3.17662e-05 0.000494118 7.36891e-19)
(-1.7077e-05 0.00039174 4.98628e-19)
(-1.93618e-05 0.000403969 1.72625e-19)
(-0.0167459 0.0112651 -3.30908e-19)
(-0.0162878 0.0125983 -8.16741e-18)
(-0.000290462 -0.000518963 -3.86426e-19)
(-0.000307775 -0.000388247 1.37521e-19)
(-0.000299828 -0.000519754 7.40827e-19)
(0.01141 0.00438005 -2.49192e-17)
(-0.0630859 -0.0154984 2.13577e-17)
(-0.0676828 -0.0153597 -3.4041e-17)
(-0.0647091 -0.00435127 1.78484e-17)
(-0.00275561 0.000972908 -6.66691e-18)
(-0.00247061 0.000920822 6.68057e-18)
(0.00138977 0.0030853 3.45589e-18)
(0.00139758 0.00334974 5.30577e-18)
(-9.05348e-07 0.000776813 7.83527e-19)
(-7.72255e-06 0.000765681 1.83309e-18)
(0.147102 0.01391 2.99431e-18)
(0.120662 0.02495 9.30117e-19)
(0.000467708 -6.06318e-05 -1.41112e-18)
(0.000454457 -5.13301e-05 2.17944e-18)
(-0.140729 0.0661984 -4.15051e-17)
(-0.1517 0.0619885 -6.46734e-17)
(0.0958172 0.0361613 -2.12496e-18)
(0.0875673 0.0394363 -3.60881e-18)
(0.0237845 0.0549298 -1.56166e-19)
(0.0233883 -0.0419362 -1.69478e-17)
(0.0274354 -0.0413892 -3.63499e-17)
(-4.02964e-05 0.000163039 -2.66911e-19)
(-2.31515e-05 0.00012597 -1.3362e-19)
(-0.117291 -0.0548705 -5.96634e-18)
(-0.180844 -0.0327533 3.99056e-17)
(-0.200731 -0.0197064 -4.39008e-18)
(0.160297 -0.00841414 1.118e-19)
(0.1599 -0.00802334 -4.77293e-18)
(0.161757 -0.00925645 -9.82577e-18)
(0.144671 -0.0068895 -6.89096e-18)
(0.149931 -0.00770777 -8.40328e-18)
(-0.0850176 -0.04605 -2.37618e-17)
(-0.0037788 0.00811259 1.44979e-18)
(-0.00320067 0.00826441 1.82203e-17)
(-0.00350092 0.00769625 -7.19909e-19)
(-0.0205725 0.0155084 1.51846e-18)
(-0.0190107 0.0154186 7.43948e-18)
(-0.0196986 0.0169202 -1.59428e-18)
(-0.0335942 0.0399722 1.29408e-18)
(-0.0325981 0.0405413 6.30177e-19)
(-0.00993804 -0.00794966 1.28771e-18)
(-0.00898474 -0.00796952 3.7887e-18)
(-0.0434803 -0.0200985 1.77377e-17)
(-0.0412512 -0.0175704 -1.83948e-17)
(0.00079583 -0.00600175 1.72334e-18)
(0.000352783 -0.00581946 -5.56746e-18)
(0.000777367 -0.00553199 3.78212e-18)
(0.194756 -0.00367033 -1.46415e-18)
(0.195596 -0.00362579 -1.39451e-17)
(0.196615 -0.00389586 4.3137e-18)
(-0.0146635 0.0420943 1.0986e-18)
(-0.016205 0.0414703 -4.23083e-18)
(-0.0145699 0.0406106 -5.21115e-18)
(0.00012992 -6.37044e-05 -1.1316e-18)
(0.000165593 -9.5109e-05 1.78568e-19)
(0.000138789 -9.56062e-05 8.63975e-19)
(-0.0024007 0.00340935 -2.06982e-18)
(-0.00234474 0.00315689 3.91506e-18)
(-0.0021022 0.00335228 6.2856e-18)
(-0.0925156 -0.0197185 -2.85575e-18)
(0.166094 -0.0152913 2.17555e-18)
(0.169883 -0.014187 1.24556e-17)
(0.183727 -0.0102006 6.34797e-18)
(0.180644 -0.0132247 2.80193e-17)
(0.180412 -0.0134438 3.34952e-17)
(0.000442906 -0.000772658 5.82585e-19)
(0.000445959 -0.000700904 -2.08723e-18)
(-0.0113529 0.0203678 -2.3681e-17)
(-0.000210835 -0.000973783 4.91467e-19)
(-0.000205512 -0.000963163 2.79645e-18)
(-0.000218338 -0.000814078 4.17317e-18)
(-0.0443293 0.034925 4.98336e-19)
(-0.0429616 0.0355677 -2.3053e-18)
(-0.0430044 0.0339456 3.82825e-18)
(-0.0184802 0.0530116 3.55749e-19)
(-0.0173513 0.0539226 4.25833e-18)
(-0.0173544 0.0521974 4.82194e-19)
(-0.00242687 0.00364736 8.75279e-20)
(-0.00265709 0.00343282 -4.9024e-18)
(-0.00646913 0.0155332 2.81927e-18)
(-0.00641184 0.0164651 1.11224e-17)
(-0.013084 0.0428061 6.12546e-18)
(-0.0146119 0.0439489 1.39689e-18)
(-4.47371e-05 -0.00192201 -3.3664e-19)
(-1.93587e-05 -0.00187923 -9.45366e-20)
(-6.01188e-05 -0.00189911 6.0017e-19)
(-0.00673512 0.00604485 -6.06669e-18)
(-0.00670333 0.00669317 -6.91687e-18)
(-0.06347 -0.00243808 3.64329e-19)
(-0.0666469 -0.00342881 -1.63018e-17)
(-0.0638775 -0.00535628 7.79865e-19)
(-0.0356369 0.0540185 -2.10247e-19)
(-0.0348079 0.0550296 2.39696e-19)
(-0.0345085 0.0535342 -1.22784e-18)
(-0.000224066 0.000504647 -1.56761e-18)
(-0.000223766 0.000561543 1.51439e-18)
(-0.00022395 0.000578979 -1.61438e-18)
(-0.000182763 -0.00199417 5.24417e-18)
(-0.00018967 -0.00202498 -1.58965e-18)
(-0.00308218 0.00106655 -2.11333e-17)
(0.14078 -0.000209246 2.93088e-19)
(0.139471 0.000831011 1.32689e-18)
(0.142406 -0.00188971 1.71924e-21)
(0.0412632 -0.00977009 -1.42677e-18)
(0.105365 0.00315025 -1.10808e-17)
(0.0296102 -0.00666531 -3.47217e-17)
(-0.0125283 0.0121331 1.17839e-18)
(-0.0117215 0.0116046 1.24435e-18)
(-0.0117389 0.012738 1.8321e-18)
(0.00044838 0.000540068 4.12214e-18)
(0.000469453 0.000459556 1.09667e-18)
(-0.0233209 0.0497074 -6.20577e-19)
(-0.0239237 0.0508426 -3.34468e-18)
(-0.0141944 0.0550978 -3.86885e-18)
(-0.0154492 0.0542027 1.1382e-18)
(-0.0145206 0.0533808 -2.36237e-19)
(-0.0420399 0.0231645 -3.09133e-19)
(-0.043189 0.0218774 -1.84113e-18)
(-0.0414902 0.0215858 -4.34254e-18)
(-0.00736448 0.0150919 -1.0364e-17)
(-0.00637918 0.0146768 -9.57351e-18)
(0.141819 -0.000990012 -4.30614e-19)
(0.140955 0.00119261 -3.61945e-19)
(0.146379 0.00504027 2.38383e-18)
(0.148913 0.00409718 7.59843e-18)
(0.147342 0.00255671 1.77274e-17)
(-0.00138283 0.00444697 1.85698e-18)
(-0.00114365 0.00452411 1.10972e-17)
(-0.00138255 0.00466496 4.77483e-18)
(-0.00956256 0.00359109 -3.45249e-18)
(-0.0100843 0.00396966 -9.20097e-18)
(-0.0101079 0.003251 -6.63345e-18)
(-0.261833 -0.0497953 1.33214e-18)
(-0.259213 -0.0513297 6.83343e-17)
(-0.213191 -0.0493233 -6.47797e-17)
(0.000500362 -0.000883232 -3.78269e-19)
(0.000502383 -0.000863418 1.53045e-18)
(0.000496824 -0.000940516 -7.19071e-19)
(-0.000285423 0.000398317 -1.57554e-19)
(-0.000284972 0.000386211 -1.59457e-19)
(-0.000273301 0.000402032 -2.57696e-19)
(-0.0409559 0.0241525 6.98485e-18)
(-0.0426631 0.0246512 5.54328e-18)
(0.0186548 -0.00567571 2.32828e-17)
(0.0181255 -0.00429777 -4.82567e-18)
(0.0171387 -0.00542682 1.39099e-17)
(0.000472135 1.68826e-05 7.56065e-19)
(0.000468475 0.000101174 1.90349e-18)
(0.000460131 0.000101117 -1.64287e-18)
(-9.59252e-05 0.000636473 4.0623e-19)
(-9.11992e-05 0.000671237 5.66671e-19)
(-6.13604e-05 0.000617407 -2.3507e-19)
(-0.000274237 -0.000647321 -8.07564e-19)
(-0.000299978 -0.0004968 1.91974e-19)
(-0.000295183 -2.2569e-07 -9.77306e-20)
(-0.000288319 -8.20622e-06 8.3369e-20)
(-0.000331863 4.71825e-06 1.83109e-19)
(-0.00583449 0.00654492 8.26059e-18)
(-0.00587942 0.00713006 -6.05624e-18)
(-0.00646658 0.00672938 2.69414e-18)
(-0.000296886 0.000385059 -2.41728e-19)
(0.145779 0.00371573 7.27777e-20)
(0.14264 0.00396513 -1.03734e-18)
(-0.0103747 0.0120798 -4.67324e-18)
(-0.0109792 0.0112798 7.70496e-18)
(0.000380371 -0.00152847 7.5609e-19)
(0.000343101 -0.00153334 1.15131e-18)
(0.000353495 -0.00155584 1.80378e-19)
(0.168755 -0.0157794 -1.01138e-18)
(0.160852 -0.0123017 -3.27466e-19)
(0.161036 -0.0113882 2.39687e-18)
(-0.000247615 -0.00191245 -1.83147e-18)
(-0.000231853 -0.00192482 1.76818e-18)
(-0.000211848 -0.00195195 -6.07111e-18)
(-0.031497 0.0350035 1.55369e-18)
(-0.019929 0.0369123 -2.47404e-18)
(-0.0116292 0.021316 5.02248e-17)
(-0.00498881 0.0330033 2.57503e-17)
(-0.000656853 -0.0018138 2.03294e-18)
(-0.000654422 -0.00185307 -3.04103e-19)
(-0.000207898 -0.00189162 1.04397e-17)
(-0.000261458 -0.00182194 -5.0211e-18)
(-0.00995023 0.0130519 -7.99785e-18)
(-0.0108442 0.0131663 -6.42942e-18)
(0.151073 -0.00488528 -4.54151e-19)
(0.150775 -0.00466504 -2.56581e-19)
(0.153527 -0.0047228 -7.28037e-19)
(-0.20591 -0.0792435 9.11098e-18)
(-0.19943 -0.0716923 2.80997e-18)
(-0.198832 -0.0739675 4.99417e-17)
(-0.00640635 0.0239459 1.33302e-17)
(-0.00576694 0.0252637 6.06275e-18)
(-0.00507867 0.0237806 2.22927e-18)
(-0.000276915 2.83533e-05 3.57305e-20)
(-0.000272556 3.99072e-05 1.42979e-20)
(-0.0299858 0.0689968 3.68162e-18)
(-0.0285729 0.0695156 9.24039e-19)
(-0.000295328 0.000459741 -7.95209e-19)
(-0.00518145 0.0263876 4.29191e-18)
(-0.00394908 0.0264095 3.44268e-18)
(-0.0046214 0.0277448 1.11222e-18)
(-0.0367952 0.0372251 -5.55169e-17)