/*--------------------------------*- C++ -*----------------------------------*\
| =========                 |                                                 |
| \\      /  F ield         | OpenFOAM: The Open Source CFD Toolbox           |
|  \\    /   O peration     | Version:  v2012                                 |
|   \\  /    A nd           | Website:  www.openfoam.com                      |
|    \\/     M anipulation  |                                                 |
\*---------------------------------------------------------------------------*/
FoamFile
{
    version     2.0;
    format      ascii;
    class       volVectorField;
    location    "950";
    object      U;
}
// * * * * * * * * * * * * * * * * * * * * * * * * * * * * * * * * * * * * * //

dimensions      [0 1 -1 0 0 0 0];


internalField   nonuniform List<vector> 
13851
(
(1.02534 -0.011722 0)
(1.07441 -0.00471615 8.2526e-21)
(1.07273 -0.00441219 0)
(-0.414849 -0.0653515 0)
(1.00286 -0.0006343 2.78387e-22)
(1.08841 -0.0110291 0)
(1.05789 0.0246227 1.12981e-20)
(1.01443 -0.000486802 0)
(0.526865 -0.0410942 2.92739e-21)
(0.993321 -0.0199162 0)
(1.22685 -0.000191079 3.47705e-20)
(1.00321 -0.0131424 0)
(0.986233 -0.0318114 0)
(0.442802 -0.00875095 6.14392e-21)
(1.08354 0.0141511 0)
(1.19386 -0.0713738 0)
(-1.16577 -0.0173605 -1.09045e-19)
(1.03919 -0.0100662 0)
(0.966885 0.126512 -7.79569e-21)
(1.02567 -0.00695242 -3.26488e-21)
(1.08351 0.0186763 0)
(1.07078 -0.082055 -1.36662e-20)
(0.1712 -0.100212 8.78653e-20)
(1.00009 -0.000267073 -5.06911e-23)
(1.18302 0.471218 4.40737e-21)
(1.13769 0.000164772 0)
(1.06306 -0.131346 0)
(0.918016 0.0359985 -5.2233e-21)
(0.437415 -0.0610151 0)
(1.02329 -0.00730994 -2.06185e-21)
(-0.372843 -0.0914018 4.72081e-19)
(1.05805 0.0237084 -1.82605e-20)
(1.03683 -0.024703 0)
(0.784581 -0.0538449 -9.89084e-22)
(1.16857 -0.0170067 3.07858e-20)
(0.431066 -0.0628269 0)
(1.00005 -0.000235366 0)
(1.18643 0.0143405 3.59297e-19)
(0.384819 0.463971 -2.26583e-20)
(1.01778 -0.0397521 -2.22014e-22)
(0.862548 -0.0277322 1.69e-20)
(0.469634 -0.0660874 0)
(-0.736624 -0.00707805 0)
(1.19601 -0.590977 1.32024e-19)
(0.519468 -0.0682419 5.42539e-21)
(1.02131 -0.0208242 2.73713e-21)
(1.0165 0.000474978 4.50565e-21)
(1.13472 -0.0773804 2.33659e-20)
(1.06368 -0.0424793 2.12568e-20)
(0.985542 -0.0310491 0)
(0.260243 0.096994 -9.0457e-20)
(0.977077 -0.0267506 -1.34061e-20)
(1.18633 -0.0697755 0)
(1.08431 0.0278819 0)
(0.372723 -0.0174891 1.28637e-22)
(1.01681 -0.0403695 3.05071e-22)
(1.0326 -0.0240966 0)
(0.8426 -0.0213353 -2.95161e-20)
(1.04385 -0.130807 0)
(0.533831 0.00309425 0)
(1.00293 -0.0124911 2.08926e-21)
(1.06551 -0.124473 0)
(0.996135 -0.0122669 7.61022e-21)
(1.06515 -0.0445265 -5.77234e-21)
(0.927514 -0.540391 -1.48543e-20)
(0.905096 -0.563554 1.30055e-20)
(0.507629 0.00622594 0)
(0.704726 -0.184556 -6.61567e-20)
(1.03211 -0.0349864 0)
(-0.451651 -0.139781 0)
(-0.603777 -0.023027 0)
(1.07907 0.0230865 -2.04685e-20)
(1.00142 -0.0343547 0)
(0.512895 0.00420171 2.54227e-20)
(1.08602 0.0204305 1.11304e-20)
(1.04421 -0.070406 -5.16671e-21)
(-1.08095 -0.0213475 8.43725e-20)
(1.02147 -0.00235453 0)
(1.1568 0.440915 -1.41341e-20)
(1.01042 -0.0219114 -4.0635e-22)
(1.03357 -0.0350511 0)
(1.40762 0.238711 1.50606e-19)
(1.16689 -0.0218101 4.05245e-20)
(0.457138 -0.00747317 1.6826e-21)
(0.529359 0.00219509 -2.05865e-20)
(-0.451918 -0.0666234 1.5675e-19)
(1.0751 -0.0820372 -8.58783e-21)
(0.233829 -0.0293628 -1.74617e-22)
(0.995156 -0.0234984 -4.96429e-21)
(-0.356755 -0.0991771 -1.825e-19)
(0.975523 -0.0261786 1.01589e-20)
(1.05964 0.0233291 1.2545e-20)
(-0.193821 0.0440047 2.72775e-20)
(-0.550711 -0.0702046 -1.09346e-21)
(0.570884 0.333229 0)
(1.18417 -0.54148 0)
(1.01704 -0.024816 0)
(1.16014 -0.0808767 -2.68892e-20)
(0.57074 0.0375511 -3.03727e-20)
(1.42846 -0.138556 1.29519e-19)
(1.1553 -0.0871465 1.27118e-20)
(0.826202 -0.163883 0)
(0.831277 -0.199657 6.36533e-20)
(0.997681 -0.0370962 1.67245e-21)
(1.02457 -0.018705 0)
(1.09091 0.0310189 5.67961e-21)
(1.02381 -0.0188437 -1.67864e-21)
(-0.539006 -0.033172 -9.89195e-20)
(1.05965 0.0223296 -2.00924e-20)
(1.03811 -0.009813 0)
(1.07225 -0.13159 1.44337e-21)
(1.02217 -0.0207708 -2.61159e-21)
(1.11232 0.181377 0)
(1.14986 0.059251 0)
(1.05686 -0.048719 -5.82066e-21)
(1.08251 0.027404 0)
(1.01688 -0.00579059 0)
(1.01484 -0.000505809 3.11675e-21)
(-0.41867 -0.0540054 0)
(-0.359844 -0.152863 -6.41652e-20)
(1.2336 -0.444983 0)
(1.03174 -0.00849288 0)
(1.02753 -0.0376917 1.10059e-22)
(0.595822 -0.0122273 0)
(0.973279 0.0613181 -5.68792e-21)
(0.628027 -0.277962 0)
(1.01742 -0.0242953 7.94532e-22)
(1.22445 -0.107977 -3.71939e-20)
(0.734262 -0.0341063 0)
(1.07966 0.014131 3.68636e-20)
(1.06787 -0.0854327 6.25726e-21)
(1.11994 -0.0238031 -4.64794e-21)
(1.36071 0.0128744 0)
(0.759003 -0.0492174 0)
(1.22954 0.00958905 0)
(0.470274 0.394775 -1.43007e-20)
(0.716682 -0.17499 0)
(-0.501752 -0.0544924 -1.50295e-19)
(0.86207 -0.127719 0)
(1.08147 0.0113895 0)
(1.41211 0.21921 -1.43069e-19)
(0.986921 -0.0557833 4.91978e-21)
(0.99447 -0.0237991 3.0488e-21)
(0.772593 -0.384296 -6.86572e-20)
(0.970521 0.342622 -4.24533e-21)
(1.02921 -0.0732376 6.6537e-21)
(1.02106 -0.00213065 3.51049e-21)
(-0.518302 -0.0806783 -3.40251e-19)
(0.40921 -0.0409767 -1.36163e-20)
(1.23471 -0.108496 0)
(1.14818 -0.0858294 -2.99463e-20)
(1.12261 0.178583 -2.20993e-20)
(1.15086 0.0658743 0)
(0.983634 0.10564 0)
(0.978564 -0.035878 1.43351e-20)
(0.986188 -0.02231 -8.1946e-21)
(1.00267 -0.0102459 -2.64e-21)
(0.255089 0.423623 0)
(1.08207 0.0128593 0)
(1.06066 0.0131321 0)
(1.00018 -0.000656332 0)
(0.433849 -0.0623351 -4.19752e-20)
(1.08987 0.029552 0)
(1.12902 -0.0758827 -2.6727e-20)
(0.441566 -0.0100243 -2.5921e-21)
(0.557952 -0.0516246 1.09801e-21)
(0.571427 -0.054258 0)
(0.257656 0.122654 1.25775e-19)
(1.07121 -0.125578 2.20759e-20)
(0.843316 0.0833508 -6.72158e-21)
(1.00239 -0.0116928 0)
(1.01669 -0.00544629 0)
(1.09399 0.0479518 2.87997e-20)
(1.0015 -0.000592198 0)
(0.641216 0.35548 -5.83445e-21)
(1.01298 -0.0874735 0)
(1.10749 -0.0919155 0)
(1.01712 -0.00517041 -2.58264e-21)
(1.08667 0.022413 0)
(1.11257 -0.0880376 0)
(0.978312 0.0572277 4.43237e-21)
(1.20712 -0.568431 -1.13278e-19)
(1.07507 -0.115195 5.72201e-21)
(1.08063 0.0134317 -2.47288e-20)
(-0.872758 -0.00832168 -1.05652e-19)
(0.411184 -0.0447279 -2.28035e-20)
(1.03761 -0.0302578 -9.00648e-21)
(0.901601 -0.09655 1.25322e-20)
(0.983328 -0.0358674 -1.20923e-20)
(1.02346 -0.012335 5.73791e-21)
(0.99038 0.328313 2.40471e-20)
(1.08204 0.0135602 0)
(0.422006 -0.0058842 -5.41462e-21)
(1.08858 -0.00902493 0)
(1.03032 -0.0704585 -3.6757e-21)
(1.17303 -0.0761327 0)
(1.04187 -0.0302024 1.08964e-20)
(1.04632 -0.000916665 -8.9793e-21)
(1.04776 -0.0160265 8.58771e-21)
(0.723672 -0.221552 6.0352e-20)
(1.44494 0.184833 9.16187e-21)
(0.786547 0.138173 0)
(0.859468 -0.0085059 -1.18189e-20)
(1.08357 0.0139974 3.20695e-21)
(1.00409 -0.8673 -1.69257e-19)
(0.772764 0.123746 4.33475e-20)
(0.942293 -0.0406133 0)
(1.08725 0.00807772 -8.80828e-21)
(0.543786 -0.0387107 -2.78682e-21)
(1.08769 -0.0195116 0)
(1.20651 -0.0637892 0)
(1.02657 -0.0370843 -1.62158e-21)
(1.4425 0.207997 0)
(1.00024 -0.00330587 -1.9563e-22)
(1.16585 -0.00574839 0)
(1.05101 -0.0770789 1.0462e-20)
(0.986622 -0.0298811 0)
(0.991564 -0.00997661 -1.69102e-22)
(1.04849 -0.00803159 1.74732e-20)
(0.169503 -0.640211 -2.87636e-20)
(1.01701 -0.00478953 0)
(1.02234 0.00121531 4.94044e-22)
(0.442306 -0.00562469 1.21107e-21)
(0.54662 0.378622 1.51744e-20)
(0.916107 -0.104393 2.15485e-20)
(1.08809 0.00708346 4.54559e-21)
(1.00005 -0.00151515 0)
(0.774813 -0.360175 0)
(1.00534 -0.0196343 -2.30769e-21)
(1.16372 -0.0102297 -1.50009e-20)
(-0.180667 -0.0983006 0)
(0.907921 -0.0965995 0)
(1.08631 -0.0178587 0)
(0.996485 -0.0094512 -8.29002e-22)
(0.844048 -0.0100545 0)
(1.02381 -0.00691918 -1.94099e-21)
(0.563065 -0.306844 -1.60826e-19)
(0.857661 0.000267361 1.39277e-20)
(1.40713 -0.130296 -4.02069e-21)
(1.00013 -0.000617551 0)
(1.49296 -0.417149 0)
(0.521077 0.00148918 -6.07242e-23)
(0.535192 -0.0712948 2.57521e-21)
(1.19923 -0.0626503 0)
(1.09099 0.0132109 2.73517e-20)
(0.733107 -0.42121 -2.20656e-20)
(0.996696 -0.00796667 1.59741e-22)
(1.08774 0.023397 0)
(1.19021 -0.518665 5.53935e-20)
(1.09681 -0.126911 0)
(0.292105 -0.0238815 0)
(1.0206 0.0593052 -2.11008e-20)
(1.0123 -0.000693731 3.75289e-21)
(1.07919 0.00415966 0)
(1.16754 -0.0834741 2.74482e-20)
(0.416944 -0.0594325 2.81888e-20)
(0.196768 -0.0397473 1.60359e-20)
(1.02285 -0.0118117 -6.53454e-21)
(0.602658 -0.274338 0)
(0.996235 -0.023979 0)
(1.02094 -0.0458374 3.48624e-21)
(0.97657 0.0758037 4.47195e-21)
(1.08028 0.00487957 -1.33931e-20)
(1.0872 0.0291181 4.61966e-20)
(1.01786 0.0636761 2.41691e-20)
(1.00682 -0.0307372 0)
(0.822817 -0.175232 0)
(1.121 -0.0601325 0)
(0.933283 0.0066579 6.57387e-21)
(0.999716 -0.0164937 2.46669e-21)
(0.986179 -0.0290855 -2.5688e-21)
(0.910091 -0.103973 0)
(0.627068 -0.0473112 1.47659e-21)
(-0.44669 -0.0362246 1.86586e-20)
(1.0807 0.0187784 0)
(1.03287 -0.00872626 0)
(0.974086 0.0492071 -4.08412e-22)
(0.979587 0.0902583 -1.33457e-22)
(1.0554 -0.0348086 6.92105e-21)
(1.08647 0.0273328 -3.79417e-20)
(0.613391 -0.0442802 -1.10488e-21)
(0.581808 0.0229496 0)
(1.08535 0.00158649 0)
(1.08344 0.0140322 2.17029e-20)
(0.966388 -0.108959 2.10297e-19)
(1.02612 -0.0168433 4.85883e-21)
(1.00274 -0.00960211 -1.31913e-21)
(1.05069 -0.0347637 -1.0747e-20)
(1.22233 -0.0388903 3.61427e-20)
(1.025 -0.00669344 4.11221e-21)
(1.00026 -0.00320847 3.83935e-23)
(1.00526 -0.0202021 0)
(1.00589 -0.000835003 -1.25562e-23)
(1.0863 0.0139223 0)
(1.00292 -0.0102867 3.93303e-21)
(0.542636 -0.0419824 -3.1129e-21)
(1.08259 0.0190777 -9.01623e-21)
(1.0211 -0.0318879 1.36061e-21)
(0.41514 -0.0612846 0)
(0.579556 -0.00911318 0)
(0.97978 -0.0314401 -6.1827e-21)
(1.02098 -0.00349753 3.95153e-21)
(0.482347 0.0619851 -9.78443e-21)
(0.986255 -0.0583429 3.40725e-21)
(0.978122 -0.0310649 -2.15277e-20)
(1.08187 0.0209042 8.79749e-21)
(0.465678 -0.00275462 0)
(0.340751 0.154128 0)
(1.07826 0.0465863 0)
(1.00319 -0.000834671 1.61784e-22)
(0.850841 0.0772395 2.61908e-20)
(1.00266 -0.0123665 0)
(1.07685 0.0543886 -1.49933e-20)
(0.485711 0.0741364 6.00263e-22)
(0.938888 -0.00499941 1.82795e-21)
(1.05943 0.0127406 0)
(1.07911 -0.130119 -2.36683e-19)
(1.61023 -0.0212937 0)
(-0.443449 0.0125962 -4.00447e-19)
(1.14473 0.18217 0)
(0.79193 -0.145117 -1.4137e-21)
(0.556559 0.430942 0)
(0.64024 -0.0183971 -8.02364e-21)
(0.918658 0.0435386 6.09978e-21)
(1.04933 -0.0164073 9.69035e-21)
(-0.952912 -0.050105 2.79326e-19)
(0.137711 -0.0256046 1.49831e-21)
(0.476718 -0.546482 0)
(0.51215 -0.551904 4.11366e-21)
(0.941285 -0.0420001 0)
(1.08769 0.0521074 0)
(0.976006 -0.139825 0)
(0.235363 -0.0323523 -3.22588e-22)
(0.803415 -0.195519 -2.3651e-21)
(1.01031 -0.00193458 4.31177e-22)
(1.01672 0.00049268 3.89874e-21)
(1.09997 -0.0566944 -2.91806e-20)
(-0.534555 -0.00399446 4.31023e-19)
(0.222987 -0.644821 0)
(1.0259 -0.0159891 -4.17918e-21)
(0.531213 0.354797 -6.84591e-22)
(0.963259 -0.139621 0)
(1.12307 -0.0260727 0)
(1.06092 0.0139514 0)
(0.44901 -0.00117973 0)
(0.97776 0.0444072 -8.67974e-22)
(1.18118 -0.078213 0)
(1.04769 -0.0756198 1.69322e-20)
(1.08368 -0.0184227 0)
(0.409229 -0.0594464 2.20726e-20)
(0.983632 -0.0372942 1.27603e-20)
(0.976603 0.0988719 0)
(1.0837 0.00185009 1.24824e-20)
(1.08287 0.0219658 -9.13991e-21)
(0.957388 -0.142903 0)
(0.995607 -0.0241528 5.65595e-21)
(1.02177 -0.0310294 -2.49437e-21)
(1.3145 0.138689 -2.25393e-20)
(1.44753 -0.124168 0)
(1.01803 0.0488202 0)
(1.44644 -0.0162755 0)
(0.424299 -0.0614529 -5.15537e-20)
(1.03122 -0.0743726 -5.43153e-21)
(0.839935 -0.00197192 -4.13654e-21)
(1.00598 -0.0458577 0)
(1.02773 -0.00272943 1.31882e-22)
(0.938413 -0.0102526 -1.05533e-21)
(1.04563 0.0102772 -4.85073e-21)
(0.579766 0.0420089 5.63438e-20)
(1.09642 -0.0552394 1.20091e-20)
(1.15888 0.0110486 3.09232e-20)
(1.07873 -0.135652 0)
(1.52296 0.329704 -1.78787e-19)
(1.32994 0.105866 -1.74179e-19)
(0.260739 -0.0327064 3.85816e-20)
(1.0567 -0.0252562 -4.60852e-21)
(1.0077 -0.0874943 -8.83763e-22)
(-1.04631 -0.0366279 0)
(1.09511 0.00640155 -1.50337e-20)
(0.314966 -0.0281729 0)
(1.10024 0.00964279 8.68181e-21)
(0.869558 0.0141646 -2.60837e-20)
(1.08318 0.0140519 6.46741e-21)
(1.10541 0.034736 0)
(1.0247 0.0737111 -2.31019e-20)
(1.50219 -0.0432083 -3.40444e-21)
(0.986617 -0.0230855 9.04074e-21)
(1.08547 -0.00258084 1.99066e-20)
(1.23264 -0.0398321 4.86565e-20)
(1.08714 0.0211041 7.8136e-22)
(1.02031 -0.023735 0)
(1.07974 0.017814 2.60034e-21)
(0.947399 -0.0891636 -2.20222e-22)
(1.0022 -0.0341048 0)
(1.08577 0.0082318 4.3324e-21)
(-0.330173 0.0111962 0)
(1.07633 -0.019055 0)
(1.20829 -0.531849 5.01602e-21)
(1.10392 0.0149959 0)
(0.441037 0.182509 -9.5855e-22)
(1.09069 -0.0197545 2.30708e-20)
(1.13464 0.00336694 0)
(0.964434 -0.82707 9.01844e-20)
(0.972218 0.0707672 -4.9361e-21)
(1.09574 0.0314551 0)
(0.177485 -0.0373425 0)
(0.505735 0.00334763 -3.26453e-21)
(1.51681 -0.443776 0)
(1.00602 -0.0310393 0)
(1.29663 0.137884 0)
(1.10597 0.0073445 -3.59862e-20)
(1.15321 0.00812185 8.71843e-22)
(1.03109 -0.0104004 -7.12878e-21)
(-0.817211 -0.00485349 1.14492e-20)
(0.929854 -0.0633204 6.63839e-21)
(1.45478 0.464829 1.72378e-20)
(1.0823 -0.0169738 -4.26458e-21)
(1.01959 0.0706955 2.37814e-20)
(1.04678 -0.111911 6.58399e-21)
(-0.451605 -0.0426447 1.18093e-21)
(1.02236 9.17371e-05 4.0658e-21)
(-1.07471 -0.0375054 -3.06039e-19)
(1.51769 0.010434 9.16441e-20)
(0.0404301 -0.0248908 1.34999e-19)
(1.10341 -0.128852 -1.17945e-20)
(0.906781 0.138742 8.37181e-21)
(0.992323 -0.0285562 -7.91358e-21)
(1.00174 -0.000505313 3.35275e-23)
(0.352869 -0.0144399 0)
(1.03842 -0.105956 -2.12732e-22)
(0.992789 -0.0206143 0)
(1.07478 -0.00587056 -2.04015e-20)
(1.08475 0.00778336 9.09845e-21)
(1.01565 -0.00710522 1.78379e-21)
(0.916897 -0.0561658 -7.11728e-22)
(1.08371 0.0513752 -7.81853e-21)
(1.04732 0.01289 0)
(1.07323 0.0117858 -1.53175e-20)
(1.05685 -0.0239878 -4.58933e-22)
(0.974064 -0.0211754 -7.1073e-21)
(1.54913 0.29819 1.71185e-19)
(1.01975 -0.031629 2.98772e-22)
(0.974827 -0.0200908 0)
(0.722317 -0.0933565 4.32146e-20)
(0.95481 -0.0900911 -1.74792e-21)
(1.06348 -0.0840266 7.57189e-21)
(1.10838 -0.13535 1.35565e-20)
(0.996207 -0.0115063 -1.45272e-20)
(1.00297 -0.00963451 0)
(1.07878 -0.0189962 -6.90926e-21)
(1.01547 0.0530832 0)
(1.10754 0.0206145 4.5158e-21)
(1.02062 -0.0252587 7.54166e-22)
(1.06271 -0.0147884 -1.46863e-20)
(1.23697 -0.43 -5.5447e-20)
(1.06538 -0.00249431 8.67564e-21)
(0.412562 0.0827317 0)
(1.00324 -0.0121301 0)
(1.07573 0.0192935 0)
(0.531511 -0.0688435 1.01784e-20)
(0.975684 -0.1914 0)
(1.01678 0.000104035 -3.09833e-21)
(1.00174 -0.0112489 -1.15242e-22)
(1.07293 0.0112229 1.48686e-20)
(1.04888 0.000593716 1.98965e-20)
(1.43911 -0.505136 5.87801e-20)
(0.668408 -0.0874922 0)
(1.09046 0.0139312 -3.15666e-20)
(0.343451 -1.26538 -3.70153e-20)
(1.07963 -0.0171923 7.17579e-21)
(1.00292 -0.0173393 0)
(0.664257 -0.0332134 -5.07944e-21)
(1.09152 -0.1377 1.39838e-20)
(0.899902 -0.160306 0)
(1.0045 -0.0368121 0)
(0.618542 -0.0156774 0)
(0.873082 -0.132161 -1.63968e-20)
(1.06732 -0.649366 -1.58077e-19)
(0.99672 -0.0365187 2.29772e-21)
(1.11865 -0.0172902 0)
(1.33067 0.120003 2.06959e-19)
(1.08684 0.0161212 2.92958e-21)
(0.67075 -0.0231938 -4.3702e-22)
(1.04876 -0.116303 -1.10075e-21)
(1.47664 0.442696 6.17181e-20)
(0.995753 -0.081549 3.77559e-21)
(1.13316 0.186916 2.72424e-20)
(1.00835 -0.0312259 0)
(0.42013 -0.0586547 1.67091e-20)
(1.10209 0.0147559 0)
(1.0438 -0.0328332 6.83282e-21)
(1.10341 0.00754071 3.32901e-20)
(1.04711 -0.0720118 6.27256e-21)
(0.982799 -0.187019 -2.08038e-21)
(1.09003 0.0477574 -1.07341e-21)
(1.00256 -0.000760877 8.34696e-23)
(-0.677119 -0.0619593 3.51991e-19)
(0.648626 -0.0294483 1.63215e-21)
(0.45001 0.0701508 0)
(-0.214245 0.0512292 1.57258e-19)
(0.685372 -0.0893375 2.14142e-20)
(-0.72287 0.0984403 5.89484e-20)
(0.973613 0.08492 0)
(0.929201 -0.106084 -3.4147e-20)
(0.999965 -0.00601542 6.86418e-21)
(0.979006 -0.43932 -1.92244e-19)
(0.993118 -0.0192364 7.27185e-21)
(1.0198 -0.0232575 0)
(0.926083 -0.125428 1.04474e-20)
(0.693925 0.325089 -3.43507e-20)
(1.07005 -0.000433717 2.38213e-20)
(0.980975 -0.0522324 8.4272e-21)
(1.17852 -0.327829 -3.18224e-21)
(1.12126 0.0336496 3.93942e-20)
(0.989917 -0.0153806 8.54573e-22)
(1.08757 0.571566 8.19412e-20)
(1.01553 -0.0246423 7.52519e-23)
(0.73669 -0.039638 6.01637e-21)
(1.46268 -0.490325 0)
(1.01104 -0.0221684 6.73647e-22)
(1.06357 0.004946 8.85043e-21)
(1.49055 0.10287 5.72992e-21)
(0.933103 0.000724512 -1.04898e-20)
(1.0246 -0.00713535 4.44487e-21)
(1.05101 0.0964205 2.71961e-19)
(0.681457 -0.289231 7.07387e-20)
(1.0293 0.00222628 -5.25055e-21)
(-0.19783 0.170103 2.69202e-19)
(0.970918 0.116878 7.90142e-21)
(1.02027 0.00983603 -8.44349e-21)
(0.99363 -0.080077 -1.86178e-21)
(0.740015 -0.0954984 -2.18166e-20)
(0.580085 0.011961 -1.72631e-20)
(1.03011 0.00222952 0)
(1.06584 0.24301 -2.0443e-20)
(1.02974 -0.0363337 -1.61202e-21)
(1.01615 -0.0249337 0)
(0.740021 -0.0813387 -3.46085e-21)
(0.86652 0.0218234 -1.73415e-20)
(1.1115 0.0177665 0)
(1.10721 0.0227996 0)
(0.992159 -0.0182074 1.09701e-20)
(1.11186 0.000519848 -1.65693e-21)
(0.749498 -0.0389359 0)
(0.383125 0.443342 -3.54991e-20)
(1.03454 0.000570464 0)
(-1.04477 0.0198632 1.99532e-19)
(1.02004 -0.0248679 -5.24736e-22)
(1.03123 -0.0365577 1.97579e-21)
(1.09359 0.0320591 -2.84828e-21)
(1.075 0.0244909 9.00874e-21)
(1.02241 0.000329664 -4.31115e-21)
(1.04105 -0.0714006 0)
(-0.12014 0.202316 2.66524e-19)
(1.48339 -0.0367154 1.72914e-19)
(-0.23664 0.171009 -3.03691e-19)
(1.06833 -0.00131457 2.63636e-21)
(0.996682 -0.024533 -5.0498e-21)
(0.626181 -0.0513568 2.49649e-21)
(1.00001 -0.00830438 -8.98767e-21)
(1.27427 0.155373 -2.802e-20)
(1.07659 0.0151338 -1.48923e-20)
(1.08531 0.0185984 0)
(1.09377 0.0124565 -7.3581e-21)
(0.583307 -0.0780018 0)
(0.597998 0.0239201 0)
(1.0859 -0.00626864 0)
(-1.01264 -0.0520525 0)
(1.05839 0.0107503 7.75014e-21)
(1.10728 0.0618377 -1.99695e-20)
(0.484983 -0.0671733 -1.99252e-20)
(0.402054 -0.0225236 -1.27763e-22)
(1.02363 -0.0396519 -2.42549e-21)
(1.00754 -0.0315211 0)
(0.840367 -0.208791 -7.10406e-20)
(-0.175922 0.201758 -3.19498e-19)
(1.12718 -0.118527 3.7383e-20)
(1.1129 0.00287 0)
(0.870378 -0.501615 1.75149e-19)
(1.07553 0.0251951 0)
(1.08286 0.0141146 -1.44499e-20)
(-0.0981002 -0.11163 -2.19188e-19)
(1.12088 0.603042 1.03523e-20)
(1.19878 -0.412535 7.40674e-20)
(0.712615 -0.0355586 6.71028e-21)
(1.05198 -0.0752014 1.25404e-20)
(0.457379 -0.0660349 5.94506e-22)
(1.05218 -0.0254293 -6.20021e-21)
(1.02203 -0.125578 0)
(0.917565 0.140352 0)
(1.00205 -0.0156565 3.78646e-21)
(-0.286757 0.071055 0)
(0.817727 0.307703 -6.8132e-21)
(1.07663 -0.121721 -2.97671e-20)
(1.08052 0.0119212 0)
(1.01268 -0.0391053 -2.51625e-22)
(0.459607 -0.964034 5.70411e-22)
(1.27111 -0.159491 -3.15655e-20)
(0.203632 -0.120595 0)
(1.01922 -0.0324175 3.74413e-22)
(1.00103 -0.000700604 0)
(0.920264 -0.0724923 5.20924e-20)
(1.12392 0.0308984 -3.62695e-20)
(1.0032 -0.0116179 0)
(0.645803 0.325712 5.8554e-20)
(1.00121 -0.000843302 0)
(1.05041 -0.0712235 -1.09559e-20)
(0.98767 -0.0800277 -7.81132e-21)
(1.15352 0.00325801 -6.19391e-23)
(0.998632 -0.0364566 -6.99291e-21)
(0.989257 -0.0156217 -9.76069e-22)
(1.1735 -0.143311 0)
(-1.03093 0.0196238 -9.52434e-20)
(1.10092 0.0326664 2.48482e-20)
(0.459248 0.371576 -7.6103e-21)
(1.1211 -0.0196491 5.66768e-21)
(1.01606 -0.00805783 6.21056e-23)
(1.03151 -0.00405149 0)
(1.09654 0.051173 2.52026e-22)
(1.06203 -0.0159528 -2.42417e-21)
(1.13657 0.117362 -4.45923e-21)
(1.07411 -0.000834861 1.36436e-20)
(0.898472 -0.151771 0)
(1.03674 -0.126527 0)
(0.999855 -0.00818755 7.50437e-21)
(0.157816 -0.0390327 4.70323e-20)
(1.00012 -0.00213543 -6.19295e-21)
(1.18414 -0.0147955 4.47817e-20)
(-0.969851 -0.0558407 1.88864e-19)
(0.560749 -0.0636264 -6.15577e-21)
(0.886966 -0.0579312 -3.82012e-20)
(0.353107 -0.16669 0)
(1.16204 -0.327691 -4.06906e-20)
(1.44942 -0.253054 2.22202e-21)
(0.807906 0.291862 1.62466e-20)
(1.03735 0.000287849 0)
(1.08449 0.599492 -1.0795e-19)
(0.970422 -0.143692 0)
(1.0965 0.00783272 0)
(-0.222307 0.0472427 3.4893e-20)
(1.0296 0.325106 2.99374e-20)
(1.02839 -0.00300047 -1.20558e-20)
(1.14268 0.113704 0)
(1.04536 -0.000406591 1.37317e-20)
(0.425659 -0.0628206 0)
(-0.111646 0.120108 0)
(1.03675 -0.0355845 3.71061e-21)
(0.703977 -0.210443 5.08373e-20)
(0.885325 -0.0261953 -1.28371e-20)
(1.00002 -0.00193644 5.19978e-21)
(1.00004 -0.00271115 -1.27757e-21)
(1.14176 0.000256054 8.82198e-21)
(0.141908 -0.0382492 -5.27282e-20)
(0.79751 -0.10008 7.37095e-22)
(0.977937 -0.0297363 2.30869e-20)
(1.02978 0.0856155 2.03076e-20)
(1.06383 -0.00286925 8.39828e-21)
(0.988384 -0.0168829 2.11847e-20)
(1.01119 -0.120288 4.13192e-20)
(1.02379 0.0823375 -1.46194e-20)
(1.42324 -0.091493 -5.36023e-20)
(1.02092 0.000102305 6.60505e-21)
(1.1161 -0.0590591 0)
(0.947137 -0.253058 -7.96372e-21)
(1.13139 0.0110112 -1.20423e-20)
(0.962063 -0.0347059 0)
(1.02813 -0.0682488 5.57999e-21)
(1.25734 -0.162678 5.23271e-20)
(0.924731 -0.0727047 -3.94826e-20)
(1.12742 -0.0683751 0)
(1.07932 0.0213753 0)
(1.08065 0.024303 1.87888e-20)
(1.18221 -0.393872 -5.83996e-20)
(1.24239 -0.80854 2.3889e-19)
(0.973277 0.133795 3.14649e-21)
(0.804733 -0.0831163 0)
(1.18841 0.134567 -1.02986e-19)
(1.14466 -0.081178 1.72232e-20)
(0.480862 -0.012122 3.21752e-21)
(1.0833 -0.19096 -1.16031e-20)
(0.719647 -0.0826424 0)
(1.01833 0.00492597 7.73999e-21)
(1.03638 -0.0118045 0)
(1.08248 0.0139242 0)
(0.984054 0.131373 -2.70004e-21)
(1.08936 -0.0692073 2.41729e-20)
(1.01029 -0.0212247 1.16781e-21)
(1.01057 -0.0199571 1.74122e-21)
(1.17475 -0.0229336 -2.14453e-20)
(0.243608 -0.0321092 -4.34595e-20)
(1.07671 0.0188034 0)
(0.837982 0.00660267 4.03829e-21)
(1.01603 -0.0085058 5.69782e-24)
(0.779371 -0.0988355 2.1669e-20)
(1.08062 -0.451017 -2.35082e-20)
(0.442338 0.0659266 -9.21547e-20)
(1.15255 0.115116 0)
(1.09235 -0.0184895 -1.80603e-20)
(1.07266 -0.0030738 0)
(0.443233 0.0804988 8.34434e-20)
(1.42305 -0.0755672 0)
(1.08179 -0.182046 0)
(1.04005 -0.110834 -8.22335e-21)
(1.05497 -0.0225971 4.00147e-22)
(1.07061 -0.42993 3.16804e-20)
(1.18135 -0.0225031 3.6883e-20)
(1.04561 -0.0678269 -6.93205e-22)
(1.11141 -0.00089166 0)
(1.5744 0.0795446 1.46011e-20)
(0.993185 -0.0287964 4.36114e-21)
(1.00016 -0.00257301 3.33035e-21)
(0.945645 -0.0394961 0)
(0.987997 -0.0177328 -1.48894e-20)
(0.485007 -0.0657989 -1.2886e-20)
(1.00557 -0.00102814 0)
(1.03176 -0.119445 -3.06077e-20)
(0.611668 -0.0475702 -3.0218e-21)
(1.16014 0.118897 1.12549e-20)
(0.4704 0.453907 0)
(0.581031 0.0370728 1.80687e-20)
(1.04087 -0.0685749 0)
(1.47354 -0.245195 0)
(0.891118 -0.0648028 3.10761e-20)
(0.998657 -0.00571865 1.06102e-20)
(0.987265 -0.0282385 -5.02609e-21)
(1.0207 -0.00259987 6.1349e-23)
(1.03087 -0.00418875 0)
(1.00144 -0.000782876 0)
(1.09769 0.0603336 -9.1575e-21)
(1.09504 0.168323 9.30829e-22)
(0.945163 -0.267076 0)
(0.92373 0.030837 1.55817e-20)
(1.04363 -0.0579418 1.42541e-21)
(0.530478 -0.0382952 1.43601e-21)
(0.999959 -0.000333701 0)
(-0.365246 -0.0775611 -2.00685e-21)
(1.16261 -0.0343541 5.55079e-20)
(0.999876 -0.000721249 1.82033e-21)
(0.997227 -0.00888402 6.11136e-24)
(0.563953 -0.0607352 -1.04815e-20)
(1.0903 -0.0118216 5.20894e-21)
(0.882523 -0.11039 -1.29782e-20)
(0.80719 0.265783 0)
(1.08232 0.0117267 -1.06735e-20)
(1.06415 0.0192965 3.47451e-21)
(1.02848 0.00272976 6.94536e-21)
(0.767336 -0.048756 0)
(1.00839 -0.0902193 0)
(1.07128 -0.00108069 -2.99088e-20)
(1.01708 -0.122013 4.89399e-21)
(0.998756 -0.00614753 5.09342e-21)
(0.985174 -0.0543458 0)
(1.03652 -0.00384383 -5.97909e-21)
(1.0991 0.0122532 0)
(0.277671 -0.028687 -8.90589e-21)
(1.11059 -0.0224682 -7.77818e-21)
(1.10822 0.00311467 0)
(1.53784 -0.00913285 0)
(0.264968 0.410417 3.70456e-20)
(0.897854 -0.0878454 -2.40365e-20)
(1.01766 -0.115364 0)
(0.480374 -0.0686858 -3.05092e-20)
(1.02022 -0.00253462 0)
(0.462927 -0.0657805 0)
(1.00056 -0.00175449 -6.94789e-23)
(1.06543 -0.0011834 8.85879e-21)
(1.10458 0.416361 -1.3299e-20)
(1.08899 -0.0249988 0)
(1.05494 -0.0441578 1.22251e-21)
(1.26877 0.0461794 0)
(1.09816 0.0335563 0)
(0.999603 -0.00384917 -4.69912e-21)
(0.999978 -0.000315097 -6.46867e-21)
(1.10638 0.0666309 4.17259e-20)
(1.05365 -0.024847 0)
(0.999688 -0.00316877 8.46563e-21)
(1.07786 0.0219633 -1.95043e-21)
(1.52537 -0.141807 1.98033e-20)
(1.00697 -0.00730965 1.49902e-22)
(1.41987 -0.283402 0)
(1.26635 -0.535964 -1.29961e-19)
(0.886032 -0.111153 0)
(1.25818 0.0507115 0)
(-0.240919 -0.156533 -1.60837e-19)
(0.852881 -0.132401 3.96397e-20)
(0.998548 -0.0063188 0)
(1.34884 0.0783286 4.40659e-20)
(1.01565 -0.00929788 0)
(1.08509 -0.00122936 1.10805e-20)
(0.823757 -0.0871625 9.74203e-22)
(0.421846 -0.0607953 -2.11758e-20)
(1.08705 0.604574 -2.1713e-20)
(0.512668 -0.0723394 3.03339e-20)
(1.04048 -0.0346287 0)
(1.0362 -0.0347637 3.00016e-21)
(1.04688 -0.331678 -1.64841e-20)
(1.02351 -0.0668359 -1.35072e-21)
(1.02721 -0.0134135 5.32845e-21)
(0.246701 -0.137444 3.062e-20)
(1.02177 -0.051227 -3.7769e-21)
(0.342985 -0.0258867 0)
(1.19044 -0.0144791 -4.99124e-20)
(1.08606 -0.0263862 -2.95291e-21)
(0.987064 -0.0196132 -2.10234e-21)
(1.02332 -0.00777512 1.67207e-22)
(1.10024 -0.326456 0)
(1.04685 0.0179537 -2.10911e-20)
(1.06719 -0.000512568 0)
(0.999794 -0.00181911 -1.17571e-20)
(1.06122 -0.0494204 7.04719e-21)
(1.18316 0.207547 0)
(0.851711 0.0100878 1.67334e-20)
(0.978255 -0.0340476 -2.1422e-20)
(1.0015 -0.00507549 0)
(0.264769 -0.0258922 -8.97583e-21)
(0.962734 -0.0331956 0)
(1.09681 0.0113156 3.41727e-20)
(1.01518 -0.00676406 -1.51303e-21)
(0.728758 0.288097 0)
(1.01191 -0.000436064 -2.53122e-21)
(-0.966662 -0.0668661 -7.96229e-20)
(0.996312 -0.0161413 -1.80473e-21)
(1.38926 -0.144092 -1.07463e-19)
(1.08648 0.0183955 1.69972e-20)
(1.01737 -0.338939 0)
(1.11113 0.00157235 -2.8176e-21)
(1.00051 -0.0337833 0)
(1.0754 -0.00798402 -1.68123e-20)
(1.00494 -0.00557273 0)
(1.03238 -0.114746 0)
(0.968144 -0.0415385 1.10256e-20)
(0.227264 -0.0417753 -2.66647e-20)
(1.05666 -0.0209545 0)
(0.957669 -0.0851503 0)
(0.656821 -0.037275 6.75432e-21)
(1.11131 -0.00706423 -2.0454e-20)
(1.00562 -0.00386173 0)
(-0.311233 0.0137948 0)
(0.682436 -0.0901751 2.89991e-21)
(1.08758 -0.00511449 5.49853e-21)
(1.09309 -0.0254806 -6.08678e-21)
(0.986986 -0.0274879 2.54829e-21)
(0.186296 -0.0320462 -6.15252e-20)
(1.03739 -0.0121348 6.37121e-21)
(0.989779 0.138671 -9.12142e-21)
(1.00171 -0.0173977 3.84251e-21)
(1.00533 -0.00576333 -4.33767e-23)
(0.906569 -0.112857 1.22163e-20)
(1.09271 0.0133466 -2.19845e-21)
(1.00196 -0.0120022 1.22671e-22)
(1.08541 0.0269156 -6.44276e-21)
(0.790493 -0.026083 0)
(0.741352 -0.923638 3.42182e-20)
(0.883884 -0.0242411 1.67246e-20)
(1.02211 -0.0122069 0)
(0.489833 -0.0152722 -1.15072e-21)
(0.999686 -0.0173254 -2.7669e-21)
(1.00666 -0.00696169 -1.16738e-22)
(0.980295 -0.0365498 7.04712e-21)
(1.0168 0.00048546 2.66362e-21)
(1.00001 -0.00413529 -7.96994e-22)
(0.847846 0.0211789 -1.79716e-20)
(0.857051 -0.0892548 0)
(1.04938 -0.00874705 -1.71381e-20)
(1.00127 -0.00114716 -8.52412e-22)
(1.10957 0.0198752 -2.18673e-20)
(1.02261 -0.0204448 1.29489e-21)
(-0.29595 -0.004684 -1.23348e-19)
(1.34927 0.0948691 -1.02039e-19)
(0.459731 -0.00949874 0)
(0.557869 0.452692 -2.18901e-21)
(1.07566 -0.00890272 -1.82381e-20)
(1.12226 -0.0670332 0)
(1.00229 -0.0164 -4.24287e-22)
(1.08453 0.0194808 -3.88382e-21)
(1.07326 -0.428232 7.94513e-21)
(1.03643 0.000626479 0)
(1.00048 -0.00171766 1.63838e-22)
(1.47789 -0.380669 -6.27259e-20)
(-0.0581069 0.139764 0)
(1.0658 0.0175156 -5.2572e-21)
(-1.20186 -0.0264564 2.43956e-19)
(1.07767 -0.000964169 0)
(0.996516 -0.0123009 -3.82523e-21)
(1.12297 0.0174288 3.03665e-20)
(1.0955 -0.02783 -1.63902e-21)
(-0.991379 0.031011 1.33924e-19)
(1.08601 0.0128364 1.3119e-20)
(0.989513 -0.128656 8.54568e-22)
(1.04428 0.0193998 2.03974e-20)
(1.00039 -0.0036215 -4.88373e-22)
(0.0924034 -0.13334 -6.06721e-20)
(0.0415675 -0.132416 3.39496e-20)
(0.300379 -0.0340842 -7.95902e-21)
(1.01111 0.33736 0)
(0.743577 -0.0769806 1.57294e-20)
(0.999059 -0.0813926 -4.67543e-21)
(0.757272 -0.435647 1.48449e-20)
(0.97375 -0.0184857 8.02851e-21)
(0.9729 -0.0552998 0)
(1.08655 -0.0659921 0)
(1.01012 -0.00157793 -7.43293e-22)
(0.870538 -0.00951948 0)
(1.03944 -0.0586013 9.60983e-21)
(1.00549 -0.00355271 -7.07117e-23)
(1.02491 -0.0391832 1.83036e-21)
(1.03727 -0.0571617 -3.65499e-21)
(0.696064 0.295227 0)
(0.981414 0.11439 0)
(1.01666 -0.0138848 0)
(1.12137 0.0207662 -2.98841e-20)
(0.459853 -0.00477386 -1.19711e-21)
(1.05543 -0.0462267 -8.55411e-21)
(-1.25779 -0.02799 -1.97876e-19)
(0.968658 -0.0588962 0)
(1.0765 -0.0163238 1.24749e-20)
(0.850573 0.048865 0)
(1.00278 -0.0107877 1.64471e-21)
(1.09132 -0.116419 0)
(1.10505 -0.0786488 0)
(1.11445 -0.00565911 -2.1187e-20)
(0.683524 -0.951427 3.63052e-21)
(1.04176 -0.0567761 0)
(1.35538 0.257433 0)
(1.1355 0.00777438 2.23583e-20)
(0.83602 -0.0332115 2.17902e-20)
(1.0453 0.00473939 -4.38568e-21)
(0.239304 -0.0384416 3.24678e-20)
(1.09578 0.0045259 -1.5551e-20)
(0.548782 -0.00672005 9.34521e-21)
(-0.623403 0.0807547 0)
(0.209118 -0.0349042 -3.85757e-21)
(1.08356 0.0102012 0)
(0.996993 -0.0335025 3.52218e-21)
(1.0403 -0.0360617 -3.8101e-21)
(1 -0.00194353 0)
(1.10257 0.0352749 -2.784e-20)
(0.997591 -0.0108483 0)
(0.6948 -0.0264982 0)
(1.06923 -0.113232 -2.41473e-20)
(0.94505 -0.11228 -3.37403e-20)
(0.899783 -0.0838284 0)
(1.00087 -0.0795586 2.70138e-21)
(1.02154 -0.0117774 -3.49359e-21)
(1.06924 0.0294522 1.16745e-20)
(1.09492 -0.0637911 1.11966e-20)
(1.06361 0.00398202 1.166e-20)
(1.0776 -0.0855688 3.02717e-20)
(0.791399 0.212066 -2.04914e-20)
(1.03282 -0.108871 0)
(1.08973 0.00710014 1.37145e-20)
(1.1978 -0.117254 4.68033e-20)
(0.86454 -0.0027005 6.6492e-21)
(0.982284 -0.0544389 -7.53728e-21)
(-0.477445 0.0224488 -3.50621e-19)
(1.01975 -0.00270097 0)
(1.07981 -0.141769 0)
(0.966 -0.0406474 -1.23718e-20)
(1.03103 -0.0220839 1.88275e-21)
(1.15406 -0.154852 -5.35046e-21)
(1.00284 -0.017994 0)
(1.01682 -0.0133362 1.62317e-21)
(0.801078 -0.156314 3.37966e-20)
(0.985002 -0.022077 0)
(1.51396 -0.122226 3.58105e-22)
(1.06005 -0.0160432 -4.51893e-21)
(-0.388285 0.0640044 1.09104e-20)