/*--------------------------------*- C++ -*----------------------------------*\
| =========                 |                                                 |
| \\      /  F ield         | OpenFOAM: The Open Source CFD Toolbox           |
|  \\    /   O peration     | Version:  v2012                                 |
|   \\  /    A nd           | Website:  www.openfoam.com                      |
|    \\/     M anipulation  |                                                 |
\*---------------------------------------------------------------------------*/
FoamFile
{
    version     2.0;
    format      ascii;
    class       surfaceScalarField;
    location    "950";
    object      meshPhiCN_0;
}
// * * * * * * * * * * * * * * * * * * * * * * * * * * * * * * * * * * * * * //

dimensions      [0 3 -1 0 0 0 0];
oriented        oriented;


internalField   nonuniform List<scalar> 
20673
(
0.000958431
0.000241128
-0.00119098
-0.00115199
-0.000649436
0.00182516
-0.000275481
0.000174148
0.000101348
-0.000890437
0.000200608
0.000673825
-0.00252949
0.00272132
-0.000182924
-0.000711127
0.000747666
-3.67113e-05
-0.00028175
2.77132e-06
0.00027836
0.000136189
-0.000167301
3.12403e-05
-9.56069e-05
9.61559e-05
-9.15828e-07
-0.000855532
-1.72848e-05
0.000874611
0.000363685
-0.000107587
-0.000257805
0.000395294
-0.000586829
0.00019053
-0.000456283
-0.000130525
0.000106757
2.35952e-05
-0.00150954
0.00222373
-0.000705402
0.000578295
0.00135147
-0.00191622
0.00240724
-0.00104471
-0.00133985
-0.000545476
0.000219208
0.000328191
-0.000287078
0.000679867
0.0012567
-0.00145305
0.000238579
0.000457515
-5.9305e-05
-0.000403582
-5.72767e-05
-0.000224486
0.000139802
0.00163523
-0.00174393
-9.57459e-06
0.000145669
-0.0026473
0.002678
-8.661e-06
0.000340649
-0.000272984
-6.70838e-05
-0.000530249
-0.000775091
0.00130517
0.000311979
-0.000962787
0.000649363
0.000512509
-0.000838352
0.000326161
0.000234686
-0.000719359
0.000482811
0.000312355
0.000770946
-0.00107649
0.00054239
0.000855302
-0.00138485
-0.00116113
-0.000344173
0.00150492
-0.000504419
0.00192039
-0.00141617
0.00130002
0.0014029
-0.00269192
7.30969e-05
0.000191235
-0.000264059
0.00167588
-0.00150522
0.000127828
-3.73347e-05
-9.05451e-05
0.000834523
-0.000790273
0.000356902
-0.000316048
-4.12471e-05
0.000204001
9.63394e-05
-0.000195544
-1.24543e-05
0.00015122
-0.000148836
3.16113e-05
0.000305673
-0.000319
0.0011692
-0.000993632
-0.000177153
-0.000800164
0.00145619
-0.000637234
-0.00197224
0.00179407
0.000178064
-0.000107638
-0.000433363
0.000165437
4.31504e-05
-0.000209831
0.000604755
-0.000550149
-5.47574e-05
2.15171e-05
-0.000245696
0.000308428
-0.000507851
0.000397336
0.000116374
-0.00166381
0.00259855
-0.000932039
0.000672918
-6.82427e-05
-0.00182509
0.00132031
0.00162405
0.000804739
-0.000751473
-2.53981e-05
0.000785502
6.51508e-05
0.000296747
0.00225509
0.000845554
-0.00307703
-0.0013098
0.000802179
0.000524189
0.000546615
-0.0013267
-0.000445049
0.000507468
-6.21684e-05
-0.00228109
0.00115681
-3.89513e-05
0.00159565
-0.000298225
-0.000819127
0.000107877
-6.63088e-05
-0.000541788
0.000608631
0.00022357
-0.00262058
-0.00256665
-0.000213997
0.000128123
-0.000119647
-1.04706e-05
-0.000822308
-0.000437921
0.0012685
9.19728e-05
-0.00261524
-6.60859e-06
-8.96664e-05
7.51285e-05
-0.000116191
4.09365e-05
-0.00295583
0.000330839
0.000552284
8.78398e-06
-0.00056124
-0.000841291
0.000304538
0.000529536
7.42206e-05
-3.65977e-06
-7.04423e-05
-0.00117685
0.000741809
0.00044467
-0.000389775
-2.95308e-05
0.000418124
0.000102171
0.000867593
-0.000973289
0.00128039
-0.000370921
-0.000894929
-0.00212156
0.000720331
-0.000767481
4.62713e-05
1.3489e-05
0.000114151
-0.000473217
0.000529913
-5.66539e-05
-0.000504563
-0.000649154
0.0012267
-0.00128916
8.62265e-05
0.000420035
-0.000485887
-0.000415001
-8.95835e-05
-0.000239439
0.000281515
-5.29619e-06
7.05451e-05
-6.54111e-05
0.000149519
-0.0009863
0.000839811
0.00209686
-0.000996891
-0.00106656
-0.000760911
0.00226349
-0.00149335
-0.000177778
0.000598236
-0.000608051
-0.000178891
0.000786474
1.4362e-05
0.000132163
-0.000153563
-0.00025587
0.000214106
4.19368e-05
0.000684499
-0.000534826
-0.000152207
0.000571769
0.000590399
-0.00116425
-0.000590092
-0.000516607
0.00116533
0.000906319
-0.00165611
0.000749306
0.000784182
0.000383481
-2.05163e-05
0.000568453
-0.000539355
0.00126809
-0.00152736
0.000300739
-6.18558e-05
0.000130557
-6.9291e-05
-0.000864713
0.000896223
-3.08653e-05
-2.17247e-05
0.00018595
-0.00248237
0.00146274
-0.000782611
-0.000254073
0.00104325
-0.000241591
0.000292846
-5.12678e-05
0.000426418
-6.98824e-05
0.000633247
-0.000163185
-0.00047516
-0.000122879
6.06617e-05
0.000510408
-0.00195401
0.00144389
0.000654368
-0.000433877
-0.000220541
-0.00174221
-0.000829898
0.00260504
3.89544e-05
0.000577897
-0.000617177
-0.000116692
-0.000105172
0.000221869
0.00194648
-0.000478676
-0.001468
-0.000429196
0.000407455
0.000115464
8.29793e-06
-0.000189936
6.41765e-05
0.000125554
0.00125936
-0.000948684
-0.000113196
0.000312562
-0.000118966
0.00158493
-0.00233504
-0.00150331
0.000904351
0.000620165
0.000146738
-0.000165761
0.000431183
-0.000103541
-0.000292506
0.000139384
0.000148521
3.0642e-05
-0.000179282
0.00230415
-0.00179348
0.00104745
0.000427721
0.000425341
2.46769e-05
0.000166691
-0.000311036
0.000143645
0.000146366
-0.000156008
0.00117988
-0.000213121
-0.000305787
0.00087699
-0.00259058
-3.70999e-05
0.00151393
0.000432089
-0.000107979
-0.000190759
0.000299162
-0.000690784
0.0013861
-0.000666807
-0.00243016
-0.000213533
0.00264933
9.6395e-05
0.000821956
-0.000920708
-0.00246682
-0.000103085
-0.000123003
4.90203e-05
7.35513e-05
0.000448574
-0.000852792
0.000405237
-0.00276436
0.00110289
-0.000642415
0.00121053
-0.000538096
-0.00111273
-0.000325452
0.00145164
-8.95252e-05
-9.68051e-05
0.000186736
0.000301354
0.000352995
0.000363759
-1.43802e-05
-0.000350802
0.00146274
-0.00129135
-0.000165527
0.000226275
0.00100174
-0.00121558
-0.000732514
0.000243743
0.00048876
0.000696027
-0.00150845
-0.00015765
0.000144756
1.25987e-05
1.19307e-05
6.23139e-05
-0.000137507
0.000303446
-0.00168381
-0.00037675
0.00206402
0.00102547
-0.00150189
0.000476451
0.000861447
-0.00104323
0.000179714
-0.000149531
0.000159379
2.90743e-05
0.000596078
0.000573196
0.000108754
0.000573167
-0.000586297
0.00016299
-0.000187962
2.47949e-05
-0.00164232
0.00107177
0.000598114
0.00154644
-0.000639773
0.000463719
0.000869555
-0.00132507
2.77713e-05
0.000217911
-0.000245727
0.000291345
-0.000631395
0.000335661
-0.00236825
0.00111485
0.00127314
-9.57852e-05
9.18695e-05
6.32319e-06
-0.00123961
0.00123386
1.08498e-05
-8.52141e-05
0.000233988
0.000584119
-0.000545121
-9.61527e-05
-2.69186e-05
-0.00192401
-0.000181715
0.00213883
0.000831031
-0.000678866
0.00117989
-0.000860303
0.000579576
-0.00124196
0.0015328
-0.00028282
-0.00028085
0.0015937
-0.00130884
0.000137279
0.000203882
-0.000550311
8.64525e-05
0.000465411
-0.000196108
-0.00053555
-0.000579992
-1.51905e-05
0.000598018
0.000463953
-8.68398e-05
-0.000379214
0.000235001
-0.000220746
-1.72013e-05
-0.00046118
-1.21004e-05
6.44546e-05
-0.000584601
0.00052118
0.000301945
-0.00214284
0.00187344
0.000976208
-0.000957312
-1.96143e-05
0.000721023
-0.00125186
2.03575e-05
8.61413e-05
0.00131303
0.000813922
0.000780555
4.32909e-05
-0.000822616
-1.25468e-05
-0.000489942
0.000503305
6.43167e-05
-0.000270757
0.000206786
0.000239801
-0.000153522
-0.000231655
3.9458e-05
0.000184037
-0.000197203
0.000112977
-3.98355e-05
0.000114931
0.00020762
-6.81086e-05
-0.000140006
-0.00126597
0.0025756
0.00261846
-0.000341468
-0.000210446
-4.52879e-05
-0.000343094
0.000131534
0.000211646
0.000384905
-0.00280847
-0.000231893
-2.5178e-05
0.000256789
0.000125708
-8.49405e-05
-4.0804e-05
0.000533389
-7.21998e-05
-0.000294568
0.00160205
0.000646111
-0.000887608
0.000239209
-0.000257408
0.000175065
8.95353e-05
0.000261937
-0.000192457
-6.96311e-05
0.000290605
-0.00191767
0.00165265
-0.000479773
3.57704e-05
0.000800778
-0.00268637
0.000589953
-0.000460672
-0.000127216
0.000376897
-8.689e-05
0.00011201
-3.87866e-05
-7.34661e-05
-6.82977e-05
0.000138375
-7.02836e-05
0.00188198
-0.00129174
0.000321214
0.000581156
-0.000899982
0.00110136
-0.000864349
0.00151449
-0.00176235
0.000252046
-0.000178616
-0.000354919
0.000642108
-0.000577283
7.94013e-07
0.000151198
-0.000228594
7.73476e-05
6.76496e-05
5.79721e-05
0.000417112
0.00026639
-0.000614705
-0.000734926
0.00128845
7.55365e-05
-8.10651e-05
-0.000462297
0.000436622
2.57249e-05
0.000945985
-7.28731e-05
-0.000908908
-0.000958762
0.0019169
4.54222e-06
0.000351384
0.000161922
-5.04321e-05
-0.000113462
-6.2804e-05
5.2058e-06
6.4286e-05
-0.000211823
-0.000201973
0.000414658
0.000368652
-1.44344e-05
-0.000353954
-0.000199047
0.00122511
-0.0006752
0.00114941
-0.000466416
-0.000160702
-0.000874147
0.000545297
-0.00149213
0.000953233
3.35832e-05
-9.11861e-05
5.74704e-05
0.000196376
-0.00036335
0.000158921
0.000770137
1.15579e-05
-0.000778966
0.00102358
-0.000934849
-9.03111e-05
-0.000948977
-0.000534011
-0.00188147
0.00274777
0.000411212
-0.000107089
-0.000307836
0.000445263
-0.000323455
-0.000121894
3.04447e-05
0.000330879
-0.00133191
0.00105435
-0.00185913
0.000358583
0.000115179
-0.000124266
1.23085e-05
-7.71519e-05
-0.000112771
0.000262771
-0.000265857
2.68723e-06
0.00042863
-4.74951e-06
-0.000422474
-8.43733e-05
0.00163846
0.000120769
-0.000150824
2.97331e-05
0.000121377
-3.69914e-05
-8.46783e-05
-3.82194e-05
-0.000119463
-6.57547e-05
-0.000324444
-0.000203049
-0.000645047
0.00112705
-0.000295608
6.91724e-05
0.000335338
0.00040053
-0.00034901
-5.00268e-05
2.37511e-05
-6.92989e-05
6.31193e-05
-0.000230492
0.000137607
9.13659e-05
-0.000633156
-0.000662174
7.47605e-05
0.000132329
-0.000327437
0.000838308
-0.000210232
0.000264672
-2.03232e-05
-0.000107292
-0.0002028
0.00030994
0.00121933
-0.00138089
0.000201806
-9.35807e-05
-2.48345e-06
0.000265972
-0.00020029
-4.57983e-05
-2.81151e-06
-0.00215089
0.000960607
0.00120145
0.00094749
0.000521473
-0.000802463
-0.000699045
-0.000310499
9.93088e-05
-0.00175617
0.000480782
0.00128355
-0.000411856
0.000457697
-3.8797e-05
-0.000337315
-8.82368e-06
0.000345659
0.000207686
-5.64298e-05
5.88442e-05
0.000204306
0.00213095
-0.00181147
-0.000141028
0.000105954
4.11172e-05
0.00179091
-0.00201974
0.000219529
-0.000471005
6.64502e-05
0.00111465
-0.00282273
-0.000256138
0.000705402
0.000467492
-0.000225633
-0.00016941
0.000483911
0.000108323
0.000657173
-0.00132344
-0.000828203
-0.000787857
-4.90117e-05
-0.000182042
0.00150962
-0.00198377
0.000495333
-6.48804e-06
0.000328889
-0.00032257
-0.00106694
-0.000167487
-0.000676009
-0.000306194
-0.000891829
0.00111193
-0.000201532
-0.0028001
0.000939565
-0.000299556
8.13686e-05
0.000218045
-0.000113833
-4.69257e-05
0.000160662
0.00157972
-0.0023817
-0.000221499
-2.52943e-05
0.000339136
0.000268085
-0.000375749
-0.00146422
0.00256551
-0.00106603
-7.00112e-05
-4.6378e-05
-0.00132169
0.00045523
7.43618e-05
3.70888e-05
0.000564778
6.01802e-05
-0.00063524
0.000110745
-0.00078271
0.000674181
-0.000269363
4.23207e-05
0.000239903
-0.00052064
0.000555705
-3.53282e-05
-0.00242299
0.000742759
-0.000397317
0.000259732
0.000182824
0.00049948
-0.00068461
-0.000728558
-0.001411
0.000149735
1.36608e-05
-0.000692105
-7.06847e-05
0.000764524
-0.00261306
0.0014128
0.00121771
0.000193727
-7.88122e-05
-0.000115033
0.000317631
0.000658135
6.34735e-05
5.7693e-05
0.000983522
0.00105924
-0.00204239
0.000268787
-0.000258248
-1.08921e-05
-0.000791649
0.00131312
-0.000509172
0.000359769
-8.07867e-06
-0.000351753
0.000903478
-0.000722468
-0.00132278
0.000634218
0.00069083
-0.000433583
-0.000885963
-0.000142652
-0.000132945
0.000168294
0.000996648
-0.00116771
-0.000880804
0.00135182
-0.000268659
2.69031e-05
-0.00250333
0.000340779
0.00217378
0.00103318
-0.00213846
0.00112038
0.000117944
-1.15617e-05
0.00091379
-0.000131613
-0.0017517
0.00269336
-0.000916613
0.00018322
4.53284e-05
0.000715135
-0.000202929
7.98265e-05
0.000999332
-0.00100981
0.000109887
-0.000226396
0.000169189
-0.000271995
0.000102446
0.0014471
-0.000185552
-0.000949088
-0.00111518
0.00211028
0.00175078
2.18527e-05
0.000527378
-0.00113842
-0.000331688
-5.97495e-06
0.000100497
-9.36393e-05
-7.41201e-06
-0.000676758
0.000855676
-0.000177706
-8.53064e-06
-0.000291109
-0.00184036
0.00301153
-0.0011463
0.000764444
5.91334e-06
-0.000333334
-0.000130941
0.000464241
-0.000164638
0.000201749
-3.96746e-05
-0.000229552
7.51541e-05
-4.88909e-05
6.17387e-05
-0.00119807
0.000708534
0.00054
-4.59895e-05
0.000475817
-0.00188625
0.000611666
0.00131903
-0.000484064
4.44833e-06
0.00134533
-0.000779624
-0.0005382
1.73972e-05
0.000403938
-3.52427e-05
-0.000639183
0.000371806
0.000255793
0.000837399
0.000371463
-0.00120315
-0.000265413
5.65342e-05
0.000685204
0.000148582
-0.00036455
0.000106273
0.00026045
-5.14341e-05
0.00046968
-0.000419915
7.97153e-05
0.00027995
9.56785e-05
0.000166144
0.00137421
-0.000823949
-0.000994592
0.000142931
-0.00147292
0.000606409
-0.00020867
-0.000253574
-0.0001254
0.000292611
-0.000167367
0.00327337
-0.00147215
-0.00177634
-0.000340831
-5.72445e-05
0.00296264
-0.000550204
-0.00239533
0.00020583
-0.000260408
5.23532e-05
0.000561425
-8.68485e-06
-0.000874951
0.00104052
0.000879916
-0.00147493
0.000608798
-0.000207094
0.000432404
-0.000225516
0.00165127
-0.00075568
0.000280864
0.00016401
-0.000438181
0.000604401
-0.000165877
0.000148719
7.87803e-05
-0.000228091
-0.000930386
0.000733665
0.000194914
-0.00141884
-0.00117699
-9.49058e-05
0.000739228
-0.000432551
0.000272091
-0.00200848
0.00177607
5.02766e-05
0.000214136
-0.00270361
-0.00286815
0.000394395
0.00248605
0.000577157
-0.000343589
0.00015852
-3.21095e-05
-0.00215859
-0.000926285
0.00310257
-0.000191794
-0.00166016
-0.000367884
3.61311e-05
0.000708897
-0.000611077
-3.71048e-05
0.000305482
0.000486371
-0.000343827
-0.00014233
0.000616694
-0.000493567
-0.000123194
0.000553323
-0.000487778
0.000390851
-0.000222918
-0.00016796
0.000221674
-0.000154407
-6.73481e-05
-0.000193779
2.57927e-05
0.000809906
-0.00262472
0.00012216
-0.000368632
0.000244964
0.000311288
0.000516771
-0.000926098
-0.000379344
0.00131738
0.00201088
-0.00168083
4.06135e-06
-0.000167239
-0.000176148
0.000309038
0.000177324
-0.000756805
-0.00115494
0.00192167
-0.000326324
0.000238345
8.80245e-05
-0.00138592
0.00237061
-4.29769e-06
-0.000805343
-0.000325664
-3.8236e-05
-0.00215298
0.000333485
0.0018372
0.00048679
-8.82913e-05
-0.000397213
-0.00157675
-0.000881416
0.000278126
0.000245863
-0.000120373
5.0209e-05
0.000124876
-0.00020985
-9.10996e-05
0.000216484
0.000707496
-0.000830551
0.000126395
0.000165521
0.000451172
4.85731e-05
0.000145105
-0.000178796
8.11991e-07
0.000177748
8.85314e-05
-2.37563e-07
-8.50115e-05
-0.000400155
0.000213682
0.000227121
0.000302863
-0.000263885
-3.96722e-05
-0.000166303
-0.00196901
-0.000866526
-0.0017932
0.00267733
9.34418e-05
0.000148297
-0.000242485
0.000295827
-9.16773e-05
4.29832e-05
3.34862e-05
-0.000662759
0.000580094
8.55064e-05
0.0001204
0.000108615
-0.000230696
8.0413e-05
-6.78838e-05
-2.41272e-05
-0.00141457
0.00171764
-0.000152077
2.10965e-05
0.000132657
-0.000563368
0.000556348
7.35205e-06
-0.000659477
0.000736741
-7.54312e-05
-0.000263255
0.000173393
8.95831e-05
0.000645012
0.00177454
0.00152213
-5.9609e-05
0.000169022
-0.000563493
0.00126739
-0.000408412
-0.000734406
-0.00017133
0.000371804
-0.000200183
4.18854e-05
-0.00071752
-0.000657476
-0.00109008
-0.000492542
6.19773e-05
0.000430787
-0.000902575
0.000159243
9.47367e-06
-0.000162826
1.19364e-05
-0.000190828
-0.00038708
-0.000465308
0.000416671
-0.000269232
-0.000257479
0.000149568
-0.000119161
-2.85257e-05
0.000444285
0.000344164
-0.000787933
-0.000367699
0.000200103
0.000165834
0.000421469
-6.93539e-05
-0.000358644
0.000225268
0.000188889
-0.00041572
-9.90792e-05
-0.000143448
0.000553616
-0.000415127
-0.000156525
4.68276e-05
0.000108398
0.00018881
1.32333e-05
-0.000134317
-0.000224384
0.000272666
-4.86254e-05
6.28414e-05
-0.000484264
0.000421632
0.000395873
-0.000181079
-0.000201137
0.000864407
-0.00141812
0.000259323
-0.00107557
0.000828485
4.27983e-05
2.70579e-05
-9.89636e-05
-2.43442e-05
-0.00229858
0.000868129
5.04659e-06
-0.00017923
-0.000143947
0.000325815
-0.000181712
8.39375e-05
0.000137595
-1.03621e-05
-9.82909e-05
-8.56982e-05
-0.000177657
0.000319146
-0.00026801
-5.23918e-05
-5.39224e-05
0.000604569
-0.000552599
0.00270635
-0.00145946
-0.00120863
9.35149e-05
-0.000135609
4.20767e-05
-9.95851e-05
0.000118015
-1.79746e-05
-0.00155195
0.000453438
-6.00311e-05
-0.00112794
0.00120375
0.000167417
0.000223386
-1.46565e-05
-0.000530202
-0.000324613
-0.000114114
0.000438618
0.000142714
1.79485e-05
-7.27354e-05
-3.74615e-05
0.000110002
0.00057746
6.24165e-05
-0.000379698
0.000317197
0.000229725
0.00016872
0.000379095
0.000150734
-7.2618e-06
-0.000181338
0.000188156
0.00017724
-0.000196954
1.50589e-05
-0.00190162
0.000995031
-0.00140061
-0.000793592
0.00221191
0.000601867
0.000286807
-8.14976e-05
-6.47089e-05
-4.88145e-05
0.00103198
-0.00209856
8.83109e-05
0.000522542
-0.00054471
-0.000489558
0.000643865
0.00016071
-3.97632e-05
-0.000136918
0.000229656
-2.11968e-05
0.000359969
0.00022707
-0.000586542
-3.7896e-05
-0.000165892
-0.000979327
0.000435431
-0.000278289
-4.81939e-05
0.000114344
-0.000181144
6.65786e-05
0.000308012
0.000502815
-0.000806492
0.00137652
-0.000280908
-0.000537987
-0.00231131
0.00235346
-0.00239975
4.22983e-05
0.000330194
-0.000438168
-2.30478e-05
0.00101212
-0.00124729
0.000256648
-0.00222202
0.00233814
-0.000114134
0.000441994
0.000409743
4.79659e-06
-0.000178522
-8.35727e-05
0.00320051
-0.0014025
0.0019123
-0.000798874
-0.00109633
-0.00148803
0.00011587
0.00138589
-3.83588e-05
-0.00011867
-0.000794696
0.000104576
0.000447311
-0.000205919
0.000325092
0.000166466
5.74211e-05
-0.000224388
0.000135626
-0.000204143
-0.000881191
0.000208304
-0.000831305
-0.0015511
0.00240913
9.95245e-05
-6.59871e-05
0.00014643
-0.000769351
0.00181564
-0.000197074
-0.000103225
0.000287654
3.53717e-05
-0.000260124
-0.00122256
0.000915379
0.000311065
-0.000351818
0.000139374
0.000277012
-0.000642385
-1.54749e-05
-0.000608058
0.000142261
0.000469121
-0.000293063
0.000539548
-0.000246316
-3.97612e-05
0.000205797
-0.00180355
0.00058612
0.00121922
-0.00010381
0.000227149
-0.000850047
0.00169327
-0.000147065
0.000205791
-0.00052994
0.000160872
2.18075e-06
-0.000163228
-0.00237138
0.000821307
0.000868891
-0.000131913
-0.000727001
-0.000261343
0.000489261
5.67182e-05
3.91426e-05
2.51929e-06
-0.000121971
-4.65052e-05
0.000261628
0.000811076
-0.000101483
0.00209499
-0.00073138
0.000520331
0.000800639
-0.00130668
0.00212806
0.00109107
0.00124638
-0.00118141
-6.3448e-05
0.00087941
-0.00252952
-0.000117517
-0.000135443
0.000716431
-1.84696e-05
0.000179286
-0.000463058
0.000138207
0.00197142
-0.000763435
-0.00119066
0.000175252
-0.000169099
-0.000105373
6.70215e-06
-0.00201707
0.00123767
0.000790164
0.0011935
-0.00294689
0.00175804
0.000657063
-0.00023126
-0.000426346
-3.65465e-05
0.000151321
-0.000115686
9.45917e-05
-8.92032e-05
-6.47527e-06
-0.000545539
0.000608511
-6.21852e-05
0.000135927
0.000328498
-7.98679e-05
0.000189904
0.000897592
-7.30104e-05
-0.000194427
-0.0010082
7.39332e-06
0.00101063
-8.47296e-05
0.000178078
-9.29336e-05
0.000562681
-0.00172465
-0.000676701
-3.88845e-05
-0.000299062
0.000400134
-0.000101832
-0.000110353
-0.000258379
-0.000435882
3.62612e-05
0.000392955
-0.000238805
9.1617e-05
-0.000437175
-0.000516094
0.000968241
5.88396e-05
-2.10106e-06
0.0008404
0.000109086
0.00131163
-0.000282007
-5.85985e-05
-8.20764e-05
-0.000127871
9.00971e-05
-0.000755362
0.000809234
-5.51571e-05
-0.000888747
0.000465393
-0.0015461
-0.000799585
4.32356e-05
-0.00226306
-0.000759141
0.000425989
1.97865e-06
0.000155574
0.000414198
-0.000754065
0.00128786
9.78621e-05
0.000316835
-8.69836e-05
0.00180613
0.000929217
-0.000296856
0.000619682
-0.000510263
0.000661656
0.0005051
0.000112941
-0.00061783
0.00281233
-0.00137452
-0.00140662
0.000286738
-0.000185935
-0.000101577
0.0010115
7.01082e-05
-0.000508017
0.000863423
-0.000879798
-0.000240088
-0.000978115
0.000283437
0.000591025
0.000808861
-0.000143922
-0.000592523
0.000124744
-0.000515626
0.000402698
0.00153044
-0.000605585
0.0011927
-0.000928886
-0.000260428
-0.000379673
-0.00159262
-0.000410271
-2.48142e-05
0.000434097
0.000417082
-0.000468567
0.000198555
-3.25194e-05
-0.0008805
0.00102536
-0.000368034
0.00022948
0.000137224
-0.000124804
-0.000631531
0.00020173
6.42846e-05
-0.0002665
-0.000142205
0.000346799
-0.00112466
-0.000634574
0.00176041
0.00210238
-0.00102443
0.000675449
-0.000432124
-0.000252133
0.00106605
-0.000252538
0.000156665
-0.000164443
0.000979989
-0.000111314
0.000569436
-0.000504741
0.000438588
5.78558e-05
0.000171899
-0.000281189
-5.19104e-05
-0.000691414
0.000746169
0.000123101
-8.01598e-05
-4.30142e-05
-0.000927425
0.00110308
-0.000171406
-0.00240218
0.00102197
4.86277e-05
-9.74451e-05
3.5802e-05
0.000124391
-0.000122173
-0.00089205
-0.00157305
0.00248989
-0.000295234
9.09638e-05
-9.2874e-05
0.000123081
-3.12275e-05
-0.000542653
-1.3087e-06
-0.000117756
-0.000112973
0.000172577
-0.000135041
-1.44705e-05
0.0011497
-0.00119372
-2.40543e-06
-0.000778364
-0.00031389
-0.000336424
0.000449431
-0.000340327
0.000338613
6.96363e-05
-0.000330183
0.000459511
3.89133e-05
-0.000228926
0.000193951
-5.46451e-05
-0.000360027
0.000139016
0.000213777
0.000726422
-0.000616738
-0.000125464
6.61785e-05
0.000634862
-0.000630696
7.00143e-05
-0.000183904
0.000505206
-9.10139e-05
0.00125713
-0.0020034
-0.000233267
0.000260991
-0.00209431
0.000806732
0.00130005
-8.44148e-06
-0.000120931
0.00139968
-0.000384861
0.000903037
-0.00124802
0.000650589
0.000537172
-0.00129149
0.000760618
0.00256972
-0.00142557
0.000304058
-0.000809739
0.000507396
0.000529521
3.45797e-05
-0.000475345
0.000301889
0.00072769
-0.00102553
0.000259931
5.18253e-05
1.50249e-05
-0.000577787
-0.000631191
0.000379354
0.000250625
0.000153351
-3.91523e-05
-2.91347e-05
0.000223135
0.00137201
-0.000642658
-0.000235308
-0.000456954
-0.000485093
0.000946634
-0.000124693
0.000106059
1.84551e-05
-0.000129382
3.34154e-05
9.61314e-05
-0.000195653
0.00041677
-0.00199872
0.00305796
-0.00104344
-4.42439e-05
-0.000323849
0.000735067
7.31138e-05
3.73558e-05
0.00046786
-0.000441873
3.15967e-05
-0.000324741
0.000299704
2.53187e-05
-0.000226421
0.000421489
-0.000194187
2.17308e-05
-0.00104398
0.00102974
0.000364157
0.000466038
-0.000386174
6.38731e-05
0.000321288
0.000828642
-0.000784262
0.000283286
-0.00047935
-0.000503756
-0.000242592
0.000745652
0.000191694
0.00036342
-0.000554706
0.000115594
0.000328805
-0.000449974
-0.000168131
9.37323e-05
-0.00169584
0.00097649
0.00037755
-0.000211255
-0.000183051
0.000136542
0.000523903
-0.00106204
0.000286317
0.00113493
-0.00144721
-0.00169645
0.00287454
-0.00114969
-0.000176726
-0.000127711
-9.3492e-05
0.000225378
0.000362182
-0.000330558
-3.15253e-05
0.000189852
0.000260453
-0.00267571
0.000687948
-0.00245631
0.000141025
0.00232882
0.000472941
2.47426e-05
-0.000291469
-0.00168226
0.00198806
-2.67716e-07
-0.000235028
0.000234044
0.00155061
-0.00120808
-0.000327402
-6.77991e-06
-0.000635542
0.000706717
3.34399e-07
9.31391e-05
-0.000325787
-0.000385453
0.000706531
0.000112628
-0.000788186
0.00109823
3.56921e-05
-0.00107064
-0.00048307
0.000567026
-8.02247e-05
-0.00132916
6.68464e-05
0.00126193
-0.000189532
0.000636139
-0.000792174
-0.00151914
0.0023112
-0.000396642
0.000302404
9.43105e-05
9.98637e-05
-0.000883464
0.000787391
5.98558e-06
-0.000489751
-0.000378705
-0.000317058
9.41649e-05
0.00022166
0.000676363
-0.000403851
-0.000264166
-0.000212441
0.000450662
-0.000242443
0.000191066
-0.000605284
7.00866e-05
0.00145569
-0.000108429
-0.00020014
0.000308482
3.98956e-05
-0.000521335
6.12941e-05
0.000121371
-0.00018294
0.00149693
6.66998e-05
-0.000484377
0.000151036
-0.00124538
0.00020699
0.0010427
-0.000653475
0.000756213
0.000322827
-0.00015043
0.000605813
-0.000843973
0.00026706
2.69881e-05
-3.0304e-05
-0.000615237
0.000156075
0.00231543
-0.00247102
-0.0010103
0.00254768
-0.00152371
0.000380662
-0.000310657
-6.99517e-05
-0.000940311
0.002072
-0.00183065
0.00161983
0.000211038
0.00101005
-0.000730034
-0.000271297
0.0018772
-0.0011011
-0.000721051
0.000174674
7.599e-05
-0.00020753
-0.000683889
-0.0015957
-2.4389e-05
-0.000100407
0.000535031
0.000742894
-0.00126884
-0.000130004
-0.000237073
-0.0002131
0.000416494
-4.34569e-05
9.56825e-05
0.000762212
-0.00120315
0.00265228
-0.00142683
-0.00167998
-0.000670416
-9.30645e-05
-0.000303272
0.000116875
-9.25736e-05
-2.50444e-05
-0.000263588
0.000229979
3.36867e-05
-0.00085689
-0.000944907
-0.000289974
0.000402586
0.00078887
-0.0003079
-5.09874e-05
0.000262143
-0.000541546
0.000393665
0.00119994
-0.000192885
0.000176302
2.12875e-05
0.00189619
-0.000836303
9.22003e-05
-0.000171166
0.000972387
-0.00185221
0.000900176
0.00225176
-0.000840199
-0.00140444
-0.000126431
-7.51395e-05
0.000201507
0.00288946
8.91441e-05
0.000391918
-0.00033009
0.0016086
0.000905295
-0.00248846
-0.000479187
0.000419561
0.000122312
-0.00108533
0.000838405
0.000500933
-0.00130394
0.000541539
0.000548423
-0.00107687
-0.000107039
9.78261e-05
-0.000348466
0.000112331
0.000235934
0.000791436
0.00132139
0.000123316
0.000170868
-0.000289295
-0.000338958
0.000606258
-0.000270376
0.00019662
0.000170842
-1.59357e-05
0.000186433
-7.63193e-05
-0.000110348
0.000311523
-0.000185057
-0.000284502
0.000579006
-0.000221613
-0.000359742
-0.000452629
0.000399093
4.53296e-05
0.000149138
-0.000660644
0.0009068
-0.000244015
-0.000523908
0.000199635
-0.00093782
0.000764324
0.000180668
-0.00052146
2.83724e-05
0.000484465
0.000102514
0.000364056
-0.000445403
0.00290197
-0.001914
-0.000987817
-0.00264845
0.00127048
0.00141224
0.000235439
0.000482046
0.00036128
-0.000667016
0.000304626
-0.000188095
-0.000143347
0.000343235
0.000927438
-0.000615523
-0.000295144
-8.5012e-05
2.62397e-05
5.99844e-05
9.59777e-05
-4.74947e-05
-3.17414e-05
-0.000408948
0.000729925
0.00024905
3.95556e-05
-0.000288178
0.000728132
-0.000234988
-0.000485209
-0.000744152
0.0014338
-0.000661227
0.000434812
0.00135928
-0.000112502
-0.000491042
0.000796328
-0.00195822
9.57406e-05
0.00187319
0.0006859
-0.00178949
-7.75179e-05
-5.23002e-05
-0.000417791
0.000410891
8.30467e-06
0.000255143
1.18083e-06
-0.000256467
-5.34098e-05
0.00151121
-0.000163299
0.000116274
-4.52343e-05
-0.00030004
0.000340233
0.000558619
-0.00104818
-0.000112279
-0.00023625
0.000348422
0.000575329
2.67612e-05
-0.000602373
-0.00126099
-0.00135138
-0.000337797
-4.331e-05
-0.000334358
0.000587114
0.000337956
-0.000989417
0.000121626
0.00102431
-0.000120988
-2.99256e-05
-0.000200516
0.00019495
7.72865e-05
0.000671629
-0.000229601
0.000404676
-0.000607312
0.000195452
0.000549602
-0.000606307
-0.000383393
-0.000761931
-0.00022119
-0.000145067
0.000356256
0.000971887
0.000628945
-0.00160138
0.00113775
-0.00120189
8.93187e-05
0.000246486
-0.0010292
-0.000617766
0.00168558
-0.000339804
0.00171953
-0.0016847
-3.43495e-05
-0.00042817
-0.000114191
0.000175544
-0.000263781
-9.47676e-05
0.000358474
-0.000265762
0.00018035
8.52657e-05
-0.00185212
0.000728418
0.000239061
-7.02336e-05
-0.000262571
-1.10913e-05
0.000273447
-0.00175751
-0.00102097
-0.000199526
0.000119583
0.000238987
0.000268493
-1.39757e-05
-0.000248701
0.000375807
-0.000287574
-8.84146e-05
-4.65855e-05
-4.35253e-05
0.000321869
-0.000614432
-7.71338e-05
-0.000292223
0.00149443
-0.00226988
-0.000329493
0.00033884
-0.000387206
-0.000270413
0.000144911
0.000431172
-0.000213714
-0.00190644
0.000940336
0.00126287
-0.0024428
-7.93301e-05
0.000222431
0.000269793
-0.00049166
0.00106105
0.000651884
-0.00171186
0.000167876
-7.03871e-05
-9.75159e-05
-0.00091562
-0.000960656
-0.000137267
0.00218672
-0.00204672
-0.000515048
0.000335286
0.000179656
0.000746441
5.63342e-05
-0.000800644
0.00133423
0.00156521
-0.00146419
-0.00106745
0.000712073
0.000362769
0.00126706
-0.000615812
-0.000645899
-0.000117549
-0.00051418
-0.000574923
-0.000888945
0.00134754
0.00088143
-0.00222417
-0.000195103
0.000591729
-0.000245187
-0.000103352
0.000109501
-0.000235924
0.000604642
-2.69598e-05
0.000207896
0.000377004
0.000547738
-0.000559566
-0.000536349
-6.23921e-05
-0.000370002
0.000345053
2.48356e-05
6.06198e-05
-0.000318513
-0.000379811
0.00069459
0.00114121
0.000250482
0.0004308
0.00175373
-0.000763575
0.000152246
-9.96552e-05
0.00163414
-0.000259497
-0.000106399
8.69732e-05
-0.0015625
-0.000605904
0.000631725
0.000148199
0.000346646
-0.000495513
0.000154337
-4.16601e-05
-0.000111098
-0.000470506
0.000543908
-8.01068e-05
3.29886e-05
0.000151045
-0.000184425
-0.000836862
-0.000664797
-0.00197926
0.00265251
-4.34285e-05
-2.08706e-05
5.97549e-05
0.00068492
-0.00148688
0.00129387
-0.00228989
0.00105447
0.000443108
-0.00149845
-0.000477289
-1.49869e-05
2.19339e-05
0.00153854
0.00130372
-4.84877e-05
-0.000188286
0.000236723
0.000106372
0.000131793
2.73751e-05
-0.000107083
8.026e-05
0.000132842
7.10475e-05
-0.000207766
0.000251722
-6.05932e-05
-0.000173726
0.00164069
-0.00143983
-0.000101047
-0.000150795
0.000249654
0.00193381
-0.00259121
-0.00252656
0.00106811
0.00149818
0.00293715
-0.00173867
0.000214842
-0.000385719
-0.00019794
-6.56458e-05
0.000544695
-0.000654095
0.000122248
-0.000340996
0.000461041
0.00251387
-0.000880322
2.27291e-05
-0.00183237
0.000815416
-0.000787964
-1.84546e-05
0.00257026
-0.00241371
0.000740431
-0.00246536
-0.000310102
-0.000347374
0.000136392
0.00064862
0.000930101
-0.000798484
-0.000129408
-0.000128534
0.000257569
-0.000128808
0.000731786
-0.00165517
2.41706e-05
-0.000889667
0.000869836
0.000411017
0.00157714
-5.29871e-05
-8.27526e-05
-0.000106307
0.000139106
0.000131042
0.000161652
0.000298622
-4.99097e-05
0.000617054
-4.20414e-05
-0.000404044
-0.000398751
0.000191468
-0.000677039
-0.000103536
-0.000662434
0.000644547
-0.000969816
-0.00018223
0.00115978
0.000185915
0.000168924
-0.000312556
0.00048936
-0.000484205
-4.16315e-06
0.000387453
-0.000579856
0.000191347
-0.000123512
-4.26219e-05
0.00016566
0.000710565
-0.000532376
-0.000101625
0.000205525
-0.000106117
-9.87666e-05
-0.000260831
-0.000200863
-0.000939493
-0.000749091
-0.000155141
-5.43844e-05
0.000209497
0.00163787
-0.00248844
-0.000817475
6.29399e-05
0.0010323