/*--------------------------------*- C++ -*----------------------------------*\
| =========                 |                                                 |
| \\      /  F ield         | OpenFOAM: The Open Source CFD Toolbox           |
|  \\    /   O peration     | Version:  v2012                                 |
|   \\  /    A nd           | Website:  www.openfoam.com                      |
|    \\/     M anipulation  |                                                 |
\*---------------------------------------------------------------------------*/
FoamFile
{
    version     2.0;
    format      ascii;
    class       volScalarField;
    location    "1000";
    object      ddt0(k);
}
// * * * * * * * * * * * * * * * * * * * * * * * * * * * * * * * * * * * * * //

dimensions      [0 2 -3 0 0 0 0];


internalField   nonuniform List<scalar> 
13917
(
-1.06105e-06
-3.29162e-07
0.0333353
1.29678e-06
-1.53085e-07
-2.03196e-06
0.0353184
0.0296105
-0.00566602
-1.44662e-06
-0.000210801
8.82093e-06
1.44699e-06
-0.000982548
-6.28269e-07
-6.9658e-07
-5.09434e-07
-3.35032e-06
8.89614e-06
-2.98898e-07
4.09801e-09
0.0342265
-1.68753e-07
0.0311609
-4.14144e-07
0.0263547
-1.61262e-07
2.13496e-07
2.33998e-06
-4.43789e-06
-1.21953e-06
-6.06478e-07
-5.93665e-08
-5.00732e-09
-2.28594e-07
0.0160615
-1.72736e-07
0.00444959
2.11981e-06
0.00458
-8.97675e-07
3.6417e-08
-1.58507e-07
1.16186e-07
-2.26593e-07
4.92568e-08
-3.2388e-06
-6.60389e-06
3.32355e-05
-6.52921e-07
-9.56253e-08
-2.15702e-07
0.000102475
2.10118e-09
-4.21526e-07
-4.03557e-07
-0.000170401
-5.64166e-07
-3.5817e-07
-2.99541e-07
-0.0189507
-3.37498e-07
-6.10771e-05
-3.30724e-07
-1.94065e-06
-3.31631e-05
3.64549e-08
5.92999e-08
0.00026093
-8.31849e-07
-1.31838e-07
-0.00488056
-0.00819576
-3.21775e-07
-7.39966e-06
1.33576e-05
-0.00436794
2.33033e-07
0.00990987
8.97268e-09
2.88782e-08
4.69185e-08
-3.92213e-07
0.00550399
0.00927492
7.07943e-08
-8.96006e-08
-0.000265604
4.13684e-07
-8.50034e-08
-0.00449747
-2.24127e-06
-5.65143e-07
-2.78624e-07
0.00212613
1.74778e-07
-1.25346e-05
-4.75587e-06
4.77855e-05
2.30381e-07
-6.34744e-07
1.25139e-07
1.23623e-07
2.28884e-07
-6.01402e-07
-0.0108903
9.55364e-08
-7.66279e-06
-5.71612e-07
-1.27234e-06
-0.0274753
0.00484692
1.78974e-05
-0.00971305
-1.9008e-08
-4.36746e-06
-3.19851e-07
-1.2734e-05
0.00659693
3.37155e-08
4.6112e-08
0.00143533
0.00614987
7.00343e-08
-7.08485e-07
-2.87261e-07
-3.0938e-07
-7.24488e-07
-3.23228e-07
-1.89826e-07
0.015672
-3.25449e-08
-1.81885e-07
1.97751e-08
-0.0561951
0.0324736
-9.97413e-07
-3.16021e-08
1.31443e-08
3.74718e-08
0.0149039
-5.07989e-07
-2.22286e-07
4.35559e-07
7.35433e-08
-0.00385131
3.27465e-06
-2.12087e-07
-3.96301e-07
-6.50858e-07
-3.03919e-07
-3.44757e-06
1.33005e-05
-8.91387e-07
-6.5464e-07
0.0036233
-8.37799e-07
0.0301105
-0.00406083
-0.0449298
-1.00303e-07
8.98843e-08
7.88301e-08
-1.83149e-05
1.63862e-05
4.58042e-05
2.63344e-07
-1.99571e-06
-3.95269e-07
5.03857e-08
-1.32997e-06
-0.00094758
2.1708e-05
-4.30211e-07
0.00648206
-1.08863e-06
0.0182874
-1.84434e-06
-0.00189874
-4.98976e-07
-2.25955e-06
-1.37249e-06
-4.89519e-07
-5.24955e-08
-4.3298e-07
0.0270639
-6.16491e-07
0.00635881
-1.46248e-06
4.69991e-05
0.0442823
0.00718469
2.55617e-08
-2.19228e-07
3.17308e-07
2.04359e-07
-1.2991e-06
-5.49882e-07
-4.17681e-07
1.60309e-05
9.06642e-07
-6.54022e-07
-1.11364e-06
-3.95386e-07
-0.00759217
-0.0363124
-2.26839e-07
-5.15989e-07
-4.60804e-06
0.0377289
-2.7033e-07
0.0341742
-0.00624663
4.74511e-05
-5.70551e-07
2.41878e-06
-2.59642e-06
-0.0111826
-4.93438e-07
-0.00503268
-5.12964e-07
-6.06687e-06
-8.87678e-07
0.00280639
-0.0126676
-6.73327e-07
9.14387e-06
-6.30209e-07
-5.93655e-07
0.0111262
2.04006e-05
-1.49703e-06
0.0356885
-0.00622107
-7.98506e-07
-6.01866e-07
-0.00476606
0.00771653
-2.53127e-08
-5.22656e-07
0.00383607
-5.40372e-05
-6.33908e-08
0.00144036
-1.28118e-05
3.1534e-08
-1.02293e-06
4.95688e-08
-9.28543e-07
-0.00525152
4.43043e-07
-2.32255e-06
2.89279e-07
-2.84068e-07
-5.92553e-07
6.85581e-06
0.00474071
9.1625e-06
-4.81965e-07
-5.88162e-07
-4.27873e-08
0.00404771
-0.0426221
8.50623e-05
-6.09632e-07
-0.0114809
0.000221687
0.0298921
0.00958381
1.59454e-05
4.72025e-08
-7.93846e-07
-2.7778e-06
-0.000284835
-3.22995e-05
-1.35005e-07
-0.0366529
5.6015e-06
-3.63065e-07
-0.0315212
-3.37836e-07
0.00736452
8.26391e-07
-1.51525e-07
-7.97794e-07
-1.08506e-06
2.04636e-08
0.0024327
-9.50502e-07
1.71166e-07
-0.000130623
0.0352109
-0.0408954
-4.71304e-07
0.0223019
-3.175e-08
1.86825e-07
-2.9571e-07
1.70357e-08
-5.26973e-07
-6.12768e-06
-9.73693e-07
-3.56238e-07
-7.46027e-07
-4.65307e-07
3.56545e-06
-8.79586e-07
-2.47611e-06
-2.84022e-07
-6.03425e-07
-0.0257578
0.00492937
-3.3548e-07
-8.541e-07
-0.0237666
-4.85171e-07
-0.0082014
-3.25917e-07
0.00291932
8.31636e-07
1.22766e-06
4.39626e-09
-3.80292e-06
-8.51944e-08
-0.0265912
2.48278e-06
-7.5129e-07
-0.000119051
1.82967e-07
-3.3036e-07
0.0102028
2.56852e-07
0.000334194
-1.06555e-07
0.00617754
-6.93109e-07
0.0161965
6.76322e-07
-8.92265e-07
-4.22471e-07
0.0327786
-5.61444e-08
-1.12983e-06
-0.0299691
-4.6598e-07
-5.54321e-07
0.000438537
-5.36469e-07
-5.93362e-07
0.043493
1.45937e-06
-6.87276e-07
0.00437817
0.0376267
-3.63566e-07
-6.00066e-07
3.25086e-08
-4.46537e-07
8.90591e-05
0.000651137
-7.73378e-07
-0.0278048
-3.38931e-07
-2.03045e-06
0.00141169
-4.92157e-07
0.0333839
-7.33623e-05
-0.0116913
-7.274e-07
3.88826e-05
-6.13869e-07
-0.00335659
-3.0049e-07
-5.52902e-07
-1.24092e-05
1.33855e-06
-1.2118e-07
-3.83236e-06
-2.66277e-06
-8.23122e-06
-4.87563e-06
0.0260864
-0.00879901
-7.93365e-07
-1.68974e-06
-5.15389e-07
0.00861067
0.0331792
-5.20735e-07
-0.0122295
-2.17814e-07
-0.0210775
7.98832e-07
-5.11894e-08
-4.69268e-07
0.00120396
-4.60391e-07
0.00452188
-0.000249048
3.5287e-05
9.20112e-07
-3.2958e-07
3.34085e-06
1.46928e-06
-2.84741e-07
-1.90816e-07
-5.11111e-07
-2.53385e-07
-3.99436e-06
-1.0309e-07
-2.89631e-07
-5.5203e-07
-2.48971e-05
1.29166e-08
0.00724495
0.00318977
0.000734921
6.33105e-08
0.00847333
-0.00952041
-3.70248e-07
-3.35323e-07
-2.01685e-05
1.90142e-06
-7.20939e-07
-2.15261e-07
-0.00115039
0.0364923
0.00156561
-5.52429e-07
-1.78625e-05
-5.80826e-08
2.15923e-06
-8.0546e-06
-5.5302e-07
3.76991e-05
-4.77563e-07
-4.93363e-07
-0.0091043
0.0174342
0.0194857
-1.17596e-06
0.000271547
0.0126817
-0.0212295
-0.00255593
-4.5949e-07
-3.02643e-06
-6.1212e-07
-4.75525e-07
-0.0424691
-3.41151e-06
2.04229e-07
-4.35528e-06
-5.08178e-07
-0.00184105
-2.79835e-07
-1.95225e-05
0.00365951
4.20681e-06
0.00892992
5.96039e-09
-5.70633e-07
-1.34989e-06
-7.46565e-07
-5.88502e-07
0.0175431
-3.48847e-06
-8.83589e-07
0.00758999
-2.9931e-07
-6.17242e-06
-0.0235273
2.77064e-06
3.92556e-05
0.0217743
-3.08616e-05
-3.012e-06
-3.72996e-05
3.03316e-06
6.46849e-05
3.14181e-06
4.96281e-06
-1.21064e-05
-1.32904e-06
-0.0553536
5.09415e-08
1.5956e-07
-9.23668e-07
1.95323e-07
-0.00192649
-0.00893
-4.88407e-07
-4.72595e-07
0.035006
-0.0086473
-1.33581e-07
0.00711439
4.74821e-07
-8.37808e-07
-4.88015e-07
-0.00932496
0.00295263
-6.64547e-07
-3.16568e-07
0.00908577
-1.38305e-06
0.00237549
-3.97411e-08
-0.00627878
9.07197e-06
-0.0119214
9.865e-08
0.00822071
-0.033799
2.84952e-07
-5.90412e-07
-3.27499e-07
1.33982e-05
-0.0433469
2.46498e-07
-5.96941e-07
-6.13981e-07
-6.29376e-07
-0.0103481
-0.0449499
-1.7771e-09
-8.74778e-07
-6.97631e-07
-6.50716e-07
-1.75899e-05
-0.0173359
-1.2708e-06
-4.07026e-07
-2.97179e-07
-1.3789e-08
-0.0219336
0.00336391
-1.274e-07
-1.08884e-07
3.40193e-05
2.59445e-06
3.47174e-08
-5.46074e-07
-4.91637e-07
-7.08911e-07
-1.4192e-05
-3.2829e-07
-5.70327e-07
-2.58744e-05
-1.89561e-05
-0.0332475
-2.52135e-06
-4.54116e-07
-0.00604473
-1.73745e-09
-5.0559e-07
6.57156e-07
-0.0563618
-1.40904e-06
-9.15846e-07
1.5679e-06
-5.32477e-06
0.000877932
-1.86393e-05
-1.58633e-07
-7.13461e-07
-1.3601e-07
-0.0375991
1.0978e-06
0.0221577
-4.37796e-07
-1.18049e-06
-2.45783e-06
-0.000364996
-0.00449263
-6.86803e-06
-8.1199e-07
-6.67886e-07
-4.16973e-07
-5.11169e-07
2.56638e-07
1.28573e-07
4.84474e-08
-2.55144e-06
-7.30257e-08
0.0222979
0.00250604
-7.08949e-07
-4.59132e-06
0.00301322
-7.90725e-07
-2.43572e-07
-9.18174e-06
-0.0204827
0.00238771
-3.07627e-06
-3.70358e-07
0.00570779
1.38937e-05
-9.97434e-07
-1.05482e-06
-3.20536e-06
1.62653e-08
-4.48915e-06
0.0120838
-3.49601e-05
2.62374e-06
-0.0362872
8.57817e-08
-0.00298023
1.11931e-08
-1.25593e-07
0.0230376
-0.0188711
2.03734e-06
5.85439e-08
-4.07451e-07
-1.04348e-07
5.66494e-06
-3.49754e-05
3.93794e-05
-3.94213e-07
5.72838e-05
-3.52336e-06
-4.51866e-07
1.34747e-05
3.90502e-05
3.81002e-05
-6.84006e-07
-3.61319e-05
1.87662e-07
0.00298445
-1.68819e-06
-1.39487e-06
-9.7048e-07
-7.50485e-07
-8.01829e-08
-2.62558e-07
-7.001e-07
3.75646e-09
-1.07163e-06
4.36289e-05
-2.51796e-06
-6.85585e-07
-2.3115e-05
1.81074e-06
0.041362
3.40079e-07
-1.45808e-07
-5.77744e-07
2.20026e-06
-2.93501e-07
-0.0316541
-3.65327e-08
0.000179766
1.894e-06
-0.00015092
-1.93487e-06
-0.00917171
-1.15902e-06
-2.97942e-07
-0.00152872
-0.00329249
-3.15897e-07
6.74384e-07
-0.00446612
-4.36266e-06
-3.18215e-05
-1.97292e-07
-3.0619e-07
3.92481e-07
1.40489e-06
-7.52073e-06
5.35792e-06
3.72469e-08
5.24195e-07
0.033177
4.32802e-07
1.02021e-06
-5.78997e-07
0.00412132
1.8669e-08
-5.60429e-07
0.000785834
-4.99483e-07
-0.0179865
-6.52096e-07
-1.05175e-08
-5.73807e-07
-1.10686e-06
-2.60325e-07
-2.85757e-06
-7.76513e-07
-1.0427e-06
4.81314e-07
0.00826475
5.27245e-06
-0.0179799
-1.07914e-06
-9.58259e-08
-2.74166e-06
-1.34962e-06
0.00239568
-0.0135957
-3.15574e-06
-2.92165e-07
-1.18289e-05
2.01967e-07
2.73762e-05
-1.63323e-05
-2.30272e-06
0.00386192
-9.93872e-07
5.16954e-06
-1.35462e-05
-1.57835e-06
-2.69773e-06
3.79198e-06
-2.67563e-06
1.0408e-06
-5.07486e-06
-7.66232e-07
1.66809e-07
2.48471e-06
-1.2529e-06
-6.58195e-07
-2.82154e-07
-7.37101e-07
-3.50235e-06
4.64164e-07
-7.99906e-06
-2.32047e-07
-2.18417e-07
1.40386e-08
-5.11923e-07
1.02939e-07
-6.50084e-07
-5.66433e-07
-0.00892771
9.47684e-06
-2.809e-06
-6.84618e-07
3.3646e-08
-1.08506e-07
-3.57814e-06
-4.77577e-08
-0.044587
-1.14222e-06
0.000400646
2.30591e-06
-2.23345e-05
1.59995e-07
4.77069e-08
-6.85888e-07
-4.75112e-07
0.00601543
1.83187e-08
-0.0279654
-7.70333e-07
0.00161556
-1.10046e-06
-1.02724e-06
-0.000106797
-3.93686e-07
1.50635e-08
8.75212e-06
-3.74254e-08
-2.84325e-07
-0.0469672
-4.34497e-07
-1.46884e-07
-6.64176e-07
-5.3232e-07
-7.04596e-07
-6.03189e-07
-1.26443e-06
0.00115127
-9.81423e-07
4.45534e-07
-9.17615e-07
-3.9392e-05
-7.57575e-07
-2.92715e-07
-3.29431e-07
-0.0489328
-0.000443643
-0.0121485
-3.60501e-07
9.72737e-07
-8.11242e-07
-6.0686e-07
4.57774e-06
-9.59399e-07
0.0399121
-8.23962e-08
0.00851137
-4.15497e-07
-2.3947e-07
-0.00821232
-2.09705e-07
3.13728e-07
-4.46578e-07
-5.1184e-07
-1.3538e-06
-4.62414e-07
3.15443e-08
-0.0169236
0.00583399
-2.2735e-06
-4.65145e-07
6.47108e-08
4.36721e-05
-0.0307515
-1.29181e-07
-0.0282927
9.33767e-09
-1.18531e-06
4.66907e-07
7.18571e-08
-0.0478245
-3.61394e-08
7.29129e-05
-1.46913e-06
3.30279e-08
-2.63328e-07
1.38078e-08
-7.03344e-07
9.25398e-07
3.82967e-05
2.70803e-07
-1.9338e-07
0.00214529
-0.00376488
2.4547e-06
-1.27713e-06
-6.7106e-06
8.15851e-08
-4.98568e-07
-7.93844e-09
-0.00706542
-1.07703e-06
-1.89497e-07
-3.77615e-07
-0.0129696
-1.53643e-06
-0.0268244
-8.96608e-09
-7.90473e-09
0.00358251
-4.76014e-07
1.24865e-08
-0.00140505
-1.87974e-05
-6.44162e-07
-1.42409e-05
-6.86781e-07
-2.82862e-08
-7.51977e-07
-0.0120701
1.36926e-07
6.42445e-07
-5.02484e-07
9.69794e-05
1.52694e-06
-9.05046e-07
7.94922e-07
1.92208e-07
1.88552e-08
-1.50932e-07
-0.0269399
-4.70716e-07
3.08001e-07
-1.51534e-07
4.62752e-05
-1.32343e-07
-3.63488e-05
0.00420592
0.038977
-9.41998e-08
0.0339417
0.00310376
-6.22473e-07
0.00452548
-0.0379321
0.00133852
0.00915198
0.00266963
-0.00396112
-2.25107e-05
-3.58924e-07
0.0123167
-6.54665e-07
0.0312785
4.27975e-08
-5.60846e-07
-3.12771e-07
-1.78777e-07
2.67069e-07
3.85327e-08
0.00443735
-5.81072e-07
-1.20463e-07
0.00203816
-1.71853e-06
7.97879e-08
-7.39908e-08
-9.51586e-07
-2.76254e-08
3.81811e-06
3.06021e-07
-1.60851e-07
1.51277e-06
0.00517503
-0.0113326
-3.00392e-06
4.07091e-07
-1.30703e-06
-5.42021e-06
0.00364936
-0.0134804
1.96224e-05
-5.21668e-07
1.06807e-07
-3.586e-07
1.43012e-07
-4.92953e-07
-4.35481e-07
-7.65705e-07
-8.81103e-07
0.00697129
-9.99492e-05
6.21746e-07
-1.77021e-05
-0.0200805
-1.08364e-06
-3.7402e-07
-0.00343094
-4.31218e-07
-3.32631e-07
-6.81001e-09
0.00594712
-2.62807e-09
-6.52056e-07
0.0322853
0.0223084
0.00888707
-2.4853e-05
0.0178533
-6.66681e-07
-2.75101e-05
-3.45424e-07
-3.64845e-07
-2.71277e-07
0.0214918
-0.0150041
-1.13543e-07
-2.31222e-07
-3.85931e-07
-0.00233794
-5.98666e-07
-1.03416e-06
-5.11836e-08
-5.5078e-07
-2.00798e-05
2.79009e-07
-2.77217e-06
-4.86741e-07
0.0208582
-3.61314e-07
-1.06155e-06
-7.17078e-07
-0.00955466
-0.0188365
-3.12525e-07
-0.0253108
-8.48855e-06
-7.04923e-07
-9.99812e-08
0.00149239
-1.32756e-07
-4.18469e-07
-1.17221e-06
-2.41068e-05
0.0366001
1.36533e-05
8.8187e-05
-0.0229831
-8.06286e-07
-0.0278569
8.89268e-08
-7.45312e-07
0.0307265
-4.502e-07
-7.84645e-08
-4.87687e-07
-1.43691e-07
0.00732176
-3.55664e-07
-2.05275e-07
1.62089e-08
-1.66839e-06
-1.84663e-06
2.42741e-08
3.93963e-05
-0.00161345
1.00011e-05
-1.45801e-06
5.18139e-06
-0.00189258
2.50222e-06
-0.00230188
0.0254317
6.27182e-07
3.32985e-07
0.00381777
1.48394e-05
-2.47783e-07
-1.66359e-05
-1.0714e-06
6.10992e-07
3.7404e-07
-9.85947e-08
-1.36306e-06
3.22281e-08
-2.08335e-06
4.45679e-07
-5.90077e-07
-4.31401e-06
-2.00015e-07
-8.67597e-07
-7.6828e-07
-2.36756e-08
-3.75706e-06
4.01055e-07
1.46556e-07
-1.17e-07
5.76841e-06
-1.36149e-06
-0.0152104
-2.97117e-07
-5.58142e-07
-2.86111e-06
-4.77839e-07
-7.68895e-06
-1.63421e-06
6.11099e-07
-1.32423e-05
-1.15049e-07
-0.0109886
-2.58834e-07
2.61276e-06
0.00120389
-0.0218036
-7.50547e-07
-5.7669e-07
0.00406193
-3.42607e-07
-6.06873e-07
0.00433269
-0.0130227
9.02348e-08
6.36856e-05
-3.29796e-07
1.28923e-07
0.0231548
-5.04822e-07
-4.35043e-07
0.00914894
-9.77366e-08
0.0204711
-1.82592e-09
-4.86265e-07
-3.10374e-07
4.18267e-05
0.011939
-5.66817e-07
-3.24112e-07
-6.56025e-07
-6.18222e-07
-5.39358e-07
2.14211e-06
-4.03471e-06
-4.32242e-08
0.00164748
-9.39345e-07
-0.031218
0.0149765
7.33917e-06
-9.28795e-08
-3.74239e-07
-3.7704e-07
2.3646e-06
-5.70132e-07
0.0127278
-0.00992983
-1.14044e-07
0.0299987
7.03908e-06
-2.0801e-06
4.59449e-05
-1.33181e-06
7.68276e-08
0.0382846
-8.52144e-07
1.08024e-06
0.0071474
8.0127e-06
-6.71506e-07
-0.00144353
8.21419e-08
8.168e-08
2.74725e-07
-0.00085981
-9.97538e-07
-5.38148e-07
-1.02314e-06
-7.6506e-06
-1.01023e-06
0.000939559
-6.34915e-07
-0.024524
4.67375e-06
5.1613e-05
-1.70896e-05
-5.38069e-07
-8.93509e-07
-1.85385e-07
-4.88027e-07
0.0370508
-3.38667e-07
-1.85013e-07
-1.17198e-06
-5.13152e-07
-5.53499e-07
-6.18579e-07
6.52569e-05
7.37084e-06
1.07365e-07
3.8187e-07
0.000825264
-1.45215e-06
-4.88117e-07
0.0019536
0.00555566
-6.07708e-07
-6.03832e-07
-1.01331e-06
0.00443555
-1.83372e-07
-6.3565e-06
1.41088e-06
-9.991e-07
-3.258e-07
7.66981e-07
-1.7475e-08
-1.55488e-05
-7.99093e-07
-5.62858e-07
0.00261033
0.00703783
-9.05622e-07
-0.0291697
8.94279e-06
4.05298e-05
-5.10421e-07
1.14751e-07
0.0154044
-0.0197614
2.04025e-05
6.1004e-06
-6.73626e-07
4.5776e-08
5.07281e-08
-4.03656e-07
-2.64468e-07
-1.72713e-07
-1.02033e-06
-6.7744e-07
2.23954e-05
-5.28805e-07
-7.52459e-07
1.36423e-07
-1.03182e-06
5.27406e-05
4.22639e-06
-6.29806e-07
-4.09936e-07
5.68037e-08
0.0376205
-2.12264e-07
1.14945e-07
-2.18652e-07
0.0336852
-0.00894367
6.35341e-05
-7.0124e-07
-0.00018219
-3.4379e-07
-7.87701e-07
-0.00991315
-2.21984e-07
-2.91941e-07
-1.43979e-06
-1.13569e-06
0.0316124
-6.94704e-07
-8.44453e-07
9.98655e-07
-2.63745e-07
1.46702e-07
-4.09654e-07
-6.63572e-07
-1.63424e-07
-0.00546913
-4.17067e-07
0.0387208
0.00137905
-2.7447e-06
0.0134617
-4.07167e-07
-6.53384e-07
-6.6918e-07
-0.00727182
9.61994e-07
-1.0174e-06
9.0786e-07
-0.000203716
-6.05482e-07
-0.00122356
-4.794e-06
-6.85587e-06
-4.46803e-07
-3.07858e-07
7.33285e-05
-3.08609e-07
1.84349e-08
6.23085e-08
6.42484e-08
-7.86021e-08
-6.61362e-07
5.8574e-06
-1.88239e-06
0.0349423
1.86297e-06
3.02733e-06
8.49024e-05
0.00292218
2.2e-06
7.5534e-07
-0.000642916
-1.80528e-06
-0.00251441
-1.31228e-09
0.000292834
-0.000148104
2.42734e-07
-1.01616e-07
-4.89432e-07
5.51458e-07
-1.36228e-06
2.41838e-07
3.78566e-08
1.88906e-05
-2.87264e-08
-6.64938e-07
-0.0046984
-1.58696e-07
5.23694e-07
-0.00624291
4.07024e-08
0.00658709
7.04626e-07
-3.54927e-07
-6.49136e-07
-0.00755869
-0.0105587
-3.16828e-07
5.23345e-07
0.000670213
-2.972e-08
0.00185021
-5.22034e-07
-8.65602e-08
0.0243641
2.53431e-07
-4.76192e-08
0.000495392
-1.15738e-07
-3.53149e-06
-6.8885e-07
-2.58759e-07
-8.65813e-07
0.00598228
0.00458117
-4.42885e-07
3.57094e-07
-5.21921e-07
-7.09911e-07
-2.47529e-07
-0.00313623
-2.70364e-07
1.19295e-05
0.0256881
5.01912e-05
-0.0208366
2.24288e-07
3.4724e-05
3.43294e-07
-1.1819e-07
-2.17671e-07
3.80761e-06
-0.00234875
-1.31311e-07
1.39866e-08
0.0277061
4.48997e-06
2.13816e-06
5.52022e-08
-3.03405e-07
-1.25581e-07
-5.12009e-08
-0.00508346
-2.01014e-06
6.14484e-07
5.53966e-07
-1.88137e-07
1.23307e-07
-5.44599e-07
-9.62456e-08
2.22201e-06
4.46306e-06
0.00431239
-7.8421e-07
0.000581604
0.00431117
-8.2192e-07
-2.43121e-06
-6.68264e-07
-7.25922e-07
-0.00642259
-3.77803e-07
-7.1307e-07
-2.19324e-06
-4.97195e-05
-1.01807e-06
0.000292072
0.0283083
-4.40349e-07
0.0038934
-1.56323e-07
-8.14866e-08
-8.28789e-07
2.46817e-08
4.24282e-07
-0.00806074
-0.0404782
-1.31494e-07
0.00694602
-5.49508e-07
-8.02331e-08
-6.53079e-07
5.99247e-06
-6.93615e-07
8.13162e-07
-0.00146132
-4.10355e-07
0.037054
0.00792467
-1.33751e-07
-1.12769e-06
-5.23489e-07
0.0035247
-6.7908e-06
-1.78199e-08
0.00839283
-3.09032e-06
2.16492e-07
9.65351e-08
-0.0131029
-5.93392e-07
-6.05016e-06
8.98437e-07
3.31618e-08
-0.00886219
-1.91811e-07
5.03395e-06
-5.29777e-07
-3.88181e-06
-1.02631e-08
-1.35225e-07
0.00601918
-4.85244e-07
-5.762e-05
-4.08378e-06
-5.90188e-07
-8.83699e-07
-9.3268e-07
-2.93382e-07
0.0285493
-6.44894e-07
0.00605773
-2.81043e-07
4.44303e-06
-4.00423e-07
-1.4234e-06
-3.35673e-07
1.15357e-05
0.040589
-5.08384e-07
-6.63073e-07
-7.08859e-06
1.48828e-07
9.33093e-05
3.07615e-08
0.016464
5.28931e-05
-9.8504e-07
-3.41801e-07
-5.64779e-07
-1.09914e-07
-3.87597e-07
-1.2994e-05
-8.49269e-07
-1.15853e-07
-6.68418e-07
-3.68131e-07
-0.0393821
3.17106e-07
-9.82442e-07
7.33228e-05
-3.18473e-07
0.0048992
-1.85799e-06
2.82376e-06
7.91118e-06
-0.00311945
7.95369e-05
0.0358352
-0.000409098
-6.43329e-07
-3.2794e-07
0.00261257
3.64653e-07
-1.59338e-07
-2.46139e-07
1.25708e-05
0.00829576
0.00734501
2.93684e-06
7.09097e-07
-1.23738e-06
-2.06298e-06
0.0102099
-0.000223216
5.42969e-07
-2.02368e-05
-5.99505e-07
-1.45617e-06
1.95172e-05
-1.84492e-07
-8.4145e-06
-0.0416238
-1.1158e-07
0.0193315
-3.62763e-08
-3.45901e-08
0.000920153
-0.00235893
-6.79339e-07
9.10189e-07
-3.20892e-07
-1.31192e-07
-1.26293e-06
0.0216521
7.86971e-07
-4.06531e-07
-2.78146e-07
2.96172e-06
-5.72886e-07
-6.23992e-07
0.00014031
-2.13082e-07
-0.00534862
0.000214579
0.00559524
-3.03539e-07
-2.69745e-06
0.012978
-1.2646e-06
0.00883007
0.0365966
0.000153003
-5.04217e-07
-0.0149006
0.0084641
-7.53686e-07
-2.51801e-07
-3.32317e-06
0.0246429
-0.00821546
3.11979e-07
-3.08814e-07
0.0185085
7.06668e-05
7.09879e-05
-4.22781e-07
-1.7166e-08
-2.25209e-06
-3.37788e-07
0.0167359
0.00671095
0.0420692
-2.16447e-06
-3.30678e-07
-7.55408e-07
-7.12806e-07
-6.62278e-08
0.00543241
9.11637e-07
7.13721e-07
-6.55823e-08
-1.07434e-06
0.00421556
3.0793e-06
-0.0162889
0.00246764
0.0054612
-1.02561e-06
-2.16872e-07
-1.76378e-07
0.0175356
-3.56899e-07
6.66435e-08
-5.20155e-07
-1.70061e-05
-1.79112e-06
0.00898969
-1.05656e-05
-3.09568e-07
-0.0146931
-1.53732e-06
-5.41887e-07
0.00224959
4.26546e-07
-6.4929e-08
3.89218e-07
-0.000538109
-0.0326157
-1.08474e-07
-0.0365928
0.0259824
0.00119609
3.81474e-05
-1.1628e-06
-5.78464e-07
1.02275e-07
1.17725e-05
-3.6259e-07
0.0374219
-1.22856e-06
3.34663e-05
0.00642635
-8.3567e-08
-5.12136e-07
-4.88567e-07
-2.31057e-07
0.0038441
0.00546525
-8.46394e-08
0.00356985
5.40974e-07
-3.0106e-07
-3.52272e-07
-5.66107e-07
-4.32112e-05
-3.59722e-07
-2.74821e-06
-5.20755e-07
-5.31054e-07
-8.47355e-07
1.09614e-07
-0.00337822
-1.58968e-06
-6.18919e-07
-1.3753e-06
-3.09178e-07
-2.46626e-08
3.30722e-07
-0.00247974
0.00937781
-0.0237632
-5.40814e-07
-7.61676e-07
-3.496e-07
3.69656e-05
-5.76954e-07
-3.93267e-07
-0.00581679
-2.26803e-06
0.0370059
2.30958e-07
-0.026731
0.00998633
-8.36627e-08
0.0106283
-3.70356e-05
1.85124e-06
1.28039e-07
-3.8342e-07
0.00786492
-2.66119e-07
-2.53257e-07
-5.81172e-08
-3.59303e-07
0.000188114
-9.89932e-07
7.76413e-07
1.85606e-08
0.00520213
0.0142242
-4.45878e-08
-6.98271e-07
-2.78112e-07
-3.59526e-07
-1.86567e-05
-3.05521e-07
-7.40052e-06
2.61224e-07
-0.0019947
5.82835e-07
0.023986
-5.40277e-07
-0.0204649
-2.93341e-08
-3.14031e-07
-0.00451768
2.24684e-06
2.95848e-07
0.0323923
-8.10215e-08
-1.7228e-06
-1.0036e-07
-0.0152395
-5.92469e-08
-5.66523e-07
-7.51412e-07
9.51532e-06
0.00564755
0.00452331
-1.7007e-05
-0.0426557
-9.51008e-06
7.70809e-06
1.20031e-07
-7.90265e-10
3.18767e-07
-0.00915567
1.54686e-08
-0.0167975
0.00697297
4.50058e-07
-6.26628e-09
-4.39077e-07
3.37901e-06
1.21752e-05
2.61197e-07
-1.82426e-07
-6.82042e-07
-6.10213e-07
-1.66933e-06
-8.15464e-06
-1.62819e-06
-4.05296e-07
6.91323e-07
-4.83037e-06
-0.00585051
-7.42229e-06
-6.64406e-07
-2.03176e-07
-0.0136549
-7.57547e-07
-7.57192e-06
0.0387912
-3.69343e-07
-6.41287e-07
-0.00270161
-1.9674e-06
-1.97447e-07
0.00168968
-1.56911e-07
-0.0245277
4.95677e-06
-6.18584e-07
3.14274e-07
-0.0318931
-6.4455e-07
-6.79712e-07
1.49626e-05
0.00750198
-2.79415e-06
-2.79844e-06
7.05012e-07
-3.71199e-07
-3.55221e-08
0.000447317
3.92943e-07
-5.55716e-08
-1.23754e-06
-3.32962e-07
-4.92147e-08
4.68176e-06
-2.21802e-07
-3.67521e-07
-4.57631e-07
-4.34739e-05
-2.01801e-07
-1.03417e-06
1.18016e-06
-6.90141e-07
-9.40097e-06
-1.26208e-07
-1.80877e-06
1.49054e-06
-4.65644e-06
-4.19632e-06
5.17423e-09
-5.01656e-05
0.0388948
3.02847e-06
-5.21206e-08
-0.0474997
0.00749284
-4.4799e-08
-1.40843e-07
-4.15063e-07
-3.29792e-06
-3.88165e-06
3.47475e-07
9.01481e-07
-0.0132377
-9.45368e-07
-1.89842e-07
0.000573884
0.0082729
9.39129e-06
-3.32112e-07
-0.00101093
0.00321538
-6.73375e-06
-2.65611e-07
-0.00857378
1.63951e-05
-9.66717e-08
0.0358191
-1.54411e-07
-4.24728e-07
-9.09491e-07
-4.64775e-06
-1.00428e-06
0.00335227
-0.0250577
-6.75417e-07
-0.0268163
2.90857e-08
0.00361856
-4.94926e-07
-3.35782e-07
-6.42389e-08
-5.60088e-07
0.00460198
-0.00834668
-0.0168305
0.0225643
-8.00652e-07
-2.83374e-06
-6.39417e-07
-0.0201665
0.00641999
-5.28548e-08
-3.94469e-07
-1.62769e-08
2.84589e-07
-2.46018e-06
0.0197317
-0.0350949
-2.80829e-06
3.81109e-08
3.94473e-07
0.000606818
-2.87846e-07
-2.8609e-06
-6.32291e-07
-5.03758e-07
3.60401e-06
-0.0120383
0.00993233
1.87207e-05
-1.96694e-07
-0.0109067
-8.39129e-07
-6.64489e-07
-0.0193124
-6.7473e-05
-2.24872e-07
5.56745e-08
2.52476e-06
-9.22608e-08
-2.45196e-07
0.00756494
-0.0114955
-3.56207e-07
1.20799e-07
-1.06292e-07
-4.49503e-07
6.92471e-06
-4.23095e-09
0.00236126
-1.38873e-05
9.60923e-06
-5.31019e-07
-1.08578e-06
-0.0291942
-6.42202e-07
-1.8295e-07
0.00589923
-2.89354e-07
-0.00648159
9.89772e-09
-2.30894e-07
-3.06597e-07
-0.00868809
0.00415874
7.87786e-06
-6.72907e-07
-1.17898e-06
-2.55873e-08
4.84479e-08
-4.05124e-07
0.00125914
-6.28972e-07
-2.91408e-05
0.000119203
-2.76778e-06
-1.32608e-07
-3.57273e-07
-4.31185e-08
-1.79008e-08
2.42205e-06
-3.01185e-07
4.93768e-06
-1.39385e-06
-4.03205e-07
-0.0121034
-5.46319e-07
1.06318e-05
-2.56788e-07
-5.53178e-07
0.00489815
0.0145053
-2.15768e-08
1.43511e-07
2.07437e-06
-1.5616e-06
4.18181e-06
9.49629e-07
-5.99923e-07
-3.12972e-08
0.00766472
-1.4495e-07
0.000735354
-7.46904e-07
0.00995567
3.40557e-05
1.88296e-07
0.00876178
-4.16203e-07
0.0378744
-5.30177e-08
-0.0298986
0.000178286
-0.000390375
-0.0340846
-0.00960954
-8.47856e-07
1.42662e-07
0.0179055
-7.05696e-07
-7.47149e-08
-0.0105599
0.00396945
-1.46145e-07
6.70741e-07
-8.81324e-07
-9.00815e-07
1.17457e-08
-0.00745276
-6.39628e-08
2.57794e-06
1.58287e-06
-7.01023e-07
-2.10171e-07
1.70195e-05
-1.12132e-07
0.00532903
-2.9876e-07
-8.89654e-06
-1.16675e-06
-1.83402e-06
-1.00456e-06
-0.00616113
-4.8539e-06
-6.25473e-07
-1.21207e-06
0.0281542
0.00609771
3.26229e-07
0.00465241
-5.57288e-07
3.90381e-05
-6.72975e-08
-4.82439e-07
0.00871688
5.46953e-06
0.0025742
-0.010156
-7.04817e-08
-0.0153374
-4.22061e-07
-1.34398e-08
-0.00668299
1.98393e-08
-5.59362e-07
0.00102932
-6.29642e-07
-5.7595e-07
-5.22447e-07
-2.72237e-06
-4.73739e-07
-0.00247289
0.021098
0.00184582
-0.0191007
-4.12363e-07
-1.55967e-06
0.0023192
-5.69631e-07
-3.09749e-07
-1.24364e-06
-7.15866e-07
6.03916e-07
0.00339136
0.00614751
0.00248129
9.28037e-07
3.03438e-07
-0.00580909
-1.99169e-07
3.53547e-07
-2.24363e-08
0.00800335
-7.16185e-07
-1.00139e-06
0.0112718
-1.6573e-05
-4.40216e-07
-7.2656e-07
-0.000650617
-9.78491e-10
-0.000225358
-5.77525e-07
-0.0034791
-0.0196476
-3.37217e-05
2.73078e-07
-5.2863e-07
5.07564e-05
3.449e-05
-1.63265e-06
-5.80957e-07
5.07029e-07
-4.51825e-07
1.45554e-06
-1.26116e-07
1.58362e-05
5.94145e-08
-3.33288e-07
-0.0237782
-4.74226e-07
-6.2419e-07
6.74377e-07
1.13038e-07
0.0150657
-5.82722e-07
-8.68245e-07
0.000486257
5.51252e-06
0.00154814
-2.39737e-07
-0.0306978
5.95422e-06
0.000203101
-6.31183e-07
-3.18187e-05
5.56015e-07
-1.77053e-06
5.80726e-05
3.6432e-05
-1.57697e-05
-0.00981604
-1.37392e-05
5.62522e-06
-1.39972e-08
1.8695e-05
-7.38026e-07
3.93702e-05
-2.42895e-07
5.3652e-07
-3.0933e-07
1.15249e-06
-9.7229e-07
-0.0171311
-2.95453e-06
0.0413505
-0.0426164
9.95802e-07
-3.68805e-07
-0.0133303
5.78416e-07
-2.56401e-07
-1.2759e-07
-5.30847e-07
0.0307917
-2.02355e-07
0.00474468
-5.35784e-07
3.22032e-07
-0.0170837
-1.23805e-06
-2.94958e-07
-3.07235e-07
-0.00542889
-6.20736e-07
-5.10303e-07
9.87546e-08
-9.49041e-07
-7.00053e-07
-2.96275e-07
8.27541e-05
-3.34336e-07
-2.44523e-07
-1.37952e-05
0.00330142
0.0142615
-0.00913975
-5.40527e-07
-6.27866e-07
-5.78612e-07
3.0117e-07
1.43525e-07
0.00102812
0.00798808
-3.20635e-07
-1.06176e-07
0.00650471
0.0077094
-4.03657e-07
-6.19596e-07
-1.55625e-07
-0.00435618
0.0107304
-6.07923e-07
-1.03031e-06
-1.00967e-07
-6.57129e-07
6.28852e-05
8.01448e-07
7.46307e-08
-7.33567e-07
-1.37118e-07
-1.41883e-06
-0.00374053
-1.14134e-07
-1.90074e-07
-5.56673e-07
0.0364378
-4.04955e-07
0.0142353
-1.33047e-07
0.00723028
-9.81349e-07
-6.05538e-07
-7.31979e-07
-5.87546e-07
5.35651e-06
-0.0415037
-2.99287e-07
0.00460752
-0.0029006
-3.2184e-07
-0.00271135
5.09169e-05
-1.34097e-06
0.0177372
0.0402786
-4.30109e-05
-3.40082e-08
0.0160033
0.00393119
1.23237e-07
-7.37092e-07
0.00924574
-9.20541e-07
-4.76263e-07
-4.23128e-07
-4.5068e-08
3.1642e-07
-5.81619e-06
-0.0354841
-7.28862e-07
-4.05206e-06
-8.51363e-07
-3.44203e-07
0.0431016
-6.34004e-07
-1.2212e-06
2.10351e-08
7.27893e-07
-3.03223e-06
-3.04159e-07
-4.9661e-07
-1.85634e-05
-3.82751e-07
-0.0209138
-2.82148e-07
0.000222647
0.0234374
-1.12445e-05
-2.66661e-07
4.00486e-08
-0.0107352
-3.52181e-07
-3.60565e-07
-2.40963e-07
1.28127e-08
4.10212e-05
-1.09233e-06
0.0179483
-8.36628e-07
0.0111206
-9.71367e-08
-1.83034e-06
5.36123e-08
-2.07623e-07
0.00330101
0.0097523
6.60317e-06
-4.70761e-07
-6.22296e-06
-4.0331e-06
0.00853113
-0.00282756
-0.00041377
-1.44006e-06
-1.70822e-07
-0.0106539
-2.52601e-07
-2.68971e-07
-0.0280808
2.90458e-05
-5.4766e-07
1.16312e-06
-4.8083e-07
-9.31127e-07
-6.334e-07
-0.0159252
-4.3132e-08
-3.95436e-07
-0.000523199
-5.0982e-07
-4.35886e-07
0.00899204
-4.24539e-07
-2.23256e-07
-5.18527e-05
-4.74465e-07
0.0103336
-5.37344e-07
-2.66708e-07
-7.04551e-07
1.04903e-05
-6.46827e-07
3.82603e-06
0.0182809
0.0215913
0.00519655
0.000883442
1.81708e-08
-0.0123982
-6.84356e-07
-9.8631e-08
-5.99392e-07
-3.14459e-07
-3.6398e-07
-1.42255e-06
-0.00292989
0.0359562
0.018651
2.20187e-05
-3.68672e-07
-2.67858e-05
-4.65183e-07
0.00363537
-6.67787e-07
6.00698e-07
-1.52327e-07
-1.7682e-07
-5.51088e-07
-2.62556e-05
0.0395834
-5.7127e-07
-2.96433e-07
-7.83543e-07
-0.00599622
-1.18808e-07
-0.0319015
0.000251112
1.46271e-06
-1.50132e-07
-5.67713e-07
0.00146065
-1.57776e-05
-1.77594e-07
-1.72259e-06
1.23243e-08
-1.21464e-06
3.30216e-07
-1.43848e-05
-6.12567e-07
0.0010286
-6.38449e-07
1.1876e-07
0.000141992
0.00511898
-7.6811e-07
-8.94569e-07
-6.29941e-07
0.00302793
-3.63756e-07
-7.68165e-07
-2.84692e-07
-6.19099e-07
-0.00178591
0.000470929
0.0233841
8.15581e-06
-0.0118225
-0.035393
-4.08066e-07
-2.62861e-07
-4.93082e-07
5.0344e-06
1.16433e-07
-4.44377e-07
-4.8763e-07
-6.16439e-07
-1.23758e-07
-6.98183e-08
6.91316e-07
7.70707e-06
3.38401e-07
3.88053e-08
-1.87023e-06
2.91558e-06
-2.31106e-07
-8.16938e-07
1.68381e-06
-1.29972e-06
-0.0105312
-6.14369e-07
0.00742028
-2.36262e-06
-8.84959e-07
1.09077e-07
-6.07507e-07
0.0123638
0.00349337
9.09094e-08
-3.65492e-07
0.00553094
0.0245245
4.0532e-09
0.00875215
-3.38086e-07
0.0468789
3.39956e-09
-5.07455e-07
0.00886201
1.09508e-06
0.0159189
-2.13006e-07
-3.79941e-07
-2.24647e-07
-9.99706e-05
0.0197316
-3.79543e-07
3.86683e-07
0.00157545
-4.38474e-07
-3.50759e-07
-9.74324e-07
6.27564e-07
-0.000458693
-2.44591e-06
1.30291e-06
-1.5277e-06
-2.4904e-07
-5.86305e-07
-9.85152e-08
-3.75828e-07
-0.0193612
-4.28777e-07
7.34647e-06
6.12073e-07
-1.20287e-06
-4.38919e-07
0.000385487
-8.00249e-06
-2.43296e-07
-2.085e-06
-8.35119e-07
0.0272571
8.84006e-09
-0.0296617
-3.12401e-06
-3.88555e-07
-5.56368e-06
-5.84361e-06
-1.60782e-07
-0.0347908
5.84998e-06
2.92731e-06
0.0247937
-4.51101e-07
-7.5604e-07
3.202e-07
-1.11799e-06
-5.4767e-07
-5.81416e-07
-3.57409e-07
1.40984e-06
3.31376e-06
2.3215e-06
-0.0289653
0.00360033
0.000347527
3.83687e-08
1.85132e-06
0.0260998
0.000185945
-4.95228e-07
-2.98867e-07
-2.18453e-06
0.0300455
-4.9458e-07
1.92565e-07
0.00176512
-0.0031921
0.000288887
6.14814e-07
-6.27027e-05
0.00755665
-4.39027e-05
-2.85998e-08
0.000246327
-0.0198372
-1.52629e-07
1.53624e-07
-5.40054e-07
0.0384483
-5.16482e-06
0.0193028
-4.05403e-07
-5.80973e-05
-4.48698e-07
-0.0253267
0.0118441
-3.29675e-07
-7.13095e-07
-0.0134926
0.0417985
-2.84264e-06
-1.77736e-07
-4.45498e-07