/*--------------------------------*- C++ -*----------------------------------*\
| =========                 |                                                 |
| \\      /  F ield         | OpenFOAM: The Open Source CFD Toolbox           |
|  \\    /   O peration     | Version:  v2012                                 |
|   \\  /    A nd           | Website:  www.openfoam.com                      |
|    \\/     M anipulation  |                                                 |
\*---------------------------------------------------------------------------*/
FoamFile
{
    version     2.0;
    format      ascii;
    class       volScalarField;
    location    "1000";
    object      p;
}
// * * * * * * * * * * * * * * * * * * * * * * * * * * * * * * * * * * * * * //

dimensions      [0 2 -2 0 0 0 0];


internalField   nonuniform List<scalar> 
13917
(
-0.0922223
-0.0143137
-0.356005
-0.064507
0.0286895
0.461588
-0.252571
-0.425565
-0.560513
-0.130723
-0.275428
-0.14553
-0.0652644
-0.457468
0.0420822
0.0173162
-0.00630091
-0.192647
-0.142802
0.00261196
0.0178775
-0.238725
0.0093848
-0.432783
0.02359
-0.142496
0.21957
0.231053
0.101408
-0.189038
-0.108904
-0.0571029
0.17229
0.112345
0.0301828
-0.275506
0.0095293
-0.468626
-0.0752954
-0.0807749
-0.0113717
0.0155947
-0.0255056
0.258699
-0.0414061
0.128516
-0.191095
-0.243052
0.516276
-0.00460757
-0.10859
0.0594594
0.520053
0.116451
-0.00458184
-0.100297
-0.277292
0.0200518
-0.0791854
-0.0397061
-0.26357
-0.0162978
-0.450751
0.00278759
0.452748
-0.345831
0.0322413
0.0394918
-0.410185
-0.0565904
0.0280134
-0.565097
-0.484953
0.0227501
0.504672
-0.125202
-0.543346
-0.0603216
-0.0947712
0.0173384
0.0123541
0.0316794
0.439382
-0.475024
-0.300155
-0.0592163
0.00913331
-0.318911
-0.106104
-0.025939
-0.54102
-0.163012
-0.021634
0.0440671
-0.312771
0.454222
-0.305896
-0.227708
-0.143396
0.333786
-0.0135693
0.170398
0.267203
-0.0718621
-0.0173734
-0.526804
0.0694626
-0.251062
-0.0085525
-0.106576
-0.245968
-0.0791779
-0.153756
-0.530107
0.076491
0.513849
0.0117008
0.505257
-0.179372
0.114413
0.0157189
-0.400654
-0.272278
0.225055
-0.00680729
0.0426491
-0.0348053
-0.00646314
-0.0228988
0.461757
-0.237913
0.0742696
-0.0415941
0.0184211
-0.281647
-0.420929
-0.0888226
0.348685
0.03226
0.113874
-0.291857
-0.0270283
0.0608145
0.29367
0.0398681
-0.564173
0.0424959
0.057513
-0.0261824
-0.0502625
-0.19925
0.508209
-0.219068
-0.0204681
-0.0815739
-0.415716
-0.0523093
-0.517166
-0.541015
-0.274855
0.0806609
0.220392
0.0135228
-0.295977
-0.155202
-0.145443
-0.0703276
-0.218891
-0.0338689
0.17605
-0.0403468
-0.221435
-0.146463
-0.00265373
-0.575866
-0.0120612
-0.233367
0.512563
-0.563026
-0.00586293
-0.168031
-0.114404
-0.0277926
0.00949201
0.0762454
-0.149244
-0.208139
-0.407209
-0.141271
-0.172225
-0.416582
-0.298397
-0.208298
0.0149219
0.366612
0.21133
-0.0162523
-0.0216408
0.0499994
-0.301465
-0.0988743
-0.00421725
-0.204368
-0.194831
-0.485629
-0.419028
0.0300817
0.0209827
-0.225734
-0.230314
0.0585394
-0.277448
-0.481901
-0.175451
-0.016865
0.324865
-0.208815
-0.284083
0.0079113
-0.252253
-0.00561725
-0.196064
-0.0108027
-0.51402
-0.513814
0.0165668
-0.264037
-0.0854455
-0.016091
-0.268911
-0.142878
-0.140914
-0.377717
-0.478512
-0.015773
-0.0605287
-0.539763
-0.342768
0.0141865
-0.00400583
-0.101238
-0.337042
1.56258e-05
-0.220069
-0.252848
0.213212
-0.0916333
0.0129914
0.0220034
-0.507636
-0.0468212
-0.176812
0.350193
-0.0347721
0.021017
-0.191854
-0.0901694
-0.214609
0.0748198
0.0382558
0.000420718
-0.266168
-0.336034
-0.168171
-0.0153975
-0.405624
-0.482136
-0.520936
-0.0898566
-0.126364
0.0129824
-0.00825842
-0.196136
-0.539577
-0.325149
-0.0776524
-0.414298
-0.105818
-0.0227897
-0.198083
0.00101359
-0.576674
-0.095729
-5.7377e-05
0.0110301
-0.0152238
0.220347
-0.223763
0.0114083
-0.0498688
-0.258587
-0.391636
-0.333592
0.00835115
-0.549855
0.0286945
-0.049974
0.0112571
0.00843204
-0.0020432
-0.199118
-0.087051
-0.0336335
-0.207435
-0.034113
0.521564
-0.0108039
-0.15942
-0.0333732
0.020178
-0.234041
-0.323392
0.0111774
-0.00937938
-0.199605
-0.0110065
-0.490426
-0.0323401
-0.518533
-0.0537207
-0.214341
-0.14188
0.48721
0.0768345
-0.263927
0.356271
0.00841887
-0.34028
-0.0594841
0.0186701
-0.343302
0.362761
-0.486901
0.100503
-0.0778711
-0.0678889
-0.231358
0.351482
0.0405939
0.0288407
-0.345867
0.0192789
-0.0460445
-0.242177
0.0368588
0.0103378
-0.458448
0.0458686
-0.00876454
-0.406767
0.136598
-0.011239
-0.182371
-0.333226
0.00114275
-0.00707509
0.0287859
-0.0267231
-0.265057
-0.568574
0.409123
-0.232832
0.0181062
-0.180873
-0.416252
-0.170973
-0.263545
-0.544396
-0.520172
-0.0164942
-0.165912
-0.00919916
-0.249163
-0.0384329
0.47812
-0.250705
-0.0801353
0.0197836
-0.218441
-0.171406
-0.235858
-0.0969017
-0.230424
-0.28272
0.0166794
-0.125151
-0.00376081
-0.339871
-0.198369
0.0142517
-0.269488
0.02404
-0.360182
-0.0538929
0.0193201
-0.0279701
-0.0988429
-0.0257222
-0.0914396
-0.421453
-0.231325
0.392037
0.0164662
0.340277
0.374383
0.00664126
0.0753047
0.0352698
0.0253218
-0.185878
0.000537303
0.0255907
-0.0096638
-0.262301
0.017342
-0.0813859
-0.0991352
-0.425567
-0.206611
-0.073184
-0.327247
-0.167196
0.017548
-0.277466
-0.0749029
-0.0653375
0.0149231
-0.564278
-0.222918
-0.102196
0.0297327
-0.275253
0.0975301
-0.0772305
-0.234941
-0.0107613
-0.150936
-0.00998875
-0.00193398
-0.489584
-0.219025
-0.214833
-0.163997
-0.42576
-0.3499
-0.321312
-0.545899
-0.0219889
-0.210725
-0.0130158
0.0240696
-0.393529
-0.197387
-0.024217
-0.18629
-0.164992
-0.537354
0.00641669
-0.324901
-0.422215
-0.239542
-0.0990941
0.0179306
0.0157332
-0.0166954
-0.046432
-0.0165523
-0.131718
0.417519
0.0091482
-0.364885
-0.100024
-0.294388
-0.319827
0.0337417
-0.223377
-0.308427
-0.331451
-0.171921
-0.308762
-0.14452
-0.19661
0.451901
-0.136455
-0.268734
-0.0196158
-0.322892
-0.11291
-0.0346583
-0.0418845
-0.0637911
-0.544459
-0.542333
-0.0103393
-0.0226037
-0.200578
-0.325902
0.000271111
-0.0970086
-0.0680212
-0.198373
-0.00892759
-0.44971
-0.55724
-0.0538315
-0.0362448
-0.0746163
-0.20504
-0.388309
0.000721082
-0.493983
0.517937
-0.197878
-0.0348238
-0.308826
-0.337658
-0.171426
-0.00790674
0.00154808
-0.118844
-0.370839
-0.0243349
-0.00673005
-0.00636178
-0.00673117
-0.409536
-0.378288
-0.168722
-0.207512
-0.00854284
-0.013076
-0.27423
-0.440018
-0.122682
-0.0351826
0.0245194
0.0348444
-0.196558
-0.292674
0.00690974
0.0332761
-0.155484
-0.145307
-0.141344
0.0172564
-0.0224218
-0.038149
-0.263843
-0.0414218
-0.209255
-0.284246
-0.290317
-0.434287
-0.160514
0.009934
-0.504031
0.0347814
0.0095279
-0.0829143
-0.3314
-0.00781767
-0.0130097
-0.234893
-0.19653
-0.412354
-0.287479
0.119401
-0.170366
0.0201605
-0.343331
-0.222485
-0.389102
-0.00945979
-0.113352
-0.208938
-0.546986
-0.406684
-0.234921
-0.170175
0.0216556
-0.0573314
0.0186828
0.10068
0.285807
0.053635
-0.205798
0.353241
-0.400291
-0.384756
-0.0247674
-0.28574
-0.548172
0.00585258
0.0542475
0.371454
-0.467112
-0.575997
-0.207789
-0.0227588
-0.194741
-0.121427
-0.0130158
-0.0996544
-0.242648
0.164151
-0.18803
-0.098556
-0.307494
-0.133986
-0.351383
-0.0654388
-0.54573
0.0147951
0.00715794
-0.548959
-0.474756
0.431581
-0.0664628
-0.00451952
0.0325681
-0.108848
0.512876
-0.144954
-0.0601051
-0.220281
-0.216226
-0.00838047
-0.250562
-0.140627
-0.126579
0.00488935
-0.314637
-0.0624106
-0.422136
-0.136112
-0.0159367
-0.11391
-0.010035
-0.0324261
-0.0362277
-0.000454683
0.129545
-0.229387
0.111219
-0.21566
-0.0106515
-0.288141
0.426166
-0.325413
-0.0459854
0.119683
-0.00591793
-0.100997
-0.0822105
-0.349632
0.0180199
-0.29429
-0.103051
-0.264475
-0.159135
-0.465169
-0.03688
0.00204017
-0.546373
-0.4005
0.00455326
-0.081327
-0.535333
-0.205625
-0.319503
5.02295e-05
-0.0379496
-0.201149
-0.0812984
-0.228836
-0.188206
-0.0331442
-0.192582
-0.374348
-0.0452394
-0.0616753
-0.00553435
-0.309387
0.0191229
0.029786
-0.221824
0.0203384
-0.487832
-0.0793566
0.176189
-0.00592887
-0.0221146
0.0118643
-0.16523
-0.00979748
-0.0876895
-0.067467
-0.407844
0.212752
-0.431425
-0.015625
0.0198738
-0.156817
-0.123189
-0.429669
-0.506452
-0.191571
0.0284123
-0.266951
0.448926
-0.129477
-0.227293
-0.193184
-0.0927442
-0.0816314
-0.104661
-0.25306
0.0708153
-0.186961
0.447288
-0.181553
-0.0703931
-0.251527
0.00387092
-0.038379
-0.100446
-0.109028
-0.0456388
0.0148922
-0.00903126
-0.217032
-0.0755147
-0.230284
0.0275988
0.0259835
0.0196271
-0.0166628
-0.0279179
-0.0449599
-0.00472722
-0.440082
-0.137153
0.373903
-0.0150095
0.00930083
0.19202
-0.176578
0.0719331
-0.201612
-0.126092
-0.244775
-0.103243
-0.286252
-0.0591795
0.0145641
-0.00720412
-0.0318883
-0.244033
0.00883408
-0.453798
-0.045736
-0.41485
0.0291035
-0.132143
-0.255564
-0.0249353
0.000138036
-0.141061
0.0376809
0.0316326
-0.217975
-0.00381679
0.0278547
-0.095489
-0.00523457
-0.0213999
-0.0537876
0.136041
-0.425385
-0.0782692
-0.0451805
-0.011925
-0.550182
0.00898222
0.0103741
-0.0108143
-0.207653
-0.540707
-0.242253
0.112995
-0.0718412
-0.0152556
-0.0216243
-0.14066
-0.0828394
-0.430604
0.104061
-0.350838
-0.0244513
0.0528118
-0.229259
0.0247197
-0.115336
0.00596281
-0.00249019
-0.100975
0.227656
-0.0539998
-0.486252
-0.0765851
-0.163276
0.00942461
-0.0297781
-0.164882
-0.442639
0.000873771
-0.452104
-0.0293116
-0.106219
-0.0384523
-0.0395673
-0.366072
-0.0446316
-0.114179
-0.118951
0.0207249
-0.0249586
0.0451679
-0.00357648
-0.0611056
0.262182
-0.0439775
-0.0349538
-0.571906
-0.56018
-0.137877
-0.117567
-0.232991
-0.0927622
-0.0265754
0.131883
-0.492749
-0.096847
0.0224595
-0.03477
-0.509389
-0.151589
-0.222522
0.0202552
0.0740326
-0.328263
-0.143921
-0.0570294
-0.289188
0.481904
-0.00425764
-0.249067
-0.00758018
-0.0432992
-0.0152877
-0.412624
-0.027547
-0.0433253
-0.0273636
-0.112503
-0.0746017
-0.200493
0.277858
-0.0402221
0.169079
0.00599659
-0.225748
-0.00168789
-0.0447276
0.0271198
-0.168589
0.0276016
-0.316017
-0.0907342
-0.353926
0.115565
-0.346252
-0.224979
0.0184387
-0.199503
-0.267346
-0.221298
-0.0723313
-0.571321
-0.429989
-0.283433
-0.000592767
-0.0943991
-0.141515
-0.206103
-0.034056
-0.0229003
0.00853026
0.00629913
-0.101873
0.121891
-0.35396
-0.0230194
0.0311358
-0.406022
-0.042754
0.0452895
0.197469
-0.104353
-0.0499131
0.145569
0.201874
0.0674096
-0.0753593
-0.0754448
-0.227382
0.503043
-0.0380641
-0.203598
-0.19604
-0.283583
-0.50857
-0.136553
-0.010431
-0.0604221
-0.0226108
-0.0243619
-0.0201463
-0.0219156
-0.0406008
-0.0773666
-0.350854
-0.352943
-0.0440232
-0.284547
-0.335883
-0.0981237
0.0495557
-0.543184
-0.032218
0.0307213
0.188928
-0.365529
0.0292134
0.00582241
-0.299895
-0.339293
-0.543605
-0.305269
-0.284829
-0.000905167
-0.295549
0.0502211
0.00306679
0.0532465
-0.133557
-0.245048
-0.036495
-0.0254302
0.00611546
-0.542764
-0.0155637
-0.117058
0.0368608
-0.00783175
-0.287775
-0.0409932
-0.170054
-0.144404
-0.195333
-0.0332881
-0.072625
-0.0246368
-0.452643
-0.336209
0.0246303
-0.245078
-0.240433
0.485135
0.0282649
-0.0964807
0.0279094
-0.0972886
-0.0890411
-0.301484
-0.208181
-0.134231
-0.135497
-0.448811
-0.0109683
-0.4358
-0.0395898
0.000737547
-0.325309
0.0232227
0.0276259
-0.03474
-0.0471336
-0.342647
-0.0236635
0.00987387
-0.197674
-0.131135
-0.195896
0.450835
-0.131435
-0.268919
-0.116292
-0.148007
-0.101526
-0.547827
-0.141503
-0.280919
-0.13286
-0.095659
-0.041313
-0.0896963
-0.1334
0.0565273
-0.270125
-0.126289
-0.0563989
-0.104219
-0.0485329
-0.0920412
0.00132499
-0.191566
0.308252
-0.00841008
-0.180059
-0.0373362
0.0280441
-0.0100528
0.117491
-0.212254
-0.0774427
-0.0513715
-0.0363381
0.308021
-0.1449
-0.508148
0.0252786
-0.0205614
-0.220231
0.00735497
-0.210881
-0.145508
-0.0562306
-0.259935
-0.0367218
-0.235805
0.0545617
-0.129733
-0.465413
-0.444697
0.0011367
0.002744
-0.0877092
0.00257837
-0.00457338
-0.281683
-0.410561
0.093689
-0.129756
0.00206062
-0.0512572
-0.145451
-0.0339398
-0.0245752
-0.515851
-0.0388827
-0.543693
0.0122767
-0.0238842
0.0125734
-0.134033
-0.0971906
0.0352103
0.0224479
-0.000446768
0.0341008
-0.00268652
0.435558
-0.181742
0.00108404
-0.570976
0.0204188
-0.441787
-0.343307
0.412316
-0.0357164
0.0472723
0.00789051
0.0850324
0.0471628
-0.108575
-0.219124
0.0738725
-0.308916
0.499826
-0.194022
-0.130498
-0.0310771
0.43806
-0.222833
0.0202845
-0.249393
-0.471504
-0.159958
0.0259181
-0.544368
0.22462
-0.0342822
-0.0735481
-0.291187
-0.0268463
-0.0111907
-0.0297605
-0.214708
-0.0835304
-0.518792
-0.0117824
-0.447429
-0.112806
-0.123071
-0.271905
-0.204805
-0.101722
-0.035647
-0.00734061
-0.346852
0.0081464
0.0705766
-0.0192315
-0.0249514
-0.0265777
0.0803543
-0.191732
0.462828
0.128247
0.269727
-0.103778
-0.055426
-0.0299146
-0.539705
-0.108006
-0.0257714
-0.00539285
-0.113401
-0.251115
0.0262276
-0.215886
-0.135922
-0.0753341
0.037949
-0.0689857
-0.0407498
-0.264196
-0.0195332
-0.00512279
-0.396621
-0.0931904
0.017728
-0.44971
-0.158486
-0.293342
0.0175759
-0.095163
-0.152468
-0.485579
-0.139865
0.262357
-0.0639899
0.0141713
-0.0458955
-0.0171559
0.0321568
0.0622228
-0.042352
0.00299268
-0.267731
-0.00487022
-0.0979158
-0.038511
-0.133171
-0.211742
-0.241247
0.0177889
-0.206139
-0.0455779
-0.226182
0.0243674
0.111626
0.0219667
-0.423002
-0.45988
-0.145018
0.00199457
-0.352405
-0.0015575
-0.068256
-0.46289
-0.0411525
0.0546134
-0.127916
-0.100614
-0.286853
0.00387853
0.0291849
-0.0632812
0.0144445
0.127235
-0.00250821
-0.0171481
0.0672636
-0.513594
-0.0534185
-0.443653
-0.57335
-0.186217
-0.0943264
-0.0506902
-0.0168788
0.0357189
-0.38593
-0.0685756
-0.0213283
-0.162085
-0.30119
-0.00602677
-0.417755
-0.185693
-0.222437
-0.0259133
-0.024245
-0.134196
0.0525827
0.0217318
0.176143
-0.0332805
0.0819501
-0.0775533
-0.197282
0.439688
-0.207874
-0.0759986
-0.225384
-0.116288
-0.0878187
-0.13782
0.183455
-0.2741
-0.156852
-0.276399
0.0904649
-0.345594
-0.423068
-0.0351645
0.00172273
-0.0024015
-0.0623368
-0.121886
-0.0391629
0.0917499
-0.130621
-0.0653897
0.0749674
-0.540264
0.128102
-0.0850009
-0.544899
-0.0559603
-0.107623
-0.0825076
0.110282
-0.00772752
-0.430125
-0.221424
-0.00281478
-0.0649075
-0.100106
0.125574
-0.358512
-0.00350916
-0.039765
-0.381385
-0.0656961
0.157458
-0.421941
0.0315778
-0.178974
-0.071459
-0.0247331
-0.00996351
-0.0903255
-0.230047
-0.0313256
-0.0770693
0.0229113
-0.0438763
0.19068
-0.544971
0.0451344
0.431216
-0.541518
-0.125975
-0.481699
-0.0643458
-0.131731
0.0975309
0.119559
0.0250476
-0.184914
-0.550657
0.0641392
0.182747
-0.458292
0.435098
0.426356
0.108591
0.0206131
0.0266361
0.0343376
-0.220607
-0.209672
-0.0819002
-0.066618
-0.0743051
0.0127751
0.00716495
0.0365732
-0.223778
-0.110139
-0.576356
0.132827
-0.428665
-0.0891722
0.0293597
-0.195784
-0.01413
0.00213554
-0.436026
-0.0125915
-0.016547
-0.199212
-0.329086
0.264409
-0.103608
-0.3528
-0.031143
-0.473287
-0.0253375
-0.0508536
0.0701784
0.0218473
-0.046415
-0.404103
-0.360633
-0.039055
-0.118765
-0.0188115
-0.0358718
-0.0170905
0.45272
-0.0610925
-0.0811044
-0.278329
-0.0368166
-0.437974
-0.0769407
0.000216021
0.127625
-0.00390077
-0.0949833
-0.221504
0.0385508
-0.103898
-0.204173
0.245997
0.0132232
-0.223777
0.0921746
0.406668
-0.0623487
0.15388
-0.380155
-0.0353204
0.336408
0.033916
-0.179947
0.212453
9.44777e-06
-0.341817
0.0200649
-0.323462
-0.183338
0.345129
0.0227666
0.0717183
0.0440853
-0.448966
0.0597708
-0.0839858
0.0831145
-0.189108
-0.0304421
-0.11695
0.0350451
-0.117372
-0.279379
-0.00688969
-0.0188403
0.498839
-0.0634431
-0.114061
-0.0504003
-0.137493
-0.124003
-0.0745088
0.00739337
-0.000597163
0.0290321
-0.022355
-0.246859
0.0472024
0.204859
-0.0476726
0.000528967
-0.403301
-0.0784871
-0.0696854
-0.117632
0.0336082
-0.427303
-0.198812
-0.0972176
0.502912
-0.546261
-0.24667
-0.20742
-0.226306
-0.00715708
-0.145811
-0.270617
0.444824
0.00509439
0.0533818
-0.261433
-0.0998285
-0.0882144
-0.234469
-0.0510807
0.118424
-0.161126
-0.0753835
-0.418368
-0.163935
-0.333293
-0.0138049
-0.140143
-0.133473
0.00537988
-0.214947
-0.21268
0.0269848
-0.551371
0.00679924
-0.0425547
-0.512214
-0.552984
-0.0114772
-0.052406
-0.0405922
-0.0384172
-0.0390893
-0.406949
-0.0688465
0.000596118
0.00326009
-0.137697
-0.0734625
-0.0670406
-0.252151
0.0311535
-0.537716
-0.307413
-0.53147
0.114143
-0.160109
-0.542746
-0.138269
-0.0922721
-0.487808
-0.243708
-0.00528653
-0.218631
-0.0738533
-0.0161915
0.0133993
-0.182584
-0.206523
-0.222985
-0.0406226
0.00137512
-0.200105
-0.288964
-0.237969
-0.0453113
0.0888881
0.503391
0.0236897
-0.322456
-0.405089
-0.337849
-0.256781
0.0383227
6.1293e-05
-0.00969952
0.10821
-0.361214
-0.157677
-0.0947846
0.0697099
-0.0826179
-0.230142
-0.135494
-0.500542
-0.405118
-0.168827
0.466524
0.0263332
0.00422827
-0.147592
-0.0232982
-0.0340102
0.0180633
0.522501
-0.15379
-0.400545
-0.232087
0.0178171
-0.483733
-0.118455
-0.0254306
-0.365907
0.227909
0.107711
-0.0520445
-0.424461
-0.255074
0.0262478
-0.268587
-0.532712
-0.285916
-0.253845
-0.138874
-0.00188853
-0.0524101
-0.248121
-0.0830206
-0.221695
-0.122315
-0.244012
-0.510275
0.065208
0.0715177
-0.00713034
0.0500852
-0.249799
-0.111657
0.0335287
-0.374298
-0.16797
0.00302909
0.0700989
-0.000804234
-0.343989
-0.0389076
0.51191
0.0953746
-0.00424012
-0.0106851
0.332514
-0.540501
-0.153356
-0.0174867
-0.125876
0.0349842
-0.0630899
-0.112086
-0.223436
-0.105627
-0.216314
-0.0198171
-0.0106308
-0.000706449
-0.137675
-0.00908148
-0.00291713
-0.411999
-0.214282
-0.481409
-0.0343663
-0.299636
-0.0949241
0.000215645
-0.235924
-0.322882
-0.139203
0.488894
-0.00232724
-0.360242
0.0846549
0.0468091
0.0815785
-0.0231006
-0.202297
-0.0150511
-0.0616397
0.157806
-0.0824159
-0.104428
0.00721854
-0.0048887
-0.0531752
-0.031812
-0.275479
0.0570679
-0.207974
-0.0781567
-0.550272
-0.0641377
-0.368075
-0.0204747
-0.408645
-0.0470596
-0.0239766
-0.290595
0.334118
0.355422
-0.314469
0.163963
-0.165899
0.0357957
-0.28069
0.0345098
-0.00825726
0.333449
-0.130499
-0.388668
-0.264462
-0.278843
-0.340371
-0.227055
-0.215607
-0.0242365
-0.087626
-0.115603
-0.495015
0.10481
-0.36284
-0.234515
-0.0541918
0.0449165
0.00778494
-0.252245
0.452603
-0.0747554
0.0142224
0.0189591
-0.0710433
-0.157658
-0.21716
-0.119631
-0.000298791
0.391952
-0.184927
-0.467971
-0.22827
-0.0153367
-0.0644289
-0.488918
-0.00970537
-0.212057
-0.273144
0.0260028
-0.0469922
-0.414139
0.345519
0.0498027
-0.364714
-0.0723076
-0.447513
-0.112078
0.0525607
-0.0672683
-0.245074
-0.0108351
0.0701329
0.507969
-0.237786
-0.170299
-0.15486
-0.0966722
0.109577
0.0253375
-0.250624
-0.107243
-0.0466178
-0.117278
0.00168931
0.00151125
0.521821
0.0247957
-0.000842785
0.0110457
-0.326646
0.0560213
-0.0608466
-0.225969
-0.200911
-0.223132
0.0269586
-0.0183242
0.231569
-0.20518
-0.179622
0.130048
-0.349833
-0.37084
-0.234794
0.00153851
-0.230575
-0.11399
0.00110505
-0.0693155
-0.0227586
0.435839
-0.183616
-0.0506451
0.496757
-0.416391
-0.0140968
0.0540043
-0.102277
-0.228265
-0.134068
-0.0240967
-0.245716
-0.092238
0.460971
0.0128902
-0.506742
-0.129835
0.140735
-0.217135
-0.0972572
-0.0224013
-0.109981
-0.202839
-0.134154
-0.0960719
-0.312093
-0.0198054
-0.436847
0.0176412
-0.270027
-0.0209079
0.253378
0.0597927
-0.0031528
-0.525629
-0.527194
-0.452234
-0.545874
0.0340957
-0.175994
-0.0123745
-0.212253
-0.119838
0.036747
-0.0329089
0.16331
-0.0424013
-0.197922
-0.446542
-0.264294
-0.180978
-0.0490041
-0.0530009
-0.554261
0.0695183
-0.199471
-0.0211341
0.0156056
-0.244694
-0.515613
-0.529182
0.360086
0.00342337
-0.358521
-0.0144502
0.0976371
-0.237952
-0.292458
0.0239279
0.0161918
-0.126796
0.10124
0.0515284
-0.532062
-0.454174
-0.0319634
-0.024317
0.0260696
-0.00137762
0.312076
-0.0368282
-0.0980174
-0.255173
-0.124443
-0.0265366
-0.0779997
-0.296806
-0.142724
-0.00257807
-0.327565
0.0242374
-0.465549
0.16294
0.187521
0.010908
-0.31249
-0.265615
-0.141819
-0.00543923
-0.130565
-0.0367937
0.105876
0.0467185
-0.101976
0.0658437
-0.2337
-0.178017
-0.176437
0.0276764
-0.20538
-0.109205
0.00200978
0.431815
-0.0232536
-0.100006
-0.130823
0.0447781
-0.225251
0.00422323
0.440475
0.0440546
-0.00130753
-0.290763
-0.329079
0.0828837
0.170107
-0.141707
-0.124127
-0.179009
-0.10001
0.0302211
-0.0917618
-0.302213
0.0840564
-0.101684
0.0400461
-0.278208
-0.129281
-0.0649214
-0.536854
-0.02264
-0.257757
0.0925247
-0.235147
-0.226211
-0.226724
-0.218034
-0.344037
0.0924001
-0.0495688
-0.44023
0.0987605
0.0375348
-0.225818
-0.578984
0.0638365
-0.0805949
-0.0814181
-0.0850367
-0.139117
-0.480199
4.59563e-05
-0.099936
-0.137565
0.0426186
0.00451574
-0.195163
-0.0281984
-0.106062
0.0556037
-0.221152
-0.10628
-0.157364
-0.16172
-0.534333
-0.184324
-0.0168596
-0.10645
-0.33163
-0.395329
-0.0596972
-0.118948
-0.113352
0.490136
0.0341258
0.0335126
-0.457122
-0.135361
-0.297191
-0.270711
0.160273
-0.459684
-0.00802199
-0.0287968
-0.316591
0.285714
0.0259668
-0.572492
-0.0653627
0.0891745
0.0509121
-0.158369
-0.0314765
-0.561166
-0.530897
-0.407752
-0.455854
-0.083442
-0.127905
-0.280953
0.0262053
0.031794
-0.141219
-0.0209946
0.226408
-0.354399
-0.132442
-0.374238
-0.192016
-0.0612496
-0.539187
-0.0248981
-0.231041
0.0160896
-0.404219
-0.0223996
0.03842
-0.263346
-0.265061
-0.00151857
0.035867
-0.427751
0.0461998
-0.368817
-0.0267927
-0.214821
-0.328559
-0.310144
0.317241
-0.00502272
-0.123638
-0.242063
-0.153726
-0.0259779
-0.061204
-0.00123274
-0.186827
0.0266483
-0.200705
0.0511011
-0.0315132
-0.227049
-0.0288234
-0.0680563
-0.0929047
0.0120706
-0.280404
-0.0242455
-0.0364286
-0.550357
-0.129443
-0.103436
0.040844
-0.231341
-0.131456
-0.570869
-0.0131082
-0.289334
-0.0531671
-0.167614
-0.240663
-0.208795
-0.23059
-0.482366
-0.228384
-0.263183
0.11907
-0.251817
0.0382362
-0.217234
0.0806831
-0.0517609
0.0335393
-0.187379
-0.00768337
-0.496764
-0.204678
-0.295708
-0.355961
0.34197
0.00455382
-0.51351
0.194564
0.057149
0.0744817
0.0328407
-0.483342
0.0352913
-0.136574
-0.0276527
-0.110468
-0.274151
-0.0298316
0.0258297
0.0323017
-0.499806
-0.0205792
0.029724
-0.0920199
-0.0321424
-0.0813715
0.000868773
-0.14246
0.332166
0.116938
-0.216617
-0.268517
-0.267754
-0.407706
-0.0193961
0.0179486
0.0593583
-0.0612971
0.147808
-0.110089
-0.38724
-0.0238697
0.0348384
-0.0791056
-0.533882
-0.0239253
-0.0175546
0.11255
-0.376569
-0.103203
-0.0752789
-0.0656304
0.0186095
-0.221971
-0.235986
0.335494
0.163768
0.0341415
0.0599394
-0.121143
-0.324221
0.0643921
-0.0452594
-0.0667547
-0.282571
0.0607402
-0.236976
0.0101891
-0.461799
-0.0141865
0.134571
-0.016026
-0.00282613
-0.231694
-0.223401
0.276006
-0.0929748
-0.349034
0.039259
-0.553333
-0.133334
-0.0187375
-0.561603
-0.382122
-0.328718
0.0253827
-0.0978048
-0.278787
-0.0471995
0.0186214
-0.131329
-0.0756885
0.0126079
-0.0304671
-0.0455719
-0.0828609
-0.19436
-0.4168
0.322197
-0.175672
-0.0206327
0.0199311
-0.300893
-0.0231976
-0.0966829
0.122013
-0.0483224
-0.175289
0.0157495
0.0296337
-0.279445
0.000863115
-0.272109
0.0197256
-0.319358
-0.203866
-0.241444
0.00851381
0.00233045
-0.481428
-0.0234543
-0.048081
0.0568216
-0.191834
-0.212595
-0.127327
-0.287267
0.0632901
-0.547582
0.0677605
-0.234307
-0.0405403
0.0199231
-0.368211
-0.393434
-0.238238
-0.0398966
-0.244846
-0.2416
-0.334908
-0.555418
-0.317093
-0.115263
-0.0246394
-0.455758
-0.0390162
-0.0377705
-0.405338
-0.235164
0.0876135
0.291005
0.0787803
-0.000239319
-0.0786924
-0.463177
-0.0776047
0.00134028
-0.2874
0.0610724
-0.0255029
-0.071268
-0.00157197
0.0156734
-0.353333
-0.166887
-0.399724
-0.0243976
0.0740758
-0.00160343
0.418597
-0.0181794
0.457675
-0.556429
-0.177061
-0.0810285
-0.405548
0.152068
-0.398493
0.479944
0.0186118
0.0587022
0.108543
0.126956
0.497677
-0.54889
-0.225635
-0.0981631
0.510968
0.0247551
-0.302376
-0.00267735
-0.386938
-0.110254
-0.072161
-0.0673102
-0.0507693
-0.0130808
-0.313536
-0.213064
-0.0192478
-0.05927
-0.0107147
-0.51147
-0.0585457
-0.318331
-0.105919
-0.239509
0.0276071
-0.0125317
-0.508932
0.432648
0.023447
-0.0920598
0.0154649
-0.179208
0.175216
-0.265789
-0.196123
-0.238663
-0.0219426
-0.0414624
-0.203533
-0.0816495
-0.0793697
-0.068592
0.000490962
-0.0940101
0.021451
-0.00765721
-0.0488889
0.0186357
-0.423435
-0.533753
-0.536191
-0.12315
-0.46048
-0.304792
-0.0225598
-0.133561
-0.023518
0.487118
-0.0481341
0.0479918
0.0217282
-0.00401406
-0.0372173
-0.155518
-0.0647574
0.444792
-0.0332406
0.166809
-0.021061
0.496437
0.0116628
-0.133229
-0.136474
-0.103335
-0.224481
-0.00369198
-0.265027
-0.151683
0.00118913
-0.0241563
0.00504323
-0.0804869
-0.23752
-0.0487611
-0.0347305
-0.495282
-0.378147
0.204894
-0.477409
0.0284747
-0.406465
-0.134429
-0.0215058
-0.580826
-0.0605581
-0.104365
0.0332177
-0.0457613
0.0156056
-0.535477
-0.182185
-0.0230527
0.392439
-0.295998
-0.00189452
-0.0341323
-0.0124378
0.412285
-0.553343
-0.148165
-0.0775059
-0.124265
0.0114679
0.028089
-0.0635313
0.000659274
-0.406616
0.0347129
-0.166855
-0.232795
-0.100588
-0.022234
-0.106608
-0.254858
0.0120066
-0.153853
-0.129238
-0.523665
0.101306
-0.263725
-0.168975
-0.000131289
-0.189691
-0.197665
-0.0795615
-0.316241
-0.163339
-0.0938088
-0.533799
-0.006107
-0.16043
0.289326
-0.152485
-0.00110293
0.00844837
-0.0232358
0.173146
-0.174598
-0.181515
-0.432853
-0.298518
-0.103469
0.0152007
0.50025
-0.159587
-0.557275
0.0224996
3.07177e-05
-0.205729
-0.15975
0.0333102
-0.148289
-0.401968
-0.546888
-0.345531
0.345413
-0.34621
-0.0769605
-0.213462
-0.0287251
-0.299092
-0.426387
-0.0436513
-0.0582126
-0.00771314
-0.20424
-0.193241
-0.545002
-0.042551
-0.23723
-0.0332829
-0.461972
-0.134948
0.0250299
-0.146419
-0.395919
-0.34287
-0.161894
-0.0553498
0.0327219
0.0579784
-0.0859233
-0.186867
-0.248678
-0.55683
-0.0265302
-0.382726
-0.184559
-0.12107
-0.00306388
0.00369101
-0.115264
0.424877
0.00553184
-0.155118
0.310075
0.197036
-0.104452
-0.334203
-0.251158
-0.550909
0.0418754
-0.0311996
0.298883
-0.123685
-0.231506
-0.0442268
0.201407
0.328884
0.378932
-0.0540474
0.0141801
0.386435
-0.527173
-0.210446
0.426293
-0.0841934
0.00283254
0.419741
-0.545195
0.0453476
0.287229
-0.267594
-0.0235401
-0.390284
-0.553149
0.428683
0.0166732
-0.0940124
-0.317964
-0.399461
-0.0264502
-0.0789185
-0.0106292
-0.0622187
-0.00970885
-0.124202
0.0319666
0.0986717
0.385899
-0.143882
-0.549113
0.0777593
-0.0919459
-0.0422515
-0.274755
0.277033
-0.24946
-0.0243068
0.112229
-0.230885
0.336562
0.0414874
0.0812848
-0.505333
-0.551916
-0.337608
-9.03465e-06
-0.00678566
-0.0127716
-0.524549
0.00867913
0.482083
0.497255
0.409626
-0.0601591
-0.213369
-0.233967
-0.0077772
-0.286888
0.0281994
0.228673
-0.0180422
-0.0438392
-0.17977
-0.360735
-0.00113978
-0.287934
-0.195357
0.331936
-0.200605
-0.0191876
0.00380868
-0.123633
-0.0657458
-0.401176
-0.404561
0.0470545
-0.217619
-0.00407154
-0.0317241
-0.0365687
0.0273206
-0.223358
-0.0741259
-0.217232
0.302855
-0.0545203
0.446391
-0.254281
-0.08345
-0.228318
-0.0772882
-0.0405003
0.0236865
-0.0660269
0.46926
0.364951
-0.409681
0.022509
-0.060469
0.138151
6.50142e-05
-0.193489
0.0780309
0.185791
0.250633
0.0480355
0.00981298
-0.0252015
-0.166133
0.00630861
0.0251529
0.328839
0.0536408
-0.0101994
-0.112121
-0.0105068
-0.283588
-0.102755
0.489583
0.02925
0.320289
0.013962
-0.186126
-0.059366
-0.0628487
0.117755
-0.220936
-0.109185
0.321786
-0.0210995
-0.0780826
-0.109148
-0.098691
-0.414501
0.0232743
-0.402034
-0.176383
-0.0242628
0.272446
-0.506842
0.33858
0.0186945
-0.163539
0.423295
-0.429281
-0.546012
-0.0482028
-0.536949
0.0317186
0.000555791
-0.132724
-0.396033
0.00286644
-0.0824542
-0.255956
-0.21157
-0.260929
0.422059
-0.206778
-0.214383
-0.0241402
-0.0639565
-0.032774
0.134298
-0.346854
-0.354118
0.0472962
0.00438563
-0.0337867
-0.252534
-0.162666
-0.151538
-0.149416
0.354899
-0.38554
-0.288776
0.00564184
-0.30486
0.0310925
0.109008
0.143768
-0.165565
-0.290343
0.108041
-0.0636564
0.297516
-0.0856081
-0.166282
-0.421311
0.166317
-0.0937849
-0.133967
0.0272341
0.478344
-0.149753
0.0605502
-0.234681
-0.395209
-0.121111
0.105505
-0.153694
-0.41801
0.00766271
-0.0369085
-0.0228751
-0.0208741
0.0611131
-0.39066
0.0484703
-0.537289
-0.00543932
-0.0447782
0.447675
-0.0519865
-0.0241273
0.0122154
0.026655
-0.547115
-0.0319617
-0.392887
-0.0490716
-0.0720297
-0.0322568
0.0538147
0.367827
-0.0325852
0.00507092
-0.0286555
-0.0875572
0.305363
-0.0892204
-0.134026
-0.00706128
0.0899204
-0.120654
-0.399839
0.0715354
0.0116682
-0.0381952
-0.0289884
-0.215431
-0.00628628
-0.036069
-0.0856071
-0.229868
-0.00651299
0.179433
0.0432131
0.0121956
-0.414964
-0.321397
-0.321383
-0.443323
-0.0918598
-0.184972
0.0443072
0.352318
-0.274875
-0.0582999
-0.546063
-0.1242
-0.348016
0.0475218
0.0252608
0.484028
-0.0513166
-0.224612
-0.557696
-0.0325222
0.0164536
-0.329936
-0.0960915
-0.177955
0.0584828
0.00656459
-0.372929
-0.554877
-0.0268299
0.00202469
-0.0471689
0.0121824
0.0160805
0.035002
0.180657
-0.552927
0.0117935
0.0435828
0.454645
0.00517411
-0.225024
0.0548011
-0.0487364
-0.0967942
-0.00232328
-0.163566
0.0584937
0.249821
0.00902377
-0.0401371
-0.238696
-0.235756
-0.000941359
-0.176744
0.206336
0.0178585
0.0838093
0.00258355
-0.0627494
-0.255291
-0.198752
-0.109649
-0.49401
-0.061769
-0.388207
-0.312158
-0.0373068
-0.413132
0.0608983
-0.422281
-0.556409
-0.0740497
-0.222551
-0.50148
-0.144291
-0.0355539
-0.0719786
0.101796
-0.0320812
-0.0376846
-0.119831
0.309039
-0.0352212
0.109645
-0.279802
0.076045
0.419901
-0.187571
-0.0772627
-0.264128
-0.215545
0.172882
0.104375
-0.150753
-0.383278
-0.486148
0.0732966
-0.0330785
-0.0148621
-0.0283825
-0.104958
-0.360163
-0.179325
-0.0398729
-0.285364
0.000102757
-0.124124
-0.10439
0.318162
-0.177308
0.321909
0.386383
0.0578124
0.167511
-0.010456
0.13028
0.0081988
-0.0464375
-0.139985
-0.203194
0.0121256
0.0980582
-0.543208
-0.0135716
-0.0373666
0.114847
-0.393129
-0.218811
-0.515082
0.206208
0.0020094
-0.0944083
0.196529
-0.0558988
0.0298873
0.00325873
-0.0336771
0.0341745
-0.0941245
-0.548096
-0.00107284
-0.0306462
0.230505
-0.00786638
0.107619
0.138343
0.0232906
0.00678933
-0.396863
-0.0247307
0.0205875
-0.0256359
0.0679188
-0.0263777
-0.218274
-0.0629924
-0.197939
-0.00540773
-0.0404648
-0.0509496
-0.275837
-0.127972
0.0377644
-0.033552
-0.580159
0.105528
-0.238002
-0.0107309
-0.260144
0.00767651
-0.0256497
-0.254991
-0.0408883
0.045458
0.0204108
-0.0484586
0.0875567
0.0306587
0.00425212
0.37216
0.504806
-0.383476
-0.1204
-0.277097
-0.018535
-0.233457
-0.0038731
-0.100416
-0.284236