/*--------------------------------*- C++ -*----------------------------------*\
| =========                 |                                                 |
| \\      /  F ield         | OpenFOAM: The Open Source CFD Toolbox           |
|  \\    /   O peration     | Version:  v2012                                 |
|   \\  /    A nd           | Website:  www.openfoam.com                      |
|    \\/     M anipulation  |                                                 |
\*---------------------------------------------------------------------------*/
FoamFile
{
    version     2.0;
    format      ascii;
    class       volScalarField;
    location    "1000";
    object      p;
}
// * * * * * * * * * * * * * * * * * * * * * * * * * * * * * * * * * * * * * //

dimensions      [0 2 -2 0 0 0 0];


internalField   nonuniform List<scalar> 
13851
(
0.00402127
0.0275089
-0.0222844
0.00387794
-0.0392353
0.0063081
-0.0099538
-0.0204527
-0.00080736
-0.00403787
-0.000788254
0.00867791
-0.0665905
-0.0773136
-0.00468865
-0.005209
-0.0139081
0.00706899
-0.0581446
-0.000787709
0.00359308
-0.0242514
-0.000529459
-0.000705752
-0.000382766
-0.0191694
-0.021537
-0.0933527
0.00395594
0.000699772
0.00305254
-0.0142205
-0.0208664
-0.00245504
-0.000756236
-0.0565539
-0.059341
-0.0386997
-0.00389465
-0.001497
-0.000184727
3.96446e-05
-0.0952874
-0.00100828
-0.00111139
-0.0984429
-0.000953567
-0.002184
-0.022164
0.00044596
-0.0457477
-0.0534004
-0.09212
-0.00466963
-0.0019812
3.95978e-05
-0.000731314
-0.0944241
0.000525517
-0.0103204
-0.0371324
-0.0700935
0.0132196
-0.0432059
0.0244926
0.00509873
-0.0596357
-0.00129482
-0.0317651
0.0072917
-0.0657016
-0.0598891
0.0243631
-0.00471172
-0.00146765
-0.000914054
-0.0246814
-0.0782363
-0.0319977
-0.0647119
-0.011586
-0.000209297
-0.00514062
-0.095717
0.0137659
0.00812609
0.00375447
0.0330445
-0.0192504
-0.000932293
-0.0563152
0.000589435
-0.00298537
-0.0225029
-0.0196317
-0.000474814
-0.0405908
-0.0821736
0.000116116
-0.000705788
-0.0907866
-0.037341
0.00162589
-0.0257671
1.80636e-05
0.00194578
-0.040264
5.99888e-05
-0.0598668
0.00517395
-0.000850145
-0.000954884
0.000554005
-0.000785981
-0.000682472
0.00386021
-0.0812736
-5.28092e-05
-0.000756118
-0.00159609
-0.0949304
-0.0251202
-0.0686932
-0.000583417
0.000663493
-0.00017468
-0.00124175
-0.0345696
0.00337033
-0.0448798
-0.000299099
-0.000558388
-0.067731
-0.00520108
0.00273851
-0.000655702
-2.40417e-05
-0.0601298
-0.054891
-0.0378052
-0.0922003
-0.0016462
-0.00156943
8.22644e-05
-0.00855304
-0.00121315
1.58032e-06
-0.0438207
-0.00956439
-0.000741168
-0.0503051
-0.00161849
-0.0764466
-0.000642613
-0.0146942
-0.00806046
-9.68525e-05
-0.0017179
-0.0531611
-0.0449456
1.3648e-06
-0.0275074
-0.0944496
-0.000580211
0.00217664
2.69322e-05
6.20402e-05
-0.0327646
0.00318772
-0.0902769
-0.0773029
-0.000739958
-6.18949e-05
-0.0415903
-0.000585051
0.000321957
-0.0335695
-0.00117539
-0.0599036
7.5718e-05
-0.0138084
-0.0602852
-0.00528891
-0.0256982
-6.84594e-06
-0.000583446
0.00530606
-0.00147919
-0.0393952
0.0106274
-0.00141642
-0.0926979
-0.00106562
-0.029162
-0.0667286
-0.0136599
-0.00149672
-5.1724e-05
-0.00119332
-0.000913304
-0.000212679
-0.0960099
-0.00113402
-0.0030291
0.00360726
-0.00544173
-0.0203856
-0.0156652
-0.0701519
3.57481e-05
-0.0679688
0.00141435
-0.00194148
4.13275e-05
4.54373e-05
-0.000528124
0.0139313
-0.0973449
-0.00484611
-0.0702216
-0.0156924
-0.012066
-0.0740566
-0.0499738
-0.0649714
-0.000347074
-0.0238311
3.38158e-05
-0.0935659
6.15746e-05
-0.0177976
0.0221372
-0.000730448
-0.000994009
-0.0448266
0.0127638
-0.018732
0.0267865
8.91485e-05
-0.00318229
0.00337933
-6.45311e-05
7.76915e-05
0.00433932
3.19293e-05
-0.0669453
-0.0371786
-0.00263178
-0.00701946
-0.00803537
-0.00136183
-0.000901118
-0.0076167
-0.00760541
-0.0421173
0.00945902
0.0109468
-0.060557
-0.0879249
-0.00588632
5.00035e-05
0.00674319
0.00641594
-0.00019332
-0.0602919
-0.0132149
-0.00772727
-0.0223949
-0.0734658
-0.00165816
-0.00153115
-0.0141779
0.00981511
-0.0314064
-0.0045813
-0.000548278
-0.000232549
-0.00018058
-0.062063
-0.000611139
5.14709e-05
3.71515e-05
4.24852e-05
-0.0415381
0.00721058
-0.000195826
-0.000751647
-0.00479635
0.00985782
0.000711194
-0.0452059
-3.99813e-05
-0.0104286
-0.0318556
0.000480395
-0.0600969
1.8859e-05
0.0215628
-0.000522207
-0.0664317
-0.0272434
-0.0129587
-0.0635023
-0.00116162
0.00197908
-0.0734552
-0.000792594
-0.0383527
-0.0218272
-0.000143199
-0.0546028
0.000578575
-0.00657097
-0.0783855
3.9999e-05
-0.00849667
-0.000195864
-0.0626054
-0.0540919
-0.00493905
-0.0395702
-0.00504482
-0.0853075
-0.00125759
-0.000408643
0.000135685
-0.0537899
-0.0234276
-0.0154141
-0.00467869
-0.00136117
-0.00621917
-0.000819331
-0.0850147
-0.0874678
0.00910835
-0.0618523
-0.0433222
-0.00464712
-0.0289366
-0.0443774
0.000559959
0.0162913
-0.0520426
-0.058106
9.035e-05
0.00765153
-0.0704402
-0.00464009
-0.000928598
-0.000981133
-0.0196725
-0.0157404
0.0172051
-0.0936914
-1.42501e-05
0.00910048
0.000142723
-0.00496185
2.32582e-05
2.08983e-05
-0.000217549
-0.0696032
-0.00118944
-0.00345615
-0.0377491
0.000123069
0.0259429
0.000548258
-0.000164215
-0.0885375
-0.00329998
0.0147865
-0.020293
0.000172397
-0.000331629
3.96766e-05
-0.000234
-0.0915088
-0.00148678
-0.0497492
0.000447306
-0.0530753
-0.0929639
-0.000884546
-0.000893125
-0.00136586
-0.000570649
-0.00456361
0.00847954
-0.0400282
-0.0755757
-0.0338258
-0.0657246
-0.0711053
0.000147873
-0.00606967
-0.0893497
-0.0653612
0.0233263
-0.0795263
-0.000309082
-0.0207812
-0.000714355
-0.0430047
-0.000802635
-0.00630359
-0.00138255
-0.00871877
4.13364e-05
-0.00081085
3.19375e-05
-0.0435237
0.0148115
-0.0858845
0.00796792
-0.0404757
0.00625952
-0.00430002
-0.00653452
-0.017931
-0.012619
-0.000360567
-2.43163e-05
-0.000785348
-0.00033608
-0.0367463
-0.000815536
-0.0479892
0.00629227
-0.0787106
-0.00271653
0.00306711
-0.0014716
-0.0455004
-0.00043089
-0.00262064
6.87611e-07
-0.00973097
-0.00325322
-0.017828
-0.0715202
-0.00140402
1.18106e-05
-0.00339565
-0.0902453
4.07848e-05
-0.0216189
-0.0330314
-0.00166504
-0.000763222
-0.00561792
-0.0497431
-0.0527039
0.00984953
0.0243049
-0.000414472
0.000170677
-0.0955806
0.00310657
3.07903e-05
0.0329673
-0.000559548
0.00387982
-0.000757462
0.00890965
-0.00146025
3.20022e-05
-0.00148424
-0.0767221
-0.00526219
-0.0344689
-0.000634686
0.00209623
-0.000149885
-0.000614935
0.000305005
-0.000602171
-0.00126783
0.000265811
-0.00831301
0.00415686
-0.00532617
-0.000809624
-0.0866978
-0.0712826
-0.00581393
0.00196133
-0.00722134
-3.57879e-05
-0.0987719
0.00020028
-0.00114828
-0.000368041
-0.0354062
-0.00924251
-0.0940198
-1.78956e-05
-0.0917881
0.0129434
3.01905e-05
0.00164104
-0.0854284
-0.0169059
-0.00517377
-0.000779539
-0.00203649
-0.00196175
-0.000614651
-0.000541923
-0.00883034
-0.0655135
-0.0430934
-0.0545061
-0.0625164
0.0133149
4.30494e-05
-0.0674696
-0.000952922
-0.0146946
-0.0270293
0.00300263
-0.000843093
-0.0659329
-0.00431871
-0.0942588
-0.0974309
-0.0971202
0.00140903
0.00147476
-0.00206482
-4.92869e-05
0.0141453
-0.00144653
-0.0111559
-0.00118309
-0.0150943
-0.0632617
-8.08357e-06
-9.95115e-05
-0.0440217
-0.0712142
-0.00646823
-0.00360248
-0.000151043
-0.00149773
-0.0398551
0.0110544
0.0295249
0.0240848
-0.000630231
-0.0951958
-0.0756194
-0.00062302
-0.00168108
-0.0335147
7.19452e-05
-0.000805405
7.87255e-05
-0.0693588
-0.0153581
-0.0515368
-0.0568108
5.08647e-05
0.00660161
-0.000519892
-0.0197521
-0.0505402
-0.0655775
-0.0625978
-0.000257077
-0.00894604
0.0308174
-0.0722034
-0.0545755
-0.0343013
0.0136532
2.16499e-05
-0.00174768
-0.0121606
6.10942e-05
-0.00591358
7.12411e-05
-0.000639328
-0.0636813
-0.0417385
0.0057701
7.21294e-05
-0.0486167
-0.000930827
-0.000515354
-0.00063991
-0.000147386
-0.00461925
-0.092842
-0.00235236
-0.00261933
-0.097484
-0.00164216
-0.0333917
-0.0716025
-0.069703
0.000216721
-0.031459
6.90788e-05
-0.000220057
-0.00899813
-0.074572
0.00708839
-0.0511369
-0.0170256
-0.000776168
-0.00267575
-0.00168122
-0.00573968
-0.043889
-0.00518549
0.00941901
-0.000764665
-0.023314
-0.0477789
-0.00990416
-0.000393487
-0.000653723
-0.00814352
-0.0388441
-0.0342711
-0.0493635
-0.00058058
-0.0549126
-0.000767994
0.0209747
-0.00102395
-0.0979158
0.00102499
-0.000594675
-0.0597385
0.00245266
-0.0967852
-0.0692937
-0.0964365
0.032517
-0.000794556
-0.0596287
-1.30235e-05
-0.000606367
-3.70146e-06
-0.00062758
4.62224e-05
0.00835746
0.00812148
6.07267e-05
-0.0310609
0.0127584
-0.0342345
-0.000286939
2.59824e-05
-0.000187224
-0.0422803
-0.0582204
-0.0444221
-0.0233377
4.16665e-05
-0.000664024
-0.000644551
-1.0799e-05
-0.0609176
-0.00107018
-0.00792507
6.89378e-05
-0.00897501
-1.17761e-05
-0.00833361
-0.0932491
-0.00348687
-0.0836709
-0.00113821
-0.000477801
-0.0539792
-0.0896339
-0.0321939
0.0129106
-0.0111531
0.00668708
-0.0437425
0.00737115
-0.000693501
-0.00564215
-0.00170677
1.53177e-05
-0.036532
-0.0712334
-0.00107082
0.00226821
0.0128648
-0.000619826
-0.0135273
0.00370953
-0.0545165
-0.0428352
-0.0574177
-0.00138648
5.6764e-05
-0.000312346
-0.0874985
-0.0564172
0.0137792
-0.0688913
-0.000906476
-0.00421263
-3.6954e-05
-0.00256151
-0.0610481
-0.000792594
0.00171445
-0.000238432
-0.0198536
-0.000216693
-0.0946983
0.0103952
-0.0786976
5.08929e-05
-0.00804304
-0.0738245
-0.0936607
-0.0558888
-0.00156881
-0.063141
-0.00541534
-0.000366143
-0.0238556
-0.0178373
-0.0084999
-0.0974107
-0.00157787
-0.00167665
-0.0594209
-0.000875949
-0.00106808
-0.00134091
-0.000767533
-0.0959642
-0.0119277
-0.051426
0.00586316
-0.000184525
-0.000754867
0.0024948
-0.000642901
-0.00169534
-1.71914e-05
-0.000521226
-0.000973215
-0.0720652
-0.000181544
-8.42553e-08
0.000655891
-0.00932429
-0.0737055
-1.98111e-05
-0.00164272
-0.0472021
-0.00624525
-0.00212942
-0.00061835
0.00555044
-0.0818309
-0.00816444
-0.0705723
-0.0357972
-0.000768359
-0.00154664
-0.0954032
0.00259541
-0.00571877
-0.000600187
5.93213e-05
-0.00143237
-0.0161041
0.0123623
0.000130868
-0.0014512
-0.00442255
-0.00163095
-0.05187
-0.000741051
-0.0378118
0.00638387
-0.00781645
-0.036877
-0.0483103
-0.0613766
-0.000166268
-0.0194083
-0.061536
-0.00957901
-0.0932205
0.0193287
-0.0711557
-0.057493
-0.0780812
-0.00156875
-0.00813243
-0.000764795
0.00828311
-0.0946392
-0.0970712
-6.38672e-05
-0.000692895
-0.0449287
-0.000101043
3.716e-06
-0.0927632
-0.000885097
-0.00422977
-0.0954804
-0.0746882
-0.00159493
-0.000584691
-0.00491925
-0.0936289
-0.0604897
-0.0539
0.000418589
-0.0844993
-0.0219776
-0.0570605
-0.0392504
-0.0368413
-0.00593046
-0.00917548
0.0255746
-0.0449512
-0.0658698
-0.000507414
-0.0329258
-0.0962588
-0.0749278
-0.0761164
-0.00662307
-0.0330109
-0.000529303
-0.00143249
0.0023767
0.00572299
-0.00478394
-0.065769
-1.57665e-05
-0.0465915
-0.00123474
-0.0224536
-0.0341924
-0.0321091
-0.0823006
-0.0396725
0.0102101
-0.0012536
-0.0463346
-0.0023081
0.0152431
-0.0048242
-0.075359
-0.000244048
-0.0576471
-0.000447878
-0.00497084
-0.0693961
-0.0905256
-0.0740337
-0.000608264
-0.000729695
0.000111045
-0.0795478
-0.00477232
0.00844566
-0.0691579
-0.00025054
-0.0192291
-0.0386255
-1.66679e-05
-0.0188436
-0.0065407
-0.000621332
0.0255002
-0.0699972
-0.0507319
-0.00569929
0.000467376
-0.000326118
-0.0956229
-0.0486146
2.20532e-05
-0.00889215
-0.000601298
-0.00105918
-0.00124994
-0.00058719
-0.016145
-0.00553455
-0.0040938
-0.00162409
0.000213107
-0.00179764
-0.0681435
-0.0865051
-0.022265
-0.0192876
-0.00134045
-0.0206151
-6.48196e-05
-0.000593447
-0.00243494
-0.00384479
-0.0685605
-0.00580484
-0.0433418
-0.00663803
-0.00645698
-0.00131913
-0.093816
-0.00076996
0.0305111
0.0128145
-0.0631102
-0.0126076
-0.0179896
-0.0663976
-0.0239249
0.0119683
0.00668389
0.00971821
-0.0919187
-0.0223089
-0.000784842
0.000846817
-0.038832
-0.0383579
-0.0190192
-0.000564439
-0.0338067
-0.000347544
-0.000234187
-0.0718126
-0.000406115
-0.062693
-0.00875216
-0.000526889
0.00676375
-0.000524193
-0.00497584
2.86453e-05
-0.0107843
-0.0588302
-0.000232894
-0.0607826
-0.0955014
0.00375111
-0.0535987
-0.00883339
-0.000730348
-0.000436813
-0.00134031
-0.000535508
-0.0484413
-0.0142733
-0.000757926
0.0017451
-0.000304315
-0.0776095
0.00132017
0.0144435
-0.0798113
-0.0605906
-0.0016531
-0.00242517
-0.0177246
-0.000262138
0.000296271
0.000752943
-0.00417552
-0.00157531
-0.00124209
-0.000866883
-0.0940959
-0.000727266
-0.0661027
-0.0116798
-0.0192756
5.08114e-05
-0.000878692
-0.00683882
0.0186761
-0.00113352
-0.001033
-0.0046064
0.000485607
-0.00528132
-0.011078
-0.00108617
0.0372509
-0.0613829
-0.00434143
-0.000737122
-0.00239402
0.0152045
0.002529
-0.0246364
-0.0243745
-0.023237
-0.0147841
0.000341328
0.00233901
-0.000776259
-0.0846584
-0.0651144
0.0102438
-0.0578521
-0.00425645
-0.000120199
0.00145113
-0.00503734
-0.0025657
-0.000726966
-0.000723703
-0.00104286
-0.0467103
-2.93637e-05
-0.00100521
-0.0121459
-0.0272901
-0.0609646
0.0119967
0.00921869
-0.00109216
-0.0455952
-0.0588486
-0.017746
-0.094136
-0.0339299
-0.0491709
-7.12116e-05
-0.0391362
-0.0035398
-0.000209165
0.00126867
-0.0778114
-0.0540581
-0.000229252
-0.0251959
-0.000291548
-0.00423858
-4.34488e-06
-0.000383657
-0.0016304
0.0111054
1.9626e-05
-0.0263526
0.0156681
-0.0679877
-0.00103486
0.0292856
5.88215e-05
-0.0291144
-0.00972351
-0.068929
-0.0521075
-0.0484979
-0.0322956
-0.0749827
-0.00397277
-0.093103
-0.000609579
0.00382961
-2.22432e-05
-0.00537058
-0.0274903
-0.00676508
-0.0731567
-0.0122947
-0.0208041
-0.000159603
-0.0553537
-0.00151339
-0.00497965
-0.0187505
-0.000654035
-0.00017402
0.00868074
0.0269211
-0.00325011
0.0213732
-0.00120817
-0.0247111
0.000476178
-0.00156924
-0.0775008
0.0152333
-9.11276e-05
-0.0135331
-0.0947766
-0.0155598
-0.00605045
-0.0639711
-0.00186517
-5.99066e-05
-0.0641027
0.00841905
-0.0301611
-0.0224167
-0.0689888
-0.00435609
-0.0445237
0.0212852
0.00157059
0.00254546
-0.00461536
-0.0922174
0.0138034
-0.0737618
-0.000376208
-0.0268997
-0.0557339
-0.0118319
-0.0680043
-0.0613929
-3.31894e-05
0.0231934
-0.0715961
0.0226582
-0.0612963
-0.00291012
-0.00238197
-0.0705175
-0.057707
-0.0951435
-0.00318962
-0.00902541
-0.00369886
-0.0745476
-0.0554949
-0.0103808
-0.000495301
-0.0177474
-0.0174812
-0.0644004
-0.000837012
-0.00607551
-0.0630615
-0.0199913
0.000311687
-0.0554421
-0.0637619
-0.0102219
-0.000377695
-0.0936391
-0.0698394
-0.000365217
-0.00106576
-0.031052
-2.3588e-05
0.000105529
-0.00124331
-0.00250552
-0.00201669
-0.0435288
0.0195426
-0.0765947
-0.013342
-0.0939618
-0.00477627
-0.0252022
-0.0634578
-0.0264878
-0.00160342
-0.00232555
-0.0313246
0.000197414
-0.00505668
-0.000146874
-0.00383004
-0.000445151
-0.0589566
-0.000337811
-0.00174568
-0.0834621
-0.0131025
-0.0124753
-0.00898628
-0.000434345
-0.000551682
-0.0322793
-0.0621643
-0.0877637
-0.000630821
-0.043037
-0.0009028
-0.000141941
-0.000900444
-0.0746754
-0.0301074
-0.00296081
-0.054331
-0.0388435
0.012153
-0.0616497
-0.0607835
-0.00201983
-0.000737944
-0.00168027
0.0395958
-0.0419096
1.97403e-05
-0.0543176
-0.00208495
-0.00159243
-0.00547862
-0.0728357
0.00174305
-0.0775957
0.0185693
-0.0831818
-0.000673849
0.000996901
-0.00106868
0.0186718
-0.00114321
-0.000892795
-0.0138147
-0.073731
-0.080525
0.0270011
-0.0673401
0.00523611
-0.0652194
-0.0697253
-0.0313796
-0.00316641
-8.10204e-05
-0.000371019
-0.000747901
-0.0605625
-0.00272121
-0.012447
0.00196052
-0.0629247
-0.0624861
-0.0927905
0.00182284
-0.0639238
-0.000391867
0.00352591
-0.00142152
-0.000184071
-0.0947371
-0.00583323
-0.0692589
0.0231858
0.000241597
-0.0534667
-0.0042984
0.0016649
-0.0024154
-0.0553111
-0.00126439
-0.00995072
0.00162133
-0.00143167
-0.0564107
-0.0135645
-0.0109394
-0.000949462
-0.00985583
-0.0234036
-0.067826
5.92798e-06
-0.0353051
1.07251e-05
0.0131358
-0.000150858
-0.060052
0.00580025
-0.0336519
-0.0208655
-0.00476865
-0.00164632
-0.000607753
-0.000153482
-0.00482834
-0.00103601
-0.00155012
-0.076379
-0.0202208
0.00476605
0.000222455
-0.000133338
-0.0486062
-0.0787415
-0.056714
-0.0308339
-0.00498126
-0.00111513
2.03619e-05
-0.000807968
-0.0568672
-0.0659402
-4.0006e-05
0.00440816
0.0221457
-0.063158
-0.0115665
-0.0120075
-0.066961
-0.0115764
-0.000958336
-0.0609288
-0.0610432
-0.0018199
-0.000160213
-0.00336193
-0.0644038
-0.0546766
-0.0182253
-0.0535463
-0.0927956
-0.0165986
-0.0625637
-0.00466168
0.00109698
-0.061672
-0.049201
-0.00398478
-0.0945677
-0.00784958
-5.2772e-05
-0.000850125
-0.0543441
-0.00297023
-0.0563854
-0.00833277
-0.0183735
-0.0353151
-0.00258462
-0.0603359
-0.0631463
-0.0020644
-0.0141903
-0.0548718
-0.0408232
-0.0934788
-0.00819807
5.3971e-06
-0.00077995
8.92292e-05
-0.000885509
0.0125194
0.00693648
-0.00326912
-0.0064589
0.00216226
-0.0169539
-0.00197207
5.27549e-05
-0.000250558
-0.000324006
-0.0114117
-0.000165306
-0.0406552
-0.016223
0.00470807
-0.0405792
-0.00262192
0.0121396
-0.0641187
2.90869e-05
-0.000647482
-0.0598106
-0.0915446
-0.0930807
0.00190131
-0.000496496
-0.0851015
-0.00059141
-0.00106735
-0.0262899
-0.000746761
-0.0366376
-0.0457611
-4.38709e-05
-0.0931229
-0.0598994
-0.0144471
-0.0661892
-0.0789497
-0.005903
0.0200293
-0.0607719
-0.0941269
-0.0193805
-0.0489631
6.93153e-05
-0.00336037
-0.000936057
-0.00494646
-0.0645875
-0.0857027
-0.0939378
-0.0904863
-0.0187045
0.00137962
0.00451109
-0.000149088
-0.00160862
-0.000875955
-0.0737702
-0.000600286
-0.0663501
0.00455962
0.0126364
-0.0350216
-0.0587239
-0.0740958
-0.0641952
-0.0356434
2.73195e-05
-0.000867254
-0.0648213
-0.0646573
-0.0193164
-0.00067188
-0.000695267
-0.0220501
-0.012442
-0.0555368
-0.0087296
-0.0199564
-0.000875567
-0.0542312
-0.00146747
-0.068856
0.0164439
-0.00104025
-0.0426852
0.000911026
-0.0654019
-2.69448e-06
-0.065048
-8.28378e-05
-0.0194158
0.00876222
-0.00453378
0.012475
-0.0247101
-0.0353846
-0.0943954
-0.0812938
-0.0184809
-0.0169592
-0.00120224
-0.0644871
-0.0940683
-0.000643982
-9.7657e-05
-0.000172359
4.59952e-05
-0.0629924
-2.75525e-07
0.0101087
-0.0146056
0.0138639
0.00867462
0.0023401
-0.0092616
-0.0482594
-0.0713737
-0.00220906
0.0136428
-0.0810179
0.0146059
0.0103806
0.00282183
-0.084177
-0.0300068
-0.0104044
-0.00430761
-0.00275111
-0.0022386
-0.0968696
-0.0958741
-0.015652
-0.000425193
-0.00253181
-0.0004092
-0.0679048
-0.00052546
-0.0738489
-0.0943083
-0.00496512
-0.00529083
0.00902505
0.00336412
0.00102183
-0.00957872
-0.0674518
-0.00700086
-0.0481978
-0.000716799
2.19559e-05
-0.000598934
-0.00402723
-0.0789874
-0.0593101
-0.00881897
-0.0946186
-0.0640913
-0.000378914
-0.00452979
-0.000928984
0.0013836
-0.0643263
-0.0585418
-0.00349748
-0.00197474
0.0119483
-0.0160928
-0.0345409
-0.0920609
-0.00865487
-0.0654156
-0.0354643
0.00802034
-0.00433104
-0.000499861
-0.041616
-6.83292e-05
-0.00363409
-0.0672217
-0.0208062
-0.0711293
-0.00150411
-0.0163485
-1.7178e-05
-0.0944344
-0.0908877
-0.00156191
-0.00105336
-0.0180385
-0.00486546
-0.000732581
-0.00493348
-0.00087196
-0.093699
-0.0112896
-0.0919937
-0.000948108
-0.0640636
-0.00549033
-0.0675685
-0.00131465
-0.0255481
-0.0950478
0.00419641
0.0325311
-0.0654562
-0.000630967
-0.00223018
-0.0188056
-0.0918707
-0.0954406
0.000595961
-0.0010189
-0.00240665
-0.000809089
0.0149439
-0.00451429
-0.0942488
-0.00119716
-0.0160516
-0.00934257
-0.00325432
0.00922129
-0.0493907
0.00647687
-0.0541483
0.00160941
-0.000599958
0.018734
-0.0656641
-0.0064569
-0.0318985
-0.0787961
-0.0687894
-0.000374872
-0.00619446
-0.0166164
-0.0721767
-0.0749824
-0.00519501
-0.0691628
-0.0142959
-1.8627e-05
-0.00181485
-0.089796
-0.0122516
-0.00101442
-0.0936084
0.00124492
-0.00934698
-0.000553295
-0.0968568
-0.00250148
-0.0762881
0.00438069
0.0264214
-0.0132652
-0.00196604
-0.0462191
-0.0942548
-0.000356848
-0.00384382
-0.0303495
1.32998e-05
-0.00651366
-0.00639058
-0.0205495
-0.0395187
-0.0408462
0.010228
-0.06884
-0.0196368
-0.0418082
0.0238128
0.000353551
-0.000226848
-0.0692478
-0.0684808
-0.0291385
-0.000692591
-0.0475256
-0.0925726
-0.00725765
0.00467198
-0.000911739
0.0285924
-0.0684365
0.0197306
-0.0678436
0.00284567
-0.0442647
0.000384327
-0.0711823
3.77997e-06
-0.000706826
-0.00401319
-0.00217067
-0.0913968
-0.0625887
-0.048057
-0.0147015
-0.000853749
0.0256051
0.00848454
-0.000938963
-0.0555383
0.000114998
-0.0348665
-0.00448723
0.0146976
-0.00205837
-0.00107114
-0.00401979
0.00844945
0.0176603
-0.00133986
-0.0608619
0.00044315
0.0202886
0.0265691
-0.00060842
-0.00516324
-0.00525782
-0.0134799
-0.0181555
-0.000665643
-0.0032252
-0.048499
-0.000402859
0.0126043
0.000748375
-0.0101731
-0.000905817
-0.0637259
-0.00668603
-0.000528407
-0.0613803
-0.024121
0.0259256
-0.0680893
-0.0514566
0.00463885
-0.00900119
-0.00817981
-0.0138683
0.000853363
-0.000112261
-0.0235326
-0.0942445
-0.0646564
-0.0631288
-0.00760909
-0.0958481
0.0123995
-0.0140331
-0.000305133
-0.0731126
-0.00533816
-0.0208425
-0.00466201
-0.0621603
-0.0940675
-0.00300267
-9.6123e-05
-0.014188
0.000250346
-0.00940945
-0.051129
-0.000403881
-0.00321893
-0.0937548
-0.0651977
-0.00067021
-0.0215312
-0.0244422
-0.093988
3.41899e-05
-0.0944884
-0.0944168
-0.00307407
0.00722381
-0.0874541
-0.00734574
0.000886901
-0.00255006
-0.00393632
-0.0179464
-0.000829183
-0.000532435
-0.0677498
-0.0947208
-0.0962193
-0.000153526
-0.0652909
-0.00654672
-0.0399187
-0.0008206
-0.00481542
-0.0165298
-0.000662729
-0.0931945
-0.0191972
-0.0182131
-0.0715318
-0.0947389
-0.0145122
-0.0449347
-0.094593
-0.0719577
-0.000548599
-0.0957199
-0.000902613
3.49714e-05
-0.00450528
-0.000886086
-0.000992825
-0.0941303
0.00794063
-0.00390193
0.0101273
-0.0946324
-0.094104
0.0211982
-0.000670129
0.00372226
-0.00489391
-0.093858
-0.000344911
-1.04964e-05
-0.00268417
0.00156042
0.00100719
-0.0030021
-0.0939524
-0.0341046
-0.0205462
-0.000140817
-0.00474656
-0.0111521
-0.064853
-0.000669888
-0.0956803
-0.0345081
-0.0075889
-0.0941221
-0.0951711
-0.000623573
-0.0486185
-0.00760665
-0.0961088
-0.000859239
0.0254301
-0.00319629
-0.00991105
0.00601894
-0.0825434
-0.00111314
-0.000828589
9.70677e-05
-0.0490497
-0.0310759
-0.0948037
-0.0840318
-0.00749719
-0.0685682
-0.0134411
-0.0283847
-0.0758136
-0.0937462
0.0077913
-0.0759839
-0.0144814
-0.0095001
-0.00330132
-0.0546305
-0.0307016
-0.0183916
-0.0656803
-0.000652913
-0.0935816
-0.00261558
-0.019852
-0.00482503
0.0090438
-0.0729308
-0.029601
-0.0597146
-0.0135115
-0.0137605
0.0205953
-0.0677449
-0.0298564
-0.0703972
0.00977473
-0.094242
-0.000883768
-0.0653509
-0.0356996
-0.0914741
-0.00562205
-0.000816045
0.000671977
-0.0686578
-0.00206893
-0.00492369
-0.00468196
-0.00887206
-0.000444884
-0.00544684
-0.0927681
-0.0593723
-0.0892812
-0.0943573
-0.000671875
-0.084441
-0.0715005
-0.0547467
-0.0950259
-0.0740315
0.00946848
-0.0931154
-0.0201644
-0.0293261
-0.0617759
-0.0649926
-6.60603e-05
-0.0773112
0.00147756
-0.00599553
-0.0164489
-0.0824404
-0.0622669
-0.0677067
-0.0047344
-0.00983621
-0.00205929
-0.0675573
-0.0951052
-0.00257416
-0.04359
-0.000162145
-0.00658239
-0.00527429
-0.0719056
-0.0716421
-0.00531993
-0.00576795
-0.017331
0.000586955
-0.00107958
-0.0131482
-0.000955104
-0.00422542
0.0215196
-0.0738849
-0.000247934
-0.0711499
-0.00741883
-0.00108019
-0.0773298
-0.0708338
0.00348407
0.0204153
-0.0047597
-0.0250414
0.00234732
-0.00010975
-0.0101621
-0.000834709
0.00600521
0.00352068
-0.00088564
-0.00122449
-0.0391354
0.0266665
-0.0745808
-0.0068029
-0.00264664
-0.0690408
-0.00371379
-0.0208044
-0.000342797
-0.00590885
-0.00066085
-0.00507724
-0.00057856
-0.0143658
-0.00496049
-0.0749858
0.00139326
-0.00857492
-0.0101818
-8.43781e-05
-0.00078897
0.0241171
-0.0030303
-0.0439835
-0.0952556
0.0117528
-0.0106023
-0.00458283
-0.0072671
0.000469849
-0.00957775
-0.00136345
0.00961317
-0.0764268
0.000308341
-0.0467281
-0.0766821
-0.00313149
-0.000553211
-0.000715596
-0.0220748
-0.0193049
0.000412222
-0.0123576
-0.0600132
0.0120762
-0.00168866
-0.0770536
-1.20977e-06
-0.00206396
-0.000627613
-2.15498e-05
0.00110776
-0.00106382
0.000825711
-0.066904
0.0176635
-0.0170275
0.0147454
0.0118314
0.0135926
-0.0300764
-0.0810261
-0.094507
-0.043277
-0.0220701
-0.0716586
-0.0530288
-0.00514962
-0.012965
-0.000985337
0.0263492
-0.000244208
-0.0117457
-0.0266147
-0.00148189
0.0184201
0.00910807
-0.000618561
-0.00104203
-0.0051683
-0.00268993
-0.000794184
-0.00163345
-0.0891817
-0.0741978
0.0109361
-0.00419571
-0.000687581
-0.0465878
-0.0720914
-0.0731834
-0.0216612
-0.0605768
-0.000492005
-0.0602423
-0.0636386
0.00689648
0.00114207
-0.00425142
-1.31714e-05
0.00247548
0.000581669
0.000563444
-0.0114807
-0.0757943
-0.0457084
-0.0709231
-0.0048212
-0.031055
-0.0563852
-0.00422482
-0.000531829
-0.00149463
-0.00062566
-0.0124961
-0.00247636
-0.0258539
0.00568226
-0.0649804
-0.0237618
-0.0941244
-0.0382468
-0.0704753
-0.0661238
-0.000904946
-0.00102001
-0.00136636
-0.00320728
-0.000641204
-0.00215545
-0.0740433
-0.0620789
-0.00522914
-0.0062253
-0.00133531
-0.010649
-0.0292329
-0.000899957
0.00485897
-0.062211
-2.35891e-05
-0.0042733
-0.00940503
-0.0143138
-0.0103414
-0.0601685
-0.0694954
0.00256581
-0.0683163
-0.0512362
-0.0677539
-2.1793e-05
-0.00356023
-0.00042326
-0.00762081
-0.0916706
-0.000134756
-0.094418
-0.00143588
-0.000627367
-0.00552094
-0.0669899
-0.0359005
-0.0494002
-0.00313299
-0.000707883
0.00681658
-0.0947653
0.00126238
-0.00100834
0.00094656
-0.00222701
0.0137203
-0.000292962
-0.000947986
-0.0639167
-0.0641418
-0.0680843
0.00694174
-0.0599066
-0.0939332
-0.0487763
-0.0636526
-0.0385663
-5.00469e-06
-0.000231449
5.73038e-05
-0.00101903
-0.0671772
-0.0682625
-0.00039185
-0.0943239
-0.0642737
-0.0335503
0.00018391
-0.00407536
-0.058313
-0.072044
-0.0737858
0.0258549
-0.0722516
4.56578e-05
-0.0581716
-0.0419956
-0.0028046
-0.0613831
-0.00510352
-0.0546565
-0.0942874
0.00095021
-0.0694024
0.000105534
-0.00167306
-0.0941244
-0.0663354
-0.0494159
-0.00982048
-0.078802
-0.0546457
-0.0643114
-0.0674907
-0.0761904
-0.0527274
-0.0583072
-0.00607913
0.00133377
-0.0366708
-0.0682662
-0.00386135
-0.0668519
-0.00100833
-0.0251885
0.00981676
-0.000702265
-0.0713624
-0.00535174
-0.0546129
-0.0744067
-0.00530513
-0.0152009
-0.0209253
-0.0657827
-0.0584455
-0.0329455
-0.00323359
-1.10905e-05
-0.0664028
-0.00140726
-0.00121847
-0.0312177
-0.0152483
-0.0669306
-0.018307
-0.00297532
-0.0130482
-0.00103886
-0.0285337
-0.00634924
-0.0532945
-0.00334794
-0.000639422
-0.0636467
-0.0439354
-4.82564e-06
-0.0946109
-0.061303
-0.00474091
0.0235855
-0.0106345
-0.0648977
-0.00584461
-0.000376661
-0.053965
-0.00694956
-0.0652647
-0.0706035
-0.0449654
0.0178233
0.00569955
-0.00610285
-0.0214353
-0.0241741
0.000538854
-0.06235
-0.0424506
-0.000602873
-0.000887704
-0.0375598
-0.00469502
-0.0772546
-0.0594695
-0.00190434
-0.0932312
-0.0449763
-0.0192945
-0.000122884
-0.0646137
-0.0670567
-0.0893176
-0.00578951
-0.000415086
-0.0399474
-0.00396665
-1.20331e-05
0.000611023
0.000330469
-0.000298113
0.0232263
-0.000506263
-0.00244626
-0.0184288
-0.053284
-0.0646558
0.021881
-0.0737279
-0.0719232
2.24734e-05
-0.0612858
-0.0613918
-0.0689181
-0.000706033
-0.0335775
-0.0694378
-0.0960528
-0.0536686
-0.0555347
0.0029609
-0.063582
-0.0436668
-0.0608395
-0.000676249
-0.0377613
-0.0422783
-0.00489141
-0.0476329
-0.0920253
-0.00341478
-0.0954104
-0.0591265
-0.00256597
-0.00045758
0.00496952
-0.00501284
0.00998086
-0.000922292
-0.000625529
-0.0623794
-0.0591175
0.00972949
-0.0455385
-0.00083632
-0.00616379
-0.0932699
-0.0680964
-0.0935405
-0.0292643
-0.0690262
0.00213333
-0.000624774
-0.0229989
-0.074534
-0.0579888
-0.0564113
-0.0595146
-0.0140442
-0.00067031
-0.00497422
-0.0133057
-0.0254105
-0.0895283
-0.0606622
-0.012994
-0.0706689
-0.0788841
-0.00442498
-0.0964529
-0.00642024
-0.0200641
0.0115216
-0.00617002
-0.000140328
-0.0178058
-0.0175278
-0.0702999
-0.0672954
-0.000929149
-0.0416827
-0.0143892
-0.0115046
-0.0905866
0.00223174
-0.0644097
0.000911232
-0.0509001
-0.0657927
-0.0501096
-0.0538628
-0.00575248
-0.0602106
-0.0612351
-0.0635151
-0.000886426
-0.0599735
-0.000468614
0.00369813
-0.00453133
-0.0232374
-0.0619835
-0.0742228
0.000709312
-0.0960719
-0.0229437
-0.000575702
-0.000671663
-0.00577005
-0.00119897
-0.0333926
-0.0632907
-0.06377
-0.0499232
-0.000507592
-0.000527556
-0.020261
-0.000599956
-0.0655863
0.0184254
0.000826215
-0.0165175
-0.046998
0.0215136
-0.0662482
-0.0345606
-0.094837
-0.00764998
-0.0880769
-0.060716
-0.0630796
-0.000177961
0.00212664
-0.0175488
-0.00620699
-0.0730907
-0.0926855
-0.020513
-0.0647066
-0.0604361
-0.0526152
-0.0194092
0.00682458
0.0125933
-0.000940724
-0.054153
0.00200846
-0.0173265
-0.0148268
-0.0157951
-0.00983983
-0.0946082
-0.0563676
-0.00070842
-0.00561907
-0.0261567
0.00172842
0.000107445
0.000699567
-0.0410551
-0.00440358
-0.0950306
-0.00533442
-0.066648
-0.00570571
0.00500003
-0.00367367
-0.0677069
0.00206382
-0.062784
-0.0961457
-0.0176247
0.0110813
-0.0537287
0.0064778
-0.0550346
0.0193126
-0.00165511
-0.0428684
-0.00126504
-0.0636379
-0.000601703
-0.0011401
-0.000350654
0.00297288
-0.0237489
-0.00691737
-0.0434542
-0.0408027
-0.00713453
0.00460569
-0.0900801
-0.088719
0.0246219
-0.0327198
2.51708e-05
-0.00277135
-0.0297657
-0.0468945
0.011315
-0.0430189
0.0214564
-0.000667148
-0.00414153
0.00497058
0.00516986
-0.0017339
-0.0634999
-0.00280167
-0.0446879
0.00630761
-0.0701835
-0.0589326
-0.0247647
0.0050055
-0.0469017
-0.0592785
-0.0962394
0.0133871
-0.0149618
-0.041592
-0.0220674
0.00190254
-0.0625651
-0.0645193
0.00136441
-0.000930875
-0.058469
-0.00840419
0.0285523
-0.00407395
-0.0330316
-0.000978398
-0.00668813
-0.0329799
-0.00950026
-0.014002
-0.000578298
-0.000754143
0.0130911
-0.0769141
0.000699347
0.0171982
-0.0594675
-0.000586566
-0.00181427
-0.063463
-0.0377374
-0.0483311
-0.00560299
-0.0163394
0.00244268
-0.000591351
-1.44165e-06
-0.0225485
-0.0174623
-0.0635649
-0.0502026
-0.0216336
-0.0618396
-0.0182016
-0.0416801
-0.00072052
0.00136217
-0.0331511
-0.0192357
0.0280231
-0.033066
-0.000529793
-0.00962125
-0.0177094
0.00150231
-0.000377487
0.0284039
-0.004509
0.0172444
-0.0407657
-0.0398937
-0.00104039
-0.045228
-0.0294162
-0.0950314
-0.010586
-0.068309
-0.0232386
-0.0667086
-0.000592792
-0.044724
-0.0255704
-0.00220155
0.00113653
-0.00316299
-0.0278248
0.0113496
-0.00197759
-0.0414369
-0.0669273
-0.0246087
-0.00483314
0.00965234
-0.0767943
0.00664184
0.0212734
-0.000134598
-0.000649372
0.0174022
0.00518726
0.00496664
0.02514
-0.0660421
-0.000963557
-0.0676282
-0.00072788
0.0260428