/*--------------------------------*- C++ -*----------------------------------*\
| =========                 |                                                 |
| \\      /  F ield         | OpenFOAM: The Open Source CFD Toolbox           |
|  \\    /   O peration     | Version:  v2012                                 |
|   \\  /    A nd           | Website:  www.openfoam.com                      |
|    \\/     M anipulation  |                                                 |
\*---------------------------------------------------------------------------*/
FoamFile
{
    version     2.0;
    format      ascii;
    class       surfaceVectorField;
    location    "100";
    object      ddtCorrDdt0(Uf);
}
// * * * * * * * * * * * * * * * * * * * * * * * * * * * * * * * * * * * * * //

dimensions      [0 1 -2 0 0 0 0];


internalField   nonuniform List<vector> 
20642
(
(0.00561658 -0.00641972 -2.18193e-18)
(0.00247485 -0.00871589 -1.36029e-17)
(0.00671953 -0.00957349 1.13108e-18)
(-6.09633e-06 0.00673385 -6.49628e-19)
(-1.04437e-05 0.00792276 1.34744e-18)
(0.00140588 0.00731212 1.20398e-19)
(-0.00157612 -0.0243392 2.60402e-18)
(-0.00176434 -0.0251268 6.84032e-18)
(-0.00223604 -0.0244436 4.20266e-18)
(0.00103514 -0.00245896 3.14174e-18)
(0.0011089 -0.00251099 2.7822e-18)
(0.00110128 -0.00241645 -5.56446e-19)
(0.00108233 0.00224105 -3.10396e-20)
(0.000939564 0.00269653 1.05463e-18)
(0.00146174 0.00259175 2.11181e-19)
(0.000283602 0.00526623 -1.55268e-18)
(-0.000924311 0.0054278 -2.92967e-19)
(0.000656791 -0.00461575 2.47212e-18)
(0.000710051 -0.00454169 -1.97618e-18)
(0.000747096 -0.00463872 1.78897e-19)
(0.0128005 0.0305776 -2.78084e-20)
(0.0114041 0.0346264 1.40184e-18)
(0.0172727 0.0330824 -2.34312e-19)
(-0.000719203 -0.00381607 1.86399e-18)
(-0.000646721 -0.00385236 1.30139e-18)
(-0.000708234 -0.00391916 -5.81547e-18)
(-0.00215687 -0.00998684 9.35179e-19)
(-5.32618e-05 -0.0199996 2.23984e-17)
(0.0149297 0.0267057 -5.03633e-19)
(0.00977294 0.0278892 -6.52255e-19)
(0.00168471 -0.00141639 -9.39148e-19)
(0.00174165 -0.00146566 -9.59474e-19)
(0.00165016 -0.00147987 -1.21209e-19)
(0.000427136 -3.08506e-05 1.30927e-19)
(0.000396436 -3.0297e-05 1.48238e-19)
(0.072621 0.0791393 1.87798e-18)
(0.0875133 0.0874089 6.15814e-19)
(0.0836001 0.0742715 3.79976e-19)
(0.00268785 0.000238631 2.78299e-19)
(0.00243979 0.000260783 -1.90437e-19)
(0.00262407 0.000469546 1.24159e-19)
(0.00746016 -0.00509683 5.89854e-18)
(0.00375493 -0.00405942 5.51772e-18)
(-0.00119331 4.90487e-05 -2.97402e-20)
(-0.00116713 5.421e-05 4.43625e-21)
(-0.000858215 2.67527e-05 -1.90448e-19)
(0.0165963 0.0231437 8.47026e-19)
(0.0177703 0.0199764 1.86821e-19)
(0.0136143 0.0210927 -2.55464e-19)
(0.00630067 -0.0158168 1.20915e-17)
(0.00617296 -0.0167797 2.44468e-18)
(0.00719816 -0.0162194 -3.06683e-18)
(-0.0371262 -0.0473781 -1.80603e-17)
(-0.0128582 -0.0490002 1.54945e-18)
(-0.0124693 -0.0392908 6.71804e-19)
(0.0101676 -0.00408006 -2.08187e-20)
(0.0107613 -0.00460922 2.81256e-20)
(0.0108285 -0.00375797 3.22151e-19)
(0.00210364 0.000542689 -9.83384e-20)
(0.00209966 0.000509323 -3.68952e-19)
(0.00216351 0.000553543 -1.45633e-19)
(0.00153693 -0.00637378 6.96379e-18)
(0.00140356 -0.00645317 -1.24845e-18)
(0.0016224 -0.0065059 -7.94518e-18)
(0.00208796 0.000566082 -1.63986e-20)
(0.00206016 0.000518759 1.39988e-19)
(0.00232751 -0.00304516 3.95965e-18)
(0.00232222 -0.00316441 -1.28261e-19)
(0.00243131 -0.00308174 3.18405e-18)
(0.0131984 -0.00237095 -2.4785e-19)
(0.0123653 -0.00285832 9.34514e-20)
(0.0122519 -0.00190174 1.02395e-19)
(-0.170384 -0.128669 -2.78351e-19)
(-0.158729 -0.116614 -2.36077e-18)
(-0.150822 -0.131001 -1.59207e-18)
(0.00282279 -0.0104688 1.75463e-18)
(0.0180571 0.00729209 1.81072e-18)
(0.0177182 0.00549159 7.75935e-19)
(0.015942 0.00687524 5.8338e-19)
(0.000312899 -0.00144098 -3.54476e-22)
(0.000363451 -0.00147393 -1.01945e-19)
(0.000338596 -0.00141794 -3.8364e-20)
(0.000377801 -0.00948563 1.48027e-18)
(0.000423131 -0.0198233 3.3331e-18)
(-0.000805741 -0.00940915 -4.13176e-18)
(-0.00108932 -0.00954891 -4.27375e-18)
(-0.000739412 -0.00965719 5.64399e-18)
(0.00182825 -0.00233745 1.39658e-18)
(0.00181807 -0.00225024 6.13391e-19)
(0.00174068 -0.00230232 1.42262e-20)
(0.0150919 -0.00867661 5.25144e-18)
(0.0144615 -0.0101105 9.78522e-18)
(0.0155409 -0.00918244 -7.28056e-18)
(0.00107938 0.00178843 -1.60209e-19)
(0.000985788 0.00181586 -6.42516e-20)
(0.0010633 0.00192943 -5.00533e-20)
(0.00721098 0.0382324 1.18525e-18)
(0.0124342 0.0418849 1.01312e-18)
(0.0044757 -0.00107259 3.91352e-19)
(0.00454461 -0.00123615 6.01606e-19)
(0.00470448 -0.00107615 5.77223e-19)
(0.000613904 7.73956e-06 1.73784e-19)
(0.000840887 2.19024e-05 -2.34234e-19)
(0.000586845 8.24446e-06 2.14338e-20)
(0.000612336 -0.00468617 7.42765e-18)
(0.000575998 -0.00458757 -2.35686e-18)
(0.00543889 -0.0101439 -1.41088e-19)
(0.00500977 -0.0108234 -8.86249e-19)
(0.00464013 -0.0100474 -9.61665e-20)
(-0.000757553 9.26847e-06 1.5641e-19)
(-0.000624878 2.97888e-06 -6.95979e-20)
(-0.00107451 -4.79777e-05 8.61818e-20)
(-0.00174654 0.00689205 3.26486e-19)
(-0.00119159 0.00767846 -1.57746e-19)
(-0.000744675 0.00679297 1.41135e-19)
(-0.000563688 -0.00332294 -4.51127e-18)
(-0.000467109 -0.00333862 -5.04428e-18)
(-0.000532509 -0.00323539 7.88301e-19)
(0.000983892 -0.0159409 5.39712e-18)
(0.000393279 -0.0156996 5.09127e-18)
(0.000166992 -0.0166071 -4.42294e-18)
(0.001414 -0.0152101 1.82154e-17)
(0.00184199 -0.0161087 4.54702e-18)
(0.00563992 0.0384815 -8.4614e-19)
(0.0105335 0.0344324 -1.0452e-18)
(0.00587208 0.0373655 1.98165e-20)
(0.00948089 -0.00366857 -2.10939e-19)
(0.00934476 -0.00434761 9.02278e-19)
(0.0417236 -0.0578624 4.48366e-18)
(0.044531 -0.0545711 -4.31766e-18)
(0.0471792 -0.0558434 6.44306e-18)
(-0.0946305 0.066152 -1.8845e-18)
(-0.0727688 0.0941488 9.98204e-19)
(-0.0874367 0.0568234 3.52843e-19)
(0.00110558 0.00169118 1.2612e-19)
(0.001173 0.00179369 -2.37236e-19)
(0.00171634 -0.00136092 8.44481e-19)
(0.00163527 -0.00137459 -2.16614e-19)
(0.0122752 0.00731287 -7.15794e-18)
(0.0119861 0.00988388 -1.52828e-18)
(0.0100133 0.00846177 -1.04647e-18)
(0.0210322 -0.000596939 -2.53165e-18)
(0.0252605 -0.00106743 1.74329e-17)
(0.0211951 -0.000665773 2.40113e-17)
(0.00229061 -0.000664356 -1.40128e-20)
(0.00222184 -0.000651437 1.16388e-18)
(0.00228075 -0.000617343 4.09653e-19)
(0.0023823 -0.000787909 -9.01493e-19)
(0.00231268 -0.000768663 -1.06264e-18)
(0.00230675 -0.000819609 -7.05798e-19)
(0.0122493 0.00584337 -3.38069e-19)
(0.0138088 0.00640274 -3.89746e-18)
(-0.0283678 -0.0148774 -1.3243e-17)
(0.00169729 -0.00625241 3.82156e-18)
(0.00147277 -0.00616151 3.48891e-18)
(-0.0021461 0.00603891 -1.67857e-19)
(-0.00270808 0.00670386 -1.27116e-19)
(0.000950305 0.0440788 -1.09394e-18)
(0.00250765 0.0397264 -3.28102e-19)
(0.0737529 0.0416416 1.80924e-18)
(0.0775426 0.0543753 2.74054e-18)
(0.0832911 0.0338328 3.75082e-18)
(0.0056734 0.00776473 4.44165e-19)
(0.00640647 0.0063626 -1.38376e-19)
(0.00503386 0.00621358 2.26635e-19)
(-0.000153897 -5.49324e-05 -3.8658e-19)
(-0.000194273 -6.67036e-05 6.42005e-20)
(-0.000175322 -9.60671e-05 7.41886e-20)
(0.00220992 -0.00300105 6.63323e-19)
(0.00231807 -0.00292959 3.54867e-19)
(0.00444477 -0.0266273 -2.41511e-18)
(0.00479815 -0.0276303 -4.19002e-18)
(0.00575712 -0.0270916 6.27776e-19)
(-0.00197628 -0.0063132 -8.9845e-20)
(-0.000901099 -0.00559208 7.79783e-20)
(-0.00208583 -0.00492486 -6.41411e-20)
(0.0183565 0.00950676 -1.46798e-18)
(0.0184093 0.0116889 -6.48044e-19)
(0.016054 0.010885 -1.12373e-18)
(0.00321535 0.0351843 2.23282e-18)
(0.00279052 0.0423185 -2.25611e-18)
(0.0198328 0.0251616 1.95819e-18)
(0.020528 -0.00288095 -4.82583e-18)
(0.0200449 -0.00234242 -7.77114e-18)
(0.0208147 -0.00214408 1.3826e-18)
(-0.000646709 -0.0247511 2.12882e-17)
(-0.00114777 -0.0255995 -2.88124e-18)
(0.000535487 -0.0253124 1.33319e-17)
(0.0146545 -0.00810946 -1.99776e-18)
(0.0157588 -0.00748587 2.74e-18)
(0.000365194 -0.00154829 5.52673e-19)
(0.000357482 -0.00160567 -4.62755e-19)
(0.000419157 -0.00158783 3.261e-18)
(-0.00241831 0.00539673 -1.47151e-19)
(-0.00163809 0.00547994 -4.15716e-19)
(0.0114204 -0.00523624 -3.24656e-19)
(0.0105747 -0.00540154 7.85965e-19)
(0.00330066 -0.00286719 -2.15155e-18)
(0.00332145 -0.00302794 -8.70377e-19)
(0.00345096 -0.002865 3.02181e-18)
(0.00234409 0.00146429 1.10813e-19)
(0.00241047 0.00159763 8.14724e-20)
(0.00250438 0.00146878 -6.53603e-19)
(-0.002582 0.00472718 -1.64149e-19)
(-0.00313231 0.00504529 -2.16232e-19)
(0.00313463 -0.00286602 -5.58038e-20)
(0.0032522 -0.00272873 -1.24061e-18)
(0.00189474 -0.00236268 -4.15586e-20)
(0.0018271 -0.00242005 1.26988e-18)
(0.00282442 -0.000106146 -1.27928e-19)
(0.00278919 -4.97022e-05 5.43712e-19)
(0.00274849 -0.00011355 3.35172e-19)
(-0.000890361 7.05149e-05 1.79835e-20)
(-0.000938019 6.93221e-05 5.9407e-20)
(-0.000651084 3.58144e-05 5.5455e-20)
(0.000308162 -0.00150441 -9.32168e-19)
(0.000369908 -0.00148652 -2.09104e-18)
(0.00252464 -0.0164652 -4.07262e-18)
(0.0011751 -0.017498 -5.60626e-18)
(0.00186642 -0.016389 -5.15512e-18)
(0.00103117 -0.00011972 -8.67676e-19)
(0.00104012 -0.000138917 5.56652e-19)
(0.00105392 -0.000118681 7.80495e-19)
(0.0503217 0.0191019 9.07393e-19)
(0.0564705 0.0170306 2.51688e-19)
(0.0535959 0.0239813 4.4847e-20)
(-0.000891895 -0.00908064 -1.51316e-17)
(-0.000497493 -0.00923016 2.33611e-18)
(0.00102509 -6.0881e-05 1.69159e-19)
(0.00104103 -5.36867e-05 9.89302e-19)
(0.00103408 -3.93037e-05 -1.58461e-18)
(0.00562428 -0.00935053 8.36909e-19)
(0.0061764 -0.0100067 -1.63846e-18)
(-0.00119187 4.20854e-05 1.39338e-19)
(-0.00135211 7.55331e-05 -2.15687e-19)
(-0.00160952 0.00010614 -8.01811e-20)
(-0.00161721 9.22245e-05 -1.02228e-19)
(-0.00165406 0.000114691 1.81571e-19)
(-0.000584515 -0.00341877 -7.26685e-18)
(-0.117562 0.0290241 -1.63353e-18)
(-0.110402 0.0674808 -2.20413e-19)
(0.000472156 0.0017266 -1.82135e-19)
(0.00041186 0.00179508 -9.66417e-20)
(0.000400866 0.00171295 1.32461e-20)
(0.00294935 -0.00069296 -5.44202e-19)
(0.00290491 -0.000632455 -6.55446e-19)
(0.00301064 -0.000629867 4.0105e-20)
(0.02043 0.00758713 9.55005e-19)
(-0.0431414 -0.140243 7.73538e-19)
(-0.0143286 -0.119391 1.06816e-18)
(0.0157188 -0.113291 1.10243e-18)
(-8.02911e-05 7.89718e-05 -1.63109e-20)
(-4.24468e-05 7.7468e-05 -2.25897e-21)
(2.05937e-05 4.12648e-05 5.33147e-20)
(0.00101747 -7.39125e-05 -8.22354e-20)
(0.00101474 -6.19352e-05 1.75965e-18)
(0.00641028 -0.0587426 8.92271e-21)
(0.00972145 -0.0510457 -3.50935e-19)
(0.0144131 -0.0560454 -3.66396e-19)
(-0.000787205 -6.40348e-05 1.36439e-19)
(-0.000820507 -6.11242e-05 7.80911e-20)
(-0.000606013 -3.40998e-05 -7.02255e-20)
(-0.000765546 -6.79787e-05 9.25764e-20)
(-0.000867468 -9.13984e-05 -4.78377e-20)
(0.00289087 -9.31709e-05 -8.93518e-19)
(0.00285193 -0.000155594 -2.34091e-19)
(7.35252e-05 0.000147399 1.00029e-20)
(0.00011776 0.000135795 1.53892e-20)
(0.000113516 0.000101965 -1.23569e-20)
(0.00228139 0.0012923 -5.76254e-19)
(0.00219164 0.00137493 -1.18981e-20)
(0.00999805 -0.00209309 1.65803e-18)
(0.0099658 -0.00253898 4.58991e-18)
(0.0104886 -0.00174996 7.11969e-18)
(0.0290567 -0.0490148 -5.61317e-18)
(0.0263549 -0.0495684 -5.91073e-18)
(0.0308948 -0.052777 1.19812e-17)
(0.00423191 0.00883273 -4.68735e-19)
(0.00616284 0.00943289 4.7119e-19)
(-0.00173416 0.00880872 -2.83931e-19)
(-0.000462459 0.00864993 -4.24469e-19)
(-0.179661 -0.141672 1.36057e-18)
(-0.182302 -0.119961 -2.64918e-18)
(0.000199063 -0.000115279 -1.00653e-18)
(0.000184772 -0.000143046 -1.28675e-18)
(0.0139191 -0.0117593 1.02144e-17)
(0.0133692 -0.0113804 2.0903e-18)
(0.017193 0.00376856 7.04401e-20)
(0.0192126 0.0037826 3.64963e-20)
(0.00452033 -0.0256284 1.34429e-17)
(0.00301973 -0.0264131 -9.9842e-19)
(0.00393578 -0.0028587 -2.75228e-18)
(0.00393821 -0.00305491 2.07762e-19)
(0.00376896 -0.00288274 5.265e-19)
(0.00623075 -0.0147839 -5.33641e-18)
(0.00537826 -0.0153227 9.52733e-18)
(-0.001718 -1.87673e-05 -2.35538e-20)
(-0.00178644 -3.46714e-05 8.99691e-20)
(-0.00175309 -1.76835e-05 2.60357e-21)
(-0.000117626 -0.0256392 2.44601e-18)
(-0.00111151 -0.0253943 1.13125e-17)
(-0.000356804 -0.0246713 1.11959e-17)
(7.76965e-05 -0.00119722 3.17477e-18)
(0.000117804 -0.00124446 3.65108e-18)
(0.000119929 -0.00117854 7.11788e-19)
(-0.00100333 0.000107909 -1.28187e-19)
(-0.000821098 6.58941e-05 4.59923e-20)
(-0.0017667 0.00405917 3.52953e-19)
(-0.00148303 0.00375149 -3.52639e-19)
(-0.001907 0.00368164 2.3366e-20)
(0.0182792 0.0141314 1.07111e-18)
(0.020818 0.0125077 1.45286e-18)
(0.00992158 -0.0077123 3.54443e-18)
(0.0103329 -0.00679631 -3.6462e-19)
(0.00932385 -0.0069242 4.00091e-19)
(0.0261474 -0.0011241 6.15155e-18)
(0.0259307 -0.0013995 9.45874e-18)
(0.025913 -0.00121096 1.51631e-19)
(0.0032587 -0.0166644 2.05565e-18)
(0.00392913 -0.0157665 3.52571e-18)
(0.00211889 -0.00297093 5.00926e-19)
(0.00202053 -0.00292944 5.21475e-18)
(0.00210955 -0.00286285 1.7436e-18)
(0.0122691 -0.00491853 -6.31949e-19)
(0.0120242 -0.00595228 3.8181e-19)
(0.00136772 0.000924536 -3.25306e-20)
(0.00133232 0.000948329 -1.65404e-20)
(0.00132417 0.000902536 4.05183e-21)
(0.00939533 -0.00845954 3.16641e-18)
(0.0105701 -0.00818879 2.73037e-19)
(-0.000481576 -0.00538766 -3.22732e-19)
(-0.000407888 -0.00546961 9.7155e-19)
(-0.000525111 -0.00547091 6.48099e-18)
(-0.0497473 0.00862308 -5.24317e-19)
(-0.0437989 0.00933887 -8.69199e-19)
(-0.0484184 0.0152223 -1.77557e-18)
(0.0168097 -0.00150103 -1.97757e-17)
(0.0178797 -0.00123281 -1.67107e-18)
(0.017611 -0.00171275 -6.75224e-18)
(0.00413586 -0.00285569 -4.77112e-19)
(0.00396373 -0.00267647 1.77385e-19)
(-0.00095764 -0.010994 -2.34781e-19)
(-0.000623634 -0.011335 -1.60239e-17)
(-0.00120263 -0.0114075 -8.29154e-18)
(-0.18513 -0.157085 2.15463e-18)
(-0.172111 -0.160147 9.11204e-19)
(0.066333 0.10118 -4.00465e-18)
(0.0647468 0.0871157 -2.84088e-18)
(0.0553641 0.101201 1.54031e-19)
(0.0263362 -0.000214564 -1.40266e-18)
(0.0261428 -0.000255908 6.64951e-18)
(0.0261553 -0.000170292 -1.96522e-18)
(0.0148059 -0.000898803 -2.78831e-20)
(0.0139451 -0.00174699 -1.16239e-19)
(0.0136456 -0.000475603 1.76391e-19)
(0.000604942 1.02362e-05 1.08352e-19)
(0.0753391 0.0711797 6.59704e-20)
(0.0683555 0.0671336 2.18833e-19)
(0.078244 0.0573451 -2.75212e-19)
(-0.00208999 0.00439583 1.95531e-19)
(-0.00263221 0.00419458 -8.39439e-20)
(0.0102266 -0.00131124 -5.52867e-18)
(0.0100485 -0.00232208 -8.29823e-18)
(0.00160816 0.000219219 -7.04871e-20)
(0.00158186 0.000220359 -2.94932e-19)
(0.00161126 0.000238568 1.79815e-20)
(0.000463812 -0.00140753 7.55601e-19)
(0.000461946 -0.00146514 -3.20266e-18)
(0.000518382 -0.00145003 -5.2761e-19)
(-0.000628611 0.0217797 -4.85086e-19)
(-0.00451247 0.0216742 8.99176e-19)
(-0.0027544 0.0185331 8.30336e-19)
(-0.00145147 -0.0242167 -1.73164e-18)
(9.2292e-05 -0.0238868 4.68821e-18)
(0.0607665 0.106658 -2.06445e-19)
(0.0431959 -0.0534139 -5.8617e-18)
(0.0432978 -0.0534933 4.18948e-18)
(0.0390015 -0.0560352 4.18643e-18)
(0.00230781 -0.000718315 -1.15346e-18)
(0.00237256 -0.000683216 -1.30058e-18)
(0.00575202 -0.00876126 -1.30385e-19)
(0.00584173 -0.00818042 -5.15403e-19)
(0.00635381 -0.00855231 -3.64664e-19)
(-0.000599329 -6.02133e-05 -9.67738e-20)
(-0.00065932 -6.97768e-05 -1.4737e-19)
(-0.000697902 -0.000110796 -3.94599e-20)
(0.000467901 -0.00135446 -1.98547e-19)
(0.000416894 -0.00136415 -2.41025e-18)
(-0.0911386 -0.158029 2.92797e-18)
(-0.0675227 -0.155436 -3.35857e-18)
(0.00198834 0.000622383 1.76499e-19)
(0.0020029 0.000649861 6.30298e-20)
(0.00197897 0.00061427 -5.31282e-20)
(2.73343e-05 0.000160731 1.74332e-20)
(4.86421e-05 0.000194314 -3.09435e-21)
(0.0182203 -0.000438362 -5.43e-19)
(0.0182801 -6.32259e-05 9.65738e-19)
(0.0191097 -0.000296692 -3.53647e-18)
(-0.00143448 -2.72923e-05 9.67886e-20)
(-0.00142095 -2.89362e-05 8.89615e-20)
(-0.00106495 -1.03051e-05 1.82548e-20)
(-0.00166734 -1.9578e-05 -7.02619e-20)
(-0.00157315 -5.69422e-06 -3.8483e-20)
(0.00130645 -0.000100284 1.23173e-18)
(0.00133238 -0.000113503 4.22249e-19)
(0.00132847 -7.74469e-05 -1.5946e-18)
(0.0256144 -0.0342224 4.04345e-18)
(0.0226105 -0.0346082 -1.84491e-18)
(0.0271923 -0.0362518 4.72443e-19)
(0.00539931 0.000616066 1.65666e-19)
(0.0053813 0.000317579 1.58878e-19)
(0.00508747 0.000499391 -8.89778e-20)
(0.069222 0.0968927 2.97945e-19)
(0.0617408 -0.0316513 -4.71288e-18)
(0.059864 -0.0362857 -1.0571e-18)
(0.0570998 -0.0319606 -3.30103e-19)
(0.0204946 -0.0787779 -4.41516e-19)
(0.0129032 -0.0715843 -2.05217e-19)
(0.0237729 -0.0695654 9.25389e-19)
(0.0208315 -0.000219281 -7.1807e-18)
(0.0701197 -0.0479737 4.17503e-18)
(0.0699658 -0.0421562 -1.70411e-18)
(0.0740332 -0.042724 -5.55122e-18)
(1.60909e-05 -0.000396622 3.35022e-20)
(2.61064e-05 -0.000438877 -1.06348e-21)
(6.01349e-05 -0.00039931 -4.87029e-21)
(0.0155707 0.000238678 2.62846e-19)
(0.0159228 -0.00137998 -3.34923e-20)
(0.00210534 0.000593959 -1.83922e-20)
(0.00212606 0.000622872 -9.90078e-20)
(0.00216931 0.000620041 1.71271e-19)
(0.0163132 -0.00537892 6.97159e-18)
(0.016301 -0.00487985 -2.28435e-18)
(0.0175137 -0.00472614 2.99926e-18)
(-0.000744987 -0.00371905 -1.68335e-19)
(0.0613945 0.0476942 -6.41287e-18)
(0.0664026 0.0452053 -1.26452e-18)
(0.059936 0.062881 -2.21739e-18)
(-0.00225171 4.10924e-05 -1.83879e-18)
(-0.00153373 -0.000370552 -1.06915e-18)
(-0.00157373 0.000793337 -3.11117e-18)
(-0.00108688 -5.54785e-05 -5.70394e-20)
(-0.0012436 -8.0122e-05 -6.2374e-20)
(-0.00108654 -5.15817e-05 1.87813e-19)
(0.000981929 -0.00251509 1.72922e-18)
(0.000969991 -0.00242388 -1.76479e-18)
(0.011957 0.0118517 1.53188e-18)
(0.0132033 0.0148199 -1.83326e-18)
(0.00949598 0.0132811 -1.39988e-18)
(-0.000550187 -0.00528485 -1.5639e-19)
(-0.000436083 -0.00528876 -6.25695e-18)
(0.00571859 0.000746513 6.94216e-20)
(0.00537861 0.000913928 9.72817e-21)
(-0.000393085 -0.00334535 -3.2595e-19)
(-0.00036103 -0.00326255 7.54537e-18)
(-0.000292391 -0.00335919 3.43623e-18)
(0.00205237 0.000572615 -2.05821e-19)
(0.0017411 -0.00131114 -4.66101e-19)
(0.00179452 -0.00135185 -7.18309e-19)
(0.0245663 0.000936206 -7.17778e-18)
(0.0274688 -7.35914e-05 2.4268e-18)
(0.0207237 -0.00242981 1.39162e-17)
(0.000607445 -0.0258518 -5.1251e-18)
(-0.00097762 -0.0264419 -8.07918e-18)
(-0.0518958 0.00185988 2.0052e-18)
(-0.0591654 0.00751702 -1.54283e-18)
(0.00169261 -0.00126392 -2.80426e-18)
(0.00177078 -0.00125599 -4.48343e-19)
(0.0204134 0.0022873 9.87964e-19)
(0.0271787 0.00397305 -2.93413e-18)
(0.000285266 -0.00145278 -1.6288e-20)
(0.000261359 -0.00140161 -1.48401e-20)
(0.0436894 0.0192783 7.06325e-19)
(0.0470938 0.0137575 9.51176e-19)
(-0.00326083 -0.000633606 -1.68345e-18)
(-0.00338806 0.000707041 1.35657e-18)
(0.00172693 -0.0145434 -9.95307e-20)
(0.000955139 -0.0144016 6.7025e-18)
(0.0240556 -0.00356929 1.57896e-18)
(0.0207685 -0.00459797 4.91499e-18)
(0.0207807 -0.00245947 7.05057e-18)
(1.03718e-05 -0.0111504 3.86063e-18)
(0.0016266 -0.014779 4.31087e-18)
(-0.00357324 -0.0140504 -7.19153e-18)
(0.000535736 0.00175395 4.34674e-20)
(0.00051285 0.00167446 4.61531e-20)
(0.0254935 -0.00137438 1.4008e-17)
(0.0255221 -0.00162421 -6.40795e-18)
(0.025758 -0.00133953 -1.30579e-17)
(0.0024092 -0.00458422 -2.51125e-18)
(0.00251832 -0.00467975 -6.63685e-19)
(0.00253684 -0.00452149 -1.12931e-18)
(0.0156789 -0.00183241 -4.62981e-18)
(0.0159681 -0.00128895 -6.90917e-18)
(0.000882471 0.00185314 -3.5647e-19)
(0.000893787 0.00173526 -1.3557e-20)
(0.0019718 0.000594922 -1.23762e-19)
(0.00199729 0.000623113 4.91383e-20)
(0.00833132 -0.00353597 1.38878e-19)
(0.00815305 -0.00408179 1.24182e-19)
(0.00783579 -0.00361685 -1.38267e-19)
(0.0183058 -0.00254223 3.36827e-18)
(0.0192892 -0.00248455 -1.8955e-18)
(0.0187248 -0.00325531 -1.59516e-18)
(0.0263577 -0.000204847 -6.9375e-18)
(0.0257957 -0.000171256 -5.66427e-18)
(0.00400958 -0.000578766 -4.94174e-20)
(0.00416646 -0.00054906 3.79826e-19)
(0.00406249 -0.000445436 -1.86886e-19)
(-0.163222 -0.07863 -5.1079e-20)
(-0.150525 -0.0765472 -2.76658e-18)
(-0.162573 -0.06075 1.03315e-18)
(0.00988212 0.00474966 1.21942e-19)
(0.00902733 0.00524711 7.63452e-20)
(0.00906643 0.0040997 -7.25686e-20)
(0.00511284 -0.00884859 9.46327e-20)
(-0.00155912 0.00452109 2.11541e-19)
(0.0135284 0.0103827 3.78521e-20)
(0.00274284 5.82785e-06 1.35938e-19)
(0.00281409 1.3838e-05 1.40278e-19)
(0.000992867 0.00075126 -7.65847e-21)
(0.000961806 0.000722866 9.8228e-20)
(0.000955272 0.00075929 -4.17574e-20)
(-0.001812 0.00356227 -1.58295e-19)
(-0.00144937 0.00272246 4.75574e-19)
(-0.000740973 0.00353125 -1.09269e-19)
(-0.00310473 0.00371791 -1.25509e-19)
(-0.00207806 0.00494502 -3.12521e-19)
(0.0459167 -0.0521693 1.73487e-18)
(-0.000800411 -0.0106877 1.95737e-18)
(-0.0012414 -0.0107198 1.33367e-17)
(0.0140906 -0.00297645 -1.15001e-19)
(0.0151696 -0.0354369 5.69901e-20)
(0.0166962 -0.0364732 3.13942e-18)
(0.0141785 -0.034713 -8.1974e-18)
(0.00105239 3.69956e-05 4.10438e-19)
(0.00101161 3.69981e-05 6.99436e-19)
(0.00107135 2.94394e-05 5.18779e-20)
(-0.00226847 0.000624025 -1.61551e-19)
(-0.00228169 0.000656535 -8.29769e-20)
(-0.00221778 0.000630457 3.63854e-20)
(-0.0023121 0.000618399 4.11776e-20)
(-0.00225871 0.000588643 -4.80219e-19)
(0.0654671 -0.0514705 7.18904e-18)
(0.0294962 -0.00121406 1.01626e-17)
(0.0271724 -0.00263069 -2.47052e-18)
(0.0274773 2.20959e-05 2.09452e-18)
(0.0148817 0.00347751 6.43057e-18)
(0.0116171 0.00405212 1.50632e-18)
(0.0183353 0.00787414 -2.98505e-19)
(0.000500434 -0.000294926 3.81168e-20)
(0.000510198 -0.000329722 2.36709e-18)
(0.000467588 -0.000310199 8.7809e-19)
(-0.000115208 -4.84724e-05 -1.62293e-20)
(-9.04255e-05 -2.79171e-05 4.2477e-20)
(-0.19145 -0.148053 -2.49621e-19)
(-0.187862 -0.172272 1.13324e-18)
(0.0252175 -0.00143092 5.0647e-18)
(-0.0020759 0.000567767 -1.77933e-19)
(-0.00212467 0.000573938 1.5915e-19)
(-0.00208684 0.000602576 -2.15824e-19)
(-0.00201902 0.000554188 1.17187e-19)
(-0.00206174 0.000534092 -9.64906e-20)
(-0.00104282 1.41956e-05 2.72452e-20)
(-0.000555926 7.29088e-06 -1.38151e-20)
(-0.002356 0.000617207 1.93613e-19)
(-0.00237225 0.000640873 3.57791e-19)
(-0.00239787 0.000616709 7.09292e-20)
(-0.00235166 0.000589024 -1.018e-19)
(0.0146886 -0.00686192 6.33448e-19)
(0.0139175 -0.00816044 -6.71325e-18)
(0.0474893 -0.0512569 5.60675e-18)
(0.0491207 -0.0516631 -5.81391e-18)
(0.0476026 -0.0499894 -6.25887e-18)
(0.00244999 0.000311298 -2.09093e-19)
(0.00239229 0.00030848 1.49271e-20)
(0.0024302 0.000260487 -1.40151e-20)
(7.67888e-05 -0.000690828 -9.25654e-21)
(7.30143e-05 -0.000735898 -4.15216e-21)
(3.13191e-05 -0.000710506 -1.86075e-20)
(0.00537018 -0.0010638 1.07589e-18)
(0.00458932 -0.000405714 -6.72893e-18)
(0.0045781 -0.00135355 -1.84697e-18)
(0.0198188 -0.00476439 7.89261e-18)
(0.0195636 -0.00433482 2.73254e-18)
(0.0190324 -0.00521539 -3.91152e-18)
(-0.00158497 9.65599e-06 1.49842e-19)
(-0.00138431 1.20036e-06 1.28657e-19)
(-0.0013901 5.96068e-07 8.00502e-20)
(0.000533312 -0.000284839 9.02119e-19)
(0.000501638 -0.00026617 -7.73711e-19)
(-0.162244 -0.0987656 1.7397e-18)
(-0.175335 -0.0862907 1.15955e-19)
(0.0104845 -0.000675882 1.12693e-17)
(0.0107889 -7.58505e-05 -7.70568e-18)
(0.0106633 -0.000849725 -4.61922e-18)
(0.028192 -0.00309224 -8.36468e-19)
(0.0136732 -0.0342711 -7.82827e-18)
(0.0155211 -0.0360737 4.21561e-19)
(-0.00313378 0.00809856 2.56799e-18)
(-0.00523273 0.00766017 1.48299e-18)
(-0.00449064 0.00969039 1.99087e-18)
(0.00160657 0.00020059 1.15626e-19)
(0.00163763 0.000219959 -3.15827e-19)
(0.0653275 -0.041535 -7.65628e-18)
(0.0690337 -0.0366554 4.61911e-19)
(0.00603887 -0.00152983 -3.73019e-18)
(0.00616319 -0.000610064 -3.22183e-19)
(0.0168597 0.00256685 -4.9798e-20)
(0.0157409 0.00383621 -1.93246e-19)
(0.00363892 -0.00989768 8.46568e-18)
(0.00409664 -0.0101416 -6.15096e-18)
(0.00360098 -0.0104728 -4.6606e-18)
(0.00386503 -0.000590571 3.29528e-19)
(0.00394876 -0.000696688 -4.61456e-19)
(0.0467787 -0.0509323 1.4027e-17)
(0.00015038 -0.00128861 3.67207e-19)
(0.000183612 -0.00127052 -1.11242e-18)
(0.000183578 -0.00133367 1.81891e-18)
(0.000183454 -0.00752435 1.2185e-18)
(-0.000122391 -0.00773276 -1.19721e-18)
(-0.000141766 -0.00734691 1.22852e-18)
(-0.00126727 -0.00100731 1.54767e-18)
(-0.000723321 -0.00181756 -2.5633e-19)
(-0.00175475 -0.00183893 1.77435e-18)
(0.00248907 0.000417891 4.13369e-20)
(0.00246837 0.000359987 -5.17573e-20)
(0.00243371 0.00041461 2.74413e-19)
(-0.000625472 -1.2635e-05 -1.75997e-19)
(0.00213346 -0.00307326 -2.68954e-18)
(0.00109261 0.000396829 -1.6308e-19)
(0.00134807 0.000447649 -3.2894e-19)
(0.00127993 0.000118008 1.46183e-19)
(0.000112377 0.0020285 1.53511e-20)
(0.000170957 0.00211022 6.34388e-19)
(4.91283e-05 0.00213404 1.21077e-19)
(0.0252701 -0.0018948 -2.69939e-18)
(0.0254473 -0.00177521 -5.986e-18)
(0.0256774 -0.00162047 -3.81686e-18)
(0.0559336 0.152941 1.88966e-18)
(0.0635831 0.130854 2.51605e-18)
(0.0446132 0.141286 -6.01504e-19)
(-0.000173172 0.00311984 2.92871e-19)
(-0.000190617 0.0028624 2.50892e-19)
(-0.000441471 0.00301505 -1.82715e-19)
(-0.00197629 0.000568581 3.67933e-19)
(-0.00197058 0.000525834 1.12308e-19)
(0.00202772 0.000694338 6.03777e-21)
(0.00200567 0.000683394 4.66535e-20)
(-0.00198167 0.000610949 3.67397e-19)
(-0.00193422 0.000580398 4.02282e-19)
(0.000109677 -0.00130518 1.13005e-18)
(0.000559961 -5.25625e-05 4.23669e-19)
(0.000440451 -2.58646e-05 -1.15847e-18)
(0.00113242 -0.00546216 2.41619e-18)
(0.00119759 -0.00538205 -2.44969e-19)
(0.00109948 -0.00537307 3.30887e-18)
(-0.000161582 0.0034429 -2.2243e-19)
(0.000121503 0.00320244 1.56514e-19)
(0.0253959 -0.000146237 -1.50769e-17)
(0.0251444 -3.1627e-05 5.914e-18)
(0.0320418 -0.0483464 -1.19861e-18)
(0.0279857 -0.0461897 8.21122e-19)
(0.00162558 -0.000884091 -1.74626e-18)
(0.00156395 -0.000886182 -3.6172e-18)
(0.00159111 -0.000843285 2.31317e-19)
(0.001711 0.000766882 3.98496e-20)
(0.00155961 0.000851254 8.66566e-19)
(0.00170209 0.000962902 8.84289e-20)
(-0.00313198 0.048904 -3.62236e-19)
(-0.00738381 0.0501702 2.13655e-20)
(-0.00536029 0.0540842 -2.09314e-20)
(-0.00280287 6.99162e-05 -1.53619e-19)
(-0.00288537 1.0722e-05 -1.60703e-19)
(-0.00276771 -2.46677e-05 -1.8147e-19)
(0.0138106 -0.0424193 -1.51182e-19)
(0.0106994 -0.0465624 2.85966e-19)
(0.00936068 -0.0403519 1.45487e-19)
(0.0247865 -0.0022003 -4.45462e-18)
(0.0250154 -0.00196935 7.05116e-18)
(-0.00272967 0.000116283 -4.44783e-21)
(-0.0028301 0.00016178 1.23868e-19)
(0.0200655 -0.00358622 2.84599e-18)
(0.0207915 -0.00328871 3.29666e-18)
(7.02654e-05 0.00193822 -2.11858e-19)
(0.000148766 0.00194549 -1.24955e-20)
(0.0230918 -0.0317707 2.66395e-18)
(0.0277026 -0.0332377 -1.66907e-18)
(-0.00105652 -5.55309e-05 -7.26545e-21)
(-0.000809085 -2.66488e-05 -2.20166e-21)
(0.00297974 0.000268715 -2.01561e-19)
(0.00303219 0.000188587 -2.72056e-20)
(0.00306517 0.00028416 -2.88711e-19)
(0.00252267 0.000457787 -3.01943e-20)
(0.00255222 0.000404382 6.60384e-20)
(0.00156471 0.000267882 2.60448e-19)
(0.00153589 0.000266196 1.17905e-19)
(0.00152845 0.000252401 5.18388e-19)
(0.0171472 -0.0175885 -1.77222e-18)
(0.0151806 -0.0167239 -9.42414e-18)
(0.0159301 -0.0187339 -2.73636e-18)
(0.000744276 4.70464e-05 1.26909e-19)
(0.000762231 4.10363e-05 1.09152e-19)
(0.000666102 2.22781e-05 9.33966e-20)
(0.0259457 -0.0900818 -3.6003e-19)
(0.00725732 -0.093612 1.55281e-19)
(0.00305654 -0.00558053 6.79663e-19)
(0.0031902 -0.00576305 -5.1049e-19)
(0.00325906 -0.00551551 2.4691e-18)
(0.00274702 0.0211771 -8.02789e-19)
(0.00279069 0.0245266 -6.1078e-19)
(-0.125796 -0.0534349 1.01536e-19)
(-0.128675 -0.0698768 3.05048e-18)
(-0.097652 -0.0612056 -4.43398e-19)
(0.0256766 -0.000220125 1.09405e-17)
(-0.00170974 1.60767e-05 2.90662e-20)
(-0.00170789 5.31269e-06 6.79899e-20)
(0.00246195 -0.00533404 7.66319e-19)
(0.00270278 -0.00537206 3.50497e-18)
(0.00249486 -0.00555929 3.61912e-18)
(0.000896605 0.00115966 6.55507e-19)
(0.000915197 0.000742532 4.26193e-19)
(0.00117176 0.0010761 2.02595e-19)
(0.00431432 -0.00283377 -1.42613e-18)
(0.00452105 -0.00279594 2.27657e-19)
(0.00432579 -0.00262477 -2.98925e-18)
(0.000894016 0.00172145 -7.04307e-19)
(0.00128511 0.00183981 -6.9826e-19)
(0.00300481 -0.00285593 3.29717e-19)
(0.00303606 -0.00299888 1.4207e-18)
(0.000358644 0.00184623 -1.47789e-19)
(0.00029339 0.00189367 -6.0643e-20)
(0.000296769 0.00181579 1.13784e-19)
(0.000746468 6.9005e-05 1.92217e-19)
(0.000714167 4.73414e-05 -1.5397e-19)
(0.00449974 0.0163689 4.69101e-19)
(0.00763279 0.0183717 4.80258e-19)
(0.00714225 0.0147381 -7.11083e-19)
(-0.000172769 0.00582902 9.87833e-20)
(-0.00217726 0.00655917 8.70651e-20)
(-0.00120863 0.00460675 2.41056e-19)
(0.000527467 -0.00727221 2.12967e-19)
(0.000479106 -0.00768156 5.7067e-19)
(0.00286955 -0.00285422 -9.88871e-19)
(0.00296891 -0.00274541 5.29735e-19)
(0.00055882 -0.000273068 7.17478e-19)
(0.000556503 -0.000241772 -1.05302e-18)
(0.000586015 -0.000258188 -1.53176e-18)
(0.0180947 -0.000802604 1.47847e-17)
(0.0172489 -0.000596837 1.08107e-17)
(0.017263 -0.00229777 6.33274e-18)
(0.017307 -0.0015294 1.10052e-18)
(0.00121506 0.000997273 1.17106e-20)
(0.0011741 0.00101045 3.17597e-21)
(0.00117077 0.000968055 4.51362e-20)
(-0.00975031 0.00365126 -5.18322e-19)
(-0.0131986 0.00301977 1.78556e-19)
(-0.0102212 0.000580033 -7.43834e-19)
(0.00429414 -0.00303415 8.16013e-20)
(-0.0445403 0.00442984 -7.56362e-19)
(-0.0431037 -0.00986783 -6.04149e-20)
(-0.0337445 -0.000115761 -9.44022e-19)
(-0.00712722 -0.0134822 2.98248e-18)
(-0.0070955 -0.0139557 1.00848e-17)
(-0.007581 -0.0129906 1.67978e-18)
(0.0207839 -0.0433721 5.27335e-18)
(0.0185723 -0.0438829 4.02438e-18)
(0.0225928 -0.046759 -1.23742e-17)
(0.0633542 0.0334688 -1.40333e-18)
(0.0547139 0.04801 -5.71038e-19)
(0.00128875 -0.00597901 1.44196e-19)
(2.10076e-05 -0.00584468 5.84101e-20)
(0.000803504 -0.00696735 9.58618e-20)
(-0.0368568 0.0100596 7.95368e-20)
(-0.0385632 0.00440197 1.67802e-19)
(0.00179973 0.000730846 2.86605e-20)
(0.00174063 0.00060669 -1.19164e-19)
(0.000164747 -0.018502 1.26577e-17)
(0.000546264 -0.0185919 5.30443e-18)
(-0.0545107 0.0124265 2.61405e-18)
(-0.0426489 0.0177835 4.05436e-19)
(-0.00145269 -0.0236791 -3.15814e-18)
(-0.00125406 -0.0242746 1.27772e-17)
(0.000461114 -4.29591e-05 -1.8247e-19)
(0.000337343 -2.03283e-05 -6.0009e-19)
(0.0028382 0.000267136 -1.06994e-20)
(0.00276561 7.45316e-05 1.10596e-20)
(-0.140904 -0.107304 -3.07543e-19)