/*--------------------------------*- C++ -*----------------------------------*\
| =========                 |                                                 |
| \\      /  F ield         | OpenFOAM: The Open Source CFD Toolbox           |
|  \\    /   O peration     | Version:  v2012                                 |
|   \\  /    A nd           | Website:  www.openfoam.com                      |
|    \\/     M anipulation  |                                                 |
\*---------------------------------------------------------------------------*/
FoamFile
{
    version     2.0;
    format      ascii;
    class       surfaceVectorField;
    location    "100";
    object      Uf;
}
// * * * * * * * * * * * * * * * * * * * * * * * * * * * * * * * * * * * * * //

dimensions      [0 1 -1 0 0 0 0];


internalField   nonuniform List<vector> 
20642
(
(0.239939 -0.0127487 6.00032e-21)
(0.248423 -0.0121039 -4.36109e-20)
(0.259731 -0.00843915 -2.53998e-20)
(1.00217 0.0566115 -8.68955e-23)
(1.00093 0.0575107 7.95316e-22)
(1.00267 0.0586292 9.16025e-22)
(1.13168 0.096126 0)
(1.13676 0.0984617 0)
(1.09337 0.0959987 1.28143e-20)
(1.05571 0.0238896 0)
(1.05571 0.0250775 0)
(1.05448 0.0241786 -2.15697e-21)
(0.992483 0.0305781 -2.03392e-22)
(0.991719 0.0309954 7.42737e-24)
(0.992565 0.0315284 -7.4783e-22)
(1.00371 0.055606 0)
(1.00226 0.0543847 0)
(1.08904 0.0430436 -6.38979e-21)
(1.08727 0.0424538 -5.74436e-21)
(1.08787 0.0441928 -4.98621e-21)
(0.97508 0.0844785 -2.88873e-21)
(0.968147 0.0832503 2.66466e-22)
(0.971934 0.0909651 -2.37696e-21)
(1.09994 0.0195564 -2.41273e-21)
(1.0992 0.0207653 -8.39848e-21)
(1.10102 0.0208463 4.6594e-21)
(0.0211409 -0.123376 -9.14249e-21)
(0.0475277 -0.1309 0)
(0.980917 0.0867878 2.35905e-21)
(0.978458 0.0800935 -1.09208e-21)
(1.03665 0.0241008 -1.9548e-21)
(1.03724 0.0250576 -4.63439e-21)
(1.03776 0.0241307 -5.82749e-21)
(1.01552 0.000367646 -6.05619e-22)
(1.01585 0.000262054 -1.31536e-23)
(0.89141 0.178773 -6.08103e-21)
(0.884989 0.195542 -6.73012e-21)
(0.90776 0.193781 -3.64696e-21)
(1.00803 0.0466113 4.67485e-22)
(1.00774 0.0473216 9.6822e-22)
(1.00861 0.0474115 -2.04298e-22)
(0.229165 -0.014603 7.05025e-20)
(0.213471 -0.0187845 3.86847e-20)
(0.993027 -0.000660188 0)
(0.992728 -0.000670023 0)
(0.993618 -0.000344577 7.34534e-26)
(0.986281 0.088823 6.1217e-22)
(0.991881 0.0897793 -1.71589e-21)
(0.989198 0.0841533 9.18192e-22)
(1.15418 0.104945 -1.21805e-20)
(1.15763 0.105984 8.89655e-21)
(1.15479 0.108102 -1.25273e-20)
(0.252094 -0.0190611 -6.39645e-21)
(0.288546 -0.00900276 -2.72949e-20)
(0.280937 -0.00956686 -1.9604e-20)
(1.0397 0.075588 -6.52685e-22)
(1.04046 0.0776714 3.3906e-23)
(1.03839 0.0769537 5.72937e-22)
(1.00237 0.0243843 4.02052e-23)
(1.00295 0.0243304 -1.84727e-22)
(1.00274 0.0251713 -5.63306e-24)
(1.11461 0.0715018 -1.09978e-20)
(1.11575 0.0699538 6.86221e-21)
(1.11658 0.0726596 -1.15191e-21)
(1.00171 0.0242908 -5.04057e-23)
(1.00204 0.023542 2.40174e-24)
(1.0539 0.0398996 4.26469e-21)
(1.05504 0.040594 1.12409e-21)
(1.05372 0.040807 -1.16264e-21)
(1.03339 0.0811914 2.10545e-22)
(1.03505 0.079724 -8.31636e-22)
(1.03258 0.0787837 -5.80156e-23)
(0.935932 0.00570977 0)
(0.978937 0.0195001 5.48581e-22)
(1.00671 0.0338624 0)
(0.0230926 -0.0995011 1.53501e-21)
(1.01263 0.0894671 -4.17214e-22)
(1.01634 0.0888435 2.22664e-22)
(1.01336 0.085678 -1.74636e-21)
(1.03883 -0.000478409 2.85585e-24)
(1.03914 -3.06667e-05 -4.09331e-22)
(1.03818 -0.000175976 -7.69665e-24)
(0.0196618 -0.077963 8.67373e-21)
(0.0416205 -0.094434 9.6713e-21)
(1.14805 0.0686933 -2.03391e-20)
(1.14991 0.0682971 -1.68201e-20)
(1.14885 0.0701535 1.18029e-20)
(1.0487 0.0310225 -5.5026e-22)
(1.04751 0.0303335 9.22352e-22)
(1.04862 0.0299088 8.5268e-22)
(0.288883 0.00280498 0)
(0.306646 0.00697155 0)
(0.302858 0.00651208 -1.26608e-20)
(0.983468 0.00882053 -1.01639e-22)
(0.983334 0.00818425 3.11245e-22)
(0.982812 0.00856331 -2.95973e-22)
(0.963293 0.0775269 -4.57836e-22)
(0.959842 0.084762 3.01241e-21)
(1.03075 0.0487102 -2.19944e-22)
(1.03193 0.0493456 2.15892e-22)
(1.03085 0.0501839 1.10726e-21)
(0.995419 0.000271524 1.31846e-22)
(0.994956 0.000480735 -8.89358e-22)
(0.995789 0.000218432 1.20535e-22)
(1.09087 0.0436356 -1.47318e-20)
(1.09004 0.0418976 1.32924e-20)
(1.06046 0.0794468 -1.61947e-21)
(1.06178 0.0806642 0)
(1.062 0.0789168 -1.18174e-21)
(1.00305 -0.000391336 0)
(1.00257 -0.000242034 0)
(1.00557 -0.000493118 1.2762e-22)
(0.975692 -0.015455 -2.89885e-22)
(0.973621 -0.0149939 2.58227e-22)
(0.97499 -0.0134785 -2.86588e-22)
(1.09042 0.0154766 1.35411e-21)
(1.08901 0.0167226 -4.21691e-22)
(1.08855 0.0147651 1.34824e-21)
(1.16198 0.0917218 0)
(1.16257 0.0897169 1.4257e-20)
(1.16481 0.0920108 3.25044e-20)
(1.15932 0.0914593 3.40484e-20)
(1.16069 0.094209 -1.35105e-20)
(1.04127 0.148726 1.99089e-22)
(1.05695 0.149945 1.1466e-21)
(1.03329 0.154475 -6.76836e-22)
(1.03916 0.0732512 -1.74295e-21)
(1.04132 0.0739381 -2.69765e-21)
(0.215085 0.107091 -2.90791e-20)
(0.247044 0.102484 -2.59443e-20)
(0.240066 0.10986 -1.01055e-20)
(0.898308 -0.0671822 1.68591e-20)
(0.87646 -0.05256 -1.37128e-20)
(0.922527 -0.0456301 1.16534e-20)
(0.983823 0.00909549 1.75699e-22)
(0.983394 0.00941991 -1.18402e-22)
(1.03564 0.0241975 2.62121e-21)
(1.03604 0.0233102 7.64225e-21)
(1.09281 0.129134 5.34864e-21)
(1.08828 0.131545 0)
(1.08878 0.126384 2.81944e-21)
(0.105286 -0.0143905 -7.10015e-22)
(0.141609 -0.0133487 1.58877e-20)
(0.102238 -0.0151263 -7.27048e-22)
(1.02197 0.0277768 -3.23109e-22)
(1.02159 0.0268719 -1.79985e-21)
(1.02098 0.0275029 1.69361e-21)
(1.02449 0.029274 -2.72612e-21)
(1.02399 0.0283864 -1.17226e-21)
(1.02502 0.028437 -1.29845e-21)
(1.09538 0.127425 -7.40638e-21)
(1.09624 0.132283 1.01941e-20)
(0.0922163 -0.0380676 -1.1059e-20)
(1.11318 0.0727902 7.15796e-21)
(1.11278 0.0701943 -6.57912e-21)
(0.977528 -0.0157159 0)
(0.976755 -0.0176175 2.74177e-22)
(1.01184 0.148314 -1.51782e-21)
(1.04677 0.140184 1.31398e-21)
(0.234767 0.181301 -1.33138e-20)
(0.194353 0.184242 -6.01158e-21)
(0.190296 0.188934 4.0291e-21)
(0.967377 0.0151145 1.19801e-21)
(0.968576 0.0173387 -2.17976e-21)
(0.969744 0.0149366 4.44982e-22)
(1.01496 -0.000148365 2.79474e-25)
(1.01571 -2.29171e-05 0)
(1.01772 -2.34309e-05 0)
(1.05413 0.0387247 5.7487e-21)
(1.05273 0.0390775 -1.00992e-21)
(0.626644 0.0706963 -1.07486e-20)
(0.628655 0.0732302 4.57076e-22)
(0.597986 0.0689334 1.60899e-20)
(1.06731 -0.000525385 6.29052e-23)
(1.06394 0.000368918 -1.7495e-22)
(1.06425 -0.00126482 3.20879e-22)
(1.00906 0.0899862 5.6339e-22)
(1.00511 0.0904461 0)
(1.00633 0.0863817 0)
(0.96693 0.0708944 1.37181e-21)
(0.959546 0.0704457 -3.48924e-21)
(0.983865 0.0942964 -5.80862e-22)
(0.205617 -0.0101395 -5.03756e-20)
(0.192565 -0.0123091 4.5356e-21)
(0.187644 -0.0125107 -1.59929e-20)
(0.749523 0.0820629 1.31064e-20)
(0.769135 0.0848391 -5.2809e-21)
(0.718639 0.0784113 1.1944e-20)
(0.276421 1.13155e-05 1.39656e-22)
(0.272996 3.84612e-05 -2.00099e-20)
(1.04737 0.00956411 0)
(1.04864 0.00979315 0)
(1.04747 0.0104273 0)
(0.979287 -0.0157128 0)
(0.978344 -0.0140709 0)
(1.04137 0.0798158 7.41737e-23)
(1.04273 0.0782602 -5.14186e-22)
(1.04777 0.0458627 6.18286e-21)
(1.04884 0.0467129 3.73183e-22)
(1.04724 0.0466512 1.90383e-21)
(0.996643 0.0309218 5.3798e-22)
(0.996503 0.0315236 7.6629e-22)
(0.997256 0.0315084 5.32087e-22)
(0.98074 -0.0155062 -2.15931e-22)
(0.98047 -0.0173395 -2.60938e-22)
(1.04836 0.0446934 -1.607e-21)
(1.04655 0.0448916 -9.46372e-22)
(1.04884 0.0316566 -8.64505e-22)
(1.04979 0.0313607 2.20217e-21)
(1.01445 0.034215 6.37272e-23)
(1.01353 0.0336632 -7.74319e-22)
(1.01427 0.0330881 -5.93916e-22)
(0.990285 -0.000535583 2.10263e-22)
(0.990505 -0.000553387 4.63788e-23)
(0.991563 -0.000279389 2.04073e-22)
(1.04728 0.00864361 -6.18998e-21)
(1.04607 0.00923058 0)
(0.690094 0.0635788 -9.11356e-21)
(0.735136 0.0678029 -1.16984e-20)
(0.724486 0.0660534 3.8897e-22)
(1.01286 0.00461912 4.326e-21)
(1.01301 0.00519896 -4.20647e-21)
(1.01231 0.00497387 -2.01682e-21)
(0.995983 0.139946 -1.96334e-21)
(0.998831 0.149724 -2.5091e-21)
(0.988344 0.144385 -1.60042e-21)
(1.14723 0.0666388 1.20805e-20)
(1.14581 0.0687107 2.184e-23)
(1.01232 0.00257024 -9.09981e-22)
(1.01173 0.0025949 1.0508e-21)
(1.01145 0.00188871 -2.21802e-21)
(1.05935 0.0779134 -1.14619e-21)
(1.0588 0.0797865 1.75077e-21)
(0.993327 -0.000625005 3.66787e-23)
(0.993443 -0.000997956 -2.96344e-22)
(0.996021 -0.00182363 1.73991e-22)
(0.996291 -0.00173497 -4.01841e-22)
(0.996695 -0.0021542 9.99683e-23)
(1.09207 0.0165992 0)
(0.931128 -0.073253 1.96895e-21)
(0.876826 -0.0911349 -1.0147e-20)
(0.983595 0.00472808 1.49981e-23)
(0.983188 0.00437205 2.08488e-22)
(0.98358 0.00413401 6.19449e-23)
(1.02374 0.0354702 7.01869e-22)
(1.02273 0.0349293 1.14316e-21)
(1.023 0.0360772 -2.03407e-22)
(1.01228 0.0937435 -1.06525e-21)
(1.1202 0.134355 1.69035e-21)
(1.13805 0.128425 -2.81448e-22)
(1.13922 0.147117 3.31869e-21)
(0.987749 -2.90378e-05 -6.96347e-23)
(0.987758 -1.13528e-06 2.43416e-22)
(0.989255 -2.63929e-05 -1.68014e-22)
(1.01269 0.00305621 1.62768e-23)
(1.01277 0.0024663 -8.74542e-22)
(1.09608 0.102498 -3.66443e-22)
(1.09129 0.104544 -2.0918e-22)
(1.09385 0.109518 -7.56235e-23)
(1.01158 -0.000301242 4.72211e-23)
(1.01133 -0.000373822 -1.06156e-22)
(1.00827 -0.000149999 1.02533e-22)
(1.01204 -0.000320728 -4.1627e-22)
(1.01384 -0.000733111 5.44766e-23)
(1.01468 0.0351375 1.37479e-21)
(1.0153 0.0345434 1.9406e-22)
(0.987994 0.00025071 1.61306e-22)
(0.988025 0.000282351 -2.27528e-23)
(0.987881 0.00020494 2.52257e-23)
(0.996831 0.0301147 -4.10459e-22)
(0.99609 0.0301265 -6.71489e-22)
(0.650307 0.052316 7.69177e-21)
(0.649118 0.0528073 2.70995e-20)
(0.610862 0.0531207 4.58687e-20)
(0.3723 0.0548996 -1.02781e-20)
(0.367042 0.0474974 -4.64675e-21)
(0.353337 0.0508987 4.04712e-20)
(0.966404 0.0124667 -7.62271e-22)
(0.96414 0.0148827 5.72758e-22)
(0.972223 -0.0170519 6.11653e-22)
(0.971527 -0.0143176 5.80605e-22)
(0.897336 -0.00752975 -1.67055e-21)
(0.864649 -0.0252369 -1.72819e-21)
(1.02481 0.000351399 3.20289e-21)
(1.02496 0.000348257 5.76043e-21)
(0.326791 0.0115403 0)
(0.312839 0.00794485 0)
(1.01939 0.088016 1.86764e-21)
(1.01943 0.0918507 2.59645e-22)
(0.618924 0.0687939 -1.09113e-20)
(0.658704 0.0745556 -4.14417e-20)
(1.04519 0.0497488 -1.56537e-21)
(1.04645 0.0505491 -1.04674e-21)
(1.0459 0.0487477 1.95175e-21)
(1.15082 0.103886 -1.00197e-20)
(1.15344 0.102117 2.60432e-21)
(1.00395 -0.00154822 -1.27799e-22)
(1.00477 -0.002022 1.24073e-22)
(1.0037 -0.00171412 0)
(1.18441 0.104684 1.03631e-20)
(1.18514 0.101994 -1.8907e-20)
(1.1861 0.102742 1.05676e-20)
(1.04454 0.00358886 -1.08277e-20)
(1.04485 0.00442221 4.75279e-22)
(1.04369 0.00400392 -3.86504e-21)
(0.990144 -0.000736246 0)
(0.990041 -0.000494945 -2.54693e-22)
(0.981441 -0.012767 6.67609e-22)
(0.981897 -0.0116747 7.54145e-22)
(0.982669 -0.0127905 -8.34662e-22)
(1.00112 0.0902981 -1.59938e-21)
(1.00416 0.0948375 7.78419e-22)
(1.12652 0.113175 1.88085e-20)
(1.12337 0.114317 1.50848e-20)
(1.1241 0.110381 -2.76016e-23)
(0.146063 -0.0111866 1.78821e-21)
(0.164199 -0.00864371 2.32728e-23)
(0.150657 -0.0113179 -4.29268e-22)
(0.664913 0.0633209 -6.22107e-21)
(0.655927 0.0627619 0)
(1.05428 0.0377219 1.95641e-22)
(1.05443 0.0366705 -1.02569e-20)
(1.05317 0.036923 -2.51538e-21)
(1.03997 0.0813712 1.55511e-21)
(1.0424 0.0820122 -9.39653e-23)
(0.990595 0.0127571 4.89299e-24)
(0.99023 0.0122837 2.56952e-24)
(0.990726 0.0122476 9.92875e-24)
(1.12896 0.11129 4.92785e-21)
(1.12886 0.114979 5.0164e-21)
(1.11684 0.0404617 0)
(1.11697 0.0421009 0)
(1.11866 0.0409397 1.00327e-20)
(1.05332 0.0715546 -1.35867e-21)
(1.05127 0.0769824 -2.85283e-21)
(1.0504 0.0749548 1.37532e-21)
(0.396138 0.029489 -1.55789e-22)
(0.369239 0.0265486 -1.44029e-20)
(0.376764 0.0268384 7.84909e-22)
(1.04441 0.0509081 -4.16545e-21)
(1.04386 0.0491022 -3.50063e-21)
(1.15392 0.0748132 3.62697e-22)
(1.15375 0.0767154 4.05581e-22)
(1.15603 0.0754782 4.37162e-21)
(0.861186 -0.0190234 -2.42402e-21)
(0.930447 0.0130063 -1.2918e-21)
(0.153967 0.16312 7.44433e-21)
(0.198916 0.16586 -3.97601e-21)
(0.201343 0.155218 3.68881e-21)
(0.106854 -0.00827806 0)
(0.103626 -0.00835576 -1.93095e-20)
(0.121531 -0.00613686 -1.79441e-23)
(1.02941 0.0839768 -8.44297e-23)
(1.03177 0.0825513 3.87898e-22)
(1.02877 0.081405 5.03286e-24)
(0.995158 0.000265476 0)
(0.850035 0.0975247 -8.46053e-23)
(0.868743 0.0852782 -1.93461e-21)
(0.866206 0.104933 -2.31853e-21)
(0.981046 -0.0140678 7.36358e-22)
(0.982137 -0.0153472 -2.08745e-22)
(0.640812 0.0528406 -2.28904e-20)
(0.6911 0.0545285 -2.56524e-20)
(1.0044 0.0164474 -5.37172e-22)
(1.00397 0.0158846 -9.27202e-22)
(1.00383 0.0165485 -2.36478e-22)
(1.04343 0.00980961 -6.41414e-21)
(1.04446 0.0102114 1.89025e-21)
(1.04359 0.0107321 2.6465e-21)
(0.952219 -0.0230711 -1.01972e-21)
(0.95434 -0.0297282 -3.64453e-22)
(0.957671 -0.0239668 1.73465e-22)
(0.77249 0.0830591 1.72863e-20)
(0.72556 0.07931 -1.49203e-20)
(0.80032 0.0427692 -8.59524e-22)
(0.257007 0.0973435 -5.4218e-21)
(0.268486 0.0923743 -9.7426e-21)
(0.241141 0.094169 1.42424e-20)
(1.02299 0.0281272 -1.64121e-21)
(1.02232 0.0288059 1.68161e-21)
(1.05836 0.076603 4.20024e-22)
(1.05738 0.0752499 3.62372e-21)
(1.05666 0.0767857 7.67682e-22)
(1.01299 -0.00035273 5.53129e-24)
(1.0134 -0.00038272 7.21892e-23)
(1.01581 -0.000484577 0)
(1.04242 0.00945891 -1.23838e-21)
(1.04321 0.00892467 -1.62254e-22)
(1.08776 0.109685 3.23387e-21)
(1.10021 0.13475 0)
(0.99641 0.0241883 -3.36922e-22)
(0.996255 0.0247532 -2.57744e-22)
(0.99586 0.0242349 -3.27982e-22)
(0.987925 0.000207352 1.40596e-23)
(0.988263 0.000324089 5.73187e-23)
(0.35471 0.026112 1.41425e-20)
(0.346862 0.0247788 -3.13236e-20)
(0.331362 0.02261 -1.89052e-20)
(1.00398 -0.000819999 6.2323e-22)
(1.0044 -0.000795844 4.52842e-22)
(1.00246 -0.000406777 3.66772e-22)
(1.00405 -0.0013642 -3.03315e-22)
(1.00278 -0.00114125 3.04142e-22)
(1.00996 0.010658 -7.96364e-22)
(1.01018 0.0113059 1.71176e-21)
(1.0094 0.0110161 -1.8213e-21)
(0.563613 0.114027 6.33743e-21)
(0.574669 0.110495 2.23931e-20)
(0.535248 0.10795 8.12596e-21)
(1.02213 0.0552319 -1.92351e-22)
(1.02348 0.0546766 0)
(1.0219 0.053679 0)
(0.831623 0.0844612 1.08962e-21)
(0.349185 0.148513 -1.34488e-21)
(0.347997 0.14339 7.90865e-22)
(0.3821 0.142729 -1.5721e-20)
(1.12139 0.110208 -1.73211e-21)
(1.10855 0.104677 -1.44244e-22)
(1.10593 0.113024 0)
(0.1086 -0.0146031 -5.3868e-22)
(0.221705 0.15757 -1.79956e-20)
(0.249991 0.157345 0)
(0.21833 0.165375 1.32327e-20)
(1.02372 -0.000242818 1.06876e-22)
(1.02404 -0.000266929 1.014e-22)
(1.02385 -0.00014771 3.25597e-24)
(1.02693 0.085193 2.32715e-22)
(1.03013 0.0867928 7.60741e-23)
(1.00116 0.0246107 0)
(1.00068 0.0248541 0)
(1.00152 0.0253458 7.85137e-24)
(0.413981 0.0295604 -1.71949e-20)
(0.414898 0.0306121 1.09304e-20)
(0.388517 0.0265067 9.26772e-21)
(1.09895 0.0180394 4.86223e-21)
(0.325264 0.169612 0)
(0.276222 0.177067 -7.70799e-21)
(0.290624 0.170304 3.98468e-21)
(1.08176 0.0967193 -1.10403e-20)
(1.08337 0.0962849 -9.69916e-21)
(1.0828 0.0986502 -4.80152e-21)
(1.00929 -0.000585846 -2.07239e-22)
(1.01103 -0.000860966 -5.34969e-23)
(1.00855 -0.000543939 6.75948e-22)
(1.05703 0.0237182 0)
(1.05584 0.0228945 -1.29523e-23)
(1.08435 0.133861 6.5561e-22)
(1.07892 0.136476 -3.18687e-22)
(1.08055 0.1313 6.96983e-22)
(1.11651 0.0386823 0)
(1.11497 0.0398686 1.2632e-20)
(1.02229 0.0568536 -5.34029e-23)
(1.02081 0.0555895 2.17793e-22)
(1.08802 0.0176811 3.39822e-21)
(1.08635 0.0170753 -9.99042e-22)
(1.08669 0.0188281 1.24285e-20)
(1.0009 0.0239603 -3.22381e-23)
(1.03482 0.0242259 -5.99869e-22)
(1.03535 0.0250128 4.31045e-22)
(1.11731 0.163225 -7.85935e-21)
(1.12437 0.160704 1.40269e-20)
(1.11556 0.164326 1.5533e-20)
(1.18418 0.107149 1.64392e-20)
(1.1649 0.105851 3.90725e-20)
(1.05777 0.0680424 2.25432e-21)
(1.04846 0.0650136 -1.628e-21)
(1.03419 0.0234361 0)
(1.03384 0.0242506 0)
(1.10064 0.16869 -1.37835e-20)
(1.11496 0.160642 -5.49077e-21)
(1.03941 -0.000798731 1.53443e-22)
(1.03824 -0.000912074 -4.21683e-22)
(0.994743 0.131815 1.8603e-21)
(1.00403 0.13598 6.79816e-22)
(1.08021 0.0951025 8.3968e-22)
(1.07953 0.0974334 -6.51577e-21)
(1.15699 0.0909319 1.06912e-20)
(1.15818 0.0888572 1.63036e-20)
(1.11971 0.145395 -7.47617e-21)
(1.11946 0.141374 4.5292e-22)
(1.11477 0.142037 -8.30087e-21)
(0.253676 -0.0114956 -6.09602e-21)
(0.271542 -0.00694213 -1.17227e-21)
(0.258456 -0.0114846 1.26146e-20)
(0.983519 0.00524595 1.36036e-22)
(0.98383 0.00502439 -7.50432e-23)
(0.160207 -0.0103961 1.62717e-20)
(0.173516 -0.008174 0)
(0.155105 -0.0109768 -2.32411e-21)
(1.06553 0.0524268 5.02285e-21)
(1.06506 0.0536411 -1.24472e-21)
(1.06408 0.0523919 -5.13955e-21)
(0.424438 0.0326194 8.88986e-21)
(0.416817 0.0320451 4.41467e-21)
(0.983048 0.0075517 3.35728e-22)
(0.983726 0.00779144 2.35086e-22)
(0.996555 0.0235868 1.58814e-23)
(0.996981 0.0241185 2.8093e-22)
(1.0401 0.0698449 2.4948e-21)
(1.04197 0.0700943 -8.14563e-22)
(1.04101 0.0682189 1.4753e-21)
(0.197948 -0.0130839 1.24184e-20)
(0.195826 -0.0125798 1.05939e-20)
(0.213655 -0.0103511 1.29755e-20)
(0.108171 -0.00925035 -5.12885e-23)
(0.087611 -0.010728 2.64745e-20)
(1.02561 0.0452088 0)
(1.02584 0.0464289 0)
(1.0246 0.0457325 -1.35378e-21)
(0.93066 0.00163081 -3.22182e-22)
(0.97649 0.0161777 -3.04438e-21)
(0.906214 -0.00498655 -8.57866e-21)
(1.01551 0.0722172 -3.90676e-22)
(1.01379 0.0702059 -1.24763e-22)
(1.01621 0.069891 3.70657e-22)
(1.05996 0.0763806 3.74043e-22)
(0.980252 -0.0126583 6.32211e-22)
(1.08779 0.136316 0)
(1.01268 0.0330338 3.1295e-22)
(1.01276 0.0340689 0)
(0.990767 0.00825419 8.22341e-23)
(0.990851 0.00784334 -4.52419e-23)
(0.990439 0.0078705 2.65212e-23)
(0.989041 0.0290863 2.01647e-22)
(0.990168 0.0287846 -3.06189e-22)
(0.989807 0.0299169 -2.52513e-22)
(0.988291 0.0280704 2.95387e-22)
(0.987567 0.0294492 -1.5233e-21)
(0.277429 0.0982514 -3.49384e-21)
(1.15206 0.0741111 -7.42458e-21)
(1.15418 0.0730842 -1.64893e-20)
(1.03432 0.0836304 1.29879e-22)
(0.498818 0.066737 5.26823e-21)
(0.498577 0.0703921 1.33019e-20)
(0.527101 0.0728218 1.33483e-20)
(1.00034 0.0011794 9.73465e-23)
(1.00008 0.000836894 -1.04154e-21)
(1.00136 0.00143868 7.98679e-22)
(0.997731 -0.0129083 6.20473e-22)
(0.997236 -0.0131285 2.33568e-22)
(0.997239 -0.0123037 2.33145e-22)
(0.998226 -0.0134848 7.0837e-22)
(0.998155 -0.0126797 5.93319e-22)
(0.225627 0.14942 3.89675e-21)
(1.12526 0.156254 2.23128e-20)
(1.12099 0.149809 1.13748e-20)
(1.11526 0.151276 -6.8155e-21)
(1.08152 0.169762 2.68643e-21)
(1.05293 0.171873 -1.75136e-22)
(1.08625 0.167899 2.76684e-21)
(1.02399 0.00284674 -7.68776e-22)
(1.02432 0.00320262 -6.9206e-22)
(1.02444 0.00275001 8.21008e-22)
(1.01433 -0.000129868 -2.24636e-24)
(1.0108 -0.000138471 9.91431e-23)
(0.786892 -0.054389 1.69526e-21)
(0.821778 -0.0323837 -6.80385e-22)
(0.164534 -0.0102654 9.24463e-23)
(0.99703 -0.0105249 7.96811e-23)
(0.997199 -0.0109907 -4.75595e-22)
(0.996584 -0.0107664 7.41563e-22)
(0.996764 -0.00995704 -3.15144e-22)
(0.997429 -0.010247 7.02499e-22)
(1.00437 -0.000584866 1.31619e-22)
(1.00185 -0.000243725 0)
(0.998735 -0.0140848 6.10938e-22)
(0.998259 -0.0143477 3.80816e-22)
(0.999292 -0.0147186 2.63258e-22)
(0.99918 -0.0138783 5.92367e-22)
(0.260758 -0.00392422 2.40471e-20)
(0.273826 -0.00116326 -5.5536e-21)
(0.295172 0.100162 -1.03676e-20)
(0.290569 0.106704 0)
(0.316341 0.101271 1.54362e-20)
(1.00794 0.0288267 -5.69705e-22)
(1.00774 0.0280287 -2.2069e-22)
(1.00848 0.0285334 -3.43952e-22)
(1.02644 -0.000355127 -1.61455e-23)
(1.02696 -0.000410625 -3.78106e-24)
(1.02652 -0.000563682 -2.29814e-23)
(1.10092 0.105369 2.47384e-21)
(1.09797 0.104867 -6.43145e-21)
(1.09964 0.102965 -7.09251e-21)
(0.248392 -0.00181817 -3.71223e-21)
(0.237131 -0.0046499 -2.54192e-23)
(0.253297 -0.00140453 -1.31777e-20)
(1.00075 -0.00108563 5.51191e-24)
(0.999532 -0.000691724 -6.66725e-22)
(0.99999 -0.000703371 6.70633e-22)
(1.02356 0.00298643 0)
(1.02368 0.00254424 1.59946e-21)
(0.956778 0.00958252 5.90862e-21)
(0.878696 -0.0177284 3.36029e-21)
(0.634435 0.0525545 1.4201e-20)
(0.625873 0.0521055 -3.47962e-21)
(0.674452 0.0542715 -2.90836e-22)
(1.13082 0.159022 5.87879e-22)
(0.500474 0.0640705 -7.04541e-21)
(0.474753 0.0604663 6.73531e-21)
(1.07414 0.10777 2.67355e-21)
(1.07233 0.105398 2.40583e-21)
(1.07111 0.108129 7.76944e-22)
(1.00484 0.0163465 2.84129e-22)
(1.00477 0.0169896 -1.47632e-21)
(0.284127 0.149889 -1.87281e-20)
(0.281427 0.156224 -1.53635e-20)
(1.10362 0.106412 6.67077e-21)
(1.10127 0.108536 -3.45278e-21)
(1.02212 0.0872057 1.54552e-22)
(1.01915 0.0849832 8.52097e-22)
(1.13686 0.0895137 8.30741e-21)
(1.13763 0.091586 1.18835e-20)
(1.1395 0.0898807 -3.59092e-21)
(1.02535 0.0440503 -1.49796e-21)
(1.02657 0.0446022 1.06612e-21)
(0.303246 0.0940677 1.37424e-21)
(1.04518 0.00515339 4.98733e-21)
(1.04445 0.00550595 0)
(1.04547 0.00596542 8.25786e-23)
(1.07516 0.0780217 5.77052e-21)
(1.07504 0.0788351 -3.05688e-21)
(1.07614 0.0785106 1.53384e-21)
(1.08451 0.095036 3.4544e-22)
(1.08588 0.0933214 1.25969e-21)
(1.08359 0.0931663 3.62583e-21)
(1.00677 0.0293911 -2.53784e-22)
(1.00742 0.0290566 -2.61015e-22)
(1.00656 0.0286377 1.43108e-22)
(1.00279 -0.000117821 0)
(1.0554 0.0384837 -3.58901e-21)
(0.992686 0.0280218 1.7104e-22)
(0.992921 0.0277994 -8.39876e-22)
(0.992583 0.0276614 -5.96843e-22)
(0.981354 0.00317574 2.42993e-22)
(0.981232 0.003783 -3.41881e-22)
(0.980891 0.00336056 -4.6943e-24)
(0.196238 -0.00330412 1.33675e-20)
(0.185214 -0.00569386 0)
(0.180235 -0.00581796 -1.894e-21)
(0.75639 0.0462835 -7.02816e-22)
(0.78035 0.0584443 -6.98813e-22)
(0.78339 0.0338319 4.00934e-21)
(0.980938 -0.00693442 -7.43262e-22)
(0.981491 -0.00628688 -4.0369e-22)
(0.981739 -0.0072336 -2.01388e-22)
(0.996248 -0.0094718 0)
(0.996627 -0.00923562 0)
(0.996645 0.0253107 5.12297e-22)
(0.996068 0.0253226 2.54065e-22)
(0.995849 -0.00971617 -1.86113e-22)
(0.995827 -0.00904438 2.10967e-22)
(1.04607 0.00477933 4.20721e-22)
(1.01984 0.000588317 -2.36214e-21)
(1.01475 0.000358127 -5.72376e-22)
(1.09246 0.0680751 8.90684e-21)
(1.09369 0.0695622 -3.14754e-21)
(1.09186 0.0699335 8.7712e-21)
(0.98035 -0.00754333 3.27417e-22)
(0.980187 -0.00640799 -2.90219e-24)
(0.105477 -0.00568295 -2.97436e-22)
(0.121448 -0.00318788 -1.11902e-20)
(0.375312 0.0623486 6.22962e-21)
(0.392422 0.0595195 -3.90652e-20)
(1.02773 0.020693 0)
(1.02802 0.0199062 1.51789e-21)
(1.02694 0.0200127 -1.13901e-21)
(0.993931 0.0276995 -8.55783e-23)
(0.993698 0.0281475 9.84391e-22)
(0.994173 0.0283291 1.29833e-21)
(0.980635 0.145232 -5.23604e-22)
(0.989982 0.136503 -1.352e-21)
(0.933538 0.139933 2.4685e-21)
(1.00829 -0.0162095 -2.87585e-23)
(1.00911 -0.0168531 3.83688e-22)
(1.00878 -0.015794 7.41356e-22)
(1.08238 0.105906 -1.66531e-21)
(1.08615 0.104582 -4.63997e-22)
(1.08119 0.101631 -1.03323e-21)
(0.212753 -0.000369122 1.67527e-20)
(0.207482 -0.000844503 -1.36857e-20)
(1.00756 -0.0156183 -3.35802e-22)
(1.00779 -0.0166602 -8.46026e-22)
(0.22207 -0.00734406 -3.2659e-20)
(0.216712 -0.00770079 -1.99474e-20)
(0.981474 0.00260051 4.90346e-22)
(0.981796 0.00298744 8.39697e-22)
(0.603235 0.119643 -9.07812e-21)
(0.560747 0.11823 -4.65761e-21)
(1.00956 -0.000555629 -1.12136e-22)
(1.00656 -0.00029012 -1.21546e-22)
(1.00858 0.0451082 3.02009e-22)
(1.00793 0.0443496 -7.36483e-22)
(1.00879 0.044189 3.10511e-22)
(1.00629 0.0296794 0)
(1.00709 0.0301169 2.05157e-22)
(1.00183 0.0158188 3.16369e-22)
(1.00129 0.0153676 -4.38461e-22)
(1.00181 0.0152093 -1.49615e-22)
(1.15176 0.131802 2.63099e-22)
(1.14961 0.128208 6.7674e-21)
(1.15492 0.129051 -6.0049e-21)
(0.991966 0.000594294 4.63629e-22)
(0.992333 0.00058774 -8.42118e-24)
(0.992467 0.000268809 -1.13282e-22)
(1.13344 0.117482 5.02022e-22)
(1.13556 0.104476 2.1994e-21)
(1.06421 0.0617286 3.16686e-21)
(1.0637 0.0630764 -1.66883e-21)
(1.06276 0.0616053 0)
(0.951097 -0.0173459 -1.92411e-21)
(0.945672 -0.022157 -8.18342e-22)
(1.01573 0.0282277 -3.42183e-21)
(1.0248 0.0292045 2.01552e-21)
(1.06624 0.0431209 1.90154e-21)
(0.0928014 -0.00785627 -2.42283e-20)
(1.00135 -0.00146856 0)
(1.00184 -0.00142646 1.79418e-22)
(1.10661 0.0831449 0)
(1.10845 0.0844969 6.03169e-21)
(1.10864 0.0821331 0)
(0.992682 0.028988 8.57691e-22)
(0.992696 0.0284853 1.55922e-21)
(0.993112 0.028853 1.12672e-21)
(1.04382 0.0518938 -1.6881e-23)
(1.04305 0.0528565 1.21163e-21)
(1.04251 0.0512312 1.33705e-21)
(0.992552 0.0297887 -2.11218e-21)
(0.993162 0.0302751 -1.46335e-21)
(1.04882 0.043769 -5.4999e-21)
(1.04983 0.0446768 -8.45703e-22)
(0.982829 0.0040546 1.78167e-22)
(0.982473 0.00371948 -3.44186e-22)
(0.982866 0.00345724 4.64076e-24)
(0.99201 0.000870232 -2.87224e-22)
(0.99156 0.000548937 3.34178e-23)
(1.07247 0.126499 0)
(1.06993 0.131067 0)
(1.07671 0.128636 0)
(0.979739 0.0227129 7.24607e-22)
(0.979 0.0212711 -1.45374e-21)
(0.980815 0.0214648 6.36039e-22)
(1.07551 0.0767057 0)
(1.07417 0.0772797 3.13015e-21)
(1.04933 0.0427806 -4.05854e-21)
(1.04781 0.0428934 1.60327e-21)
(1.02322 0.00302574 4.09455e-22)
(1.02297 0.00267584 1.27992e-21)
(1.02281 0.00305606 -3.3849e-23)
(0.362818 0.0264313 2.67604e-20)
(0.380778 0.0285531 4.19562e-20)
(0.195347 -0.0145588 -3.0163e-21)
(0.174869 -0.0146189 1.82976e-20)
(0.989287 0.0109251 -1.0259e-22)
(0.988973 0.0104585 6.95024e-23)
(0.98944 0.0104568 -1.23573e-23)
(1.04158 -0.033546 -1.58842e-21)
(1.04454 -0.0368939 4.28854e-23)
(1.0447 -0.0333944 3.62439e-24)
(1.0452 0.052524 1.41729e-21)
(0.987289 -0.00595397 8.29571e-21)
(0.997095 -0.00158614 5.87172e-21)
(0.990045 0.00456938 2.85231e-21)
(1.17665 0.0740601 0)
(1.17757 0.0746267 -1.17503e-20)
(1.17732 0.0726638 0)
(0.3949 0.0472875 1.04675e-20)
(0.379848 0.0392227 2.61328e-20)
(0.374936 0.042957 -7.3482e-21)
(0.353107 0.169171 7.66033e-21)
(0.372658 0.165837 -4.32129e-21)
(1.06242 0.0041902 2.3931e-23)
(1.06317 0.00220473 -1.38165e-22)
(1.06599 0.00385252 0)
(1.04947 0.082628 0)
(1.05191 0.0797323 2.31108e-22)
(0.994166 0.027268 -1.36982e-22)
(0.993669 0.0271714 -5.35369e-22)
(0.778097 0.072692 -1.40074e-20)
(0.744426 0.0703596 -7.28067e-21)
(0.978102 -0.0169845 -5.4554e-21)
(0.974998 -0.00567007 2.31949e-22)
(1.11891 0.0936724 -6.60408e-21)
(1.15741 0.0951299 1.83108e-20)
(1.01991 0.000669659 -1.07933e-21)
(1.01438 0.000194967 3.12784e-21)
(1.00831 0.0459084 9.11373e-22)
(1.00747 0.0459292 1.90712e-21)
(1.02536 0.0347881 4.38063e-22)
(0.998909 0.025111 1.49455e-22)
(0.99949 0.0249946 2.61295e-22)
(0.999343 0.0257012 1.3099e-22)
(0.999627 0.0596554 1.96948e-21)
(0.999027 0.0572711 1.33374e-21)
(1.15457 0.0904764 -2.24018e-20)
(1.15585 0.0931892 -2.32409e-20)
(0.995158 -0.00076251 4.93622e-22)
(0.995582 -0.000680088 -6.55845e-22)
(0.995432 -0.000407731 -1.20392e-22)
(0.435959 0.0329835 -2.22648e-20)
(0.409236 0.028975 -8.13861e-21)
(1.01262 0.00352079 2.998e-22)
(1.01272 0.00414218 3.57176e-21)
(1.01214 0.00384892 -9.43707e-22)
(1.13804 0.0388706 -1.57675e-20)
(1.14008 0.0390413 -5.8275e-20)
(1.02278 -0.022168 -7.66451e-23)
(1.02334 -0.0213364 1.06589e-22)
(1.02421 -0.022506 -9.5505e-23)
(0.197648 -0.0300724 2.75442e-21)
(0.194214 -0.0245496 1.76688e-20)
(0.993601 0.00510685 1.65308e-22)
(0.993287 0.00486331 -1.46257e-22)
(0.993597 0.00471424 -4.39819e-22)
(1.07589 0.075785 0)
(1.07491 0.0749306 4.32903e-21)
(1.07628 0.0746686 0)
(1.01508 0.074325 -1.08107e-21)
(1.01777 0.0736407 5.57963e-22)
(1.06116 0.00559413 -1.42681e-23)
(1.05953 0.00371808 8.94013e-22)
(0.995664 -0.00129169 4.23746e-23)
(0.994866 -0.000950004 4.5733e-22)
(1.14108 0.0883602 -2.06228e-21)
(1.14287 0.0869302 -4.54021e-21)
(1.14051 0.0861879 9.05913e-21)
(0.685686 0.0552702 -3.06493e-21)
(0.731684 0.0584109 4.81975e-20)
(0.693469 0.0558894 2.08611e-20)
(1.02495 0.0342306 0)
(1.02433 0.0349161 0)
(1.02404 0.0335909 0)
(0.998349 0.0251798 0)
(0.998532 0.0245108 0)
(0.34084 0.0146479 0)
(0.346979 0.0158761 -1.05863e-20)
(0.667284 0.0562455 6.99391e-21)
(0.678463 0.0555892 -2.58928e-20)
(0.716157 0.0574896 1.48932e-20)
(0.606075 0.158889 1.47195e-20)
(0.63683 0.156378 1.41262e-20)
(0.583285 0.158625 6.69931e-21)
(0.901251 0.163367 7.7438e-21)
(0.879982 0.161697 5.99855e-21)
(1.00676 -0.0150523 1.93857e-23)
(1.00731 -0.0146228 3.67955e-22)
(1.01064 0.0293527 6.12754e-22)
(1.01045 0.0284972 3.44817e-22)
(1.01124 0.0289887 1.05949e-21)
(0.618159 0.0520729 -1.72319e-20)
(0.610361 0.0520451 -1.81841e-20)
(0.658127 0.053973 3.23181e-20)
(1.04992 0.0867376 0)
(1.04698 0.0854193 1.11479e-21)
(1.00621 -0.0155344 -2.36995e-22)
(1.00592 -0.0145585 -1.94535e-22)
(0.992126 0.029189 -9.99965e-22)
(1.02891 0.0257527 0)
(1.0295 0.0265999 0)
(1.02848 0.0263095 1.75572e-21)
(1.04657 0.0985873 1.39424e-22)
(1.04583 0.101418 -1.74795e-22)
(1.04925 0.100641 4.86183e-22)
(1.07682 0.0764998 -3.32468e-21)
(1.11875 0.130946 7.17995e-21)
(1.12023 0.127404 7.31425e-22)
(1.11614 0.127632 5.44158e-21)
(1.06567 0.0915941 2.19437e-22)
(1.06763 0.090697 -5.78592e-22)
(1.06769 0.0928549 -8.71645e-23)
(1.07826 0.10656 8.39259e-23)
(1.08162 0.111049 -4.32962e-22)
(1.13483 0.0430369 8.24801e-21)
(1.13395 0.0444033 1.86228e-20)
(1.13584 0.0442856 -1.20492e-21)
(0.308678 0.00472848 1.16751e-20)
(0.29143 -0.000199142 2.68957e-20)
(0.302649 0.00352953 -1.25324e-21)
(0.990488 0.0132264 -9.51134e-23)
(0.990958 0.0131741 -2.62505e-23)
(1.02594 0.0348712 0)
(1.02558 0.0335343 1.93821e-21)
(0.991062 0.0306266 -4.5976e-22)
(0.991028 0.0316054 8.05575e-22)
(1.17458 0.127937 -2.9e-20)
(1.17787 0.124854 1.81926e-20)
(1.16922 0.127272 -1.95221e-22)
(0.998704 -0.000750152 9.29485e-22)
(0.99812 -0.000338187 4.53762e-22)
(0.998326 -0.000742293 3.00262e-22)
(0.230269 -0.0158361 -1.6488e-20)
(1.13572 0.0415689 -7.25992e-22)
(1.13362 0.0418448 6.70506e-21)
(0.911398 0.0294452 0)
(0.895788 0.0240644 1.24504e-22)
(1.02412 0.0299045 -2.1988e-21)
(1.0251 0.0299277 5.17645e-22)
(1.05905 0.0885773 1.79225e-22)
(1.05396 0.0892306 5.04785e-22)
(1.05913 0.0921511 7.68973e-22)
(1.03921 -0.03296 -9.42821e-24)
(1.03983 -0.0306752 -6.11617e-23)
(0.958113 -0.070037 1.17602e-20)
(0.992412 -0.0601324 -1.23488e-20)
(0.946955 -0.0879885 -1.16206e-21)
(0.97914 -0.0257684 -9.28268e-22)
(0.977115 -0.0240552 -2.05749e-21)
(0.979431 -0.023255 -1.83596e-21)
(1.07514 0.169494 0)
(0.966799 0.150675 -4.96752e-23)
(1.0124 0.0757724 6.43111e-22)
(1.01493 0.0776001 -6.45645e-22)
(1.02746 0.0213598 0)