/*--------------------------------*- C++ -*----------------------------------*\
| =========                 |                                                 |
| \\      /  F ield         | OpenFOAM: The Open Source CFD Toolbox           |
|  \\    /   O peration     | Version:  v2012                                 |
|   \\  /    A nd           | Website:  www.openfoam.com                      |
|    \\/     M anipulation  |                                                 |
\*---------------------------------------------------------------------------*/
FoamFile
{
    version     2.0;
    format      ascii;
    class       volScalarField;
    location    "750";
    object      p;
}
// * * * * * * * * * * * * * * * * * * * * * * * * * * * * * * * * * * * * * //

dimensions      [0 2 -2 0 0 0 0];


internalField   nonuniform List<scalar> 
13851
(
0.00590629
0.021258
-0.00115021
0.00571332
-0.0134819
0.000239755
0.0119165
0.000244993
0.00194975
0.0126632
-0.00135663
0.0249159
-0.0383921
-0.0491832
0.0129291
0.00819624
0.00513461
0.00923411
-0.0333251
0.00200934
0.00568275
-0.00269512
0.000451501
0.00225013
0.000542236
0.00102787
0.00352803
-0.0699702
0.00612428
0.00866257
-0.00328353
0.00495881
-9.84641e-05
-0.000841353
0.00223734
-0.0205433
-0.0229302
-0.0162239
0.0133832
-0.00144493
0.00647806
0.00034395
-0.068281
-0.00424311
-0.00407412
-0.0670684
-0.00558853
-0.00150737
0.00315942
-0.00447769
-0.0155334
-0.0243664
-0.0674821
0.0122439
0.00677737
0.000330272
0.00120205
-0.0707183
0.00855166
0.0105684
-0.014861
-0.0414477
0.00959024
-0.0168678
0.0127319
0.00552581
-0.0232961
-0.00656308
-0.00397066
0.00911149
-0.024295
-0.0220187
0.0205835
0.0124918
0.0064966
0.00173601
-0.00304922
-0.0456687
-0.00652745
-0.0221671
0.00889513
0.00096143
0.0101001
-0.0664863
0.00974698
0.0249683
0.000213291
0.0275274
0.00316945
0.00068743
-0.0205078
0.00092463
-0.00655453
0.00116653
0.00317437
0.00158436
-0.0145729
-0.053398
-0.00487296
0.0013954
-0.0706813
-0.00942787
0.00723244
0.00365338
0.00017064
-0.000642702
-0.0114054
0.000242404
-0.0224926
-0.00105227
0.00166057
0.000673227
0.000958272
0.00213591
0.00183717
-0.00230087
-0.0524758
0.00028177
0.00402992
0.00650016
-0.0680607
0.00382058
-0.0404767
-0.00195236
0.001615
0.00058584
0.000377649
-0.00792929
0.00547869
-0.0201197
0.00646858
0.00326142
-0.0260965
0.0102576
-0.00323849
0.00349645
0.000305416
-0.0233034
-0.0272312
0.00208506
-0.0717806
0.0068368
0.0012735
0.00056321
0.00712842
-0.00489962
7.86872e-05
-0.0193316
0.0120299
-0.00178429
-0.0146063
0.00596139
-0.0495258
0.00125321
0.00622493
0.00730844
0.00370551
0.00825297
-0.0244955
-0.0151237
4.61028e-05
-0.000373367
-0.0705618
0.00317578
0.00965804
0.000463439
0.000142461
-0.00444226
0.00552956
-0.0597855
-0.0446777
0.00158858
0.00381648
-0.00293126
0.00318624
-0.000217517
-0.00725909
0.00123342
-0.03525
0.000231626
0.00486987
-0.0224183
0.0106506
-0.0038149
3.69056e-05
0.00083712
0.00581268
0.00665499
-0.0143876
0.0190928
-0.00640892
-0.06812
0.000569414
-0.00308513
-0.0399637
0.00652423
0.001278
-0.00710426
0.001281
0.00175222
0.000570533
-0.0618121
0.00422952
0.00845508
0.0152866
0.0106214
-0.00014682
0.00446981
-0.0337127
0.000114283
-0.0330991
0.00716615
-0.00236508
0.000150103
0.000476289
7.3334e-06
0.00997798
-0.0666425
0.0121291
-0.0341801
0.00436943
0.00870779
-0.0452298
-0.0229495
-0.0276547
0.000851185
0.000125614
0.000196157
-0.0682283
0.000150421
0.0019162
0.00917113
0.00158499
0.000620146
-0.0139415
0.0116042
-0.000373652
0.0164956
0.000523058
0.00850101
-0.00222597
-0.00369366
0.00011274
0.0161152
0.000182456
-0.0301434
-0.00961509
-0.000157554
0.00746387
0.00691076
-0.000439527
-0.00247007
0.00829425
0.00733502
-0.0109957
0.00751873
0.0186596
-0.0239616
-0.0610689
0.0130721
0.000494788
0.00877119
-0.00153666
0.000595378
-0.0352622
0.00661462
0.00837148
0.0014352
-0.0448215
0.000363412
-0.000630181
0.00624745
0.000594975
-0.00595541
0.00842269
0.00324701
0.000150544
0.000440415
-0.0229577
-0.00037917
7.6317e-05
8.27466e-05
0.000165158
-0.0104775
-0.0011855
-0.00165976
0.0019726
0.0144588
0.000953587
-0.000247952
-0.020785
0.00847991
0.0103218
-0.0047004
-0.000411567
-0.0370968
0.00921542
0.0314016
0.00329056
-0.0298926
-1.94832e-05
0.00545838
-0.0247325
0.00772328
-0.00101193
-0.0420496
0.00197101
-0.00824857
0.00136307
0.00838532
-0.0286326
0.00938457
0.00836623
-0.0499643
0.000393764
0.00675757
0.000632202
-0.0240174
-0.0187373
0.0121123
-0.010507
0.0130439
-0.058102
-0.000899873
0.000653658
0.00319093
-0.0188383
0.000426639
0.00615657
0.0146914
0.00776056
0.00840178
-0.00157525
-0.063083
-0.0552527
0.0088338
-0.0231427
-0.0226432
0.0127034
-0.00317201
-0.0202697
0.000987834
0.0119561
-0.0221779
-0.0339364
0.00103225
-0.000933931
-0.0367307
0.0131839
-0.000143303
-0.000305372
0.00353992
0.00617732
0.0121447
-0.0684972
0.00379856
8.77822e-05
0.00316011
0.01319
0.000167001
0.000192693
0.00389243
-0.0360635
-0.0098442
0.00852438
-0.00774366
0.00044499
0.0338604
0.0109552
-0.00470325
-0.0573713
0.00842905
0.0100169
0.00194027
-0.0024469
0.0062152
0.000366384
0.000275882
-0.0729726
0.00643073
-0.0253858
0.000997339
-0.0231267
-0.0618232
-0.00163552
-0.00131504
6.55091e-05
0.00377655
0.0133953
0.00864762
-0.010553
-0.0466336
-0.00480569
-0.0288715
-0.0388073
0.000503996
0.0130902
-0.0578186
-0.0241186
0.0104808
-0.0510932
7.33741e-05
0.00160639
0.00106684
-0.0219232
0.0017161
0.00771089
0.000184115
0.0114094
0.000166814
0.00192737
0.000444229
-0.0168695
0.0127693
-0.0583791
0.00898551
-0.0112984
0.00361552
-0.00159767
0.00737561
0.00411617
0.00566469
0.000967396
0.000285089
0.00196671
0.00101492
-0.0150789
-0.00272145
-0.0216457
0.00387195
-0.0527648
0.000747387
-0.000142686
0.00630162
-0.0141077
0.00622574
-9.4298e-05
0.000285256
0.0144577
0.0026057
0.00210334
-0.0361232
0.00118285
0.000563721
3.0207e-05
-0.0709625
9.19181e-05
0.000902277
-0.00717745
0.000335134
0.00175989
0.00834073
-0.014095
-0.0233944
0.00952299
0.026919
0.000821648
0.00310141
-0.068289
0.0099392
8.26929e-05
0.0278113
0.00371784
0.00574381
0.001962
0.01279
0.00817839
0.000106514
0.00123734
-0.0483726
0.0100585
-0.00557683
0.00359084
0.00144816
0.00068606
0.0025177
0.0054468
0.00231612
0.00163556
-0.000387019
0.00847046
-0.000349584
0.0108532
0.000987625
-0.0645637
-0.0354846
0.0107363
0.00123529
0.00710431
-0.00724807
-0.0687946
0.00322061
-0.0117752
0.00635376
-0.0110501
0.0107903
-0.0674775
0.000255121
-0.0669569
0.0189725
0.000359278
0.00122521
-0.0561773
0.00244396
0.00137413
0.0040899
-0.0018859
0.00700528
0.00283972
0.00313279
0.0122059
-0.0246356
-0.013672
-0.0228917
-0.0346655
0.00977284
9.27092e-05
-0.0400575
-0.00263167
0.00449835
-0.000373978
-0.00674906
-0.00077561
-0.0310618
0.0120577
-0.0676818
-0.0667856
-0.0632444
0.00955657
0.000989221
-0.00415624
0.000518371
0.0129018
-0.00572292
0.0147681
0.00831473
0.0103583
-0.0282316
0.000267643
0.000527369
-0.0142154
-0.0354695
0.00753244
0.00920358
0.00373214
0.00733338
-0.0145024
0.0118725
0.0259064
0.0258042
0.00271763
-0.0680961
-0.0434916
-0.00301598
-0.00205675
-0.00508372
9.0993e-05
0.00192777
0.000210649
-0.0426887
0.00601074
-0.0167638
-0.0220554
0.000319873
0.00310313
-0.000791913
0.00297151
-0.0218968
-0.0249564
-0.0275076
0.00632762
0.0115407
0.0244725
-0.0401856
-0.0205079
-0.00486558
0.00960293
0.000198569
0.00720034
0.0129535
0.000319205
0.00766456
0.000208195
0.00423936
-0.0291093
-0.0157491
0.00394507
0.000312001
-0.0259564
-0.00823324
0.00351926
0.0010929
0.000644131
0.0131284
-0.074171
-0.00171817
-0.000789537
-0.0634712
-4.60771e-05
-0.00390625
-0.0356064
-0.0329339
0.00100692
-0.00405249
7.46817e-05
0.000556215
0.00665137
-0.0469174
-0.00132167
-0.0167095
0.00306377
0.00198535
0.00916787
0.00118535
0.00183085
-0.0151722
0.0108839
0.00902936
0.00178548
0.0011695
-0.021792
0.0107227
0.00608644
0.0105672
0.00959488
-0.01343
-0.0125378
-0.0221382
0.00993831
-0.0205137
0.00200793
0.0110702
-0.000480706
-0.0642369
0.00722364
0.00158805
-0.0233664
0.00822457
-0.0656931
-0.0346485
-0.067109
0.026812
0.00176213
-0.0226058
5.39586e-05
0.00405827
0.000241608
0.00424004
6.33547e-05
0.00890474
0.0122461
0.000297616
-0.0105282
0.0195259
-0.0141457
0.00340256
0.000200325
0.000639955
-0.0183767
-0.0343663
-0.0113398
0.00103786
0.000102808
0.00114124
0.0027501
0.00345209
-0.0292461
0.0237689
0.00968066
0.00027632
0.0123939
0.00357799
0.0163491
-0.0690369
0.00891172
-0.053907
-0.000773086
0.00609812
-0.0227423
-0.0700283
-0.0046628
0.029743
0.00884861
0.00893766
-0.0109819
0.00880397
-0.00438979
0.0107817
-0.00425364
0.000238894
-0.00352145
-0.0360146
0.00145488
0.00783127
0.00948587
0.00282123
0.00506766
-0.00694223
-0.0164948
-0.0144975
-0.0330697
-0.000548498
0.000190837
0.00344415
-0.0638837
-0.0216105
0.0119181
-0.0345329
0.00142414
0.0147043
0.000270889
-0.00126307
-0.0257877
0.00879165
0.00601237
0.000447921
0.00373086
0.000591451
-0.067697
0.00790679
-0.0491695
0.000373133
0.00984743
-0.0389783
-0.0699021
-0.0201969
0.0012093
-0.027392
0.0104287
0.000251677
-0.00211775
0.00226952
0.00680649
-0.067461
-3.83107e-05
0.000708152
-0.0231388
0.00138225
0.00444806
0.00822209
0.00196994
-0.0684055
0.00520646
-0.0223062
0.00424179
0.000536011
0.00203695
-0.00743313
0.0031694
-0.00017521
0.000229096
0.00597993
0.00545177
-0.0406303
0.00385261
0.000399248
0.00231621
0.0113921
-0.0391176
0.000397235
0.00125744
-0.0148592
0.0184215
-0.00545177
0.00248919
-0.00272806
-0.0522581
0.0083662
-0.0392889
-0.0031905
0.00194678
-0.00123924
-0.0683635
-0.00553993
0.00761711
0.00280627
0.000266808
-0.000618283
0.00379532
0.0157961
0.00911323
-0.00155701
0.0121784
0.00125553
-0.0159112
-0.00687902
-0.0131179
-0.00187959
0.00995219
-0.0121758
-0.0176478
-0.0223888
0.0088803
0.00622908
-0.0341158
0.0115107
-0.0639025
0.0102031
-0.0423713
-0.0199765
-0.0493933
-0.00755545
0.00729953
0.0019854
0.00844713
-0.0709052
-0.0676974
0.00280681
0.000926248
-0.0143294
0.000186417
0.000414645
-0.0685248
0.00144514
0.00894112
-0.0681587
-0.0405635
-0.000193757
0.00398849
0.0134905
-0.0697913
-0.0291
-0.0199046
0.00157324
-0.0533124
0.000704604
-0.0333639
-0.0107679
-0.00729112
0.00831738
0.0110228
0.023655
-0.0105081
-0.0242729
-8.56271e-05
-0.00426439
-0.0684355
-0.045157
-0.0436926
0.0109352
-0.00326938
0.00345098
0.0097133
0.00773285
0.0260398
0.0122338
-0.0262729
0.000411078
-0.0145037
0.00677594
-0.000599475
-0.00444704
-0.00290733
-0.053049
-0.00855342
0.0131555
0.00167156
-0.0147315
-0.00337462
0.00982101
0.00786338
-0.0412413
0.000548944
-0.0192068
-0.011343
0.00854759
-0.034919
-0.0715983
-0.0399377
-0.00617312
-0.000283798
0.00320045
-0.0503102
0.0120435
0.00114089
-0.0321606
0.00361171
0.006265
-0.0162525
-0.0071703
0.0101185
0.00927739
0.00131354
0.0216923
-0.0341754
-0.0223912
0.0076176
0.0018369
-0.0119467
-0.0677906
-0.0180681
0.000428979
0.00695387
0.00296478
0.00431426
0.000396446
0.0012182
0.00815284
0.00148207
0.00882626
0.00117804
0.00318006
0.00821188
-0.0290926
-0.0567997
0.000724765
0.00492042
0.00686396
0.00142304
0.00309604
0.00303376
0.00802317
0.00873107
-0.0307286
0.010547
-0.0111863
0.010748
0.00738138
0.000211497
-0.0703327
0.00387263
0.0251859
0.0164105
-0.0344802
0.00483159
0.00219104
-0.0245007
0.0011737
0.011577
0.0254752
0.00090341
-0.0665187
-0.000599603
-0.00118451
0.00720213
-0.00788448
-0.00995715
0.00860749
0.00252725
0.00216963
0.00336816
0.00349589
-0.0414053
0.000497006
-0.0358668
0.00671568
0.00320708
0.00349265
0.00334198
0.013645
9.68837e-05
0.00906068
-0.022728
0.00367871
-0.0295012
-0.0680489
0.0145944
-0.0172489
0.0111624
0.00303741
0.000452955
0.00724319
0.00331992
-0.016597
0.00982453
0.00207992
0.00614411
0.000729983
-0.0453548
0.0243141
0.00982065
-0.05128
-0.0276661
0.00710298
-0.00872099
0.00278775
0.00378981
-0.00879502
-0.00052792
0.00552536
0.00663902
-0.00557125
-0.00831674
-0.0689362
0.0017602
-0.0396854
0.00529814
0.00409607
0.00010079
0.00150683
0.019617
0.0104007
-0.00274355
0.00149981
0.00987223
0.00198423
0.00858107
0.0135083
-0.0106663
0.0257584
-0.0354062
0.00184327
0.000844883
0.00797212
0.010316
0.00159269
0.00357278
-0.00244715
-0.00116317
0.00959156
0.00175678
0.0234539
0.0020214
-0.0572923
-0.0370231
0.00384298
-0.0300674
0.0146335
0.000620111
0.00587573
0.00103587
-0.00227172
0.00173128
0.00293558
0.00146499
-0.0164536
0.000480132
0.00150834
0.00845851
-0.00213349
-0.0261349
0.0119741
0.00935514
0.00552757
-0.01101
-0.0341385
0.00832856
-0.0650897
-0.0125158
-0.0166229
0.000536273
-0.00864861
0.00907821
0.000753981
0.00587443
-0.0466589
-0.0193942
-0.00267675
0.00345374
0.000634811
0.00976685
0.000210305
0.00736843
-0.00797448
0.00363479
6.07105e-05
-0.00164214
0.01271
-0.0292949
0.00203937
0.0200835
0.000108362
-0.0091236
0.00828686
-0.0373822
-0.0162963
-0.0169254
-0.0111538
-0.0425221
0.00227993
-0.0584565
0.00115038
0.0201622
0.00046669
0.00774361
0.000452731
0.00901834
-0.0390812
0.00507081
0.00187754
-0.00989511
-0.0277673
-0.00102969
0.0125469
0.00460619
0.00890873
0.000605761
0.0083793
0.0215809
0.000566797
0.0156631
0.00607063
0.000786558
0.00148926
-0.00277985
-0.049313
0.0100911
0.000619429
0.0103778
-0.0677258
0.00326816
0.0194546
-0.0380027
-0.00252506
0.00052159
-0.0322126
0.00817383
-0.00518554
0.000945085
-0.036112
0.000371943
-0.0194328
0.011547
0.00730875
0.00170673
0.00915882
-0.0664249
0.0123854
-0.0399274
0.000257194
0.00082155
-0.0229987
0.00690131
-0.0347945
-0.0303886
0.000540208
0.0280281
-0.0368354
0.027838
-0.024725
0.00879296
0.00796948
-0.0329271
-0.0331767
-0.0679627
0.00905475
0.011926
0.0086277
-0.0416512
-0.0197827
0.00904597
-0.00140985
0.00256229
0.00300198
-0.033113
-0.00396612
0.012522
-0.0276854
0.00344205
0.00534595
-0.0237326
-0.0379233
0.0116254
0.00319285
-0.0702039
-0.0381937
0.000449568
0.00573761
0.00597346
0.000553289
0.000189088
0.0060967
-0.00232297
0.00776955
-0.0115579
0.0157504
-0.0485945
0.00694027
-0.0674318
0.00278138
-0.00429494
-0.0365492
-0.00602737
-0.00224723
0.00785903
-0.00987026
0.00326002
0.0127357
0.000602107
0.00586648
0.00597128
-0.0221963
0.00326508
0.000855442
-0.0556165
0.00545108
0.0115411
0.00724204
0.000458814
0.00315435
-0.00373345
-0.0269713
-0.0669645
0.00342901
-0.0139935
-0.00525515
0.0071566
0.00145313
-0.0423653
-0.00354812
0.00926385
-0.0233968
0.00212682
0.00496306
-0.0262324
-0.0244321
-0.0021317
-0.0003911
-0.00251178
0.0272558
-0.0136032
0.00019335
-0.0216449
0.00761385
0.00679977
0.0218594
-0.0389955
0.00811566
-0.0503124
0.0101334
-0.0549585
-0.00205095
-0.00153728
0.00691753
0.00912994
-0.0017801
0.000605685
0.00670277
-0.0427059
-0.0520825
0.0177423
-0.0341979
0.0120727
-0.0256511
-0.0366712
-0.00330027
0.00904156
0.00448939
0.000195558
0.00566151
-0.0285695
0.00791744
0.00808575
0.00822343
-0.0370904
-0.0244057
-0.0684097
0.00572839
-0.0308071
0.00876095
0.0101985
0.00638239
0.000461514
-0.071392
0.00762284
-0.0319507
0.0221534
-0.000298845
-0.0198397
0.0150935
0.011528
0.00803419
-0.0187468
0.00110483
0.00713298
0.00572781
0.0059059
-0.0235969
0.007933
0.00568044
0.000547565
0.00625114
-0.00142553
-0.0283318
0.00402402
-0.00830218
0.000225491
0.0095569
0.000480601
-0.0349787
0.0207803
-0.00375983
0.00410489
0.0120097
-0.00357105
0.00660261
0.000465506
0.0141388
0.00153955
0.00129196
-0.0477837
0.00220837
0.00550597
0.000802874
0.000577066
-0.0131266
-0.0504348
-0.0320233
-0.00414279
0.00938278
-0.00148561
0.000165313
0.00189935
-0.0292499
-0.0270505
0.000395077
0.0104435
0.0180328
-0.0312
0.00912669
0.00820279
-0.0272991
0.00705243
-0.00218122
-0.0288226
-0.0222364
0.00767324
0.000481632
0.00877796
-0.0269653
-0.0179853
0.00168018
-0.0209241
-0.0681
0.00712894
-0.0250949
0.0208641
0.00600539
-0.0364698
-0.0169508
0.0106537
-0.0716213
0.0101385
0.00283072
0.00150837
-0.0269716
-0.00277039
-0.0222154
0.00736959
0.00804132
-0.00330699
-0.0045237
-0.0256397
-0.0254867
-0.0038473
0.00860567
-0.0184436
-0.0168502
-0.0673018
0.00918248
0.000100957
0.00577135
0.000744028
0.00152638
0.0103061
0.0119121
0.0087384
0.0232375
0.0187263
0.00274061
0.000569424
0.00011615
0.000468669
0.0120315
0.00542646
0.00197763
-0.0131173
0.00327083
0.0147105
-0.0163021
0.0232217
0.00942231
-0.0272476
0.00390778
0.00231333
-0.0269071
-0.0656287
-0.0669328
-0.00242495
0.00273966
-0.0583225
-0.00534755
0.00148396
0.000663669
0.00472691
-0.00746585
-0.0150963
0.000491992
-0.0687587
-0.0249664
0.00662167
-0.0392121
-0.0480357
0.0125724
0.0160218
-0.0319213
-0.0675083
0.00424649
-0.0154585
0.000138213
0.00911946
0.00060391
0.0078242
-0.0275129
-0.0553698
-0.071141
-0.0585599
0.0065389
0.0105914
0.0138824
0.000488331
0.00674455
0.00157236
-0.0460575
0.00521488
-0.0315585
0.0116149
0.00942868
-0.0122934
-0.0228988
-0.0410613
-0.0307459
-0.00694728
0.000424402
0.000473867
-0.0328079
-0.0363053
0.00346257
0.00432014
0.00152528
-0.00102201
0.00496781
-0.0211381
0.0176862
0.00680541
0.00148851
-0.0176172
-0.00100668
-0.0301668
0.00634035
0.0057378
-0.0147137
0.0059861
-0.0269912
0.000499123
-0.0262663
0.000617312
0.00705906
0.00809207
0.0136895
0.00944409
-0.000330198
-0.00806186
-0.0702779
-0.0527412
0.00350605
0.00294639
0.00700736
-0.031837
-0.0686645
0.00279357
0.000575195
-0.00644374
0.00029459
-0.021663
0.000288508
0.00970501
0.00446853
0.0121253
0.0120654
0.00403123
0.012765
-0.0148702
-0.0399396
0.00774725
0.0107404
-0.0566081
0.0064382
0.0250519
0.0108015
-0.0563265
0.00102608
0.0125146
0.00992659
-0.000662694
-0.00342192
-0.0686216
-0.0679123
0.0131915
0.000477422
-0.00273837
0.00302555
-0.0290607
-0.00697881
-0.043386
-0.0702289
0.00788788
0.0207841
0.000117859
0.0111769
0.0080213
0.0106319
-0.0286903
0.00718849
-0.0144641
0.00300417
0.00717345
0.00311082
0.00845586
-0.0500421
-0.0243882
0.00659182
-0.0676737
-0.0384627
0.000458396
0.00971611
0.00131715
0.00144073
-0.0251862
-0.0218422
0.00821106
0.00747234
0.00378319
0.00359853
-0.0073457
-0.0677493
0.00663708
-0.0293324
-0.00358754
0.00920605
0.00975377
0.00305756
-0.0140338
-0.00652985
0.0015302
-0.0287425
-0.000110953
-0.0426548
0.000435109
0.00456982
0.0008158
-0.0718704
-0.0642482
-0.00166362
-0.00215526
0.00479129
0.00924908
0.00458343
0.0139448
0.00159993
-0.0672227
0.00552632
-0.067022
0.009653
-0.0378408
0.01912
-0.0316278
-0.00105808
0.00112094
-0.0682258
0.011925
0.0208525
-0.0251241
0.00277415
-0.000473915
0.00269794
-0.072935
-0.0681276
0.0104345
-0.00109294
-0.000632999
0.00418102
0.0113404
0.0129188
-0.0638466
-0.00758024
0.00489231
0.0123194
-0.000478303
0.0249155
-0.0227808
-0.00135579
-0.022183
0.0014752
0.00267869
0.0292237
-0.026519
0.0104996
-0.00305733
-0.0500125
-0.0383273
0.00308733
0.0112394
0.00459882
-0.0417086
-0.0462916
0.0110625
-0.0314976
0.00836016
0.00447165
0.00787072
-0.0586483
0.00989892
-0.00156607
-0.0672978
0.00810656
0.00724852
0.00520568
-0.0689536
0.00785266
-0.0460981
0.00575406
0.0190115
0.0102553
0.00750604
-0.0205961
-0.0676553
-0.00829914
0.00895429
-0.00950194
3.95941e-05
0.00950007
0.0111863
0.00021228
-0.0123802
-0.0129391
0.0112329
-0.0375928
0.00364247
-0.0174986
0.0125431
0.024454
0.00220664
-0.0321205
-0.0313588
0.00150574
-0.00394031
-0.0138776
-0.0706353
0.00918915
0.0154922
0.00175764
0.0146184
-0.0288992
0.015508
-0.0337083
0.00812949
-0.0103037
0.00794482
-0.0351789
0.000455316
0.0045222
-0.00101096
0.0135256
-0.0669895
-0.028101
-0.0133315
0.00411518
0.00147788
0.0122997
0.00786759
0.00058671
-0.0192236
0.000129545
-0.00727386
0.00903415
0.00682941
0.00715002
-0.00553529
0.00267231
0.00751136
0.00887549
0.0117325
-0.0211863
0.00544413
0.017331
0.0236235
0.00268686
0.00986872
0.00785366
0.00995619
0.00178313
0.00474698
0.00246246
-0.0159463
0.000468288
0.0095138
0.00611024
0.0085353
0.00123845
-0.030604
0.009421
0.00658697
-0.0320342
0.00342182
0.016755
-0.0344698
-0.0162581
0.00575624
0.00656213
0.00747653
0.00834444
0.000602089
0.000603523
0.00328465
-0.0709407
-0.0260715
-0.033921
0.00759459
-0.0683106
0.00782334
0.010152
0.000507356
-0.044672
0.0114262
0.00432484
0.0115201
-0.0264425
-0.0664933
-0.00832868
0.000578591
0.00534574
0.00159086
0.0117777
-0.0234259
0.00724053
-0.000335361
-0.0705702
-0.0294604
0.00244774
0.00373425
0.00420014
-0.0637662
7.12454e-05
-0.0672324
-0.0716293
-0.00486656
-0.000473612
-0.0546421
0.019123
0.00234123
-0.00685694
0.00256363
0.00731764
0.00149747
0.00447299
-0.0341914
-0.0678906
-0.0680975
0.000661956
-0.0285551
0.0090671
-0.016452
0.000793598
0.00787872
0.00736817
0.0024625
-0.0652993
0.00736414
0.0141523
-0.0418025
-0.067277
0.00391065
-0.0111257
-0.0666837
-0.0411222
0.00391487
-0.0686213
0.00129265
0.000360889
0.0098938
0.000452742
0.000746416
-0.0695736
0.0073147
0.000832624
0.0115142
-0.0714382
-0.0681448
0.0169529
0.00241638
0.0138774
0.0113354
-0.0655597
0.00205618
3.9261e-05
0.00821379
0.0226818
0.00374941
0.00172728
-0.0692202
-0.00662365
6.99235e-05
0.00226041
-0.00135589
0.00930727
-0.0255994
0.00126032
-0.0684097
-0.00378457
0.0102438
-0.0692788
-0.0676327
0.00101459
-0.0134762
0.00709356
-0.0681868
-0.0021325
0.0184454
0.000297338
0.00885947
0.0146025
-0.0525669
0.000581858
0.000413253
0.00148992
-0.0158356
-0.0033969
-0.0721526
-0.056001
0.00987901
-0.0308843
0.00707435
-0.00426976
-0.0476402
-0.0688252
0.0116614
-0.0443591
0.00836122
0.0124902
0.00172202
-0.0190687
-0.00274585
0.00736278
-0.0390869
0.0010288
-0.0746978
-0.000191262
0.00125855
0.0123726
0.00910162
-0.0383962
-0.00502988
-0.0350502
0.00811486
0.00559666
0.0115663
-0.0407394
0.00031376
-0.0382901
0.000279439
-0.069541
0.00754599
-0.0391341
-0.0141957
-0.0633028
0.0124303
0.000498307
0.00422043
-0.03492
0.000503094
-0.000718204
-0.000437195
0.00856787
0.000681517
0.0118123
-0.0640278
-0.021696
-0.0694349
-0.067989
0.00532639
-0.0536302
-0.0412581
-0.0216853
-0.0679467
-0.0407116
0.0109553
-0.0729005
0.00469258
0.000625156
-0.0256118
-0.0374873
0.000545746
-0.051332
0.00600513
0.0105233
0.00604483
-0.0543421
-0.0245187
-0.0287901
0.00824571
0.00869564
0.00738054
-0.0348144
-0.0675944
0.00811228
-0.00975538
-0.00527178
0.0113339
0.00885522
-0.0440929
-0.0431475
0.00781805
0.0133264
0.00761116
0.00802094
0.000616191
0.00988993
0.00169948
0.0080271
0.0255321
-0.0443985
-0.000302463
-0.042884
0.00970609
0.00860679
-0.0470831
-0.0400983
0.0098996
0.00889744
0.0119186
-0.00164629
0.00415458
0.000527275
0.00743918
0.00185524
-0.00243914
0.0108517
0.00184353
0.0085217
-0.0176394
0.0226918
-0.0413347
0.0112736
0.00820501
-0.0365746
-0.000441633
0.00370378
0.00214098
0.0143146
-0.000629952
0.00874252
0.00262105
0.00432254
0.00976436
-0.0431437
-0.0016623
0.00869918
0.00642995
0.000562468
0.00745101
0.0210238
-7.30806e-05
-0.0149076
-0.068117
0.00899605
0.0085135
0.0115291
0.00996946
0.00434481
0.00901233
0.00701523
0.017597
-0.0482419
0.00186688
-0.0202112
-0.0453028
0.000416273
0.00647838
0.00464121
0.00433401
0.00261388
0.00437452
0.0119019
-0.0247793
0.00929886
0.000691309
-0.0451931
0.000420588
-0.0017322
0.00108398
0.000422864
0.00384661
0.00131707
0.000639569
-0.0403128
0.00995253
0.00244767
0.0284922
0.00929976
0.00988338
-0.00290243
-0.0522091
-0.0678502
-0.0179856
-0.00102467
-0.0434338
-0.0207809
0.000270126
0.00954283
0.000701427
0.0278579
0.00484653
0.00594071
-0.0022865
-0.00131085
0.027614
0.0233985
0.00245436
0.000508164
0.00891559
0.000702362
0.000783536
-0.000797659
-0.0653051
-0.0463889
0.000410681
0.00858335
0.000989478
-0.0156302
-0.0405443
-0.03981
-0.000320485
-0.0251525
0.00437872
-0.0233872
-0.0225901
-0.000551821
0.00852216
0.00854361
1.27941e-05
0.00802708
0.00609667
0.00532015
0.00610383
-0.0442522
-0.016233
-0.0348126
0.00509432
-0.00951948
-0.0200976
0.00993934
0.00114702
0.000862529
0.00111969
0.00974689
-0.0027869
-0.00456136
-0.0010486
-0.0282822
0.00435556
-0.0680569
-0.0149792
-0.038261
-0.0259005
0.00744072
0.00147024
-0.00266003
0.00826804
0.00100836
-0.00303634
-0.0414395
-0.0273653
0.00946995
0.0092077
0.000528497
0.00591221
-0.00757282
0.0013183
0.00700692
-0.0336812
5.61891e-05
-0.00128419
0.00649438
0.00952131
0.00886982
-0.025816
-0.0364903
0.0110646
-0.0364137
-0.0217715
-0.0294638
0.000491795
0.00816061
0.00306072
0.00705722
-0.0587444
0.000751201
-0.0707884
0.000951241
0.0031533
0.0138213
-0.0311095
-0.0078237
-0.0213706
-0.00432848
0.00154526
0.0131931
-0.0719333
0.01291
0.000670053
0.00225016
0.00794634
0.0107219
0.00226213
0.00167945
-0.0257454
-0.0275204
-0.0338532
0.0216206
-0.0338472
-0.0688618
-0.0146253
-0.0260296
-0.0149528
0.000465644
0.000474544
0.000327121
0.00761449
-0.0337853
-0.0359161
0.000629671
-0.0707932
-0.0255239
-0.00267516
0.00179371
0.0112775
-0.0341007
-0.0445495
-0.040671
0.0278584
-0.038171
0.000289251
-0.0319271
-0.0167131
0.000847188
-0.0245487
0.0104934
-0.0199325
-0.0706034
0.0102692
-0.0373551
0.00743991
-0.000893346
-0.0698229
-0.0279019
-0.0151729
0.00613414
-0.048647
-0.0185744
-0.0245038
-0.0311918
-0.0451411
-0.0211835
-0.0337557
0.00907834
0.00188174
-0.00851772
-0.0298542
0.00127463
-0.0276669
0.00189947
-0.00343205
0.0171592
0.0021162
-0.0427489
0.0112426
-0.0222773
-0.0405407
0.0118282
0.0120009
-0.000115389
-0.0274019
-0.0340022
-0.0115953
-0.0001205
0.00318987
-0.0324785
0.000888634
0.000764134
-0.00539902
0.00513217
-0.0283111
0.00423132
0.00903984
0.00560985
0.00139412
-0.00764417
0.00765699
-0.0213726
0.00219849
0.0026523
-0.0222432
-0.0179412
0.00156915
-0.0727465
-0.031624
0.0123723
0.0106796
0.0079175
-0.0266403
0.00486781
0.000625625
-0.0176966
0.00753043
-0.0299127
-0.0352185
-0.0155343
0.0128934
0.00589066
0.0142763
0.00179393
0.00314415
0.00391433
-0.0289535
-0.00814052
0.00467809
0.00187536
-0.0143041
0.00793182
-0.0462934
-0.0322838
-0.000439895
-0.0709249
-0.0114671
0.000951912
0.00301004
-0.0285551
-0.02718
-0.0633099
0.0123907
0.000674249
-0.0134503
0.00851303
-0.00980361
0.00400245
-0.00620152
0.00233654
0.0249208
0.00264549
0.000187687
0.00342208
-0.020342
-0.0237883
0.0238095
-0.0455263
-0.0373999
0.000357036
-0.0271365
-0.0270417
-0.0299449
0.00149125
-0.0113785
-0.0315128
-0.0676315
-0.0193551
-0.0309094
-0.00497385
-0.0265377
-0.00948128
-0.0323352
0.00240621
-0.00917777
-0.0086943
0.0107288
-0.0147034
-0.0680878
-0.00193124
-0.0673176
-0.0211014
0.0081032
0.00299448
0.00307912
0.0107096
0.000434045
0.00135323
0.00242329
-0.0236963
-0.0245587
0.00995985
-0.018907
0.00223945
0.0111056
-0.0672962
-0.0304239
-0.0675924
0.000886984
-0.0324211
0.00343696
0.00128862
0.00476706
-0.0415036
-0.0205654
-0.0309429
-0.0252096
0.00717474
0.00224179
0.0105291
0.00960362
0.000673067
-0.0685094
-0.0249311
0.00480346
-0.0412946
-0.0487494
0.00506418
-0.0649448
0.0106183
0.00156148
0.0088324
0.0114444
0.000469833
0.00311592
0.00442822
-0.0405627
-0.029153
0.00129486
-0.00788054
0.0041303
0.00664254
-0.0615569
0.026665
-0.0280044
0.0034871
-0.0154941
-0.0298899
-0.0160914
-0.0182263
0.00638908
-0.0353085
-0.0224443
-0.0256984
0.00141654
-0.0349202
0.000672812
0.00616568
0.00935991
-0.00184584
-0.0241519
-0.0395626
-0.00687641
-0.0676233
-0.00159526
0.000964196
0.0044423
0.00903885
0.00543342
-0.00673113
-0.0258001
-0.0252707
-0.015257
0.000359674
0.00746743
0.000260213
0.00289313
-0.0268782
0.0151605
0.00355353
0.00487978
-0.019647
0.0300081
-0.0268391
-0.0117299
-0.0679541
0.0070444
-0.0613117
-0.0307564
-0.0283301
-0.00525336
0.00356718
0.00209683
0.00943018
-0.0454237
-0.0670883
0.000406308
-0.0367075
-0.0315416
-0.0239363
0.000908246
0.0215956
0.01122
0.00539418
-0.0181541
0.0136251
0.004343
0.00391236
0.00341609
0.00614768
-0.072452
-0.0228415
0.0083289
0.00784849
-0.00229254
0.0104042
0.00163055
0.0254072
-0.0164928
0.000301939
-0.0672497
0.00961477
-0.0277093
0.0140745
0.0071902
0.00805498
-0.0296713
0.0112868
-0.0221647
-0.0630667
0.00210876
0.00862212
-0.0204209
0.0260007
-0.0199875
0.0114777
0.00549872
-0.00950525
0.000879883
-0.0231424
-0.00183454
0.00547016
0.000968361
0.0114454
0.00152183
0.00730718
-0.0103546
-0.00784121
0.00905927
0.0112078
-0.0557636
-0.0695994
0.0187089
-0.00608399
0.000387996
0.0241476
-0.00296952
-0.0136641
0.00266903
-0.00895556
0.0304596
0.00102327
0.00988621
0.00669105
0.01117
0.00741732
-0.0223615
0.00157987
-0.0233427
0.0119916
-0.0400111
-0.0237407
0.0013943
0.0261211
-0.0140265
-0.0253818
-0.0679851
0.0104235
0.00509218
-0.00814328
-0.00102731
0.00239929
-0.033158
-0.0234196
-0.00962063
0.00539629
-0.0221297
0.0138932
0.0282759
0.00962373
-0.00675757
0.00168165
0.0074539
-0.0124458
0.0062821
0.00434846
0.00467558
0.00471118
0.0279702
-0.0455927
0.00532089
0.0293269
-0.027001
0.000961782
0.000195669
-0.0226385
-0.0140528
-0.0202338
0.0104066
0.00360467
0.0174583
0.00101792
0.00424787
-0.00203591
0.0027533
-0.0227891
-0.016516
0.00198634
-0.0238038
0.0027631
-0.0180824
0.00521579
-0.0103834
-0.00308218
0.00264665
0.0268964
-0.00605133
0.00735651
0.00872703
0.00403144
0.0019273
0.000719768
0.0151394
0.00918965
0.0150696
-0.0186889
-0.015269
0.00141827
-0.0224829
-0.0023745
-0.0625675
0.0109043
-0.0301344
-0.00172415
-0.0283471
0.00326623
-0.0160139
0.00134461
0.00769389
-0.0106572
0.0215696
0.00151891
0.00386916
0.000430025
-0.0141899
-0.0278345
0.00122431
0.00338011
0.00359174
-0.0464926
0.0261659
0.0246659
0.000495966
0.00240054
0.015633
0.0116109
-0.00223435
0.030109
-0.0278288
0.0240318
-0.0319195
0.0046011
0.0145357
0.0126465
0.00703976
0.008973
-0.00488245
0.0053746
0.0169137
0.00483262
-0.0677853
0.00320096
-0.0383221
0.000761152
0.0133356
-0.00230095
-0.0139783
0.00342432
-0.0206557
0.00599353
-0.012507
0.0199517
0.0053315
-0.0711221
-0.0234728
0.00892437
0.010745
0.00362365
0.00892121
0.00367121
-0.0135208
0.000342839
-0.068047
-0.02891
-0.0175
0.00537995
0.000570908
0.0180413
-0.0137699
0.0255189
0.00960624
0.0101166
-0.0114892
0.0105318
-0.00289864
0.00913992
-0.0296123
0.00843828
0.00728194
-0.0456567
-0.00247265
0.00582803
0.0051903
0.00903471
0.000771921
0.00831471
-0.0272572
0.00217447
0.00210525
-0.0375543
-0.0216526
-0.0125948
0.0287694
0.0275799
-0.026315
-0.029315
0.0174084
0.00572356
0.00811596
0.00772189
0.00163948
0.00928737
0.00542768
-0.0712185
-0.00220517
0.0108153
0.00243064
0.00684887
0.0149267
0.000653895
0.000497604
-0.00341869
0.00742458
0.00770263
0.0255828
0.00044249
-0.00704547
0.0105691
0.000778712
0.0196706
-0.0138847
0.00838855
0.0234525
0.0126237
0.0265424
0.0248053
-0.0545893
0.00131949
-0.0539751