/*--------------------------------*- C++ -*----------------------------------*\
| =========                 |                                                 |
| \\      /  F ield         | OpenFOAM: The Open Source CFD Toolbox           |
|  \\    /   O peration     | Version:  v2012                                 |
|   \\  /    A nd           | Website:  www.openfoam.com                      |
|    \\/     M anipulation  |                                                 |
\*---------------------------------------------------------------------------*/
FoamFile
{
    version     2.0;
    format      ascii;
    class       surfaceVectorField;
    location    "400";
    object      ddtCorrDdt0(Uf);
}
// * * * * * * * * * * * * * * * * * * * * * * * * * * * * * * * * * * * * * //

dimensions      [0 1 -2 0 0 0 0];


internalField   nonuniform List<vector> 
20642
(
(-0.0548284 0.0169029 2.52209e-18)
(-0.0573256 0.0155477 3.37411e-17)
(-0.0580508 0.0152169 2.02467e-17)
(0.0187421 -0.0518116 7.25286e-19)
(0.0180832 -0.0574994 9.51161e-19)
(0.011468 -0.0532899 8.85265e-19)
(-0.00695519 0.0493079 2.84996e-18)
(-0.00633729 0.0488929 -1.43831e-18)
(-0.00710635 0.048428 -1.71283e-18)
(-0.00327696 0.00225238 -2.02261e-18)
(-0.00348065 0.00230769 -3.1728e-18)
(-0.00333405 0.00214681 -1.13458e-19)
(0.0034429 0.0207309 4.41915e-20)
(0.00606102 0.0226632 -8.18065e-19)
(0.00626875 0.0193589 -1.68079e-19)
(0.0184015 -0.0446415 4.62417e-19)
(0.0240209 -0.0470595 2.1978e-18)
(-0.00617447 0.00992003 2.53977e-18)
(-0.00629339 0.00933511 -1.05532e-18)
(-0.00672313 0.00973448 -3.43732e-19)
(-0.167254 -0.162828 -3.94517e-18)
(-0.18555 -0.184351 -8.65089e-19)
(-0.192316 -0.144027 2.6605e-19)
(0.00119839 0.00761634 -7.15374e-18)
(0.000896954 0.00777991 5.1582e-18)
(0.00119696 0.00804048 3.24631e-18)
(-0.0101862 0.0472563 1.85763e-17)
(-0.0136138 0.0341007 2.34068e-17)
(-0.149034 -0.136718 -8.96484e-19)
(-0.129618 -0.161055 -4.50356e-18)
(-0.00279551 0.000651325 4.70627e-19)
(-0.00295733 0.000644504 -4.77509e-19)
(-0.00284719 0.000739399 -1.89601e-18)
(-0.000655457 1.44512e-05 -9.23272e-19)
(-0.00064623 3.85982e-06 1.59351e-18)
(-0.107692 -0.0394942 -5.7343e-18)
(-0.078268 -0.0731475 4.32938e-18)
(-0.137024 -0.0822517 -1.06752e-18)
(0.0150613 -0.0126868 4.26305e-19)
(0.0165763 -0.0140711 -5.77102e-19)
(0.0141028 -0.0144872 4.09112e-19)
(-0.0512718 0.0179281 -9.17142e-18)
(-0.0393823 0.0161367 1.15755e-17)
(0.000118599 -1.15387e-05 4.18685e-20)
(0.000113745 -1.8198e-05 -2.99548e-19)
(2.71754e-05 -1.0109e-05 -3.9788e-19)
(-0.128832 -0.116171 3.38711e-18)
(-0.110007 -0.0958144 -1.73761e-18)
(-0.0900356 -0.11534 -3.31726e-18)
(-0.00700137 0.0504028 -2.65689e-19)
(-0.00636578 0.0507206 1.10169e-20)
(-0.00709606 0.0513012 3.33738e-18)
(-0.0704971 -0.0175635 8.19803e-17)
(-0.0736309 -0.0215404 1.00771e-17)
(-0.0728986 -0.0138047 3.06725e-17)
(-0.0221816 -0.000741164 3.49629e-19)
(-0.0230704 0.000951291 -2.80135e-19)
(-0.0238903 -0.00087886 7.21361e-19)
(0.00125779 -4.57352e-05 -5.59131e-20)
(0.00128193 -0.000253576 -4.45463e-20)
(0.00150663 -9.85802e-06 4.65007e-19)
(-0.012155 0.0267314 3.60786e-19)
(-0.0109381 0.0265897 -9.04565e-18)
(-0.011823 0.0279459 -4.00397e-18)
(0.0011542 0.000212147 -1.54526e-20)
(0.00107201 -5.65019e-05 -2.87323e-19)
(-0.00682024 0.00205654 -1.03004e-19)
(-0.00705327 0.00225206 -5.18439e-19)
(-0.0070988 0.00198242 1.0389e-19)
(-0.0316638 -0.00192858 1.42509e-20)
(-0.0286308 -0.00157837 -1.00303e-19)
(-0.0296256 -0.00429693 2.72696e-19)
(0.10962 -0.48677 1.16998e-17)
(0.106611 -0.548625 -7.53052e-18)
(0.220052 -0.199785 -1.23773e-18)
(-0.0183429 0.0344588 -8.43131e-18)
(-0.0686023 -0.0292337 3.79859e-19)
(-0.0621865 -0.0221876 -1.83824e-20)
(-0.0575016 -0.0316282 2.48062e-19)
(-0.000855691 0.0039932 -2.9932e-20)
(-0.00120735 0.00411447 -3.07884e-20)
(-0.00106692 0.00370915 -2.78968e-20)
(-0.0171514 0.0214304 -6.83176e-18)
(-0.0311225 0.0254701 -5.61264e-18)
(0.00210872 0.0381047 9.19116e-18)
(0.00302091 0.038742 -5.12731e-19)
(0.00163714 0.038956 2.57591e-18)
(-0.00452535 0.00157458 -1.56589e-18)
(-0.00435321 0.00144927 1.8064e-21)
(-0.00428175 0.00157739 2.79703e-18)
(-0.043331 0.0226978 -9.38944e-19)
(-0.0382111 0.0226126 -5.72156e-18)
(-0.0386036 0.0241192 1.74066e-17)
(-0.0018419 0.000170568 1.84986e-19)
(-0.00169717 -3.63145e-05 -1.4214e-20)
(-0.00199108 -0.000152806 -2.6816e-19)
(-0.18467 -0.216561 -6.6824e-19)
(-0.201315 -0.198921 -8.82066e-21)
(-0.00705612 -0.00619115 -6.01453e-20)
(-0.00758299 -0.00575053 8.60108e-19)
(-0.00769567 -0.00659682 7.48156e-19)
(-0.00044447 -9.56228e-06 -5.32642e-20)
(-0.000417665 -2.27059e-05 -5.9952e-19)
(-0.000462165 -1.66679e-05 4.01707e-20)
(-0.00606394 0.0104462 2.09812e-18)
(-0.00567585 0.0100102 1.43793e-18)
(-0.0133658 0.00114091 -4.03291e-20)
(-0.0125886 0.000546871 -3.46996e-19)
(-0.0137793 0.000332361 1.13365e-18)
(-0.000279387 -4.08326e-06 -1.20587e-19)
(-0.000246068 -1.29958e-06 2.63472e-21)
(-0.000331971 -2.28211e-05 -2.43909e-19)
(-0.001331 -0.00573635 -3.62536e-20)
(-0.00224199 -0.0063731 7.04102e-20)
(-0.00233435 -0.0054169 1.29309e-19)
(0.000316874 0.00582706 -3.29087e-18)
(-2.16903e-05 0.0058697 -1.78647e-17)
(0.000166685 0.00554256 -1.05712e-17)
(-0.00366844 0.0485228 6.82507e-18)
(-0.00312111 0.0484417 2.98691e-18)
(-0.00368514 0.049038 -4.71847e-18)
(-0.0038458 0.0479995 1.63614e-17)
(-0.00429872 0.0486247 6.26287e-18)
(-0.111091 0.150618 7.32118e-18)
(-0.101863 0.136639 -1.13617e-18)
(-0.0980764 0.156373 1.37142e-18)
(-0.0209189 -0.00201126 3.45994e-20)
(-0.0202117 -0.00068239 -3.16651e-20)
(0.0432863 -0.326059 -3.91364e-17)
(0.0151817 -0.281193 -2.35288e-18)
(0.0752592 -0.266516 -5.73922e-18)
(0.0296529 -0.266204 -1.0613e-18)
(0.0111942 -0.357656 -1.0281e-17)
(0.0193003 -0.289458 -1.21475e-18)
(-0.00176639 0.000408045 -1.18674e-19)
(-0.00203287 0.000338782 2.72529e-19)
(-0.00274251 0.00056569 1.27584e-18)
(-0.00265952 0.000666464 -2.04355e-18)
(-0.0534195 0.0728438 -2.8884e-19)
(-0.0586416 0.0771183 5.49813e-19)
(-0.0597642 0.0699002 -2.47868e-20)
(-0.040255 0.0189599 -3.89169e-18)
(-0.0673627 0.024029 -1.30997e-17)
(-0.0417814 0.0182403 1.17531e-18)
(-0.00144511 -0.0015799 2.39966e-19)
(-0.00137593 -0.00141158 9.32981e-20)
(-0.00125252 -0.00158079 3.17018e-18)
(-0.00195578 -0.00166112 -4.61474e-18)
(-0.00183269 -0.00151869 -7.52032e-19)
(-0.00202917 -0.00141718 -3.29653e-19)
(-0.050156 0.0696862 8.12799e-20)
(-0.0484475 0.0759036 1.90136e-19)
(-0.0319522 0.00109885 -6.678e-18)
(-0.0133006 0.0266058 5.2039e-18)
(-0.0123015 0.0254514 -7.5352e-18)
(-0.000692653 -0.00504393 -9.90673e-20)
(-0.000384553 -0.00579839 2.46494e-19)
(-0.123389 0.165062 7.25969e-18)
(-0.128142 0.141653 -2.23952e-18)
(0.0956694 0.33273 -7.92537e-18)
(0.109218 0.316153 2.79323e-18)
(0.101789 0.335943 -4.57915e-18)
(-0.0180472 -0.0330051 2.09384e-19)
(-0.0270415 -0.0302127 5.93679e-20)
(-0.0171748 -0.0218576 1.15722e-19)
(-0.000145982 5.61151e-05 1.69461e-19)
(-0.000112186 6.42218e-05 -2.6091e-20)
(-0.000147972 9.57586e-05 -6.24299e-20)
(-0.00651415 0.0021352 -4.97466e-19)
(-0.00655702 0.00189861 2.31506e-18)
(-0.000749996 0.0239658 -1.9644e-18)
(0.00198538 0.0232164 1.18622e-17)
(0.000346843 0.0208637 1.77372e-17)
(-0.00434076 0.030085 1.26188e-19)
(-0.00551257 0.027975 -3.92e-19)
(-0.00379105 0.0300946 5.03838e-20)
(-0.074268 -0.0387022 -9.36387e-19)
(-0.0806708 -0.0489358 1.94606e-19)
(-0.0660103 -0.05017 -1.09501e-18)
(-0.148423 -0.221799 3.42734e-18)
(-0.181391 -0.256184 -6.90528e-19)
(-0.159703 -0.105308 -3.7029e-18)
(-0.0650292 0.0252902 2.4409e-17)
(-0.0598754 0.0234832 4.80353e-18)
(-0.061769 0.0236723 7.95294e-18)
(-0.00489023 0.0340828 -6.70198e-18)
(-0.00249473 0.0345504 -4.83394e-19)
(-0.00406871 0.0316114 -2.14977e-17)
(-0.0481093 0.0220797 -1.00679e-17)
(-0.048117 0.0232656 1.48757e-18)
(-0.00127325 0.00116171 1.63955e-18)
(-0.00130453 0.00125049 -3.10549e-18)
(-0.00136366 0.0011797 5.25095e-19)
(-0.000220715 -0.00453469 -2.80069e-20)
(-0.000961053 -0.00440574 2.63352e-19)
(-0.0237306 0.00279838 -4.57598e-19)
(-0.0217934 0.00225985 -3.09986e-19)
(-0.00825923 0.000331743 5.30201e-18)
(-0.00858287 0.000566713 -1.46279e-19)
(-0.00853827 0.000111248 2.1011e-18)
(0.00398157 0.00799416 5.24049e-19)
(0.00490616 0.00867327 -8.90513e-19)
(0.00498998 0.00713625 5.46554e-19)
(0.000118511 -0.00398952 -2.4752e-19)
(0.000484249 -0.00445501 1.90578e-19)
(-0.00794898 0.000592171 -2.91346e-18)
(-0.0078642 0.000180951 -2.04969e-18)
(-0.00470937 0.00154189 -3.58803e-18)
(-0.00471196 0.00168048 -3.35603e-19)
(0.00154571 -0.00354593 2.03579e-20)
(0.00183249 -0.00325529 -1.21987e-18)
(0.00139153 -0.00312682 -1.94728e-18)
(-2.05054e-05 -5.41776e-05 1.63982e-19)
(7.91213e-06 -5.09542e-05 2.26384e-19)
(-8.49039e-05 -2.84305e-05 1.36613e-20)
(-0.00117505 0.00114627 4.69816e-19)
(-0.00122814 0.00106855 1.60008e-18)
(-0.019737 0.0407497 -1.75591e-17)
(-0.017784 0.0414105 4.14251e-18)
(-0.0193687 0.0426997 2.12554e-18)
(-0.000899705 4.6808e-05 -2.88605e-18)
(-0.000894242 5.67903e-05 7.74982e-19)
(-0.000903981 4.01481e-05 -1.10089e-19)
(-0.150226 0.0463845 1.38159e-19)
(-0.151703 0.0737591 -1.80018e-19)
(-0.163894 0.0398918 -7.75106e-18)
(0.00269548 0.0370437 7.34911e-18)
(0.00120551 0.037349 -4.83262e-19)
(-0.00080654 3.10596e-05 -2.96944e-18)
(-0.000828063 2.57896e-05 -9.2926e-20)
(-0.000761925 7.34852e-06 1.4853e-18)
(-0.0139433 0.00151968 -3.45439e-18)
(-0.0133553 0.00218018 -2.8199e-19)
(0.00011388 -7.26954e-06 3.04692e-20)
(0.0001493 -1.14911e-05 1.34913e-20)
(0.000155255 4.46174e-05 5.39005e-20)
(0.000132898 5.39638e-05 -5.30777e-20)
(0.000148233 7.00106e-05 -1.26059e-20)
(0.000429029 0.00614599 -3.94869e-18)
(0.0578099 -0.130602 2.52744e-18)
(0.0392645 -0.215681 -8.71181e-20)
(-0.000755717 -0.000242376 -1.32955e-19)
(-0.000654719 -0.000354479 -5.90409e-20)
(-0.000657127 -0.00023374 2.08383e-21)
(-0.00204213 -0.0034926 -2.09258e-18)
(-0.00168423 -0.00347097 6.27383e-19)
(-0.00181669 -0.00383441 -1.20775e-18)
(-0.0791157 -0.0247509 7.29215e-19)
(0.253107 0.186618 4.17209e-19)
(0.269459 0.175263 -7.4832e-18)
(0.239539 0.158999 2.46725e-18)
(-0.000445177 -7.56042e-06 -1.13855e-19)
(-0.000446749 -4.19948e-06 -2.34906e-19)
(-0.000465648 -4.57478e-06 -4.95156e-19)
(-0.00085177 2.96826e-05 -8.61701e-19)
(-0.000795551 2.95709e-05 -1.13201e-18)
(0.154273 0.0160449 -2.28354e-19)
(0.128011 0.0248076 -1.32545e-18)
(0.141586 0.0492998 -3.2328e-19)
(3.29129e-05 -3.17435e-05 5.71177e-19)
(1.1882e-05 -3.63991e-05 1.53782e-20)
(-4.25486e-05 -1.70194e-05 1.21593e-19)
(5.63851e-05 -3.10375e-05 -3.14294e-19)
(7.90631e-05 -5.60721e-05 -1.51741e-19)
(0.00164948 -0.00392508 9.38751e-19)
(0.00120443 -0.00371781 2.96793e-18)
(-0.000467276 1.88453e-05 1.17954e-19)
(-0.00045337 2.57292e-05 -3.69921e-19)
(-0.000439055 8.26419e-06 2.22425e-19)
(0.00311267 0.00705734 8.36975e-20)
(0.00273175 0.00853345 -4.58097e-19)
(-0.025892 0.0802025 4.11352e-18)
(-0.0267061 0.0765634 -2.63003e-18)
(-0.0272471 0.0806901 8.67688e-18)
(0.0139427 -0.0691044 -1.09314e-17)
(-0.00231014 -0.0650754 1.05283e-17)
(-0.00248964 -0.0855999 -1.84713e-20)
(-0.00466216 -0.0322302 -2.74292e-18)
(-0.0161661 -0.0430484 -5.73518e-19)
(-0.0020198 -0.00765991 3.44008e-19)
(-0.00341473 -0.00729794 -9.69778e-20)
(0.102387 -0.366684 5.0048e-18)
(-0.0130479 -0.757914 3.76921e-17)
(-0.000400194 4.85291e-05 -1.5505e-18)
(-0.000382675 6.07268e-05 7.87618e-19)
(-0.0327922 0.0222875 -2.17581e-17)
(-0.0371718 0.0208637 -1.37264e-17)
(-0.0566466 -0.0161294 5.35763e-19)
(-0.0642976 -0.0114724 1.29011e-18)
(-0.00320817 0.0243168 -8.1328e-18)
(-0.00156607 0.0262538 -4.93185e-18)
(-0.00931326 -0.000715785 5.31118e-19)
(-0.00963653 -0.000390462 -4.23611e-19)
(-0.00906554 -0.000372719 1.13226e-18)
(-0.00770333 0.0498973 -9.46913e-19)
(-0.00683216 0.0494668 1.7225e-18)
(-0.00034665 7.22218e-05 1.76184e-21)
(-0.000372506 9.73332e-05 -1.12738e-19)
(-0.000328359 8.64802e-05 1.34944e-19)
(-0.00450651 0.0492951 3.20802e-18)
(-0.00488011 0.0493992 9.7195e-18)
(-0.00442897 0.0496492 -9.54658e-18)
(-0.000717113 0.000939247 -4.07724e-18)
(-0.000789603 0.000964809 -2.05733e-18)
(-0.00075452 0.000879827 -1.06425e-17)
(-1.174e-05 -8.04995e-05 -4.75505e-19)
(-5.44827e-05 -5.32779e-05 3.00694e-20)
(-0.000343108 -0.0031916 3.39708e-20)
(-0.000446265 -0.00286895 2.61612e-19)
(-5.4105e-05 -0.00292815 2.09971e-19)
(-0.0865178 -0.0631923 1.30053e-19)
(-0.0960726 -0.0464279 5.03042e-19)
(-0.0198993 0.0536344 3.81567e-18)
(-0.0219425 0.0543411 2.93993e-19)
(-0.0208868 0.0517991 2.70189e-18)
(-0.097198 0.0286416 -1.9587e-18)
(-0.0948882 0.030944 -2.35582e-18)
(-0.0939291 0.0282133 1.247e-18)
(-0.0197753 0.039537 -1.04401e-17)
(-0.021051 0.0406944 3.95993e-18)
(-0.00625954 0.0021952 -3.75498e-18)
(-0.00599771 0.00224449 -3.24605e-18)
(-0.00602094 0.00204854 -5.51287e-19)
(-0.0257765 0.00324736 -4.0686e-20)
(-0.0240241 0.00509363 4.26094e-19)
(-0.000455594 0.000287385 2.2227e-19)
(-0.000475459 0.000389171 -2.66634e-19)
(-0.000442764 0.0002828 1.31774e-19)
(-0.0182228 0.052679 -1.52212e-18)
(-0.0184437 0.0549775 -2.59549e-18)
(0.000899143 0.0163028 -1.29117e-18)
(0.000443026 0.0168792 -5.29999e-18)
(0.00130031 0.0168575 -7.39818e-18)
(-0.292352 -0.124994 -5.08585e-20)
(-0.254986 -0.0970478 -7.74719e-19)
(-0.305795 -0.0780128 -3.01314e-18)
(-0.0349348 0.0711342 -1.43395e-17)
(-0.0381046 0.0713145 -4.07483e-18)
(-0.0364906 0.0681946 -2.86874e-18)
(-0.00965345 -0.00105936 -1.57877e-18)
(-0.00906147 -0.00108792 1.32668e-18)
(0.00109779 0.0426404 1.94115e-18)
(2.5882e-05 0.0431251 -2.3261e-18)
(0.0010816 0.0437131 1.26697e-18)
(0.0596936 -0.189841 -3.53774e-18)
(0.158626 0.0284146 -9.60264e-18)
(0.0927447 0.356693 -3.07046e-18)
(0.110958 0.319381 -3.51696e-18)
(0.0865388 0.352486 -1.49435e-18)
(-0.163148 0.0339756 3.02098e-18)
(-0.170443 0.0347839 -5.67384e-18)
(-0.161327 0.0404096 -6.82923e-18)
(-0.0388166 -0.00393972 6.94283e-20)
(-0.0345866 -0.00259359 6.41313e-20)
(-0.0357447 -0.00683013 -3.73787e-19)
(-0.000438951 -3.0248e-07 3.68829e-19)
(0.0447728 -0.0953395 1.10988e-17)
(0.0403688 -0.07858 -1.68275e-18)
(0.0263444 -0.0903282 2.90912e-19)
(-0.00019703 -0.00358216 -3.08016e-19)
(0.000344184 -0.00356351 2.84039e-19)
(-0.0250445 0.0843085 -1.77373e-17)
(-0.0251106 0.0806156 9.82525e-18)
(-0.000140995 -0.000723323 1.71256e-18)
(-0.000171699 -0.000710107 1.23844e-18)
(-0.000114234 -0.000703782 4.46607e-19)
(-0.00126262 0.000904184 6.43495e-19)
(-0.00130962 0.000977907 8.22978e-19)
(-0.00135882 0.000935705 1.85851e-18)
(-0.00386101 -0.0241467 6.05855e-20)
(0.00195412 -0.021607 3.92399e-19)
(-0.00112983 -0.0186854 -9.48263e-19)
(-0.00621404 0.0359967 5.0002e-18)
(-0.00713566 0.032916 7.22544e-19)
(-0.132956 -0.0439211 9.64653e-19)
(-0.0161571 -0.263481 9.5584e-18)
(-0.038603 -0.244852 1.46778e-17)
(-0.0273702 -0.278901 -9.55399e-19)
(-0.00164595 -0.00155716 -2.8222e-19)
(-0.00152034 -0.00176576 -5.89241e-19)
(-0.0145243 0.00173333 -4.30071e-19)
(-0.0147003 0.00179935 1.35986e-18)
(-0.0146184 0.00219168 1.69057e-18)
(0.000104899 -1.25144e-05 9.69731e-20)
(0.000112857 -1.95724e-05 1.55753e-19)
(0.000163089 -1.71699e-05 1.76718e-19)
(-0.00121606 0.000838967 5.04237e-19)
(-0.00117776 0.000877687 -1.5447e-18)
(0.267791 0.250901 7.219e-18)
(0.2556 0.158193 -2.91037e-18)
(-0.00100429 0.00207422 -6.58771e-20)
(-0.00114589 0.00255903 2.7624e-19)
(-0.00148811 0.00215633 4.10175e-20)
(-0.000479242 1.1423e-05 8.36579e-20)
(-0.000504196 2.76306e-05 1.32326e-19)
(-0.0418621 0.077694 8.10307e-18)
(-0.0442956 0.0809064 1.3611e-17)
(-0.0467679 0.0771517 1.99823e-17)
(-0.000363096 2.48243e-05 -1.94393e-19)
(-0.000372773 1.83415e-05 8.52262e-20)
(-0.000324928 1.19417e-05 1.04957e-19)
(-0.000357168 6.0084e-05 1.05535e-19)
(-0.000313804 5.33536e-05 -9.55999e-21)
(-0.000794397 -0.00018111 -2.19935e-18)
(-0.000775458 -0.000186357 1.49326e-18)
(-0.000762262 -0.000229795 -8.07886e-19)
(0.0881093 0.04111 -6.48404e-18)
(0.0797788 0.0384115 -3.2579e-18)
(0.088922 0.0329061 8.18858e-18)
(-0.00721812 -0.0149119 1.20384e-18)
(-0.00747434 -0.0134461 -5.69089e-19)
(-0.00588589 -0.0141019 -1.20103e-19)
(0.0697029 -0.0987481 1.55511e-18)
(0.197118 0.154138 -4.02769e-18)
(0.211435 0.133337 -8.77333e-20)
(0.186567 0.132271 -3.53161e-18)
(0.224319 0.0675516 -1.38647e-18)
(0.199939 0.0371878 2.04892e-18)
(0.178615 0.0693684 -1.11048e-19)
(-0.0370204 0.0189801 1.4404e-17)
(0.3342 0.20992 -4.16722e-18)
(0.298121 0.202403 5.31541e-18)
(0.299631 0.248445 9.84616e-18)
(-0.000410252 0.00043811 4.05538e-21)
(-0.000425769 0.00049249 6.58079e-21)
(-0.000467768 0.00043947 1.91372e-20)
(-0.0429823 -0.00630472 -3.87095e-19)
(-0.0413181 -0.000165811 -4.15808e-19)
(0.00123238 0.00043029 -1.65364e-19)
(0.00130486 0.000675424 1.54883e-19)
(0.00156474 0.000483305 -6.80039e-20)
(-0.0291572 0.0515912 -4.77644e-18)
(-0.0297913 0.0537621 3.5599e-18)
(-0.0313027 0.0521293 -6.81687e-18)
(0.00122934 0.00720571 -2.07203e-18)
(0.0795248 0.320187 -1.84537e-18)
(0.0877203 0.330729 -7.43832e-18)
(0.0775582 0.316835 6.01913e-18)
(-0.0582973 0.0166123 3.09631e-19)
(-0.0552354 0.0182955 5.45882e-19)
(-0.0590455 0.0212126 -7.48301e-19)
(-0.00020157 -4.76254e-05 9.07044e-20)
(-0.000207202 -7.19542e-05 1.84104e-19)
(-0.000233741 -4.26666e-05 1.19032e-19)
(-0.00326204 0.00239796 -8.93568e-19)
(-0.00311323 0.00223749 5.95151e-19)
(-0.0632651 0.0826834 3.048e-19)
(-0.0682207 0.0897884 6.60623e-19)
(-0.0712809 0.0810994 -1.07537e-18)
(0.00131437 0.0156121 1.00639e-17)
(0.000528658 0.0156699 1.7167e-18)
(-0.00853605 -0.015691 8.40564e-20)
(-0.00677489 -0.0164575 -8.82615e-19)
(-0.000286556 0.00588203 -6.38223e-18)
(-0.000410287 0.00559522 -5.91016e-19)
(-0.000638775 0.00589018 2.22146e-18)
(0.000957147 0.000382703 -1.9772e-19)
(-0.00268915 0.00048341 -1.87667e-18)
(-0.00283946 0.000460129 1.14603e-18)
(-0.0159554 0.0994553 2.62779e-19)
(-0.0155349 0.0942262 7.02669e-19)
(-0.0111411 0.0984382 -7.27179e-19)
(-0.00402003 0.0493026 -5.70157e-18)
(-0.00457128 0.048785 6.70941e-18)
(-0.284603 -0.173421 -4.15396e-18)
(-0.35662 -0.157922 1.64029e-18)
(-0.00255641 0.000490011 -6.61466e-19)
(-0.00263826 0.000385111 -2.98301e-18)
(-0.0156956 0.107069 -3.78316e-19)
(-0.0224551 0.101899 1.02796e-18)
(-0.000511751 0.00424385 -1.86433e-19)
(-0.000513445 0.00378452 4.40952e-19)
(-0.148836 0.0250627 -9.99649e-19)
(-0.135215 0.0512068 -7.85862e-20)
(-0.0587058 0.0117225 1.89828e-19)
(-0.0636345 0.0146642 9.03856e-20)
(-0.00408995 0.0474041 1.51309e-18)
(-0.00338468 0.0472656 1.97222e-18)
(-0.0188363 0.0800251 -4.9653e-19)
(-0.019048 0.0759481 1.95936e-18)
(-0.0226331 0.0782732 -1.16311e-18)
(-0.0593491 0.0137698 -2.00366e-18)
(-0.0597547 0.0100148 -2.42225e-17)
(-0.0625147 0.00977561 -2.07975e-18)
(-0.000858202 -0.000268152 -8.25894e-21)
(-0.000809901 -0.000151221 3.69628e-20)
(-0.0875264 0.0276772 -5.61692e-18)
(-0.0880611 0.0302651 5.38548e-18)
(-0.090809 0.0278799 6.93417e-18)
(-0.0107673 0.00410005 3.49839e-18)
(-0.0111359 0.00397325 -9.60382e-19)
(-0.0107062 0.00376421 8.29576e-19)
(-0.0325828 0.0703546 2.3034e-18)
(-0.033642 0.0738457 -6.04685e-18)
(-0.00157824 -0.000217207 -5.41283e-20)
(-0.00144489 2.49796e-05 -5.49959e-19)
(-0.000825881 0.00164639 2.30156e-20)
(-0.000522571 0.00186543 -1.94428e-19)
(-0.018423 -0.00278314 -5.25993e-19)
(-0.018055 -0.00164877 -5.95199e-19)
(-0.0173673 -0.00260897 -7.95122e-20)
(-0.0556062 0.0225127 -6.37992e-18)
(-0.0586802 0.0231302 -8.07313e-18)
(-0.0627704 0.0243986 3.56945e-18)
(-0.157327 0.0326988 5.86924e-18)
(-0.143663 0.0280888 1.85702e-17)
(-0.0041786 -0.00705764 -1.21551e-18)
(-0.00465725 -0.00755148 -2.18029e-19)
(-0.00392347 -0.00774476 9.65065e-19)
(-0.161192 -0.977306 1.02753e-17)
(-0.155526 -0.896556 -3.12818e-18)
(-0.262527 -1.00417 -4.77434e-18)
(-0.0277482 -0.0321041 -3.69277e-20)
(-0.0244304 -0.035406 1.66131e-20)
(-0.0237652 -0.0299914 4.2812e-19)
(-0.0145563 0.00120617 -2.83808e-18)
(-0.000684439 -0.00351138 -9.62231e-20)
(-0.0564619 0.084215 1.07882e-18)
(0.00203104 -0.00296318 2.58236e-19)
(0.00229268 -0.00333359 -1.4879e-18)
(-0.000385864 0.000381418 -4.74443e-20)
(-0.000372648 0.000367568 2.49162e-19)
(-0.000407055 0.00043098 -9.07565e-20)
(0.0110746 0.0371341 -1.05301e-18)
(0.00535912 0.0363444 -8.458e-19)
(0.00951171 0.0322305 -8.12652e-20)
(0.0148165 0.0412771 9.5174e-20)
(0.0176382 0.0356537 -5.13673e-18)
(0.0761988 -0.217747 -2.06642e-17)
(0.00113871 0.041737 -4.82274e-18)
(0.00211146 0.0421655 -1.17766e-18)
(-0.0332233 0.00123277 5.12147e-22)
(0.0256387 -0.00420591 8.3733e-18)
(0.0333242 -0.0043202 -5.19441e-18)
(0.0282387 0.0034417 -3.23596e-17)
(-0.000554908 -6.86368e-05 1.72478e-18)
(-0.00059022 -4.23279e-05 8.78631e-19)
(-0.000575992 -7.1347e-05 -2.99148e-19)
(0.000623111 0.000763926 -1.84406e-19)
(0.000701619 0.000679878 -1.88777e-19)
(0.000617322 0.000616792 -5.64217e-20)
(0.000608897 0.000912446 2.20932e-20)
(0.000546346 0.000837131 -6.9717e-20)
(0.3578 0.151569 -2.217e-17)
(-0.0179416 0.0905475 -1.96606e-18)
(-0.0188696 0.0844531 -1.6832e-18)
(-0.0234417 0.0884438 7.15063e-19)
(-0.0156315 0.114642 -2.56758e-19)
(-0.0156389 0.123387 -3.99225e-19)
(-0.0236077 0.118267 -3.50267e-20)
(-0.000529466 0.000102779 1.20658e-18)
(-0.000550949 0.000120608 -2.56201e-18)
(-0.000520712 9.65271e-05 3.79285e-18)
(-0.000179416 5.04595e-05 3.79834e-20)
(-0.000166437 2.80166e-05 -3.33599e-20)
(-0.0882243 -0.442499 4.44739e-18)
(-0.0109043 -0.0330103 9.58215e-18)
(-0.0840881 0.0275949 -1.78168e-18)
(0.000483183 0.000463913 -1.96879e-19)
(0.00051768 0.000530944 4.95574e-20)
(0.000540152 0.000405491 -8.39085e-20)
(0.000457225 0.000392957 -2.54941e-19)
(0.000429464 0.000505502 1.42167e-19)
(-0.000329315 3.19712e-06 3.44493e-19)
(-0.000237637 -5.70643e-06 -6.59097e-21)
(0.000597771 0.00105753 -9.09788e-21)
(0.000689555 0.00100242 9.46346e-20)
(0.000558484 0.00122973 -3.09206e-19)
(0.000509108 0.00111893 -1.06056e-19)
(-0.053571 0.0221289 -8.98335e-18)
(-0.0498821 0.0213883 2.15025e-17)
(0.145091 -0.168326 -3.98249e-17)
(0.195818 -0.136478 1.6154e-17)
(0.185034 -0.102451 -1.16266e-17)
(0.00224428 -0.00128066 -5.67957e-19)
(0.0019776 -0.00117882 -2.42288e-19)
(0.00199116 -0.00134859 3.11564e-19)
(-0.000523234 0.000877141 1.51695e-20)
(-0.00051946 0.000966053 -3.77756e-21)
(-0.000435961 0.000922325 2.82126e-20)
(-0.0395881 0.0428265 -2.19203e-18)
(-0.0426586 0.0409037 2.0918e-19)
(-0.0395769 0.0396352 -1.47016e-18)
(-0.054028 0.0274318 -1.69313e-18)
(-0.0585365 0.0263004 3.0319e-18)
(-0.0526899 0.0267187 -9.65962e-18)
(-0.000202612 6.04103e-05 -5.9013e-20)
(-0.00016861 3.85788e-05 -5.51807e-20)
(-0.000195321 3.87004e-05 -1.65555e-19)
(-0.000527764 0.000117311 -2.52639e-18)
(-0.000507711 9.70926e-05 -1.62537e-18)
(-0.00494645 -0.812725 2.78078e-18)
(-0.140442 -1.0525 -1.28311e-17)
(-0.0241387 0.0880072 -4.69691e-18)
(-0.0226126 0.0927486 1.40118e-17)
(-0.0230234 0.0886056 1.15361e-17)
(-0.0128563 0.0899098 3.79683e-19)
(0.0195579 -0.0010526 6.31722e-18)
(0.0187732 -0.00990791 1.41082e-17)
(-0.0868231 0.0343684 -1.91717e-19)
(-0.0909232 0.0274607 4.3829e-19)
(-0.0959433 0.0344755 -1.5241e-18)
(-0.000170771 -0.000732832 1.08656e-19)
(-0.00010825 -0.000739197 1.54184e-19)
(0.286328 0.162886 7.73336e-18)
(0.256615 0.189579 -7.82586e-18)
(-0.0370526 0.0450071 7.31145e-19)
(-0.0404575 0.046363 3.12042e-19)
(-0.0517115 -0.0122187 1.16266e-19)
(-0.0504257 -0.0199531 2.21496e-19)
(-0.00975969 0.0421841 8.43347e-18)
(-0.0102386 0.0432341 -1.82374e-19)
(-0.00893995 0.0429731 2.34214e-18)
(-0.0037312 -0.006639 4.95777e-19)
(-0.00438599 -0.00642408 -1.08811e-18)
(0.112608 -0.172157 -3.87685e-17)
(-0.000848723 0.000992042 5.28169e-18)
(-0.000875525 0.000934945 1.04601e-18)
(-0.000907613 0.00101316 1.0597e-18)
(-0.0234569 0.000684942 -7.41314e-19)
(-0.0245489 -0.00024199 -8.16081e-19)
(-0.0248436 0.00122025 1.54711e-20)
(-0.05115 0.0178899 2.90459e-20)
(-0.0470102 0.0179606 -2.66647e-19)
(-0.0494906 0.0147915 1.40363e-19)
(0.00275907 -0.00105783 -5.4172e-20)
(0.00245742 -0.00120753 9.56313e-19)
(0.00246391 -0.000973683 -2.45486e-19)
(-0.000243822 -7.99661e-06 1.37835e-19)
(-0.00648999 0.00236635 2.99605e-18)
(-0.0110458 0.0175375 2.63959e-19)
(-0.0104807 0.0137235 -7.0209e-19)
(-0.0144028 0.0144592 2.32768e-19)
(0.000135027 -0.000897126 1.5521e-19)
(-2.3712e-05 -0.00108602 3.98039e-20)
(0.000327466 -0.00118399 -1.57345e-19)
(-0.0800417 0.0355029 3.6954e-18)
(-0.0842321 0.0328053 6.48019e-19)
(-0.0879058 0.0333693 -1.28587e-18)
(-0.00935814 -0.493941 -1.1066e-17)
(-0.026251 -0.47674 -7.33179e-18)
(-0.0203355 -0.486706 3.93552e-19)
(-0.00123263 -0.00187133 -3.76473e-19)
(-0.00106131 -0.00169694 -3.08744e-19)
(-0.000958203 -0.00192565 -3.08641e-19)
(0.000470799 0.000262681 -1.33134e-19)
(0.000428113 0.000335027 -6.05117e-20)
(-0.000707621 0.00287163 1.46918e-19)
(-0.00137612 0.00314388 2.55382e-19)
(0.000509113 0.000194227 4.00542e-20)
(0.000466968 0.000156627 -1.03631e-19)
(-0.000815277 0.00104408 2.72214e-18)
(-0.000668687 2.04974e-05 -1.50636e-18)
(-0.000660941 1.13782e-05 7.5344e-19)
(-0.0173731 0.0148193 -5.76144e-19)
(-0.0179487 0.0157266 -1.59243e-18)
(-0.0186055 0.0147928 2.778e-18)
(-0.0014044 -0.00212346 -5.92617e-20)
(-0.0015292 -0.00175291 1.12275e-19)
(-0.191186 0.0424118 7.74592e-19)
(-0.178435 0.0483425 7.67597e-18)
(0.0319111 -0.072951 -1.89036e-17)
(0.0274603 -0.0545417 -4.92448e-17)
(-0.00188479 0.000112115 1.87956e-18)
(-0.00184871 0.000212969 -1.5465e-19)
(-0.0017842 0.000113206 1.40396e-18)
(-0.00503939 0.00976907 -2.46627e-19)
(-0.0050333 0.0116814 4.49513e-19)
(-0.00315001 0.0106492 6.28129e-19)
(-0.133109 0.183493 5.62581e-19)
(-0.157242 0.180626 -4.25391e-18)
(-0.150326 0.208159 -2.18368e-19)
(-0.000818139 0.00123832 -2.0285e-19)
(-0.000927671 0.00124137 -1.06946e-19)
(-0.000856312 0.00111638 -8.89354e-20)
(0.0883898 0.0336865 -7.2481e-20)
(0.103764 0.026357 -3.53601e-19)
(0.0827319 0.0140971 -4.47028e-20)
(-0.0724485 0.0375883 -1.49558e-19)
(-0.0760637 0.0383712 -7.33713e-18)
(-0.000721072 0.00122801 -2.6093e-19)
(-0.000768866 0.00136214 2.68032e-19)
(-0.0633054 0.0260701 1.21932e-17)
(-0.0648378 0.0264404 -6.46132e-18)
(0.000236116 -0.000681721 9.69904e-20)
(-4.95256e-06 -0.000677387 1.56806e-19)
(0.0798482 0.0551993 5.51234e-18)
(0.0956939 0.0526927 4.22249e-18)
(-0.000174378 -4.72869e-05 1.69071e-19)
(-0.000200612 -2.02453e-05 -7.3352e-20)
(0.0124953 -0.0104103 -4.87753e-19)
(0.0130067 -0.00891157 -3.77023e-19)
(0.0113775 -0.00924321 -4.26651e-19)
(0.00306599 -0.000966959 2.35162e-19)
(0.00303074 -0.00121438 -1.50605e-19)
(-0.000111732 -0.00060926 5.44012e-21)
(-0.000128328 -0.000565531 -6.80335e-19)
(-0.000156356 -0.00060234 4.01432e-19)
(-0.00401661 0.0600176 -2.63773e-18)
(-0.00507002 0.05907 -3.98453e-18)
(-0.00352322 0.0581923 8.02844e-18)
(-0.000271846 -2.37704e-07 -1.135e-18)
(-0.000283551 -3.953e-06 2.20043e-19)
(-0.000411854 2.19972e-07 -6.05631e-19)
(0.236462 0.104989 9.24734e-19)
(0.296612 0.112307 -1.06621e-18)
(-0.0136881 0.00315912 4.50824e-19)
(-0.014024 0.00289553 5.71553e-19)
(-0.0135114 0.00281011 9.42104e-19)
(-0.0105562 -0.0240598 2.27454e-19)
(-0.00681455 -0.030874 -4.53108e-19)
(-0.276576 -0.77191 8.09057e-18)
(-0.173033 -0.795128 -2.12802e-18)
(-0.133903 -0.664279 1.74256e-18)
(-0.191939 0.035716 8.7802e-18)
(-0.00020818 8.62661e-05 4.46088e-20)
(-0.000239836 7.94417e-05 4.10268e-21)
(-0.0221436 0.0283219 1.58426e-18)
(-0.0218859 0.0298324 3.91548e-18)
(-0.0204485 0.0288445 2.07958e-18)
(-0.00397614 0.0205169 2.63393e-18)
(-0.00742439 0.0192651 7.8884e-19)
(-0.0044858 0.0170653 6.39052e-19)
(-0.00992303 -0.0013781 -6.89125e-19)
(-0.0102622 -0.00177226 1.03716e-18)
(-0.00963304 -0.00181901 6.41325e-20)
(0.00035277 0.0210292 -4.37077e-19)
(0.00173239 0.0177278 2.7336e-19)
(-0.00769972 0.000792033 -3.49205e-18)
(-0.0080265 0.000968105 2.10722e-18)
(-0.00055751 -0.00044893 -1.16425e-19)
(-0.000401317 -0.000546344 -1.72106e-20)
(-0.000455137 -0.000396836 2.60955e-20)
(-0.000220988 -7.18232e-06 -7.80551e-19)
(-0.000269237 -3.1671e-06 5.30719e-19)
(-0.088867 0.0767019 1.41742e-18)
(-0.0859521 0.0868866 -1.89536e-18)
(-0.0788723 0.0782876 6.47458e-20)
(0.0842044 0.012197 3.85429e-20)
(0.0832652 0.0288042 -4.74907e-19)
(0.0725839 0.0220232 1.31365e-19)
(-0.0227273 0.00198372 4.86249e-19)
(-0.0221688 0.000708584 5.06588e-19)
(-0.00744078 0.000996504 -5.4374e-19)
(-0.00737865 0.000690283 2.17639e-18)
(-0.000534674 0.000125795 4.42116e-19)
(-0.000524536 0.00010691 2.64342e-18)
(-0.000548731 0.000129001 4.04722e-18)
(-0.0397879 0.0746637 -4.17737e-18)
(-0.037716 0.0779291 -2.54797e-18)
(-0.0497326 0.0212988 -1.36592e-17)
(-0.0312353 0.0198556 -6.79259e-18)
(-0.000569609 0.000636565 1.1331e-19)
(-0.000605093 0.000689345 -5.15618e-20)
(-0.000549194 0.000605799 -8.50484e-20)
(-0.00422505 -0.0254296 -3.49171e-19)
(-0.00134967 -0.0298378 -1.2025e-19)
(0.00142512 -0.0239755 2.09787e-20)
(-0.0101892 -0.00101743 -3.81043e-19)
(0.0770553 0.138846 3.8295e-19)
(0.0600039 0.181957 2.84533e-19)
(0.0613974 0.134239 -1.0544e-19)
(0.00270783 0.0546074 -5.09591e-18)
(0.00186502 0.0556132 -2.58682e-18)
(0.00355296 0.0555842 -2.27276e-17)
(0.00636317 -0.0373313 -7.37063e-18)
(-0.0101358 -0.0363415 5.54681e-18)
(-0.00548663 -0.049246 4.45441e-18)
(0.0812585 0.300032 -2.70319e-18)
(0.0620576 0.317592 -1.04767e-18)
(-0.00806753 0.0188456 1.18038e-19)
(-0.00695916 0.0240002 -2.23133e-19)
(-0.00516086 0.0208559 -1.39189e-19)
(-0.217535 -0.0700268 1.81464e-18)
(-0.204928 -0.100779 5.10276e-19)
(-0.00478024 0.00792282 -4.95823e-20)
(-0.00656 0.00823791 -2.58601e-19)
(-0.0158174 0.0422667 3.83991e-20)
(-0.016218 0.040426 6.2945e-18)
(0.0952098 0.141219 -6.35903e-19)
(0.0916009 0.0911563 1.52234e-18)
(-0.00759437 0.0496968 -7.77968e-20)
(-0.00673142 0.0499785 -6.33888e-18)
(-0.000632174 8.05034e-06 2.74002e-18)
(-0.000640321 -9.58914e-06 -6.10003e-19)
(0.0138024 -0.01154 2.62106e-19)
(0.0157552 -0.0109032 2.46746e-20)
(0.13609 -0.544355 2.63708e-18)
(0.000787542 0.00161629 1.64984e-19)
(0.000967211 0.00128798 4.24382e-19)
(0.00113225 0.00167503 -4.28462e-21)
(0.0144813 -0.063777 8.8671e-19)
(0.0225896 -0.062561 -8.14516e-19)
(-0.00444852 0.0467862 -1.36416e-17)
(-0.00479647 0.0475863 1.28179e-18)
(8.3842e-05 1.8706e-05 1.39228e-19)