/*--------------------------------*- C++ -*----------------------------------*\
| =========                 |                                                 |
| \\      /  F ield         | OpenFOAM: The Open Source CFD Toolbox           |
|  \\    /   O peration     | Version:  v2012                                 |
|   \\  /    A nd           | Website:  www.openfoam.com                      |
|    \\/     M anipulation  |                                                 |
\*---------------------------------------------------------------------------*/
FoamFile
{
    version     2.0;
    format      ascii;
    class       volVectorField;
    location    "350";
    object      cellDisplacement;
}
// * * * * * * * * * * * * * * * * * * * * * * * * * * * * * * * * * * * * * //

dimensions      [0 1 0 0 0 0 0];


internalField   nonuniform List<vector> 
13851
(
(0.00331837 -0.128063 0)
(-0.00289808 -0.173413 0)
(0.0115493 -0.183613 0)
(0.0031535 -0.125471 0)
(0.0161206 -0.178094 0)
(-0.000427913 -0.133585 0)
(0.014076 -0.0398307 0)
(0.0129958 -0.170178 0)
(0.00015765 -0.0460951 0)
(0.00718577 -0.183841 0)
(-0.000460403 -0.0239945 0)
(-0.00111593 -0.191727 0)
(0.0174517 -0.19863 0)
(-0.00958172 -0.2057 0)
(0.0031983 -0.0118544 0)
(0.00990623 -0.161979 0)
(0.0136562 -0.132358 0)
(0.00473459 -0.149365 0)
(0.0158822 -0.19698 0)
(0.000187907 -0.0455654 0)
(0.00326859 -0.124185 0)
(0.0120424 -0.183118 0)
(-2.45533e-05 -0.00190157 0)
(3.60676e-05 -0.00600045 0)
(-1.79194e-05 -0.0013949 0)
(0.012636 -0.171223 0)
(0.0169592 -0.102802 0)
(-0.0256271 -0.208966 0)
(0.0035243 -0.127592 0)
(0.00773002 -0.140668 0)
(-0.000622413 -0.133207 0)
(0.0136825 -0.134345 0)
(0.0113544 -0.182831 0)
(-0.00145138 -0.0767893 0)
(4.80485e-05 -0.00733396 0)
(0.0219704 -0.140208 0)
(0.0220973 -0.145402 0)
(0.0119797 -0.194721 0)
(0.00691007 -0.184855 0)
(-0.00141211 -0.075812 0)
(0.00470284 -0.0949472 0)
(-7.60462e-05 -0.00498067 0)
(0.0139327 -0.209973 0)
(-0.000496032 -0.0252916 0)
(-0.0004902 -0.0247811 0)
(0.00906761 -0.208476 0)
(-0.000523637 -0.0259213 0)
(-0.00193937 -0.116527 0)
(0.0170971 -0.103756 0)
(-0.000913962 -0.0668807 0)
(0.0191663 -0.158875 0)
(0.018763 -0.179408 0)
(-0.00977966 -0.209383 0)
(0.00215593 -0.0092691 0)
(0.000859232 -0.0131828 0)
(-7.57529e-05 -0.00493416 0)
(-3.37067e-05 -0.00623514 0)
(-0.0146889 -0.209129 0)
(0.00772335 -0.139082 0)
(0.0138582 -0.0565269 0)
(0.0114778 -0.194937 0)
(0.00804297 -0.204687 0)
(0.00146354 -0.154976 0)
(0.0165736 -0.180574 0)
(0.000880878 -0.172594 0)
(0.00252709 -0.131241 0)
(0.0221228 -0.145811 0)
(-0.000548472 -0.0268525 0)
(0.0179254 -0.133751 0)
(0.00456566 -0.148697 0)
(0.0222931 -0.149292 0)
(0.0223621 -0.140135 0)
(-0.0033083 -0.173742 0)
(0.00224335 -0.00905615 0)
(0.00126833 -0.0220773 0)
(8.50186e-05 -0.0582282 0)
(0.0123132 -0.18198 0)
(0.0210154 -0.197679 0)
(0.0162695 -0.161558 0)
(0.0225439 -0.139718 0)
(0.0142106 -0.0772088 0)
(-4.33298e-05 -0.0021644 0)
(0.00841192 -0.0596697 0)
(0.0110974 -0.208955 0)
(0.00148886 -0.156116 0)
(-0.000737707 -0.191179 0)
(-8.30867e-05 -0.130355 0)
(-0.000725973 -0.181191 0)
(0.0155214 -0.124846 0)
(-0.000411782 -0.0323524 0)
(0.0218703 -0.141812 0)
(-0.000307911 -0.111706 0)
(-0.000562783 -0.0275459 0)
(0.0159757 -0.132411 0)
(0.0157379 -0.121833 0)
(-1.74583e-05 -0.00451357 0)
(0.0163761 -0.178415 0)
(0.0168094 -0.205686 0)
(-0.000943176 -0.0667595 0)
(-1.44691e-05 -0.00350021 0)
(-0.0113631 -0.207668 0)
(0.017768 -0.155663 0)
(0.00555407 -0.122827 0)
(0.019218 -0.0691186 0)
(-5.46735e-06 -0.000364674 0)
(-0.000268668 -0.127437 0)
(0.0183288 -0.155876 0)
(-3.98613e-05 -0.00260899 0)
(0.0224972 -0.137351 0)
(-0.000411271 -0.134851 0)
(2.9834e-06 -0.00410965 0)
(-0.000426475 -0.0331439 0)
(-0.000199381 -0.111186 0)
(8.91075e-06 -0.00161216 0)
(5.92862e-06 -0.00518932 0)
(-0.00318705 -0.14219 0)
(0.0168224 -0.205057 0)
(-4.86402e-05 -0.00326192 0)
(0.000209269 -0.00778028 0)
(0.000615472 -0.0106245 0)
(0.0125624 -0.209959 0)
(0.0189891 -0.0714891 0)
(0.0171463 -0.1996 0)
(-0.00243025 -0.111061 0)
(-0.00179099 -0.11603 0)
(-0.000329331 -0.0200684 0)
(-0.00175728 -0.114745 0)
(0.0169936 -0.159242 0)
(0.00314262 -0.122655 0)
(0.0151106 -0.190009 0)
(0.00466919 -0.0927893 0)
(0.000669061 -0.0377569 0)
(0.0222717 -0.150099 0)
(0.00836003 -0.0569132 0)
(-0.00323281 -0.141241 0)
(0.000347765 -0.0169231 0)
(-4.46057e-05 -0.00299952 0)
(0.0222295 -0.144179 0)
(-0.0015274 -0.203958 0)
(-0.00750888 -0.20071 0)
(-0.010396 -0.207867 0)
(0.00075309 -0.0119935 0)
(-0.000293199 -0.0777054 0)
(-0.000171195 -0.0109542 0)
(0.0120078 -0.126308 0)
(-0.0005114 -0.0260422 0)
(-2.51428e-05 -0.00139956 0)
(0.0147313 -0.190598 0)
(0.0137724 -0.0396984 0)
(-0.000474753 -0.0240361 0)
(0.0216828 -0.12345 0)
(0.000688832 -0.0127488 0)
(-0.0103072 -0.205934 0)
(-3.4622e-05 -0.00602797 0)
(0.0148645 -0.104995 0)
(0.011774 -0.126383 0)
(0.00165056 -0.0739082 0)
(0.00875584 -0.13283 0)
(0.0185633 -0.181024 0)
(0.0189283 -0.159968 0)
(-1.64931e-05 -0.00102333 0)
(0.0178162 -0.116717 0)
(-0.0141229 -0.209192 0)
(0.000614882 -0.0365681 0)
(0.00761258 -0.153134 0)
(-0.000133087 -0.00866613 0)
(-3.19942e-05 -0.00177117 0)
(0.0181748 -0.132742 0)
(0.00323968 -0.121305 0)
(0.0141587 -0.207558 0)
(0.0210507 -0.196556 0)
(-3.5806e-05 -0.0220815 0)
(0.00175158 -0.0750975 0)
(-0.00727955 -0.201219 0)
(0.000573265 -0.033923 0)
(-0.00197717 -0.11778 0)
(0.0168041 -0.159062 0)
(-0.000155939 -0.082042 0)
(0.0162414 -0.197341 0)
(-4.10098e-05 -0.00265461 0)
(0.0133937 -0.138967 0)
(0.0223046 -0.142416 0)
(0.00817773 -0.051184 0)
(0.0121501 -0.184051 0)
(-4.81798e-06 -0.000318158 0)
(-3.09145e-05 -0.00305107 0)
(0.00263426 -0.132324 0)
(0.000858113 -0.0146605 0)
(0.0153886 -0.182972 0)
(0.00463325 -0.179239 0)
(-0.000538794 -0.0266402 0)
(-0.0102689 -0.209364 0)
(-0.000453164 -0.0339903 0)
(0.0169843 -0.141713 0)
(0.00807928 -0.204196 0)
(0.0144601 -0.10564 0)
(-0.000244373 -0.0765585 0)
(-0.00133619 -0.071665 0)
(-0.000153296 -0.0807412 0)
(0.000103711 -0.0595153 0)
(-0.00033846 -0.0206794 0)
(0.00897706 -0.207561 0)
(0.000146287 -0.0043161 0)
(0.00636679 -0.0704465 0)
(0.00632625 -0.17857 0)
(0.00853294 -0.0532261 0)
(0.00133832 -0.200391 0)
(0.0143464 -0.129666 0)
(0.0216201 -0.174493 0)
(-2.63761e-05 -0.00167391 0)
(0.0215251 -0.172466 0)
(0.00559861 -0.120887 0)
(-0.00144257 -0.0714518 0)
(-2.61329e-05 -0.00169623 0)
(-0.00014833 -0.00949421 0)
(-0.000414954 -0.0220778 0)
(0.00187796 -0.157266 0)
(0.00773117 -0.208615 0)
(0.0052624 -0.0242633 0)
(0.0215763 -0.175953 0)
(0.0142177 -0.132107 0)
(0.0144201 -0.0782837 0)
(0.0196822 -0.19953 0)
(0.0171981 -0.185571 0)
(0.0219842 -0.15899 0)
(-2.09955e-05 -0.00187901 0)
(0.0159702 -0.139016 0)
(-4.5582e-06 -0.000304524 0)
(-0.00485884 -0.209462 0)
(-2.42709e-05 -0.00156962 0)
(0.0123877 -0.170532 0)
(0.000218425 -0.167066 0)
(-3.42084e-05 -0.0205356 0)
(-0.000438825 -0.0332332 0)
(0.0195194 -0.150468 0)
(0.00363687 -0.161147 0)
(0.00210339 -0.20033 0)
(0.000583768 -0.173397 0)
(-0.000164155 -0.0104719 0)
(0.00658131 -0.0710706 0)
(-0.00062783 -0.131912 0)
(-0.00104055 -0.0638101 0)
(-2.47424e-05 -0.00147673 0)
(0.00601502 -0.179581 0)
(-8.0675e-06 -0.000538105 0)
(0.0218431 -0.164846 0)
(0.0175667 -0.158245 0)
(-0.00149472 -0.0744034 0)
(0.0112815 -0.129045 0)
(0.0114011 -0.144071 0)
(-0.000354941 -0.097699 0)
(-0.00105818 -0.063467 0)
(0.0116651 -0.102101 0)
(0.0115224 -0.129004 0)
(0.0195486 -0.140802 0)
(-0.000711376 -0.151693 0)
(0.00464987 -0.178221 0)
(0.0221759 -0.146305 0)
(0.0203608 -0.209238 0)
(0.00888672 -0.0285933 0)
(-0.000155286 -0.00996589 0)
(0.00457025 -0.14614 0)
(-0.00185639 -0.136201 0)
(-0.000274441 -0.0178534 0)
(0.0147125 -0.199352 0)
(0.0142336 -0.107319 0)
(0.0117484 -0.099781 0)
(0.0160434 -0.130094 0)
(0.0196035 -0.198715 0)
(-0.000586364 -0.0359444 0)
(-0.000392103 -0.0967767 0)
(0.014634 -0.106941 0)
(-0.0011787 -0.136213 0)
(0.0163016 -0.159468 0)
(0.00972572 -0.161151 0)
(0.00070928 -0.0403084 0)
(-3.31262e-05 -0.00164711 0)
(-0.000343368 -0.0191358 0)
(0.0224638 -0.14136 0)
(-0.000445971 -0.0232907 0)
(-1.81243e-05 -0.0010779 0)
(-1.66713e-05 -0.00106301 0)
(-4.47593e-06 -0.000297769 0)
(0.0195333 -0.138967 0)
(-0.00195773 -0.135398 0)
(-0.00214538 -0.119503 0)
(0.000193294 -0.0541563 0)
(0.00575888 -0.0126779 0)
(-0.00126707 -0.135362 0)
(-1.59672e-05 -0.000805987 0)
(0.0145859 -0.191983 0)
(0.00800799 -0.137457 0)
(0.0138732 -0.0594281 0)
(0.0175171 -0.142112 0)
(-2.97151e-05 -0.00150132 0)
(0.0152295 -0.198915 0)
(0.00834267 -0.151637 0)
(-0.000915177 -0.190463 0)
(0.000799718 -0.0440633 0)
(0.0217989 -0.166126 0)
(0.0178379 -0.114522 0)
(0.0133321 -0.133194 0)
(0.0223377 -0.145903 0)
(0.00712619 -0.108808 0)
(-0.000273299 -0.128755 0)
(0.020843 -0.191566 0)
(0.000205809 -0.0524793 0)
(0.0190309 -0.137617 0)
(0.0157175 -0.134843 0)
(0.00798601 -0.135802 0)
(-0.000332716 -0.203946 0)
(0.00815685 -0.152841 0)
(0.0110248 -0.10343 0)
(0.0188675 -0.202856 0)
(-9.34114e-05 -0.0061184 0)
(0.0114803 -0.145319 0)
(-0.000360856 -0.0218955 0)
(0.0224573 -0.141222 0)
(0.0216837 -0.138677 0)
(0.00576948 -0.0265133 0)
(0.0185088 -0.151253 0)
(0.00601021 -0.0213819 0)
(0.0202984 -0.20897 0)
(-0.000487512 -0.0999008 0)
(-2.8721e-05 -0.00235033 0)
(0.00150206 -0.0865157 0)
(0.0215397 -0.140792 0)
(0.0159988 -0.136604 0)
(0.0152492 -0.10055 0)
(0.00541162 -0.0109117 0)
(0.00719246 -0.107021 0)
(0.0108164 -0.103259 0)
(-0.000469977 -0.0242439 0)
(-0.0147847 -0.206424 0)
(0.0126738 -0.206802 0)
(0.00321791 -0.148883 0)
(0.0223434 -0.14527 0)
(0.00862505 -0.200479 0)
(0.00298246 -0.0118356 0)
(0.0167706 -0.144508 0)
(0.0141759 -0.192597 0)
(-0.00031805 -0.114192 0)
(0.00251539 -0.163413 0)
(0.0191574 -0.173329 0)
(0.0154162 -0.197722 0)
(0.000123088 -0.103608 0)
(-0.00250623 -0.135415 0)
(0.0213019 -0.181605 0)
(0.00276157 -0.00963353 0)
(-0.000473981 -0.0271287 0)
(-0.000469293 -0.0266768 0)
(0.00707084 -0.194587 0)
(0.0154301 -0.0981205 0)
(0.00224525 -0.164122 0)
(-0.00584646 -0.209415 0)
(0.00178395 -0.0772963 0)
(-0.00261078 -0.134611 0)
(0.00142608 -0.085719 0)
(0.00561916 -0.0193268 0)
(-8.63915e-06 -0.000575188 0)
(-3.87173e-05 -0.00252444 0)
(0.00165634 -0.0681432 0)
(0.0212858 -0.180932 0)
(-0.000908728 -0.0476662 0)
(0.00776391 -0.0839375 0)
(0.0190056 -0.135537 0)
(-0.000105941 -0.00684657 0)
(-0.00138842 -0.190279 0)
(0.00805198 -0.167273 0)
(-0.00252025 -0.119569 0)
(0.0138915 -0.207201 0)
(0.00771597 -0.0860594 0)
(0.00167672 -0.15817 0)
(0.01514 -0.138466 0)
(-0.00239317 -0.119066 0)
(0.00423721 -0.0880295 0)
(-5.30551e-05 -0.00356065 0)
(-0.000263918 -0.104076 0)
(-0.014225 -0.207636 0)
(0.00102916 -0.0181113 0)
(0.000159047 -0.203465 0)
(-0.000369269 -0.113234 0)
(0.0192412 -0.174416 0)
(0.0134458 -0.207902 0)
(-0.000486725 -0.0266311 0)
(-0.000493632 -0.0271567 0)
(-0.00038244 -0.0910675 0)
(0.000958405 -0.0407423 0)
(0.00161393 -0.00530125 0)
(0.00342762 -0.147497 0)
(0.0187192 -0.148926 0)
(-0.0102113 -0.205306 0)
(0.0186312 -0.128306 0)
(0.0219725 -0.158831 0)
(0.0210149 -0.188277 0)
(-0.000111131 -0.007205 0)
(0.00930622 -0.0293635 0)
(0.0129166 -0.207188 0)
(0.0223613 -0.146681 0)
(0.000257174 -0.16612 0)
(0.0173491 -0.20455 0)
(-0.000356443 -0.104275 0)
(0.0151658 -0.140263 0)
(-2.05868e-05 -0.00289466 0)
(0.0090866 -0.199911 0)
(9.57811e-06 -0.0338362 0)
(0.0102349 -0.161223 0)
(-0.000321856 -0.0903624 0)
(0.0127208 -0.0492056 0)
(-3.85911e-06 -0.000257048 0)
(0.000175745 -0.0509973 0)
(-0.000127245 -0.0082605 0)
(0.0168507 -0.17904 0)
(0.00328997 -0.164636 0)
(0.0196478 -0.208734 0)
(0.00410365 -0.14825 0)
(0.01853 -0.153299 0)
(0.000875861 -0.134148 0)
(-0.00103792 -0.062318 0)
(0.0107782 -0.148628 0)
(0.00649916 -0.194584 0)
(0.0132864 -0.13144 0)
(-0.000401245 -0.0213616 0)
(-4.01885e-05 -0.00269559 0)
(0.000183534 -0.0493469 0)
(-2.3355e-05 -0.00234171 0)
(0.0105416 -0.196219 0)
(-0.00130577 -0.0645771 0)
(0.0166017 -0.186541 0)
(0.00103725 -0.13445 0)
(0.0198197 -0.209085 0)
(-0.00145349 -0.0777044 0)
(-9.44638e-05 -0.12906 0)
(0.000529738 -0.00952886 0)
(0.0197369 -0.148677 0)
(0.00417954 -0.085685 0)
(-0.00105441 -0.0619781 0)
(-1.02696e-05 -0.000692638 0)
(0.0044651 -0.193899 0)
(-0.0011434 -0.061182 0)
(0.0108748 -0.181345 0)
(0.021444 -0.181207 0)
(-0.000220195 -0.0804806 0)
(-0.000313924 -0.017365 0)
(-0.00117752 -0.0616938 0)
(-0.0169663 -0.207333 0)
(-6.72108e-06 -0.00044331 0)
(0.0151657 -0.144277 0)
(0.0165026 -0.161472 0)
(-0.000590667 -0.0357166 0)
(1.48507e-05 -0.0281859 0)
(0.0104431 -0.105654 0)
(0.0216415 -0.122136 0)
(0.0188302 -0.177658 0)
(0.00350095 -0.152324 0)
(-0.00432915 -0.189373 0)
(-2.67227e-05 -0.00242704 0)
(0.00150083 -0.0887568 0)
(0.0100852 -0.209783 0)
(0.00724453 -0.154249 0)
(-1.50726e-05 -0.000964842 0)
(-0.00122625 -0.181347 0)
(0.00089853 -0.0394331 0)
(0.00318352 -0.12717 0)
(0.000109722 -0.0348802 0)
(0.00547815 -0.165195 0)
(0.00846694 -0.129091 0)
(-2.37095e-05 -0.00151071 0)
(-0.000224801 -0.0792365 0)
(0.0185826 -0.20263 0)
(0.00870819 -0.06203 0)
(0.0184478 -0.134005 0)
(0.000401279 -0.0187948 0)
(0.000500631 -0.120765 0)
(-0.000357063 -0.0193872 0)
(1.16951e-05 -0.00147638 0)
(0.00353734 -0.0930404 0)
(1.8337e-05 -0.0030069 0)
(1.37405e-05 -0.00280932 0)
(-0.00189646 -0.11983 0)
(0.0120943 -0.0963457 0)
(-0.000260692 -0.131345 0)
(0.00808377 -0.0483838 0)
(-2.78132e-05 -0.00379715 0)
(-0.00794465 -0.207187 0)
(0.0214817 -0.179948 0)
(0.00913371 -0.0541404 0)
(0.000367104 -0.120769 0)
(0.011031 -0.148899 0)
(-0.00106012 -0.0650704 0)
(0.0100141 -0.208847 0)
(0.0015814 -0.089454 0)
(-0.000890913 -0.046757 0)
(0.00443022 -0.089258 0)
(0.0149048 -0.180782 0)
(0.0130389 -0.0565012 0)
(0.00062394 -0.209413 0)
(-2.82015e-05 -0.00189219 0)
(-0.00819027 -0.209426 0)
(0.00423799 -0.177085 0)
(-8.16997e-05 -0.00536089 0)
(0.00030561 -0.11937 0)
(0.016315 -0.207129 0)
(0.0120096 -0.171759 0)
(-0.000658023 -0.0326864 0)
(0.000271901 -0.009755 0)
(-0.00206564 -0.108078 0)
(0.000681293 -0.0101416 0)
(0.00039992 -0.0310073 0)
(0.000722841 -0.0441445 0)
(0.0131 -0.0387342 0)
(0.0223551 -0.146897 0)
(0.0186565 -0.158863 0)
(0.0201935 -0.166377 0)
(0.0181292 -0.194046 0)
(0.00181533 -0.156165 0)
(-2.12561e-05 -0.00131304 0)
(0.0144457 -0.201918 0)
(-0.00126958 -0.064352 0)
(0.0136697 -0.138479 0)
(0.0176166 -0.119638 0)
(-0.00103561 -0.0652518 0)
(-0.00230309 -0.110815 0)
(0.021516 -0.171607 0)
(0.00143313 -0.00709951 0)
(8.90973e-05 -0.209335 0)
(0.0101769 -0.208583 0)
(0.00795713 -0.207757 0)
(0.00784719 -0.153659 0)
(0.000180573 -0.119424 0)
(-0.00247948 -0.114677 0)
(-0.000326517 -0.0180563 0)
(-0.000709864 -0.150494 0)
(-0.00138194 -0.0720108 0)
(0.0038103 -0.195244 0)
(0.00850542 -0.134453 0)
(0.00387171 -0.19589 0)
(0.0215079 -0.165687 0)
(-3.2039e-05 -0.00214671 0)
(-0.000330574 -0.0184303 0)
(0.0188982 -0.157891 0)
(0.0214357 -0.181891 0)
(0.0110376 -0.131375 0)
(0.00575376 -0.0530403 0)
(0.00162146 -0.0716617 0)
(0.00560599 -0.0852241 0)
(0.0157238 -0.181538 0)
(0.00445943 -0.161683 0)
(-0.000492634 -0.18034 0)
(-0.00409413 -0.188793 0)
(0.000176994 -0.0157492 0)
(0.0111241 -0.209849 0)
(0.0210355 -0.195334 0)
(-0.000718799 -0.127508 0)
(-0.00124115 -0.0632762 0)
(0.0182039 -0.135115 0)
(-1.22259e-05 -0.000788742 0)
(0.000154349 -0.047965 0)
(-3.87107e-05 -0.00208375 0)
(0.0146939 -0.20246 0)
(0.0150383 -0.105347 0)
(0.0213893 -0.136138 0)
(0.0215297 -0.150169 0)
(-6.98635e-05 -0.00454384 0)
(0.000523099 -0.135062 0)
(-0.00209944 -0.111441 0)
(0.00765026 -0.193732 0)
(0.0184221 -0.177636 0)
(0.0223214 -0.14817 0)
(0.0216722 -0.161528 0)
(0.00447436 -0.0915425 0)
(0.0129783 -0.0471875 0)
(-0.00293322 -0.181331 0)
(0.0209616 -0.19 0)
(0.0212013 -0.150118 0)
(0.0188348 -0.125413 0)
(0.00114252 -0.154863 0)
(-4.27673e-05 -0.00277932 0)
(0.00409104 -0.0611509 0)
(0.00451847 -0.194602 0)
(-6.42124e-05 -0.00419264 0)
(0.0107969 -0.131311 0)
(-3.5311e-05 -0.00228502 0)
(0.000873682 -0.0305128 0)
(0.0214606 -0.167582 0)
(0.0163075 -0.180348 0)
(0.00123508 -0.133204 0)
(-5.90928e-05 -0.00385207 0)
(0.001229 -0.203351 0)
(-0.00130802 -0.0705725 0)
(0.000931941 -0.0453395 0)
(-4.60485e-05 -0.00618857 0)
(-0.000284057 -0.0185287 0)
(0.00199747 -0.00703651 0)
(-0.0143606 -0.207815 0)
(-0.00145993 -0.0733726 0)
(-0.00147492 -0.0725412 0)
(0.00666878 -0.207644 0)
(-0.00213348 -0.107136 0)
(0.0188394 -0.121178 0)
(0.0214302 -0.182179 0)
(0.0216261 -0.174474 0)
(6.2073e-05 -0.104746 0)
(0.0177019 -0.136928 0)
(-9.24224e-06 -0.000595212 0)
(-0.000351405 -0.0212515 0)
(0.0108066 -0.163339 0)
(0.0178715 -0.202217 0)
(-0.00229898 -0.135046 0)
(0.0212361 -0.137993 0)
(0.0139438 -0.146671 0)
(0.000159544 -0.0423389 0)
(0.00911703 -0.161789 0)
(-0.000382749 -0.0723412 0)
(-0.000664156 -0.033215 0)
(0.0182372 -0.166138 0)
(0.00771311 -0.046334 0)
(0.00330758 -0.150036 0)
(2.71488e-05 -0.0275115 0)
(0.0164762 -0.125445 0)
(0.0162775 -0.187817 0)
(0.0135865 -0.0556987 0)
(0.00399601 -0.0845223 0)
(0.00830257 -0.167821 0)
(0.0119986 -0.0761304 0)
(0.0157844 -0.179704 0)
(0.010331 -0.195486 0)
(0.0172889 -0.184123 0)
(0.00850076 -0.162376 0)
(0.0213475 -0.14839 0)
(0.000160697 -0.0406289 0)
(0.000628477 -0.164481 0)
(-0.000398903 -0.099172 0)
(0.00572012 -0.207836 0)
(0.00582272 -0.119711 0)
(-1.18376e-05 -0.00457911 0)
(0.0224374 -0.138982 0)
(0.00632425 -0.136406 0)
(0.0137093 -0.208163 0)
(0.0214707 -0.177248 0)
(0.00592987 -0.20893 0)
(-0.00145949 -0.180735 0)
(2.59387e-05 -0.0332258 0)
(0.0224295 -0.138408 0)
(-1.89209e-05 -0.00111748 0)
(0.000921125 -0.0345377 0)
(-2.48852e-05 -0.00166561 0)
(0.000968524 -0.0336541 0)
(-1.1476e-05 -0.000653497 0)
(0.00381504 -0.148459 0)
(0.00566588 -0.163761 0)
(-5.41652e-05 -0.00354296 0)
(0.00634164 -0.199423 0)
(0.0042134 -0.178095 0)
(0.00635811 -0.200006 0)
(0.00129243 -0.0664489 0)
(-1.62726e-05 -0.00108334 0)
(-3.41966e-05 -0.00261463 0)
(0.0138096 -0.192128 0)
(0.00716642 -0.203511 0)
(0.0204787 -0.129635 0)
(0.0163683 -0.127818 0)
(-2.49116e-05 -0.00146623 0)
(-2.40827e-05 -0.00355246 0)
(0.000129889 -0.0111372 0)
(0.00154992 -0.0779616 0)
(0.0205193 -0.175763 0)
(-0.00407831 -0.19555 0)
(0.0118203 -0.074863 0)
(-4.94833e-05 -0.00323176 0)
(0.013338 -0.0363128 0)
(0.00160682 -0.0769978 0)
(0.00496997 -0.192432 0)
(-0.0127745 -0.209282 0)
(0.00932732 -0.162392 0)
(0.0157895 -0.206166 0)
(-0.00211977 -0.109302 0)
(0.00393154 -0.0821693 0)
(0.0199891 -0.167738 0)
(-0.0156626 -0.207359 0)
(0.0177346 -0.139139 0)
(-0.000966757 -0.192368 0)
(0.0139381 -0.0793025 0)
(0.00471921 -0.147043 0)
(0.0203319 -0.130292 0)
(0.00428458 -0.146654 0)
(-0.00139793 -0.0711859 0)
(0.00879639 -0.0523206 0)
(-0.00242486 -0.113393 0)
(-8.66839e-06 -0.000583093 0)
(0.0204753 -0.0929972 0)
(0.0214452 -0.180817 0)
(-8.89188e-05 -0.0582171 0)
(0.00601369 -0.13148 0)
(0.00111827 -0.153707 0)
(0.000429488 -0.03353 0)
(0.0133851 -0.136984 0)
(-0.00150238 -0.135373 0)
(-0.00820571 -0.202867 0)
(0.0179926 -0.166751 0)
(0.0144258 -0.19873 0)
(-0.000491982 -0.0265913 0)
(-3.16123e-05 -0.00205286 0)
(0.0012692 -0.0640644 0)
(-0.00627902 -0.207279 0)
(0.0215644 -0.148367 0)
(0.00341156 -0.162377 0)
(0.0214154 -0.17847 0)
(-0.000116042 -0.039084 0)
(0.000796748 -0.00182097 0)
(-3.5907e-05 -0.00241268 0)
(-0.00207718 -0.105906 0)
(0.0216842 -0.158027 0)
(0.00865581 -0.147076 0)
(0.00415307 -0.113802 0)
(-0.000370081 -0.0200861 0)
(0.0162125 -0.111228 0)
(-3.5897e-05 -0.00272374 0)
(0.0135581 -0.209777 0)
(-0.000913833 -0.152504 0)
(0.0204776 -0.202364 0)
(-8.78506e-05 -0.00574078 0)
(0.0119044 -0.0720866 0)
(0.0212799 -0.187866 0)
(-0.0187595 -0.209146 0)
(0.0218144 -0.141572 0)
(-0.000341402 -0.0712458 0)
(0.021859 -0.158691 0)
(0.0086342 -0.0562117 0)
(-0.000392198 -0.0210803 0)
(0.009851 -0.190892 0)
(0.010613 -0.182744 0)
(0.0116514 -0.140216 0)
(0.00743985 -0.208851 0)
(-0.000378099 -0.0933537 0)
(-0.000529105 -0.0685012 0)
(0.0219973 -0.147512 0)
(-1.07655e-05 -0.00501986 0)
(8.35976e-05 -0.00237219 0)
(0.00848072 -0.130899 0)
(0.000135017 -0.0394302 0)
(0.0124967 -0.209689 0)
(0.0118774 -0.158613 0)
(0.0187064 -0.17679 0)
(0.00138671 -0.13358 0)
(-0.000352179 -0.0194591 0)
(0.000187875 -0.0436771 0)
(-0.00164447 -0.136218 0)
(0.000134778 -0.00817768 0)
(-0.000411241 -0.0925106 0)
(-2.14236e-05 -0.00143559 0)
(0.00368915 -0.0786445 0)
(0.000713405 -0.0165089 0)
(0.0208063 -0.193058 0)
(0.00168839 -0.0705409 0)
(-6.97901e-05 -0.00469505 0)
(-0.00140634 -0.114265 0)
(0.0132881 -0.0482444 0)
(0.0212785 -0.187744 0)
(-1.10688e-05 -0.000763091 0)
(-0.000315883 -0.0750896 0)
(0.0202104 -0.145671 0)
(0.00435895 -0.192352 0)
(-0.000922022 -0.0491296 0)
(0.000107672 -0.0127752 0)
(-0.000956825 -0.136181 0)
(0.01543 -0.205691 0)
(0.0120066 -0.0988274 0)
(0.0208094 -0.188616 0)
(0.0203218 -0.0937892 0)
(0.000111227 -0.0366511 0)
(-0.000805885 -0.0707463 0)
(0.0141128 -0.209928 0)
(-0.000796413 -0.135325 0)
(0.0105361 -0.146565 0)
(0.000165602 -0.0139817 0)
(-4.47312e-05 -0.00293094 0)
(-0.00120317 -0.0628905 0)
(0.00983937 -0.184614 0)
(0.00456622 -0.171426 0)
(0.00831921 -0.150258 0)
(-0.000818562 -0.0700877 0)
(0.00179282 -0.00850788 0)
(-0.000325372 -0.0737971 0)
(0.0218479 -0.125745 0)
(-0.00127981 -0.0669437 0)
(0.0151104 -0.182652 0)
(-0.00219148 -0.135827 0)
(0.0116989 -0.0706544 0)
(0.015181 -0.180992 0)
(0.0195023 -0.160387 0)
(0.0225117 -0.139047 0)
(0.0083948 -0.146767 0)
(-0.00119411 -0.19964 0)
(0.0178642 -0.194154 0)
(0.0135696 -0.0458769 0)
(0.0123921 -0.208546 0)
(0.000958819 -0.163638 0)
(0.0110351 -0.204249 0)
(-0.00890989 -0.203187 0)
(0.0193859 -0.203336 0)
(-0.000789327 -0.0437433 0)
(0.0102165 -0.168727 0)
(0.00013482 -0.0377302 0)
(0.00333079 -0.146356 0)
(-0.0134508 -0.209117 0)
(0.0122229 -0.208828 0)
(0.00110724 -0.0813015 0)
(-2.30565e-05 -0.00264393 0)
(0.0193404 -0.153617 0)
(-3.09796e-05 -0.00160193 0)
(-9.17691e-05 -0.0061181 0)
(-0.0132102 -0.209292 0)
(-0.000104788 -0.0375163 0)
(0.00835367 -0.079409 0)
(0.0107462 -0.209711 0)
(0.0211999 -0.190882 0)
(-0.000503571 -0.027053 0)
(0.000943822 -0.0363996 0)
(0.00557995 -0.0173452 0)
(-0.0174699 -0.209177 0)
(0.0203809 -0.17645 0)
(0.021159 -0.148933 0)
(0.000470944 -0.103661 0)
(0.0133196 -0.206386 0)
(0.00814405 -0.193826 0)
(0.00796359 -0.203106 0)
(0.01808 -0.156668 0)
(0.0187522 -0.136935 0)
(0.010659 -0.105585 0)
(0.0130395 -0.0534397 0)
(-0.00364474 -0.172988 0)
(0.0210663 -0.116468 0)
(0.0223978 -0.14529 0)
(-0.000426771 -0.103323 0)
(0.0184009 -0.129121 0)
(0.0128988 -0.209546 0)
(0.0113267 -0.2047 0)
(0.0210522 -0.19559 0)
(0.010296 -0.0548925 0)
(0.0189904 -0.115381 0)
(0.00087418 -0.0440569 0)
(0.0087208 -0.163004 0)
(0.00584651 -0.130745 0)
(-0.00163339 -0.193384 0)
(0.00049114 -0.0020103 0)
(0.0222126 -0.152049 0)
(-9.05795e-05 -0.00607066 0)
(0.0200812 -0.146031 0)
(0.00426509 -0.0725266 0)
(0.00894381 -0.192311 0)
(0.0189192 -0.122437 0)
(0.0187412 -0.117283 0)
(0.0164005 -0.206139 0)
(0.0195459 -0.13134 0)
(0.00508402 -0.165932 0)
(2.64155e-05 -0.00545601 0)
(0.0198524 -0.14905 0)
(-0.00211789 -0.118228 0)
(0.00118108 -0.15828 0)
(0.0103007 -0.133357 0)
(0.0211693 -0.19211 0)
(-0.000264147 -0.0173075 0)
(-0.00999601 -0.20301 0)
(-0.000866121 -0.0463288 0)
(0.00980599 -0.0980112 0)
(0.0215789 -0.17151 0)
(-0.0130365 -0.207574 0)
(0.0212342 -0.189245 0)
(-0.000774087 -0.0429203 0)
(-0.000412888 -0.102026 0)
(0.00142273 -0.0823409 0)
(0.0203973 -0.203716 0)
(0.00085522 -0.00375738 0)
(-0.00297052 -0.142502 0)
(0.0217101 -0.171133 0)
(0.00142751 -0.0666565 0)
(0.0172916 -0.0751404 0)
(0.0111081 -0.196058 0)
(-0.00132445 -0.0697836 0)
(-0.00259769 -0.199275 0)
(0.0107297 -0.0824104 0)
(-4.04574e-05 -0.0075815 0)
(-0.0039776 -0.177796 0)
(0.021532 -0.177732 0)
(0.0181988 -0.179726 0)
(0.0105609 -0.144655 0)
(0.000652589 -0.102252 0)
(-0.000849996 -0.0454841 0)
(0.00728749 -0.209456 0)
(0.0194081 -0.162538 0)
(-7.46448e-05 -0.00502515 0)
(0.0103693 -0.169643 0)
(0.000477324 -0.0331582 0)
(0.00026549 -0.00786071 0)
(-0.00047533 -0.026676 0)
(-1.83969e-05 -0.002815 0)
(0.00526505 -0.195313 0)
(-0.00103608 -0.0607702 0)
(0.00832135 -0.0816573 0)
(-0.000286641 -0.0789827 0)
(0.00139356 -0.0838658 0)
(0.00873674 -0.131037 0)
(0.0218793 -0.165074 0)
(0.0155852 -0.207151 0)
(0.0154422 -0.141786 0)
(-0.00090891 -0.200044 0)
(0.0042817 -0.070796 0)
(0.0149084 -0.144561 0)
(0.00135184 -0.0804472 0)
(0.000520224 -0.0342711 0)
(0.00783622 -0.102662 0)
(0.00806592 -0.0818017 0)
(0.0217516 -0.169883 0)
(0.0092193 -0.0568623 0)
(0.0200753 -0.133927 0)
(0.0103516 -0.0575828 0)
(0.0108099 -0.146633 0)
(-0.000487889 -0.0271885 0)
(-0.0226409 -0.20903 0)
(0.000230633 -0.00895679 0)
(-0.00269662 -0.181984 0)
(0.00438838 -0.172448 0)
(0.0194074 -0.189132 0)
(0.0120811 -0.159024 0)
(0.0135651 -0.156254 0)
(0.0223358 -0.147662 0)
(0.0167597 -0.122787 0)
(0.00397733 -0.160926 0)
(-0.00162375 -0.19285 0)
(-0.00213971 -0.140928 0)
(-0.00296079 -0.209561 0)
(0.0139772 -0.164275 0)
(-0.000464352 -0.0237495 0)
(0.00582536 -0.117587 0)
(0.0194665 -0.129992 0)
(0.0180322 -0.154788 0)
(-0.00220487 -0.199679 0)
(8.82406e-05 -0.0106124 0)
(-0.00524375 -0.200757 0)
(0.00119536 -0.0627255 0)
(0.00137016 -0.067749 0)
(-0.00926124 -0.205062 0)
(-0.000347809 -0.0215459 0)
(0.0162406 -0.198473 0)
(0.0116805 -0.14174 0)
(0.000778771 -0.0453872 0)
(0.000691095 -0.135337 0)
(0.000857477 -0.0454884 0)
(0.00594088 -0.0174021 0)
(-2.99596e-05 -0.00174605 0)
(0.0137378 -0.0777178 0)
(0.0219736 -0.14672 0)
(0.00151033 -0.0679698 0)
(0.0201985 -0.178591 0)
(0.00677569 -0.209556 0)
(0.0065028 -0.176599 0)
(-0.00713848 -0.203008 0)
(0.0127556 -0.0522736 0)
(0.000101255 -0.00645537 0)
(-0.000373774 -0.0225079 0)
(0.00554068 -0.0869098 0)
(0.000764098 -0.0414874 0)
(0.0200503 -0.152205 0)
(0.0162902 -0.0498954 0)
(0.000314315 -0.0582684 0)
(0.00429223 -0.114897 0)
(-2.16398e-05 -0.00178991 0)
(0.0210085 -0.197358 0)
(-0.00445956 -0.19504 0)
(0.00117931 -0.157147 0)
(0.0177661 -0.204824 0)
(0.0210093 -0.168561 0)
(0.00412242 -0.0632363 0)
(-0.00152888 -0.0970235 0)
(0.0141936 -0.145069 0)
(0.00156667 -0.0668451 0)
(-0.000889202 -0.0443033 0)
(-0.000545738 -0.124036 0)
(-0.00145731 -0.0826519 0)
(0.00136231 -0.0227959 0)
(-0.000514754 -0.0257349 0)
(-0.00129579 -0.0687275 0)
(-0.00565046 -0.209221 0)
(9.6017e-06 -0.0193122 0)
(0.0167371 -0.1995 0)
(0.0119397 -0.156917 0)
(0.016086 -0.109848 0)
(-3.17035e-05 -0.00183699 0)
(-8.20716e-05 -0.0396011 0)
(0.00211761 -0.196118 0)
(0.000923236 -0.162559 0)
(-0.00203945 -0.120319 0)
(-6.73536e-05 -0.0567311 0)
(0.00753856 -0.0578328 0)
(-0.00162682 -0.114192 0)
(0.0100414 -0.0975922 0)
(0.00505993 -0.193189 0)
(-0.000826582 -0.0450309 0)
(-0.00117743 -0.174966 0)
(0.0169955 -0.196501 0)
(-0.00112011 -0.0565507 0)
(-2.84168e-05 -0.0031647 0)
(0.00675303 -0.0864901 0)
(0.00185081 -0.159693 0)
(0.000565006 -0.122099 0)
(0.0186251 -0.0784962 0)
(0.00957269 -0.19188 0)
(0.0141155 -0.164943 0)
(0.0164984 -0.0504778 0)
(0.000604475 -0.100917 0)
(-0.00557805 -0.194446 0)
(0.000276964 -0.0588729 0)
(0.0197738 -0.208128 0)
(0.0192448 -0.192091 0)
(-0.0028113 -0.141861 0)
(0.0180556 -0.19002 0)
(0.00153796 -0.00352889 0)
(-0.000231552 -0.0154748 0)
(0.00404348 -0.110786 0)
(-0.000627334 -0.0324078 0)
(-0.00115786 -0.0633108 0)
(1.63161e-06 -0.020161 0)
(2.29834e-05 -0.00153208 0)
(-8.42621e-05 -0.0555384 0)
(0.0192176 -0.160563 0)
(-0.000121977 -0.00820138 0)
(-6.56676e-05 -0.0540277 0)
(0.0143948 -0.0814534 0)
(0.0165 -0.143116 0)
(0.0215835 -0.159723 0)
(0.00410727 -0.161972 0)
(0.00371203 -0.151056 0)
(0.000788271 -0.0175854 0)
(0.0211336 -0.117544 0)
(0.0136087 -0.200089 0)
(0.0175623 -0.052295 0)
(0.0132706 -0.208428 0)
(0.00834655 -0.198155 0)
(0.0204104 -0.148056 0)
(-0.000165518 -0.0111199 0)
(0.0192181 -0.136715 0)
(0.00586684 -0.0555194 0)
(-2.73052e-05 -0.00220876 0)
(0.00406131 -0.108825 0)
(0.020931 -0.200618 0)
(0.0214332 -0.143958 0)
(-0.00133605 -0.0655935 0)
(0.0188567 -0.0759578 0)
(-0.000378927 -0.0203795 0)
(0.00665885 -0.0532 0)
(-6.05624e-06 -0.000405395 0)
(0.00634347 -0.109716 0)
(-0.00144837 -0.0964843 0)
(-0.00144445 -0.143448 0)
(-1.86415e-05 -0.00116222 0)
(0.0162789 -0.143535 0)
(0.00291244 -0.164693 0)
(0.0219172 -0.163528 0)
(2.09657e-05 -0.00287124 0)
(-0.0019061 -0.174824 0)
(-2.23757e-05 -0.00127363 0)
(0.000987393 -0.201272 0)
(0.00872866 -0.182809 0)
(0.0208448 -0.185736 0)
(0.0217989 -0.128034 0)
(0.0199221 -0.154641 0)
(0.00971775 -0.195715 0)
(0.0210807 -0.193546 0)
(-0.00112147 -0.0558792 0)
(0.00886001 -0.207222 0)
(-3.82467e-05 -0.00529685 0)
(0.00471088 -0.186646 0)
(-0.000115947 -0.00777115 0)
(0.0105508 -0.13342 0)
(0.018396 -0.103088 0)
(0.0110104 -0.0880891 0)
(0.0212723 -0.187287 0)
(0.0122991 -0.153132 0)
(0.0154203 -0.135631 0)
(-0.000810818 -0.0441892 0)
(0.0178141 -0.188525 0)
(-0.00186085 -0.118555 0)
(0.00576688 -0.023456 0)
(0.0161117 -0.105224 0)
(0.00862032 -0.148757 0)
(-0.000249934 -0.0166679 0)
(0.00303866 -0.146604 0)
(-0.00353285 -0.177775 0)
(-0.00224215 -0.105202 0)
(-0.00304992 -0.167335 0)
(0.00168464 -0.0327134 0)
(0.0169484 -0.122583 0)
(0.000403172 -0.104944 0)
(-0.00222764 -0.111782 0)
(0.0174044 -0.203756 0)
(0.00169827 -0.159236 0)
(-0.00022498 -0.0149723 0)
(0.0160826 -0.0457726 0)
(0.00118605 -0.209263 0)
(0.0117649 -0.171119 0)
(0.00314578 -0.194372 0)
(0.0118032 -0.20259 0)
(-0.000797136 -0.0966327 0)
(-0.000158864 -0.0106327 0)
(0.0208711 -0.177451 0)
(0.00294679 -0.145471 0)
(0.0160347 -0.159776 0)
(0.0157239 -0.137019 0)
(0.0211785 -0.181652 0)
(-0.000622557 -0.0319295 0)
(0.015324 -0.18876 0)
(0.000944709 -0.166632 0)
(0.00568509 -0.123904 0)
(0.000701669 -0.121798 0)
(0.0086474 -0.0769011 0)
(0.000135089 -0.209642 0)
(0.00352846 -0.163444 0)
(0.0212288 -0.189034 0)
(-0.000387324 -0.0211946 0)
(0.0181824 -0.104744 0)
(0.0207237 -0.161569 0)
(0.013613 -0.11075 0)
(0.0212449 -0.179499 0)
(0.0201463 -0.180206 0)
(-2.44076e-05 -0.00174062 0)
(0.0016146 -0.181635 0)
(0.0213998 -0.182163 0)
(0.0015619 -0.182523 0)
(0.0221431 -0.148822 0)
(0.00143737 -0.0147376 0)
(0.00690516 -0.0888585 0)
(0.0216304 -0.174557 0)
(0.013008 -0.200358 0)
(0.00374335 -0.209467 0)
(0.00113482 -0.0108383 0)
(0.013178 -0.0418409 0)
(0.00801782 -0.0839784 0)