/*--------------------------------*- C++ -*----------------------------------*\
| =========                 |                                                 |
| \\      /  F ield         | OpenFOAM: The Open Source CFD Toolbox           |
|  \\    /   O peration     | Version:  v2012                                 |
|   \\  /    A nd           | Website:  www.openfoam.com                      |
|    \\/     M anipulation  |                                                 |
\*---------------------------------------------------------------------------*/
FoamFile
{
    version     2.0;
    format      ascii;
    class       surfaceVectorField;
    location    "400";
    object      ddtCorrDdt0(Uf);
}
// * * * * * * * * * * * * * * * * * * * * * * * * * * * * * * * * * * * * * //

dimensions      [0 1 -2 0 0 0 0];


internalField   nonuniform List<vector> 
20673
(
(-0.00510953 -0.00178296 -6.63023e-19)
(-0.00522663 -0.00168686 9.32044e-18)
(-0.00505757 -0.00164028 3.32161e-18)
(-0.0015862 -0.000685883 4.99743e-20)
(-0.00154167 -0.000705447 1.55589e-18)
(-0.00159032 -0.000747295 -4.11619e-19)
(0.00982497 0.00105094 5.68047e-18)
(0.00962517 0.00116628 1.07008e-18)
(0.0093313 0.00132154 2.2868e-17)
(-0.000307231 0.00348042 -1.12297e-17)
(-0.000399273 0.00340037 2.5823e-18)
(-0.00029023 0.00337393 -1.87838e-18)
(-5.13303e-05 -0.000747657 -1.9244e-18)
(-4.34571e-05 -0.000753163 -8.50732e-18)
(-5.42439e-05 -0.000791617 -4.61049e-18)
(-0.000150326 -0.00767943 3.53749e-17)
(-0.000119524 -0.00769096 4.16296e-17)
(-0.000156583 -0.00781462 7.09316e-17)
(0.00980789 0.00116914 -2.95632e-18)
(0.00993107 0.00111992 1.50713e-18)
(0.00938643 0.00136774 6.34638e-18)
(0.00980109 0.0010328 -4.13466e-18)
(0.0100798 0.00087112 -4.38627e-18)
(0.0100352 0.000880286 3.64632e-18)
(0.0113416 -0.000713158 5.27083e-18)
(0.0113402 -0.000788852 -1.22388e-17)
(0.0112447 -0.000876685 -1.2366e-17)
(-0.00648367 -0.00236302 -7.00551e-18)
(-0.0066575 -0.00234939 5.18213e-18)
(-0.00658001 -0.00252103 4.04118e-18)
(-0.00850138 0.0113982 -4.46174e-18)
(-0.00806915 0.0117375 -1.06341e-17)
(-0.00521656 0.011672 -5.2216e-17)
(-0.00288655 0.00912655 1.9993e-18)
(-0.00297316 0.00933976 1.53485e-17)
(-0.00307675 0.00906897 3.48843e-17)
(-0.000337414 0.00356467 -4.38715e-18)
(0.0132571 -0.00094028 1.29449e-17)
(0.0158549 -0.0010038 -6.99385e-18)
(0.0130635 -0.000960222 -2.95581e-17)
(-0.00193116 -0.00264555 9.24642e-19)
(-0.00186996 -0.00271445 1.49131e-18)
(-0.00182936 -0.00261496 6.44833e-18)
(-0.00220567 -0.0022398 -4.09607e-19)
(-0.00210924 -0.00224747 1.85938e-18)
(-0.00214242 -0.00213733 -7.48126e-19)
(-0.001587 -0.00101692 2.82676e-21)
(-0.00160704 -0.000970483 -1.31592e-19)
(-0.00155117 -0.000979179 3.38393e-21)
(-0.00680649 0.00287979 -2.81287e-18)
(-0.00684218 0.00273922 -6.46968e-18)
(-0.00696155 0.00291245 2.20124e-17)
(-0.00269017 0.00923059 -1.15776e-17)
(-0.0027567 0.00895357 -2.40455e-17)
(-0.00010287 -0.0002306 -3.12771e-20)
(-0.000100037 -0.000217755 2.31846e-20)
(-9.06964e-05 -0.000214395 -4.04818e-21)
(-4.19826e-06 -8.95618e-05 -1.13835e-18)
(-4.48676e-06 -0.000118259 -1.30345e-18)
(-4.81113e-06 -8.88844e-05 -4.42838e-19)
(0.00976268 0.0011906 3.27913e-18)
(0.0102125 0.00102665 -7.43177e-18)
(-0.000144886 -0.000431232 -5.16659e-20)
(-0.000159283 -0.000454611 1.25436e-19)
(-0.000157116 -0.000436299 2.04594e-19)
(0.00952896 0.0012398 -3.71321e-18)
(0.00953679 0.00122465 1.10869e-17)
(-0.000341788 -0.0010337 -1.14188e-19)
(-0.000336825 -0.001055 -1.067e-18)
(-0.000365413 -0.00105699 -2.45408e-19)
(0.00861809 0.00172845 -2.27438e-17)
(0.00903755 0.00153681 1.92928e-17)
(0.00917183 0.0015164 -1.58188e-17)
(-0.000454009 -0.0047451 9.49634e-18)
(-0.000486647 -0.00471505 -1.53857e-17)
(-0.000306485 -0.00470492 -1.00924e-17)
(-0.000813435 -0.0051286 -8.95062e-18)
(-0.000878225 -0.00517987 -3.27438e-18)
(-0.0008161 -0.00524686 -4.08462e-18)
(-0.00216494 -0.00812541 6.65183e-19)
(-0.00230232 -0.00821067 1.38753e-17)
(-0.00224118 -0.00841797 1.75022e-18)
(-0.00864132 -0.000684509 3.50133e-18)
(-0.00866241 -0.000506539 5.77309e-18)
(-0.00884662 -0.000575058 -3.68322e-17)
(-0.00564034 -0.00127792 5.83678e-18)
(-0.00554004 -0.00139189 9.91419e-18)
(-0.00548404 -0.0012486 4.59464e-18)
(-0.00373711 -0.00111751 -5.04266e-18)
(-0.00365762 -0.00118006 2.6704e-18)
(-0.0036336 -0.00106785 2.60536e-18)
(-0.00068079 -0.0041555 1.96558e-18)
(-0.000692571 -0.00424579 9.61704e-18)
(-0.000607842 -0.0042029 3.05284e-19)
(1.00284e-05 -0.00311238 8.59744e-18)
(4.68605e-05 -0.00306383 4.49914e-18)
(-5.12067e-06 -0.00304962 5.36552e-18)
(-0.000256942 -0.00116652 3.13875e-18)
(-0.000272515 -0.00119782 -1.16358e-18)
(-0.000279256 -0.00116835 1.31233e-20)
(0.00269299 0.00690135 -3.50754e-18)
(0.00301604 0.00676577 4.74283e-17)
(0.00323209 0.00623264 1.80772e-17)
(-0.000132899 -0.00042239 -1.38826e-19)
(-0.000134395 -0.000406757 1.80544e-19)
(0.0136225 -0.000626837 4.75343e-18)
(0.0139395 -0.000689282 -2.74023e-17)
(0.0138424 -0.000658453 -7.09371e-18)
(-0.000519807 0.00427466 3.04511e-18)
(-0.000536733 0.00439445 -7.73341e-18)
(0.0114802 -5.05647e-05 -1.30174e-17)
(0.0120688 -0.000238719 -2.43819e-17)
(0.0113548 -4.48394e-05 -4.8579e-17)
(-0.000273442 -1.85183e-05 2.14244e-19)
(-0.000280219 -1.63004e-05 1.01624e-18)
(-0.000271888 -1.12419e-05 -6.59751e-19)
(-1.13845e-06 -5.48789e-05 -9.302e-19)
(-6.25555e-07 -2.65612e-05 -1.54643e-18)
(-1.59825e-07 -2.73464e-05 1.4694e-18)
(-0.000131551 0.000335658 -3.3746e-18)
(-0.000152826 0.00031452 1.88325e-18)
(-0.000126208 0.000308672 8.1905e-19)
(-0.00107873 -0.00590305 -1.77915e-17)
(-0.00117532 -0.00589963 1.13122e-17)
(-0.00113492 -0.0060602 -4.2248e-17)
(-0.00149041 0.000455634 -1.73459e-18)
(-0.00154883 0.000466803 -1.51351e-18)
(-0.00152114 0.000510493 -2.66805e-18)
(-0.000195033 -0.00337941 -1.2316e-18)
(-0.000134168 -0.00339553 -7.47065e-20)
(-0.000155521 -0.00332425 5.25235e-19)
(-0.00677916 0.00306877 -4.51614e-18)
(-0.00663792 0.00288516 -5.1417e-18)
(-0.00739553 0.00505998 -1.92989e-17)
(-0.00725771 0.00491037 3.67254e-18)
(-0.00720829 0.00510418 -3.71867e-18)
(-0.000755598 -0.00994694 1.66902e-17)
(-0.000781129 -0.00984692 -4.31831e-17)
(-0.000654096 -0.00959471 -8.81704e-17)
(-0.000134 -2.62242e-05 5.15499e-19)
(-0.000144977 -2.35884e-05 -5.46662e-19)
(-0.000142923 -3.68803e-05 -1.75556e-19)
(-0.00337718 0.00261451 -3.37612e-19)
(-0.00345983 0.00257214 1.55227e-18)
(-0.00345654 0.00268118 1.0738e-17)
(-0.000193759 -0.00197236 3.9468e-18)
(-0.000163458 -0.00198799 5.30092e-18)
(-0.000199148 -0.00201905 8.18459e-18)
(-0.000455554 -0.00988835 9.164e-17)
(-0.000548046 -0.0108534 1.11993e-16)
(-3.01331e-05 -0.00316025 1.18054e-17)
(3.00059e-05 -0.00317508 4.34345e-18)
(-0.00162505 -0.00105928 4.6512e-19)
(-0.00156152 -0.0010586 9.31063e-20)
(-0.00381017 0.00128956 1.73967e-18)
(-0.00379673 0.00119149 -2.70075e-18)
(-0.00389462 0.00123954 -1.93313e-17)
(-0.00901232 0.0106568 1.91571e-17)
(-0.00849927 0.0107292 3.85092e-17)
(-0.000800784 -0.0012783 1.55287e-19)
(-0.00076283 -0.00125689 8.68724e-19)
(-0.000798594 -0.00124116 -1.9456e-18)
(-0.00326362 0.000677485 6.47729e-18)
(-0.00336954 0.000680716 -7.4059e-18)
(-0.00331199 0.00057218 -1.80917e-18)
(-0.0014632 0.000402885 -7.00407e-18)
(-0.0014384 0.000447214 -3.15181e-18)
(0.0190808 0.00104854 -5.60157e-17)
(0.0155709 0.00020932 -1.5554e-17)
(0.0168761 0.000496442 -2.34096e-17)
(-0.0016012 -0.00063483 -1.66887e-18)
(-0.00164508 -0.00067573 -9.26366e-19)
(0.0132821 -0.000881902 -8.21167e-18)
(-0.000106419 -0.000241937 3.73017e-22)
(-0.000115427 -0.000245135 -3.89942e-20)
(-0.000389577 -0.00775657 -1.20785e-16)
(-0.000281865 -0.00751731 -1.2944e-17)
(0.0265127 0.00796205 -7.58673e-18)
(0.0270021 0.00796198 -1.2824e-17)
(0.0257775 0.0071935 2.53529e-17)
(1.65542e-05 -0.000796895 2.23622e-19)
(1.31077e-05 -0.000833001 3.95243e-19)
(2.67674e-05 -0.00127963 -1.05269e-18)
(3.10389e-05 -0.00124293 -3.99494e-18)
(-0.0130958 0.00674989 1.28193e-18)
(-0.0129745 0.00801673 1.43669e-17)
(-0.0102956 0.00705804 -8.09748e-18)
(-0.00423339 -0.00231264 -5.62539e-18)
(-0.00434373 -0.00229202 7.1064e-19)
(-0.00430434 -0.00242494 -6.28925e-18)
(-4.66677e-05 -0.000705383 3.29516e-18)
(-5.78663e-05 -0.000741068 3.22987e-18)
(0.0114104 -0.000573746 -1.44818e-17)
(0.0113456 -0.000564969 -5.38973e-18)
(0.0122596 -0.00134836 8.46936e-18)
(0.0120761 -0.00136043 -2.95558e-17)
(0.0120116 -0.00137464 -3.13901e-17)
(-0.000349709 -0.00101432 4.29192e-19)
(-0.000326361 -0.00100416 1.26943e-18)
(-0.000888795 -0.00983007 -4.98277e-18)
(-0.000866954 -0.00940697 -3.61139e-17)
(-0.0010273 -0.00972844 -2.21097e-17)
(-0.00160848 0.0104926 2.984e-17)
(-0.00147623 0.0103266 -1.10929e-17)
(-0.00169 0.010259 7.02452e-19)
(0.0141867 -0.00119793 -1.70871e-17)
(0.0137929 -0.00114878 -6.26854e-18)
(0.0141234 -0.00122656 2.42556e-17)
(-0.00210069 0.000953439 7.45071e-18)
(-0.00217201 0.000972065 -7.40089e-19)
(-0.0021587 0.0008855 9.14476e-18)
(0.00815838 0.00181726 -3.28711e-18)
(0.00830704 0.00181249 -5.19659e-18)
(0.00761903 0.00205634 8.92342e-19)
(-1.08683e-05 -0.000165987 1.77955e-18)
(-1.46875e-05 -0.000198245 5.98047e-19)
(-1.50707e-05 -0.000192174 2.70291e-18)
(-2.73054e-05 -0.000206689 -1.28735e-18)
(-3.07803e-05 -0.000222988 -1.97734e-18)
(-2.54943e-05 -0.000197337 -3.18718e-18)
(1.5022e-05 -0.000756966 -4.72661e-19)
(-0.000500512 -0.00766451 1.69413e-17)
(-0.000741422 -0.00760759 4.44392e-17)
(-0.000560236 -0.00731636 1.12057e-16)
(0.0132833 -0.000554465 7.51663e-18)
(0.0133675 -0.000596987 -3.52213e-18)
(0.00540593 -0.00185654 2.9049e-17)
(0.0048778 -0.00186844 -1.16666e-18)
(0.00515907 -0.00187044 3.06178e-17)
(-0.0020279 0.000922719 -4.00374e-18)
(-0.00204433 0.00100729 6.0708e-18)
(-5.14284e-05 -0.000250603 -1.21788e-19)
(-5.20729e-05 -0.000241464 4.43117e-19)
(-4.29782e-05 -0.000226994 -3.69614e-19)
(0.0242484 0.0078044 2.99867e-17)
(0.0169455 0.00392938 -3.37257e-17)
(-0.00324927 0.00264272 1.77086e-19)
(-0.00328448 0.00251239 -7.17985e-18)
(-0.000113498 0.000353997 -6.84206e-20)
(-0.000140983 0.000360514 -2.1173e-18)
(0.0127229 -0.001165 -1.29894e-17)
(0.0129637 -0.00116965 -2.19689e-17)
(0.0129527 -0.00116017 1.65146e-17)
(-0.00791155 -0.00175289 2.72281e-17)
(-0.00770369 -0.00180466 2.84378e-18)
(-0.00780418 -0.00194103 -2.8969e-18)
(-0.00110556 -0.000133533 4.90291e-19)
(-0.0010897 -9.42077e-05 2.11565e-18)
(-0.00106603 -0.0001301 1.60486e-18)
(-0.00114351 -0.00208537 -1.98606e-18)
(-0.0011547 -0.00214137 -1.82918e-18)
(-0.00119773 -0.00210211 -2.08266e-18)
(0.0179768 0.00502753 5.08132e-17)
(0.026478 0.00953375 4.90006e-17)
(-7.03581e-05 -0.00763007 -6.85752e-18)
(-1.33598e-05 -0.00743412 3.10221e-17)
(5.59418e-05 -0.00763232 1.66953e-17)
(-0.00763125 0.00827448 5.75472e-18)
(-0.00761493 0.00822807 3.72188e-17)
(-0.00702302 0.00847437 2.53013e-18)
(-0.00710107 0.00442081 -1.70243e-18)
(-0.00726037 0.00438138 -6.74168e-20)
(-0.00714631 0.00424191 5.55505e-18)
(-0.00209465 0.012108 3.99998e-18)
(-0.00260925 0.012479 -1.32723e-17)
(-0.00195429 0.0122305 9.77572e-18)
(-0.000446847 -0.00625834 -3.87735e-17)
(-0.000462135 -0.00611646 6.99173e-19)
(-0.00052979 -0.00622037 -4.76944e-17)
(-0.000357855 -5.59243e-05 5.08448e-19)
(-0.000365621 -4.76339e-05 -1.85703e-18)
(-0.000371214 -5.93884e-05 -2.74814e-18)
(7.18279e-05 -0.0040302 -1.41682e-17)
(-9.31209e-06 -0.00402236 -4.35907e-17)
(3.15924e-05 -0.00393607 7.24376e-18)
(-0.000942684 -0.00598425 -2.13464e-17)
(-0.000970096 -0.00578136 -1.33179e-17)
(-0.00222641 0.00149933 1.4251e-18)
(-0.00227132 0.00156303 -3.31249e-18)
(-0.00219044 0.00158825 7.48521e-18)
(-0.000600767 -5.09981e-05 1.73534e-18)
(-0.000587604 -3.42076e-05 1.40114e-18)
(-0.000613624 -2.95198e-05 6.4736e-19)
(0.0114286 -0.000715921 3.95476e-17)
(0.0114114 -0.000764146 1.6712e-17)
(0.0116685 -0.000581007 3.85301e-17)
(-0.00278359 -0.00772892 6.38921e-19)
(-0.00255859 -0.00789953 -1.28682e-17)
(-0.00292332 -0.00798195 1.71372e-18)
(-0.00752622 0.00517265 -9.86797e-18)
(-0.00756109 0.00497874 -1.0939e-17)
(-0.00163171 -0.000913897 9.86833e-19)
(-0.00167642 -0.000957936 -1.40081e-19)
(-0.00564932 -0.00167875 7.65272e-18)
(-0.00554125 -0.00177551 5.54306e-18)
(-0.00570179 -0.00182209 1.88685e-19)
(0.00837274 -0.00150528 -1.54433e-17)
(0.00842908 -0.00149476 -1.35111e-17)
(0.00850211 -0.00151186 1.35169e-18)
(0.0111814 0.000135308 1.74426e-17)
(0.0116934 -5.4971e-05 2.16319e-17)
(-0.00325893 0.0102051 -2.03406e-18)
(-0.00310354 0.0103255 4.70502e-18)
(-0.00327594 0.010391 -2.59645e-17)
(0.0114344 -0.000745007 -1.99015e-17)
(0.0113099 -0.000845832 -6.26628e-17)
(-0.000131444 -0.00235654 -3.97755e-18)
(-0.000169381 -0.0024046 -4.70104e-18)
(-0.000100408 -0.00241432 2.67833e-20)
(0.000329094 -0.00976763 2.32277e-17)
(0.000943444 -0.00979555 2.0447e-17)
(0.000933681 -0.010013 8.53056e-18)
(-0.00033691 -0.000705986 6.39073e-19)
(-0.000361507 -0.000725383 3.39917e-18)
(-0.000344829 -0.000735276 1.04394e-18)
(-0.000338163 -0.00914572 7.47431e-17)
(-0.000326233 -0.00888405 6.9818e-18)
(-0.000462151 -0.00896361 5.76051e-17)
(0.0147644 -0.000589536 -2.54343e-18)
(0.0145561 -0.00058356 1.05785e-17)
(0.0142666 -0.000379446 -3.56176e-19)
(-0.00015379 -0.00312598 -1.09544e-17)
(-0.000198584 -0.00317785 3.44393e-18)
(-0.000215986 -0.00309901 9.02267e-19)
(-4.35592e-06 -8.16078e-05 7.25133e-19)
(-3.7052e-06 -8.4093e-05 3.60779e-19)
(-0.0131886 0.00518308 -9.60324e-18)
(-0.0108216 0.00624125 1.53416e-17)
(0.014887 -0.000607509 -1.89807e-18)
(0.0144951 -0.000507296 -5.15554e-18)
(0.0145707 -0.000560948 1.06451e-17)
(-0.000700467 -0.00505105 4.6613e-18)
(-0.000842692 -0.00499116 6.62749e-18)
(-0.000189428 -2.19615e-05 -5.52084e-19)
(-0.000196538 -3.01871e-05 -8.05063e-19)
(-0.000199348 -1.8185e-05 -4.49151e-19)
(-0.0010859 -0.00205533 -2.39697e-18)
(-0.00114192 -0.00201451 2.32452e-18)
(-0.00149405 0.000187914 -8.11949e-19)
(-0.00154866 0.00017956 2.23944e-18)
(-0.00151395 0.000133381 1.6928e-19)
(-0.000180158 -2.27805e-05 1.26055e-18)
(-0.000176252 -1.28443e-05 9.16675e-19)
(-0.000180077 0.000137799 2.13117e-19)
(-0.000158503 0.000141931 -6.09332e-19)
(-0.000167662 0.000120181 2.48754e-18)
(-6.08285e-05 -0.00791365 2.34495e-17)
(0.0130717 -1.58074e-05 5.91815e-18)
(0.0132366 -9.65197e-05 9.93454e-18)
(0.0134143 -0.000158331 2.20852e-17)
(-8.42819e-05 -0.00232771 -7.90549e-18)
(-0.000136986 -0.00230674 -1.35707e-18)
(-0.00160598 0.000470928 2.92077e-18)
(-0.00157481 0.000412102 -1.67518e-18)
(-3.98396e-06 -9.20676e-05 -7.99125e-19)
(-2.00509e-06 -6.09614e-05 -8.74313e-19)
(0.0216108 0.00300515 2.16436e-17)
(0.021453 0.00329901 1.82962e-17)
(0.0215098 0.00265816 -2.14864e-17)
(0.00924587 0.00145191 9.29614e-18)
(0.00950865 0.00123336 -8.6788e-18)
(-0.00515517 -0.00190904 -7.52363e-18)
(-0.00499892 -0.00185753 -5.95081e-18)
(-0.000480219 -0.00639104 -3.05832e-17)
(-0.000453461 -0.00632329 -1.80371e-17)
(5.03633e-07 -0.000831736 -1.57444e-18)
(8.03955e-06 -0.000868569 2.89656e-18)
(-8.56582e-05 -0.00314649 -6.07999e-18)
(-0.000107838 -0.00307552 -1.03795e-17)
(0.00293083 0.00730108 -2.644e-19)
(0.00253317 0.00751386 -4.19257e-18)
(0.00213683 0.00799574 -3.89016e-17)
(-0.000746368 0.000299003 1.4552e-18)
(-0.000771018 0.000281238 5.52143e-19)
(-0.000737726 0.000265041 -6.90668e-19)
(-0.000424157 -0.00208964 1.85258e-18)
(-0.000441014 -0.00213811 1.06303e-18)
(-0.000386162 -0.00211529 -6.11235e-18)
(-0.000914743 -0.00614199 2.46413e-17)
(-0.000867996 -0.00625114 -3.57969e-17)
(-0.00100281 -0.0062443 5.66641e-17)
(1.11483e-05 -0.00127867 8.5325e-19)
(2.32605e-05 -0.00131133 4.53968e-18)
(0.0119538 0.000125827 1.75993e-18)
(0.0116532 -0.000142263 -1.46257e-17)
(0.0120542 3.97993e-05 -4.85333e-18)
(-0.00273311 -0.00847556 -1.21128e-18)
(-0.00269729 -0.00825417 -3.72606e-18)
(-0.00251415 -0.00823007 1.15003e-17)
(-0.000224592 -0.0019429 -1.32386e-17)
(-0.000182059 -0.00192694 -7.04297e-18)
(-0.0006347 0.000300897 -1.94093e-18)
(-0.000661199 0.000286048 -1.02279e-18)
(-0.000631847 0.000268614 7.01182e-19)
(-0.00367938 -0.00139931 -1.7423e-18)
(-0.00358366 -0.00145667 -6.56776e-20)
(-0.0036994 -0.00152638 -7.79381e-18)
(-0.00557654 0.00620393 -9.57921e-18)
(-0.00569342 0.00609051 -5.44359e-17)
(-0.00546595 0.00611239 -2.28405e-17)
(0.000311721 -0.00964138 3.12786e-17)
(0.000217457 -0.00998865 2.90042e-17)
(-0.00559193 0.0087869 2.27206e-17)
(-0.00579499 0.00880208 1.37935e-17)
(-0.00564451 0.00897941 1.5582e-17)
(-0.00380369 -0.00354198 3.58769e-19)
(-0.00380963 -0.0034312 8.47122e-20)
(-0.00394614 -0.00349821 -5.12461e-18)
(-0.00391998 4.72095e-05 -2.40691e-18)
(-0.00386535 -6.11749e-05 -1.01818e-17)
(-0.00379788 3.6063e-05 -7.13141e-18)
(0.00458063 -0.000971784 -3.71279e-18)
(0.00355544 -0.000695082 3.24034e-17)
(0.00294633 -0.000705639 -1.39833e-18)
(-0.00409524 -0.00238087 4.34665e-18)
(-0.00412797 -0.00221395 2.62159e-18)
(0.00972383 0.00336966 -2.25238e-17)
(0.00973941 0.00373405 -1.839e-18)
(0.00934981 0.00392557 -2.84314e-19)
(0.0143569 -0.00122042 2.4423e-18)
(0.0141431 -0.0011777 1.48961e-17)
(0.0221264 0.00365509 -1.376e-17)
(0.0215561 0.00278515 7.69923e-18)
(-0.000748652 -0.00265994 4.30984e-18)
(-0.00076792 -0.00271502 -2.92597e-18)
(-0.000705029 -0.00270099 5.71757e-18)
(0.000285513 -0.0045892 2.34688e-18)
(0.000213926 -0.00458309 -6.3529e-18)
(0.000238374 -0.00469032 -1.37341e-17)
(-1.41952e-05 -0.000169834 1.48752e-19)
(-1.44346e-05 -0.000160712 -7.184e-19)
(-9.03509e-06 -0.000139532 -1.89144e-18)
(-0.00746968 0.00837816 -1.06297e-17)
(-0.00756095 0.008146 -1.57225e-17)
(-0.00344433 0.0100956 2.98922e-17)
(-0.00325169 0.0100023 1.67408e-17)
(-0.00225755 0.0119382 -6.73356e-18)
(-0.00235763 0.0120131 1.11294e-17)
(-0.00225938 0.00142903 3.49445e-18)
(-0.00218062 0.00144742 6.01658e-19)
(-0.006399 0.00529718 -4.63744e-18)
(-0.00631832 0.00545265 2.07274e-18)
(-0.00652452 0.00546471 2.42306e-17)
(-0.0011942 0.000345514 5.85481e-18)
(-0.00124126 0.000353542 -1.59557e-18)
(-0.00122176 0.000300503 -3.46691e-18)
(0.00014661 -0.00405809 -1.52782e-17)
(6.57837e-05 -0.00412095 -1.24648e-17)
(-0.00424925 -0.00327917 -6.87112e-19)
(-0.00424248 -0.00331806 7.00965e-19)
(-0.004145 -0.00327957 3.32166e-18)
(0.00772102 -0.00146061 -2.09454e-18)
(0.00776652 -0.00146176 2.77534e-17)
(0.00776422 -0.0014345 -1.87134e-17)
(-0.00277445 0.0107493 1.26761e-18)
(-0.00289642 0.0109111 3.67716e-18)
(-0.00297971 0.0106739 -1.68932e-17)
(-0.00176402 -0.00121958 -5.97904e-19)
(-0.00180159 -0.00124551 1.44816e-19)
(-0.00175594 -0.00126462 -1.35952e-19)
(0.0116191 0.000746661 7.65795e-18)
(0.0117227 0.000666865 -1.83494e-17)
(0.0120593 0.00102296 -2.52788e-18)
(-0.00379413 -0.00391113 -1.33956e-18)
(-0.00378612 -0.00401709 -2.03942e-19)
(-0.00392114 -0.00397718 -5.35591e-19)
(0.0129127 4.27027e-05 -3.04232e-17)
(0.012687 0.000112123 -1.91598e-17)
(-0.00023496 -0.00935162 3.54585e-17)
(-0.00045008 -0.00937863 1.68609e-17)
(0.0119227 0.000236005 3.3369e-18)
(0.0124746 0.00046418 -1.39261e-17)
(-0.00094624 -0.000597381 3.4176e-19)
(-0.00098148 -0.000593142 -8.90064e-19)
(-0.000969947 -0.000630287 -6.64762e-19)
(-0.00809966 -0.00172609 1.27992e-17)
(-0.00800509 -0.00158898 4.28027e-18)
(-0.00582105 -0.00130665 -1.20694e-17)
(-0.00575714 -0.0011629 -5.90188e-18)
(-0.000752299 0.000335776 7.7922e-19)
(-0.000720456 0.000319213 -2.37802e-19)
(-5.34082e-05 -0.000260967 -5.79506e-19)
(-6.16571e-05 -0.000274841 -2.67883e-19)
(-0.00181215 -0.00339325 3.34242e-18)
(-0.00172349 -0.00340488 4.64362e-18)
(-0.00176443 -0.00331793 3.04401e-18)
(0.00803758 0.00199475 -2.24761e-17)
(0.00819105 0.00191501 -1.1942e-17)
(-0.0100191 -0.00217345 3.68578e-18)
(-0.0107106 -0.00264348 -2.40603e-18)
(-0.0104835 -0.00256144 6.20502e-18)
(0.00554439 -0.000681975 -8.05803e-17)
(0.0078977 -0.000506484 1.16475e-17)
(-0.00542454 0.00158588 1.01318e-18)
(-0.00541087 0.0014505 -1.04713e-17)
(-0.00555043 0.00153345 -1.35169e-17)
(-0.00363433 0.0112738 -1.91518e-18)
(-0.00348661 0.0113087 7.03965e-18)
(-0.00399076 0.0114208 -3.77149e-18)
(0.00529564 0.00649698 1.23514e-18)
(0.00563209 0.00616361 1.34919e-17)
(0.00595373 0.00603788 -1.74598e-17)
(0.00611793 -0.00182631 -1.87594e-17)
(0.00579614 -0.00185511 -5.77682e-18)
(-0.00941714 -0.00326652 3.44643e-18)
(-0.00940046 -0.00335925 7.45094e-18)
(-0.010056 -0.00353019 2.11269e-17)
(-0.000146407 -0.000544808 -1.31582e-18)
(-0.000128828 -0.000513654 1.23644e-18)
(-0.000128081 -0.0005327 -1.34558e-18)
(-0.000142597 -0.0062912 -5.41249e-18)
(-0.000272416 -0.00630533 1.24454e-17)
(-0.000192068 -0.00646716 4.76611e-17)
(-0.000122613 -0.00458734 4.92762e-18)
(-0.00036291 -0.00430348 1.32544e-17)
(-0.000266898 -8.65602e-07 9.53505e-19)
(-0.000265425 -1.23687e-06 9.07487e-19)
(-0.00111943 -0.000165107 -1.84387e-18)
(-0.00114478 -0.000129015 1.34239e-18)
(-0.00305074 -0.007513 3.87601e-18)
(-0.00295026 -0.00720315 -2.24786e-18)
(-0.00325693 -0.00729815 -3.75089e-18)
(0.00944719 0.000383048 2.75214e-17)
(0.0115061 0.00196809 1.28075e-17)
(0.0190883 0.006591 1.67112e-17)
(-0.00226123 0.00363979 -2.45429e-18)
(-0.00231056 0.00374176 5.38272e-19)
(-0.00238519 0.00364093 -6.49643e-18)
(-0.000127556 -3.20695e-05 1.38941e-19)
(-0.000126388 -1.99194e-05 -6.76769e-19)
(-0.00592293 0.00562472 -1.15765e-17)
(-0.00579545 0.00547893 1.4513e-17)
(-0.00601627 0.0054432 1.41829e-17)
(-0.00549195 0.00636293 3.79061e-17)
(-0.00540145 0.00613017 5.25022e-17)
(0.0125163 -0.00131229 3.28787e-17)
(0.0124281 -0.00131691 -9.47079e-18)
(0.0177298 0.00327547 -4.503e-17)
(0.0173659 0.00338499 1.58855e-18)
(0.0175315 0.00398076 -1.81514e-17)
(-0.000243953 -0.00113848 3.11592e-18)
(-0.000238261 -0.00116668 9.6003e-19)
(-0.000799434 -0.00131953 5.17944e-19)
(-0.000837536 -0.00130049 2.81521e-19)
(-0.00693953 0.00446437 5.46403e-18)
(-0.00704803 0.00461152 -6.93723e-18)
(0.00899269 0.00156273 -1.09921e-17)
(0.00840532 0.00183072 -1.16545e-17)
(0.00868053 0.0017155 4.64621e-18)
(-0.000411513 -0.00203395 3.66626e-19)
(-0.000465161 -0.00206399 -5.4405e-19)
(0.0100491 0.00105286 6.92129e-18)
(0.0102123 0.000962991 -1.63272e-19)
(0.00966221 0.00121899 -8.03338e-18)
(0.012869 -0.00128158 3.92943e-18)
(0.012647 -0.00130191 -2.52883e-17)
(0.0129661 -0.001265 8.30354e-18)
(-0.00389635 0.0111373 1.15011e-17)
(-0.00381649 0.0113107 5.84511e-18)
(-0.000593318 -7.06526e-05 1.14084e-19)
(-0.000616931 -6.27019e-05 1.09528e-18)
(-0.00131969 -0.00769011 5.77657e-18)
(-0.0014044 -0.00774382 4.70054e-17)
(-0.00136374 -0.00789156 -2.46182e-17)
(-0.00642484 0.0045297 1.54051e-17)
(-0.00659962 0.00451651 1.215e-17)
(-0.00648037 0.004359 4.16319e-18)
(0.00960953 -0.00139677 -2.23255e-19)
(0.00943485 -0.00141625 1.00639e-17)
(0.00965696 -0.00142507 -4.80391e-17)
(-0.000515417 -0.000751483 -1.20837e-18)
(-0.000532501 -0.00074137 -1.0702e-19)
(-0.000538063 -0.000773975 -3.08029e-19)
(0.0215914 0.00208114 -5.93541e-18)
(0.0210402 0.00188551 -1.77324e-17)
(-0.000908627 -0.000605437 3.76191e-19)
(-0.000919744 -0.000573008 -5.96147e-19)
(-0.00871439 0.000301169 7.64135e-18)
(-0.00858469 0.000412029 -5.19555e-18)
(-0.00853978 0.000240562 -1.15916e-18)
(-0.000268399 -2.31976e-05 4.12298e-19)
(-0.000268005 -1.76487e-05 -3.36548e-19)
(0.0133726 -0.000775275 -7.82479e-18)
(0.0136867 -0.000795244 3.28525e-18)
(0.0135276 -0.000775737 7.53328e-18)
(0.0114102 -0.000767392 -1.09144e-17)
(0.0113592 -0.000739813 9.86526e-19)
(0.0115935 -0.000638797 -3.96266e-19)
(-0.00224145 -0.00229183 -2.67531e-18)
(-0.00228042 -0.00221054 1.40348e-18)
(-0.00658009 -0.00839712 -2.47866e-17)
(0.00171618 -0.00394598 -2.32474e-18)
(-0.00700482 -0.00871172 -1.23733e-17)
(-0.00403594 6.87975e-05 6.34764e-18)
(-0.0039478 0.000159081 1.70754e-18)
(-0.000579317 -9.01552e-05 -1.87028e-18)
(-0.000567694 -7.36059e-05 2.00286e-19)
(0.00211645 0.0074545 -1.86549e-17)
(0.00247282 0.00697166 -1.70061e-17)
(-0.00258024 0.0108041 8.49835e-18)
(-0.0026565 0.0105841 2.75949e-18)
(-0.00530242 0.00163648 1.98358e-17)
(-0.00542601 0.00171974 9.24605e-18)
(0.00912017 0.00144721 1.05264e-17)
(0.00937368 0.00130944 -5.57503e-18)
(0.00888771 0.00160321 -1.06866e-17)
(0.0127899 -0.00135997 3.77178e-17)
(0.0125565 -0.00130679 1.09476e-17)
(-0.000319893 -3.22787e-06 2.47592e-18)
(-0.000322286 3.60974e-06 -6.73228e-19)
(-0.000315896 1.98928e-06 1.3493e-18)
(-0.00381453 -0.00104502 -1.31064e-17)
(-0.00383847 -0.00117039 -2.01789e-17)
(0.0124727 -0.00118443 -1.82438e-17)
(0.012469 -0.00115812 7.56997e-18)
(0.00366296 -0.00166046 -2.63356e-17)
(0.0033551 -0.00161591 -1.50495e-17)
(0.00344838 -0.00159976 -1.64628e-18)
(-1.49791e-05 -0.000174451 9.81599e-19)
(-1.93558e-05 -0.000198832 2.00933e-18)
(-0.000315038 -0.000277405 1.16273e-19)
(-0.000331459 -0.000273962 -1.1358e-18)
(-0.000330266 -0.000290258 -1.17628e-19)
(0.0102258 0.000256372 -2.28391e-17)
(0.00983403 0.000349289 -2.25586e-17)
(-0.00712159 0.00792447 -1.74165e-17)
(-0.00694135 0.00831148 -1.01002e-17)
(-0.00830016 0.00813755 1.43077e-17)
(-2.61018e-06 -5.94344e-06 -6.16186e-21)
(-1.18838e-06 -4.57824e-06 -6.47458e-20)
(-2.5402e-06 -7.48703e-06 -4.025e-20)
(0.000291584 0.0084859 8.77834e-19)
(-0.000150099 0.00860336 1.50069e-18)
(-0.00044871 0.0090743 1.16585e-17)
(-0.00889483 0.00297997 -2.72167e-17)
(-0.00890423 0.0031747 -2.05347e-17)
(-0.00870918 0.00306287 -2.63088e-17)
(0.000296791 -0.00452193 1.0416e-17)
(0.000355313 -0.0045808 -2.33572e-17)
(-0.00488398 -0.00130113 -1.19662e-18)
(-0.00500418 -0.00138491 4.30862e-18)
(-0.0049867 -0.00122928 3.50411e-18)
(-1.56419e-05 -0.000186798 2.69096e-18)
(-1.5048e-05 -0.000158109 4.89552e-20)
(-0.00333495 -0.00428426 -2.46514e-19)
(-0.00328087 -0.00412041 -1.14202e-18)
(-0.00316249 -0.00425581 2.98443e-18)
(0.0133088 -0.00130068 1.37188e-17)
(0.0134141 -0.00130883 -5.57278e-18)
(0.0133984 -0.00128157 4.24417e-17)
(-0.00055475 0.00152403 -2.18229e-18)
(-0.000516309 0.00157811 -3.20496e-19)
(-0.000582809 0.00158882 1.32214e-18)
(-0.00855707 -0.00226053 1.78e-17)
(-0.00834684 -0.00232804 2.63872e-17)
(-0.00841024 -0.00210791 -4.21078e-17)
(-0.000573091 -0.0065293 -1.7611e-17)
(-0.00068614 -0.00649705 2.89533e-17)
(-0.000676705 -0.00671615 9.80533e-18)
(-0.00144873 0.000186326 1.42922e-18)
(-0.00146653 0.00022703 -2.59899e-18)
(-0.000729172 -0.00123606 -1.01441e-18)
(-0.000729891 -0.00127384 1.15315e-18)
(-0.00483203 0.00815702 3.79663e-18)
(-0.00504875 0.0082193 -1.1831e-19)
(-0.00487045 0.0083774 5.72047e-18)
(0.0098681 0.000620227 1.30406e-17)
(0.0101069 0.000451349 -4.53312e-18)
(0.0102444 0.000464657 -1.16537e-18)
(-0.00537073 0.00880976 -8.84128e-18)
(-0.0055168 0.0085897 3.33823e-19)
(-0.00189497 -0.00340152 8.903e-19)
(-0.00183991 -0.00350236 -3.24513e-18)
(-0.00199414 -0.00256866 1.99111e-18)
(-0.0020165 -0.00266678 -2.47917e-18)
(-2.51043e-06 -1.31347e-05 1.19924e-20)
(-2.35867e-06 -1.1365e-05 1.67165e-20)
(-8.86067e-07 -7.72526e-06 7.09781e-21)
(0.0153114 -0.00068075 -1.38799e-17)
(0.0152368 -0.000664916 1.84624e-18)
(0.0134219 -0.000623628 -1.82854e-17)
(0.0148006 -0.000386867 -2.11394e-17)
(0.0148569 -0.000341339 -4.06711e-17)
(-0.00182553 0.00862079 -4.25255e-19)
(-0.0012964 0.00825498 -3.30414e-19)
(-0.00141206 0.00805041 -1.97235e-17)
(-0.000572311 -0.000106278 -1.28881e-18)
(-0.000591079 -9.74819e-05 -2.02668e-18)
(0.0113392 -0.00139409 -2.17718e-17)
(0.0110832 -0.00140749 1.23384e-17)
(0.0110891 -0.00137797 -2.03817e-17)
(0.015289 -0.000953026 -1.89294e-17)
(0.0153038 -0.000920753 2.70771e-17)
(0.0155695 -0.00100937 3.1352e-18)
(0.00994874 0.00288019 -7.77382e-18)
(0.00960947 0.00308609 -2.69438e-17)
(0.00811418 0.00181277 -9.31557e-18)
(0.00866164 0.00164298 -1.62079e-17)
(-0.00174732 0.0106135 1.63657e-17)
(-0.00154814 0.0106743 -9.60651e-18)
(-2.71982e-05 -0.000220496 1.07441e-18)
(-0.000227745 -2.04948e-05 5.36529e-20)
(-0.000218439 -2.26237e-05 1.34792e-20)
(-0.000228182 -3.11044e-05 -1.65963e-19)
(-0.00675833 0.00320055 -3.11493e-18)
(-0.00660314 0.00322174 1.46343e-17)
(-0.00672866 0.00336339 1.24713e-17)
(0.0136431 -0.000964667 1.23961e-18)
(0.0139225 -0.000994695 -8.48151e-18)
(0.0139225 -0.00104561 -8.67987e-19)
(-0.00898456 0.00554981 2.87286e-18)
(-0.00907701 0.00539843 1.39941e-17)
(-0.00950858 0.00558596 8.58841e-19)
(-0.00315668 0.000661666 -9.66912e-19)
(-0.00320948 0.000761237 1.19535e-18)
(0.0180554 0.00327086 1.00339e-17)
(0.0183509 0.00276723 -3.24441e-17)
(-0.00113285 0.00765289 1.0261e-17)
(-0.00104259 0.00751102 6.30466e-18)
(-0.000143647 8.97677e-05 4.60237e-19)
(-0.000156508 0.000104748 3.20208e-18)
(-0.000134534 0.000108589 -7.79683e-19)
(0.0228142 0.00213012 -2.3421e-17)
(0.0224947 0.00193137 3.95267e-17)
(0.0213394 0.00129008 -7.09239e-18)
(-0.000116757 -0.000212173 -1.07255e-20)
(-0.000113636 -0.000201001 -2.47795e-20)
(-0.000104458 -0.000198933 -1.95208e-20)
(0.011503 0.000749608 -5.47504e-18)
(0.0113602 0.000460244 3.22e-18)
(-0.00220972 0.00350621 -4.58007e-18)
(-0.00212884 0.00361017 -3.25396e-18)
(-2.846e-06 -4.59577e-06 -1.88393e-20)
(-4.37625e-06 -7.20149e-06 3.37401e-21)
(-0.00255773 -0.00242315 7.32296e-20)
(-0.00260054 -0.0025272 1.90367e-20)
(-0.00248222 -0.00248005 -6.19728e-19)
(-0.00381589 -0.00365569 7.06086e-19)
(-0.00369035 -0.00358391 1.32629e-18)
(0.00017752 -0.00467749 2.03132e-17)
(0.000137373 -0.00456569 -6.96156e-18)
(0.000874657 0.0077812 5.38274e-18)
(0.000758954 0.00827347 -7.46203e-19)
(-0.00297809 -0.00305722 -9.56572e-20)
(-0.0030475 -0.00316148 -1.71219e-19)
(-0.00290055 -0.00314399 7.41693e-19)
(-0.00102553 0.00136397 -1.03107e-17)
(-0.00107341 0.00134947 -1.36115e-17)
(-0.00103697 0.00131423 -3.69433e-19)
(0.0215654 0.00636367 8.86845e-18)
(0.0216082 0.00663387 1.91847e-17)
(0.0234004 0.00626689 1.56339e-17)
(0.00896543 0.00158796 1.26177e-17)
(0.00936307 0.00130296 5.38164e-18)
(0.0123383 -0.000884972 -7.48992e-18)
(0.0124868 -0.000864799 -2.58949e-18)
(-0.000500848 -0.000767194 7.17643e-19)
(-0.000490706 -0.000737551 -9.10036e-19)
(0.0108659 0.00253952 -1.10674e-17)
(0.0109851 0.00288757 1.86526e-17)
(0.0111446 0.00240163 1.92202e-17)
(5.20508e-06 -0.00047801 3.68655e-19)
(6.61927e-06 -0.000487401 -1.612e-18)
(1.09195e-05 -0.000511541 1.41274e-18)
(-0.000966771 0.00139237 4.74147e-18)
(-0.0010208 0.00144112 -7.63252e-19)
(-0.000312317 -0.00068534 -1.0008e-18)