/*--------------------------------*- C++ -*----------------------------------*\
| =========                 |                                                 |
| \\      /  F ield         | OpenFOAM: The Open Source CFD Toolbox           |
|  \\    /   O peration     | Version:  v2012                                 |
|   \\  /    A nd           | Website:  www.openfoam.com                      |
|    \\/     M anipulation  |                                                 |
\*---------------------------------------------------------------------------*/
FoamFile
{
    version     2.0;
    format      ascii;
    class       volVectorField;
    location    "400";
    object      U;
}
// * * * * * * * * * * * * * * * * * * * * * * * * * * * * * * * * * * * * * //

dimensions      [0 1 -1 0 0 0 0];


internalField   nonuniform List<vector> 
13917
(
(1.11536 0.175737 2.7614e-20)
(1.03272 0.0620151 -4.11255e-21)
(0.119236 -0.0276659 5.29644e-20)
(1.09996 -0.0145038 -6.00119e-22)
(0.996304 0.00836698 3.55277e-21)
(0.355796 0.0723791 -3.46008e-19)
(0.0844922 -0.0256536 8.42166e-20)
(0.119603 -0.0272615 0)
(0.0336307 -0.0149324 -1.1853e-19)
(1.15553 0.217541 0)
(1.27021 -0.0371919 -1.45732e-19)
(1.19896 -0.0466113 8.24411e-22)
(1.10132 -0.0157415 3.75537e-20)
(-0.254257 0.0034023 8.88636e-20)
(0.975496 0.125453 -2.64171e-20)
(1.00181 0.120313 1.80443e-22)
(1.0255 0.0686285 1.15724e-21)
(1.20591 0.0780949 -3.92487e-21)
(1.1963 -0.0472876 0)
(1.00217 0.00677883 8.08577e-22)
(0.999996 0.00156272 0)
(0.0714257 -0.0246938 -5.59043e-20)
(1.00181 0.0116623 2.51365e-22)
(0.1517 -0.0301345 -7.01569e-20)
(0.996461 0.0249569 0)
(0.0946862 -0.0274317 0)
(0.779911 0.0620521 -9.79466e-20)
(0.752301 0.150593 1.08502e-19)
(0.704322 0.598788 -4.6581e-20)
(1.22935 0.175287 0)
(1.13411 0.168449 -3.5977e-20)
(1.07973 0.130033 1.23157e-20)
(0.834237 0.0976336 0)
(0.908519 0.0255644 -4.48419e-20)
(0.992347 0.0223897 5.7574e-21)
(0.705034 -0.0564084 0)
(1.00164 0.0109614 -2.554e-22)
(-0.143255 -0.00679083 5.54363e-20)
(1.11632 -0.0209596 -4.07256e-20)
(-0.0829215 0.00385655 -9.92167e-20)
(1.01236 0.00123085 -4.006e-21)
(0.999986 0.000641907 -9.47301e-21)
(1.03115 0.00367611 -5.73159e-21)
(0.694759 0.232468 0)
(1.05982 0.0401007 0)
(0.889946 0.0407571 6.24036e-21)
(1.20415 0.0747754 0)
(1.22975 0.0418332 1.03055e-19)
(0.103255 0.150439 -3.30341e-20)
(1.00487 0.00113786 -1.67922e-21)
(1.13604 0.040996 2.42202e-22)
(0.965007 0.0274851 0)
(0.0756965 0.13012 -7.69792e-20)
(0.903846 0.0271478 -2.58422e-20)
(1.02405 0.0699293 0)
(1.12547 0.073457 0)
(1.272 -0.0339827 1.03405e-19)
(0.999437 0.0451825 -2.19273e-21)
(1.10374 0.0769192 0)
(1.05759 0.0391699 -1.27336e-20)
(0.183969 0.028356 -1.17524e-19)
(1.03476 0.0622567 4.61594e-21)
(-0.186404 0.0063352 -8.645e-20)
(1.00234 0.0073709 -9.35763e-22)
(0.383081 0.0855764 2.11766e-19)
(0.69162 0.261612 -5.16115e-20)
(0.995217 0.00479174 -6.39412e-21)
(0.987515 0.00850581 1.55294e-20)
(1.28582 0.0184904 -1.21158e-19)
(1.0756 0.184556 3.18907e-20)
(0.996722 0.00826672 0)
(0.05809 -0.0172701 9.36966e-20)
(-0.212461 -0.00635373 -1.84094e-20)
(0.997024 0.0242351 0)
(0.103269 0.222078 8.73051e-21)
(1.19455 -0.0692493 -2.56017e-20)
(-0.243903 -0.00309294 -4.28755e-20)
(1.08302 0.0470511 1.10093e-20)
(0.106657 -0.0270712 -2.41123e-20)
(0.999951 0.00317174 5.6966e-21)
(1.00022 0.00455502 0)
(0.995798 0.00447521 6.45333e-21)
(0.399775 0.14915 -1.40605e-19)
(-0.124572 -0.00818183 -4.73373e-20)
(-0.136754 0.00284683 5.31565e-20)
(1.08168 0.045065 -1.06243e-20)
(1.00061 0.00581394 -3.44888e-21)
(0.878341 0.356294 2.18919e-19)
(1.13352 0.0401114 -3.26553e-20)
(1.0319 0.00366264 0)
(-0.18398 -0.006608 -3.23008e-20)
(1.19794 0.207575 4.32992e-20)
(1.03545 0.0362674 0)
(0.977046 0.0772412 -1.03018e-20)
(0.843203 0.346601 -1.49486e-19)
(0.384953 0.012527 -6.33561e-20)
(1.25529 -0.00463109 1.60008e-20)
(1.22316 0.0526861 -3.95062e-20)
(1.22072 -0.076309 -6.59624e-21)
(0.602057 0.154087 -2.14038e-19)
(1.0166 0.00886827 1.5523e-21)
(0.842315 0.0278675 -6.02462e-21)
(0.685054 0.216451 -5.32633e-20)
(1.09653 0.0391592 -1.74077e-20)
(1.02483 0.0189187 8.14151e-21)
(0.0672677 -0.0158053 0)
(0.787798 0.543943 3.00761e-20)
(1.23351 0.0423548 -2.40701e-20)
(1.02794 0.0694772 -3.80168e-21)
(1.13064 0.184707 3.99536e-20)
(-0.210932 -0.00766419 0)
(-0.0752307 0.00204321 7.28388e-20)
(1.21121 -0.0557326 1.98421e-20)
(0.0496023 -0.0155219 1.38676e-21)
(0.947194 0.0292035 2.93522e-20)
(0.082656 -0.100654 8.71812e-20)
(1.00281 0.0213753 -6.03908e-21)
(0.199374 0.110691 9.30086e-20)
(-0.152 0.000811569 0)
(0.905606 0.039901 0)
(0.999989 0.00126542 0)
(1.27876 0.020197 4.37226e-20)
(-0.163369 -0.00134041 0)
(0.761419 0.143889 -2.7834e-20)
(1.00732 0.00104211 1.27786e-21)
(0.978502 0.0740552 0)
(1.05242 0.0444738 -5.42789e-21)
(1.00677 0.000832461 -1.7969e-21)
(1.02672 0.00269441 4.03282e-21)
(0.360595 0.0262423 -4.35943e-20)
(-0.0912958 -0.00781329 0)
(0.949656 0.0279021 -7.81264e-21)
(1.06025 0.0416485 0)
(0.999987 0.00124704 0)
(0.71287 0.0398095 6.67279e-20)
(0.16052 -0.0309943 3.52931e-20)
(1.11145 0.180264 -2.9187e-20)
(0.578269 0.154495 1.15746e-19)
(0.994928 0.00544775 1.67619e-20)
(0.906412 0.03546 0)
(0.817841 -0.0546795 -7.22907e-20)
(1.03783 0.0209449 0)
(0.96261 0.0414164 -1.03801e-20)
(0.646286 0.227507 -1.12283e-19)
(0.986901 0.00907713 -1.78576e-20)
(0.164463 -0.0189529 -3.67613e-20)
(0.773118 0.609058 0)
(0.967036 0.0275816 0)
(1.03569 0.0176126 0)
(1.0722 0.139906 -1.16953e-21)
(1.20957 0.0108642 1.16468e-19)
(0.09438 -0.134802 9.65685e-20)
(1.22947 -0.0238255 8.13273e-20)
(1.02905 0.226446 8.49084e-23)
(1.10618 0.102535 -3.06011e-20)
(-0.10157 0.0171668 0)
(1.07069 0.180379 -1.54152e-20)
(0.555926 -0.0349064 0)
(-0.260289 -0.00316783 -2.27153e-20)
(0.719334 0.0392227 0)
(0.940152 0.0686449 0)
(0.781531 0.00135451 4.06968e-20)
(1.00009 0.00316163 2.05125e-22)
(1.25241 -0.00586109 0)
(1.21073 -0.053768 -1.59228e-20)
(1.21354 -0.0753558 -5.68299e-20)
(1.09483 0.0402522 5.07648e-22)
(1.2172 0.0292248 3.19701e-20)
(1.04955 0.0338106 -2.67017e-20)
(0.835361 0.0237937 0)
(1.05093 0.221393 0)
(-0.280222 -0.00515024 0)
(1.21105 -0.0633705 3.21497e-22)
(1.0228 0.0806747 0)
(0.249963 -0.0237171 -6.79201e-20)
(1.01539 0.247411 -2.36955e-21)
(-0.0764775 -0.00998671 1.05356e-20)
(0.161447 0.111937 -1.0235e-19)
(0.194462 -0.0201901 1.69709e-20)
(1.02045 0.0403099 -3.30978e-22)
(1.20468 0.204088 -7.40314e-20)
(1.1404 0.168549 3.4457e-20)
(1.03865 0.0202872 1.03684e-20)
(1.00064 0.00636525 3.8724e-21)
(0.936346 0.145999 -1.80211e-20)
(0.126961 -0.0302366 0)
(1.26881 0.234137 0)
(-0.0717 0.0186155 0)
(1.16469 0.0906786 4.44946e-20)
(1.22824 -0.0606017 0)
(0.794363 -0.0412788 5.75411e-20)
(-0.10813 0.00557133 7.10446e-20)
(1.25722 0.269762 0)
(1.00035 0.0118839 -8.52628e-21)
(0.5596 0.0873365 0)
(0.790464 0.0639902 4.57907e-20)
(1.01114 0.000474302 -5.27195e-21)
(1.03579 0.0377536 3.06471e-22)
(0.852383 0.482589 -2.34093e-20)
(1.06212 0.477667 0)
(1.13174 0.0100467 3.09599e-20)
(1.00443 0.00101128 0)
(1.20992 0.0232825 2.5556e-20)
(1.20732 0.00916395 -1.07728e-19)
(-0.231085 -0.00561021 6.04154e-20)
(0.766337 0.0180739 -1.02814e-19)
(0.992581 0.0211921 -6.67217e-21)
(0.998775 0.0467214 0)
(1.22156 0.0489995 0)
(0.133718 -0.0307323 -2.48295e-20)
(0.964975 0.0414728 0)
(0.0740968 -0.0252309 0)
(-0.26298 -0.0046231 8.60448e-20)
(1.22904 -0.0589706 0)
(1.02425 0.0192983 1.10843e-21)
(0.477844 0.427018 0)
(1.21191 0.0450172 0)
(-0.275882 -0.00726628 -8.50922e-20)
(1.00632 0.027803 -1.60487e-21)
(0.288237 0.0463163 -5.10229e-20)
(1.01979 0.0388608 1.06675e-21)
(1.2306 0.150137 0)
(1.01205 0.00152317 2.20347e-21)
(-0.14577 -0.00808171 8.63057e-20)
(0.0583194 -0.0151333 -4.53164e-20)
(1.00284 0.124573 8.96076e-22)
(1.16054 0.544346 0)
(1.11032 0.102141 -1.66595e-20)
(1.02314 0.018571 -4.55476e-21)
(0.744184 -0.0559545 1.30383e-20)
(1.20826 -0.0640791 0)
(1.16421 0.0871 -4.18029e-20)
(0.167428 -0.0309049 1.30005e-23)
(-0.274986 -0.00356543 -1.06624e-19)
(1.01799 0.00468016 -5.10405e-21)
(1.08355 0.13213 -2.90667e-20)
(-0.164672 -0.00722568 5.46913e-20)
(-0.157573 0.00107911 -1.36216e-20)
(1.00006 0.00357179 -5.25004e-21)
(1.00914 0.0135277 2.01677e-21)
(-0.045208 0.00254663 8.82764e-20)
(1.25825 -0.00090419 -1.91037e-20)
(1.00005 0.000174464 -6.60784e-23)
(0.880549 -0.0614755 -8.4757e-20)
(1.24805 0.0887597 1.53298e-21)
(0.79152 -0.00361 0)
(1.11606 0.158765 -5.20638e-20)
(1.00013 0.00343296 4.25926e-21)
(0.976533 0.24817 0)
(-0.265342 -0.00296834 -9.12147e-20)
(1.0673 0.00651171 2.34363e-20)
(1.21567 0.224564 2.86736e-20)
(0.562356 0.198475 0)
(1.05206 0.0425871 0)
(0.998555 0.043054 -4.74098e-21)
(1.21507 -0.0216898 1.68503e-20)
(-0.0271481 -0.00216677 -4.12178e-20)
(1.22639 -0.02368 -4.4216e-20)
(0.937145 0.151218 0)
(0.979159 0.12864 6.44677e-21)
(1.00005 0.000306012 0)
(-0.18301 0.000289761 0)
(0.175624 -0.00670206 0)
(0.795655 -0.0662831 5.96118e-20)
(1.02246 0.0189349 1.30403e-21)
(-0.230595 -0.00611794 -7.30822e-20)
(-0.229262 0.00013645 -4.01955e-20)
(0.48631 -0.0354712 -9.0635e-20)
(0.0942223 -0.0255124 6.84069e-21)
(1.19735 -0.0709665 0)
(1.00016 0.00426974 0)
(1.009 0.00127219 3.22582e-22)
(1.20619 0.0682893 0)
(-0.184637 -0.00458784 -1.29691e-19)
(1.26296 0.0465831 4.66247e-20)
(1.10225 0.0737309 0)
(0.695584 0.0145613 -8.25351e-23)
(1.16309 -0.0477838 4.05958e-21)
(1.02649 0.00180025 -2.00837e-21)
(0.414559 0.0305977 0)
(1.00274 0.00667068 0)
(0.225398 -0.0239694 6.9372e-20)
(1.12858 0.00980744 -2.56529e-20)
(1.00009 0.000177457 2.75518e-23)
(1.00636 0.144774 -6.85063e-21)
(1.02259 0.227997 1.20959e-21)
(0.781473 0.0136818 4.70245e-21)
(0.83635 -0.0589901 8.95678e-20)
(1.00132 0.184882 0)
(1.07026 0.0181901 7.12584e-21)
(1.11597 0.101095 0)
(0.171767 -0.0313995 -3.15868e-20)
(0.123926 -0.00917467 0)
(1.00584 0.0270263 0)
(0.449 -0.0308643 -5.91983e-20)
(0.998358 0.0030961 -1.11178e-20)
(1.07058 0.0166372 0)
(1.00282 0.0203174 5.69732e-21)
(0.782609 0.64859 0)
(1.00219 0.00117394 -7.19583e-22)
(1.23533 0.151922 0)
(1.11085 0.157364 4.434e-20)
(1.04897 0.0323027 6.93503e-21)
(1.21154 0.0204087 7.41963e-21)
(1.05556 0.0849203 0)
(0.113804 0.0736933 -2.0354e-19)
(1.01518 0.241941 0)
(1.19284 0.203123 1.14515e-19)
(1.047 0.0229132 -2.48353e-20)
(0.99918 0.0416048 9.52018e-21)
(-0.220628 -0.00713022 0)
(-0.181598 0.00122738 3.21432e-20)
(1.00325 0.0222605 3.29091e-21)
(1.01031 0.00135214 -1.75267e-21)
(0.462555 0.0396579 0)
(1.02487 0.0383979 0)
(-0.199287 -0.00682981 -6.74557e-20)
(1.04547 0.0226576 1.06513e-20)
(-0.13448 -0.00802921 -5.90389e-20)
(1.08171 -0.00672039 0)
(1.19217 0.397466 -5.13192e-20)
(1.16654 0.0341686 5.37726e-20)
(0.107656 0.292843 3.49019e-21)
(0.944158 0.0680832 0)
(0.809151 0.0549439 -7.27595e-20)
(0.498395 0.322983 0)
(1.00999 0.142495 1.77218e-21)
(1.25924 0.00183225 0)
(0.927216 0.565791 -2.21459e-22)
(1.0015 0.0642181 0)
(-0.120629 -0.00620594 0)
(0.568241 0.0664196 -1.80817e-19)
(-0.221331 -0.000575918 0)
(0.920567 0.0438477 0)
(-0.13154 0.0030663 0)
(1.09151 0.131438 -3.46469e-20)
(-0.140638 -0.00325327 -1.98841e-19)
(0.516756 0.302733 0)
(0.905587 0.395048 1.09112e-20)
(0.922378 0.390895 -9.81397e-21)
(0.0893305 -0.0263072 -6.27631e-20)
(0.999783 0.00414023 0)
(1.05711 0.225973 2.575e-20)
(-0.190153 -0.00732616 0)
(0.985049 0.0472031 6.42023e-21)
(1.01 0.100091 5.15368e-21)
(-0.221279 0.000333514 6.21471e-20)
(0.837555 0.516145 1.96603e-20)
(1.02887 0.076875 -4.0714e-21)
(0.862333 -0.0404399 4.08891e-20)
(0.676099 0.569821 4.05175e-20)
(1.01358 0.00764814 -1.11605e-21)
(-0.169378 0.00169981 0)
(0.766163 -0.0503536 -8.3106e-20)
(1.00294 0.00721961 0)
(1.01441 0.0196122 3.25778e-23)
(0.998532 0.00272357 1.056e-20)
(1.03633 0.017058 0)
(1.17174 0.106173 0)
(0.217295 -0.0209282 3.77448e-20)
(0.391404 -0.259538 7.07695e-20)
(-0.200126 -0.00704258 0)
(0.999692 0.0232908 2.70469e-21)
(1.22245 0.225778 -9.8854e-20)
(-0.190475 -0.00184653 1.9251e-21)
(1.1896 0.027046 6.45666e-20)
(0.062908 -0.0241724 -3.29047e-20)
(-0.165015 -0.00618373 -1.09489e-19)
(0.0419581 -0.0150599 4.72049e-20)
(1.01998 0.00855515 0)
(0.840736 -0.072344 -7.34971e-20)
(1.01613 0.0190281 7.33514e-21)
(0.379797 0.0603749 1.64725e-19)
(1.05613 0.0400322 1.27082e-20)
(0.0826524 0.340041 1.80705e-19)
(1.24932 0.0924232 2.73853e-20)
(1.11584 -0.00542392 1.77508e-20)
(0.999668 0.00507214 0)
(1.21759 0.0486535 6.7555e-20)
(1.21023 0.207178 3.29642e-20)
(1.23229 0.0735534 3.34045e-21)
(0.303184 1.09057 6.36276e-20)
(-0.165326 -0.00455599 0)
(-0.292398 -0.00633188 0)
(0.981105 0.25718 -2.68746e-21)
(1.14937 0.213314 -1.11523e-21)
(1.00864 0.0128434 -2.33694e-21)
(-0.142794 0.00210446 0)
(0.0659541 -0.0242924 -6.44322e-20)
(1.00471 0.0502063 3.76587e-21)
(0.916591 0.0678788 -1.9236e-21)
(0.996646 0.0188382 0)
(1.18839 0.0719185 5.41835e-20)
(1.08154 -0.00555257 1.06013e-20)
(0.999832 0.00349807 0)
(1.04921 0.088272 -1.58476e-20)
(0.139849 -0.0287878 0)
(1.04688 0.0884164 1.24748e-20)
(-0.00957355 -0.00543824 0)
(-0.103294 0.0227096 2.10214e-19)
(1.24092 -0.0446461 -1.11264e-19)
(0.432506 0.301057 0)
(1.00352 0.0636415 -3.11246e-21)
(0.480996 0.385204 3.23234e-21)
(0.457065 0.326612 -1.23001e-19)
(1.00366 0.0150655 1.33576e-21)
(0.802486 0.514551 -2.80001e-20)
(0.986492 0.0466644 1.02074e-20)
(0.995611 0.0220263 -1.29949e-21)
(1.22604 0.178996 -6.60082e-20)
(1.00009 0.00045975 0)
(0.995204 0.0246799 1.83975e-21)
(1.01647 0.0187193 -5.50174e-21)
(1.28813 0.126779 -3.0907e-20)
(0.999988 0.00251604 1.31715e-20)
(-0.121502 0.00140119 -2.58007e-20)
(0.201169 -0.0372588 -4.91064e-20)
(-0.141203 0.0023471 0)
(1.2524 0.27439 1.71502e-21)
(-0.0206992 -0.00908799 3.60168e-20)
(-0.273516 -0.0068808 -9.77224e-20)
(1.18726 0.0254432 -4.12679e-20)
(0.99997 0.0222252 -2.44862e-21)
(1.28165 0.107897 0)
(1.11502 -0.018848 4.2859e-20)
(1.08841 0.139788 2.6879e-20)
(1.00045 0.0127526 -1.01199e-22)
(0.17764 -0.0207518 -5.73633e-23)
(0.101555 -0.0283978 -2.74683e-20)
(0.23712 -0.0408648 2.56284e-21)
(0.989112 0.118105 -8.30381e-23)
(1.25786 0.0812361 3.20474e-20)
(0.923949 0.0405087 -2.83022e-20)
(1.11923 -0.0211098 0)
(1.23086 0.0702223 0)
(1.03112 0.0887246 4.46903e-21)
(0.814934 -0.0725843 7.8192e-20)
(1.02931 0.0679233 1.82265e-21)
(1.00217 0.00138485 0)
(-0.179472 -0.00773396 6.29944e-20)
(-0.0808677 -0.00909713 -1.13329e-20)
(-0.0669644 -0.0106468 0)
(1.18213 0.28594 -5.73605e-20)
(-0.14442 -0.0014896 0)
(-0.100595 -0.0081457 0)
(-0.177225 -0.00857365 0)
(-0.235379 -0.00278164 4.47243e-21)
(1.02552 0.00296109 4.60021e-21)
(1.21414 0.0589714 -7.52051e-20)
(1.03367 0.0886037 -5.88155e-21)
(0.99618 0.047853 0)
(0.842473 0.0291111 -1.58746e-19)
(1.20755 0.0714803 0)
(1.02782 -0.000199489 2.32197e-21)
(1.2095 0.117492 4.17912e-20)
(1.1842 0.0328322 7.96924e-20)
(-0.235986 0.00108325 -7.66662e-20)
(1.00396 0.015696 0)
(1.25707 0.020501 -3.11145e-20)
(-0.0610113 0.00718549 -4.87994e-20)
(1.21748 0.41812 3.29296e-20)
(-0.114016 -0.00117245 0)
(0.999982 0.00221977 -6.89785e-21)
(1.00338 0.0508859 -5.39843e-22)
(1.01709 0.00068894 6.12521e-21)
(1.06427 0.183985 -1.55735e-20)
(1.01987 0.00794194 0)
(0.166739 -0.0340352 0)
(0.401996 -0.21918 -1.96685e-19)
(1.0049 0.179244 0)
(-0.117805 0.0054346 0)
(1.12553 0.0700981 3.95849e-21)
(1.25269 -0.00945918 8.49418e-21)
(-0.155097 -0.00876717 6.56322e-20)
(0.794007 0.611791 6.10426e-21)
(1.23537 -0.0458155 6.73028e-20)
(0.778406 -0.0539069 1.10479e-19)
(1.25893 0.0183537 -1.7095e-20)
(1.19996 0.134364 -1.5809e-20)
(1.28066 0.0871807 8.44841e-20)
(1.1814 -0.0149706 3.8842e-20)
(1.25488 -0.0600867 0)
(0.371365 0.127846 1.82597e-19)
(1.18267 -0.0326748 5.71806e-21)
(1.23987 0.0327552 -2.98797e-20)
(1.02208 0.00111801 4.72063e-22)
(0.785539 0.0380276 0)
(1.13933 0.0464528 3.47234e-20)
(1.04759 0.0053795 -1.27946e-22)
(1.05977 0.179149 -1.16543e-20)
(1.08719 0.0452444 -1.31436e-20)
(-0.231764 -0.00142863 1.7454e-20)
(0.0606101 -0.0155267 -5.12756e-20)
(1.02375 0.0368953 0)
(1.02633 0.00146009 1.10839e-20)
(0.174726 -0.0343984 2.65811e-20)
(-0.287594 -0.00579478 1.14958e-19)
(1.00008 0.00034815 7.3703e-23)
(-0.134434 0.00148318 0)
(1.09527 0.0135017 3.07116e-20)
(1.24565 0.253274 -2.40942e-20)
(1.02306 0.0396348 -1.83014e-21)
(-0.243097 -0.0047252 0)
(0.634664 -0.0147021 6.06809e-20)
(1.07619 0.137706 -1.59698e-20)
(1.05592 0.058606 -7.86508e-21)
(-0.000824949 -0.0119053 3.10393e-20)
(1.2666 0.232983 0)
(-0.227226 -0.0071487 1.21413e-19)
(1.00006 0.000414983 0)
(-0.258993 -0.00453576 8.65788e-20)
(0.134903 0.0729943 3.58436e-19)
(0.445329 0.0382012 0)
(1.04778 0.00628136 3.04573e-23)
(-0.155005 0.00210662 0)
(0.0135615 -0.0114691 -3.29556e-23)
(1.18989 0.0195517 -1.67752e-20)
(1.01523 0.0197181 0)
(1.01785 0.0688269 -3.17471e-22)
(1.19084 -0.0733867 4.81114e-20)
(1.07202 0.0543017 0)
(1.02828 -0.000242882 -1.37051e-21)
(1.01365 0.0185316 2.10024e-23)
(1.00719 0.00359952 -4.09868e-21)
(1.00766 0.00377947 -3.82082e-23)
(-0.248349 -0.00614597 1.13726e-19)
(0.875903 0.0347149 3.35571e-20)
(1.18776 0.021083 2.01143e-20)
(1.2697 0.222237 1.39624e-21)
(1.00907 0.000994185 0)
(1.01592 0.00840416 1.89024e-21)
(1.25543 0.0776439 0)
(-0.0584622 -0.0101658 0)
(1.14775 0.0988907 0)
(1.05134 0.034333 1.74491e-20)
(0.996093 0.0225818 0)
(0.992072 0.0074353 -3.31532e-20)
(0.39578 0.0296524 0)
(-0.0841991 0.00741643 -1.11342e-19)
(1.00078 0.00543676 0)
(0.992532 0.0105421 1.19003e-20)
(0.84826 -0.0707945 -5.15508e-20)
(1.18084 -0.0122495 -3.84882e-20)
(1.16644 0.0318772 3.48317e-20)
(1.00202 0.048916 0)
(1.0432 0.0916901 0)
(1.05909 0.133219 2.19566e-20)
(1.2378 0.0299282 5.4736e-20)
(0.924363 0.539346 1.68848e-20)
(1.27465 0.231254 -1.21778e-19)
(1.28216 0.104403 -4.64749e-20)
(1.25316 0.0558522 0)
(0.725891 0.0128429 1.00063e-22)
(1.19447 0.196172 -8.41547e-20)
(1.00472 0.0262862 1.56505e-21)
(-0.254115 -0.00384034 1.57845e-19)
(0.992383 0.00666306 2.34907e-20)
(1.01073 0.103703 -5.66622e-21)
(1.11494 0.00827925 0)
(0.798477 0.0365177 3.81646e-20)
(0.982992 0.337637 -5.11846e-21)
(1.01462 0.00192033 0)
(1.21782 0.407642 -1.74143e-21)
(1.23991 0.172 0)
(-0.127375 -0.0592707 0)
(1.25297 0.0587947 0)
(0.884364 0.16823 2.07795e-20)
(1.18799 0.033165 -3.33927e-23)
(0.999538 0.00559827 0)
(0.0887642 -0.0101467 0)
(1.20491 0.393926 -9.14733e-20)
(-2.3917e-05 -0.018511 0)
(1.02836 0.064939 0)
(1.1388 0.0819436 0)
(1.27737 0.220293 -1.5048e-20)
(-0.157922 -0.00695681 -2.94045e-20)
(-0.218809 -0.000325582 0)
(1.22699 0.0529541 -4.39468e-20)
(1.19013 0.289313 -9.52976e-21)
(0.997417 0.118922 -3.71605e-21)
(1.08054 0.0878666 0)
(1.00081 0.0497052 0)
(0.88179 0.268896 0)
(0.662729 0.209743 5.45082e-20)
(0.972318 0.0116975 -4.27001e-21)
(1.21005 0.0417252 -1.82356e-21)
(0.561965 0.17304 8.83833e-20)
(0.00815281 -0.0193187 0)
(-0.223693 -0.00586115 -2.06414e-19)
(1.04639 0.105019 0)
(1.25035 -0.0108853 0)
(0.692907 -0.0161859 0)
(1.01097 0.154759 1.30697e-21)
(0.968936 0.0431836 1.7947e-20)
(0.164585 0.545883 0)
(0.160522 -0.0142873 -7.80552e-20)
(0.135005 -0.0202434 -3.87335e-20)
(1.27206 0.207541 2.68263e-20)
(1.02658 0.00307006 0)
(-0.16087 0.000140759 -6.64581e-20)
(1.19152 -0.0702428 -5.13973e-20)
(1.01451 0.0014322 0)
(1.12467 0.120442 4.87182e-20)
(1.23056 0.00597049 4.24008e-20)
(0.843721 0.0993436 -1.20456e-20)
(1.2276 0.169492 -2.73969e-20)
(0.0974128 -0.0271602 -5.15206e-20)
(1.27936 0.0848902 -1.30013e-19)
(1.17165 -0.0130561 -5.54781e-20)
(0.0887944 -0.00734951 0)
(1.08891 0.0545977 -4.06624e-20)
(-0.249734 -0.00290379 0)
(1.00005 0.00319856 3.44056e-22)
(1.00081 0.00588806 0)
(0.42358 -0.0322348 1.18943e-19)
(0.14394 -0.0143649 -8.30633e-23)
(0.368681 0.25787 -3.52245e-20)
(1.09013 0.0527439 8.82698e-21)
(1.02441 0.0782252 8.86591e-22)
(0.993016 0.0107684 -1.10824e-20)
(1.16564 -0.0469598 -1.88342e-20)
(0.0775806 0.188524 0)
(1.21672 -0.0745912 -6.18691e-22)
(1.08357 0.0889928 0)
(1.23825 -0.0437011 -1.0822e-19)
(1.21596 0.0452125 -6.71465e-20)
(1.02299 0.0407186 -2.04387e-21)
(1.1477 0.553216 -6.97517e-20)
(1.21467 -0.075757 -4.23651e-20)
(0.789789 -0.0782092 6.91377e-20)
(1.00881 0.0297995 -2.29785e-21)
(1.27847 0.0780549 2.34047e-20)
(1.08546 0.0472087 0)
(-0.0750874 0.0331947 -3.17843e-19)
(1.16238 0.215684 0)
(0.994565 0.331542 0)
(1.13941 0.0848433 0)
(1.01133 0.00432891 -8.71797e-21)
(1.04377 0.00997137 -1.23065e-20)
(1.05428 0.0455046 0)
(0.95239 0.399173 8.02001e-22)
(0.888454 0.0460308 -2.88789e-20)
(1.32343 0.163342 2.08043e-19)
(0.416063 0.819467 0)
(1.21548 0.0321901 -6.73559e-20)
(1.01288 0.00754956 5.70678e-21)
(1.27605 0.0929301 0)
(0.364741 0.288087 0)
(0.660934 -0.050453 0)
(1.06586 0.00729181 -2.9942e-20)
(0.89825 0.0590086 3.84211e-20)
(1.01286 0.0183654 1.50998e-21)
(1.14195 -0.0144657 0)
(1.10716 0.0770989 0)
(0.00377267 -0.00993138 5.32254e-20)
(0.999919 0.00350745 -6.40034e-21)
(1.14221 0.537209 5.0752e-20)
(1.14191 -0.00852379 0)
(1.27015 -0.0404916 -4.81266e-21)
(1.19138 0.218388 1.1656e-19)
(-0.216492 -0.00564875 -3.89752e-20)
(1.01792 0.331898 2.35727e-22)
(1.01725 0.0665789 8.45639e-22)
(-0.201797 -0.00448981 -7.01967e-20)
(-0.306322 -0.00380233 -4.91899e-20)
(1.01333 0.0520144 7.5726e-22)
(1.11352 0.00651409 4.86625e-21)
(0.646139 -0.0105913 1.44917e-19)
(1.27182 0.209522 4.61233e-20)
(1.26006 0.0440603 -1.98829e-21)
(1.00021 0.000509147 -9.31446e-23)
(1.05779 0.058747 -1.67024e-20)
(1.18221 0.3877 9.18624e-20)
(1.11747 -0.00683851 -1.16475e-20)
(1.22948 0.0770884 -2.1852e-20)
(1.21212 -0.0199626 -7.27404e-20)
(1.04492 0.00977283 2.03242e-20)
(1.20662 0.00337621 2.8466e-20)
(0.123688 -0.0286052 -2.99146e-20)
(1.06533 0.00445814 1.20873e-20)
(1.09358 -0.00843156 1.06853e-20)
(1.0064 0.0038012 -3.11531e-21)
(-0.185164 0.00310591 -3.19851e-20)
(0.999967 0.00155159 6.59139e-21)
(0.989482 0.113552 0)
(-0.276268 -0.00668016 0)
(0.999921 0.095445 -6.21472e-21)
(0.176924 -0.0129919 -1.33281e-19)
(1.104 0.105718 0)
(0.828244 0.103493 0)
(1.00689 0.00399884 1.42589e-21)
(1.02156 0.263677 -5.45028e-21)
(1.00236 0.0193103 -1.66938e-21)
(1.1941 0.141999 4.85275e-20)
(1.01083 0.00261535 0)
(1.07909 0.319274 2.82052e-20)
(1.09441 0.0147263 1.55276e-20)
(0.0604507 0.0664682 -4.45301e-20)
(0.406188 0.690056 8.77861e-21)
(-0.0592705 -0.0119364 0)
(1.01627 0.000662328 1.23936e-21)
(0.999735 0.00453365 3.90233e-21)
(1.18979 0.191668 -6.01116e-21)
(1.15001 0.174782 4.5926e-20)
(-0.19422 -0.00191525 0)
(-0.0150301 -0.013937 -5.83551e-23)
(1.2051 0.0821551 -6.02311e-20)
(0.99364 0.021125 0)
(1.31667 0.127918 0)
(0.337408 0.232628 0)
(0.817311 -0.0780864 -7.47508e-20)
(1.28944 0.157544 -2.15864e-19)
(1.20321 0.0611943 -9.80999e-22)
(0.130776 -0.0295416 5.09823e-20)
(1.10249 0.183098 0)
(1.16096 -0.0457359 -3.67277e-21)
(1.26857 0.117075 0)
(0.835935 0.460364 1.94358e-20)
(1.20183 0.0835334 4.57955e-20)
(0.298192 0.305926 1.36929e-20)
(1.19887 0.0907712 2.82676e-20)
(1.10342 -0.00351053 0)
(1.23401 0.0055997 0)
(1.01462 0.144721 6.14503e-22)
(1.05362 0.00816414 -1.2332e-20)
(1.14094 -0.0127871 0)
(1.13382 0.179631 -4.03494e-20)
(1.06747 0.137288 1.70923e-20)
(1.00104 0.0195099 -3.90756e-21)
(1.00974 0.000810004 1.77524e-21)
(1.21611 0.0382828 -6.56606e-20)
(1.10252 0.0255932 -9.62248e-21)
(1.23162 0.0802419 0)
(0.994297 0.0204068 2.75996e-21)
(0.995906 0.0161567 -2.14938e-22)
(0.999964 0.0012463 -7.19144e-21)
(1.03788 0.0914537 2.05915e-21)
(1.0356 0.00113089 8.47128e-21)
(1.06733 0.119638 -7.73653e-21)
(1.00565 0.00400518 0)
(-0.246691 -0.00464766 0)
(1.19394 -0.0518343 2.37268e-20)
(0.477403 -0.263076 0)
(1.01806 0.008033 -1.28247e-20)
(1.00011 0.00230258 -3.40478e-21)
(0.796877 0.175252 4.49123e-20)
(1.20433 0.133485 1.86035e-20)
(0.952371 0.0232178 -3.21198e-20)
(0.309842 0.0176836 -5.69154e-20)
(1.14092 0.264078 0)
(0.514439 0.0839421 1.50923e-19)
(1.14282 -0.0102367 0)
(1.26545 0.0835486 1.13412e-19)
(1.08204 0.0289157 0)
(0.999884 0.00151745 0)
(1.00804 0.00338101 1.48176e-21)
(1.05313 0.0860664 2.07577e-21)
(-0.282108 -0.00826255 1.20894e-19)
(1.00008 0.0019449 3.23917e-21)
(0.583655 0.00285024 -3.81614e-20)
(1.0687 0.122877 1.60826e-20)
(-0.189387 -0.000171707 0)
(0.962738 0.267563 9.19023e-21)
(1.14883 0.263353 0)
(1.26516 -0.0405412 1.80951e-20)
(1.03179 0.00999422 0)
(1 5.84734e-05 -2.62092e-23)
(1.1965 -0.0509944 0)
(0.988071 0.0135576 7.49548e-21)
(0.989544 0.0638152 -1.64841e-20)
(0.409826 0.022796 2.26558e-20)
(1.02411 0.0832152 -1.02089e-21)
(0.998591 0.00338563 1.11183e-20)
(1.12072 0.0941169 4.2739e-20)
(1.00925 0.0115587 -1.00684e-21)
(1.02478 0.00143825 0)
(1.07603 0.132661 5.64017e-21)
(0.882512 0.00272882 0)
(-0.213184 -0.000360098 0)
(1.1012 0.159807 0)
(1.06545 0.00349832 1.46493e-20)
(1.01331 0.00148756 3.90136e-21)
(-0.137827 -0.00839038 -2.71927e-20)
(0.937251 0.405526 0)
(1.00899 0.0618399 -3.12715e-21)
(1.02969 0.064079 -1.01758e-21)
(0.377996 0.0230965 0)
(0.664109 -0.0111745 -1.46657e-20)
(-0.29259 -0.00781713 1.05535e-19)
(0.892451 0.169059 1.59857e-20)
(1.10465 -0.00178678 0)
(1.01742 0.00485863 -6.9312e-21)
(1.02509 0.00167792 2.55782e-21)
(1.18527 -0.0313501 5.11657e-20)
(1.10638 0.162108 1.47076e-21)
(0.947905 -0.0340774 -5.10461e-20)
(0.916517 0.0441121 0)
(-0.13752 -0.00411817 -6.26488e-20)
(1.04376 0.0645115 -4.85598e-21)
(0.967876 0.0846852 0)
(-0.294015 -0.00625955 1.81528e-19)
(0.99633 0.0181292 0)
(1.14175 0.04468 -4.1275e-20)
(1.01142 0.0470641 -6.70119e-22)
(1.00279 0.00180219 -1.04073e-21)
(1.12443 0.183637 4.08287e-20)
(0.771364 0.0199782 -5.10002e-20)
(1.07549 0.0466031 0)
(0.155295 -0.0137969 9.09526e-20)
(-0.0634457 0.000152048 0)
(1.19729 0.21494 -2.09576e-20)
(1.00524 0.0271761 -2.08564e-21)
(1.03897 0.00383931 0)
(1.2253 -0.0638262 -6.12948e-21)
(0.624051 0.00648832 -7.61447e-20)
(1.00009 0.000571265 -8.73105e-24)
(0.791995 0.013437 7.00062e-20)
(1.0381 0.00412158 0)
(1.13112 0.173151 3.73597e-20)
(1.05611 -0.00342851 2.37708e-20)
(1.0554 0.0112104 -1.6056e-20)
(0.984476 0.046449 0)
(1.06296 0.0271955 -3.09565e-21)
(0.503346 -0.0654666 -1.73473e-20)
(1.14489 0.144395 0)
(0.999959 0.0011929 -3.62582e-21)
(1.03059 0.00528778 -3.35608e-21)
(0.980783 0.0141362 2.51635e-20)
(1.0156 0.0305274 -3.63075e-22)
(1.09229 -0.00675971 0)
(0.250552 0.686451 -1.31206e-19)
(1.06268 0.00751823 0)
(1.04841 0.0172527 1.38705e-20)
(0.0064896 -0.0167047 2.42887e-20)
(0.120793 -0.0180944 -8.92727e-20)
(1.17509 -0.0142651 3.67984e-20)
(1.1437 0.174638 -3.84701e-20)
(1.22785 0.0631985 4.71943e-20)
(1.11901 0.0505107 -2.85206e-20)
(1.03763 0.0227619 4.78319e-21)
(0.885844 0.0386138 -6.18883e-20)
(-0.237809 -0.00541915 -4.09629e-20)
(1.08877 0.32191 0)
(0.99855 0.00937768 0)
(1.05408 0.0572321 0)
(-0.00202056 -0.01381 -9.93674e-20)
(1.17262 0.062185 -4.77465e-20)
(-0.171382 -0.00684143 0)
(0.999979 0.00153327 2.43989e-22)
(0.949974 0.024467 0)
(-0.198374 0.00189194 1.73454e-20)
(1.16654 0.0503696 -1.69589e-20)
(1.07906 0.0450384 0)
(-0.270315 -0.00850744 0)
(0.208978 0.252189 0)
(1.01589 0.0297326 -1.02218e-21)
(1.26509 0.116328 8.76969e-20)
(1.0085 0.00356666 2.88713e-21)
(1.06107 0.0269603 5.50789e-21)
(1.01864 0.00846994 8.3295e-21)
(-0.215393 -0.00646906 0)
(1.03488 0.000900493 1.67715e-20)
(1.06549 -0.00659008 1.36145e-20)
(1.03851 0.022132 -4.75261e-21)
(0.448401 -0.0618172 -1.96858e-20)
(1.11329 -0.0150403 1.21523e-20)
(1.25128 0.248346 -7.09242e-20)
(0.70162 -0.0665996 0)
(1.05661 0.00815832 -2.35435e-20)
(0.842373 0.055207 0)
(1.00081 0.00513446 0)
(-0.193002 -0.00680885 7.69361e-20)
(1.00831 0.0154491 -1.69137e-22)
(1.06399 0.00669196 1.74886e-20)
(0.998662 0.00389613 -1.32964e-21)
(1.22616 -0.0629294 0)
(0.998473 0.00394561 -4.05397e-22)
(1.28026 0.0804426 1.20722e-20)
(-0.0604944 0.00207074 4.83199e-20)
(0.189641 -0.0326483 2.86644e-20)
(0.903308 0.0592413 -2.52075e-20)
(0.785227 -0.0496032 4.84082e-20)
(-0.257386 -0.00758614 2.44473e-20)
(1.00055 0.0417083 0)
(-0.176465 0.000820268 1.09208e-19)
(0.113986 0.0236281 8.01883e-20)
(-0.243957 -0.00687429 2.45748e-20)
(-0.0293672 -0.00855206 -2.76699e-20)
(-0.00280474 -0.0164605 -2.49641e-20)
(0.0191427 0.0782558 -1.61663e-19)
(1.27211 0.0925411 0)
(1.02 0.0701873 1.66654e-22)
(0.0879079 -0.025827 9.02993e-20)
(1.16446 0.0526205 -3.14312e-20)
(0.0466792 -0.0221727 6.86064e-20)
(1.04656 0.00691091 -6.28268e-21)
(1.03675 0.0356925 -2.55164e-21)
(1.01087 0.0631303 -5.80822e-22)
(1.00087 0.00556849 -1.38835e-22)
(1.12832 0.046046 0)
(0.889543 0.12186 -8.96236e-20)
(-0.173142 -0.00215659 0)
(1.03646 0.0342363 2.487e-21)
(0.993959 0.011139 3.37691e-22)
(-0.208215 -0.00406066 -6.97677e-20)
(0.949489 0.498962 -1.42814e-20)
(0.980839 0.0127536 -1.58982e-21)
(0.810198 -0.0248956 4.63124e-20)
(1.12968 0.0991393 -4.70949e-20)
(1.07015 0.0367524 0)
(0.466275 0.727625 0)
(0.804094 -0.0198148 9.68228e-20)
(0.95336 0.0762953 0)
(1.11347 -0.0135153 -1.22066e-20)
(-0.0831614 0.00301841 5.41833e-20)
(-0.285127 -0.00511818 -1.15619e-19)
(0.221083 0.076906 -9.27473e-20)
(1.05517 -0.00261971 -1.99859e-20)
(1.26222 0.238685 0)
(1.23794 0.167053 -1.79217e-20)
(-0.21865 -0.00508623 9.85812e-20)
(0.0359754 -0.0147183 5.17004e-20)
(1.20506 -0.067913 -3.53937e-20)
(1.02458 0.0397809 2.12495e-21)
(1.0835 0.0302951 0)
(1.04181 0.0648009 4.70612e-21)
(1.02865 -0.000212784 0)
(1.04127 0.0931953 0)
(1.02539 0.00258599 -4.95509e-21)
(1.06219 0.131661 -1.74238e-20)
(1.09782 0.181928 4.21842e-20)
(-0.107464 0.0060395 -4.23202e-20)
(1.26768 0.0200768 0)
(1.06621 -0.0054698 0)
(1.26268 0.0803993 -1.07354e-19)
(-0.169845 -0.00815611 0)
(1.12187 0.177141 -4.1855e-21)
(0.973628 0.0422011 -6.86782e-21)
(-0.246643 -0.000744994 -8.87932e-20)
(1.04704 0.0315869 -7.44069e-21)
(0.990355 0.0612213 0)
(0.814663 0.0926541 3.63799e-20)
(-0.0837874 0.0101275 4.19886e-20)
(0.998359 0.00254459 -1.40464e-20)
(1.00829 0.0303637 2.728e-21)
(0.063074 -0.0239981 8.04933e-20)
(0.861454 -0.0487889 -8.66461e-20)
(0.722337 -0.0172269 -1.81116e-19)
(1.25784 0.0517208 6.73239e-20)
(0.724061 -0.0561848 5.084e-20)
(1.01288 0.0287095 0)
(1.28182 0.0972334 1.77347e-21)
(0.972801 0.0446033 -7.33469e-21)
(1.00575 0.0161913 0)
(0.970196 0.0404249 -2.50394e-20)
(0.140461 -0.0317994 0)
(-0.278968 -0.00736662 -8.45821e-20)
(1.05054 0.0147535 -1.68285e-20)
(1.03139 0.0053007 0)
(1.01155 0.0489877 7.20428e-22)
(0.610411 -0.0140214 -1.25966e-19)