/*--------------------------------*- C++ -*----------------------------------*\
| =========                 |                                                 |
| \\      /  F ield         | OpenFOAM: The Open Source CFD Toolbox           |
|  \\    /   O peration     | Version:  v2012                                 |
|   \\  /    A nd           | Website:  www.openfoam.com                      |
|    \\/     M anipulation  |                                                 |
\*---------------------------------------------------------------------------*/
FoamFile
{
    version     2.0;
    format      ascii;
    class       surfaceVectorField;
    location    "400";
    object      Uf;
}
// * * * * * * * * * * * * * * * * * * * * * * * * * * * * * * * * * * * * * //

dimensions      [0 1 -1 0 0 0 0];


internalField   nonuniform List<vector> 
20673
(
(1.11358 0.178226 -2.37123e-21)
(1.11873 0.176492 1.09493e-20)
(1.114 0.172548 -2.03563e-21)
(1.03348 0.0620651 -1.30946e-23)
(1.03185 0.0610183 1.09941e-21)
(1.03219 0.0637116 1.75744e-21)
(0.102407 -0.0263106 -1.12409e-20)
(0.121391 -0.028101 9.00179e-21)
(0.136906 -0.0289191 8.52431e-21)
(1.10078 -0.0152744 2.1262e-20)
(1.1006 -0.013243 -2.46454e-22)
(1.09876 -0.0143874 -2.0826e-20)
(0.996522 0.00829716 1.83619e-21)
(0.996329 0.00790178 -1.40507e-21)
(0.996046 0.0088221 1.27778e-21)
(0.369036 0.0757887 -1.22277e-19)
(0.358188 0.0488668 -1.9483e-19)
(0.340485 0.0757779 -1.49617e-19)
(0.0765741 -0.0244277 6.57304e-21)
(0.0729307 -0.0248127 2.07249e-20)
(0.101926 -0.027246 7.20166e-20)
(0.133267 -0.0281226 -2.96131e-20)
(0.106561 -0.0266286 1.89247e-20)
(0.116315 -0.0265545 0)
(0.0457017 -0.0162072 -1.29703e-20)
(0.0324916 -0.0150631 -4.13053e-20)
(0.0163884 -0.0139298 -5.44231e-20)
(1.15208 0.215304 -6.15099e-22)
(1.15859 0.216683 0)
(1.15476 0.222281 0)
(1.27153 -0.0363009 -3.39236e-20)
(1.2692 -0.0389503 -7.2547e-20)
(1.26124 -0.0383558 5.92569e-21)
(1.19806 -0.0466274 4.3933e-22)
(1.20053 -0.048272 -1.84336e-20)
(1.19963 -0.0446601 2.83349e-22)
(1.10265 -0.0153946 2.93275e-20)
(-0.217531 0.00389064 -7.49785e-22)
(-0.238035 0.00192883 7.57243e-20)
(-0.217351 0.00211248 4.07852e-20)
(0.977278 0.127025 -9.85444e-21)
(0.972685 0.126229 -3.51166e-21)
(0.976112 0.122035 -4.93446e-21)
(1.00208 0.122676 -3.99506e-22)
(0.999506 0.119569 -2.0691e-21)
(1.00377 0.118301 3.07967e-21)
(1.02477 0.0693659 5.61084e-22)
(1.02661 0.0690145 -1.44807e-21)
(1.02507 0.0672665 1.06964e-21)
(1.20538 0.0768634 -2.08137e-21)
(1.20509 0.0801434 -3.26534e-20)
(1.20874 0.0776194 -5.29933e-20)
(1.19677 -0.0493771 0)
(1.19509 -0.0458574 0)
(1.00226 0.00709345 -1.66454e-22)
(1.00227 0.00676626 3.8768e-22)
(1.002 0.00651893 1.6365e-23)
(0.999994 0.00140982 0)
(0.999986 0.00189448 -3.48354e-21)
(0.999997 0.00141121 0)
(0.0763994 -0.0248101 -4.92031e-20)
(0.0543911 -0.0239297 -3.39063e-22)
(1.00168 0.0113105 -3.44758e-23)
(1.00183 0.0120066 1.25379e-22)
(1.00195 0.0117472 3.99301e-23)
(0.155789 -0.0306738 -1.781e-20)
(0.161993 -0.0308802 -3.43984e-20)
(0.996723 0.0246204 0)
(0.996199 0.0244943 0)
(0.996583 0.0255591 0)
(0.110114 -0.0285138 0)
(0.0876559 -0.0260193 0)
(0.0848186 -0.0267809 1.74371e-20)
(0.785596 0.0627701 -2.90135e-20)
(0.776342 0.0683239 -1.47017e-20)
(0.777879 0.0562459 -4.15249e-20)
(0.755982 0.147712 5.03799e-20)
(0.754107 0.160376 2.22446e-20)
(0.745458 0.150811 5.12519e-20)
(0.688983 0.583405 -4.45971e-22)
(0.719311 0.596142 -3.24071e-21)
(0.695396 0.628027 -2.10499e-20)
(1.22719 0.177305 -3.63226e-20)
(1.22841 0.172371 -1.32753e-20)
(1.23291 0.175416 0)
(1.13699 0.168554 -2.41883e-21)
(1.1327 0.170909 1.80194e-21)
(1.13265 0.165548 3.40117e-21)
(1.08162 0.131207 -1.00494e-20)
(1.07797 0.131393 9.17708e-21)
(1.07958 0.127565 5.89888e-21)
(0.8391 0.0983174 -5.96064e-21)
(0.83119 0.10101 0)
(0.832715 0.0913983 0)
(0.906187 0.0264069 -3.479e-20)
(0.908918 0.0231575 -1.20766e-20)
(0.910277 0.0270315 -3.27527e-20)
(0.992426 0.0217252 -1.15133e-21)
(0.991928 0.0227865 2.86557e-21)
(0.992711 0.0228124 2.8142e-21)
(0.726857 -0.055646 6.96968e-21)
(0.716508 -0.0564664 2.83888e-20)
(0.656556 -0.0549796 -1.5455e-20)
(1.00147 0.0108172 -1.09056e-22)
(1.00163 0.0106348 2.39973e-23)
(-0.134715 -0.0073604 8.41011e-21)
(-0.152028 -0.00618953 4.40889e-20)
(-0.144893 -0.00660175 2.66919e-20)
(1.11552 -0.0197094 2.82474e-21)
(1.11778 -0.0208417 -2.08611e-20)
(-0.0796124 0.00313246 -2.33157e-20)
(-0.0995148 0.00538955 -4.46808e-20)
(-0.0767695 0.00481482 -7.03929e-20)
(1.01221 0.00139848 -5.97769e-22)
(1.01279 0.00137894 3.95501e-22)
(1.01167 0.000807954 -1.87724e-21)
(0.999998 0.000960904 -4.6193e-21)
(1 0.000448578 -1.0156e-21)
(1 0.000485706 -1.86828e-21)
(1.03156 0.0036717 -2.5561e-21)
(1.03107 0.00397272 -7.55503e-21)
(1.03086 0.00345308 2.39105e-21)
(0.688902 0.222248 -2.85313e-20)
(0.704968 0.23077 0)
(0.687341 0.244227 1.11889e-19)
(1.05869 0.039615 -6.46328e-21)
(1.06004 0.040878 0)
(1.06058 0.0395727 -1.00539e-20)
(0.889207 0.0436887 -1.25605e-20)
(0.887598 0.0390618 -3.56551e-20)
(0.893154 0.0399617 4.15892e-20)
(1.20631 0.072841 0)
(1.202 0.0752322 -2.56716e-20)
(1.23177 0.042191 3.48989e-20)
(1.22862 0.0438266 -1.04257e-20)
(1.22897 0.0401873 9.24455e-20)
(0.0906184 0.136491 -5.64309e-20)
(0.0890469 0.171394 -1.47996e-20)
(0.118745 0.150937 1.36948e-22)
(1.00458 0.001069 -7.25879e-22)
(1.00501 0.000973697 -1.31497e-21)
(1.00492 0.0015022 7.94292e-22)
(1.13501 0.0409304 -1.38544e-20)
(1.13599 0.0428118 2.76177e-20)
(1.13759 0.0406687 -1.32618e-20)
(0.965943 0.0275189 0)
(0.964648 0.0263123 0)
(0.964355 0.0286765 3.50886e-21)
(0.08458 0.106582 4.11973e-20)
(0.0509499 0.139554 -3.37365e-20)
(0.903141 0.0297372 -1.24776e-20)
(0.901908 0.0253131 2.65328e-20)
(1.02448 0.0713806 7.32639e-23)
(1.02277 0.0693755 -8.36265e-23)
(1.12532 0.0717078 1.92973e-21)
(1.12358 0.074174 -1.86993e-22)
(1.12716 0.0746783 2.19751e-20)
(1.27256 -0.0326374 4.51436e-20)
(1.26005 -0.0334617 2.37559e-20)
(0.999104 0.0459795 -1.02798e-21)
(0.998948 0.044051 -3.48526e-21)
(1.00028 0.0452524 -4.98796e-21)
(1.10297 0.0752139 0)
(1.10556 0.0771974 0)
(1.10236 0.0783566 0)
(1.05686 0.0396091 1.60476e-22)
(1.05725 0.0383258 -3.9912e-22)
(0.232378 0.0373269 -8.73449e-20)
(0.141024 0.0222252 -1.11237e-21)
(0.171771 0.0261331 -1.97646e-20)
(1.03518 0.0612566 -1.21798e-21)
(1.03526 0.0639077 2.00639e-21)
(-0.219181 0.00581755 -7.07552e-20)
(1.00228 0.00738974 6.37338e-23)
(1.00254 0.00765471 -6.94636e-22)
(0.376704 0.111313 1.94886e-19)
(0.400898 0.0808134 1.22892e-19)
(0.804202 0.312299 1.05434e-19)
(0.750783 0.283767 -2.39481e-20)
(0.506971 0.184984 -2.49103e-20)
(0.995536 0.00463153 1.78296e-22)
(0.995071 0.00514874 6.00397e-21)
(0.987223 0.00887112 -3.18456e-21)
(0.987996 0.00841823 7.25726e-21)
(1.28297 0.0189388 -4.3073e-20)
(1.28366 0.0165927 1.25173e-20)
(1.29674 0.0189991 -1.25286e-19)
(1.07306 0.182831 1.14586e-20)
(1.07891 0.183847 1.1227e-20)
(1.07404 0.189597 1.38442e-20)
(0.996945 0.0078218 0)
(0.996705 0.00869877 0)
(0.0758907 -0.0185195 4.7467e-20)
(0.058851 -0.0170762 7.29489e-20)
(-0.222036 -0.00582275 2.20624e-20)
(-0.206136 -0.00663644 -4.21576e-20)
(-0.209632 -0.00645394 2.90148e-20)
(0.997451 0.0246566 0)
(0.997018 0.0234061 -7.8038e-21)
(0.0892252 0.205674 4.16022e-21)
(0.12288 0.223752 6.51694e-20)
(0.0906622 0.243395 -7.00308e-20)
(1.19605 -0.0702198 -1.18427e-20)
(1.19318 -0.0696856 -3.78868e-20)
(1.19469 -0.0673268 -2.7667e-20)
(-0.251608 -0.0026404 -3.28219e-20)
(-0.23234 -0.00420248 4.3957e-20)
(-0.245924 -0.00181545 4.89816e-20)
(1.08236 0.0460704 3.5772e-22)
(1.08429 0.0471772 5.14503e-21)
(1.08227 0.0483448 1.56173e-20)
(0.0991113 -0.0255198 -7.12568e-21)
(0.0962318 -0.0264064 3.89987e-20)
(0.122822 -0.028779 -1.14245e-20)
(0.999975 0.00283858 9.49252e-21)
(0.999932 0.00334484 -3.73801e-22)
(0.999952 0.00337065 -3.2578e-21)
(1.00018 0.00440109 0)
(1.0002 0.0048476 0)
(1.00021 0.00428494 0)
(0.995972 0.00460794 -3.89539e-21)
(0.385061 0.137216 3.20325e-20)
(0.394442 0.167323 1.14371e-20)
(0.416328 0.144155 -1.35396e-19)
(-0.115498 -0.00892329 3.46984e-21)
(-0.122278 -0.00850267 -2.4347e-20)
(-0.122522 0.00435622 6.22012e-20)
(-0.146697 0.00205836 2.49048e-20)
(-0.140685 0.00241847 -5.2553e-20)
(1.0803 0.0450543 -5.02851e-21)
(1.0823 0.0440204 -5.08563e-21)
(1.00064 0.00609359 5.7554e-22)
(1.0007 0.00596424 -1.30856e-21)
(1.00053 0.00549062 -1.74416e-21)
(0.846341 0.344601 3.54472e-20)
(1.014 0.42579 8.50246e-20)
(1.13332 0.0387827 -1.47388e-20)
(1.13198 0.0412101 9.01355e-21)
(1.032 0.00348076 1.1371e-20)
(1.0322 0.0039886 4.29097e-21)
(-0.175175 -0.00686381 7.40695e-21)
(-0.192645 -0.00638859 -1.36437e-20)
(-0.185972 -0.00640341 -3.38347e-20)
(1.20178 0.205609 -1.93199e-20)
(1.1954 0.205976 7.77549e-20)
(1.19749 0.211148 1.09422e-20)
(1.03564 0.0370741 1.70252e-22)
(1.03615 0.0359691 -1.34523e-21)
(1.03465 0.035812 0)
(0.977668 0.0757542 -5.40415e-21)
(0.975485 0.0773384 1.17958e-20)
(0.978224 0.0787566 9.28497e-22)
(0.98168 0.408256 -9.20713e-20)
(0.745653 0.315356 -8.04884e-20)
(0.372994 0.0219343 -5.21107e-20)
(0.401835 0.0154493 -7.09651e-21)
(0.379557 -0.0123929 -2.77121e-20)
(1.25426 -0.0047968 8.38443e-21)
(1.25554 -0.00299855 4.58034e-21)
(1.2559 -0.00608708 -1.76957e-20)
(1.22235 0.050864 -2.01314e-20)
(1.22515 0.0528686 -4.18118e-20)
(1.22199 0.0543503 -3.88889e-20)
(1.21685 -0.0754378 -3.15205e-20)
(1.22986 -0.0771296 1.52734e-20)
(1.22027 -0.0778097 -3.12662e-20)
(0.588437 0.15405 -1.75412e-20)
(0.608917 0.140285 1.12188e-20)
(0.609828 0.166654 -6.60809e-20)
(1.0162 0.00862052 1.74245e-21)
(1.01689 0.0088027 2.64578e-21)
(1.01661 0.00937617 1.47287e-21)
(0.838662 0.0254707 -2.67466e-21)
(0.8421 0.0328322 1.4625e-20)
(0.846284 0.0259076 -3.12948e-21)
(0.672631 0.214962 -1.74365e-21)
(0.691119 0.20671 -2.94394e-20)
(1.09558 0.0397548 -8.61626e-21)
(1.09767 0.0398233 -8.1027e-21)
(1.09631 0.0375571 -1.91731e-20)
(1.0245 0.0190815 4.99525e-21)
(1.02453 0.0182362 2.40088e-21)
(1.0254 0.0190647 3.23917e-21)
(0.0575173 -0.0155218 7.42834e-22)
(0.0535278 -0.0154567 2.54571e-20)
(0.0893658 -0.0154799 0)
(0.795556 0.528715 4.69728e-21)
(0.766664 0.544677 -2.81528e-21)
(0.804158 0.554972 8.17044e-21)
(1.23475 0.0411004 -1.00901e-20)
(1.23412 0.0447297 -4.0849e-20)
(1.02862 0.0685965 -8.97039e-22)
(1.02856 0.0709337 1.15701e-21)
(1.13219 0.18219 2.25772e-22)
(1.12754 0.184195 4.03856e-20)
(1.13229 0.187861 -6.50249e-21)
(-0.201165 -0.00743278 0)
(-0.219957 -0.00788097 2.66758e-20)
(-0.212732 -0.00744174 0)
(-0.0646739 0.000847596 1.74044e-20)
(-0.085136 0.00309934 3.07092e-20)
(1.2111 -0.0549714 4.05275e-21)
(1.2102 -0.0570236 6.14109e-20)
(1.21276 -0.0562954 2.302e-20)
(0.0570074 -0.0150479 -2.72678e-20)
(0.0278467 -0.0154386 -5.24216e-22)
(0.948353 0.0286354 1.2938e-20)
(0.947014 0.0309955 1.24067e-20)
(0.946126 0.0282625 1.89414e-21)
(0.0890558 -0.117604 9.16454e-20)
(0.0987442 -0.0877257 4.2997e-21)
(0.0613976 -0.0937496 9.37918e-20)
(1.00283 0.0208516 -5.8431e-22)
(1.00306 0.0218557 -1.00355e-21)
(1.00255 0.0214185 -4.84425e-21)
(0.179722 0.11134 -7.8328e-21)
(0.209956 0.0934471 -1.52188e-22)
(0.210423 0.128433 4.7514e-20)
(-0.159804 0.00192407 0)
(-0.154173 0.00210536 -2.1264e-20)
(-0.1408 -0.00118548 -3.03923e-20)
(0.905942 0.0376665 0)
(0.90315 0.0411725 -2.37899e-20)
(0.907859 0.0413585 0)
(1.00002 0.00145755 0)
(0.999999 0.00144953 0)
(1.28357 0.0220372 1.05724e-19)
(1.27061 0.0198951 4.29636e-20)
(-0.173724 -0.000406954 0)
(-0.156323 -0.00203981 0)
(-0.160807 -0.00157483 7.7373e-21)
(0.758356 0.135654 -3.24916e-20)
(0.769773 0.144809 6.10888e-21)
(1.00702 0.000969065 3.39133e-22)
(1.00735 0.00140337 6.14538e-22)
(1.0075 0.000840183 1.50787e-21)
(0.977485 0.0725411 0)
(0.980117 0.0739789 -9.91362e-21)
(1.05226 0.0436147 -2.82868e-21)
(1.05334 0.0450188 -2.68171e-21)
(1.0517 0.0449212 -3.41359e-22)
(1.00657 0.000980086 -1.575e-21)
(1.00636 0.000492266 2.01579e-22)
(1.02664 0.00290006 1.80219e-21)
(1.027 0.00262816 -9.95647e-21)
(1.02648 0.00247686 1.97652e-21)
(0.344924 0.0226348 -5.09845e-20)
(-0.0851505 -0.0093991 4.69121e-21)
(-0.0924656 -0.00772443 0)
(-0.1018 -0.00624527 0)
(0.949792 0.0259579 -3.61498e-21)
(0.95095 0.0286476 -3.92492e-21)
(1.0613 0.0420735 2.5084e-21)
(1.0594 0.0421973 -3.7225e-21)
(0.999979 0.00138913 3.14812e-21)
(1.00001 0.000935218 0)
(0.715904 0.0395041 3.30309e-20)
(0.758801 0.0442726 -3.60659e-20)
(0.661926 0.0351256 2.62546e-20)
(0.181767 -0.0329053 -5.76762e-21)
(0.149958 -0.0300128 1.73227e-20)
(1.11282 0.1836 3.03799e-22)
(1.1085 0.179319 -1.4808e-20)
(0.571568 0.16463 1.01537e-19)
(0.573218 0.13692 7.9227e-20)
(0.995072 0.00563197 7.85788e-22)
(0.994569 0.00562601 1.30046e-20)
(0.904353 0.0337175 0)
(0.908716 0.0345946 9.30963e-21)
(0.795794 -0.0543536 2.89044e-20)
(0.802542 -0.0540952 -5.76711e-20)
(0.867309 -0.0529127 1.57716e-20)
(1.03827 0.0206262 5.14847e-21)
(1.03815 0.021503 -2.31801e-21)
(1.03706 0.0206505 0)
(0.963832 0.0413392 -5.39508e-21)
(0.961691 0.0425072 -4.14796e-21)
(0.962268 0.0395284 -4.93879e-21)
(0.655489 0.218391 -2.66786e-20)
(0.634714 0.223724 3.77116e-20)
(0.652735 0.241296 -1.12769e-19)
(0.987043 0.00965209 -3.41985e-21)
(0.986396 0.00938799 -1.15765e-20)
(0.178453 -0.019949 -1.08039e-20)
(0.13981 -0.0181517 -6.64041e-20)
(0.176424 -0.0193012 -3.86369e-20)
(0.77698 0.631226 0)
(0.786073 0.603415 3.72031e-21)
(0.752586 0.601801 2.07467e-20)
(0.967431 0.0290084 0)
(0.967859 0.0265243 -8.23189e-21)
(1.03602 0.0173183 0)
(1.03609 0.0181759 2.51317e-21)
(1.03503 0.01737 0)
(1.07409 0.138724 -8.64952e-21)
(1.06973 0.138578 8.21259e-21)
(1.0721 0.143549 3.30099e-22)
(1.20879 0.0103176 1.12603e-20)
(1.21186 0.00985706 5.13627e-20)
(1.2093 0.0130481 7.24812e-20)
(0.113776 -0.138903 4.81449e-20)
(0.0743942 -0.148346 7.48903e-20)
(1.22793 -0.0233375 1.62736e-20)
(1.23063 -0.0222031 3.72272e-20)
(1.23002 -0.025349 2.86007e-20)
(1.02549 0.22689 6.79934e-22)
(1.02941 0.221925 2.37498e-21)
(1.03369 0.227127 1.06339e-20)
(1.10831 0.102351 -2.2952e-20)
(1.10517 0.104193 -1.521e-20)
(1.10495 0.100273 -1.22773e-20)
(-0.0880462 0.0164266 0)
(-0.0983403 0.0183954 3.47342e-20)
(-0.119685 0.0147697 1.40991e-20)
(1.06728 0.182469 -1.60204e-20)
(1.07121 0.17754 -1.21253e-21)
(0.519702 -0.0354662 -4.72501e-20)
(0.566955 -0.0334994 -2.85277e-20)
(0.585044 -0.0347917 -1.51595e-20)
(-0.27358 -0.00300507 -5.82759e-20)
(-0.254792 -0.00369349 1.90959e-20)
(0.765423 0.0469338 -3.70912e-20)
(0.665495 0.0344955 -1.40075e-20)
(0.942101 0.0683383 0)
(0.939234 0.0703247 0)
(0.93897 0.0663591 1.44581e-20)
(0.787353 -0.000784456 1.92295e-20)
(0.781489 0.00753439 2.45262e-20)
(0.77597 -0.00333578 -1.05797e-20)
(1.00006 0.0033993 -2.50942e-21)
(1.00009 0.00326389 1.83285e-21)
(1.00002 0.00278032 2.2671e-21)
(1.25267 -0.00782608 4.59828e-21)
(1.25062 -0.00441683 2.48455e-20)
(1.21217 -0.0524311 -3.01913e-20)
(1.2091 -0.0530885 -3.2267e-20)
(1.21492 -0.0754742 -2.9782e-20)
(1.21611 -0.0741713 -6.66789e-20)
(1.09489 0.0416487 2.43344e-22)
(1.09357 0.0395421 1.17859e-20)
(1.21632 0.0307296 -1.83429e-20)
(1.21602 0.0277923 5.72771e-20)
(1.21951 0.0291287 3.64266e-20)
(1.04927 0.0330938 -1.0605e-20)
(1.0505 0.034141 -1.99977e-21)
(1.04885 0.0343516 -2.35921e-21)
(0.835494 0.0192508 2.49804e-20)
(0.830968 0.0264845 0)
(1.0532 0.224052 1.27793e-20)
(1.04564 0.222367 -2.79498e-22)
(1.05186 0.216686 -7.59277e-21)
(-0.278235 -0.00591261 0)
(-0.289155 -0.00534628 -4.33401e-20)
(-0.270217 -0.0057073 0)
(1.20968 -0.0637206 1.64856e-22)
(1.21211 -0.0645042 -8.30778e-24)
(1.21135 -0.0617563 -1.39677e-20)
(1.02355 0.0796334 4.17454e-22)
(1.02351 0.0819987 -5.36986e-22)
(1.02124 0.0802786 -2.63378e-23)
(0.23673 -0.0237219 4.98891e-21)
(0.231457 -0.0232075 -2.65081e-20)
(0.280825 -0.0231379 -1.87493e-20)
(1.01521 0.244956 -1.23696e-21)
(1.01149 0.249838 -2.4327e-22)
(1.01982 0.25067 2.26781e-21)
(-0.0785506 -0.0095396 -8.40379e-22)
(-0.0667346 -0.0108606 5.51558e-21)
(0.148901 0.0939661 1.12853e-19)
(0.149561 0.131167 -3.57375e-20)
(0.18573 -0.0204722 8.14152e-21)
(0.225928 -0.0199415 3.76198e-20)
(1.02015 0.0396509 3.07851e-22)
(1.02117 0.0406781 7.83872e-23)
(1.02001 0.0408937 9.53221e-22)
(1.20772 0.206076 -1.48743e-20)
(1.20544 0.200931 -3.4231e-21)
(1.14209 0.171636 -2.9497e-21)
(1.1419 0.166295 -2.22089e-21)
(1.03939 0.0205265 -3.60257e-21)
(1.03825 0.0197009 5.13725e-21)
(1.00061 0.00626128 3.31322e-21)
(1.00076 0.00675091 2.93433e-21)
(0.936738 0.14891 -7.96569e-21)
(0.932704 0.144436 7.49584e-21)
(0.939184 0.144037 -9.40218e-21)
(0.137692 -0.031608 0)
(0.13428 -0.0310111 -3.9169e-21)
(1.26769 0.233526 0)
(1.27221 0.232484 -6.65898e-20)
(1.27101 0.238829 -3.44914e-20)
(-0.0781631 0.0175339 0)
(-0.0362916 0.0259895 1.09121e-19)
(1.16441 0.0889181 2.68065e-21)
(1.16273 0.0918153 2.71278e-20)
(1.16666 0.0915273 4.52259e-20)
(1.22855 -0.0599522 0)
(1.22725 -0.0617178 0)
(1.22761 -0.061555 1.64566e-22)
(0.826335 -0.0410619 4.96858e-20)
(0.777901 -0.0406886 2.58933e-20)
(0.775586 -0.0413314 -4.49376e-20)
(-0.0959899 0.00636265 -2.27267e-20)
(-0.102923 0.00568136 -4.28488e-20)
(1.25474 0.27215 8.85666e-22)
(1.25656 0.266318 0)
(1.25961 0.270352 -1.66073e-20)
(1.00042 0.0123439 -3.93825e-21)
(1.00044 0.0116726 -3.93591e-21)
(1.00025 0.0116095 5.58434e-22)
(0.56361 0.0751 -9.62357e-20)
(0.56862 0.0953076 -1.78054e-20)
(0.543945 0.0888654 0)
(0.793867 0.0593665 2.43537e-20)
(0.793183 0.0703423 1.9041e-20)
(1.01431 0.000601227 1.1718e-21)
(1.01375 0.0005925 -2.02218e-21)
(1.03504 0.0379861 3.91557e-21)
(1.03664 0.0382645 -6.07591e-21)
(0.845284 0.499128 2.53982e-21)
(0.841706 0.47173 -6.41473e-22)
(0.868271 0.482197 -1.38664e-20)
(1.10137 0.505214 2.37611e-20)
(1.08546 0.477724 -1.81336e-20)
(0.899322 0.390392 -1.29403e-21)
(1.13028 0.00995931 4.70844e-21)
(1.13261 0.00915569 -1.284e-20)
(1.13233 0.0116216 1.51455e-20)
(1.00432 0.00127858 0)
(1.0043 0.00079653 0)
(1.21089 0.0216429 1.56281e-20)
(1.2075 0.0227254 1.17564e-20)
(1.21107 0.0252397 3.08074e-20)
(1.20843 0.00713726 -8.24008e-20)
(1.20556 0.0102975 -5.11294e-20)
(-0.234299 -0.00556556 1.01674e-20)
(-0.237295 -0.00549765 7.13785e-20)
(0.73105 0.0164642 -5.13152e-20)
(0.746459 0.0153855 -5.18821e-20)
(0.817043 0.0226656 -3.76288e-20)
(0.992863 0.0209481 -3.40643e-21)
(0.992341 0.0209682 -3.3315e-21)
(0.997921 0.046454 0)
(0.999224 0.0476011 -3.68453e-21)
(1.21966 0.0488307 3.22935e-20)
(1.22268 0.0472036 0)
(0.116678 -0.0294064 -2.62863e-20)
(0.14941 -0.0319257 4.70487e-21)
(0.138475 -0.0311042 -4.83701e-20)
(0.965726 0.0398799 0)
(0.965603 0.0426705 -1.03233e-20)
(0.0680278 -0.0246315 -1.76909e-20)
(0.0620186 -0.0242331 -3.72905e-20)
(0.0923208 -0.0265119 0)
(-0.270476 -0.00482868 -2.25047e-20)
(-0.253159 -0.00462771 8.43053e-20)
(-0.268217 -0.00469561 -2.21209e-20)
(1.22859 -0.0581937 -2.30231e-20)
(1.22991 -0.0581175 0)
(1.02375 0.0189497 -1.70833e-21)
(1.02447 0.0197674 -1.8565e-22)
(0.478362 0.405053 1.64351e-21)
(0.496271 0.440093 0)
(0.444576 0.439138 0)
(1.21098 0.0433851 -9.01991e-22)
(1.214 0.0451005 -3.46679e-20)
(1.21067 0.0467353 3.25611e-20)
(-0.28538 -0.00720125 -3.7708e-20)
(-0.264409 -0.00804829 4.93597e-21)
(-0.277267 -0.00609031 -1.11423e-19)
(1.00611 0.0274404 -8.55939e-22)
(1.00666 0.0280151 -7.92442e-22)
(1.00622 0.0286374 2.36863e-22)
(0.336672 0.0546299 5.94315e-20)
(0.306769 0.0510482 -5.06348e-20)
(1.01902 0.0384768 1.38843e-21)
(1.02017 0.0383921 1.01606e-22)
(1.23305 0.151225 0)
(1.23036 0.147572 0)
(1.22848 0.151643 2.29845e-20)
(1.01197 0.00181792 -1.42021e-21)
(1.01167 0.0012628 -2.33173e-21)
(-0.139806 -0.00818947 1.04553e-20)
(-0.156428 -0.00808504 2.40437e-20)
(-0.145242 -0.00774908 5.68541e-21)
(0.0500342 -0.015118 1.8767e-21)
(0.0461921 -0.0149664 6.96093e-21)
(0.0803807 -0.0146815 -4.55024e-20)
(1.00136 0.126519 4.19989e-21)
(1.00551 0.125323 3.79969e-21)
(1.15101 0.549256 -4.12902e-20)
(1.14861 0.54134 3.07192e-20)
(1.16482 0.535423 0)
(1.11182 0.104045 -5.83802e-21)
(1.11085 0.10022 1.27068e-20)
(1.0227 0.0187307 -1.30279e-21)
(1.02286 0.0179206 -4.30493e-21)
(0.780851 -0.0580267 -1.08358e-20)
(0.722639 -0.055613 2.90538e-21)
(1.208 -0.0656028 3.55227e-20)
(1.20723 -0.062946 -1.65569e-20)
(1.16237 0.0863131 -3.94879e-20)
(1.16587 0.0860604 -1.5821e-21)
(0.170594 -0.0313445 -1.75775e-20)
(0.14503 -0.0298389 -1.52503e-20)
(0.184143 -0.03193 -1.08759e-22)
(-0.273917 -0.00302137 -1.18854e-19)
(-0.284987 -0.00368409 -4.76846e-20)
(1.01768 0.00476965 -5.99629e-21)
(1.01828 0.00485457 4.99468e-21)
(1.01795 0.0042042 -1.30808e-21)
(1.08528 0.130678 -2.85488e-21)
(1.08381 0.134909 -3.9942e-20)
(-0.162061 -0.00747329 -2.58113e-20)
(-0.155827 -0.00749228 -3.37476e-20)
(-0.150221 0.00172553 -6.93385e-21)
(-0.167386 4.45448e-06 -4.01248e-20)
(-0.152008 0.00150912 -6.79031e-20)
(1.00005 0.00338178 -2.47538e-21)
(1.00005 0.00395008 -2.6359e-21)
(1.00886 0.0131648 -2.01097e-22)
(1.00949 0.013567 9.7917e-22)
(1.00916 0.0138633 9.12176e-22)
(-0.049327 0.00238946 5.51552e-20)
(-0.0333385 0.000844174 5.38867e-20)
(1.25875 0.000585963 -8.7809e-21)
(1.25799 -0.00158236 -3.66285e-20)
(1.25794 -0.00178198 2.39615e-21)
(1.00007 0.000174938 -1.46868e-23)
(1.00003 0.000133275 1.36828e-23)
(1.00007 0.000219561 -7.70953e-24)
(0.855688 -0.0607314 9.02717e-21)
(0.863223 -0.0616831 5.46126e-21)
(0.919087 -0.0626804 -3.73156e-20)
(1.24897 0.090804 1.50343e-20)
(1.24968 0.0868614 -4.24301e-20)
(1.24552 0.0882896 -3.26315e-20)
(0.796577 -0.000608902 0)
(0.792284 -0.0102527 -2.42873e-20)
(1.11345 0.158254 -8.2975e-21)
(1.11625 0.163013 -6.59424e-21)
(1.11814 0.157484 -2.03414e-20)
(1.00009 0.0038531 2.10434e-21)
(1.00011 0.0032326 1.95906e-21)
(0.978207 0.25333 -1.4296e-21)
(0.980475 0.243252 0)
(0.969905 0.246726 -2.01504e-22)
(-0.260081 -0.00339916 2.46624e-20)
(-0.260054 -0.00265265 -3.9939e-20)
(-0.280091 -0.00222511 -4.22649e-20)
(1.06656 0.00691844 -3.29766e-21)
(1.06713 0.005825 1.44759e-20)
(1.06834 0.00689597 1.45752e-20)
(1.21908 0.225745 -4.12225e-20)
(1.21266 0.22735 9.39454e-20)
(1.21531 0.220128 1.29091e-20)
(0.560919 0.182058 4.75513e-20)
(0.575565 0.20321 -4.49534e-20)
(0.54565 0.207556 0)
(1.05114 0.0421447 -2.18682e-21)
(1.05277 0.0421128 0)
(0.998879 0.0423252 2.08366e-21)
(0.997826 0.0429571 -3.59554e-21)
(1.21366 -0.0206485 -2.47791e-20)
(1.21707 -0.0204633 -5.888e-22)
(1.21528 -0.0234396 2.86074e-20)
(-0.0193501 -0.00341394 -2.29638e-20)
(-0.0325116 -0.00123493 -6.85924e-21)
(-0.0343369 -0.00129164 5.12921e-21)
(1.22499 -0.0248329 -2.10473e-20)
(1.22553 -0.0212787 -2.21182e-20)
(0.939759 0.153858 1.10953e-20)
(0.933727 0.154874 -8.11638e-21)
(0.981651 0.127087 9.79337e-21)
(0.978651 0.131359 1.63045e-21)
(1.00007 0.000379848 0)
(1.00007 0.000330054 3.65041e-23)
(1.00002 0.000221845 1.36001e-23)
(-0.191003 0.000584592 0)
(-0.186609 0.00061418 5.03815e-21)
(0.145908 -0.00703255 0)
(0.192003 -0.00725881 0)
(0.190806 -0.00630327 -2.88399e-20)
(0.816826 -0.0695213 -4.33853e-21)
(0.793405 -0.0662201 -1.58052e-20)
(0.761564 -0.0635966 4.02391e-20)
(1.02189 0.0185988 2.19695e-21)
(1.02263 0.0194448 1.23202e-21)
(-0.240449 -0.00595999 3.02504e-20)
(-0.222519 -0.00624054 -3.45374e-20)
(-0.228221 -0.00587025 -3.59574e-20)
(-0.224062 -0.00104938 -1.81112e-20)
(-0.222253 -0.00035146 7.75341e-21)
(-0.24312 0.000549961 -2.00917e-20)
(0.45669 -0.0357353 -2.2362e-20)
(0.477469 -0.0356649 -2.43334e-20)
(0.0983795 -0.0255457 1.06161e-20)
(0.077939 -0.0243865 1.84667e-20)
(1.19867 -0.0700815 0)
(1.19738 -0.0723582 -6.50881e-21)
(1.00013 0.00451315 0)
(1.00903 0.00111173 1.52709e-22)
(1.00853 0.00118357 -1.4776e-23)
(1.00911 0.00172955 -1.82124e-21)
(1.20692 0.0700076 0)
(1.20401 0.0681989 0)
(1.20763 0.0666683 5.69045e-22)
(-0.175659 -0.00516718 -1.20443e-19)
(-0.189683 -0.00424113 -1.52583e-20)
(-0.191747 -0.00394083 -6.31793e-21)
(1.26161 0.0454031 2.17706e-20)
(1.26239 0.0485013 2.089e-20)
(1.26722 0.0457339 9.27001e-21)
(1.1003 0.0734766 -5.47762e-21)
(1.10327 0.0723931 -5.65677e-21)
(0.712634 0.0168435 1.66284e-20)
(0.644117 0.0102051 -5.63435e-20)
(1.16448 -0.0473216 -8.08407e-21)
(1.16208 -0.04681 3.91158e-22)
(1.02641 0.00162486 4.71715e-21)
(1.02637 0.00201767 -1.11892e-21)
(1.02674 0.00180042 -5.88544e-21)
(0.432659 0.0371033 0)
(0.425314 0.0323084 0)
(0.35318 0.020861 0)
(1.00284 0.00694396 0)
(1.00283 0.0066306 -1.0318e-23)
(1.00255 0.00642803 2.29035e-22)
(0.236567 -0.0242275 2.9383e-20)
(0.196128 -0.0233721 8.27226e-21)
(1.12766 0.011167 3.0141e-21)
(1.12785 0.00872473 -2.41666e-20)
(1.00008 0.000135555 1.2939e-23)
(1.00013 0.000214775 8.79924e-25)
(1.00801 0.14309 -3.62764e-21)
(1.00639 0.148356 -3.03939e-21)
(1.00347 0.14306 1.03617e-21)
(1.0229 0.232947 -1.97124e-21)
(1.01868 0.226622 1.97419e-21)
(0.775931 0.0173741 -2.69708e-20)
(0.786284 0.0179054 2.29646e-21)
(0.797058 -0.0583855 4.08317e-20)
(0.843738 -0.0607655 6.62169e-20)
(1.00304 0.181824 0)
(1.00286 0.18862 3.0544e-22)
(0.996626 0.18358 -5.41526e-22)
(1.07038 0.0174304 3.65479e-21)
(1.07129 0.0189307 8.2106e-21)
(1.06943 0.0183813 6.47713e-21)
(1.14406 0.103565 0)
(1.14791 0.109209 0)
(1.05042 0.0904872 -3.89001e-20)
(0.192131 -0.0322121 1.00403e-20)
(0.155 -0.0307736 -1.50068e-20)
(0.106708 -0.0100694 0)
(0.110348 -0.00959152 -2.96846e-20)
(1.00551 0.0271149 -1.16516e-21)
(1.00585 0.0265075 0)
(0.435336 -0.0317547 3.7827e-20)
(0.485673 -0.029586 -2.94458e-20)
(0.423226 -0.0305731 -2.74755e-20)
(0.998465 0.00294392 -1.24789e-21)
(0.998351 0.00327557 -1.18731e-20)
(0.998144 0.00327235 -4.62418e-21)
(1.06991 0.015969 -5.52576e-21)
(1.07173 0.0163957 3.18363e-22)
(1.00257 0.0197889 1.84778e-21)
(1.00307 0.0202267 1.58566e-21)
(0.80467 0.662562 -1.2748e-20)
(0.758127 0.665685 0)
(1.00218 0.00130289 -3.26848e-22)
(1.00237 0.00113751 -3.32088e-22)
(1.00202 0.00101928 4.81362e-24)
(1.23553 0.15451 0)
(1.23738 0.150535 1.1571e-20)
(1.10869 0.159982 2.14376e-20)
(1.11014 0.154498 2.20039e-20)
(1.04795 0.03192 -6.86132e-22)
(1.04959 0.0317639 3.39201e-21)
(1.21369 0.020692 -1.86229e-20)
(1.21022 0.0193616 -5.52605e-21)
(1.05408 0.0854399 1.14383e-21)
(1.05543 0.0833045 0)
(1.0571 0.0859301 0)
(0.118783 0.0735002 -2.80648e-21)
(0.106103 0.0575121 1.39676e-19)
(0.104704 0.0888822 -3.84665e-20)
(1.01964 0.239757 -2.51795e-21)
(1.01176 0.239215 0)
(1.19373 0.199376 7.17897e-21)
(1.1889 0.204631 1.88427e-20)
(1.04627 0.0228281 -8.77503e-21)
(1.04734 0.0238898 -1.81931e-20)
(1.04749 0.0225823 -6.29632e-21)
(0.999869 0.0416723 4.73342e-21)
(0.998787 0.040716 1.082e-20)
(-0.211322 -0.00680918 0)
(-0.225749 -0.0070082 -2.75275e-20)
(-0.22803 -0.00719877 -2.57397e-20)
(-0.183745 0.00225426 2.31395e-22)
(-0.189682 0.00183716 2.47075e-20)
(-0.170037 -0.000406643 -1.6317e-20)
(1.00316 0.022881 1.56752e-21)
(1.0035 0.0223294 5.21042e-22)
(1.01005 0.00103997 2.67155e-23)
(1.01068 0.00139135 1.63257e-21)
(1.01008 0.00180389 6.33728e-22)
(0.429763 0.0351986 0)
(0.524948 0.0472605 -2.1289e-20)
(1.02426 0.0376766 0)
(1.02471 0.0391077 1.13582e-21)
(1.0258 0.0384651 0)
(-0.189583 -0.00723817 -3.53224e-21)
(-0.201952 -0.00668104 3.3606e-20)
(1.04507 0.0220513 5.28619e-21)
(1.04501 0.0233016 9.66095e-21)
(-0.135027 -0.00809948 2.96596e-20)
(-0.123946 -0.00833228 2.88222e-20)
(1.08161 -0.00611093 5.4788e-21)
(1.0809 -0.0075196 0)
(1.08265 -0.00716982 1.42322e-20)
(1.19894 0.39559 -7.3121e-20)
(1.18731 0.392625 1.88537e-20)
(1.19036 0.405421 6.45828e-21)
(1.1665 0.0328536 4.28835e-20)
(1.16499 0.035383 -4.22576e-21)
(1.16849 0.0354329 5.55081e-21)
(0.0944972 0.316861 9.45046e-20)
(0.0933029 0.277503 -7.09001e-20)
(0.127507 0.295104 1.78524e-21)
(0.945519 0.0694289 9.10532e-21)
(0.944933 0.0656603 -1.14624e-20)
(0.85698 0.0613426 -4.12007e-20)
(0.784745 0.053262 5.66753e-20)
(0.504548 0.314309 0)
(0.478083 0.323652 -6.43221e-20)
(0.504555 0.346407 0)
(1.01255 0.14373 1.12581e-21)
(1.01 0.139587 1.62347e-21)
(1.26174 0.00262312 0)
(1.25711 0.00244969 0)
(0.92617 0.552289 8.96825e-21)
(0.941983 0.571412 -1.04443e-22)
(0.912756 0.574435 -1.18937e-20)
(1.00253 0.0639387 -1.57809e-21)
(1.00072 0.0633603 -3.69518e-22)
(1.00136 0.0657277 0)
(-0.111182 -0.00719626 0)
(-0.129278 -0.00531874 -3.15497e-20)
(-0.122944 -0.00598202 0)
(0.578903 0.0641588 -1.33179e-19)
(0.558618 0.054957 -1.62537e-20)
(-0.209271 -0.00113336 0)
(-0.223631 -0.00119581 1.50443e-20)
(0.922097 0.0422826 -1.31203e-20)
(0.91842 0.0438836 0)
(0.921369 0.0465679 -9.92802e-21)
(-0.126809 0.00226595 -1.20958e-20)
(-0.148464 0.00443865 4.07586e-20)
(-0.124867 0.00319342 5.02815e-20)
(1.08933 0.130353 -5.62808e-21)
(1.09167 0.134842 -1.14867e-20)
(1.09356 0.130835 -1.47522e-20)
(-0.153787 -0.00365377 -9.34739e-20)
(-0.136106 -0.00298786 -4.85533e-20)
(-0.130794 -0.00322647 -1.83958e-20)
(0.511988 0.283598 0)
(0.536368 0.307548 0)
(0.913257 0.392338 2.54788e-21)
(0.896868 0.388873 -6.28757e-21)
(0.904664 0.407246 4.5494e-21)
(0.931136 0.399153 -4.39347e-21)
(0.9241 0.379861 -4.87743e-21)
(0.0877545 -0.0262026 -2.92155e-20)
(0.0728535 -0.0254867 1.27049e-20)
(0.999813 0.00383394 0)
(0.999765 0.00432257 1.86382e-21)
(0.99979 0.00433168 -3.47146e-21)
(1.06071 0.223951 6.01177e-21)
(1.05662 0.2308 -2.20381e-21)
(-0.180483 -0.00729902 0)
(-0.187584 -0.00735393 0)
(0.985762 0.0468821 8.17762e-21)
(0.984925 0.0481539 3.06414e-21)
(0.984363 0.0461576 -5.41609e-21)
(1.01043 0.101966 -9.26112e-22)
(1.01134 0.0990517 2.56798e-21)
(1.00811 0.0995002 4.26586e-21)
(-0.215821 -0.000322016 3.93102e-20)
(-0.211564 0.000327366 3.00229e-20)
(0.821461 0.516424 -2.77382e-21)
(0.852846 0.526261 1.0429e-20)
(1.02813 0.0756112 -1.70115e-21)
(1.02814 0.0777581 -2.93379e-21)
(1.03051 0.0772051 -5.79045e-23)
(0.878783 -0.0396598 -2.22896e-20)
(0.87967 -0.0407526 -9.61218e-21)
(0.654904 0.576872 1.99524e-20)
(0.682075 0.550663 1.97846e-20)
(1.01317 0.00760182 2.28958e-21)
(1.01383 0.00801134 9.13602e-22)
(1.0137 0.0072868 2.75203e-21)
(-0.164807 0.000862603 -3.59025e-20)
(-0.186281 0.00270922 0)
(0.776977 -0.0500239 -1.17993e-20)
(0.723109 -0.0504545 -3.87947e-20)
(0.795972 -0.0504878 -4.61237e-21)
(1.00284 0.00725149 0)
(1.00314 0.00748102 0)
(1.01483 0.0196657 1.58796e-23)
(1.01404 0.0190867 2.77448e-23)
(1.01436 0.0200305 2.06261e-21)
(0.998433 0.00263775 -3.0379e-21)
(0.998694 0.0025895 -2.16324e-22)
(1.03714 0.0173087 0)
(1.03607 0.0165696 0)