/*--------------------------------*- C++ -*----------------------------------*\
| =========                 |                                                 |
| \\      /  F ield         | OpenFOAM: The Open Source CFD Toolbox           |
|  \\    /   O peration     | Version:  v2012                                 |
|   \\  /    A nd           | Website:  www.openfoam.com                      |
|    \\/     M anipulation  |                                                 |
\*---------------------------------------------------------------------------*/
FoamFile
{
    version     2.0;
    format      ascii;
    class       volScalarField;
    location    "500";
    object      ddt0(omega);
}
// * * * * * * * * * * * * * * * * * * * * * * * * * * * * * * * * * * * * * //

dimensions      [0 0 -2 0 0 0 0];


internalField   nonuniform List<scalar> 
13851
(
0.00413674
0.000174671
0.000176071
-0.0638463
-4.5126e-06
0.000246099
0.000236405
-1.70043e-07
-0.0852792
7.76548e-07
0.000812213
-2.15017e-06
3.64842e-06
-0.0038766
0.000873856
0.00578343
-0.0879927
1.82322e-05
0.72464
0.00233114
0.000992804
0.000138878
-0.109453
-7.85728e-07
-0.120279
0.00237705
0.544006
-0.0231876
-0.0574006
7.81039e-07
-0.0723938
0.000237714
0.00865421
-0.138051
0.000613932
-0.0459378
-1.6927e-07
-0.117499
-0.100303
7.90476e-06
-0.134934
-0.0598033
-0.173346
-0.00573994
-0.0680953
1.07738e-06
6.59141e-06
0.00620792
7.54933e-05
4.41786e-06
-0.0738923
4.00714e-06
0.00573221
0.000742367
0.0882312
7.64919e-06
0.0101873
-0.12661
0.41017
-0.0162659
-2.23081e-06
0.123725
5.36386e-07
7.73713e-05
0.00325069
0.00849034
0.0336052
-0.00245641
1.51222e-05
-0.0619152
-0.0661657
0.00117207
2.16552e-06
-0.00474438
0.000821706
6.03739e-05
-0.0780052
1.60081e-06
-0.11569
-1.73934e-06
1.58236e-05
0.297208
0.000568223
0.0075545
-0.00987019
-0.0702507
0.000135195
-0.228276
2.1932e-07
-0.0720189
4.76589e-06
0.000243254
-0.280185
-0.0667643
-0.0905767
0.0164622
5.39577e-07
0.00617937
-0.0554811
0.100916
0.00666774
-0.00510786
-0.000402857
3.99269e-06
2.93111e-06
0.00101243
2.52208e-06
-0.0677428
0.000242577
1.56649e-05
0.000119722
1.50666e-06
0.0201088
0.00162173
0.00575634
0.000675996
-2.081e-06
-1.01125e-06
-0.064947
-0.0656172
0.0146035
7.64197e-06
1.221e-05
-0.0672391
0.315561
0.00304677
-1.69864e-07
0.000440241
-0.121864
0.00114432
0.000130857
0.000362483
0.012958
-0.135313
0.000579074
-0.0879522
-0.00702164
-0.0684419
-0.000417588
0.00120747
0.136273
1.57231e-05
5.0114e-07
-0.00253154
-0.106014
4.83943e-05
1.73247e-06
-0.0674362
-0.0461953
0.000601031
0.00713578
0.0137388
0.00171943
0.0639993
6.14551e-06
2.26936e-06
-2.23081e-06
-0.0929107
0.00109263
0.00016644
-1.09228e-06
-0.052206
0.000986679
0.00616015
0.0161819
-0.100329
-0.100008
-0.0635397
0.000164253
-0.133502
-2.03287e-06
-2.63652e-06
0.00131138
-3.80818e-06
-0.0981831
0.693429
0.0079632
-2.50981e-06
0.000833796
0.00655145
0.0396228
0.00841786
0.000148423
0.00117861
-0.193755
-0.0488687
0.00820936
7.73165e-05
5.66792e-06
6.7804e-07
-0.100441
0.00108969
0.178569
0.000243691
4.68366e-05
0.00549548
0.00671935
4.23947e-05
3.11629e-05
-0.00075087
0.0469941
-0.100605
-0.123299
0.000880911
0.261449
-0.0924511
1.52053e-05
0.00127295
-0.0898957
0.000196775
0.00614975
1.16278e-05
0.105981
1.68777e-07
0.000623497
8.40308e-05
3.68321e-06
-0.0183779
3.88588e-05
0.00527471
-2.21087e-06
0.00450762
0.0877797
-0.0903562
4.501e-05
0.00131145
1.16092e-07
0.000526028
-1.905e-06
0.00064246
-0.0775739
6.37368e-05
0.000203658
6.41218e-07
-0.117328
1.12867e-06
0.0753511
-0.118207
0.019588
-4.49981e-07
0.083201
0.0109599
-0.0621659
0.00609299
0.000657563
-0.00132013
0.00913061
0.000845839
0.0160565
0.00018797
0.295022
0.00958814
-3.36583e-06
0.000294427
0.00551749
-0.0505427
-0.0270047
8.95988e-07
0.00311338
6.06375e-07
0.0227004
-0.308641
0.000325583
0.00101462
0.0095118
1.26872e-06
-0.00368427
0.00477561
0.0456425
-1.01071e-06
4.05102e-06
-1.16379e-05
-0.115502
-0.0780788
0.00106794
1.01978e-05
-0.02126
0.0881496
0.00478861
0.00103165
-0.111795
-0.0408857
0.000305762
0.000771763
-0.0957475
2.10115e-06
-2.35434e-06
0.00413041
0.0011888
2.17583e-06
-5.87967e-07
-2.1751e-06
-5.39907e-06
0.000679027
-2.40038e-06
-0.0919383
0.00103827
4.43317e-06
-0.0453617
-0.0588592
4.22674e-06
-0.000729711
-0.064268
1.90905e-05
5.34738e-06
0.000980118
0.041532
-0.13664
0.00169373
-4.75743e-06
-0.117471
-1.9371e-06
0.0016926
-0.0560418
0.0341029
0.000159084
0.0222401
0.290542
-0.0735834
0.00132664
-0.00679788
-0.0982253
-0.0879296
-0.0164933
3.57669e-05
-0.0671925
-0.0690349
-0.0724674
-0.0311437
1.64178e-05
0.00142226
8.83877e-05
-0.187635
0.00690727
-5.27569e-06
4.32588e-06
0.000218653
-0.0703761
0.0135568
2.55604e-06
-0.0863411
8.46867e-05
0.000362253
0.000180978
0.0665337
0.0281825
0.00532541
7.66039e-05
0.000180808
-0.0298665
6.02958e-06
0.0245262
0.000333744
0.00100734
0.000122103
6.42028e-07
4.56285e-06
0.00360875
0.0154215
0.00754556
0.0677688
-0.0296417
5.17099e-05
-0.112846
-0.0286724
8.80737e-06
0.0343722
0.00186597
-0.0521361
0.000204444
0.00254998
0.0422587
-0.132681
0.00886807
-0.132819
5.18321e-05
1.099
-0.136255
0.000507685
0.096759
0.000567872
-0.127026
0.000745453
0.00123194
0.00416865
0.0142746
2.26938e-06
0.000278941
0.000972717
0.000837715
1.3439e-06
0.001122
-0.107213
2.62246e-06
0.00126324
-0.0705923
0.000143829
0.041835
0.00134759
-0.152586
0.000217699
0.00220777
0.0371112
0.275809
0.000993798
-0.015911
-0.000496524
0.29741
1.0522e-06
-0.00453266
0.000535658
0.00261763
7.4672e-06
-0.185043
-0.13488
-0.131995
0.000181458
0.00706535
0.231774
-0.0752818
5.22892e-06
-0.0793557
-0.0101491
-0.163106
0.000201635
-0.0532562
1.73645e-06
-3.83872e-06
0.144718
0.336945
9.4226e-07
0.000171997
0.00128057
-2.85988e-06
-0.115148
0.0014672
0.00214187
0.000318568
5.21782e-05
4.25816e-06
-0.0834601
3.97632e-06
4.25548e-06
0.0700546
-0.0972081
0.000114193
-0.0238996
1.162e-06
-2.74039e-06
0.00015354
0.00940502
0.00134345
2.39251e-06
7.68135e-05
0.0126492
0.000114696
-0.163046
-2.48465e-06
0.000463893
-0.0702922
0.00062329
1.47167e-06
-2.00058e-06
0.000308458
5.5545e-05
0.0639642
0.0430695
0.000653962
-0.0187877
0.000159144
-1.77365e-06
-0.114578
0.0802022
0.000133698
3.7264e-06
-0.0802445
-2.61936e-05
1.12903
3.6383e-06
0.000396324
0.00847229
0.000884379
-0.103139
0.359571
-0.124173
4.0532e-05
0.0140047
1.21222e-06
-0.0496667
0.00133077
0.00576012
0.000541108
6.98002e-05
0.00115628
0.00139524
-4.24954e-06
-0.0728525
-0.10716
-0.176815
-0.0513378
0.0482317
-0.0656195
-0.125573
4.70512e-05
3.19482e-07
-0.221095
1.20455e-06
1.75743e-06
7.49757e-05
-0.102562
0.000153236
1.37252e-05
0.0091967
0.000893021
1.44801e-06
-0.194341
5.19272e-07
-0.131593
0.306512
-1.47e-06
0.000148555
0.0430842
-0.00156231
1.79371e-06
-0.152725
0.0440643
1.41492e-05
-0.0810362
0.382985
0.0104298
3.94404e-05
0.0758231
-0.033539
1.60929e-05
0.32598
1.3763e-05
6.73264e-07
0.13895
-0.129869
0.000663184
0.00134577
1.35561e-06
0.00183665
-0.128508
-0.0915764
2.01914e-05
-0.0782482
1.25775e-06
1.54907e-05
0.00100053
0.000480907
5.31911e-06
5.99948e-05
-0.0846144
0.0189437
-0.0785535
0.000126554
2.8385e-07
-0.11507
-4.1562e-07
0.000251651
0.000447282
0.00081674
0.000622036
-0.0415451
-0.0376456
0.000250503
-0.076927
0.000139771
0.00177152
-0.0555068
0.00624613
1.06872e-05
1.49389e-06
0.00603675
-0.0818156
-0.0133255
0.0018363
0.142793
0.000496291
0.000703846
-0.107608
-0.201221
-0.0078397
-0.122954
0.0182034
-0.0347851
4.04822e-05
0.42788
-0.0427378
-1.64911e-06
-0.183289
-0.187531
0.000165064
0.00118208
6.04113e-06
0.00191433
-0.00345847
-0.207015
4.31646e-06
-2.85783e-06
3.13892e-05
0.000832523
-2.77722e-06
-0.0956999
-2.89638e-06
0.0194794
3.80463e-05
0.00260473
3.44281e-06
1.45868e-06
0.000568943
-0.083028
0.000981971
-0.0850201
0.000392288
-2.35757e-06
5.60236e-06
0.00129216
7.56038e-05
0.00693945
0.000221019
-7.76156e-05
0.335843
3.88674e-07
-0.0195977
1.48677e-07
0.00408442
-0.0702545
-0.0940255
0.00133619
-0.162665
0.00760469
-0.0369816
-0.180818
2.33759e-05
-0.205198
8.1733e-05
0.000521029
-0.062324
-0.0710893
1.64798e-05
0.00502444
4.1951e-05
-0.0383722
-0.0738478
1.96034e-05
0.00535542
-0.125143
2.11847e-07
2.23623e-07
0.00247487
-0.0196282
0.135117
5.59104e-06
0.00296966
0.000107448
1.42154e-06
0.273371
0.00257824
0.0045816
3.6107e-06
0.00462141
-0.00011991
0.00199039
9.05615e-06
4.01126e-05
0.00389841
3.04759e-05
0.00521046
0.00118639
0.00116487
-0.00777057
0.534889
0.462304
-0.0514697
-0.127329
0.00661373
-0.028959
0.000404455
0.102865
0.00688733
1.30399e-05
0.000682779
0.105537
0.000183425
-1.84877e-06
-1.98201e-06
0.00392532
-0.10338
0.000469394
-0.10827
-2.6343e-06
0.0940532
0.00158086
-0.0700547
0.00533824
0.000227952
0.000178311
-0.0605029
0.010017
0.000135338
0.453699
4.66643e-05
0.196699
0.00400545
0.0199273
0.00047721
-0.22216
2.05867e-06
2.33974e-07
1.41849e-05
1.67562e-06
-0.0610907
-5.37275e-06
0.156335
-0.112716
0.00285623
-0.096315
-0.0486291
0.0268156
-0.0238647
0.000423423
-6.06721e-09
3.43351e-06
6.25488e-07
1.16883e-05
-3.17964e-06
0.00204949
0.0119361
-0.000550682
-0.00716801
4.75893e-05
-0.0846978
9.5876e-07
-0.0633524
0.000485334
1.88447e-05
7.5091e-07
-0.0964511
0.00024323
0.0789287
-0.188934
0.00114371
0.0019224
1.47052e-05
-0.136728
5.62846e-05
0.000170304
0.327435
-2.98402e-07
1.59797e-05
1.69207e-05
0.00132094
-0.0898688
0.000363997
0.000518327
0.0262887
-0.0875775
0.000151226
5.87804e-05
-0.0493681
6.0909e-07
-0.0471684
-2.00601e-06
0.000123421
-0.115319
0.00281825
0.00605789
-3.24582e-05
0.000990606
1.16327e-06
9.39473e-07
0.00163322
4.51881e-05
1.86184e-06
0.000519546
0.0246616
-3.95146e-06
0.272853
0.759115
0.118569
0.000169055
-0.0777883
0.00117705
7.59586e-08
0.0132763
-2.28874e-06
0.000283098
-0.0335173
-0.0249921
-0.20604
-0.0404835
2.36487e-05
1.8401e-05
0.00533375
3.43264e-05
3.69355e-06
-0.0953262
0.0268693
0.0623866
0.00393827
0.00290562
1.75934e-06
8.419e-07
0.229808
0.00220676
0.000169817
-3.89365e-06
0.00656796
0.03305
-0.112836
5.91763e-06
-1.85007e-06
0.0219394
8.35345e-06
0.000588005
-2.93027e-06
-0.107566
-1.73014e-06
-0.0666239
3.46169e-07
0.0261774
0.000868355
0.00162118
0.000505853
2.02435e-06
0.000165654
-3.86504e-06
0.0794206
1.05304e-05
-0.0145608
5.03073e-05
0.00869337
-0.115689
0.000440099
-5.37124e-06
-0.0653836
0.0361348
0.000273312
0.00261753
3.12045e-06
-0.0318135
1.43023e-05
0.129388
-1.484e-06
-3.81186e-06
0.100244
0.000628943
-1.91635e-06
0.000756891
-0.118382
-0.0437945
-0.141842
3.78691e-07
-0.0375721
-8.93641e-07
-3.9407e-06
5.91495e-06
3.63715e-06
2.70264e-07
-0.161785
-0.0496509
3.6917e-05
-2.99362e-06
0.000672963
1.82514e-06
-0.0615332
0.0148359
-0.0150557
-0.101117
0.000163935
0.00531564
-1.51292e-06
0.000981194
0.00688484
2.40322e-05
-1.22675e-06
0.468363
-0.0710473
0.00182463
-0.168104
0.00185493
-1.51551e-07
0.000671515
0.00282199
-0.0928155
0.000631403
0.451707
0.00243385
-9.06544e-07
-0.248079
-0.206576
-0.0906542
-0.101765
0.154683
4.18972e-05
-0.00222372
3.79413e-06
0.270606
0.000165236
-5.22444e-06
-0.155066
4.44828e-05
-4.70834e-06
1.06532e-05
3.74454e-05
-0.101696
0.0911303
-1.73502e-06
0.000704896
0.0577587
6.06947e-05
-0.152408
2.07446e-05
0.00254612
-0.12299
-2.92506e-06
-0.0254997
0.00020182
0.000443487
0.00584176
4.58762e-05
0.144149
0.0021812
-0.131489
5.47316e-05
-0.0449224
0.000463899
-0.0428167
-0.0868177
-0.0625477
0.00116613
2.25859e-06
2.29579e-05
3.91132e-07
0.00114731
1.04047e-07
-0.109195
0.000130227
4.94944e-05
0.0001262
4.12905e-05
-3.41705e-07
0.000425689
0.000208172
0.000148376
0.00014967
-0.166689
0.0112265
0.000456448
0.000719194
-0.149212
1.44539e-05
-0.0723078
-1.19418e-07
0.00018577
1.02974e-05
8.05049e-06
0.00027279
-1.95456e-06
-2.07485e-06
-0.00133762
2.75143e-06
0.042054
6.49975e-05
-0.193567
0.086442
0.0120666
0.118556
2.99791e-05
-0.0894316
0.00904446
-5.20473e-07
0.000191531
1.2244e-05
-0.0755478
1.8173e-05
-0.000589718
0.0168145
-0.077064
-0.00104227
2.47542e-05
-0.0556521
0.0769488
0.110145
0.000207826
-2.19285e-06
2.0659e-05
0.00170581
1.90613e-06
-0.0317355
-0.00258665
3.75153e-07
0.00507818
0.0372208
1.34139e-05
-0.175442
-0.0706071
0.026211
5.62591e-05
-0.0450998
0.00182348
-3.11072e-06
0.172921
8.52256e-05
1.15369e-05
-4.61027e-07
0.000744597
0.00115388
-0.100903
-0.0784607
0.00114981
-0.104071
0.000820135
9.42525e-07
-0.00128804
-2.13579e-06
0.387526
2.01511e-05
-3.71203e-06
6.13515e-05
4.2735e-05
-0.114419
-0.0611285
-0.00373572
-0.0414734
-0.187051
4.20029e-05
2.75206e-06
6.47718e-05
0.16596
2.01692e-05
6.56331e-06
0.000533794
-0.120276
0.0024135
4.07713e-06
0.00034458
0.000520176
0.00555217
-0.149584
1.44564e-05
5.5035e-06
0.000152616
-0.123958
0.000526692
-0.126808
4.04053e-05
-1.8775e-06
8.98394e-06
-8.08655e-08
8.60083e-05
0.0282376
-0.0283259
-0.0952111
0.00095074
-1.60864e-06
0.348719
5.69511e-05
-0.0588386
-0.0412976
-0.00027041
-0.0717872
-0.0590508
-0.0692179
0.0016725
0.000614517
-0.0542077
0.000498003
0.000364916
-0.0039516
0.120412
3.92934e-05
-0.0668404
1.07e-06
-0.00855673
-0.126997
-1.24965e-07
3.91917e-05
0.000404521
0.110648
0.00065376
-2.55379e-06
0.000440329
1.26255e-05
0.000305118
0.0255849
8.00836e-07
0.0212252
-0.222877
1.43721e-06
0.00057516
0.00115051
-1.61494e-06
-0.0278583
-1.01619
-0.0947339
-0.0269854
-2.00941e-06
9.7881e-05
0.000188888
7.27438e-06
-0.00336188
0.000677698
-5.75581e-06
0.00193457
2.77665e-05
-0.0063452
0.000865963
0.0373902
1.12579e-05
5.60251e-05
0.000601682
0.00475022
0.00173315
6.70461e-07
-1.12062
-0.0525701
-0.0892758
-0.0653053
-0.024924
-0.0990912
-0.0339401
2.35531e-07
-7.86029e-08
2.43359e-05
-0.0106294
0.00133957
0.00164995
-0.0736347
4.90735e-05
-1.24222e-06
1.23344e-06
0.00850123
1.75926e-06
0.000335066
5.47847e-05
0.073383
2.09319e-05
-2.58328e-06
-9.70714e-07
2.69471e-06
-2.71534e-06
0.000120573
-0.00221123
0.000273696
-0.0779904
-2.39572e-07
4.17666e-07
-0.123264
-0.12368
-0.215109
0.117588
0.00165069
0.107333
-2.57367e-06
-0.000894382
5.56822e-05
9.40005e-08
0.000210341
-0.0644521
9.52172e-05
0.00548516
0.00497124
4.81296e-05
6.56857e-06
3.43813e-05
0.0138538
5.70219e-07
0.0698344
3.03273e-05
0.00251035
9.92072e-07
3.62103e-05
0.000282168
-0.00464405
4.21664e-06
0.75758
-0.0669082
0.0128195
-0.135419
1.70805e-06
-0.080667
0.564425
-3.3337e-07
-0.131841
7.01022e-06
0.00458668
5.08401e-06
5.11217e-05
-3.69797e-06
1.89087e-06
2.46167e-05
0.000234854
0.00201472
2.78854e-05
1.29797e-06
-0.0028394
8.89778e-06
-0.19786
5.85176e-07
0.000537156
0.000831206
-0.0239143
0.000713934
1.59162e-07
0.0264003
-3.07896e-06
0.000667833
0.00174422
0.19145
0.0012435
3.76188e-07
0.00463529
0.00101009
0.00251293
0.257532
0.000889333
0.0117614
0.00180662
0.00201105
2.21729e-05
7.65632e-06
0.118212
-0.0688169
0.000129032
-3.0535e-06
-0.144244
-2.24726e-06
0.00088287
-2.19907e-06
0.00171027
-0.0710393
7.34987e-06
-0.0691354
0.000244851
-1.72625e-06
0.00604873
-5.11457e-06
0.00555374
-0.0282635
0.000710241
0.111868
-3.95388e-06
2.24518e-08
-0.0028786
4.9036e-07
-3.79717e-06
0.000442987
0.000431729
0.00200938
-0.00606193
4.55218e-06
0.00033781
5.66281e-06
-1.87613e-06
4.95409e-07
-2.84299e-07
0.58597
2.04482e-05
1.94906e-05
-0.00149859
-2.26521e-06
-3.32597e-06
-0.121714
-4.83839e-06
-0.193937
0.000108127
-0.112434
-0.00744723
-0.000732247
0.24985
0.00140138
0.0404574
4.60905e-05
0.0157077
0.000199296
7.37603e-06
5.63039e-07
1.96096e-05
0.000530898
2.28792e-06
0.00048407
-3.18113e-06
5.85453e-05
-0.149792
-0.0742223
-0.0739448
0.000202366
0.00208765
-0.044851
-0.0681432
-7.31408e-08
0.000323328
0.309284
3.48861e-05
0.000485696
0.111292
-0.0931949
0.000397647
0.0011193
3.22589e-05
0.0768791
-6.40038e-07
-0.000844174
-0.038737
6.36183e-06
1.03457e-06
-0.194103
0.000627639
-0.00673632
-0.138801
0.00367841
1.07956e-05
-3.23446e-06
3.91195e-05
-0.0655691
0.000490122
-0.049715
0.000946968
1.99508e-06
-0.0604668
-3.32288e-07
0.0120892
7.3557e-06
0.000137775
0.000933368
-1.33366e-06
-0.183832
-0.192962
1.75826e-05
0.00199807
0.00134594
0.153531
0.000694034
0.00182325
-0.00412612
0.000823747
-0.0184302
0.00185915
4.27549e-07
0.00087931
-0.00277669
0.0577902
-2.00269e-06
0.668004
0.000782085
0.00198084
5.66893e-07
-0.169419
0.000285395
3.96718e-05
2.93942e-06
0.000372262
0.000364348
0.000882888
-4.18803e-06
2.81095e-05
0.000502112
-0.290615
0.000656603
3.40387e-07
9.85979e-06
0.000888597
0.0400217
-4.37418e-07
0.016703
-0.040579
0.000425308
-0.0906855
0.00114372
-0.0600499
0.229264
7.39666e-07
0.036784
-1.492e-06
0.000105535
0.000723835
0.000676602
-3.2273e-05
0.00131815
0.00017816
0.000455468
0.0004033
6.23933e-05
2.21402e-06
-0.00313669
0.000245217
0.000107781
0.0310796
0.000144397
0.000108302
-1.75675e-06
-0.0592348
0.000552726
4.85568e-06
0.000219736
1.79193e-05
0.0228494
0.00379244
0.000727232
-0.0613827
0.426447
0.341535
0.00363531
-0.0291698
-2.35681e-06
0.0349208
7.08561e-06
1.25618e-05
-0.104156
-0.0255512
0.47706
0.943216
6.91994e-07
0.0342352
-2.2626e-06
0.00266665
7.65961e-05
0.139772
-0.164541
0.000347372
-4.54752e-06
0.276906
-0.00630531
-1.18148e-06
-0.0648109
1.13702e-06
3.98997e-05
0.000245842
4.95385e-06
0.000363022
1.97312e-05
1.76989e-06
0.000252659
0.0439661
0.00088056
0.000873509
-1.64914e-06
-0.0544145
-0.0208276
-4.83849e-06
0.0751086
7.54317e-05
4.4228e-05
-0.0509465
-4.1666e-06
1.9496e-05
3.66223e-05
-0.0642053
-1.42966e-06
-1.75035e-06
0.000670903
0.127399
-4.62876e-06
0.000227392
0.000205699
0.0522575
0.000639792
0.000637988
-0.00145858
1.07369e-06
-0.00536745
-1.3193e-06
0.00533133
0.000304999
1.13425e-06
0.000410115
0.00178379
-2.18934e-06
3.45687e-05
0.00439772
-0.0026504
5.69028e-05
0.0451349
-1.28816e-06
-6.92659e-07
0.00151243
-2.34672e-06
2.04861e-05
-0.192011
9.70908e-07
0.000819861
0.00646208
-0.0777512
0.159383
2.0745e-05
1.36925e-06
4.76208e-05
-2.90678e-06
1.81112e-06
-1.13414e-06
0.371227
-4.74686e-07
0.0119069
0.00445025
1.41288e-06
9.63073e-06
0.000395346
0.00440884
0.033595
0.00029139
0.00121094
6.00696e-05
-0.0908594
-0.00261735
0.000664177
0.00103017
0.000401013
-0.000511851
-0.155583
0.00107194
-0.0237391
0.00886758
-0.0643695
0.000186184
4.93744e-06
0.000499391
-2.24833e-05
7.77823e-06
5.72767e-05
0.00213075
-7.25225e-07
2.41948e-05
-1.79521e-06
4.58615e-06
0.00014116
2.41654e-05
-0.0790198
-4.86088e-06
-0.14
-2.66304e-06
0.0106049
4.21659e-05
0.0053013
0.00366222
2.54392e-06
-0.0544255
2.3845e-05
-1.87545e-08
0.000904043
5.9535e-06
4.57275e-05
1.9086e-05
-0.0190398
7.83923e-05
0.00074665
0.00491662
-0.0438484
0.000123544
0.0114821
0.0753608
0.000639288
2.9796e-05
7.85693e-05
0.00869401
0.00185683
-0.0808731
2.31948e-06
-0.066935
9.23083e-06
-0.00230931
-0.176413
0.000379247
0.178762
0.000107766
0.000558002
7.18001e-05
-0.183871
0.000311663
-3.15211e-06
0.000403916
0.0134552
6.92347e-05
-2.16468e-07
-2.5812e-06
-0.0980095
4.8479e-07
0.000112164
-0.130169
8.04783e-05
7.98088e-07
0.000797403
0.000106921
-0.00599812
-9.68222e-07
8.35874e-07
-3.05051e-06
3.1475e-06
4.32888e-05
2.91471e-05
0.00187956
-0.115702
2.90482e-07
8.81052e-07
-0.0354915
5.42635e-05
-0.0664182
0.000175899
-0.150554
2.87795e-06
5.66198e-05
-2.83088e-06
-0.0389907
-0.134135
0.00012087
0.00134188
0.000624973
2.59367e-06
1.03028e-06
-0.0145848
-3.24627e-06
0.0028083
5.06236e-06
0.00124124
4.28485e-07
-0.0687572
-2.88063e-06
0.00120952
-1.34341e-06
0.141764
0.536806
4.39118e-06
0.000243517
-0.196837
0.0020181
0.0830126
0.230684
0.0559326
1.528e-05
0.000558129
0.00257942
-0.00650954
5.22813e-05
0.00106527
4.95728e-05
6.17371e-06
-0.0261974
-0.0765713
0.0020807
0.00835665
0.239821
0.000241812
-0.113942
9.38086e-06
3.62073e-06
-0.00265449
-0.203451
0.0271099
0.0230212
0.104001
-2.80972e-06
-0.179668
-0.0106951
-0.194276
-1.43386e-06
-0.0686169
-0.0767554
0.594896
0.439564
-0.0607692
0.00260127
0.000337578
0.0181281
0.000107691
3.28606e-06
0.100132
0.00400765
2.37107e-06
-0.0220274
-8.29482e-07
0.000211972
0.000957529
5.02259e-05
-0.0424973
0.000194688
-0.0738641
0.00124356
-0.000377127
0.0216525
-0.124311
0.00413022
5.39347e-06
2.6349e-05
0.00197241
-0.0001716
-3.25178e-06
0.000788981
-0.000909272
-0.00532667
1.98208e-06
0.0163824
6.82785e-05
0.000459523
0.0457254
-0.0231427
8.57052e-06
0.0176689
-0.0651452
6.33288e-06
3.3172e-05
-0.168837
0.127868
0.000113117
0.000159331
-1.71071e-06
0.00480104
0.000275515
-0.0582302
0.00311878
1.3093e-05
-1.28394e-06
-0.00193267
0.000146135
0.641816
-0.0661849
5.3095e-07
-1.36018e-06
0.000210171
-1.31011e-06
0.000139231
3.79263e-05
5.54672e-05
3.08289e-05
1.09994e-07
7.29242e-05
5.00347e-06
0.00131843
0.00939563
2.99749e-08
-0.104267
-0.12591
-1.06608e-06
0.0083511
-0.0109487
0.00117597
1.91068e-05
0.00355655
0.000297628
0.000817101
0.000457574
6.43207e-05
-1.28846e-06
-0.0829078
0.000483016
0.10938
1.75332e-05
9.46188e-07
-2.13751e-06
0.00506948
4.33263e-08
0.00104045
0.00182868
0.0722666
-2.26726e-06
0.858865
-0.0148069
-0.0611145
-2.00079e-06
-0.00263564
-0.0370522
-0.067295
-0.0851467
6.62364e-06
1.84172e-05
0.00627836
0.153638
0.191036
0.000855783
0.0614155
-1.49472e-06
1.0697e-05
0.00035006
-6.74688e-07
3.25091e-06
0.0114493
2.5488e-07
-0.000397188
2.8394e-06
-0.134294
-0.103031
-0.00415342
0.0518656
-0.0495149
3.3386e-06
-2.86198e-07
-0.181109
3.53214e-06
4.3065e-06
-6.91849e-07
0.0190849
-0.144503
-0.0763453
5.29974e-05
4.23042e-05
5.50776e-05
0.000208764
0.0476238
-3.65136e-06
0.210184
-0.139933
-5.77521e-07
7.43874e-07
-0.0195824
0.00263338
0.000135792
-2.30513e-07
-0.132001
-0.0584407
2.04739e-05
0.0230745
2.33864e-07
-0.0676582
-0.219476
0.000159028
-0.0739238
-0.0708253
-0.0595625
2.58336e-06
5.20743e-05
1.92445e-07
-4.5508e-06
-0.128298
1.4993e-06
-0.20583
-0.0235498
-0.0924946
5.19723e-05
0.000817351
0.505802
0.000866915
-0.172401
-0.0752876
-4.5667e-07
0.000248585
0.000258471
0.00602955
-0.0835511
1.29501e-06
-0.156537
0.000166205
0.00109035
1.88433e-05
-4.44003e-06
0.111759
0.000514569
-0.0622016
-8.03599e-07
0.000675442
4.5356e-05
0.00428943
0.000164425
-0.110219
0.0507354
-0.305046
0.00344181
1.36586e-06
5.90427e-05
0.00256665
0.00142914
-0.112512
-0.194374
-2.33157e-06
0.157535
-0.00102601
-0.117689
0.000393568
0.00059761
0.000601871
2.11117e-05
-0.0803123
-1.63632e-06
0.000604199
-0.0211125
-0.132038
0.441663
-0.137252
0.000124232
0.00103213
-1.4895e-06
-0.135423
0.000114078
-0.0988082
1.39323e-05
-0.0266322
6.86837e-06
-1.98884e-06
0.000556987
9.86993e-05
0.000160863
3.95877e-06
-0.0277149
0.0012206
1.92399e-07
0.000378624
-0.0609488
-0.236974
1.41029e-06
-0.0816384
8.74466e-05
0.000818109
0.000729875
-2.03028e-06
0.000706124
-1.98027e-06
-0.0631568
0.000598929
0.000396672
-2.88217e-07
0.0849675
0.000678827
1.28389e-05
-0.0358912
-0.0369859
0.0135513
1.70755e-05
0.103626
1.14548e-07
0.0144865
0.000398025
-0.0287732
-0.0811699
-0.0193708
-0.00102328
-0.138183
0.000311474
1.1695e-05
-8.5966e-07
-0.0672296
-0.0349091
0.00536059
-0.00131955
-7.73676e-07
0.134925
0.00165571
0.188634
-0.0238473
-0.181791
-0.026597
0.0623341
-0.0665083
1.40405e-05
6.24534e-05
-5.84705e-07
2.13554e-05
3.48488e-06
0.0134917
0.000132752
0.000686754
-0.094499
-8.38943e-07
-3.45685e-06
0.00114192
0.0106149
0.000381389
-1.59205e-06
-0.102565
0.000142697
0.00134157
1.09771e-05
-0.0686993
6.28334e-05
-0.155057
0.000713402
0.00057563
0.000770746
-4.65531e-07
-0.0872577
0.742628
0.00103086
5.95187e-06
-4.88598e-06
0.0808046
-0.0705068
-0.0442279
2.14883e-05
0.000823673
0.372092
2.42383e-05
-3.17228e-06
1.16566e-05
-0.138888
-0.000268752
0.000255164
0.000428173
0.00030324
-0.0205881
-0.000448243
0.0415512
0.000359404
0.000578745
4.87244e-06
0.0274583
0.000739474
8.03278e-07
-0.00115523
-0.0773456
-0.108717
0.0116507
-0.0708191
-0.186033
-0.187187
1.09682e-05
2.0014e-05
-0.108503
-0.0573116
-0.0978636
6.44047e-06
0.000796477
1.7716e-06
6.45455e-09
0.305382
-0.137778
0.00164786
-2.01953e-06
0.642844
0.00409679
0.000935839
-0.0126263
-0.0741157
0.142251
-4.94064e-06
-0.108966
0.481251
0.0128984
0.00072365
0.000806188
3.59976e-06
-1.9575e-06
0.000577406
0.00073289
8.68898e-05
0.0010279
0.000375943
7.66709e-05
-0.00569274
-0.0128324
0.000119615
0.00112272
-0.0579205
0.0170933
8.50897e-07
0.0261295
0.0416118
-0.0942258
0.000562789
2.49458e-05
0.000425267
0.000189395
0.000107023
-1.6853e-06
-0.00031017
0.000642889
0.00120577
-0.0498949
-7.67147e-07
5.57235e-05
-0.0256091
-0.0388925
-0.114365
0.72998
0.00438459
6.1561e-06
1.21434e-06
0.000418602
1.99042e-06
-0.183192
1.13721e-06
6.08947e-07
5.32442e-07
-0.00544527
0.0415114
1.05041e-05
0.00174405
0.000192539
0.000225021
0.000374013
0.000175645
0.000882525
0.000454464
-0.0615198
0.000283102
-0.0516275
0.000448234
-0.110822
0.000316521
-5.01343e-06
-1.146e-06
0.00262611
0.00550165
-3.29945e-06
-0.000400877
0.000339617
0.00103418
0.0659202
-0.0704155
0.0203538
6.37226e-07
0.0027633
0.000217527
0.000309101
2.99216e-08
0.000992408
5.67333e-05
-0.0170694
-0.00316508
0.000375344
-6.43766e-08
-0.0308034
7.16695e-06
-0.00934973
-0.0527496
-0.0111135
7.61991e-05
0.0124017
0.00676435
0.0341091
-0.0738217
0.000856088
1.01297e-05
0.000426737
1.187e-05
-0.19969
7.48432e-05
0.000347077
0.677902
-0.103034
8.29655e-06
2.29296e-06
-0.0660672
0.000568927
-0.161487
0.00109919
-1.2589e-07
0.000668126
0.00247421
0.00036727
0.156761
0.000304342
0.0783142
0.000171294
6.36113e-07
2.09751e-06
0.0244672
1.22193e-05
0.0244124
1.95721e-06
1.07947e-05
-0.0106539
0.000314473
2.05124e-05
-2.07598e-06
0.000299768
0.154621
0.00113465
0.000596624
4.62191e-05
0.00150367
3.97738e-06
-0.0374856
0.000442392
0.000828926
0.00255323
0.000476119
0.00510141
0.000330725
7.66431e-06
0.00195472
-0.091893
-0.0246017
2.98153e-05
0.491605
-0.00494049
9.01215e-07
9.61568e-06
0.0296858
-0.0371742
2.28796e-05
0.0022983
0.384063
3.68341e-05
0.00284511
2.8597e-06
0.000258212
0.00101075
-0.147607
-0.00347794
-0.000458652
0.716563
0.0136634
-0.0835327
0.000138118
-0.0581043
9.27489e-07
0.49394
-0.0699693
-8.5584e-07
-3.88527e-06
-0.0298602
3.48337e-06
-1.74121e-07
0.713301
-0.0945405
0.00317124
0.000316279
-0.0561118
-4.01904e-06
-0.0233596
-0.0306525
-1.41505e-06
0.706796
-0.05337
-0.0622721
-0.0504602
-0.0362689
-0.040077
-2.19058e-06
1.44872e-05
0.00146548
0.00174319
-4.38131e-08
0.0177112
2.66773e-07
-0.0436085
0.28502
-0.000338084
-0.0108604
-0.0474343
0.174837
-0.00188269
-0.00262567
-0.0881162
0.109377
0.000245352
2.24969e-06
0.335092
0.000174594
2.82852e-06
-0.160896
1.96756e-07
0.242972
3.44758e-06
-0.138944
0.000275466
2.74571e-08
-0.17432
4.00103e-05
5.53406e-05
-0.0266318
-0.147643
-2.67341
0.000429405
0.00134668
2.72144e-05
0.00106065
0.00972902
0.00104772
1.66235e-06
-0.000893119
0.00135741
0.000211013
-0.0697811
0.000772108
0.000341242
-0.011642
0.00199739
0.00120714
-2.66431e-07
-0.00316159
-8.38438e-07
0.00192868
0.170754
-0.0446543
-3.33329e-06
0.000542238
-0.0604407
0.000108378
0.000939021
0.000671062
0.000633912
-0.13339
0.00152437
1.66761e-05
-0.0393414
-3.08837e-06
-0.0210007
-1.66056e-06
7.85466e-05
0.00652632
-0.0419024
0.000227825
0.0529036
0.0117288
0.000645262
2.92305e-05
0.0092019
0.000707805
-0.0945265
3.20858e-05
-0.654257
0.0104679
0.000656393
0.000396294
0.00577851
0.000428824
-0.00165496
0.00152683
-0.000470337
0.000124685
4.2022e-05
0.162355
1.57042e-06
0.000317536
1.81939e-06
0.00329992
0.000359936
0.00156064
-0.0391084
2.19204e-06
0.0232711
2.93257e-06
3.53093e-06
-1.17001e-06
1.36149e-06
0.000365467
-2.55527e-06
0.00297508
-0.0416107
0.00159025
0.000940636
0.000244833
1.24814e-05
-0.00974968
3.55765e-06
0.0250374
-0.0175511
-0.0629931
0.00523471
0.00029787
0.00039797
-3.55512e-07
5.4718e-05
-0.000752361
0.000484481
-0.065628
0.00163622
-0.0866582
0.00737535
-1.11322e-06
-3.43613e-06
-0.0251164
2.02139e-06
0.000472466
0.0010459
0.21643
0.000125882
-0.12573
5.74622e-07
0.000138516
1.89701e-06
1.61048e-05
0.00870927
0.00298114
2.10738e-05
0.000741033
-0.00405712
0.0010608
0.00161187
0.0593922
0.0172794
0.00937133
0.00521543
0.000350768
5.55883e-05
0.00165782
-0.0345941
-0.168658
-0.0534274
0.000650305
-0.0437142
0.00395276
6.81204e-05
-2.22529e-06
0.00198034
-8.3818e-07
0.000751773
-0.0656971
-4.07612e-07
7.87163e-06
0.0747706
0.270278
0.00133499
-0.504285
3.16434e-06
0.0580332
0.000470509
-0.114749
0.00060316
4.98082e-06
-0.0317925
0.000900763
1.49689e-06
0.00243917
1.03461e-06
0.0266798
0.00029343
0.00532069
-0.177302
-8.64546e-05
-0.0509558
-1.65775e-06
-0.0825432
3.9554e-06
0.000207783
2.79731e-05
0.00063946
-2.44115e-06
0.000940851
-0.03357
-0.149299
0.000966574
0.000204526
0.00136855
5.90167e-06
1.42913e-06
9.39304e-05
0.279283
0.000244258
-0.144457
-0.00735195
0.0284269
2.59476e-07
-1.96281e-06
0.0119086
0.00678528
0.000336192
-0.0502712
1.7691e-06
7.3836e-06
7.52666e-07
-0.0929119
2.0229e-05
1.46215e-06
-0.0438995
-2.03826e-07
-0.00396289
-0.00217861
1.72483e-05
-0.117083
0.000486814
-0.136931
9.03732e-06
0.0695678
4.5452e-05
0.00203219
-0.0840268
0.00172562
-8.13574e-07
0.000412398
0.0045654
0.000736686
0.000488127
0.000519023
0.000174501
-0.0629067
0.000115548
5.45538e-05
-0.222103
0.000343692
0.000488826
0.00640456
-1.44292e-07
7.65338e-07
-1.72928e-06
0.000673957
4.86998e-06
8.14901e-05
-0.071087
-0.188066
0.000974848
-0.0833684
0.00198219
0.000902918
-0.106345
-0.0762642
9.04576e-06
-0.105055
-0.143995
-0.0131341
0.162777
0.00039368
0.0101439
-0.069114
-0.196507
0.126361
-0.169989
4.2674e-05
0.000406048
-8.76186e-06
0.000327138
-3.79393e-06
3.85876
9.76931e-07
-0.0629567
0.00647638
0.0120942
-5.03687e-08
0.00216422
7.96042e-06
-2.43501e-06
4.42766e-07
-3.87234e-06
0.00373463
0.000144869
4.95913e-05
0.0011593
-0.083574
0.000159775
0.00576458
-3.11583e-06
0.00227433
-0.00247924
5.65876e-06
0.0001022
-2.47901e-06
-0.140409
-0.117175
0.00827227
-0.0442462
0.000202011
0.00272871
4.45219e-07
0.00112752
-2.9128e-06
2.45097e-05
8.47266e-07
-0.0489595
9.69312e-07
0.0013503
-0.0505978
0.000124307
0.000555485
-4.94621e-07
-0.10452
0.00934139
-0.136543
-0.0080452
0.0175475
0.274443
0.0319618
0.29435
0.0478224
-0.0894744
0.0063485
0.00555091
-0.0678727
-0.132701
9.56177e-08
-0.0612005
0.00167783
-0.120469
-2.32003e-07
0.00177929
-0.11216
6.27166e-07
-0.0615588
2.72184e-05
-0.0639513
-3.06962e-06
2.73894e-06
0.00153094
-0.00459272
0.000376444
0.00159789
7.85926e-06
2.67688e-05
-0.0406723
-0.103263
-0.0856766
0.00168482
5.48632e-05
8.16116e-06
-1.74841e-06
0.000183138
0.0410678