/*--------------------------------*- C++ -*----------------------------------*\
| =========                 |                                                 |
| \\      /  F ield         | OpenFOAM: The Open Source CFD Toolbox           |
|  \\    /   O peration     | Version:  v2012                                 |
|   \\  /    A nd           | Website:  www.openfoam.com                      |
|    \\/     M anipulation  |                                                 |
\*---------------------------------------------------------------------------*/
FoamFile
{
    version     2.0;
    format      ascii;
    class       volVectorField;
    location    "500";
    object      U_0;
}
// * * * * * * * * * * * * * * * * * * * * * * * * * * * * * * * * * * * * * //

dimensions      [0 1 -1 0 0 0 0];


internalField   nonuniform List<vector> 
13851
(
(1.21297 0.148956 -1.44661e-19)
(1.10525 -0.0142511 -1.65789e-20)
(1.10259 -0.0131048 2.22226e-20)
(-0.20907 -0.0278527 -7.23882e-20)
(1.00314 -0.000676966 -3.98593e-21)
(1.12338 -0.0333219 0)
(1.06995 0.0383401 -2.66982e-20)
(1.0182 -0.000910753 1.06439e-20)
(0.0979589 0.0667017 3.61504e-20)
(0.992669 -0.0207375 9.77048e-21)
(1.24529 -0.119066 -2.66238e-21)
(1.00319 -0.0136451 -1.63709e-23)
(0.985033 -0.0389972 -1.29971e-20)
(-0.145747 0.0130414 -3.15655e-20)
(1.14572 0.0534072 1.88066e-20)
(1.08008 0.15898 8.74904e-21)
(-0.37697 -0.0267951 0)
(1.05137 -0.0192248 -1.41505e-20)
(1.35821 0.102914 1.4189e-19)
(1.21577 0.144492 1.19659e-19)
(1.16922 0.0456725 4.09999e-20)
(1.07251 -0.114432 0)
(0.293509 -0.18138 0)
(1.00012 -0.000337901 0)
(0.75463 -0.00490392 0)
(1.09571 0.121728 -5.91715e-21)
(1.141 0.215602 4.73497e-20)
(0.885723 0.137495 -8.18347e-20)
(0.319933 0.0869246 0)
(1.02968 -0.0137175 0)
(-0.159173 -0.0368185 -9.61524e-20)
(1.07076 0.037341 3.40562e-20)
(1.19445 0.153571 0)
(0.128737 0.0802197 6.79342e-20)
(1.19965 -0.0964341 -9.53159e-20)
(0.370785 0.0916393 -3.23811e-21)
(1.00007 -0.000304376 3.41992e-22)
(0.764995 -0.107288 0)
(-0.159513 -0.0148964 -8.0814e-20)
(1.01945 -0.0532067 2.93802e-21)
(-0.0472339 0.0405006 -1.13644e-19)
(0.362269 0.0961344 0)
(-0.247004 -0.0184357 1.52279e-19)
(1.15145 -0.565447 0)
(0.363828 0.103642 2.56256e-20)
(1.02483 -0.029958 4.67735e-21)
(1.02262 0.00073447 2.90143e-21)
(1.10478 0.165283 -4.55142e-20)
(1.07536 -0.0681711 -1.34026e-20)
(0.984336 -0.0380061 5.30392e-21)
(-0.41402 -0.0199216 -5.91462e-20)
(0.975811 -0.0340606 0)
(1.08282 0.1589 -2.04514e-21)
(1.09152 0.0655274 1.10334e-20)
(-0.0578239 0.0182714 0)
(1.01827 -0.0537503 -5.80939e-21)
(1.19852 0.155606 0)
(-0.0762797 0.0324896 1.23804e-19)
(1.10509 0.204854 0)
(-0.27873 0.000868976 -2.8404e-20)
(1.00292 -0.0129586 -5.75653e-23)
(1.13409 0.210136 2.62274e-20)
(0.995836 -0.011985 -1.53012e-20)
(1.07646 -0.0710706 1.86587e-20)
(0.906169 -0.529475 5.39682e-21)
(0.886009 -0.551274 0)
(-0.304666 -0.00365632 0)
(0.699972 -0.188096 0)
(1.03732 -0.0510578 9.46909e-21)
(-0.189632 -0.0300852 0)
(-0.22565 -0.0311886 -9.85425e-20)
(1.18691 0.0548516 5.5918e-20)
(1.00093 -0.0422995 0)
(-0.285596 -0.000509972 -1.04438e-20)
(1.10558 0.0648693 2.60324e-20)
(1.04617 -0.0952437 -6.98119e-21)
(-0.354334 -0.0303881 1.17619e-19)
(1.02877 -0.00543182 8.45902e-21)
(0.837346 -0.0018029 0)
(1.01096 -0.0264882 2.00773e-21)
(1.03916 -0.0514927 -1.01578e-20)
(1.40677 -0.117234 -1.51208e-19)
(1.19432 -0.0989108 5.67685e-20)
(-0.159589 0.0133131 0)
(-0.264103 0.00262428 0)
(-0.1817 -0.0347137 4.81244e-20)
(1.07699 -0.11556 -3.47272e-20)
(0.10952 0.0228195 1.25937e-20)
(0.994424 -0.0252269 1.01847e-20)
(-0.155358 -0.0353324 0)
(0.974232 -0.0336818 0)
(1.07281 0.0377478 0)
(-0.324676 -0.020358 -2.75399e-19)
(-0.205661 -0.0335233 1.08056e-19)
(-0.218698 -0.00994566 3.87571e-20)
(1.13678 -0.522809 5.99497e-20)
(1.01909 -0.0335946 5.51292e-21)
(1.09237 0.164598 6.89526e-22)
(-0.390977 -0.0152688 1.3805e-19)
(1.3093 -0.247678 0)
(1.09374 0.167556 -5.08628e-20)
(0.819313 -0.172044 3.2656e-20)
(0.822769 -0.2072 -3.21153e-20)
(0.996927 -0.0459378 -1.48772e-21)
(1.02942 -0.028476 -1.75584e-20)
(1.19862 0.0274135 1.32236e-19)
(1.02839 -0.0283635 -9.6856e-21)
(-0.208397 -0.032861 0)
(1.07353 0.0364868 -1.89332e-20)
(1.04992 -0.018765 7.29419e-21)
(1.06252 -0.16447 0)
(1.02597 -0.0302387 -1.27878e-20)
(1.34078 0.00109129 0)
(1.24991 -0.0374319 -1.13774e-19)
(1.1652 0.163544 0)
(1.09117 0.0629305 2.6979e-20)
(1.02073 -0.0098071 -8.81705e-21)
(1.01891 -0.00102725 -5.0559e-21)
(-0.221797 -0.0263589 0)
(-0.161293 -0.0326949 0)
(1.17239 -0.438893 -4.89624e-20)
(1.04128 -0.0164284 -2.37458e-20)
(1.03133 -0.0531348 4.27339e-21)
(-0.148883 0.0243788 -3.18268e-20)
(1.29914 0.134225 0)
(0.623686 -0.277775 0)
(1.01958 -0.0329809 -3.15965e-21)
(1.19839 -0.186749 4.0597e-20)
(-0.0207577 0.0519472 0)
(1.16484 0.0677294 0)
(1.06851 -0.117355 0)
(1.15193 -0.0712157 2.8592e-20)
(0.934208 -0.134965 -1.60832e-23)
(0.114451 0.0772908 3.89666e-20)
(1.25183 -0.115138 0)
(-0.221852 -0.0105842 -2.03841e-19)
(0.712309 -0.179281 0)
(-0.195074 -0.033659 0)
(0.856097 -0.138149 0)
(1.1556 0.0726026 6.68508e-22)
(1.39742 -0.121531 1.08685e-19)
(0.984937 -0.0691495 0)
(0.993708 -0.0257404 -1.18755e-20)
(0.761067 -0.382461 1.52121e-20)
(0.751792 0.0316757 1.22826e-19)
(1.02901 -0.0954634 5.72513e-21)
(1.0283 -0.00495359 -2.02752e-21)
(-0.196977 -0.0339784 -2.17473e-19)
(0.124574 0.0535694 2.29327e-20)
(1.2052 -0.189755 5.13927e-20)
(1.09719 0.167788 -2.54605e-20)
(1.33752 -0.00397988 0)
(1.25636 -0.0360814 0)
(1.32018 0.103469 1.28386e-19)
(0.977021 -0.0451341 -3.83136e-21)
(0.985252 -0.0258707 0)
(1.00272 -0.0106873 6.49519e-22)
(-0.18668 -0.0175641 0)
(1.15289 0.0652471 -8.85357e-20)
(1.08075 0.0227667 -2.48194e-20)
(1.00023 -0.000782733 -1.50404e-21)
(0.340184 0.088114 0)
(1.19368 0.0285674 -1.30114e-19)
(1.10798 0.165232 5.58968e-20)
(-0.141287 0.0110031 -5.70763e-20)
(0.206532 0.0896369 1.29049e-20)
(0.218173 0.0932246 0)
(-0.394775 -0.0187361 6.78347e-21)
(1.06278 -0.15839 -1.14106e-20)
(0.380972 0.0732603 5.93255e-20)
(1.00237 -0.0121182 3.07405e-22)
(1.02053 -0.00929058 7.01425e-21)
(1.22517 0.0220791 -7.11672e-20)
(1.00167 -0.000640315 3.84333e-21)
(-0.195711 -0.0059642 1.97172e-20)
(1.19425 0.217657 7.7884e-20)
(1.11663 0.17764 0)
(1.02124 -0.00909778 8.32215e-21)
(1.10139 0.0665957 -2.44989e-20)
(1.11457 0.174583 -5.37504e-21)
(1.28949 0.133426 6.95982e-21)
(1.15984 -0.545109 -4.86717e-20)
(1.06877 -0.149052 1.27966e-20)
(1.16095 0.0675322 0)
(-0.279365 -0.0204793 7.58972e-20)
(0.135995 0.055444 -2.65955e-20)
(1.19123 0.157609 1.57934e-20)
(0.896601 -0.109016 -1.45779e-20)
(0.981911 -0.0446803 0)
(1.02881 -0.0202721 0)
(0.855092 0.0340456 -1.22393e-19)
(1.15477 0.06319 -2.14967e-20)
(-0.16811 0.00608064 0)
(1.12517 -0.0298337 0)
(1.0307 -0.0925559 -4.73195e-21)
(1.08755 0.161836 0)
(1.18707 0.155468 0)
(1.06265 -0.00337936 2.02187e-20)
(1.06183 -0.0291754 4.32242e-21)
(0.717782 -0.224566 0)
(1.39427 -0.138158 7.31965e-20)
(-0.186297 0.00383254 0)
(-0.0939416 0.0319874 0)
(1.14244 0.0544286 -8.4958e-21)
(0.984371 -0.826436 -1.27349e-20)
(-0.215717 0.00195177 4.14572e-20)
(0.940084 -0.0523177 0)
(1.13811 0.0833217 0)
(0.0856616 0.0666253 0)
(1.11641 -0.0458974 -9.40448e-21)
(1.07607 0.156293 0)
(1.03022 -0.0521855 -9.77571e-21)
(1.40412 -0.133534 -1.50562e-19)
(1.00027 -0.00371788 0)
(1.20491 -0.0857372 1.35965e-19)
(1.05219 -0.10442 0)
(0.985483 -0.0362936 0)
(1.23697 0.170409 0)
(1.06479 -0.0161365 0)
(0.178962 -0.638885 -4.58679e-20)
(1.02118 -0.00855026 0)
(1.22458 0.140234 0)
(-0.184799 0.00850737 7.72245e-21)
(-0.210732 -0.00963373 7.51029e-20)
(0.910544 -0.117561 2.54913e-20)
(1.13695 0.0852339 -1.20804e-20)
(1.00007 -0.00188001 1.95496e-22)
(0.763364 -0.359547 -3.94626e-20)
(1.00524 -0.0211507 0)
(1.19996 -0.0877858 -8.66421e-20)
(-0.100704 -0.0401619 1.06001e-19)
(0.902807 -0.109157 0)
(1.11574 -0.0428167 0)
(0.996271 -0.0090783 -1.46445e-22)
(-0.107404 0.0302457 0)
(1.03051 -0.0132527 0)
(0.695429 -0.381079 0)
(-0.112236 0.0270113 -6.34852e-20)
(1.29997 -0.240755 0)
(1.00016 -0.000750331 0)
(1.40317 -0.404644 1.23802e-19)
(-0.254397 0.00221166 -1.5579e-19)
(0.402277 0.111014 -1.24895e-20)
(1.07854 0.156246 -8.07349e-21)
(1.1567 0.0115523 -9.53798e-20)
(0.723664 -0.417458 4.35252e-20)
(1.24094 0.165944 5.56505e-20)
(1.09987 0.0684667 -1.84058e-20)
(1.14032 -0.502737 0)
(1.08681 -0.165336 -1.95698e-20)
(0.0193042 0.016423 -3.44699e-20)
(1.27102 0.10089 -1.58511e-19)
(1.01453 -0.00104887 7.6879e-21)
(1.11825 0.00318263 3.70757e-20)
(1.0892 0.164971 4.06726e-20)
(0.328225 0.0834088 -7.26877e-21)
(0.226525 0.0338884 3.76189e-20)
(1.02802 -0.0194099 -6.22888e-21)
(0.598712 -0.274244 3.15974e-20)
(0.995531 -0.0257888 7.89007e-23)
(1.19819 0.180448 7.5126e-20)
(1.30462 0.122532 -1.07097e-19)
(1.12097 0.00461196 2.89333e-20)
(1.19361 0.0346147 -1.27827e-19)
(1.27765 0.100479 1.61676e-19)
(1.00685 -0.0379089 7.12571e-22)
(0.815363 -0.182961 0)
(1.11403 0.156839 0)
(0.991724 0.161258 -6.56312e-20)
(0.999378 -0.0167127 0)
(0.98505 -0.0352327 -2.77298e-21)
(0.904526 -0.116779 0)
(0.179997 0.090494 0)
(-0.263372 -0.0224471 -3.15815e-19)
(1.17438 0.0556294 0)
(1.04281 -0.0168448 9.47761e-21)
(1.28848 0.140941 2.48493e-19)
(1.31224 0.113239 -3.87884e-21)
(1.17225 0.152406 5.12564e-20)
(1.18994 0.0356676 1.12218e-19)
(0.148079 0.0822366 0)
(-0.369441 -0.0114602 0)
(1.12832 -0.00747667 5.52193e-20)
(1.13705 0.0470386 -5.61326e-20)
(0.715661 -0.124211 1.36994e-19)
(1.03181 -0.026704 -1.93541e-20)
(1.00282 -0.0100306 4.59904e-23)
(1.17671 0.15426 -6.63762e-20)
(1.22306 -0.140257 5.36508e-20)
(1.0323 -0.0131053 1.26342e-20)
(1.0003 -0.00360879 -8.24041e-23)
(1.00512 -0.0218276 0)
(1.00636 -0.000914635 1.71844e-22)
(1.1493 0.0257179 3.31671e-20)
(1.00299 -0.0107318 -1.16893e-21)
(0.109026 0.0700716 -6.80658e-20)
(1.17231 0.0485309 -5.1869e-20)
(1.02387 -0.0440489 0)
(0.340035 0.0834105 2.1154e-23)
(-0.161698 0.0214418 0)
(0.978395 -0.0394547 0)
(1.22216 0.145101 0)
(-0.40743 -0.0177945 2.46104e-19)
(0.984119 -0.0720986 0)
(0.976751 -0.0392416 4.10082e-21)
(1.17684 0.0484136 0)
(-0.194205 0.00604804 -1.59722e-20)
(0.0175491 -0.0328708 -2.15917e-19)
(1.22702 0.0449176 -4.52394e-20)
(1.00347 -0.000883694 0)
(0.417469 0.0795307 -1.03478e-19)
(1.00263 -0.0128142 5.9259e-23)
(1.23754 0.0443391 4.89542e-20)
(-0.386688 -0.0162702 -2.23304e-19)
(1.01015 0.166703 0)
(1.07911 0.0217562 0)
(0.844088 -0.156738 -1.4437e-19)
(1.24045 -0.192971 1.07242e-19)
(-0.193309 -0.032613 0)
(1.33868 -0.0173662 -1.16139e-19)
(0.786735 -0.152248 -4.07514e-20)
(-0.183855 -0.00934506 4.17133e-20)
(-0.107557 0.0348375 4.69949e-20)
(0.915682 0.136873 -1.31744e-21)
(1.0639 -0.0298932 0)
(-0.305268 -0.0284732 1.30654e-19)
(0.0391905 0.0110828 -2.74671e-20)
(0.477419 -0.540276 -3.34337e-20)
(0.511746 -0.544923 -5.06675e-21)
(0.938951 -0.0537859 1.02101e-20)
(1.23182 0.0306472 -8.5779e-20)
(0.966938 -0.157883 -1.86089e-20)
(0.120886 0.0248259 4.13867e-20)
(0.796132 -0.201938 -3.41309e-20)
(1.01172 -0.00257735 -8.08624e-21)
(1.02286 0.000757607 -6.19384e-21)
(1.11238 -0.0968696 0)
(-0.21394 -0.0341516 0)
(0.231056 -0.643081 3.97989e-20)
(1.03161 -0.0255719 8.31998e-21)
(-0.225989 -0.0102795 0)
(0.954387 -0.156365 -1.08799e-20)
(1.15335 -0.0754176 0)
(1.08068 0.0243479 2.69196e-20)
(-0.206846 0.00218233 0)
(1.28161 0.141133 -2.18061e-19)
(1.08428 0.161973 0)
(1.04885 -0.102021 2.58662e-21)
(1.11176 -0.0421576 -3.20771e-20)
(0.444923 0.0948235 1.66252e-21)
(0.982178 -0.0465044 0)
(1.32279 0.110872 0)
(1.12568 -0.00590135 -4.20749e-20)
(1.17935 0.0460992 5.27363e-20)
(0.948311 -0.159285 0)
(0.994874 -0.0261227 0)
(1.02474 -0.0431505 -4.44946e-21)
(1.34089 -0.107401 -2.6459e-20)
(1.31985 -0.243336 0)
(1.2645 0.10882 1.64837e-19)
(1.05415 -0.161128 1.25292e-19)
(0.454701 0.0981358 0)
(1.03096 -0.0970321 -1.39764e-20)
(-0.127535 0.0262651 8.47202e-21)
(1.20216 0.189095 0)
(1.03727 -0.00618257 1.40119e-20)
(0.973561 0.166757 0)
(1.21048 0.112625 -4.23483e-20)
(-0.372798 -0.0131618 -9.26101e-20)
(1.10925 -0.0937787 0)
(1.08304 0.124258 -3.21059e-20)
(1.0971 0.200307 -2.77392e-20)
(0.832584 -0.065637 0)
(1.33353 -0.121096 -4.88995e-20)
(0.102242 0.0252874 2.37428e-20)
(1.07161 -0.044087 8.47662e-21)
(1.1917 0.220613 -1.2049e-19)
(-0.352485 -0.0246643 -2.74446e-19)
(1.15098 -0.00917219 -3.08317e-20)
(0.0397537 0.0234735 0)
(1.16261 -0.0110897 -1.27506e-19)
(-0.086577 0.0272327 9.28336e-20)
(1.13593 0.0447214 -1.68953e-20)
(1.08598 0.0883481 -2.89427e-20)
(1.28219 0.0889965 0)
(1.35145 -0.217399 1.79099e-19)
(0.985678 -0.026838 2.9537e-22)
(1.12529 -0.0164124 5.35513e-20)
(1.2288 -0.144264 -1.38816e-20)
(1.10416 0.0669748 3.0057e-20)
(1.02329 -0.0333252 -7.4893e-22)
(1.17355 0.0593935 0)
(0.386438 0.120258 -2.63826e-21)
(1.00176 -0.0419951 0)
(1.14154 0.0818082 0)
(-0.228747 -0.0271069 0)
(1.10112 -0.0400099 0)
(1.24296 -0.536522 2.82426e-20)
(1.1063 0.0926949 1.26526e-21)
(0.051194 -0.03197 1.3337e-19)
(1.12036 -0.0476054 -1.95869e-20)
(1.09593 0.119018 2.63857e-20)
(0.95009 -0.793739 0)
(1.30817 0.127743 1.32473e-19)
(1.1999 0.0179255 1.14148e-19)
(0.203821 0.0278458 -3.29931e-20)
(-0.278348 -0.00135472 1.5248e-19)
(1.38707 -0.413711 -4.46914e-20)
(1.00596 -0.0382152 -1.48802e-21)
(1.33655 -0.102115 0)
(1.16582 -0.0216435 0)
(1.08574 0.123538 -1.03684e-20)
(1.03992 -0.0192846 -4.4261e-21)
(-0.260729 -0.0180173 0)
(0.318855 0.102699 0)
(0.793028 -0.0365681 2.56346e-19)
(1.11076 -0.0393298 2.29086e-20)
(1.2827 0.0936909 0)
(1.15456 0.213504 3.2147e-20)
(-0.252064 -0.0239016 2.83767e-19)
(1.03065 -0.000327434 1.1348e-20)
(-0.33761 -0.0252788 -1.47704e-19)
(1.36918 -0.201871 -6.41859e-20)
(0.134254 -0.112931 -1.37307e-19)
(1.09261 -0.168501 0)
(0.836231 0.0942306 -1.27346e-19)
(0.991377 -0.0333044 4.02401e-21)
(1.00194 -0.000548277 -4.2945e-21)
(-0.0668063 0.0135893 -2.26836e-20)
(1.1645 0.214602 -4.40535e-20)
(0.992077 -0.0217077 0)
(1.10541 -0.0165845 -4.0478e-20)
(1.14494 0.0825417 0)
(1.01866 -0.0109721 -1.46531e-22)
(0.389904 0.111879 -9.94575e-20)
(1.23205 0.035669 9.65554e-20)
(1.21119 0.109397 0)
(1.10415 0.025388 5.45244e-22)
(1.07223 -0.0422872 1.2526e-20)
(0.972909 -0.0280661 1.5944e-20)
(0.909162 -0.077546 3.19817e-20)
(1.02217 -0.0433018 -7.85773e-21)
(0.973723 -0.0266239 0)
(0.831928 0.171579 1.23978e-20)
(0.418681 0.121678 0)
(1.06412 -0.114665 0)
(1.09512 0.195864 0)
(0.995927 -0.011192 6.81734e-21)
(1.00306 -0.0100713 0)
(1.10466 -0.0408364 -2.48224e-20)
(1.26966 0.108663 -1.81119e-19)
(1.09864 0.0936104 -2.29343e-20)
(1.0236 -0.0353754 2.84214e-21)
(1.08339 -0.0292424 1.58154e-20)
(1.17421 -0.426658 -5.0386e-20)
(1.09104 -0.00760813 -1.70788e-20)
(0.0753179 -0.0381419 0)
(1.00326 -0.0126243 0)
(1.09822 0.0451757 -8.5687e-21)
(0.368104 0.105448 -2.23205e-22)
(0.961852 -0.208409 9.6008e-21)
(1.02323 -0.000152491 -6.42944e-21)
(1.00169 -0.0116143 6.74971e-22)
(1.10404 0.0235732 -4.14173e-21)
(1.06625 -0.000766781 2.20381e-20)
(1.34984 -0.466804 -5.44242e-20)
(0.749677 0.15926 -2.56374e-20)
(1.15802 0.0145144 7.3071e-20)
(0.355524 -1.23884 -9.69264e-20)
(1.10684 -0.0383523 0)
(1.00272 -0.0179809 1.72149e-22)
(0.025724 0.0611808 5.01393e-20)
(1.10019 0.200492 2.84953e-20)
(0.891048 -0.172225 -3.40633e-20)
(1.00431 -0.0463626 0)
(-0.119204 0.0320798 -5.8229e-20)
(0.866667 -0.14299 0)
(1.13517 -0.683395 0)
(0.995912 -0.0450798 0)
(1.15553 -0.0630736 -9.93563e-22)
(1.34007 -0.11723 0)
(1.11714 0.0663999 -7.18503e-21)
(-0.0735943 0.0421793 5.94009e-21)
(1.15225 0.214979 -8.85331e-20)
(0.868744 -0.0462483 -2.21793e-19)
(0.992372 -0.0993411 -8.00753e-21)
(1.34207 -0.0119201 1.2955e-19)
(1.0086 -0.0391308 2.67645e-22)
(0.309032 0.0832393 -1.07383e-21)
(1.10815 0.0914848 0)
(1.18365 0.156621 0)
(1.16307 -0.0188128 1.65089e-20)
(1.04901 -0.0978752 -1.30499e-20)
(0.969114 -0.204735 0)
(1.22591 0.0281721 0)
(1.0028 -0.000817129 2.3682e-21)
(-0.286241 -0.0234851 0)
(-0.00483552 0.0546535 -5.45851e-20)
(0.0986934 -0.0388549 -8.09754e-20)
(-0.187977 -0.0172366 0)
(0.768219 0.163638 5.88418e-20)
(-0.343378 -0.0231631 5.55991e-20)
(1.31542 0.119656 0)
(0.923262 -0.119975 -1.97464e-20)
(0.999938 -0.00626935 8.80178e-23)
(1.09311 -0.481613 -3.05148e-20)
(0.992486 -0.0199146 -7.55393e-21)
(1.02266 -0.0325141 0)
(0.91896 -0.139267 -1.24888e-20)
(-0.17935 -0.00321226 -2.76672e-20)
(1.09939 -0.00433887 0)
(0.97891 -0.0647314 9.14891e-21)
(1.12821 -0.345855 -2.89514e-21)
(1.21254 -0.0192566 7.97999e-20)
(0.98936 -0.015987 -1.52329e-20)
(0.306962 0.00449417 -1.71644e-19)
(1.01714 -0.0326797 0)
(0.0267671 0.0612591 5.02735e-20)
(1.34872 -0.451645 8.78584e-20)
(1.0117 -0.027171 -3.12684e-21)
(1.08823 0.00756014 0)
(1.38168 -0.169633 -1.61956e-19)
(0.955436 0.161505 0)
(1.03159 -0.0136975 0)
(0.560592 -0.0718164 -6.94777e-20)
(0.823658 -0.34638 -7.14936e-20)
(1.03983 0.00306997 1.83569e-20)
(-0.184741 -0.0257218 0)
(1.35606 0.105787 -1.37243e-19)
(1.23255 0.134939 7.47783e-20)
(0.990276 -0.0975085 -3.69354e-22)
(0.846875 0.175764 -2.46259e-20)
(-0.32244 -0.00566043 0)
(1.04089 0.00300947 0)
(1.38419 0.0190391 0)
(1.03422 -0.0520689 -7.20577e-21)
(1.01794 -0.0333039 -3.01917e-21)
(0.936434 0.171579 -1.24076e-21)
(-0.0833309 0.0276513 1.12312e-19)
(1.1852 -0.0185073 -9.94953e-20)
(1.09655 0.0923715 3.51074e-20)
(0.991541 -0.0188239 0)
(1.11175 0.110863 0)
(0.0103506 0.0576372 0)
(-0.195221 -0.014035 -1.93033e-19)
(1.04677 -0.000308007 -5.63486e-21)
(-0.371242 -0.0241539 0)
(1.02289 -0.0346574 -2.95087e-21)
(1.03607 -0.0526862 4.98885e-21)
(1.20131 0.0215709 -1.38622e-19)
(1.08962 0.0509588 -2.11152e-20)
(1.03074 0.000176844 0)
(1.04252 -0.0958797 1.19386e-20)
(-0.176195 -0.0253349 1.85761e-19)
(1.34621 -0.213288 -2.1475e-19)
(-0.198652 -0.0255752 0)
(1.09632 -0.00571541 0)
(0.995972 -0.0265567 -4.72811e-21)
(0.210689 0.0942754 -3.07411e-20)
(0.999939 -0.0084359 0)
(1.33984 -0.0876506 0)
(1.10745 0.0373163 1.34165e-20)
(1.10997 0.0627206 -5.52114e-20)
(1.15904 0.00432555 -6.63259e-20)
(0.49906 0.127962 0)
(-0.352148 -0.00925748 0)
(1.12303 -0.023426 0)
(-0.328261 -0.0258921 0)
(1.07839 0.0179719 -2.62941e-20)
(1.24282 0.00697471 0)
(0.370425 0.0996451 2.45572e-20)
(-0.03045 0.0278573 0)
(1.02648 -0.0545352 -7.72329e-21)
(1.00768 -0.0393065 -8.59437e-22)
(0.831068 -0.216154 0)
(-0.194019 -0.0245294 -2.15093e-19)
(1.07464 0.180898 -4.42709e-20)
(1.10952 0.109369 1.16058e-20)
(0.963018 -0.558296 -1.79161e-19)
(1.08881 0.0522035 4.90445e-20)
(1.13211 0.0451414 0)
(-0.0524722 -0.044014 -1.06919e-19)
(0.264568 -0.00305244 -1.38943e-19)
(1.14336 -0.414249 1.34103e-20)
(0.0120907 0.0588009 -5.32772e-20)
(1.15891 0.186094 -7.41893e-20)
(0.451857 0.103369 -1.4603e-20)
(1.06559 -0.0433668 2.3964e-20)
(1.10269 0.205253 0)
(0.942079 0.0990382 0)
(1.00186 -0.0160902 -4.43062e-22)
(-0.460776 -0.0246305 1.66193e-20)
(0.132332 0.0209707 9.99653e-20)
(1.06899 -0.155693 0)
(1.1595 0.0718678 -4.70568e-20)
(1.01352 -0.0511148 3.92447e-23)
(0.481264 -0.942778 0)
(1.21686 -0.232903 0)
(0.30182 -0.128048 2.36717e-19)
(1.0215 -0.044198 4.12839e-21)
(1.00117 -0.000760383 1.68783e-21)
(0.916369 -0.0852281 0)
(1.2104 -0.0237663 -7.36221e-20)
(1.00324 -0.0121069 0)
(-0.203712 -0.00533308 -4.2125e-20)
(1.00137 -0.000902804 0)
(1.16187 0.184135 6.80597e-20)
(0.984191 -0.0967562 -1.65742e-20)
(1.08728 0.125582 -1.80545e-22)
(0.997917 -0.0450805 0)
(0.988647 -0.0164183 -9.69616e-21)
(1.15008 -0.198967 2.34487e-20)
(-0.370966 -0.0260532 0)
(1.20292 0.00912323 0)
(-0.235435 -0.010866 4.29345e-22)
(1.1563 -0.0675514 -9.32216e-21)
(1.01912 -0.0123292 1.41526e-20)
(1.0421 -0.0086757 -1.91362e-20)
(1.22981 0.0189927 8.60733e-20)
(1.08202 -0.031006 0)
(1.29764 -0.0149288 5.15013e-20)
(1.10649 -0.0061973 8.32778e-20)
(0.890156 -0.163793 3.43262e-20)
(1.09731 0.200976 -5.16771e-20)
(0.99979 -0.00828997 9.66982e-21)
(0.242683 0.0283089 -1.57741e-20)
(1.00015 -0.00253512 3.45353e-22)
(1.08008 0.138636 0)
(-0.312978 -0.025249 1.41817e-19)
(0.297998 0.101778 2.37988e-20)
(0.884135 -0.0695465 8.63804e-21)
(0.485839 -0.195376 -1.64863e-19)
(1.1148 -0.344919 2.66644e-21)
(1.31092 -0.306237 6.0249e-20)
(0.111168 0.0202259 -1.35513e-19)
(1.0505 -0.000970728 3.80916e-20)
(0.236216 -0.00123201 1.7097e-19)
(0.961093 -0.161247 2.34042e-20)
(1.15519 -0.00870541 0)
(-0.180258 -0.0195063 0)
(1.02583 0.030323 2.2672e-21)
(1.03807 -0.00671021 -2.05335e-20)
(1.29366 -0.0187579 0)
(1.06134 -0.00245412 1.5326e-20)
(0.411562 0.0943567 0)
(-0.412007 -0.0234599 6.5585e-20)
(1.04305 -0.0531365 0)
(0.698861 -0.213957 -4.02691e-20)
(0.364872 0.100957 -9.49309e-20)
(1.00004 -0.0023727 3.87688e-22)
(1.00006 -0.00315907 -2.24596e-21)
(1.09345 0.122733 1.46085e-20)
(0.222247 0.0235091 2.04077e-20)
(0.925305 0.189141 -3.05526e-20)
(0.976626 -0.0376546 0)
(1.28901 0.079389 4.2663e-20)
(1.08844 -0.00808331 1.68463e-20)
(0.98773 -0.0181751 -4.01689e-21)
(1.09278 0.199685 0)
(1.28901 0.0848455 0)
(1.31402 -0.22466 1.51014e-19)
(1.02873 -0.000187313 -4.78407e-21)
(1.11739 0.156611 -2.51622e-20)
(0.930345 -0.264361 0)
(1.09415 0.113756 0)
(0.96024 -0.0451249 1.60121e-20)
(1.02855 -0.0895728 4.95621e-21)
(1.20702 -0.232402 1.58609e-21)
(0.920864 -0.0855926 -3.33786e-20)
(1.10964 0.161076 0)
(1.18219 0.0563328 4.13414e-20)
(1.18802 0.0505303 9.62776e-22)
(1.12969 -0.399063 -1.19669e-20)
(1.23017 -0.776334 8.13798e-20)
(1.36399 0.0954023 8.08712e-20)
(0.529019 0.148278 -6.2719e-20)
(0.650912 -0.0726522 6.20575e-20)
(1.09979 0.166014 3.26525e-20)
(-0.112692 0.0222673 -1.00721e-19)
(1.06235 -0.221307 -8.43544e-21)
(0.903437 0.168268 -2.66185e-21)
(1.23047 0.140184 -9.34036e-20)
(1.04702 -0.0218122 0)
(1.13044 0.0425383 -3.17823e-20)
(1.34017 0.0912063 0)
(1.09609 -0.106346 0)
(1.01081 -0.0255107 0)
(1.01115 -0.0240015 -2.7288e-21)
(1.08459 0.140367 2.73327e-20)
(0.0972917 0.0217482 -1.97982e-20)
(1.10072 0.045628 -1.86627e-20)
(-0.142908 0.0218047 1.56578e-19)
(1.01898 -0.0128713 -6.07529e-21)
(0.888199 0.18543 0)
(1.04349 -0.447557 -2.88102e-21)
(-0.412872 -0.0185469 2.60722e-19)
(1.29367 -0.027739 1.56957e-19)
(1.12358 -0.0463491 -1.60282e-20)
(1.10299 -0.010367 3.33922e-21)
(-0.397066 -0.0166849 -1.80452e-19)
(1.31754 -0.217994 -6.26101e-20)
(1.06238 -0.212994 0)
(1.16282 0.217031 4.77035e-20)
(1.07001 -0.0397735 1.50513e-21)
(1.15078 -0.450889 0)
(1.08199 0.140715 -2.9187e-20)
(1.16691 0.184546 6.92657e-20)
(1.1625 -0.0377283 -1.70371e-20)
(1.41148 -0.192334 -8.54842e-20)
(0.992251 -0.033525 8.62849e-21)
(1.00018 -0.00299721 -3.75168e-22)
(0.943458 -0.0510579 -9.59895e-21)
(0.987303 -0.0193491 1.66435e-20)
(0.343218 0.0961358 -9.02668e-21)
(1.006 -0.00111746 -3.29e-21)
(1.08544 0.194857 0)
(0.172375 0.0876462 0)
(1.29881 -0.0304683 -1.46699e-19)
(-0.185043 -0.0115916 0)
(-0.376985 -0.0136667 0)
(1.17151 0.187131 -3.65423e-20)
(1.32293 -0.302322 3.76279e-20)
(0.887966 -0.0766227 -7.30125e-21)
(0.998568 -0.00551986 7.52089e-22)
(0.986189 -0.0338392 0)
(1.02753 -0.00594774 0)
(1.04119 -0.0089974 1.83032e-20)
(1.0016 -0.0008363 0)
(1.24023 0.0181561 -4.8922e-20)
(1.33197 0.0127272 0)
(0.9276 -0.277441 0)
(0.946278 0.144319 -2.5546e-21)
(1.04757 -0.0812724 -2.39602e-21)
(0.0794195 0.0636838 3.45618e-20)
(0.999936 -0.000474101 -1.24589e-20)
(-0.18456 -0.0299236 0)
(1.18348 -0.106483 6.0927e-20)
(0.999834 -0.000986721 1.4176e-20)
(0.997044 -0.00855314 7.03252e-21)
(0.271825 0.0992855 -5.89694e-21)
(1.12515 -0.0357665 0)
(0.881105 0.19566 0)
(0.147818 0.0222248 -1.73951e-20)
(1.15293 0.0703019 3.16586e-20)
(1.1995 0.0849813 0)
(1.03874 0.00411266 0)
(0.0921903 0.0725317 -1.34991e-19)
(1.0047 -0.110517 -5.71731e-21)
(1.10141 -0.00596674 -1.33375e-20)
(1.0951 0.200878 5.55916e-20)
(0.998669 -0.00597453 1.12887e-20)
(0.983199 -0.0673497 3.4088e-21)
(1.04896 -0.00836479 -1.37868e-20)
(1.11328 0.0903661 -3.51831e-20)
(0.0555264 0.0208129 0)
(1.14276 -0.063345 2.5975e-20)
(1.1635 -0.0293604 -6.67798e-23)
(1.37621 -0.211955 0)
(-0.220277 -0.0155139 1.75884e-19)
(0.89323 -0.0999613 8.69111e-20)
(1.01112 -0.13833 0)
(0.419033 0.103982 1.87295e-21)
(1.02689 -0.00577305 0)
(0.409152 0.100633 3.37718e-21)
(1.00065 -0.00193643 3.13913e-21)
(1.09137 -0.00492082 9.33265e-21)
(0.858433 0.00521403 1.33343e-19)
(1.14147 0.131965 -5.75704e-20)
(1.16882 0.160782 6.41422e-21)
(1.28716 -0.117617 -1.28343e-19)
(1.20424 0.0134254 0)
(0.99957 -0.00408218 -4.83096e-21)
(0.999968 -0.000445811 9.11495e-21)
(1.24923 0.00844434 -5.50002e-20)
(1.06764 -0.0428003 0)
(0.999645 -0.0034955 -2.83042e-21)
(1.09622 0.051795 3.94278e-20)
(1.35247 -0.259166 -1.57125e-19)
(1.00744 -0.0080796 -6.50032e-21)
(1.29519 -0.322441 7.38606e-20)
(1.29235 -0.534818 0)
(0.950414 0.200637 1.79909e-20)
(1.2856 -0.110939 4.56816e-20)
(-0.119052 -0.0392764 0)
(0.846748 -0.142354 -4.69896e-20)
(0.998441 -0.00610136 -1.23345e-20)
(1.32941 -0.13667 4.9087e-20)
(1.01836 -0.0136472 -6.95976e-21)
(1.12585 -0.013218 5.36545e-21)
(0.582628 0.158666 5.3552e-20)
(0.472622 0.0975032 0)
(0.227131 -0.00176785 1.44487e-19)
(0.466195 0.113868 -1.67551e-20)
(1.04808 -0.0527402 -9.34112e-21)
(1.04269 -0.0520898 7.35097e-21)
(1.01636 -0.34221 8.87722e-21)
(1.02362 -0.0870486 0)
(1.03383 -0.022693 -1.23579e-22)
(0.361941 -0.223576 3.05382e-20)
(1.19403 0.184179 -8.46846e-20)
(0.0176722 0.0257436 -4.20148e-20)
(1.07784 0.139082 0)
(1.14442 0.133478 9.0225e-20)
(0.986224 -0.0219522 -1.15961e-20)
(1.02958 -0.0143933 -6.73177e-21)
(1.12792 -0.319525 1.37558e-19)
(1.2153 0.106052 1.1471e-19)
(1.09445 -0.00393326 1.10747e-20)
(0.99978 -0.00219331 0)
(1.16115 0.162605 0)
(1.35276 -0.0371209 1.98558e-21)
(-0.131579 0.022058 -6.99155e-20)
(0.976749 -0.042899 3.72315e-21)
(1.00162 -0.00537902 -7.15826e-23)
(0.0364521 0.0164833 -1.80994e-20)
(0.960982 -0.0433794 8.14292e-22)
(1.1609 -0.00345598 -2.76687e-20)
(1.01805 -0.0103907 -5.55547e-21)
(-0.166047 -0.00138603 0)
(1.0139 -0.000630747 0)
(-0.309378 -0.0294221 -1.14918e-19)
(0.995875 -0.0160997 1.99184e-21)
(1.28907 -0.24495 0)
(1.16633 0.0339712 1.07969e-20)
(0.989901 -0.347213 -2.24886e-21)
(1.16533 -0.0347465 0)
(0.999942 -0.0413146 0)
(1.10563 -0.0209095 0)
(1.00527 -0.00592469 0)
(1.07667 0.189737 0)
(0.966169 -0.0524482 -1.21064e-20)
(0.247143 0.0412212 -1.84945e-20)
(1.07279 -0.0378608 0)
(0.827586 0.181112 -2.87639e-20)
(0.072519 0.0702934 5.17977e-20)
(1.15639 -0.0453903 -2.38738e-22)
(1.00604 -0.00416577 0)
(-0.206021 -0.0302548 -2.05232e-19)
(0.737034 0.161761 -1.75944e-20)
(1.1266 -0.0226883 0)
(1.13738 0.132076 0)
(0.985931 -0.032826 2.74797e-21)
(0.163484 0.0239146 0)
(1.04838 -0.0223966 0)
(1.34183 0.0851375 0)
(1.00144 -0.0178782 2.32225e-21)
(1.0057 -0.00614955 0)
(0.928992 0.204647 1.0349e-20)
(1.15996 0.00759588 1.1762e-19)
(1.0019 -0.0123912 1.08064e-22)
(1.09356 0.0665118 -2.12307e-20)
(-0.0809681 0.03722 -1.53329e-20)
(0.743638 -0.895186 2.97032e-20)
(0.315426 0.093676 1.31996e-19)
(1.02691 -0.0196559 0)
(-0.0925557 0.0270261 3.13385e-20)
(0.999327 -0.0175735 0)
(1.00712 -0.00764477 2.85717e-21)
(0.978789 -0.0457843 -1.15775e-20)
(1.02289 0.000798671 -1.69601e-20)
(1.00001 -0.00454997 -4.2004e-21)
(0.244498 0.0735134 0)
(0.529358 0.14944 -1.51928e-20)
(1.06587 -0.0174501 -1.23006e-20)
(1.00142 -0.00123959 4.59997e-21)
(1.18713 -0.0135892 2.35696e-20)
(1.02662 -0.0299942 1.20777e-20)
(-0.18062 -0.0337558 1.80082e-19)
(1.33607 -0.132148 -5.80863e-20)
(-0.133287 0.0160034 3.67205e-20)
(-0.171799 -0.00972035 0)
(1.10535 -0.0227088 1.71674e-20)
(1.11263 0.160921 4.40594e-20)
(1.00208 -0.0168881 1.74955e-21)
(1.16996 0.0410704 4.28873e-20)
(1.03706 -0.427604 0)
(1.0493 -0.000346427 -6.20728e-20)
(1.00056 -0.0019117 -1.75026e-21)
(1.38162 -0.376879 0)
(-0.402864 -0.0224401 -7.11843e-20)
(1.19508 0.0852112 0)
(-0.383273 -0.0275409 -9.15037e-20)
(1.15945 0.101998 0)
(0.996231 -0.0120423 1.23987e-20)
(1.19366 -0.0324611 0)
(1.13504 0.133641 -1.47711e-20)
(-0.398176 -0.0249441 1.50055e-19)
(1.14598 0.0233339 3.2347e-20)
(1.07401 0.216072 -3.91066e-20)
(1.22035 0.106666 -1.24823e-19)
(1.00046 -0.00400279 6.78746e-23)
(0.131587 -0.0773306 -5.94472e-20)
(0.0655278 -0.0561393 0)
(0.0920828 0.029934 -4.44698e-20)
(0.909912 0.0296839 1.15541e-19)
(0.951334 0.169363 -2.66859e-21)
(0.9958 -0.0996605 0)
(0.746419 -0.431474 -1.8818e-20)
(0.972656 -0.0250545 -1.8064e-20)
(1.13044 0.204938 -1.05835e-19)
(1.09417 -0.102113 3.07606e-20)
(1.01147 -0.00206757 3.82868e-21)
(0.261801 0.0834066 -1.48754e-20)
(1.04258 -0.080953 -2.46871e-21)
(1.0059 -0.00382561 0)
(1.02807 -0.0542786 1.02901e-20)
(1.04037 -0.0789792 6.69126e-21)
(-0.191037 -0.00354999 -1.03247e-20)
(1.33049 0.10119 -1.31265e-19)
(1.0192 -0.0196128 4.01094e-21)
(1.19671 -0.0280222 0)
(-0.178204 0.0115665 1.22939e-19)
(1.0643 -0.0705486 0)
(-0.39752 -0.0266161 0)
(0.965903 -0.0720357 0)
(1.15718 0.124105 -4.5625e-20)
(-0.113499 0.0195762 6.42889e-20)
(1.00282 -0.0112283 4.99585e-22)
(1.07051 0.183096 -2.49141e-20)
(1.10947 -0.121004 -2.69147e-20)
(1.16113 -0.0465204 0)
(0.694208 -0.924502 2.69797e-20)
(1.04552 -0.0795866 4.39043e-21)
(1.39955 -0.100901 0)
(1.09347 0.117096 0)
(-0.0397294 0.0437056 -4.6371e-20)
(1.0611 0.00644827 2.05398e-20)
(0.178497 0.0339137 -2.21065e-20)
(1.14937 -0.0133904 3.06694e-20)
(-0.185491 0.0151001 1.32706e-19)
(-0.414773 -0.0230356 0)
(0.154976 0.0259237 2.31829e-20)
(1.14741 0.0747986 6.14436e-21)
(0.996207 -0.0406075 -9.32506e-21)
(1.04756 -0.0544681 1.37738e-20)
(1 -0.0023851 -2.84743e-21)
(1.08568 0.0857678 0)
(0.997371 -0.0106258 -3.30614e-21)
(-0.0615498 0.0441916 0)
(1.06343 -0.145805 -1.87931e-20)
(0.938636 -0.127298 -4.01983e-20)
(0.895499 -0.0960026 -6.53163e-20)
(0.997928 -0.0977136 0)
(1.0262 -0.0189649 0)
(1.07816 0.0508427 2.9907e-20)
(1.10378 -0.102476 -2.24167e-21)
(1.08849 0.00554271 2.45272e-20)
(1.07859 -0.119987 4.00829e-20)
(0.0599879 0.0210996 1.93409e-20)
(1.0693 0.185009 0)
(1.14318 -9.90675e-05 -7.43755e-21)
(1.1761 -0.185266 0)
(0.288187 0.0848469 -6.41138e-21)
(0.980168 -0.0673841 -1.19434e-20)
(-0.20517 -0.03196 2.03988e-19)
(1.02617 -0.00601987 -8.92518e-21)
(1.06791 -0.175549 1.26148e-20)
(0.964002 -0.0515431 7.2643e-21)
(1.03769 -0.0347078 -9.42023e-21)
(1.13053 -0.203569 4.71337e-20)
(1.00261 -0.0186828 2.03978e-22)
(1.01947 -0.0190259 -6.69548e-21)
(0.795123 -0.163572 -3.82471e-20)
(0.984041 -0.0258977 0)