/*--------------------------------*- C++ -*----------------------------------*\
| =========                 |                                                 |
| \\      /  F ield         | OpenFOAM: The Open Source CFD Toolbox           |
|  \\    /   O peration     | Version:  v2012                                 |
|   \\  /    A nd           | Website:  www.openfoam.com                      |
|    \\/     M anipulation  |                                                 |
\*---------------------------------------------------------------------------*/
FoamFile
{
    version     2.0;
    format      ascii;
    class       surfaceScalarField;
    location    "50";
    object      meshPhi;
}
// * * * * * * * * * * * * * * * * * * * * * * * * * * * * * * * * * * * * * //

dimensions      [0 3 -1 0 0 0 0];
oriented        oriented;


internalField   nonuniform List<scalar> 
20580
(
0.000322076
-0.000179237
-0.000144127
-0.000432167
0.000421188
1.97071e-05
-0.000300326
-0.00012486
0.000500453
-0.000592813
9.25937e-05
8.87875e-05
9.96093e-05
-0.000121789
-0.000254133
0.000743326
-0.000478093
0.00108214
-0.00118074
2.91003e-05
0.000104658
-8.74104e-05
0.000177546
3.25206e-05
-0.000210078
-0.000497402
0.0029366
-0.00242384
0.000328508
-0.000828749
0.000506034
-0.000232017
-0.00138165
0.00164464
0.00244077
-0.000465662
-0.00196572
-4.03337e-05
-8.94682e-05
0.000130006
-7.18678e-05
-0.000270378
0.000342831
0.00070409
-5.56512e-05
-0.000652577
-0.000370139
0.00032721
4.26502e-05
-0.000601752
-9.33924e-05
0.000708836
-0.00018541
7.7121e-05
0.00010878
0.000112534
0.00020734
-0.000218894
0.000290422
-6.95884e-05
0.000384153
0.00123216
-0.00159623
-0.000673269
0.00038045
0.000293695
8.58821e-05
-4.99445e-06
-6.8044e-05
-0.00041342
0.000113833
0.000300536
0.00089735
-0.000724664
-0.000176226
0.000425815
-0.000169304
-0.000256627
0.00011108
-0.000104232
-6.75028e-06
0.000417818
-0.000323407
-9.4537e-05
-0.000130495
0.00089903
-0.000740149
1.53283e-05
0.000402592
-0.000417884
-0.000197463
0.0012632
-4.55185e-05
-0.00021499
0.000261632
-0.000162558
3.61792e-05
0.000126285
-0.000384656
-0.000328999
0.000716252
-0.000322463
0.000498973
-0.000175882
4.2949e-06
8.57841e-05
-0.000593954
0.000420769
0.000173944
0.000268318
-2.19581e-05
-0.000246196
0.00246914
-0.00181805
-0.000623249
7.11096e-05
1.52054e-05
-8.60571e-05
0.000281726
0.0001361
-0.000185811
-0.000203656
-0.00107061
0.00079634
0.000277531
0.00016662
0.000189714
-0.000356452
0.00010421
0.00152294
-0.00158858
-3.23182e-05
0.000271939
0.000364418
-0.000520783
0.000155439
0.00183813
-0.000602394
-0.00120938
0.000123319
0.002325
-3.28867e-05
-0.000112284
0.000145064
0.00299112
-0.000895785
-0.00208693
-6.77787e-06
0.000706826
0.00106385
-0.000587933
-0.000483029
-0.000231907
0.00024326
-1.14981e-05
0.00165911
0.000830133
-0.000223651
0.000178654
9.28338e-05
-2.13788e-05
0.000552099
-0.00041967
-0.000133291
7.56826e-06
-8.07954e-05
7.38752e-05
0.00139487
-0.00159376
0.000178211
0.000247441
0.00259704
-0.00272977
0.000147272
0.000948797
0.00091157
0.00105421
-0.000546105
-0.000505782
0.000720221
0.000336108
6.37273e-05
-5.60893e-05
0.000224047
-0.0009969
0.000463145
0.00137552
-0.00181099
-0.000514234
0.000491094
2.32392e-05
-0.000180043
0.000369637
-0.000189534
-0.000156671
0.000259676
-0.000101609
-0.00264921
0.00184347
0.000824832
-2.57208e-05
-5.44947e-05
-0.000614094
0.000808101
-0.000198969
0.000675231
0.00113456
-0.00178914
-1.81825e-05
-0.000351553
-0.000450392
0.000372607
9.33793e-05
-5.46685e-05
-0.000357365
0.000246436
-0.00216928
0.00196371
-0.0011941
0.00168453
-0.000364962
-0.000128181
0.000494227
-0.000949447
0.000572184
-4.71776e-05
-0.000115718
0.000163297
-8.64723e-05
6.13107e-05
0.000349254
0.000144772
-0.000493851
0.00150274
-0.00110122
-1.27445e-05
-0.000276196
0.000288885
0.0025271
-0.00245552
-5.28983e-05
-0.000321597
0.000336977
0.000474831
0.00252236
0.000904591
-0.00111625
-3.4681e-05
-0.000151145
-4.78146e-05
0.000397292
-0.000264881
0.000123029
0.000141889
0.000614839
-0.00095688
0.000345098
-0.00287889
0.00133223
0.00158444
-0.000222376
-0.000478171
0.000698852
2.58876e-05
-0.000103361
7.76012e-05
-0.000856362
0.000346013
0.000513032
0.000360622
-0.000584155
-0.000580945
0.00145968
-0.000879274
-0.00140912
0.000263851
0.00114502
0.00249766
-0.00275215
0.000270662
-0.000308026
0.001439
-0.00109853
-0.000269365
0.000228195
4.40752e-05
-0.00160152
0.0013329
0.000164697
-0.000344667
0.00108433
-0.00019401
0.000102399
-0.000687118
-0.00174817
0.000527178
0.0012346
-0.00167401
0.00182101
-0.000165786
-0.000134584
0.000301524
0.000439005
-0.000430706
-4.8016e-06
0.000373022
-3.8229e-05
-0.000335847
0.00046265
0.000594947
-0.00114936
0.000653412
0.000527818
-9.95067e-05
0.000171723
0.000399772
0.000100838
-4.85317e-05
-0.00046536
-0.00102835
0.000285401
0.000746698
0.000704498
0.000255011
-0.000932052
-0.00105936
-0.000587351
0.00166957
-0.000124314
7.99943e-05
4.39057e-05
-0.000139461
0.000143328
-3.23061e-06
0.000979316
-1.58138e-05
-0.000965366
-0.000972095
-0.00186228
0.000958891
-0.000798122
-0.000153329
-3.30371e-05
-8.52757e-05
0.000118406
6.35847e-05
-0.00026005
0.000199031
-0.000431213
0.00168126
0.00105317
-0.000125774
-0.000913094
-0.000227465
-0.000366391
-5.65433e-06
-0.000157033
0.000695807
-0.000363094
-0.000202422
1.95827e-05
0.000182699
-0.00100319
-0.000208784
0.000353696
-0.00171372
0.000646066
0.00106794
3.9614e-06
0.000350057
-0.000354485
0.000204336
-0.000569829
0.000400875
0.00177972
-0.00216848
0.00279594
-0.000253259
-3.06931e-05
0.000839458
-0.000809324
-0.000283415
0.000236197
4.79589e-05
-0.00210889
0.00100687
0.00112157
-0.000327486
-0.000107576
0.000354981
-1.42673e-05
0.000247821
-0.000233267
0.000898302
6.55792e-05
0.00058287
-0.000222963
0.000213068
-0.000378785
0.000430772
1.10908e-05
-7.30093e-05
0.000177713
-0.000104325
0.00198495
-0.00280809
0.000831826
-0.002943
0.0025642
0.000387176
-0.00171102
0.00173689
1.39424e-05
8.21603e-05
0.000186357
0.000260891
-0.000333737
7.22117e-05
0.000814612
-0.000672769
-0.000148256
0.000193
-0.00016304
-1.22169e-05
-0.000415859
-1.71547e-05
0.000432403
-0.000198665
-6.28577e-05
0.000611106
-0.000247752
9.9733e-05
-0.00013986
0.000305967
-0.000250563
-5.59993e-05
9.72253e-07
0.000304199
0.000129521
-0.000162692
-0.00126543
-0.000468509
-0.000140268
5.26268e-05
8.80938e-05
9.59899e-05
0.0014351
-0.00149924
-0.000394339
-0.000714191
-0.000111666
0.000286474
-0.000173109
-9.99637e-05
0.000215418
-6.35618e-05
-9.55422e-05
-0.000168087
-9.48778e-05
0.0003001
-0.000205095
0.000260706
0.000212042
-0.000472947
-0.00100496
0.000647634
-0.000767399
-0.000116274
0.000876219
-0.0002982
0.000559136
-0.000125904
-1.0726e-05
-0.000452403
0.00159615
-0.000431714
-0.0011508
-0.000316045
0.000382297
-0.000179634
-0.000158902
0.000194815
-0.000208793
6.09773e-05
-0.000275225
-0.00200672
0.00174917
0.000259164
-0.00178668
0.00286005
-0.00106365
-0.00149998
0.00144051
9.66855e-05
-8.36161e-05
-0.000200168
-8.00043e-05
0.000340183
4.9384e-05
-0.000138667
-0.000596924
0.000353661
-0.000701683
-0.00138737
-0.000106399
-0.000619091
0.00072251
-0.000164872
0.000225974
-0.000118926
-0.000202958
0.000325325
0.000946293
0.000107601
-0.0010305
0.00137524
-0.000611618
-0.000765362
0.000256631
0.000298073
-0.000554253
0.000102802
3.20668e-05
-0.00013478
-9.03365e-05
9.10125e-05
-1.19031e-06
0.000328206
-0.000400288
-0.000598341
0.000585759
1.39324e-05
0.000144084
-4.11177e-05
-0.00129918
-0.000940777
0.00224171
-0.000640143
0.00013287
0.000505948
-0.000188056
0.000234263
-4.63168e-05
-0.000824896
0.000803229
3.35724e-05
0.000801195
-0.000167269
-0.000636163
0.000640034
-0.00167987
0.000460606
5.30686e-05
-0.000741851
0.000698099
-0.000577009
-0.000143208
0.000725098
-0.000281055
-0.00128339
0.00158126
0.00254398
-0.00241232
0.000125644
-0.000172718
4.72014e-05
0.000679656
-0.000350885
-0.00031398
-0.0001091
-0.0004224
-0.000662125
-0.000307217
-0.000253087
9.11313e-05
0.000161128
9.93304e-05
-0.000145689
5.50717e-05
0.000150684
-0.000206309
0.0018765
-0.000544531
-0.00132984
-0.000187448
-0.000454507
2.14024e-06
-0.000320284
0.000328011
-0.000917525
0.000886631
0.00232478
-0.000143929
-0.0021429
-0.000903156
-0.000670925
0.000470415
0.0002007
-0.0014728
-0.000531269
-0.000743095
-6.841e-05
-0.000204783
-0.00231762
-1.12394e-06
-8.94908e-05
0.000766162
-0.000866003
-0.000424308
-0.000247687
-7.89808e-05
9.34223e-05
-1.46008e-05
-0.000304936
-0.000548137
0.000182792
1.84022e-05
-0.000657685
-0.000100266
0.000759661
1.87451e-05
-9.37371e-05
7.52477e-05
0.00041538
-0.00024888
0.000740906
-0.000160583
0.000247668
-8.85226e-05
-0.000784649
-2.09961e-05
0.000805014
-4.83901e-05
0.000173868
-0.000913817
0.000140033
-0.00035414
-0.000599891
0.000656324
0.000894987
-0.00153874
0.000289252
-2.64756e-05
-0.000262603
0.000175817
-0.000140268
-3.25268e-05
-0.000187948
3.39835e-05
0.00022637
-4.87231e-05
-0.000190222
0.000241764
-0.000586379
-5.86356e-05
-0.000357072
-0.000301227
0.000462805
-0.000161265
-0.000366605
-0.00110486
-7.21475e-05
0.00243795
-0.00242222
-3.67905e-07
-0.000262943
2.28818e-05
0.000239534
-9.0229e-05
0.000144524
-5.48968e-05
0.000144383
-0.000191342
-0.000221222
2.94582e-05
0.000159937
1.69022e-05
0.00299419
-0.0008857
-0.00208146
-0.00128283
0.000700461
0.000271764
-0.0005494
0.000277014
-0.000151015
9.04076e-05
5.94473e-05
0.000617435
-0.00254144
0.00195203
7.53868e-05
0.00247557
0.000405779
-0.000104411
-0.000129507
0.000234697
-0.000398857
0.000524348
-0.000125684
-0.00030091
0.000172006
0.000129547
-7.75883e-05
0.000803333
-0.000124055
5.20875e-07
0.000159683
-8.21255e-05
-7.71564e-05
-9.01633e-05
-0.00029992
0.000390159
-0.000195146
-2.10365e-05
9.77709e-05
-0.000201909
4.86177e-05
-8.4542e-05
3.59195e-05
-0.000373433
0.00024332
0.000136277
0.000492401
-0.000220245
-0.000273298
-0.000246275
-0.000273062
0.000519567
-0.00207568
0.00121893
0.000895835
0.00154272
-0.00155749
5.22797e-05
0.000191221
-0.000281573
0.000943307
-0.000609231
-0.000328259
0.000254412
0.000576363
-0.000806283
-0.000583041
0.000728095
-0.000126579
0.000593068
0.00176601
0.000147582
7.82245e-05
-0.000149012
0.000112561
0.00014111
-0.00025113
-0.000127087
-3.32542e-05
0.000210768
2.58299e-05
-0.000245298
-0.00232083
0.000707748
0.00164201
-0.000380943
-8.22892e-05
-4.21372e-05
0.00279271
-0.00195967
-0.000823235
-0.000142163
-2.11136e-05
0.000108717
-8.7963e-05
0.00210713
-0.00169562
0.00230759
0.000491715
0.000258566
-0.000230681
-0.000170357
4.69122e-05
0.000123737
-0.000383367
0.000367721
1.5998e-05
-0.000217485
0.00012499
9.34045e-05
-0.000118941
0.000274931
-6.40195e-05
-7.60744e-05
0.00152008
-0.000231045
0.000125756
0.000106894
9.47911e-05
-0.000116665
-0.000163999
9.69885e-05
6.52585e-05
0.000493719
0.00031371
0.000233268
-0.000478895
0.000676006
-0.000442129
-0.000233284
0.000488075
-9.00982e-05
-0.000396968
9.19753e-05
-0.000365983
0.000275155
-0.00152884
0.000652389
0.000874898
-2.41455e-06
-0.000199735
-0.000116774
9.45084e-05
2.25088e-05
1.57443e-05
9.53747e-05
5.00935e-05
0.000917196
0.000398575
-7.27813e-05
-0.000325748
0.000241741
5.30848e-05
-0.000672987
0.000717689
-4.59841e-05
5.02211e-05
-0.000724876
0.000226819
-0.0015254
-0.000123768
-0.000130118
0.000254871
0.00196952
-0.000653761
-0.00130813
0.000225654
-0.000238482
-0.0015692
0.000736924
0.000831137
-0.000400382
0.000469825
-2.29293e-06
-0.000360947
0.000264168
-0.00132361
0.00015492
0.00118333
0.000344874
0.000143755
-0.000585657
-0.000575192
-0.00145711
0.000178159
0.00192049
-0.00145296
-0.000460451
0.000372337
0.000690383
-0.000475523
-0.00020308
-7.15255e-05
-9.83235e-05
-0.000122067
-2.73349e-07
-0.000629357
-0.00198444
0.00172544
-0.000806407
7.70092e-05
0.000371083
5.69344e-05
-0.000428557
0.000819282
-0.00259678
8.70716e-05
-0.000126543
-0.000238373
0.000199403
6.11562e-05
0.000399161
0.00152721
-1.56592e-06
-0.000266829
-0.00202271
-0.000657804
0.000168561
0.000491358
0.000752108
-0.000404265
0.000152451
-0.000149604
-5.53782e-07
0.00044901
-0.000138333
0.000509102
-0.000497433
0.00151766
1.17272e-05
0.000188966
2.37941e-05
-0.000212351
0.000303928
-0.000345789
4.87456e-05
-0.000114616
-4.94348e-05
0.000285876
-0.000176149
-0.000109876
0.000112299
-8.62568e-05
-0.000986577
-0.000320961
0.000427508
-0.000845666
0.000363919
0.000187965
-0.0001441
-0.000294696
0.000438907
0.000386767
0.000247802
-0.000634384
-0.000247102
-8.0624e-05
0.000327739
-0.000839668
-0.000149841
0.00100629
-0.000229431
0.000134962
-0.000454504
0.000268659
0.000281619
8.60873e-05
-0.000361906
7.42865e-05
0.000214943
-0.000296013
0.000423866
-0.000121634
8.7368e-05
1.53465e-05
-0.000102746
0.000175643
0.000318543
0.00104252
-0.00033035
-7.91209e-05
0.000154924
-7.70313e-05
-0.000796414
0.000305905
0.000492038
-0.000833398
-0.0021009
-0.000253763
0.000497027
-0.000235968
0.000460844
0.000487686
-0.000735604
-0.00144125
0.00178502
-0.000315317
-0.000128794
-0.000172884
0.000198255
-0.000106389
-9.17334e-05
-0.00129697
-0.00133756
-0.000403533
0.000535041
0.000404479
0.000143917
-0.000548525
0.000703756
0.000139909
-0.000829427
0.000848286
-0.000593072
-0.000253209
0.000846913
-0.00014925
-0.000702464
-0.00040746
2.43742e-05
0.000416547
0.000400997
0.000290599
0.000602379
0.000272364
-0.000868506
5.374e-05
-8.18588e-05
0.000242569
-0.00016075
0.000100493
-0.00040146
-6.72223e-05
0.000109743
-0.000766
0.00135259
0.00166452
-9.72218e-05
-0.000555509
-0.000588768
0.000261583
0.000333152
-0.000464628
0.00088961
-0.000210803
-0.000754111
0.00098896
-0.000249692
-0.000117781
8.7595e-05
-0.000121982
3.45358e-05
-0.000276854
-0.00010557
0.000382691
-0.000648327
-0.000145587
8.18222e-05
-0.000383656
6.85675e-06
0.00037582
0.000129827
-0.000528757
-0.000476446
0.000558656
-9.42573e-05
6.7471e-05
0.000331344
0.000557077
0.000129969
-0.000685547
-0.000375379
0.000674476
-0.00029851
-0.00057923
0.00124515
-0.000120859
0.000192625
-7.11693e-05
-0.00270264
0.00188735
0.000828945
4.35031e-05
-9.30565e-05
-0.000197061
-3.49775e-05
-0.000285307
0.000315032
-3.00274e-05
-0.002532
0.00204773
0.000141774
0.000286178
9.67086e-05
-0.000501361
-0.00113235
0.000132272
0.00104392
0.000119681
-3.2139e-05
8.70419e-05
-0.000210192
0.000156899
0.000129373
0.000585997
-0.000170926
-0.000419012
-0.00101991
0.000201595
0.00163495
0.00100144
-0.0026341
0.000334475
-0.000478286
0.0026609
-0.00191877
0.00268659
-0.00104922
-0.000545595
0.000314671
0.000230874
8.33955e-05
0.000115003
0.0011978
-0.00161139
-0.000514784
0.000336028
0.000178592
0.00248132
0.000126599
-5.64431e-05
-0.00145979
-7.88214e-05
0.000796736
1.46372e-05
0.000490228
0.000368616
-0.000862629
-0.0011894
0.00185413
-0.000638779
0.000369716
-0.000836048
0.00048114
-0.000598132
-0.000427106
-2.70017e-05
-0.000297974
0.000330032
-0.000152119
-0.000207582
0.000359003
-0.00199605
0.00136237
0.000679497
-0.00046775
0.000846234
-0.000382726
-0.00020018
0.000389838
-0.00170522
0.00102833
0.000681473
3.56184e-05
0.000132063
-0.000189641
5.30067e-05
-0.00152537
0.00150339
0.000122251
0.000454435
-0.000424002
0.000312856
0.00010949
-0.000858413
0.000282185
0.00057797
0.000385086
5.65796e-05
-0.000441889
-0.000237401
7.8773e-05
-0.00010274
0.000464821
-0.000363663
-0.000713477
0.00206001
-7.36084e-05
-0.00195307
-2.49563e-05
-0.000115819
0.000140789
-0.000151391
0.000580681
0.000908431
-0.00148778
-0.000860667
-0.00129978
0.0021799
-3.70155e-05
-0.000470818
-0.00124233
9.5751e-06
-0.000564255
0.000555973
0.000508087
0.002002
0.000831543
-0.000885207
6.38166e-05
0.000557423
0.000469968
0.000184751
-0.000658203
0.000121614
-2.69648e-05
-0.000108799
-0.000275074
0.000174266
-0.000452278
0.000858935
-0.00169354
0.000843511
0.000305312
0.00268985
-0.00235591
-0.000305283
-0.000341036
-8.88159e-05
0.00092914
0.000115923
-0.000280669
-0.000150136
-0.000428815
-0.00128815
-0.00078377
-0.000915373
-0.000240442
-7.00983e-05
0.00022325
-0.000258596
-0.000196226
0.0004549
-0.00012316
9.82703e-05
-0.00045804
0.000305605
-0.000415227
0.00051515
-9.96787e-05
-0.00016065
-0.000241277
-3.66489e-05
0.00027794
6.21712e-05
0.000648994
-0.00192351
0.00127785
-2.34203e-05
0.00121177
-0.00117153
0.000548383
0.000300887
0.00267893
0.000268565
0.000478085
-0.00188758
0.00176536
-0.000528925
-0.00123354
0.000241781
-7.34623e-05
-0.00016734
-3.23722e-05
0.000311685
-0.000275156
-0.00146967
-0.000785264
0.00226465
0.000161698
-0.000855765
0.000698813
-6.71623e-05
0.000351386
-0.000282352
3.01485e-06
-0.00227487
0.0022772
0.00031287
-0.000266036
-4.65208e-05
0.000546612
0.00139223
-0.0019064
-0.00012991
2.96595e-05
0.000100431
-5.8588e-06
-0.000850299
0.00188828
-0.00160775
0.000345354
-3.47776e-06
-0.000341159
0.000165931
0.00041854
-0.000582998
-5.56433e-05
0.00104966
-0.00046808
3.57972e-05
0.000432895
0.000695313
-0.000146144
-0.000594948
-0.000207006
0.000793632
0.000103753
0.000227993
-0.00033221
-0.000107093
-7.78202e-05
-0.000199375
8.54063e-05
0.000114064
0.00182663
-0.000957192
0.000491609
-0.000176989
-7.35483e-05
6.0764e-06
6.74589e-05
4.66803e-05
-0.000651211
-0.000301343
0.000306648
-4.30108e-06
0.000131146
0.00179967
-0.00190048
0.00191255
-0.000312221
-0.000270652
0.00058305
9.5561e-06
7.7798e-05
-0.000100557
0.000467815
-0.000362287
-0.000438666
0.000924314
-0.00252834
0.000118629
0.00241872
0.000401335
0.000242768
-0.000644895
-0.000124418
9.14528e-05
0.000236029
-6.34226e-06
-0.000229429
-3.28553e-05
-0.000420257
0.000450293
-0.000168656
-0.000131335
0.000300116
0.000627834
0.00152966
0.000149198
-0.000921806
-4.61743e-05
0.000961674
8.11917e-05
-0.000568862
0.00185758
-0.00070697
0.000184426
0.000154506
-0.000339463
-0.000430007
-0.000364729
0.000287643
-0.000311531
0.000286599
-0.00242348
1.79285e-05
-9.30784e-05
-0.000156512
0.000249977
0.00161488
-0.00127418
-0.000316962
0.000576081
-0.000564656
-7.50971e-06
-0.000251677
-0.00034957
0.000596699
-0.000547989
-0.000211805
0.00075538
-0.000142549
-0.000140653
0.000286192
-0.000134886
-0.000254933
0.000389989
8.79131e-05
-3.94383e-05
0.000317925
0.000214795
-0.000523725
-0.000103802
-0.000350651
-0.000778682
0.000336857
0.000436083
0.000309026
-0.000319436
1.39078e-05
-0.000132791
0.000414469
6.16074e-05
0.00018164
-0.00148516
-0.000411695
0.00192334
0.00182675
-0.00123726
-0.000171932
-0.000107118
0.000261584
-0.000627171
0.000380628
0.000246185
0.000758897
-0.000359449
-0.000552514
0.000563431
-0.000172255
-0.000756156
0.000504786
-0.000329632
-0.000375263
-0.000295159
9.35075e-05
-0.000324778
0.000231481
-0.000846038
-0.000252162
0.0011034
-3.33901e-05
-9.6443e-05
0.000440391
-0.000136884
-0.00030355
-0.00043665
0.000164467
0.000272138
3.84582e-05
0.00103176
-0.00105055
7.48189e-06
-0.000428726
-0.00016427
4.38841e-05
3.47379e-05
-0.00185978
0.0018569
0.000156063
-0.000190923
1.21425e-05
-0.000183471
0.000171264
0.000345211
-0.000310904
-0.00016374
-0.00189549
0.00208311
0.00049813
-0.000601025
-0.000559765
-0.0003359
0.000897161
-0.000446183
-0.000184272
0.000631179
0.0013079
0.00137989
0.000115017
-0.000159086
8.55437e-05
-0.00164792
-0.000357894
0.00200758
0.000339481
-0.000403448
-0.000269058
-0.00168057
0.000147358
-9.67445e-05
0.00025226
0.000125928
0.000314239
-0.00139096
-0.000589971
0.0019902
-0.000815316
0.000348735
-0.00115628
-0.00157874
0.00183452
-0.0018273
0.00118199
-0.00131845
0.000146472
-0.000321745
0.000153201
-8.01073e-05
0.000282972
-0.000201553
0.000169859
0.000716895
0.00122015
-0.000206227
-0.000975691
0.000144359
0.000241765
-0.000377928
0.000206006
8.25155e-05
-0.000387757
0.000769836
-0.000260799
-0.000124153
0.000386413
0.000294211
-0.000312425
2.3975e-05
-0.000791028
0.001373
-0.000520625
0.000526176
-0.00157943
6.83472e-05
0.00152624
-0.000190342
-0.000244982
0.000435354
0.000481175
-0.000470245
1.76908e-06
-0.000845471
0.00083892
0.000314093
-0.000417829
-0.000152419
0.000338497
-0.000185602
-0.00168179
-0.000721921
0.000276873
-0.000772156
0.000939181
0.000416265
0.000448682
-0.000862894
-0.000132951
0.000144583
7.4649e-05
0.000335608
-0.000409446
0.00014257
0.000170514
0.000524088
0.00036634
-8.07138e-05
-0.000650833
0.000235797
0.000294348
-0.000262409
-3.12916e-05
0.00033647
-2.68918e-05
0.00015868
-0.000417371
0.000227298
-0.000343084
-0.000167639
-0.000269019
-0.000133948
0.000183828
-4.98611e-05
-0.00208749
0.000845565
0.00126566
0.000376739
4.88393e-05
5.08998e-05
-9.95202e-05
-9.70846e-05
-0.000419746
0.000529821
0.000564237
-0.000650588
-0.000118103
-0.000609256
0.000202674
-0.000392921
-0.00017608
-0.000305169
0.000481183
0.000599333
0.00171189
-6.97001e-05
0.000171718
-0.000102438
-0.000285807
0.000263976
-0.00167758
-0.000928173
0.00261317
0.000382778
8.60119e-05
-0.000469311
8.41156e-05
-0.000371496
-0.000395124
0.000769323
-0.000571636
0.000173847
0.000384713
0.000476368
-0.000205046
0.000761992
-0.00139529
0.000637341
-0.000916367
0.000567612
0.000344587
0.00112108
-0.00211525
0.000997231
0.00127089
-0.0019534
0.000476785
-0.00103203
-0.000352701
-0.00129317
0.00041464
0.00019503
9.99834e-05
-0.000255551
0.000132385
0.000128863
0.000291548
-0.00113276
0.000217177
-0.00077958
-8.82747e-05
0.000165602
0.000162851
6.54454e-05
-0.000228072
-0.000529897
6.24954e-05
9.54243e-05
0.000486778
3.25798e-05
-0.000166266
0.000133764
-0.00160144
0.00130234
0.000308665
-0.000505809
0.000193482
-0.0001085
0.000771165
-0.000828657
7.56005e-05
0.000131768
0.000373122
0.000108434
-0.000196278
-0.00144326
0.000470814
0.000988811
-0.00218819
6.04243e-05
0.000182669
0.00187465
-0.00201768
-0.000707123
-0.000146359
0.00085016
-0.000307628
6.04504e-05
0.000338232
-0.000809374
7.43507e-05
1.8995e-05
0.00110459
0.000157445
-0.000446129
0.000269874
-0.000860421
-5.14971e-05
0.000915781
-1.50839e-05
0.000109111
0.000518198
-0.000357474
0.000755921
-0.000327494
7.10908e-05
-0.000364751
-0.000134963
0.000119445
-0.000710287
0.000340783
-0.000469608
-0.00112076
-0.000279037
-0.000178476
-0.000819101
-0.000139455
-0.000608099
0.000749486
-0.000709366
-0.000240197
0.000365895
0.000102312
-0.000584018
0.000488563
-0.000441132
-0.000108958
0.000551305
-0.00153084
-0.00116092
0.000542874
-0.00245398
0.00151574
0.00141047
-0.00308073
-0.000251474
0.000385566
-0.000134138
-6.59299e-05
0.000273918
-0.000221394
0.000604592
-0.000221919
0.00018286
0.000337433
0.000214081
-2.66833e-06
-0.00021123
-9.30602e-05
-1.02153e-05
9.77072e-05
-0.000337968
0.000697468
-0.00027962
-0.000736224
-0.000945398
-0.0018195
0.00237189
-0.00228978
-0.000429183
-9.49847e-06
0.000454297
-0.00025076
0.00040707
0.000160075
-0.000291516
4.2847e-05
0.000250923
-0.000323518
0.000346559
-2.19042e-05
-0.000585755
0.00135112
4.85773e-06
-0.000108999
-0.00107294
0.00171327
-0.000624068
-0.000221474
0.000227883
-0.000224876
-0.000209864
-0.000382613
0.000892549
-0.000259612
-0.000625795
0.000317521
-7.85277e-05
-0.00227221
0.00235663
-7.42141e-05
-0.000178975
-0.000132174
0.000311995
0.000600967
0.000155228
0.000323528
-0.000345024
2.16838e-05
5.2263e-05
-0.00018585
1.77071e-05
1.0624e-06
0.000149132
-0.000149323
-0.000485819
0.000832585
-0.000360733
-0.000106104
0.000142303
-0.00202694
0.000800397
0.00123814
4.89347e-05
0.00026878
-0.00043514
0.00187656
-0.00181013
-5.61796e-05
0.00254066
-0.000748036
-5.11375e-05
0.000325574
-0.000269516
0.000766263
-0.000602842
-0.000167452
-0.000125544
-0.0001846
0.000310156
0.000907594
-0.000200219
-0.000697608
0.000362557
0.000157788
-0.000516922
6.27774e-06
0.000552269
3.5044e-05
0.00020136
0.000943565
0.000805955
-0.00189694
0.000873786
0.00103388
-0.000300871
0.000447286
-0.00014663
-4.16507e-06
-0.000410531
0.000197978
0.000430072
-0.000383767
-1.86787e-05
2.09078e-05
-0.0003148
0.000335942
-0.000319954
-1.51473e-05
-0.000400375
-0.000140463
0.000539626
0.000391872
-1.99502e-05
-0.000539188
0.000657518
-0.000115377
0.000162327
0.00046147
0.000885703
-0.00133668
0.000198218
-0.000196337
3.05391e-05
0.000279903
-0.000954117
0.001012
0.000910673
-0.00044269
0.000175977
0.000670278
-0.000853828
-0.000718324
0.000632974
8.78951e-05
-0.000909965
-0.000224903
0.00117699
0.000278593
0.000538856
-0.000814895
-0.000730562
-2.21018e-05
-0.000416564
0.000438424
-0.00061621
8.03116e-05
0.00055283
-0.000445058
-0.000107506
0.00152607
-0.000879861
6.70931e-05
0.000309619
0.000359683
-0.000667942
0.000568318
-0.00130694
0.000777492
8.69345e-05
-0.000334279
0.000303945
-0.000140494
-0.000456763
0.000513048
0.000236296
0.000274688
0.00017275
0.00211355
-0.000486421
-0.00159428
-0.000646189
-0.00141857
3.77854e-05
0.000931064
-0.000964596
0.00066598
0.00127647
-0.00192453
0.00142354
-0.00116119
-0.000231369
0.000643636
-0.000262317
-2.9116e-05
-0.000234613
-0.000248134
3.66402e-05
0.000211222
-0.000679961
0.000107925
-0.000509279
-0.00151879
-0.00107968
0.00260642
0.000942678
-2.13906e-05
-0.00044404
-0.000266365
0.000711252
-4.44248e-06
0.000161712
-0.000284622
0.000804536
-0.000884907
9.1772e-05
0.000250514
-0.000289491
7.67722e-05
-0.000399434
0.000323988
8.97054e-05
-0.000667902
0.00266047
6.05301e-05
-0.000913001
0.000883385
0.000145992
-0.000271295
-0.00109822
0.00222307
-0.000233797
0.000352352
-0.000113855
-0.00110892
2.52731e-05
0.000213581
-4.97797e-05
-0.000163187
8.61556e-06
-0.000131264
6.39425e-05
-0.000414559
-0.00234491
0.00260794
-0.000248168
-0.000844052
0.000542352
-0.000259584
0.000171208
8.85536e-05
-0.000323624
-0.000770884
0.00109853
0.000467941
-0.000384702
0.00224652
0.000389215
-0.000517998
0.000135646
0.000161833
0.00084965
-0.00095623
0.000584961
-0.000271161
-0.000314031
0.00253485
-0.000949136
-0.00157887
0.00026932
0.000193557
0.000996184
-0.000736182
-0.000240421
0.000145836
-0.000197507
5.20628e-05
0.000169215
-2.81466e-05
-0.000140952
0.000622434
-8.13648e-05
-0.000533872
-0.000772123
0.000202382
0.000620863
-0.000685394
0.000364553
0.000321085
-0.000162821
0.000447226
-0.00028427
-0.000184102
0.000508668
-0.000639831
0.000498174
0.00256281
-0.00018271
0.000345519
-0.000337854
-7.8117e-06
-0.000119312
0.000910837
-4.90927e-05
0.000158026
0.000361795
-0.00224251
0.00191163
-0.000601208
0.000804552
-5.34029e-05
0.000376815
0.000104604
-0.00154388
0.00162687
0.000159539
-0.000752272
3.95218e-05
5.2093e-05
-9.15419e-05
0.000774984
-0.000445534
-0.00032862
9.83315e-05
-4.9085e-05
-0.00154431
0.00120873
0.00016679
-0.000134152
0.00231141
-0.00166949
0.000160264
-0.0010177
-0.00110741
-0.00169038
-5.62948e-05
-0.000349625
-0.000857435
-5.64747e-05
0.000927043
-8.16324e-05
-6.45839e-06
8.8079e-05
-0.000222919
0.000251219
-2.85694e-05
0.000380701
0.000317645
0.000286072
6.91164e-06
-0.000396335
0.000300603
-0.00154246
-0.000109804
-0.000299584
-0.000385269
0.00055758
-3.60788e-05
0.000201761
-0.00020399
-4.62773e-05
0.000441691
-0.000136391
-0.00184348
0.00190842
0.000126331
0.000164809
-0.00113286
0.000276927
0.000469133
-0.000399039
0.000387573
5.93768e-05
0.000670486
0.000125627
-0.000794581
-0.000190053
5.6038e-05
-0.000205012
0.000206621
0.000147551
-9.91764e-05
-0.000292252
0.000390287
-0.000574469
-0.0021366
2.87638e-05
-0.000476097
0.000453425
-0.000193281
-0.000448174
-0.00010754
-0.000175444
0.000283125
-0.000126056
0.000239443
0.000129409
-0.000402073
0.000272607
0.000143671
-0.000147551
-0.000736178
0.000169932
0.000388853
-0.000611246
0.000222887
0.000512147
-0.000122828
-0.000296406
0.000117067
0.000179442
0.000210313
-0.000238895
-0.000332773
0.000571404
-0.00198497
0.00030109
-1.74575e-05
-0.000767348
0.000196446
-0.000212636
1.59193e-05
-0.000433877
-0.00099311
-7.73841e-05
-0.000253221
9.35038e-05
-8.88942e-05
-4.49617e-06
-0.00103373
-0.000673101
0.00172339
-0.000160078
-0.000558636
-0.00209133
0.000632916
0.000981054
-0.00199309
0.000140942
7.09638e-05
-0.00170873
0.000310188
0.0014343
0.000440106
-0.000405852
-4.35714e-05
0.000143743
0.00166423
-0.00124431
-0.000399772
-0.000410836
0.000251944
0.00215119
-0.000549397
-0.00159488
-0.000399672
4.42455e-05
0.000354131
-0.000102818
-2.64274e-06
0.000105602
0.00151239
-0.000395094
-0.000232886
0.000357998
0.000683302
-0.00102947
7.03362e-05
0.00055957
0.000550943
0.000225025
-0.00172874
0.000540175
-0.000544562
6.37052e-06
-0.000630864
-5.28303e-05
9.26601e-05
0.000706135
-0.000471647
-0.000240622
-0.000355065
0.000246678
0.000108295
-0.000320541
0.000412775
-0.000113431
9.24776e-05
2.12379e-05
-0.00016612
-6.81002e-05
0.000234407
-0.000254904
-0.000100142
-0.000461945
0.000117743
0.000343953
0.00250834
-0.0019542
-0.000537604
0.00147672
0.000667283
0.000453131
9.07256e-05
-0.000530868
0.000737181
0.000691537
-0.00258872
0.00191508
3.60794e-05
0.00118274
-0.00160016
0.00193513
-0.000659247
-0.00127122
0.00153568
-0.000591663
-0.00155504
-0.000416878
-0.000187399
-0.00132221
0.00113533
-0.000430525
-0.000715428
0.000789057
0.000717101
-0.00149006
0.000302698
4.28505e-05
0.00144537
7.33981e-05
-0.000170568
0.000124437
4.63895e-05
0.000606362
-0.000228783
-0.000378047
0.000135436
-0.000288986
0.00015799
0.000810104
-0.00103979
0.000237257
7.7253e-05
1.62696e-05
0.0010826
-0.000433663
0.000344464
0.000453351
-0.000440193
0.000477565
-0.00150957
0.0010437
0.00186738
0.00067328
-0.00146424
0.000135104
0.00135614
0.000906489
0.000411785
-0.00131133
0.00206481
2.70176e-05
-0.00157049
-0.000100034
-0.000950874
-0.000578543
0.0023144
0.000256097
-1.11138e-05
-0.00070384
0.00043279
-0.000805686
3.69943e-05
-0.000189602
0.000152446
0.000104542
-0.000119732
1.53091e-05
-5.71529e-05
0.000134954
-7.71583e-05
-0.000268256
-3.25644e-05
0.000302716
0.000243443
-0.000534536
0.000207925
0.000178702
-9.6592e-05
-8.2028e-05
2.37178e-06
0.00127328
-0.00231988
0.00154471
-0.000420585
-1.2514e-05
-0.00112149
-0.000927514
0.00205466
-0.00101915
-1.99597e-05
-9.46954e-05
-0.000178157
0.000582774
0.000348351
0.000669232
-0.00101731
0.000972626
-0.0010824
0.000131952
0.000280717
0.00010784
-0.000126889
-0.000509485
0.00111029
-0.000740026
-0.00113157
0.000962498
-0.000109879
-0.00043602
0.000539717
-0.000133676
-8.31438e-05
-0.00152247
-0.000744303
0.00228076
1.76828e-06
-7.5397e-05
0.000483523
0.00127954
-0.0012877
0.000242817
-5.34244e-05
0.000571704
-0.000683593
0.000113434
0.000213349
-0.000257507
-0.000133003
-3.73397e-05
-0.000311549
0.00037545
-0.000330554
0.000299851
0.000601307
0.00040972
-0.000405146
0.000150442
-8.38661e-05
0.00188736
-0.000487124