/*--------------------------------*- C++ -*----------------------------------*\
| =========                 |                                                 |
| \\      /  F ield         | OpenFOAM: The Open Source CFD Toolbox           |
|  \\    /   O peration     | Version:  v2012                                 |
|   \\  /    A nd           | Website:  www.openfoam.com                      |
|    \\/     M anipulation  |                                                 |
\*---------------------------------------------------------------------------*/
FoamFile
{
    version     2.0;
    format      ascii;
    class       surfaceScalarField;
    location    "200";
    object      phi;
}
// * * * * * * * * * * * * * * * * * * * * * * * * * * * * * * * * * * * * * //

dimensions      [0 3 -1 0 0 0 0];
oriented        oriented;


internalField   nonuniform List<scalar> 
20537
(
-0.365405
0.506539
-0.141236
-0.287
-0.018585
0.305588
-0.162917
0.172907
-0.0100449
-0.000101371
-0.311324
0.311327
-0.137349
0.140097
-0.0028169
0.251532
-0.402794
0.151236
0.209759
0.189365
-0.399337
0.218869
-0.0606393
-0.158309
-0.45188
-0.103075
0.554752
-0.0757866
0.229437
-0.153711
0.460937
-0.158691
-0.302257
0.104717
-0.0953849
-0.0093291
0.0851058
0.00919324
-0.0943255
-0.0226669
0.0324041
-0.00974952
0.677037
-0.542123
-0.135706
0.289553
-0.270906
-0.0187611
-0.0702145
0.284616
-0.214575
0.462101
-0.24424
-0.217959
-0.115101
0.120618
-0.00554911
0.0910823
-0.543177
0.354273
-0.354568
-0.0429158
-0.120065
-0.366434
0.588605
-0.222192
-0.695117
0.0993089
0.595674
-0.552797
0.186354
0.217743
0.0010463
-0.0983704
-0.166846
0.265121
-0.00682919
-0.00168256
0.0228689
-0.388396
0.258543
-0.360167
0.101465
0.383347
-0.131831
0.212832
-0.283217
0.014354
0.15849
0.432299
-0.490997
0.0587183
-0.605774
-0.0895068
0.0986471
-0.115785
0.0171242
0.00247881
0.0766778
-0.0791754
0.150135
-0.103489
-0.04667
0.112659
-0.188509
-0.0159629
0.448291
0.0650164
0.325755
-0.391007
0.492375
-0.66682
0.174465
-0.0182454
0.0111876
0.00706048
0.287885
-0.465266
0.177379
0.457827
-0.169943
0.0163926
-0.0538774
0.0374953
-0.526355
0.168535
0.357825
0.136335
-0.391427
0.255129
0.158964
-0.257422
0.244788
0.265784
-0.510598
0.151047
-0.0198396
-0.131276
0.12881
-0.0653953
-0.0634611
-0.00638995
0.000508245
0.00588135
-0.735254
0.376862
0.357584
0.658526
-0.536389
-0.12296
0.665548
-0.173156
0.657112
-0.29782
-0.359352
0.0102205
-0.0157512
0.00552535
-0.161959
0.420319
0.269162
0.110246
-0.379621
0.021272
0.128837
0.039462
-0.0772446
0.0377851
-0.4406
0.332644
0.107895
-0.122729
0.117342
0.00533598
-0.213404
0.288774
-0.0753925
-0.446547
0.154499
0.291959
0.0627253
-0.0602526
-0.587443
0.201523
-0.208702
0.200765
0.00785676
0.221052
0.240939
0.0373006
-0.0458475
0.00855009
0.0804101
-0.0682173
-0.0121998
0.0490609
-0.336054
-0.295783
-0.440375
0.286931
-0.587894
0.30021
-0.534228
0.430657
0.10346
-0.115491
0.0725273
-0.0550485
0.00299504
0.0520544
0.0118985
-0.169233
0.15726
0.0438737
-0.00408583
-0.186783
0.433063
-0.24646
0.521077
-0.0588694
-0.462199
-0.421376
-0.0665367
0.487478
0.0400013
-0.00804152
-0.0319476
-0.358291
-0.082371
0.114833
-0.0101146
0.426351
-0.152233
-0.27416
0.0569342
0.104638
-0.161572
-0.241518
0.316535
-0.0751931
-0.364151
-0.244362
0.608443
0.0142641
0.0843626
-0.0832895
-0.341914
0.425177
-0.270027
-0.0719792
0.234638
-0.162783
-0.00687192
-0.234823
0.566947
-0.555184
-0.0117953
0.0174531
-0.154867
0.00467409
0.061206
-0.065883
-0.215861
0.460617
-0.0247891
0.591689
0.0138497
0.00917263
-0.0230297
0.157404
-0.163425
0.00594484
0.0962825
-0.392809
0.296353
0.269022
-0.0255692
-0.459009
-0.0996258
0.558623
-0.441254
0.305452
0.135769
-0.164469
0.166835
-0.00242943
0.526465
-0.684974
0.158523
0.0626673
0.0133809
-0.125865
-0.276953
-0.544753
-0.0193937
0.564052
0.26829
-0.6325
0.323988
-0.4073
-0.654525
0.654441
-0.0729943
-0.471852
0.489646
-0.141313
-0.0771358
0.0818055
0.0723233
-0.474127
0.401783
-0.5774
0.577688
-0.00085776
-0.195974
0.565279
-0.369995
-0.0159466
-0.00230088
0.227419
0.0415614
0.0855521
-0.000467052
0.20765
0.371852
-0.235512
-0.792159
0.358608
0.433528
0.0998092
0.272058
0.155529
-0.174479
0.0188857
0.0500754
0.304023
0.140449
-0.0626943
-0.0777919
0.433241
-0.36855
0.560231
-0.169723
-0.390834
0.0480314
-0.0107261
-0.552716
0.130893
0.329277
-0.576094
0.608035
-0.0323761
0.558184
-0.485896
-0.0628084
0.0812074
-0.0184077
-0.0206205
-0.0163909
0.0370129
-0.0555104
-0.0509529
0.106458
0.0339872
-0.0201389
0.375583
0.282037
0.179844
-0.576286
0.396391
0.723471
-0.387806
-0.335682
0.417939
-0.103222
-0.314874
-0.140489
-0.324777
-0.465359
0.614988
-0.149634
0.0264856
0.113914
-0.255481
0.46499
0.147866
0.309962
-0.00625815
0.123615
-0.422492
0.618393
-0.196626
-0.0170912
-0.00558874
0.311895
0.345163
0.358401
-0.21628
-0.142261
0.289317
0.128455
-0.499559
0.200923
0.29843
0.21547
0.152119
-0.367748
0.011723
0.11704
0.00669875
0.144271
-0.354527
-0.24641
0.600937
-0.0635554
0.212706
-0.149228
0.0103808
-0.000165074
0.170917
0.389011
0.248123
-0.38335
0.135054
0.644485
-0.229474
-0.41502
-0.681661
0.216298
-0.00404096
-0.204729
-0.306301
0.356218
0.0734415
0.017343
-0.0907765
0.000237357
-0.055284
0.243986
-0.549339
0.305225
-0.187545
-0.312215
0.0245054
-0.0800172
0.569576
-0.398971
-0.214502
-0.176892
0.167045
-0.0115926
0.547892
-0.509616
-0.0383122
-0.0156501
-0.0994796
-0.52174
0.669641
-0.14789
-0.271974
0.0761273
0.195702
0.0175949
-0.143198
-0.351566
0.494356
0.0227053
-0.142814
-0.364742
-0.236525
0.601262
-0.451347
0.618346
-0.167014
-0.180234
-0.2664
0.354812
-0.551537
-0.142496
0.14535
-0.00290938
0.23893
-0.010695
-0.228286
-0.324826
0.00254844
-0.00893389
0.271082
-0.541007
0.269879
0.170628
-0.204935
0.0342207
0.0739097
-0.0344428
0.395106
-0.189365
-0.205894
0.550807
-0.371011
-0.0888982
0.456842
-0.367931
0.458092
0.0897548
-0.425413
-0.108927
-0.318062
-0.474122
0.0444652
0.0485458
-0.0930019
-0.582204
0.0831911
0.498324
-0.54547
0.161027
0.384055
-0.048692
0.22697
-0.178326
-0.493499
0.349899
0.0174397
-0.057647
0.0402086
0.125186
0.156088
-0.28142
0.0587203
-0.00500197
-0.0537177
0.129203
0.443501
-0.572711
-0.0178703
-0.0465415
0.0644048
-0.340843
0.436933
-0.511734
0.0912898
0.420463
0.4536
-0.637876
0.184283
-0.723774
0.435245
0.288514
0.520384
-0.2115
-0.308895
-0.178291
0.449583
-0.27137
-0.0257128
0.0421162
-0.116938
-0.404407
0.520825
0.0611796
-0.0024584
0.25366
-0.128609
0.17799
-0.364934
-0.00438545
0.0620826
-0.057714
-0.0536791
0.123623
-0.0699907
0.000775867
0.0521992
-0.0529777
-0.602355
0.583617
0.0187075
-0.028972
-0.194611
0.223474
-0.528098
0.0690767
-0.0211181
0.00905811
0.0120592
0.675644
-0.222037
0.193885
0.0237747
0.395655
-0.257126
-0.138548
-0.285464
0.529322
0.539327
-0.143992
0.133188
0.0107386
-0.108718
-0.23943
0.348081
0.0579288
-0.040492
0.0101654
-0.223585
0.279918
0.443533
-0.448511
-0.0973029
0.120205
0.263123
0.22346
-0.399681
0.176217
0.570753
0.0608604
-0.63161
-0.205829
0.157099
0.458897
-0.558537
0.0470043
0.00624657
-0.0532532
0.181774
-0.0244344
0.505919
-0.46824
-0.0376565
-0.400465
0.277849
0.122468
-0.244462
-0.101751
0.346039
0.639292
-0.38695
-0.252393
0.381423
-0.157955
-0.228497
-0.123642
0.351949
-0.111287
-0.02513
-0.114407
0.139457
0.395827
-0.124611
-0.271238
0.234171
0.00471252
0.0109101
0.070289
0.0162969
-0.0337797
0.0174699
-0.199165
-0.338181
0.536979
-0.44387
-0.465142
0.347124
0.117906
0.449469
-0.164299
-0.285166
-0.640211
0.213592
0.426595
-0.110022
0.0871133
0.0228925
0.173684
0.221286
-0.36471
0.13601
-0.199802
0.127707
0.0589024
-0.0633052
0.388483
0.185924
-0.574397
0.268351
0.370885
0.168881
0.47075
-0.157863
-0.312886
0.171802
-0.159982
0.236243
0.0531901
-0.539377
0.369338
0.569401
-0.0483142
0.617854
-0.179359
-0.438508
-0.00341956
0.0526497
-0.0492344
0.10579
0.355139
0.0207032
0.550055
0.0813148
-0.560418
0.479099
-0.504954
0.601749
-0.0968054
-0.140387
0.115189
0.0728421
0.376635
0.354344
-0.112548
-0.241733
0.0440234
0.450813
-0.49503
-0.376689
0.497555
-0.121306
0.157938
0.312815
-0.660643
0.335608
0.325041
0.115133
-0.0886877
0.174565
-0.336674
-0.116198
0.385181
-0.202418
0.209948
-0.00761568
-0.372187
-0.288451
-0.0317111
-0.078331
0.0406427
0.198041
-0.238778
0.10849
0.00634533
0.431217
-0.574687
0.143201
0.0563444
-0.00934237
0.113114
-0.176745
0.100472
0.183988
-0.018954
-0.0394884
0.0584391
-0.119528
0.359661
-0.240335
-0.294908
-0.146383
-0.0607274
0.055096
0.00561719
0.487706
-0.443926
-0.00833814
-0.140689
0.14896
0.227785
0.00671437
-0.205206
0.379628
0.0247053
-0.0453298
0.208094
-0.167542
0.395058
-0.354826
-0.0404194
0.0616201
-0.0784315
0.0167975
0.654256
-0.257576
-0.396669
0.0311298
-0.275718
0.753496
-0.387165
-0.366352
-0.0610134
0.0575919
0.111693
-0.00958071
-0.10214
-0.510574
0.393153
-0.175453
0.0377012
0.137687
-0.252249
0.48686
-0.235124
0.0592432
-0.0429495
0.0197215
0.420688
-0.440445
-0.457771
0.647768
-0.190025
0.610569
-0.260388
-0.350319
0.115594
-0.00393702
0.200249
-0.229328
-0.311148
0.0579455
0.253076
0.11399
-0.364734
0.244976
0.317386
0.077467
0.330495
-0.489195
0.0195476
-0.0161061
-0.0711047
-0.03237
0.103484
0.0969118
-0.406766
0.309768
0.0506515
-0.0696085
0.0117476
-0.0664495
0.0546954
0.380547
-0.0299193
0.200463
0.106432
0.00866661
0.587963
-0.380706
-0.207288
-0.0082576
0.271976
-0.263766
-0.00093741
0.101708
-0.100819
0.0888824
-0.247726
0.518055
-0.270387
0.419725
-0.0863385
-0.333372
-0.00791508
-0.0511647
0.0590739
0.0431845
-0.586073
0.633998
-0.0540564
-0.579968
0.138269
0.495706
0.110791
0.0171582
-0.127961
-0.0935596
-0.217711
-0.275591
0.267294
-0.00400029
-0.0171196
-0.496297
0.308561
0.0611578
0.358581
0.368598
0.241829
-0.498595
0.245798
-0.113407
0.572292
-0.0545217
0.580995
-0.195981
0.557115
-0.36138
0.0526167
-0.0605381
0.752881
-0.402924
-0.349953
0.301834
-0.444485
0.142336
0.171965
-0.180385
-0.657619
0.362673
0.294949
0.10666
0.00183187
-0.300504
0.206865
0.093546
0.328458
-0.333073
0.101766
-0.0283167
-0.135375
0.436905
-0.286202
0.10789
-0.049173
-0.178511
0.22756
-0.104012
0.432509
0.106212
-0.455093
0.348551
0.160499
-0.634651
0.197119
0.218135
-0.415276
0.0121366
0.000790123
-0.012934
0.64092
-0.0168366
0.0415448
0.246011
-0.0916019
0.0906216
-0.0842834
0.101636
-0.620448
0.121055
0.499373
-0.132481
-0.487989
0.0123069
-0.354619
0.342271
0.636494
-0.161764
-0.475052
0.513786
-0.530349
0.0157809
0.407706
-0.310884
-0.0760671
-0.0994381
0.030884
0.00151044
-0.242511
0.21205
0.0303968
-0.0596585
0.0604295
0.0635246
-0.0116951
-0.0518393
-0.39819
-0.259427
0.222622
-0.422092
0.030671
0.0111852
-0.0462652
0.0350797
0.15673
0.238898
-0.0700726
-0.00707242
0.436509
-0.239419
-0.216358
0.167061
0.504141
-0.537902
0.0337202
-0.0684497
0.0801887
-0.436148
0.520752
-0.0847462
-0.0830349
-0.187958
0.378929
-0.366654
-0.448445
0.329592
0.118637
0.0536575
0.104101
0.383387
0.318947
0.325532
-0.111123
-0.0116558
0.21771
0.12145
-0.339215
-0.0340199
-0.0222932
0.0563119
0.352878
0.0299246
-0.382919
-0.126831
-0.426686
0.022508
0.404117
0.195276
0.186154
-0.333723
0.116256
0.217306
0.168187
-0.0574115
0.28877
-0.188434
0.170568
0.349804
0.122498
0.435651
0.501547
-0.397671
0.0936689
-0.545016
0.115119
-0.110381
-0.00475784
0.115131
-0.427904
0.312759
0.107043
-0.105104
-0.00199379
-0.0483157
-0.378429
0.025221
-0.200218
-0.29076
0.131401
0.142001
-0.056909
-0.0871312
0.451785
-0.345915
0.349516
-0.154248
0.662804
-0.501992
-0.16083
-0.183417
0.103804
0.0796028
-0.251602
0.368636
-0.117048
-0.0273114
0.183486
-0.156237
-0.0463274
-0.00602614
0.0523546
0.604407
-0.146366
-0.642761
0.194454
0.448305
-0.419109
0.167497
0.00676002
-0.0109622
0.307432
-0.672181
-0.210467
0.223722
-0.0133502
-0.00224856
0.575279
-0.186787
-0.48817
0.547566
-0.0595456
-0.407624
0.123152
0.284284
0.12168
0.0254762
-0.0909233
0.0989638
-0.393271
0.294209
0.126169
-0.106213
-0.0199457
-0.549318
-0.0530677
-0.561564
0.301042
0.0033166
0.0170544
-0.0203672
-0.1103
0.358284
-0.459029
0.540349
0.154663
-0.0977283
0.462177
0.174008
0.195127
-0.163025
-0.375264
0.538105
0.161059
0.152482
-0.313636
-0.148458
-0.228143
0.376448
-0.431216
0.459942
0.144415
-0.0173951
0.0789974
0.369245
-0.436128
0.197896
-0.184554
-0.0134134
-0.0830787
-0.493445
0.223443
-0.36655
0.143079
-0.600157
0.184834
0.415321
0.565049
-0.565245
0.520754
-0.171465
-0.349514
-0.555314
0.13499
0.519376
-0.20536
0.340368
-0.134981
0.242567
0.126001
-0.368802
0.281697
-0.433973
0.12855
-0.480524
-0.167378
0.671476
-0.0290897
0.0323863
-0.00329911
0.00338408
-0.0497102
0.154129
0.309934
-0.464413
0.393215
-0.169811
-0.26711
-0.0667658
-0.156987
-0.242695
0.0386392
0.00137187
-0.372844
-0.188831
0.374157
0.378727
-0.0947007
-0.360712
-0.142737
0.0168307
0.12585
-0.321336
-0.0789206
0.400066
-0.0305116
0.026074
0.00444046
-0.133498
0.54774
-0.414273
-0.00256494
0.00307373
-0.235837
0.214321
0.021476
-0.213164
-0.453636
0.17809
0.215087
0.0899464
-0.0376551
-0.0522876
0.208631
-0.0148099
-0.459058
0.439555
0.0195084
-0.520677
-0.0572806
0.357539
-0.534369
0.176868
-0.574893
0.0376406
-0.174387
0.581663
-0.407535
-0.583115
0.195525
0.387326
-0.448607
0.326957
0.121467
0.0515511
-0.040368
-0.14607
0.140256
0.005744
0.114018
-0.0164571
-0.0976079
0.0827293
-0.0782136
-0.00454326
0.0912245
0.32548
-0.680014
-0.0786177
-0.01827
0.0968783
0.401572
-0.286458
-0.0760877
-0.196013
-0.00594121
0.218549
-0.406563
0.249561
-0.310086
0.517783
-0.0747458
0.0568684
-0.518845
-0.00796755
0.525914
-0.0101306
-0.0203761
-0.0152267
0.0778094
-0.0333369
-0.175366
-0.171401
0.34945
0.537723
-0.242248
-0.490221
-0.152541
0.328781
0.0670234
0.374469
-0.463338
-0.170503
0.10894
0.0615553
0.360515
-0.145199
-0.0475587
-0.12295
0.0704018
-0.00681163
-0.0636042
-0.540004
0.406472
0.12762
-0.139435
0.00553002
-0.0466376
0.0411046
0.38319
-0.105474
0.322018
0.183636
-0.506145
-0.345943
0.546639
0.324504
0.135029
-0.459811
-0.00230804
-0.140246
0.229323
0.101812
-0.331213
-0.0196253
0.124269
0.124562
0.0016148
-0.438312
0.599317
-0.161215
0.0188153
-0.0154932
0.00187894
-0.0526807
0.0507981
0.429255
-0.294209
-0.135085
0.173652
0.227906
0.19377
0.58136
-0.480348
-0.101007
0.398248
0.470107
0.0980485
-0.568148
-0.0986446
0.0200164
-0.218989
0.00261088
0.108349
-0.111578
0.00320238
-0.0792323
0.0915525
-0.0123416
0.211479
0.454085
-0.362917
0.415746
-0.0528918
-0.169083
0.464844
-0.295723
-0.150728
0.167865
-0.126611
0.127653
-0.00110533
0.00506858
0.0464818
-0.00619164
0.0688291
-0.0626476
0.338223
-0.11957
-0.32908
-0.207691
0.201824
0.00586522
0.00278668
-0.086295
-0.0111428
0.0973977
-0.107685
-0.134876
0.414623
-0.082034
-0.576246
0.302461
0.208465
-0.511398
-0.0744887
0.697086
-0.485583
0.269313
0.113739
0.182543
0.487108
-0.167286
-0.392512
0.559342
0.0729781
-0.00258699
0.134735
-0.452764
0.404392
0.295536
0.401575
0.0287741
-0.0456109
0.372941
0.083907
0.635643
-0.191598
-0.444326
-0.417752
0.567326
-0.149612
-0.0976056
-0.542623
0.556099
0.00530361
0.00682387
0.449343
0.056598
-0.062378
0.0355637
0.0422537
0.574267
-0.216688
-0.0556355
-0.15376
0.209344
-0.0386001
0.0441269
-0.0440929
0.039091
0.142398
-0.390181
0.0105627
0.190129
0.0602915
0.521073
0.435414
-0.245021
0.0445132
0.200412
0.0123389
-0.0819129
0.0695591
-0.412373
0.326044
-0.00233778
0.110652
-0.25929
0.017157
0.242018
0.0888125
-0.483335
0.394317
-0.322238
0.221416
0.100711
0.140528
-0.533753
0.39317
-0.0394611
-0.419592
0.12459
-0.127727
0.00307875
-0.361071
0.489199
-0.313065
-0.093789
0.0254939
-0.513825
0.127986
-0.217077
0.0889872
0.101972
0.00503147
0.412201
-0.302175
0.12128
0.330189
-0.140073
-0.160512
0.0787476
-0.320395
0.241467
0.137733
0.100536
0.0145611
0.0397524
-0.0934711
-0.310374
0.101028
0.209239
0.0128668
-0.0991942
0.475787
-0.387174
0.15346
-0.426323
0.272819
-0.367272
0.0633652
-0.0277945
0.154449
-0.495526
-0.63699
0.292175
0.344748
-0.00561326
0.0682763
-0.19366
0.430914
-0.237397
-0.0141896
-0.0700833
0.0510298
-0.0549851
0.00395128
-0.00307138
0.0173845
-0.0143045
0.0197841
0.134876
0.0848243
-0.521103
-0.0738367
-0.463895
0.484596
0.334
-0.538353
0.203921
0.123346
0.424365
0.376538
-0.544255
-0.609418
0.282208
0.327212
-0.0454454
0.398226
-0.200836
0.361797
0.704936
-0.409377
-0.0836985
0.0246429
0.0590499
-0.0017025
-0.0141997
-0.0695079
0.171229
-0.547521
0.376094
0.138525
-0.560771
0.422228
0.631307
-0.146423
-0.484917
0.0152958
0.0910917
-0.0222186
-0.044508
0.0667297
0.104427
-0.142484
0.0380227
-0.0719269
0.123817
-0.587717
-0.454665
-0.0832685
-0.137429
-0.455364
0.592569
-0.243087
0.423073
-0.180136
0.053079
-0.0750775
0.0219793
0.0294811
-0.1329
0.103424
-0.240287
0.318843
0.241041
0.463921
-0.147175
-0.301609
-0.472553
0.229254
0.101713
-0.195679
0.0939487
0.00523628
0.00657032
-0.0118113
-0.0860961
0.0642509
-0.101822
0.0375729
-0.346389
-0.187945
0.463021
-0.342063
0.119596
-0.00563365
0.00754161
-0.191939
-0.0888859
-0.00649758
0.13147
0.30141
-0.244191
0.141914
-0.0375363
0.376931
0.465772
-0.339742
0.20837
0.39008
0.272705
0.131932
0.0475132
0.0500076
-0.0560341
0.161586
-0.551085
0.38941
0.397355
-0.131573
-0.265921
0.327859
0.0867091
-0.571425
0.396786
0.288815
-0.20081
0.358733
-0.0638307
0.0216511
0.0421744
0.00302112
0.121505
0.103746
-0.016653
-0.371979
0.493016
-0.455325
0.564385
-0.393352
0.00772734
-0.0368203
-0.0887175
0.00946103
-0.340492
0.231709
-0.00800694
0.0590347
0.170498
-0.591085
0.420464
-0.0102724
-0.482935
0.492449
-0.41754
0.355528
0.218784
0.0667341
0.00744154
-0.0741875
0.348837
-0.140142
-0.208812
-0.422495
0.112441
0.309906
-0.192179
-0.407983
0.0867863
0.202506
-0.28943
0.412821
0.21846
0.00737558
0.0108015
-0.0181686
0.152651
-0.277273
0.057049
-0.0574193
0.000359299
0.441101
0.104337
-0.344819
-0.00156911
0.0462903
-0.0447226
-0.0113007
0.000272907
0.0110276
-0.0709615
0.0852095
-0.37906
0.519519
0.0583235
-0.0681946
0.00986344
-0.203257
0.552125
-0.381562
-0.0617772
0.167051
-0.10531
0.157343
-0.184715
-0.156601
0.325879
-0.169433
-0.0287765
0.561047
-0.209175
-0.351905
-0.593515
0.367057
0.226411
-0.014275
0.0909348
-0.149104
-0.487951
-0.582932
-0.368347
0.21974
0.12659
0.349008
-0.0173491
0.0247299
-0.213897
0.0685902
0.145213
-0.101198
-0.342653
-0.110164
0.427928
-0.607298
-0.392447
-0.365117
0.569405
-0.0616023
-0.508163
0.206379
-0.408837
0.532158
-0.139712
-0.342791
0.48219
-0.619196
0.247635
0.370934
-0.00661944
0.0617048
-0.54217
-0.521598
0.0160556
0.505518
-0.0695845
0.376941
-0.307349
-0.440877
0.321094
0.0465699
-0.0481421
-0.548809
0.00342461
0.545368
0.533889
-0.376199
-0.15775
0.0760333
0.0375203
-0.113593
-0.106893
0.208591
-0.260787
0.575771
-0.314985
0.190644
0.340932
-0.531747
0.182173
-0.340054
-0.0257109
0.0899613
-0.122351
-0.0652238
0.00411912
0.0610913
0.185785
-0.0538947
-0.504952
0.341756
0.55955
-0.39889
-0.160685
0.0118392
-0.000650945
-0.235637
0.417794
0.118241
-0.332332
0.213946
-0.575986
-0.443921
-0.24547
-0.176452
0.0293833
0.147017
-0.167831
0.261143
-0.0933682
-0.173313
0.371233
0.409701
0.149823
-0.498438
-0.0211705
0.385147
0.148687
0.0928082
0.0171784
-0.419697
0.315473
0.104209
0.0196557
0.125637
-0.33952
-0.286493
0.390608
-0.123137
0.0941105
-0.122626
0.0284756
-0.0123278
0.146509
0.202194
-0.0615104
-0.0363484
0.0978628
0.00318044
0.0795186
-0.35352
-0.0876036
-0.0275513
-0.0367685
0.0643317
0.415454
-0.262047
-0.0603256
0.0807639
-0.0204352
-0.0241255
-0.0397143
-0.0314378
-0.0411004
0.0725221
0.692797
-0.336394
-0.356404
-0.235446
0.0206763
0.214684
-0.37855
0.304892
0.102728
-0.00130686
-0.0144481
-0.035585
-0.535244
0.154352
0.380751
0.590025
-0.598402
0.00835483
-0.00631932
0.139439
-0.32549
0.566888
-0.241399
-0.417886
0.565089
-0.147213
-0.00778629
-0.000380146
0.00816458
-0.397963
0.568331
0.328071
-0.45419
0.125757
-0.000288517
0.0473505
-0.00133913
-0.0460139
0.0430709
-0.415067
0.480277
-0.146625
-0.502371
0.00325654
-0.0043676
-0.0069364
0.075253
-0.0221919
0.0974864
-0.108661
-0.201984
-0.291118
0.493022
-0.0964581
0.0640954
-0.0332336
-0.117513
-0.0759429
0.0537238
0.0164927
0.150276
0.162506
0.00937503
-0.0903923
0.081845
-0.403386
-0.237445
0.286525
-0.0056292
0.140677
-0.13509
-0.0259751
-0.0202903
0.486502
-0.0500232
0.00723976
0.012997
0.0117425
0.0227297
-0.0830514
0.0455639
-0.0436882
0.307379
0.127422
-0.435128
0.197872
-0.0286708
-0.169262
0.471814
0.163554
-0.0890556
0.267275
0.129944
0.0877419
0.0154201
-0.103158
0.654071
-0.65522
-0.040379
-0.0131948
0.0535745
-0.542163
0.124262
0.114135
-0.0381471
-0.421095
0.536846
-0.11606
-0.0710351
-0.0952767
0.16628
-0.163365
0.184113
0.0136887
-0.0406152
0.0389196
-0.154084
0.115108
-0.189009
0.341414
-0.486249
0.62114
0.0571759
0.139903
0.427627
-0.0607689
-0.366895
-0.376856
0.132806
0.243898
-0.0014157
0.0487651
-0.373538
0.587104
0.739549
-0.365382
-0.44462
0.171011
0.27339
-0.0607893
0.0142423
-0.00376722
-0.00313709
0.0497032
0.419735
0.27306
0.101539
0.384921
0.00530532
0.394867
-0.40034
-0.00130339
0.0583427
0.122353
0.530656
0.251924
-0.393225
0.000777246
-0.0502191
0.0494414
0.377663
-0.563594
0.18571
0.0984385
0.183954
-0.282501
-0.0891309
0.460133
-0.0872018
-0.0467904
-0.0596624
0.106456
-0.257321
0.396142
-0.139045
0.218611
-0.516507
0.116656
0.171172
-0.287821
0.0104738
0.0507059
0.10784
0.0197556
0.325891
-0.207785
0.482739
-0.16654
-0.316283
0.363104
0.376455
-0.0146977
-0.00501435
0.0197188
-0.0148322
0.108894
-0.53461
0.0129877
0.00896626
-0.244489
-0.568008
0.392044
0.175687
0.413091
-0.330376
-0.426035
0.564275
0.0212856
-0.475974
0.155026
-0.0723213
-0.082717
0.129391
0.220117
0.451466
-0.123721
-0.116394
0.373756
-0.216378
-0.0417696
0.0325467
0.00922228
0.064506
0.0254454
0.00963344
-0.220211
0.00750689
-0.0690172
0.0573548
-0.478762
0.188855
0.0347663
-0.0642313
0.458933
-0.402111
-0.166183
-0.171999
0.435969
-0.264209
0.321518
0.129601
0.0432745
-0.00315651
-0.0401184
-0.159358
0.468982
0.0992556
0.0426108
0.434428
-0.127371
-0.216226
-0.558548
0.0086452
0.000181642
-0.00882745
0.206544
0.370717
-0.0437219
-0.163971
0.0866004
-0.254481
0.0335244
-0.0979545
0.0644001
-0.229894
0.0159126
0.201914
-0.0250696
-0.176936
-0.0107645
-0.204865
-0.0123276
-0.34546
0.105959
-0.00114305
-0.136004
0.414598
-0.278597
-0.00128971
0.0096397
-0.00835502
-0.149191
0.164009
-0.0148775
0.478356
0.424828
-0.270588
0.191733
-0.152889
-0.146998
-0.0831313
-0.316372
0.506879
0.0252646
0.0533578
-0.0786185
0.403828
0.160362
-0.170054
-0.00375652
0.0346334
-0.204018
0.624716
-0.420731
-0.0927728
0.0770947
-0.258501
-0.15214
-0.340465
-0.103122
-0.489101
-0.0137202
-0.128921
0.510431
-0.381519
0.384859
-0.253556
0.0680409
-0.0823288
-0.401799
-0.16201
0.0576669
0.0175656
0.00841178
-0.0231048
0.250311
-0.0525893
-0.197782
0.0598593
-0.0382151
0.411235
-0.021319
0.590424
0.216645
-0.603825
0.448106
-0.123873
-0.396445
0.123466
-0.102163
-0.0213601
-0.10987
-0.220831
0.330625
0.332674
-0.517907
0.185078
-0.107941
-0.314693
0.107979
-0.565776
0.0485552
0.116728
-0.0872416
0.345215
-0.0815042
0.0114248
-0.0101724
-0.0698859
0.0800368
0.432262
-0.13014
0.270052
0.283889
-0.553931
-0.082249
-0.177138
0.155086
-0.191252
0.520258
-0.329008
0.251081
-0.445255
0.194155
-0.522771
0.327455
0.195331
-0.418667
-0.169889
-0.329871
0.498414
0.353125
0.106995
-0.0245688
-0.00897622
0.0335439
0.407537
0.096418
-0.504118
0.00917186
0.0763609
-0.191462
0.259933
-0.190486
0.277145
-0.569976
0.441039
0.423785
-0.598743
0.174838
-0.108765
-0.045174
0.153935
0.298459
0.116947
-0.31786
0.560371
-0.398888
0.341047
0.138047
-0.479487
-0.272219
0.372042
-0.280002
-0.164812
-0.0918913
0.739877
-0.376763
-0.0764935
-0.191234
0.267722
-0.00161969
0.0883858
-0.086794
0.245147
-0.39633
0.151187
0.485214
0.104793
-0.110219
0.449265
-0.339333
0.420495
-0.16531
-0.255211
-0.160286
-0.206294
-0.299241
0.078315
0.220878
-0.132846
-0.182108
0.0328574
-0.341946
0.231993
0.32341
0.159245
-0.0842912
0.126352
-0.0420559
-0.15566
0.488202
-0.0619664
0.0396694
-0.0957062
0.0801535
0.0155238
-0.130743
0.38268
0.106876
-0.102054
-0.00485139
0.452647
-0.463528
0.679381
-0.249135
-0.430268
0.142952
0.307518
-0.450643
0.389251
0.0225918
-0.411835
-0.132407
-0.233812
0.366209
0.503563
-0.0961752
-0.497656
0.497457
0.177524
0.38274
0.106533
-0.126429
0.574243
-0.145276
-0.428982
0.560955
-0.383562
0.37305
-0.195214
0.205593
-0.184259
-0.0214137
-0.0117805
0.078503
-0.116205
0.358603
-0.259738
-0.147617
-0.472241
0.13068
-0.136349
0.100449
-0.0209018
-0.0795612
-0.0990841
0.325082
-0.0509497
0.10096
-0.0769004
-0.0240703
0.124533
-0.0272052
-0.0973719
0.584164
-0.17397
-0.410208
-0.142546
0.00181487
0.471589
-0.149932
0.355232
0.292513
-0.312177
0.454952
0.0487061
-0.0492901
0.000581676
0.0165245
0.0990327
-0.0887141
-0.339205
-0.0718599
0.359943
-0.354736
-0.144907
0.499214
-0.381311
-0.146798
-0.442469
0.143562
0.29868
-0.266664
0.536695
-0.352787
0.0800312
0.272757
-0.541303
0.294895
0.180521
0.0250021
0.369204
-0.151546
-0.0419977
0.0401593
0.00183897
0.00943434
0.555439
0.268415
-0.0593458
-0.209071
-0.340733
-0.268683
0.060712
-0.0478117
-0.0129028
0.202306
-0.038579
-0.163777
0.0076395
0.0607199
-0.0683725
0.109759
-0.0169791
0.00482973
0.118591
-0.0193673
0.119884
-0.00381868
-0.0488665
0.422884
-0.177731
-0.0512626
0.0998189
-0.585168
0.234268
-0.280977
0.0466849
0.165444
0.408784
-0.107676
0.221397
0.019406
-0.240845
0.231311
-0.370339
0.138822
0.0518207
-0.00477527
-0.047047
-0.0926447
0.270231
-0.177709
0.0491218
0.403491
-0.012055
0.110595
-0.0985712
0.163503
-0.521082
0.385841
0.1347
-0.094135
0.287509
-0.193498
-0.31357
0.663172
-0.265925
-0.397271
0.409366
-0.104553
0.284337
-0.167681
0.162273
-0.50394
-0.161357
0.277281
-0.115916
-0.219079
0.487565
-0.268942
-0.234238
0.0292663
0.262324
-0.464377
-0.479123
-0.0785134
0.0714309
0.134269
0.26931
0.410051
0.366058
-0.124609
-0.241535
-0.0299585
0.0198327
0.184069
0.024491
0.0574981
-0.172684
0.11518
0.0663065
0.0199488
-0.0862587
-0.480371
0.318516
0.161844
0.40056
0.183589
0.078931
-0.064234
-0.0147087
0.299587
0.1097
0.155399
0.01632
0.206843
-0.0634408
0.0067845
0.0566472
0.00259308
0.386669
0.0387135
-0.101448
-0.0866371
0.407913
-0.321316
-0.378516
-0.0144198
-0.376361
0.21601
-0.456125
0.333238
0.122524
-0.0115834
-0.0039294
0.0155106
-0.219104
0.0486815
-0.176565
0.588802
-0.412255
0.0934178
0.127915
-0.000487119
0.0847062
-0.0842579
0.140393
-0.310015
0.169497
-0.008052
-0.0553977
-0.0175921
0.0752328
-0.505201
0.566723
-0.061546
-0.17852
0.00963021
0.168878
0.0545042
-0.00449698
-0.183839
0.00530486
-0.0725162
0.0615663
0.0109424
-0.506047
0.046346
0.459058
0.328553
-0.439068
-0.0393612
-0.00062477
0.0399833
0.0195515
0.0808853
-0.0191528
0.00212438
0.017033
0.117996
-0.556204
0.437384
-0.111219
0.437963
-0.123323
0.00812918
-0.0518202
-0.11671
0.0457244
0.263267
0.121427
0.452462
-0.201397
-0.0319571
-0.144542
0.0200221
0.0582205
-0.078244
-0.0659124
-0.0102511
0.0761456
-0.345697
0.0775459
0.38141
-0.459326
-0.00930562
0.0676206
0.198032
0.0103128
-0.208489
0.217313
0.30322
0.0786857
-0.095188
0.0294045
-0.14948
0.338697
-0.573738
0.405734
0.167812
-0.00193015
0.0105699
-0.0575983
-0.218738
0.577333
-0.120467
0.563851
-0.443921
-0.067178
0.0924412
-0.530221
0.0249922
0.653653
-0.183535
-0.473076
0.253535
0.118495
0.316673
-0.449595
0.132634
0.138161
-0.0389616
0.095713
-0.257054
-0.0661887
-0.121895
-0.221304
0.343012
0.00491424
-0.0142061
0.00929691
0.315976
-0.186583
0.0484073
0.0389226
-0.0873348
0.0836219
-0.0852694
0.00306233
-0.469022
0.34307
0.125938
0.357685
0.144411
-0.502523
0.02586
0.0750875
-0.205982
-0.359416
-0.0346482
0.414014
-0.247148
-0.275601
0.323025
-0.0132002
-0.0659916
-0.170101
-0.222207
-0.371354
0.00582202
-0.0487819
-0.197517
0.176339
0.021117
0.0805254
0.369247
-0.203511
-0.165889
0.605607
-0.134913
-0.470699
0.564603
0.199813
-0.192643
-0.0679957
0.0617895
0.0231747
0.00920858
0.204716
0.40301
-0.000755706
0.140947
0.155184
-0.481753
0.326566
-0.122976
-0.317364
0.440129
-0.16742
0.0511703
-0.0549936
-0.0307822
-0.174229
-0.300808
0.214623
0.0984709
0.0210762
-0.0833742
-0.269415
-0.0605682
-0.061613
-0.113401
-0.355637
0.207058
-0.418566
-0.377886
0.0704678
-0.146962
0.141303
-0.138345
0.541037
-0.402528
-0.00480291
-0.0890939
0.0938635
-0.493753
0.347477
0.145858
0.176697
-0.596108
-0.122539
0.115526
0.00701499
0.0495979
-0.0543756
-0.185511
-0.216351
0.40169
-0.0324681
0.0358697
-0.406816
0.331159
0.0756088
0.0571696
-0.051354
0.222376
0.206849
-0.0660414
0.371471
-0.332263
0.458541
-0.126543
-0.108406
0.221855
-0.618683
0.396785
0.321325
-0.499773
0.178404
-0.32795
-0.0512461
0.0568496
0.0622519
0.0112133
-0.0734724
0.196438
0.0719746
0.0589282
-0.0669906
0.117474
-0.32763
0.210058
0.0548883
-0.00407692
-0.050813
0.0593933
0.191287
0.00844343
0.429988
-0.312591
-0.153523
-0.343152
0.49643
-0.43105
-0.505837
0.367622
0.13785
-0.0474177
-0.0276801
0.609417
-0.437898
-0.172302
0.26668
0.00774279
-0.274545
-0.379322
0.104073
-0.0811945
-0.0116988
0.062347
-0.0560241
0.0330907
0.0229312
0.132666
-0.446069
0.313258
-0.060099
0.075113
-0.0150245
-0.207059
0.353438
0.232343
-0.342772
-0.210417
0.510123
-0.313037
-0.217209
-0.00319942
0.00872046
0.315477
-0.098306
0.0453299
-0.0445539
-0.00994875
-0.227489
0.25173
0.200715
0.10346
-0.00600729
0.396018
0.227218
0.264581
-0.0578033
-0.390666
0.218452
-0.0121862
0.0908435
-0.0786744
-0.264555
-0.245097
0.333976
-0.187021
-0.14708
0.440035
0.338398
0.279467
-0.07319
0.0726615
-0.218256
-0.108798
0.326904
0.22051
-0.0991859
-0.121405
-0.152879
0.474164
-0.0245845
-0.128533
0.0401027
-0.0370218
-0.00307853
0.315847
-0.486598
0.170544
-0.114867
-0.0596674
-0.470535
0.0892155
0.390779
-0.0629647
-0.175575
-0.425699
0.60125
-0.0185595
0.084861
5.30502e-05
0.234189
-0.182472
-0.18514
-0.0977343
0.282772
0.207885
-0.513271
0.305376
-0.159068
0.493661
-0.334896
0.61276
0.317724
0.179353
0.393089
-0.538391
0.145217
0.174561
0.0291969
-0.0606473
0.246805
-0.197836
-0.2665
0.420906
0.55904
-0.235077
0.565213
-0.0318111
-0.533417
0.127211
-0.00208205
-0.0127971
-0.0687179
0.0828286
0.179078
0.328668
-0.445232
0.116209
0.580324
-0.358516
0.427616
-0.160752
0.513249
-0.352642
0.0947878
-0.0463633
-0.00674397
0.0531101
-0.485187
-0.0636411