/*--------------------------------*- C++ -*----------------------------------*\
| =========                 |                                                 |
| \\      /  F ield         | OpenFOAM: The Open Source CFD Toolbox           |
|  \\    /   O peration     | Version:  v2012                                 |
|   \\  /    A nd           | Website:  www.openfoam.com                      |
|    \\/     M anipulation  |                                                 |
\*---------------------------------------------------------------------------*/
FoamFile
{
    version     2.0;
    format      ascii;
    class       volScalarField;
    location    "400";
    object      ddt0(omega);
}
// * * * * * * * * * * * * * * * * * * * * * * * * * * * * * * * * * * * * * //

dimensions      [0 0 -2 0 0 0 0];


internalField   nonuniform List<scalar> 
13917
(
0.0324474
-0.000492463
0.00266174
1.38938e-05
-0.000193639
-0.000464471
6.40624e-05
-0.00186161
6.04717e-05
-0.0421427
-0.00261958
6.29444e-06
-5.36387e-05
0.0579925
-9.06153e-05
0.0494486
0.000209544
-0.00111296
0.00134168
-0.0441518
-4.26145e-05
-2.88928e-05
0.000254679
-2.93087e-05
1.45138e-05
-9.35758e-05
-0.207799
0.0610207
-0.000453576
6.49065e-05
0.0558865
0.000764854
9.51709e-06
0.0187143
-5.08144e-05
-0.00338674
-1.2202e-05
-0.000250992
6.12219e-05
2.70111e-05
0.00043067
3.98752e-05
3.20345e-05
0.00139477
0.00137407
0.000954953
-3.3011e-05
0.239959
0.05125
-5.13839e-05
5.34528e-06
0.000711947
0.110835
-4.15728e-06
-3.48041e-06
0.00076563
0.0256517
0.000258228
3.74883e-05
0.00189952
0.215199
-0.00211566
-2.92283e-05
1.38262e-05
-0.107795
-0.000442148
-0.000641068
0.00123349
-0.0016504
0.0247093
-0.06053
0.0176176
1.05512e-05
1.29902e-05
-4.07532e-05
9.32053e-06
-9.95486e-05
5.21398e-06
1.01395e-05
1.02967e-05
-2.35232e-05
0.000145195
7.95066e-06
-0.0194441
1.49357e-05
0.00184159
0.000713887
3.10323e-06
2.78175e-05
0.000171193
1.33357e-05
4.0812e-05
0.0475218
-4.35238e-05
-1.05839e-05
-0.000583848
-0.180197
-3.82857e-05
5.40069e-06
-0.000799574
0.000220535
0.000189507
-2.30831e-05
-2.14663e-05
-0.000100356
-0.00163586
-0.00024564
-0.00242963
6.02336e-05
-0.107844
4.77604e-06
0.0195619
-0.000411875
0.25125
-0.113635
4.82721e-06
0.00126923
8.29124e-05
0.00241815
4.20521e-06
4.76154e-05
-2.72804e-05
-0.000818318
0.000852606
0.0363454
-0.0680915
1.40616e-05
-5.28492e-05
-2.39219e-05
0.00088752
0.000160386
-0.000344046
-0.0174807
4.17975e-06
0.000980465
-0.0624559
0.230866
0.0294923
-0.000143379
-0.000259604
0.000388895
-1.61078e-05
0.00324748
-3.33131e-06
8.31854e-06
0.000530751
-0.0563634
-0.0119831
0.21075
-5.19214e-06
2.93149e-05
0.000150778
8.33447e-06
4.88076e-06
-0.113006
-5.52981e-05
-1.9062e-05
-0.00722638
0.000292629
0.000147816
8.38203e-06
-0.0105084
-3.54143e-05
-0.00107589
-0.000837368
-0.00294282
0.0627168
0.0863304
2.3774e-05
-0.000182013
-3.40018e-05
-0.0163495
6.12066e-05
0.189807
0.000284225
0.000305006
1.45058e-05
0.000731407
0.000142225
-4.04099e-05
3.4671e-05
-3.05459e-05
4.55672e-06
0.00129352
0.00238406
-0.000416924
5.57471e-06
0.00144505
6.48409e-05
-0.00347753
0.000243399
0.00124542
0.00119692
0.0357889
-4.30342e-05
0.0326368
2.9404e-05
-0.0281869
-4.98881e-05
-4.84974e-05
-1.14143e-05
0.0222597
0.029375
-1.67667e-05
-0.274226
-0.000208245
2.77823e-05
-1.74726e-05
0.000763368
-2.46212e-05
-3.95912e-06
-0.000269088
3.71265e-05
0.194333
0.000929729
-0.000109406
0.000108161
-5.86288e-05
-1.25808e-05
-1.24031e-05
0.104571
0.00144605
-0.00246579
9.51471e-06
-4.88919e-05
-0.00248991
0.0325034
-8.42923e-06
-7.59212e-06
0.000403771
-1.41803e-05
-1.39203e-05
0.0190198
-0.13533
-2.51626e-05
2.69982e-05
0.000479067
0.0154346
0.000293208
1.08062e-05
-0.225557
0.00255219
0.00188694
-0.00076222
0.000250878
-3.79133e-06
0.0465381
0.000499964
-0.000326837
0.000782643
-1.55866e-05
-0.0426751
5.62224e-06
8.93719e-05
0.000234897
-2.87164e-05
0.000436218
1.46685e-05
-0.000125324
-8.02252e-05
0.0208362
0.0177987
-5.13816e-05
-7.36016e-06
-5.7442e-05
-6.99005e-06
5.47729e-06
-4.96156e-05
0.000128368
-6.15439e-05
0.0232314
0.00507071
4.82508e-06
-0.000113591
0.00368299
-2.83558e-06
-0.00047702
0.019918
-3.3966e-06
0.0180166
-7.91168e-05
-0.00853641
0.000298068
-7.2607e-05
-3.15433e-05
-4.82812e-06
0.00152268
-9.53325e-05
-0.00545362
3.178e-05
0.000578449
0.000449997
-0.138027
0.0321121
0.000138092
0.000308073
-0.000138578
2.32069e-06
-0.000173663
1.18905e-05
-5.3436e-05
-6.00559e-05
0.000610265
0.00578942
8.48721e-05
1.04554e-05
1.22608e-05
-0.0150632
0.0329659
-2.23073e-05
0.000130477
3.17113e-06
0.00279855
0.00192052
0.01192
0.0700754
-0.000248589
-0.00110519
-0.000105952
-0.0165771
0.00147432
0.00257107
-4.07445e-05
-8.70673e-05
-0.250004
-4.4524e-05
-0.000602591
0.00121025
0.000266039
-0.0180544
1.63997e-05
0.000336162
2.04096e-05
0.105676
1.25185e-05
8.49799e-05
-0.000203572
-3.87106e-05
0.000152117
0.000805351
0.0035252
-8.62867e-06
-4.4369e-05
0.0195998
0.0043257
-0.0110642
0.0481648
-3.91961e-06
-2.06309e-05
-0.00131253
-0.000643511
-4.96912e-06
-0.000159183
2.43943e-06
-0.000220592
0.000103304
0.000962584
5.8367e-05
-0.000487522
0.000305292
0.0170766
-2.49388e-05
-8.40455e-06
-0.000210838
0.00211251
0.000317915
0.0402372
0.000319903
0.0178259
-2.35945e-06
6.22378e-05
0.000117572
0.0437056
2.22039e-05
-0.000373037
0.00287219
-0.000271943
4.85534e-06
0.0109596
2.56229e-05
0.0234351
0.00106846
1.72653e-05
0.0439872
-4.2061e-05
-0.000675149
-1.37778e-05
-0.0474709
0.000931379
-5.29099e-06
-0.00807315
-0.000303153
-1.50359e-05
0.0135383
0.00348612
-8.51101e-07
0.00155726
-1.52486e-05
-0.000482001
0.00277598
1.41053e-05
6.59188e-05
1.22225e-05
-2.40331e-06
1.25797e-05
-2.61315e-05
0.103052
-0.000566379
-6.96759e-06
-3.27194e-05
-2.20084e-05
0.000253145
-0.0440964
1.06593e-05
2.40069e-05
0.001857
-3.53476e-05
-4.83336e-06
-3.65002e-06
0.00512206
0.0602341
0.00060547
0.00144641
0.00981009
-4.60284e-05
6.66869e-06
-4.06507e-05
1.32945e-05
9.6503e-06
-2.61102e-05
5.77096e-06
-3.97012e-05
0.0253985
-1.59078e-05
5.20376e-05
0.0234402
0.000284995
-4.50218e-06
8.60459e-06
0.00867026
-2.12072e-05
0.0338849
1.80011e-05
1.04465e-05
2.60207e-05
-1.45912e-05
-1.0434e-05
-4.81933e-05
-0.00289431
-0.00198972
0.00226537
1.03525e-05
0.000180333
0.000267013
-2.48858e-05
0.000377087
-0.00466772
3.0596e-06
0.071798
-5.20183e-06
2.5985e-06
-2.17959e-05
-4.19687e-05
-1.35456e-06
-1.66408e-05
-0.0110877
0.390751
-5.93464e-07
-0.264523
0.00177782
5.1209e-06
0.000335354
0.000999799
0.0132567
7.24654e-05
0.00592044
0.0467985
0.0285996
-4.84432e-05
-0.000184637
0.000465772
-1.56929e-05
-0.134595
2.97152e-05
-2.60613e-06
-9.30966e-06
6.26847e-05
-1.2172e-05
0.00204632
0.000440663
0.000176487
-0.000134537
-0.00159214
4.94827e-05
-6.42089e-06
0.0486628
0.000137892
3.50173e-05
0.0574042
1.74633e-05
6.47753e-05
0.000400964
1.47765e-05
0.0139945
-1.88465e-06
-1.53216e-05
0.000251607
1.80337e-05
-3.95333e-05
0.000553225
-0.00479938
0.0738453
9.77132e-06
1.73654e-05
8.70322e-05
-0.0941922
-0.209443
-5.61191e-06
-4.66177e-06
1.08383e-05
0.000237033
-0.00501539
-3.11518e-05
0.000277193
-4.66779e-05
-3.68512e-07
-0.000345647
5.67453e-05
8.39079e-05
0.00044012
1.57073e-05
-2.25297e-05
1.06397e-05
0.0151568
2.60543e-06
3.04891e-05
-7.31138e-05
0.000159657
0.000460044
-0.000431898
0.000236347
-0.00398948
6.72951e-06
-0.000847356
-0.0435979
-0.0430047
0.024245
-2.0449e-05
-2.13168e-05
-0.000476891
7.21971e-06
-0.102402
7.67078e-07
0.00172533
3.12846e-05
-0.103715
-0.000304098
3.19285e-05
0.281272
-6.20661e-07
0.000782512
-5.36075e-05
-0.000253141
-0.0549819
1.37663e-05
0.0028125
-3.63037e-06
-8.57816e-06
-2.26146e-05
0.0019888
-0.000854176
-3.57178e-06
0.00146081
0.000325295
0.0069346
0.00561528
-0.0191645
0.0117239
2.66691e-06
0.0310179
5.85932e-05
0.301745
-0.010745
-0.000457551
9.93426e-05
0.000182235
0.000132105
3.62875e-05
1.36045e-05
-5.94819e-05
-6.27864e-05
0.00904882
7.75092e-06
0.000657986
-4.02187e-06
-3.83506e-06
0.00028747
-0.00570546
-0.12317
0.368001
0.000688764
5.98466e-05
0.00677664
0.0169929
-1.82159e-05
-0.078879
-5.48391e-05
0.00152906
6.49411e-06
0.00808597
6.32385e-08
-0.000373355
6.66577e-06
0.00427497
0.000137577
-0.0416377
2.83234e-05
0.000113518
-5.14637e-05
0.000238062
0.018155
0.00182228
-6.62728e-05
0.00108479
1.06148e-05
-0.000275112
0.000126215
0.0187896
8.58288e-06
-0.000124405
1.67571e-06
-5.99314e-05
0.0020063
0.000134635
0.00110118
9.71465e-05
1.27902e-05
0.135606
0.000709909
-5.30307e-06
0.12923
0.00282567
-0.03311
0.000749219
2.03994e-08
-0.000107926
0.0137239
0.00313797
-2.92462e-05
-1.00845e-05
-0.000496908
9.05125e-06
-2.07434e-05
0.000517149
0.000508066
2.02658e-05
0.175599
0.000142878
-0.389204
-0.13831
0.0049813
8.61478e-05
0.00119713
0.0153929
-5.2731e-05
-0.000698696
0.00059886
1.2903e-05
9.8356e-06
0.0002864
0.000193736
-3.28393e-05
0.0292129
0.000207964
-5.38646e-06
0.00110466
2.54708e-05
0.0118629
-8.35301e-05
-2.47949e-05
0.00440292
0.00042895
-0.0113716
1.01955e-05
4.27172e-05
-2.88118e-05
1.20324e-05
7.35746e-05
-6.46459e-06
0.032677
4.58676e-05
-0.00264282
-0.00574555
-0.00073988
-0.023878
1.69433e-05
-4.54706e-05
-5.88623e-05
0.0206415
0.0328447
3.26445e-05
0.0309229
0.0157901
1.18718e-05
-2.37364e-05
-1.33744e-05
0.00642022
-0.00202623
0.00012981
1.29295e-05
3.0643e-05
0.00160906
-9.34171e-05
0.000966735
0.000204297
-1.07931e-05
9.88564e-06
-5.15618e-05
7.59837e-05
-0.000130212
0.00368341
-1.63091e-06
-0.000779915
0.0254396
6.5792e-05
0.00892439
-8.90085e-06
-0.000211694
3.38432e-05
0.00318475
5.39561e-05
0.000729465
-0.153768
0.0342263
6.98794e-06
7.91889e-07
-0.000103753
9.28651e-06
7.71276e-06
-0.000141269
-0.00141141
-0.00171834
0.0010879
5.91486e-07
0.00365591
6.13336e-05
6.10046e-05
0.00117873
-2.26884e-05
0.000775661
-0.216656
-5.03983e-07
0.000444805
0.000318884
0.000198686
-1.00267e-05
-1.57729e-06
-2.08927e-05
0.01789
8.5746e-06
-0.000114602
0.000325294
-7.48723e-06
-8.27304e-06
0.000698693
-0.0363654
-0.000476886
0.0566258
-0.000169296
-0.00738591
7.82646e-06
-0.000106664
0.00304075
-0.000280221
0.0172173
0.00019451
6.34682e-06
9.03852e-06
-2.94806e-06
-0.000416755
-1.00812e-05
0.000747567
-4.49856e-05
-0.00694762
-5.89123e-06
7.67714e-05
2.08904e-05
0.000763919
-7.38019e-05
-0.00685454
4.76542e-05
0.000276377
0.0115522
8.34618e-06
0.0185501
2.93235e-05
-0.00119038
-8.39902e-05
-1.8675e-05
7.4228e-06
-0.0201502
7.39242e-05
-0.0480868
0.0640358
8.96607e-06
0.000193805
2.55865e-05
-0.000163943
-0.0188558
2.87994e-05
0.0119021
3.35303e-05
-0.00172253
0.00117857
0.0229305
-6.65141e-06
-1.3162e-05
0.000166916
1.80552e-08
-5.50343e-06
1.19786e-09
-2.11826e-05
0.000324302
-5.73742e-06
-0.00548542
-1.2216e-05
0.0377142
0.0203683
-0.0220621
-0.00104892
0.0696221
0.0472649
0.0068502
1.1403e-05
-0.000247971
7.62412e-06
4.54049e-06
1.06625e-05
7.11929e-05
2.82109e-06
-0.0369446
-5.55594e-06
0.00372823
8.49934e-06
0.000144203
7.93112e-05
-2.62624e-05
3.87082e-05
7.55261e-06
-0.000168362
4.70932e-05
2.57419e-05
-0.027326
0.000563758
0.000764794
-2.29397e-05
3.47752e-06
-3.80424e-05
-4.64472e-05
0.0217395
1.09386e-05
0.000491773
1.70139e-06
0.0566018
-7.53889e-05
-1.86783e-06
0.000760641
-0.00255198
1.04547e-05
-0.00731348
-0.151449
-2.56538e-05
0.000797683
-1.90351e-06
-0.00299515
2.12507e-05
-4.55781e-05
0.0203901
7.07477e-07
1.49244e-05
0.00107003
0.0202006
3.38194e-05
0.0121853
0.0100993
4.63877e-05
-6.50719e-05
-2.20604e-05
0.00834947
5.90657e-06
0.00158679
6.71251e-06
0.0111393
-7.42e-05
-0.0582384
-3.17371e-05
2.97588e-05
0.00298934
-5.7223e-05
8.19219e-05
-0.0877514
-7.2747e-06
9.55147e-06
0.0164604
3.72892e-05
-0.000279912
0.00052202
-2.03037e-06
-0.10095
4.07434e-05
0.000983699
0.0003098
2.9534e-05
0.00875498
-1.32818e-05
0.000496729
8.48393e-06
0.0206008
0.0682341
8.14913e-06
2.34066e-05
-0.000173543
-4.74866e-06
2.37919e-05
-2.93913e-05
-7.80682e-05
7.97832e-06
5.69779e-05
-8.67615e-07
-6.79072e-06
0.000804214
-0.0260626
-0.00115294
0.000962294
-3.81471e-05
0.00295703
6.33112e-06
-0.00185585
-0.0117812
0.10249
-1.0124e-05
1.08587e-05
4.58076e-06
-1.03726e-05
-1.03111e-05
2.71036e-05
7.23134e-06
9.75184e-05
9.38648e-06
0.050509
0.0142856
3.98751e-06
-0.0272777
7.7839e-06
-2.59646e-05
-0.00170484
0.0192322
2.71503e-05
0.000257705
-0.0112766
-4.29058e-05
-3.13533e-05
0.00337675
-0.00029765
-0.0495506
1.47781e-05
-0.00645928
-4.53142e-06
-4.46821e-05
-1.23443e-05
0.016513
8.19478e-06
0.018661
-0.00516198
-7.54121e-05
-7.40746e-05
4.71234e-06
-1.19336e-06
0.00124699
0.000198179
1.85246e-05
0.0208039
-0.128861
0.0123182
0.00134875
-5.74921e-05
0.0223058
-3.2062e-05
0.0333151
0.00030913
6.56313e-05
6.1902e-06
-0.031176
0.0909316
0.0048471
2.17994e-05
-0.00875602
2.51604e-05
3.39826e-06
0.000218917
-1.21719e-05
6.28532e-06
-0.000428363
0.0196433
-3.80868e-05
8.82707e-05
0.0159334
1.22521e-05
-6.7921e-06
-0.0026007
0.0117622
4.96131e-06
4.07884e-05
5.56952e-05
8.50282e-06
-3.01852e-05
-0.000130518
-3.65724e-05
7.87257e-06
-0.0245234
3.01e-05
-0.00398607
-0.0187278
-0.00380634
0.0196357
1.00918e-05
7.76766e-06
0.000180864
0.0202209
-8.76767e-05
0.000113123
-4.39879e-05
9.65403e-06
1.37055e-05
3.57256e-05
-5.28597e-05
0.000964283
-5.04614e-05
0.000425408
-3.21252e-06
0.0212136
0.000710143
0.0016409
0.000719287
0.003909
-0.00190763
-0.0151005
0.00814825
-0.000256284
0.00299243
-6.85197e-06
0.000231389
0.000436164
-0.0142132
3.26798e-05
-0.000209044
3.00781e-05
-0.176759
-1.28431e-05
0.0143696
0.000103092
0.000288432
0.0220789
7.80872e-06
0.0014964
-7.35644e-07
-1.08153e-05
-0.000556536
-0.000229162
2.85767e-05
2.09931e-06
5.61116e-06
0.00901584
8.13253e-06
-9.19428e-06
3.79761e-05
-1.19637e-05
1.92587e-06
0.000144724
0.000917633
-5.04217e-05
-2.18378e-05
-0.000818246
0.000182803
-0.000301145
0.00205997
9.55942e-06
7.19175e-06
0.0665242
-0.000110698
-1.02168e-05
0.00549351
0.0210221
-0.000147353
0.000206521
-2.77778e-05
0.0353279
-0.00130575
-8.35466e-06
-0.0570582
-2.89924e-05
0.000532085
0.00553868
0.00248457
-0.0238725
0.0367242
-3.51059e-05
-2.09274e-05
-8.36149e-05
1.63639e-06
-2.54393e-05
0.00368237
7.56224e-06
0.000185694
2.72641e-06
0.000666945
0.0114785
-3.78092e-06
-0.114173
0.0722642
7.3913e-06
0.00101173
-4.72972e-05
-2.48996e-06
8.17737e-06
0.022932
0.000672766
0.0205913
1.51664e-05
0.0323587
0.000238016
4.3191e-05
-0.0361723
0.000112059
2.4141e-07
-2.98472e-06
-0.00067565
8.32968e-06
1.33906e-06
-6.83542e-05
-4.01874e-05
9.71698e-06
0.000469661
-0.0931462
8.28491e-06
-3.80413e-05
-0.0352645
-6.66442e-06
6.56319e-06
0.000527922
0.00228713
0.00186827
-1.82105e-05
0.000129497
5.65072e-05
0.0101325
0.037928
5.67718e-06
1.41203e-05
-3.08613e-05
5.24116e-06
-0.000215477
-1.43553e-05
0.00499424
-4.72183e-05
3.31446e-05
-0.000705048
0.000110818
0.000925095
0.00773688
0.0692315
1.0361e-05
-1.63086e-05
1.65225e-05
-6.9037e-06
0.00092274
-0.0542274
0.000690058
8.213e-06
-2.09516e-05
0.000370427
3.137e-05
8.53572e-05
-2.20985e-06
0.00135484
-3.93245e-05
-0.000590098
8.4297e-05
-1.52769e-05
9.22455e-06
0.0159056
0.000209154
-0.000586223
-0.0153244
0.000283915
-2.79921e-05
0.00325815
-9.94243e-05
1.54639e-05
-0.0243558
0.00100466
-4.00723e-05
-0.000154274
0.00111554
1.53144e-05
1.02556e-05
-5.58748e-06
6.29633e-06
-4.13648e-06
9.77121e-06
5.86072e-05
5.66286e-05
0.0229738
2.62351e-05
4.13856e-05
0.0001313
0.000273782
-2.07865e-05
-1.81781e-05
-0.00152923
0.0028102
-0.00238952
-1.75523e-05
-5.75998e-06
0.0222496
1.17925e-05
0.000195428
1.55997e-05
3.48282e-05
-4.36627e-07
9.7681e-06
0.00289765
3.94444e-05
-2.05844e-05
4.77198e-06
-0.0932778
-0.00113868
0.0180754
-3.93257e-05
-1.88523e-05
0.036185
0.000141747
-5.12537e-05
-0.000218653
-0.00592993
1.63327e-05
0.000117443
9.80698e-06
0.00916654
1.20084e-05
-6.87916e-05
1.00119e-05
-6.23668e-06
0.00277455
1.1615e-05
-3.48931e-06
-0.000630973
0.000609204
-0.0659059
0.00283258
1.30005e-05
9.19954e-05
-8.56491e-06
-2.64112e-05
-7.74126e-05
-1.1338e-05
2.29103e-06
0.00258646
6.57136e-06
0.000419959
-0.0014742
0.000618968
8.20056e-06
0.000128814
-2.35892e-05
0.0243686
2.16325e-05
-0.242232
0.000741476
-2.17965e-05
0.000424225
0.000121217
9.77762e-05
-7.68155e-07
-0.000246059
2.05194e-06
-1.52888e-05
0.00337791
-0.000282307
-0.00281965
-1.60898e-05
-4.52371e-05
4.4816e-05
-0.0010135
-2.50241e-06
0.00334082
0.000183275
-5.5497e-05
1.27007e-05
-1.09172e-05
0.000169617
0.00140028
0.0784699
0.0229601
0.0131989
0.000597487
0.000306672
-4.08658e-05
-0.0370136
2.63421e-06
2.38118e-05
1.63521e-05
-0.000953566
-1.23017e-05
0.0190574
-1.15731e-05
-2.24837e-05
-4.91554e-05
-0.000105036
0.0367886
0.00114884
3.30461e-05
0.000248364
0.00676092
-3.2063e-05
-0.0411938
8.0092e-06
0.000292771
-0.258229
-5.23172e-06
0.0155746
0.000430743
2.23745e-06
8.11509e-06
-3.07953e-05
-0.0370162
0.000365097
-5.96302e-06
0.000830169
1.51523e-05
-7.74976e-06
5.43908e-05
-4.29054e-05
0.000323556
8.73319e-06
-9.55967e-05
1.15809e-05
-0.300579
0.00792809
1.1632e-05
1.15619e-05
4.92133e-06
1.35574e-05
3.10735e-05
-3.96394e-05
-8.83655e-05
8.54496e-06
8.96495e-06
-6.13483e-06
5.83264e-06
-0.000845815
-1.05229e-05
0.000758688
-2.58211e-05
-0.000647128
-1.75936e-05
1.9718e-06
-4.71675e-06
1.99602e-05
1.72237e-05
-7.43708e-05
5.03487e-05
-0.0531851
-0.000522528
-0.00149616
0.00941778
0.000839861
-0.00558463
-2.08835e-05
4.90849e-06
-0.178389
0.0183748
4.95598e-05
0.0184354
-1.31379e-05
0.00180931
0.0141847
2.82587e-05
0.000721399
0.0565777
0.0899339
-8.56048e-06
0.00035823
2.89943e-06
0.109099
3.39766e-05
0.00444696
-0.0668726
5.36559e-06
0.0180327
-0.00698334
0.000250531
-0.079414
-0.00106993
8.34905e-07
1.43312e-05
0.000941016
0.0211796
-3.50905e-05
0.000132952
-1.77398e-05
-0.0144964
0.000370909
-2.45848e-06
-1.82617e-05
0.00280446
-2.53527e-05
7.83193e-06
1.14294e-05
1.42376e-06
0.000336325
-9.91072e-05
6.90415e-05
0.0223875
9.65144e-06
-0.000265381
8.52277e-06
0.0011919
0.000193093
0.113475
-1.66225e-05
7.11826e-05
0.000194796
-3.43045e-05
3.65962e-05
-7.48108e-07
-0.124404
-2.4581e-06
-1.88366e-06
8.15582e-06
0.000537818
1.39101e-05
-0.00999544
-0.0303067
0.0081472
-2.85564e-05
-1.91248e-05
1.12788e-05
0.0146514
-6.45639e-06
0.00878672
-1.18913e-05
-0.18455
-5.07941e-06
-0.000178398
0.00252148
-6.20935e-06
0.000150144
0.0199684
0.00120594
0.0191999
-0.000132337
-0.148661
0.0647238
-1.12902e-05
0.0190487
-1.38724e-05
-6.35482e-05
0.0897719
-3.49276e-05
-0.000321135
0.0211513
-6.99787e-05
0.000604769
7.512e-06
0.00859396
8.11649e-06
-0.00624859
1.23961e-05
0.0166515
7.89827e-06
6.69818e-06
-7.8515e-05
-0.0111632
-1.98439e-05
-0.000302432
5.13367e-05
0.0321025
6.84455e-06
-1.72537e-05
-0.0327393
-0.0010512
-0.0113002
0.00042481
-1.73545e-05
0.000883288
-0.284137
-2.6287e-05
0.00249469
2.65915e-05
0.00112849
0.0401574
-2.43863e-05
0.0351809
1.21126e-05
-0.16985
0.00195247
7.01634e-06
-8.32058e-05
-0.0175115
0.00939731
6.24852e-06
1.47613e-05
-1.46982e-06
-6.82007e-06
-0.134487
0.000266072
0.00277743
-3.80391e-05
3.41923e-05
0.0150517
0.00446662
0.0123776
0.00186802
1.63684e-05
8.75899e-06
0.00281989
0.00490884
-0.221434
0.0109457
0.00319498
3.98171e-07
0.00140723
-0.0426967
0.0151066
-0.000485002
1.52359e-05
0.000559481
0.000170603
0.000202773
4.19733e-06
6.5355e-05
0.000185894
-0.00237242
0.00791425
5.36475e-05
-0.274243
0.0219443
-0.000223114
7.11523e-06
8.03541e-06
-0.0617603
-2.48961e-05
-0.0115207
3.59243e-05
9.26745e-05
-0.00187128
-0.00118082
1.17208e-05
0.000104325
8.50353e-05
4.88132e-06
-0.0707685
0.000434238
-0.0298669
-4.59632e-05
0.0185996
-0.000277302
0.00278396
2.01319e-05
1.36966e-05
-7.16259e-05
0.000166319
0.000261935
0.000707984
-0.147444
-0.0678533
3.21277e-05
2.02725e-05
-0.000148755
0.00122112
0.0351196
0.00013208
1.15877e-05
5.07376e-06
0.000695038
0.00300455
-4.30497e-05
6.84778e-05
-0.00151118
1.17663e-05
-0.00108505
-1.71023e-05
-0.0305904
-8.5426e-05
0.037269
0.00640028
6.9895e-05
-2.73967e-05
0.00852413
6.29019e-06
-0.000314908
0.00427443
-0.000103062
-0.000402154
0.000149607
0.000579234
-0.0096569
-0.133147
7.61943e-06
-0.0140067
-0.0362373
-5.30653e-06
0.00182685
0.000459819
9.57695e-06
-0.0985761
-0.00618122
0.0133085
0.000525432
0.00373848
2.02257e-05
0.000849008
-1.85853e-05
8.40094e-06
3.76171e-06
4.12888e-06
0.00280626
-0.00241613
2.85409e-05
-0.000595162
0.00256935
6.43195e-06
-0.0264418
-0.0516542
6.77616e-05
-6.97812e-06
-4.73867e-05
-1.52145e-05
0.000326095
7.64543e-06
0.0626144
8.47424e-05
0.000370851
-4.58564e-05
0.000214013
0.000822389
-0.000182918
-0.177973
4.20087e-06
-1.51621e-05
3.22437e-05
-3.50768e-05
-0.0447515
0.00138907
-1.62222e-05
0.0497133
-3.90959e-05
-2.14752e-05
-9.58383e-05
-1.41576e-05
-7.14631e-05
3.9591e-05
2.99142e-05
0.0179289
-0.0685765
0.290636
7.86069e-06
0.219785
7.27409e-06
0.00272974
1.15885e-05
0.0016878
-0.0309094
-2.68971e-06
0.00036652
0.0168294
-3.05159e-05
-2.62387e-05
0.000135976
9.02714e-06
-0.0181069
2.05514e-06
1.0544e-05
-7.6429e-05
-0.000270423
0.00240902
-2.08642e-05
2.83294e-05
1.49823e-05
-7.25234e-05
0.0097503
9.14466e-05
-6.37918e-05
0.0012245
-0.0505176
-0.00495657
0.00270422
-6.8879e-05
-2.51328e-05
0.00776297
2.56473e-06
0.000567388
6.62752e-06
-0.0822026
-0.000110567
-4.10351e-05
-0.000347066
-0.00815261
8.84011e-06
-1.64817e-05
2.73916e-06
0.00232826
-0.0822292
0.000468337
5.15175e-06
-3.8254e-05
8.5169e-06
0.0232865
-8.98049e-05
0.00692041
0.000576916
-3.80826e-05
-0.0030458
-0.00019593
-0.000245176
1.04214e-05
-4.90011e-05
4.14787e-05
-0.000277279
-3.3526e-05
7.93054e-06
-1.05533e-05
-0.000103666
0.0187244
-9.88749e-06
-4.17516e-06
-0.120106
-6.61465e-06
0.00547727
2.97276e-05
-2.2911e-05
-6.24352e-05
0.0011825
2.70817e-05
0.0502318
0.00125383
1.34554e-05
-0.000580172
1.06666e-07
0.000623126
9.54636e-05
-1.50614e-05
1.9007e-05
1.59975e-05
7.767e-06
0.0205164
0.000377113
0.0245739
0.0106736
1.08196e-06
-0.00245667
1.64064e-05
0.00357498
8.44376e-06
-0.0536825
-0.138096
-0.0173678
-1.02506e-05
1.4858e-05
7.80985e-06
0.00964246
-0.0442594
8.14155e-05
6.67489e-06
9.28064e-05
0.0507851
8.79325e-06
1.62594e-05
-2.36555e-05
0.00175349
0.00363778
4.61643e-06
0.00555024
-9.93304e-05
8.20367e-06
-0.117291
0.000553883
0.0216129
0.0158788
-1.66778e-05
-6.22446e-05
-3.24098e-06
-3.15865e-05
-1.34726e-05
-0.00138408
-8.2584e-05
-8.58356e-05
2.93126e-05
0.00287726
-0.0540389
2.57499e-06
0.000303709
0.197759
-0.0463261
-0.000115202
6.54948e-06
0.00442393
0.0100504
0.00202551
-9.39247e-06
0.138757
0.000835988
1.38491e-05
0.0210779
1.58418e-05
-1.78133e-05
0.000545104
-2.17426e-05
-0.00588364
-1.85528e-05
1.21106e-05
-2.95475e-05
3.10558e-06
-0.0927226
2.15911e-05
1.30768e-05
0.000657525
4.69597e-05
-3.434e-05
0.0016543
-3.60582e-06
6.4898e-06
-6.64882e-07
-2.84405e-06
0.00634588
0.0292146
-0.00131007
-0.00258009
-0.000164506
-0.00135549
0.000202039
0.00118912
-0.0703004
-0.0568448
-2.72871e-06
-7.59736e-05
8.15922e-06
-1.22742e-05
-4.41545e-05
-0.000297575
0.00260197
0.000663602
-7.72046e-05
6.85964e-06
8.87882e-06
0.000626203
8.37546e-06
-1.34311e-05
-5.46161e-06
0.0247027
3.61457e-05
0.0355071
5.25459e-06
0.00208885
-1.06152e-05
-4.00721e-05
-3.46949e-05
0.000295253
2.05644e-06
0.000580426
0.0190199
-2.98481e-05
0.0201801
0.00112043
-0.000209752
3.71967e-05
0.0254363
0.00046471
2.14024e-05
-4.49297e-05
1.4154e-05
0.0109616
1.39431e-05
0.00171863
-0.000616826
0.000513393
0.00512943
-0.017882
0.000648256
-0.0587487
-4.20449e-05
5.99548e-06
0.0216458
0.00947982
4.12873e-06
7.88482e-06
0.0277453
1.49766e-05
0.00112808
-2.82519e-05
-6.83851e-05
-6.20058e-06
7.67521e-06
0.000431809
0.0182443
0.0187995
3.04835e-05
-2.59989e-05
1.30532e-05
5.92436e-06
0.000208408
4.62009e-06
0.00187174
0.00122996
-1.18461e-05
-1.69529e-05
1.0292e-05
-0.000144975
0.00100321
0.002637
-0.000886132
3.33621e-05
-0.0182958
0.000829597
0.0016252
-0.125603
7.03208e-06
0.0111418
6.35887e-06
0.0252348
0.0027779
0.00992613
-0.165712
0.000178275
0.000193636
0.0237659
-2.54203e-05
0.0170606
-3.30682e-06
7.0216e-06
5.51157e-05
9.64209e-06
0.000107456
0.00360057
-7.80801e-05
0.156554
3.08305e-05
-2.04894e-05
-3.09351e-06
-4.47117e-05
7.10126e-06
0.000383125
0.00100859
0.022099
8.74861e-05
2.55382e-05
6.51904e-07
-3.41808e-05
0.0029075
-2.20352e-05
-4.54381e-05
1.4714e-05
-0.000371911
0.000117835
-0.000254442
-0.000310102
0.00998641
3.37571e-05
0.0001249
8.71286e-06
5.49658e-05
0.00207646
-0.00166207
-0.000123897
-1.44504e-05
-0.0736798
8.5848e-05
-8.64557e-06
0.00023226
0.0190622
-0.0641028
-2.77054e-05
1.43253e-05
0.0196251
-1.20402e-05
1.16091e-05
2.2984e-05
-0.273105
0.0109073
-0.00020027
-0.0976706
-0.215346
-0.00012311
-0.000306014
0.000209269
-0.0289426
3.83107e-05
-0.0466392
-1.48913e-05
-0.0600908
0.000373985
-0.131559
0.000108025
-3.48282e-05
0.0153209
7.76894e-06
-3.26339e-06
0.0667332
0.00952334
0.00423235
0.00182684
4.11804e-05
1.36312e-05
0.00896041
-6.63263e-06
1.19627e-05
7.2704e-06
0.000155536
8.69336e-06
-0.000135209
-0.000116016
-0.167215
0.00525928
1.11443e-05
0.0181973
-9.49972e-05
0.0192371
0.0193912
8.2913e-06
7.7554e-06
5.16016e-05
-0.0315291
0.00281412
0.000385811
0.0190931
0.012133
-0.0726464
-8.12441e-05
0.00899734
-0.000432146
0.000358315
0.00390858
-7.44648e-06
-1.98102e-05
6.28401e-06
-1.88224e-05
1.4291e-05
0.000133327
0.017356
-0.000139415
0.00104997
-0.000443175
0.0039278
0.172116
-0.0124141
-9.56629e-05
-0.0453852
0.000805211
0.000842704
1.16628e-05
-2.57616e-05
0.000674684
0.0220845
-5.7653e-05
-0.0246004
0.00426767
-5.49263e-06
8.33416e-06
-0.000139241
-4.31785e-05
-1.37943e-05
0.00046166
0.0117726
3.35136e-06
7.67913e-06
-3.0629e-06
6.16351e-06
0.00131562
0.019277
-8.7595e-05
0.00649287
0.000346199
7.13538e-06
0.00200669
-7.86571e-05
0.000231785
0.0017401
0.00409374
0.00945119
-0.0670607
0.0182287
-2.08335e-05
0.0084641
0.0183508
0.000883209
-0.00604888
-3.49259e-05
-1.23479e-05
4.6742e-06
2.60114e-05
-0.0729845
0.000348097
7.43752e-06
3.29394e-05
0.0327238
0.019132
-5.58914e-05
0.000111307
-0.00302871
-0.0126014
9.48649e-06
4.85757e-06
0.000439542
1.00069e-05
7.6791e-06
-0.0434756
6.25444e-06
0.00331028
0.00140198
-0.104868
2.66839e-06
1.19315e-05
0.00161764
-8.01591e-06
2.41807e-05
-0.0590276
-0.180893
-4.60472e-05
-0.000184573
0.00116805
0.00284199
-0.0218192
-0.0665744
1.72994e-05
-0.00567862
-0.00788254
7.45983e-05
1.45965e-05
-0.00235193
3.27752e-06
2.38202e-05
0.0177284
3.02098e-06
0.000453435
3.11354e-05
-7.31386e-05
-2.38922e-05
-8.08404e-06
1.13609e-05
1.2132e-05
-0.126514
2.88692e-05
0.00194864
0.0337239
9.35963e-05
0.000604527
-0.00779234
-0.137016
-0.0816884
3.21014e-05
3.44396e-05
7.23812e-05
1.54031e-05
0.000961697
0.0720807
1.08722e-05
-0.000806981
0.0208251
9.40503e-06
0.00113397
0.000666882
0.0012734
0.00144819
1.61322e-05
0.00171043
0.00190965
0.00213973
0.00246996
0.00157528
0.000725944
-0.000143123
1.49019e-05
0.000105297
0.00109235
3.42974e-06
0.00451139
-0.0411784
-0.00178637
0.0149811
1.87629e-05
-1.83231e-05
-0.112462
-0.107131
1.16298e-05
-2.01792e-05
0.000817244
-0.0459009
0.0178701
-1.21514e-06
-0.000105777
2.94439e-05
0.233375
0.0182182
3.64935e-05
-0.00144408
0.0191354
0.00115942
-0.0291759
0.000526685
-0.203622
-0.0304839
2.39731e-05
-0.117076
0.0218363
-4.69853e-06
0.000250094
0.000175974
-6.50021e-05
-1.78701e-05
-0.0597519
0.00302674
-2.8227e-05
-3.232e-05
-0.00304894
-0.000730384
0.000254004
-5.02227e-07
0.00265817
0.00111553
0.00815624
0.022434
8.01632e-06
9.65564e-06
1.09838e-05
-7.86385e-05
-0.0726585
0.0279451
-0.0199037
0.000991842
0.00278422
-0.0125726
-7.7473e-05
1.28239e-05
0.0192051
-3.57832e-05
-0.0477782
-2.77363e-05
-0.0224763
1.23731e-05
-1.91112e-05
-0.00816847
-6.54949e-06
0.00143215
-0.0268833
-1.78827e-05
-3.24075e-05
1.45267e-05
0.00288043
0.0158817
0.000393682
0.0179949
-0.000259044
-9.07231e-05
6.85059e-05
0.000257403
-0.0862557
0.12044
0.000121004
0.00272143
0.00160731
-0.044217
8.17787e-05
-4.45434e-05
2.32654e-06
1.15666e-05
0.00116097
-0.00136315
0.0885943
-3.05769e-06
0.00200883
-4.03292e-06
0.00225222
-0.0860824
0.142492
5.77545e-06
1.43477e-05
1.2278e-05
0.0193125
-0.000160857
-0.0110185
0.00119244
0.0015491
0.00272651
1.28332e-05
0.000168365
0.000756351
0.000727846
0.000311235
7.93909e-06
0.00176787
-2.13242e-05
-8.75747e-05
-0.000290868
-0.00416705
-0.0015713
-1.98319e-05
0.000185867
-0.00103859
0.251609
0.0309785
-0.121241
-0.0952075
-2.09432e-05
0.000296412
-3.82919e-05
0.0018413
-4.38444e-05
0.000194526
-4.63125e-05
0.000229675
0.013908
-0.0281902
-0.000271442
-0.000624165
0.0210385
0.00176591
-4.19274e-05
0.0716693
0.00159429
-3.40001e-05
-8.70481e-05
-0.086028
5.15423e-05
0.000221392
-0.000964598
-0.0548956
0.0178491
-0.000222986
-0.171275
0.0193892
0.0194901
-0.0169948
7.80251e-05
0.00131356
0.00109791
-0.146629
0.00218776
1.06987e-05
0.00464537
-8.16195e-05
0.00508368
-9.32283e-07
0.0920571
-0.000580612
0.00431752
6.4002e-05
-0.0119539
5.17391e-06
0.0188706
0.0010733
0.00765545
0.0354394
1.3577e-05
1.46597e-05
0.0187625
-0.125562
-0.00421943
9.58432e-06
-1.21908e-05
-0.000116474
-0.128848
-0.00191655
0.0222717
1.02108e-05
0.0227971
0.000204442
0.0197635
1.04842e-05
-0.00156491
0.196068
-0.000279269
0.00113453
1.38137e-05
2.71803e-05
8.50074e-06
-0.00313503
4.72269e-07
7.62261e-06
-0.0353773
0.00877917
1.16303e-05
-0.0965447
8.45224e-06
-2.48506e-05
8.26565e-06
-2.27213e-05
9.78514e-06
0.00251653
-0.015817
-1.22075e-05
-0.193894
0.000709666
0.00039505
0.0100031
0.00105576
1.40564e-05
0.000147866
1.2608e-05
0.00205865
-0.00010083
-0.103329
-0.00017684
-0.019906
0.0029276
0.000375028
0.000865709
0.0241458
1.25088e-05
0.0176411
0.000245914
0.000567735
-0.000215214
-7.54622e-06
-0.000290382
0.00269047
8.58464e-06
-0.087915
7.32792e-06
-0.164986
0.00200477
-0.0205556
0.00279655
0.00226122
-0.0385354
6.34442e-07
-4.48449e-05
0.000652125
3.52249e-06
8.51865e-06
8.99808e-06
7.56776e-06
-3.78772e-06
1.09474e-05
2.69325e-06
-5.68085e-05
4.90134e-06
-5.94627e-06
-3.98092e-05
-0.000273923
0.00151865
6.2985e-06
-0.144967
8.80152e-06
7.94433e-06
0.00118587
0.000312926
-6.24025e-05
-5.92899e-06
-0.25918
2.77606e-05
0.0186721
3.00463e-05
0.000667079
1.08806e-05
-2.50853e-05
-0.000666862
-0.0261541
0.000766152
-5.68989e-05
-5.54276e-06
0.00878788
8.48109e-06
1.12753e-05
0.000875814
3.03323e-05
0.00111013
0.0208755
0.00109573
0.000621693
1.72892e-05
0.0191294
-1.58123e-05
5.17089e-06
0.000175941
-0.00337447
0.000602244