/*--------------------------------*- C++ -*----------------------------------*\
| =========                 |                                                 |
| \\      /  F ield         | OpenFOAM: The Open Source CFD Toolbox           |
|  \\    /   O peration     | Version:  v2012                                 |
|   \\  /    A nd           | Website:  www.openfoam.com                      |
|    \\/     M anipulation  |                                                 |
\*---------------------------------------------------------------------------*/
FoamFile
{
    version     2.0;
    format      ascii;
    class       volScalarField;
    location    "450";
    object      ddt0(omega);
}
// * * * * * * * * * * * * * * * * * * * * * * * * * * * * * * * * * * * * * //

dimensions      [0 0 -2 0 0 0 0];


internalField   nonuniform List<scalar> 
13917
(
0.000484597
2.37482e-05
0.0468347
0.000223974
-2.60887e-08
-0.00376179
0.0107077
0.0237655
-0.212038
0.00248118
0.0166813
0.00298762
0.000232913
0.685207
8.43063e-05
9.27515e-05
2.56748e-05
0.00151584
0.00291927
-2.47309e-06
4.64531e-07
0.00260866
-1.78544e-06
0.0458015
-5.25534e-08
0.0031518
-0.0029318
0.00284909
-0.134315
0.00434009
0.000700687
0.000258041
-0.000326609
-0.000244271
1.08847e-06
0.107715
-1.88661e-06
-0.0770866
0.000417281
-0.016142
-3.54276e-06
8.0508e-07
-1.94487e-06
0.00111012
3.3801e-05
0.000138027
0.00148423
0.00274906
0.00193164
-4.85265e-06
0.000451013
6.12277e-06
0.00284308
5.41456e-05
2.5838e-05
0.000382612
0.0161546
5.0032e-06
0.000227859
2.85876e-05
-0.26876
2.35913e-05
0.443004
-2.77231e-06
-0.00691541
-0.156633
1.78515e-06
1.72331e-06
0.0217831
0.000345997
1.76689e-07
-0.189193
-0.0669073
3.32418e-07
0.00254204
0.00304359
-0.0115535
9.10278e-05
0.00146579
4.34003e-07
-6.1365e-07
1.82193e-06
-0.122599
-0.0932821
-0.111444
8.48394e-05
-1.43081e-06
0.422494
0.000433733
5.60544e-06
-0.100499
0.00356171
8.44846e-06
3.23391e-05
0.367382
-0.0173449
0.00834801
0.00218598
0.00536179
0.0271088
-3.09295e-06
-0.000381181
0.000433963
0.000133573
1.11146e-07
-0.215555
-0.0541136
0.0029805
2.68191e-05
0.000636607
-0.081495
-0.0751946
0.00377802
-0.220384
1.13372e-05
-0.0152806
-1.20625e-06
-0.00925271
-0.164944
-0.000159602
8.2045e-07
0.0227056
0.0892274
-0.000108378
-4.48194e-06
2.73681e-05
2.54003e-05
-4.58636e-06
-5.08979e-07
-0.0209642
-0.0566031
9.39778e-06
3.41961e-05
6.79672e-07
-0.0380152
0.0547193
0.000442974
-0.0578272
1.04151e-06
-0.000237309
0.0231609
6.328e-06
1.15265e-05
0.00129388
1.86182e-06
-0.108569
0.00607211
6.22895e-06
4.93442e-06
0.000246465
0.00227603
-0.0201432
0.00512958
-0.000135575
0.000317521
-0.118256
0.000229024
0.601027
0.0707173
-0.0174259
6.98416e-05
-0.0027531
4.78365e-07
0.00824119
0.00382548
0.00526765
0.000130881
0.00234896
1.75596e-05
-0.000391251
0.000254104
-0.113332
0.00381739
3.74563e-05
-0.0359918
-0.00155462
-0.0662947
-0.00219015
-0.0921572
4.02903e-06
0.00135444
0.000733775
6.52932e-06
-1.57963e-06
0.000111199
0.0523298
0.0100982
-0.157734
0.000779671
0.00629659
0.162695
-0.128891
0.0304883
-1.48915e-06
0.028749
-0.000224838
2.02761e-05
8.85249e-06
0.00624752
0.495265
0.000451826
-4.97866e-06
0.00225673
0.00236241
-0.0436814
0.354597
9.44611e-07
5.71344e-06
0.00223257
0.0914401
9.96136e-06
0.0123879
0.000132424
0.00637068
-1.58587e-07
0.256198
0.00191566
-0.0577544
-2.63337e-07
-0.257867
3.55111e-06
0.00340844
-4.35615e-06
-0.0895625
-0.227266
0.000107395
-0.523186
0.000339419
-1.77934e-07
0.120143
0.00375986
0.000777772
0.0825287
0.02859
-3.64427e-06
0.000282829
-0.122144
-0.101223
-5.23481e-07
-3.09615e-06
-0.0544713
0.00764625
-3.86013e-07
0.0175897
0.00280875
-0.00533305
0.000477448
-1.87526e-07
-0.000568749
0.0183421
4.47442e-05
0.00483514
-0.0382911
2.53992e-05
4.23133e-06
0.00348695
0.0170375
0.00466553
0.000174442
0.000129321
-1.17705e-07
0.281462
-0.237953
-0.0139442
-9.46868e-07
-0.0522692
0.11888
0.384561
-0.00390054
0.00337116
-8.30739e-08
-5.41502e-06
0.00155083
-0.0595701
0.00548093
0.000213433
0.0887045
0.00171789
-9.11806e-07
-0.176786
-2.70322e-06
-0.0419532
0.000410424
-1.06041e-06
0.000152396
-0.000268663
-0.00248315
0.0190283
0.000286753
4.63036e-05
1.23218
0.0799081
-0.273623
-3.38974e-07
0.200239
7.87445e-07
4.66215e-05
-1.32466e-06
0.701278
-3.9957e-06
0.00265836
0.000436841
1.70317e-05
0.0022711
7.5894e-05
0.00148625
0.000496432
0.00324135
1.30324e-05
3.80828e-06
-0.078259
0.0430881
-1.11449e-06
-4.6098e-06
-0.167156
4.92402e-06
-0.0860268
1.20137e-05
-0.104178
9.91242e-05
0.039569
0.000998276
0.00335027
6.30873e-05
0.0264347
0.206183
0.000154332
0.00786379
0.180604
1.589e-05
-0.0523686
0.00297569
0.15294
-8.09782e-05
-0.0212787
0.000308169
-0.119626
0.0897189
0.00142613
-0.000445865
0.0204581
1.30275e-07
0.000606215
-0.0934727
7.95363e-06
6.21421e-05
0.0920775
0.0132245
3.83539e-05
0.0330085
-0.199152
-3.74624e-06
-0.265591
0.0459877
-2.96588e-06
-1.71859e-06
1.25734e-06
4.66479e-06
0.957037
-0.0705048
-0.00862641
-0.0883873
-4.00296e-07
0.00469516
-0.118183
0.0015019
-0.00371036
-0.0889521
-0.23357
-2.89467e-06
-0.00517831
-2.24068e-06
-0.240262
2.83269e-05
-0.0042596
0.00279968
0.000325373
-2.39701e-07
0.00223602
0.00327376
0.002686
-0.0872792
-0.109662
-0.122323
-0.000230881
0.00171982
-3.27086e-06
-0.104386
-0.0076859
7.34255e-06
0.364993
3.58458e-07
0.353073
9.87233e-05
7.6833e-08
7.79169e-05
0.0381149
7.6172e-05
0.0111718
-0.0797303
0.00931695
0.0698188
1.63119e-05
0.332507
0.0342236
-2.16997e-06
0.0149352
7.45648e-06
6.02959e-07
0.00391164
-5.87264e-07
1.27936e-06
-1.52183e-06
0.343693
4.85782e-07
-0.043569
0.0813496
-0.0941539
0.0247926
-0.0109479
-0.0370772
0.00145151
-6.1124e-07
0.0162876
0.000391585
0.00029224
-1.35426e-06
-0.0988162
0.035819
0.109245
8.82113e-05
0.00430229
-0.000468567
0.000459478
0.00283255
5.46258e-05
-0.00855368
2.71878e-05
-3.69277e-06
-0.110923
-0.0652696
-0.06948
0.00210722
-0.0701524
-0.071027
-0.105124
0.00552651
-1.39913e-06
0.00188924
5.72812e-05
7.09275e-06
0.653302
0.00157668
1.58804e-05
0.00114469
0.00130423
0.0776041
-2.03393e-06
0.00724765
-0.0538267
0.0556812
-0.020659
4.49638e-07
7.00517e-06
1.97954e-05
0.000247641
-2.37538e-06
0.103697
0.0322743
0.000151351
-0.112305
0.000366164
0.00814287
-0.124328
0.0895726
0.00895798
0.0315154
0.00707466
0.00153924
0.0117738
0.00169116
0.0100021
-0.00959595
0.00195026
0.0041403
3.58605e-06
0.116284
0.000499732
1.38536e-05
0.00032697
0.000102442
0.0286217
-0.206232
3.77978e-06
-3.70119e-07
0.12916
-0.06848
-8.36552e-07
-0.0628544
0.000129691
0.0117533
4.13425e-06
-0.0379645
0.370034
0.000250126
4.25873e-05
-0.0151732
0.0193314
-0.117681
-4.08353e-08
-0.00247543
-0.0012169
-0.172307
1.38146e-05
-0.103905
-0.269928
0.001547
-1.54099e-06
2.25718e-05
0.00311631
0.785551
9.71242e-06
-2.13993e-06
-4.53285e-06
-4.4939e-06
-0.0408904
0.984397
0.00151227
0.00639535
-3.12985e-06
-3.30209e-06
0.0044493
-0.216629
0.000610898
1.93565e-05
2.83921e-07
1.01074e-06
-0.181578
-0.142084
-1.30256e-06
8.20245e-07
-0.00633288
0.00167016
0.00098221
6.93317e-06
7.44383e-05
0.000201781
0.00406378
-0.153066
0.00676425
0.0197364
0.00400576
0.200377
0.00305709
-6.33663e-07
-0.00283664
1.85668e-06
7.09357e-05
0.000271651
0.108711
-0.00182638
-4.29349e-06
0.0688414
0.00435396
0.0137513
0.00408165
-0.0013059
0.00142269
-1.62185e-07
-0.276687
0.107648
-0.0811107
2.27852e-05
0.000512939
0.0107732
-0.101617
-0.258998
0.00239106
0.0032334
9.51404e-05
0.00014886
7.09532e-06
0.000573633
-5.9882e-05
3.52823e-06
0.00199128
-0.0071956
-0.0766198
-0.109908
0.000109374
0.0077278
0.757831
7.19571e-05
1.09377e-05
-0.000294421
-0.189555
-0.101226
0.00586374
-6.83869e-07
-0.27512
0.00311692
-3.92915e-06
0.000446938
0.00393669
0.000250279
0.00424609
0.00590022
0.0104738
0.00140021
-0.274623
0.000120127
0.0594764
7.79654e-08
-1.38654e-06
0.170911
-0.196811
0.626443
0.000119524
3.84134e-05
9.27177e-07
0.00173085
0.00269571
0.00470867
0.000161995
0.00802347
0.00218184
4.88631e-06
-1.20105
0.00468065
-0.0064371
-3.9675e-07
0.00920548
9.91991e-05
-0.145265
0.00228122
-0.00159308
0.000562753
-4.624e-06
9.29094e-06
2.92104e-05
0.00344146
0.000150295
-0.0166903
-0.0710958
0.00226512
-3.85295e-06
0.0070521
0.52037
0.31213
4.22881e-05
3.66444e-05
-1.90536e-06
0.000743469
0.00024015
-0.259058
7.41825e-08
0.0714992
0.000711145
0.0151923
0.00253517
-0.065339
-0.000184319
2.02695e-05
-0.0446099
-0.0263792
9.03088e-06
0.00026315
0.371407
0.0163284
0.00574193
-1.35891e-06
4.55089e-05
0.0198085
0.000340874
0.00251867
0.00319029
1.11571e-05
0.00244824
0.0432563
4.06328e-05
0.000161174
-4.30443e-06
0.0704837
7.15981e-07
8.47072e-05
-0.103725
5.13061e-05
-0.165094
0.000308648
-0.000306373
-4.21185e-06
0.00137784
-1.29334e-06
0.00114297
-4.86529e-06
0.00327478
0.000128918
-0.478288
0.10889
-0.21773
1.48429e-05
-7.77886e-08
0.00257985
0.000796039
0.0450848
-0.245893
0.00142202
3.60048e-07
0.31929
0.0646941
-0.00570858
-0.0251598
0.00158072
0.0231844
0.000416777
0.00157589
0.00445037
0.00286185
0.00138468
-0.057462
0.00128533
0.000212972
0.00445195
0.000148679
2.03862e-05
0.000721911
0.000745817
0.000221557
-1.0948e-06
-4.00744e-06
0.00223417
0.000166674
0.0023295
6.63179e-07
1.06785e-07
6.55128e-07
6.73784e-05
5.30364e-06
0.000195886
-4.3313e-06
-0.0345753
0.00269865
0.00203415
-2.98994e-06
-6.68621e-08
8.95921e-06
0.00162893
6.92667e-06
-0.195873
0.00404107
-0.232937
0.000726748
0.00503509
7.84946e-05
5.53709e-07
-4.84629e-06
7.6383e-05
-0.14142
9.04942e-08
-0.00249751
0.000209537
-0.109901
-0.00292605
0.0038424
0.0133832
2.02096e-06
2.24052e-07
0.00277239
1.71481e-06
1.67699e-05
-0.161617
4.33444e-05
-5.5434e-08
0.000384889
-3.29247e-06
-7.89635e-07
0.000255898
0.00196009
0.117799
0.000380401
4.10433e-05
-4.09259e-06
-0.123947
0.00128163
1.56492e-05
2.3678e-05
-0.176676
0.440338
-0.125263
-0.000229839
0.000211142
-3.67991e-06
-5.76697e-07
0.00196062
0.000424188
0.00107444
0.000742314
-0.0339764
3.38194e-05
4.39147e-05
-0.14236
3.03365e-07
0.000538831
5.7847e-06
-3.88792e-06
0.000547552
-0.00602359
6.8048e-05
-0.175706
0.00172291
0.0048011
-2.23204e-07
6.91876e-06
0.0053494
0.0176213
-7.07835e-07
0.645852
6.05294e-06
0.000643804
3.07517e-05
2.23704e-05
1.10799
3.35783e-05
0.345379
0.000628691
8.31534e-07
5.75267e-07
2.19882e-06
6.36409e-07
0.000150913
-0.0149149
3.30441e-05
1.42728e-05
-0.189716
-0.129757
0.00146533
0.00072211
0.00236964
0.000288772
6.65864e-06
-2.54606e-06
-0.0308786
0.000923572
-2.57731e-07
3.81284e-05
-0.244577
0.000953587
-0.108762
4.31003e-07
7.60794e-06
0.258568
0.0009161
7.55873e-05
-0.13554
0.0097627
6.25969e-07
0.00686913
-4.82773e-06
3.0554e-05
-2.81682e-06
-0.0700252
6.07099e-06
5.06129e-05
6.58742e-06
0.382838
0.000340568
0.0123681
0.00741481
2.51637e-05
7.78566e-05
-1.6098e-06
-0.0950544
-2.6228e-06
3.86135e-05
8.63276e-08
0.0058905
2.76578e-07
0.00984104
-0.0809445
0.10627
-7.41193e-05
0.116451
-0.0963882
4.12741e-06
-0.512506
-0.229286
-0.0901069
-0.0141383
-0.194484
-0.158862
0.00584648
2.42172e-05
-0.00637591
0.000896887
-0.0357255
1.16509e-05
8.54447e-06
1.55904e-05
-1.98263e-06
0.000367565
0.000537105
0.0386062
8.15659e-06
8.39638e-07
-0.113236
-0.00217196
2.74495e-06
-0.00256129
0.000488312
4.94306e-05
0.139011
-0.00746932
5.77083e-05
0.000332563
-0.030784
-0.115699
0.00774918
2.81914e-05
0.0187965
0.00451174
-0.0989355
-0.244184
0.00356853
4.14255e-06
8.12393e-05
3.51473e-05
8.27795e-06
7.3402e-05
-1.41196e-06
0.000206397
0.000442651
-0.119233
0.00677609
5.11001e-05
0.00560829
-0.114612
0.000528896
7.2518e-06
0.0571532
1.44575e-05
1.4855e-05
0.000240421
-0.136765
7.2926e-07
-1.94769e-08
-0.00345221
-0.000146972
0.922029
0.00484184
0.134224
1.25963e-07
0.0155507
1.03432e-05
-2.73112e-06
9.33713e-06
0.0730922
-0.0811392
1.55859e-05
6.68135e-07
7.05935e-06
0.267564
5.8738e-05
0.000538754
1.63571e-06
3.10463e-05
0.0158187
2.62956e-05
0.00149784
0.0287769
-0.0708318
2.12188e-05
0.00348749
0.000109001
-0.0556961
-0.10503
6.28831e-07
-0.0759318
0.00277181
-0.00987302
3.68325e-07
0.0327768
6.86728e-08
0.000352346
0.000484458
0.00480967
0.105901
-0.00980973
0.00523616
-0.213382
-4.66733e-06
0.29269
2.25999e-05
0.00014889
-0.0187388
7.75948e-06
3.23571e-07
6.56026e-05
4.32216e-05
-0.111066
1.07231e-06
-1.81127e-06
0.00237167
0.000769105
0.00177181
-0.0955615
0.00429212
-0.136444
0.00269787
0.000904653
0.00155583
-0.0325511
0.00153155
-0.286775
-0.00356038
0.00037192
2.80019e-05
0.0111968
-0.00444202
6.01299e-06
0.00319529
0.000657513
8.40893e-05
0.000401292
4.7343e-05
0.00047106
5.33708e-07
0.00152062
-0.00267586
-2.05372e-06
0.00145036
1.71541e-05
0.000950754
-4.78752e-06
6.45141e-05
0.00186779
0.000178981
4.99451e-05
1.61732e-05
0.0522422
0.00162516
-0.143196
1.434e-06
2.22426e-05
0.00221688
5.44901e-06
0.00223836
-0.00119017
8.47983e-05
0.00337245
1.69447e-05
-0.226022
6.62846e-06
0.00139639
0.0520272
0.176206
-4.98582e-07
7.30208e-05
0.0244168
-2.32493e-06
-2.09922e-06
-0.0985113
-0.0881352
0.000207889
0.00617803
-2.70497e-06
5.0985e-05
0.0888072
7.40557e-05
1.83315e-06
0.445984
2.08221e-05
0.73256
-7.92177e-07
1.18636e-06
1.47609e-05
0.00450708
-0.0302883
5.84155e-06
1.44048e-05
-5.93167e-08
0.000115781
-4.17621e-06
-0.297168
0.00117097
-1.87433e-09
-0.0767814
-0.000852731
0.563201
-0.0790747
-0.0043752
1.43605e-05
8.27602e-06
8.6363e-06
-0.129669
0.000109293
-0.0366123
-0.0933786
5.85021e-05
-0.0201731
0.000447105
0.00161953
0.00340957
-0.000216599
-0.164911
0.119537
0.0018807
-1.15721
-0.104895
0.00284958
0.000100544
-0.0251832
0.000453416
1.29731e-05
0.000147225
-0.302903
0.000297453
3.57144e-06
-0.00047789
0.00188064
0.000416603
-0.0296861
8.44713e-05
-0.177441
0.00151102
-0.00991299
0.00430182
0.0220609
0.000455038
1.49012e-05
3.62874e-05
0.0841817
-1.34167e-06
3.7735e-05
4.63328e-07
7.36003e-05
1.04424e-05
-0.000192249
0.00874062
-0.0185543
-0.00522856
-0.00644882
0.135555
0.15503
1.23666e-05
0.432122
0.0933685
2.98997e-06
-2.13596e-06
0.000551251
-0.125702
4.06812e-07
0.00231636
-0.446849
6.22648e-06
2.79106e-06
0.000166944
2.37565e-05
0.00331626
-0.000310794
-4.26777e-06
-0.345783
0.0155493
-0.000600107
0.291951
0.00295274
0.471095
5.14466e-05
0.000311696
0.179764
0.293245
0.00370127
0.00419728
0.000292591
6.32374e-07
3.46983e-05
2.22072e-05
1.60788e-06
1.06671e-05
0.000776
-2.76483e-07
0.00878235
-3.3652e-06
0.000425961
2.06212e-05
0.0034865
0.0076943
0.566218
3.39545e-06
0.0225522
3.4765e-05
0.178568
5.73725e-07
-0.000239672
-5.25353e-07
-0.0034613
-0.048452
0.00566901
3.86569e-07
0.00742222
1.01109e-05
0.00029187
-0.0866521
2.58867e-05
8.83411e-06
0.000770836
0.000459685
-0.0173244
4.4017e-08
0.000257845
0.000175384
-1.10399e-06
-0.0008986
3.28375e-05
-2.93657e-06
2.94121e-05
0.0222337
0.000156451
0.0878038
-0.0982056
0.00136592
-0.0345128
0.00014275
-2.85044e-06
0.000171576
-0.0230382
0.000192212
0.000251439
0.00161057
-1.25513
2.94471e-07
-0.0645731
0.00157286
0.00192529
3.36255e-06
3.26826e-07
0.00549426
9.08003e-06
7.63021e-07
0.00110744
1.15433e-05
4.2668e-05
0.000335921
0.00339323
0.0114903
0.0218562
0.000390314
0.00404579
0.181314
-0.0915875
0.00138192
-0.116075
-0.122586
0.00101285
-0.280417
9.38236e-06
-3.13216
-0.04095
1.53975e-05
-4.98431e-07
-2.81231e-06
0.000108856
0.000606321
2.29094e-05
1.21515e-05
0.00347972
0.000125735
2.72846e-05
-0.0828924
-0.000108244
0.000228173
-0.214968
7.49756e-05
-0.0462104
0.000281785
0.00206973
3.39628e-07
-0.018253
-0.0914836
1.04198e-05
0.000118401
0.0458079
-0.000151517
-0.114479
-4.14285e-06
2.12618e-05
-0.0632433
0.000108457
-0.000630731
-0.0480591
9.2328e-07
0.00142779
0.000316171
5.42059e-07
-4.9155e-06
0.0153939
-0.100841
3.27931e-05
0.000168634
5.98469e-06
0.000202652
0.00485833
0.0159881
2.26098e-05
-3.42817e-05
0.209905
-0.00904825
0.106874
0.000100962
0.00427768
0.00372157
-0.000140928
9.56974e-08
0.00277047
-0.0861129
2.22208e-05
0.000345345
0.0197515
0.00307896
0.0510646
0.000142058
1.52811e-05
5.85979e-07
5.33087e-07
-0.121554
0.0019867
0.00021588
0.000128276
0.000191376
7.8933e-07
4.38877e-06
1.48542e-06
0.00388174
0.0014521
-0.056903
0.000324011
-0.0834925
0.009295
0.000103913
0.00167384
-3.06061e-06
0.000132363
-0.0159593
2.01805e-05
8.23765e-05
0.00188672
0.0062368
-0.00731947
0.0679514
0.0130346
1.41017e-05
-0.0622603
-1.51828e-06
5.11377e-05
0.00871828
7.48224e-07
4.484e-05
0.0232975
-0.184983
1.97491e-05
0.153031
2.1135e-05
1.43658e-05
8.22909e-05
-0.000890967
0.000277541
0.000281114
-0.319099
7.44198e-05
0.0160118
-0.0123061
-8.12145e-07
0.00162084
-4.06504e-06
-0.102155
0.00209746
1.86424e-06
0.0599617
0.00172271
0.0012812
1.04221e-06
-0.0971132
0.000239188
0.0347844
0.000152395
0.000596774
-0.0267947
1.37063e-05
0.0251355
5.81372e-06
0.00171952
-8.87517e-05
-8.85923e-07
-0.0951523
6.01696e-05
0.00628565
0.00139812
-0.001848
3.76861e-05
-0.00096644
1.82586e-05
0.0259054
0.000250799
-0.0464476
-0.000103148
0.00302806
1.80039e-05
0.000563734
3.58529e-06
0.00287407
0.115639
4.26508e-05
2.98684e-06
-0.00190151
0.000103053
0.372563
6.19936e-05
0.139355
-0.0110018
0.000369902
-1.64593e-06
-1.95205e-06
4.73192e-07
-8.35932e-07
0.00445717
-0.00112068
-0.00208301
0.000195353
-2.96763e-06
0.177522
0.000177912
0.000356946
0.0676047
2.65998e-06
-0.255734
0.00185052
0.000846471
0.0130813
-0.0584498
1.18678
0.154789
-0.182981
1.70531e-07
-0.0198952
-0.102596
0.0204317
-1.61851e-06
5.15995e-06
0.00763442
0.0332009
-0.0266585
-0.0674768
8.9722e-05
0.00327725
0.00102955
-0.019723
-0.020664
0.00158502
0.00763678
9.23189e-05
-0.000309497
0.00354849
-1.83481e-06
0.00340346
-0.183346
3.72818e-07
0.451356
4.15321e-08
2.97412e-05
-0.00594916
-0.11002
-3.59312e-06
9.88119e-05
5.30076e-05
1.93833e-05
0.00165942
0.032649
0.000163278
-2.69253e-06
-2.3507e-06
0.001557
0.000321239
0.000289925
0.841031
1.50988e-06
-0.130075
-0.124385
-0.155221
0.00234931
0.0011039
0.880833
0.000812605
0.0035386
0.830922
-0.166113
3.00878e-05
-0.230627
-0.00901939
-3.35513e-06
-1.15604e-06
-0.00120909
-0.111124
-0.209336
2.57915e-05
9.48152e-06
-0.0678582
0.696822
-0.120913
0.000127441
0.000193837
-0.000686376
1.22638e-05
-0.0809971
-0.13336
0.305582
0.671082
3.90369e-06
6.70769e-08
-4.50867e-06
-0.000327705
0.00463612
0.00147029
0.000386395
6.95788e-06
0.00413217
-0.126513
0.00155044
-0.118315
-0.100975
-0.1057
-0.00471007
2.6725e-07
-1.49035e-06
0.157063
2.06632e-07
1.26696e-05
4.38812e-05
-0.00527651
0.000941969
-0.176558
0.00427054
-6.03504e-07
-0.238334
0.000631119
9.94159e-06
-0.106183
-0.00145283
8.56272e-05
5.91657e-05
-0.0551642
-0.114959
4.31867e-07
-0.202076
0.197007
-0.145647
1.28144
0.00241419
3.28929e-06
7.08816e-05
0.733218
0.000265862
0.164572
0.000684427
0.381263
0.436221
2.89256e-05
-2.75434e-05
4.67352e-06
2.25078e-05
-0.113613
-0.0694516
9.17926e-07
-0.0939865
0.00160239
9.35725e-06
9.52204e-05
-1.56263e-06
0.0169862
5.06564e-05
0.0008762
0.0018683
3.3545e-06
-5.09267e-06
-0.0310819
0.103034
0.000949881
9.80204e-05
0.000757655
3.04414e-06
0.000112956
0.00051696
-0.14657
-0.0287695
-0.112699
-1.1612e-06
-4.60012e-06
2.6614e-05
0.00465217
-1.02932e-06
2.93311e-05
0.017999
0.0024668
0.893808
1.44632e-05
-0.117936
-0.0250132
-4.66013e-07
-0.155495
0.00689182
0.00136067
0.00711434
2.38539e-05
-0.107842
-0.00013367
3.14509e-05
7.45371e-05
1.0177e-07
0.00872402
1.88397e-05
0.000135957
0.000757719
0.00428261
-0.038398
-1.46952e-07
-5.14627e-06
0.000114958
2.12857e-05
0.00531046
8.03035e-06
0.0010004
0.000174719
-0.0741032
0.000117366
-0.0706351
-4.95112e-07
-0.231269
5.54011e-05
3.65413e-07
-0.174367
-0.251632
0.0754011
0.277885
0.000859089
0.00118037
1.39431e-06
-0.0556368
1.35806e-06
-9.86422e-07
-0.00453055
0.00266306
-0.194364
-0.0982596
0.00452263
-0.206502
0.00441666
0.697991
1.55863e-05
0.000256415
0.000568652
-0.1247
1.96883e-06
-0.103782
0.0126573
6.64858e-05
2.81298e-06
6.97246e-06
-0.0957923
0.00382612
0.000156957
-1.24129e-06
0.000115852
0.00030276
0.000984998
0.299009
0.0124434
-3.21763e-06
-0.00139432
0.00325282
0.0211904
0.00205066
7.1094e-05
0.000151334
-0.229251
-4.84873e-06
0.00230541
0.0953469
2.94461e-05
0.000180284
0.0258263
0.0189436
2.38595e-05
0.109187
0.000190214
0.272775
0.00157435
0.000212614
0.000114109
-0.108319
-3.06968e-06
0.000694369
0.00905517
-0.121326
0.00115162
0.0025794
0.000394455
0.000122178
7.13704e-07
-0.126838
0.000468956
3.65387e-05
0.000568427
-2.68293e-06
-4.65159e-08
-0.00330211
-6.69617e-08
-2.59844e-06
8.13956e-06
0.00888335
5.30416e-06
0.000312436
0.0037322
0.0107942
0.00238333
5.97849e-07
0.0173728
-0.177342
0.0163227
0.00207743
0.000168194
0.0138959
0.104335
0.0136048
-5.11663e-08
-0.153541
0.11635
-1.89953e-08
0.000168641
-5.23897e-07
-0.0128581
0.000748914
5.02359e-05
0.0141
-0.105473
-4.32863e-06
5.67561e-06
0.0526802
-0.0303456
0.00271306
8.23006e-07
-0.23059
0.0134584
-0.00419789
-1.16198e-06
-0.134099
0.00332169
0.000602714
-0.100239
0.000340244
-4.67169e-07
0.000524053
0.0100617
0.000781532
0.0544227
-0.129008
3.08993e-06
-0.169339
-0.112379
-0.098481
-2.67846e-07
-0.00541108
4.75759e-06
3.25295e-06
-0.147472
0.227479
0.0841065
0.348066
0.000222035
0.00128992
7.76296e-06
-0.125538
-0.105904
1.55432e-06
3.58903e-05
-0.00111575
2.64124e-05
0.00175973
-0.0874277
-0.231554
0.0013114
6.26674e-05
6.05656e-05
-0.15659
6.97215e-05
0.00160441
3.33306e-06
4.54288e-05
0.144962
0.146762
0.636579
0.0183538
-1.6074e-06
0.239464
1.32282e-05
0.000767766
-0.240744
-0.121782
-8.91305e-08
1.17115e-06
0.00129504
0.000160194
5.37016e-06
-0.161507
-0.118405
1.13874e-05
3.65764e-06
3.91576e-07
-2.77702e-06
0.0154193
1.61846e-05
0.0693718
0.0032063
0.0027613
9.93318e-06
-2.72434e-05
-0.138678
0.000891274
-0.11591
-0.127894
1.45069e-05
0.0158343
8.38146e-06
0.00144946
-0.024619
-0.05266
-0.0991032
0.00254525
3.464e-07
0.00548256
1.61735e-05
0.000120416
5.999e-06
0.0806729
0.000362464
0.241579
-0.00731799
0.00127364
1.46622e-07
0.025256
0.000450527
1.63961e-07
-0.0288217
-3.00401e-07
0.00146776
0.000677736
6.33138e-06
-0.225501
6.19611e-05
0.00807465
2.73669e-05
-1.85226e-06
-0.136282
-0.0742792
9.08546e-05
-0.000633249
0.00147884
0.00118463
0.00283135
0.000463246
0.000108726
0.000288416
0.000666746
9.91821e-05
0.115117
0.000379592
0.00601908
0.00406672
0.000102208
-0.162935
-1.23027e-06
0.0615896
9.64959e-05
-0.0987046
-0.0560964
-0.164892
-0.143825
0.32117
0.000711967
4.55625e-05
-0.104053
0.00055887
1.5331e-06
-0.119866
-0.0848193
1.94211e-05
0.000216247
0.000360217
0.000364098
0.000929163
-0.0253159
-4.06579e-07
0.000851779
0.00121889
-0.000243887
-1.84012e-06
0.0048956
1.32262e-05
0.12669
4.53946e-05
0.00390247
0.000494299
0.000970636
0.00114517
0.143752
0.00260192
2.29356e-06
0.00597929
-0.047309
-0.383506
8.29446e-05
0.181233
0.000517357
-0.00364742
1.43584e-06
7.29237e-05
-0.103734
0.00213708
-0.100814
-0.0852968
0.000703806
-0.203502
8.73359e-06
6.43971e-06
-0.0653256
-0.00285588
7.83093e-05
-0.186191
0.000267893
0.00240525
0.000100042
0.0029372
3.13279e-05
-0.0639487
-0.00761881
-0.121259
0.136904
0.000262261
0.00193938
-0.102315
6.79274e-05
1.38779e-05
0.000847179
-4.78236e-07
0.139077
-0.16464
-0.189812
0.0803753
0.0024551
8.90901e-05
-0.156017
-1.50253e-07
0.00369904
-1.14338e-07
-0.560078
9.38057e-05
-0.00496595
-0.0385154
0.00397269
-3.42205e-06
0.000103349
-0.128054
2.81611e-06
0.0112657
6.50576e-06
-0.195353
-0.0976443
0.00644528
-0.0299491
-3.4696e-06
0.00138573
0.00958142
0.000938029
6.45914e-06
0.000100053
-3.39266e-06
0.00246632
2.03572e-07
0.0049571
3.16895e-06
1.12672e-05
-0.222114
1.19052e-05
0.000272686
0.000350523
7.4121e-07
-0.0654972
8.56685e-06
0.000446447
-0.136726
0.0019486
0.104491
3.16303e-06
-0.114182
0.00215785
-0.20491
8.23389e-05
0.00844577
7.06367e-05
0.00114994
0.00866664
0.00691887
-0.000498351
-0.117905
-0.00616224
0.0635729
-5.3207e-05
0.00780102
-0.000752804
0.390763
0.000115618
6.5635e-05
2.13975e-06
0.00224841
0.000476043
0.190208
0.00188004
0.119528
-0.150476
-0.00921205
7.37423e-06
0.0322432
0.035337
1.09473e-05
5.44575e-05
4.86715e-06
0.0594947
1.63485e-06
-0.306222
1.04489e-05
0.000500592
-0.0584644
-0.00121091
-4.15743e-07
1.8823e-06
0.0174698
6.9357e-06
6.46981e-05
0.000285306
0.000289591
0.000335433
1.69567e-05
0.00448611
-0.00324605
-0.000928461
0.0158732
-0.101449
-0.0574885
-0.038439
-1.03653e-06
2.34447e-06
0.000691447
8.88941e-05
-0.00129527
0.15817
-0.05064
7.05293e-07
1.22977e-06
-0.00677807
1.17831
1.17375e-06
2.83928e-06
-0.000195997
-0.252241
0.0311109
0.000275832
0.000347445
-3.20326e-07
0.205324
0.00854937
-0.0104814
-0.000508229
0.00230124
6.57113e-06
0.000634162
0.518477
9.75608e-06
4.03222e-05
0.000252949
0.0519971
3.41981e-05
-0.133484
-1.63168e-06
-0.0964301
0.00024591
0.00208883
-2.45258e-06
-1.80429e-06
0.0645223
-0.167602
-0.00469824
-0.00847203
-0.204253
1.94878e-05
-0.118726
0.00426184
3.4671e-06
0.141287
0.0296653
0.00677845
7.0642e-07
-0.0421699
-0.098864
3.78962e-05
0.000193792
-0.0636726
0.00043332
8.38746e-06
9.77199e-06
5.57228e-05
0.000211488
0.00282426
0.427557
-0.00142207
0.000741607
8.66663e-08
1.30383e-05
0.137977
6.93027e-06
0.000777177
0.00021142
7.533e-05
0.00130046
-8.5833e-07
5.66901e-05
0.268827
-2.7942e-06
-0.0668367
-1.56338e-07
0.954961
-0.0740059
0.00300929
1.90954e-05
6.7578e-07
-0.137844
3.48843e-08
0.000140354
7.97654e-06
0.00972132
0.478619
0.000674215
-0.0770368
0.00132198
0.803714
6.15537e-06
0.0035185
2.43116e-05
-7.21092e-07
-0.0954719
-0.0691472
0.11862
0.000111262
0.00302155
0.00286254
-0.1062
-0.142851
0.0442978
0.000596799
2.22182e-07
-0.0973382
2.2555e-05
2.47969e-05
0.120236
0.00791703
-5.53184e-05
0.00906226
0.00318192
0.000193708
0.000330062
-0.218938
0.00020307
-2.69005e-06
-0.122609
0.00512478
2.91833e-06
-0.0122983
-3.29738e-06
-1.14628e-06
0.017164
0.00385301
-0.238153
2.70373e-06
0.000102065
3.21552e-07
0.00570089
5.53895e-06
0.0238836
0.236251
-0.0706098
0.00276276
0.0377837
0.00043775
-0.0625434
-0.0398394
-3.48888e-07
-4.86589e-05
-0.00353737
9.7934e-05
0.0110807
-0.0804866
-0.106229
-0.0521419
-0.0326092
1.06747e-05
0.00540519
-3.73853e-06
-0.0939842
0.000471915
0.000166508
0.000169372
7.68761e-05
3.79111e-06
0.00558931
-0.107034
-1.75859e-06
0.00013281
-4.7151e-06
-0.0357865
0.000132709
-0.207421
0.0709316
0.547222
3.33073e-07
4.02563e-06
-0.0218293
0.0120769
-1.04429e-07
0.0265157
1.42928e-07
0.00471863
0.00478963
0.00411433
0.00207236
-0.206878
3.45351e-06
2.82171e-05
0.00839625
0.00338272
0.000345773
0.000135642
3.16924e-06
-0.219424
2.12794e-09
-4.99806e-06
9.71764e-05
3.15021e-06
-0.070877
-0.0659821
1.04568
0.00248064
-0.131624
0.54179
-3.5794e-07
0.000812188
1.15015e-06
0.0144706
3.96731e-05
7.40676e-05
1.15266e-06
-2.09898e-06
1.70377e-05
-13.3401
0.000138483
0.0243
1.6369e-05
-0.000356733
4.39067e-05
-0.00676317
-1.46708e-06
0.000750726
0.00122385
-0.00204949
-0.18376
-1.86554e-06
0.0278662
0.00188892
0.00268685
1.84139e-05
-4.53871e-07
-0.0283511
-0.266421
4.08932e-05
1.71548e-05
0.0432819
0.015092
0.00238507
-0.117505
2.96082e-05
0.136165
0.000850883
-1.75197e-07
-0.0310156
0.000170513
-0.00590036
1.81034e-06
6.87651e-05
-1.27333e-06
-0.0413672
-0.0677442
3.45897e-07
-0.0733034
0.00469418
-3.60317e-06
1.59405e-05
-3.07078e-06
0.0447421
-0.134097
0.00158507
0.000294744
0.000674333
-1.38279e-06
5.00231e-06
0.000147367
-2.73506e-06
0.0225456
4.89009e-06
0.0030132
-0.0198531
0.000490243
-1.41165e-06
0.175422
0.00330238
-1.41231e-06
0.00225678
0.00070046
0.793104
1.69999e-05
-0.247471
0.00144499
7.88774e-06
0.00390527
0.00172224
0.000217509
-0.230769
0.00266088
0.000863118
0.899787
6.20471e-06
0.00468624
-0.000217782
0.00430397
-2.10146e-06
4.04741e-06
-5.64621e-08
-0.00347356
0.00248346
0.00245049
-0.136183
-0.0974104
0.0764231
5.09071e-07
0.00253208
-0.0680343
-0.165076
1.66421e-06
9.87859e-06
0.00191761
0.0168594
7.30398e-05
0.00113007
-0.344224
-0.0191482
58.0515
0.00281685
0.0217949
-0.00939616
1.05816
7.67834e-06
3.54422
0.00279005
4.83295e-05
7.3038e-05
4.81264e-05
-0.122724
0.00305723
-0.0205583
0.000126481
-0.132539
3.05204e-05
0.448372
-0.05059
1.26787e-05
0.000988018
-0.0798382
0.125794
0.00106233
8.8434e-05
5.44854e-05
9.15065e-06
0.00363886
0.0071406
0.480343
-0.154121
4.85122e-06
-0.098883
0.00619128
-0.0260256
-3.66088e-06
-1.82582e-06
-0.00292367
0.0762813
3.68302e-06
0.000951906
-0.0012609
0.000393393
0.131323
0.00914424
-0.132432
-0.147953
7.95063e-05
8.10853e-06
0.00136741
-0.0497115
-0.21391
3.14079e-05
-0.0292759
0.0329478
0.0217092
0.00011039
2.11266e-07
-0.177465
0.08204
-0.0992937
0.0258003
-0.00301003
-1.22822e-06
-0.0030417
-0.140827
9.24998e-06
0.0028513
0.00360447
7.60385e-07
0.0253053
-0.14575
0.00390244
5.47872e-07
-0.00964722
0.00543023
-0.476503
4.64707e-06
0.000212625
2.12164e-05
0.000183555
1.86424e-05
0.00129026
0.000309112
-0.0065879
-0.0276116
0.000966823
-0.0660275
7.11523e-05
0.000774521
0.000218567
-0.108812
0.000739122
-0.101277
0.000185275
0.000340091
-0.315215
-0.0115107
3.71047e-06
-0.00410539
0.0743709
-0.043538
0.385014
6.52767e-06
3.27593e-06
7.7589e-06
0.712089
5.37034e-05
0.00983489
0.00263839
-0.0835883
0.000313997
0.0448364
-0.102822
1.79015e-05
-0.189516
-0.000235659
-0.000123478
1.10341e-05
3.01218e-05
0.0013879
-0.121583
-3.35588e-06
-0.101338
-0.0222712
-0.0102384
0.00989217
6.60014e-06
-2.45995e-06
0.000611988
0.000151268
-0.426478
-0.470383
0.00265825
0.0142582
6.78961e-06
2.60588e-05
3.53116e-05
3.86713e-07
-0.209421
0.000149045
-0.0835244
-0.00450611
0.000114535
0.0421302
0.0721645
-0.0362532
-0.149404
0.000173306
2.49157e-05
-5.1245e-08
0.000220889
-0.0101842
0.0118436
-0.251663
-8.50636e-08
9.1102e-05
0.00277298
-8.93645e-07
0.00264594
-1.76182e-05
0.00204884
0.00139102
-0.00306355
-0.00266844
2.57256e-06
0.0010774
-0.000377284
0.00132881
-0.00415417
0.000590741
-2.97439e-06
0.00506819
3.02349e-06
0.435003
-0.0515269
-0.0106899
5.56667e-06
0.00618846
5.98265e-06
0.00140406
0.000103655
0.000127311
0.000130936
-0.144691
0.0173783
0.000476822
-0.000384088
0.00608383
-0.00157946
0.0803847
-0.124187
8.92957e-05
-0.0961035
0.00972343
8.13273e-06
-0.00194603
-0.157729
-0.00166504
1.26418e-07
0.00120645
0.00599592
0.696423
0.134242
4.31127e-05
1.27482
2.20658e-07
2.0706e-06
0.00169601
0.054726
-3.43564e-07
-0.0105488
-0.129361
0.0108172
-0.273922
-0.214305
-0.130151
0.0547906
2.27942e-06
0.00019359
1.04222e-05
-0.00701042
-0.039695
0.182412
6.32938e-05
0.000737719
1.28573e-05