/*--------------------------------*- C++ -*----------------------------------*\
| =========                 |                                                 |
| \\      /  F ield         | OpenFOAM: The Open Source CFD Toolbox           |
|  \\    /   O peration     | Version:  v2012                                 |
|   \\  /    A nd           | Website:  www.openfoam.com                      |
|    \\/     M anipulation  |                                                 |
\*---------------------------------------------------------------------------*/
FoamFile
{
    version     2.0;
    format      ascii;
    class       pointVectorField;
    location    "450";
    object      pointDisplacement;
}
// * * * * * * * * * * * * * * * * * * * * * * * * * * * * * * * * * * * * * //

dimensions      [0 1 0 0 0 0 0];


internalField   nonuniform List<vector> 
14324
(
(0 0 0)
(0.0288829 0.192986 0)
(0 0 0)
(0.0288829 0.192986 0)
(0 0 0)
(0 0 0)
(0 0 0)
(0 0 0)
(0 0 0)
(0 0 0)
(0 0 0)
(0 0 0)
(0 0 0)
(0 0 0)
(0 0 0)
(0 0 0)
(0 0 0)
(0 0 0)
(0 0 0)
(0 0 0)
(0 0 0)
(0 0 0)
(0 0 0)
(0 0 0)
(0 0 0)
(0 0 0)
(0 0 0)
(0 0 0)
(0 0 0)
(0 0 0)
(0 0 0)
(0 0 0)
(0 0 0)
(0 0 0)
(0 0 0)
(0 0 0)
(0 0 0)
(0 0 0)
(0 0 0)
(0 0 0)
(0 0 0)
(0 0 0)
(0 0 0)
(0 0 0)
(0 0 0)
(0 0 0)
(0 0 0)
(0 0 0)
(0 0 0)
(0 0 0)
(0 0 0)
(0 0 0)
(0 0 0)
(0 0 0)
(0 0 0)
(0 0 0)
(0 0 0)
(0 0 0)
(0 0 0)
(0 0 0)
(0 0 0)
(0 0 0)
(0 0 0)
(0 0 0)
(0 0 0)
(0 0 0)
(0 0 0)
(0 0 0)
(0 0 0)
(0 0 0)
(0 0 0)
(0 0 0)
(0 0 0)
(0 0 0)
(0 0 0)
(0 0 0)
(0.0210916 -0.128827 0)
(0.0211502 -0.126407 0)
(0.0212088 -0.123988 0)
(0.0212674 -0.121568 0)
(0.021326 -0.119148 0)
(0.0213845 -0.116729 0)
(0.0214431 -0.114309 0)
(0.0215017 -0.111889 0)
(0.0215603 -0.10947 0)
(0.0216189 -0.10705 0)
(0.0216774 -0.10463 0)
(0.021736 -0.102211 0)
(0.0217946 -0.0997911 0)
(0.0218532 -0.0973715 0)
(0.0219118 -0.0949518 0)
(0.0219703 -0.0925322 0)
(0.0220289 -0.0901126 0)
(0.0220875 -0.0876929 0)
(0.0221461 -0.0852733 0)
(0.0222047 -0.0828536 0)
(0.0222632 -0.080434 0)
(0.0223218 -0.0780143 0)
(0.0223804 -0.0755947 0)
(0.022439 -0.0731751 0)
(0.0224976 -0.0707554 0)
(0.0225562 -0.0683358 0)
(0.0226147 -0.0659161 0)
(0.0226733 -0.0634965 0)
(0.0227319 -0.0610769 0)
(0.0227905 -0.0586572 0)
(0.0228491 -0.0562376 0)
(0.0229076 -0.0538179 0)
(0.0229662 -0.0513983 0)
(0.0230248 -0.0489786 0)
(0.0230834 -0.046559 0)
(0.023142 -0.0441394 0)
(0.0232005 -0.0417197 0)
(0.0232591 -0.0393001 0)
(0.0233177 -0.0368804 0)
(0.0233763 -0.0344608 0)
(0.0234349 -0.0320412 0)
(0.0234934 -0.0296215 0)
(0.023552 -0.0272019 0)
(0.0236106 -0.0247822 0)
(0.0236692 -0.0223626 0)
(0.0237278 -0.0199429 0)
(0.0237864 -0.0175233 0)
(0.0238449 -0.0151037 0)
(0.0239035 -0.012684 0)
(0.0239621 -0.0102644 0)
(0.0240207 -0.00784474 0)
(0.0240793 -0.00542509 0)
(0.0241378 -0.00300545 0)
(0.0241964 -0.00058581 0)
(0.024255 0.00183383 0)
(0.0243136 0.00425347 0)
(0.0243722 0.00667312 0)
(0.0244307 0.00909276 0)
(0.0244893 0.0115124 0)
(0.0245479 0.013932 0)
(0.0246065 0.0163517 0)
(0.0246651 0.0187713 0)
(0.0247236 0.021191 0)
(0.0247822 0.0236106 0)
(0.0248408 0.0260303 0)
(0.0248994 0.0284499 0)
(0.024958 0.0308695 0)
(0.0250166 0.0332892 0)
(0.0250751 0.0357088 0)
(0.0251337 0.0381285 0)
(0.0251923 0.0405481 0)
(0.0252509 0.0429677 0)
(0.0253095 0.0453874 0)
(0.025368 0.047807 0)
(0.0254266 0.0502267 0)
(0.0254852 0.0526463 0)
(0.0255438 0.055066 0)
(0.0256024 0.0574856 0)
(0.0256609 0.0599052 0)
(0.0257195 0.0623249 0)
(0.0257781 0.0647445 0)
(0.0258367 0.0671642 0)
(0.0258953 0.0695838 0)
(0.0259538 0.0720034 0)
(0.0260124 0.0744231 0)
(0.026071 0.0768427 0)
(0.0261296 0.0792624 0)
(0.0261882 0.081682 0)
(0.0262468 0.0841017 0)
(0.0263053 0.0865213 0)
(0.0263639 0.0889409 0)
(0.0264225 0.0913606 0)
(0.0264811 0.0937802 0)
(0.0265397 0.0961999 0)
(0.0265982 0.0986195 0)
(0.0266568 0.101039 0)
(0.0267154 0.103459 0)
(0.026774 0.105878 0)
(0.0268326 0.108298 0)
(0.0268911 0.110718 0)
(0.0269497 0.113137 0)
(0.0270083 0.115557 0)
(0.0270669 0.117977 0)
(0.0271255 0.120396 0)
(0.027184 0.122816 0)
(0.0272426 0.125236 0)
(0.0273012 0.127655 0)
(0.0273598 0.130075 0)
(0.0274184 0.132494 0)
(0.027477 0.134914 0)
(0.0275355 0.137334 0)
(0.0275941 0.139753 0)
(0.0276527 0.142173 0)
(0.0277113 0.144593 0)
(0.0277699 0.147012 0)
(0.0278284 0.149432 0)
(0.027887 0.151852 0)
(0.0279456 0.154271 0)
(0.0280042 0.156691 0)
(0.0280628 0.159111 0)
(0.0281213 0.16153 0)
(0.0281799 0.16395 0)
(0.0282385 0.166369 0)
(0.0282971 0.168789 0)
(0.0283557 0.171209 0)
(0.0284142 0.173628 0)
(0.0284728 0.176048 0)
(0.0285314 0.178468 0)
(0.02859 0.180887 0)
(0.0286486 0.183307 0)
(0.0287072 0.185727 0)
(0.0287657 0.188146 0)
(0.0288243 0.190566 0)
(0.0264633 0.193044 0)
(0.0240436 0.193103 0)
(0.021624 0.193161 0)
(0.0192043 0.19322 0)
(0.0167847 0.193278 0)
(0.014365 0.193337 0)
(0.0119454 0.193396 0)
(0.00952576 0.193454 0)
(0.00710612 0.193513 0)
(0.00468648 0.193571 0)
(0.00226684 0.19363 0)
(-0.000152805 0.193689 0)
(-0.00257245 0.193747 0)
(-0.00499209 0.193806 0)
(-0.00741173 0.193864 0)
(-0.00983137 0.193923 0)
(-0.012251 0.193981 0)
(-0.0146707 0.19404 0)
(0 0 0)
(0 0 0)
(0 0 0)
(0 0 0)
(0 0 0)
(0 0 0)
(0 0 0)
(0 0 0)
(0 0 0)
(0 0 0)
(0 0 0)
(0 0 0)
(0 0 0)
(0 0 0)
(0 0 0)
(0 0 0)
(0 0 0)
(0 0 0)
(0 0 0)
(0 0 0)
(0 0 0)
(0 0 0)
(0 0 0)
(0 0 0)
(0 0 0)
(0 0 0)
(0 0 0)
(0 0 0)
(0 0 0)
(0 0 0)
(0 0 0)
(0 0 0)
(0 0 0)
(0 0 0)
(0 0 0)
(0 0 0)
(0 0 0)
(0 0 0)
(0 0 0)
(0 0 0)
(0 0 0)
(0 0 0)
(0 0 0)
(0 0 0)
(0 0 0)
(0 0 0)
(0 0 0)
(0 0 0)
(0 0 0)
(0 0 0)
(0 0 0)
(0 0 0)
(0 0 0)
(0 0 0)
(0 0 0)
(0 0 0)
(0 0 0)
(0 0 0)
(0 0 0)
(0 0 0)
(0 0 0)
(0 0 0)
(0 0 0)
(0 0 0)
(0 0 0)
(0 0 0)
(0 0 0)
(0 0 0)
(0 0 0)
(0 0 0)
(0 0 0)
(0 0 0)
(0.0210916 -0.128827 0)
(0.0211502 -0.126407 0)
(0.0212088 -0.123988 0)
(0.0212674 -0.121568 0)
(0.021326 -0.119148 0)
(0.0213845 -0.116729 0)
(0.0214431 -0.114309 0)
(0.0215017 -0.111889 0)
(0.0215603 -0.10947 0)
(0.0216189 -0.10705 0)
(0.0216774 -0.10463 0)
(0.021736 -0.102211 0)
(0.0217946 -0.0997911 0)
(0.0218532 -0.0973715 0)
(0.0219118 -0.0949518 0)
(0.0219703 -0.0925322 0)
(0.0220289 -0.0901126 0)
(0.0220875 -0.0876929 0)
(0.0221461 -0.0852733 0)
(0.0222047 -0.0828536 0)
(0.0222632 -0.080434 0)
(0.0223218 -0.0780143 0)
(0.0223804 -0.0755947 0)
(0.022439 -0.0731751 0)
(0.0224976 -0.0707554 0)
(0.0225562 -0.0683358 0)
(0.0226147 -0.0659161 0)
(0.0226733 -0.0634965 0)
(0.0227319 -0.0610769 0)
(0.0227905 -0.0586572 0)
(0.0228491 -0.0562376 0)
(0.0229076 -0.0538179 0)
(0.0229662 -0.0513983 0)
(0.0230248 -0.0489786 0)
(0.0230834 -0.046559 0)
(0.023142 -0.0441394 0)
(0.0232005 -0.0417197 0)
(0.0232591 -0.0393001 0)
(0.0233177 -0.0368804 0)
(0.0233763 -0.0344608 0)
(0.0234349 -0.0320412 0)
(0.0234934 -0.0296215 0)
(0.023552 -0.0272019 0)
(0.0236106 -0.0247822 0)
(0.0236692 -0.0223626 0)
(0.0237278 -0.0199429 0)
(0.0237864 -0.0175233 0)
(0.0238449 -0.0151037 0)
(0.0239035 -0.012684 0)
(0.0239621 -0.0102644 0)
(0.0240207 -0.00784474 0)
(0.0240793 -0.00542509 0)
(0.0241378 -0.00300545 0)
(0.0241964 -0.00058581 0)
(0.024255 0.00183383 0)
(0.0243136 0.00425347 0)
(0.0243722 0.00667312 0)
(0.0244307 0.00909276 0)
(0.0244893 0.0115124 0)
(0.0245479 0.013932 0)
(0.0246065 0.0163517 0)
(0.0246651 0.0187713 0)
(0.0247236 0.021191 0)
(0.0247822 0.0236106 0)
(0.0248408 0.0260303 0)
(0.0248994 0.0284499 0)
(0.024958 0.0308695 0)
(0.0250166 0.0332892 0)
(0.0250751 0.0357088 0)
(0.0251337 0.0381285 0)
(0.0251923 0.0405481 0)
(0.0252509 0.0429677 0)
(0.0253095 0.0453874 0)
(0.025368 0.047807 0)
(0.0254266 0.0502267 0)
(0.0254852 0.0526463 0)
(0.0255438 0.055066 0)
(0.0256024 0.0574856 0)
(0.0256609 0.0599052 0)
(0.0257195 0.0623249 0)
(0.0257781 0.0647445 0)
(0.0258367 0.0671642 0)
(0.0258953 0.0695838 0)
(0.0259538 0.0720034 0)
(0.0260124 0.0744231 0)
(0.026071 0.0768427 0)
(0.0261296 0.0792624 0)
(0.0261882 0.081682 0)
(0.0262468 0.0841017 0)
(0.0263053 0.0865213 0)
(0.0263639 0.0889409 0)
(0.0264225 0.0913606 0)
(0.0264811 0.0937802 0)
(0.0265397 0.0961999 0)
(0.0265982 0.0986195 0)
(0.0266568 0.101039 0)
(0.0267154 0.103459 0)
(0.026774 0.105878 0)
(0.0268326 0.108298 0)
(0.0268911 0.110718 0)
(0.0269497 0.113137 0)
(0.0270083 0.115557 0)
(0.0270669 0.117977 0)
(0.0271255 0.120396 0)
(0.027184 0.122816 0)
(0.0272426 0.125236 0)
(0.0273012 0.127655 0)
(0.0273598 0.130075 0)
(0.0274184 0.132494 0)
(0.027477 0.134914 0)
(0.0275355 0.137334 0)
(0.0275941 0.139753 0)
(0.0276527 0.142173 0)
(0.0277113 0.144593 0)
(0.0277699 0.147012 0)
(0.0278284 0.149432 0)
(0.027887 0.151852 0)
(0.0279456 0.154271 0)
(0.0280042 0.156691 0)
(0.0280628 0.159111 0)
(0.0281213 0.16153 0)
(0.0281799 0.16395 0)
(0.0282385 0.166369 0)
(0.0282971 0.168789 0)
(0.0283557 0.171209 0)
(0.0284142 0.173628 0)
(0.0284728 0.176048 0)
(0.0285314 0.178468 0)
(0.02859 0.180887 0)
(0.0286486 0.183307 0)
(0.0287072 0.185727 0)
(0.0287657 0.188146 0)
(0.0288243 0.190566 0)
(0.0264633 0.193044 0)
(0.0240436 0.193103 0)
(0.021624 0.193161 0)
(0.0192043 0.19322 0)
(0.0167847 0.193278 0)
(0.014365 0.193337 0)
(0.0119454 0.193396 0)
(0.00952576 0.193454 0)
(0.00710612 0.193513 0)
(0.00468648 0.193571 0)
(0.00226684 0.19363 0)
(-0.000152805 0.193689 0)
(-0.00257245 0.193747 0)
(-0.00499209 0.193806 0)
(-0.00741173 0.193864 0)
(-0.00983137 0.193923 0)
(-0.012251 0.193981 0)
(-0.0146707 0.19404 0)
(0.0221193 -0.0863852 0)
(0.0231732 -0.0428506 0)
(0.0242205 0.000396828 0)
(0.0252811 0.0442253 0)
(0.026342 0.088022 0)
(0.0273896 0.1313 0)
(0.0284491 0.175118 0)
(0.025813 0.0661757 0)
(0.0215914 -0.108187 0)
(0.0247581 0.0226077 0)
(0.0226486 -0.0645182 0)
(0.0279186 0.153154 0)
(0.0236999 -0.0210981 0)
(0.0268621 0.109518 0)
(0.00310947 0.193612 0)
(0.0226193 0.193127 0)
(-0.0138107 0.194017 0)
(0.00102847 0.00562428 0)
(0.000807557 0.00958276 0)
(0.00121321 0.00450088 0)
(0.00121965 0.00143218 0)
(0.000658801 0.0110419 0)
(0.000467587 0.0123772 0)
(0.0287228 0.186828 0)
(0.000725486 0.00480591 0)
(0.000666936 0.00657227 0)
(0.00023924 0.0128773 0)
(0.00116336 -0.000675503 0)
(0.000536612 0.00478525 0)
(0.0276883 0.14363 0)
(0.023463 -0.030874 0)
(0.0270974 0.119236 0)
(0.0224033 -0.0746679 0)
(0.0255142 0.0538373 0)
(0.0261105 0.0784652 0)
(0.0249845 0.0319666 0)
(0.021825 -0.0985417 0)
(0.0244657 0.0105315 0)
(0.0229321 -0.0528239 0)
(0.0282106 0.16524 0)
(0.0213534 -0.118014 0)
(0.0239872 -0.00924833 0)
(0.0265731 0.0975864 0)
(0.013113 0.193363 0)
(0.000571453 0.0041944 0)
(0.000765491 0.0104697 0)
(0.00110529 0.00512691 0)
(0.00119227 0.00278837 0)
(0.000373737 0.00312473 0)
(0.000423951 0.00328352 0)
(-0.00627901 0.193836 0)
(0.00021297 0.0017024 0)
(0.000604181 0.0117988 0)
(0.000354453 0.0125302 0)
(0.000707278 0.00770302 0)
(0.00126873 0.00385629 0)
(0.00111211 0.000330751 0)
(0.0013286 -0.00208321 0)
(0.000730077 0.00435 0)
(0.000820847 0.00575505 0)
(0.000605644 0.00565161 0)
(0.000472591 0.00406222 0)
(0.000238464 0.00195475 0)
(8.82701e-05 0.000713134 0)
(0.0181369 -0.0702797 0)
(0.0180781 -0.0662201 0)
(0.0184187 -0.0639522 0)
(0.0183482 -0.0599683 0)
(0.0187311 -0.0571618 0)
(0.0185948 -0.0527853 0)
(0.0189766 -0.049629 0)
(0.018884 -0.0455786 0)
(0.019224 -0.0424701 0)
(0.0191041 -0.0387779 0)
(0.0194383 -0.0354991 0)
(0.0193172 -0.0321073 0)
(0.0196339 -0.0285967 0)
(0.0195045 -0.0254567 0)
(0.0198223 -0.0213919 0)
(0.0196668 -0.0186094 0)
(0.0199899 -0.014169 0)
(0.0198258 -0.0115907 0)
(0.0201317 -0.00704818 0)
(0.0199472 -0.00459933 0)
(0.0202554 5.14375e-05 0)
(0.0200496 0.00233729 0)
(0.0203517 0.00708704 0)
(0.0201474 0.0091336 0)
(0.0204216 0.0139683 0)
(0.0202068 0.0156638 0)
(0.0204749 0.0206689 0)
(0.0202468 0.0220938 0)
(0.0205048 0.0271133 0)
(0.0202675 0.0282541 0)
(0.0205099 0.0334679 0)
(0.0202529 0.0342131 0)
(0.0204796 0.0395519 0)
(0.0202188 0.0400823 0)
(0.0204282 0.0452836 0)
(0.0201661 0.0457964 0)
(0.0203699 0.0510254 0)
(0.0200867 0.0513321 0)
(0.0202936 0.0568994 0)
(0.019988 0.0567499 0)
(0.020182 0.0623624 0)
(0.019876 0.0618607 0)
(0.0200452 0.0671992 0)
(0.0187767 -0.0416615 0)
(0.0197126 -0.00228201 0)
(0.0199965 0.0348155 0)
(0.0197307 0.0664276 0)
(0.0198821 0.0716531 0)
(0.0195625 0.070767 0)
(0.0196965 0.0759133 0)
(0.0193949 0.0654 0)
(0.0193756 0.074861 0)
(0.0194891 0.0799132 0)
(0.0191568 0.0784545 0)
(0.0192579 0.0835781 0)
(0.0189166 0.0817402 0)
(0.0190019 0.0869683 0)
(0.0186525 0.0849014 0)
(0.0187215 0.0901477 0)
(0.0206152 0.0565385 0)
(0.0207437 0.0259137 0)
(0.019827 0.0813315 0)
(0.0183645 0.0879739 0)
(0.0184176 0.0929938 0)
(0.018057 0.0906943 0)
(0.0180934 0.0954346 0)
(0.0184489 0.0978396 0)
(0.0181042 0.100058 0)
(0.0184519 0.102565 0)
(0.0180868 0.104653 0)
(0.0177436 0.101943 0)
(0.0177022 0.106352 0)
(0.017372 0.103589 0)
(0.0173107 0.107747 0)
(0.0176083 0.11058 0)
(0.0172154 0.111721 0)
(0.0174975 0.114645 0)
(0.0169244 0.1091 0)
(0.0202926 -0.00969132 0)
(0.0170903 0.115539 0)
(0.0173509 0.118542 0)
(0.016934 0.119181 0)
(0.0171793 0.122179 0)
(0.0167479 0.122622 0)
(0.0169902 0.125772 0)
(0.0165237 0.125878 0)
(0.0167356 0.129044 0)
(0.0193485 -0.0462638 0)
(0.0162519 0.128891 0)
(0.0164392 0.132021 0)
(0.0159388 0.131637 0)
(0.015779 0.128266 0)
(0.0161025 0.134792 0)
(0.0155896 0.134194 0)
(0.0157292 0.137409 0)
(0.0172314 0.128917 0)
(0.0152043 0.136538 0)
(0.0153054 0.139735 0)
(0.0147806 0.138606 0)
(0.0148389 0.141698 0)
(0.0143171 0.140407 0)
(0.0143356 0.143517 0)
(0.018295 0.0826649 0)
(0.0138278 0.142016 0)
(0.0137809 0.145079 0)
(0.0137773 0.139087 0)
(0.0133036 0.143278 0)
(0.0131925 0.146298 0)
(0.0127193 0.144292 0)
(0.0153653 0.142819 0)
(0.0125727 0.147292 0)
(0.0120895 0.145196 0)
(0.0130593 0.149237 0)
(0.0123954 0.150153 0)
(0.0129007 0.152063 0)
(0.0122007 0.152899 0)
(0.012686 0.154781 0)
(0.0119948 0.155439 0)
(0.0123905 0.157257 0)
(0.0116978 0.157738 0)
(0.0120808 0.159562 0)
(0.0113294 0.159943 0)
(0.0109487 0.157773 0)
(0.011747 0.161825 0)
(0.0109269 0.162053 0)
(0.0113203 0.163913 0)
(0.0104783 0.163953 0)
(0.0108577 0.16579 0)
(0.0117203 0.165687 0)
(0.011244 0.167529 0)
(0.0121364 0.167351 0)
(0.0103545 0.167519 0)
(0.0107042 0.169216 0)
(0.00978762 0.169112 0)
(0.0101007 0.170748 0)
(0.00914767 0.170531 0)
(0.00941463 0.172131 0)
(0.00842948 0.17179 0)
(0.00865556 0.173375 0)
(0.00763976 0.172921 0)
(0.00747998 0.171289 0)
(0.00665433 0.172298 0)
(0.00968166 0.17368 0)
(0.0067738 0.173921 0)
(0.00576162 0.173201 0)
(0.00581294 0.174793 0)
(0.00480467 0.173948 0)
(0.0047241 0.175465 0)
(0.00364042 0.174336 0)
(0.00358022 0.175973 0)
(0.00264256 0.175028 0)
(0.00244206 0.17639 0)
(0.00162112 0.175375 0)
(0.00128111 0.176627 0)
(0.00659646 0.170614 0)
(0.00335116 0.177401 0)
(0.00176356 0.174153 0)
(0.0206288 -0.118076 0)
(0.020669 -0.114517 0)
(0.0208155 -0.11329 0)
(0.0208563 -0.109747 0)
(0.0209948 -0.108455 0)
(0.0210346 -0.10495 0)
(0.0211704 -0.103484 0)
(0.0212084 -0.100038 0)
(0.0213368 -0.0984572 0)
(0.021377 -0.0950583 0)
(0.0214917 -0.0936166 0)
(0.021537 -0.0901544 0)
(0.0214261 -0.0913742 0)
(0.0215807 -0.0866854 0)
(0.0205041 -0.115701 0)
(0.0216952 -0.085163 0)
(0.0217387 -0.0818144 0)
(0.0218541 -0.0800283 0)
(0.0218956 -0.0767887 0)
(0.0220073 -0.0749152 0)
(0.0220486 -0.0716182 0)
(0.0221557 -0.0698138 0)
(0.0222006 -0.0664329 0)
(0.0223013 -0.064711 0)
(0.0223481 -0.0613249 0)
(0.0224457 -0.0595655 0)
(0.0224914 -0.0563248 0)
(0.0225878 -0.054415 0)
(0.0226289 -0.0513569 0)
(0.0227254 -0.0493305 0)
(0.0227648 -0.0462703 0)
(0.0228596 -0.0442763 0)
(0.0229017 -0.0411168 0)
(0.0229895 -0.0392992 0)
(0.0230345 -0.0360561 0)
(0.023116 -0.0344232 0)
(0.0231662 -0.0309914 0)
(0.0230712 -0.0330271 0)
(0.0232053 -0.0279242 0)
(0.0224125 -0.0574293 0)
(0.0216191 -0.0831444 0)
(0.0233019 -0.0257779 0)
(0.0233413 -0.0226706 0)
(0.0234385 -0.0204372 0)
(0.0234755 -0.0173688 0)
(0.0235735 -0.0150435 0)
(0.0236084 -0.0120511 0)
(0.0237061 -0.00967985 0)
(0.0237393 -0.00678961 0)
(0.0238363 -0.00438688 0)
(0.0238691 -0.00153804 0)
(0.0239633 0.000785423 0)
(0.0239965 0.00370467 0)
(0.0240887 0.00597074 0)
(0.0241196 0.00886635 0)
(0.0242101 0.0110598 0)
(0.0242389 0.0139408 0)
(0.0243279 0.01606 0)
(0.0243595 0.0190747 0)
(0.0242585 0.0166201 0)
(0.0243824 0.0219603 0)
(0.023641 -0.00908524 0)
(0.0244953 0.0246121 0)
(0.0245056 0.0273325 0)
(0.0246104 0.0299936 0)
(0.0246242 0.0326565 0)
(0.0247245 0.0350851 0)
(0.0247381 0.0378268 0)
(0.0248399 0.040259 0)
(0.0248497 0.0429072 0)
(0.0249551 0.0454624 0)
(0.0249579 0.0480062 0)
(0.0250661 0.0507051 0)
(0.025062 0.0531327 0)
(0.025173 0.0559287 0)
(0.0251664 0.0583313 0)
(0.0252785 0.0611281 0)
(0.025268 0.0635384 0)
(0.0253803 0.066283 0)
(0.0253662 0.0687672 0)
(0.0252473 0.0659054 0)
(0.0253426 0.0712891 0)
(0.0247543 0.0409646 0)
(0.0254641 0.0741532 0)
(0.0254341 0.0766872 0)
(0.0255578 0.0795596 0)
(0.0255197 0.0819124 0)
(0.0256453 0.0849211 0)
(0.0255963 0.087089 0)
(0.0253958 0.0793762 0)
(0.0257255 0.0902473 0)
(0.0256628 0.0922599 0)
(0.0257979 0.0955331 0)
(0.0257243 0.0975017 0)
(0.0258607 0.100767 0)
(0.0257756 0.102708 0)
(0.0259129 0.105945 0)
(0.0258147 0.107822 0)
(0.0256734 0.104477 0)
(0.0256994 0.109554 0)
(0.025842 0.112948 0)
(0.0257122 0.114582 0)
(0.0258538 0.118032 0)
(0.0257055 0.119481 0)
(0.025846 0.122966 0)
(0.0256766 0.124259 0)
(0.0255412 0.120558 0)
(0.0254827 0.125128 0)
(0.0256247 0.128917 0)
(0.0254083 0.129766 0)
(0.0255457 0.133419 0)
(0.0253127 0.134162 0)
(0.0254473 0.137818 0)
(0.0251922 0.138417 0)
(0.0253188 0.14204 0)
(0.0252567 0.125769 0)
(0.0250409 0.142404 0)
(0.0251521 0.145938 0)
(0.0248651 0.146057 0)
(0.0249543 0.149598 0)
(0.0246482 0.149386 0)
(0.024709 0.152912 0)
(0.0245896 0.146032 0)
(0.0243879 0.152408 0)
(0.0244208 0.155797 0)
(0.0240899 0.155117 0)
(0.0240999 0.158448 0)
(0.0237518 0.157563 0)
(0.0249369 0.0424934 0)
(0.0253861 0.0638344 0)
(0.0237302 0.160852 0)
(0.0233672 0.159756 0)
(0.0241691 0.00791679 0)
(0.0236768 -0.0124659 0)
(0.0258537 0.0933253 0)
(0.0231016 -0.0301799 0)
(0.0242735 0.0192887 0)
(0.0255879 0.141518 0)
(0.0229381 -0.0426911 0)
(0.0224012 -0.0628054 0)
(0.0233062 0.162913 0)
(0.0229378 0.16166 0)
(0.0230119 0.158517 0)
(0.022574 0.16036 0)
(0.0226614 0.15722 0)
(0.0247382 0.156416 0)
(0.0214464 -0.0966976 0)
(0.0228399 0.164648 0)
(0.0207746 -0.116812 0)
(0.0232202 0.165927 0)
(0.0222074 0.159038 0)
(0.0223146 0.155861 0)
(0.0227009 0.167461 0)
(0.0230839 0.168796 0)
(0.0225169 0.170071 0)
(0.0121506 -0.0285856 0)
(0.0228944 0.171438 0)
(0.0222846 0.172472 0)
(0.0226599 0.173863 0)
(0.0218524 0.157562 0)
(0.0219754 0.154404 0)
(0.0117199 -0.0256345 0)
(0.012245 -0.023667 0)
(0.0219972 0.17468 0)
(0.0223534 0.176086 0)
(0.0230437 0.175223 0)
(0.0117927 -0.020958 0)
(0.0123222 -0.0187705 0)
(0.0127652 -0.0213749 0)
(0.0128399 -0.0162814 0)
(0.0123764 -0.0139404 0)
(0.0128924 -0.0112392 0)
(0.0124087 -0.00918231 0)
(0.0129203 -0.0062302 0)
(0.0124157 -0.00450263 0)
(0.0129227 -0.00128586 0)
(0.0123955 9.6481e-05 0)
(0.0128995 0.00353471 0)
(0.0216527 0.173317 0)
(0.0216374 0.176684 0)
(0.0219801 0.178079 0)
(0.0211927 0.178452 0)
(0.0215099 0.179841 0)
(0.0132719 -0.0187858 0)
(0.0206611 0.180015 0)
(0.0209256 0.181357 0)
(0.0123511 0.00461359 0)
(0.0128498 0.00818528 0)
(0.0200275 0.18139 0)
(0.0202341 0.182692 0)
(0.0192748 0.18257 0)
(0.0193819 0.183815 0)
(0.0191565 0.181334 0)
(0.0134092 0.00214367 0)
(0.0122803 0.00896324 0)
(0.0127749 0.0126674 0)
(0.0215248 0.155955 0)
(0.0216399 0.152869 0)
(0.0183805 0.183546 0)
(0.0184127 0.184689 0)
(0.0017198 0.122584 0)
(0.00202616 0.126547 0)
(0.00225061 0.12286 0)
(0.00257745 0.126599 0)
(0.00277452 0.123053 0)
(0.00312823 0.126659 0)
(0.00328978 0.123009 0)
(0.0121842 0.0131209 0)
(0.0126736 0.0169518 0)
(0.0120647 0.0170882 0)
(0.0125469 0.0209882 0)
(0.0131361 0.0210131 0)
(0.013001 0.0250746 0)
(0.0123991 0.0247605 0)
(0.0128447 0.0288564 0)
(0.0122283 0.0282853 0)
(0.0126654 0.0323595 0)
(0.0120352 0.0315444 0)
(0.0124727 0.0356358 0)
(0.00369845 0.126709 0)
(0.00380804 0.122689 0)
(0.0118252 0.0345064 0)
(0.0122458 0.0386393 0)
(0.0218191 0.181203 0)
(0.0173523 0.184371 0)
(0.0173233 0.185564 0)
(0.0115884 0.0370959 0)
(0.0119847 0.0412341 0)
(0.021189 0.15448 0)
(0.0213034 0.151345 0)
(0.0217323 0.149454 0)
(0.021399 0.148006 0)
(0.0217774 0.145901 0)
(0.0214645 0.144482 0)
(0.0218207 0.142248 0)
(0.0215056 0.140807 0)
(0.0218704 0.138283 0)
(0.00426652 0.126349 0)
(0.00432806 0.122205 0)
(0.00334483 0.118995 0)
(0.0113235 0.0393199 0)
(0.0117112 0.0434558 0)
(0.0134141 0.0291989 0)
(0.0123525 0.0455592 0)
(0.0120689 0.0477136 0)
(0.0114242 0.0453791 0)
(0.0117695 0.0495598 0)
(0.0111221 0.0470021 0)
(0.0114539 0.0510855 0)
(0.0120781 0.0537375 0)
(0.0117518 0.0551762 0)
(0.0111229 0.0523127 0)
(0.0114126 0.0563599 0)
(0.0107758 0.0532371 0)
(0.0110476 0.0572034 0)
(0.0104159 0.0538868 0)
(0.0106712 0.0577137 0)
(0.0112544 0.0611132 0)
(0.010885 0.0615074 0)
(0.010291 0.05796 0)
(0.0104996 0.0616077 0)
(0.0110562 0.0651546 0)
(0.0106733 0.0651355 0)
(0.011151 0.0680249 0)
(0.010908 0.069128 0)
(0.0102635 0.0648013 0)
(0.0103799 0.0681296 0)
(0.0109422 0.0724872 0)
(0.0104411 0.071234 0)
(0.00990849 0.0670654 0)
(0.00996957 0.0700058 0)
(0.0104811 0.0742852 0)
(0.00999315 0.0727793 0)
(0.0104669 0.0770178 0)
(0.00997158 0.0752994 0)
(0.00952254 0.0710929 0)
(0.010408 0.0794901 0)
(0.00991305 0.0776101 0)
(0.0103177 0.0818057 0)
(0.00980685 0.0796495 0)
(0.0101908 0.0839186 0)
(0.00967014 0.0815285 0)
(0.0100277 0.0857883 0)
(0.00951087 0.0832137 0)
(0.00982852 0.0873847 0)
(0.00914105 0.0790398 0)
(0.0093158 0.084604 0)
(0.00959807 0.0887268 0)
(0.00909581 0.0857673 0)
(0.00934399 0.0898825 0)
(0.00882535 0.0864384 0)
(0.00904748 0.0906687 0)
(0.00851143 0.0867599 0)
(0.00871541 0.0910653 0)
(0.008282 0.0821328 0)
(0.0215248 0.137017 0)
(0.0218711 0.134138 0)
(0.0161556 0.185045 0)
(0.0158423 0.186087 0)
(0.0048101 0.125759 0)
(0.00482729 0.12147 0)
(0.00417494 0.130368 0)
(0.0107033 0.0859831 0)
(0.00532204 0.124918 0)
(0.00530058 0.120516 0)
(0.00580868 0.123891 0)
(0.00575253 0.119403 0)
(0.00524906 0.115882 0)
(0.00566683 0.114656 0)
(0.00619492 0.11821 0)
(0.00608427 0.113374 0)
(0.0208458 0.153006 0)
(0.0206896 0.156339 0)
(0.00818073 0.0869149 0)
(0.00984615 0.0927514 0)
(0.0118775 -0.00321446 0)
(0.0147907 0.185547 0)
(0.0143245 0.186532 0)
(0.00661832 0.116936 0)
(0.0215239 0.13306 0)
(0.0218404 0.129977 0)
(0.0055484 0.109613 0)
(0.00593983 0.108308 0)
(0.0154801 0.187107 0)
(0.0136873 0.187416 0)
(0.0126874 0.186849 0)
(0.0118763 0.187679 0)
(0.0129199 0.188296 0)
(0.0108716 0.188435 0)
(0.0100008 0.187855 0)
(0.00885406 0.188528 0)
(0.00971335 0.189143 0)
(0.00751075 0.189109 0)
(0.00678897 0.188507 0)
(0.0053901 0.189047 0)
(0.00607175 0.189706 0)
(0.00364201 0.189516 0)
(0.00344163 0.188832 0)
(0.00156602 0.189226 0)
(0.0193921 0.185003 0)
(0.00169888 0.189916 0)
(-0.000354302 0.189558 0)
(-0.000299367 0.188827 0)
(-0.002173 0.189078 0)
(-0.00197099 0.188299 0)
(-0.00375329 0.188463 0)
(-0.00407354 0.189256 0)
(0.0151499 0.184511 0)
(0.0203522 0.154379 0)
(0.0211748 0.13959 0)
(0.0201258 0.157304 0)
(0.021504 0.128944 0)
(0.0217964 0.125733 0)
(0.0221305 0.126537 0)
(0.0220625 0.122177 0)
(0.0223891 0.122752 0)
(0.0223007 0.118289 0)
(0.022616 0.118663 0)
(0.0225098 0.114107 0)
(0.0228139 0.114229 0)
(0.0226913 0.109618 0)
(0.0229848 0.109516 0)
(0.0228465 0.104864 0)
(0.0231314 0.104483 0)
(0.0229718 0.0998199 0)
(0.0232363 0.0990158 0)
(0.0230649 0.0944797 0)
(0.0233077 0.0934146 0)
(0.0231324 0.0889224 0)
(0.0233621 0.087646 0)
(0.0231773 0.0830658 0)
(0.0233965 0.0815972 0)
(0.0232076 0.0771413 0)
(0.023409 0.0753309 0)
(0.0232026 0.0711158 0)
(0.0233918 0.0689477 0)
(0.0231727 0.0647865 0)
(0.0233532 0.0624704 0)
(0.0231416 0.0583968 0)
(0.0233007 0.0558946 0)
(0.0230894 0.0519792 0)
(0.0232326 0.0493325 0)
(0.0230166 0.0454299 0)
(0.0231487 0.0427053 0)
(0.023361 0.0465265 0)
(0.0232655 0.0398062 0)
(0.0230519 0.0360401 0)
(0.0231565 0.0330346 0)
(0.0229427 0.0293546 0)
(0.0230349 0.0262089 0)
(0.022822 0.02264 0)
(0.0229016 0.0192863 0)
(0.0226864 0.0158321 0)
(0.0227565 0.0122255 0)
(0.0225352 0.00896757 0)
(0.0225961 0.00519224 0)
(0.0115596 0.0133776 0)
(0.022374 0.00210454 0)
(0.0224273 -0.00167661 0)
(0.0226321 0.00109377 0)
(0.0224638 -0.00557587 0)
(0.022253 -0.0084643 0)
(0.0222823 -0.0123365 0)
(0.00539514 0.104227 0)
(0.00574123 0.102819 0)
(0.0217393 0.121301 0)
(0.0232406 0.0299987 0)
(0.0220684 -0.015241 0)
(0.0220873 -0.0191892 0)
(0.0113692 0.0307592 0)
(0.0228266 0.0953822 0)
(0.0259947 0.121451 0)
(0.0224799 -0.00945412 0)
(0.0218722 -0.0220425 0)
(0.0218881 -0.0261038 0)
(0.00584057 0.128118 0)
(0.0236047 0.0799314 0)
(0.0198268 0.155459 0)
(0.019562 0.158407 0)
(0.021666 -0.0288373 0)
(0.0216823 -0.0329757 0)
(0.0219176 -0.0299966 0)
(0.0216869 -0.0371209 0)
(0.0214646 -0.0397141 0)
(0.0214689 -0.0439693 0)
(0.0212391 -0.0463484 0)
(0.0212336 -0.0507927 0)
(0.0210027 -0.052875 0)
(0.0209894 -0.057403 0)
(0.0217163 -0.0409369 0)
(0.0207547 -0.0593019 0)
(0.0207373 -0.0638352 0)
(0.0209686 -0.0619926 0)
(0.0207149 -0.0683453 0)
(0.0204778 -0.070112 0)
(0.0204535 -0.074549 0)
(0.0202088 -0.0762227 0)
(0.0201782 -0.080767 0)
(0.0199246 -0.0822442 0)
(0.0198813 -0.0869452 0)
(0.019625 -0.0881498 0)
(0.0195682 -0.0929124 0)
(0.0193126 -0.093845 0)
(0.0101206 0.0500241 0)
(0.0255546 0.106112 0)
(0.0223985 0.109431 0)
(0.00521351 0.0985108 0)
(0.00552493 0.0970617 0)
(0.0227219 0.0255456 0)
(0.0197924 0.0515458 0)
(0.0122468 0.142177 0)
(0.0116165 0.142965 0)
(0.0117691 0.139958 0)
(0.0201527 -0.0857477 0)
(0.0112538 -0.0228779 0)
(0.019966 -0.0776747 0)
(0.0199558 0.0170225 0)
(0.0180289 -0.0627414 0)
(0.019317 -0.0231359 0)
(0.0229738 0.0781437 0)
(0.0229555 0.0604614 0)
(0.0165143 0.119444 0)
(0.0123517 0.0577339 0)
(0.0131471 0.156874 0)
(0.0192751 0.15633 0)
(0.018955 0.159182 0)
(0.0209442 -0.0664987 0)
(0.0060643 0.101246 0)
(0.00580847 0.0954364 0)
(0.0234803 0.0976536 0)
(0.0111541 0.140551 0)
(0.0113025 0.137527 0)
(0.0048799 0.0998303 0)
(0.004706 0.0938017 0)
(0.00438456 0.0950181 0)
(0.0187115 0.156912 0)
(0.0190369 0.154174 0)
(0.021644 -0.0246957 0)
(0.0223094 0.00580068 0)
(0.0183405 0.159561 0)
(0.018552 0.161927 0)
(0.0231168 0.114223 0)
(0.00421083 0.0886242 0)
(0.00389975 0.0897519 0)
(0.0178384 0.118063 0)
(0.00194984 0.159954 0)
(0.00214238 0.157781 0)
(0.00272904 0.15941 0)
(0.00287563 0.157174 0)
(0.00352004 0.158759 0)
(0.0036137 0.156411 0)
(0.00429827 0.157984 0)
(0.00432905 0.155475 0)
(0.00365876 0.153868 0)
(0.0181313 0.157306 0)
(0.021969 -0.0780553 0)
(0.00635028 0.0994553 0)
(0.00606268 0.0936611 0)
(0.0207667 -0.0547881 0)
(0.0107122 0.137929 0)
(0.0108528 0.134885 0)
(0.0105303 0.140855 0)
(0.0222261 0.14008 0)
(0.0210448 -0.127878 0)
(0.0210856 -0.125523 0)
(0.0211381 -0.124399 0)
(0.0211802 -0.122109 0)
(0.0212297 -0.120946 0)
(0.0212726 -0.118679 0)
(0.0213209 -0.117463 0)
(0.0213644 -0.115205 0)
(0.0214129 -0.113902 0)
(0.0214563 -0.111686 0)
(0.0214076 -0.112918 0)
(0.0215004 -0.109408 0)
(0.0215466 -0.108198 0)
(0.0215917 -0.105925 0)
(0.0216352 -0.104749 0)
(0.0216818 -0.10245 0)
(0.0217231 -0.1013 0)
(0.0217707 -0.0989948 0)
(0.0218103 -0.0978609 0)
(0.0218584 -0.095559 0)
(0.0218972 -0.0944055 0)
(0.0219456 -0.0921168 0)
(0.0219841 -0.0909346 0)
(0.022033 -0.0886521 0)
(0.0219927 -0.0898463 0)
(0.0220811 -0.0863649 0)
(0.0221212 -0.0851392 0)
(0.0221695 -0.0828671 0)
(0.0222083 -0.0816572 0)
(0.022257 -0.0793889 0)
(0.0222941 -0.0782151 0)
(0.0223443 -0.0759031 0)
(0.0223061 -0.0770688 0)
(0.0223951 -0.0735359 0)
(0.0224327 -0.0723611 0)
(0.0224837 -0.0700082 0)
(0.0225204 -0.0688414 0)
(0.0225708 -0.0665293 0)
(0.0226063 -0.0653815 0)
(0.0226572 -0.0630644 0)
(0.022692 -0.0619217 0)
(0.0227437 -0.0595824 0)
(0.0227781 -0.0584358 0)
(0.0228306 -0.0560766 0)
(0.0227949 -0.0572324 0)
(0.0228825 -0.0537158 0)
(0.0229186 -0.0525212 0)
(0.0229692 -0.0502233 0)
(0.0230049 -0.0490117 0)
(0.023055 -0.0467572 0)
(0.0230879 -0.0456409 0)
(0.0231405 -0.0433023 0)
(0.0231729 -0.0421973 0)
(0.023226 -0.039836 0)
(0.0232602 -0.0386388 0)
(0.0233123 -0.0363319 0)
(0.0232781 -0.037489 0)
(0.023365 -0.0339753 0)
(0.0233984 -0.0328341 0)
(0.0234515 -0.0304729 0)
(0.0234843 -0.0293393 0)
(0.0235359 -0.027053 0)
(0.0235692 -0.0258751 0)
(0.0236188 -0.0236795 0)
(0.0235102 -0.027871 0)
(0.023652 -0.0224933 0)
(0.023702 -0.020287 0)
(0.023735 -0.0191113 0)
(0.0237862 -0.016852 0)
(0.0238175 -0.0157409 0)
(0.0238697 -0.0134465 0)
(0.0238363 -0.0146096 0)
(0.0239221 -0.0111173 0)
(0.0239474 -0.0102644 0)
(0.0240019 -0.00786216 0)
(0.0239759 -0.008699 0)
(0.024061 -0.00524332 0)
(0.0240828 -0.00460241 0)
(0.0241473 -0.00173185 0)
(0.0241783 -0.000683276 0)
(0.0242343 0.00181414 0)
(0.0242635 0.00280286 0)
(0.0243193 0.00528554 0)
(0.0243472 0.00622034 0)
(0.0244047 0.00877076 0)
(0.024374 0.00774768 0)
(0.0244603 0.0112656 0)
(0.0244903 0.0122735 0)
(0.024546 0.0147688 0)
(0.0245751 0.0157425 0)
(0.0246315 0.0182604 0)
(0.024601 0.0172735 0)
(0.0246884 0.020836 0)
(0.0247167 0.0217409 0)
(0.024775 0.0243662 0)
(0.0248036 0.025294 0)
(0.0248609 0.0278733 0)
(0.0247458 0.0234841 0)
(0.0248915 0.0288918 0)
(0.0249463 0.0313699 0)
(0.0249778 0.0324296 0)
(0.0250317 0.0348622 0)
(0.0250632 0.0359238 0)
(0.0251172 0.0383561 0)
(0.0250863 0.0373711 0)
(0.0251719 0.0408622 0)
(0.025202 0.0418263 0)
(0.0252573 0.0443536 0)
(0.0252862 0.0452748 0)
(0.0253428 0.0478498 0)
(0.0253123 0.0469131 0)
(0.0254003 0.0505226 0)
(0.0254286 0.0513607 0)
(0.0254882 0.0541072 0)
(0.0255148 0.0548896 0)
(0.0255723 0.0575207 0)
(0.0256004 0.0583958 0)
(0.0256559 0.0609554 0)
(0.0256854 0.0618899 0)
(0.0257425 0.064529 0)
(0.0257058 0.0634131 0)
(0.0257986 0.0671809 0)
(0.025829 0.0680745 0)
(0.0258846 0.0707067 0)
(0.0258525 0.0698196 0)
(0.0259392 0.0733837 0)
(0.0259708 0.0742306 0)
(0.026027 0.0769841 0)
(0.0259918 0.0760776 0)
(0.0260808 0.0797317 0)
(0.0261151 0.0805922 0)
(0.0261689 0.0833402 0)
(0.0262038 0.0842094 0)
(0.0262574 0.0869593 0)
(0.0262973 0.0879513 0)
(0.0263465 0.0906093 0)
(0.0263905 0.0918498 0)
(0.0264343 0.0942435 0)
(0.0263923 0.093184 0)