/*--------------------------------*- C++ -*----------------------------------*\
| =========                 |                                                 |
| \\      /  F ield         | OpenFOAM: The Open Source CFD Toolbox           |
|  \\    /   O peration     | Version:  v2012                                 |
|   \\  /    A nd           | Website:  www.openfoam.com                      |
|    \\/     M anipulation  |                                                 |
\*---------------------------------------------------------------------------*/
FoamFile
{
    version     2.0;
    format      ascii;
    class       volScalarField;
    location    "50";
    object      ddt0(k);
}
// * * * * * * * * * * * * * * * * * * * * * * * * * * * * * * * * * * * * * //

dimensions      [0 2 -3 0 0 0 0];


internalField   nonuniform List<scalar> 
13851
(
-5.50756e-06
7.87654e-08
5.48143e-08
3.26032e-05
4.72294e-08
8.32148e-09
-1.94945e-07
6.75114e-08
-0.00132468
8.69044e-10
-1.53228e-07
4.13123e-08
-4.46607e-08
-0.00110013
-3.60417e-07
0.000485626
-7.42614e-05
-2.65663e-08
-0.00270357
-2.00285e-06
-2.45622e-07
-1.18735e-07
-0.000861411
8.98857e-09
-0.000182668
-2.36329e-06
0.00201552
-0.00181795
-0.00160098
4.77531e-08
-3.80404e-05
-1.7851e-07
-1.27754e-05
-0.000741384
-1.21251e-08
-0.00156627
2.63342e-09
-0.000756688
-0.000162339
1.68263e-07
-0.000391889
-0.0015072
-4.77301e-05
7.49465e-05
-0.00137834
1.13542e-07
2.52243e-08
-0.000110718
-1.04956e-07
-6.52662e-08
0.000171009
-4.32068e-08
0.00733315
-3.91122e-07
-0.00124037
1.63167e-07
-1.03046e-05
-0.000339532
0.00447953
-0.000530909
4.03073e-08
0.00191178
2.5432e-08
-9.68273e-08
-1.5582e-07
1.88598e-07
-0.000489232
6.90226e-07
1.02798e-07
2.68801e-05
-5.9374e-05
-2.84098e-07
-2.7326e-08
-0.000530387
-4.70261e-07
9.05805e-09
-6.69014e-05
1.46569e-08
-0.000163956
-2.7397e-08
8.54693e-08
0.000197632
2.64992e-08
-0.00104998
-0.000580861
-4.33911e-05
-1.32233e-07
-0.00109317
-2.04968e-08
-3.18741e-05
-4.25146e-08
-1.83914e-07
9.07921e-05
-4.33355e-05
-0.00010069
3.95154e-07
8.06511e-08
0.000255146
7.52388e-05
7.79019e-06
0.000517614
-1.64106e-06
2.12652e-06
-7.63541e-09
1.01945e-07
-4.16493e-08
1.1228e-07
-5.8227e-05
-1.66759e-07
-1.38623e-08
-8.58174e-08
1.15602e-07
5.56841e-06
2.84889e-07
-1.18402e-05
-3.49442e-07
6.99127e-08
6.82828e-08
2.50192e-05
4.4533e-05
-3.16629e-06
-5.73245e-09
1.5022e-07
-0.000802456
-0.00499824
1.58297e-06
9.21356e-08
1.35474e-08
-0.000634951
-5.25623e-07
-1.09372e-07
1.83448e-08
-0.000985173
-0.000747403
-2.73113e-07
-0.000114949
3.8722e-07
-4.733e-05
1.96789e-07
-7.06286e-07
6.53355e-05
1.47615e-07
-2.95852e-08
1.73506e-07
-0.000161273
7.30892e-08
1.41433e-08
-3.83385e-05
-0.00155756
-1.18483e-07
0.000534417
-6.43836e-07
3.21999e-07
-0.0018746
1.41052e-08
-7.81066e-08
3.24578e-08
-0.00015003
-5.6801e-07
-4.99382e-08
1.26783e-08
-0.00161011
1.82647e-08
-4.15613e-05
-0.00109168
-0.00129697
-0.00126665
0.000159823
-9.99896e-08
-0.000290738
3.38876e-08
7.27028e-08
1.47593e-07
3.96656e-08
-9.57288e-05
-0.00139041
0.000953476
7.63988e-08
-4.88564e-07
0.000877584
-0.00478217
8.07732e-06
-9.54101e-08
-5.54863e-07
-3.92121e-05
-0.00156593
-1.27082e-05
-1.99724e-08
5.03049e-10
8.2331e-08
-0.000272401
-5.51099e-07
-0.000884618
1.83753e-08
7.45205e-08
-0.00227281
-1.27193e-05
5.47036e-08
-4.31245e-08
-2.60972e-07
0.000193849
-0.000149112
-0.000360438
-4.00413e-07
-0.000297604
-0.000120361
7.74706e-08
-9.43855e-07
-0.00126047
-3.21863e-08
-0.00041755
1.48375e-07
0.000203939
-2.30314e-09
5.35952e-08
-5.71901e-08
-7.38726e-08
-0.00712671
1.41872e-08
-3.07289e-07
7.15255e-08
-1.64892e-06
-0.000881015
-0.000127323
7.81506e-08
-9.88967e-07
1.25795e-09
3.87387e-07
2.45576e-08
1.45035e-08
0.000106276
-4.10669e-09
-2.2943e-08
6.5991e-09
-0.000328057
4.24121e-08
0.00850154
-0.000310239
1.63944e-05
5.7989e-09
0.00397331
-0.000636726
-0.00128803
-0.00100743
-8.54149e-08
-6.08479e-07
-0.00544151
-4.5807e-07
-2.3967e-06
-1.26652e-07
-0.00124446
3.12465e-06
5.6882e-08
2.51216e-08
0.000154676
-0.00160442
-0.000938999
7.68264e-08
1.33601e-06
-2.03333e-08
-0.0044334
-0.00378252
1.1065e-08
-2.10916e-09
1.88088e-06
-3.10952e-08
7.85565e-07
-6.79645e-06
-0.00253595
4.64115e-08
-8.12919e-08
4.05802e-08
-0.00104773
-3.64572e-07
-3.1867e-07
-1.09379e-08
-0.00551405
-0.00282481
-9.12494e-06
-4.95452e-08
-0.00110785
-5.86721e-05
3.76109e-08
-3.29107e-07
-0.00114148
9.95059e-08
3.27781e-08
-9.62136e-06
-3.18136e-08
2.75475e-08
6.29979e-09
1.98662e-08
6.30355e-08
-1.24155e-07
3.68733e-08
-0.00128477
-2.97155e-07
1.51959e-07
-0.00160536
-0.000815614
-5.85062e-09
-2.13279e-06
0.00014751
1.50114e-07
-1.28218e-08
-2.18431e-07
-0.000894971
-0.000216968
3.19423e-09
5.20666e-08
-0.000367746
3.54118e-08
7.82065e-08
0.000128326
-0.00262268
-5.00237e-08
-0.00161277
-0.00162752
-6.13335e-05
5.99649e-06
4.38228e-08
-0.000142373
-0.000717044
-0.00200169
-4.69654e-08
-7.15368e-05
-0.000355626
-1.49666e-06
-1.20134e-06
7.47831e-08
7.19755e-08
-3.7115e-08
-0.00115236
4.33908e-07
5.64555e-08
2.75403e-08
-1.3249e-07
-6.60281e-05
-1.40987e-05
9.32004e-08
-9.54613e-05
-2.13677e-08
2.33564e-09
-7.14431e-08
-0.000784568
-0.00557129
-0.0139596
-2.23588e-08
-1.83658e-08
-0.00159431
8.02566e-09
-0.00302264
5.09334e-08
-2.3048e-07
-1.16463e-08
-3.07241e-08
1.52422e-07
-4.21044e-06
5.59403e-05
4.411e-06
-0.00116989
-0.00156974
6.04453e-08
-0.000323456
-0.00538728
1.64489e-08
-0.00230381
-6.97628e-07
6.05368e-05
-1.46068e-07
-2.26709e-06
0.00479856
-0.000578524
5.84772e-07
-0.00121418
-7.71522e-08
-0.00138575
-4.0145e-05
-1.25067e-08
-0.00137578
4.55883e-08
-0.000285561
-2.78077e-07
-6.15761e-07
5.02741e-06
-0.000125361
-8.08958e-08
3.00709e-08
1.75766e-07
-4.65336e-07
1.16418e-07
-4.33903e-07
-0.000765952
-2.05822e-08
-9.23853e-07
2.64876e-05
-3.33789e-08
0.00331539
-1.00801e-06
-0.0002574
-3.54724e-08
-2.08459e-06
5.24776e-05
-0.00409495
-1.44929e-08
-0.000865389
-0.000522664
0.00166556
-1.99235e-08
-7.23975e-06
4.75831e-08
-2.49509e-06
-3.63377e-09
-5.41428e-05
-0.000648286
-0.000533113
-4.94049e-09
5.51299e-06
0.000688147
2.10731e-05
2.48878e-08
-7.19012e-05
3.09058e-05
-0.000170662
-1.55454e-07
-0.00100558
-7.39656e-08
3.95818e-08
-0.00112866
0.000121301
-1.01068e-08
7.06593e-08
-9.0122e-07
6.31462e-08
-0.000694223
5.78251e-08
-9.66486e-07
-7.09814e-08
-6.42435e-08
-6.09813e-08
-0.000494002
1.4745e-07
-6.6815e-08
0.000762616
-0.000774029
-9.66523e-08
0.00454074
1.30456e-08
3.94568e-08
-3.65912e-08
3.00323e-06
-8.86213e-07
1.2165e-07
-3.87993e-09
-3.31106e-06
6.17443e-08
-0.000302088
4.34314e-08
-2.19023e-07
-0.00133169
-7.59383e-08
4.95358e-08
2.67934e-08
-7.16355e-08
9.88544e-08
0.00274838
9.182e-05
-6.10763e-08
-1.51546e-06
-1.48011e-08
4.5737e-08
-0.000844336
0.00440568
-3.1607e-08
3.38554e-08
-0.000774224
-4.93159e-08
0.0254067
-1.93982e-08
1.76012e-08
1.16281e-06
-5.09295e-07
-0.000694699
0.00106696
-0.000591071
1.17271e-07
-8.5594e-06
-9.6679e-09
-0.00162958
-9.93053e-07
-1.25693e-05
7.68332e-08
-3.36018e-08
-5.0868e-08
9.29219e-08
4.50768e-08
-2.13577e-05
-0.000763286
-0.000316691
1.55884e-05
0.00026405
-1.59701e-05
-0.00369178
3.63804e-08
-1.20462e-08
-0.00514645
-5.16889e-09
1.0552e-07
-1.64069e-08
-0.000129713
5.92729e-08
1.28699e-07
7.23264e-08
1.11657e-07
-1.5372e-08
-1.24997e-05
4.78993e-08
-0.00067419
-0.00257778
-2.14908e-08
5.37148e-08
0.000140377
-0.00227488
3.54843e-08
-0.000584533
-0.00404078
6.4931e-08
-0.000127283
-0.00307515
-8.9835e-07
1.22765e-07
0.000912859
-0.00032571
4.40858e-08
8.16704e-05
1.27004e-07
5.77736e-08
0.00172467
-0.000276995
1.0247e-07
-8.23327e-07
-5.87452e-09
-1.70593e-06
-0.000645715
-0.000141861
5.03169e-08
-4.62538e-05
1.20478e-07
1.09768e-07
1.73163e-08
-2.55035e-07
2.87578e-08
1.30927e-08
-0.000138724
-0.000153698
-0.00012608
7.39057e-08
-1.79536e-08
-0.00106169
-2.53547e-09
-6.04231e-06
-1.78373e-07
-4.68351e-07
-1.78886e-08
-0.000980948
-7.43917e-05
3.25285e-08
-6.68038e-05
-2.33096e-08
2.38941e-07
-0.00146441
-0.00136048
1.71533e-07
-1.34179e-08
2.4795e-06
-0.000128572
0.0070877
-1.75382e-06
-0.0151225
-2.70785e-07
-2.89909e-07
0.00016444
-5.40199e-05
2.43878e-06
-0.000709586
-0.00143399
-0.00149234
-8.91729e-08
0.00448183
-0.00129255
4.68655e-08
8.87185e-05
-0.000110097
-7.29109e-08
-6.49663e-07
1.32906e-07
9.41383e-06
-1.11053e-07
0.000174726
1.36067e-07
3.06113e-08
6.80194e-08
1.18076e-07
4.4856e-08
-0.000109372
3.07855e-08
-0.00154756
1.0301e-07
-2.54247e-06
4.08483e-10
-2.02526e-08
-6.57645e-08
-4.66719e-05
7.74125e-08
-0.00010115
3.77555e-08
6.0789e-08
1.64884e-08
1.50262e-07
-2.28484e-08
2.0628e-06
6.10294e-08
-1.10558e-07
0.0049186
-1.54477e-08
-0.000657768
8.6752e-11
-4.28769e-06
-6.97723e-05
-0.00125225
1.31547e-06
-0.000203144
-8.07517e-07
-0.00016472
-0.000148124
5.56867e-08
-3.69692e-05
-1.75263e-08
-2.06278e-08
2.26379e-05
-0.000372523
1.90897e-08
3.60667e-07
7.85861e-08
-0.00157307
0.000155127
5.10149e-08
-2.26442e-09
-0.000602442
-1.76337e-09
-2.86638e-09
-2.54085e-06
-0.000670684
0.00164279
-2.59109e-08
4.06519e-06
5.69789e-08
-3.23538e-08
0.00510407
6.96393e-06
-7.73661e-06
2.96165e-08
-7.98747e-06
-3.64259e-07
-1.64047e-06
5.30233e-08
9.27888e-08
-1.41001e-08
5.10819e-08
-1.04641e-05
-2.81259e-07
-2.08378e-07
1.08215e-06
-0.00696511
-0.00258902
-0.000724001
-0.000630374
0.000203964
-0.00116063
-4.09782e-08
0.00131885
-3.21662e-06
-2.49312e-08
-2.65916e-07
-0.00225928
-1.4187e-07
-2.53255e-08
-2.18032e-08
-4.12184e-06
-0.00110039
-1.98078e-07
-0.0002911
6.14734e-08
0.00126298
-1.38473e-07
0.000139776
-3.55863e-07
-4.37926e-08
6.6249e-08
0.000148297
-6.30152e-06
-8.80671e-08
0.000427999
-7.38862e-08
-0.00738088
-4.05202e-06
-0.002542
3.88081e-08
-0.000363719
-7.56169e-08
-1.59358e-09
7.82353e-08
-3.89439e-08
-0.00148075
6.32925e-08
0.00559051
-0.00108192
-1.61134e-06
-0.000148216
4.06464e-05
-0.00327339
-0.000148391
9.41304e-08
-1.46497e-08
-8.65736e-08
2.08302e-08
1.29561e-08
3.33002e-08
2.15229e-07
7.45289e-07
3.60351e-08
-0.00223945
-1.57546e-08
-0.00129963
-4.13663e-09
4.00814e-05
2.377e-08
2.50528e-09
-2.59733e-09
-0.00125228
7.90245e-09
0.00046881
-0.000147549
-6.21744e-07
-9.98597e-08
3.70216e-08
-0.000732317
7.39218e-08
6.80501e-08
0.00501665
-1.44412e-08
1.3876e-07
2.65081e-08
-1.02054e-06
-0.00123149
-6.45418e-08
1.99465e-08
-0.000114377
-0.000118728
-2.46051e-09
-2.45137e-08
-0.00145809
2.05395e-08
-0.00150652
2.18946e-08
6.45315e-08
-0.000171562
-3.29258e-06
-1.35547e-05
-6.3024e-06
1.90956e-08
-5.43997e-09
-4.58588e-09
2.86135e-07
-8.36413e-08
-4.15869e-09
-2.94741e-07
-0.00062919
4.81003e-08
9.89706e-05
-0.00483179
0.00119469
2.82249e-06
1.45793e-05
5.14446e-07
-1.39484e-08
8.42451e-06
5.09278e-08
3.39715e-08
-0.000640534
-0.00157462
-3.9453e-05
-0.00129984
2.33157e-08
6.03862e-08
1.39194e-07
1.16875e-07
5.42831e-08
-0.00101571
-0.00477439
-0.00139142
-4.01789e-06
-2.67165e-06
-5.20201e-08
5.02001e-08
-0.00298845
-6.58667e-07
7.15306e-08
-6.56086e-10
-1.03638e-05
1.20916e-05
-0.00028079
5.56085e-09
1.76642e-08
-0.00109771
4.69369e-08
1.6675e-08
5.851e-08
-0.000141683
4.72484e-08
-7.11505e-05
3.58778e-08
9.89121e-06
-1.4692e-07
-3.37345e-07
2.1646e-08
-4.38783e-08
4.26862e-08
4.7687e-08
0.00609989
7.12604e-08
-0.00108781
-4.88608e-08
-0.00108059
-0.000936534
6.18135e-09
6.33711e-08
2.59423e-05
0.000109422
1.71169e-08
-3.3974e-06
-8.30352e-08
-0.00086219
-2.59341e-08
-0.00134044
4.99339e-08
4.71748e-08
0.000808027
-6.56978e-08
2.99518e-08
-3.93166e-07
-0.00055424
0.000310065
-0.000543955
8.52795e-08
-0.00118198
4.62059e-08
4.87201e-08
2.5474e-08
3.05684e-08
-4.7157e-09
-0.000391805
-0.000759451
3.68046e-08
3.18784e-08
8.46542e-08
1.14973e-07
3.09106e-05
3.82974e-06
-0.00112477
-0.000153049
3.45384e-08
-1.46506e-05
4.62057e-08
-2.13382e-07
-1.15192e-06
4.65452e-08
1.36307e-08
-0.00164625
0.000142292
-8.17693e-07
-3.86871e-05
-1.5096e-06
3.03733e-08
1.40573e-07
-4.18487e-06
-9.0741e-06
-1.50704e-07
0.00207944
-1.6255e-06
8.70878e-09
0.00032558
0.000313439
-0.00135833
-0.000347963
0.00185094
1.15159e-07
-8.5436e-07
-6.50225e-08
-0.00246266
-1.54078e-07
5.65361e-08
-0.00045388
2.17551e-08
5.6126e-08
1.74346e-07
5.93524e-08
-0.000118684
-0.0027047
5.38596e-08
1.46081e-07
-0.000927655
-8.15169e-08
-3.91023e-05
1.25769e-07
-2.6611e-06
-0.000227004
4.3465e-08
0.00677144
-1.04463e-07
3.97615e-08
-6.34838e-05
1.82576e-08
0.000101657
-2.03584e-06
-0.00045789
3.93078e-08
-0.00117366
1.24829e-08
-0.000830935
7.37608e-05
-0.001024
-7.53081e-07
-5.10094e-08
2.69411e-08
-2.01985e-09
-5.74996e-07
1.17304e-08
-0.000668321
-8.51547e-08
1.6285e-08
3.22739e-08
1.23556e-07
8.25998e-08
-2.45581e-07
-1.41507e-07
5.46632e-08
-1.31749e-07
-0.000169303
0.00653817
-1.06734e-08
-2.04116e-08
-0.000459182
1.39429e-07
-6.52398e-05
3.27688e-08
-5.50852e-08
7.58026e-08
6.59063e-08
-1.06141e-07
4.55167e-08
5.87661e-08
1.58496e-06
-7.4128e-08
-0.000141494
-1.92208e-08
7.65589e-05
-0.00321739
-0.00351848
-2.45291e-05
1.86551e-08
-0.000130692
-1.89814e-05
4.12423e-09
-1.47267e-07
1.23566e-07
-7.55914e-05
1.19171e-07
1.08252e-06
-0.00228869
2.23731e-05
-1.04179e-07
-5.04146e-08
-0.00109755
-0.00258043
0.00138539
-1.08405e-07
6.27793e-08
5.44253e-08
3.81569e-08
-7.08701e-08
-0.000293125
-8.63558e-06
-1.31941e-08
-0.00587998
0.00017419
1.96511e-08
-0.000162161
-6.96995e-05
-0.00405004
-4.69457e-08
-0.00107082
2.3659e-07
4.34427e-08
-0.00125163
-1.25972e-08
3.96406e-10
1.91685e-09
-4.01948e-07
-6.22385e-07
-0.00119814
-2.80412e-05
-7.57794e-07
-0.00122895
-4.20575e-07
-6.71616e-08
-1.566e-06
-1.94812e-08
-0.0012644
5.23611e-08
4.53371e-08
2.94106e-08
-8.14101e-08
-0.00102134
-0.00100004
0.00322663
-4.1387e-05
-0.000138851
-1.4832e-08
1.00537e-08
-3.3953e-08
0.000270795
5.33578e-08
5.52251e-08
1.33199e-08
-0.000158586
0.00787511
4.76002e-08
-5.30038e-09
4.91726e-08
-4.92724e-06
-4.40611e-05
6.58358e-08
3.89779e-08
-3.53043e-08
-0.000582214
-2.93973e-07
-0.000606834
1.0368e-07
1.7482e-08
7.20015e-09
2.98558e-08
-5.99368e-08
-0.00368766
-0.00143078
-0.00133127
-2.84121e-07
4.6857e-08
-0.00270591
6.60557e-08
-0.000803384
-0.000437656
3.35865e-08
-4.95777e-05
-0.00152149
3.55004e-06
-1.42147e-06
-1.32197e-07
-0.00116597
-2.68741e-08
-4.15956e-08
5.69471e-07
-3.96504e-06
-8.81146e-08
-0.000331243
-7.04592e-08
-0.000483022
-0.000606673
3.34714e-08
1.19748e-07
-1.87513e-07
-0.000143402
-5.18712e-08
2.67461e-08
-1.48312e-07
8.29617e-08
-7.56871e-08
1.00347e-05
-1.22379e-08
-0.000160599
-0.00121332
-7.36424e-08
-1.16339e-07
-6.52307e-07
4.30279e-08
-0.00157981
-0.000616986
-0.000136919
-0.00131649
3.99721e-08
-1.1177e-07
-1.36046e-07
4.30687e-08
0.00434031
-7.00434e-08
-2.1191e-09
-1.96283e-06
7.2097e-08
-0.000911231
-2.0429e-07
-0.000908461
7.53798e-08
-5.46033e-08
-4.04661e-07
-3.55357e-07
4.49476e-08
-4.43268e-08
-0.000683725
-0.00063891
-0.000178712
-3.76261e-05
-0.000589035
-0.00129195
-0.000853325
-5.56816e-08
-1.26562e-08
5.37108e-08
0.00705276
-9.30262e-07
1.58593e-07
-4.50847e-05
4.47269e-08
3.45477e-08
-5.31794e-09
0.00909107
1.28465e-08
-8.96267e-09
5.21444e-08
0.000795183
1.6134e-07
4.98369e-08
4.51909e-08
9.87795e-08
2.93558e-08
6.41788e-08
0.00420453
-3.23054e-08
-0.00077167
1.53782e-08
3.72336e-08
-0.000678186
-0.000812088
-0.00108617
0.00153551
-6.94773e-07
0.00148358
6.34413e-08
-8.25927e-08
-4.43858e-08
4.29909e-08
-9.29863e-08
-7.45741e-05
6.11269e-08
-1.13583e-06
-0.00110042
1.08346e-07
8.42009e-08
4.65358e-08
-0.00308834
-3.32402e-09
0.000886109
4.78194e-08
0.00734379
-8.67134e-10
2.06271e-08
2.50006e-08
5.76246e-07
-4.26917e-08
0.00173848
-5.78795e-05
0.00934474
-0.000785382
-7.68196e-08
-1.66113e-05
-0.0028693
3.33798e-08
-0.00058731
2.42421e-08
-2.43659e-06
5.60749e-09
-6.79535e-09
3.74334e-08
-2.80367e-08
7.09365e-08
4.16445e-08
-1.2519e-06
-5.73951e-08
1.19877e-08
-1.77963e-08
2.33389e-08
-0.000270897
2.83881e-09
4.12122e-09
-4.58026e-07
-0.000690364
-0.00258298
-3.05094e-09
-0.00399277
5.89068e-08
-3.71967e-07
1.2997e-09
0.00203063
-8.08605e-07
-1.15928e-09
-5.73234e-06
-1.57853e-07
-3.33697e-06
-0.00342185
-1.0812e-07
-2.58454e-06
-1.76436e-06
-1.66696e-06
1.55057e-07
-5.8431e-09
0.00101858
2.0216e-05
-1.28671e-07
4.25563e-08
-4.17366e-05
5.99752e-08
-8.92221e-08
-1.02561e-08
-6.69883e-07
-0.000708739
8.47719e-08
-2.18947e-05
2.14365e-08
1.6135e-08
0.00104255
5.50913e-08
-1.63837e-06
-0.00137185
7.36102e-08
0.000899058
3.92433e-08
2.37877e-09
-2.11467e-06
-7.99725e-09
3.51703e-09
-1.86963e-07
8.66947e-09
-1.41784e-06
2.00512e-08
2.62143e-08
-9.39256e-09
1.0999e-08
5.02208e-08
-1.01517e-08
3.47954e-08
-0.00283096
3.92712e-08
1.4029e-07
0.00422618
6.19572e-08
4.64641e-08
-0.000979904
-3.07028e-09
9.68086e-05
6.77711e-08
-0.000997277
-0.00671881
-1.00403e-06
-0.00504075
3.00269e-07
-4.8831e-05
-3.59575e-08
1.89589e-05
-1.4511e-07
-3.17111e-09
1.13764e-07
1.15218e-07
-4.37109e-08
8.55553e-08
8.4646e-08
2.21727e-08
-6.78531e-08
-4.3044e-05
0.000170297
0.0229204
-7.72939e-08
2.13125e-06
-0.000101898
7.19037e-05
-8.00784e-09
-1.95649e-08
-0.00188374
4.55587e-09
5.47196e-08
-0.00309818
-0.00130495
-1.4193e-07
-7.3431e-07
9.02342e-08
0.000288049
-4.25225e-09
-1.79047e-07
-0.00129527
7.79149e-08
6.81052e-08
-0.000303915
7.0348e-08
0.00280234
-0.000883578
-4.57577e-06
1.08678e-07
2.49141e-08
1.99415e-08
-5.6701e-05
-0.0016564
-0.000912201
8.50321e-08
-5.07992e-08
1.50145e-05
2.56099e-08
-5.34264e-06
-1.89235e-07
-3.08614e-08
-1.22246e-07
5.03276e-08
-0.000147646
-0.000122962
3.62065e-08
-1.64945e-07
-9.60721e-07
-0.00241523
1.12083e-07
-1.67521e-06
0.00353021
-4.42784e-07
0.0069766
-1.83323e-06
1.5381e-08
-5.13064e-07
-1.31968e-06
0.00057594
4.02098e-08
0.00250108
2.09405e-07
-1.75198e-06
-3.17569e-09
-0.000171449
2.25425e-08
1.25886e-07
7.62601e-08
-8.34116e-08
-3.59942e-08
-2.64154e-07
3.91129e-08
1.2393e-07
1.01168e-07
8.21606e-05
8.15233e-09
-8.95852e-09
6.40625e-08
-5.25917e-07
-0.000130449
-2.40823e-09
-2.60082e-06
-0.00179294
-9.71731e-08
-0.00114653
-5.91056e-07
0.000101344
0.000117589
-5.89383e-08
-0.000408142
1.62744e-08
-9.86696e-08
-3.42111e-07
-7.59637e-08
2.59542e-06
-1.03289e-06
-3.52627e-08
-5.76723e-08
-7.56309e-09
3.10622e-08
7.75989e-09
1.05872e-07
3.02259e-08
-3.16721e-08
-0.0028512
-1.52038e-07
-1.2077e-07
-2.19726e-08
-0.00121196
-7.52465e-07
9.01402e-09
5.74069e-08
6.98095e-08
-0.000838376
1.40491e-06
-3.46245e-07
-0.00135818
-0.00382244
-0.00174969
4.52984e-07
0.00682842
3.53314e-08
2.96814e-06
5.18571e-08
6.76604e-08
-0.00104146
-0.00157152
0.000426319
0.000984436
5.02287e-09
-0.000777724
3.59262e-08
-3.8406e-06
6.531e-09
0.00201241
-0.000393676
-1.8158e-07
5.31827e-08
0.000429505
-1.28883e-06
1.5299e-08
-6.71128e-05
1.55162e-08
1.33444e-07
2.85429e-08
-5.89913e-09
-2.83795e-08
6.41455e-08
-6.49788e-08
-8.83861e-08
0.000130963
-2.63189e-07
1.13608e-07
2.10175e-08
8.93433e-05
-0.00156135
5.78977e-08
0.00220361
1.02177e-08
-1.25695e-08
-0.000898853
5.09683e-08
1.62649e-07
5.77136e-08
-2.0242e-05
2.89073e-08
1.64958e-08
8.68678e-08
0.0015102
5.5526e-08
-4.70598e-08
-8.05993e-08
-0.00300187
4.68115e-08
8.70711e-08
-0.00521982
1.79192e-08
1.81253e-07
5.40259e-08
-0.000551427
-8.40248e-08
5.07726e-09
-1.98115e-07
2.99598e-07
2.15744e-08
2.65722e-08
-1.78068e-06
-0.000921966
3.80299e-08
-0.000584323
8.76274e-09
4.48425e-08
5.38364e-08
4.19326e-08
4.37325e-08
-9.30833e-05
-7.21193e-09
-8.32095e-08
0.000836291
-9.1191e-05
-0.00335647
5.49509e-08
6.77982e-08
1.37668e-08
4.48922e-08
-6.75551e-08
4.49562e-08
0.00360688
-2.84258e-09
0.00755689
-5.93289e-06
6.69083e-08
2.55729e-08
-3.4727e-08
-3.75414e-06
0.00282956
-3.89983e-08
1.87604e-07
1.3122e-08
-0.00131686
-3.68548e-07
-4.58913e-07
-6.01279e-07
1.01819e-07
-5.18716e-07
0.000126692
-5.62377e-07
-0.0011681
-0.00117058
6.00663e-05
4.42212e-08
1.46864e-07
4.69141e-08
-1.07734e-07
1.82824e-08
6.04859e-08
9.29803e-08
9.0299e-09
-4.96896e-09
5.08264e-08
2.3148e-08
3.58707e-08
1.90652e-09
-8.14889e-05
5.76464e-08
-0.00066921
4.07999e-08
-1.61135e-07
-9.00799e-08
-5.71598e-06
-1.74494e-07
-6.35879e-08
-0.000770471
4.04063e-08
-4.67798e-09
-3.92763e-07
3.21825e-09
-9.14212e-08
-2.40424e-08
-0.00126388
-5.99294e-08
8.99801e-08
3.99382e-07
-0.000728294
-7.29415e-08
0.00745017
-0.00304511
-3.25837e-08
1.0376e-08
1.53555e-08
-1.19434e-06
2.559e-07
7.43898e-05
2.43248e-08
6.09197e-05
1.79364e-07
2.37569e-07
-0.000355845
-3.08245e-08
0.00247316
-1.10456e-07
-2.03919e-08
1.32149e-10
-0.000116537
-5.63973e-08
3.42016e-08
-1.01493e-08
1.5577e-06
-9.61327e-08
1.69896e-08
2.66403e-08
-0.00016009
-5.02092e-09
-5.6337e-08
-0.000720196
6.11564e-09
-4.54425e-08
-1.0814e-08
-9.25325e-08
-0.000707793
2.88634e-08
-6.93937e-08
4.23314e-08
2.64026e-08
-3.52405e-08
-7.55784e-09
-1.50098e-06
-0.000781706
-3.20523e-08
1.2868e-08
-0.00102681
2.21508e-08
-1.65231e-05
-1.83988e-07
-0.000171041
8.29071e-08
7.06367e-08
5.76447e-08
-0.00136554
-0.000787034
-1.20709e-07
-2.43862e-09
-3.26493e-07
1.295e-07
3.74768e-09
-0.00116838
3.51424e-08
-3.43656e-06
4.23527e-08
-6.88784e-07
-1.58271e-08
-0.000792318
5.78217e-08
-8.57909e-07
5.76477e-08
-9.90709e-05
0.000650343
1.17708e-08
-5.43799e-10
-7.21152e-05
-1.6677e-06
0.00102767
0.00290026
-0.000100996
8.41888e-08
6.17412e-08
2.81353e-07
-0.00208719
9.54527e-10
-5.89996e-07
1.91519e-08
1.40091e-07
-0.00112761
9.59553e-05
-1.40305e-06
-1.05736e-05
0.000410021
-8.04055e-08
-0.00107628
2.12914e-08
1.96556e-08
-8.82439e-09
-0.000159165
-1.45233e-05
-9.17239e-06
-0.00263918
7.11573e-08
-0.000153217
-0.00150123
-0.000308566
1.40259e-08
2.95996e-05
-6.48088e-06
-0.00425532
-0.000742284
-0.00113947
-4.04708e-06
-4.43239e-08
4.0625e-06
3.07164e-08
1.20349e-07
-0.000476079
-1.60074e-06
9.04526e-09
-0.000550798
4.88657e-10
6.04473e-09
-2.61828e-07
3.98245e-08
-0.000552691
-1.4042e-08
2.54476e-05
-9.02168e-07
3.504e-07
-0.00131439
-0.000198341
6.24381e-07
-6.22069e-09
5.40951e-08
2.30119e-07
-8.78833e-08
5.3426e-08
2.09847e-07
-4.50945e-07
-1.5873e-05
4.75544e-08
4.18042e-06
-1.4293e-09
-1.64511e-08
0.000422799
0.00688415
7.40575e-08
1.6438e-05
-6.20094e-05
6.46863e-08
9.13471e-08
-0.000253367
-0.00017959
-1.22113e-07
-1.17695e-08
4.15952e-08
1.17431e-07
-3.78665e-08
-0.0015077
-6.61483e-07
1.20674e-07
1.45644e-08
-2.07064e-07
-9.15651e-08
-0.00331221
0.000162928
1.13723e-07
3.05736e-08
-1.35661e-07
1.00113e-08
-5.00695e-08
6.27643e-08
-6.74449e-08
6.70495e-08
1.39353e-08
2.5142e-08
-4.32443e-08
-1.02137e-06
-0.00235937
1.77775e-09
-0.000693945
-4.45111e-05
5.36921e-08
5.28553e-08
-2.23357e-06
1.54177e-06
1.69472e-07
-2.03366e-06
4.12846e-08
6.88302e-08
-1.91285e-08
-9.93911e-08
1.42015e-08
4.99656e-05
-1.76583e-07
0.00104766
1.63184e-07
-2.60626e-08
3.14306e-08
5.81656e-08
-2.80837e-08
-9.67847e-08
-1.78754e-06
-0.000200246
1.41767e-09
-0.00376211
-0.00068427
-0.00065682
6.06288e-08
-4.90508e-07
2.06991e-05
-0.000577961
-0.000142515
2.31049e-08
1.12434e-07
8.89604e-06
-0.00260228
0.00165219
-1.39747e-07
0.00256523
1.62448e-08
-9.9092e-09
-7.08953e-08
-3.80582e-10
-7.2098e-08
8.59851e-06
2.14547e-10
2.65918e-07
6.90379e-08
-0.000277404
-0.0007556
-0.000964171
0.000503063
-0.00053686
-5.00362e-08
2.11444e-09
-8.54071e-05
1.66391e-08
1.37858e-08
4.2639e-08
8.34457e-07
-0.000637219
6.33874e-05
2.64576e-08
4.30559e-08
-5.42826e-08
-8.43781e-08
-0.000997035
4.53548e-08
0.00252877
-0.000260573
-1.04775e-09
-1.50705e-08
-0.00139942
-3.14294e-06
-4.00014e-08
2.50113e-08
-0.000543766
-0.000136471
6.84692e-09
-0.00504843
-7.90322e-10
-0.000733048
-0.0168245
-1.45271e-07
0.00010091
-4.53853e-05
-0.000844399
6.64208e-08
4.15338e-09
-2.83612e-09
4.39371e-09
-0.000717558
9.43187e-08
-6.96794e-05
0.0063739
0.000116531
-5.8161e-08
2.22683e-08
-0.00392814
1.92724e-07
-9.99287e-05
-0.000101489
2.53204e-08
4.59346e-08
4.34691e-08
0.00010918
-0.00106573
4.18195e-08
-0.00120624
-5.52453e-08
-6.76624e-07
1.6367e-07
4.88254e-08
1.78411e-05
5.92955e-08
3.89534e-05
1.68502e-09
6.80394e-08
-6.59328e-08
-1.03089e-05
6.38399e-08
-0.000891872
-0.00147346
8.08896e-05
-3.96444e-06
3.55846e-08
4.50425e-08
-1.94806e-06
1.07746e-07
-0.0010994
-5.1704e-05
2.37055e-08
0.0019864
3.64871e-08
-0.000172624
-2.91046e-07
6.19891e-08
8.58186e-08
-4.50845e-08
-0.000729151
5.11602e-08
-7.22046e-08
-0.00112041
-0.000315197
-0.00411783
-0.000591661
-7.65411e-08
-1.4501e-07
8.21646e-09
-0.000244229
-7.0431e-08
-9.48635e-05
8.51832e-09
-0.00071583
8.24141e-08
9.9633e-09
-2.42359e-08
-6.78169e-09
-5.08739e-08
1.37382e-07
-0.00150509
-9.18122e-07
1.04883e-07
-4.83083e-08
-0.00141311
-0.000543319
-7.34412e-08
-0.000113577
-9.20342e-08
-4.31861e-07
-3.98482e-07
5.1202e-08
-1.95724e-07
-1.51125e-09
-0.000832988
-7.87268e-07
-1.97641e-07
3.76447e-10
0.000131607
1.05429e-07
1.4256e-08
-0.000948638
-0.00134379
-0.00626942
3.59971e-08
-0.00315351
1.73611e-09
-1.15886e-06
-1.31025e-07
-2.29578e-06
-0.000419114
-0.00142853
1.14841e-07
-0.00062844
6.92626e-09
-1.70638e-07
8.05125e-08
-0.000818414
4.26303e-08
9.31907e-07
-2.51099e-07
9.59523e-09
0.00176243
-3.41569e-06
0.000151447
0.00492779
-9.88258e-05
-0.00153382
-0.00121947
-1.65737e-05
-6.16296e-08
-1.87872e-08
3.63877e-08
-4.29071e-08
2.55181e-08
-0.000769351
-8.72502e-08
-8.64441e-08
-0.000143587
2.15131e-09
4.41255e-08
-7.59575e-07
-4.79653e-06
2.91625e-09
6.71041e-08
-0.000154428
-8.43112e-08
-1.02783e-06
1.76257e-07
-8.59521e-05
2.17679e-08
-0.000436364
-4.02125e-08
2.0171e-08
-4.93636e-08
3.86737e-08
1.74282e-05
-0.00422385
3.8625e-08
1.41331e-07
5.28325e-08
-0.00112473
-5.07584e-05
-0.00158943
-8.78583e-09
-1.07141e-07
-0.0034674
-6.31857e-09
4.26959e-08
1.15343e-07
-0.000665686
9.11906e-07
-8.4463e-08
-2.58462e-07
-5.86074e-08
-0.000581078
-4.90494e-07
-0.00621374
-1.76405e-07
-2.008e-08
3.20717e-08
-7.2556e-06
7.17558e-08
-6.60708e-08
-0.0011456
-0.000112898
-0.000492368
-0.00076124
-8.65937e-06
-0.000318636
-0.000130786
7.21075e-08
4.55104e-08
-0.000507393
8.52168e-05
-0.000145028
1.38648e-07
-3.93882e-08
-4.96754e-08
-2.92482e-08
0.00326258
-0.00030368
-8.41156e-07
1.85439e-08
-0.00093442
-1.56838e-06
8.00055e-08
-0.00105444
-0.000282262
0.00149319
5.45597e-08
-0.000928983
0.00416326
-0.000143724
-3.93915e-07
2.18327e-08
-5.34634e-08
4.44072e-08
1.04656e-07
1.47579e-07
-9.03888e-08
-6.14714e-07
-9.84931e-09
-1.30804e-08
0.0082383
-0.00137383
-7.93952e-08
-7.7783e-07
-0.000377251
0.00781043
8.70956e-09
4.87178e-07
1.2772e-05
-0.00126234
7.8247e-08
-5.62833e-08
3.72756e-09
-1.49163e-07
-4.22855e-08
4.53762e-08
-3.53243e-08
-2.49238e-07
-8.53298e-07
6.53556e-05
9.29999e-09
-8.13056e-08
-0.00148214
-0.0012143
-0.000173406
-0.00414942
-6.03003e-06
7.02922e-08
-2.26031e-08
1.60806e-08
8.0219e-09
-9.80526e-05
-2.59339e-08
-3.88887e-09
3.87522e-08
-0.001251
-0.00310248
9.90871e-08
-1.32353e-06
-1.35336e-07
-6.36308e-08
-5.87343e-09
-7.90003e-08
-2.16242e-07
3.8725e-08
2.25692e-05
2.75926e-08
-4.45958e-05
2.94471e-09
-0.00016122
-7.53684e-08
5.71472e-08
7.66403e-08
-8.44036e-07
2.97476e-06
5.49992e-08
-4.2803e-08
-3.96515e-08
1.64645e-07
0.000760722
9.44332e-05
-0.000568656
-3.6681e-09
-0.000983528
-6.61261e-08
-3.4438e-08
-1.4708e-09
1.20434e-06
3.63628e-08
-0.00106318
-8.13021e-06
-3.31245e-08
4.12657e-08
-0.00119844
4.21399e-08
-0.00123133
2.62955e-05
0.00818333
-2.2043e-08
-1.69378e-06
-0.000467038
-0.00150396
-0.00110481
3.56122e-07
1.95694e-08
8.42295e-09
1.23537e-08
-0.000391326
2.57487e-12
-2.2004e-08
-0.000560698
-0.00014834
2.52593e-08
9.8756e-08
-7.07463e-05
8.23012e-08
-0.000283661
-8.88097e-07
2.21863e-08
1.31428e-07
-0.00624196
2.58957e-07
0.00188953
-5.03318e-08
-0.00217921
-9.80983e-08
-1.00947e-08
1.19002e-07
9.59922e-06
8.8604e-08
-5.31265e-06
-7.31979e-08
6.77175e-08
4.49866e-05
-5.50098e-08
-4.17237e-08
4.26053e-08
-6.20126e-08
-0.0028654
-7.66366e-07
1.10834e-07
5.81275e-08
-1.04436e-07
7.90488e-08
-1.51167e-05
1.28897e-09
2.7493e-08
-2.69344e-07
-1.81764e-07
3.51923e-07
2.58485e-07
1.09955e-08
-1.30516e-06
6.27804e-05
-0.00126247
-2.30632e-09
0.00441064
-0.0013062
1.50697e-08
6.9358e-08
-2.42238e-06
-0.00088746
-5.34968e-08
-0.00138679
0.00026235
5.07688e-08
-2.69568e-06
2.64291e-08
3.51781e-08
1.71614e-07
-0.000800053
1.94827e-07
0.00814032
-0.0039361
-0.000876555
-0.000697328
-3.44045e-08
-0.00124473
-2.443e-08
0.00409786
-0.000497326
3.63017e-08
4.32498e-08
-0.00132985
-7.25733e-08
4.27725e-08
-0.00303365
-0.000983346
-0.00139187
-5.3774e-08
-0.000483453
4.14426e-08
-0.00100232
-0.00133248
1.33596e-08
-0.000332906
-0.000782131
3.63746e-05
-0.00150168
-0.00139401
-0.00138769
4.57373e-08
8.98711e-08
1.54288e-07
-9.40705e-07
4.31095e-08
0.00859585
1.0769e-08
-0.00144784
-0.00176014
-6.14538e-07
0.0012816
-0.00149842
-0.00129278
0.00520335
-2.72816e-07
-7.60712e-05
-0.00054333
1.46551e-09
8.37011e-09
0.00326747
-1.06285e-07
2.83917e-08
-0.000152401
-3.23201e-08
0.00270593
-6.09545e-08
-0.000485131
-2.67658e-08
-5.46389e-08
-0.00598626
2.31447e-08
-7.07911e-08
-0.00119288
-8.86159e-05
0.00410845
-1.79537e-07
-8.49388e-07
1.50626e-07
-6.79912e-07
-2.58871e-06
-6.55025e-07
-6.10082e-09
0.00112522
-4.76773e-08
-7.78664e-08
-0.00141115
-2.24424e-09
-6.11524e-08
3.0353e-05
4.95351e-07
-8.81998e-07
-5.22285e-08
7.26554e-06
7.85156e-08
-3.93164e-07
0.00564195
-0.000471369
4.14477e-08
7.52147e-08
1.73266e-05
7.00082e-08
6.90905e-07
-3.47681e-07
1.24821e-07
-0.000426357
-2.20608e-07
9.3256e-08
-0.000609174
3.24609e-08
-0.00118622
1.99446e-08
1.00668e-08
-3.23038e-06
-0.00157022
-8.63487e-08
3.04927e-06
0.000169903
-2.91014e-07
-5.12744e-08
-8.58579e-07
1.26281e-07
-0.000151491
3.10249e-08
-0.0160083
-4.28807e-06
-3.19592e-07
5.45633e-09
-5.1567e-08
1.0472e-08
-2.12434e-07
-3.51286e-07
-9.5741e-08
-1.03639e-07
4.60575e-08
-0.00593257
-5.77315e-08
-4.69852e-08
4.50109e-08
-2.77862e-06
-1.27512e-08
-6.33801e-07
-0.0011167
5.45414e-08
-0.000316875
4.42321e-08
-3.05026e-08
4.38348e-09
-1.34565e-08
-1.71014e-07
-1.01473e-08
-2.72907e-06
-3.11127e-05
-9.86337e-07
-1.2957e-07
-2.23858e-08
5.47313e-08
0.00727867
6.25553e-08
-0.000408145
-0.00108884
-6.03001e-05
-3.76795e-05
-7.47888e-08
-1.50343e-07
-8.86296e-09
-7.34776e-09
5.74043e-07
6.08119e-08
-0.000169
-1.21092e-06
-0.000100394
0.000384784
1.07424e-08
4.94085e-08
-0.00129379
9.11349e-08
-2.98798e-08
-2.40171e-07
6.6131e-05
4.76656e-08
-0.000682706
-1.58001e-08
-1.41376e-07
-5.10456e-08
1.60706e-07
-9.52198e-07
-7.04334e-06
2.3837e-08
-3.91719e-07