/*--------------------------------*- C++ -*----------------------------------*\
| =========                 |                                                 |
| \\      /  F ield         | OpenFOAM: The Open Source CFD Toolbox           |
|  \\    /   O peration     | Version:  v2012                                 |
|   \\  /    A nd           | Website:  www.openfoam.com                      |
|    \\/     M anipulation  |                                                 |
\*---------------------------------------------------------------------------*/
FoamFile
{
    version     2.0;
    format      ascii;
    class       surfaceVectorField;
    location    "50";
    object      Uf_0;
}
// * * * * * * * * * * * * * * * * * * * * * * * * * * * * * * * * * * * * * //

dimensions      [0 1 -1 0 0 0 0];


internalField   nonuniform List<vector> 
20580
(
(1.29396 0.0300964 0)
(1.29656 0.0315627 0)
(1.29284 0.0324375 8.24875e-20)
(1.12411 -0.0383018 -1.055e-20)
(1.12473 -0.0402103 -1.50774e-20)
(1.12727 -0.0385277 -1.46838e-20)
(1.12327 -0.0355259 2.71646e-20)
(1.12063 -0.0373383 -8.25415e-21)
(-0.198806 -0.00531101 0)
(-0.184158 -0.00687709 6.5203e-20)
(-0.198353 -0.00609172 -1.13483e-21)
(1.00339 -0.000865198 -1.01223e-21)
(1.00304 -0.00080023 0)
(1.00318 -0.000476321 6.00971e-23)
(1.14003 -0.062207 3.35333e-20)
(1.13918 -0.0654673 -1.02353e-20)
(1.13606 -0.0630746 3.10282e-20)
(1.1083 0.0328571 -1.01755e-20)
(1.1095 0.0348925 -2.54139e-20)
(1.02126 -0.00127877 -2.56226e-21)
(1.02081 -0.00131668 -3.66779e-23)
(1.01993 -0.000822539 -5.85111e-21)
(-0.104554 0.011426 2.47132e-20)
(-0.101581 0.0119302 2.4559e-20)
(-0.120295 0.00968553 2.68461e-20)
(0.992222 -0.0235806 -3.23685e-21)
(0.992499 -0.0225261 -2.68379e-21)
(0.993037 -0.0229477 -6.42467e-21)
(1.23699 -0.169084 4.17771e-20)
(1.23036 -0.167533 1.94978e-20)
(1.23278 -0.174427 -4.86394e-20)
(1.00308 -0.0143754 8.08409e-23)
(1.00341 -0.0148748 -2.56024e-23)
(1.00324 -0.0151008 1.95715e-22)
(0.984391 -0.0431316 0)
(0.984228 -0.0444184 0)
(0.985426 -0.0434316 -8.46731e-21)
(-0.24597 -0.00488297 1.9916e-20)
(-0.256761 -0.00550397 -9.11241e-21)
(-0.238587 -0.00351746 2.70934e-20)
(1.19491 0.00945958 -3.52716e-21)
(1.19828 0.00856693 2.6871e-20)
(1.19479 0.00617357 3.51254e-20)
(1.24357 0.153479 -1.02112e-20)
(1.23977 0.155622 -3.0367e-21)
(1.24312 0.157685 -1.21712e-20)
(-0.310075 -0.00974707 4.41231e-20)
(-0.318172 -0.00804959 0)
(-0.316312 -0.00633153 0)
(1.05986 -0.0283435 3.67375e-21)
(1.06141 -0.0283536 0)
(1.06094 -0.0298181 8.50612e-21)
(1.09079 -0.00144561 2.93359e-20)
(1.09191 -0.00273474 -2.94374e-20)
(0.995073 0.00437152 -7.64377e-21)
(1.29481 0.0267852 4.33047e-20)
(1.29113 0.0286833 8.0556e-20)
(1.21481 -0.00891988 -1.9418e-20)
(1.21186 -0.0115155 -2.14652e-20)
(1.21049 -0.00739414 9.85326e-21)
(1.07255 -0.135325 0)
(1.06813 -0.135606 0)
(1.07031 -0.131113 0)
(0.410238 -0.235239 7.40742e-20)
(0.281905 -0.175381 -6.84959e-20)
(0.151025 -0.118871 5.4223e-20)
(1.00009 -0.000307151 -1.55771e-22)
(1.00014 -0.000406895 1.72089e-21)
(1.00009 -0.000258092 -3.40908e-21)
(0.53444 -0.0248545 9.99703e-21)
(0.522684 -0.0259273 -8.7003e-20)
(0.436447 -0.0208611 0)
(1.20206 0.102747 4.55454e-21)
(1.20306 0.105658 1.56783e-20)
(1.20557 0.103326 1.69736e-20)
(0.8044 0.08744 0)
(0.750754 0.0834167 -8.11647e-21)
(0.760047 0.0868823 -3.01838e-20)
(0.493112 0.0343328 0)
(0.501774 0.0343921 3.67562e-20)
(0.432121 0.033747 4.52045e-20)
(-0.00434168 0.0310827 3.49042e-22)
(-0.0205728 0.0287847 3.60413e-20)
(-0.0276151 0.027332 -4.19387e-21)
(1.035 -0.0179595 0)
(1.03447 -0.0186664 4.53704e-21)
(1.0339 -0.0176379 0)
(-0.157399 -0.0174544 7.44287e-20)
(-0.174685 -0.0168774 2.76049e-20)
(-0.149873 -0.0182282 -1.47861e-20)
(1.10977 0.0316481 -5.95235e-21)
(1.10697 0.0314055 -2.11093e-20)
(1.29114 0.0416268 5.15306e-21)
(1.29036 0.0452849 0)
(1.28748 0.0415858 4.19733e-20)
(-0.0455392 0.0123682 -6.3386e-20)
(-0.0500568 0.0122283 2.89538e-20)
(-0.0205911 0.014516 -3.78173e-20)
(1.1944 -0.141988 1.84033e-20)
(1.19705 -0.13783 7.41869e-21)
(1.19879 -0.143963 1.58469e-20)
(0.00117621 0.033135 -4.90512e-21)
(0.0232304 0.0368603 -6.74007e-21)
(0.00851562 0.0339264 -4.05565e-20)
(1.00003 -0.000199657 -1.66792e-22)
(1.00009 -0.000367766 -1.85515e-21)
(0.645742 -0.118295 -9.10132e-20)
(0.558233 -0.101724 6.65388e-20)
(0.532671 -0.0981208 -7.83586e-20)
(-0.174768 -0.00164924 1.81989e-20)
(-0.167806 -0.00106935 -4.93407e-20)
(-0.151001 -0.00118917 1.80139e-20)
(1.0195 -0.0618625 1.0348e-21)
(1.02026 -0.060443 9.75574e-22)
(1.02114 -0.0622769 -1.46079e-21)
(-0.120361 0.00641971 -3.88312e-21)
(-0.0973977 0.00865998 -2.7122e-20)
(-0.116087 0.00711311 -6.29664e-20)
(0.0113379 0.03374 8.95376e-21)
(0.0189166 0.0351122 -1.77251e-20)
(-0.252322 -0.00355942 5.75371e-20)
(-0.255431 -0.00403465 0)
(1.10982 -0.561652 -2.1928e-20)
(1.09932 -0.56685 -1.19578e-21)
(1.09689 -0.576609 2.81984e-20)
(0.0247107 0.0348329 -2.5091e-20)
(0.0174256 0.0336549 -1.79889e-20)
(-0.000677309 0.0303787 -8.38483e-21)
(1.02789 -0.0364955 -2.24507e-21)
(1.02678 -0.036656 -1.72357e-21)
(1.02698 -0.0352684 8.47867e-22)
(1.02774 0.000737941 6.8591e-21)
(1.02746 0.000619186 1.18424e-20)
(1.26051 0.125055 -4.43313e-20)
(1.26264 0.128937 2.34741e-21)
(1.25658 0.126722 -3.84964e-20)
(1.08022 -0.0893051 1.05981e-20)
(1.07743 -0.0864663 0)
(1.08128 -0.0864808 1.56588e-22)
(0.984581 -0.0415861 -1.07706e-20)
(0.983113 -0.0425139 6.44146e-21)
(-0.320699 -0.00507256 5.68472e-20)
(-0.320608 -0.00570452 2.76771e-21)
(-0.34382 -0.00594699 -2.21186e-21)
(0.974943 -0.0383063 5.80709e-21)
(0.976185 -0.0378567 0)
(0.975659 -0.0396462 0)
(1.24756 0.151236 -3.24236e-20)
(1.23768 0.149559 2.01659e-20)
(1.14985 0.050353 3.29889e-20)
(1.15278 0.0512551 -1.04466e-20)
(1.15047 0.0532361 3.35964e-20)
(-0.227842 -0.00469647 2.18944e-20)
(-0.210532 -0.00242372 6.42369e-20)
(-0.230602 -0.00464493 4.75727e-20)
(1.01897 -0.0632671 -1.46601e-21)
(1.01804 -0.0613882 -1.03468e-21)
(1.29427 0.0422394 4.16325e-21)
(1.29189 0.0389181 -4.59015e-20)
(-0.126323 0.00655933 3.70857e-21)
(-0.14159 0.00355797 -8.13596e-20)
(0.778036 0.107602 2.38656e-20)
(0.731055 0.107056 -1.88511e-20)
(0.718582 0.103223 0)
(-0.288537 -0.00414392 0)
(-0.282746 -0.00457228 9.87805e-20)
(-0.268358 -0.00386764 4.65613e-20)
(1.00279 -0.0138606 -2.2065e-22)
(1.00294 -0.0136641 -1.06888e-22)
(0.860339 0.0923015 0)
(0.850227 0.08939 0)
(0.995873 -0.0126824 2.2195e-22)
(0.996032 -0.0130991 7.01446e-21)
(0.995525 -0.0136137 -8.18081e-21)
(1.07885 -0.0913465 1.79753e-20)
(1.0824 -0.0910862 -8.26004e-21)
(0.865764 -0.533199 -2.46852e-21)
(0.891397 -0.529484 -3.68278e-21)
(0.875032 -0.510598 2.11566e-21)
(0.838526 -0.53641 1.49142e-21)
(0.857391 -0.563075 5.01907e-22)
(-0.294564 -0.00684101 -6.39672e-20)
(-0.304741 -0.00650832 0)
(0.69991 -0.179032 2.70979e-20)
(0.693617 -0.195819 0)
(1.04113 -0.0623229 -1.12297e-21)
(1.03941 -0.0627804 3.97149e-21)
(1.03981 -0.0607485 4.18381e-21)
(-0.168885 -0.0112504 -4.52622e-20)
(-0.186731 -0.00882 -3.74221e-21)
(-0.180572 -0.0103337 -1.45927e-19)
(-0.20263 -0.0132704 -4.80081e-20)
(-0.222502 -0.0114792 -4.62685e-20)
(-0.204997 -0.0142376 5.43134e-20)
(1.22953 -0.00863486 -6.98401e-21)
(1.23022 -0.0120218 1.25011e-20)
(1.23366 -0.00952266 7.55615e-20)
(1.00137 -0.0471027 1.06499e-21)
(1.00031 -0.046844 2.47744e-21)
(1.00085 -0.0484738 -1.13387e-21)
(-0.280514 -0.00449 1.71196e-20)
(-0.302226 -0.00641228 5.55583e-20)
(1.16531 0.0435725 2.10087e-20)
(1.16359 0.0411023 0)
(1.16679 0.04117 -4.3463e-21)
(1.04633 -0.112286 0)
(1.04313 -0.110643 0)
(1.04583 -0.108488 0)
(-0.298522 -0.00989636 5.14421e-20)
(-0.289419 -0.00977712 -9.60979e-20)
(1.0342 -0.00782689 0)
(1.03403 -0.00844855 0)
(1.03516 -0.00827885 -7.78124e-21)
(0.541211 -0.0235056 -1.12391e-19)
(0.638593 -0.0320947 -3.22613e-20)
(1.01208 -0.0304897 1.43922e-22)
(1.01157 -0.029431 6.95347e-22)
(1.01122 -0.0301202 4.96875e-22)
(1.04304 -0.0622706 -3.9122e-21)
(1.04224 -0.0643696 -4.18496e-21)
(1.36244 -0.191727 1.99805e-20)
(1.35103 -0.183348 -9.3776e-20)
(1.32039 -0.182603 -5.64921e-20)
(1.18929 -0.140779 0)
(1.19067 -0.146631 8.60163e-21)
(-0.257199 -0.00553318 -1.70377e-20)
(-0.250158 -0.00633583 -1.4054e-20)
(-0.23587 -0.00240068 -1.71746e-20)
(-0.279736 -0.00520585 -1.71775e-19)
(-0.261168 -0.00385638 -7.9607e-20)
(-0.186014 -0.0152348 -8.95487e-20)
(-0.182997 -0.0155735 2.54185e-20)
(-0.164032 -0.0174739 -1.40682e-20)
(1.07528 -0.138918 -3.35196e-21)
(1.07665 -0.134364 0)
(-0.15614 -0.00195474 -3.33048e-20)
(-0.178254 -0.00646339 -1.41251e-20)
(-0.155752 -0.00106244 4.42586e-20)
(0.993966 -0.0281138 -4.06271e-21)
(0.994566 -0.0283893 8.25167e-22)
(0.994414 -0.0272044 -2.53675e-21)
(-0.147079 -0.018415 6.49496e-21)
(-0.168615 -0.0157244 -3.86191e-20)
(0.972788 -0.039008 7.70165e-21)
(0.973906 -0.036489 -1.70028e-20)
(1.11132 0.0304563 -5.76771e-21)
(1.11229 0.0322885 -1.26873e-20)
(-0.308633 -0.00654768 -6.30793e-20)
(-0.310535 -0.00794339 5.68539e-20)
(-0.190637 -0.0148744 -9.48262e-20)
(-0.206465 -0.0135168 -4.4813e-20)
(-0.192941 0.00229317 -1.30663e-20)
(-0.201159 0.00041077 -6.54581e-20)
(-0.213036 -0.000630096 -1.25383e-19)
(1.10381 -0.538828 3.33444e-21)
(1.09682 -0.519887 2.25703e-20)
(1.08254 -0.531704 -3.8544e-21)
(1.02087 -0.0391233 3.97034e-21)
(1.01986 -0.0391931 8.20257e-24)
(1.02107 -0.0404297 -2.8754e-22)
(1.26202 0.140371 -3.01444e-20)
(1.25852 0.14385 8.03498e-21)
(1.25399 0.139557 -6.11612e-20)
(-0.307746 -0.00548298 4.43612e-20)
(-0.30788 -0.00614014 -3.58691e-20)
(-0.330012 -0.00757331 0)
(1.26954 -0.289605 -7.65437e-21)
(1.27778 -0.291482 -4.20537e-20)
(1.27133 -0.298232 1.84292e-21)
(1.26441 0.138179 2.84799e-22)
(1.25354 0.14336 2.25221e-20)
(0.810484 -0.178525 -2.2583e-21)
(0.808499 -0.167457 -4.78795e-20)
(0.819888 -0.171963 -1.12601e-20)
(0.818992 -0.213286 -3.892e-21)
(0.816655 -0.20093 -5.37678e-20)
(0.805317 -0.210133 3.2265e-20)
(0.996017 -0.0507264 -1.96831e-21)
(0.997258 -0.0508422 -2.97838e-22)
(0.996612 -0.052667 3.08615e-21)
(1.03215 -0.0351468 2.93964e-21)
(1.03318 -0.0362992 5.4932e-21)
(1.03305 -0.034867 -1.4118e-21)
(1.22754 -0.0349569 3.8139e-22)
(1.22852 -0.0382966 9.59771e-23)
(1.23166 -0.0343378 -6.41844e-21)
(1.03107 -0.033894 -1.35142e-21)
(1.03091 -0.035456 0)
(-0.200389 -0.0137004 3.51015e-20)
(-0.182454 -0.0158339 1.41956e-19)
(1.10984 0.0285978 0)
(1.11289 0.0289612 -5.16266e-21)
(1.05843 -0.0284279 7.19828e-21)
(1.05885 -0.0271125 -3.88977e-21)
(1.05503 -0.180342 -5.50978e-21)
(1.05759 -0.185907 -8.87277e-21)
(1.05113 -0.184228 1.33153e-21)
(1.02901 -0.0364896 3.20229e-22)
(1.02909 -0.0378484 0)
(1.32868 -0.090722 -2.03333e-20)
(1.3291 -0.0864155 -8.32658e-21)
(1.33374 -0.090392 -5.16679e-20)
(1.25577 -0.102204 5.48139e-20)
(1.2519 -0.0995568 1.46223e-20)
(1.25117 -0.104408 5.4645e-20)
(1.28505 0.0654574 0)
(1.28367 0.0686663 0)
(1.28733 0.0680175 -3.92058e-22)
(1.14702 0.0494157 -5.38062e-21)
(1.14904 0.0476003 -5.87755e-21)
(1.02359 -0.0121583 -6.20583e-21)
(1.02331 -0.0125713 1.68425e-21)
(1.02423 -0.0126492 1.89746e-21)
(1.02179 -0.00111925 -2.40234e-21)
(1.0218 -0.00169653 2.89149e-21)
(-0.213115 -0.00389516 -7.55253e-20)
(-0.201158 -0.0056923 0)
(-0.153473 -0.0122725 1.51272e-20)
(-0.147189 -0.0139017 3.47564e-20)
(1.13395 -0.447771 -2.26939e-20)
(1.12317 -0.457285 0)
(1.14064 -0.461485 0)
(1.04974 -0.0238315 -8.12958e-21)
(1.04801 -0.0238301 -7.00489e-21)
(1.04853 -0.0227084 -5.16412e-22)
(1.03266 -0.0627605 2.48688e-23)
(1.03427 -0.0636477 -6.49722e-22)
(1.03297 -0.064851 1.88021e-21)
(-0.204204 -0.00100802 -1.23565e-20)
(-0.189307 0.000697316 3.00048e-20)
(-0.20457 -0.000702157 3.84341e-20)
(1.21522 0.00636838 -1.78816e-20)
(1.19867 0.00314528 5.08422e-20)
(1.12758 0.00814168 -5.4046e-20)
(0.602941 -0.262334 1.80454e-20)
(0.626284 -0.255143 0)
(0.622145 -0.28539 0)
(1.02206 -0.0392597 -3.74254e-22)
(1.02079 -0.0378689 8.10336e-22)
(1.18402 -0.226521 1.03747e-20)
(1.18271 -0.218944 2.49269e-20)
(1.17757 -0.224752 5.6989e-20)
(-0.106222 0.00810648 -7.13149e-21)
(-0.126875 0.00652378 -5.57654e-20)
(-0.109404 0.00785692 -5.45196e-20)
(1.21927 0.0102853 -1.32044e-20)
(1.22246 0.0113638 -4.10279e-20)
(1.22029 0.00740443 -3.62043e-20)
(1.06382 -0.134946 0)
(1.06571 -0.139315 9.19717e-21)
(1.15781 -0.110432 0)
(1.16039 -0.106329 -4.3893e-20)
(1.15497 -0.107174 -1.59668e-20)
(0.772305 -0.144788 -2.007e-20)
(0.746548 -0.132028 -5.6762e-20)
(-0.0365788 0.0128386 -2.08495e-20)
(-0.0648329 0.0110665 -4.69041e-20)
(1.24273 -0.171437 -1.2682e-20)
(1.24027 -0.16526 -2.47219e-20)
(-0.190719 0.00121867 3.64887e-20)
(-0.207141 0.00102143 -4.25631e-20)
(-0.211987 0.000593301 4.21666e-20)
(0.717091 -0.17693 3.25285e-20)
(-0.182349 -0.015442 1.29357e-20)
(-0.199928 -0.0135584 1.14128e-19)
(0.856537 -0.143796 -2.29493e-20)
(0.846684 -0.142865 3.97114e-21)
(0.851589 -0.1348 -9.13981e-21)
(1.2168 0.0175922 1.12216e-21)
(1.21324 0.0182061 4.32031e-20)
(1.21633 0.0212967 2.40442e-20)
(1.36279 -0.199425 -1.56047e-20)
(1.36421 -0.193365 -5.16534e-20)
(0.983088 -0.0785548 8.98875e-22)
(0.982847 -0.075924 1.00512e-21)
(0.985047 -0.0765234 -7.85993e-21)
(0.993333 -0.0279139 -3.42074e-21)
(0.993467 -0.0291839 2.75301e-21)
(0.746049 -0.365072 2.45353e-21)
(0.728493 -0.380075 2.19249e-20)
(0.752728 -0.38398 -1.34493e-20)
(0.509544 -0.00436436 -6.80145e-22)
(0.441041 -0.00197781 8.29627e-21)
(0.435936 -0.000271529 1.38372e-20)
(1.02864 -0.107282 -3.31418e-21)
(1.02855 -0.110025 2.54085e-21)
(1.02561 -0.108636 -1.9494e-21)
(1.0343 -0.00720345 0)
(1.03329 -0.00746266 9.4857e-21)
(-0.196517 -0.0141529 -1.3905e-20)
(-0.116936 0.0101123 6.60491e-20)
(-0.115007 0.0112883 -1.92459e-20)
(-0.1336 0.00755034 -2.35018e-20)
(1.1871 -0.232245 -3.17226e-20)
(1.19098 -0.226318 -7.62711e-20)
(1.26284 0.135089 2.88364e-20)
(1.26897 0.136451 -3.3416e-20)
(1.32826 -0.0963479 3.86053e-20)
(1.32367 -0.0920944 9.19761e-20)
(1.25931 -0.104852 -2.68961e-20)
(1.26004 -0.100023 3.78013e-20)
(1.24962 -0.0117733 2.83646e-23)
(1.25683 -0.0156439 4.06766e-21)
(1.30072 -0.020249 1.169e-19)
(0.976425 -0.0494406 -4.21965e-21)
(0.977384 -0.0509167 -1.67433e-20)
(0.975506 -0.051601 -1.57965e-21)
(0.98537 -0.029668 2.97305e-22)
(0.984525 -0.0291661 -7.0766e-21)
(0.985543 -0.028317 1.49388e-22)
(1.00289 -0.0114815 -1.60703e-23)
(1.0028 -0.0117599 3.76182e-22)
(1.00255 -0.0109553 2.19078e-22)
(-0.180924 -0.00177611 -1.58557e-21)
(-0.194893 -0.00298918 2.63077e-20)
(1.20964 0.0131833 -2.47695e-21)
(1.21043 0.0163041 1.39217e-20)
(1.20758 0.0151728 -2.14967e-20)
(1.11114 0.00995221 1.74565e-20)
(1.11255 0.0110926 0)
(1.11339 0.0092049 -1.70375e-20)
(1.00019 -0.000746486 -2.29745e-22)
(1.00019 -0.000653964 -2.68216e-21)
(1.00029 -0.00089158 5.8657e-22)
(-0.0104931 0.0296258 -2.74762e-20)
(-0.0162874 0.0294682 4.4678e-21)
(0.00844591 0.0335656 -1.58054e-20)
(1.22713 -0.0308337 6.69588e-21)
(1.2234 -0.0347936 -3.09195e-20)
(1.25944 0.120526 1.65531e-20)
(1.26433 0.122692 3.39017e-20)
(-0.23514 -0.0044283 5.31652e-20)
(-0.2539 -0.00743736 -1.37527e-20)
(-0.0500271 0.0191543 -2.01873e-20)
(-0.0685926 0.0171719 -3.87937e-20)
(-0.0464278 0.0181648 1.30091e-20)
(-0.0562322 0.0185813 -8.09914e-21)
(-0.0295504 0.0212861 2.51411e-21)
(-0.32258 -0.00495232 -8.27303e-20)
(-0.301887 -0.00434472 9.72567e-20)
(1.05891 -0.176315 8.90328e-21)
(1.05288 -0.174805 3.81361e-22)
(0.144879 0.024993 2.60352e-20)
(0.151245 0.025671 -5.18114e-20)
(0.110961 0.0231458 -2.06796e-20)
(1.0025 -0.0133745 -5.15004e-22)
(1.00225 -0.012866 -3.56701e-22)
(1.00235 -0.0126476 -3.71046e-22)
(1.02396 -0.0116804 -3.95417e-21)
(1.02298 -0.0115457 -2.2001e-21)
(1.24962 -0.046721 -4.87852e-21)
(1.24969 -0.0509274 1.7525e-20)
(1.24568 -0.0488869 -2.10169e-20)
(1.00184 -0.000620533 -1.21231e-22)
(1.00166 -0.000793542 0)
(1.00155 -0.000519938 -2.16213e-21)
(-0.187933 0.00286466 6.57263e-20)
(-0.172658 0.00332771 -3.93601e-20)
(0.768342 0.0625992 -6.10413e-21)
(0.835236 0.0658954 -3.81002e-22)
(0.780033 0.0649573 2.59709e-20)
(1.27475 0.116891 1.49768e-20)
(1.27489 0.114632 1.33775e-20)
(1.2441 0.118662 -1.11872e-20)
(1.02434 -0.0112724 -5.61221e-21)
(1.02489 -0.0118116 2.76925e-21)
(1.16216 0.0478757 -1.25663e-20)
(1.16385 0.0455715 5.47475e-21)
(1.16047 0.0455521 -2.92276e-20)
(1.27343 0.120529 -1.79068e-21)
(1.27565 0.116473 1.75033e-20)
(1.21488 0.0077404 -5.16064e-20)
(1.2782 0.00011301 -1.41918e-19)
(1.12658 -0.548075 2.93736e-20)
(1.06226 -0.172041 -4.85237e-21)
(1.05996 -0.166811 -1.1745e-20)
(1.06534 -0.167695 -6.24407e-21)
(1.21778 0.014429 -3.62719e-20)
(1.21484 0.0104296 2.23164e-21)
(-0.282902 -0.00630636 6.03837e-20)
(-0.27942 -0.00525595 7.18549e-20)
(-0.103753 0.0129209 6.28103e-20)
(-0.121191 0.00909853 4.20066e-20)
(1.28895 0.0478355 1.35549e-20)
(1.29253 0.0481619 4.59987e-20)
(0.896538 -0.113715 0)
(0.891842 -0.109569 -1.44719e-20)
(0.890923 -0.116902 2.38928e-20)
(0.981514 -0.0510314 -3.65737e-21)
(0.980642 -0.0497136 -6.30146e-21)
(0.982217 -0.0490974 1.47024e-21)
(1.0323 -0.0251989 -3.34813e-21)
(1.03251 -0.0262749 -4.39037e-21)
(1.03363 -0.0256416 -9.01573e-21)
(0.582729 -0.00883317 5.41491e-20)
(0.578344 -0.00467437 -5.45176e-20)
(1.2111 0.0106712 1.44363e-20)
(1.20724 0.0103225 2.61093e-21)
(-0.263293 -0.00752798 -1.59552e-20)
(-0.275228 -0.00666848 -4.84349e-20)
(1.13992 -0.0584925 4.30188e-20)
(1.14335 -0.0607831 -4.39582e-20)
(1.02861 -0.104145 1.36341e-21)
(1.03163 -0.105853 0)
(1.2553 0.146476 6.52138e-20)
(1.25106 0.149036 9.13728e-21)
(1.24588 0.14487 2.96677e-20)
(1.28779 0.0497615 1.01671e-20)
(1.2858 0.0469501 -6.32484e-20)
(1.07836 -0.0130155 7.77933e-21)
(1.08021 -0.0137474 -1.47972e-21)
(1.07852 -0.0146905 1.04685e-20)
(1.07256 -0.0430045 -1.75229e-21)
(1.07029 -0.0429862 1.78721e-20)
(1.0713 -0.0413302 1.46211e-22)
(0.700052 -0.210109 0)
(0.721407 -0.214111 0)
(0.709695 -0.228376 2.1941e-20)
(1.36352 -0.204969 -9.69598e-21)
(1.36318 -0.212713 -1.84699e-20)
(1.36052 -0.20707 6.88307e-20)
(-0.188354 0.00397861 -2.01062e-20)
(-0.176277 0.00447006 0)
(-0.169301 0.00504458 3.82808e-20)
(-0.137797 0.00664446 -9.81975e-21)
(-0.143443 0.00666067 3.52129e-21)
(-0.117844 0.00809798 -1.28781e-19)
(1.19147 0.0102917 -2.04748e-20)
(1.19451 0.0128918 -1.49263e-20)
(0.923185 -0.802192 1.49759e-20)
(0.914569 -0.847571 -6.83167e-20)
(0.964018 -0.847326 -1.55101e-23)
(-0.205259 0.00322392 4.00447e-20)
(-0.197892 0.00358708 -4.1173e-20)
(0.938819 -0.0596262 3.6018e-21)
(0.941078 -0.0578172 0)
(0.938103 -0.0564417 7.27176e-21)
(1.20834 0.0392064 0)
(1.20891 0.0361554 4.50568e-20)
(1.20573 0.0380874 0)
(-0.112859 0.0104685 3.68023e-20)
(-0.0984 0.0118296 5.31658e-20)
(-0.119008 0.00971408 3.23398e-20)
(1.12811 -0.0729602 -4.63377e-21)
(1.12961 -0.0751648 -9.56267e-21)
(1.12601 -0.0751536 -2.06129e-20)
(1.23601 0.158053 -7.2388e-21)
(1.2325 0.160859 0)
(1.23725 0.161922 0)
(1.03146 -0.0623467 3.55601e-21)
(1.03229 -0.0614655 2.45192e-21)
(1.33575 -0.200219 4.06859e-20)
(1.00021 -0.00325777 0)
(1.0003 -0.00380402 -1.19954e-22)
(1.00027 -0.00392644 8.87556e-24)
(1.20097 -0.133333 -1.29243e-20)
(1.20472 -0.130516 3.91622e-20)
(1.20512 -0.13686 2.20493e-20)
(1.04934 -0.11974 8.54641e-21)
(1.05269 -0.120287 7.61718e-21)
(1.05082 -0.1233 2.42019e-21)
(0.985004 -0.0400259 4.96319e-23)
(0.985938 -0.0406038 -1.02096e-20)
(1.24075 0.0295528 -3.00422e-20)
(1.18384 0.0329913 3.31393e-20)
(1.18743 0.0308799 0)
(1.07854 -0.0297939 -7.06319e-21)
(1.07663 -0.0286588 -9.67956e-21)
(1.07887 -0.0278237 1.31035e-20)
(0.185562 -0.603406 2.39539e-20)
(0.144225 -0.650587 1.56068e-20)
(1.02384 -0.0106325 -3.67404e-21)
(1.02482 -0.010837 -3.31715e-21)
(1.29545 0.0241648 4.36612e-21)
(1.29604 0.021174 -3.49643e-20)
(1.29277 0.0226012 1.79231e-21)
(-0.261098 -0.00438109 1.02668e-20)
(-0.28207 -0.0064406 -1.56543e-22)
(-0.20098 0.000494495 1.07652e-20)
(-0.204437 0.0010536 -5.16274e-20)
(-0.181841 0.0016614 7.06918e-20)
(0.903415 -0.122795 2.18102e-20)
(0.908869 -0.120624 9.0032e-22)
(0.907583 -0.127252 1.35687e-20)
(1.20752 0.0422671 -3.72611e-20)
(1.21062 0.0404115 -6.14534e-20)
(1.0001 -0.00213873 -8.66958e-23)
(1.00005 -0.00159722 1.51139e-22)
(1.00006 -0.00163145 -1.86685e-22)
(0.756506 -0.350821 -4.19229e-21)
(0.736292 -0.344206 -2.87076e-20)
(1.00538 -0.0237296 5.7015e-23)
(1.00517 -0.0227043 -8.38018e-24)
(1.00575 -0.0233528 8.00344e-23)
(1.19617 -0.131375 -4.13162e-20)
(-0.0895498 -0.0176616 9.3004e-20)
(-0.123682 -0.0147864 -2.27649e-22)
(-0.111397 -0.0162199 1.40973e-19)
(0.900159 -0.119012 9.60658e-21)
(0.901681 -0.111812 0)
(1.12589 -0.0699544 -4.18912e-22)
(1.12996 -0.0697053 7.90018e-21)
(0.996538 -0.00952206 0)
(0.996207 -0.0103104 3.69132e-21)
(-0.156198 0.00532776 8.80939e-20)
(-0.134242 0.00545035 3.75105e-20)
(1.03623 -0.0181459 -5.83233e-21)
(1.03542 -0.0171005 0)
(0.58495 -0.32531 6.33224e-21)
(0.751408 -0.42776 8.98529e-20)
(-0.146647 0.00631933 3.77587e-20)
(-0.15106 0.00595878 -2.73777e-20)
(-0.127854 0.00724775 -2.90581e-20)
(1.26079 -0.286972 4.24064e-20)
(1.26781 -0.280642 6.06031e-21)
(1.00018 -0.000833318 2.06731e-21)
(1.0001 -0.000598345 -1.42076e-21)
(1.31553 -0.437059 0)
(1.26045 -0.401405 -1.33656e-19)
(1.24201 -0.406568 -3.15532e-20)
(-0.278398 -0.00648849 -1.3404e-20)
(-0.273832 -0.00783104 3.90987e-20)
(-0.257441 -0.00424728 6.36332e-20)
(0.052018 0.0388476 -6.91793e-20)
(0.0311595 0.0358347 -3.46504e-20)
(1.23008 0.15407 -7.37607e-21)
(1.18801 -0.0315359 1.5465e-20)
(1.18751 -0.0355071 -5.68399e-20)
(1.18409 -0.0321922 5.43282e-20)
(0.71747 -0.415689 5.58273e-21)
(0.710905 -0.395289 3.16166e-22)
(0.692186 -0.410499 -2.19168e-20)
(1.28833 0.0285139 -8.94483e-20)
(1.29173 0.0258152 -1.97238e-21)
(1.1635 0.050261 -1.90354e-20)
(1.16017 0.0500581 -2.27777e-21)
(1.10922 -0.509287 -1.59695e-21)
(1.09188 -0.504072 0)
(1.08117 -0.189468 -6.32637e-21)
(1.07519 -0.188939 8.60003e-21)
(1.07852 -0.184295 0)
(-0.192623 -0.00371615 -3.49463e-20)
(-0.208507 -0.00614115 1.23841e-20)
(-0.208006 -0.00654437 2.54268e-20)
(1.30542 -0.013828 -2.36348e-21)
(1.30446 -0.00994566 -6.78303e-20)
(1.30174 -0.01411 -4.5058e-20)
(1.01592 -0.000928094 2.43608e-21)
(1.01675 -0.00129564 3.6626e-21)
(1.01599 -0.00191516 -2.78032e-21)
(1.14725 -0.0257652 0)
(1.14403 -0.0248243 -8.96238e-21)
(1.14449 -0.0279023 0)
(1.25183 0.148511 3.54895e-20)
(-0.00886602 0.029447 -2.74035e-21)
(-0.0280715 0.0269433 -3.43194e-20)
(-0.0964813 0.000910889 2.36192e-20)
(-0.0803523 0.00574796 -2.001e-20)
(-0.0878453 0.00379245 0)
(1.0312 -0.0247291 1.69988e-20)
(1.03216 -0.0243093 5.90776e-21)
(0.584426 -0.276292 1.46441e-20)
(0.995098 -0.0286204 2.90772e-21)
(0.995662 -0.0288426 2.61339e-21)
(0.995556 -0.0277428 -2.65164e-21)
(1.25071 0.055504 -3.05459e-20)
(1.25512 0.0528644 -3.36383e-21)
(1.28333 0.051217 -5.12398e-20)
(1.21728 -0.0029035 7.37245e-21)
(1.2229 -0.00254315 0)
(1.27885 -0.00833792 1.0879e-19)
(1.14958 -0.0271598 2.85878e-20)
(1.14924 -0.0246049 -2.80617e-21)
(1.22706 -0.0275034 -1.13369e-21)
(1.23062 -0.027649 4.39843e-20)
(1.30693 -0.0165937 1.65934e-19)
(1.30891 -0.0125109 3.2087e-20)
(1.00659 -0.0427987 5.3217e-22)
(1.00765 -0.0437237 5.39907e-22)
(1.00721 -0.041852 -5.22596e-22)
(0.813453 -0.18896 -1.6227e-20)
(0.801063 -0.184931 -6.89755e-22)
(1.25664 0.108774 1.71079e-20)
(1.25762 0.113119 -6.6629e-20)
(1.25362 0.110972 1.76843e-20)
(0.533359 0.0380615 -9.87743e-21)
(0.522866 0.0373777 -3.04767e-20)
(0.60046 0.0375294 3.52483e-20)
(0.999297 -0.0185713 -3.59148e-21)
(0.999488 -0.0178631 9.11099e-22)
(0.999201 -0.0175989 -1.27616e-21)
(0.985405 -0.0386169 1.08136e-20)
(0.983956 -0.039454 7.00421e-21)
(0.898334 -0.125017 -1.07163e-20)
(-0.0570256 0.0158573 -9.32516e-21)
(-0.0520078 0.0160741 -5.93868e-20)
(-0.031843 0.0179016 2.49615e-20)
(-0.227985 -0.00255581 9.94959e-22)
(-0.240341 -0.00123755 0)
(-0.22995 -0.00349788 1.65334e-23)
(1.22231 -0.00223786 -1.28738e-20)
(1.21965 -0.00352374 -8.25771e-20)
(1.22274 -0.00548119 1.64536e-20)
(1.05126 -0.0238932 3.28813e-21)
(1.05077 -0.0250771 -5.41548e-21)
(1.21158 0.00900681 3.17616e-21)
(1.13551 0.014652 0)
(1.24165 -0.00860077 -2.27129e-22)
(1.23375 -0.00497808 -2.17741e-22)
(1.29082 -0.0140015 5.84452e-20)
(1.2821 0.0559003 4.13715e-20)
(1.28013 0.0598102 4.10008e-20)
(1.27781 0.0561471 3.52617e-20)
(1.22674 -0.0234936 -3.14597e-20)
(1.2233 -0.0270108 0)
(-0.0622827 0.0147675 0)
(-0.0791227 0.0123346 0)
(-0.30043 -0.00524398 2.69831e-20)
(-0.300018 -0.00579072 2.18119e-20)
(-0.322947 -0.00643775 -4.87709e-20)
(1.15085 -0.0393751 -1.41324e-20)
(1.15093 -0.0421228 2.47837e-20)
(1.15377 -0.0398231 5.0142e-21)
(1.18379 0.00665917 -5.69847e-21)
(1.18684 0.00662192 -2.92848e-20)
(1.18451 0.0094262 -4.26277e-20)
(0.610329 -0.130017 -1.36099e-20)
(0.578037 -0.121534 6.35464e-20)
(0.456798 -0.0942959 5.95065e-20)
(1.03574 -0.0328707 -2.24763e-21)
(1.03666 -0.0341314 -9.73228e-21)
(1.03472 -0.0335385 -4.31853e-21)
(1.00294 -0.0111153 -3.76022e-22)
(1.00299 -0.0107891 4.36087e-22)
(1.00265 -0.0103466 -2.85706e-22)
(1.28335 0.0532571 -9.91197e-21)
(1.28523 0.0565347 3.62005e-20)
(1.21292 -0.187896 1.73112e-20)
(1.21168 -0.181994 2.47342e-20)
(1.2066 -0.186137 1.81545e-20)
(1.03749 -0.0181135 -4.53556e-21)
(1.03859 -0.0181509 -3.17623e-21)
(1.03771 -0.0172982 7.12271e-21)
(1.00037 -0.00376022 1.22732e-22)
(1.00032 -0.00378207 -4.11314e-23)
(1.00022 -0.00319853 1.93635e-22)
(1.00554 -0.024484 0)
(1.00504 -0.0238776 6.92284e-22)
(1.00657 -0.00113526 -1.6565e-21)
(1.00704 -0.00117165 3.55903e-21)
(1.00652 -0.000680005 -2.81864e-21)
(1.18375 -0.0178171 -1.74549e-20)
(1.18706 -0.0189169 4.07239e-21)
(1.18675 -0.0152722 4.19725e-21)
(1.00325 -0.0119552 -3.96598e-22)
(-0.107857 0.0110037 -5.3518e-20)
(-0.0880821 0.0130909 -2.78441e-20)
(1.21873 -0.00961512 -2.74314e-20)
(1.2167 -0.00604039 -3.79592e-20)
(1.02599 -0.051587 0)
(1.02483 -0.0516612 7.06187e-22)
(1.02607 -0.052842 0)
(-0.0187951 0.0269187 7.19139e-21)
(-0.207418 -0.000492089 -1.23446e-20)
(-0.219318 -0.00132666 -2.45175e-20)
(0.977187 -0.0441414 0)
(0.978007 -0.0454999 0)
(0.978722 -0.0437312 -3.72471e-21)
(1.29783 0.0256975 3.84685e-20)
(-0.315407 -0.00541268 0)
(-0.338425 -0.00614713 7.77869e-20)
(-0.31532 -0.00568361 -4.90161e-20)
(0.981267 -0.0805202 4.72012e-21)
(0.983935 -0.0810999 0)
(0.976036 -0.042751 0)
(0.975127 -0.0450823 0)
(1.22099 -0.0122929 2.56808e-21)
(1.22246 -0.00871772 4.209e-20)
(-0.266899 -0.00644746 -1.46142e-20)
(-0.267549 -0.00602208 1.70566e-20)
(-0.248516 -0.00462742 2.06114e-20)
(-0.0230249 -0.0182309 2.91541e-20)
(-0.0524677 -0.016958 9.286e-20)
(-0.0274815 -0.0190825 -4.77188e-21)
(1.2567 -0.0314147 -1.14538e-19)
(1.26015 -0.0333513 2.18438e-20)
(1.25627 -0.0346865 1.20772e-20)
(1.00381 -0.000838683 -3.65399e-21)
(1.00364 -0.00119629 -7.02297e-23)
(0.141784 0.0243617 5.6001e-20)
(0.186159 0.0265674 6.53733e-20)
(1.00265 -0.0141271 -3.01603e-23)
(1.26341 -0.0349488 2.79256e-20)
(1.26387 -0.0389377 -6.13844e-20)
(1.26755 -0.0363481 -4.49474e-20)
(-0.317393 -0.00520341 0)
(-0.296293 -0.00361898 0)
(0.541358 0.0355495 -1.76668e-20)
(0.539368 0.0377844 5.15722e-20)
(0.611644 0.03762 -1.02542e-20)
(1.10953 0.00806918 3.06061e-20)
(1.1086 0.0100237 3.88221e-21)
(0.650593 -0.145294 -9.82994e-20)
(0.772402 -0.177319 -5.90879e-20)
(0.915976 -0.176024 5.57738e-20)
(1.04232 -0.200269 2.50015e-20)
(1.07713 -0.218265 1.15648e-20)
(-0.195309 -0.013854 -1.13599e-21)
(-0.191566 -0.0136926 2.26842e-20)
(-0.173025 -0.015298 -1.1848e-19)
(1.32791 -0.100942 -4.09471e-21)
(1.32316 -0.102621 0)
(1.32747 -0.105971 0)
(0.785827 -0.157386 -8.82985e-22)
(0.785918 -0.145468 0)
(0.773416 -0.150768 1.36218e-20)
(-0.175078 0.00154413 -1.12788e-21)
(-0.169797 0.00212151 3.62223e-20)
(-0.174292 0.00261118 6.78851e-21)
(-0.159527 0.00377179 -7.79514e-21)
(-0.176194 0.00214453 1.73775e-20)
(0.548511 0.0324938 -6.88428e-20)
(0.475041 0.0344376 -4.7766e-20)
(1.07474 -0.0432006 1.25185e-20)
(1.07364 -0.0450537 -9.14506e-21)
(-0.277953 -0.00817541 9.21528e-24)
(-0.26139 -0.0098424 -1.21305e-19)
(-0.256918 -0.0098197 -1.35498e-22)
(-0.176087 -0.00632935 -3.40943e-20)
(-0.174227 -0.00851411 -3.15711e-20)
(0.474967 -0.518636 0)
(0.443523 -0.492021 -3.79074e-20)
(0.443833 -0.539549 -6.00003e-20)
(0.504188 -0.49874 0)
(0.512719 -0.540763 0)
(0.936752 -0.0615649 -5.34027e-22)
(0.938442 -0.0621824 -2.24105e-20)
(1.25735 -0.042849 -8.10779e-22)
(1.25355 -0.0446213 -4.34131e-20)
(1.25774 -0.0466732 1.34111e-20)
(0.956883 -0.1688 5.76995e-21)
(0.96064 -0.163385 5.76105e-21)
(0.96378 -0.170213 5.4282e-21)
(-0.143566 0.00120446 -2.62721e-20)
(-0.160384 -0.0038581 -1.60053e-20)
(0.793441 -0.206648 6.03015e-21)
(0.790655 -0.193127 -6.17159e-20)
(0.777785 -0.203803 -4.52586e-20)
(1.01275 -0.00276389 -2.81953e-21)
(1.01272 -0.00327839 -1.98077e-21)
(1.0133 -0.00307514 2.85558e-21)
(1.02789 0.000731041 9.15216e-24)
(1.02786 0.000564245 -9.22407e-21)
(1.11214 -0.122221 0)
(1.11625 -0.123497 2.47312e-20)
(1.11238 -0.125956 3.76837e-21)
(-0.215253 -0.0139444 1.09796e-19)
(-0.199706 -0.013674 1.0789e-19)
(0.247843 -0.631041 4.58178e-20)
(1.03662 -0.0321646 9.40226e-21)
(1.03482 -0.0317686 3.07629e-21)
(-0.218811 0.000643045 1.46951e-20)
(0.944575 -0.166089 -2.037e-20)
(0.951223 -0.167941 -4.94094e-21)
(0.948346 -0.161243 4.47755e-21)
(1.15586 -0.113745 3.91614e-20)
(1.16071 -0.112674 0)
(1.11456 0.0121683 -1.67075e-23)
(1.11243 0.0128411 0)
(-0.268512 -0.00546308 -1.74786e-23)
(-0.283357 -0.00597969 -3.92435e-22)
(1.205 0.0117088 3.0668e-21)
(1.26824 0.00554683 -8.74362e-20)
(1.24771 0.153413 -1.57311e-20)
(1.04787 -0.115754 -2.29521e-21)
(1.04564 -0.118385 -4.37911e-21)
(1.12387 -0.0676922 6.81267e-21)
(1.1223 -0.0702213 -2.4498e-20)
(0.0606176 0.0428209 0)
(0.0658922 0.0433084 0)
(0.045222 0.0390696 0)
(0.98095 -0.0530231 1.41115e-21)
(0.982532 -0.0522607 6.54176e-21)
(1.16393 -0.00284636 -6.22318e-20)
(1.14776 -0.0382765 0)
(1.1509 -0.0359291 -2.263e-20)
(1.21969 -0.0152906 -8.09216e-21)
(1.22368 -0.0140699 7.67787e-21)
(0.941496 -0.171938 -6.44208e-21)
(0.937743 -0.164614 -3.01951e-21)
(0.994647 -0.0295428 2.82922e-21)
(1.02772 -0.0517586 6.53798e-21)
(1.02622 -0.0501959 0)
(1.31605 -0.17358 -5.00836e-21)
(1.31533 -0.179524 1.8797e-19)
(1.32193 -0.17504 7.69624e-20)
(1.28524 -0.294017 -3.1274e-20)