/*--------------------------------*- C++ -*----------------------------------*\
| =========                 |                                                 |
| \\      /  F ield         | OpenFOAM: The Open Source CFD Toolbox           |
|  \\    /   O peration     | Version:  v2012                                 |
|   \\  /    A nd           | Website:  www.openfoam.com                      |
|    \\/     M anipulation  |                                                 |
\*---------------------------------------------------------------------------*/
FoamFile
{
    version     2.0;
    format      ascii;
    class       volScalarField;
    location    "50";
    object      k_0;
}
// * * * * * * * * * * * * * * * * * * * * * * * * * * * * * * * * * * * * * //

dimensions      [0 2 -2 0 0 0 0];


internalField   nonuniform List<scalar> 
13851
(
0.000148721
0.00263241
0.000174733
0.000147629
0.000173423
0.000354476
0.000144337
0.000161778
0.000139031
0.000189798
0.000435365
0.0329909
7.41768e-05
0.0423675
0.000143549
0.000157765
0.000150125
0.000158901
0.000194293
0.000138856
0.000147177
0.000173566
0.000169264
0.000172115
0.000176002
0.000162229
0.000149388
0.00281346
0.000148209
0.000149514
0.00323458
0.000150493
0.000173326
0.0176752
0.000165749
0.000183732
0.000196359
0.000194111
0.000194392
0.0166663
0.000142162
0.000139191
0.0112959
0.000548686
0.00045978
0.0252213
0.000470894
0.00810315
0.000149674
0.0065091
0.000170685
0.000180959
0.0174772
0.000144517
0.000151425
0.000139099
0.000155657
0.0214973
0.000149053
0.000144292
0.000195128
0.010388
0.00444744
0.000176265
0.000275225
0.000153709
0.000206988
0.000556477
0.000156396
0.000158682
0.009454
0.000191928
0.00218195
0.000145144
0.000141033
0.000140752
0.000172579
0.00996815
0.000162415
0.0103612
0.000144882
0.000140009
0.000142883
0.0248606
0.00555984
0.0321412
0.000698092
0.0028968
0.000150611
0.00014832
0.000183755
0.000794636
0.000656097
0.000152581
0.0001504
0.000180606
0.000173862
0.0126235
0.00618216
0.000185731
0.0384907
0.000163666
0.000145631
0.000149282
0.00015351
0.0041548
0.000165592
0.000138868
5.54901e-05
0.000134816
0.000190799
0.000149307
0.000313334
0.000198333
0.00018533
0.00441384
0.0114602
0.000140158
0.000163443
0.000156958
0.0109678
0.000149122
8.61798e-05
0.00715953
0.00917372
0.000143293
0.00739017
0.000163044
0.000146615
0.000183563
0.000142075
0.000138814
0.0107444
0.000142906
0.00601727
0.000140267
0.000140383
0.000195641
0.0337847
0.0360588
0.0378836
0.000150462
0.000147708
0.000140062
0.000147809
0.000612159
0.000139083
0.000184431
0.000144258
0.000423616
0.000169857
0.000152466
0.0423815
0.000154546
0.000147409
0.000147638
0.000140451
0.00014728
0.000181087
0.000170315
0.000138402
0.000152568
0.02086
0.000138718
0.0001551
0.000139928
0.00013928
0.000156664
0.000146303
0.0106681
0.00921043
0.000138302
0.000140557
0.0362409
0.000138646
0.00884185
0.000162459
0.000148368
0.000195632
0.000138739
0.000151294
0.000195174
0.000142945
0.000175361
0.00013944
0.00017437
0.000154284
0.000146036
0.000176267
0.000198501
0.000536848
0.0194469
0.000152052
0.000156498
0.00969616
0.000147102
0.000146868
0.0153885
0.000147693
0.000140785
0.000143509
0.0255576
0.000182158
0.000142152
0.000182229
0.000142986
0.0402609
0.000150279
0.0159886
0.000138777
0.00923873
0.00014534
0.0143016
0.000138617
0.000139879
0.000261086
0.00125376
0.0241523
0.000143076
0.0163637
0.000150455
0.000145036
0.00827027
0.000181518
0.014712
0.000178945
0.000153962
0.000157026
0.0251856
0.000138692
0.000161503
0.00259402
0.000138429
0.000150808
0.000168194
0.00018024
0.034076
0.000273865
0.000139978
0.000142223
0.00498627
0.0102624
0.000138641
0.000186242
0.000148018
0.0171795
0.000164156
0.0154591
0.000147767
0.000151449
0.000183965
0.012554
0.000144801
0.000147941
0.000163759
0.0175003
0.0001969
0.000196767
0.00537429
0.000143586
0.000139939
0.000156864
0.00983236
0.000142524
0.000175179
0.000147067
0.000144689
0.000152191
0.00577558
0.000198313
0.000184336
0.000147389
0.00514717
0.00016148
0.000157402
0.000138855
0.000139713
0.000149806
0.0129007
0.00038703
0.000138597
0.000138974
0.00015193
0.000162943
0.0105412
0.00888599
0.000139306
0.000143762
0.00655528
0.000139809
0.000186329
0.000148391
0.000144287
0.000157699
0.000139974
0.000172259
0.000154032
0.029731
0.000138962
0.0163645
0.000152283
0.000149997
0.012035
0.000143555
0.00303649
0.0135824
0.00013918
0.000160444
0.000152677
0.000147956
0.0281141
0.000154332
0.000144565
0.00987653
0.000139335
0.000151702
0.000144619
0.00957826
0.000177777
0.000143072
0.000164096
0.00014331
0.00783829
0.000201732
0.000168322
0.000141846
0.000177404
0.000153499
0.000147292
0.00014379
0.000143462
0.000144406
0.000493039
0.0358221
0.0105669
0.000172526
0.00913826
0.000629214
0.000143293
0.000156889
0.000186819
0.00177405
0.000214792
0.000178579
0.000197938
0.000166519
0.0110246
0.0147781
0.00014367
0.000199817
0.000197343
0.000227593
0.000147287
0.00023079
0.0258424
0.000140718
0.00877235
0.000141769
0.00014339
0.000146093
0.000138792
0.000140172
0.0130369
0.0120378
0.00014263
0.00015986
0.000139355
0.0299046
0.000163169
0.00601574
0.0105476
0.000142651
0.00147628
0.000152762
0.00630541
0.000141719
0.000140187
0.000192624
0.0339576
0.000143422
0.0279282
0.00149014
0.000179709
0.0141908
0.000335722
0.000347251
0.000166593
0.000139241
0.000147294
0.000166449
0.000163816
0.0419832
0.00015664
0.0122589
0.0137554
0.000139513
0.000143625
0.010562
0.0111486
0.00634352
0.0104731
0.000205485
0.000153233
0.00018694
0.000222973
0.000138712
0.000157141
0.000162414
0.000143949
0.000154534
0.000139153
0.000139864
0.000175402
0.000188546
0.00923942
0.000160297
0.000165149
0.000181274
0.0128529
0.000152594
0.000467751
0.000149665
0.000245321
0.000140319
0.000139075
0.000183667
0.000205305
0.0127899
0.000181593
0.000177037
0.00775408
0.0186166
0.00081244
0.000158542
0.000168533
0.000141622
0.0142812
0.000155092
0.0170524
0.015742
0.00017195
0.0146844
0.000148457
0.000150423
0.0149051
0.0283049
0.000138858
0.000154146
0.000162926
0.000207876
0.0001386
0.000144425
0.000168812
0.000179929
0.00017303
0.0368573
0.000178562
0.000142226
0.0197954
0.000156286
0.000139
0.00388038
0.000139177
0.000148518
0.000138669
0.000169814
0.000146523
0.000138862
0.000147873
0.00797896
0.000142921
0.000157726
0.00013961
0.000160593
0.000173992
0.000196073
0.000141913
0.000199481
0.000203391
0.00937089
0.000144629
0.000799523
0.00014296
0.000177194
0.0393281
0.0140182
0.000143108
0.000217486
0.000152672
0.00997799
0.0255869
0.000142323
0.0114655
0.000141847
0.000173764
0.000144022
0.0276127
0.000140814
0.0166644
0.00019744
0.000139255
0.000218956
0.012323
0.000162222
0.00311162
0.00015825
0.00744588
0.000154321
0.000138234
0.000138868
0.000144101
0.0135908
0.000168642
0.000179821
0.000195299
0.000712121
0.000138383
0.000996034
0.0135494
0.00015141
0.000152725
0.00695098
0.00698617
0.00615596
0.000149148
0.0281895
0.0258524
0.0248357
0.000155314
0.000363425
0.00404254
0.000151436
0.0183046
0.0153986
0.0346362
0.000147645
0.0289462
8.12606e-05
0.000140375
0.000148015
0.00016911
0.0116647
0.000148079
0.000142211
0.000140324
0.00014203
0.000175422
0.000171958
0.00138329
0.038244
0.000140204
0.0174652
0.0140253
0.00710511
0.0132486
0.000157402
0.000138888
0.000139074
0.000139802
0.00136426
0.000147582
0.000173
0.000183451
0.000139041
0.000202276
0.00563398
0.000223668
0.000178824
0.0140482
8.12966e-05
0.000141943
0.000144019
0.0055489
0.0141374
0.000179031
0.000156494
0.0107263
0.000138796
0.000141403
0.0168417
0.000139193
0.000147893
0.000138704
0.000139404
8.45156e-05
0.000175237
0.000170748
0.000139096
0.0216274
0.015897
0.000139163
0.000151815
0.000142588
0.000146777
0.0328913
0.0151122
0.0146049
0.0221673
0.00772053
0.000155611
0.00977916
0.0146885
0.000171103
0.000156683
0.000138924
0.000144219
0.000157793
0.00432298
0.0105359
0.000172769
0.00015348
0.000138876
0.000158271
0.000149336
0.00366486
0.000171041
0.00014293
0.000172002
0.000138677
0.000151985
0.000182107
0.000144193
0.000141512
0.000163011
0.000143858
0.000173807
0.000203814
0.000180756
0.000159226
0.000179592
0.000138796
0.00525472
0.000193433
0.0200198
0.000145111
0.000179803
5.97853e-05
0.000148895
0.0164092
0.0161889
0.0245831
0.00269971
0.000138698
0.000192377
0.00013872
0.000139335
0.000140565
0.000139442
0.000138711
0.00016312
0.000167769
0.000139134
0.00185807
0.000199294
0.00292379
0.000139952
0.000140288
0.000154742
0.000186893
0.0093538
0.000163921
0.000152198
0.000138807
0.000179333
0.000147653
0.000140733
0.000190572
0.0268405
0.000143769
0.000139004
0.000144177
0.00014069
0.00565405
0.0196451
0.000158397
0.0125454
0.00727809
0.000141435
0.000179749
0.0314278
0.000157393
0.0337924
0.000144793
0.000157233
0.000163587
0.000158398
0.0150618
0.000143064
0.00472939
0.000155676
0.000154441
0.0159475
0.000143229
0.00014767
0.0105071
0.000138337
0.000150821
0.00889555
0.0385729
0.000170456
0.000184492
0.000430565
0.000138671
0.000139844
0.036476
0.000183061
0.000185349
0.0152534
0.000140776
0.00015797
0.000140579
0.00687479
0.000201358
0.000151947
0.000144291
0.000178389
0.000149533
0.000153401
0.0175208
0.0143062
0.0150924
0.000139219
0.000143761
0.00989876
0.0112642
0.000181773
0.000149073
0.000190543
0.000142974
0.000209914
0.000191801
0.000173685
0.000150458
0.0247814
0.000174832
0.000163924
0.000195582
0.000179462
0.000179799
0.000146826
0.000138821
0.0197178
0.000155816
0.000178966
0.000169332
0.000154102
0.000138812
0.00857023
0.000160051
0.000173953
0.000141575
0.000141263
0.000143576
0.0139304
0.000140272
0.000139827
0.00940702
0.000144098
0.0119152
0.000161626
0.000147644
0.00016942
0.0198238
0.0130655
0.000143079
0.00279465
0.011875
0.000144744
0.00820232
0.000154261
0.000138692
0.00384163
0.0134706
0.00247061
0.00015186
0.000140707
0.000139016
0.014973
0.000177718
0.000183605
0.000153446
0.00392501
0.000147461
0.00014754
0.000172562
0.0159533
0.000175593
0.0110292
0.000143686
0.000174021
0.000172918
0.00756178
0.000151794
0.041367
0.000194473
0.000144174
0.0252257
0.0028051
0.0083402
0.0394421
0.012614
0.0033406
0.000160986
0.000138687
0.000164464
0.0236213
0.0244172
0.000141383
0.00018201
0.000168958
0.000140132
0.00013971
0.0160708
0.000140173
0.000142781
0.0208019
0.00979063
0.000505779
0.000139251
0.000143497
0.0133419
0.000189632
0.000177828
0.000155512
0.0113801
0.00021532
0.00772154
0.000165245
0.000159523
0.000144549
0.000144019
0.00753746
0.000162483
0.0107924
0.000206584
0.000156356
0.0204868
0.00965509
0.012821
0.000143349
0.000154725
0.000139074
0.000159326
0.000147493
0.0331996
0.00015925
0.0181528
0.00013985
0.000169008
0.000141428
0.000201179
0.000155989
0.000154477
0.0127444
0.000160449
0.000172394
0.000179195
0.000169194
0.00805419
0.00917475
0.000148018
0.00935705
0.000142359
0.040262
0.00980154
0.00014369
0.0113263
0.0365109
0.0126659
0.00282067
0.000205737
0.000141352
0.0147665
0.000159707
0.00286439
0.0161866
0.000140011
0.000147362
0.000202023
0.0158026
0.0351846
0.000143552
0.00014616
0.00173327
0.0159471
0.000179183
0.000151275
0.000150844
0.00916347
0.0252845
0.00017368
0.000139817
0.000161124
0.000138419
0.000168192
0.000237686
0.00019085
0.00560374
0.0141501
0.000142785
0.000148314
0.000141493
0.000146947
0.00969006
0.011991
0.000153895
0.0427595
0.000141434
0.000153915
0.000141098
0.000138505
0.000143286
0.000142708
0.0126024
0.000143101
0.000163727
0.000143343
0.000151962
0.000261886
0.00899703
0.000159695
0.00701772
0.000184896
0.000196302
0.000156037
0.000155968
0.00979735
0.000151993
0.000175196
0.0337045
0.00269005
0.0192933
0.000159463
0.000435216
0.000144774
0.000159753
0.000164069
0.0375501
0.000148245
0.0341538
0.000139745
0.000140051
0.0418497
0.000143945
0.000185022
0.000150809
0.000138958
0.000188511
0.000139059
0.000143538
0.000138822
0.000144633
0.000190847
0.000140104
0.000189674
0.0247736
0.000177725
0.0383284
0.000143944
0.000166513
0.000145661
0.000142067
0.000138936
0.000171799
0.00014534
0.000139555
0.000144473
0.000177495
0.0118462
0.025852
0.0113054
0.0117881
0.000191447
0.000141338
0.0029531
0.00015335
0.000140076
0.00875525
0.0073248
0.0205738
0.000141392
0.000477291
0.0163122
0.0292583
0.000139126
8.13728e-05
0.000155314
0.000149182
0.000138808
0.000139956
0.0526005
0.0063251
0.00944867
0.000143051
0.00014268
0.00782681
0.000143776
0.00810311
0.00620572
0.000383728
0.000195681
0.0104318
0.000177101
0.000142368
0.000825632
0.00016158
0.00014922
0.000194572
0.000160264
0.000145475
0.000149678
0.0239462
0.000139664
0.0112271
0.000199168
0.00446109
0.00018708
0.000148508
0.000141506
0.000143837
0.00240975
0.0170649
0.000138918
0.000193163
0.000143169
0.000171883
0.000140439
0.000142897
0.000145148
0.000155971
0.000199735
0.000175897
0.000168748
0.000144123
0.000163354
0.000116672
0.000146455
0.0253353
0.000151491
0.000171845
0.000140071
0.000160899
0.000142146
0.000168954
0.000143585
0.00999754
0.000177878
0.0131032
0.000149313
0.000201274
0.000142515
0.000155563
0.000143623
0.00325469
0.00125796
0.000138446
0.000155716
0.000200283
0.014368
0.000197706
0.000460333
0.000138779
0.0365793
0.000177948
0.00390779
0.000172853
0.000171949
0.000209329
0.0146225
0.00903619
0.0217483
0.000155601
0.00103805
0.000140424
0.000148217
0.000151474
0.000143775
0.0147613
0.000154295
0.000152537
0.00556226
0.000184797
0.0096212
0.000143187
0.00014869
0.000152611
0.000141894
0.000168728
0.00150588
0.00607613
0.0198323
0.00014046
0.000152083
0.00015845
0.005755
0.00827728
0.000585778
0.000141437
0.000145128
0.0280376
0.000161582
0.0493618
0.00236128
0.000445777
0.000140027
0.000140271
0.000167377
0.000161025
0.000153237
0.00927264
0.00238389
0.000182403
0.000488738
0.000145862
0.000170961
0.00014286
0.0184834
0.000184172
0.0141637
0.00017614
0.000151338
0.000181232
0.000146944
0.00808514
0.000190221
0.000153901
0.000980443
0.0162978
0.00164803
4.96438e-05
0.000144952
0.000142457
0.00991026
0.000101255
0.0265245
0.00015192
0.000144101
0.000142714
0.0120305
0.000180922
0.000144534
0.00740792
0.000179238
0.0360807
0.000153935
0.00824693
0.000143463
0.000178543
0.000149928
0.000141821
0.000181194
0.0104192
0.000144329
0.000139672
0.00707452
0.0070229
0.000142935
0.000140362
0.0335083
0.000150568
0.000139731
0.000140478
0.00640897
0.000142408
0.000164031
0.0207176
0.00718209
0.000146604
0.0137864
0.0149357
0.00332034
0.00019057
0.0403538
0.00021865
0.000141702
0.000159087
0.000195511
0.000143288
0.000141886
0.0180089
0.000141343
0.000194295
0.000139772
0.000163966
0.00957581
0.00017127
0.00360315
0.000147147
0.000149245
0.000138833
0.000155702
0.000203288
0.0400658
0.000139949
0.000169322
0.00723102
0.000143475
0.000140782
0.0155465
0.000156747
0.000159543
0.000179864
0.0378721
0.0024768
0.000203752
6.3651e-05
0.000250658
0.00029619
0.0165077
0.000362074
0.000169471
0.000142169
0.000179084
0.000141624
0.00014177
0.0273775
0.015802
0.000147818
0.0405052
0.0140482
0.0111759
0.00727472
0.00538235
0.000141838
0.0116185
0.00288554
0.00014916
0.000146854
0.0117993
0.01438
0.000263042
0.00497418
0.000165184
0.0186969
0.0117522
0.000155392
0.000145634
0.000140759
0.000140055
0.000140684
0.000190453
0.000149811
0.000145481
0.00014827
0.000128329
0.00703605
0.0328027
0.000144311
0.000130776
0.000151156
0.000157453
0.000140809
0.000153461
0.0197973
0.000153119
0.014931
0.00804793
0.00801612
0.000177322
0.000144009
0.000164413
0.000143424
0.000180581
0.000147719
0.000147006
0.000144035
0.000151444
0.000182334
0.000145717
0.000157492
0.00014949
0.000158133
0.000203911
0.0099752
0.000140755
0.0001628
0.000159821
0.0147377
0.000142858
0.0016855
0.00243
0.000155156
0.000148915
0.000149384
0.00237701
0.000141917
0.000160595
0.000143653
0.00014222
0.000146586
0.0118045
0.000152118
0.000152101
0.000252156
0.000169019
0.000167057
0.0111677
0.000189733
0.000157449
0.000142934
0.00145432
0.000142068
0.000140905
0.000186734
0.0181146
0.000160288
0.000158729
0.000225663
0.000119481
0.000144757
0.000145398
0.0177577
0.000146724
0.00388068
0.000191638
0.00408514
0.000142458
0.000143119
0.000142199
0.0152506
0.000179059
0.000159959
0.000177967
0.0321843
0.000146644
0.0030425
0.053896
0.000143398
8.85004e-05
0.000172008
0.000149411
0.0201985
0.000143674
0.000141576
0.000139062
0.000184673
0.00161114
0.000182693
0.000147016
0.000146659
0.000154269
0.0130749
0.000193996
0.00660894
0.00559981
0.000145513
0.000179203
0.000184859
0.0218989
0.000176872
0.000140405
0.000140764
0.00023303
0.000140124
0.0181178
0.000165126
0.000142162
0.0284512
0.00159424
0.00015571
0.000238792
0.000138792
0.000167208
0.000169763
0.00015717
0.00970971
0.000169661
0.000170672
0.000176429
0.000181839
0.050841
0.0164791
0.00768147
0.000140818
0.000139495
0.000188563
0.026959
0.0201159
0.00336141
0.000163086
0.00889607
0.00651492
0.000143023
0.000151632
0.000139642
0.00015993
0.000169836
0.000144599
0.0185831
0.000193639
0.00014698
0.00775809
0.00890739
0.000143462
0.000216948
0.0351528
0.0203708
0.000148961
0.00017024
0.000138728
0.000154478
0.000149567
0.000151145
0.010723
0.0121827
0.0130239
0.0140571
0.000147203
0.000160325
0.000172886
0.000156188
0.00014681
0.000139638
0.0037669
0.000140465
0.00533087
0.00016345
0.00234959
0.00018907
0.000190132
0.0106111
0.000100356
0.000159605
0.000139575
0.000152628
0.000141526
0.000193582
0.00015011
0.000139413
0.0001433
0.000168976
0.000154801
0.000181101
0.0504934
0.000147275
0.000139378
0.00017774
0.00101467
0.00963024
0.0103127
0.00014042
0.000171223
0.000143157
0.0138816
0.000139988
0.0184752
0.000142608
0.000147108
0.000168801
0.000146637
0.0145938
0.00015426
0.000162354
0.0269727
0.0140591
0.00015057
0.000154246
0.000141817
0.000118866
0.0300366
0.000149975
0.000140559
0.00801789
0.00013976
0.0140617
0.00015964
0.000172973
0.000172445
0.0134447
0.00016782
0.00014681
0.000144313
0.000169215
0.0104266
0.000141696
0.0167009
0.0385191
0.0107047
0.0107773
0.000160452
0.0115789
0.000150953
0.000206051
0.00014254
0.00379847
0.00444584
0.0223134
0.0261626
0.0504615
0.000144468
0.00050466
0.000139594
0.00850745
0.00822698
0.0126944
0.0251038
0.000153055
0.0545999
0.00642306
0.000161645
0.000146901
0.000144114
0.0151145
0.000151404
0.00016897
0.000193132
0.000143687
0.00013854
0.000143347
0.0108342
0.000189895
0.000155835
0.0283391
0.000168864
0.00014347
0.000142661
0.00014235
0.000194826
0.0185703
0.000191328
0.000151607
0.000170806
0.000685251
0.000175508
0.000161406
0.0140094
0.000155245
0.0101639
0.000154396
0.000161595
0.000142558
0.000193556
0.000170635
0.0156984
0.00237041
0.0163858
0.000171722
0.0140192
0.00015842
0.000149659
0.000175052
0.0147881
0.0231199
0.00755996
0.00687305
0.000148573
0.000142937
0.000141486
0.000143625
0.000139756
0.0167043
0.000154198
0.0184519
0.000158196
0.00563038
0.0366233
0.0161663
0.000200533
0.000151277
0.0269806
0.000165128
0.000420146
0.0161895
0.000138202
0.00221586
0.000152315
0.0269154
0.0166159
0.000160419
0.00804325
0.0160867
0.000164945
0.000197478
0.000158152
0.014101
0.0117062
0.000149121
0.000144244
0.00271019
0.0154584
0.000181808
0.00269437
0.000179284
0.00020204
0.000144561
0.0367888
0.0178655
0.000180203
0.000154803
0.0101557
0.0412203
0.000139696
0.000143273
0.000149425
0.0109373
0.0093964
0.00014295
0.0117821
0.000145624
0.00014089
0.000143462
0.017199
0.000545522
0.00475774
0.0192703
0.000147245
0.000146907
0.00014052
0.0195712
0.000148974
0.0124787
0.000149717
0.000294203
0.000145036
0.000141613
0.000181967
0.0160014
0.00839979
0.000159668
0.000740859
0.000138393
0.000143441
0.000143308
0.000161058
0.000169069
0.000168923
0.000169376
0.00289781
0.000149647
0.000183228
0.000270202
0.0512787
0.000142441
0.0143135
0.0167814
0.000150598
0.00899201
0.000167907
0.0362566
0.000143782
0.000180622
0.000141406
0.000363647
0.00919184
0.000215618
0.0102971
0.000148847
0.000162259
0.000146172
0.0123506
0.000139892
0.000139526
0.00234033
0.000188325
0.0322383
0.000202459
0.000167223
0.000153496
0.000139086
0.0153103
0.000167432
0.000149779
0.000181271
0.000138784
0.000160764
0.000142862
0.0105932
0.000152129
0.000557078
0.00148405
0.000171256
0.0149276
0.00017061
0.0133237
0.000142079
0.0201495
0.035018
0.000140044
0.00014291
0.000147055
0.000145111
0.000159014
0.000142754
0.00381487
0.000170949
0.000197583
0.0170898
0.000143002
0.000144786
0.000142284
8.08101e-05
0.000143518
0.000142059
0.000190369
0.000149294
0.002223
0.00870084
0.000172594
0.000150625
0.000157179
0.000146755
0.000145554
0.00298606
0.000141071
0.000149412
0.0144612
0.0179566
0.000196554
0.000146624
0.0225578
0.0108388
0.000145247
0.000167715
0.00406385
0.000143051
0.000148694
0.000142872
6.20693e-05
0.0241387
0.00231557
0.000140934
0.000149169
0.000151682
0.000144183
0.00018123
0.000143307
0.00150705
0.00926977
0.0069439
0.000138209
0.000149172
0.000148848
0.0125475
0.000138879
0.0271417
0.0164391
0.00233214
0.00271353
0.0102174
0.046405
0.000149554
0.00279949
0.00445605
0.000146784
0.000138831
0.000139848
0.00982865
0.0196091
0.0246357
0.000167428
0.010843
0.000143676
0.000188665
0.00014346
0.000147674
0.000146501
0.000138182
0.0197248
0.000147064
0.0311381
0.0418169
0.0273278
0.000162491
0.000163534
0.024787
0.010284
0.000149104
0.012653
0.00014178
0.000140013
0.000142636
0.000160939
0.000146114
0.0277929
0.000167231
0.00103977
0.000169667
0.016226
0.029511
0.000221468
0.00013824
0.000173554
0.000178794
0.0202378
0.00014251
0.000140031
0.000153497
0.0241557
0.000143882
0.00052412
0.0257933
0.000160055
0.000167864
0.000142672
0.0102307
0.000144627
0.0186225
0.000139422
0.016299
0.00015501
0.000143597
0.0271153
0.0272609
0.000140988
0.000167593
0.000149923
0.0232478
0.0035729
0.000270859
0.000778013
0.000144534
0.000174963
0.0118003
0.000151103
0.000158058
0.000150376
0.000170946
0.000155738
0.0183289
0.012955
0.000143614
0.0143581
0.000146465
0.000161122
0.00666571
0.025231
0.000165361
0.0145234
0.000184698
0.000144314
0.000677664
0.000178817
0.000154835
0.000146842
0.00488834
0.000140885
0.0207243
0.000393803
0.00018602
0.000143126
0.000166465
0.0141732
0.000161523
0.00679157
0.000145607
0.000148867
0.000207569
0.00331335
0.000151517
0.0119511
0.00933546
0.0290685
0.000143559
0.00237441
0.000142469
0.0151911
0.000143351
0.000150738
0.000142284
0.01227
0.000210865
0.0131295
0.00541201
0.000144587
0.000142992
0.000143155
0.0146689
0.000199954
0.0397195
0.0294687
0.000140468
0.0117611
0.00586431
0.000179585
0.0207027
0.0146939
0.000167061
0.0187557
0.000148446
0.000151185
6.86904e-05
9.49385e-05
0.000142623
0.0398958
0.000144002
0.000143153
0.0438614
0.0131287
0.0023562
0.00861462
0.000156525
0.000144642
0.000156176
0.00361641
0.0267421
0.000141782
0.000161461
0.00833609
0.000143386
0.0001434
0.00134984
0.0241144
0.000147361
0.000143619
0.000146542
0.00014648
0.00293798
0.000145013
0.000141724
0.000151726
0.000262837
0.0158676
0.00738579
0.00914326
0.000143636
0.000150529
0.0153362
0.00748497
0.000156003
0.00303283
0.000142991
0.000157576
0.000146805
0.000142804
0.000172141
0.000141261
0.00762018
0.000160273
0.00014001
0.000149902
0.000138772
0.0376052
0.0125656
0.000143431
0.000167404
0.00755746
0.00552795
0.000149327
0.000142188
0.000143933
0.000317808
0.000143437
0.000153695
0.000153032
0.000142834
0.0157342
0.00682859
0.000144432
0.000149399
0.000140403
0.000143277
0.00604255
0.00377309
0.000170345
0.0224929
0.00886733
0.000144893
0.000142872
0.00014354
0.000142067
0.000144407
0.000164587
0.000187571
0.00762421
0.000148178
0.000179157
0.0126236
0.000493348
0.00014183
0.000139632
0.000148686
0.0267195
0.000141816
0.000771372
0.000194682
0.00143074
0.000160061
0.00904144
0.000139908
0.00155545
0.000143081
0.000139973
0.000144034
0.000145799
0.00137314
9.61697e-05
0.0157728
0.000158712
0.0421417
0.019383
0.0153034
0.000155421
0.0133448
0.0222762
0.000179739
0.00862057
0.00169504
0.000177502
0.00797467
0.000145001
0.000146323
0.02395
0.000140693
0.000149534
0.0443018
0.0009818
0.027317
0.00219358
0.000139126
0.000157708
0.000143301
0.00119526
0.000143194
0.000241436
0.033335
0.00358984
0.00357978
0.0001432
0.000141106
0.000170391
0.0411331
0.016064
0.000187663
0.0002008
0.000139842
0.000204577
0.0151916
2.49264e-05
0.00014902
0.00014331
0.000138336
0.000148342
0.000142787
0.000142231
0.000149213
0.0153935
0.000171936
0.0146651
0.00347471
0.000226772
0.000183828
0.000142513
0.000151402
0.000157409
0.000144056
0.000144877
0.0036667
0.0017528
0.00469625
0.0116927
0.000148738
0.0299638
0.000187167
0.0112667
0.0165259
0.000143113
0.00014292
0.000778518
0.000143098
0.000141056
0.00819137
0.0159026
0.000202439
0.000143011
0.000143477
0.000155508
0.000159281
0.000256337
0.000141757
0.000150796
0.00019429
0.00014449
0.0194204
0.000159195
0.0463706
0.000144631
0.000192976
0.0411121
0.000161762
0.00324796
0.000178198
0.0151124
0.000140052
0.000151019
0.000139485
0.000155144
0.0159202
0.000172995
0.0175077
0.000155996
0.000146668
0.000143716
0.0136675
0.000161223
0.000178773
0.00395366
0.000143772
0.000169366
0.0222665
0.000172079
0.000147085
0.000151052
0.000143055
0.000196838
0.000141911
0.000141323
0.0150387
0.00582094
0.013561
0.0131612
0.000195991
0.0307874
0.000169074
0.0111309
0.000184182
0.00013993
0.000157442
0.000140024
0.000143683
0.00401764
0.0044257
0.000142377
0.0141701
0.0175831
0.000153957
0.000147379
0.000162834
0.00460791
0.0010581
0.0156826
0.0048765
0.0161909
0.000139977
0.000191596
0.000178669
0.000636291
6.31486e-05
0.000142864
0.000179122
0.0275801
0.000159228
0.0413723
0.00014442
0.000257388
0.0298364
0.018049
0.000170063
0.000155798
0.00978192
0.00017902
0.0183885
0.0168438
0.015548
0.000177678
0.000264402
0.000143521
0.00016232
0.00016226
0.0123103
0.00163654
0.0149486
0.000164222
0.000185814
0.000186838
0.000177425
0.00208867
0.000143028
0.000179653
0.0119005
0.00014313
0.0481553
0.0153646
0.0183173
0.00163701
0.000223403
0.00372085
0.000140933
0.00440097
0.000155946
0.000150056
0.000160166
0.000149021
0.0169316
0.000149332
0.00016663
0.000149364
0.000144309
0.00040618
0.000147255
0.000178098
0.000647328
0.000138182
0.014684
0.000178316
0.000147759
0.018522
0.000190584
0.000143125
0.0135731
0.000145494
0.0173193
0.00345017
0.00014232
0.000177124
0.00014741
0.00501915
0.0163786
0.000170917
0.00353154
0.000155837
0.000143959
0.0466568
0.000149486
0.000142322
0.00020034
0.000159283
0.000139911
0.000139722
0.000185649
0.000146905
0.0117994
0.000191385
0.000688468
0.035599
0.000163812
0.000169008
0.000141178
0.00539709
0.0098992
0.0264178
0.000143375
0.0001428
0.000171716
0.000156339
0.0170694
0.000142484
0.00837772
0.00014162
0.000256973
0.00015206
0.000497142
0.000207094
0.000177403
0.0150383
0.0188268
0.00454173
0.0158854
0.000139939
0.000198556
0.000200007
0.0116038
0.00015119
0.000196839
0.0097843
0.0259954
0.000177335
0.00019898
0.00579582
0.00614765
0.000160975
0.000190207
0.00013824
0.000162486
0.000160022
0.000142823
0.000169208
0.0338547
0.00223544
0.0264454
0.00020824
0.00014175
0.000139393
0.000178738
0.000142849
0.00467869
0.000141653
0.000139241
0.007844
0.000189156
0.000168891
0.0001781
0.000174302
0.000183129
0.0225131
0.0168288
0.0240315
0.000151098
0.0166882
0.000148817
0.000143042
0.000148499
0.0141121
0.00019162
0.000191827
0.000189446
0.000146372
0.000139656
0.000142831
0.000145099
0.000151915
0.0396605
0.000202073
0.000153797
0.00245732
0.0116389
0.00456437
0.0271554
0.000143276
0.000154213
0.0156688
0.000143292
0.000143319
0.000152148
0.000149242
0.0101663
0.0168861
0.000142388
0.000158981
0.00015434
0.000173185
0.0122153
0.0448229
0.00734667
0.000144099
0.000171404
0.0110186
0.000171542
0.000177155
0.00187943
0.00396722
0.00273895
0.0127873
0.000140302
0.000340373
0.00014306
0.000147596
0.000142737
0.000167948
0.00339522
0.00918506
0.0082791
0.0250263
0.000166573
0.00014136
0.000139521
0.000143443
0.000161408
0.000161102
0.00808201
0.0161658
0.000170557
0.00258025
0.00014376
0.000166466
0.000138409
0.0184254
0.000208725
0.000143725
0.000200027
0.000177719
0.033528
0.014212
0.000186691
0.0133388
0.00015034
0.0221384
0.00018951
7.77288e-05
0.00811519
0.000148056
0.000166415
0.000143367
0.003228
0.0213525
0.000159497
0.0216008
0.000189153
0.0372293
0.00017048
0.00168176
0.00018194
0.000140129
0.000177745
0.000174528
0.000149493
0.000166608
0.00015501
0.000156556
0.0225314
0.000182408
0.000147516
0.000155826
0.000157941
0.000159114
0.00014861
0.0399043
0.00018073
0.00227615
0.0206888
0.000143009
0.0164
0.000143826
0.000151367
0.000148192
0.0163669
0.000163188
0.0186044
0.0259013
0.000167853
0.00214295
0.000177889
0.0248266
0.000179767
0.00247406
0.000175019
0.000161107
0.000148883
0.0173155
0.0162627
0.000178021
0.000173861
0.000163133
0.000151374
0.000149775
0.000162494
0.000159057
0.000143813
0.000161847
0.0128034
0.0383489
0.000248226
0.000160111
0.000139378
0.0271513
0.000155789
0.000167589
0.000308465
0.000160228
0.028263
0.000140917
0.000161357
0.000151238
0.000161648
0.000141865
0.0165743
0.000459257
0.000135126
0.000165295
0.00287716
0.000189664
0.000151165
0.0261382
0.000168109
0.00018872
0.0229999
0.000191528
0.000149281
0.000159381
0.000170537
0.000158255
0.000194825
0.014112
0.0102187
0.000140147
0.000190647
0.00272412
0.00980194
0.000142436
0.000161449
0.000141622
0.000155902
0.000259994
0.00015461
0.000153914
0.000139958
0.000139899
0.0359399
0.013944
0.000142422
0.0400669
0.000187991
0.000141331
0.000196368
0.0172247
0.000182384
0.000177499
0.000143034
0.000152441
0.000208591
0.000176825
0.000140824
0.0308302
0.000154005
0.0166059
0.000171992
0.000151559
0.00256159
0.000190054
0.00018764
0.000140285
0.0154679
0.000154378
0.000151936
0.033659
0.000159719
0.00014344
0.000180732
0.000149867
0.000163531
0.00014247
7.43538e-05
0.000142791
0.000201528
0.000139409
0.000178988
0.000144213
0.000202534
0.000154881
0.015254
0.000230391
0.0143228
0.00018438
0.0178007
0.000138683
0.000172012
0.000150991
0.000141554
0.016629
0.0469152
0.000150593
0.000648059
0.000185467
0.000171438
0.0143742
0.000151437
0.00384253
0.00379869
0.0132909
0.0232628
0.000281014
0.000143719
0.000139031
0.000200688
0.000163372
0.00674519
0.0270898
0.0182729
0.0448336
0.0145204
0.000139711
0.000286257
0.000143386
0.000146889
0.00014363
0.0153932
0.000208784
0.000208135
0.000140789
0.0158972
0.000152554
0.0126967
0.000149936
0.000175568
0.000154567
0.00016859
0.00016064