/*--------------------------------*- C++ -*----------------------------------*\
| =========                 |                                                 |
| \\      /  F ield         | OpenFOAM: The Open Source CFD Toolbox           |
|  \\    /   O peration     | Version:  v2012                                 |
|   \\  /    A nd           | Website:  www.openfoam.com                      |
|    \\/     M anipulation  |                                                 |
\*---------------------------------------------------------------------------*/
FoamFile
{
    version     2.0;
    format      ascii;
    class       surfaceScalarField;
    location    "50";
    object      phi;
}
// * * * * * * * * * * * * * * * * * * * * * * * * * * * * * * * * * * * * * //

dimensions      [0 3 -1 0 0 0 0];
oriented        oriented;


internalField   nonuniform List<scalar> 
20537
(
-0.371188
0.513106
-0.141929
-0.0201338
-0.206556
0.226689
-0.173722
0.166806
0.00691387
-0.00517554
-0.313448
0.318614
-0.143807
0.15345
-0.00964593
0.26379
-0.418686
0.154892
0.195002
0.19816
-0.393172
0.230844
-0.0753556
-0.155493
-0.462773
-0.10156
0.564314
-0.0622022
0.223317
-0.161117
0.625226
-0.19869
-0.426536
0.123521
-0.0731801
-0.050343
0.0963164
0.0129742
-0.109292
0.0146217
0.00477827
-0.0194006
0.669637
-0.540154
-0.129528
0.279268
-0.278571
-0.000702878
-0.0547144
0.27816
-0.223457
0.436045
-0.234219
-0.201832
-0.135035
0.142466
-0.00743214
0.0893183
-0.552111
0.356193
-0.361385
-0.0628663
-0.110859
-0.369269
0.592768
-0.223507
-0.705539
0.10091
0.604594
-0.556453
0.187175
0.215538
0.015302
-0.0882003
-0.171871
0.260063
-0.000821192
0.000108639
0.0200097
-0.391209
0.236946
-0.348661
0.111704
0.404618
-0.140831
0.219878
-0.274603
-0.00487289
0.171675
0.429443
-0.421526
-0.00791804
-0.615135
-0.0904403
0.11367
-0.124836
0.0111649
-0.00602856
0.0907557
-0.0847279
0.185415
-0.114918
-0.0704978
0.118011
-0.180216
0.0826342
0.346808
0.0546707
0.332464
-0.387156
0.493214
-0.66574
0.172523
-0.00782928
0.00444421
0.00338537
0.360437
-0.610297
0.24986
0.606258
-0.245822
-0.0107441
-0.0148974
0.0256455
-0.592803
0.249875
0.342928
0.03291
-0.413302
0.380392
0.163986
-0.252194
0.328126
0.263892
-0.592022
0.159131
-0.0216728
-0.137462
0.14138
-0.0710296
-0.0703528
-0.00355893
0.00406548
-0.000506596
-0.727119
0.37047
0.356603
0.656115
-0.535711
-0.120466
0.664309
-0.171098
0.669559
-0.303196
-0.36638
0.00611004
-0.00258993
-0.00352021
-0.170174
0.407108
0.277218
0.0958419
-0.373075
0.0450899
0.140325
0.0550658
-0.0937367
0.038671
-0.408163
0.25257
0.155589
-0.134879
0.124589
0.0102871
-0.101061
0.280252
-0.179193
-0.456503
0.157084
0.299412
0.0671562
-0.0731848
-0.6116
0.282546
-0.207298
0.204377
0.00291463
0.209151
0.226886
0.0270889
-0.0328129
0.00572406
0.0891674
-0.0834796
-0.00568784
0.197911
-0.218045
-0.28982
-0.43735
0.283927
-0.586518
0.302536
-0.543174
0.440597
0.102564
-0.125639
0.0627702
-0.0379122
0.00190998
0.0360023
0.00524121
-0.170815
0.16557
0.0331754
-0.00317575
-0.171602
0.424345
-0.252759
0.541702
0.00944526
-0.551146
-0.426924
-0.0544994
0.481394
0.00971948
0.00521268
-0.0149318
-0.279724
-0.128443
0.0687063
0.054814
0.448903
-0.155541
-0.293366
0.110485
0.153048
-0.263533
-0.248678
0.313625
-0.0649568
-0.354353
-0.262421
0.616766
0.0244497
0.0892196
-0.0888203
-0.339378
0.428192
-0.230715
-0.0813095
0.239311
-0.158009
-0.0200244
-0.228665
0.577446
-0.565462
-0.0120016
0.0242464
-0.168057
0.0129051
0.0485701
-0.0614751
-0.208846
0.536969
-0.0250383
0.602462
0.0169715
0.00106884
-0.018041
0.164959
-0.167454
0.00248979
0.0882271
-0.387199
0.298959
0.258682
-0.0181828
-0.459503
-0.0996332
0.559134
-0.469289
0.337883
0.131401
-0.171178
0.172148
-0.000974016
0.52732
-0.683992
0.15667
0.0783755
0.00768972
-0.124562
-0.294128
-0.553861
-0.0196226
0.573459
0.288279
-0.642641
0.325518
-0.414344
-0.660888
0.660853
-0.0745393
-0.479347
0.408008
-0.150887
-0.0722797
0.085185
0.0708611
-0.473309
0.402445
-0.581195
0.582526
-0.00137861
-0.193976
0.563987
-0.370065
-0.00707444
-0.000754693
0.227608
0.0310676
0.100737
-0.00442088
0.0649327
0.41302
-0.380111
-0.772372
0.339862
0.432506
0.0357459
0.377273
0.156232
-0.179929
0.0236928
0.0448279
0.311353
0.161359
-0.0765403
-0.0848203
0.430033
-0.375386
0.566507
-0.16857
-0.397968
0.0347583
-0.00766923
-0.546719
0.119763
0.268644
-0.581393
0.615267
-0.033911
0.557807
-0.486949
-0.076146
0.0895823
-0.0134365
-0.0464248
0.0137981
0.0326269
-0.0520789
0.00806591
0.0440128
0.0196658
-0.00269461
0.376039
0.280008
0.180246
-0.57983
0.399574
0.719404
-0.388094
-0.331314
0.406996
-0.0897089
-0.317297
-0.218331
-0.391966
-0.431805
0.608634
-0.17683
0.0384386
0.122919
-0.262816
0.457802
0.198682
0.407576
0.000845498
0.123068
-0.423163
0.617802
-0.194696
0.00296365
0.0116573
0.317515
0.352029
0.354473
-0.205975
-0.148508
0.293782
0.113201
-0.504672
0.197792
0.30686
0.222103
0.136435
-0.35855
0.0125746
0.128803
0.00701421
0.152112
-0.347691
-0.24996
0.597651
-0.0694225
0.21469
-0.145273
0.00167281
0.00443725
0.170582
0.395897
0.257918
-0.366323
0.108395
0.642537
-0.226334
-0.416207
-0.675528
0.243723
-7.74963e-05
-0.207226
-0.313345
0.358159
0.0639707
-0.00108793
-0.0628818
0.000237773
-0.0381499
0.248108
-0.559498
0.311373
-0.183938
-0.320754
-0.0260837
-0.0259953
0.576325
-0.405772
-0.091601
-0.321701
0.17429
-0.0180625
0.549873
-0.516068
-0.033813
-0.019534
-0.115502
-0.522525
0.667876
-0.145352
-0.266004
0.0622802
0.203715
0.0130213
-0.131591
-0.356533
0.488096
0.0388134
-0.149674
-0.36303
-0.236858
0.599888
-0.458157
0.627227
-0.169082
-0.185528
-0.270983
0.35579
-0.549821
-0.158253
0.153718
0.00453221
0.246005
0.00813465
-0.254142
-0.310257
-0.00344967
-0.000108962
0.258976
-0.551536
0.292554
0.175651
-0.204205
0.0285484
0.0946452
-0.0395791
0.39122
-0.178155
-0.213076
0.556607
-0.376371
-0.129354
0.424634
-0.295281
0.463914
0.085949
-0.435084
-0.108103
-0.297125
-0.47525
-0.0049863
0.0434216
-0.0384336
-0.583157
0.0844014
0.498704
-0.539049
0.150825
0.388194
-0.0362309
0.230151
-0.193923
-0.487632
0.356013
-0.0474612
-0.00841078
0.0558723
0.137321
0.143132
-0.280464
0.0463194
-0.00408351
-0.0422359
0.124966
0.445012
-0.569979
-0.0178865
-0.0498351
0.0677213
-0.34504
0.433253
-0.404296
0.119933
0.284363
0.454521
-0.636078
0.181555
-0.720204
0.435008
0.285193
0.641637
-0.238992
-0.402647
-0.189176
0.397908
-0.208738
-0.0172996
0.0065594
-0.10844
-0.405509
0.513913
0.0480614
-0.00174201
0.255828
-0.118516
0.186922
-0.358538
-0.00270526
0.0631071
-0.0604027
-0.0615322
0.13819
-0.0766596
0.00354864
0.0498989
-0.0534475
-0.609025
0.59026
0.0187535
-0.0386471
-0.188925
0.227565
-0.528635
0.0691304
-0.00810923
0.00628181
0.00182752
0.673702
-0.219182
0.206334
0.00919844
0.284077
-0.249065
-0.0350134
-0.290963
0.539054
0.547249
-0.150115
0.138028
0.0120841
-0.068994
-0.22937
0.29836
0.0114651
-0.0589262
0.134945
-0.236008
0.276334
0.443068
-0.450743
-0.0883318
0.129003
0.275611
0.377273
-0.490675
0.113401
0.574917
0.0519725
-0.626889
-0.210039
0.173806
0.459358
-0.558993
0.0443381
0.00453657
-0.0488747
0.187145
-0.0221894
0.415845
-0.345164
-0.0706811
-0.390951
0.283207
0.107733
-0.227389
-0.113296
0.340675
0.660968
-0.39219
-0.268784
0.491177
-0.113904
-0.236617
-0.111076
0.347681
-0.0971788
-0.0249878
-0.117443
0.142426
0.473672
-0.256108
-0.217566
0.269895
-0.0238933
0.00633948
0.0832426
0.0124668
-0.0235399
0.0110724
-0.187514
-0.342922
0.53041
-0.443873
-0.444008
0.330831
0.11317
0.402976
-0.117731
-0.285245
-0.630327
0.201024
0.429299
-0.131975
0.104471
0.0275033
0.180272
0.210939
-0.360938
0.124308
-0.199523
0.118206
0.0651226
-0.0678287
0.431298
0.131256
-0.562558
0.289156
0.371806
0.176308
0.466272
-0.158729
-0.307544
0.172764
-0.167528
0.246428
0.0328326
-0.544706
0.376106
0.670593
-0.128892
0.598093
-0.177883
-0.420212
0.00275962
0.0512014
-0.0539609
0.111744
0.513481
0.0291164
0.545801
0.0770669
-0.556918
0.47985
-0.505441
0.602173
-0.0967328
-0.142309
0.117318
-0.0154589
0.418435
0.347234
-0.234471
-0.112763
0.040877
0.461259
-0.502154
-0.379462
0.492661
-0.113226
0.1339
0.332371
-0.713212
0.305599
0.407613
0.136216
-0.0977785
0.158049
-0.328234
-0.104189
0.381392
-0.207146
0.210124
-0.0029832
-0.449171
-0.26404
-0.0380575
-0.0939182
0.0594682
0.17587
-0.235344
-0.029572
0.0982787
0.43895
-0.580856
0.14188
0.052043
-0.007705
0.105897
-0.175325
0.0856426
0.192508
-0.0151534
-0.0447945
0.059948
-0.130832
0.36143
-0.230613
-0.318666
-0.150626
-0.0578427
0.0518884
0.00595347
0.494794
-0.453936
-0.0101105
-0.141771
0.151877
0.22234
0.0169631
-0.21159
0.369629
-0.000743471
-0.0456814
0.212933
-0.15347
0.384323
-0.354566
-0.0297693
0.0657844
-0.0790868
0.0133018
0.652818
-0.255222
-0.3976
0.0460465
-0.273443
0.734811
-0.361113
-0.373701
-0.0650012
0.0677609
0.122179
-0.0176949
-0.104486
-0.503421
0.394948
-0.181003
0.0406302
0.140369
-0.259154
0.485368
-0.226246
0.0407234
-0.0282567
0.00890036
0.444794
-0.453701
-0.462392
0.65355
-0.191167
0.619526
-0.26001
-0.359531
0.119196
0.00298128
0.195576
-0.234231
-0.312793
0.0673276
0.245456
0.106745
-0.365242
0.234393
0.319836
0.0644736
0.469119
-0.66781
-0.00257743
0.00163543
-0.0689408
-0.010767
0.0797089
0.106949
-0.390954
0.283999
0.059718
-0.0748715
-0.00360644
-0.0864811
0.0900876
0.379778
-0.0242772
0.199923
0.117818
0.0183965
0.586108
-0.372539
-0.213573
0.0235882
0.209619
-0.233211
-0.00209518
0.110764
-0.108671
0.104408
-0.247543
0.528304
-0.280768
0.304275
0.0473648
-0.351639
-0.00724306
-0.0483007
0.0555434
0.0387973
-0.578996
0.658856
-0.0799146
-0.578943
0.174697
0.484157
0.146087
-0.0224871
-0.1236
-0.102825
-0.209977
-0.196228
0.219814
-0.00495272
-0.00315645
-0.501295
0.317338
-0.107655
0.41193
0.369729
0.249783
-0.496185
0.236999
-0.113175
0.572532
-0.0523216
0.57964
-0.192636
0.561951
-0.369338
0.0531703
-0.0604136
0.68848
-0.328882
-0.359599
0.308559
-0.440492
0.131913
0.172798
-0.182913
-0.65603
0.363477
0.29255
0.0599145
-0.0894851
-0.299718
0.227582
0.0721305
0.151156
-0.291949
0.072161
-0.00818933
-0.124748
0.433287
-0.240908
0.0517305
-0.0379907
-0.185545
0.223528
-0.209815
0.360971
0.0962666
-0.452388
0.356097
0.161716
-0.635027
0.206456
0.220414
-0.426876
0.0134849
-0.00364428
-0.00984114
0.639656
-0.0488021
0.048059
0.246725
-0.100332
0.098235
-0.0535372
0.0524504
-0.689351
0.1679
0.52145
-0.17298
-0.516373
-0.0038583
-0.348568
0.352421
0.642508
-0.160566
-0.481968
0.509837
-0.5235
0.0136189
0.397795
-0.290853
-0.0791634
-0.101843
-0.00729895
0.0120767
-0.24367
0.209971
0.0336931
-0.061314
0.0648625
0.0604935
-0.011166
-0.0493281
-0.395786
-0.260247
0.229485
-0.41702
0.00322133
0.00914267
-0.0344049
0.0252622
0.0769408
0.207135
-0.0717242
-0.000555765
0.451126
-0.244675
-0.21172
0.173722
0.513295
-0.54708
0.0337689
-0.102802
0.0991957
-0.445115
0.53033
-0.0852309
-0.0986011
-0.179975
0.376788
-0.380653
-0.440951
0.334928
0.106007
0.0536915
0.102281
0.392495
0.316453
0.326081
-0.118722
-0.0161591
0.216396
0.0679676
-0.284368
-0.0248907
-0.013786
0.0386767
0.330954
0.0318043
-0.362766
-0.130552
-0.449951
0.0280733
0.421873
0.322715
0.168461
-0.325843
0.0985606
0.227273
0.159381
-0.0132942
0.282024
-0.196391
0.183209
0.458427
0.121175
0.436629
0.509238
-0.406976
0.0946031
-0.552773
0.125546
-0.142561
0.0170142
0.0777629
-0.360702
0.28294
0.121399
-0.115115
-0.00628685
-0.0534932
-0.396463
0.0158327
-0.235349
-0.186178
0.130233
0.140762
-0.0609176
-0.0891993
0.449464
-0.353223
0.446127
-0.123414
0.663685
-0.502835
-0.160854
-0.156061
0.0463764
0.109684
-0.201915
0.397352
-0.195438
-0.00921506
0.178093
-0.168881
-0.0348434
-0.00465243
0.0394959
0.607324
-0.143419
-0.633914
0.208416
0.425496
-0.431299
0.229384
-0.00250142
0.00424182
0.307701
-0.670732
-0.216554
0.220182
-0.00363478
0.00347078
0.554554
-0.123259
-0.497799
0.557628
-0.0598452
-0.399553
0.110621
0.288918
0.127104
0.028434
-0.0994659
0.100007
-0.363416
0.263403
0.11493
-0.0280715
-0.0868594
-0.556044
-0.0529924
-0.57067
0.310647
0.00172918
0.00719273
-0.00892145
-0.0836728
0.341584
-0.45946
0.536527
0.242785
-0.1323
0.469036
0.173448
0.199649
-0.16391
-0.383299
0.54719
0.116639
0.180085
-0.29673
-0.13384
-0.233684
0.367513
-0.431953
0.464472
0.142843
-0.0145308
0.0803144
0.373246
-0.427772
0.197359
-0.186844
-0.0105195
-0.0822544
-0.499175
0.243568
-0.380271
0.136699
-0.642174
0.199539
0.442634
0.570021
-0.570054
0.523063
-0.16555
-0.357532
-0.560012
0.137277
0.523543
-0.123729
0.409618
-0.28589
0.250673
0.11262
-0.363308
0.300292
-0.455838
0.117476
-0.474037
-0.169894
0.683173
-0.00626541
0.0203507
-0.0140855
0.00252196
-0.0373654
0.142382
0.315821
-0.458226
0.405195
-0.161633
-0.275025
-0.0508264
-0.290777
-0.1999
0.0209296
-0.0112106
-0.374785
-0.195896
0.288129
0.40035
-0.0848123
-0.3676
-0.149083
0.0090663
0.140014
-0.326691
-0.0659724
0.392648
-0.00872706
0.0108796
-0.00215227
-0.132466
0.547559
-0.415096
0.00315368
0.000911822
-0.243065
0.254995
-0.0119325
-0.211156
-0.454587
0.198094
0.207095
0.0692211
-0.0226319
-0.0465886
0.207696
-0.00136516
-0.427643
0.477701
-0.0500577
-0.524825
-0.0564148
0.34261
-0.42319
0.0805809
-0.572067
0.036291
-0.175281
0.58955
-0.414295
-0.589932
0.195133
0.394772
-0.441702
0.332632
0.109055
0.0403577
-0.031215
-0.152741
0.147491
0.00524632
0.125257
-0.0208449
-0.104414
0.0946914
-0.0879901
-0.00670242
0.11818
0.328573
-0.676265
-0.101886
-0.0189999
0.120886
0.373173
-0.29541
-0.0634844
-0.202527
0.0004615
0.214222
-0.507455
0.216677
-0.35722
0.422153
-0.0824878
0.0646009
-0.511264
-0.00936578
0.520578
0.00244961
-0.0111761
0.00603349
0.0241803
-0.0291656
-0.153396
-0.163648
0.361737
0.448214
-0.328668
-0.466145
-0.16777
0.3357
0.13797
0.270535
-0.399889
-0.139247
0.0448578
0.0943892
0.350918
-0.128825
-0.0933488
-0.0458986
0.0776425
-0.00380524
-0.0738381
-0.539729
0.40726
0.131946
-0.145731
0.00389771
-0.0332907
0.029393
0.374061
-0.0908646
0.328241
0.174021
-0.502297
-0.354023
0.551794
0.331169
0.12662
-0.45781
-0.00922872
-0.149027
0.229639
0.0647464
-0.29439
-0.104706
0.257753
0.0311972
0.0837333
-0.444846
0.607759
-0.162942
0.00847199
-0.00674238
0.00155947
-0.0403074
0.0387478
0.487177
-0.337474
-0.149706
0.115131
0.258043
0.197276
0.580802
-0.47799
-0.102812
0.407659
0.468845
0.0637593
-0.532604
-0.119562
0.0176763
-0.218534
0.0125529
0.117594
-0.113956
-0.00363921
-0.0808792
0.0999509
-0.0190727
0.209445
0.454862
-0.385849
0.435504
-0.0496594
-0.0269023
0.37329
-0.346387
-0.175875
0.153387
-0.138216
0.13982
-0.00160718
0.00485292
0.0355049
-0.00298125
0.076613
-0.0736323
0.345198
-0.10667
-0.334295
-0.186455
0.13111
0.0553452
0.00265014
-0.0960707
-0.00625486
0.102324
-0.110239
-0.133435
0.408006
-0.15544
-0.574849
0.309521
0.200509
-0.510062
-0.111203
0.696031
-0.486588
0.274938
0.0991128
0.180015
0.487859
-0.165591
-0.397654
0.56321
0.0832212
-0.00557934
0.148833
-0.473507
0.420008
0.293616
0.402413
0.0109652
-0.0597671
0.317103
0.107531
0.642379
-0.190886
-0.451518
-0.425874
0.577394
-0.151533
-0.0854987
-0.544833
0.548586
0.00355399
0.00993011
0.318024
0.0978208
-0.0862725
-0.0118181
0.0359946
0.476996
-0.134385
-0.0516212
-0.154911
0.206527
-0.0261188
0.0300167
-0.0332666
0.029183
0.149067
-0.396615
0.0156517
0.18872
0.0624008
0.518401
0.437682
-0.237025
0.0272617
0.209757
0.00834282
-0.0891863
0.0808429
-0.330808
0.378173
0.00397901
0.113613
-0.264233
0.027874
0.236353
0.0871878
-0.490529
0.403322
-0.313874
0.23384
0.080028
0.145083
-0.543035
0.397945
0.0291491
-0.456792
0.13092
-0.135456
0.00453289
-0.365897
0.483344
-0.286992
-0.103968
0.0251403
-0.522956
0.135897
-0.217464
0.0815607
0.112096
0.00930117
0.404078
-0.308252
0.112531
0.33691
-0.121754
-0.177969
0.0651808
-0.31349
0.248295
0.144218
0.132949
-0.00740405
0.0418218
-0.103356
-0.301858
0.0782982
0.223554
0.00797879
-0.104051
0.483006
-0.395838
0.0948249
-0.298154
0.203326
-0.383295
0.00744962
-0.0192679
0.145518
-0.490575
-0.648801
0.297568
0.351212
0.00161139
0.0767642
-0.196125
0.420973
-0.224858
-0.0145911
-0.0389452
0.0481219
-0.051133
0.00301097
0.0148959
-0.00448282
-0.0104128
0.094887
0.147898
0.0854661
-0.530597
-0.0818681
-0.454526
0.483642
0.340518
-0.543314
0.202763
0.122682
0.424875
0.382391
-0.548017
-0.606743
0.265532
0.341211
-0.0515702
0.382518
-0.217457
0.33409
0.703956
-0.410342
-0.0917154
-0.00925536
0.100971
0.0268278
0.0147405
-0.106456
0.168973
-0.553247
0.384254
0.138117
-0.56054
0.422421
0.636102
-0.147908
-0.4882
0.00452834
0.113288
-0.0337687
-0.0576096
0.0913786
0.10823
-0.144324
0.0360914
-0.0636322
0.131439
-0.585965
-0.462793
-0.0843016
-0.139005
-0.461945
0.600919
-0.251936
0.43014
-0.178217
0.0611669
-0.0830263
0.021858
0.0479321
-0.0844354
0.0365033
-0.246545
0.311711
0.239137
0.464817
-0.134425
-0.307289
-0.477789
0.225833
0.118925
-0.16595
0.0470241
0.00382626
-0.00227654
-0.00154979
-0.0674512
0.0670607
-0.0887793
0.0217192
-0.356414
-0.0667765
0.461788
-0.349282
0.128923
-0.00366833
-0.00614633
-0.191501
-0.0749599
0.00177907
0.117731
0.306597
-0.234863
0.143888
-0.0356617
0.362628
0.390469
-0.345277
0.0369856
0.390691
0.272991
0.126789
0.0485634
0.0395853
-0.0442378
0.16261
-0.561813
0.399191
0.39057
-0.123687
-0.266892
0.254492
0.153511
-0.57904
0.403734
0.282149
-0.236986
0.370885
-0.0132839
-0.0186115
0.0318951
0.0011668
0.129749
0.126878
-0.0224072
-0.39751
0.565409
-0.456064
0.57044
-0.401489
0.0185097
-0.0247754
-0.0962781
0.0153977
-0.28715
0.218151
-0.0072411
0.055363
0.172525
-0.602842
0.430303
-0.00845414
-0.47877
0.487187
-0.418557
0.330245
0.146751
0.0786342
0.0032976
-0.0819324
0.337192
-0.120162
-0.217038
-0.422944
0.106563
0.316369
-0.207138
-0.435037
0.075143
0.208499
-0.283653
0.415519
0.220578
0.00168372
0.00609
-0.007773
0.0435842
-0.299693
0.0453632
-0.0462909
0.000927158
0.44166
0.0906447
-0.337205
-0.0012588
0.0316791
-0.0304203
-0.000350511
0.000480621
-0.000130077
-0.0685666
0.0930157
-0.384864
0.529939
0.0699441
-0.0777485
0.00780407
-0.190737
0.63173
-0.448522
-0.0352114
0.162861
-0.127651
0.169866
-0.179084
-0.139791
0.317951
-0.178169
-0.00240329
0.573994
-0.223133
-0.350865
-0.613191
0.376039
0.237145
-0.00846876
0.0992237
-0.152038
-0.496785
-0.583211
-0.359426
0.225575
0.12623
0.356758
-0.00836352
0.0100478
-0.207773
0.0531826
0.154585
-0.109784
-0.357229
-0.116283
0.424098
-0.601982
-0.401231
-0.354719
0.576162
-0.0620411
-0.514162
0.225419
-0.409478
0.532158
-0.132302
-0.349538
0.481816
-0.619979
0.246785
0.373146
-0.00621087
0.0580987
-0.54668
-0.520551
0.0145175
0.506031
-0.046247
0.432152
-0.385906
-0.433181
0.326495
0.0335028
-0.0347616
-0.550043
0.00336038
0.546679
0.541033
-0.38054
-0.160501
0.0811986
0.0368258
-0.118026
-0.0474617
0.166386
-0.217437
0.528762
-0.311326
0.192915
0.346329
-0.539275
0.183631
-0.342362
-0.0134511
0.0805123
-0.110279
-0.0693871
0.00353391
0.0658525
0.182433
-0.0556486
-0.513178
0.349251
0.597309
-0.441328
-0.155985
0.00514368
-0.000699341
-0.246969
0.430597
0.101436
-0.325027
0.223583
-0.58388
-0.444857
-0.316168
-0.170466
0.0105982
0.159865
-0.127366
0.259073
-0.13171
-0.184124
0.359986
0.452633
0.144673
-0.493544
-0.0177645
0.389345
0.15168
0.0881024
0.0253845
-0.390066
0.303008
0.0870586
0.0129062
0.140809
-0.346267
-0.292816
0.383443
-0.136179
0.0986392
-0.129825
0.031183
-0.00688219
0.126104
0.211079
-0.0492798
0.0254267
0.0238535
0.00462549
0.0900647
-0.359864
-0.0733327
-0.0173621
-0.00844889
0.0258117
0.29337
-0.198548
-0.0784056
0.0947092
-0.0163033
0.0130805
-0.0263648
-0.0274813
-0.0392167
0.0666972
0.623273
-0.225912
-0.397363
-0.228466
0.00350942
0.224952
-0.386967
0.286341
0.111448
0.00516684
-0.00775691
-0.0121491
-0.541771
0.151565
0.390191
0.599356
-0.607692
0.00832033
-0.00761894
0.145643
-0.352588
0.571647
-0.219059
-0.419097
0.564444
-0.14535
-0.000376856
0.0021441
-0.00176723
-0.407048
0.579558
0.335368
-0.449735
0.114344
-0.00117024
0.0324615
-0.00112861
-0.0313329
0.0710902
-0.468601
0.485481
-0.14499
-0.492578
-0.00363833
-0.00121105
0.000860607
0.0838251
-0.0226594
0.107372
-0.113628
-0.198929
-0.302034
0.500955
-0.0806737
0.0699075
-0.0674544
-0.108421
-0.10433
0.0705617
0.01472
0.157424
0.165689
0.00710434
-0.0797287
0.0690246
-0.395731
-0.0504557
0.248368
-0.00907073
0.141705
-0.132636
-0.0193891
-0.0150158
0.499953
-0.0488316
0.00273868
0.00282104
0.00722757
0.0120372
-0.0904424
0.0332135
-0.0316542
0.313614
0.115696
-0.429331
0.194386
-0.0245317
-0.16986
0.47969
0.162663
-0.0680235
0.267559
0.123002
0.0732409
-0.00421574
-0.0690249
0.647218
-0.647284
-0.0344622
-0.00949927
0.0439615
-0.541777
0.122677
0.118532
-0.0373351
-0.427412
0.536783
-0.109394
-0.0987328
-0.0665633
0.165295
-0.161865
0.18547
0.00891081
-0.0402088
0.038701
-0.155266
0.116561
-0.148199
0.328279
-0.493539
0.630787
0.0576135
0.255633
0.363469
-0.102368
-0.261104
-0.367287
0.11681
0.250466
-0.000783437
0.0332448
-0.379126
0.580145
0.67838
-0.390252
-0.436357
0.157643
0.278698
-0.0633486
0.0135132
-0.0087728
-0.00246236
0.035965
0.463405
0.159867
0.0976076
0.402339
0.0118949
0.39816
-0.410072
-0.00174689
0.0471095
0.123119
0.524039
0.165884
-0.31677
0.000287965
-0.03943
0.039142
0.385754
-0.568957
0.183181
0.0859455
0.188347
-0.274301
-0.0974715
0.426104
-0.109001
-0.0496407
0.0141943
0.0354465
-0.263518
0.38923
-0.125729
0.222844
-0.526054
-0.0689546
0.209153
-0.140197
0.00800716
0.0400543
0.117547
0.02227
0.317902
-0.216475
0.490301
-0.162941
-0.327369
0.261229
0.41715
-0.00695899
-0.00419353
0.011153
-0.0171956
0.115832
-0.535056
0.0145019
0.024236
-0.252707
-0.57511
0.398814
0.176269
0.415619
-0.331253
-0.406228
0.580923
0.0213246
-0.484132
0.143514
-0.115818
-0.0276965
0.215542
0.230584
0.447922
-0.112575
-0.115366
0.381609
-0.223002
-0.028559
0.0220053
0.00655362
0.0598052
0.00941659
-0.000804372
-0.215757
-0.0364162
-0.0128635
0.050321
-0.477757
0.195764
0.024412
-0.070731
0.468876
-0.408975
-0.166162
-0.158875
0.42994
-0.271084
0.329394
0.118506
0.0311517
-0.00217883
-0.0289728
-0.1487
0.464499
0.0993091
0.044576
0.428985
-0.11539
-0.226475
-0.57921
0.00050806
-0.000162724
-0.000345305
0.209298
0.373193
-0.0643293
-0.122126
0.124357
-0.251726
0.0363672
-0.109992
0.0736231
-0.235352
0.0275744
0.19808
-0.0133562
-0.184729
-0.00755069
-0.197205
-0.0202662
-0.301725
0.0723506
-0.00171957
-0.0832013
0.359363
-0.276162
0.00168618
0.00468881
-0.00637491
-0.14287
0.169441
-0.0265746
0.667801
0.421488
-0.275984
0.192618
-0.153922
-0.152738
-0.0242135
-0.321606
0.514496
0.0481867
-0.0135509
-0.0346355
0.412174
0.158244
-0.167514
-0.0194681
0.0121688
-0.18234
0.608383
-0.426047
-0.108666
0.089131
-0.253096
-0.151007
-0.35778
-0.101189
-0.486292
-0.00631371
-0.116205
0.502065
-0.385859
0.377258
-0.259542
0.0802863
-0.0887557
-0.410019
-0.15896
0.0623313
0.0214926
0.0039614
-0.0109199
0.249904
-0.0346818
-0.215225
0.00746234
-0.0260741
0.403937
-0.0216884
0.597811
0.232351
-0.593467
0.446382
-0.115232
-0.402853
0.1281
-0.108532
-0.0195697
-0.0971176
-0.225587
0.322689
0.340933
-0.526127
0.18518
-0.102583
-0.320374
0.108489
-0.570891
0.0351234
0.0841876
-0.0362554
0.235024
-0.0765689
0.00484464
-0.00764466
-0.0797285
0.0873719
0.433042
-0.123546
0.187789
0.291892
-0.479682
-0.0919137
-0.172325
0.15191
-0.133895
0.522891
-0.388996
0.308246
-0.483421
0.175172
-0.506757
0.358558
0.148199
-0.420168
-0.166399
-0.360501
0.610376
0.317456
0.108647
-0.00335079
-0.00883979
0.0121906
0.414989
0.0979586
-0.512965
0.0131255
0.0876103
-0.202569
0.255745
-0.196446
0.27158
-0.56672
0.450515
0.433327
-0.610491
0.177149
-0.100377
0.0198142
0.0805628
0.195337
0.0980304
-0.3582
0.571405
-0.408807
0.345987
0.127946
-0.473959
-0.374017
0.409762
-0.284459
-0.151913
-0.119574
0.678483
-0.417255
-0.242029
0.0147443
0.227284
-0.0033711
0.102669
-0.0992991
0.253825
-0.354087
0.100263
0.492472
0.106871
-0.0997485
0.445766
-0.346039
0.323742
-0.117808
-0.205936
-0.176856
-0.203421
-0.29056
0.0685948
0.221959
-0.133946
-0.185593
0.0427188
-0.333802
0.23666
0.334629
0.155663
-0.046562
0.107095
-0.0605323
-0.155306
0.496227
-0.043559
0.0297728
-0.106811
0.0910569
0.0157532
-0.141048
0.306933
0.120781
-0.114557
-0.00622528
0.449231
-0.457717
0.674617
-0.240783
-0.433838
0.136319
0.314719
-0.451053
0.36651
0.0901366
-0.456647
-0.0777598
-0.326889
0.404648
0.512565
-0.0975918
-0.50086
0.500824
0.178882
0.39251
0.112596
-0.134272
0.573487
-0.142587
-0.430903
0.572131
-0.393262
0.370182
-0.183273
0.204583
-0.189377
-0.0152113
-0.00842239
0.0870561
-0.07209
0.338569
-0.238569
-0.145938
-0.474091
0.12882
-0.137893
0.126868
-0.0279039
-0.0989639
-0.0863204
0.317464
-0.0230393
0.112429
-0.114224
0.00179565
0.128999
-0.0252188
-0.103782
0.582197
-0.169516
-0.412685
-0.143996
0.00222204
0.470709
-0.142494
0.357952
0.295591
-0.319735
0.456038
0.033677
-0.0339048
0.000227669
0.00986949
0.109325
-0.0792894
-0.281411
-0.0629567
0.424591
-0.359203
-0.1353
0.494474
-0.381735
-0.146902
-0.436834
0.133322
0.303495
-0.291301
0.479088
-0.333917
0.0273244
0.306591
-0.540479
0.290519
0.185565
0.0190136
0.294211
-0.0778191
-0.0317449
0.0306867
0.00105815
0.00993774
0.560046
0.213583
-0.19972
-0.0138633
-0.353337
-0.253407
0.0481564
-0.00585677
-0.0422995
0.196106
-0.0220719
-0.174036
0.00754664
0.0686164
-0.0761637
0.113341
-0.0252402
0.00290908
0.125188
0.00573692
0.127212
-0.00316471
-0.0371428
0.376708
-0.122882
-0.00910174
0.0525242
-0.595782
0.213782
-0.266731
0.0529474
0.163065
0.410418
-0.0923587
0.215368
0.0240654
-0.239438
0.21693
-0.366514
0.149567
0.039442
-0.003767
-0.035675
-0.0780847
0.266161
-0.188084
0.0367856
0.45257
-0.0137506
0.124065
-0.110316
0.0879163
-0.512665
0.387185
0.125445
-0.0829143
0.281849
-0.198944
-0.304294
0.657991
-0.255473
-0.402522
0.406815
-0.12048
0.144561
-0.213515
0.124364
-0.47045
-0.0997431
0.276004
-0.176261
-0.222672
0.489274
-0.266634
-0.233486
0.0362741
0.272579
-0.471516
-0.384122
-0.080571
0.080015
0.0828313
0.262245
0.412368
0.358039
-0.111416
-0.246631
-0.0117301
0.01418
0.197233
0.0104583
0.0788707
-0.116622
0.0377507
0.0895853
0.0223171
-0.111902
-0.507871
0.366793
0.141074
0.40247
0.179723
0.0885093
-0.074177
-0.0143331
0.283692
0.123117
0.163663
0.00909645
0.212532
-0.067155
0.00635084
0.0608036
-0.0673261
0.433835
0.03606
-0.112602
-0.00904041
0.289464
-0.280426
-0.377832
-0.00937682
-0.392784
0.215924
-0.451135
0.340025
0.111088
-0.00465875
-0.00326729
0.00792613
-0.219186
0.0369796
-0.167301
0.609655
-0.442356
0.0851137
0.130249
-0.00479766
0.0945946
-0.0897983
0.127223
-0.302334
0.175103
-0.00766213
-0.0594933
-0.0214204
0.0837503
-0.507016
0.569152
-0.0621405
-0.241208
-0.0139746
0.255182
0.0431741
-0.00358885
-0.253936
0.0127262
-0.0813058
0.0742603
0.00704523
-0.501481
0.0440277
0.457408
0.335227
-0.434996
-0.0266821
-0.000404802
0.027087
0.0268657
0.100002
-0.0108577
0.00414944
0.00670863
0.119727
-0.552407
0.432623
-0.097921
0.430538
-0.11112
0.00601248
-0.0376668
-0.122733
0.0541654
0.268814
0.10843
0.494641
-0.186399
-0.0120177
-0.15845
0.0714461
-0.00311911
-0.0683268
-0.0752186
-0.00954573
0.0847632
-0.322578
0.0656268
0.384594
-0.450246
-0.00700881
0.0769525
0.200502
-0.00139545
-0.199115
0.212095
0.31095
0.0840734
-0.10492
0.0370359
-0.140343
0.338495
-0.580361
0.414261
0.166079
-0.000232014
0.000739949
-0.0618412
-0.226426
0.566286
-0.117072
0.563983
-0.446948
0.00863865
0.039548
-0.532796
0.0257749
0.623118
-0.154273
-0.474101
0.251395
0.0168763
0.323142
-0.445802
0.12264
0.140715
-0.0414091
0.154502
-0.254244
-0.0722287
-0.107883
-0.228036
0.335906
0.000990949
-0.00528033
0.0042898
0.416384
-0.200843
0.0941019
0.00197379
-0.0960756
0.0955413
-0.0989135
0.0397457
-0.498484
0.382788
0.115692
0.363424
0.136182
-0.499636
-0.00358038
0.116009
-0.208254
-0.361826
-0.0273248
0.417203
-0.212937
-0.293819
0.329464
-0.00594234
-0.0787862
-0.168208
-0.234738
-0.378459
0.005318
-0.0335753
-0.191235
0.186507
0.00472598
0.0323104
0.36189
-0.210615
-0.151287
0.600252
-0.153106
-0.447148
0.571212
0.197271
-0.194538
-0.0747652
0.0717832
0.0204884
-0.000137978
0.208199
0.407041
0.000215446
0.147272
0.0855185
-0.50995
0.424432
-0.113899
-0.323099
0.436982
-0.169529
0.0409252
-0.0440901
-0.0257838
-0.178427
-0.295094
0.227637
0.108093
0.0208279
-0.00403016
-0.329888
-0.0714683
-0.0749665
-0.113398
-0.385091
0.305866
-0.544858
-0.393927
-0.0566382
-0.185391
0.147569
-0.146406
0.541001
-0.402886
-0.00125661
-0.0985491
0.0998038
-0.491412
0.353648
0.137734
0.173836
-0.594057
-0.0875737
0.0471079
0.0404658
0.0394717
-0.0432388
-0.173221
-0.219614
0.392824
-0.00751195
0.00153586
-0.28651
0.188872
0.097636
0.0415769
-0.0362592
0.222966
0.264207
-0.0593702
0.39725
-0.338422
0.45723
-0.118828
-0.0911748
0.196987
-0.677717
0.480726
0.344075
-0.506556
0.162477
-0.32097
-0.0515975
0.0575502
0.0558135
0.00700573
-0.0628196
0.0132716
0.20031
0.0666266
-0.0742893
0.0867371
-0.318749
0.232006
0.0491911
-0.00562778
-0.0435632
0.0595207
0.193957
0.00330758
0.42784
-0.308156
-0.148794
-0.351234
0.500008
-0.439726
-0.506036
0.373525
0.132485
-0.055318
-0.0277097
0.605406
-0.436314
-0.16915
0.254849
0.0178283
-0.272686
-0.369356
0.128437
-0.100934
-0.00774408
0.067462
-0.0146238
0.0178979
-0.0032746
0.127189
-0.447652
0.32045
-0.0699243
0.0844311
-0.0145074
-0.215056
0.341152
0.240033
-0.323713
-0.207784
0.510283
-0.315009
-0.217792
-0.00510775
0.00158746
0.308249
-0.0809833
0.0340403
-0.0337525
0.128818
-0.179273
0.320269
0.174369
0.108601
-0.00123152
0.395686
0.221785
0.258556
-0.0309794
-0.386219
0.227327
-0.00378254
0.0926312
-0.0888494
-0.273131
-0.242945
0.327248
-0.193794
-0.133463
0.441895
0.337366
0.280394
-0.0822767
0.0774775
-0.225188
-0.0972128
0.32239
0.225439
-0.115524
-0.10992
-0.136258
0.480329
-0.0115897
-0.134018
0.0274686
-0.0255207
-0.00194794
0.3244
-0.490732
0.166313
-0.121421
-0.0585111
-0.471023
0.0892865
0.413115
-0.158627
-0.16393
-0.416876
0.580804
-0.0262409
0.115826
-0.0302787
0.244059
-0.179447
-0.190071
-0.0870176
0.27708
0.144381
-0.500499
0.356114
-0.150354
0.492161
-0.341829
0.623635
0.321811
0.170822
0.402691
-0.548243
0.14554
0.176058
0.0307725
-0.0582544
0.243187
-0.206411
-0.272383
0.429459
0.568498
-0.242986
0.568087
-0.0320258
-0.536068
0.125589
0.00376222
-0.00808536
-0.0684839
0.0989737
0.184335
0.334635
-0.439559
0.104903
0.607699
-0.410717