/*--------------------------------*- C++ -*----------------------------------*\
| =========                 |                                                 |
| \\      /  F ield         | OpenFOAM: The Open Source CFD Toolbox           |
|  \\    /   O peration     | Version:  v2012                                 |
|   \\  /    A nd           | Website:  www.openfoam.com                      |
|    \\/     M anipulation  |                                                 |
\*---------------------------------------------------------------------------*/
FoamFile
{
    version     2.0;
    format      ascii;
    class       surfaceVectorField;
    location    "750";
    object      ddtCorrDdt0(Uf);
}
// * * * * * * * * * * * * * * * * * * * * * * * * * * * * * * * * * * * * * //

dimensions      [0 1 -2 0 0 0 0];


internalField   nonuniform List<vector> 
20642
(
(0.00801701 -0.000928262 4.89667e-19)
(0.00787067 -0.00100657 1.45023e-19)
(0.00841323 -0.00114395 1.72032e-18)
(-0.00138972 -0.00127294 -7.75396e-19)
(-0.00153095 -0.00133361 1.4629e-18)
(-0.00150779 -0.00115213 2.2062e-18)
(0.000244203 -0.00207802 -1.32899e-18)
(0.000427778 -0.00188504 2.39969e-18)
(0.00098478 -0.00222939 8.83928e-19)
(-0.000622507 -0.000138451 -1.32014e-20)
(-0.000626358 -0.000145764 -3.99737e-20)
(-0.000613694 -0.000141355 -4.85559e-20)
(-0.000787888 -0.000576033 -7.3507e-20)
(-0.000849818 -0.00054554 3.36261e-19)
(-0.000779826 -0.00051356 2.4901e-19)
(-0.00124754 -0.00117708 -9.89306e-19)
(-0.00124105 -0.00135217 -1.14157e-18)
(-0.000937582 -0.000223085 1.74073e-19)
(-0.000923324 -0.000221789 5.83086e-19)
(-0.000932835 -0.000231293 5.85124e-19)
(-0.00431123 -0.000776822 -1.5444e-18)
(-0.00530591 -0.000874434 9.07848e-19)
(-0.00497468 -0.000240879 -9.04444e-19)
(-0.000967166 -8.4378e-05 -4.53207e-20)
(-0.000962634 -9.15835e-05 -2.21941e-19)
(-0.000975584 -9.19918e-05 -8.84023e-19)
(0.000138852 -0.000839404 -1.6606e-18)
(0.000693106 -0.000987912 -3.54806e-18)
(-0.00429508 -0.000324837 -2.50465e-19)
(-0.00416458 -0.000979902 9.35357e-19)
(-0.00047325 -0.000171743 -4.62557e-21)
(-0.000483543 -0.000176819 -9.3228e-20)
(-0.00048138 -0.000169497 3.25508e-19)
(-0.000151066 -3.53327e-06 3.09837e-19)
(-0.00015423 -2.46755e-06 8.09969e-19)
(0.0104128 0.00770567 -5.4324e-19)
(0.00933584 0.00862696 4.06953e-19)
(0.0116817 0.00796671 8.64108e-19)
(-0.000587887 -0.000693285 -3.30351e-19)
(-0.000596894 -0.000735765 2.12921e-19)
(-0.000635484 -0.00070512 -4.42669e-19)
(0.00798438 -0.000845467 -1.1843e-18)
(0.00703251 -0.000712188 6.56966e-18)
(0.000688378 -2.6312e-07 -5.27831e-20)
(0.000684615 -3.61226e-07 2.42503e-20)
(0.000586738 2.69714e-06 -5.76293e-20)
(-0.00395841 3.71852e-05 5.25921e-19)
(-0.00351501 0.000241413 3.21928e-19)
(-0.00352923 -0.0002256 4.07839e-19)
(-0.000431054 -4.69115e-05 1.94427e-18)
(-0.00032115 -7.58588e-05 -1.39191e-19)
(-0.000360092 5.97368e-05 2.13192e-18)
(0.00391555 -0.0019238 6.81216e-18)
(0.00617112 -0.00215797 4.19256e-18)
(0.00664202 -0.00174532 7.57039e-19)
(-0.000727543 3.85896e-05 -8.46052e-20)
(-0.000696123 8.87158e-05 2.94149e-19)
(-0.000756595 9.06601e-05 5.55499e-19)
(-0.000255877 -0.000378103 7.05457e-20)
(-0.00025769 -0.000370173 -4.40752e-19)
(-0.000271706 -0.000384556 7.43461e-21)
(-0.00118008 -0.000230411 -1.34103e-18)
(-0.00116821 -0.000231447 -8.94668e-19)
(-0.00118004 -0.000219932 1.31786e-18)
(-0.000252062 -0.000387485 2.66124e-19)
(-0.000241041 -0.000372199 -2.44927e-20)
(-0.000675899 -0.000223978 1.64543e-19)
(-0.000685713 -0.000226626 1.37864e-19)
(-0.000679193 -0.000227987 -2.01673e-19)
(-0.000899313 0.000278735 1.62723e-18)
(-0.000842254 0.000212101 1.38685e-18)
(-0.000932024 0.000201686 5.64845e-19)
(0.00762023 -0.00744037 1.92104e-18)
(0.00727729 -0.00734019 -4.35625e-19)
(0.00763962 -0.00686637 -9.94979e-19)
(0.000125611 -0.000661959 2.46462e-18)
(-0.00199417 0.00064503 1.56911e-18)
(-0.00176616 0.000645488 -6.62776e-19)
(-0.00188409 0.00044987 1.01944e-19)
(0.0013123 -4.08022e-05 1.0828e-21)
(0.00132906 -3.54601e-05 -2.03737e-20)
(0.0013083 -2.46785e-05 -6.16631e-21)
(-0.000431283 -0.000262292 1.1128e-18)
(0.000138759 -0.000204954 3.89886e-18)
(-0.00116001 -0.000369584 -3.38759e-19)
(-0.00116987 -0.00039345 2.38084e-18)
(-0.00114185 -0.000378665 -4.64308e-18)
(-0.000601545 -0.000187075 2.54256e-20)
(-0.000589487 -0.000184946 1.06221e-19)
(-0.000594994 -0.000181163 -1.42281e-19)
(0.0102191 -0.0019154 -7.76555e-19)
(0.0103522 -0.00209671 -2.30747e-18)
(0.0106146 -0.00218099 3.0526e-19)
(0.000134505 -0.000430548 3.22417e-20)
(0.000156936 -0.000419526 -3.14149e-21)
(0.000146613 -0.000448922 -5.12162e-20)
(-0.00640357 -0.00158087 1.09951e-18)
(-0.00796993 -0.000944345 -1.98289e-21)
(-0.000703251 -0.000288383 -3.67844e-20)
(-0.000705407 -0.000279192 5.59268e-19)
(-0.000722063 -0.000284374 3.14841e-19)
(0.000160419 -9.02452e-06 2.50761e-20)
(0.000175078 -1.47631e-05 -2.37745e-19)
(0.000149698 -7.30747e-06 6.10993e-19)
(-0.000951488 -0.000223816 -1.23468e-18)
(-0.000940729 -0.000215035 -7.025e-19)
(-0.000418251 -0.000432431 3.10134e-19)
(-0.00038146 -0.000482362 -1.45128e-19)
(-0.000457123 -0.000487216 -2.15767e-19)
(0.000480771 -9.72135e-06 1.42258e-20)
(0.000409602 -7.39119e-06 -1.06262e-19)
(0.000670215 1.38479e-05 -2.558e-19)
(0.000824301 -0.000678108 -3.959e-21)
(0.000867002 -0.000794543 -8.14658e-21)
(0.000741439 -0.000765144 3.2073e-21)
(-0.000888223 -6.0734e-05 -6.57184e-19)
(-0.000882473 -6.94167e-05 6.34657e-20)
(-0.000872982 -6.06873e-05 1.9576e-19)
(-0.000629493 -0.000598825 1.86721e-18)
(-0.00069123 -0.000650662 4.86406e-19)
(-0.000602462 -0.000679201 2.42064e-19)
(-0.000669625 -0.000511881 1.09145e-18)
(-0.000576222 -0.00050866 7.76441e-19)
(-0.0064683 0.000669256 -8.1191e-19)
(-0.005898 0.000660529 -1.51926e-19)
(-0.00659505 0.00101459 -9.22737e-19)
(-0.0007578 -8.94599e-06 2.80122e-19)
(-0.000706098 -2.66934e-05 -7.45678e-19)
(0.00462064 -0.00909836 7.12241e-18)
(0.00295732 -0.00811798 -6.14703e-19)
(0.00467291 -0.00739062 1.11374e-18)
(-0.0022506 -0.00565156 -4.8594e-19)
(-0.00200348 -0.00503492 -7.21243e-18)
(-0.001996 -0.00565252 6.91309e-19)
(0.000125149 -0.000420808 1.91637e-20)
(0.000113258 -0.000446839 6.61248e-21)
(-0.00046575 -0.000174943 2.41226e-19)
(-0.000463466 -0.00016737 8.84036e-19)
(-0.002737 0.000623505 -2.07491e-18)
(-0.00295714 0.000628934 -8.7961e-20)
(-0.00285505 0.000414718 -1.85357e-19)
(0.0092012 -0.000669556 4.97928e-18)
(0.0119566 -0.000996415 3.14969e-18)
(0.00930483 -0.000663683 -5.55102e-18)
(-0.000410086 -0.000258118 -3.23546e-19)
(-0.000396808 -0.000252541 -8.08194e-19)
(-0.000400709 -0.000261632 -3.76439e-19)
(-0.000442592 -0.000255558 -1.88776e-19)
(-0.000428908 -0.000250893 7.56617e-20)
(-0.000436027 -0.000246081 -1.12517e-20)
(-0.00259782 0.000613677 -5.43508e-20)
(-0.00265307 0.000825297 -1.19536e-18)
(0.000776113 -0.00043344 1.6554e-18)
(-0.00119033 -0.00023204 -4.36694e-19)
(-0.00117593 -0.000240501 -7.06759e-19)
(0.00079568 -0.000575929 -1.11316e-20)
(0.000881873 -0.000561389 -1.01472e-20)
(-0.00419663 1.3754e-06 7.17159e-19)
(-0.00704512 0.000152982 -1.53624e-19)
(0.011767 0.0136028 -2.48211e-18)
(0.0113975 0.0144411 -2.2213e-19)
(0.0137533 0.0160661 -3.14526e-18)
(0.000828532 -0.00226366 4.7213e-20)
(0.000492076 -0.00240817 -6.14134e-20)
(0.000498678 -0.00196126 2.75749e-20)
(0.000785061 2.26287e-06 -5.54697e-20)
(0.000823641 1.17029e-05 9.59631e-22)
(0.000907202 1.45013e-05 2.16847e-20)
(-0.000672109 -0.000218655 2.36041e-19)
(-0.000665354 -0.000220909 -2.3919e-19)
(0.0111641 -0.00171514 -3.03357e-18)
(0.0112311 -0.00143064 -3.18736e-18)
(0.011343 -0.00175567 -6.53314e-18)
(0.00400323 -0.00215446 3.9133e-19)
(0.00342758 -0.00157759 2.3547e-19)
(0.00311996 -0.00208859 -4.74808e-20)
(-0.00224218 0.00062795 -1.88355e-19)
(-0.00250275 0.000598885 -1.66993e-19)
(-0.00233653 0.000379385 -1.42704e-18)
(-0.00579642 -0.00197924 2.18859e-19)
(-0.00618552 -0.00275679 8.48089e-20)
(-0.00427776 0.000411386 1.97905e-18)
(0.0105759 -0.00130225 -2.72658e-18)
(0.0100992 -0.00106705 1.11674e-18)
(0.0103536 -0.0010774 -2.50678e-19)
(0.00854065 -0.00216046 -5.5647e-19)
(0.00827087 -0.0016675 2.68096e-18)
(0.00948628 -0.00195296 9.09186e-19)
(0.00993495 -0.00175756 -2.22293e-18)
(0.0101703 -0.00178721 4.37388e-18)
(-0.000499675 -5.35017e-05 -2.397e-19)
(-0.000512655 -5.35951e-05 6.83353e-20)
(-0.000503223 -5.94026e-05 -2.41222e-19)
(0.000759918 -0.000504511 1.71203e-20)
(0.00070871 -0.000577079 1.00598e-20)
(-0.000653668 0.000130201 -1.04551e-18)
(-0.000637235 7.82561e-05 4.16124e-19)
(-0.000673641 -0.000244679 -2.56124e-19)
(-0.000680244 -0.000246713 8.11177e-20)
(-0.000676024 -0.000246075 4.43633e-20)
(-0.000471366 -0.000484419 4.06499e-19)
(-0.000504828 -0.000491066 6.26329e-19)
(-0.000476633 -0.000467819 5.93578e-19)
(0.000733649 -0.000444633 1.95881e-20)
(0.000793736 -0.000415964 7.06198e-21)
(-0.000670622 -0.000241674 1.19405e-19)
(-0.00066538 -0.000242553 -1.63783e-19)
(-0.000606617 -0.000190168 2.91026e-19)
(-0.000611437 -0.000187592 -3.66244e-19)
(-0.000461252 -0.000370661 -4.53825e-19)
(-0.000448891 -0.000373093 7.75925e-19)
(-0.000444289 -0.000360844 1.77503e-19)
(0.0006425 -1.67351e-06 6.70233e-20)
(0.000650654 -1.92161e-06 -1.6554e-20)
(0.00057915 2.98351e-06 1.61631e-20)
(-0.000496233 -4.68199e-05 -7.45543e-20)
(-0.000485753 -5.23481e-05 7.56498e-19)
(0.00883754 -0.00543887 -6.78768e-18)
(0.00717475 -0.00524177 2.1549e-18)
(0.00737229 -0.00558026 6.4198e-20)
(-0.000112639 -5.55441e-05 -4.99418e-19)
(-0.000116496 -6.23527e-05 -8.14556e-20)
(-0.000107018 -6.07727e-05 -3.9092e-19)
(-0.00487105 0.00499458 1.6658e-18)
(-0.00397146 0.00608867 1.77943e-18)
(-0.00491048 0.00525782 -2.01059e-18)
(-0.0011701 -0.000358037 2.50672e-20)
(-0.00114942 -0.000356 -3.46102e-19)
(-0.000103469 -3.15006e-05 1.49478e-19)
(-9.61924e-05 -3.24136e-05 -3.12614e-19)
(-9.49186e-05 -2.36794e-05 -7.73766e-19)
(-0.000460875 -0.000387017 3.92543e-19)
(-0.000397935 -0.000363292 -3.46742e-19)
(0.000688303 8.71676e-07 -3.40024e-20)
(0.000714724 -4.78898e-06 -4.28026e-20)
(0.000747057 -1.61975e-05 3.80392e-20)
(0.000755503 -1.28597e-05 5.79994e-20)
(0.000751131 -2.0895e-05 -7.02608e-20)
(-0.000902203 -6.70724e-05 2.88785e-19)
(-0.00225284 -0.00593155 2.61147e-18)
(-0.00219859 -0.00582203 -1.10832e-18)
(0.000250111 -0.000332408 2.87299e-20)
(0.000254804 -0.00033226 -7.42744e-20)
(0.000260406 -0.000321005 7.65307e-21)
(-0.000519167 -0.000302918 1.49641e-19)
(-0.000508758 -0.000306889 -9.1412e-20)
(-0.000525679 -0.000312179 -5.22327e-20)
(-0.00206804 0.000930511 8.31824e-19)
(0.00967164 -0.0025874 2.99475e-18)
(0.0081016 -0.00262913 -5.25503e-19)
(0.00923528 -0.00122878 2.23457e-21)
(0.000486277 -2.01137e-05 -8.7194e-20)
(0.000477925 -1.95544e-05 -2.47523e-19)
(0.000478415 -1.17141e-05 6.95113e-20)
(-0.000107658 -3.71982e-05 -2.76503e-19)
(-0.000109039 -2.96577e-05 6.95642e-19)
(0.00433428 -0.00227021 1.92151e-18)
(0.00358617 -0.0016593 2.58434e-20)
(0.00438733 -0.00140102 8.88958e-19)
(0.000772651 8.40233e-06 -1.15942e-20)
(0.000772429 5.35385e-06 4.06249e-20)
(0.00059133 5.92307e-06 6.8753e-21)
(0.000785645 8.20229e-06 4.41052e-20)
(0.000870485 -2.84481e-06 -4.43155e-21)
(-0.00047808 -0.000378433 -2.00211e-19)
(-0.000470464 -0.000366049 -5.04639e-19)
(0.00042101 -3.80327e-05 -1.69658e-20)
(0.000414275 -3.68948e-05 4.62521e-21)
(0.000429952 -2.91215e-05 -3.50063e-20)
(-0.000468875 -0.000527541 -3.25141e-19)
(-0.00051172 -0.000501359 -4.28801e-19)
(0.0062762 -0.00219381 -1.08966e-19)
(0.00692223 -0.00283192 5.83965e-19)
(0.0104002 -0.00298856 8.80258e-19)
(0.0105383 -0.00274442 -2.59737e-19)
(0.00998738 -0.00284657 -5.87421e-18)
(0.0103154 -0.00338618 4.20035e-19)
(0.00118449 -0.00199067 -5.30738e-20)
(0.00129203 -0.00246217 -7.6143e-20)
(0.00100129 -0.000800221 1.32621e-20)
(0.000895365 -0.000944376 -1.3223e-20)
(0.00762767 -0.00749813 5.89109e-19)
(0.00729617 -0.00786629 1.80147e-18)
(-0.000232026 -1.84673e-06 2.28965e-18)
(-0.00023324 -1.74251e-06 1.10132e-18)
(0.01053 -0.00229297 -5.1683e-18)
(0.0101243 -0.00204442 -2.78606e-18)
(-0.00157872 0.000619163 -1.80497e-18)
(-0.00160256 0.000844576 -5.34766e-20)
(0.0111371 -0.00210155 4.38644e-18)
(0.0107256 -0.00175428 1.06158e-17)
(-0.000684824 -0.000248453 1.26427e-19)
(-0.000688874 -0.000249216 -8.52029e-20)
(-0.000681787 -0.000248513 4.55348e-19)
(-0.000538441 -1.01216e-05 -1.3029e-18)
(-0.000506541 -0.000117852 9.26177e-19)
(0.000847599 -6.43469e-06 4.76124e-20)
(0.000864489 -9.05921e-06 -2.80539e-20)
(0.000849669 -6.05088e-06 8.19924e-22)
(0.000419117 -0.00122397 -3.35595e-19)
(0.000319847 -0.00141339 7.92024e-19)
(0.00027356 -0.00120313 3.63781e-18)
(-0.000456202 -1.18394e-05 1.13989e-18)
(-0.000461026 -1.81819e-05 -1.48453e-19)
(-0.000448447 -1.62479e-05 9.75926e-19)
(0.000646041 -8.54708e-06 3.80283e-20)
(0.000632718 -5.08097e-07 2.71629e-19)
(0.000631826 -0.000450927 1.62345e-20)
(0.000588365 -0.000441063 -2.80649e-20)
(0.000622572 -0.000403431 7.9713e-23)
(-0.00279674 0.00050265 1.77817e-19)
(-0.00264925 0.000905051 4.91632e-19)
(-0.00120229 0.000501724 1.54708e-19)
(-0.00130283 0.000528772 3.05609e-18)
(-0.00126222 0.000410605 -2.47481e-18)
(0.0134952 -0.00133096 -9.90295e-19)
(0.0138966 -0.00149578 -1.12527e-18)
(0.0133468 -0.00133335 -3.9107e-18)
(0.00956288 -0.00530392 1.23018e-18)
(0.0098123 -0.005533 -4.10282e-18)
(-0.000668639 -0.000214012 8.61836e-20)
(-0.000665122 -0.000208859 -3.75181e-19)
(-0.000658173 -0.000210945 5.78694e-22)
(-0.000667007 0.000201789 -1.0367e-18)
(-0.000596707 0.000170448 6.62466e-19)
(5.2415e-05 -0.000320251 1.10051e-19)
(6.29925e-05 -0.000318719 -6.9564e-20)
(6.4811e-05 -0.00031183 -1.99869e-19)
(-0.00111991 0.00044455 7.10702e-20)
(-0.00112751 0.000562722 -1.49965e-19)
(-0.00110153 -0.000188891 -1.33967e-19)
(-0.00110457 -0.000194329 1.85479e-19)
(-0.0011116 -0.000190589 -6.91656e-19)
(-0.00485978 -0.00458211 -1.65973e-19)
(-0.00423149 -0.00414561 -1.03209e-19)
(-0.00538905 -0.00432067 1.00712e-19)
(0.0159813 -0.00257106 1.19083e-18)
(0.0161555 -0.00239186 -1.76413e-18)
(0.0160694 -0.00269828 2.5068e-18)
(-0.000689362 -0.000247831 -2.64468e-19)
(-0.000681879 -0.000248173 -6.35586e-20)
(-0.00109917 -0.00046468 2.88048e-19)
(-0.00105698 -0.000464311 -3.15709e-18)
(-0.0010889 -0.000509762 -1.31957e-18)
(0.0066884 -0.00750046 -5.09433e-19)
(0.00805891 -0.0069784 -9.62894e-19)
(0.00625185 0.0119552 -3.0586e-19)
(0.00730981 0.0111597 8.15618e-19)
(0.00522168 0.00921683 3.43691e-19)
(0.0151302 -0.000970862 9.06361e-19)
(0.0151372 -0.000940453 -2.19179e-18)
(0.0155117 -0.00100375 -1.53446e-18)
(-0.00105728 0.000416622 8.13252e-19)
(-0.000958563 0.000346593 -1.0197e-18)
(-0.00108258 0.0003177 -1.05422e-18)
(0.000169413 -9.39201e-06 -4.53119e-19)
(0.00468297 0.00435678 3.00952e-19)
(0.00576858 0.00385527 -6.29389e-19)
(0.00536513 0.00346322 3.49741e-19)
(0.000678833 -0.00045142 -1.16104e-21)
(0.000703243 -0.000396609 -2.05469e-21)
(0.00712876 -0.00203119 2.02282e-18)
(0.000317538 -0.00188744 -2.04331e-20)
(-0.00012538 -0.000253066 -9.13423e-19)
(-0.000113705 -0.000248088 -2.75413e-19)
(-0.000121103 -0.000259646 -1.53267e-19)
(-0.000461436 -5.98655e-05 -6.10375e-19)
(-0.000472755 -6.15565e-05 -1.23872e-19)
(-0.000466053 -6.64144e-05 -1.17493e-18)
(0.00235671 -0.00150105 -1.64516e-19)
(0.0024635 -0.000986087 -2.87722e-21)
(0.0020421 -0.00119361 5.76283e-20)
(0.0076083 -0.0022777 -7.0146e-19)
(0.00902138 -0.0026927 -8.38036e-19)
(0.00274518 0.00186734 -1.22657e-19)
(0.00186803 -0.00797597 -4.70358e-18)
(0.000978759 -0.00746031 2.16138e-18)
(0.00176737 -0.00847115 1.78911e-18)
(-0.000420472 -0.000254811 2.90094e-20)
(-0.000425199 -0.000263575 3.98442e-19)
(-0.000499423 -0.000356184 6.38127e-20)
(-0.000529559 -0.000328326 -4.16003e-19)
(-0.00048847 -0.000300694 -7.36166e-19)
(0.000784565 1.8062e-06 -6.48059e-20)
(0.000812627 4.27367e-06 9.94036e-20)
(0.000912072 7.85979e-06 3.3267e-20)
(-0.000450379 -5.85213e-05 8.49607e-20)
(-0.00045659 -5.35069e-05 -2.20318e-19)
(0.00974573 -0.00386229 -4.98891e-19)
(0.0108087 -0.00257955 2.45949e-18)
(-0.000245738 -0.000475957 -5.82115e-20)
(-0.000265558 -0.000492102 -1.5156e-19)
(-0.00024474 -0.000491284 -2.10187e-20)
(0.000428448 -3.90802e-05 7.78373e-20)
(0.000419125 -4.56362e-05 -8.59386e-21)
(0.0162649 -0.00181024 -2.41422e-18)
(0.0163081 -0.00152505 -1.23155e-19)
(0.0163814 -0.00169388 -2.068e-18)
(0.00077502 9.38729e-07 7.37165e-21)
(0.000777215 1.74925e-07 -2.6744e-20)
(0.000608818 6.84109e-07 5.3501e-21)
(0.000837877 -4.22377e-06 2.4997e-20)
(0.000800805 -3.92857e-06 -4.43383e-21)
(-0.000115309 -0.000140054 -1.58173e-19)
(-0.000123513 -0.00014733 -3.42375e-19)
(-0.000111902 -0.000146879 -1.9635e-20)
(0.0142487 0.00270375 -4.41964e-19)
(0.0139943 0.00234694 3.5011e-18)
(0.0141714 0.0022401 -1.94202e-18)
(-0.000885931 -0.000365953 4.438e-19)
(-0.000856708 -0.000346531 6.96669e-19)
(-0.000849792 -0.000376456 5.68557e-19)
(0.00392331 0.00519536 -2.35229e-19)
(0.0159039 0.0103049 1.77555e-18)
(0.0168413 0.00881613 2.22206e-18)
(0.0152242 0.00881459 -3.91104e-18)
(0.00489624 -0.00276359 -2.34601e-18)
(0.00421767 -0.00280123 -7.12885e-19)
(0.00475054 -0.00188447 -4.96777e-19)
(0.00902752 -0.000674567 2.86257e-18)
(0.0170974 0.00776756 -6.48221e-18)
(0.0202985 0.0101029 -3.12862e-18)
(0.0185298 0.0104723 -4.34509e-19)
(0.00107547 2.00825e-05 -2.33728e-20)
(0.00107876 2.1178e-05 3.71732e-21)
(0.00107549 2.29111e-05 -1.42859e-20)
(-0.00116356 0.000482486 1.05657e-18)
(-0.00101555 0.00053886 1.10549e-18)
(-0.000261454 -0.000397003 3.08878e-19)
(-0.000270867 -0.000405494 -2.32731e-19)
(-0.000280458 -0.000401189 -3.06297e-19)
(0.0151221 -0.00434815 -2.27193e-18)
(0.0152311 -0.00418147 -2.1933e-21)
(0.0153799 -0.00407502 -3.58536e-18)
(-0.000958832 -7.55404e-05 2.50129e-19)
(0.00507359 0.0098453 6.79229e-19)
(0.00898007 0.0118356 8.96482e-19)
(0.00578706 0.0096779 2.03189e-18)
(-0.00196065 -0.000842443 -3.3906e-19)
(-0.00191939 -0.000760169 -1.0873e-19)
(-0.00202885 -0.000751538 3.0785e-19)
(0.000778535 3.36003e-06 -2.04357e-20)
(0.000872366 3.64872e-06 5.67222e-21)
(0.000757835 4.75061e-06 4.69253e-20)
(-0.00063307 -0.000135886 -6.44907e-20)
(-0.000620262 -0.000132117 2.04311e-19)
(-0.00316387 0.000657027 -8.42782e-19)
(-0.00353104 0.000685075 8.8955e-19)
(-0.00328715 0.000443459 -7.30857e-19)
(-0.00109775 -0.00018171 -1.72846e-19)
(-0.00109022 -0.000186116 5.53147e-19)
(-0.000919595 -0.000348926 1.68771e-19)
(-0.000912723 -0.000388236 -1.90915e-20)
(-0.000870729 -7.27061e-05 -1.22559e-19)
(-0.000858849 -7.35246e-05 -8.59682e-20)
(-0.000866934 -8.20787e-05 -2.5388e-19)
(-0.000242626 -0.000392611 1.81424e-19)
(-0.000460941 -0.00017805 -2.6765e-21)
(-0.000471034 -0.000180762 5.07621e-19)
(-0.00209089 0.00254752 -3.96006e-18)
(-0.00207437 0.00241702 -2.15355e-19)
(-0.00177292 0.00276433 -6.67844e-19)
(0.000514033 -0.00104967 7.6614e-19)
(0.000590017 -0.0012635 -2.33555e-18)
(-0.00445257 -0.00491705 -1.46933e-19)
(-0.00279917 -0.00540915 1.06236e-19)
(-0.000450807 -0.000173513 -4.87253e-20)
(-0.000453305 -0.000180624 -2.8273e-19)
(-0.00284178 0.0028517 -2.73161e-18)
(-0.00235409 0.00233274 -1.14151e-18)
(0.00130911 -5.6353e-05 3.70576e-20)
(0.0012915 -4.22761e-05 -8.37855e-20)
(-0.00413185 0.00405279 -8.22609e-19)
(-0.00297666 0.00448028 2.7986e-20)
(-0.0019468 -0.000943568 -4.17292e-19)
(-0.0020652 -0.000903923 8.84327e-21)
(-0.000709352 -0.00044931 -5.47406e-18)
(-0.000759348 -0.000507677 2.76947e-19)
(-0.00174075 0.00181381 -2.86113e-18)
(-0.00157772 0.00163819 -8.87464e-19)
(-0.00181128 0.00162025 -1.05175e-18)
(0.00774399 -0.00106012 3.61764e-18)
(0.00802619 -0.00123183 1.90163e-18)
(0.00752722 -0.00110679 5.98163e-18)
(0.000239153 -0.000344586 -3.23656e-20)
(0.000246105 -0.000332466 7.45339e-20)
(0.012925 -0.00130402 4.34189e-18)
(0.013471 -0.00154328 2.50464e-18)
(0.0131333 -0.00132628 -3.87582e-19)
(-0.000778728 -0.000294966 3.16688e-20)
(-0.000776413 -0.000301613 -6.24476e-21)
(-0.000768266 -0.000292423 1.56733e-20)
(0.0157481 -0.00281354 1.19376e-18)
(0.0158873 -0.00247402 -3.47421e-19)
(0.000181855 -0.000409344 1.2129e-20)
(0.00017704 -0.000396312 1.34102e-19)
(-0.000227004 -0.000460848 2.77588e-21)
(-0.000245695 -0.000461318 -1.13166e-19)
(-0.000751899 -8.33651e-05 6.65927e-20)
(-0.000722166 -9.76115e-05 8.64248e-20)
(-0.000741492 -0.000118786 4.21476e-19)
(0.00955354 -0.000984787 -3.01267e-18)
(0.00987548 -0.00103525 5.9803e-18)
(0.0100396 -0.00121081 -1.2619e-18)
(0.0150527 -0.000995299 3.23599e-18)
(0.0141001 -0.000878702 4.35456e-19)
(-0.000668651 -0.000330019 2.71431e-19)
(-0.000687347 -0.000330389 2.1256e-19)
(-0.00067881 -0.000342257 -8.39934e-20)
(0.00694378 -0.00796324 1.94241e-18)
(0.00626031 -0.00787582 -1.14742e-18)
(0.00693609 -0.00794109 -3.00465e-19)
(-0.00151103 -0.00014608 4.96951e-19)
(-0.00153532 -0.000263659 5.56904e-21)
(-0.00142463 -0.000209158 2.70493e-19)
(-0.000516926 -0.000403368 5.57497e-19)
(0.000635292 -0.000512014 2.8599e-20)
(-0.00304647 0.000869198 5.69003e-19)
(-0.0004349 -0.000374274 -2.92642e-19)
(-0.000450821 -0.000383361 1.02233e-18)
(0.000161381 -0.000243999 1.18091e-19)
(0.000170608 -0.00023439 -4.92187e-19)
(0.000172821 -0.000241802 -1.49019e-19)
(-0.00135803 -0.000559475 3.30434e-19)
(-0.00124399 -0.000651587 -3.10267e-20)
(-0.00118245 -0.000531208 -2.64509e-19)
(-0.00142968 -0.000592783 -1.38721e-20)
(-0.00138693 -0.000426068 -7.45793e-19)
(0.0053191 -0.00600516 2.97312e-18)
(-0.00111196 -0.000436111 3.72953e-18)
(-0.001132 -0.000463874 1.50755e-18)
(-0.000853256 0.000366496 -4.15187e-19)
(0.0116155 -0.000847419 -4.11892e-18)
(0.011821 -0.00064475 2.94956e-18)
(0.01191 -0.000502244 1.73484e-18)
(6.64045e-05 -2.31094e-05 -4.4112e-20)
(6.57054e-05 -1.62853e-05 -1.00593e-19)
(5.03244e-05 -2.77321e-05 4.28e-19)
(0.000691391 -0.000175583 -5.01375e-20)
(0.000682126 -0.000177673 1.39014e-20)
(0.000690627 -0.000168341 1.22526e-20)
(0.000692504 -0.000182758 -1.4298e-20)
(0.000700914 -0.000173082 -2.1677e-20)
(0.0155391 0.00489008 4.4295e-18)
(-0.00214526 0.00228012 1.50665e-18)
(-0.00192796 0.00201252 -3.60677e-18)
(-0.00228122 0.00202241 1.30013e-18)
(-0.00360379 0.00310089 -9.74175e-19)
(-0.00416897 0.00331643 -2.30559e-19)
(-0.00389512 0.00283304 8.46492e-19)
(-0.0002291 -2.4868e-05 1.88692e-19)
(-0.000233782 -2.80258e-05 -1.95288e-18)
(-0.00023362 -2.36181e-05 -7.96771e-19)
(0.000749417 1.40607e-06 -8.00228e-21)
(0.000576533 -1.0981e-06 8.86842e-20)
(0.00489909 -0.00801556 -2.0501e-18)
(0.00536425 -0.00759181 8.00029e-19)
(0.0126452 -0.00130685 1.92437e-20)
(0.000703479 -0.000147267 -1.20616e-20)
(0.000701467 -0.00015273 -1.94413e-20)
(0.000694755 -0.000151241 -8.2498e-21)
(0.00070416 -0.00014051 -6.13489e-20)
(0.000711966 -0.000142352 -1.69834e-20)
(0.000631722 -1.91541e-05 8.34352e-21)
(0.000363441 -3.3663e-06 -1.58677e-19)
(0.000692832 -0.000191276 2.06948e-20)
(0.000681708 -0.000193253 1.12806e-20)
(0.000694657 -0.000201316 -7.97364e-21)
(0.000703597 -0.000189562 -8.62077e-21)
(0.00968986 -0.00153713 -3.73778e-18)
(0.00969793 -0.00162715 -9.81853e-20)
(0.00912842 -0.00425381 -1.90564e-18)
(0.0104921 -0.00347816 -4.22531e-18)
(0.0132028 -0.00229204 -2.29893e-18)
(-0.000350085 -0.000371622 9.76901e-19)
(-0.000335925 -0.000364855 -6.38893e-19)
(-0.000347361 -0.00036385 3.1483e-19)
(0.00111557 2.35867e-05 8.76697e-21)
(0.0011235 2.29086e-05 -8.23728e-21)
(0.00111718 1.94627e-05 2.44245e-21)
(-0.0018426 4.53958e-07 1.44092e-18)
(-0.00190067 -8.38816e-05 -7.25317e-20)
(-0.001807 -8.11697e-05 1.80361e-18)
(0.0112013 -0.00189989 -6.92624e-19)
(0.0108258 -0.00166595 -2.63305e-19)
(0.0109615 -0.0018746 -3.01132e-18)
(0.000784311 -1.65997e-06 -2.52044e-20)
(0.000716767 3.26009e-06 -1.62466e-19)
(0.000720689 2.41066e-06 -2.10418e-20)
(-0.0002252 -2.64872e-05 9.04955e-19)
(-0.000225165 -2.24239e-05 3.97201e-19)
(0.00711733 -0.00765373 -3.93678e-19)
(0.00721915 -0.00800648 -1.49187e-18)
(0.00744331 -0.00172721 5.56181e-19)
(0.00807879 -0.00135551 -2.3206e-19)
(0.00127323 -0.00114041 5.19653e-19)
(-0.00186831 0.00242431 1.08305e-18)
(0.0114865 -0.00102795 -8.26641e-18)
(0.011219 -0.00115618 2.32478e-18)
(-0.00279601 -0.000860817 1.58379e-19)
(-0.00276672 -0.00105109 2.78828e-19)
(-0.00297171 -0.000982571 1.088e-19)
(-0.000128727 -0.000247585 2.603e-21)
(-0.000136177 -0.000258074 4.04022e-19)
(0.0202995 0.00920322 1.53137e-18)
(0.0205464 0.0111719 2.55919e-18)
(-0.00178834 7.80196e-05 8.04809e-19)
(-0.00189543 9.01178e-05 -1.94936e-18)
(-0.00141438 0.000585597 -8.05203e-19)
(-0.00155313 0.000458032 -9.15762e-20)
(-0.00100505 -0.000109189 -1.03474e-18)
(-0.000976078 -8.0765e-05 2.94876e-19)
(-0.000962561 -0.000130816 1.08101e-18)
(-0.000649937 -0.000329808 4.23289e-19)
(-0.000658063 -0.000319567 2.35304e-19)
(0.0085384 -0.00449757 4.26527e-18)
(-0.000466291 -2.34011e-05 -2.77283e-19)
(-0.000459496 -2.68704e-05 4.96938e-19)
(-0.00047082 -2.91249e-05 -3.25057e-19)
(-0.00092348 -0.000729221 6.41687e-20)
(-0.000933428 -0.000766345 -2.69062e-20)
(-0.00097256 -0.000739057 -2.03606e-20)
(-0.00182058 -0.0007265 -2.37841e-19)
(-0.00172971 -0.000672626 -6.61613e-19)
(-0.00173931 -0.000767854 -6.47697e-20)
(-0.000356261 -0.000387011 -2.4482e-19)
(-0.000352404 -0.000377987 1.84873e-19)
(-0.000342427 -0.000380969 -3.35646e-19)
(0.000415246 4.01759e-06 1.84983e-19)
(-0.00067911 -0.000217011 1.84437e-19)
(-0.00060314 -0.000843819 -1.47714e-19)
(-0.000526898 -0.000798417 3.57356e-19)
(-0.00052377 -0.00088413 6.3806e-20)
(0.000262924 -0.000308608 -3.83525e-20)
(0.000268702 -0.000326725 -2.22408e-20)
(0.000272154 -0.000310177 4.81194e-21)
(0.0143297 -0.0019278 4.2276e-18)
(0.0139132 -0.00173249 1.51523e-19)
(0.014119 -0.00170706 2.63157e-19)
(0.000471195 0.00110041 -6.53801e-19)
(0.000833118 0.00177573 -1.86543e-18)
(0.000273786 0.000292988 -2.36459e-18)
(0.000400149 -0.000492453 8.95351e-21)
(0.000385813 -0.000461964 5.03731e-21)
(0.000432384 -0.000457717 7.56969e-21)
(0.000698822 -0.000136294 4.29576e-20)
(0.000706179 -0.000131044 1.35542e-19)
(-0.000287061 -0.000490846 9.46091e-20)
(-0.000287241 -0.000507814 -2.19603e-19)
(0.000691475 -0.00014126 -4.60374e-21)
(0.000694505 -0.000132479 -9.10122e-20)
(-0.000474607 -1.93715e-05 -6.02408e-19)
(-0.000190821 -5.55232e-06 -4.77588e-19)
(-0.000143867 -3.31834e-06 -6.3174e-19)
(-0.00111004 -0.000369453 6.82125e-19)
(-0.0011312 -0.000368538 -2.24731e-19)
(-0.00112482 -0.000386921 8.93184e-19)
(0.00041626 -0.00053113 -4.58908e-21)
(0.000359391 -0.000536388 -9.81993e-22)
(0.0153617 -0.000823326 -5.04957e-18)
(0.0155493 -0.000791351 7.57801e-19)
(0.011157 -0.00271673 -6.98312e-18)
(0.0109506 -0.00220707 6.32356e-18)
(-0.000378849 -0.0001747 -8.10113e-20)
(-0.000374842 -0.000167214 2.08771e-19)
(-0.000366442 -0.000171494 -1.49846e-19)
(-0.000452096 -0.000661738 -2.6868e-19)
(-0.000510977 -0.000677942 -1.49988e-19)
(-0.000495509 -0.000634648 -3.07978e-20)
(-0.00128144 -0.000165708 1.30478e-19)
(-0.00184952 -0.000694017 -1.87e-19)
(0.00215304 -0.00056313 -3.08947e-19)
(0.000856338 -0.000191979 -2.19736e-20)
(0.0008675 -0.000195415 -1.5719e-20)
(0.000862567 -0.000180688 4.80866e-21)
(0.00274942 -0.000929902 2.18747e-19)
(0.00290005 -0.00132294 -6.85135e-19)
(0.00240009 -0.00126948 1.0324e-18)
(0.0145288 -0.0021628 -1.77266e-18)
(0.0147294 -0.00209866 3.32422e-18)
(0.000846227 -0.000187954 1.27308e-21)
(0.000848262 -0.000204375 -2.75647e-20)
(0.010706 -0.00149493 1.25794e-18)
(0.010942 -0.0015105 4.15824e-18)
(0.000257974 -0.000296268 1.33798e-20)
(0.000260252 -0.000309684 3.76928e-20)
(0.0142364 0.00323667 -9.55225e-18)
(0.0144082 0.00328318 -1.708e-18)
(0.000777112 2.79445e-06 7.41563e-20)
(0.000597934 2.48403e-06 -1.31253e-21)
(-0.000573993 -0.000618554 -1.80057e-19)
(-0.000543995 -0.000600388 7.85387e-19)
(-0.000564044 -0.000584835 -1.0528e-19)
(-0.000362136 -0.000392706 5.58181e-20)
(-0.000369935 -0.00039063 1.6019e-19)
(-9.18004e-05 -0.000264533 -2.56855e-19)
(-7.92003e-05 -0.000262587 -1.92464e-19)
(-8.07123e-05 -0.000255731 -2.07309e-19)
(-7.0922e-05 0.00116727 -4.44651e-20)
(-0.000150138 0.000991561 5.92743e-19)
(7.43145e-05 0.000989194 -1.269e-18)
(0.000253365 -2.29614e-05 -4.03881e-19)
(0.000243464 -2.1867e-05 -1.57011e-19)
(0.000255623 -1.28182e-05 -4.9177e-19)
(0.0057178 -0.00266695 -4.27411e-19)
(0.0051182 -0.00377729 -1.3487e-18)
(-0.000757721 -0.00035546 -8.84839e-20)
(-0.000746972 -0.000362816 -9.97413e-20)
(-0.00074619 -0.000345715 5.86043e-20)
(0.00220324 -0.00195097 -6.49622e-20)
(0.00276502 -0.00181427 1.21811e-20)
(0.00476836 -0.00773873 1.85659e-18)
(0.00515394 -0.00774239 -6.08669e-19)
(0.00336615 -0.00750546 -2.71213e-19)
(0.0150868 -0.00083525 -2.63175e-18)
(0.00081745 -6.13586e-06 4.2197e-21)
(0.000821749 -4.55337e-06 6.30147e-20)
(-0.00132093 -0.000228386 -1.84607e-19)
(-0.00132233 -0.000203469 -1.47515e-18)
(-0.00129421 -0.000214907 -8.17486e-19)
(-0.000718621 -0.000732011 1.51593e-19)
(-0.00066984 -0.000793094 -6.10744e-19)
(-0.000642724 -0.000707023 -5.35984e-19)
(-0.00069373 -0.000246582 -2.90986e-19)
(-0.000699449 -0.000244489 -2.64134e-19)
(-0.000692531 -0.000246938 2.16638e-19)
(-0.000770529 -0.000651796 5.39835e-19)
(-0.000714015 -0.00059503 -4.64372e-19)
(-0.000667848 -0.000239486 4.10662e-19)
(-0.000675783 -0.000241916 4.78993e-20)
(0.000257438 -0.00032988 -8.95709e-20)
(0.00025959 -0.000326015 2.79741e-20)
(0.000262916 -0.000318366 -9.05329e-21)
(0.00025012 -3.15898e-05 1.13984e-20)
(0.0002658 -2.23954e-05 1.85173e-19)
(-0.00355587 -3.23633e-05 1.03119e-18)
(-0.00386775 0.000184313 -3.98844e-19)
(-0.00339759 0.00020558 -5.07679e-19)
(0.00119341 0.00156087 2.01625e-19)
(0.00118687 0.00214845 2.72204e-19)
(0.000586024 0.00171879 7.27607e-19)
(-0.000927729 -0.000680615 9.58489e-20)
(-0.000881616 -0.000703092 6.40374e-20)
(-0.000665517 -0.000236171 1.25575e-19)
(-0.000659524 -0.000237048 2.15097e-19)
(-0.000221769 -2.71509e-05 5.11225e-19)
(-0.000218196 -2.4091e-05 -3.43556e-19)
(-0.000217653 -2.76807e-05 -3.01432e-19)
(0.0162189 -0.00209188 -2.0285e-18)
(0.0161684 -0.0019394 7.40051e-19)
(0.00915133 -0.000896998 -6.46236e-18)
(0.00845325 -0.000708939 -1.16985e-17)
(9.58718e-05 -0.000314651 7.52997e-20)
(0.000107648 -0.000313449 2.50747e-19)
(0.000109018 -0.000305243 6.56448e-20)