/*--------------------------------*- C++ -*----------------------------------*\
| =========                 |                                                 |
| \\      /  F ield         | OpenFOAM: The Open Source CFD Toolbox           |
|  \\    /   O peration     | Version:  v2012                                 |
|   \\  /    A nd           | Website:  www.openfoam.com                      |
|    \\/     M anipulation  |                                                 |
\*---------------------------------------------------------------------------*/
FoamFile
{
    version     2.0;
    format      ascii;
    class       volScalarField;
    location    "750";
    object      k_0;
}
// * * * * * * * * * * * * * * * * * * * * * * * * * * * * * * * * * * * * * //

dimensions      [0 2 -2 0 0 0 0];


internalField   nonuniform List<scalar> 
13917
(
0.0123953
0.000166424
0.000189773
0.000148444
0.000158387
0.000165707
0.000154729
0.000192295
0.000153255
0.00168673
0.000179099
0.00014679
0.000166488
0.0268948
0.000157129
0.0103972
0.000179423
0.000176702
0.000180854
0.0096735
0.000161855
0.000147297
0.000165514
0.000147315
0.000150681
0.000163641
0.0170578
0.00117998
0.000170471
0.000147637
0.00140501
0.000172063
0.000148517
0.0209227
0.000147743
0.000139668
0.00015197
0.000190363
0.000154843
0.000164615
0.000171876
0.000151587
0.000151531
0.000179721
0.000179537
7.86551e-05
0.000160614
0.0163994
0.0225748
0.000147767
0.000146622
0.000182605
0.00604444
0.000146627
0.000146949
0.000182343
0.000337932
0.000165443
0.000151157
0.000207511
0.0276771
0.000163674
0.000149085
0.000150356
0.0171447
0.000156271
0.000172488
0.000138641
0.000177285
0.0121591
0.00633027
0.019441
0.000146379
0.000150264
0.000162656
0.000151462
0.000153319
0.000149881
0.000151137
0.000148726
0.000148653
0.000179882
0.000146257
0.00518791
0.000142388
7.05076e-05
0.000171489
0.000146827
0.000164196
0.000175535
0.000146791
0.000151785
0.0225262
0.00014658
0.000148474
0.000172245
0.0107801
0.000176719
0.00014585
0.000188313
0.000159333
0.000158013
0.000148761
0.000152292
0.000153172
0.00350684
0.0167425
0.000163767
0.000152464
0.0213398
0.000145047
0.0215758
0.000170224
0.0159023
0.0165786
0.000152114
0.000179869
0.000153375
0.000186749
0.000145748
0.000173458
0.00014838
0.000174165
0.000178465
0.0136005
0.00884745
0.000150018
0.000163873
0.000145382
0.00017871
0.000158636
0.000144764
0.0273463
0.000152064
0.000174675
0.0236301
0.031447
0.0144152
0.000165356
0.000189827
0.0192364
0.00014913
0.00281979
0.000143856
0.000145893
0.000159029
0.00610725
0.0150604
0.0145788
0.000146826
0.000162371
0.000155158
0.000145735
0.000145797
0.0157249
0.000149577
0.000151448
0.0286487
0.000170698
0.00015964
0.000142513
0.0211176
0.000154744
0.0184489
0.0168007
7.99562e-05
0.00584569
0.021996
0.000135945
0.000166813
0.000147834
0.0263362
0.000153188
0.02074
0.000175022
0.000163158
0.000148443
0.000184014
0.000158198
0.000155387
0.000151402
0.000147485
0.000146631
0.000195307
0.000187066
0.000118676
0.000146485
0.000200716
0.000147599
0.000185187
0.000175267
0.000178437
0.000184886
0.0124647
0.000146515
0.0137661
0.000154189
0.0258051
0.000147594
0.000149012
0.000158695
0.011992
0.0127802
0.000151336
0.0149264
0.000163537
0.000162807
0.000149016
0.000183885
0.000148654
0.000142588
0.000162331
0.00016256
0.0155801
0.000174254
0.000164842
0.0227153
0.000161906
0.000142835
0.000142797
0.0224613
0.000186147
0.000134229
0.000143733
0.000149031
0.0272833
0.0120363
0.000141367
0.000140969
0.000172201
0.000143513
0.000143478
0.0182447
0.0132185
0.000147702
0.000137906
0.000175567
0.0182881
0.000175589
0.000143724
0.0172445
0.00314224
0.000186557
0.0228971
0.00018031
0.000143888
0.0175273
0.000176232
0.000168695
0.000174725
0.000150935
0.0131141
0.000145855
0.000165422
0.000173448
0.000148076
0.000170891
0.000150287
0.000156694
0.000148549
0.0179654
0.0223554
0.000147911
0.000140404
0.00014989
0.000140483
0.00014588
0.00016748
0.000161934
0.000148481
0.0176254
0.0177644
0.000145235
0.000154215
0.00114739
0.00014391
0.000182744
0.0202536
0.000143905
0.0148522
0.000148201
0.0208414
0.000162976
0.000155219
0.000148318
0.000143827
0.00018486
0.000172176
0.000654464
0.00015673
0.0207802
0.000160766
0.00711128
0.0142225
0.000160038
0.000168566
0.000157272
0.000152571
0.00015784
0.000151032
0.000147078
0.000162481
0.000183795
0.000165142
0.000164825
0.000150786
0.000143623
0.027857
0.0103929
0.00014505
0.000164618
0.000152609
0.00344759
0.000181669
0.0192026
0.0194752
0.000158054
0.00019251
0.000153697
0.00360902
0.00496106
0.000189899
0.000165757
0.000156734
0.0148478
0.000148684
0.000167907
0.000178239
0.000177701
0.0260598
0.000142847
0.000162715
0.000148369
0.00497858
0.000140379
0.000163446
0.000164145
0.000159062
0.000171717
0.000174612
0.00215991
0.000148171
0.000148705
0.0230104
0.00233553
0.0190159
0.0266919
0.000143216
0.000147508
0.003559
0.000189366
0.000143221
0.000157886
0.000146564
0.000173433
0.000163991
0.000181688
0.000180128
0.000182446
0.000162616
0.0180154
0.000145645
0.000148177
0.000160032
0.000186633
0.00017808
0.0111526
0.000162424
0.0055437
0.000147145
0.000184253
0.000163478
0.0218525
0.000151858
0.000145625
0.00111915
0.000165973
0.00014542
0.000350936
0.000149686
0.0169822
0.000185809
0.000151977
0.0214991
0.000149332
0.000605235
0.000143169
0.0103037
0.00165123
0.000151183
0.028523
0.000180382
0.000150287
0.0201161
0.000189807
0.000150473
0.000185361
0.000147101
0.000180946
0.00018931
0.000143085
0.000154047
0.000150717
0.000143515
0.000141124
0.000145842
0.0352373
9.92565e-05
0.000147622
0.000146276
0.00014671
0.000168334
2.57409e-06
0.000146142
0.000136049
0.000181311
0.000184156
0.00014407
0.000150934
0.0197516
0.02635
0.000142879
0.000181631
0.000733635
0.000148194
0.000145346
0.000159548
0.000141023
0.000146144
0.00014793
0.000145375
0.000147886
0.0163242
0.000147289
0.000165982
0.0192311
0.000168468
0.000142828
0.000145598
0.0202846
0.000158923
0.0117461
0.000147656
0.00014372
0.000150129
0.000144208
0.000151738
0.00014982
0.0195932
0.000160951
0.00398252
0.000143683
0.000160317
0.000161038
0.000148475
0.000179742
0.01926
0.000146386
0.0290345
0.00014309
0.00014537
0.000146494
0.000149348
0.000142051
0.000152599
0.02813
0.0226249
0.000141851
0.00880212
0.000181105
0.000148217
0.0001703
0.000172896
0.0193067
0.000154816
0.00341901
0.00633219
0.00553051
0.000149825
0.000158114
0.000160644
0.000150656
0.0098722
0.000149955
0.000146389
0.000148469
0.00015366
0.000161142
0.000185529
0.000168484
0.000156626
0.000155273
0.000176263
0.000171823
0.000147623
0.0262504
0.000161394
0.000156672
0.0177141
0.000142464
0.000172614
0.000184796
0.000140471
0.0289652
0.000146513
0.000144229
0.000168883
0.000147615
0.000157266
0.000183766
0.0298247
0.0300978
0.000142443
0.000148967
0.000154179
0.00755377
0.01283
0.000147286
0.000146794
0.000142255
0.000171846
0.0158298
0.000145988
0.00017573
0.000148756
0.00014324
0.000155306
0.000156594
0.000156477
0.000168938
0.000140492
0.000146824
0.000150487
0.0197718
0.000138557
0.000151281
0.000148482
0.00015977
0.000173253
0.000174903
0.00017422
0.000192785
0.000150004
0.000174571
0.0242765
0.015105
0.0217513
0.000144719
0.000146347
0.000158283
0.00014442
0.0171246
0.000144655
0.0174948
0.000154136
0.0190364
0.000184578
0.00015158
0.00645837
0.000141861
0.00017055
0.000170866
0.000151474
0.0214327
0.000146906
0.000188731
0.000151571
0.000155101
0.000146565
0.000185084
0.000155598
0.00013899
0.000179773
0.000169888
0.0154464
0.0019099
0.0274636
0.0185701
0.000138615
0.0125363
0.000148189
0.0284587
0.0162175
0.000152333
0.000164422
0.000158095
0.000161119
0.000151116
0.000146908
0.000170667
0.000166547
0.000720833
0.000142826
0.000170275
0.000146194
0.000138732
0.000170787
0.000182381
0.0150513
0.00765952
0.000173788
0.000156389
6.85162e-05
0.0192167
0.000143606
0.0155826
0.000164465
0.000177554
0.000144408
0.000360723
0.000143062
0.000155657
0.000146036
0.0154447
0.000161934
0.0200317
0.000154832
0.00016121
0.000147305
0.000158002
0.018897
8.70129e-05
0.000148162
0.000182844
0.000143616
0.000150835
0.000155003
0.0205682
0.000142839
0.000157295
0.000144674
0.000147789
0.00018664
0.000155495
0.000181586
0.000181919
0.000140399
0.0310052
0.000170771
0.000147066
0.00607573
0.000188132
0.000120586
0.000185154
0.000141663
0.000158153
0.0182492
0.000189932
0.000158551
0.000151961
0.000155987
0.000173849
0.000145498
0.000149463
0.000174641
0.000153203
0.0182579
0.000162247
0.00237046
0.0145427
0.000158005
0.000162191
0.000184367
0.0161992
0.000147038
0.000161627
0.000150918
0.000140463
0.000155191
0.000170517
0.000155841
0.000156046
0.0125289
0.000159626
0.00014598
0.000177272
0.000153036
0.0202838
0.000148256
0.000145503
0.0300047
0.000172026
0.00728875
0.000146753
0.000151976
0.000145671
0.000148137
0.000156141
0.000143976
0.0129473
0.000158503
0.0159191
0.00776911
0.000161153
0.027156
0.000149009
0.000163127
0.000147567
0.0213367
0.0302867
0.000154623
0.0131135
0.0172434
0.000140503
0.000145338
0.000151804
0.0026321
0.0098167
0.000162241
0.000148016
0.0001513
0.000178042
0.000152808
0.000181463
0.000159829
0.000148288
0.000148781
0.000165733
0.000155985
0.000155425
0.000191063
0.000153144
0.000154042
0.0127708
0.000152667
0.017757
0.000151474
0.00016211
0.000153907
0.000189272
0.000172917
0.00016945
0.0136349
0.00193385
0.000144561
0.000153142
0.000167595
0.000143805
0.000145912
0.000161376
0.000161446
0.000192978
0.000181807
0.000141468
0.000196469
0.000153209
0.000153729
0.000183365
0.00014778
0.000170547
0.0057977
0.000137945
0.0001719
0.000177754
0.000159602
0.000143981
0.00014224
0.000145501
0.0108031
0.000148374
0.00014898
0.000162426
0.000144209
0.000143487
0.000181678
0.00142018
0.000165091
0.0274727
0.000171664
0.00358067
0.000145932
0.000154012
9.12509e-05
0.000152443
0.000155865
0.000171867
0.000154428
0.000146649
0.000153788
0.000175998
0.000143966
0.000189576
0.000148408
0.016446
0.000151516
0.000154662
0.0001483
0.000174928
0.000155605
0.0203517
0.000165722
0.000185338
0.0192097
0.000148996
0.0168071
0.00015081
0.000169182
0.000151943
0.000144352
0.000144441
0.0253578
0.000155959
8.64722e-05
0.0274776
0.000143732
0.000159846
0.000137424
0.000156731
0.0153259
0.000138543
0.0161776
0.000151371
0.000168412
0.000179495
0.00205007
0.000141375
0.000153092
0.000181146
0.000141687
0.000146489
0.000150074
0.000146199
0.000162591
0.000141089
0.000191682
0.000148315
0.0118079
0.0166349
0.000806853
0.0045578
0.0292379
0.0107614
0.00350343
0.000140129
0.00015071
0.000145387
0.000148988
0.000142317
0.000156138
0.000143373
0.000179177
0.000146685
4.66369e-05
0.000148149
0.000157377
0.000179528
0.000145358
0.000166039
0.000148991
0.000151805
0.000154094
0.000149788
0.0272718
0.000175674
0.000166175
0.000145185
0.000144671
0.00014815
0.000148655
0.01746
0.0001403
9.76738e-05
0.000142835
0.00691251
0.000154902
0.000143686
0.000170052
0.0001644
0.000140463
0.00763055
0.013291
0.000151999
0.000174786
0.000141887
0.000195765
0.000151222
0.00014858
0.0161239
0.000161945
0.000148642
0.000176981
0.0150363
0.000151952
0.011613
0.000245964
0.000152228
0.00015077
0.000146422
0.000594838
0.000144499
0.000180818
0.000146232
0.029335
0.000155316
0.0188861
0.000146189
0.000145928
0.00327305
0.000161951
0.000152362
0.0215489
0.000149946
0.000141231
0.0159338
0.000152395
0.000150935
0.000174286
0.000150241
0.0181809
0.000164802
0.000172902
0.00018366
0.000151201
0.0285849
0.000148861
0.000173073
0.000143987
0.0192413
0.00683477
0.000147051
0.000151134
0.000150562
0.000147283
0.000150461
0.000147296
0.000147891
0.000144351
0.000157038
0.000137939
0.00014961
0.000173301
0.0161398
0.0206921
0.000175941
0.000148153
0.00325944
0.000142966
0.000101662
0.0155043
0.00528428
0.000144344
0.000140262
0.000147151
0.000146348
0.000144031
0.000150031
0.000143267
0.000162845
0.000141264
0.0077818
0.0114588
0.000142042
0.0242491
0.000144061
0.000145798
0.000162719
0.0211696
0.000173789
0.000162806
0.00739495
0.000146881
0.000146034
0.000205962
0.00015102
0.0174313
0.000148859
0.000102461
0.000142758
0.000148364
0.000159067
0.000215311
0.000149825
0.0210257
0.000166164
0.000167792
0.000151285
0.000144677
0.000142019
0.00017658
0.000159152
0.000152958
0.0231714
0.00834754
0.000188246
0.000177315
0.000147762
0.0226555
0.000148244
0.0199614
0.000172576
0.000154167
0.00014944
0.0210349
0.0297021
6.63795e-05
0.00015474
0.0154521
0.000150393
0.000143384
0.000159728
0.000148124
0.000146083
0.000606228
0.0149225
0.000148497
0.000154805
0.018116
0.000151143
0.000142938
0.0166856
0.0215504
0.00014873
0.000148074
0.000154397
0.000145464
0.000145877
0.000161683
0.00015414
0.000145213
0.0140543
0.000154654
0.000116199
0.0156073
0.000164378
0.0194998
0.000146919
0.000147983
0.00016375
0.0147701
0.000239966
0.00016547
0.000160217
0.000147685
0.000148941
0.000151991
0.0203522
0.00015644
0.000149245
0.000167856
0.00014364
0.00164303
0.000174584
0.000180142
0.000169074
6.13426e-05
0.00997421
0.0186056
0.0260875
0.00019255
0.000117567
0.000143315
0.000171291
0.000176022
0.0145013
0.000152428
0.00015138
0.000153527
0.00252459
0.000150221
0.0189841
0.000160832
0.000178467
0.0194324
0.000154458
0.000177445
0.000150783
0.000146562
0.000156617
0.000123102
0.00014737
0.00014108
0.000149529
0.000343557
0.000141335
0.000150016
0.000151049
0.00014882
0.000145626
0.000179454
0.000171709
0.000149196
0.000145014
0.000183391
0.000169489
0.00016387
0.0287866
0.000147047
0.000144337
0.0299176
0.000148909
0.000150385
0.026028
0.0205648
0.00015839
0.000171463
0.000154906
0.0104946
9.22253e-05
0.000160224
0.00414783
0.000145719
0.000176002
0.0172105
0.000187415
0.0137837
0.0209629
0.000147849
0.000146632
0.000168932
0.000145771
0.000147024
0.00019148
0.000161102
0.000165463
0.000139614
0.000168382
0.020254
0.000150335
0.00971781
0.0289702
0.000144353
0.000173242
0.000154689
0.000149698
0.000143838
0.0223604
0.000173387
0.0160115
0.000155717
0.0270415
0.000178264
0.000151817
0.00113716
0.000160854
0.000156628
0.000143865
0.000128632
0.000143871
0.000153729
0.000163263
0.000153875
0.000147823
0.000168549
0.0177595
0.000142624
0.000191947
7.0974e-05
0.000146543
0.000142822
0.000158821
8.57524e-05
8.39038e-05
0.000144
0.00015686
0.000167143
0.00259604
0.0122572
0.00014581
0.000141378
0.000147954
0.00014471
0.000183124
0.000151547
5.58397e-05
0.000148841
0.000152025
8.62793e-05
0.000166016
0.000175717
0.0218121
0.0259014
0.000146893
0.000149936
0.000140877
0.000149384
0.00017184
0.0247969
0.00016975
0.00018015
0.000158353
0.000166572
0.000150943
0.000148445
0.000153388
0.000179225
0.000146362
0.000194633
0.00014863
0.000143416
0.000146611
0.0245531
0.00016742
9.56687e-05
0.0161806
0.000183238
0.00014556
0.000699562
0.00017229
0.000143043
0.0178943
0.0152538
0.000146442
0.000158495
0.000179476
0.000160904
0.000148451
0.000141017
0.000142944
0.000142668
0.00014373
0.000157346
0.000169974
0.0159095
0.000161356
0.000153714
0.000157851
0.000177671
0.000144859
0.000161348
0.000160841
0.000189029
0.0167332
0.000149821
0.000141043
0.0201567
0.000142484
1.77084e-05
0.00014984
0.000166254
0.000147388
0.000143018
0.000206182
0.000154257
0.00014968
0.000144607
0.026033
0.000177952
0.019001
0.000147908
0.00014647
0.0201309
0.000159341
0.000148169
0.00018414
0.0154337
0.000155044
0.000159469
0.00014828
0.000133211
0.000143029
0.000152539
0.000147808
0.00014067
0.000188769
0.000143035
0.000142429
0.00101191
0.000169159
0.021354
0.000188424
0.000142611
0.000157222
0.000143417
0.000145404
0.000151505
0.000153652
0.000146175
0.000187526
0.000145736
0.000174574
0.000156347
0.000163659
0.000145594
0.000156969
0.000145514
0.0229761
0.000146847
0.00162118
0.000172483
0.00015698
0.000167352
0.000159345
0.00015744
0.00014568
0.000157238
0.000142106
0.000143573
0.00148453
0.000163438
0.000160397
0.000150042
0.000147048
0.000151796
0.000177259
0.000143566
0.0225541
0.000165893
0.000148627
0.000143423
0.000142386
0.000165904
0.000147455
0.0296713
0.000148627
0.000933479
0.000163918
0.000179564
0.000151604
0.0183644
0.000139593
0.000146384
0.00015284
0.000220551
0.000142605
0.0236507
0.000146421
0.0001525
0.000184838
0.000115362
0.0109603
0.000178718
0.000153647
0.000189679
0.00014695
0.000147171
0.0186767
0.000144121
0.000162483
0.0132156
0.000141469
0.0243197
0.000137484
0.000142671
0.00014446
0.000147284
0.0256948
0.000171173
0.000141056
0.000173738
0.000142652
0.000143228
0.000152981
0.000147609
0.00016439
0.000146346
0.00015269
0.000139817
0.00965675
0.00011421
0.000139964
0.000140067
0.00014857
0.000143329
0.000151407
0.000148027
0.000148038
0.000146487
0.000145289
0.000149067
0.000145186
0.00017562
0.000142526
0.000175112
0.000146994
0.000169438
0.000143804
0.000146045
0.000143841
0.000146902
0.000162681
0.000154866
0.000152801
0.0225699
0.000157864
0.02858
0.0221147
0.000174819
0.005116
0.000146696
0.000144999
0.00583062
0.019857
0.00015229
0.0188717
0.000143005
0.000180211
0.0175048
0.000151231
0.000175716
0.0273468
0.0317203
0.00015448
0.000165114
0.00014222
0.000661005
0.000151869
0.0257446
0.00992143
0.000146601
0.000130096
0.00105353
0.000183262
0.00707579
0.00094016
0.000150365
0.000141162
0.000160135
0.020929
0.000147179
0.000158112
0.00014756
0.00125974
0.000183802
0.000145958
0.000144157
0.000110214
0.000145234
0.000144389
0.00014807
0.000141293
0.00221019
0.000157738
0.000156125
0.0236377
0.00014375
0.000173847
0.000146267
0.000152807
0.000170303
0.000821966
0.00014361
0.000155263
0.000157157
0.000158575
0.000151237
0.000145472
0.00981685
0.000149384
0.000141843
0.000142674
0.000541104
0.000141067
0.0134408
0.0177297
0.0190669
0.000146792
0.000144514
0.00014309
0.0097525
0.000147114
0.000378138
0.000155723
0.0112438
0.000150121
0.000151895
0.000202566
0.000146337
0.00017506
0.0200738
0.000179775
0.0234595
0.000150002
0.0174137
0.026597
0.000146206
0.0208579
0.000146855
0.000153889
0.0188054
0.000151062
0.000166146
0.0158352
0.000158182
0.000172467
0.000145465
0.000132548
0.00014429
0.0135817
0.000143078
0.0145991
0.000144416
0.000145521
0.000151523
0.0161895
0.000144683
0.00015818
0.000174643
0.0251107
0.00014339
0.000157458
0.0243079
0.000140988
0.00549447
0.000175569
0.000143955
0.000180497
0.00738031
0.000151778
0.000552416
0.000146362
0.000184312
0.0114329
0.000145065
0.0124806
0.000143431
0.0136933
0.00148988
0.000151335
0.000151988
0.0141757
0.0168401
0.00014447
0.000149666
0.000141648
0.000146186
0.0104578
0.00017312
0.000199295
0.000147511
0.000155484
0.0247267
0.000162263
0.00816283
7.2974e-05
0.00014237
0.000143968
0.000186696
0.0197378
0.0151238
0.0161061
0.000187592
0.00016413
0.000173343
0.0224372
0.0182195
0.0155444
0.000141165
0.000175736
0.000165472
0.000175101
0.0001449
0.000153678
0.000171946
0.000195638
0.0189608
0.000152692
0.00902597
0.0229522
0.000167081
0.000144213
0.000144254
7.54213e-05
0.000145039
0.0285246
0.000156084
0.000154497
0.000192544
0.000127032
0.00013989
0.000161191
0.00015687
0.000145056
0.0230866
0.000156093
0.0265947
0.000146202
0.0218479
0.000180802
0.000187133
0.00014711
0.00015456
0.000158749
0.000113312
0.000181975
0.000172093
0.0111023
0.00156321
0.000140177
0.000153788
0.000151057
0.00018195
0.0118084
0.000152424
0.000139692
0.00014949
0.00128097
7.91884e-05
0.000146232
0.000169366
0.000192493
0.000141148
0.000139577
0.000151611
0.0262308
0.00015593
0.00415085
0.000491665
0.00015592
0.000152454
0.000225913
0.000142799
0.000168693
0.0174139
0.000170599
0.000180424
0.000157636
0.000169124
0.0194861
0.0169573
0.000145334
0.0196959
0.000887993
0.000141409
0.00018155
0.000172785
0.000182103
0.00717871
0.00143186
0.0179004
0.00018071
0.0176912
0.000154987
0.000170957
0.000146013
0.000146567
0.000145489
0.00014186
0.000204116
0.000196779
0.000147174
0.000168283
0.000185698
0.000142673
0.014209
0.0193934
0.000147861
0.00014693
0.000146249
0.000149195
0.000164079
0.000144269
0.0240416
0.000156742
0.000174134
0.000154203
0.000174556
0.000171977
0.000160892
0.0119087
0.000145079
0.000149455
0.000146965
0.000145481
0.0228412
0.00017662
0.000156968
0.0289689
0.000147733
0.0001481
0.000159806
0.000143214
0.000148023
0.000177112
0.000153269
0.018095
0.0230306
0.022662
0.000145603
0.0326155
0.0001434
0.00020848
0.000139738
0.000182871
0.020665
0.000146977
0.0008304
0.0179627
0.000160012
0.000155111
0.000157173
0.000155886
0.0184007
0.000141102
0.00014687
0.000165163
0.000191032
0.000187073
0.000156483
0.00015362
0.000142171
0.000172046
0.000216901
0.000160167
0.000151888
0.000181876
0.000123388
0.0255707
0.020813
0.000164823
0.000149121
0.0174892
0.000145108
0.000172011
0.000145852
0.0102099
0.000149553
0.000148275
0.000160515
0.0206999
0.000143969
0.000143772
0.000139443
0.000182776
0.00762901
0.00018226
0.000144491
0.000151552
0.000141358
0.0234405
0.000148539
0.000617882
0.000168714
0.000147686
0.000170658
0.000161335
0.000236832
0.000147996
0.000148053
0.000157892
0.000166103
0.000185104
0.000146514
0.000147659
0.000149265
0.0224146
0.000148619
0.000152657
0.0165432
0.000150186
0.000158262
0.000152301
0.000145212
0.000147596
0.016549
0.000150699
0.0271175
0.000477173
0.000141954
0.0189523
0.000147363
0.000180303
0.000168385
0.000154283
0.000147352
0.000141649
0.000144202
0.0219951
0.000165234
0.0227711
0.0195732
0.0001423
0.000160833
0.000163873
7.29561e-05
0.000144282
0.00151962
0.0185723
0.0056744
0.000147615
0.000149965
0.000147781
0.00265164
0.0227383
0.000154059
0.000145288
0.000157427
0.0250053
0.000146163
0.000150115
0.000150094
0.00017974
7.58728e-05
0.000139491
0.0206596
0.000157669
0.000144134
0.0143155
0.000168697
0.0214939
0.021679
0.000159759
0.000154254
0.000153094
0.000154996
0.000148169
0.000175344
0.000168817
0.000147961
0.000152097
0.000192167
0.0206557
0.000140897
0.000181334
0.0309239
0.0192518
0.000148599
0.00014546
0.00174802
0.000867252
0.000166205
0.000144414
0.0354973
0.000171099
0.000143592
0.0156449
0.000155404
0.000147033
8.0211e-05
0.00014626
0.000167099
0.000144338
0.000138951
0.000147
0.000139422
0.0173132
0.000146638
0.000142974
0.000174961
0.000152619
0.000152388
0.000182374
0.000145814
0.000144513
0.000149844
0.00014888
0.000970767
0.00133078
0.000175488
0.0205857
0.000162296
0.0135101
0.000170421
0.022204
0.0256671
0.0185619
0.000142404
0.000158335
0.000144406
0.000146267
0.000146042
0.000151226
0.000186956
0.000169244
0.000164165
0.000142519
0.000143999
0.000167937
0.000146794
0.000147556
0.000145952
0.0250102
0.000158647
0.0100513
0.000145504
0.00109641
0.00014785
0.000148091
0.000148568
0.000163342
0.000142672
0.000176919
0.0215647
0.000165724
0.0193848
0.016593
0.000199503
0.000155411
0.00925073
0.000181628
0.000147952
0.000145875
0.000142157
0.0197809
0.000139436
0.000170297
0.00017463
0.000175492
0.0241151
0.0198553
0.000171415
0.0238394
0.000147528
0.000138655
1.8815e-05
0.000171483
0.000144709
0.000145473
0.019699
0.000141277
0.000198025
0.000157809
0.000148644
0.000153468
0.000145069
0.00017427
0.0209224
0.0190352
0.000152508
0.000152701
0.000177927
0.000149215
0.000176606
0.000141686
0.000182456
0.000176144
0.000147509
0.000146824
0.000142754
0.000183975
0.000171341
0.000187251
0.00250904
0.0001575
0.00415962
0.000173364
0.00017896
0.0123985
0.000143523
0.0201686
0.000148693
0.0248745
0.000204049
0.0193527
0.0136245
0.000182824
0.000169785
6.90077e-05
0.000146509
0.01572
0.0001456
0.000145096
0.00015365
0.000148048
0.000157381
0.000196355
0.000120831
0.0202324
0.000153774
0.000164905
0.000149179
0.000148208
0.000146043
0.000183609
0.000175977
0.0204829
0.000166532
0.000147425
0.000141483
0.000148312
0.000189401
0.000151835
0.000149269
0.000152959
0.000180578
0.000157882
0.000166508
0.000164346
0.0213056
0.000157113
0.000158686
0.000144308
0.000153719
0.000712234
6.70212e-05
0.000168617
0.000143373
0.015922
0.000159261
0.000144168
0.000166972
0.0232826
0.00594599
0.000160505
0.000141444
0.0186346
0.000147704
0.000141199
0.000147838
0.0150342
0.000253509
0.000200852
0.00940782
0.011229
0.000173395
0.000163864
0.000171909
0.027091
0.000158178
0.0223638
0.000147824
4.06578e-05
0.000160523
0.0194766
0.000159378
0.00014513
0.0251765
0.00014683
0.000148683
0.028421
0.000289223
0.00018025
0.00122337
0.000151968
0.000149412
0.000710417
0.000144031
0.000142696
0.000145348
0.00016586
0.00014418
0.000159341
0.000172009
0.000826467
6.05426e-05
0.000148302
0.0159701
0.000170288
0.0238928
0.0197631
0.000145217
0.000146595
0.000153174
0.000905944
0.000187155
0.000173161
0.0228479
0.0199045
0.00150209
0.000151462
0.000256948
0.0159737
0.000169013
6.38974e-05
0.000146399
0.00014586
0.000145392
0.000149079
0.000143694
0.000158915
0.0193084
0.00015954
0.000767975
0.0142631
6.13135e-05
0.0214858
0.0254667
0.000157127
0.0236633
0.000180357
0.000173551
0.000139588
0.000146656
0.000172449
0.0170181
0.000149812
0.019092
0.0254561
0.00014307
0.00014566
0.000149511
0.00017943
0.000147979
0.000174582
0.0203659
0.000140707
0.000144021
0.000142594
0.000148482
0.000177621
0.0208031
0.000162747
0.00174891
0.000181484
0.000142777
0.000571934
0.000184795
0.000176258
0.000176978
4.20613e-05
0.0201809
0.00835824
0.0184205
0.000146098
0.000824704
0.021851
0.000188602
0.00379994
0.000145795
0.000150465
0.000151392
0.000150665
0.0103088
0.000173141
0.000146458
0.000155178
0.00538708
0.0217577
0.000151169
0.000157084
0.0291905
0.0250741
0.000146414
0.000156041
0.000180747
0.000143577
0.000144109
0.0200334
0.000142646
0.000190605
0.000707317
0.0112718
0.000142506
0.000177072
0.000183923
0.000143985
0.000145328
0.0319898
0.0149512
0.000148455
0.000161109
0.00018573
0.000188429
0.025804
0.00682106
0.000153687
0.0010001
0.00888306
0.000160753
0.000142164
0.000178974
0.00013892
0.000146607
0.0178934
0.00016343
0.000178983
0.00015203
0.000155145
0.000144898
0.00014187
0.000148145
0.000148716
0.013894
0.000151747
0.00201542
0.0132025
0.000166051
0.000173726
0.0189115
0.0182322
0.015436
0.000150878
0.000152536
0.000161155
0.000153388
0.000196759
0.00870984
0.000148095
0.00163324
0.0212004
0.000154674
0.000176748
0.000174513
0.000178
0.000179254
0.000149551
0.000180875
0.000182169
0.000183596
0.000185117
0.000179598
0.000176079
0.000155817
0.000142224
0.000159059
0.000176714
0.000142638
4.02386e-05
0.0249616
0.000193988
0.0244746
0.000144473
0.000143775
5.9092e-05
0.00899266
0.000148521
0.000151427
0.000170494
0.0337057
0.0213676
0.000145524
0.00015912
0.000153026
0.00690079
0.0066429
0.000151679
0.000104981
0.021783
0.000178614
0.0232823
0.000179027
0.00132899
0.0251795
0.000135868
0.0208367
0.0238518
0.00014902
0.000174632
0.000180126
0.000153928
0.000144157
0.00160589
0.0207192
0.000147347
0.00014762
0.0198016
0.000170306
0.000176688
0.000146815
0.000192139
0.000183232
0.0255881
0.0193667
0.000145476
0.000143878
0.000148367
0.000166013
0.020236
0.0183214
0.0213814
0.000175576
0.000203553
0.0143432
0.000166856
0.00014218
0.0216942
0.000145622
0.0226189
0.000149225
0.0243085
0.00014912
0.000148836
0.0178065
0.000147997
0.000179995
0.0142103
0.000164723
0.000151011
0.000149383
0.000186519
0.0183206
0.000188402
0.0249201
0.000186818
0.000175996
0.000155351
0.000176058
0.0228419
0.0273556
0.000180084
0.000188639
0.000181371
0.00368001
0.000152417
0.000145696
0.000140917
0.000139613
0.000196134
0.000175469
0.00429546
0.000165401
0.000183899
0.00014365
0.00536723
0.00140802
0.00611368
0.000144414
0.000149708
0.000139399
0.0233048
0.000156908
0.0167997
0.000198971
0.000181092
0.000201979
0.000142452
0.000161269
0.000187662
0.000195178
0.000176097
0.000146476
0.000182377
0.00014792
0.000148834
0.000182041
0.0200077
0.00565624
0.000147289
0.000178282
0.000119444
0.0238256
0.0134847
0.0177111
0.0119204
0.000144865
0.000171746
0.000147338
0.000183001
0.000146791
0.00018188
0.000150578
0.000167369
0.00479084
0.0144214
0.000192193
0.000183846
0.023928
0.00017991
0.00015104
0.0286872
0.000178603
0.000178988
0.000149574
0.0108071
0.000156484
0.000183447
0.000173626
0.00243415
0.0147881
0.000199531
0.0143118
0.0213955
0.0217733
0.000779166
0.000158401
0.000179486
0.000178129
0.0156854
0.000175647
0.000148176
5.91061e-05
0.000168999
9.37484e-05
0.000155764
0.0172118
0.00127016
4.51748e-06
0.000153777
0.0220882
0.000151793
0.0190122
0.000187812
0.000559746
0.0112435
0.00014112
0.000139913
0.020925
0.0201757
0.000166068
0.000147887
0.000166172
0.000158651
0.0105792
0.000177205
0.0237581
0.000154067
0.0235409
0.000182925
0.0220989
0.000148018
0.000137952
0.0194093
0.000190591
0.000175372
0.000143352
0.000151973
0.0001458
0.00278909
0.000143463
0.000145617
0.0246004
0.000991905
0.000139496
0.0219628
0.000148628
0.000146574
0.0001436
0.000144733
0.000146617
0.000175532
0.0267671
0.000142695
0.011586
0.000172474
0.000165667
0.000299996
0.000176022
0.000153496
0.000158027
0.000143325
0.00359891
0.000158449
0.0220529
0.000178872
0.00595497
7.33929e-05
0.000174514
9.02385e-05
0.0232654
0.000140322
0.0172441
0.000170299
0.000172453
0.000164056
0.00014417
0.000171718
0.000187278
0.00014548
9.08398e-05
0.000144098
0.0130848
0.000183409
0.0185256
0.000186215
0.000185633
0.024009
0.000145944
0.000146838
0.000171024
0.00014988
0.000146563
0.000146733
0.000155341
0.000143476
0.00014279
0.00014934
0.000166604
0.000150405
0.000155464
0.000159019
0.000163141
0.000177799
0.000150954
0.0143352
0.000150531
0.000143304
0.000177246
0.00016318
0.000164453
0.00014366
0.00767377
0.000150638
0.0207464
0.000150999
0.000181731
0.000143488
0.000146344
0.000183835
0.0263736
0.00017321
0.00016212
0.00014041
0.0258501
0.000145951
0.000142566
0.000174522
0.00015152
0.000184816
0.0239927
0.000178549
7.95782e-05
0.000165722
0.0147728
0.00014614
0.000146028
0.000173478
0.000850529
0.000170232
0.000180039
0.0180311
0.000155654
0.000145659
0.000155577
0.000191347
0.000168923
0.000145612
0.0001785
0.000177356
0.000172697
0.000146552
0.000145727
0.000197349
0.000172654
0.000106774
0.0140461
0.00015133
0.000173779
0.000146438
0.000164185
0.00923899
0.00014667
0.000186092
0.000143375
0.000177353
0.0216663
0.000145207
0.000145675
0.00014303
0.0231422
0.000188336
0.000150807
0.000183024
0.000179821
0.000146279
0.000146043
0.000106567
0.0222101
0.000199791
0.0230695
0.000191264
0.000157221
0.000176465
0.000181165
0.000157163
0.00493756
0.000176156
0.00774655
0.000145281
0.000177397
0.000182632
0.000148733
0.0118842
0.00016425
0.000180524
0.000155223