/*--------------------------------*- C++ -*----------------------------------*\
| =========                 |                                                 |
| \\      /  F ield         | OpenFOAM: The Open Source CFD Toolbox           |
|  \\    /   O peration     | Version:  v2012                                 |
|   \\  /    A nd           | Website:  www.openfoam.com                      |
|    \\/     M anipulation  |                                                 |
\*---------------------------------------------------------------------------*/
FoamFile
{
    version     2.0;
    format      ascii;
    class       volScalarField;
    location    "800";
    object      k;
}
// * * * * * * * * * * * * * * * * * * * * * * * * * * * * * * * * * * * * * //

dimensions      [0 2 -2 0 0 0 0];


internalField   nonuniform List<scalar> 
13851
(
0.000164246
0.0343865
0.000197356
0.000163359
0.000196984
0.000216827
0.000150105
0.000185446
0.000147848
0.000401037
0.000571422
0.0417342
0.0554683
0.0257151
0.000145371
0.000176978
0.000162997
0.00017222
0.053339
0.000147456
0.000162713
0.000196742
0.000156682
0.00016037
0.000161022
0.000186008
0.000160123
0.0024707
0.000163617
0.00016374
0.000510954
0.000163768
0.000196364
0.00436551
0.000160586
0.0163485
0.0577536
0.0415952
0.0015348
0.00494889
0.000152407
0.000135188
0.00540015
0.00168571
0.00193407
0.0224103
0.00322275
0.0139738
0.000160643
0.000176628
0.00019432
0.00519638
0.00733242
0.000147892
0.000162632
0.000135378
0.000149069
0.0104248
0.000163208
0.000150972
0.0433541
0.0381524
0.000182539
0.000201518
0.0297688
0.000168712
0.0606318
0.00388742
0.000174168
0.000172022
0.0166638
0.063309
0.0339045
0.000149162
0.000143224
0.000152563
0.000195993
0.0189967
0.00018473
0.0177708
0.000152791
0.00463176
0.000147156
0.0193069
0.000190441
0.0439404
0.000190586
0.0493085
0.00016334
0.000151249
0.0151704
0.000179246
0.004099
0.000167139
0.000162855
0.00015513
0.000197699
0.0386898
0.000176236
0.000155328
0.0176924
0.000185834
0.00015853
0.000158453
0.000158245
0.000192488
0.00018801
0.000133135
0.0627463
0.000273512
0.000157577
0.00015173
0.000177915
0.00016038
0.00015777
0.0207363
0.0411134
0.000133298
0.000172052
0.000170396
0.0050232
0.000158258
0.0546675
0.013181
0.0115387
0.000150945
0.00941751
0.000185297
0.000162078
0.0122913
0.00015208
0.000143043
0.0200571
0.000146914
0.0193547
0.000144516
0.000133394
0.0627766
0.0291399
0.0387726
0.0172439
0.000161382
0.000162072
0.000141665
0.000159455
0.0020887
0.000149216
0.0147254
0.000149884
0.00158166
0.000193782
0.000163787
0.0260273
0.000149286
0.000157299
0.000159308
0.000151124
0.000160393
0.00560408
0.000194013
0.000136787
0.000166227
0.00999204
0.000142844
0.000170798
0.000138821
0.000150091
0.00017456
0.000161573
0.0288348
0.0161827
0.000140825
0.000151183
0.0376042
0.000142418
0.0153967
0.000184597
0.000161845
0.0543626
0.000133785
0.00016532
0.0631838
0.00014639
0.000198098
0.000132964
0.000153656
0.000169026
0.000153384
0.000201017
0.000209608
0.00356278
0.00839659
0.000152878
0.000174745
0.0398796
0.000156927
0.000161223
0.00700534
0.00016124
0.000152798
0.000151144
0.0273468
0.000190366
0.000147328
0.000196427
0.00014668
0.0397374
0.000163095
0.0313597
0.000134885
0.0515608
0.000158016
0.00790719
0.000132884
0.000140567
0.000252924
0.000179502
0.0213326
0.000144707
0.0328516
0.000163527
0.000153017
0.047991
0.00522522
0.0481517
0.000158454
0.000170019
0.000164402
0.0108703
0.000133047
0.000185345
0.0277629
0.000140482
0.000152339
0.000191044
0.000185431
0.0416613
0.0393424
0.000141512
0.000147512
0.000337211
0.000586606
0.000140794
0.000202162
0.000148228
0.0432707
0.000186478
0.00794966
0.0001598
0.000165833
0.000173145
0.000929604
0.000154132
0.000159926
0.000185622
0.0142332
0.000216216
0.0627529
0.007605
0.00014607
0.000140739
0.000170664
0.0261367
0.000146125
0.0541942
0.000156913
0.000153876
0.000166293
0.0500176
0.000163978
0.000172869
0.000157343
0.00841163
0.000183355
0.000176205
0.000143399
0.00460503
0.000159553
0.0514869
0.000513473
0.000140724
0.000134078
0.000157258
0.000184552
0.0257774
0.0160029
0.000150516
0.000145243
0.00956572
0.00422279
0.0249743
0.000162257
0.000151143
0.000176869
0.0041643
0.0543993
0.00016952
0.0437344
0.000144067
0.0445914
0.000165613
0.000162887
0.0514788
0.000154278
0.000200651
0.0447711
0.000149898
0.000181134
0.000167392
0.000161631
0.030704
0.0001699
0.00015404
0.0450492
0.000136216
0.000166224
0.000152579
0.0538796
0.000193894
0.000144855
0.00018621
0.000145014
0.0154963
0.000177176
0.000153968
0.000154724
0.000195936
0.000169024
0.000156801
0.000145234
0.000154083
0.000153912
0.000935172
0.0272529
0.032148
0.000176298
0.0538997
0.0501318
0.000144898
0.000175575
0.0274425
0.000182439
0.00018787
0.000226358
0.0538094
0.000169712
0.017569
0.0447655
0.000145675
0.00016309
0.000163479
0.0516372
0.000156749
0.000142348
0.01129
0.000151796
0.0151214
0.000154696
0.000145
0.000145395
0.000133229
0.000149308
0.0471238
0.00393926
0.000150207
0.000180213
0.000137556
0.0416128
0.000183427
0.0156777
0.0306637
0.000150557
0.000169227
0.00016782
0.0153323
0.000151289
0.000133498
0.000176214
0.0180032
0.000148226
0.0322276
0.000181922
0.000714848
0.0266427
0.000220068
0.000222755
0.000168464
0.000143213
0.000153711
0.000174749
0.000185835
0.028452
0.000174311
0.0505636
0.0450401
0.000137781
0.000146233
0.0303498
0.0206028
0.0269011
0.0427536
0.000177066
0.000168845
0.000156
0.0514061
0.000144315
0.000176197
0.000167524
0.000149692
0.000162042
0.000149552
0.000138641
0.000200082
0.000190864
0.0205501
0.000173002
0.000187517
0.000181881
0.000759118
0.000167731
0.0527427
0.000162246
0.000227469
0.000133228
0.000148939
0.000156658
0.0499323
0.00679744
0.00388929
0.000180669
0.0167471
0.00312303
0.000186448
0.000174337
0.000191478
0.000150766
0.0010132
0.000156271
0.0549949
0.00342171
0.00019504
0.0287071
0.000162093
0.00016025
0.00469042
0.0221814
0.000132253
0.000170786
0.000185293
0.000165069
0.000142379
0.000154162
0.000192064
0.000615054
0.000177758
0.0410703
0.000156078
0.000155363
0.0102844
0.000172067
0.000133641
0.0464024
0.000143105
0.000164223
0.000143964
0.000184788
0.000159213
0.000134347
0.000161678
0.0465617
0.000147472
0.000176563
0.000143215
0.000173294
0.000171119
0.000162635
0.000152963
0.000160988
0.000160361
0.0174888
0.000153571
0.000191483
0.000146124
0.000153821
0.0199228
0.0269597
0.000147167
0.000174237
0.000167871
0.000803549
0.0200498
0.000155379
0.00402218
0.000151433
0.000197187
0.000150442
0.0139021
0.000133651
0.00693893
0.000165567
0.000135415
0.000174354
0.03199
0.000186135
0.00520649
0.000170249
0.0128409
0.000167957
0.000142056
0.000144235
0.000149252
0.024722
0.000191626
0.0014181
0.0548047
0.000179341
0.000137462
0.0506306
0.0071144
0.000165465
0.000166669
0.000331029
0.0129533
0.053828
0.000158011
0.0145276
0.0219
0.026135
0.000171142
0.000175173
0.0143393
0.000161174
0.0104228
0.00809428
0.0541471
0.000161004
0.0535649
0.060878
0.000133209
0.000159053
0.000192128
0.0220457
0.000160395
0.000145227
0.000150484
0.000150146
0.000199677
0.000183631
0.0503146
0.0405785
0.00014398
0.0088394
0.0280693
0.000727732
0.00650429
0.000176024
0.000132845
0.000148606
0.000164129
0.0493629
0.000157536
0.000198469
0.0171246
0.000135174
0.000187127
0.0124634
0.0478437
0.000283316
0.0260623
0.0613068
0.000151903
0.000149715
0.037696
0.0438112
0.00027316
0.000174011
0.000220288
0.000133622
0.000145446
0.0548366
0.000134572
0.00016027
0.000133561
0.000141837
0.0604424
0.000199673
0.000177469
0.000134404
0.0340995
0.00737723
0.000144181
0.000146251
0.000146479
0.000152707
0.0168574
0.00808148
0.00780768
0.0260638
0.0125757
0.00017214
0.0180157
0.0283805
0.0001707
0.000174792
0.000132806
0.000152439
0.000178189
0.0490786
0.0212813
0.000198235
0.000169723
0.000146296
0.000177028
0.000161868
0.00510853
0.000194594
0.0001459
0.000176969
0.000142177
0.000165663
0.00700366
0.000150744
0.000150604
0.000183331
0.000151426
0.000197569
0.047909
0.00199375
0.000177856
0.000361948
0.000145701
0.00792856
0.000175225
0.0248661
0.00015756
0.000155721
0.0630848
0.00016293
0.0251324
0.0433462
0.0189437
0.0450553
0.000143884
0.0635671
0.00014152
0.000142358
0.000133517
0.000142213
0.000145765
0.000174027
0.000183122
0.000133934
0.0503908
0.000148175
0.0491932
0.000149799
0.000134238
0.000146217
0.0247205
0.0412886
0.000185705
0.000166147
0.000141883
0.000154226
0.000154519
0.000152318
0.0516278
0.0364861
0.000151205
0.000133724
0.000149294
0.000152139
0.0530713
0.009049
0.000177451
0.0364093
0.0127692
0.000150059
0.00134163
0.0208052
0.00017618
0.0420635
0.000152801
0.000170874
0.00018527
0.000171535
0.008066
0.00014685
0.0138301
0.000158529
0.000168898
0.031779
0.00015378
0.000161277
0.000198705
0.000142528
0.000164411
0.0200611
0.0350926
0.00019406
0.0540123
0.00033079
0.000133126
0.00014903
0.0203142
0.0135814
0.000188154
0.0445997
0.000147786
0.000174086
0.000133374
0.0127264
0.0600546
0.000166684
0.000157343
0.000174705
0.000160836
0.000145143
0.0101123
0.0220058
0.0336399
0.000135949
0.000151039
0.0185694
0.00597105
0.00526849
0.000160995
0.0597978
0.000147039
0.000196517
0.0215797
0.000196267
0.000164123
0.0197409
0.000170334
0.000163374
0.0555594
0.000155208
0.000189848
0.000159773
0.000145292
0.0116897
0.000174744
0.000279705
0.000176919
0.000161527
0.000146741
0.0237878
0.000168698
0.000170106
0.000135327
0.000149333
0.000149095
0.0432676
0.000149994
0.000134054
0.00258574
0.000150061
0.0227262
0.00016063
0.000161776
0.000192737
0.0542014
0.00268193
0.000146901
0.00176286
0.0384234
0.000153854
0.0502633
0.000168551
0.000144432
0.000173119
0.00681273
0.00120601
0.000166504
0.000145516
0.000133331
0.00561895
0.00019946
0.000192469
0.000168719
0.000173062
0.000154446
0.000161393
0.000197728
0.00775676
0.000199499
0.0239016
0.000150741
0.000197734
0.000197519
0.0552457
0.000166526
0.0345488
0.0538222
0.000150067
0.0224279
0.00316084
0.0416387
0.0355172
0.041777
0.000595989
0.000183446
0.000144772
0.000174229
0.0111539
0.0203339
0.00015449
0.000155958
0.000191966
0.00192154
0.000135455
0.0073099
0.000147015
0.000149734
0.0115507
0.0186494
0.000379153
0.000142433
0.000145064
0.00680653
0.0491568
0.000192115
0.000166062
0.0343459
0.046607
0.0431361
0.000187697
0.000179885
0.000154243
0.000150239
0.034013
0.000183586
0.0198357
0.000178605
0.000173907
0.0134878
0.0401835
0.0250006
0.000148067
0.000170261
0.000143968
0.000178318
0.0001611
0.0387063
0.000175594
0.0359033
0.000135205
0.000192267
0.000147483
0.037017
0.000172872
0.000169846
0.0367163
0.000181038
0.000186301
0.000160173
0.000192357
0.0153408
0.000317014
0.000160737
0.0158505
0.000145538
0.0362949
0.00242724
0.0001529
0.0501339
0.0181161
0.0245714
0.000488401
0.000177104
0.000153955
0.0321053
0.000177828
0.0213596
0.0315821
0.000149454
0.000155659
0.0485629
0.00776675
0.0326123
0.000151395
0.000146057
0.0385454
0.0313901
0.000189531
0.000165575
0.000164051
0.00239903
0.0147386
0.000198645
0.000134143
0.000183775
0.000142379
0.00017933
0.00017283
0.00015682
0.0544984
0.000782264
0.000150053
0.000162475
0.000154242
0.000159813
0.0180144
0.0315749
0.000170106
0.0347384
0.000147139
0.000170364
0.000153623
0.000142545
0.000153274
0.000149972
0.0238469
0.000147392
0.000185519
0.000148391
0.000166652
0.000175119
0.00582027
0.000170697
0.038166
0.000193183
0.0560803
0.00017538
0.000175258
0.0170749
0.00016554
0.000184183
0.0390306
0.0268742
0.00774818
0.000181822
0.0011061
0.000156953
0.000179907
0.000186264
0.0327269
0.000152752
0.0330214
0.000148863
0.000149919
0.0279964
0.000151071
0.0551251
0.000164733
0.000144508
0.000185304
0.000144341
0.000145122
0.000143154
0.000152518
0.0509173
0.000149587
0.0487339
0.0135488
0.000193434
0.0322356
0.000149916
0.000168702
0.000153721
0.000150505
0.000143622
0.000196195
0.000152129
0.000151201
0.00015757
0.000158236
0.0232159
0.0380745
0.000233084
0.0414468
0.0520889
0.000145564
0.0105937
0.000169407
0.000149141
0.004861
0.000260336
0.00311239
0.00014386
0.00280179
0.007861
0.0135938
0.000140323
0.0548408
0.000173611
0.000160131
0.000143759
0.000147596
0.0492715
0.00177048
0.0171513
0.000153197
0.000146443
0.00606096
0.000152923
0.0536995
0.00124932
0.0482168
0.0546851
0.00283614
0.000154041
0.000150401
0.000179758
0.000173584
0.000158724
0.0305743
0.000182825
0.000152319
0.000163757
0.041021
0.000151563
0.023628
0.0572835
0.0208602
0.0423283
0.000156197
0.000143554
0.000156586
0.00295628
0.00406526
0.000140361
0.000171043
0.000152955
0.000195964
0.000137052
0.000152398
0.000153311
0.000173859
0.0587204
0.000184937
0.000176429
0.000149834
0.000184858
0.0532767
0.000153554
0.0233504
0.0530037
0.000196415
0.000139773
0.000181772
0.000145339
0.000153723
0.000156123
0.0188707
0.000192729
0.00699409
0.000158795
0.000186957
0.00014568
0.000160353
0.000154752
0.00723173
0.0170208
0.000136478
0.000173483
0.000188027
0.0269503
0.000162476
0.0423008
0.000145801
0.0372492
0.000197837
0.0535567
0.000198347
0.000196315
0.0496561
0.0295433
0.00367199
0.0288881
0.000148026
0.0348792
0.000136786
0.000160859
0.000163613
0.000152125
0.029299
0.000171573
0.000167246
0.00110693
0.0314109
0.0160145
0.000144911
0.000159089
0.000167594
0.0001445
0.000175692
0.0367989
0.00997054
0.0304039
0.000142418
0.000165595
0.000167119
0.0131449
0.0453162
0.000169257
0.000143411
0.000151691
0.0154469
0.000185496
0.0543756
0.0473486
0.000186016
0.000139492
0.059669
0.000175217
0.00018296
0.000168628
0.0505247
0.00368677
0.00477067
0.00642541
0.000158798
0.000171964
0.000149507
0.00753116
0.000188152
0.0278584
0.000171421
0.000163436
0.00698888
0.000157091
0.0516787
0.0509838
0.000148544
0.0465867
0.0333379
0.0487661
0.0620324
0.000149987
0.000150886
0.0183291
0.0527693
0.0141001
0.000163712
0.000149516
0.000150299
0.0232616
0.00099244
0.000152516
0.000448198
0.000205346
0.0447038
0.0592533
0.0155809
0.00014625
0.0603362
0.000161656
0.000152885
0.00620659
0.0396843
0.000150237
0.000149182
0.00506214
0.0514794
0.000150052
0.000142455
0.0352405
0.000145074
0.000183529
0.000142345
0.0125399
0.000151109
0.000185906
0.0297899
0.0466739
0.00015602
0.00826074
0.000989453
0.0510259
0.0555221
0.0374412
0.000185873
0.000145651
0.0532469
0.000163921
0.000145025
0.000144309
0.00343119
0.000149901
0.055699
0.000149319
0.00016382
0.0184735
0.000194424
0.0545729
0.000158132
0.000155569
0.000143798
0.000172559
0.0613048
0.0193125
0.000143955
0.000192356
0.00343257
0.000154642
0.000148033
0.0323877
0.000175103
0.000179376
0.00140527
0.0383416
0.0179282
0.0612719
0.0625139
0.000186624
0.000303088
0.00577942
0.0496242
0.000192529
0.000137656
0.000307838
0.000145809
0.000144667
0.0394622
0.0321865
0.000161487
0.0313502
0.00385919
0.0224786
0.000495023
0.000222766
0.000150033
0.00626105
0.000172425
0.000151877
0.00015636
0.0469208
0.0365842
0.0430143
0.0538067
0.00018304
0.0387523
0.048279
0.000172023
0.000151278
0.000150264
0.00452002
0.000145734
0.0505275
0.00015989
0.000153918
0.000162119
0.0533612
0.0552392
0.0170552
0.000157661
0.0600583
0.000165664
0.000173543
0.000142767
0.000147582
0.0100689
0.000168554
0.0286426
0.0349508
0.00033822
0.000191707
0.000145665
0.000183888
0.000153622
0.000433391
0.000161392
0.000157651
0.000157115
0.000162545
0.0146331
0.000154002
0.000178066
0.00015204
0.000178868
0.0427134
0.0186202
0.000151469
0.000184896
0.000166353
0.000269876
0.000151767
0.048667
0.0395758
0.000171172
0.000159102
0.000158382
0.000203136
0.000151193
0.000166135
0.00014515
0.000153619
0.000160907
0.0438044
0.000166384
0.000167444
0.000176592
0.000160505
0.000189508
0.0427319
0.0538537
0.000176448
0.000149275
0.000170412
0.00013758
0.000153959
0.0397847
0.03634
0.000158516
0.000174749
0.00312682
0.0603857
0.000152465
0.000153886
0.0340116
0.00015672
0.000173916
0.0535267
0.0574247
0.000151426
0.000152707
0.000146629
0.0466135
0.000174394
0.000183054
0.000194259
0.0179106
0.000154888
0.0573778
0.0536054
0.000155677
0.0527281
0.000196542
0.000158665
0.0104175
0.000150499
0.000154714
0.000145784
0.0290518
0.000194116
0.0135937
0.000158067
0.000153818
0.000168777
0.00387474
0.0556282
0.0552954
0.0022525
0.000153122
0.000178057
0.0145631
0.00956106
0.000196406
0.00245864
0.000145995
0.000176512
0.00014783
0.0158286
0.000181619
0.000146501
0.0395925
0.0374548
0.000174798
0.000168756
0.000134992
0.000158892
0.000190167
0.000177468
0.00509894
0.000192748
0.000194407
0.00019251
0.00173619
0.0496027
0.00026786
0.0542159
0.000151805
0.000150736
0.0475328
0.01982
0.00854351
0.000264417
0.000164946
0.0211641
0.0027554
0.000154037
0.000164203
0.000141785
0.000180469
0.000193483
0.000155733
0.00839287
0.0539548
0.000156417
0.0422894
0.0161298
0.000146085
0.000369195
0.0279666
0.00937857
0.000159587
0.000194279
0.000132925
0.000168829
0.000151937
0.000165403
0.0519496
0.0336938
0.00822205
0.0284743
0.000155439
0.000178708
0.000190586
0.00014997
0.000154505
0.000147424
0.0502817
0.000145676
0.0548789
0.000181165
0.00018366
0.026639
0.0480214
0.0202006
0.0601213
0.000180154
0.000138167
0.000154721
0.059449
0.057289
0.000162247
0.000141738
0.000144696
0.000192913
0.000172714
0.00371828
0.0496547
0.000154963
0.000146531
0.000208741
0.000169346
0.0177301
0.0287916
0.000142773
0.000194739
0.00015521
0.0500386
0.000140751
0.0404222
0.000148404
0.000154724
0.000176813
0.000152306
0.000225801
0.000170548
0.000184349
0.0122157
0.038133
0.000163349
0.000171474
0.000149672
0.0598065
0.0143764
0.000158738
0.00014171
0.00403978
0.000132989
0.0252173
0.00016316
0.000178496
0.000195008
0.026489
0.000182685
0.000161791
0.000149378
0.000192623
0.0481941
0.000145972
0.0115056
0.0291879
0.029677
0.0467463
0.000178139
0.0244151
0.000161746
0.0470212
0.000145438
0.00132595
0.00166266
0.0145925
0.0155823
0.0462828
0.000151765
0.000188718
0.000149444
0.0145336
0.00491628
0.044653
0.0114979
0.00016844
0.0512354
0.00913079
0.000179671
0.000160153
0.000150754
0.0283275
0.000165773
0.000192272
0.000172584
0.000155058
0.00014225
0.000152523
0.0411686
0.0494911
0.000174156
0.0160482
0.0552975
0.000150458
0.000146746
0.000148339
0.000172325
0.0387896
0.0513337
0.000166132
0.000193324
0.00987298
0.000197188
0.000182921
0.00617713
0.000173038
0.0519428
0.000169047
0.000173726
0.000145977
0.00017077
0.000194226
0.00783463
0.000741175
0.0312031
0.000195077
0.032664
0.000166176
0.000161706
0.000160266
0.00896205
0.0208334
0.0129148
0.000315815
0.000159034
0.000149606
0.000145814
0.000145163
0.000147678
0.00719203
0.000171258
0.00767924
0.000176329
0.0445499
0.0552935
0.044592
0.000179258
0.000163625
0.0137129
0.000183232
0.0493575
0.0297909
0.000141898
0.000204577
0.000166972
0.0190729
0.0101254
0.000179204
0.000606244
0.00776744
0.000174412
0.000188521
0.000175723
0.0222516
0.00532768
0.000160608
0.000149585
0.000927396
0.0495959
0.0067393
0.00886173
0.000423049
0.000172594
0.000150557
0.0524963
0.0347222
0.000199193
0.000170615
0.0424049
0.0259498
0.000149597
0.000147127
0.000161207
0.0469254
0.0456096
0.000145715
0.0222226
0.000153389
0.000150927
0.000153917
0.026624
0.0488374
0.000174151
0.0082006
0.000160696
0.000157643
0.000146196
0.0143562
0.000158456
0.031342
0.000165416
0.0364481
0.000151692
0.000146153
0.00405879
0.00681985
0.00418401
0.000179735
0.0518495
0.000139693
0.000150831
0.000147438
0.000184371
0.000192214
0.000192001
0.000181132
0.0544644
0.000161122
0.00869003
0.0208431
0.0510206
0.000156828
0.0271321
0.0330076
0.000161072
0.00936359
0.000190706
0.0168037
0.000151824
0.000194497
0.000154642
0.0491589
0.0161553
6.55539e-05
0.050528
0.000162887
0.000183335
0.000158949
0.0235878
0.000139472
0.000141752
0.00935703
0.000396547
0.019048
0.0608773
0.000189764
0.000169868
0.000145471
0.0412954
0.000176323
0.000152105
0.00158863
0.000142682
0.000182004
0.00014983
0.0312013
0.000163829
0.00271074
0.00043491
0.000177558
0.0100584
0.000190679
0.0501122
0.000153448
0.0278754
0.0414311
0.000143478
0.000147843
0.000158969
0.000151926
0.000181491
0.000147987
0.000485655
0.000195183
0.000181355
0.000349068
0.000154834
0.000153281
0.000147286
0.0602884
0.000151145
0.000151809
0.0512289
0.000159128
0.0399794
0.0517095
0.00019793
0.000166244
0.000177005
0.000157602
0.00015342
0.000181727
0.000142667
0.000159616
0.00826525
0.0430787
0.055864
0.00015755
0.0127474
0.0124634
0.000151872
0.000166997
0.050869
0.000145686
0.000158615
0.000144538
0.0615713
0.0190407
0.0123123
0.000142507
0.000161044
0.000164834
0.000149891
0.00416855
0.000154257
0.000191366
0.00661367
0.054153
0.000142906
0.00015957
0.000157778
0.0225785
0.000134947
0.0175607
0.00930442
0.000213777
0.0262155
0.0319771
0.0535594
0.000162649
0.0124666
0.000871934
0.00015454
0.000144772
0.000144439
0.0505698
0.00932695
0.0151164
0.000155291
0.0517373
0.00015192
0.0289589
0.000148413
0.000160126
0.000154552
0.000142456
0.0204559
0.000154512
0.0331843
0.0258465
0.0170683
0.000186351
0.00018516
0.0186304
0.047917
0.00015741
0.0068744
0.000147105
0.000133573
0.00014613
0.000158002
0.000150708
0.0125373
0.000175916
0.000176521
0.000182034
0.00897261
0.0147457
0.000749364
0.000141777
0.000191
0.000197087
0.0201527
0.000157065
0.000133777
0.000167239
0.0398926
0.00015712
0.000208321
0.0114512
0.00018096
0.000192119
0.00015711
0.000351858
0.00015224
0.0401035
0.000139352
0.00847928
0.000170688
0.000150163
0.0121147
0.0158483
0.000140279
0.000190247
0.000163291
0.0141158
0.000172319
0.0292491
0.00017543
0.000152772
0.000191087
0.0375107
0.000152721
0.000157686
0.000164507
0.000195237
0.00017282
0.0100232
0.028161
0.000150713
0.0271059
0.000155639
0.000183316
0.0465226
0.0110424
0.000180624
0.0295937
0.0460858
0.000149585
0.000235541
0.000127605
0.000170882
0.000154497
0.0451979
0.000141123
0.0145021
0.000171014
0.00404258
0.000144693
0.000175614
0.0276729
0.000183623
0.0435166
0.000153733
0.000160478
0.00334042
0.0467421
0.000163169
0.0472438
0.0121355
0.013247
0.000154463
0.0481242
0.0530209
0.0217702
0.000145775
0.000153883
0.000154495
0.0482656
0.000170112
0.000441316
0.000212474
0.0001533
0.000145567
0.000145655
0.0215909
0.0637272
0.0184173
0.0156113
0.00014522
0.0349486
0.0513144
0.000518013
0.0103786
0.0294327
0.000179637
0.0139947
0.000158162
0.000162554
0.0619886
0.0527087
0.000150371
0.0291694
0.000156787
0.000147814
0.0433303
0.0277216
0.0583593
0.0148118
0.000174645
0.000153026
0.000171322
0.054755
0.0151531
0.000145504
0.000182142
0.00948697
0.000147558
0.000151833
0.0526022
0.0270853
0.000159511
0.000145907
0.000154215
0.000159499
0.00152356
0.000151929
0.000155117
0.000166279
0.0355283
0.0292798
0.00144044
0.0408615
0.000150967
0.000164802
0.0338209
0.0502164
0.000171594
0.0114025
0.000144613
0.000177574
0.000161789
0.00015113
0.000194374
0.000154463
0.024586
0.000177596
0.000151832
0.000163971
0.0527909
0.04213
0.0247043
0.000147887
0.000190169
0.0515941
0.0117473
0.000160109
0.000156464
0.000146245
0.000381568
0.000152069
0.000158491
0.000168849
0.000147617
0.033789
0.000319399
0.000153027
0.00016207
0.000141454
0.000153984
0.0397254
0.00125388
0.000193966
0.0114743
0.000209443
0.000153299
0.000144434
0.000150388
0.000154044
0.000152509
0.000183407
0.000199992
0.0452172
0.000162819
0.000584688
0.024896
0.000171946
0.000151141
0.000141822
0.000158169
0.047364
0.000153468
0.0524291
0.0562614
0.000183246
0.000158537
0.0161459
0.000141498
0.000189983
0.000141251
0.000141804
0.000157353
0.000152431
0.000179202
0.0540183
0.00665241
0.000181255
0.0545591
0.00393181
0.0156634
0.000172289
0.0275527
0.010428
0.000420855
0.0503713
0.0527746
0.000194196
0.00022604
0.000152178
0.000150658
0.0386914
0.000148892
0.000162145
0.0387183
0.000171321
0.0425255
0.039497
0.000148873
0.000156199
0.000151494
0.000185722
0.000148134
0.000166199
0.0200712
0.0489756
0.0276978
0.000151935
0.000142718
0.000194049
0.0331032
0.0336341
0.00700076
0.0592779
0.000144867
0.0614535
0.0272865
0.000346346
0.000163194
0.000152259
0.000139334
0.000162177
0.000154362
0.000153809
0.000161537
0.0324477
0.000195958
0.0282818
0.000295253
0.0527579
0.0145616
0.000145225
0.000146306
0.000160021
0.000142653
0.000151959
0.00172828
0.0524375
0.0126331
0.050599
0.000157728
0.0160718
0.0236294
0.0482427
0.0309176
0.000153613
0.000152193
0.000198816
0.000152375
0.000140808
0.00778482
0.0337156
0.0608152
0.000149393
0.000151367
0.00016523
0.000181212
0.0533206
0.000147343
0.000165757
0.0539477
0.000143219
0.00436166
0.000180986
0.0388799
0.000152774
0.0533819
0.0332816
0.000180159
0.0546137
0.000207082
0.0284649
0.000141358
0.000165259
0.00014867
0.000172643
0.0285701
0.000157955
0.00898865
0.000159214
0.000154606
0.000145768
0.0483424
0.00018254
0.00011559
0.0115151
0.000144739
0.000186339
0.0111215
0.000190854
0.000150926
0.000163518
0.000152855
0.000186363
0.000155949
0.000152892
0.0481716
0.0552898
0.0470389
0.0473151
0.0534919
0.0147757
0.000192454
0.0519042
0.0104481
0.000140419
0.000150596
0.000133166
0.000154581
0.0548709
0.0536953
0.00014611
0.00788669
0.0442987
0.000168299
0.000162476
0.000183351
0.0454722
0.0524117
0.0323044
0.0522372
0.0334969
0.000133061
0.0505553
0.000227283
0.000224526
0.0622585
0.000146206
0.000298855
0.0125528
0.000177212
0.0309704
0.000156072
0.000167034
0.0136194
0.0366229
0.000194073
0.000174248
0.0186461
0.000192353
0.0359204
0.0434007
0.0338339
0.00019943
0.0505756
0.000151633
0.000167805
0.000184081
0.0235293
0.000527068
0.02796
0.000160389
0.00532662
0.000198974
0.000160295
0.0529862
0.000145853
0.000836542
0.022824
0.000145463
0.0438863
0.0484339
0.0405788
0.0479971
0.0522001
0.000651429
0.000153307
0.054993
0.000158763
0.000152521
0.000181486
0.000160566
0.0325534
0.00016065
0.000189265
0.000161619
0.000152318
0.0526497
0.000159043
0.000199844
0.000217131
0.000142027
0.0266405
0.000216138
0.000163052
0.0104346
0.0517889
0.000144642
0.0338468
0.000154534
0.0444397
0.000386879
0.000146294
0.000208651
0.000159141
0.0551744
0.0331466
0.000194515
0.0216555
0.000170211
0.000146411
0.0402328
0.000159645
0.000154723
0.0603197
0.000178634
0.000143924
0.000151623
0.0152503
0.000158892
0.0230754
0.050962
0.000170591
0.0163944
0.000185519
0.000192931
0.000153822
0.0552518
0.018236
0.0209665
0.000145941
0.000145281
0.000195161
0.000174059
0.0066919
0.000154921
0.00956101
0.000155403
0.0356641
0.000159416
0.000171936
0.0386057
0.000193004
0.0271229
0.0318461
0.0503361
0.0319971
0.000133663
0.0581366
0.0595331
0.0219417
0.000149149
0.0427872
0.0182288
0.0168517
0.000193202
0.0530851
0.0245001
0.0553333
0.000181456
0.0506
0.000142262
0.000184154
0.00018005
0.000145515
0.000192578
0.0181151
0.000220955
0.0170251
0.061378
0.000145176
0.000148492
0.000177097
0.000145747
0.0281865
0.000147953
0.000149611
0.0550431
0.0465878
0.000178154
0.000213268
0.000162143
0.00022107
0.00965199
0.0328758
0.0105051
0.000162324
0.0330583
0.000162692
0.000143051
0.000157304
0.0279917
0.0499294
0.0500408
0.0488813
0.000155256
0.000151068
0.00014596
0.00015217
0.000165062
0.0186731
0.0606272
0.00017049
0.0531875
0.0228365
0.000638706
0.0250405
0.000148272
0.000171128
0.00067787
0.000146896
0.000153414
0.000166714
0.000160617
0.0379922
0.032739
0.000148123
0.000178299
0.000171712
0.000194943
0.0229145
0.0448627
0.0541928
0.00015745
0.000196035
0.050715
0.000196153
0.000209241
0.000316895
0.0460009
0.0584321
0.0506317
0.000146734
0.0512772
0.000146198
0.000162964
0.000148211
0.0001921
0.0573819
0.0159603
0.0093778
0.0166081
0.000190547
0.000139499
0.000141809
0.000151616
0.000175526
0.000182658
0.0542116
0.046842
0.000194757
0.00209969
0.000154864
0.000190582
0.000142697
0.0391424
0.000145704
0.000156894
0.0257322
0.000206666
0.0509151
0.0262366
0.0161463
0.00618333
0.000164
0.0220078
0.0495409
0.0608759
0.00463526
0.000162401
0.000190561
0.000150776
0.0501877
0.0088077
0.000182127
0.0298248
0.048635
0.028917
0.000194434
0.0353106
0.00018505
0.000142126
0.000207246
0.000192364
0.000161196
0.000190577
0.000173271
0.000175951
0.0114625
0.0135856
0.000160967
0.000173576
0.000178169
0.000176689
0.000163421
0.0444333
0.00125913
0.000188646
0.01661
0.000149063
0.0309669
0.000146014
0.000166176
0.000161257
0.0313725
0.000182168
0.0359861
0.0271143
0.000192132
0.000187171
0.000192972
0.0383352
0.000368022
0.0243838
0.000193551
0.000181773
0.000153221
0.0320087
0.00246674
0.000194192
0.000152983
0.000181874
0.000164201
0.000163154
0.000183754
0.000178575
0.000152019
0.000178976
0.0303365
0.0200559
0.0199365
0.000181209
0.00013662
0.0371249
0.000173114
0.000190281
0.00743033
0.000180273
0.0460023
0.000141667
0.000180217
0.000166346
0.000178448
0.000148646
0.0300806
0.000186541
0.0527491
0.000182081
0.0533099
0.0472795
0.000163534
0.0370464
0.000190975
0.0458825
0.0163915
0.000186306
0.000161114
0.000178947
0.000194588
0.000166397
0.0544176
0.0256116
0.0039904
0.000142329
0.0485762
0.0496362
0.0522839
0.000145528
0.000183118
0.000154863
0.000173906
0.0521853
0.000171913
0.000170786
0.00014429
0.000142506
0.0538386
0.0281147
0.000154264
0.0541499
0.0445098
0.000140036
0.000164202
0.0317652
0.00222186
0.000206475
0.000147411
0.000167442
0.00532993
0.000153854
0.0001512
0.0437307
0.000170865
0.0303878
0.000196725
0.000164937
0.0583867
0.00865032
0.0275575
0.000144223
0.00543682
0.000169412
0.000166111
0.0392549
0.000180657
0.000154369
0.000210492
0.00016192
0.000168139
0.00014267
0.0485891
0.000149026
0.000182339
0.0529202
0.000240451
0.00015254
0.0515828
0.000171172
0.0249024
0.0406829
0.0269874
0.0029372
0.0353551
0.000142119
0.00019592
0.000163009
0.00014482
0.00671851
0.0553326
0.000161483
0.00234781
0.000163637
0.00019492
0.0266915
0.000164174
0.000355466
0.0250184
0.0298193
0.0405158
0.0396211
0.000154314
0.000148684
0.000170868
0.000180707
0.0139809
0.0457016
0.0393191
0.046359
0.0470282
0.000142289
0.0469567
0.000145641
0.000154833
0.000151943
0.00264461
0.0353494
0.000132915
0.000149556
0.0177464
0.000167646
0.0244349
0.000152534
0.000193123
0.000170453
0.000191729
0.000183927
0.000204926
0.000157209
0.0397981
0.023643
0.000144808
0.0165681
0.0502474
0.000190299
0.000162321
0.000172034
0.000149464
0.000152095
0.000190029
0.000165546
0.0125876
0.0423666
0.000197739
0.00509871
0.000153224
0.046418
0.00019056
0.0492527
0.000174481
0.000175385
0.00563865
0.00017616
0.000194058
0.0004578
0.0218358
0.000162388
0.000155177
0.0490976
0.000172601
0.000160405
0.00017371
0.000173711
0.000148992