/*--------------------------------*- C++ -*----------------------------------*\
| =========                 |                                                 |
| \\      /  F ield         | OpenFOAM: The Open Source CFD Toolbox           |
|  \\    /   O peration     | Version:  v2012                                 |
|   \\  /    A nd           | Website:  www.openfoam.com                      |
|    \\/     M anipulation  |                                                 |
\*---------------------------------------------------------------------------*/
FoamFile
{
    version     2.0;
    format      ascii;
    class       volScalarField;
    location    "800";
    object      p;
}
// * * * * * * * * * * * * * * * * * * * * * * * * * * * * * * * * * * * * * //

dimensions      [0 2 -2 0 0 0 0];


internalField   nonuniform List<scalar> 
13851
(
-0.00378826
-4.6887e-05
-0.047986
-0.0035256
-0.0654228
0.0102084
-0.0231779
-0.0461889
-0.000157046
-0.0326559
0.000259094
-0.0264749
-0.0794969
-0.074101
-0.0151487
-0.028693
-0.0349503
-0.00797627
-0.0757205
-0.000259169
-0.00381701
-0.0498498
0.000765884
-0.000669482
0.000603691
-0.044823
-0.0433156
-0.0923404
-0.00439528
-0.0156316
0.0111712
-0.0354348
-0.0467591
0.00384941
-0.000771635
-0.0989787
-0.101788
-0.0562715
-0.0318052
0.00468697
-0.00803653
0.000305791
-0.0930253
-0.00101173
-0.00106124
-0.0859965
-0.00101052
-0.00733509
-0.0443408
0.00265305
-0.0769825
-0.0794763
-0.0896253
-0.0151902
-0.00903501
0.000296008
0.000398465
-0.0911159
-0.0153996
-0.0243765
-0.056998
-0.0730719
-0.000683338
-0.0691457
-0.00127297
-0.00194164
-0.0992575
-0.00118637
-0.0594251
-0.00748246
-0.0989164
-0.103243
-0.00386002
-0.0152077
-0.00798098
0.000263086
-0.0503797
-0.0883641
-0.0591398
-0.10152
-0.027164
0.0011286
-0.016528
-0.0875389
-0.000127998
-0.0251401
0.00695595
-0.0101476
-0.0416609
0.00110605
-0.103003
0.00153629
-0.00093017
-0.0466442
-0.0420006
0.000327761
-0.0667649
-0.0820357
0.00261519
0.000418912
-0.084742
-0.066219
-0.00897401
-0.047634
0.000184121
0.00640592
-0.0700188
0.00019287
-0.104931
0.00952431
-0.00012441
0.00114243
0.00143421
-0.000644155
-0.000182689
-0.00286064
-0.0826909
0.000279838
-0.00364676
-0.00807416
-0.0930528
-0.0468038
-0.0793946
0.0020608
-0.00807553
0.000895174
-0.00720853
-0.0623035
-0.00357528
-0.0651238
-0.00814493
-0.00222704
-0.0988951
-0.0165375
-0.00459331
-0.00271177
0.000279735
-0.10051
-0.0653854
-0.0506487
-0.0859133
-0.00850422
0.00139659
0.000554912
-0.0267937
-0.00100195
9.64205e-05
-0.0648951
-0.0226116
6.12696e-05
-0.0905653
-0.00767831
-0.0714842
0.000421613
-0.0335964
-0.0259995
-0.00271762
-0.0176589
-0.0814398
-0.075645
5.22089e-05
-0.0528952
-0.0911642
-0.00208232
-0.017071
0.00044887
0.000114294
-0.0608088
-0.00385165
-0.082417
-0.0884444
0.000158141
-0.00287825
-0.0541757
-0.00210702
-0.00737612
-0.0611078
0.00143117
-0.0794526
0.000178379
-0.0355959
-0.100976
-0.016543
-0.0510652
5.31805e-05
0.000681016
-0.0022789
-0.0080648
-0.0645499
-0.0204299
-0.000825187
-0.0900833
0.00117679
-0.0558734
-0.0713068
-0.0321954
0.0012838
0.00571894
0.00131756
0.000249365
0.000909066
-0.0828356
-0.00497028
-0.0130447
-0.0253202
-0.0168555
-0.0510082
-0.0372308
-0.093808
9.5438e-05
-0.0947421
-0.00913496
0.00406494
0.000119374
0.000478589
0.000993418
-0.000367842
-0.086585
-0.0154648
-0.093423
-0.0374526
-0.0279489
-0.0864066
-0.0758323
-0.0974587
0.000612994
-0.0485781
0.000185895
-0.0908809
0.000106567
-0.0433542
0.00910015
0.000150254
0.00115426
-0.0770004
-0.00538298
-0.0517101
-0.00464346
0.00052253
-0.0133501
0.0111417
0.00096325
7.82047e-05
-0.02513
0.000150626
-0.0967099
-0.0657733
0.00556096
-0.0250147
-0.0285726
0.00280932
0.000497921
-0.0228419
-0.0258004
-0.0741478
-0.00871749
-0.0195909
-0.10158
-0.0915179
-0.0170237
0.000494059
-0.00744974
0.0182357
0.000776231
-0.0744052
-0.0316089
-0.0228487
-0.0461795
-0.0870374
0.00149619
0.00295961
-0.0331342
0.0205853
-0.0585331
-0.0277615
-0.00219338
0.00087069
0.00097089
-0.102894
0.000709258
5.88159e-05
5.46648e-05
0.000252749
-0.0735069
0.0179647
-0.00326142
-6.14341e-05
-0.0152345
0.0211714
0.0011473
-0.0652875
-0.0160581
-0.0246634
-0.0595205
0.00116674
-0.0749504
-0.0196455
-0.019664
-0.002245
-0.0959548
-0.0522912
-0.0338051
-0.102028
-0.0126745
0.00736956
-0.0908083
-0.000155453
-0.0687382
-0.0458325
-0.0157629
-0.0652741
-0.0193901
-0.0211373
-0.0860762
0.000354209
-0.0293235
0.0010091
-0.104404
-0.0948003
-0.0156338
-0.0695453
-0.0157517
-0.0891202
0.00311196
0.000697353
-0.0016789
-0.0931185
-0.048075
-0.0344029
-0.0150465
-0.0128714
-0.0206384
0.000375353
-0.0791229
-0.0801217
-0.00438364
-0.101287
-0.0625921
-0.0151226
-0.055607
-0.0647127
0.0017159
-0.00116107
-0.0811386
-0.0719794
0.00156779
0.00784395
-0.0928074
-0.0150711
0.00099425
0.000945381
-0.0439156
-0.0347866
-7.71385e-05
-0.0909686
-0.0028201
0.00812806
-0.00155653
-0.015624
0.000167658
0.000170827
-0.00308205
-0.0929457
0.000725351
-0.0145555
-0.0680619
0.00037816
-0.0164069
-0.0240358
0.00424659
-0.0813647
-0.0143789
0.000564687
-0.0439477
0.00296705
-0.00756035
0.000301744
0.00212558
-0.0863479
-0.00788531
-0.0639285
0.00140157
-0.0818654
-0.0834759
0.000335397
0.000503352
0.00232295
-0.00303055
-0.0149319
-0.00479379
-0.0704807
-0.0724554
-0.0623775
-0.0990352
-0.0903771
0.000414549
-0.0173225
-0.0813915
-0.0994752
0.00631649
-0.0825289
0.00229308
-0.0447186
0.000508292
-0.0630398
6.28123e-05
-0.029912
0.00216803
-0.0217184
0.000198388
-0.000128463
0.000425716
-0.0698319
-0.0044852
-0.0880401
-0.00644479
-0.0706104
0.00287737
4.85324e-05
-0.0275483
-0.0447358
-0.03311
0.00168375
0.000269856
-0.000180041
0.00055327
-0.0585431
-0.000949099
-0.0731327
0.00239147
-0.0887216
0.00540594
0.00657734
-0.00769339
-0.0782675
-0.0076112
0.000153892
0.00035122
-0.0391369
-0.00331389
-0.0439813
-0.0917383
0.00141473
0.000972041
-0.0046199
-0.0857304
7.48708e-05
-0.0461181
-0.0603643
0.00151908
1.34143e-06
-0.0200173
-0.0896486
-0.0788862
-0.00499398
-0.0110135
0.000617836
-0.00156117
-0.0921899
-0.0163286
6.26336e-05
-0.00809397
-0.00293807
-0.00343727
-0.000251701
-0.0134583
-0.0164861
8.45509e-05
0.00134578
-0.0841721
-0.0167206
-0.0632828
-0.00279593
0.00253884
0.00127318
-0.000889034
-0.00569805
-0.000761033
-0.000752597
-0.00595202
-0.0234863
0.00806767
-0.0165367
0.000578588
-0.0813316
-0.0919253
-0.0174561
0.00275577
-0.0285796
0.0015355
-0.0878905
-0.00166967
0.000717687
-0.00789953
-0.0609887
-0.0227541
-0.0904584
0.000234866
-0.0895261
-0.017522
0.000324806
0.00253138
-0.0819234
-0.0425736
0.00283575
-0.00382327
0.00412484
-0.00916503
-0.00154175
-0.00196224
-0.0215746
-0.100257
-0.0733497
-0.0880014
-0.0822687
-0.00114108
6.94654e-05
-0.0755425
-0.00144802
-0.0367343
-0.0522615
0.00199395
0.00328531
-0.0938682
-0.0145042
-0.0903091
-0.0866509
-0.0836255
-0.0181079
0.00268386
0.00404105
0.000987109
-0.00408443
0.00627064
-0.0410695
-0.0171323
-0.0447045
-0.0938194
0.000243154
0.000999517
-0.0748019
-0.0906527
-0.0245593
-0.0136351
-0.00277215
-0.0105252
-0.0653813
-0.00842727
-0.00940809
-0.011266
-0.00139996
-0.0922336
-0.0893596
0.00759162
-0.00359567
-0.0618817
3.63044e-05
-0.000124054
0.000176492
-0.0777698
-0.0345295
-0.09046
-0.0909972
0.000280883
0.00424261
0.000576944
-0.0439462
-0.0784458
-0.100147
-0.0967263
-0.00784278
-0.021966
-0.0044158
-0.0906145
-0.0918761
-0.0631828
-0.000269129
0.000177259
-0.00970293
-0.0405996
0.000269193
-0.0237386
0.000158487
-0.00387371
-0.091659
-0.0675525
0.00178542
0.00025874
-0.0638594
0.00595602
-0.00257189
0.000511816
0.000814003
-0.0150311
-0.0870392
0.00519734
0.00542784
-0.0838809
0.00543599
-0.0616541
-0.0902672
-0.0928001
0.00157934
-0.0590144
2.12261e-05
0.000964758
-0.0330438
-0.0829772
0.011865
-0.0893523
-0.0404941
-0.000269061
-0.0258185
0.00139154
0.00323512
-0.0731055
-0.0162733
-0.00453268
-7.01495e-05
-0.0474416
-0.0718394
-0.0237022
-0.00729273
-0.0252874
-0.0219795
-0.064747
-0.0579554
-0.0744823
-0.0236615
-0.0930413
-0.000310188
0.008744
0.00278227
-0.084283
-0.0096048
0.000199731
-0.10529
-0.0112377
-0.0844524
-0.0936295
-0.0882127
-0.00706841
9.13948e-06
-0.105784
7.27977e-05
-0.00357661
0.000216197
-0.00391221
3.32253e-05
-0.00568407
-0.0135519
0.000248256
-0.0560463
-0.0182161
-0.0593179
-0.00228495
0.000170058
0.000555377
-0.0657189
-0.0684647
-0.0788456
-0.0475263
8.07054e-05
0.000495054
-0.00147136
-0.00228262
-0.0908112
-0.0336971
-0.0216102
0.000220861
-0.0216744
-0.00245183
-0.0363387
-0.0905201
-0.0268159
-0.0811142
0.00414369
-0.00733516
-0.0866767
-0.0835541
-0.0600224
-0.0245059
-0.0267042
-0.00785434
-0.0776931
-0.00680801
0.00566801
-0.0171387
0.00193037
0.000132111
-0.0658707
-0.0920356
0.000628158
-0.0103209
-0.00101676
-0.00151986
-0.0349728
0.011296
-0.0600533
-0.0716702
-0.0736496
0.000872726
0.000150426
-0.00236114
-0.0813878
-0.0892313
-0.00463083
-0.0929281
0.000464209
-0.0143064
0.00025738
0.00482386
-0.0975235
-0.0195881
-0.00602373
0.00112709
-0.0415136
0.000537578
-0.0909988
-0.00689299
-0.0888445
0.000327663
-0.0215838
-0.089343
-0.0908836
-0.0984355
0.00130604
-0.0979933
-0.0168481
0.00109324
-0.0493494
-0.0440384
-0.0286805
-0.087833
0.00251988
0.00161207
-0.0985883
0.000169373
-0.00493608
-0.0166868
-0.000254022
-0.091544
-0.0356953
-0.0796068
0.00129846
0.00108935
-0.000316411
0.0110462
-0.00210967
0.00259503
0.000221776
-0.00707692
-0.00600109
-0.0889289
-0.00300728
0.000356865
-0.00356039
-0.0225848
-0.0898671
0.000388512
0.00133681
-0.0812796
-0.0347076
0.00252079
-0.00104402
0.0146151
-0.0800799
-0.0234392
-0.0912008
-0.0647223
-0.000223703
0.00242186
-0.0928958
0.0104962
-0.0261598
-0.00145262
0.000216887
-0.00338285
-0.0425875
-0.013433
-0.0189669
0.00247887
-0.0146942
0.00132046
-0.0934359
0.00135766
-0.0632013
0.0120263
-0.021175
-0.0624495
-0.0801044
-0.104005
-0.0186641
-0.0491624
-0.0806834
-0.0228857
-0.0843871
0.00303918
-0.0738211
-0.0605242
-0.0852335
0.000671782
-0.0333272
-0.000286213
-0.00460315
-0.0910253
-0.0864979
-0.00112786
0.00064103
-0.0767089
-8.14256e-05
0.000379464
-0.0900351
0.000422708
-0.0157377
-0.0913987
-0.0889414
0.00115653
-0.0035004
-0.015461
-0.0908168
-0.0916927
-0.0912506
0.000950626
-0.0794098
-0.0440656
-0.0678367
-0.0685662
-0.0666846
-0.0204868
-0.0225544
-0.00154647
-0.0809113
-0.100377
0.00269584
-0.0609967
-0.0903011
-0.0755437
-0.0890096
-0.0187495
-0.0610078
-0.00247365
-0.0248132
-0.00988785
-0.0284583
-0.0154483
-0.0995798
0.00038304
-0.0803188
-0.00886152
-0.0522795
-0.0628852
-0.0596872
-0.0805531
-0.0711897
-0.0121642
-0.000650039
-0.079521
-0.00599456
0.000971876
-0.0224636
-0.0885488
0.000745754
-0.0592475
5.60671e-05
-0.0182394
-0.0977036
-0.0851552
-0.0899151
0.000622994
0.00278928
-0.00179921
-0.0885164
-0.0153905
0.00221231
-0.0943267
-0.00260612
-0.0383423
-0.0572691
0.00482537
-0.047363
-0.0197436
0.000388607
-0.00409152
-0.092323
-0.0790864
-0.0257479
0.000594492
4.20428e-05
-0.0904498
-0.0799895
0.000367335
-0.0342658
-0.00175348
-0.0048751
0.00126522
0.000456701
-0.0436201
0.000307391
-0.0156077
0.00141847
-0.00167337
-0.0174208
-0.094259
-0.0823886
-0.0468146
-0.0498291
-0.0090847
-0.0448249
-0.00169842
-0.00185642
-0.0141431
-0.0151604
-0.0935839
-0.017521
-0.0769242
-0.0188411
-0.0271971
0.00119605
-0.0919255
-0.00360031
-0.0052032
-0.0135845
-0.085236
-0.0366205
-0.0425116
-0.0987773
-0.0478369
-0.00651513
-0.0275793
0.00942384
-0.090366
-0.0478579
0.000457255
-0.00967519
-0.0699159
-0.0676043
-0.0484711
-0.00104044
-0.0528884
-0.00224964
-0.00240027
-0.0708128
0.000907087
-0.0777616
-0.0292307
-0.00206483
0.00358793
-0.00234023
-0.0155286
0.000101436
-0.0260398
-0.0981223
-0.00273415
-0.0847175
-0.0911934
-0.024441
-0.0602476
-0.0219913
-0.00200848
0.000970182
-0.0102897
-0.00230729
-0.0819746
-0.0298307
-0.000247947
-0.00629906
0.000577356
-0.0888063
-0.0320302
0.00060639
-0.0826453
-0.0908393
-0.00956014
0.00775486
-0.0413274
-0.00294402
-0.00113123
0.00462781
-0.00414938
-0.00827361
-0.00108743
0.00353695
-0.0902975
-7.47373e-05
-0.0793977
-0.0352681
-0.0406001
8.97352e-05
0.000383573
-0.0406482
0.00577075
-0.00467177
0.00055832
-0.0155531
-0.00567984
-0.0187248
-0.03827
3.97197e-05
0.0046922
-0.0788215
0.00133937
0.000599353
-0.0126438
0.000267132
0.00271979
-0.0465779
-0.0507199
-0.0487858
-0.0306085
0.000626453
-0.0304573
-0.000142688
-0.0875353
-0.0865954
0.00614732
-0.0814486
-0.0143653
0.000708324
-0.00588622
0.00276079
-0.00242463
-2.44374e-05
-0.00200097
0.000572917
-0.0778554
0.000460386
0.000510138
-0.0282834
-0.0534294
-0.0954998
-0.00722309
-0.00552591
-0.00628669
-0.0820157
-0.0714556
-0.0349586
-0.0844459
-0.0571224
-0.0839413
0.000554266
-0.0699564
-0.0135734
0.000556486
-0.00601756
-0.0880956
-0.0919824
0.000562671
-0.0472735
0.00132807
-0.0147933
0.000303809
-0.0109418
0.00646484
0.00780697
6.08084e-05
-0.0522241
-0.00297643
-0.0955619
-0.000896392
-0.000316392
7.53091e-05
-0.0561645
-0.0369877
-0.0914225
-0.0934472
-0.0815574
-0.0548893
-0.0898098
0.00189981
-0.0808533
0.000508801
-0.0258566
0.000447443
-0.0232938
-0.0523493
-0.020448
-0.0906607
-0.0354618
-0.044406
0.000221367
-0.0808349
-0.0075304
-0.0156191
-0.0394966
-0.0197854
0.000739306
-0.00397372
-0.00399138
0.00137848
0.00418938
-0.00727496
-0.0489148
0.00106797
0.000873895
-0.0824837
0.000455778
0.000695961
-0.0285762
-0.0899759
-0.0411698
-0.0365325
-0.0719869
0.00416079
0.000537281
-0.0915428
-0.00378465
-0.0569997
-0.0467502
-0.0928371
0.00220395
-0.0662843
0.00602772
-0.00925416
0.00241171
-0.0162825
-0.0907563
-0.00531593
-0.0902548
0.00102544
-0.0512693
-0.0897122
-0.0298525
-0.093083
-0.0832277
0.000425032
-0.0154205
-0.0920867
-0.0158503
-0.0997057
-0.0117575
-0.0127992
-0.0920698
-0.0708524
-0.0909787
-0.0123155
-0.0219407
-0.0150126
-0.0886238
-0.0950222
-0.0255245
0.00450515
-0.0440097
-0.050641
-0.0915855
-0.00100662
-0.0173846
-0.0972182
-0.0419411
-0.00544994
-0.0854213
-0.0703375
-0.0236927
-0.0019562
-0.0920558
-0.0915899
0.00083923
-0.00660376
-0.0493298
0.000383355
6.14972e-05
-0.00735959
0.00229514
-0.012106
-0.0769876
0.000391117
-0.0830152
-0.0313415
-0.0921462
-6.67016e-05
-0.0528826
-0.0779986
-0.0544884
0.00404087
-0.0111818
-0.055254
-0.000990404
-0.015724
0.000723054
-0.00541138
-0.00704159
-0.101459
-0.00206024
0.00159335
-0.0894271
-0.0397031
-0.0406207
-0.0267862
0.00104187
-0.00200255
-0.0601161
-0.0971716
-0.0825557
-0.00257666
-0.0728746
-0.00206945
-0.0100804
0.000446509
-0.0900321
-0.0571256
-0.0268905
-0.0864927
-0.0494061
0.00461592
-0.0976871
-0.101015
0.00402899
0.000810606
-0.00233519
0.00539983
-0.0708477
0.00017943
-0.0884425
-0.0106701
-0.00845176
-0.0358542
-0.0910191
-0.0118434
-0.0745604
0.00617821
-0.088753
0.00666986
0.00698651
-0.0093367
0.00407905
0.00199909
0.00114267
-0.0321473
-0.0920249
-0.0861771
0.000338892
-0.0930742
-0.0181095
-0.101354
-0.0927567
-0.0588151
-0.0123592
-0.0040736
0.000311585
-0.00646456
-0.0932782
-0.0110802
-0.0289378
-0.0118854
-0.0734533
-0.10163
-0.0871676
-0.00532114
-0.0927687
-0.0184663
-0.0162596
-0.00784116
0.000495407
-0.0914276
-0.027002
-0.0938901
-0.00617975
0.00327121
-0.0899846
-0.0144711
-0.0231578
-0.0143922
-0.0984392
0.00128305
-0.0278039
-0.00546061
-0.00730411
-0.0895129
-0.0304606
-0.0354177
0.00113496
-0.0340724
-0.0508789
-0.0949839
-0.00321596
-0.0634593
0.00023654
-0.000896354
0.000825371
-0.0700396
-0.0232175
-0.0619953
-0.0420832
-0.0153476
0.00459922
-0.0085269
0.00104111
-0.0153057
0.000529778
0.00125611
-0.0847328
-0.0436248
-0.00226211
0.00197154
0.000536103
-0.0876431
-0.0834679
-0.0712941
-0.0580983
-0.016783
0.00208121
0.000146357
0.000101417
-0.0805274
-0.0988011
0.000362692
-0.0154463
-0.00130332
-0.094415
-0.0269743
-0.0283112
-0.10089
-0.0293776
0.00223082
-0.0953637
-0.104155
-0.0118418
0.000860968
-0.0133726
-0.0961888
-0.098368
-0.0436907
-0.087783
-0.086428
-0.0346318
-0.100473
-0.0352178
-0.00639973
-0.0729222
-0.083409
-0.0139154
-0.0911932
-0.0211
-0.00117121
0.000332341
-0.0803133
0.00427013
-0.0967841
-0.0259975
-0.0358985
-0.0643555
0.00356688
-0.09501
-0.100447
-0.0019049
-0.0306109
-0.097957
-0.0668151
-0.0914881
-0.035647
-7.23274e-05
-0.00668364
0.00204545
0.000360881
-0.00396578
-0.0148342
-0.0131673
-0.0343623
-0.0322127
-0.0413012
0.0018653
8.5692e-05
0.000553813
-0.0273225
-0.0357765
-0.00557656
-0.068845
-0.0424834
-0.023287
-0.0652642
-0.034285
-0.00169278
-0.0990983
-0.00297892
-0.000595174
-0.0927147
-0.0845267
-0.0914133
0.00910227
-0.00114244
-0.0869757
-0.00174237
0.00061561
-0.0507781
-0.00474914
-0.066279
-0.0774866
0.000854784
-0.0903058
-0.095557
-0.0328582
-0.0713574
-0.0877726
-0.0171392
-0.00472389
-0.0675441
-0.0918627
-0.0405197
-0.0852544
8.75605e-05
-0.0126024
0.00113779
-0.0247494
-0.0990054
-0.0809976
-0.0922753
-0.0822301
-0.0374783
-0.0215017
-0.0225093
0.000409014
-0.00843025
0.000300085
-0.083407
-0.00557796
-0.0955466
-0.0181902
-0.00108282
-0.0590029
-0.0980844
-0.0880344
-0.0939291
-0.064772
0.000411012
0.0011341
-0.0913205
-0.0854568
-0.041281
-0.00404909
0.000171526
-0.0479186
-0.0359163
-0.0950343
-0.0405508
-0.038604
0.000364822
-0.0976737
0.00190421
-0.0933469
0.00978396
-0.00662185
-0.0710811
-0.006477
-0.10526
0.000517168
-0.0995613
0.000813787
-0.037866
-0.00321733
-0.0148718
-0.0013555
-0.0496798
-0.0637205
-0.0905682
-0.0860107
-0.040587
-0.0408112
-0.00957535
-0.0926224
-0.0898173
-0.00155648
0.000623584
-0.00166482
0.000245974
-0.101439
0.000294576
-0.00510445
-0.0410578
-0.0032293
-0.012477
-0.00165511
-0.0219505
-0.0842904
-0.0911496
-0.0109902
-0.00217181
-0.0747825
0.00557177
-0.0246227
-0.0193077
-0.0878803
-0.0547114
-0.0376734
-0.0148762
0.000232916
-0.00104752
-0.0902706
-0.0903393
-0.0415399
0.000931558
0.00432317
-0.00169279
-0.0935922
-0.000774082
-0.089842
-0.0908375
-0.0259292
-0.0367819
0.00462244
-0.0193168
-0.0123449
-0.0233134
-0.0960986
-0.0276643
-0.08471
-0.00214175
-0.0100703
-0.00199038
-0.0165717
-0.0794091
-0.0958179
-0.032146
-0.0896214
-0.0780147
0.000862494
-0.0154764
0.000595306
0.00187904
-0.0993825
-0.100745
-0.0231377
-0.00955274
0.00817829
-0.0425472
-0.0627405
-0.0892876
-0.031609
-0.0963436
-0.0646545
-0.00673589
-0.0150246
-0.00186364
-0.0696883
0.00291004
0.00164108
-0.0964441
-0.0467322
-0.0718096
0.00197441
-0.0374847
0.00040285
-0.0921449
-0.0834626
0.00216436
0.00585207
-0.0386183
-0.0166892
-0.00449207
-0.0154788
0.000280328
-0.0920038
-0.0342491
-0.0898248
-0.0235845
-0.0712283
-0.0356346
-0.0957086
0.00331779
-0.0496402
-0.0908248
-0.0193794
0.00583999
-0.100638
-0.00145727
0.00295942
-0.0419966
-0.0863979
-0.0911698
-0.0226159
0.00251426
0.00528945
-0.00400392
-0.00193412
-0.0149151
-0.0842848
0.00273871
-0.0367365
-0.0222177
0.000570111
-0.0231326
-0.0741483
0.0109405
-0.0868754
0.00217247
-0.00128405
-0.0208184
-0.0990882
-0.0342278
-0.0594624
-0.0805422
-0.06989
-0.00178664
-0.0179272
-0.0376271
-0.0890236
-0.0836896
-0.0162527
-0.0930963
-0.0309376
-0.00401608
-0.0131972
-0.0829615
-0.0395715
0.00226108
-0.0917377
-0.0124142
-0.027059
-0.00555466
-0.0891378
-0.0106935
-0.0735549
-0.00312905
-0.00122687
-0.0283355
-0.0104677
-0.0687305
-0.0924056
-0.0020103
-0.0279536
-0.0550708
4.56301e-05
-0.0194876
-0.0182812
-0.0462606
-0.0674206
-0.0694453
-0.00828137
-0.0906564
-0.0415268
-0.0668705
0.0101045
-0.0327092
-0.000259191
-0.0931049
-0.0946942
-0.0533109
0.00333926
-0.0837621
-0.0864223
-0.0209986
-0.0242017
0.000316865
0.00390027
-0.0945381
-0.00103712
-0.0951634
-0.0107062
-0.0795159
-0.0127764
-0.0913524
0.0004628
-0.00439264
0.00401338
-0.0315076
-0.0846104
-0.095756
-0.0858953
-0.037797
0.000361454
0.00906786
-0.00303257
0.00115023
-0.0990156
6.16298e-05
-0.0633355
-0.0161762
0.00359898
-0.00946127
-0.00108
0.00242235
-0.00228933
0.00471708
-0.028487
-0.100432
-0.00563569
0.00308923
-0.00526252
-0.00126215
-0.0166913
-0.0221451
-0.0287792
-0.0434021
-0.00461528
0.00143821
-0.0831869
0.00121488
-0.00152454
-0.00683937
-0.0257858
0.000640506
-0.0989549
-0.0198575
-0.00846163
-0.0832953
-0.0461475
0.00115691
-0.0948247
-0.0910313
-0.00285094
-0.0329502
-0.0255162
-0.0304482
0.00251514
0.000674277
-0.0456468
-0.0919861
-0.0997645
-0.0845012
-0.024704
-0.0914399
-0.000873099
-0.0293306
0.00115637
-0.0861467
-0.0164282
-0.0418609
-0.0151881
-0.0985554
-0.0869485
0.00946111
0.000644675
-0.0346625
0.000844413
-0.022558
-0.0753675
-0.0104667
0.00303505
-0.0926792
-0.0969053
-0.00094664
-0.0431459
-0.0458349
-0.0841775
4.97564e-05
-0.0883831
-0.0917894
0.00527673
0.00626292
-0.079711
-0.0364695
9.54607e-05
0.008696
0.000850035
-0.0359996
0.00033067
-0.00423767
-0.0934549
-0.0922008
-0.0903191
0.000478377
-0.0977809
-0.0199643
-0.0646649
0.000965084
-0.0221642
-0.0343496
-0.000974122
-0.0853743
-0.0373803
-0.0446944
-0.0705543
-0.0888902
-0.0402164
-0.0803569
-0.0875412
-0.0897576
-0.00324775
-0.0932834
0.000581676
0.000306049
-0.0153201
0.00113463
0.00106662
-0.0905241
-0.00250443
0.00194359
-0.00894963
-0.09197
-0.0898891
-0.00169066
-0.000918817
-0.023602
-0.0328571
-0.0858685
-3.32953e-05
4.8904e-05
-0.0111612
-0.0298706
-0.00214575
0.00213935
-0.0907456
-0.0624168
-0.0464706
-0.000305229
0.00290192
-0.0263002
-0.100643
0.000417896
-0.0922701
-0.0632313
-0.020625
-0.090616
-0.0899504
0.000663961
-0.0872633
-0.0273512
-0.0905179
0.00219024
0.00572963
0.00201941
-0.0250908
-0.0211947
-0.0801344
0.00116426
0.00110086
0.000887636
-0.0848457
-0.0584343
-0.0915791
-0.0868813
-0.0207572
-0.0939084
-0.0312817
-0.05484
-0.080794
-0.0907609
-0.0129341
-0.0892588
-0.0416477
-0.0223707
0.0020001
-0.0961821
-0.057776
-0.0364482
-0.0719085
0.000676962
-0.0898499
0.00184267
-0.0453664
-0.0154151
-0.00527357
-0.0907045
-0.0562643
-0.0689878
-0.0302273
-0.0338815
0.00560823
-0.0738458
-0.0549892
-0.0905831
0.0039945
-0.0902081
-0.0116248
-0.0726193
-0.0576298
-0.083303
-0.0167156
0.00111181
-0.00311971
-0.0933427
0.00197036
0.00372182
0.00243111
-0.0240707
0.000850477
-0.0165383
-0.0842104
-0.103224
-0.0841741
-0.089491
-0.00581286
-0.08007
-0.0897218
-0.0895395
-0.0919124
-0.0901975
-0.00880979
-0.088116
-0.0407933
-0.0542572
-0.0989116
-0.0744286
0.000819004
-0.0694122
-0.0061651
-0.0178819
-0.0488118
-0.0876072
-0.100839
-0.09362
-0.0277043
-0.0251574
-0.00957857
-0.0925574
-0.0902918
-0.0116924
-0.0783566
0.00172892
-0.0185286
-0.018126
-0.0845819
-0.0719447
-0.0225732
-0.0168224
-0.0350574
-0.0128742
0.00149448
-0.0284105
0.000438202
-0.0241258
-0.014038
-0.0730744
0.00239306
-0.0746359
-0.0207769
-0.0191293
-0.0891361
-0.0895975
-0.0155953
0.00379382
-0.0153281
-0.0508246
-0.00186524
0.000848285
-0.0370752
0.000183282
0.0154135
-0.018214
9.35985e-05
-0.0188912
-0.0609426
-0.00540897
-0.0894227
-0.0189145
-0.0111595
-0.0922108
0.00540282
-0.0424274
-0.000164626
-0.016867
0.000630058
-0.0179602
-0.00120325
-0.0371976
-0.0163868
-0.0898832
0.00795292
-0.0234946
-0.0300584
0.000608058
-0.0112927
-0.00422284
0.0021716
-0.0737279
-0.0919745
-0.00131989
-0.0263274
-0.0150339
-0.0203189
-0.00348174
-0.0244942
-0.00799368
-0.020131
-0.0804169
0.000464504
-0.0717294
-0.0885871
0.00184491
-0.0082036
-0.004568
-0.0431337
-0.0500867
-0.00362246
-0.0399179
-0.0965426
-0.00156532
0.00137043
-0.0876796
0.000467787
0.00362378
0.000523661
0.000483977
-0.00225532
0.000698062
0.00237149
-0.0781391
0.00505534
-0.0421546
-0.0225394
-0.00353508
-0.00159251
-0.0570076
-0.0884641
-0.0918896
-0.0676078
-0.0513357
-0.086131
-0.0866638
0.00306671
-0.028418
0.00107296
-0.0121303
-0.00478483
-0.0320491
-0.0529057
0.00196273
-0.0179031
-0.0234703
-0.000835367
0.00123971
-0.0178048
0.00242919
0.000956649
0.00145148
-0.0827917
-0.0809892
0.0106439
-0.0164843
0.000732672
-0.0787977
-0.0684288
-0.0909754
-0.0476668
-0.097764
-0.00405003
-0.0979371
-0.101373
0.0112202
-0.0145191
-0.0167733
2.38428e-05
-0.0107556
-0.00691311
-0.00531608
-0.0314731
-0.0895605
-0.0756292
-0.0922156
0.000711808
-0.0546224
-0.0956228
-0.0146678
0.000491838
0.00134688
0.000529137
-0.0276892
0.00286279
-0.0526912
0.0102741
-0.0962519
-0.044936
-0.0890124
-0.0607103
-0.0921418
-0.100544
-0.011201
0.000526441
0.00148505
-0.015059
0.000680604
0.00415469
-0.0904666
-0.0953445
-0.0171751
-0.0193217
0.00183499
-0.0353813
-0.054076
0.000569465
-0.00532353
-0.0842153
2.16134e-05
0.00504229
-0.034256
-0.0471717
-0.0256308
-0.0945291
-0.0678245
-0.0204326
-0.091848
-0.0800172
-0.0951379
0.000531553
-0.0228033
-0.00176699
-0.030397
-0.0819771
0.000440158
-0.0915172
0.00127731
-0.00213822
-0.0163802
-0.0966383
-0.0647588
-0.0765882
0.00744478
0.000115544
-0.0175365
-0.0909705
-0.0260073
0.00108934
0.000271839
-0.0135414
-0.0024151
-0.00033859
0.000357961
-0.100066
-0.098444
-0.093138
-0.0275404
-0.0761826
-0.089472
-0.0860718
-0.0997495
-0.0624416
0.00048598
0.000505126
0.000263092
-0.0120411
-0.0939066
-0.0922062
0.00084098
-0.091844
-0.1003
-0.061461
0.00050433
-0.0141233
-0.0688729
-0.0829219
-0.0905334
-0.0153674
-0.0914639
0.000236646
-0.0761338
-0.0666342
0.00170425
-0.0996086
-0.016267
-0.0930331
-0.0902684
-0.0214666
-0.0682024
-0.010926
0.00153103
-0.0898975
-0.0980083
-0.0869978
-0.0333605
-0.0881099
-0.0967909
-0.100096
-0.0959607
-0.0895088
-0.0851155
-0.0702052
-0.0192288
0.00112474
-0.0656799
-0.0943941
0.0014677
-0.0968833
-0.000734648
-0.0507381
-0.0191471
-0.00054239
-0.0876313
-0.0164853
-0.0885599
-0.0894532
-0.0162767
-0.0436938
-0.0518095
-0.0987764
-0.0695411
-0.0562819
0.00226742
-0.00185032
-0.0946035
0.00127236
0.00111026
-0.0584257
-0.0357635
-0.0969881
-0.0395881
-0.0120031
-0.0334329
0.000615586
-0.0543609
-0.0237649
-0.0862263
0.0024176
-0.00126052
-0.102773
-0.0693687
0.000746786
-0.0916239
-0.0898642
-0.0152673
0.0103666
-0.0270984
-0.0994672
0.000455448
0.000846421
-0.0965528
-0.024642
-0.0961418
-0.0925774
-0.0751673
0.00975316
-0.00202026
-0.0171502
-0.0505035
-0.0464431
-0.00270479
-0.0946175
-0.076627
-0.00461687
-1.01273e-05
-0.0598056
-0.0213666
-0.0884269
-0.0785242
0.00176494
-0.0870954
-0.0801793
-0.0452851
-0.0014641
-0.0973402
-0.0957917
-0.0825203
-0.017004
0.000835323
-0.0669262
-0.0265913
0.00218125
-0.00279473
0.00194154
-0.000462842
-0.0110653
-0.00109664
0.0016524
-0.0414753
-0.0882803
-0.10052
-0.00515719
-0.0845927
-0.0914961
0.000306623
-0.0948693
-0.0949599
-0.0948429
0.000147325
-0.0568078
-0.09269
-0.0894913
-0.0915028
-0.072794
0.0133016
-0.09945
-0.0786457
-0.0840789
-0.000900054
-0.0672547
-0.0761545
-0.015759
-0.0828663
-0.0855145
0.00378302
-0.0892266
-0.101857
-0.0115619
-0.00166788
0.00256135
-0.0160129
0.0126533
0.000538371
-0.000777228
-0.102974
-0.0955635
-0.00609697
-0.0710694
-0.000763914
-0.0339788
-0.0911897
-0.0954997
-0.0912418
-0.0539743
-0.09383
-0.000710293
0.000442958
-0.0437288
-0.0897495
-0.102185
-0.0757099
-0.0947931
-0.0318111
-0.000463995
-0.0159935
-0.0287899
-0.0498795
-0.0833398
-0.0982489
-0.0360582
-0.0884146
-0.0883648
0.000182547
-0.0844924
-0.0185464
-0.0443226
-0.00218124
-0.0178329
0.000849139
-0.0407761
-0.0386415
-0.0717602
-0.09611
0.000606187
-0.0752032
-0.0378816
-0.0383164
-0.0821317
-0.0338748
-0.0978312
-0.00176476
-0.0909201
-0.0956652
-0.0873913
-0.0950796
0.000524324
-0.0697765
-0.103185
-0.100507
0.000447142
-0.0711876
0.000873185
-0.00468982
-0.0158159
-0.049093
-0.101705
-0.0889186
0.000285002
-0.0893514
-0.0488088
0.000671619
-0.00422596
-0.0187617
-0.00629307
-0.0612446
-0.0997581
-0.10045
-0.0883304
0.00233498
-0.0113058
-0.0461494
-0.0016203
-0.0989856
-0.00236865
-0.00192967
-0.0429441
-0.0728964
-0.0187188
-0.0970216
-0.0581984
-0.0928276
-0.0277428
-0.0812689
-0.0893087
-0.0953295
-2.74976e-05
-0.000957224
-0.0435477
-0.0190371
-0.0815525
-0.0907813
-0.0459484
-0.0691584
-0.0839346
-0.0636871
-0.0454307
-0.0260404
-0.0048665
-0.00595021
-0.0961188
-0.0258316
-0.0385482
-0.0409676
-0.0396743
-0.0336721
-0.0908024
-0.0920705
-0.0163525
-0.0284121
-0.0521771
-0.0203396
0.000700227
-0.0318056
-0.0655099
0.00214939
-0.0883873
-0.0172459
-0.0971787
-0.0166186
-0.00561348
-0.0211485
-0.0955786
-0.0218384
-0.103435
-0.083183
-0.0437108
-0.00140203
-0.0894208
-0.0275834
-0.0960294
0.0116047
-0.00757727
-0.0769762
0.00108561
-0.101289
0.00709869
-0.00639807
0.00058646
-0.0205454
-0.0474604
-0.0263913
-0.0777054
-0.0735738
-0.0210002
-0.0171425
-0.0803462
-0.0840368
0.00237548
-0.0604652
0.000365996
-0.0336006
-0.0566286
-0.0823886
0.0117153
-0.0775412
-0.0182579
0.000696122
-0.0142703
-0.0044855
-0.0161149
-0.0105805
-0.10297
0.00212753
-0.06449
-0.0159673
-0.0894094
-0.0964036
-0.0485882
-0.0290872
-0.0818876
-0.0938256
-0.0893566
-0.00226203
-0.0356325
-0.0749975
-0.0479408
0.000771049
-0.0846736
-0.101077
0.000641155
-0.00597796
-0.0988716
-0.0360467
-0.0152817
-0.0145109
-0.0606721
0.00045732
-0.0295607
-0.056672
-0.0323591
-0.0372256
-0.00460909
-0.00471527
-0.0223734
-0.0889925
-0.0052494
-0.0209709
-0.0922759
0.000686683
0.001643
-0.102657
-0.0621709
-0.0754051
-0.0172367
-0.0392573
-0.0275066
0.000580796
-0.00361161
-0.0530513
-0.0413299
-0.101761
-0.086929
-0.045011
-0.102393
-0.0449375
-0.0612473
-0.00560754
0.00477627
-0.0612072
-0.0423558
-0.00858092
-0.0610066
-0.0109358
-0.0368934
-0.0393165
0.00123306
0.000768299
0.00486011
-0.0159739
-0.00457372
-0.0614224
-0.0643065
0.000600575
-0.0652842
-0.0560347
-0.0828714
-0.0373365
-0.094781
-0.0478528
-0.0973214
-0.00224887
-0.0737741
-0.0495033
-0.0106438
0.00292534
-0.0332644
-0.0518084
0.00585141
0.00158774
-0.0690935
-0.0960902
-0.0485703
0.00109748
0.00236276
-0.0738463
-0.0264467
-0.0155513
0.000900549
-0.000767349
-0.0054786
-0.0170883
0.00950428
-0.0163286
-0.0982973
-0.0337133
-0.0966379
-0.0045068
0.00520516
-0.0165852
-0.0363956
-0.019561
0.00724512
-0.0424854
-0.00677653
-0.00473978
-0.0875524
-0.040378
-0.0902509
0.00114937
-0.0271151
-0.0563876
-0.0882272
-0.0406792
-0.0770463
-0.0349269
-0.0612676
-0.026402
-0.00582683
-0.0859348
-0.0976025
-0.00148483
-0.0141062
-0.0391384
-0.01201
-0.00262265
-0.0841607
0.00164797
-0.0912761
-0.0882532
-0.080823
0.00740534
0.00118546
0.00259725
-0.0805127
-0.0306531
-0.0222957
-0.0203057
0.00434683
-0.0182338
0.0044631
-0.00145094
-0.0935665
-0.0144863
-0.0104663
-0.0831784
-0.0552583
-0.0329283
-0.000338576
-0.0242458
0.000993669
-0.0238151
-0.0990089
-0.000442906
-0.0429514
-0.0919353
-0.0818107
-0.0654225
-0.0098244