/*--------------------------------*- C++ -*----------------------------------*\
| =========                 |                                                 |
| \\      /  F ield         | OpenFOAM: The Open Source CFD Toolbox           |
|  \\    /   O peration     | Version:  v2012                                 |
|   \\  /    A nd           | Website:  www.openfoam.com                      |
|    \\/     M anipulation  |                                                 |
\*---------------------------------------------------------------------------*/
FoamFile
{
    version     2.0;
    format      ascii;
    class       volScalarField;
    location    "200";
    object      k_0;
}
// * * * * * * * * * * * * * * * * * * * * * * * * * * * * * * * * * * * * * //

dimensions      [0 2 -2 0 0 0 0];


internalField   nonuniform List<scalar> 
13851
(
0.000232033
0.000159742
0.000159525
0.0139998
0.000148471
0.0001624
0.000163019
0.000149012
0.0545259
0.000148773
0.000181887
0.000148626
0.000149757
0.0274612
0.000178952
0.000102
0.0123643
0.000151275
0.0342744
0.000231349
0.000180984
0.000159128
0.0416008
0.000149734
0.0860307
0.000201012
0.0671931
0.0905728
0.058737
0.000148536
0.031642
0.000162903
0.000232779
0.0676541
0.000174675
0.0602918
0.000149811
0.0757467
0.0487373
0.000150442
0.0593421
0.0624054
0.00443086
0.000236655
0.0653632
0.000149123
0.000146729
0.000244079
0.00015569
0.000149687
0.0180873
0.000149853
0.00013599
0.000175593
0.0274157
0.000150394
0.000233163
0.0568522
0.0678866
0.0243424
0.000148663
0.0607441
0.000148744
0.00015597
0.000185274
0.000186301
0.0191808
0.000167625
0.0001511
0.0196878
0.02899
0.000184937
0.0001495
0.0217016
0.000176878
0.000155185
0.0163137
0.000147565
0.0841459
0.000148566
0.000151229
0.00114983
0.000174081
0.0285568
0.0259809
0.0309934
0.000159532
0.0257278
0.000148862
0.0313461
0.000149954
0.000163076
0.00695597
0.0280815
0.044876
0.000209004
0.000149102
0.000173385
0.0197044
0.000204189
0.000127672
0.000162976
0.000164356
0.00014978
0.000149326
0.000182336
0.000149265
0.030496
0.000162994
0.000151049
0.000162339
0.000149197
0.000229786
0.00018523
0.000234247
0.000174318
0.000147413
0.000148319
0.0122069
0.0222139
0.000196646
0.000150024
0.000150868
0.0431592
0.0123091
0.000173947
0.000149105
0.000175766
0.0580245
0.000184767
0.000159011
0.000167786
0.0632285
0.06632
0.000182762
0.0442828
0.000167048
0.03017
0.000161427
0.000185138
0.000641144
0.000151752
0.000148892
0.000173059
0.0891865
0.000154454
0.000147435
0.0283604
0.0465743
0.000176629
0.00016108
0.000224015
0.000186569
0.003673
0.000150362
0.000149139
0.000148714
0.045934
0.0001831
0.000160159
0.000149584
0.0594229
0.000182165
0.000233958
0.0278543
0.0615852
0.0632728
0.0216119
0.000162269
0.0843207
0.000148749
0.000147353
0.000186512
0.000148833
0.0474759
0.066642
0.000246857
0.000147326
0.000177123
0.00026439
0.00609434
0.000235373
0.000161971
0.000184628
0.00522745
0.0477917
0.000232666
0.000158601
0.000150189
0.000148883
0.0864417
0.000182998
0.0210452
0.000162729
0.000154186
0.000154019
0.000230451
0.000153465
0.000152572
0.000168502
0.000581568
0.0492788
0.0561143
0.000178956
0.000297606
0.0462599
0.000153064
0.000186219
0.0550619
0.000160941
0.000114322
0.000150783
0.000920154
0.000149554
0.000175503
0.000156551
0.00014957
0.00938339
0.000153158
0.000485373
0.00014728
0.000230453
0.0229725
0.0456893
0.000158245
0.000186598
0.00014975
0.000171262
0.000148468
0.000175121
0.0238801
0.000158081
0.000160952
0.000148801
0.0545078
0.000148636
0.0250884
0.0547781
0.000200147
0.000149647
0.00101898
0.0266042
0.0676224
0.000110362
0.000173345
0.000176943
0.00120981
0.000177607
0.000207789
0.000163975
0.0244078
0.000225403
0.000147928
0.000163833
0.000103713
0.0574021
0.0319657
0.000148798
0.000174275
0.00014885
0.00197461
0.00649716
0.000164769
0.000182665
0.000227152
0.000149215
0.000163406
0.000226061
0.087417
0.000148733
0.000149528
0.00015825
0.0649346
0.00822798
0.000183628
0.00015025
0.0114324
0.00455702
0.000223191
0.000182628
0.0625353
0.0197141
0.00016464
0.000175853
0.0712069
0.000149415
0.000148697
0.000225458
0.000178267
0.000148899
0.000149535
0.000148466
0.000147993
0.000173895
0.000148667
0.0561946
0.000182023
0.000149898
0.0578323
0.0408051
0.000150032
0.000231945
0.0185497
0.000152026
0.000150104
0.000182732
0.0253222
0.0561574
0.000190188
0.000148378
0.08574
0.00014871
0.000191621
0.0226042
0.0867464
0.00015972
0.0661832
0.0289342
0.0341886
0.000220409
0.000163425
0.0480728
0.0488038
0.0894665
0.000152886
0.0175549
0.00876198
0.000220527
0.00021225
0.000153079
0.000188968
0.000159505
0.0274793
0.000164816
0.0001473
0.000145779
0.000162154
0.0318466
0.000378283
0.000149353
0.0438395
0.000159469
0.000168006
0.000160573
0.0205605
0.00698976
0.000100808
0.000156036
0.000160132
0.0612703
0.000150245
0.00862095
0.000164583
0.000182692
0.00016009
0.00014887
0.000149895
0.000211651
0.000209838
0.000227573
0.0524364
0.0626439
0.000154604
0.0532191
0.0236104
0.00014952
0.0883784
0.000204123
0.0234164
0.000161531
0.000203767
0.0616286
0.0781224
0.000207167
0.028668
0.000154126
0.0715352
0.00478124
0.000169369
0.0303745
0.00017184
0.0572288
0.000175389
0.000186192
0.0002242
0.000242262
0.000149162
0.000163588
0.000179368
0.000177388
0.000149248
0.000184163
0.080683
0.000149518
0.000185986
0.00887125
0.000158357
0.00607658
0.000187795
0.0593927
0.000161736
0.000199318
0.000336235
0.0105227
0.000181637
0.0272525
0.0218092
0.000685158
0.00014923
0.000208493
0.00017155
0.000203447
0.000149924
0.00526044
0.0794547
0.0829074
0.000160114
0.000226288
0.0606066
0.00907514
0.000147676
0.0129547
0.000288868
0.0333907
0.000164688
0.0901945
0.000149244
0.000148768
0.0229622
0.0615792
0.00014882
0.00015975
0.000186228
0.000147497
0.0823131
0.000189486
0.000203334
0.000164798
0.000154199
0.000149781
0.0741376
0.000149809
0.000149693
0.0825386
0.0823444
0.000158362
0.0522871
0.000148759
0.000148643
0.000159017
0.000228251
0.000188193
0.000149369
0.000155546
0.000196122
0.000157849
0.0589063
0.000148583
0.000168943
0.0662626
0.000162475
0.000146086
0.000148858
0.000164487
0.000154315
0.000608804
0.0799399
0.000173621
0.000602516
0.000159256
0.000148591
0.0585667
0.0597533
0.000161369
0.000149756
0.0469781
0.000160653
0.00197449
0.000149739
0.000168359
0.000208714
0.00017847
0.0526104
0.0634995
0.0801
0.000154293
0.000226349
0.000149288
0.0571213
0.000187623
0.000230411
0.000171422
0.000155721
0.000162546
0.000187239
0.00014853
0.00928355
0.056122
0.060821
0.00567471
0.0809872
0.024721
0.00999047
0.000157769
0.000149385
0.0100588
0.000148767
0.000149202
0.000159012
0.0496319
0.00015965
0.000151624
0.0001768
0.000179808
0.000148721
0.0808077
0.000149014
0.0610078
0.000545228
0.000148609
0.000158811
0.000351178
0.088949
0.0001488
0.0801865
0.0302649
0.000150609
0.0412836
0.0254668
0.000228573
0.00015422
0.0831705
0.0243527
0.000150823
0.00406007
0.000150958
0.000149061
0.0805757
0.0577165
0.000175681
0.000187629
0.000148761
0.00019447
0.0603286
0.0460063
0.000151392
0.0173204
0.000149307
0.000151096
0.000181941
0.000169625
0.000147661
0.000155175
0.0428192
0.000234305
0.0401772
0.000158851
0.00014885
0.0660896
0.00014922
0.000210412
0.000168162
0.000176644
0.000172697
0.0727542
0.0235979
0.000162694
0.0120142
0.00015891
0.000187829
0.0636651
0.0342899
0.000150717
0.000149299
0.000164816
0.0411867
0.0420734
0.0001941
0.0117126
0.000169919
0.000174519
0.0292307
0.0786168
0.000187418
0.0594145
0.00381447
0.0645984
0.00015334
0.0699866
0.0863534
0.000148672
0.00766586
0.0729348
0.000162292
0.000185026
0.000150154
0.000510164
0.000179991
0.0505889
0.000149825
0.000149026
0.000156292
0.000179088
0.000148626
0.0473064
0.000148986
0.00116214
0.00015417
0.000203613
0.000149778
0.000148755
0.000170591
0.0174909
0.000181018
0.0429614
0.000168366
0.000147615
0.000150159
0.000186745
0.000155443
0.000197548
0.000160588
0.000161051
0.066231
0.000149225
0.0270473
0.000149679
0.000217036
0.0137278
0.0656937
0.000157647
0.0498993
0.000176098
0.000218574
0.071576
0.00015185
0.0768802
0.00015958
0.000170354
0.00709133
0.0774857
0.000149708
0.000196696
0.000153373
0.0614114
0.0187242
0.000151703
0.000168468
0.082181
0.000149747
0.000149675
0.000201648
0.0227529
0.0842065
0.000150098
0.00022366
0.000157267
0.000148823
0.0682743
0.000225302
0.000203681
0.000147019
0.00022645
0.000165376
0.000196979
0.000151282
0.000153804
0.000178529
0.00015615
0.000235693
0.000185018
0.000184587
0.000182694
0.000582805
0.025106
0.0821985
0.0804426
0.000163426
0.0359308
0.000165728
0.0807219
0.000231809
0.000150724
0.000173706
0.00632141
0.000160843
0.000148512
0.000148411
0.000216887
0.0250337
0.000169126
0.0520374
0.000147664
0.0843284
0.000181571
0.0176059
0.000196038
0.000161966
0.000159642
0.020649
0.000203794
0.000165416
0.0647393
0.000153776
0.0124315
0.000217451
0.00206539
0.000170114
0.00151397
0.000149261
0.000149624
0.000152613
0.000148872
0.062685
0.000147977
0.0638497
0.0636454
0.000196656
0.0474071
0.0221359
0.00272373
0.000230546
0.000157535
0.000149168
0.000149422
0.000147446
0.000150094
0.000148853
0.000188607
0.00022493
0.000166154
0.0888641
0.000154084
0.0537425
0.000149957
0.0163545
0.000172415
0.000149883
0.000148891
0.0649841
0.000162604
0.087721
0.0739522
0.000184363
0.000193618
0.000150563
0.0653141
0.000155391
0.000159719
0.0680395
0.000149198
0.000151694
0.000151208
0.000187263
0.0264822
0.000165802
0.000170929
0.000323449
0.0432651
0.000158005
0.00015829
0.0649628
0.000147301
0.0636363
0.000149293
0.000158025
0.084214
0.000203832
0.000233389
0.000190088
0.000181484
0.000149496
0.000149956
0.000189119
0.000153567
0.000149545
0.000170476
0.00026883
0.000147934
0.000211976
0.00314909
0.0865911
0.0001897
0.0310095
0.000161528
0.000149142
0.000204899
0.000147739
0.000163796
0.0838743
0.0629386
0.0762213
0.0681446
0.000152
0.000151547
0.000171273
0.000153384
0.000149413
0.0368798
0.00386721
0.0315196
0.000218137
0.000204739
0.000148968
0.000148608
0.0252873
0.000202971
0.000158802
0.000149665
0.000234114
0.000235178
0.0532421
0.00015029
0.000148969
0.0219118
0.000151201
0.000172261
0.000147441
0.0508778
0.000149241
0.0155729
0.00014871
0.000196226
0.000178834
0.000170756
0.000170678
0.000149452
0.000159598
0.00014812
0.0610801
0.000151365
0.0371028
0.000154139
0.0911117
0.0609728
0.000168597
0.000147979
0.0100569
0.0808304
0.000163427
0.000204092
0.000149394
0.0237809
0.000150908
0.00625348
0.000148638
0.000148103
0.0874959
0.000173163
0.000148809
0.000176342
0.0553738
0.000437651
0.080222
0.000148678
0.0387792
0.000148716
0.00014796
0.000150378
0.000145257
0.000149558
0.0782215
0.0832892
0.00015318
0.00014896
0.000176188
0.00014922
0.0126675
0.000206874
0.031211
0.0490472
0.000159432
0.000235081
0.000148646
0.000180527
0.000178358
0.000151764
0.000149355
0.00293547
0.0201083
0.000193053
0.0061545
0.000193606
0.000148769
0.00017618
0.000204843
0.0150085
0.000172667
0.0821356
0.000203718
0.000149473
0.0460788
0.0409673
0.0331023
0.0840278
0.0799575
0.000154292
0.000176623
0.000149671
0.0805946
0.000160253
0.000147324
0.0782137
0.00015375
0.000147978
0.000150759
0.000153332
0.0483802
0.0068083
0.000148217
0.000176783
0.0263766
0.000154727
0.0056054
0.000152715
0.000200765
0.0557201
0.000148693
0.0498229
0.000163475
0.000169598
0.000493536
0.000153752
0.000905765
0.00019899
0.059063
0.000154322
0.0332698
0.000168737
0.0361169
0.0157441
0.0269864
0.000184792
0.000149484
0.000152058
0.000149748
0.000184696
0.000148872
0.0542414
0.000161201
0.000157891
0.000157827
0.000154204
0.000148596
0.000168532
0.000161668
0.000158736
0.000160272
0.0686018
0.0587378
0.000168678
0.000172912
0.0798611
0.000151741
0.0341043
0.00014725
0.000163532
0.000151371
0.000150198
0.000169504
0.00014858
0.000148162
0.000163551
0.000149196
0.000248905
0.000154912
0.00677723
0.0807828
0.000925658
0.00104227
0.00015241
0.0447668
0.000244887
0.000149494
0.000161363
0.000151384
0.0364951
0.000152618
0.000163736
0.0887768
0.00719662
0.000182304
0.000152039
0.0709954
0.0859821
0.0803056
0.000163376
0.000147606
0.000151397
0.000190252
0.000149362
0.0207167
0.000213614
0.000149327
0.0179375
0.000268729
0.00015104
0.0709398
0.0141987
0.00237635
0.000154438
0.0714991
0.000188497
0.000148254
0.0254265
0.000158208
0.000150566
0.000148902
0.000175512
0.000184724
0.0588762
0.0334443
0.000184294
0.0625971
0.000176761
0.000149053
0.000169687
0.000148389
0.0214417
0.000151498
0.000148262
0.000155312
0.000153506
0.0626551
0.0278309
0.0378007
0.0228319
0.0674063
0.000158277
0.000149628
0.000154866
0.00135344
0.000151488
0.00015056
0.00017324
0.086126
0.0482823
0.000147107
0.000168783
0.000171094
0.00022667
0.00518139
0.00015071
0.00014754
0.00015942
0.0775149
0.000170507
0.0595118
0.000153735
0.000149041
0.000150677
0.000148958
0.000156541
0.00190348
0.0663284
0.062736
0.000157755
0.000148607
0.00769032
0.000154389
0.0912596
0.0305463
0.000159497
0.0198202
0.0613915
0.0279648
0.000192582
0.000172473
0.0433782
0.000169685
0.000162178
0.000171685
0.000222326
0.000153242
0.000503605
0.00014907
0.0846748
0.0803939
0.000147254
0.000154348
0.00016983
0.000592912
0.000173609
0.00014889
0.000168351
0.000152316
0.000164506
0.000249261
0.000149107
0.079747
0.0265839
0.000149156
0.000171299
0.000184215
0.000148696
0.06109
0.0116985
0.046332
0.0436898
0.000148512
0.000157158
0.000160908
0.000150498
0.0397533
0.000174189
0.000149695
0.000194971
0.000155868
0.0900548
0.000179179
0.0223942
0.000152147
0.000154597
0.000164787
0.000201801
0.000191736
0.000149118
0.0131425
0.0382906
0.0327233
0.0279825
0.0834269
0.0608557
0.034325
0.000149043
0.000148836
0.000152155
0.038527
0.000187428
0.000191065
0.00950543
0.000153954
0.000146474
0.000148777
0.0253243
0.000147421
0.000165099
0.000154851
0.0844245
0.000152476
0.000147729
0.000148752
0.000149602
0.000149011
0.000161491
0.0356323
0.000162278
0.0861182
0.000148736
0.000149021
0.0587607
0.0645067
0.0237535
0.0852586
0.000165262
0.0839197
0.000147512
0.00017194
0.00015455
0.000148727
0.000161508
0.0186293
0.000156616
0.000202494
0.0442764
0.000153802
0.000150092
0.00015618
0.00408488
0.000149804
0.0843236
0.000152094
0.0289464
0.000148859
0.00015308
0.000163754
0.000173186
0.000149814
0.0711493
0.0294642
0.0151668
0.0680639
0.000149206
0.0179094
0.0749358
0.000148672
0.0793592
0.000150441
0.000162787
0.000150163
0.000154203
0.0001479
0.000148751
0.00015228
0.000156683
0.000193689
0.000152311
0.000148718
0.000166737
0.000149772
0.0728608
0.000148846
0.000170627
0.000177179
0.0288755
0.0853657
0.000149028
0.00366125
0.000147343
0.000173947
0.000176733
0.0845273
0.000185663
0.000149807
0.000224285
0.000169157
0.000203287
0.0740372
0.000162714
0.000217602
0.000193726
0.000195379
0.000152382
0.000150006
0.0869521
0.00845636
0.000157894
0.000148246
0.00600923
0.000147795
0.000179411
0.000148341
0.000181447
0.0745976
0.000147105
0.0107348
0.0001624
0.000149092
0.000103934
0.000147299
0.000162401
0.046185
0.00017665
0.0869945
0.000147885
0.000149755
0.00016292
0.000149503
0.000149615
0.000168395
0.000167851
0.000193413
0.000183056
0.000149955
0.000168728
0.000149761
0.000148614
0.000149435
0.000148672
0.00527986
0.000151414
0.000152842
0.0495306
0.000147738
0.000148176
0.0655015
0.000149643
0.00841184
0.000157167
0.0702645
0.00761569
0.000165655
0.0186387
0.000182966
0.000303517
0.000153562
0.000250025
0.000161482
0.000149933
0.00014913
0.000152718
0.000170246
0.000149507
0.000174895
0.000147849
0.000154677
0.00493373
0.017943
0.000381085
0.000161253
0.000164223
0.0288945
0.0211592
0.000149178
0.000164805
0.000360754
0.000152811
0.000172853
0.0380132
0.0635528
0.000166865
0.000183697
0.000152972
0.000285066
0.000149897
0.00016309
0.0900664
0.000150334
0.000149355
0.0739976
0.000175544
0.0443328
0.0692255
0.000216952
0.000151071
0.000147858
0.000153237
0.023274
0.0834805
0.08952
0.000179197
0.000148948
0.0321692
0.000148803
0.00022252
0.000156167
0.000158733
0.000180184
0.000148633
0.071999
0.0691669
0.000150959
0.000191975
0.00018822
0.0330068
0.000176891
0.000194171
0.0426156
0.000176914
0.0561086
0.00019474
0.000148821
0.000178187
0.000169472
0.0826213
0.00014851
0.079962
0.000177883
0.000196543
0.000149809
0.0637313
0.000163726
0.00015411
0.000149383
0.000170064
0.000169789
0.000168187
0.00014885
0.000152629
0.000175901
0.00616687
0.000180349
0.000149071
0.000151265
0.000178364
0.00043929
0.000149173
0.000185298
0.0642571
0.000170633
0.0690644
0.000184285
0.0190633
0.00100319
0.00014909
0.054279
0.000149551
0.000157523
0.000174597
0.000174047
0.000198331
0.00018699
0.000168454
0.000170338
0.000167772
0.00015548
0.000147294
0.000171386
0.000162566
0.000158961
0.0841154
0.000159628
0.000161513
0.000148486
0.0303007
0.000183852
0.000149916
0.000160477
0.000152274
0.0249104
0.000212355
0.000174672
0.0662047
0.0724186
0.00176224
0.000199512
0.0522403
0.000148197
0.000186953
0.000150545
0.000156373
0.0726238
0.0612325
0.00705842
0.005003
0.000148858
0.0211149
0.000148167
0.000204453
0.000156765
0.0826836
0.0769672
0.000166517
0.000148086
0.00290114
0.000162825
0.000148597
0.0276402
0.000148642
0.000154217
0.000162669
0.000150089
0.00016682
0.00015247
0.000149021
0.000166272
0.000933553
0.000179549
0.000180473
0.0001486
0.0224649
0.0632465
0.000148013
0.0554616
0.000156659
0.000158462
0.0880341
0.000148003
0.000152042
0.000158235
0.0353978
0.000148575
0.000149173
0.000175728
0.0797528
0.000147907
0.000161545
0.000164168
0.083526
0.000176576
0.000175101
0.0166804
0.000148641
0.000174309
0.00014703
0.0223445
0.000165483
0.000148725
0.00016784
0.000193795
0.000148955
0.000152728
0.000229549
0.0731679
0.00015438
0.0239806
0.000149238
0.000147099
0.00018916
0.000148482
0.00015145
0.0777365
0.000149821
0.000178442
0.000176111
0.0382999
0.0798459
0.000151482
0.00015344
0.00015776
0.000148528
0.000149378
0.000148785
0.0791964
0.000149314
0.0522527
0.000224326
0.000149336
0.000149914
0.000166917
0.000224552
0.0535732
0.000168581
0.000181732
0.000155209
0.0566811
0.00018033
0.000174018
0.000181907
0.000175163
0.000196304
0.0204532
0.000182804
0.039046
0.0912379
0.0170222
0.000160534
0.000149941
0.00017202
0.000160065
0.000150385
0.000154488
0.000181838
0.000149605
0.000152092
0.000148593
0.000147203
0.000158734
0.000151913
0.0156138
0.000148068
0.0837585
0.000148579
0.000176621
0.000153435
0.000224572
0.00017679
0.000149483
0.0821363
0.000153351
0.000149503
0.000180352
0.000149683
0.000160681
0.000151327
0.0692709
0.000156174
0.000177565
0.00017176
0.0835421
0.000160421
0.0542425
0.0813689
0.000172852
0.0001523
0.000155624
0.000178818
0.000187395
0.0179276
0.00014902
0.0226551
0.000150564
0.000170762
0.0628765
0.000169106
0.0810764
0.000157885
0.000171119
0.00015639
0.067658
0.000166335
0.000148867
0.000171758
0.000219576
0.000155317
0.00014874
0.0001489
0.0479933
0.000149681
0.000159692
0.0645385
0.000157529
0.00014915
0.000175163
0.000157512
0.0884252
0.000146553
0.000149052
0.00014769
0.000155655
0.000153378
0.000152268
0.000193623
0.0598322
0.000149079
0.000148742
0.0907352
0.000154301
0.0109851
0.000160854
0.0603877
0.00014945
0.000155346
0.00014739
0.0376245
0.0692143
0.000161416
0.000171088
0.000156395
0.000149571
0.000148818
0.070517
0.000148829
0.000204666
0.000149114
0.000186131
0.000149278
0.0871233
0.000147662
0.000185685
0.000148934
0.000231673
0.000688919
0.000149464
0.000168895
0.0717527
0.000195203
0.0852016
0.0809365
0.000216805
0.000152652
0.000171998
0.000199816
0.0897833
0.000154345
0.0001824
0.000157915
0.000150059
0.0357732
0.0263567
0.000194135
0.000240325
0.001657
0.000165928
0.0670261
0.000150357
0.000149351
0.000194927
0.0722574
0.000416861
0.000216043
0.0846815
0.000147591
0.0656809
0.0394571
0.0643136
0.000149309
0.0230296
0.0312726
0.000684485
0.000425632
0.0450765
0.000205304
0.000166449
0.000231406
0.000155306
0.000149699
0.0419689
0.000203979
0.000147151
0.0299286
0.000149267
0.000160618
0.000180675
0.000156906
0.0780276
0.000161901
0.00873986
0.000186043
0.000155721
0.0912208
0.0567055
0.000226988
0.000150399
0.000155461
0.000190168
0.000170988
0.000147408
0.000178542
0.00016923
0.000213319
0.000149441
0.000273866
0.000155869
0.000171779
0.0826737
0.0584326
0.000151984
0.000190994
0.0242771
0.000150304
0.000152986
0.0583069
0.00041459
0.000157477
0.00015935
0.000148734
0.000178383
0.000163521
0.0631001
0.00019772
0.000151347
0.000149447
0.000167513
0.000161966
0.074239
0.0210816
0.000149048
0.000148573
0.000161892
0.000149282
0.000158141
0.000153353
0.000154356
0.000155765
0.000148976
0.000156379
0.000149932
0.000186795
0.0883982
0.000149747
0.0834264
0.0118218
0.000147088
0.000186276
0.000193548
0.000183819
0.000152104
0.0002044
0.000164362
0.000169979
0.000168413
0.000154993
0.00014935
0.0176308
0.000170138
0.086624
0.000151996
0.000148888
0.000148468
0.000176757
0.000149008
0.000183132
0.000193832
0.000353552
0.000148289
0.0667221
0.0716549
0.0400222
0.000147511
0.000206375
0.000227473
0.073632
0.0765006
0.000150859
0.000151557
0.000202707
0.08367
0.085361
0.00017885
0.0586013
0.0001495
0.00015032
0.000167258
0.000149314
0.00014949
0.000215341
0.000149761
0.000170813
0.000149461
0.0588128
0.0817138
0.0904155
0.0831766
0.0370923
0.0001497
0.000149027
0.0799872
0.000149253
0.000149547
0.000147201
0.000188837
0.0664687
0.0189258
0.000157623
0.000153483
0.000154434
0.000165444
0.0264857
0.000148209
0.0818701
0.0601437
0.000149273
0.000149169
0.0375132
0.00020221
0.000158701
0.000148697
0.0811333
0.0352934
0.000151627
0.00359776
0.000149682
0.0424182
0.00020354
0.000160201
0.0194205
0.0110899
0.0890175
0.000149269
0.000154239
0.000149629
0.000149899
0.0657531
0.000149146
0.000207054
0.0543281
0.016386
0.000154219
0.000178251
0.0713284
0.000179292
0.0813716
0.0378517
0.000146251
0.000162687
0.000162732
0.000149896
0.0709069
0.00014683
0.0276314
0.000163098
0.000182928
0.000152088
0.000147709
0.000463192
0.000172851
0.013861
0.000149308
0.000178365
0.000153812
0.000224229
0.000159493
0.0585741
0.0895705
0.00021595
0.000213347
0.000149348
0.000155177
0.000201864
0.000185571
0.0648497
0.0750629
0.000148942
0.0836129
0.000172072
0.0544116
0.000167803
0.000174855
0.00017452
0.000151732
0.0865557
0.00014866
0.000172027
0.0412476
0.0588885
0.0124084
0.0632588
0.00016044
0.000182918
0.000149548
0.0588735
0.000159551
0.0902015
0.000149588
0.0864967
0.00014718
0.000148453
0.000171186
0.000159981
0.000161781
0.000149762
0.0415569
0.000185286
0.000149163
0.000169783
0.037465
0.000219649
0.000149142
0.0411911
0.00015665
0.000176567
0.000175143
0.000146593
0.000183431
0.000148464
0.0733807
0.000176136
0.000167446
0.00014879
0.000454093
0.000176036
0.000149633
0.0892427
0.0838144
0.00709835
0.000150794
0.0822797
0.00014899
0.000199281
0.000167313
0.00018627
0.0844032
0.0391362
0.000160595
0.0641374
0.000173461
0.000159846
0.000148411
0.0852292
0.000184289
0.000198547
0.000166547
0.000149592
0.0813469
0.000189178
0.000810914
0.0464382
0.0711847
0.0422335
0.0550075
0.0245798
0.000160162
0.000160142
0.000148782
0.000151689
0.000147009
0.000355625
0.000161208
0.000161551
0.0461679
0.000148848
0.000147484
0.000183803
0.000221253
0.000166053
0.000148254
0.0501352
0.000158014
0.000187591
0.000150872
0.0162811
0.000158758
0.0790993
0.000168605
0.000172357
0.00017548
0.000148757
0.00747548
0.066454
0.000185872
0.000150098
0.000147466
0.0230467
0.031754
0.0588117
0.000150656
0.000185992
0.0764623
0.000151975
0.000148204
0.000150885
0.0648983
0.000173482
0.000166295
0.000168716
0.000164298
0.084358
0.000184297
0.0122369
0.000166502
0.000171586
0.000147248
0.000188532
0.000177448
0.000149025
0.0711198
0.0395558
0.0528205
0.0745351
0.0287238
0.0662591
0.0787226
0.000152118
0.000151369
0.0857209
0.0286649
0.089674
0.000150193
0.000177911
0.0001489
0.000149076
0.0785596
0.0601664
0.000191281
0.000148476
0.0646541
0.000202532
0.000180514
0.0349593
0.0734619
0.0581363
0.000147488
0.0574546
0.0771388
0.000361389
0.000174853
0.000178489
0.000149776
0.00014816
0.000173775
0.000177567
0.000156653
0.000181401
0.000166048
0.000156659
0.033336
0.0366744
0.000161071
0.000183342
0.0390203
0.0220133
0.00014878
0.000195378
0.000243635
0.0328698
0.000174241
0.000151982
0.000167587
0.000160986
0.000160441
0.000146655
0.000160023
0.000172393
0.000185393
0.000215976
0.000149502
0.000154417
0.0409519
0.0694824
0.0537935
0.0674983
0.000223354
0.00014667
0.000148792
0.000167776
0.000149348
0.0688617
0.000148887
0.000149819
0.00014787
0.0699464
0.0314616
0.000151037
0.000192733
0.000162094
0.00016375
0.000166759
0.000160814
0.000179161
0.000171185
0.0146287
0.000163579
0.0314232
0.000171345
0.0522308
0.000165141
0.000147585
0.000148229
0.000204631
0.000229311
0.000147353
0.000165172
0.000165643
0.000180744
0.0834032
0.0178701
0.0892343
0.000149818
0.0769949
0.000160954
0.000167967
0.000148778
0.000184988
0.000154891
0.038421
0.000315273
0.000169355
0.000148728
0.0698489
0.000156742
0.0338578
0.0285341
0.0365487
0.000156035
0.000213491
0.0871128
0.0770976
0.049153
0.00018237
0.000150522
0.000171358
0.000150906
0.0706001
0.000156265
0.000167211
0.0677367
0.0497313
0.000150232
0.000149504
0.0301759
0.000174254
0.0601786
0.000159649
0.000148684
0.000176177
0.00859648
0.000163816
0.0845391
0.00016787
0.0759775
0.000159278
0.000149627
0.00014948
0.00027294
0.000151495
0.000187513
0.00014906
0.000150662
0.00023735
0.000164555
0.000151655
0.000148485
0.000168329
0.0746213
0.00018399
0.000174361
0.000156602
0.000183738
0.00014986
0.000198948
0.000167939
0.0001788
0.000168132
0.000169787
0.00017792
0.000164513
0.000150728
0.000194103
0.033175
0.0454075
0.00015238
0.0046592
0.0346063
0.000149274
0.000151373
0.000241041
0.0359779
0.000157072
0.0357317
0.00381891
0.000153057
0.000203786
0.000146831
0.000162698
0.000184946
0.0760801
0.000212498
0.0417567
0.0691492
0.0736559
0.0465234
0.000158894
0.0447569
0.000148841
0.0763105
0.0423288
0.000148803
0.000148471
0.042969
0.000149561
0.000148745
0.0622523
0.0721934
0.00064422
0.000164857
0.0380525
0.000148616
0.0724096
0.039565
0.000149224
0.0744403
0.0694153
0.0331262
0.0423275
0.0415745
0.0402693
0.000148211
0.000152404
0.000186153
0.000192105
0.000148734
0.0233899
0.000148751
0.043506
0.0580227
0.000165727
0.0490083
0.0453041
0.0558603
0.036932
0.000166619
0.0136099
0.000690908
0.000162601
0.000146989
0.0804419
0.000163693
0.000149139
0.0624114
0.000149129
0.0827832
0.000149674
0.0615357
0.00016348
0.00014896
0.010756
0.000156964
0.000162146
0.0386995
0.0850078
0.00218602
0.000167903
0.000187755
0.000153243
0.000182519
0.000220213
0.000182167
0.000149373
0.000366317
0.000188045
0.000164581
0.0363391
0.000177596
0.000164521
0.000209182
0.000190465
0.000185081
0.000148954
0.000242067
0.00014834
0.000221196
0.0655547
0.0340655
0.000147706
0.000173311
0.0174506
0.0001573
0.000183727
0.000173943
0.000175519
0.0826
0.000188819
0.000152789
0.0425887
0.000147663
0.0701899
0.000148885
0.000155687
0.000222208
0.0608839
0.000165065
0.000191852
0.00023502
0.000173069
0.000152396
0.000179625
0.000176887
0.0463722
0.000156167
0.00905513
0.00022961
0.000173518
0.000166947
0.0001825
0.000170597
0.000168954
0.000189186
0.000164811
0.0001578
0.000153395
0.00865732
0.000149327
0.000164938
0.000146355
0.000215919
0.000165982
0.0001899
0.0400329
0.000151814
0.000429903
0.00014545
0.000149833
0.000149263
0.000149357
0.000166431
0.000148295
0.000204549
0.0195136
0.000190488
0.000181186
0.000162531
0.000150838
0.0542838
0.000149781
0.0885758
0.0908681
0.0198686
0.000230289
0.000167546
0.000167155
0.000149214
0.00015975
0.000171915
0.000173218
0.0382659
0.000191082
0.0415192
0.000157335
0.000149365
0.000147423
0.0445231
0.000149418
0.000168789
0.000167435
0.00235254
0.00015813
0.0614442
0.000149139
0.000159203
0.000148898
0.000151786
0.000179398
0.000216675
0.000151811
0.000175315
0.000160325
0.00018265
0.000191665
0.000233907
0.000207299
0.000247279
0.000240145
0.000166743
0.000154318
0.000192052
0.0618175
0.0813163
0.068334
0.000173223
0.0915808
0.00021727
0.000155103
0.000148421
0.000196881
0.000149017
0.000175719
0.0156172
0.000148947
0.000149967
0.00301564
0.0779068
0.000187357
0.00612831
0.000149634
0.0269664
0.000173146
0.0535759
0.000158301
0.000149976
0.0720063
0.000166112
0.000149271
0.000175071
0.000149681
0.00019703
0.000164499
0.000165351
0.0658586
0.00016099
0.0882234
0.000148549
0.0370618
0.000149856
0.000161417
0.000152417
0.000175881
0.000148909
0.000168093
0.0685463
0.00029764
0.000181021
0.000164284
0.000169802
0.000149932
0.000150818
0.000156449
0.08433
0.000162466
0.0618409
0.0319711
0.000195572
0.00014944
0.000200292
0.000224007
0.000224166
0.00016623
0.0306631
0.000149372
0.000146437
0.000149206
0.0752595
0.000151593
0.000149368
0.0690292
0.000148909
0.000218418
0.000173917
0.000151103
0.0633187
0.000170055
0.0603083
0.00015035
0.0863003
0.000153837
0.000168303
0.0215054
0.000190902
0.00014886
0.000167647
0.0885826
0.000175424
0.000202371
0.000169836
0.000160348
0.000193487
0.000160628
0.00015436
0.00509135
0.000165226
0.000169623
0.000116692
0.000149119
0.000149107
0.000149208
0.000174408
0.000149956
0.000157433
0.0866948
0.0143249
0.000173092
0.00671092
0.000196387
0.000179206
0.0508058
0.0353176
0.000150939
0.0115537
0.0846549
0.0389004
0.0427455
0.000167451
0.0892596
0.0688361
0.0392206
0.049185
0.0798389
0.000164636
0.000171379
0.000159543
0.000165481
0.000151114
0.000613529
0.000149898
0.01343
0.000176733
0.000206494
0.000145976
0.000197014
0.000165369
0.000152776
0.000149952
0.000148693
0.000175986
0.000158906
0.000153948
0.000183959
0.0416423
0.000159236
0.00019994
0.000147449
0.000175798
0.000170999
0.000150118
0.000158824
0.000148255
0.0626274
0.0686337
0.000245806
0.0388266
0.00016388
0.0001992
0.000148915
0.000183561
0.000149614
0.000152168
0.000149552
0.0820352
0.000148761
0.000188348
0.000281025
0.000160277
0.000170764
0.000148784
0.0497042
0.00023245
0.0301155
0.0326243
0.000219785
0.00777038
0.0343874
0.00388457
0.0629233
0.0118085
0.000176607
0.000159933
0.0715529
0.0590469
0.000148721
0.0142796
0.000195012
0.0800733
0.000146103
0.000191899
0.0524486
0.000149815
0.0152062
0.00015497
0.0209724
0.000148561
0.000149321
0.000183879
0.000185614
0.0001668
0.000184694
0.000149991
0.000152205
0.0410472
0.0849954
0.0296757
0.000192293
0.000154347
0.000150813
0.000148941