/*--------------------------------*- C++ -*----------------------------------*\
| =========                 |                                                 |
| \\      /  F ield         | OpenFOAM: The Open Source CFD Toolbox           |
|  \\    /   O peration     | Version:  v2012                                 |
|   \\  /    A nd           | Website:  www.openfoam.com                      |
|    \\/     M anipulation  |                                                 |
\*---------------------------------------------------------------------------*/
FoamFile
{
    version     2.0;
    format      ascii;
    class       surfaceVectorField;
    location    "200";
    object      Uf;
}
// * * * * * * * * * * * * * * * * * * * * * * * * * * * * * * * * * * * * * //

dimensions      [0 1 -1 0 0 0 0];


internalField   nonuniform List<vector> 
20580
(
(1.26006 0.00164465 1.44516e-20)
(1.26233 0.00313255 6.54014e-21)
(1.25886 0.00383603 5.47827e-20)
(1.1093 -0.0449679 -7.0933e-21)
(1.10965 -0.0467027 -2.79956e-21)
(1.11199 -0.045462 8.48744e-21)
(1.10883 -0.0425071 9.75259e-21)
(1.10637 -0.0438522 1.07305e-20)
(-0.191579 0.00633165 -2.14836e-20)
(-0.175571 0.00450393 2.68118e-20)
(-0.190776 0.00581604 -4.71299e-21)
(1.00292 -0.000755679 -1.67648e-22)
(1.00262 -0.000696525 4.57233e-22)
(1.00273 -0.000415375 1.01364e-21)
(1.12102 -0.0673209 -6.16651e-21)
(1.12002 -0.0701361 -1.93265e-21)
(1.1175 -0.0677507 2.13319e-21)
(1.10369 0.0174168 0)
(1.10496 0.0188911 0)
(1.01976 -0.00132124 -3.2662e-21)
(1.0193 -0.00134443 0)
(1.01843 -0.000840785 1.88064e-21)
(-0.0398588 0.0147437 -4.90901e-22)
(-0.0365823 0.0149863 -2.18632e-20)
(-0.055031 0.0129941 4.47782e-22)
(0.991256 -0.0175968 5.12751e-21)
(0.991615 -0.0166221 9.94424e-22)
(0.992089 -0.0171303 1.21293e-20)
(1.1961 -0.167236 -2.20906e-20)
(1.19063 -0.165496 3.24254e-20)
(1.1923 -0.171504 -7.90737e-22)
(1.00219 -0.0120392 -2.08425e-21)
(1.00245 -0.01251 6.0751e-22)
(1.00228 -0.0126606 -2.87742e-21)
(0.981983 -0.0347619 0)
(0.981686 -0.035961 0)
(0.982916 -0.0352128 -9.8661e-21)
(-0.182702 0.00111938 -4.40178e-20)
(-0.193084 0.000824657 2.33247e-20)
(-0.175856 0.00257757 3.81453e-20)
(1.17374 -0.0114461 8.80867e-21)
(1.17647 -0.0124745 -3.73979e-20)
(1.17339 -0.0141553 2.86755e-20)
(1.21845 0.0874076 -1.69926e-21)
(1.21607 0.0888101 1.13533e-21)
(1.223 0.0895635 -1.0549e-20)
(-0.276084 0.00433795 8.9834e-20)
(-0.287069 0.00555182 -6.77902e-21)
(-0.28262 0.00740871 2.75223e-20)
(1.05333 -0.0302988 1.16672e-22)
(1.05475 -0.0304414 -4.47151e-21)
(1.05416 -0.0317313 1.10713e-21)
(1.14908 -0.0392341 2.54384e-20)
(1.15087 -0.0411806 3.24326e-20)
(1.06064 -0.0310448 0)
(1.26108 -0.0014271 4.35903e-20)
(1.25734 0.000209485 3.04323e-20)
(1.18912 -0.0285029 2.35539e-20)
(1.18643 -0.0304438 3.06945e-20)
(1.18554 -0.0268653 4.03261e-20)
(1.05554 -0.127444 -1.78633e-21)
(1.05152 -0.127397 5.65904e-21)
(1.05379 -0.123455 1.09364e-20)
(0.487955 -0.259273 -6.13014e-20)
(0.353073 -0.195718 4.52394e-20)
(0.221279 -0.13627 -6.83506e-20)
(1.00007 -0.000260241 3.22849e-25)
(1.00012 -0.000346229 5.34514e-23)
(1.00007 -0.000219046 0)
(0.630511 -0.0394157 1.3387e-20)
(0.620073 -0.0392729 3.73852e-20)
(0.532095 -0.0314093 -2.10102e-21)
(1.18807 0.0595689 1.1617e-20)
(1.18919 0.0614747 -6.79028e-21)
(1.19067 0.0595621 1.71479e-20)
(0.84652 0.0617408 0)
(0.794778 0.0601179 1.90414e-20)
(0.802935 0.0622133 0)
(0.563406 0.018414 -7.74027e-21)
(0.571679 0.0185998 2.43161e-20)
(0.500822 0.0202401 3.88325e-20)
(0.0604756 0.0222293 -1.43202e-20)
(0.0442859 0.0205185 -6.69712e-21)
(0.0377235 0.0196751 1.81272e-21)
(1.0315 -0.0185397 -2.78494e-21)
(1.03094 -0.0191147 3.03511e-21)
(1.0305 -0.0181211 -4.65841e-22)
(-0.129239 -0.00173959 4.67983e-20)
(-0.147044 -0.0014078 -4.27716e-20)
(-0.120379 -0.00259446 0)
(1.10476 0.0161844 0)
(1.10232 0.0163457 -1.71009e-20)
(1.25644 0.0119897 0)
(1.25546 0.015094 0)
(1.25294 0.0117202 -3.3933e-20)
(0.00610623 0.018614 6.04437e-20)
(0.00123649 0.0185038 3.66739e-21)
(0.0304423 0.0204863 5.50845e-21)
(1.16184 -0.1411 1.80233e-20)
(1.16434 -0.13772 5.65906e-22)
(1.16542 -0.14311 0)
(0.0638166 0.0225015 1.11015e-20)
(0.0855663 0.0250749 -3.76116e-20)
(0.0704398 0.0226248 -1.5935e-20)
(1.00002 -0.000168597 -8.25894e-25)
(1.00007 -0.000311419 -9.48375e-24)
(0.774687 -0.136351 -1.21809e-20)
(0.681645 -0.115484 -4.55705e-20)
(0.653225 -0.111049 -5.31963e-20)
(-0.126226 0.00731671 -1.86814e-20)
(-0.118809 0.00746977 -7.5392e-20)
(-0.101344 0.00720624 -7.08433e-20)
(1.0132 -0.056006 -1.08979e-21)
(1.01402 -0.0547834 -3.31707e-22)
(1.01467 -0.0565162 1.10503e-21)
(-0.073979 0.0118869 1.62106e-20)
(-0.0509866 0.0136931 -4.51414e-20)
(-0.0695457 0.0126051 -5.25768e-20)
(0.0760781 0.0244146 1.40474e-20)
(0.0831029 0.0249848 2.2269e-20)
(-0.237931 0.0085444 1.08801e-20)
(-0.240411 0.00778513 9.42771e-21)
(1.07525 -0.519882 1.05183e-20)
(1.0637 -0.524563 3.12971e-20)
(1.06267 -0.533224 -4.45121e-21)
(0.089811 0.0271019 -1.34076e-20)
(0.0828625 0.0266583 5.75497e-22)
(0.0651997 0.0236873 -6.46415e-21)
(1.02319 -0.0341711 0)
(1.02216 -0.0341948 0)
(1.02244 -0.0329901 2.26615e-21)
(1.02808 0.000223184 1.31626e-21)
(1.02788 0.00022774 -4.76021e-21)
(1.22774 0.0699096 0)
(1.22952 0.0719898 1.66195e-21)
(1.22532 0.0709452 -4.01429e-21)
(1.06607 -0.0865682 -1.78296e-21)
(1.06388 -0.0838029 2.26735e-21)
(1.0673 -0.0841536 -9.02878e-21)
(0.98229 -0.0333246 0)
(0.980798 -0.0340437 -3.66531e-21)
(-0.273329 0.00511491 -4.77383e-20)
(-0.273219 0.00443158 8.93414e-20)
(-0.296468 0.00481155 5.8877e-20)
(0.973405 -0.0288504 -4.97143e-21)
(0.974632 -0.0286302 -1.60915e-22)
(0.973927 -0.0301916 2.72163e-20)
(1.22066 0.085834 5.12625e-21)
(1.215 0.085281 1.53696e-20)
(1.14071 0.0264841 0)
(1.14325 0.0268931 0)
(1.14159 0.0287521 0)
(-0.16052 -0.0004073 0)
(-0.143602 0.00162574 2.57118e-20)
(-0.163498 -0.000224639 0)
(1.01258 -0.0572616 7.97547e-22)
(1.01188 -0.0554533 -5.94166e-22)
(1.25915 0.0128972 2.35488e-20)
(1.25748 0.00963801 -3.38596e-22)
(-0.0799254 0.0122592 5.82496e-21)
(-0.0950688 0.00957374 -2.89838e-21)
(0.812475 0.072355 3.68459e-20)
(0.766321 0.0731468 -8.35075e-21)
(0.755345 0.0711209 1.41581e-20)
(-0.234798 0.00344286 -2.70344e-20)
(-0.228731 0.00286341 1.73513e-20)
(-0.215032 0.003539 -7.01345e-21)
(1.00196 -0.0115609 -1.8145e-22)
(1.00211 -0.011431 5.69841e-22)
(0.900621 0.0640339 5.27259e-21)
(0.891677 0.0626378 3.98508e-20)
(0.995643 -0.00824768 -5.11796e-22)
(0.995759 -0.00868411 2.3213e-21)
(0.995245 -0.00900041 -1.00191e-20)
(1.06458 -0.088303 -3.77783e-21)
(1.06784 -0.0883877 2.44189e-21)
(0.84585 -0.491895 -2.27316e-21)
(0.870301 -0.488606 3.03668e-22)
(0.855105 -0.470573 -2.68627e-21)
(0.819592 -0.494789 1.71723e-21)
(0.8373 -0.520395 1.88717e-21)
(-0.241341 0.00110364 -1.87542e-20)
(-0.253331 0.00145333 3.65455e-20)
(0.694911 -0.147357 4.89712e-20)
(0.688195 -0.163609 3.06144e-20)
(1.03297 -0.0586948 -3.59092e-21)
(1.03136 -0.0589011 -2.05502e-21)
(1.03194 -0.0571521 -1.51064e-21)
(-0.155105 0.00319046 -5.56145e-20)
(-0.174546 0.005594 3.7739e-20)
(-0.167021 0.0043767 -4.811e-20)
(-0.171554 0.00177312 5.0358e-20)
(-0.191668 0.00333926 -6.43319e-20)
(-0.173286 0.000636133 -1.44933e-19)
(1.20167 -0.0295179 2.13802e-20)
(1.20203 -0.0324625 -3.74013e-20)
(1.20513 -0.0306397 1.63671e-22)
(0.997665 -0.0407232 -7.56261e-22)
(0.996685 -0.0403941 -1.9148e-21)
(0.997065 -0.0419057 -1.73074e-21)
(-0.226117 0.00286255 1.32797e-20)
(-0.248981 0.00117856 -4.74174e-20)
(1.15255 0.0192654 1.38992e-20)
(1.15086 0.0174564 1.31479e-20)
(1.15351 0.0171693 8.98667e-21)
(1.0335 -0.104567 1.47013e-21)
(1.0307 -0.102794 3.30203e-22)
(1.03332 -0.101063 1.82441e-22)
(-0.264673 0.00417515 4.19032e-20)
(-0.255057 0.00417525 -6.13345e-20)
(1.03204 -0.00909362 -6.94918e-22)
(1.03178 -0.00966921 4.37497e-21)
(1.03289 -0.00963236 0)
(0.63619 -0.0387757 -6.89802e-21)
(0.734801 -0.0504898 5.13059e-20)
(1.00913 -0.0273138 0)
(1.00876 -0.0263274 -3.75864e-23)
(1.00838 -0.0268798 1.04936e-21)
(1.03472 -0.0588538 0)
(1.03386 -0.0606506 0)
(1.30519 -0.194016 -7.3462e-21)
(1.30606 -0.189745 6.80599e-20)
(1.3055 -0.194861 4.4819e-20)
(1.15753 -0.139753 1.99587e-20)
(1.15835 -0.144926 -3.34889e-20)
(-0.194462 0.000930632 4.83309e-21)
(-0.18751 0.000280608 1.1917e-20)
(-0.174085 0.0036729 -3.38774e-20)
(-0.224806 0.00219393 -7.36995e-20)
(-0.207222 0.00350291 7.95514e-21)
(-0.157664 0.000155444 0)
(-0.153545 -0.00023202 -1.2793e-20)
(-0.134025 -0.00205455 0)
(1.05775 -0.130845 -5.40655e-21)
(1.05929 -0.126863 -1.06543e-21)
(-0.0926332 -0.00244608 -5.40048e-20)
(-0.114164 -0.00563013 -5.63213e-20)
(-0.0915835 -0.00163727 1.99811e-20)
(0.992496 -0.022168 2.51888e-21)
(0.993033 -0.0225345 -5.86083e-21)
(0.993005 -0.0214045 -3.15369e-21)
(-0.118585 -0.00265456 6.35593e-20)
(-0.141914 2.68675e-05 3.60548e-20)
(0.971303 -0.0292384 -1.04929e-20)
(0.972604 -0.0270401 -9.57185e-22)
(1.10588 0.0149764 0)
(1.10697 0.0163024 1.87425e-20)
(-0.269241 0.00405358 -5.36144e-22)
(-0.270932 0.00259001 -1.71351e-20)
(-0.16328 0.00050616 -4.03391e-20)
(-0.179236 0.00162308 0)
(-0.144969 0.00919135 -1.39193e-20)
(-0.15324 0.00767659 -1.57387e-20)
(-0.165483 0.00677127 -3.42908e-20)
(1.06963 -0.498119 -1.84508e-20)
(1.06293 -0.480095 -7.2928e-22)
(1.04964 -0.491124 -1.46741e-20)
(1.01648 -0.035802 3.99723e-22)
(1.01555 -0.0358042 -7.05389e-22)
(1.01656 -0.0369813 -1.46958e-22)
(1.22967 0.079045 1.82037e-21)
(1.22734 0.0811771 -3.15263e-20)
(1.22387 0.0785742 -2.84069e-20)
(-0.260345 0.00362633 3.08002e-20)
(-0.260464 0.00298179 -1.24012e-19)
(-0.282659 0.00211266 -5.6968e-20)
(1.21976 -0.271735 7.30283e-20)
(1.22701 -0.27361 3.68486e-20)
(1.22136 -0.279304 -1.21134e-21)
(1.23191 0.0776253 4.49868e-20)
(1.23205 0.0806039 2.70748e-20)
(0.803856 -0.151854 3.08183e-20)
(0.802377 -0.141029 3.30933e-20)
(0.813323 -0.145982 -5.8003e-21)
(0.810436 -0.185842 0)
(0.808781 -0.173871 -5.74111e-20)
(0.797357 -0.182101 0)
(0.992313 -0.0433315 1.79775e-21)
(0.993428 -0.0435677 0)
(0.992675 -0.0451345 -6.4956e-21)
(1.02724 -0.0334327 0)
(1.0281 -0.0345636 0)
(1.02809 -0.0332999 0)
(1.19805 -0.0518078 -1.26972e-20)
(1.19859 -0.0547845 -6.36652e-20)
(1.20155 -0.051664 3.02788e-20)
(1.02634 -0.0321921 -7.05846e-22)
(1.02608 -0.0335705 0)
(-0.169979 0.00146075 7.60098e-20)
(-0.150854 -0.00052721 8.15503e-20)
(1.1044 0.0136016 -1.03577e-20)
(1.10704 0.0135431 4.17896e-21)
(1.05201 -0.0302375 9.87252e-21)
(1.05255 -0.029109 8.30706e-21)
(1.03647 -0.167289 -1.01058e-20)
(1.03845 -0.172468 -1.1279e-21)
(1.03269 -0.170589 -1.94711e-21)
(1.02426 -0.0343055 1.58622e-22)
(1.02418 -0.0355421 4.13123e-23)
(1.27741 -0.111072 -2.01463e-21)
(1.27818 -0.107837 1.98655e-20)
(1.28073 -0.111472 3.64543e-20)
(1.21632 -0.111974 0)
(1.21327 -0.10938 2.10614e-20)
(1.21228 -0.113408 0)
(1.24871 0.0310089 2.51533e-20)
(1.24746 0.0333825 -8.16281e-22)
(1.25044 0.0330862 2.76889e-22)
(1.13825 0.0260902 0)
(1.13968 0.0243834 0)
(1.02126 -0.012049 1.54291e-22)
(1.02095 -0.0124041 -4.05037e-23)
(1.02181 -0.0125638 6.27693e-21)
(1.02032 -0.0011757 -3.25822e-21)
(1.02032 -0.00177243 4.86927e-23)
(-0.207136 0.0080225 -1.02832e-20)
(-0.19437 0.00574997 -9.04265e-20)
(-0.138762 0.00193378 0)
(-0.130842 0.00068754 0)
(1.09806 -0.413239 0)
(1.08818 -0.422196 -2.70986e-20)
(1.10335 -0.425402 0)
(1.04454 -0.025306 6.06852e-22)
(1.04296 -0.0251383 -6.53167e-21)
(1.04357 -0.0241882 6.54628e-22)
(1.02521 -0.0581977 -9.51812e-22)
(1.02662 -0.0591794 -8.24069e-22)
(1.02531 -0.0600902 -1.53471e-21)
(-0.150654 0.00600184 6.48548e-21)
(-0.136436 0.00764035 -1.06359e-20)
(-0.151554 0.00636455 -1.4568e-20)
(1.25012 -0.0301449 -1.12328e-20)
(1.2379 -0.0322467 -2.94596e-21)
(1.1787 -0.0256474 3.71316e-20)
(0.596339 -0.224858 0)
(0.619659 -0.218493 0)
(0.614872 -0.24802 0)
(1.01761 -0.0360956 3.954e-22)
(1.0166 -0.0346465 4.55231e-22)
(1.14837 -0.214525 -1.78463e-20)
(1.14759 -0.207831 -6.84348e-21)
(1.14287 -0.212689 1.49252e-20)
(-0.0561045 0.0145575 -2.76695e-20)
(-0.0765357 0.0131076 2.54994e-20)
(-0.0596522 0.0142604 -2.27071e-20)
(1.1942 -0.0127496 -1.05119e-20)
(1.19695 -0.012153 3.16101e-20)
(1.19483 -0.015264 -2.25282e-20)
(1.04765 -0.126507 5.79202e-22)
(1.04902 -0.130616 -5.11717e-21)
(1.13263 -0.111038 -7.7063e-21)
(1.13517 -0.107632 3.81021e-21)
(1.13043 -0.107971 0)
(0.90962 -0.169236 -3.03993e-20)
(0.880455 -0.154876 1.02957e-19)
(0.0153463 0.0190728 -2.23288e-20)
(-0.0123997 0.0174916 3.81954e-20)
(1.20082 -0.169554 -1.69796e-20)
(1.19905 -0.164167 5.07369e-20)
(-0.142257 0.00865461 5.97409e-20)
(-0.159151 0.00886956 1.37192e-20)
(-0.164066 0.00868115 -2.09509e-20)
(0.712087 -0.145979 0)
(-0.152243 -0.000172539 4.77982e-20)
(-0.170919 0.00157956 2.99329e-20)
(0.850621 -0.120732 6.01724e-22)
(0.841068 -0.119241 2.69126e-22)
(0.846294 -0.111808 2.87584e-20)
(1.19258 -0.00649974 1.74935e-21)
(1.18969 -0.0057576 -1.6833e-22)
(1.19242 -0.00343829 -5.10079e-20)
(1.30303 -0.199914 -5.05279e-20)
(1.29544 -0.192818 -6.43444e-20)
(0.977509 -0.0676177 5.94061e-21)
(0.9775 -0.0651162 3.57779e-21)
(0.979512 -0.0659134 -7.50026e-21)
(0.991909 -0.0218902 3.30876e-21)
(0.991923 -0.0230904 1.14306e-20)
(0.734223 -0.329245 1.69493e-20)
(0.716767 -0.343177 1.11406e-20)
(0.74006 -0.347693 -2.17558e-20)
(0.597757 -0.0215794 9.78584e-23)
(0.531149 -0.016748 -1.5772e-20)
(0.52518 -0.0152727 1.75367e-20)
(1.01762 -0.0985283 -9.21058e-22)
(1.01726 -0.101041 -8.85434e-22)
(1.01469 -0.0994708 -1.38845e-22)
(1.03224 -0.00851905 -3.6349e-21)
(1.03124 -0.00865896 -6.61912e-22)
(-0.170216 0.00124473 1.35354e-20)
(-0.0490263 0.00936314 2.44305e-20)
(-0.0470194 0.0107621 4.41956e-21)
(-0.0656655 0.00749399 1.67559e-20)
(1.15076 -0.21962 -4.49249e-20)
(1.15436 -0.214579 -4.08461e-20)
(1.23042 0.0757464 -3.03884e-20)
(1.23554 0.0768317 5.49686e-20)
(1.27646 -0.115502 4.21087e-21)
(1.27331 -0.111559 8.90726e-22)
(1.21909 -0.114551 -2.5856e-20)
(1.2201 -0.110559 1.25336e-20)
(1.27285 -0.0491951 2.69727e-20)
(1.27631 -0.0534368 2.6433e-20)
(1.29068 -0.0549311 4.74373e-20)
(0.973779 -0.0396058 2.65568e-21)
(0.974606 -0.041109 1.37173e-20)
(0.972729 -0.0415546 7.52877e-21)
(0.984184 -0.0222271 -1.08681e-21)
(0.983464 -0.0216523 9.12187e-21)
(0.984486 -0.0209907 5.2497e-21)
(1.00219 -0.00966609 -3.33204e-23)
(1.00209 -0.00987856 0)
(1.00191 -0.00919072 0)
(-0.132723 0.00756675 1.44163e-20)
(-0.147112 0.0063483 -2.31074e-20)
(1.18639 -0.009628 3.22322e-20)
(1.18721 -0.00714903 4.18411e-20)
(1.18476 -0.00779886 1.26282e-20)
(1.1031 -0.00221761 -1.25358e-20)
(1.10448 -0.00138983 5.55188e-21)
(1.10496 -0.0030973 -2.37699e-20)
(1.00016 -0.000635015 5.58431e-23)
(1.00016 -0.000556681 -4.49122e-23)
(1.00024 -0.000760848 -5.58706e-23)
(0.053389 0.0202815 5.87888e-21)
(0.0481732 0.0206677 -2.28887e-20)
(0.0722504 0.0232798 -5.39391e-20)
(1.19801 -0.0482477 0)
(1.19453 -0.0512934 0)
(1.22749 0.0672028 0)
(1.22996 0.0685359 2.06456e-20)
(-0.172048 0.00131601 -4.48716e-20)
(-0.190233 -0.00139379 -4.81198e-20)
(0.015116 0.0204833 4.46226e-21)
(-0.00273185 0.0186947 2.09156e-20)
(0.018867 0.0192195 2.87482e-21)
(0.0087067 0.0203505 -2.27609e-20)
(0.0346184 0.0224944 -1.79278e-20)
(-0.275227 0.00539607 -3.43351e-22)
(-0.254691 0.00539611 -1.20791e-19)
(1.04028 -0.163829 5.69711e-21)
(1.03488 -0.162125 -5.27789e-21)
(0.202722 0.0198143 -4.35284e-21)
(0.209989 0.019946 0)
(0.166686 0.0191587 1.63745e-20)
(1.00174 -0.011117 3.29069e-23)
(1.00154 -0.0106546 1.61402e-23)
(1.00164 -0.0105055 -2.33102e-21)
(1.02167 -0.0116556 -1.23221e-23)
(1.02074 -0.0114354 -4.98502e-21)
(1.21594 -0.0640632 -3.76997e-21)
(1.21565 -0.0677025 1.16014e-20)
(1.2124 -0.0655288 3.16964e-20)
(1.00158 -0.000536485 2.18377e-23)
(1.00142 -0.000686087 0)
(1.00133 -0.000449479 -2.75898e-22)
(-0.139872 0.00936812 1.57662e-20)
(-0.12391 0.00963081 0)
(0.820923 0.0459227 -7.92981e-21)
(0.88605 0.0467716 -2.09361e-20)
(0.831648 0.0476267 -2.95932e-20)
(1.2437 0.0652366 -4.48872e-21)
(1.24545 0.063576 2.38767e-20)
(1.23628 0.0675046 1.28057e-21)
(1.02207 -0.0113204 0)
(1.02253 -0.0118684 0)
(1.15046 0.0230339 -9.79432e-21)
(1.15158 0.02101 -3.2216e-20)
(1.14884 0.021359 -3.77008e-20)
(1.24203 0.0675456 -3.35361e-20)
(1.23907 0.0647438 0)
(1.24966 -0.0278809 -6.94516e-20)
(1.27873 -0.033973 8.89136e-22)
(1.09104 -0.507234 -2.29554e-20)
(1.04362 -0.160093 6.67852e-21)
(1.04189 -0.155241 -6.02079e-21)
(1.04668 -0.156364 -9.86372e-21)
(1.19316 -0.00925044 1.76983e-20)
(1.19052 -0.0123695 -8.09508e-21)
(-0.25841 0.00558536 -3.77548e-20)
(-0.255471 0.00680065 0)
(-0.0358916 0.0115662 0)
(-0.0533382 0.00818815 -3.2802e-21)
(1.2539 0.0171315 -1.01927e-20)
(1.25694 0.0177927 3.44554e-22)
(0.891364 -0.0940888 -4.29141e-21)
(0.886986 -0.0898841 3.10584e-20)
(0.885712 -0.0968432 1.17879e-20)
(0.978497 -0.0417288 3.39984e-22)
(0.977837 -0.0404048 -7.90993e-21)
(0.979354 -0.0400603 -7.77583e-21)
(1.02826 -0.0246687 -1.24492e-21)
(1.02836 -0.0256494 3.5444e-23)
(1.02944 -0.0252039 -3.48031e-21)
(0.668956 -0.0282787 -7.33302e-22)
(0.663651 -0.0244052 4.10952e-20)
(1.18739 -0.0118635 8.92985e-23)
(1.18414 -0.011812 -1.51477e-20)
(-0.200041 -0.000848285 -2.52919e-20)
(-0.212281 -4.33012e-05 -6.97375e-21)
(1.12121 -0.0640859 -2.01694e-21)
(1.124 -0.0663641 -3.51416e-22)
(1.01787 -0.0956085 0)
(1.02055 -0.0974465 3.31161e-22)
(1.22538 0.0827702 -2.01757e-21)
(1.2229 0.0844027 1.42866e-20)
(1.21951 0.0820611 0)
(1.25266 0.0186243 -7.83171e-20)
(1.25098 0.0161419 2.76153e-20)
(1.07171 -0.0183721 -5.83257e-21)
(1.07328 -0.0191992 1.12184e-21)
(1.07165 -0.0198628 -7.94893e-21)
(1.06332 -0.0445628 1.09644e-21)
(1.06125 -0.044375 7.09009e-22)
(1.06233 -0.0429405 1.0302e-21)
(0.694074 -0.177743 -7.48321e-20)
(0.714871 -0.182355 -3.28614e-20)
(0.702946 -0.195618 3.59106e-20)
(1.30174 -0.204504 -1.53283e-20)
(1.29939 -0.210193 9.83691e-21)
(1.29083 -0.203332 -2.50907e-20)
(-0.141707 0.00970767 -4.93007e-20)
(-0.129396 0.00980761 1.38371e-20)
(-0.122488 0.010164 8.08838e-24)
(-0.0915964 0.0122019 3.07554e-20)
(-0.0973053 0.0122242 -1.07304e-20)
(-0.0717507 0.0131379 -2.00796e-20)
(1.17097 -0.0104214 -2.66403e-20)
(1.17368 -0.00856667 1.60077e-20)
(0.897927 -0.745839 -1.57128e-20)
(0.889465 -0.792423 6.46758e-21)
(0.939535 -0.792375 -9.13225e-21)
(-0.158779 0.00949181 -3.82032e-20)
(-0.151475 0.00958834 -1.0499e-21)
(0.936474 -0.0450622 -2.05105e-21)
(0.938898 -0.0435356 -3.16629e-21)
(0.936097 -0.0418629 8.4554e-21)
(1.18707 0.0115556 -6.39644e-21)
(1.18731 0.00908244 2.42106e-20)
(1.18486 0.0108644 2.00591e-20)
(-0.0487743 0.0143004 3.0365e-20)
(-0.0349868 0.0157195 4.09622e-20)
(-0.0552342 0.0137805 6.25113e-21)
(1.10974 -0.075807 7.70175e-21)
(1.11084 -0.0779018 6.9839e-21)
(1.10772 -0.0776013 -2.61949e-21)
(1.21421 0.0904605 -9.27039e-21)
(1.21272 0.0922417 1.16318e-20)
(1.21994 0.0925448 2.11438e-21)
(1.02414 -0.0576708 6.76773e-24)
(1.02501 -0.057013 -7.82787e-22)
(1.30642 -0.205471 6.04725e-20)
(1.00014 -0.0026556 2.37581e-21)
(1.00021 -0.00311465 7.19412e-22)
(1.00019 -0.00320676 -1.15237e-22)
(1.16794 -0.134082 3.94776e-21)
(1.17135 -0.13193 4.84163e-20)
(1.17127 -0.137404 -5.69462e-20)
(1.03562 -0.111588 -1.49938e-21)
(1.03858 -0.112328 -1.381e-21)
(1.03669 -0.114894 2.00146e-23)
(0.982859 -0.0319197 3.91781e-22)
(0.983672 -0.0326357 7.50996e-21)
(1.25844 -0.000679397 4.95485e-20)
(1.22772 0.00319125 1.6506e-21)
(1.23032 0.000602597 1.68635e-21)
(1.07003 -0.0333023 1.16495e-22)
(1.06843 -0.0321103 8.83421e-21)
(1.07054 -0.0315667 1.47306e-20)
(0.170156 -0.546659 1.08263e-20)
(0.127127 -0.590586 -2.5278e-20)
(1.02164 -0.0106772 2.21946e-21)
(1.02257 -0.0109625 3.0624e-23)
(1.26182 -0.00390818 -2.38637e-20)
(1.26252 -0.00679885 2.44422e-20)
(1.25914 -0.00546905 -6.15457e-20)
(-0.198975 0.00202016 -8.62468e-21)
(-0.219497 0.000126478 3.70614e-20)
(-0.152895 0.00787696 1.08824e-20)
(-0.156384 0.0086947 1.20109e-20)
(-0.133272 0.00853212 -5.89453e-20)
(0.897493 -0.103367 -2.3735e-20)
(0.902925 -0.101679 -1.53024e-20)
(0.90124 -0.107926 1.55701e-20)
(1.18661 0.0139995 1.22864e-22)
(1.18903 0.012318 3.26459e-20)
(1.00007 -0.00173889 -1.2783e-21)
(1.00003 -0.00129585 -1.50024e-21)
(1.00004 -0.00131872 5.6308e-23)
(0.74484 -0.315774 0)
(0.725195 -0.308808 1.66473e-21)
(1.00355 -0.0203974 -3.77502e-21)
(1.00345 -0.019465 1.60363e-21)
(1.00392 -0.0201262 1.36483e-21)
(1.16399 -0.132098 -9.26602e-23)
(-0.064845 -0.0116315 0)
(-0.106643 -0.006653 2.53012e-20)
(-0.0911501 -0.00880723 -2.44264e-20)
(0.894561 -0.0994449 1.75353e-21)
(0.896481 -0.0925946 1.49751e-20)
(1.10812 -0.0729825 -6.1289e-21)
(1.11161 -0.0731561 -1.17508e-20)
(0.996463 -0.00559611 1.36735e-22)
(0.996104 -0.00618852 7.00124e-23)
(-0.109769 0.0113186 2.42493e-20)
(-0.0880126 0.0110207 8.25685e-21)
(1.03265 -0.01883 -3.42958e-21)
(1.032 -0.0178116 -2.75881e-21)
(0.66532 -0.348167 1.50188e-20)
(0.819572 -0.442179 -1.22908e-19)
(-0.100592 0.0118618 -1.61899e-20)
(-0.105065 0.0115121 -2.28375e-20)
(-0.0818524 0.0122981 -2.41491e-20)
(1.21219 -0.269324 -3.16147e-21)
(1.21823 -0.26391 3.54126e-20)
(1.00015 -0.000708731 -7.77021e-23)
(1.00009 -0.000507558 5.17218e-23)
(1.28371 -0.411573 1.94539e-20)
(1.26995 -0.394944 2.01391e-20)
(1.26272 -0.403756 -8.37085e-21)
(-0.222842 0.0011668 -2.0471e-20)
(-0.218152 7.02528e-05 6.13978e-20)
(-0.202699 0.00317131 6.15022e-20)
(0.116106 0.0300328 -2.67596e-20)
(0.0959928 0.0273208 -3.6372e-20)
(1.21084 0.088516 2.01124e-20)
(1.16465 -0.0451519 -6.24772e-21)
(1.16394 -0.0485037 3.63108e-20)
(1.16126 -0.0454026 3.04153e-20)
(0.705098 -0.377139 1.31416e-20)
(0.699235 -0.357479 -2.08249e-21)
(0.680499 -0.371566 -3.0654e-20)
(1.27791 -0.000744387 -1.89293e-20)
(1.27922 -0.00343958 2.22733e-20)
(1.15188 0.0247617 5.40968e-20)
(1.14911 0.0250345 2.19428e-20)
(1.07456 -0.470154 1.50838e-20)
(1.05864 -0.465359 1.45258e-20)
(1.05957 -0.176974 0)
(1.05419 -0.176164 0)
(1.05754 -0.172151 -4.18196e-21)
(-0.124815 -0.00183387 3.30397e-20)
(-0.140366 -0.00359102 0)
(-0.140281 -0.00394577 2.97189e-21)
(1.26927 -0.0417287 -2.16543e-21)
(1.2688 -0.0379601 -5.87717e-20)
(1.26564 -0.0415072 -6.2881e-20)
(1.01446 -0.000903835 1.1588e-21)
(1.01527 -0.00126988 6.61046e-22)
(1.01455 -0.00184797 -1.41433e-21)
(1.13037 -0.0363819 -1.84056e-20)
(1.12771 -0.0352918 -2.34447e-20)
(1.12781 -0.0379401 3.04404e-21)
(1.22959 0.0837297 -1.67325e-20)
(0.0545335 0.0198341 5.6077e-20)
(0.0357026 0.0185341 2.17464e-20)
(-0.0433532 -0.00292736 9.26636e-21)
(-0.0269521 0.000465816 6.09155e-21)
(-0.03584 -0.000995402 4.54313e-21)
(1.02727 -0.0241395 1.69805e-21)
(1.02821 -0.0238652 -4.26731e-22)
(0.577243 -0.237825 5.02127e-20)
(0.993519 -0.0228473 -3.23838e-21)
(0.994035 -0.0231503 1.47777e-22)
(0.994036 -0.0221004 -3.20776e-21)
(1.26131 0.0248642 2.01798e-20)
(1.26362 0.0225204 3.82531e-21)
(1.2682 0.0216873 6.16161e-20)
(1.25162 -0.0376223 -3.08171e-21)
(1.25536 -0.0391167 -6.26018e-20)
(1.2792 -0.0422623 4.4601e-20)
(1.13228 -0.0377632 2.76609e-21)
(1.13223 -0.0355328 -6.48292e-21)
(1.1982 -0.0453689 0)
(1.20122 -0.0458243 3.60469e-20)
(1.27026 -0.044621 5.76125e-20)
(1.27261 -0.0410608 3.27156e-20)
(1.00296 -0.0375091 6.73508e-21)
(1.00388 -0.038443 4.66518e-21)
(1.00362 -0.0367231 3.13067e-21)
(0.806234 -0.162061 -5.4889e-20)
(0.794375 -0.157384 2.04029e-20)
(1.22583 0.0599538 1.08107e-20)
(1.22656 0.0626839 -2.85293e-21)
(1.22385 0.0613691 2.4196e-20)
(0.600707 0.0234536 -8.18595e-21)
(0.590931 0.0225561 8.41324e-21)
(0.667117 0.0206282 -2.86752e-20)
(0.998392 -0.0145633 9.61748e-22)
(0.998639 -0.0140022 2.28424e-21)
(0.998384 -0.0136916 -9.50376e-22)
(0.983361 -0.0306654 1.65572e-20)
(0.981943 -0.0312654 3.70096e-22)
(0.892326 -0.105135 -1.91122e-20)
(0.00345183 0.0202578 7.45054e-21)
(0.00891399 0.0202202 -3.25825e-20)
(0.0279766 0.0221299 -1.50574e-21)
(-0.222421 0.010017 6.22898e-21)
(-0.238445 0.0112487 -9.60382e-20)
(-0.223971 0.00923304 -8.1151e-20)
(1.19595 -0.023501 5.82311e-21)
(1.19358 -0.024348 2.63345e-20)
(1.19609 -0.0262815 -2.56214e-20)
(1.04594 -0.0254892 2.42034e-21)
(1.04535 -0.0265116 0)
(1.24741 -0.0254419 -6.74849e-21)
(1.18521 -0.0196545 -7.85916e-20)
(1.26753 -0.0458047 4.95793e-20)
(1.26302 -0.0419669 -3.40531e-20)
(1.28619 -0.0484593 2.48795e-20)
(1.24704 0.0231738 1.00011e-20)
(1.24518 0.0262036 2.62209e-20)
(1.24335 0.0231991 2.3633e-20)
(1.19824 -0.0419183 0)
(1.19502 -0.0446015 0)
(-0.00217666 0.019406 -2.09196e-20)
(-0.0180019 0.0168166 -2.40401e-20)
(-0.252388 0.00333003 3.92324e-21)
(-0.251819 0.00275916 3.57412e-20)
(-0.274959 0.0025628 -2.06628e-20)
(1.13233 -0.0484418 4.64693e-21)
(1.1321 -0.0508339 4.49771e-22)
(1.13473 -0.0491276 3.83198e-21)
(1.16425 -0.0126587 1.50159e-20)
(1.16685 -0.0129761 6.00643e-20)
(1.16514 -0.0104774 2.67333e-20)
(0.741783 -0.149507 3.96769e-21)
(0.707023 -0.138882 -8.92345e-21)
(0.576815 -0.106204 -2.47293e-20)
(1.03074 -0.0318132 2.28674e-22)
(1.03147 -0.0330532 3.32843e-21)
(1.02973 -0.032309 5.28223e-22)
(1.00225 -0.00937706 -3.23998e-23)
(1.00231 -0.0091204 -4.58446e-22)
(1.00203 -0.00871697 0)
(1.24836 0.0211129 -1.56984e-20)
(1.24977 0.0239656 1.82928e-20)
(1.17484 -0.182086 0)
(1.17417 -0.176878 -2.87759e-20)
(1.16961 -0.180206 0)
(1.03382 -0.0189334 3.25915e-21)
(1.03483 -0.0190857 3.3943e-21)
(1.03413 -0.0182331 -3.60799e-23)
(1.00027 -0.00309467 -2.16769e-23)
(1.00023 -0.00309947 0)
(1.00016 -0.00262485 0)
(1.00362 -0.0210886 -2.90684e-21)
(1.00323 -0.0204546 -1.30227e-21)
(1.00573 -0.00101756 1.27105e-21)
(1.00616 -0.00105423 2.76248e-22)
(1.00569 -0.000606224 1.05019e-21)
(1.16216 -0.0331491 -2.70901e-20)
(1.16489 -0.0343812 -1.04047e-20)
(1.16494 -0.0312751 3.36509e-20)
(1.00248 -0.010106 5.5007e-25)
(-0.0434961 0.0145685 2.26449e-20)
(-0.0240733 0.0164181 2.22323e-20)
(1.1924 -0.0293686 -1.2881e-20)
(1.19094 -0.0262368 -1.8076e-20)
(1.02011 -0.0474182 -4.74099e-22)
(1.01905 -0.0473401 -7.73092e-22)
(1.02004 -0.0485462 2.0113e-22)
(0.0439046 0.0175298 4.49358e-20)
(-0.153415 0.00642273 2.15949e-20)
(-0.165124 0.00570778 1.19005e-20)
(0.974999 -0.0346846 -5.08935e-21)
(0.975642 -0.036073 2.60804e-21)
(0.976502 -0.0345145 8.5899e-21)
(1.26396 -0.00237945 -4.16241e-20)
(-0.268136 0.00415523 2.22898e-20)
(-0.291062 0.00393048 9.08913e-21)
(-0.267972 0.00381535 8.16821e-20)
(0.975619 -0.0693014 1.20609e-20)
(0.978115 -0.0700669 -4.10059e-21)
(0.97403 -0.0332774 -7.95317e-21)
(0.972987 -0.0353255 -4.2309e-21)
(1.19415 -0.0318962 4.54107e-20)
(1.19561 -0.0290053 -2.19489e-20)
(-0.20622 3.22807e-05 -3.69917e-22)
(-0.207574 0.000637753 0)
(-0.188606 0.00192068 0)
(0.0289455 -0.00686527 3.19337e-21)
(-0.00369919 -0.00488057 -6.95068e-20)
(0.023686 -0.00750675 -1.08967e-19)
(1.22338 -0.0515971 3.48343e-20)
(1.22623 -0.0536557 -8.92728e-20)
(1.22268 -0.054361 -3.75131e-20)
(1.00328 -0.000735005 6.71406e-22)
(1.00313 -0.00104708 -5.16622e-22)
(0.198846 0.0195898 -4.65031e-21)
(0.246732 0.0199784 2.03182e-21)
(1.00182 -0.0117471 1.73048e-21)
(1.22893 -0.0553941 -1.57412e-20)
(1.229 -0.0588581 2.27892e-20)
(1.23238 -0.0570536 2.6869e-20)
(-0.270107 0.00450307 -7.18954e-20)
(-0.249426 0.0054104 -1.82404e-20)
(0.607823 0.021803 1.36137e-20)
(0.60627 0.0235358 -5.69052e-20)
(0.676972 0.0214136 -5.2384e-20)
(1.10149 -0.00363133 0)
(1.10095 -0.00187468 6.90384e-21)
(0.784522 -0.166777 1.62809e-21)
(0.909061 -0.204219 -7.25114e-20)
(1.04762 -0.205045 -1.31677e-19)
(1.16097 -0.22693 -2.63213e-20)
(1.18767 -0.242109 -3.44226e-20)
(-0.161302 0.00077861 1.96729e-20)
(-0.1566 0.000822874 -1.95886e-20)
(-0.137814 -0.000612361 -7.81382e-20)
(1.27575 -0.119096 -2.44466e-21)
(1.27173 -0.119858 -3.9548e-20)
(1.27487 -0.123062 4.33348e-20)
(0.780605 -0.1301 -4.33287e-20)
(0.78116 -0.118466 -1.82221e-20)
(0.768599 -0.123022 -4.2463e-20)
(-0.126101 0.00865572 1.37404e-20)
(-0.120726 0.00891202 3.0119e-20)
(-0.122024 0.00948753 2.68884e-21)
(-0.107919 0.0105968 -1.2469e-20)
(-0.124379 0.00907175 -5.66473e-21)
(0.618696 0.0145353 7.05867e-21)
(0.545767 0.0186036 1.97837e-20)
(1.06527 -0.0449138 1.09923e-20)
(1.0641 -0.046478 -2.10363e-21)
(-0.251462 0.00622351 5.79449e-20)
(-0.235178 0.00468674 5.11319e-20)
(-0.229916 0.00474752 -4.81812e-20)
(-0.1206 -0.00572638 1.9692e-20)
(-0.119174 -0.00791122 -6.96501e-21)
(0.463357 -0.471828 0)
(0.432252 -0.444409 -4.22099e-20)
(0.431408 -0.491334 6.94076e-20)
(0.493035 -0.453086 4.74832e-20)
(0.500941 -0.494409 -4.11219e-22)
(0.934403 -0.0467374 -2.73526e-20)
(0.935934 -0.0476376 2.01232e-20)
(1.22294 -0.0614934 -1.00987e-21)
(1.21948 -0.0626447 -6.95863e-20)
(1.22291 -0.0648861 1.02946e-20)
(0.945891 -0.150783 1.63135e-20)
(0.94965 -0.145892 3.32451e-21)
(0.952321 -0.152345 6.72171e-21)
(-0.0803782 -0.000129238 -3.52491e-20)
(-0.0976214 -0.00389066 1.59594e-20)
(0.785736 -0.178502 0)
(0.784148 -0.16507 2.25991e-20)
(0.770635 -0.174264 0)
(1.01145 -0.00260794 -1.39646e-21)
(1.0114 -0.00309653 5.14197e-22)
(1.01196 -0.00291395 1.26388e-21)
(1.02813 0.000134174 -5.33859e-21)
(1.02806 8.01425e-05 1.93396e-21)
(1.0919 -0.118318 2.32718e-20)
(1.0954 -0.119756 -6.63206e-21)
(1.09178 -0.121651 -7.47377e-21)
(-0.181957 0.00042264 -3.64037e-20)
(-0.166552 0.00108586 -6.57471e-20)
(0.232785 -0.576021 -1.29101e-20)
(1.0316 -0.0313042 -3.33926e-22)
(1.03 -0.0307634 -3.01626e-21)
(-0.171101 0.00862047 1.45347e-21)
(0.934293 -0.147329 -5.6636e-21)
(0.94057 -0.149499 9.50049e-21)
(0.938239 -0.142946 -4.06026e-21)
(1.13067 -0.113851 -3.6207e-20)
(1.13492 -0.11326 3.39344e-21)
(1.10632 -0.000698935 1.14112e-20)
(1.10454 9.5794e-05 1.68145e-20)
(-0.207474 0.000918509 -5.33591e-21)
(-0.224184 0.00047544 -3.20081e-22)
(1.24394 -0.0222813 9.55065e-20)
(1.273 -0.0276222 5.61387e-20)
(1.22647 0.0867329 -4.91575e-21)
(1.03462 -0.107871 1.96941e-21)
(1.03238 -0.110092 7.8029e-22)
(1.10651 -0.070807 -6.03247e-21)
(1.10492 -0.0729494 6.99763e-22)
(0.116503 0.0263595 -3.2546e-21)
(0.12104 0.0262501 4.80427e-20)
(0.100839 0.0236068 -2.50883e-21)
(0.977774 -0.0435448 8.30717e-21)
(0.979403 -0.0430285 7.56257e-21)
(1.20806 -0.0410331 7.77399e-20)
(1.12976 -0.0472173 -1.82618e-20)
(1.13264 -0.0454816 -3.4477e-20)
(1.19279 -0.0342887 -8.16306e-21)
(1.1963 -0.0336735 1.39333e-20)
(0.931165 -0.152771 2.64639e-21)
(0.927788 -0.14577 -4.41732e-21)
(0.993003 -0.0236337 7.47277e-21)
(1.02169 -0.0477575 0)