/*--------------------------------*- C++ -*----------------------------------*\
| =========                 |                                                 |
| \\      /  F ield         | OpenFOAM: The Open Source CFD Toolbox           |
|  \\    /   O peration     | Version:  v2012                                 |
|   \\  /    A nd           | Website:  www.openfoam.com                      |
|    \\/     M anipulation  |                                                 |
\*---------------------------------------------------------------------------*/
FoamFile
{
    version     2.0;
    format      ascii;
    class       volScalarField;
    location    "250";
    object      k_0;
}
// * * * * * * * * * * * * * * * * * * * * * * * * * * * * * * * * * * * * * //

dimensions      [0 2 -2 0 0 0 0];


internalField   nonuniform List<scalar> 
13917
(
0.00885253
0.000165306
0.000222839
0.000148862
0.000161916
0.000164933
0.000157872
0.000110125
0.000156276
0.00120256
0.000196168
0.000146364
0.000164585
0.0218818
0.000160192
0.00795171
0.000147286
0.000185864
0.000198597
0.00798094
0.000165357
0.000149155
0.000174714
0.000149222
0.000151629
0.000167249
0.00482289
0.000879471
0.00017454
0.000186094
0.000743115
0.000186661
0.000148743
0.0143594
0.000159573
0.000357609
0.000153025
0.000181317
0.000157973
0.000169696
0.00014766
0.000158254
0.000153561
0.000198732
0.000198174
0.000216062
0.000163719
0.012546
0.0217218
0.000159744
0.000146176
0.000196291
0.00557766
0.000146415
0.000146653
0.000196037
0.00103957
0.000174631
0.000157447
0.000216908
0.0121331
0.000200935
0.000153142
0.000151205
0.00257066
0.00295996
0.000177083
0.000277077
0.000202755
0.00898402
0.000197886
0.0135331
0.000146209
0.00015639
0.000166351
0.000152595
0.000156525
0.00015555
0.000152174
0.000149045
0.000149124
0.000151166
0.000146094
0.000242282
0.000142309
0.000988873
0.000185634
0.000146447
0.000169271
0.000146729
0.000139981
0.000153912
0.0227373
0.000155008
0.000148486
0.000177168
0.00411317
0.000162226
0.000145492
0.00020829
0.000145638
0.000145076
0.000149204
0.000149207
0.000156304
0.000296792
0.0124729
0.000199863
0.000159342
0.0102779
0.000144771
0.0146521
0.000174706
0.0147925
0.00207026
0.000153393
0.000196951
0.000138921
0.00021503
0.000145583
0.000151105
0.000153456
0.000180051
0.000192019
0.0101854
0.000141029
0.000150804
0.000168039
0.000151187
0.000192433
0.00016506
0.000211026
0.0090547
0.000153325
0.000190723
0.0142317
0.0124686
0.0112913
0.000169177
0.000180877
0.017097
0.000154557
0.000300771
0.000145027
0.000145604
0.000165917
0.000211269
0.00632751
0.0110064
0.000146581
0.000166759
0.000146014
0.000145432
0.000145658
0.00984511
0.000154552
0.000148399
0.0116323
0.000143585
0.000140118
0.000142626
0.0102322
0.000156249
0.0174815
0.0125112
0.000236256
0.00535209
0.012451
0.000134245
0.000171026
0.000150194
0.0094533
0.000156218
0.0122645
0.000185393
0.000143602
0.000148863
0.00019849
0.000164294
0.000156937
0.0001533
0.000149862
0.000146177
0.000208979
0.000215454
0.000213672
0.000146028
0.000208469
0.000180004
0.000270662
0.000185698
0.000195966
0.000201719
0.00886834
0.000155011
0.010207
0.000156326
0.0056141
0.000159002
0.000153669
0.000161465
0.00888831
0.0104599
0.000152154
0.00214942
0.000165446
0.000167253
0.000154368
0.000198023
0.000149203
0.000145509
0.000186185
0.000183155
0.010553
0.000189978
0.00016889
0.0124055
0.000160286
0.000140952
0.00014066
0.0134959
0.000204957
0.000211526
0.000143433
0.00015468
0.0195794
0.00928205
0.000139408
0.000139015
0.000147562
0.000141413
0.000141175
0.0126731
0.00989304
0.00014864
0.000137879
0.000186837
0.0128818
0.000143398
0.000143426
0.00398971
0.000298045
0.000207384
0.0129338
0.000192322
0.000144984
0.01138
0.000187894
0.000172672
0.000188344
0.000151659
0.00983605
0.000145688
0.00017172
0.000183291
0.000149236
0.0001483
0.000151141
0.000168904
0.000159922
0.0130964
0.0202395
0.00015359
0.000138995
0.000154888
0.00013907
0.000145728
0.000164999
0.000168076
0.000154434
0.0141055
0.0130116
0.000144841
0.0001613
0.000221094
0.000138516
0.000199398
0.0146259
0.000138754
0.0105039
0.000158589
0.00947565
0.00014415
0.000157995
0.000149613
0.000145336
0.000205273
0.000167865
0.00017874
0.00015963
0.022029
0.00016699
0.000145164
0.0114647
0.000140615
0.000178186
0.000164958
0.000153916
0.000161661
0.000152044
0.000156131
0.00016021
0.000198116
0.00259264
0.000170885
0.000151713
0.000143332
0.00957168
0.00791733
0.000150967
0.0001165
0.000153975
0.0142648
0.000206132
0.0136909
0.0123627
0.00326521
0.000202026
0.000161369
0.000253089
0.0146546
0.000222425
0.000163524
0.000159922
0.00236623
0.000151684
0.000166102
0.000195466
0.00014531
0.00915542
0.000142727
0.000173013
0.000145338
0.00523003
0.000140629
0.000169115
0.000166277
0.00351207
0.000144529
0.000188618
0.000300721
0.000148073
0.000152089
0.0152423
0.0003012
0.00612927
0.0215446
0.000138106
0.000148087
0.000293252
0.000202511
0.000138445
0.000164495
0.000146152
0.000181324
0.000169922
0.000196178
0.000192063
0.000198529
0.000172431
0.012473
0.000151576
0.000148064
0.000164021
0.000212215
0.000144446
0.00831879
0.000172308
0.00562914
0.000146884
0.000198076
0.000156767
0.0241757
0.000158628
0.000212641
0.000215701
0.000168141
0.000145013
0.000265231
0.000149925
0.0123625
0.000203933
0.000159208
0.0238418
0.000150981
0.00273684
0.000146644
0.00827093
0.0036043
0.00015206
0.020145
0.000193408
0.000150791
0.012377
0.000229307
0.000151114
0.000205675
0.000147423
0.000196482
0.000221056
0.000142943
0.000157197
0.00015164
0.000144759
0.000141363
0.000151617
0.0133476
0.000233621
0.000147403
0.000153132
0.000148517
0.000177195
0.000860569
0.000140648
0.000134344
0.000205226
0.000197228
0.000145637
0.000151721
0.00962714
0.0287726
0.00242818
0.000200333
0.000285211
0.000150511
0.000139618
0.000162259
0.000141196
0.000140876
0.000148885
0.000139888
0.000149315
0.0110444
0.000147579
0.000171943
0.0151954
0.000177891
0.0001459
0.000145278
0.0119941
0.000161627
0.00918945
0.000143465
0.0001434
0.000151452
0.000141812
0.000152697
0.000151768
0.00825569
0.000172412
0.000299973
0.000143372
0.000167267
0.000171719
0.000149055
0.000191519
0.00681608
0.000145969
0.0284486
0.000146271
0.000145035
0.000148346
0.000150873
0.000144444
0.000152018
0.0107911
0.0120565
0.000144107
0.000112063
0.000204154
0.000147764
0.000180391
0.000190081
0.0132336
0.000158367
0.000302641
0.00369434
0.00325301
0.00015163
0.00326747
0.000172881
0.000151271
0.000135382
0.000140899
0.000146167
0.00014844
0.000156747
0.000164709
0.000210491
0.000179724
0.000163814
0.000163038
0.000186595
0.000179958
0.000147415
0.0212951
0.000167668
0.000159626
0.0124554
0.000142375
0.000180963
0.0002011
0.000140499
0.0169899
0.000146127
0.000141728
0.000178123
0.000143655
0.000156387
0.000197468
0.0122346
0.0258319
0.000142529
0.000149617
0.000162514
0.000174988
0.000294339
0.00014709
0.000146519
0.000142328
0.000181308
0.00998187
0.000153121
0.000143538
0.0001534
0.000144341
0.000212153
0.000159938
0.000141617
0.000180148
0.000140475
0.000148379
0.000151325
0.0137642
0.000138958
0.000152864
0.000159961
0.000166299
0.000184551
0.000183676
0.000184374
0.000209556
0.000150651
0.000180069
0.00387023
0.0107954
0.0169507
0.000150541
0.000148457
0.000164799
0.000144021
0.00232153
0.000139394
0.0109076
0.000156293
0.000692653
0.000203457
0.000153564
0.00717762
0.000144149
0.000185683
0.000160131
0.000164476
0.00231244
0.000141898
0.000223977
0.00015076
0.000154136
0.000148638
0.000209429
0.000212847
0.000138317
0.000199501
0.000179616
0.00154902
0.000271312
0.00739302
0.0131602
0.000138996
0.00938595
0.000144579
0.0122733
0.00817358
0.000165886
0.00018179
0.00014582
0.000167232
0.000152828
0.000142159
0.000160641
0.000163785
0.000275509
0.000142861
0.000183973
0.000146009
0.000138021
0.000142582
0.000204933
0.00184451
0.00870793
0.000186954
0.000159724
0.000255639
0.0135022
0.000147557
0.0012373
0.000162102
0.000199213
0.00014402
0.000263375
0.000144104
0.000213928
0.000145785
0.00218373
0.000168312
0.00599333
0.000143457
0.000166988
0.000158321
0.00014644
0.0130521
0.000233341
0.000161789
0.000198239
0.000143326
0.000161587
0.000146914
0.0140775
0.000142871
0.000168103
0.000139175
0.000160146
0.000211941
0.000145843
0.000196867
0.000155478
0.000140572
0.0122442
0.000184831
0.000146857
0.00583393
0.000222871
0.000228076
0.000201543
0.000143817
0.000161564
0.0128885
0.000231012
0.000161065
0.000153016
0.000221443
0.000154875
0.000150061
0.00272305
0.000186143
0.000154907
0.0116929
0.000168791
0.00348309
0.000436117
0.0034045
0.000167572
0.000201258
0.011443
0.000156185
0.000114022
0.00261557
0.000140626
0.000146104
0.000142517
0.000163292
0.000155307
0.00932237
0.000167266
0.000144798
0.000193623
0.000143134
0.0140926
0.000158527
0.000151566
0.0149112
0.000183107
0.000270798
0.000146612
0.00016195
0.000152758
0.000148547
0.000159964
0.000145897
0.0100529
0.000162045
0.010093
0.000275747
0.000109774
0.00663046
0.000149659
0.00015756
0.000159371
0.015181
0.0237558
0.000156894
0.00995737
0.00568115
0.000140878
0.000151439
0.000152797
0.00030243
0.000237196
0.000168565
0.000148377
0.000152856
0.000200248
0.000159824
0.000196138
0.000167429
0.000148268
0.000149112
0.000159264
0.000159763
0.000165913
0.000233338
0.000154606
0.000165067
0.00985413
0.000422817
0.00770312
0.000152429
0.000163094
0.00015612
0.00022845
0.000149982
0.000183987
0.000648339
0.00049392
0.000144142
0.000154616
0.000164445
0.000143481
0.000145674
0.000170489
0.000173029
0.000204855
0.00019686
0.000143504
0.00023686
0.000156181
0.000156786
0.000199181
0.000148419
0.00018564
0.000233825
0.000138097
0.000183072
0.00018877
0.000167057
0.000147502
0.000144716
0.000150158
0.00829785
0.00014852
0.000159821
0.000172501
0.000146185
0.000147201
0.000194976
0.000264966
0.000186046
0.0285515
0.00017862
0.000288828
0.000145716
0.000157155
0.000229549
0.000165516
0.000209938
0.000144768
0.00014621
0.000146398
0.000155369
0.000185477
0.000147513
0.00456494
0.000154553
0.00819166
0.000152484
0.00015826
0.00014546
0.000188405
0.000158289
0.00892524
0.000186016
0.000146993
0.0135429
0.000149384
0.0122866
0.000152378
0.00158448
0.000157279
0.000149833
0.00014403
0.00942245
0.000159594
0.000333697
0.0294168
0.000143425
0.00016731
0.000137238
0.000186608
0.00811857
0.000138766
0.0112142
0.000153047
0.00211114
0.000195904
0.0168774
0.000141524
0.000147839
0.000193486
0.00014388
0.000146351
0.000150578
0.000148582
0.000172581
0.00014122
0.000231979
0.000148348
0.00851022
0.0122501
0.00409053
0.000295976
0.0285923
0.00800533
0.0163242
0.000140452
0.000160468
0.000144929
0.000149236
0.000142408
0.000159845
0.000143583
0.00145222
0.000146511
0.000255401
0.0001482
0.000163387
0.000191053
0.000152172
0.000171845
0.000149367
0.000166901
0.000156654
0.00015008
0.00560762
0.000187536
0.0040678
0.000151295
0.00014438
0.000150959
0.00015476
0.0125591
0.000140694
0.000232296
0.00014376
0.00457599
0.000158024
0.000144473
0.00018496
0.000204684
0.000140945
0.000309353
0.000611701
0.000153043
0.000188691
0.000144433
0.000211288
0.000154922
0.000153955
0.0112558
0.000150788
0.000149122
0.00019301
0.0104874
0.000162654
0.0170717
0.000258398
0.000158958
0.000153608
0.000148771
0.000281758
0.000144182
0.000201466
0.000145761
0.016698
0.000158272
0.00502381
0.000152772
0.000140037
0.00379546
0.000160275
0.000546818
0.00104748
0.000150327
0.000141647
0.0173819
0.000159531
0.000160444
0.000185888
0.000150776
0.00270502
0.000170142
0.00018985
0.000200442
0.000152704
0.0160909
0.000148992
0.000184453
0.000143634
0.0146238
0.00405696
0.000147065
0.000154967
0.000163674
0.000147055
0.000151459
0.000150105
0.000154225
0.000143942
0.000160494
0.000138062
0.000149858
0.000187828
0.0122924
0.0106533
0.000191212
0.000150687
0.00328633
0.000143142
0.000229739
0.0100369
0.00531608
0.000140683
0.000140696
0.000146592
0.000146591
0.000140114
0.000151144
0.000143158
0.00016849
0.000141668
0.00709245
0.0173292
0.000143309
0.00791623
0.000143702
0.000151377
0.000194928
0.0143875
0.000182675
0.000141727
0.000252198
0.000156724
0.000152786
0.000239075
0.000161478
0.0180144
0.00014941
0.00855833
0.00014571
0.000153836
0.000161928
0.0130497
0.000150424
0.0145869
0.000214635
0.000166143
0.000154123
0.000144367
0.000144338
0.000195349
0.000166531
0.000154571
0.0161453
0.00738501
0.0120551
0.000196833
0.000153518
0.0165033
0.000153266
0.0120693
0.000182258
0.000157367
0.000149886
0.0100896
0.0268416
0.000273528
0.000178915
0.00629903
0.00015174
0.000143535
0.000167604
0.000148135
0.000145608
0.00021844
0.0106543
0.000153966
0.00015893
0.0128386
0.000151195
0.000138593
0.0120248
0.0140442
0.000148855
0.000145628
0.000157322
0.000145106
0.000152744
0.000169517
0.000155625
0.000144761
0.00716834
0.000171258
0.000192962
0.00817943
0.00020968
0.0145071
0.000146838
0.00014795
0.000433556
0.010313
0.00222742
0.00012551
0.000163069
0.000148036
0.000149481
0.00016401
0.0100727
0.000165723
0.000153339
0.000179102
0.000144894
0.000472248
0.000187608
0.000202244
0.000183569
0.000227296
0.000216861
0.00486159
0.0149389
0.000182859
0.000226701
0.000138997
0.000180414
0.000187325
0.00877152
0.000154261
0.000164786
0.000155522
0.00391895
0.000150692
0.0128779
0.00016618
0.000189881
0.0120759
0.000146002
0.000198719
0.00015154
0.000146758
0.000220126
0.00019282
0.000142476
0.000142858
0.000150013
0.000297545
0.000141877
0.000150409
0.000152784
0.000148912
0.000145278
0.000190929
0.000188002
0.000152759
0.000151049
0.000215432
0.000470072
0.000164261
0.0145646
0.00014687
0.000143992
0.0262802
0.000159977
0.000150913
0.0141273
0.0152479
0.000163604
0.000180447
0.000156514
0.00851651
0.000226409
0.00016348
0.000206338
0.000152637
0.000187685
0.012958
0.000217081
0.00868181
0.0243769
0.000148895
0.000148234
0.00016533
0.0001454
0.000148674
0.000234609
0.000150334
0.000173339
0.000140644
0.000182467
0.012788
0.000150889
0.000123488
0.0289237
0.000143995
0.000190492
0.000156247
0.000150028
0.00014352
0.0167075
0.000186241
0.0110389
0.000157993
0.0130968
0.000189551
0.000161718
0.0021681
0.0001664
0.000200932
0.000144718
0.000214051
0.000143542
0.000155324
0.000167037
0.000155342
0.000148217
0.000180151
0.00276994
0.000142736
0.000203877
0.00987798
0.00014645
0.000143052
0.00016676
0.000274085
0.000224884
0.000149039
0.000162461
0.00121744
0.0170304
0.0101892
0.000145329
0.000141276
0.00014884
0.000144409
0.000176373
0.00015243
0.000278903
0.000154211
0.00015387
0.000199311
0.00101343
0.00019071
0.0137566
0.0124207
0.000146842
0.000148678
0.000140834
0.00014957
0.000188213
0.00166786
0.00420904
0.000192101
0.000160918
0.000177388
0.000152571
0.0029854
0.000154873
0.000198196
0.000154813
0.000219278
0.002586
0.000147569
0.000146539
0.0152832
0.000175932
0.000200985
0.0121194
0.000196814
0.000152468
0.000219135
0.000169743
0.000142858
0.00361826
0.00935449
0.000155079
0.00016352
0.000195201
0.000164753
0.000148709
0.000140904
0.000143165
0.000145711
0.000143414
0.000160956
0.000177428
0.0120439
0.000165263
0.00015601
0.000163538
0.000188575
0.000150792
0.000164804
0.000210309
0.000226439
0.0125922
0.000150215
0.000140639
0.0152638
0.000142279
0.00125589
0.00015062
0.000172051
0.000147043
0.000142786
0.000230887
0.000156608
0.000150106
0.000144306
0.0130063
0.000231046
0.013421
0.00015336
0.000147773
0.0248738
0.000140048
0.000150749
0.000197746
0.0103576
0.000157148
0.000165026
0.000148449
0.000294501
0.000142826
0.00015517
0.000148204
0.000140271
0.000225969
0.000142843
0.000145312
0.000221065
0.000182449
0.00885276
0.000222397
0.000142486
0.000161767
0.000147029
0.000152242
0.000154701
0.000152411
0.000145775
0.000221427
0.000145266
0.000185545
0.000217613
0.000169874
0.000145251
0.000152826
0.000151115
0.0175404
0.000141427
0.00207054
0.000186622
0.000155382
0.000178548
0.000164938
0.000162092
0.000145476
0.000190267
0.00014369
0.000147708
0.00369453
0.000163647
0.00016535
0.000147538
0.000157411
0.000158483
0.000191584
0.00014466
0.0131635
0.000173954
0.000154599
0.000143154
0.00014494
0.000173713
0.000185472
0.0273492
0.000211689
0.000363885
0.000168434
0.000191175
0.000152992
0.00459272
0.000140616
0.000140829
0.000154385
0.00364004
0.000145469
0.0153466
0.000146745
0.000149377
0.000198958
0.000216547
0.00871051
0.00445509
0.000155746
0.00020174
0.000182275
0.000149496
0.00543773
0.000143756
0.000143809
0.000400814
0.00014317
0.0151444
0.00432812
0.000143548
0.00014404
0.00015003
0.00476804
0.000143738
0.000140917
0.000188619
0.000142527
0.000146805
0.00016316
0.000149908
0.000174663
0.000145998
0.000158262
0.000140002
7.98539e-05
0.00392761
0.00014021
0.000140447
0.000148619
0.000143072
0.000153066
0.000152372
0.000157371
0.000146199
0.000145021
0.000149158
0.000144769
0.000182977
0.000145014
0.000188473
0.000148888
0.000167085
0.00014856
0.00014563
0.00014552
0.000142012
0.000166954
0.000157848
0.000155384
0.0106113
0.000521285
0.0133247
0.0140439
0.000189171
0.000288793
0.000148033
0.000144593
0.000162849
0.0114308
0.000160655
0.013381
0.000146513
0.000203545
0.00337228
0.000152708
0.000188629
0.0225185
0.0223718
0.000148157
0.000175836
0.000143573
0.000180697
0.000153644
0.0138867
0.00826928
0.000146163
0.00266364
0.000215494
0.000147228
0.000161875
0.000781289
0.000150985
0.000141227
0.0019576
0.0151701
0.000149412
0.000163997
0.000147895
0.000184349
0.000198071
0.00014578
0.000149214
0.000258234
0.000151931
0.000144035
0.000148349
0.00014321
0.000211375
0.000162624
0.00015971
0.0168582
0.00014343
0.000181805
0.000146139
0.00191915
0.000179118
0.000180266
0.000148072
0.000158659
0.000140929
0.000153041
0.000153094
0.000145295
0.000149358
0.000149612
0.000144368
0.000142745
0.00287907
0.000141185
0.00741389
0.00309206
0.0111845
0.000150493
0.000150077
0.000142892
0.0174824
0.000146961
0.000300887
0.000149191
0.00714939
0.000150582
0.000166504
0.00022814
0.000146289
0.000147324
0.0146294
0.000196086
0.0152137
0.000162436
0.000451478
0.0294335
0.000146583
0.014625
0.000147163
0.000156294
0.0115831
0.00015219
0.000168128
0.0110551
0.000159992
0.000185016
0.000145141
0.000283435
0.000143919
0.00822547
0.000142869
0.0103559
0.000144049
0.00014519
0.000157096
0.00754463
0.000150446
0.000412939
0.000184099
0.0211953
0.000143248
0.000159841
0.00622788
0.000481583
0.000135385
0.000186607
0.000148706
0.000194904
0.00586144
0.000152744
0.000249078
0.000140504
0.000200504
0.00840504
0.000151573
0.0103139
0.000143158
0.000103532
0.000210743
0.000152379
0.000155161
0.00842881
0.00895314
0.000144158
0.000150377
0.000144026
0.00014624
0.000187548
0.000182791
0.000232455
0.000153554
0.000157988
0.0150683
0.000170155
0.0171427
0.000270115
0.000142291
0.000143626
0.00021732
0.00949978
0.00038592
0.00502253
0.000222304
0.000168782
0.000132355
0.00469179
0.0130563
0.0104202
0.00014123
0.000187585
0.000173105
0.000185307
0.000144557
0.000156866
0.000181071
0.00021855
0.00849599
0.000159859
0.0181731
0.0163294
0.000170965
0.000143874
0.000143908
0.000165967
0.000151385
0.0104587
0.000158789
0.000171192
0.000203925
0.000176012
0.000140192
0.00016676
0.000161208
0.000144676
0.00130537
0.000164653
0.00503488
0.000153364
0.0149721
0.000229154
0.000218389
0.000142059
0.000156484
0.00016072
0.000426948
0.00019472
0.000185872
0.000161312
0.00177757
0.000142324
0.000155625
0.000165324
0.000197615
0.00917141
0.000141559
0.000139831
0.000149927
0.000221857
0.00122948
0.000154085
0.000176474
0.000203664
0.000141458
0.000174611
0.000152543
0.00460286
0.000159698
0.000179482
0.000303148
0.000159408
0.000153571
0.00025357
0.000143074
0.000173051
0.0127043
0.000166789
0.000194104
0.000163813
0.000182072
0.00781306
0.000541236
0.000144971
0.0156356
0.000908405
0.000143171
0.000205299
0.000183786
0.000195088
0.000147564
0.000207205
0.00482219
0.000193508
0.0130944
0.000157142
0.000186629
0.00014927
0.000146379
0.0001451
0.000143168
0.000229564
0.000225011
0.000142363
0.000166115
0.000214243
0.000142959
0.00859801
0.00517094
0.000201321
0.000146783
0.000151796
0.000149418
0.000174313
0.000143895
0.0125537
0.000160966
0.000184871
0.000155688
0.000184505
0.000158886
0.00016272
0.0188078
0.000144733
0.000149711
0.000141965
0.000152133
0.00402628
0.000197043
0.000159212
0.0126617
0.000153752
0.000148579
0.000161742
0.000147051
0.000154263
0.000187502
0.000155214
0.0125368
0.0107554
0.0123291
0.0001454
0.0133295
0.000143239
0.000235215
0.000139955
0.000203445
0.00935707
0.000146642
0.000219531
0.0128097
0.000163
0.000154294
0.000139457
0.000158117
0.0045001
0.000142884
0.000146643
0.000162392
0.000182083
0.000219026
0.000154856
0.00015561
0.000142132
0.000164892
0.00025704
0.000165211
0.000154248
0.000197731
0.000180436
0.012136
0.0125495
0.000163056
0.000149688
0.0126149
0.000144797
0.000184212
0.000145622
0.000101905
0.000167935
0.0001526
0.000168663
0.00932244
0.000143633
0.000148223
0.000140395
0.000210784
0.0069438
0.000195279
0.000144192
0.000152804
0.000141893
0.0171539
0.00015628
0.000273444
0.000181658
0.00015318
0.000207133
0.000162423
0.00392871
0.00014841
0.000150548
0.000161194
0.000168712
0.000199335
0.000146194
0.000147607
0.000166779
0.0148714
0.000148138
0.000151675
0.000610088
0.000150656
0.000169249
0.000154031
0.000151094
0.000157358
0.0087403
0.000152167
0.022435
0.0026745
0.000135903
0.0264748
0.000147011
0.000192853
0.000175653
0.000152875
0.000142665
0.000135818
0.000143831
0.0210405
0.0001763
0.0176564
0.0138892
0.00014401
0.000173968
0.000168672
0.000250084
0.000143881
0.000181806
0.000656642
0.000240171
0.000146153
0.000150742
0.000147657
0.0161388
0.00442521
0.000167973
0.000144956
0.000161935
0.01364
0.000145788
0.000150956
0.000150668
0.000202865
0.000236558
0.000140497
0.0122597
0.000162238
0.000143796
0.00124549
0.000181321
0.0264967
0.016769
0.000162827
0.000156652
0.000152376
0.000156578
0.000148245
0.000181229
0.000174926
0.000157432
0.000153797
0.000226779
0.00862433
0.000142558
0.000193544
0.0132064
0.0177644
0.000158562
0.000144988
0.00398738
0.000289257
0.00015821
0.000146869
0.0148188
0.000186664
0.000137035
0.0117984
0.000157597
0.000147613
0.00021443
0.000148882
0.000219205
0.000149664
0.00013459
0.000150688
0.000140368
0.00228632
0.000141396
0.000142886
0.000187532
0.000155123
0.00015353
0.000202576
0.000145728
0.000144211
0.000150257
0.000148938
0.00046681
0.000373258
0.00023419
0.0153786
0.000170227
0.00874218
0.000178248
0.0127185
0.0129615
0.00446084
0.000144853
0.00016014
0.000143997
0.000146731
0.000153291
0.000162868
0.000220077
0.00018317
0.000168184
0.000142849
0.000143657
0.000181668
0.000146469
0.000147631
0.000146014
0.0186137
0.000162135
0.00794153
0.000145297
0.00325054
0.000147791
0.000152979
0.000150083
0.000173081
0.000143655
0.000188979
0.0146202
0.000170807
0.0145715
0.00879856
0.000181931
0.000157983
0.000254133
0.000194164
0.000144441
0.000152577
0.000136061
0.0139731
0.00013513
0.000169489
9.87466e-05
0.000187016
0.0229219
0.0201541
0.000184792
0.00146849
0.000149876
0.000139236
0.000219545
0.000297351
0.00014438
0.000145172
0.0232333
0.000141314
0.000205262
0.000156446
0.000155283
0.000154944
0.00014463
0.000185313
0.0142689
0.0131517
0.000154318
0.000150013
0.000188998
0.000149623
0.000187345
0.000142909
0.000205547
0.000194833
0.000147525
0.000147443
0.000136301
0.000197306
9.71595e-05
0.000219896
0.000203143
0.000160583
0.000244146
0.000188353
0.0002011
9.68349e-05
0.000143334
0.0138664
0.000148836
0.018826
0.000229337
0.0137727
0.000414719
0.000150661
0.000178266
0.000210219
0.000149908
0.0110454
0.000145551
0.000144646
0.000156459
0.000148133
0.00016242
0.000237352
0.000257035
0.0117578
0.00015587
0.000169768
0.000149329
0.000155042
0.000145822
0.000197745
0.000191817
0.0119184
0.000173063
0.000142929
0.000143531
0.000149809
0.000227864
0.000152793
0.000151358
0.000154512
0.000194968
0.000163279
0.000169772
0.000175576
0.0138197
0.00016007
0.000164442
0.000143909
0.000156596
0.000219757
0.000174276
0.000174469
0.00014718
0.00123724
0.000164028
0.000146572
0.000175472
0.0150878
0.000183734
0.000163748
0.00014143
0.012825
0.000147702
0.000141489
0.000143566
0.000366536
0.000259754
0.000181894
0.000112513
0.00018276
0.000168685
0.000175588
0.000181179
0.00578471
0.000161514
0.004524
0.000147958
0.000177521
0.000166147
0.000823426
0.000164721
0.000150827
0.0153709
0.000146266
0.000148666
0.0268472
0.000299846
0.000157238
0.00022191
0.000154031
0.000150062
0.000274412
0.000146147
0.000142583
0.000145028
0.00017342
0.000143794
0.000160999
0.000167795
0.000182512
0.000263409
0.000148604
0.0112121
0.000166303
0.015589
0.0145674
0.000144842
0.000146229
0.000155707
0.00038728
0.000220159
0.000183871
0.0151253
0.0133445
0.0038718
0.000173534
0.000293831
0.0117218
0.000125604
0.000249123
0.000146404
0.000148796
0.000145154
0.000149369
0.000143462
0.000164858
0.0133963
0.000163621
0.00312078
0.0102496
0.000284859
0.0122805
0.0110679
0.000161899
0.00369875
0.000194234
0.000188718
0.0001397
0.000149705
0.000185767
0.0126171
0.000154087
0.0057999
0.0137097
0.000146171
0.000145232
0.000160932
0.000191011
0.000148044
0.000185777
0.0140025
0.00014225
0.000143717
0.000145148
0.000148543
0.000196518
0.0142516
0.000166124
0.00030157
0.00019383
0.000142855
0.00271208
0.000198686
0.000144673
0.000234282
0.000254657
0.0111054
0.000115585
0.0130947
0.000149013
0.000289618
0.0149044
0.000201594
0.000261189
0.000152855
0.000151021
0.000152451
0.000151964
0.000111704
0.000183588
0.000146046
0.000157615
0.00405867
0.0150525
0.000171775
0.000157851
0.0131107
0.0109853
0.000146184
0.000158257
0.000193354
0.000143279
0.000143777
0.00816084
0.000142971
0.000232371
0.00276398
0.000118508
0.000143438
0.000187477
0.000203421
0.000146522
0.000139073
0.0161697
0.000413892
0.00015527
0.00016357
0.000204162
0.000224495
0.00795635
0.000151029
0.000155464
0.00292029
0.000234384
0.000165446
0.000142124
0.000190159
0.000139714
0.00014091
0.0124218
0.000167926
0.0001909
0.000153743
0.000183919
0.000151182
0.000142653
0.000148371
0.00014916
0.00101028
0.000153347
0.000210665
0.0104822
0.000172531
0.000186122
0.00581742
0.000681918
0.000999976
0.000154137
0.000154462
0.00016599
0.000155064
0.000204092
0.000328187
0.000148349
0.000211386
0.0152274
0.00015658
0.000193719
0.000187154
0.00019623
0.000198964
0.000150275
0.000202347
0.000205438
0.000208789
0.000212567
0.000200883
0.000188949
0.000162991
0.000142191
0.000164193
0.000193095
0.000143351
0.000225189
0.004204
0.000204128
0.0149215
0.000137978
0.000147659
0.000179376
0.000195748
0.000148907
0.00015232
0.000185872
0.0150378
0.0183241
0.000145408
0.000160709
0.000154885
0.0068372
0.00478132
0.000153569
0.000226961
0.0149924
0.000195
0.00711426
0.000191162
0.00018215
0.00520958
0.000134276
0.00099341
0.0166056
0.0001491
0.000184726
0.000192023
0.000156491
0.000149399
0.000778695
0.0206843
0.000151571
0.000152277
0.0089755
0.000238564
0.000187552
0.000146445
0.000225912
0.000198372
0.014478
0.0148128
0.000145057
0.000143549
0.000148662
0.000164089
0.00263714
0.0249355
0.00897783
0.000191498
0.00022796
0.00954039
0.000165168
0.000142095
0.0150945
0.000152198
0.003606
0.000152375
0.00857099
0.000149694
0.000149118
0.00462292
0.000147574
0.000198549
0.00556374
0.000163709
0.000152009
0.000150028
0.000218487
0.0128683
0.000201247
0.0155801
0.000179042
0.000168984
0.000158709
0.000186496
0.00109851
0.0122161
0.000191947
0.000222696
0.00020162
0.000204293
0.000577666
0.000151853
0.000142571
0.000139772
0.000220572
0.000179241
0.000178058
0.000170571
0.00020718
0.000145436
0.00554717
0.0128049
0.00608101
0.000144111
0.000150435
0.000134748
0.0155859
0.000254228
0.00816105
0.000218907
0.000200534
0.000226687
0.000136155
0.000168183
0.000199999
0.000222112
0.000236337
0.000145946
0.000203604
0.00014842
0.000164167
0.000196029
0.0124494
0.000137995
0.000147904
0.000189538
0.000213745
0.0124692
0.00999362
0.000583534
0.000127209
0.000150724
0.000181649
0.000153904
0.000205118
0.000156062
0.000194583
0.000152107
0.000176101
0.00315852
0.00647739
0.000182288
0.000202963
0.0164792
0.00020364
0.00015243
0.0287305
0.000200626
0.000162662
0.000165377
0.00012341
0.000159674
0.000197485
0.000229863
0.000181285
0.0104472
0.000183067
0.00117141
0.0145078
0.0195288
0.000187095
0.000162847
0.00019732
0.000194019
0.000498737
0.000182132
0.000148375
0.000250307
0.00019535
0.000224322
0.000157845
0.0114937
0.000222974
0.000264013
0.000156941
0.0196222
0.000152957
0.0131151
0.000200445
0.00027137
0.00903762
0.00014124
0.000135312
0.0145988
0.000924697
0.00021675
0.000147892
0.000171573
0.00016266
0.000265838
0.000182227
0.0167335
0.000155854
0.0169984
0.000196456
0.0214132
0.000148134
0.000209849
0.0118613
0.000181044
0.000193327
0.000136878
0.000153581
0.000145403
0.00313785
0.000144075
0.000145367
0.00486857
0.000292902
0.000139608
0.00134959
0.000148796
0.00014936
0.000143337
0.000150762
0.000146401
0.000236434
0.00959073
0.000145463
0.0130207
0.0001862
0.000177086
0.000259508
0.000192463
0.000155182
0.000164148
0.000143069
0.00305099
0.000159972
0.00083017
0.000172943
0.000242106
0.000244125
0.000185238
0.000266381
0.0172669
0.000140618
0.0124664
0.000179573
0.000184618
0.000194187
0.000145965
0.000110828
0.000221233
0.000145072
0.000574578
0.000143794
0.000101287
0.000207743
0.00450284
0.000217358
0.000214866
0.00462432
0.000145601
0.000156095
0.000184434
0.000150396
0.000146219
0.00014643
0.000157407
0.000145363
0.000142669
0.000149676
0.000171908
0.000151124
0.000157415
0.000157647
0.000175383
0.000199192
0.000151889
0.000110133
0.000151356
0.000143141
0.00019478
0.000173199
0.000162899
0.000146006
0.0124595
0.000152138
0.0146349
0.000152587
0.000194775
0.000143206
0.000150087
0.000204243
0.00590358
0.000187258
0.000165488
0.000136499
0.0146677
0.00014558
0.000142508
0.000189438
0.000153101
0.000200928
0.0163551
0.000194253
0.000289092
0.000171152
0.0104616
0.000147246
0.000145536
0.000182999
0.0029475
0.000183223
0.000192238
0.0125215
0.000157758
0.000145188
0.000158964
0.000224237
0.000182821
0.000145219
0.000197383
0.000197827
0.000183387
0.000146398
0.000145499
0.000206942
0.000182804
0.000262942
0.00948469
0.00015279
0.000186566
0.000146179
0.000174744
0.000104432
0.000146332
0.000203913
0.00377448
0.00018874
0.0204221
0.000144795
0.000147419
0.00014282
0.00364909
0.000221285
0.000151513
0.00020042