/*--------------------------------*- C++ -*----------------------------------*\
| =========                 |                                                 |
| \\      /  F ield         | OpenFOAM: The Open Source CFD Toolbox           |
|  \\    /   O peration     | Version:  v2012                                 |
|   \\  /    A nd           | Website:  www.openfoam.com                      |
|    \\/     M anipulation  |                                                 |
\*---------------------------------------------------------------------------*/
FoamFile
{
    version     2.0;
    format      ascii;
    class       volVectorField;
    location    "400";
    object      cellDisplacement;
}
// * * * * * * * * * * * * * * * * * * * * * * * * * * * * * * * * * * * * * //

dimensions      [0 1 0 0 0 0 0];


internalField   nonuniform List<vector> 
13851
(
(2.51133e-05 0.000207658 0)
(0.000168732 0.000227201 0)
(0.000172698 0.000236585 0)
(1.23097e-05 -7.88109e-05 0)
(2.33434e-05 -0.00019791 0)
(0.000138368 7.75673e-05 0)
(0.000209717 0.00137281 0)
(5.57885e-05 -0.000174176 0)
(1.11175e-05 5.25291e-05 0)
(0.000169374 -0.000906853 0)
(4.04745e-05 -9.86715e-05 0)
(0.000135635 -0.00109684 0)
(0.000146828 -0.000711929 0)
(6.99464e-06 1.35807e-05 0)
(9.05896e-05 0.000476114 0)
(3.27826e-05 0.000230653 0)
(9.48637e-06 -4.17348e-05 0)
(0.000255267 -0.000116701 0)
(1.59334e-05 0.000100932 0)
(2.57181e-05 0.000211249 0)
(7.38083e-05 0.000306874 0)
(9.96699e-05 -0.000609837 0)
(1.03098e-05 -0.000118027 0)
(8.30211e-06 -7.71398e-05 0)
(1.21318e-05 -4.69049e-05 0)
(6.25813e-05 0.000451622 0)
(1.78342e-05 9.1453e-05 0)
(1.42253e-05 0.00012153 0)
(1.10346e-05 8.97737e-05 0)
(0.000267346 -0.000461368 0)
(8.25584e-06 -4.28966e-05 0)
(0.000210855 0.00134683 0)
(2.65018e-05 0.000203267 0)
(1.2694e-05 7.35051e-05 0)
(6.13635e-05 -7.67842e-05 0)
(1.23849e-05 0.000105038 0)
(7.19569e-06 -6.68471e-05 0)
(1.06634e-05 6.52922e-06 0)
(1.03232e-05 -3.71239e-05 0)
(0.000152432 -0.000977224 0)
(1.21609e-05 5.57348e-05 0)
(1.14048e-05 9.5975e-05 0)
(9.62411e-06 -5.14862e-05 0)
(1.02595e-05 -0.000184574 0)
(1.20562e-05 9.58969e-05 0)
(0.000218826 -0.00109483 0)
(8.32794e-05 0.000224123 0)
(3.16344e-05 0.000196028 0)
(0.000151354 -0.000590207 0)
(0.000147867 -0.000715107 0)
(1.00297e-05 -1.46739e-05 0)
(0.000147822 -0.000713881 0)
(3.32067e-05 0.000239194 0)
(0.000137718 0.000977927 0)
(9.49595e-06 3.47738e-05 0)
(0.000149223 -0.000973233 0)
(2.55288e-05 0.000202065 0)
(1.19148e-05 5.3231e-05 0)
(1.8397e-05 0.000114419 0)
(1.46603e-05 1.27425e-05 0)
(0.000132407 -0.00107891 0)
(1.85206e-05 8.88751e-05 0)
(0.000144904 -0.000900536 0)
(0.000146883 -0.000591716 0)
(1.19953e-05 -0.000165121 0)
(1.28704e-05 -0.000158951 0)
(1.56816e-05 1.17995e-05 0)
(1.00774e-05 -0.00016671 0)
(0.000182903 -0.000830723 0)
(9.99258e-06 -6.39934e-05 0)
(6.94795e-06 -3.11617e-05 0)
(5.93382e-05 0.000222926 0)
(0.000141674 -0.000908899 0)
(1.15121e-05 1.12972e-05 0)
(0.00012384 0.000824423 0)
(0.000113553 -0.000720231 0)
(9.31709e-06 -3.99061e-05 0)
(0.000257196 -0.000100716 0)
(1.23442e-05 -4.2827e-05 0)
(0.000168843 -0.0013006 0)
(0.000182932 -0.000810681 0)
(1.46566e-05 -4.58839e-05 0)
(6.34104e-05 -8.16594e-05 0)
(5.60443e-06 2.05981e-06 0)
(1.21493e-05 1.39394e-05 0)
(7.66829e-06 -3.50596e-05 0)
(9.83647e-05 -0.000587648 0)
(6.85283e-06 3.40971e-05 0)
(0.000166802 -0.000908853 0)
(8.50816e-06 -4.70193e-05 0)
(0.000147805 -0.000712013 0)
(0.000206232 0.00129896 0)
(9.62385e-06 -2.45401e-05 0)
(7.83033e-06 -3.80196e-05 0)
(9.96558e-06 -2.74304e-06 0)
(9.79248e-06 -0.000207035 0)
(0.00019033 -0.00118786 0)
(3.11947e-05 0.000222001 0)
(9.05177e-06 -7.10645e-06 0)
(1.77764e-05 -3.7876e-05 0)
(2.98365e-05 0.00020479 0)
(2.51159e-05 -0.000226503 0)
(2.303e-05 -0.000221839 0)
(0.000141283 -0.000806157 0)
(0.000234084 -0.000969238 0)
(5.77487e-05 0.000185015 0)
(0.00023225 -0.000999097 0)
(7.08404e-06 -3.15085e-05 0)
(0.00020703 0.00127532 0)
(0.000257825 -0.000131992 0)
(6.93633e-05 -0.000492705 0)
(0.000220669 -0.00106209 0)
(1.96794e-05 6.54734e-05 0)
(4.15139e-05 5.88074e-05 0)
(2.73304e-05 0.000129155 0)
(0.000141821 0.000991887 0)
(0.000222206 -0.000753295 0)
(6.50272e-05 -0.000188654 0)
(1.25532e-05 -8.03761e-05 0)
(1.02943e-05 -6.66e-05 0)
(1.15878e-05 -0.00023279 0)
(0.000268646 -0.00022017 0)
(0.000170252 -0.000897417 0)
(1.54633e-05 4.53372e-05 0)
(1.76839e-05 0.00013112 0)
(1.54532e-05 -0.000147626 0)
(0.000193532 -0.00119061 0)
(4.3203e-05 -0.000189098 0)
(1.43749e-05 7.72606e-05 0)
(6.89422e-05 0.000332116 0)
(9.75847e-05 -0.000616505 0)
(9.81008e-05 -7.39055e-05 0)
(1.10708e-05 9.25819e-06 0)
(1.22643e-05 6.43455e-05 0)
(3.88018e-05 -9.20643e-05 0)
(8.92867e-06 -1.14385e-05 0)
(9.03894e-06 -0.00017229 0)
(7.40072e-06 -3.30536e-05 0)
(4.28077e-05 -0.000263059 0)
(7.36465e-05 0.000382633 0)
(1.50603e-05 -3.80253e-05 0)
(0.000107706 -0.000635872 0)
(0.000167381 -0.000893333 0)
(1.46608e-05 -0.000167512 0)
(1.21877e-05 -3.07595e-06 0)
(0.00010672 -0.000728931 0)
(0.000252963 -8.74393e-05 0)
(8.09287e-06 -4.13242e-05 0)
(1.5469e-05 5.63628e-05 0)
(4.07581e-05 -0.000175039 0)
(2.98492e-05 0.000199058 0)
(2.02839e-05 6.71973e-05 0)
(3.93374e-05 6.06793e-05 0)
(1.75561e-05 0.000113702 0)
(0.000142013 -0.000663212 0)
(0.000162758 -0.000809238 0)
(0.00012519 -0.00104317 0)
(1.05425e-05 -3.90002e-05 0)
(7.87686e-05 0.000405758 0)
(0.00020906 0.000997021 0)
(1.82419e-05 -0.000168683 0)
(1.1606e-05 9.90648e-05 0)
(6.0202e-05 0.000194456 0)
(3.17024e-05 0.00019275 0)
(8.35413e-06 1.86769e-05 0)
(1.25025e-05 5.10803e-05 0)
(1.2322e-05 5.07835e-05 0)
(9.54129e-06 -1.12142e-05 0)
(7.29404e-05 -0.000508708 0)
(1.23555e-05 8.78177e-05 0)
(0.000125913 -0.00103404 0)
(0.000218819 -0.000737544 0)
(4.57547e-05 0.000149946 0)
(2.0151e-05 -0.000178798 0)
(1.01627e-05 -4.26621e-06 0)
(1.67408e-05 5.27373e-05 0)
(2.64939e-05 0.000139295 0)
(0.000221579 -0.00068474 0)
(0.000126171 0.000871524 0)
(2.76581e-05 0.000149142 0)
(1.82287e-05 0.000132993 0)
(1.0399e-05 -0.000195123 0)
(7.86109e-05 -0.000523116 0)
(7.18053e-05 0.000352782 0)
(9.62404e-06 -4.47497e-05 0)
(1.48438e-05 5.49078e-05 0)
(2.6058e-05 0.000189759 0)
(6.93459e-05 -0.000315825 0)
(0.000142314 -0.000681314 0)
(0.00025812 -0.000840288 0)
(1.25058e-05 3.1695e-07 0)
(7.84342e-05 0.000397891 0)
(6.58098e-06 1.21805e-05 0)
(0.000137396 0.000116244 0)
(0.000111014 -0.000737417 0)
(3.23218e-05 0.000237917 0)
(2.7175e-05 0.000193973 0)
(0.000257405 0.000580173 0)
(0.000223537 -0.000250873 0)
(1.21972e-05 -0.000172258 0)
(1.50004e-05 -3.09997e-05 0)
(1.11627e-05 4.85362e-06 0)
(1.15384e-05 4.63224e-05 0)
(9.31915e-05 0.000493117 0)
(1.17135e-05 -0.000114091 0)
(1.10385e-05 1.22697e-06 0)
(0.000127965 -0.000485063 0)
(7.91844e-05 0.000491772 0)
(1.10443e-05 5.70414e-05 0)
(0.000140404 -7.97929e-05 0)
(3.33606e-05 0.000232079 0)
(0.000171349 -0.000907481 0)
(1.45892e-05 -3.9966e-05 0)
(5.02204e-05 -0.000440257 0)
(6.00551e-05 -5.58586e-05 0)
(0.000105134 -0.000691632 0)
(0.00015007 -0.000727771 0)
(1.94773e-05 0.000175138 0)
(0.000239107 8.55606e-05 0)
(2.02397e-05 -0.000147609 0)
(0.000218767 -0.000669545 0)
(2.54108e-05 0.000201373 0)
(5.56763e-06 5.78126e-06 0)
(9.46342e-06 -6.57557e-06 0)
(7.33215e-05 -0.000334984 0)
(7.755e-05 0.000488553 0)
(2.664e-05 -0.000235049 0)
(1.60485e-05 -0.000171038 0)
(0.000152021 -0.00118802 0)
(6.25478e-05 -5.99532e-05 0)
(1.23632e-05 -9.5046e-05 0)
(7.16831e-05 -0.000325078 0)
(0.000142425 -5.35833e-05 0)
(0.000133444 -0.000840046 0)
(1.14995e-05 4.45085e-05 0)
(0.000268471 -0.000413807 0)
(1.04819e-05 -0.000126916 0)
(1.14945e-05 4.23225e-05 0)
(1.89448e-05 -4.28498e-05 0)
(1.69276e-05 -0.0001565 0)
(1.21927e-05 -0.000129123 0)
(1.44302e-05 2.12206e-05 0)
(1.20907e-05 0.000101527 0)
(3.40526e-05 0.000239741 0)
(9.558e-05 0.000359744 0)
(1.41834e-05 -0.000159028 0)
(2.02347e-05 0.000178756 0)
(0.000125299 0.000877799 0)
(9.9115e-06 -0.000216205 0)
(6.95467e-05 -0.000459221 0)
(1.94943e-05 6.82816e-05 0)
(2.36793e-05 0.000125702 0)
(5.54483e-05 -0.000260693 0)
(0.000148589 0.000429291 0)
(3.08293e-05 0.000219942 0)
(1.17453e-05 9.76869e-05 0)
(1.72034e-05 9.37851e-05 0)
(0.000257869 -0.000843211 0)
(1.79444e-05 -0.000143081 0)
(0.000164067 -0.000928812 0)
(2.11891e-05 0.00013288 0)
(1.78877e-05 0.00012785 0)
(0.000144266 0.000426708 0)
(5.93097e-05 0.000196945 0)
(2.28902e-05 0.000126973 0)
(0.00014806 -0.00107397 0)
(2.32688e-05 -0.000222023 0)
(3.55176e-05 0.000221156 0)
(1.49419e-05 0.000136145 0)
(0.000141 -0.00101957 0)
(0.000151512 -0.000734422 0)
(7.12599e-05 -0.000324841 0)
(1.0885e-05 4.55081e-05 0)
(1.13623e-05 -7.17764e-05 0)
(6.73709e-05 0.000284458 0)
(0.000267723 -0.000205218 0)
(1.79985e-05 0.000135695 0)
(1.77314e-05 0.000120639 0)
(2.98763e-05 0.000176594 0)
(6.15728e-05 0.000208584 0)
(1.07056e-05 4.69153e-05 0)
(1.01636e-05 -1.10716e-07 0)
(0.000134705 0.000314631 0)
(0.000102524 0.000526677 0)
(1.06572e-05 2.53183e-06 0)
(0.000244832 -0.000880165 0)
(0.000123482 -0.00103838 0)
(2.86702e-05 0.00017855 0)
(4.49713e-05 -0.000133675 0)
(0.000270117 -0.00033644 0)
(5.12009e-05 -0.000456228 0)
(0.000150849 -0.00117612 0)
(3.06708e-05 -0.000232076 0)
(9.87026e-05 0.00041949 0)
(0.000127508 -0.00106287 0)
(1.11318e-05 5.51053e-05 0)
(7.06927e-05 0.000293033 0)
(0.000177611 -0.000996864 0)
(1.20999e-05 0.000101212 0)
(1.57449e-05 4.21017e-05 0)
(0.000144968 -0.000689804 0)
(2.48207e-05 0.000201312 0)
(1.0568e-05 -1.36393e-05 0)
(0.000103557 -0.000626186 0)
(0.000145446 -0.000686517 0)
(6.71576e-05 0.000266676 0)
(6.96538e-06 6.52727e-06 0)
(9.89114e-06 -6.10079e-05 0)
(4.19164e-05 0.000116523 0)
(2.95284e-05 -0.000247649 0)
(1.24851e-05 8.78046e-05 0)
(0.000129151 -0.00105355 0)
(3.85974e-05 0.000109557 0)
(1.17464e-05 -1.27647e-05 0)
(1.5107e-05 0.000142475 0)
(0.000213498 0.00100238 0)
(1.09835e-05 3.70154e-06 0)
(1.18245e-05 1.35976e-05 0)
(8.12698e-06 -3.3954e-05 0)
(2.03898e-05 5.44785e-05 0)
(1.67339e-05 -0.000210264 0)
(9.11659e-06 -1.38308e-05 0)
(1.49109e-05 5.39139e-05 0)
(1.42523e-05 0.000125397 0)
(0.000219197 -0.000245728 0)
(8.04951e-06 -3.54664e-05 0)
(9.62324e-06 3.89757e-05 0)
(3.23542e-05 -0.000145652 0)
(3.01713e-05 -0.000146728 0)
(0.000125553 -0.000476638 0)
(4.23794e-05 0.000131923 0)
(6.51864e-05 -0.00040522 0)
(9.47206e-06 4.71074e-05 0)
(1.80262e-05 -0.000208255 0)
(8.90703e-05 -0.000525235 0)
(9.40753e-05 0.000234158 0)
(0.000107021 -0.000375742 0)
(7.86969e-06 -3.27708e-05 0)
(2.32918e-05 -0.000146713 0)
(0.000248012 -0.000871373 0)
(9.6521e-06 -4.9309e-06 0)
(6.48381e-05 -0.000383018 0)
(9.55607e-05 -8.17342e-05 0)
(0.000207746 0.00101764 0)
(6.68982e-06 6.93907e-06 0)
(1.84652e-05 0.000135591 0)
(3.19108e-05 0.000229507 0)
(0.000106769 -0.000701289 0)
(0.000146736 -7.62747e-05 0)
(1.35364e-05 9.758e-05 0)
(0.000141176 -0.000677203 0)
(1.72544e-05 0.000114178 0)
(0.000138219 0.000326668 0)
(6.61749e-05 0.00025471 0)
(6.38308e-05 -0.000366232 0)
(0.000165162 -0.000911431 0)
(0.000181085 -0.000995884 0)
(2.04147e-05 -1.04435e-06 0)
(1.72311e-05 -1.94652e-05 0)
(2.38985e-05 0.00013467 0)
(1.13147e-05 1.03031e-05 0)
(1.35978e-05 0.000102968 0)
(0.000104536 -0.000721305 0)
(1.14362e-05 3.97322e-05 0)
(1.90648e-05 0.000132046 0)
(0.000276036 0.000200156 0)
(1.49205e-05 0.000139464 0)
(3.31549e-05 0.000224346 0)
(9.01066e-06 -7.12613e-06 0)
(0.000110639 -0.000390796 0)
(6.10905e-05 0.00045123 0)
(1.92336e-05 0.000114711 0)
(1.15373e-05 -6.14156e-05 0)
(2.1361e-05 2.04867e-06 0)
(6.24088e-06 2.87079e-05 0)
(0.000190397 -0.000382068 0)
(1.62687e-05 5.50705e-05 0)
(7.27981e-06 -3.93148e-05 0)
(0.000105036 0.000281709 0)
(1.83781e-05 6.33527e-05 0)
(9.30165e-05 0.000250824 0)
(1.15858e-05 5.01695e-05 0)
(0.000105347 0.000537975 0)
(0.000109269 0.000855249 0)
(2.34409e-05 0.00012587 0)
(1.57812e-05 2.34693e-05 0)
(0.00016166 -0.000803662 0)
(0.000139521 0.00023425 0)
(4.26587e-05 -0.000127554 0)
(0.000122773 0.000834675 0)
(0.000203893 -0.00111317 0)
(6.62055e-05 0.000284868 0)
(1.28915e-05 0.000100068 0)
(0.000141775 -0.000928906 0)
(7.77336e-05 0.000466159 0)
(1.32782e-05 -9.52191e-05 0)
(0.000159809 -0.000137154 0)
(1.14356e-05 -0.000167778 0)
(8.90443e-05 0.000655976 0)
(1.00543e-05 -6.31817e-05 0)
(0.000136327 -7.49342e-05 0)
(6.55176e-05 0.000472953 0)
(1.23916e-05 -0.000121016 0)
(1.75189e-05 0.000127651 0)
(5.88306e-05 0.000188527 0)
(1.76828e-05 9.4488e-05 0)
(1.21284e-05 1.38318e-05 0)
(1.2284e-05 -0.000141664 0)
(0.000147134 -0.00105187 0)
(2.11796e-05 -2.99831e-06 0)
(9.01221e-05 0.000206123 0)
(6.19636e-05 0.000454541 0)
(0.000266698 -0.000373065 0)
(9.62408e-06 -4.85992e-05 0)
(1.37306e-05 0.000114494 0)
(1.19173e-05 -8.16942e-05 0)
(0.000149396 -5.22606e-05 0)
(2.27752e-05 0.000126104 0)
(1.8049e-05 6.88581e-05 0)
(1.19063e-05 -7.49718e-05 0)
(0.000263748 0.000486052 0)
(8.48329e-06 -4.00865e-05 0)
(1.53594e-05 1.90535e-05 0)
(9.94957e-06 -0.000102906 0)
(6.73074e-05 -0.000441699 0)
(1.335e-05 7.60002e-05 0)
(0.000157707 -0.000791408 0)
(1.76723e-05 -0.000155518 0)
(9.79433e-06 3.19001e-05 0)
(1.77391e-05 6.01289e-05 0)
(0.000169443 -0.000892791 0)
(0.000167677 0.000200184 0)
(7.49099e-05 0.000447502 0)
(0.000217659 -0.000939555 0)
(1.37418e-05 0.000117179 0)
(4.16092e-05 0.000122301 0)
(3.42338e-05 0.000221841 0)
(0.000161364 0.000757637 0)
(0.00019237 -0.000358107 0)
(0.000146805 -0.000732491 0)
(1.16427e-05 -5.42028e-05 0)
(0.000175236 -0.00102259 0)
(0.000148181 -0.000742019 0)
(1.45029e-05 0.000113517 0)
(1.3089e-05 0.000109739 0)
(9.88327e-05 -0.000637866 0)
(2.02901e-05 0.000113547 0)
(0.000142114 -0.000883401 0)
(0.000125935 -0.00106056 0)
(0.000155352 -0.000116978 0)
(2.31743e-05 0.000132978 0)
(9.40918e-05 0.000695243 0)
(0.000198824 -0.0010917 0)
(0.000192192 -0.000111903 0)
(1.22002e-05 -0.000236259 0)
(0.000193317 0.000294602 0)
(9.31092e-06 -5.22941e-05 0)
(0.000135295 -0.00110216 0)
(0.000154805 0.000926164 0)
(1.24296e-05 9.30231e-05 0)
(5.25896e-05 -0.00032301 0)
(0.000107271 0.000108208 0)
(0.000116619 -0.000949996 0)
(0.000163155 0.000745068 0)
(0.000250445 0.000620931 0)
(1.16416e-05 -0.000178967 0)
(1.40051e-05 0.000116579 0)
(9.30364e-05 0.000356792 0)
(1.92973e-05 -0.00016022 0)
(0.000154026 -7.28831e-05 0)
(0.000135232 -0.00106502 0)
(1.11555e-05 4.66635e-05 0)
(1.93865e-05 0.000115352 0)
(5.16346e-05 -0.000283604 0)
(0.000138538 -0.000929256 0)
(1.51077e-05 4.89642e-05 0)
(4.71635e-05 -0.000271077 0)
(1.02501e-05 -0.000126932 0)
(0.000142966 -0.000797807 0)
(9.75782e-05 -3.26805e-05 0)
(2.0454e-05 -8.98976e-07 0)
(0.000110153 0.000696953 0)
(1.46599e-05 6.24086e-05 0)
(1.77685e-05 7.02409e-05 0)
(1.20835e-05 -7.64727e-05 0)
(7.75273e-05 -0.00062895 0)
(1.98072e-05 5.37801e-05 0)
(0.000149028 -0.00108976 0)
(1.11301e-05 8.98061e-05 0)
(9.01226e-05 0.000664204 0)
(2.72025e-05 0.000184085 0)
(9.26365e-05 0.000215959 0)
(0.000111351 -0.000709623 0)
(5.29499e-05 -0.000333587 0)
(4.48168e-05 0.00014299 0)
(2.56126e-05 -0.000219422 0)
(8.74295e-06 -5.54114e-05 0)
(1.15449e-05 4.70575e-05 0)
(9.26379e-06 -4.58962e-05 0)
(8.17067e-06 -6.70991e-05 0)
(1.40739e-05 0.00011611 0)
(1.16594e-05 -5.23958e-05 0)
(1.73963e-05 0.000121065 0)
(7.60059e-05 -0.000359363 0)
(7.52103e-05 -0.000613192 0)
(1.14931e-05 -0.000157385 0)
(0.000169648 -0.000911654 0)
(0.000204419 -0.00113318 0)
(7.16759e-05 -0.000336679 0)
(1.07157e-05 -4.032e-06 0)
(0.000180271 0.000373904 0)
(0.000112448 -0.00061448 0)
(1.80957e-05 -0.000271728 0)
(5.67121e-05 0.00012218 0)
(0.000167376 -0.00090034 0)
(1.1065e-05 -4.86748e-05 0)
(0.000184845 -0.00122636 0)
(1.38424e-05 7.8211e-05 0)
(1.17975e-05 -0.000179322 0)
(0.000170653 -0.00129574 0)
(0.000199468 0.000653323 0)
(1.51746e-05 -1.19181e-05 0)
(1.48266e-05 0.000133539 0)
(0.000269581 -0.000390574 0)
(1.03472e-05 -1.90712e-05 0)
(1.16885e-05 -0.000148108 0)
(0.000289195 0.000877169 0)
(1.04309e-05 -6.21379e-05 0)
(1.63655e-05 0.000104043 0)
(2.5183e-05 0.000194559 0)
(7.85661e-05 -0.000623456 0)
(1.45731e-05 0.000113138 0)
(9.01558e-06 1.19461e-05 0)
(0.000289005 0.000885281 0)
(1.56433e-05 3.44649e-05 0)
(0.000177049 -0.00086611 0)
(0.000186077 -0.00120402 0)
(1.60856e-05 0.000118194 0)
(1.16049e-05 5.26415e-05 0)
(7.36791e-05 0.000193251 0)
(9.72628e-05 0.000718 0)
(0.000170188 -0.000908592 0)
(6.81039e-05 0.000504756 0)
(1.42015e-05 8.21349e-05 0)
(9.27772e-06 -2.40778e-05 0)
(0.000286118 0.000755762 0)
(9.78902e-06 -3.99395e-05 0)
(0.000199346 -0.0011134 0)
(0.000177874 -0.000845829 0)
(5.71407e-05 0.000182746 0)
(0.000160636 0.00105689 0)
(0.00026427 0.000546723 0)
(0.000111978 -0.000721854 0)
(1.0717e-05 -7.0346e-05 0)
(1.64415e-05 2.16609e-05 0)
(1.05176e-05 -6.74069e-05 0)
(0.000184265 0.000350329 0)
(0.000162151 -0.000934064 0)
(1.121e-05 4.85615e-05 0)
(9.37715e-05 -0.000743908 0)
(2.112e-05 -3.05453e-06 0)
(0.000148091 0.000775652 0)
(0.000121176 0.000773849 0)
(9.48141e-05 0.000326963 0)
(1.25443e-05 0.000111422 0)
(1.04218e-05 1.80397e-06 0)
(0.00014101 0.000173537 0)
(7.63879e-06 -4.19189e-05 0)
(0.000218304 0.000953408 0)
(4.09281e-05 0.000112085 0)
(1.14189e-05 9.66241e-05 0)
(9.8548e-06 4.03052e-05 0)
(0.000160957 -0.000935486 0)
(0.000148156 -0.00107105 0)
(2.41722e-05 -0.000224699 0)
(1.0841e-05 -7.37615e-05 0)
(2.25754e-05 0.000138747 0)
(7.03188e-05 0.000519353 0)
(1.02946e-05 -0.000126549 0)
(0.000159093 0.00106236 0)
(0.000109514 0.000559726 0)
(1.22608e-05 -9.89183e-05 0)
(1.11444e-05 -5.04887e-05 0)
(1.20351e-05 -0.000251361 0)
(1.36602e-05 6.92556e-05 0)
(2.21745e-05 6.71476e-05 0)
(1.33262e-05 0.000110645 0)
(0.000196369 -0.000434538 0)
(1.81714e-05 0.000112448 0)
(1.36964e-05 7.94703e-05 0)
(0.000128048 -0.00102379 0)
(4.34612e-06 -1.11123e-05 0)
(1.11137e-05 -1.22205e-06 0)
(7.48895e-05 -0.000506917 0)
(7.1016e-05 0.000362729 0)
(0.000143666 -0.000990609 0)
(2.01213e-05 -0.000159231 0)
(3.09725e-05 -0.000174485 0)
(1.23133e-05 -0.000122685 0)
(0.000171943 -0.00101801 0)
(2.22393e-05 -0.000200398 0)
(8.94249e-05 -0.000366021 0)
(5.84014e-05 0.000123608 0)
(0.000133815 -0.00109794 0)
(1.05202e-05 -1.72406e-06 0)
(2.71231e-05 -0.000243022 0)
(2.27549e-05 7.41359e-05 0)
(7.66086e-05 -0.000596158 0)
(5.97778e-05 0.000438379 0)
(0.000141131 -0.000829912 0)
(0.000167207 -0.000889504 0)
(4.98266e-05 -0.00026983 0)
(1.07183e-05 -4.65696e-05 0)
(5.82839e-05 0.000181415 0)
(9.11731e-06 -9.46234e-06 0)
(9.58356e-05 -4.68715e-05 0)
(0.000224276 -0.00097136 0)
(0.00027827 0.000170373 0)
(4.43461e-05 0.000140213 0)
(0.000192742 -0.000143005 0)
(2.72146e-05 8.6174e-05 0)
(0.000168664 0.000349106 0)
(5.43817e-05 -0.000286391 0)
(1.87739e-05 0.000115953 0)
(9.43237e-05 -0.000743753 0)
(1.07321e-05 6.12958e-05 0)
(3.59197e-05 -0.000316336 0)
(4.69889e-05 0.000337902 0)
(8.07183e-06 -4.69342e-05 0)
(1.39196e-05 6.1118e-05 0)
(8.04984e-05 -0.000317298 0)
(1.21988e-05 -0.000130489 0)
(1.87538e-05 -0.000273797 0)
(1.53202e-05 -0.000104817 0)
(1.11865e-05 -4.08753e-06 0)
(0.000282814 0.000733458 0)
(1.09609e-05 -5.00781e-05 0)
(6.41379e-05 -0.000386474 0)
(0.000100321 0.000276621 0)
(8.37775e-06 -7.1324e-05 0)
(1.29939e-05 -5.99411e-06 0)
(0.000276178 0.000187194 0)
(2.83578e-05 8.48022e-05 0)
(0.000260814 0.000630468 0)
(1.32955e-05 0.000107611 0)
(4.81927e-06 -6.29195e-06 0)
(0.000182623 -0.000767976 0)
(1.09692e-05 -0.000166748 0)
(1.34834e-05 8.86769e-05 0)
(2.77076e-05 -0.000215623 0)
(3.79417e-05 -0.000298342 0)
(6.14833e-05 0.000445921 0)
(1.04328e-05 5.644e-05 0)
(1.51717e-05 0.000109156 0)
(0.000146271 -0.000694008 0)
(2.32808e-05 0.000129168 0)
(0.000197907 0.000273742 0)
(0.000167088 -0.000871429 0)
(1.86747e-05 0.000117676 0)
(2.27105e-05 0.000125555 0)
(1.86484e-05 -9.63228e-06 0)
(0.000248759 0.000442545 0)
(3.53664e-05 0.000220166 0)
(3.66084e-05 -0.000260743 0)
(7.13423e-05 0.000520167 0)
(0.00014359 -0.000576745 0)
(0.000113428 -0.000745895 0)
(3.26621e-05 -0.000183677 0)
(9.10517e-05 -0.000377345 0)
(3.35338e-05 0.000206068 0)
(6.17255e-05 0.000241951 0)
(6.00056e-05 0.000221541 0)
(1.28682e-05 -0.000257287 0)
(1.02942e-05 -0.000133138 0)
(1.61321e-05 0.000103745 0)
(1.21839e-05 3.03797e-05 0)
(1.06359e-05 -2.51362e-05 0)
(3.08734e-05 0.00020252 0)
(6.63279e-06 7.92276e-06 0)
(4.50676e-05 -0.00036976 0)
(1.56664e-05 0.000119814 0)
(2.46237e-05 0.000194181 0)
(0.000255634 -0.000304226 0)
(0.000112801 0.000575691 0)
(1.68037e-05 0.000107704 0)
(0.000103982 -0.000490593 0)
(0.000170108 -0.00130862 0)
(0.000174171 -0.00132093 0)
(4.62349e-05 0.000332044 0)
(4.5233e-06 2.03789e-05 0)
(0.000150597 0.000891264 0)
(1.14506e-05 3.77117e-05 0)
(0.000224983 -0.00100062 0)
(1.48105e-05 0.000112197 0)
(9.40656e-06 -0.00022871 0)
(1.32579e-05 -1.8915e-05 0)
(2.85042e-05 7.79701e-05 0)
(0.000133654 -4.43946e-05 0)
(0.000173105 0.000282278 0)
(1.3536e-05 -1.6001e-05 0)
(1.88325e-05 -9.59224e-07 0)
(4.79967e-05 -0.000383352 0)
(1.75237e-05 6.2052e-05 0)
(0.000197178 -0.000346602 0)
(1.17592e-05 -0.000160048 0)
(4.56273e-05 0.000324027 0)
(2.24772e-05 7.80096e-05 0)
(9.4657e-05 0.000130338 0)
(1.3694e-05 1.2401e-06 0)
(0.000157606 -0.000804994 0)
(4.09657e-05 -0.000359466 0)
(0.000131014 -0.000498729 0)
(0.000166604 -0.000861394 0)
(1.13361e-05 9.09345e-05 0)
(3.50286e-05 -0.000269003 0)
(1.93206e-05 0.000118376 0)
(1.10363e-05 5.02387e-05 0)
(2.75233e-05 7.42509e-05 0)
(8.97697e-06 -1.96193e-05 0)
(1.05709e-05 -7.03298e-06 0)
(2.16415e-05 7.5522e-05 0)
(1.4937e-05 -8.66884e-05 0)
(7.88364e-05 -0.000320221 0)
(9.45573e-05 -0.000665539 0)
(0.000153387 -0.000746875 0)
(0.000251704 -0.000223049 0)
(0.000277344 0.000127063 0)
(2.66347e-05 -0.000236522 0)
(4.08053e-05 0.000126859 0)
(2.04524e-05 8.75702e-05 0)
(3.34275e-05 -0.000252931 0)
(1.45087e-05 0.000123048 0)
(0.00013351 -0.000728831 0)
(1.10128e-05 5.38146e-05 0)
(8.26185e-06 -7.59744e-05 0)
(1.22371e-05 -8.10161e-05 0)
(6.73725e-05 -0.000110667 0)
(1.66954e-05 -0.000144432 0)
(0.000125394 -0.00080325 0)
(1.36241e-05 5.75666e-05 0)
(0.000135051 5.92261e-05 0)
(1.46525e-05 8.92948e-05 0)
(1.13369e-05 -9.61515e-07 0)
(7.66639e-05 0.000402429 0)
(4.40656e-05 0.00020721 0)
(0.000290535 0.000945851 0)
(1.30883e-05 7.56707e-05 0)
(7.76653e-05 -0.00064769 0)
(0.000176639 0.000348744 0)
(1.84388e-05 0.000114746 0)
(9.48588e-05 -0.000655082 0)
(0.000110079 -0.000630562 0)
(0.00027527 0.000298022 0)
(8.78999e-05 0.000637761 0)
(1.08285e-05 3.91901e-05 0)
(0.000107689 -7.21636e-05 0)
(9.36485e-05 0.000175812 0)
(1.48729e-05 2.081e-05 0)
(9.42379e-06 -2.33301e-05 0)
(6.91994e-05 -0.000313426 0)
(7.17192e-05 -0.000573861 0)
(1.22624e-05 0.000108545 0)
(0.000246792 -0.000233819 0)
(1.24528e-05 0.000108194 0)
(3.9899e-05 -0.000364388 0)
(0.00019264 0.00035548 0)
(1.24013e-05 -3.82806e-05 0)
(4.51799e-05 0.000265624 0)
(2.78492e-05 0.000145177 0)
(2.99872e-05 -4.20652e-05 0)
(5.67864e-05 0.000177188 0)
(6.41552e-05 -0.000483613 0)
(7.49681e-06 -6.49789e-05 0)
(3.8891e-05 0.000110846 0)
(0.000195471 -0.000405139 0)
(5.65692e-05 -0.000439157 0)
(0.000149812 0.000961174 0)
(1.47504e-05 -4.09496e-06 0)
(0.000141105 -0.00108092 0)
(1.51807e-05 -0.000141991 0)
(1.15199e-05 -0.000169456 0)
(1.52417e-05 0.000107026 0)
(3.06079e-05 -4.82325e-05 0)
(1.0023e-05 -7.00201e-05 0)
(3.66395e-05 -0.000253217 0)
(9.86527e-05 -0.000675353 0)
(2.14971e-05 2.40553e-06 0)
(0.000220741 -0.00105921 0)
(0.000139249 0.00026619 0)
(1.24537e-05 2.97878e-05 0)
(1.33861e-05 9.7823e-05 0)
(1.10061e-05 -5.03842e-05 0)
(1.24738e-05 0.000111184 0)
(0.000185706 -0.00073271 0)
(0.000185812 -0.000773734 0)
(2.14959e-05 -0.000252307 0)
(0.000113672 -0.000756811 0)
(0.000259432 -0.000719108 0)
(1.0146e-05 -0.000113962 0)
(2.076e-05 0.000117472 0)
(1.54353e-05 5.81776e-05 0)
(4.59484e-05 0.000332636 0)
(4.32643e-05 0.000250222 0)
(0.000165835 -0.000841366 0)
(0.000267414 -0.000498549 0)
(1.1975e-05 -0.000106876 0)
(3.38356e-05 0.000213027 0)
(0.000187821 0.000379191 0)
(4.1949e-05 -0.000312485 0)
(2.81938e-05 0.000127503 0)
(1.89247e-05 1.16092e-05 0)
(1.15098e-05 4.19099e-05 0)
(0.000143503 -0.0006702 0)
(8.89697e-05 -0.000798404 0)
(1.08328e-05 3.91656e-05 0)
(0.000145869 -0.000591082 0)
(9.36999e-05 0.000286425 0)
(0.000212837 -0.000942423 0)
(1.12248e-05 -6.03501e-06 0)
(3.88501e-05 -0.000186206 0)
(8.04605e-06 -4.02419e-05 0)
(0.000157584 -0.000957927 0)
(1.96463e-05 -6.4925e-05 0)
(7.9469e-05 0.000314648 0)
(2.06295e-05 -0.00024314 0)
(9.19139e-05 0.000148266 0)
(0.000142879 -0.00090093 0)
(0.000165844 0.000144299 0)
(0.000113052 -0.000917983 0)
(1.98862e-05 0.000119694 0)
(0.000134636 -0.000578744 0)
(1.61238e-05 9.2658e-05 0)
(0.000196333 -0.000301311 0)
(1.3588e-05 9.48131e-05 0)
(9.56431e-06 2.84573e-05 0)
(9.98011e-05 7.52604e-05 0)
(9.94437e-05 -0.000770738 0)
(1.40111e-05 -0.000108402 0)
(1.38019e-05 0.000117203 0)
(0.000136438 0.000187473 0)
(4.59728e-05 0.000274626 0)
(0.000154925 -0.000756993 0)
(1.0985e-05 5.6586e-05 0)
(0.000252668 -0.00029178 0)
(1.68849e-05 0.000110273 0)
(0.000133386 -0.00104001 0)
(0.000117753 -0.000944402 0)
(1.49592e-05 9.31426e-05 0)
(9.29466e-05 0.000332603 0)
(0.00012025 -0.00097819 0)
(0.000134218 0.000949753 0)
(1.30306e-05 6.09547e-05 0)
(1.8027e-05 -0.000135107 0)
(1.33391e-05 8.19489e-05 0)
(0.000254435 -0.00089639 0)
(7.62835e-06 1.45241e-05 0)
(0.000143464 -0.00102498 0)
(0.000136063 -0.00105102 0)
(0.000141418 -0.000668085 0)
(0.000111059 0.000275285 0)
(5.43555e-05 -0.000437404 0)
(1.24304e-05 7.1682e-05 0)
(1.18692e-05 3.57173e-05 0)
(0.000235303 5.44926e-05 0)
(3.35981e-05 -0.000300888 0)
(7.16643e-05 0.000201118 0)
(0.000224098 -0.00104678 0)
(1.34764e-05 -0.000106824 0)
(2.06827e-05 6.45626e-08 0)
(6.41963e-06 7.61153e-06 0)
(9.06153e-06 -1.70268e-05 0)
(0.000165151 0.000114936 0)
(3.36123e-05 0.000206916 0)
(0.00013054 -0.00103667 0)
(7.42885e-05 0.000299131 0)
(1.068e-05 -0.00023515 0)
(0.000284441 0.000764018 0)
(3.90304e-05 -0.000356869 0)
(1.22895e-05 -0.000104566 0)
(7.5493e-06 -1.16598e-05 0)
(4.58034e-05 0.000212712 0)
(9.02916e-06 -4.11897e-05 0)
(5.48213e-05 0.000332254 0)
(0.000142483 -0.00089602 0)
(6.89552e-05 0.000137665 0)
(4.48062e-05 0.000264571 0)
(8.94788e-06 -3.58262e-05 0)
(0.000103111 0.000435719 0)
(1.6274e-05 0.000109887 0)
(3.24926e-05 0.000209287 0)
(5.74964e-05 -0.000515454 0)
(1.21363e-05 -0.000103947 0)
(1.20199e-05 -9.76396e-05 0)
(1.03646e-05 4.14311e-05 0)
(1.26223e-05 -9.09807e-06 0)
(1.63739e-05 0.000114013 0)
(7.94851e-05 -0.000645235 0)
(1.38762e-05 -0.000160804 0)
(0.000146918 -0.000742409 0)
(1.54382e-05 0.000135453 0)
(0.000107767 -0.000499335 0)
(7.41023e-05 -0.000440586 0)
(1.29112e-05 7.00639e-05 0)
(0.000133339 -0.000740912 0)
(9.32269e-05 -0.000724506 0)
(0.000163982 -0.000926548 0)
(0.000135959 -0.000749085 0)
(1.1092e-05 -3.01606e-06 0)
(1.70842e-05 0.000109775 0)
(0.00022305 -0.00118931 0)
(6.66842e-05 0.000146993 0)
(6.1327e-06 4.4482e-06 0)
(0.000151021 -0.000679997 0)
(9.33011e-06 -4.37473e-05 0)
(0.000104754 -0.000533286 0)
(4.47336e-05 0.000263731 0)
(1.1496e-05 4.29524e-05 0)
(0.000128117 -0.00105912 0)
(2.15404e-05 0.000130075 0)
(9.16493e-05 -0.000429894 0)
(9.53672e-05 7.77626e-05 0)
(1.86534e-05 -0.000141925 0)
(0.000136245 -0.00073508 0)
(1.52455e-05 -4.15567e-05 0)
(6.79612e-05 0.000494613 0)
(1.29771e-05 6.29079e-05 0)
(0.000263359 0.000927524 0)
(1.22399e-05 7.22029e-05 0)
(0.000107356 0.000260153 0)
(1.59331e-05 3.60468e-05 0)
(1.13892e-05 -3.6732e-05 0)
(1.22374e-05 6.3262e-05 0)
(7.79179e-05 0.00043575 0)
(0.000147957 -0.000838021 0)
(0.000181629 -0.000735118 0)
(2.85752e-05 -0.000224837 0)
(0.000112923 0.000884242 0)
(0.000128632 -0.000831944 0)
(1.45577e-05 6.74455e-05 0)
(8.00488e-05 -0.000542141 0)
(7.44311e-05 -0.00039107 0)
(7.20763e-05 -0.0003193 0)
(8.24626e-05 -0.000660861 0)
(0.000253921 -0.000900059 0)
(0.000177156 0.00125587 0)
(0.000105125 -0.000434489 0)
(0.000199196 0.000611195 0)
(9.53357e-05 -0.000571945 0)
(1.14774e-05 1.58187e-06 0)
(2.04235e-05 0.000122414 0)
(0.000113139 0.000354193 0)
(4.88917e-05 -0.000227844 0)
(1.28799e-05 7.44185e-05 0)
(0.000108563 -0.000616901 0)
(8.53882e-06 -3.15676e-05 0)
(0.000240876 -0.000287778 0)
(6.43204e-05 -0.000462378 0)
(0.000136729 -0.000570511 0)
(0.000225968 -0.000785125 0)
(5.01993e-05 -0.000304459 0)
(0.000135973 -0.00106613 0)
(0.000225301 -0.00117068 0)
(1.91787e-05 -0.000213843 0)
(0.000161647 -0.000801546 0)
(1.51042e-05 5.72134e-07 0)
(0.000196917 -0.000166148 0)
(6.83964e-06 -1.80952e-05 0)
(1.52066e-05 0.00012959 0)
(1.96863e-05 0.000152234 0)
(1.62594e-05 4.07143e-05 0)
(0.000248589 0.000117198 0)
(8.90975e-06 -2.00403e-05 0)
(2.26312e-05 0.000171307 0)
(5.51312e-05 -0.000488187 0)
(0.000102613 -0.000460253 0)
(0.000116454 -0.000625711 0)
(8.75923e-06 -3.31624e-05 0)
(0.000115792 -0.000514857 0)
(2.54264e-05 -0.00022711 0)
(1.49887e-05 0.000142674 0)
(1.20349e-05 -8.31017e-05 0)
(3.10487e-05 -0.000132935 0)
(0.000222909 -0.000396442 0)
(1.24483e-05 0.00010677 0)
(1.52499e-05 0.000145366 0)
(1.59152e-05 0.000115973 0)
(9.12132e-05 -0.000449174 0)
(0.000229071 -0.000930369 0)
(0.000287834 0.000847651 0)
(4.26423e-05 0.000120719 0)
(0.000153954 -0.000814893 0)
(7.97465e-06 7.60374e-06 0)
(2.04369e-05 -1.58376e-06 0)
(8.29464e-05 -0.000667722 0)
(1.92695e-05 0.000148635 0)
(1.49959e-05 1.55821e-05 0)
(0.000276486 0.000279836 0)
(1.15329e-05 4.56232e-06 0)
(8.41732e-06 -4.08512e-05 0)
(2.14194e-05 0.000114888 0)
(0.000192815 -0.000311158 0)
(1.23317e-05 0.000109788 0)
(4.18881e-05 0.000131471 0)
(0.000155808 -0.00125043 0)
(1.52702e-05 5.41839e-05 0)
(7.35176e-05 -0.000592853 0)
(0.000274742 5.24465e-05 0)
(0.000171779 -0.00125766 0)
(0.000128007 0.000844815 0)
(0.000110524 0.00083384 0)
(1.10893e-05 5.6183e-05 0)
(8.73198e-06 -4.79926e-05 0)
(9.61011e-05 0.000679296 0)
(1.18173e-05 5.17364e-05 0)
(0.000114614 0.000690739 0)
(0.000158781 -0.000883721 0)
(1.23786e-05 -0.000156526 0)
(0.000172461 -0.00132629 0)
(1.19465e-05 -2.13578e-05 0)
(0.000284696 0.000724043 0)
(0.000110518 -0.000918068 0)
(9.98604e-05 -0.000708324 0)
(0.000199006 -0.000373069 0)
(9.95349e-06 3.41276e-05 0)
(1.12701e-05 6.07496e-05 0)
(2.11942e-05 0.000103853 0)
(1.20964e-05 -1.17614e-06 0)
(1.11669e-05 -6.05994e-05 0)
(7.42461e-05 -0.000347383 0)