/*--------------------------------*- C++ -*----------------------------------*\
| =========                 |                                                 |
| \\      /  F ield         | OpenFOAM: The Open Source CFD Toolbox           |
|  \\    /   O peration     | Version:  v2012                                 |
|   \\  /    A nd           | Website:  www.openfoam.com                      |
|    \\/     M anipulation  |                                                 |
\*---------------------------------------------------------------------------*/
FoamFile
{
    version     2.0;
    format      ascii;
    class       surfaceVectorField;
    location    "400";
    object      Uf;
}
// * * * * * * * * * * * * * * * * * * * * * * * * * * * * * * * * * * * * * //

dimensions      [0 1 -1 0 0 0 0];


internalField   nonuniform List<vector> 
20580
(
(1.32865 0.103523 1.83555e-20)
(1.33869 0.111411 5.84363e-21)
(1.32213 0.113119 6.22716e-20)
(1.07377 -0.0309876 8.51811e-21)
(1.07417 -0.0325458 1.24033e-20)
(1.07613 -0.0312204 1.20726e-20)
(1.07315 -0.0287585 -1.06032e-20)
(1.07127 -0.0302885 6.69925e-21)
(-0.138532 -0.0683352 -9.79765e-21)
(-0.0961013 -0.0699128 -6.26151e-20)
(-0.133451 -0.0648116 0)
(1.00201 -0.0004338 0)
(1.00184 -0.00041118 8.41575e-22)
(1.00196 -0.000244261 -8.97474e-22)
(1.08407 -0.0510617 6.74386e-21)
(1.08307 -0.0536728 -8.78761e-21)
(1.08098 -0.0514626 2.26226e-22)
(1.05206 0.0181444 -2.38996e-20)
(1.05197 0.0197665 -6.72582e-21)
(1.01133 -0.000870785 1.77546e-21)
(1.01099 -0.000865984 -2.55857e-23)
(1.0103 -0.000510485 4.08276e-21)
(0.157157 0.167588 -3.897e-20)
(0.173967 0.172709 4.05627e-20)
(0.125754 0.157068 3.70242e-20)
(0.990034 -0.000231081 -3.136e-22)
(0.990515 0.000220751 2.81156e-21)
(0.990868 -0.000491895 8.52909e-21)
(1.11795 -0.14837 -1.90966e-20)
(1.11534 -0.145457 -2.99631e-20)
(1.11427 -0.149415 1.1523e-20)
(1.00078 -0.00562949 -1.81276e-21)
(1.00089 -0.00580296 -8.61474e-22)
(1.00074 -0.00582504 1.60445e-22)
(0.978395 -0.00936489 -6.79722e-21)
(0.977914 -0.0103517 7.01698e-21)
(0.979124 -0.0100238 -5.07721e-21)
(-0.242848 0.0503849 6.68707e-20)
(-0.263582 0.0449013 2.72364e-21)
(-0.237221 0.0542529 1.0287e-19)
(1.13114 0.0237238 1.14318e-20)
(1.1354 0.0233756 4.23767e-20)
(1.13197 0.0196582 -8.31651e-21)
(1.02313 0.200386 4.16413e-21)
(1.01942 0.196277 3.90903e-20)
(1.01794 0.203982 -2.05705e-20)
(0.0241069 0.0205177 0)
(0.0518124 0.00504399 0)
(0.0537584 0.0102716 1.35521e-20)
(1.03225 -0.0229944 -5.51191e-21)
(1.03324 -0.0231213 1.09816e-20)
(1.03278 -0.0240075 -5.27985e-21)
(1.30379 -0.182473 0)
(1.30245 -0.191548 4.50031e-20)
(1.25426 -0.183538 7.7238e-22)
(1.33448 0.0905681 -1.74005e-20)
(1.31855 0.0959299 -7.81461e-20)
(1.15903 0.00183747 6.67302e-21)
(1.15539 -0.00176293 -2.69995e-20)
(1.15341 0.00383945 2.62724e-20)
(1.02608 -0.0956809 4.24048e-21)
(1.023 -0.0952985 -5.6283e-21)
(1.02506 -0.0924732 5.36236e-22)
(1.12573 -0.454825 3.87918e-20)
(1.02301 -0.424097 7.00789e-20)
(0.939729 -0.371055 -2.42732e-20)
(1.00008 -0.000264332 -1.7014e-22)
(1.00012 -0.000339533 -9.12885e-23)
(1.00008 -0.000222516 6.14908e-24)
(1.09336 -0.2388 0)
(1.09839 -0.238221 -2.54033e-20)
(1.01309 -0.21706 0)
(1.06634 0.128993 2.99567e-20)
(1.06343 0.132101 -1.79737e-20)
(1.06818 0.133197 4.33562e-20)
(1.15416 0.389365 0)
(1.15012 0.399431 -9.01742e-21)
(1.13911 0.396943 0)
(0.890129 -0.0621292 -3.54936e-20)
(0.897691 -0.0527417 3.65309e-20)
(0.8371 -0.0553915 -1.12603e-19)
(0.682853 0.253076 2.56707e-20)
(0.666482 0.237905 4.52304e-21)
(0.642759 0.237534 1.40328e-20)
(1.0182 -0.0136374 0)
(1.01777 -0.0138812 0)
(1.01757 -0.0132136 0)
(0.214084 -0.0280472 -4.03059e-20)
(0.15715 -0.0286589 3.57009e-20)
(0.250867 -0.0249222 0)
(1.05322 0.0180398 -5.88443e-21)
(1.052 0.0170972 1.45536e-20)
(1.30331 0.145272 -2.54162e-20)
(1.29537 0.155561 7.24288e-20)
(1.29003 0.139589 7.28439e-20)
(0.147311 0.0882293 7.10497e-20)
(0.1352 0.0808141 -6.80797e-21)
(0.199397 0.0898561 6.55423e-20)
(1.10478 -0.120698 0)
(1.10767 -0.11901 0)
(1.10683 -0.123347 2.8589e-20)
(0.735634 0.226627 4.27079e-21)
(0.764408 0.238945 0)
(0.756624 0.222595 0)
(1.00002 -0.000176571 4.53827e-22)
(1.00008 -0.000317566 3.73211e-22)
(1.1165 -0.171066 3.06968e-20)
(1.12626 -0.171258 -4.58678e-21)
(1.12663 -0.172282 2.15015e-20)
(0.225854 -0.109928 -1.54575e-20)
(0.234411 -0.111104 1.65498e-20)
(0.26878 -0.114538 0)
(1.00045 -0.0347726 -1.05776e-22)
(1.00131 -0.0339676 9.63711e-23)
(1.00152 -0.0354934 -3.9341e-22)
(-0.0227961 -0.0195423 1.30482e-21)
(0.0341007 -0.0176147 2.25404e-20)
(-0.0159149 -0.0131787 -1.1513e-19)
(0.697306 0.26803 -4.60136e-21)
(0.718617 0.265641 0)
(-0.130391 -0.0501579 0)
(-0.126553 -0.0519728 0)
(1.09031 -0.390692 1.54635e-20)
(1.0984 -0.402592 4.21695e-20)
(1.07842 -0.403957 0)
(0.662005 0.297577 -1.4569e-20)
(0.639459 0.294067 -3.32651e-20)
(0.620565 0.278812 -2.5469e-20)
(1.01101 -0.0215316 1.2855e-21)
(1.01027 -0.0212819 9.87093e-22)
(1.01062 -0.0205449 -3.36355e-21)
(1.0195 -0.000322298 -1.0653e-21)
(1.01933 -0.00022233 2.37531e-22)
(1.07818 0.227578 7.05744e-21)
(1.07168 0.231557 1.10592e-20)
(1.07415 0.222398 1.53717e-20)
(1.03805 -0.0651333 3.82508e-21)
(1.03652 -0.0626785 -8.11581e-21)
(1.03926 -0.0633335 1.92599e-22)
(0.978911 -0.00822307 1.19036e-20)
(0.977486 -0.0084928 6.24429e-21)
(-0.208571 -0.0428046 -2.58091e-20)
(-0.21751 -0.0429641 4.30571e-20)
(-0.242169 -0.0329656 9.13939e-20)
(0.971807 -0.00176339 8.22908e-21)
(0.972966 -0.00192291 4.18955e-21)
(0.971936 -0.00310071 0)
(1.02692 0.205355 -2.00706e-21)
(1.02846 0.197686 1.05705e-20)
(1.06895 0.0460519 1.46892e-20)
(1.0705 0.0480054 4.95159e-21)
(1.06771 0.0483674 -8.09507e-22)
(-0.0631761 0.0660841 -2.65489e-20)
(-0.0459722 0.0806795 6.14768e-20)
(-0.0821879 0.0652082 5.49513e-20)
(0.999854 -0.035689 0)
(0.99954 -0.0340876 -8.70947e-22)
(1.31536 0.153142 -7.69946e-20)
(1.31124 0.136141 -6.32805e-20)
(-0.0341341 -0.0227581 6.28368e-20)
(-0.0750832 -0.0206085 -1.59512e-20)
(1.0237 0.329068 -1.97398e-20)
(1.01394 0.332598 -1.16393e-20)
(1.02588 0.346216 0)
(-0.426447 0.0139692 3.86356e-20)
(-0.413643 0.0142698 9.04452e-20)
(-0.384027 0.0140889 5.43723e-20)
(1.00071 -0.00545271 -8.3452e-22)
(1.00083 -0.00544409 2.65727e-23)
(1.15368 0.374475 0)
(1.16898 0.380229 0)
(0.995544 0.00180745 -4.3616e-21)
(0.995599 0.00137831 4.75346e-21)
(0.9951 0.00177724 -5.21453e-21)
(1.03676 -0.0663477 -9.11422e-22)
(1.03924 -0.0666272 -4.26995e-21)
(0.878114 -0.415228 -1.41088e-20)
(0.899514 -0.407628 -1.03898e-20)
(0.882232 -0.394192 -1.11194e-20)
(0.854131 -0.42215 -4.19253e-21)
(0.875355 -0.443525 4.10668e-21)
(-0.44023 0.00835067 5.64082e-20)
(-0.463767 0.00949583 -1.58439e-19)
(0.700876 -0.107984 0)
(0.694578 -0.124358 0)
(1.01518 -0.0404468 -2.95824e-21)
(1.014 -0.0403517 0)
(1.01463 -0.0392346 0)
(0.0127485 -0.0389257 -3.99232e-20)
(-0.0513754 -0.0356747 -8.42484e-20)
(-0.0220104 -0.0335726 -7.83958e-20)
(0.109839 -0.00638744 2.81891e-21)
(0.064159 -0.00138684 3.18218e-20)
(0.106536 -0.00252663 1.00355e-20)
(1.17972 0.00173819 3.39642e-23)
(1.1805 -0.00366613 -1.33227e-20)
(1.18602 -0.000180935 -4.48235e-21)
(0.990739 -0.0186431 -6.58332e-21)
(0.990012 -0.0181372 -4.29632e-21)
(0.990036 -0.0194542 -3.52373e-22)
(-0.408294 0.0157378 0)
(-0.4557 0.012202 0)
(1.08506 0.0483072 -3.04091e-20)
(1.08511 0.0453152 -2.05477e-21)
(1.08772 0.0469531 1.07741e-21)
(1.01093 -0.0757845 4.28795e-21)
(1.00881 -0.0740805 -1.09937e-21)
(1.01109 -0.0729724 1.80411e-21)
(0.00528073 0.0226453 0)
(0.0126656 0.0360317 -1.18668e-20)
(1.01967 -0.00785855 -6.8633e-21)
(1.0194 -0.00821339 -2.73959e-21)
(1.02017 -0.00830293 7.30267e-22)
(1.0879 -0.240937 0)
(1.12764 -0.249606 0)
(1.00239 -0.0131327 6.76567e-22)
(1.00233 -0.0125119 5.4211e-22)
(1.00197 -0.0126999 -3.02758e-22)
(1.01655 -0.0408402 -2.38677e-21)
(1.01569 -0.0420625 1.55061e-21)
(1.12138 -0.193444 -1.13734e-20)
(1.12272 -0.19632 -3.60968e-20)
(1.11928 -0.19511 -3.47177e-20)
(1.10186 -0.118734 -2.02012e-20)
(1.10112 -0.122747 0)
(-0.288996 0.0434303 8.11983e-21)
(-0.26971 0.0450216 2.00951e-20)
(-0.251324 0.0550743 -4.21429e-21)
(-0.405764 0.0156183 1.38856e-19)
(-0.368069 0.0170883 -7.09771e-20)
(0.131786 -0.0216119 -7.77181e-21)
(0.150656 -0.0198079 2.46275e-20)
(0.211381 -0.0232726 5.3862e-20)
(1.02752 -0.0984546 -8.23813e-21)
(1.02907 -0.0955387 5.87226e-21)
(0.467869 0.0919919 0)
(0.444336 0.0745748 -1.24864e-20)
(0.45223 0.0963514 -1.0027e-20)
(0.990236 -0.00385591 9.80885e-22)
(0.990654 -0.00440753 7.0479e-21)
(0.990874 -0.00375623 5.89516e-21)
(0.251502 -0.0321982 -3.58159e-20)
(0.165188 -0.0260207 5.3374e-20)
(0.969809 -0.0018234 5.15632e-21)
(0.971349 3.97085e-05 -6.21002e-21)
(1.05452 0.0177967 2.20516e-20)
(1.05438 0.0192756 8.07114e-21)
(-0.135588 -0.0357427 -4.94138e-20)
(-0.144719 -0.0366139 -4.58231e-20)
(0.111494 -0.0247683 2.06738e-21)
(0.0722635 -0.0243623 -3.12765e-20)
(0.0934909 -0.0978491 -1.29157e-20)
(0.0849501 -0.0966319 -1.60938e-21)
(0.049195 -0.0933288 1.07499e-19)
(1.07724 -0.373791 3.1492e-20)
(1.06663 -0.359804 1.4992e-20)
(1.05836 -0.372561 1.14561e-20)
(1.00605 -0.0207342 2.94606e-22)
(1.00541 -0.020465 -5.5006e-23)
(1.00593 -0.0216016 1.04889e-21)
(1.04709 0.224536 -2.77314e-20)
(1.04119 0.219739 2.2282e-21)
(1.04773 0.21706 -5.37093e-21)
(-0.344683 -0.0269409 -1.39465e-19)
(-0.352536 -0.0262723 2.256e-20)
(-0.386849 -0.0209564 -1.21962e-19)
(1.11212 -0.190443 -2.67807e-20)
(1.11445 -0.190098 0)
(1.11352 -0.192474 -3.08973e-20)
(1.05273 0.230357 -1.93643e-20)
(1.04457 0.233176 0)
(0.805874 -0.107714 3.99554e-20)
(0.804146 -0.0975633 -2.66278e-20)
(0.814685 -0.10195 4.52778e-20)
(0.812815 -0.139439 -9.73219e-21)
(0.8108 -0.128453 -1.77349e-20)
(0.800641 -0.136585 -3.78581e-21)
(0.98568 -0.0193594 2.80612e-21)
(0.986614 -0.0197899 1.04891e-20)
(0.985686 -0.0209508 1.36756e-21)
(1.01386 -0.0219534 7.46298e-21)
(1.0144 -0.022889 9.25023e-21)
(1.0145 -0.0220655 -3.5181e-21)
(1.17182 -0.0363483 -2.69561e-20)
(1.17181 -0.0411253 -1.41726e-20)
(1.17712 -0.0370239 3.46873e-20)
(1.01341 -0.0209465 -3.14695e-21)
(1.013 -0.021766 1.85988e-21)
(0.112956 -0.0112794 -2.89423e-20)
(0.167867 -0.0124539 -8.26854e-20)
(1.05435 0.0163315 7.17753e-21)
(1.05585 0.01738 6.05619e-21)
(1.03138 -0.0228851 0)
(1.03181 -0.0221766 2.90186e-21)
(1.00833 -0.124959 1.76514e-21)
(1.00952 -0.128986 -2.04324e-21)
(1.00517 -0.127298 -1.28237e-21)
(1.01172 -0.0219154 -1.51627e-21)
(1.01156 -0.0226499 0)
(1.20379 -0.186594 -4.37798e-21)
(1.21032 -0.18758 5.25397e-20)
(1.2056 -0.193593 3.29723e-20)
(1.16077 -0.121199 2.32981e-20)
(1.16012 -0.11711 2.50425e-22)
(1.15649 -0.119747 1.17653e-20)
(1.23796 0.20208 -8.5724e-21)
(1.22824 0.207416 -3.60128e-22)
(1.23936 0.21387 0)
(1.06758 0.0439027 8.82418e-21)
(1.07007 0.0435544 7.67538e-22)
(1.01184 -0.00807772 3.26082e-21)
(1.01162 -0.00823275 2.57659e-21)
(1.01217 -0.00847878 3.00114e-21)
(1.01172 -0.000777783 -6.91359e-21)
(1.01184 -0.00121104 3.75383e-21)
(-0.172929 -0.067813 -9.06251e-21)
(-0.147764 -0.0720933 5.28923e-20)
(0.0772573 -0.0427102 4.27659e-20)
(0.119026 -0.0408282 7.20026e-20)
(1.07597 -0.295797 0)
(1.07107 -0.305829 -1.28381e-20)
(1.08325 -0.303561 5.86675e-21)
(1.02652 -0.0192543 5.154e-21)
(1.02547 -0.0190356 -2.78297e-21)
(1.02595 -0.0184774 -2.95548e-21)
(1.00933 -0.0388179 -6.02903e-22)
(1.01036 -0.0397433 4.77638e-21)
(1.00927 -0.0402529 -2.40142e-22)
(-0.242972 0.0318358 6.1158e-21)
(-0.209159 0.0349989 -1.84383e-20)
(-0.244946 0.0301135 6.61968e-20)
(1.38294 -0.0944939 -2.27485e-21)
(1.37231 -0.107389 -9.38814e-20)
(1.34664 -0.0956519 1.5282e-20)
(0.608761 -0.190053 6.86032e-20)
(0.631146 -0.181789 -2.65084e-20)
(0.629112 -0.211384 -6.76231e-20)
(1.00679 -0.0212339 9.09154e-22)
(1.00629 -0.0199444 0)
(1.08225 -0.164836 -1.96831e-20)
(1.08216 -0.160762 5.73086e-21)
(1.07901 -0.16341 -1.2556e-20)
(-0.00833197 0.0461624 1.22303e-20)
(-0.0597937 0.0410284 5.34835e-20)
(-0.016699 0.0409958 0)
(1.16186 0.0305315 -8.44131e-21)
(1.16665 0.0329813 -1.62234e-21)
(1.16427 0.0262951 3.45274e-20)
(1.02004 -0.0942434 4.47874e-21)
(1.02073 -0.0976066 -8.0655e-21)
(1.08892 -0.0910292 -2.14625e-21)
(1.09167 -0.0884597 1.13582e-21)
(1.08759 -0.08811 -1.51083e-20)
(1.11272 -0.172505 3.15687e-20)
(1.11068 -0.172261 3.27016e-20)
(0.16931 0.095597 0)
(0.105575 0.0884767 7.23968e-20)
(1.11991 -0.151279 9.95308e-21)
(1.12086 -0.147898 1.58699e-20)
(0.137192 -0.101528 -3.11071e-20)
(0.0975202 -0.0939646 8.45214e-21)
(0.0962675 -0.0931392 -8.4437e-20)
(0.717515 -0.105734 0)
(0.157074 -0.0176657 -2.48157e-20)
(0.105617 -0.0175321 0)
(0.849392 -0.0780025 1.08152e-20)
(0.840506 -0.0765691 0)
(0.845505 -0.0695469 0)
(1.15606 0.0408199 -4.77789e-21)
(1.15071 0.0404568 -2.02299e-20)
(1.15373 0.0458917 1.41885e-20)
(1.12014 -0.191141 3.80899e-20)
(1.12296 -0.192077 2.79709e-20)
(0.969267 -0.037806 -6.35142e-21)
(0.969594 -0.0356011 -3.25258e-21)
(0.971183 -0.0366522 1.89619e-22)
(0.989712 -0.00336582 6.4658e-21)
(0.989479 -0.00417724 -5.05259e-21)
(0.751536 -0.279343 -5.8002e-20)
(0.736422 -0.294282 5.70645e-21)
(0.759032 -0.29587 -1.3119e-20)
(0.965501 -0.215905 -4.15482e-20)
(0.913926 -0.2073 -6.81475e-20)
(0.902395 -0.206253 -3.4103e-22)
(0.998811 -0.06928 0)
(0.998177 -0.0711915 1.45498e-22)
(0.996342 -0.0696472 4.8777e-22)
(1.0199 -0.00749251 -6.554e-21)
(1.01921 -0.00750153 -2.39361e-22)
(0.0855546 -0.0269619 3.08236e-20)
(0.313223 0.175912 -4.02739e-20)
(0.302672 0.178748 0)
(0.269469 0.153807 0)
(1.08328 -0.167738 -7.38795e-21)
(1.08561 -0.165228 8.36476e-21)
(1.05861 0.22855 -1.477e-20)
(1.05701 0.237105 8.83333e-21)
(1.19702 -0.187139 -4.23907e-21)
(1.20096 -0.181304 -9.4843e-22)
(1.1612 -0.125487 -1.46706e-20)
(1.16521 -0.122745 1.19042e-20)
(1.35684 -0.159288 0)
(1.34944 -0.168777 -3.61066e-20)
(1.35251 -0.157667 6.65395e-20)
(0.970201 -0.0118283 2.26807e-21)
(0.970688 -0.013366 1.37676e-20)
(0.968933 -0.0134088 -1.1619e-21)
(0.982736 0.000423184 -5.79464e-21)
(0.982204 0.00117103 0)
(0.983244 0.00122849 2.11748e-21)
(1.00114 -0.00490529 3.64904e-22)
(1.00105 -0.00497523 0)
(1.00103 -0.00476583 1.167e-21)
(0.218043 -0.108966 8.45103e-21)
(0.188033 -0.106878 2.38484e-20)
(1.14783 0.0322951 2.78565e-20)
(1.14781 0.037137 3.13558e-20)
(1.14469 0.034471 -1.67782e-20)
(1.06044 0.00496275 -7.06476e-21)
(1.06099 0.00594732 0)
(1.0619 0.00476914 -1.40894e-20)
(1.00016 -0.000609431 2.16393e-23)
(1.00016 -0.000535807 -2.68459e-22)
(1.00024 -0.000700442 -4.07063e-22)
(0.702234 0.232091 0)
(0.683106 0.235074 -2.07971e-20)
(0.722016 0.247672 -9.15808e-21)
(1.17249 -0.0307143 4.90752e-20)
(1.16698 -0.0349912 1.55541e-21)
(1.08561 0.223185 -3.9804e-20)
(1.08511 0.233174 1.67696e-20)
(-0.220177 0.0553131 -5.17648e-20)
(-0.247907 0.0421429 -4.73914e-20)
(0.323981 0.222942 7.32774e-21)
(0.291309 0.211791 2.28809e-20)
(0.339181 0.226425 -9.73443e-21)
(0.299842 0.215294 -1.01725e-20)
(0.359373 0.234488 4.77338e-20)
(-0.201774 -0.0413201 -1.27817e-19)
(-0.166554 -0.0516694 -1.40268e-19)
(1.01162 -0.122504 3.06002e-21)
(1.00749 -0.120826 1.06908e-21)
(0.550694 -0.104038 4.11231e-20)
(0.563755 -0.110347 1.33831e-19)
(0.502091 -0.104862 5.28049e-20)
(1.00062 -0.00530789 9.7664e-22)
(1.00056 -0.00516024 8.74947e-22)
(1.00066 -0.00514172 9.13784e-22)
(1.01216 -0.00792806 0)
(1.01157 -0.00763961 -4.14597e-21)
(1.1939 -0.0626839 0)
(1.19152 -0.0683193 -2.5964e-21)
(1.18794 -0.0631382 1.94878e-20)
(1.00122 -0.000357825 -2.72969e-22)
(1.00111 -0.000455289 9.86234e-23)
(1.00107 -0.000307348 -2.57049e-22)
(0.094427 -0.100363 -4.29962e-21)
(0.13708 -0.105738 -8.82141e-20)
(1.19172 0.299709 -1.69263e-20)
(1.23977 0.307395 -3.69832e-20)
(1.20325 0.314968 -1.79379e-20)
(1.10441 0.260257 -2.0192e-21)
(1.11401 0.264533 -3.64349e-20)
(1.10217 0.271141 -4.64241e-20)
(1.01245 -0.00780123 0)
(1.01272 -0.00819556 0)
(1.07985 0.0503552 3.71376e-21)
(1.08258 0.0493492 1.72196e-20)
(1.0799 0.0475869 1.59882e-20)
(1.0946 0.256443 -6.67368e-21)
(1.10323 0.25014 -1.18565e-21)
(1.38881 -0.0809791 8.19228e-20)
(1.39327 -0.0901552 -7.66011e-20)
(1.09978 -0.375923 -2.28664e-20)
(1.01436 -0.119831 0)
(1.01328 -0.115984 1.26111e-21)
(1.01691 -0.117149 5.75042e-21)
(1.15851 0.0363361 2.15202e-20)
(1.15568 0.0297243 0)
(0.0504442 -0.00952165 0)
(0.0198094 -0.0173434 -2.38389e-20)
(0.345724 0.192456 -1.0757e-20)
(0.314576 0.172069 -8.35296e-21)
(1.28572 0.162026 1.44993e-20)
(1.29827 0.169042 0)
(0.888467 -0.0539342 -2.52984e-20)
(0.884322 -0.0498311 1.61776e-20)
(0.882974 -0.0564744 -1.27954e-20)
(0.973991 -0.0147311 -6.01414e-22)
(0.973667 -0.0133524 7.89951e-22)
(0.975096 -0.0133852 -8.14414e-21)
(1.01543 -0.0167404 1.02905e-21)
(1.01544 -0.0173847 -2.59665e-21)
(1.01622 -0.017268 1.13734e-20)
(1.03101 -0.229725 1.50225e-21)
(1.0162 -0.223968 -3.99532e-20)
(1.1506 0.0292407 -1.19124e-20)
(1.14578 0.0277502 4.28468e-20)
(-0.281357 0.038366 -8.29112e-20)
(-0.297388 0.0388366 -8.86737e-20)
(1.08433 -0.0480355 -1.65834e-21)
(1.08677 -0.0501576 -1.1142e-21)
(0.999338 -0.0669321 0)
(1.00131 -0.0687349 0)
(1.03624 0.215435 3.50399e-20)
(1.03121 0.209921 -7.81605e-21)
(1.03763 0.207082 2.27748e-20)
(1.27787 0.165315 -5.52631e-20)
(1.27574 0.153628 -4.9192e-21)
(1.04414 -0.0133586 -7.7219e-21)
(1.04519 -0.0138234 -6.84408e-21)
(1.04423 -0.0145019 -2.53372e-20)
(1.03876 -0.0332877 0)
(1.03729 -0.0331032 -7.22023e-21)
(1.03812 -0.0321055 -6.83685e-21)
(0.70162 -0.137701 2.82007e-20)
(0.721404 -0.140458 6.08457e-20)
(0.711623 -0.153678 -2.97155e-20)
(1.11925 -0.189393 2.94895e-20)
(1.1184 -0.187474 -7.152e-21)
(1.12068 -0.188087 -2.4977e-20)
(-0.0222486 -0.0790022 8.54531e-20)
(0.0126738 -0.0866638 7.95441e-20)
(0.0180856 -0.0858328 -8.41793e-21)
(-0.0490146 -0.0285519 4.5908e-20)
(-0.0569671 -0.0317309 -1.25055e-19)
(0.00238581 -0.0332216 -3.04765e-20)
(1.12694 0.0238199 4.02732e-20)
(1.12963 0.0278443 9.19568e-21)
(0.967538 -0.630522 -2.81809e-20)
(0.975501 -0.688838 -2.06708e-20)
(1.02245 -0.677325 -3.97866e-20)
(-0.0589647 -0.0729879 -2.99397e-20)
(-0.0521079 -0.073782 1.00829e-20)
(0.934804 -0.0112717 5.74882e-21)
(0.93731 -0.010236 3.08088e-21)
(0.934918 -0.00824113 -8.29932e-22)
(1.13254 0.0669607 2.45005e-21)
(1.13536 0.063325 -2.78147e-20)
(1.1306 0.0641244 -8.51641e-20)
(0.118075 0.156142 -3.49296e-20)
(0.14587 0.164064 -6.91893e-20)
(0.0934455 0.148516 -1.40236e-20)
(1.07392 -0.058644 -8.95581e-22)
(1.07467 -0.0604695 7.02599e-22)
(1.07213 -0.0600843 -1.36438e-20)
(1.01613 0.191787 -2.08479e-21)
(1.01226 0.188745 -1.74819e-20)
(1.01101 0.195482 -5.73417e-20)
(1.00864 -0.0382202 -2.92105e-21)
(1.00941 -0.038018 -1.69414e-21)
(1.11763 -0.190506 1.02244e-20)
(1.00014 -0.00242917 1.45076e-21)
(1.0002 -0.00272513 -1.74445e-22)
(1.00018 -0.00280412 -1.89586e-21)
(1.11099 -0.11716 0)
(1.11465 -0.116494 0)
(1.11291 -0.120823 0)
(1.01185 -0.0815304 1.45878e-23)
(1.01412 -0.0823907 2.34259e-21)
(1.01238 -0.0842066 6.48256e-21)
(0.979673 -0.00713469 8.04643e-22)
(0.980272 -0.00803307 8.40247e-21)
(1.41681 0.0885147 0)
(1.41185 0.0967746 0)
(1.41232 0.0810119 4.54135e-20)
(1.0437 -0.024863 9.9081e-21)
(1.04259 -0.0240481 -7.43145e-21)
(1.04404 -0.023521 -1.17529e-20)
(0.195279 -0.562154 -3.53161e-20)
(0.148572 -0.610416 -2.47952e-20)
(1.01223 -0.00733707 0)
(1.01283 -0.00766864 3.31292e-21)
(1.33815 0.0799858 -3.61362e-20)
(1.34133 0.0672782 3.82107e-20)
(1.3275 0.072969 -4.60731e-20)
(-0.303677 0.0437085 1.35029e-20)
(-0.337486 0.0360156 -1.45669e-20)
(0.0936107 -0.0978713 -9.45714e-22)
(0.0960531 -0.0952854 1.05471e-19)
(0.137174 -0.104569 5.69443e-20)
(0.893988 -0.0629105 1.04016e-20)
(0.899138 -0.0616725 1.42439e-20)
(0.897256 -0.0673187 -1.3736e-20)
(1.12935 0.0706813 6.00139e-20)
(1.13451 0.0702343 4.51391e-20)
(1.00007 -0.00171601 -9.21166e-22)
(1.00004 -0.00132651 -1.25104e-21)
(1.00004 -0.00135146 4.94618e-22)
(0.760443 -0.265413 0)
(0.741118 -0.260685 0)
(1 -0.00861745 -1.7213e-21)
(1.00015 -0.00824337 0)
(1.00035 -0.00859195 -2.75371e-23)
(1.10855 -0.115044 0)
(0.445979 -0.13567 -7.36262e-20)
(0.228792 -0.108155 1.97356e-20)
(0.311214 -0.119463 2.02011e-20)
(0.891335 -0.0590891 -1.24323e-20)
(0.89339 -0.052829 -1.74392e-20)
(1.07272 -0.0561077 -2.54856e-21)
(1.07567 -0.056338 3.09641e-20)
(0.996566 0.00252804 -4.01246e-21)
(0.996187 0.00264455 1.70944e-22)
(-0.0944942 -0.0239046 3.47748e-20)
(-0.0450069 -0.0258865 2.78679e-20)
(1.01897 -0.0139713 0)
(1.01862 -0.013263 0)
(1.213 -0.460253 7.79075e-20)
(1.24058 -0.49004 8.38449e-21)
(-0.0596657 -0.0350923 -2.9004e-20)
(-0.064458 -0.0383164 3.4283e-20)
(-0.010686 -0.0412103 -5.0579e-22)
(1.10946 -0.190253 -5.58675e-20)
(1.11096 -0.188089 -3.897e-21)
(1.00015 -0.000680991 5.21291e-22)
(1.00009 -0.000504074 4.46758e-22)
(1.16034 -0.232552 0)
(1.16151 -0.223828 9.07221e-20)
(1.16514 -0.232263 -4.2094e-20)
(-0.401859 0.0146774 2.48974e-20)
(-0.391077 0.0137064 -1.13105e-19)
(-0.358274 0.0198775 -1.13733e-19)
(0.704028 0.314908 2.15326e-20)
(0.685362 0.298834 3.60385e-20)
(1.02041 0.18965 6.9903e-20)
(1.1279 -0.0252849 -8.23144e-22)
(1.12721 -0.0295476 -4.06095e-20)
(1.12393 -0.0257908 -1.64316e-20)
(0.729431 -0.327987 -1.32027e-20)
(0.721349 -0.309819 5.02505e-20)
(0.705615 -0.325602 -3.08184e-20)
(1.41329 0.0940805 2.32809e-21)
(1.41576 0.079521 -4.93809e-21)
(1.07952 0.0531454 -2.40293e-20)
(1.07694 0.0512229 -2.59388e-20)
(1.07404 -0.34816 0)
(1.05869 -0.348358 1.2761e-20)
(1.02517 -0.133423 2.54595e-21)
(1.02129 -0.132573 -5.12542e-21)
(1.02407 -0.129847 -1.59383e-21)
(0.179443 0.0896949 -1.37911e-21)
(0.147981 0.0756374 -2.8892e-20)
(0.167563 0.073445 6.06532e-21)
(1.32677 -0.0691374 -1.24096e-20)
(1.33183 -0.0571945 0)
(1.31811 -0.0628431 -4.76144e-20)
(1.00785 -0.000449755 7.043e-22)
(1.00837 -0.000658465 -2.99339e-21)
(1.00797 -0.00101659 2.17687e-21)
(1.09107 -0.0196791 -4.06295e-21)
(1.08848 -0.0189714 -2.51366e-20)
(1.08901 -0.0216902 -1.5029e-20)
(1.03476 0.223183 4.15665e-20)
(0.714566 0.22379 3.9834e-21)
(0.682489 0.216474 -1.28108e-20)
(0.713128 0.0931856 4.91139e-21)
(0.726837 0.102546 4.92155e-21)
(0.728312 0.0932502 -1.84934e-21)
(1.0148 -0.0162285 5.22917e-21)
(1.0155 -0.0162563 -1.35426e-21)
(0.590984 -0.204846 2.42779e-20)
(0.991006 -0.00488742 2.92709e-22)
(0.991391 -0.00535327 -9.50643e-21)
(0.991626 -0.00475058 -6.45571e-21)
(1.34845 0.22083 -5.18221e-21)
(1.35867 0.209241 6.25493e-20)
(1.33915 0.205943 9.2897e-20)
(1.37463 -0.11896 -4.86655e-21)
(1.3692 -0.130598 1.51163e-21)
(1.37921 -0.117789 -1.32323e-19)
(1.09303 -0.0208642 1.33065e-20)
(1.0926 -0.0185303 -7.79743e-21)
(1.17321 -0.0260392 4.50777e-21)
(1.17807 -0.0272086 5.70121e-20)
(1.32404 -0.0793912 7.01251e-20)
(1.33673 -0.0735903 9.59203e-21)
(0.995667 -0.0177794 1.62159e-21)
(0.99623 -0.0187347 4.04735e-21)
(0.996371 -0.0173748 2.67672e-21)
(0.808158 -0.117405 2.26026e-20)
(0.796956 -0.113104 7.65695e-22)
(1.10465 0.208612 4.17416e-20)
(1.09751 0.213997 5.5142e-20)
(1.09774 0.204379 -7.88072e-21)
(0.928343 0.00177395 -3.00825e-20)
(0.918141 -0.0106451 1.36068e-20)
(0.982953 -0.00330114 9.36336e-20)
(0.997097 -0.00425102 -2.04889e-21)
(0.997462 -0.00426956 3.91261e-21)
(0.997271 -0.00394301 8.60082e-22)
(0.980357 -0.0062492 4.24597e-21)
(0.979056 -0.00633171 -1.17086e-20)
(0.888995 -0.0643484 -1.01161e-21)
(0.209652 0.174026 0)
(0.230782 0.182702 -5.3817e-20)
(0.265647 0.187733 6.67015e-20)
(-0.199558 -0.0614047 0)
(-0.242321 -0.0635677 0)
(-0.197529 -0.0603104 4.85289e-20)
(1.16873 0.0118305 -2.27755e-20)
(1.16515 0.00968948 -1.60769e-20)
(1.16965 0.00683623 -3.97458e-20)
(1.02745 -0.0194566 -4.05022e-21)
(1.02699 -0.0200841 6.93871e-21)
(1.39168 -0.0684577 1.73021e-20)
(1.35783 -0.070051 1.08569e-19)
(1.36163 -0.150032 0)
(1.36739 -0.13996 1.41507e-21)
(1.36777 -0.139451 6.81645e-20)
(1.24952 0.171812 2.98943e-20)
(1.23819 0.178691 9.36233e-21)
(1.23786 0.166103 4.93376e-21)
(1.17378 -0.0202473 -4.30523e-20)
(1.16858 -0.0243729 -8.07487e-20)
(0.18991 0.164056 0)
(0.158619 0.159106 0)
(-0.393516 -0.0151975 2.28468e-24)
(-0.397688 -0.0144348 1.81395e-24)
(-0.437949 -0.0106365 5.11998e-22)
(1.09419 -0.0319021 0)
(1.09415 -0.0343646 0)
(1.09661 -0.0324011 0)
(1.11941 0.0176288 -4.66579e-20)
(1.12272 0.0182759 8.87004e-21)
(1.11932 0.0210492 2.06637e-20)
(1.14167 -0.173313 1.7373e-20)
(1.14267 -0.172181 3.6661e-21)
(1.17027 -0.17435 1.74969e-20)
(1.01648 -0.0215658 -1.62298e-21)
(1.01689 -0.0225466 -5.669e-21)
(1.0157 -0.0217337 -2.84963e-21)
(1.00122 -0.00479788 -1.42427e-23)
(1.00128 -0.00469852 -3.57532e-22)
(1.00116 -0.00458135 -4.01537e-22)
(1.25816 0.167218 -6.57489e-20)
(1.25805 0.179676 2.65589e-20)
(1.1017 -0.150598 1.96877e-20)
(1.10279 -0.147458 -3.13929e-21)
(1.09938 -0.148302 0)
(1.01974 -0.014174 4.94599e-21)
(1.02043 -0.0144178 -1.51132e-21)
(1.02002 -0.0138112 9.73919e-21)
(1.00025 -0.00268033 -9.21023e-22)
(1.00022 -0.0027199 -6.42001e-22)
(1.00015 -0.00239357 -1.18783e-21)
(0.999856 -0.00883717 -1.90871e-21)
(0.999748 -0.00852503 -1.68242e-21)
(1.00343 -0.000525498 3.1435e-22)
(1.00364 -0.000538799 1.27349e-21)
(1.00351 -0.000318028 -1.50252e-22)
(1.1235 -0.01 1.01555e-22)
(1.12701 -0.0111555 -2.62247e-20)
(1.12646 -0.00698686 4.07585e-20)
(1.00127 -0.00505088 3.83116e-22)
(0.139761 0.162703 -4.6703e-20)
(0.189092 0.177539 -3.64768e-20)
(1.16422 0.000833879 4.16942e-20)
(1.16132 0.00602921 5.80828e-20)
(1.00693 -0.0298855 9.1861e-22)
(1.00621 -0.0295828 1.07405e-22)
(1.00676 -0.0306654 2.22821e-22)
(0.711074 0.209095 -3.4889e-21)
(-0.249119 0.034932 8.0694e-21)
(-0.276094 0.0306116 -1.57889e-20)
(0.972111 -0.00754728 3.69103e-21)
(0.972463 -0.00896705 3.67989e-21)
(0.973534 -0.00775186 3.64014e-21)
(1.3487 0.0870531 4.54317e-20)
(-0.285491 -0.0349336 0)
(-0.322299 -0.0267373 -8.54908e-20)
(-0.293269 -0.0339931 5.6515e-20)
(0.967397 -0.0389965 -3.87783e-21)
(0.969515 -0.0399747 3.87089e-21)
(0.971486 -0.00610934 2.28065e-21)
(0.970229 -0.00774161 1.12467e-20)
(1.16733 -0.00321477 -2.43906e-20)
(1.16937 0.00200732 -2.83213e-20)
(-0.331334 0.0335261 5.01929e-21)
(-0.33976 0.0327168 0)
(-0.30039 0.0413711 5.92366e-20)
(0.597643 -0.0468613 0)
(0.512008 -0.0240984 5.97491e-20)
(0.602783 -0.0461829 3.13696e-20)
(1.21367 -0.0450466 0)
(1.21743 -0.0507869 -2.92591e-20)
(1.21036 -0.0497323 0)
(1.0022 -0.000408502 1.44024e-22)
(1.00211 -0.000580878 0)
(0.542516 -0.0977698 -1.17343e-19)
(0.60295 -0.104005 -2.58364e-21)
(1.00058 -0.00549071 0)
(1.22101 -0.0559175 -2.88761e-20)
(1.21866 -0.0620446 1.33768e-20)
(1.22611 -0.0614901 6.64373e-20)
(-0.279201 -0.0332944 -1.59435e-20)
(-0.242978 -0.0418698 0)
(0.937796 0.0228359 -2.05564e-20)
(0.934495 0.0128085 -1.15241e-19)
(0.994825 0.0217124 5.47884e-20)
(1.05983 0.00346478 -7.77753e-21)
(1.05884 0.00464762 5.67062e-21)
(1.1412 -0.173867 0)
(1.13091 -0.17304 4.71063e-20)
(1.11665 -0.174199 2.45172e-20)
(1.11961 -0.176027 3.24558e-20)
(1.12217 -0.176672 3.27739e-20)
(0.136364 0.0168457 1.26188e-20)
(0.144874 0.0233314 6.12935e-20)
(0.19768 0.00922815 -3.06889e-21)
(1.19145 -0.187423 0)
(1.18864 -0.182188 3.87401e-20)
(1.18542 -0.187487 -5.47382e-21)
(0.782926 -0.0876646 4.25151e-20)
(0.783245 -0.0763753 1.78778e-20)
(0.77119 -0.0810637 5.57405e-20)
(0.174536 -0.107623 0)
(0.176595 -0.108982 0)
(-0.174628 0.0378143 3.99413e-20)
(-0.139101 0.0391118 -1.4342e-20)
(-0.180534 0.0338104 3.72499e-20)
(0.935376 -0.0702256 7.08195e-21)
(0.875477 -0.0703235 9.18824e-20)
(1.04018 -0.0335775 -5.51213e-21)
(1.03928 -0.034709 0)
(-0.065878 -0.0321961 0)
(-0.0454961 -0.0324636 4.09192e-20)
(-0.0319459 -0.0273935 0)
(0.342622 0.0615824 -3.10681e-21)
(0.360396 0.0603057 -1.24017e-20)
(0.499755 -0.451188 -1.50765e-20)
(0.464465 -0.426612 -3.53537e-20)
(0.469995 -0.475255 -6.82007e-20)
(0.527178 -0.427608 4.52809e-20)
(0.540669 -0.46989 3.47896e-20)
(0.932702 -0.0126131 -5.64351e-22)
(0.934072 -0.0138962 -1.02214e-20)
(1.2065 -0.0623782 -2.41694e-20)
(1.20019 -0.0622779 4.06585e-20)
(1.20404 -0.068321 7.17418e-20)
(0.935143 -0.107349 1.54458e-20)
(0.938534 -0.103303 6.35226e-21)
(0.940605 -0.108896 -2.54628e-21)
(0.488823 0.106229 -5.88575e-21)
(0.476409 0.0855658 0)
(0.789541 -0.133677 1.17383e-20)
(0.787602 -0.12078 -2.21431e-20)
(0.774843 -0.130081 -2.95507e-20)
(1.00621 -0.00132356 6.27858e-22)
(1.00619 -0.00157258 6.03419e-22)
(1.00648 -0.00151131 -1.72454e-22)
(1.01947 -0.000458708 3.70399e-21)
(1.01937 -0.00040161 1.81103e-21)
(1.05532 -0.0920528 0)
(1.05777 -0.0936007 -1.80543e-20)
(1.05472 -0.0945698 0)
(0.0900626 0.016751 1.23775e-20)
(0.124156 0.011519 -2.29858e-20)
(0.266345 -0.588711 -2.67445e-20)
(1.01711 -0.0214233 -2.78575e-21)
(1.0161 -0.0208232 4.37342e-21)
(0.0518621 -0.0869892 -8.08912e-20)
(0.925156 -0.103936 -1.08933e-20)
(0.930636 -0.106088 1.01586e-20)
(0.928819 -0.100203 -8.13919e-21)
(1.08678 -0.0930391 5.57891e-21)
(1.09026 -0.0933139 -9.38444e-21)
(1.06198 0.00710479 -1.41878e-20)
(1.06051 0.00711387 0)
(-0.329709 0.0359647 4.53913e-21)
(-0.368217 0.0301983 -1.11372e-21)
(1.39585 -0.0536795 -7.99664e-21)
(1.40191 -0.0618936 1.83799e-20)
(1.02533 0.21359 -1.1075e-20)
(1.01144 -0.0784215 -8.06617e-22)
(1.00942 -0.0799466 -1.1343e-21)
(1.07151 -0.0542079 -7.78654e-21)
(1.07007 -0.0560166 -1.85828e-20)
(0.853422 0.184223 -3.20297e-22)
(0.861038 0.178975 4.97424e-21)
(0.847567 0.175807 2.87023e-20)
(0.973048 -0.0162185 8.00814e-21)
(0.974619 -0.0160966 2.09791e-21)
(1.33728 -0.158886 0)
(1.09169 -0.030908 0)
(1.09428 -0.02879 0)
(1.16535 -0.00737342 5.30127e-20)
(1.17082 -0.00613799 -6.58446e-20)
(0.922289 -0.108638 -9.39551e-21)
(0.919418 -0.102476 9.00324e-21)
(0.99038 -0.00507594 6.42706e-21)
(1.00811 -0.0304755 -3.01436e-21)
(1.0074 -0.0290453 0)
(1.13466 -0.180844 -4.32789e-21)
(1.13203 -0.180534 6.13927e-20)
(1.13286 -0.183544 5.02167e-20)
(1.11649 -0.189891 1.92964e-20)
(1.1151 -0.188213 0)
(1.33554 -0.0480764 -2.85261e-21)
(1.33891 -0.0372941 -2.84015e-21)
(1.32663 -0.0421235 5.68107e-22)
(1.11527 -0.1723 -8.0295e-21)
(0.843151 0.188742 -2.12303e-20)
(0.857541 0.192743 -2.62369e-20)
(0.999891 -0.0726359 -6.74525e-22)
(0.997771 -0.0732044 8.14287e-22)
(-0.106466 -0.0304253 1.64814e-20)
(1.38341 0.198787 -1.96455e-20)
(1.38 0.211588 -2.35213e-20)
(1.35905 0.213833 2.3149e-20)
(1.0262 -0.0114002 0)
(1.02623 -0.010711 0)
(1.02549 -0.0109721 0)