/*--------------------------------*- C++ -*----------------------------------*\
| =========                 |                                                 |
| \\      /  F ield         | OpenFOAM: The Open Source CFD Toolbox           |
|  \\    /   O peration     | Version:  v2012                                 |
|   \\  /    A nd           | Website:  www.openfoam.com                      |
|    \\/     M anipulation  |                                                 |
\*---------------------------------------------------------------------------*/
FoamFile
{
    version     2.0;
    format      ascii;
    class       pointVectorField;
    location    "300";
    object      pointDisplacement;
}
// * * * * * * * * * * * * * * * * * * * * * * * * * * * * * * * * * * * * * //

dimensions      [0 1 0 0 0 0 0];


internalField   nonuniform List<vector> 
14332
(
(0 0 0)
(-0.021268 0.147836 0)
(0 0 0)
(-0.021268 0.147836 0)
(0 0 0)
(0 0 0)
(0 0 0)
(0 0 0)
(0 0 0)
(0 0 0)
(0 0 0)
(0 0 0)
(0 0 0)
(0 0 0)
(0 0 0)
(0 0 0)
(0 0 0)
(0 0 0)
(0 0 0)
(0 0 0)
(0 0 0)
(0 0 0)
(0 0 0)
(0 0 0)
(0 0 0)
(0 0 0)
(0 0 0)
(0 0 0)
(0 0 0)
(0 0 0)
(0 0 0)
(0 0 0)
(0 0 0)
(0 0 0)
(0 0 0)
(0 0 0)
(0 0 0)
(0 0 0)
(0 0 0)
(0 0 0)
(0 0 0)
(0 0 0)
(0 0 0)
(0 0 0)
(0 0 0)
(0 0 0)
(0 0 0)
(0 0 0)
(0 0 0)
(0 0 0)
(0 0 0)
(0 0 0)
(0 0 0)
(0 0 0)
(0 0 0)
(0 0 0)
(0 0 0)
(0 0 0)
(0 0 0)
(0 0 0)
(0 0 0)
(0 0 0)
(0 0 0)
(0 0 0)
(0 0 0)
(0 0 0)
(0 0 0)
(0 0 0)
(0 0 0)
(0 0 0)
(0 0 0)
(0 0 0)
(0 0 0)
(0 0 0)
(0 0 0)
(0 0 0)
(0 0 0)
(0 0 0)
(0 0 0)
(0 0 0)
(0 0 0)
(0 0 0)
(0 0 0)
(0 0 0)
(0 0 0)
(0 0 0)
(0 0 0)
(0 0 0)
(0 0 0)
(0 0 0)
(0 0 0)
(0 0 0)
(0 0 0)
(0 0 0)
(0 0 0)
(0 0 0)
(0 0 0)
(0 0 0)
(0 0 0)
(0 0 0)
(0 0 0)
(0 0 0)
(0 0 0)
(0 0 0)
(0 0 0)
(0 0 0)
(0 0 0)
(0 0 0)
(0 0 0)
(0 0 0)
(0 0 0)
(0 0 0)
(0 0 0)
(0 0 0)
(0 0 0)
(0 0 0)
(0 0 0)
(0 0 0)
(0 0 0)
(0 0 0)
(0 0 0)
(0 0 0)
(0 0 0)
(0 0 0)
(0 0 0)
(0 0 0)
(0 0 0)
(0 0 0)
(0 0 0)
(0 0 0)
(0 0 0)
(0 0 0)
(0 0 0)
(0 0 0)
(0.0120724 0.148454 0)
(0.0102201 0.14842 0)
(0.00836788 0.148386 0)
(0.00651563 0.148351 0)
(0.00466339 0.148317 0)
(0.00281114 0.148283 0)
(0.000958898 0.148248 0)
(-0.000893348 0.148214 0)
(-0.00274559 0.14818 0)
(-0.00459784 0.148145 0)
(-0.00645008 0.148111 0)
(-0.00830233 0.148077 0)
(-0.0101546 0.148042 0)
(-0.0120068 0.148008 0)
(-0.0138591 0.147974 0)
(-0.0157113 0.147939 0)
(-0.0175636 0.147905 0)
(-0.0194158 0.147871 0)
(-0.0212337 0.145984 0)
(-0.0211994 0.144132 0)
(-0.0211651 0.14228 0)
(-0.0211308 0.140427 0)
(-0.0210964 0.138575 0)
(-0.0210621 0.136723 0)
(-0.0210278 0.134871 0)
(-0.0209935 0.133018 0)
(-0.0209592 0.131166 0)
(-0.0209248 0.129314 0)
(-0.0208905 0.127462 0)
(-0.0208562 0.125609 0)
(-0.0208219 0.123757 0)
(-0.0207876 0.121905 0)
(-0.0207533 0.120053 0)
(-0.0207189 0.118201 0)
(-0.0206846 0.116348 0)
(-0.0206503 0.114496 0)
(-0.020616 0.112644 0)
(-0.0205817 0.110792 0)
(-0.0205473 0.108939 0)
(-0.020513 0.107087 0)
(-0.0204787 0.105235 0)
(-0.0204444 0.103383 0)
(-0.0204101 0.10153 0)
(-0.0203757 0.0996781 0)
(-0.0203414 0.0978258 0)
(0 0 0)
(0 0 0)
(0 0 0)
(0 0 0)
(0 0 0)
(0 0 0)
(0 0 0)
(0 0 0)
(0 0 0)
(0 0 0)
(0 0 0)
(0 0 0)
(0 0 0)
(0 0 0)
(0 0 0)
(0 0 0)
(0 0 0)
(0 0 0)
(0 0 0)
(0 0 0)
(0 0 0)
(0 0 0)
(0 0 0)
(0 0 0)
(0 0 0)
(0 0 0)
(0 0 0)
(0 0 0)
(0 0 0)
(0 0 0)
(0 0 0)
(0 0 0)
(0 0 0)
(0 0 0)
(0 0 0)
(0 0 0)
(0 0 0)
(0 0 0)
(0 0 0)
(0 0 0)
(0 0 0)
(0 0 0)
(0 0 0)
(0 0 0)
(0 0 0)
(0 0 0)
(0 0 0)
(0 0 0)
(0 0 0)
(0 0 0)
(0 0 0)
(0 0 0)
(0 0 0)
(0 0 0)
(0 0 0)
(0 0 0)
(0 0 0)
(0 0 0)
(0 0 0)
(0 0 0)
(0 0 0)
(0 0 0)
(0 0 0)
(0 0 0)
(0 0 0)
(0 0 0)
(0 0 0)
(0 0 0)
(0 0 0)
(0 0 0)
(0 0 0)
(0 0 0)
(0 0 0)
(0 0 0)
(0 0 0)
(0 0 0)
(0 0 0)
(0 0 0)
(0 0 0)
(0 0 0)
(0 0 0)
(0 0 0)
(0 0 0)
(0 0 0)
(0 0 0)
(0 0 0)
(0 0 0)
(0 0 0)
(0 0 0)
(0 0 0)
(0 0 0)
(0 0 0)
(0 0 0)
(0 0 0)
(0 0 0)
(0 0 0)
(0 0 0)
(0 0 0)
(0 0 0)
(0 0 0)
(0 0 0)
(0 0 0)
(0 0 0)
(0 0 0)
(0 0 0)
(0 0 0)
(0 0 0)
(0 0 0)
(0 0 0)
(0 0 0)
(0 0 0)
(0 0 0)
(0 0 0)
(0 0 0)
(0 0 0)
(0 0 0)
(0 0 0)
(0 0 0)
(0 0 0)
(0 0 0)
(0 0 0)
(0 0 0)
(0 0 0)
(0 0 0)
(0 0 0)
(0 0 0)
(0 0 0)
(0 0 0)
(0 0 0)
(0 0 0)
(0.0120724 0.148454 0)
(0.0102201 0.14842 0)
(0.00836788 0.148386 0)
(0.00651563 0.148351 0)
(0.00466339 0.148317 0)
(0.00281114 0.148283 0)
(0.000958898 0.148248 0)
(-0.000893348 0.148214 0)
(-0.00274559 0.14818 0)
(-0.00459784 0.148145 0)
(-0.00645008 0.148111 0)
(-0.00830233 0.148077 0)
(-0.0101546 0.148042 0)
(-0.0120068 0.148008 0)
(-0.0138591 0.147974 0)
(-0.0157113 0.147939 0)
(-0.0175636 0.147905 0)
(-0.0194158 0.147871 0)
(-0.0212337 0.145984 0)
(-0.0211994 0.144132 0)
(-0.0211651 0.14228 0)
(-0.0211308 0.140427 0)
(-0.0210964 0.138575 0)
(-0.0210621 0.136723 0)
(-0.0210278 0.134871 0)
(-0.0209935 0.133018 0)
(-0.0209592 0.131166 0)
(-0.0209248 0.129314 0)
(-0.0208905 0.127462 0)
(-0.0208562 0.125609 0)
(-0.0208219 0.123757 0)
(-0.0207876 0.121905 0)
(-0.0207533 0.120053 0)
(-0.0207189 0.118201 0)
(-0.0206846 0.116348 0)
(-0.0206503 0.114496 0)
(-0.020616 0.112644 0)
(-0.0205817 0.110792 0)
(-0.0205473 0.108939 0)
(-0.020513 0.107087 0)
(-0.0204787 0.105235 0)
(-0.0204444 0.103383 0)
(-0.0204101 0.10153 0)
(-0.0203757 0.0996781 0)
(-0.0203414 0.0978258 0)
(-0.00371228 0.148162 0)
(-0.000214735 0.00372924 0)
(-0.0209775 0.132181 0)
(-0.0203611 0.0988991 0)
(-0.0206735 0.115712 0)
(-0.000305509 0.00413967 0)
(0.0108886 0.148416 0)
(-0.00013647 0.00307474 0)
(-5.85386e-05 0.00193095 0)
(-1.14181e-05 0.000835808 0)
(-0.000554679 0.00578043 0)
(-3.50382e-05 0.00137311 0)
(-8.12859e-05 0.00224622 0)
(-0.0164811 0.147915 0)
(-0.000614532 0.00491138 0)
(-1.41739e-05 0.000923415 0)
(-0.000778944 0.00446872 0)
(-2.08751e-05 0.000922289 0)
(-0.000956658 0.00335525 0)
(-0.0211728 0.143213 0)
(-1.35001e-05 0.000810356 0)
(-1.79949e-05 0.000858736 0)
(-9.5442e-06 0.000544035 0)
(-1.05697e-05 0.000530739 0)
(-7.88577e-06 0.000432632 0)
(-0.000175071 0.00347196 0)
(-4.08585e-05 0.00147302 0)
(0.00362609 0.148299 0)
(-0.0208394 0.124679 0)
(-0.0205314 0.108069 0)
(-7.04549e-06 0.000364013 0)
(-4.56487e-06 0.000245589 0)
(-0.000556737 0.00512177 0)
(-0.000506307 0.00591599 0)
(-0.000678574 0.00467927 0)
(-0.000938733 0.00440582 0)
(-0.000276484 0.00418701 0)
(-0.00012548 0.00308898 0)
(-6.67942e-05 0.00199329 0)
(-2.22893e-05 0.00102788 0)
(-3.2033e-05 0.00134796 0)
(-1.18687e-05 0.000822404 0)
(-1.11001e-05 0.000692996 0)
(-5.3291e-06 0.000279453 0)
(-0.00915726 0.148059 0)
(-0.0210768 0.137586 0)
(-2.78553e-06 0.000147357 0)
(-2.65482e-06 0.000141548 0)
(-0.00108649 0.00250059 0)
(-0.000377334 0.00476438 0)
(-0.00025655 0.00416678 0)
(-0.000197413 0.00366595 0)
(-0.000144326 0.00304831 0)
(-0.000103905 0.0027082 0)
(-2.99398e-05 0.00121619 0)
(-4.35757e-05 0.00164123 0)
(-6.71239e-05 0.00211439 0)
(-8.69349e-06 0.000443668 0)
(-4.59556e-05 0.00158872 0)
(-1.11059e-05 0.000746335 0)
(-8.413e-06 0.000494463 0)
(-7.90419e-06 0.000439752 0)
(-6.61478e-06 0.0003593 0)
(-1.33604e-05 0.000652606 0)
(-1.33744e-06 7.10786e-05 0)
(-0.000904232 0.120217 0)
(-0.00124096 0.119552 0)
(-0.00135559 0.120707 0)
(-0.00168917 0.119973 0)
(-0.00183482 0.121105 0)
(-0.00215225 0.120298 0)
(-0.00232953 0.121399 0)
(-0.00262779 0.120525 0)
(-0.00283185 0.121601 0)
(-0.00310983 0.120651 0)
(-0.0033374 0.121689 0)
(-0.00359355 0.12067 0)
(-0.0038407 0.121669 0)
(-0.00408066 0.120583 0)
(-0.00434469 0.121547 0)
(-0.00456893 0.120398 0)
(-0.00485328 0.121305 0)
(-0.00504325 0.120142 0)
(-0.00535153 0.120926 0)
(-0.0054951 0.11973 0)
(-0.00583411 0.120428 0)
(-0.00593286 0.119096 0)
(-0.00629689 0.1198 0)
(-0.00636721 0.118364 0)
(-0.00674321 0.119029 0)
(-0.0067861 0.117569 0)
(-0.00715776 0.118097 0)
(-0.00718114 0.116648 0)
(-0.00755375 0.117138 0)
(-0.00756047 0.115645 0)
(-0.00795125 0.116098 0)
(-0.00792202 0.114547 0)
(-0.00831606 0.114853 0)
(-0.00825138 0.113283 0)
(-0.00864055 0.113456 0)
(-0.00787774 0.112997 0)
(-0.00817849 0.111695 0)
(-0.00781934 0.111418 0)
(-0.000454766 0.0343793 0)
(-0.000435425 0.0332904 0)
(-0.00810446 0.11008 0)
(-0.00775128 0.109816 0)
(-0.000457679 0.033574 0)
(-0.000438865 0.0325338 0)
(-0.00802345 0.108439 0)
(-0.00767452 0.108184 0)
(-0.000460373 0.0328094 0)
(-0.000441232 0.0317645 0)
(-0.000462914 0.0320484 0)
(-0.000442417 0.0309926 0)
(-0.00793281 0.106772 0)
(-0.0075908 0.106522 0)
(-0.000462767 0.0312317 0)
(-0.000442191 0.0302069 0)
(-0.00783707 0.105076 0)
(-0.00750167 0.104835 0)
(-0.000460783 0.0303908 0)
(-0.000440325 0.0293975 0)
(-0.000422524 0.0292017 0)
(-0.00773293 0.103347 0)
(-0.00740513 0.103103 0)
(-0.00805837 0.103647 0)
(-0.000457435 0.0295361 0)
(-0.000436995 0.0285709 0)
(-0.00762483 0.101561 0)
(-0.00730078 0.101329 0)
(-0.000452923 0.0286784 0)
(-0.000473884 0.0295869 0)
(-0.000432412 0.0277323 0)
(-0.0035792 0.122715 0)
(-0.00872548 0.115054 0)
(-0.00904576 0.113562 0)
(-0.00914257 0.115169 0)
(-0.00944868 0.1137 0)
(-0.0095671 0.115182 0)
(-0.009849 0.113649 0)
(-0.00999811 0.115051 0)
(-0.0102617 0.11335 0)
(-0.0104281 0.114793 0)
(-0.0106767 0.112983 0)
(-0.0108558 0.114407 0)
(-0.0110837 0.112484 0)
(-0.0112779 0.113922 0)
(-0.0114832 0.111853 0)
(-0.011693 0.113271 0)
(-0.0118748 0.111102 0)
(-0.0120982 0.112436 0)
(-0.0122557 0.110228 0)
(-0.0124938 0.11148 0)
(-0.0126255 0.10918 0)
(-0.0128751 0.110348 0)
(-0.0129823 0.107935 0)
(-0.0132436 0.109016 0)
(-0.0133292 0.106478 0)
(-0.0130643 0.105436 0)
(-0.0133972 0.103805 0)
(-0.013664 0.104845 0)
(-0.0137096 0.102081 0)
(-0.0139753 0.103006 0)
(-0.0139859 0.10022 0)
(-0.0142641 0.100923 0)
(-0.0142483 0.098135 0)
(-0.0145431 0.0985937 0)
(-0.0144864 0.0957621 0)
(-0.0147939 0.09597 0)
(-0.014722 0.093075 0)
(-0.0150099 0.0931669 0)
(-0.0149585 0.0903284 0)
(-0.0152171 0.0902884 0)
(-0.0151523 0.0873592 0)
(-0.0154109 0.0870887 0)
(-0.0153175 0.0840363 0)
(-0.0155731 0.0835168 0)
(-0.0154627 0.0803962 0)
(-0.0157094 0.079679 0)
(-0.0155882 0.0765519 0)
(-0.0158312 0.0756175 0)
(-0.015696 0.0725055 0)
(-0.015935 0.0713514 0)
(-0.0157855 0.0682723 0)
(-0.0160155 0.0668743 0)
(-0.0158553 0.06387 0)
(-0.0160749 0.0622701 0)
(-0.0159066 0.0593677 0)
(-0.013134 0.102788 0)
(-0.0147147 0.089929 0)
(-0.0155493 0.0693428 0)
(-0.0110131 0.115927 0)
(-0.00044708 0.0278079 0)
(-0.000426605 0.0268809 0)
(-0.00750185 0.0997438 0)
(-0.0071885 0.0995258 0)
(-0.0161626 0.069898 0)
(-0.000440048 0.0269223 0)
(-0.000419707 0.0260154 0)
(-0.00736574 0.0979061 0)
(-0.00706881 0.0976914 0)
(-0.000431815 0.026021 0)
(-0.000411838 0.0251398 0)
(-0.000400029 0.025114 0)
(-0.00722998 0.0960326 0)
(-0.00694219 0.095823 0)
(-0.000422375 0.025105 0)
(-0.000402944 0.0242557 0)
(-0.0155018 0.0906403 0)
(-0.0070924 0.0941422 0)
(-0.0068108 0.093915 0)
(-0.00736078 0.0942248 0)
(-0.0131304 0.111482 0)
(-0.000411865 0.0241815 0)
(-0.000430046 0.0249444 0)
(-0.000393158 0.0233673 0)
(-0.006949 0.0922091 0)
(-0.00667223 0.0919794 0)
(-0.000400931 0.0232687 0)
(-0.000382639 0.0224767 0)
(-0.00038948 0.0223585 0)
(-0.00037145 0.0215849 0)
(-0.00679897 0.0902446 0)
(-0.00652616 0.0900228 0)
(-0.000377631 0.021455 0)
(-0.00035967 0.0206934 0)
(-0.000353542 0.0208022 0)
(-0.00663964 0.0882483 0)
(-0.00637531 0.0880154 0)
(-0.000342267 0.0199362 0)
(-0.000336555 0.0200378 0)
(-0.000347239 0.0198022 0)
(-0.0064742 0.0862184 0)
(-0.0062224 0.0859926 0)
(-0.00611607 0.0876267 0)
(-0.00597487 0.0856743 0)
(-0.00586355 0.0872343 0)
(-0.00573072 0.0853089 0)
(-0.00561606 0.0868691 0)
(-0.00549041 0.0848724 0)
(-0.00559349 0.0832476 0)
(-0.00535854 0.0828094 0)
(-0.00525566 0.0843216 0)
(-0.00513193 0.0823276 0)
(-0.000330302 0.0190659 0)
(-0.000334351 0.0189175 0)
(-0.00521944 0.0806935 0)
(-0.00500173 0.0802241 0)
(-0.00491293 0.0818196 0)
(-0.00479057 0.0797051 0)
(-0.00481857 0.119302 0)
(-0.000318406 0.0182287 0)
(-0.00032119 0.0180408 0)
(-0.00469866 0.081241 0)
(-0.00458437 0.0791244 0)
(-0.00466227 0.0775419 0)
(-0.00446354 0.0769747 0)
(-0.00438322 0.0785102 0)
(-0.00427067 0.0763563 0)
(-0.00418703 0.0778345 0)
(-0.00408325 0.075682 0)
(-0.00399866 0.0770935 0)
(-0.00390127 0.0749573 0)
(-0.00381731 0.0763088 0)
(-0.00372507 0.0741906 0)
(-0.00379821 0.0727877 0)
(-0.00362718 0.0720435 0)
(-0.00699491 0.101019 0)
(-0.00030422 0.0173182 0)
(-0.000307784 0.0171635 0)
(-0.00355481 0.0733943 0)
(-0.00346228 0.0712705 0)
(-0.00352369 0.0698619 0)
(-0.00336495 0.0691121 0)
(-0.00330323 0.0704676 0)
(-0.00321199 0.0683282 0)
(-0.00315012 0.0696312 0)
(-0.00306451 0.0675142 0)
(-0.000291958 0.0164668 0)
(-0.000294138 0.0162957 0)
(-0.00031076 0.0170264 0)
(-0.00311576 0.0661578 0)
(-0.00297413 0.0653712 0)
(-0.00292221 0.0666782 0)
(-0.00283775 0.0645616 0)
(-0.00278507 0.0658185 0)
(-0.00270625 0.0637225 0)
(-0.00265338 0.0649304 0)
(-0.00257959 0.0628569 0)
(-0.00252728 0.0640154 0)
(-0.00245799 0.0619702 0)
(-0.00250214 0.0607594 0)
(-0.00238441 0.0599016 0)
(-0.0023415 0.0610702 0)
(-0.00227209 0.0590346 0)
(-0.000278605 0.0156208 0)
(-0.000277579 0.0158433 0)
(-0.000280029 0.015428 0)
(-0.00230674 0.0578084 0)
(-0.00219915 0.0569746 0)
(-0.00216468 0.0581546 0)
(-0.00209623 0.0561252 0)
(-0.00206168 0.0572539 0)
(-0.00199767 0.0552567 0)
(-0.00196268 0.0563681 0)
(-0.0019031 0.0543765 0)
(-0.00193061 0.0532454 0)
(-0.00184014 0.0523969 0)
(-0.0018126 0.0534777 0)
(-0.00175366 0.0515359 0)
(-0.00172593 0.0525571 0)
(-0.001671 0.0506638 0)
(-0.00169123 0.0495824 0)
(-0.00161274 0.048756 0)
(-0.00159207 0.0497873 0)
(-0.00153774 0.0479223 0)
(-0.00151643 0.0488929 0)
(-0.00146588 0.0470752 0)
(-0.000265015 0.0147723 0)
(-0.000265848 0.0145704 0)
(-0.00148123 0.0460463 0)
(-0.00141308 0.0452467 0)
(-0.00139718 0.0462244 0)
(-0.00134762 0.0444376 0)
(-0.00133168 0.0453739 0)
(-0.00128513 0.0436221 0)
(-0.00126913 0.0445179 0)
(-0.00122545 0.0428037 0)
(-0.0012368 0.0418625 0)
(-0.00118004 0.0410826 0)
(-0.0011685 0.0419824 0)
(-0.00112581 0.0402966 0)
(-0.00111422 0.0411509 0)
(-0.00107404 0.0395043 0)
(-0.0010817 0.0386139 0)
(-0.00103243 0.0378617 0)
(-0.00569185 0.121671 0)
(0.00149493 0.141016 0)
(0.00129903 0.140366 0)
(0.000479822 0.140877 0)
(0.000375419 0.140216 0)
(-0.000521866 0.140653 0)
(-0.000528144 0.139906 0)
(-0.00151251 0.140356 0)
(-0.00149395 0.139676 0)
(-0.00243877 0.140021 0)
(-0.00231962 0.139334 0)
(-0.00328631 0.139629 0)
(-0.00347047 0.1403 0)
(-0.00427463 0.139864 0)
(-0.00453525 0.140511 0)
(-0.00529919 0.139976 0)
(-0.00565543 0.140633 0)
(-0.00634161 0.140001 0)
(-0.00679914 0.140617 0)
(-0.00736477 0.139933 0)
(-0.00789299 0.14048 0)
(-0.00836523 0.139728 0)
(-0.00893635 0.140256 0)
(-0.00932772 0.139429 0)
(-0.00992534 0.139926 0)
(-0.00878178 0.138906 0)
(-0.00140981 0.138986 0)
(-0.0102199 0.139028 0)
(-0.0108396 0.139477 0)
(-0.00025194 0.013953 0)
(-0.000251645 0.0137241 0)
(-0.00314726 0.138952 0)
(-0.00390244 0.0783996 0)
(-0.00103635 0.0369329 0)
(-0.000989618 0.0362212 0)
(-0.00673576 0.0863515 0)
(-0.00106249 0.0403133 0)
(-0.0110382 0.138536 0)
(-0.0116675 0.138908 0)
(-0.00301502 0.0639572 0)
(-0.00452813 0.0753397 0)
(-0.000238571 0.0131467 0)
(-0.000237402 0.0128858 0)
(-0.000251275 0.0135016 0)
(-0.00655183 0.0842907 0)
(-0.00680961 0.084327 0)
(-0.00660807 0.0822397 0)
(-0.00686002 0.0821977 0)
(-0.00664276 0.080069 0)
(-0.00689017 0.0799548 0)
(-0.00665546 0.0777796 0)
(-0.00689518 0.0775693 0)
(-0.00664271 0.0753639 0)
(-0.00687107 0.0750518 0)
(0.00180171 0.141645 0)
(-0.0117737 0.137911 0)
(-0.0124138 0.1382 0)
(-0.000989977 0.0352543 0)
(-0.000945847 0.0345838 0)
(-0.0112719 0.110434 0)
(-0.00259198 0.066041 0)
(-0.00660132 0.0728056 0)
(-0.00682065 0.0724267 0)
(-0.00710389 0.0746471 0)
(-0.0070403 0.0719507 0)
(-0.00733431 0.0741074 0)
(-0.00725689 0.0713481 0)
(-0.00756133 0.0734447 0)
(-0.00747095 0.0706263 0)
(-0.00778544 0.0726611 0)
(-0.0076807 0.0697854 0)
(-0.00800502 0.0717385 0)
(-0.00788172 0.06882 0)
(-0.00821653 0.0706807 0)
(-0.00807394 0.0677157 0)
(-0.00841946 0.0694902 0)
(-0.00826102 0.0664562 0)
(-0.00861322 0.0681466 0)
(-0.0084383 0.065049 0)
(-0.00879702 0.0666598 0)
(-0.00860455 0.0635218 0)
(-0.00897004 0.0650326 0)
(-0.00875937 0.061852 0)
(-0.00913049 0.0632512 0)
(-0.00890172 0.0600376 0)
(-0.00927692 0.0613029 0)
(-0.000224387 0.0123199 0)
(-0.000226228 0.0126194 0)
(-0.000222804 0.0120499 0)
(-0.00903157 0.0580754 0)
(-0.0094101 0.0591863 0)
(-0.0124334 0.137131 0)
(-0.0130811 0.137334 0)
(-0.0117573 0.136944 0)
(-0.00914717 0.055969 0)
(-0.00952855 0.0569094 0)
(-0.000942833 0.0335812 0)
(-0.000901389 0.032953 0)
(-0.000903627 0.0339094 0)
(-0.00086171 0.0323185 0)
(-0.00924815 0.0537325 0)
(-0.00963088 0.0544721 0)
(-0.000210358 0.0115065 0)
(-0.000208124 0.0112264 0)
(-0.00653517 0.0701449 0)
(-0.0130376 0.136222 0)
(-0.013662 0.136317 0)
(-0.0093312 0.0513354 0)
(-0.00971588 0.0518697 0)
(-0.00977847 0.0601029 0)
(-0.000863285 0.0332291 0)
(-0.000823698 0.0316748 0)
(-0.000819323 0.0307358 0)
(-0.000783513 0.0301301 0)
(-0.00939745 0.0487718 0)
(-0.00978352 0.0491414 0)
(-0.00737469 0.141164 0)
(-0.00895912 0.0697203 0)
(-0.000776635 0.0291639 0)
(-0.000743226 0.0286026 0)
(-0.00944964 0.0460802 0)
(-0.00983455 0.0463104 0)
(-0.0101617 0.0493738 0)
(-0.0102129 0.0463966 0)
(-0.00987003 0.0433724 0)
(-0.0102541 0.0433149 0)
(-0.00988995 0.0403234 0)
(-0.0102723 0.0400635 0)
(-0.0098909 0.0371705 0)
(-0.01027 0.0366741 0)
(-0.0135733 0.135178 0)
(-0.0141617 0.135176 0)
(-0.0142651 0.136301 0)
(-0.0147475 0.135083 0)
(-0.0145901 0.133919 0)
(-0.0151413 0.133705 0)
(-0.0153526 0.134884 0)
(-0.0156911 0.133366 0)
(-0.0154629 0.132187 0)
(-0.015959 0.131666 0)
(-0.0162144 0.132839 0)
(-0.0164245 0.131029 0)
(-0.0166896 0.132131 0)
(-0.0168582 0.130275 0)
(-0.0171319 0.131299 0)
(-0.0172558 0.129396 0)
(-0.0175251 0.130249 0)
(-0.0176143 0.128316 0)
(-0.0178763 0.129077 0)
(-0.0179385 0.127014 0)
(-0.0182052 0.127769 0)
(-0.0182281 0.125483 0)
(-0.018492 0.126041 0)
(-0.0184828 0.123699 0)
(-0.0187349 0.123998 0)
(-0.018703 0.121681 0)
(-0.0189418 0.121798 0)
(-0.0188908 0.119393 0)
(-0.0191162 0.119408 0)
(-0.019056 0.116889 0)
(-0.0192614 0.116784 0)
(-0.0191969 0.114212 0)
(-0.0193794 0.113947 0)
(-0.019308 0.111352 0)
(-0.019473 0.11095 0)
(-0.0193971 0.108334 0)
(-0.0195455 0.107807 0)
(-0.019467 0.105186 0)
(-0.0195998 0.104481 0)
(-0.019516 0.101854 0)
(-0.0196316 0.100997 0)
(-0.019548 0.0984775 0)
(-0.0196472 0.0975153 0)
(-0.0195639 0.0950757 0)
(-0.0196525 0.0939732 0)
(-0.0195675 0.0914995 0)
(-0.0194694 0.0925774 0)
(-0.0192422 0.108804 0)
(-0.0184667 0.121428 0)
(-0.0173721 0.127452 0)
(-0.0157371 0.130451 0)
(-0.019731 0.0928262 0)
(-0.0196841 0.107218 0)
(-0.0098729 0.0339091 0)
(-0.0102421 0.0331509 0)
(-0.0106591 0.039613 0)
(-0.00734861 0.0677235 0)
(-0.000196577 0.0107168 0)
(-0.000193953 0.0104342 0)
(-0.00983501 0.0305392 0)
(-0.0101935 0.0295601 0)
(-0.000786922 0.0310034 0)
(-0.000485664 0.0332167 0)
(-0.00977886 0.0271001 0)
(-0.0101341 0.0259243 0)
(-0.0193297 0.119331 0)
(-0.00073383 0.0276053 0)
(-0.00070288 0.0270879 0)
(-0.000183024 0.00994692 0)
(-0.000180038 0.00966182 0)
(-0.000190204 0.0101011 0)
(-0.00806379 0.0633652 0)
(-0.0174814 0.132138 0)
(-0.0115092 0.139882 0)
(-0.000169704 0.00919731 0)
(-0.000172237 0.00944492 0)
(-0.000691088 0.0260615 0)
(-0.000662491 0.0255852 0)
(-0.000166286 0.00890536 0)
(-0.00864256 0.0568003 0)
(-0.00289502 0.119609 0)
(-0.000648558 0.0245344 0)
(-0.000622338 0.0241006 0)
(-0.000675769 0.0249602 0)
(-0.000634971 0.0251011 0)
(-0.000597043 0.0236571 0)
(-0.0006085 0.0246091 0)
(-0.000572629 0.0232039 0)
(-0.000156626 0.00846809 0)
(-0.000152886 0.00817447 0)
(-0.00058301 0.0241089 0)
(-0.000549082 0.0227421 0)
(-0.000537033 0.0218178 0)
(-0.000515414 0.0213952 0)
(-0.00632948 0.0705118 0)
(-0.00624531 0.067801 0)
(-0.00604895 0.0681798 0)
(-0.00594923 0.0653948 0)
(-0.00576198 0.0657486 0)
(-0.00564913 0.0628811 0)
(-0.00547581 0.0631914 0)
(-0.00899979 0.0483258 0)
(-0.00733518 0.107927 0)
(-0.0145544 0.101445 0)
(-0.00535292 0.0602744 0)
(-0.00518978 0.0605719 0)
(-0.000501832 0.0204522 0)
(-0.000482126 0.0200689 0)
(-0.000494541 0.0209646 0)
(-0.000463056 0.0196771 0)
(-0.00949737 0.0344514 0)
(-0.000143853 0.00776209 0)
(-0.000139898 0.00746924 0)
(-0.000449311 0.0187648 0)
(-0.000431992 0.018411 0)
(-0.000986203 0.034204 0)
(-0.00505738 0.0576189 0)
(-0.00490206 0.057916 0)
(-0.00520332 0.0573215 0)
(-0.000631119 0.023408 0)
(-0.00065673 0.0237789 0)
(-0.000474398 0.0205284 0)
(-0.000131417 0.00707788 0)
(-0.000127335 0.00679021 0)
(-0.000134629 0.00711959 0)
(-0.000417048 0.0174839 0)
(-0.00040143 0.0171674 0)
(-0.00475715 0.0548877 0)
(-0.00461214 0.0551986 0)
(-0.0014492 0.121928 0)
(-0.000610001 0.0222029 0)
(-0.000633753 0.0225143 0)
(-0.000119361 0.00641917 0)
(-0.000123093 0.00668775 0)
(-0.000114926 0.00612156 0)
(-0.000385422 0.0162277 0)
(-0.000371461 0.0159477 0)
(-0.00107914 0.0979376 0)
(-0.00125459 0.0970332 0)
(-0.00132344 0.0984329 0)
(-0.00149754 0.0974767 0)
(-0.00156832 0.0988548 0)
(-0.00174372 0.0978546 0)
(-0.00183004 0.0993866 0)
(-0.00199844 0.098155 0)
(-0.00212098 0.0995268 0)
(-0.00225466 0.0983156 0)
(-0.00238878 0.0996399 0)
(-0.0025137 0.0983963 0)
(-0.00237991 0.0969504 0)
(-0.00265943 0.0996738 0)
(-0.00277216 0.0983887 0)
(-0.00293196 0.0996184 0)
(-0.00302926 0.0982457 0)
(-0.00320265 0.0994633 0)
(-0.00310317 0.100879 0)
(-0.00328614 0.0980142 0)
(-0.00338264 0.100689 0)
(-0.00328541 0.102115 0)
(-0.00357336 0.101882 0)
(-0.00347671 0.103318 0)
(-0.00445491 0.0520843 0)
(-0.00432188 0.0524132 0)
(-0.0096876 0.116673 0)
(-0.018776 0.126152 0)
(-0.00809688 0.0745512 0)
(-0.000106439 0.00572067 0)
(-0.000102956 0.00547962 0)
(-0.000585109 0.0209186 0)
(-0.00060674 0.0211692 0)
(-0.000354533 0.0149982 0)
(-0.000342191 0.0147542 0)
(-0.000357827 0.0156559 0)
(-0.000330053 0.0144965 0)
(-0.0003671 0.0152286 0)
(-0.000344488 0.0153518 0)
(-0.000318127 0.0142258 0)
(-0.000302976 0.0133642 0)
(-0.00029242 0.0131269 0)
(-0.00666789 0.0954722 0)
(-0.000331446 0.0150357 0)
(-0.0179414 0.0778309 0)
(-0.01776 0.0786164 0)
(-0.0178593 0.0819932 0)
(-0.00377301 0.103043 0)
(-0.00367831 0.104488 0)
(-0.00131047 0.046204 0)
(-0.00202173 0.0583498 0)
(-0.000395265 0.0221959 0)
(-0.000419572 0.0314565 0)
(-0.00142347 0.0441677 0)
(-0.00385029 0.101569 0)
(-0.000744048 0.0580002 0)
(-0.00062335 0.0478315 0)
(-0.000564867 0.0430964 0)
(-0.00222557 0.0556958 0)
(-0.0105345 0.0494757 0)
(-0.00415144 0.0492254 0)
(-0.00403253 0.0495668 0)
(-0.00418712 0.0526678 0)
(-0.00391237 0.0498379 0)
(-0.00405339 0.0528566 0)
(-0.0037908 0.0500447 0)
(-0.00391993 0.052974 0)
(-0.00366774 0.0501689 0)
(-0.00378648 0.0530188 0)
(-0.00354431 0.0502185 0)
(-0.0034155 0.047299 0)
(-0.00330213 0.0473691 0)
(-0.00342247 0.0502376 0)
(-0.00319108 0.0474127 0)
(-0.00426819 0.0488073 0)
(-0.0100603 0.111898 0)
(-0.00374757 0.0466664 0)
(-0.00310422 0.096829 0)
(-0.00335646 0.0965118 0)
(-0.00316838 0.0953247 0)
(-0.00341598 0.0949428 0)
(-0.00322605 0.093751 0)
(-0.000161352 0.0119255 0)
(-0.000173645 0.0127703 0)
(-0.000167973 0.012169 0)
(-0.000155577 0.0113294 0)
(-0.000161823 0.0115569 0)
(-0.000174471 0.0123908 0)
(-0.000167921 0.0117628 0)
(-0.000155222 0.0109355 0)
(-0.000160938 0.0111271 0)
(-0.000180793 0.0125889 0)
(-0.000148193 0.0103055 0)
(-0.000153548 0.0104847 0)
(-0.000140766 0.00966847 0)
(-0.000145782 0.00983684 0)
(-0.00015869 0.010642 0)
(-0.000150564 0.00998318 0)
(-0.000135559 0.00947972 0)
(-0.00016357 0.0107756 0)
(-0.000155073 0.0101063 0)
(-9.56388e-05 0.00512582 0)
(-0.000142123 0.00932197 0)
(-0.000146288 0.00943621 0)
(-9.17366e-05 0.00487871 0)
(-9.7563e-05 0.00515336 0)
(-0.00305982 0.0444674 0)
(-0.00296083 0.0445468 0)
(-0.00308149 0.0474082 0)
(-0.0028627 0.044578 0)
(-0.0139518 0.0973291 0)
(-0.00934238 0.0247546 0)
(-0.0152127 0.081187 0)
(-0.0157642 0.0568759 0)
(-0.00595941 0.11754 0)
(-0.0176669 0.0825894 0)
(-0.0177596 0.0859413 0)
(-0.000276652 0.0122601 0)
(-0.000267426 0.0120557 0)
(-0.00153282 0.118796 0)
(-0.000556298 0.0195537 0)
(-0.000575839 0.0197518 0)
(-0.0179553 0.0854013 0)
(-0.0178478 0.0892502 0)
(-0.0176422 0.0896754 0)
(-0.0177217 0.0928657 0)
(-0.0175066 0.0931718 0)
(-0.0175754 0.0963919 0)
(-0.0173487 0.09642 0)
(-0.0173996 0.0997527 0)
(-0.0171655 0.0993842 0)
(-0.0172001 0.102755 0)
(-0.00596124 0.13931 0)
(-0.00297309 0.0473525 0)
(-0.00276499 0.0445597 0)
(-0.00398361 0.104168 0)
(-0.00389262 0.105621 0)
(-0.00264495 0.0417257 0)
(-0.00255834 0.0417494 0)
(-0.00266819 0.0445039 0)
(-0.00247196 0.0417249 0)
(-0.00257262 0.0444042 0)
(-0.00238617 0.0416561 0)
(-0.00247875 0.0442731 0)
(-0.00230176 0.0415582 0)
(-0.00220125 0.0388933 0)
(-0.00212639 0.038843 0)
(-0.00221879 0.0414298 0)
(-0.00205255 0.0387575 0)
(-0.01696 0.102171 0)
(-0.0169816 0.10543 0)
(-0.000168134 0.0108841 0)
(-8.52883e-05 0.00456745 0)
(-8.89057e-05 0.00479866 0)
(-0.000628894 0.021402 0)
(-0.000595766 0.0199323 0)
(-0.000651443 0.021615 0)
(-0.000615669 0.0200813 0)
(-0.000674663 0.0218173 0)
(-0.000635667 0.0202041 0)
(-0.00069867 0.0220049 0)
(-0.000133401 0.00865971 0)
(-0.000137252 0.00876672 0)
(-0.000655924 0.0203047 0)
(-0.000723037 0.0221646 0)
(-0.0021371 0.0412625 0)
(-0.00197942 0.0386312 0)
(-0.00189021 0.036113 0)
(-0.00182423 0.0360025 0)
(-0.00190733 0.0384724 0)
(-0.00175994 0.0358897 0)
(-0.0018366 0.038281 0)
(-0.00169707 0.03575 0)
(-0.00176745 0.0380565 0)
(-0.00163544 0.035577 0)
(-0.00155933 0.0332206 0)
(-0.00150516 0.0331027 0)
(-0.00157504 0.0353775 0)
(-0.00145193 0.0329564 0)
(-0.00151588 0.035151 0)
(-0.00139963 0.0327813 0)
(-8.09113e-05 0.00430082 0)
(-0.00133113 0.0305517 0)
(-0.00128537 0.0304274 0)
(-0.00134842 0.0325795 0)
(-0.00124029 0.0302752 0)
(-0.0034618 0.093333 0)
(-0.00327566 0.0921509 0)
(-0.00167481 0.0964759 0)
(-0.000676446 0.0203855 0)
(-0.000251152 0.0111858 0)
(-0.000243209 0.0110137 0)
(-0.000258259 0.0118367 0)
(-0.00023524 0.0108255 0)
(-0.000249135 0.0116024 0)
(-0.000227252 0.0106216 0)
(-0.00420939 0.105245 0)
(-0.000212997 0.00984478 0)
(-0.000206094 0.00967051 0)
(-0.00715075 0.119549 0)
(-0.00412053 0.106715 0)
(-0.0037862 0.107041 0)
(-0.000527087 0.132046 0)
(-0.00055107 0.131082 0)
(-0.00114497 0.131705 0)
(-0.00114957 0.130743 0)
(-0.00174173 0.131308 0)
(-0.0180473 0.0887419 0)
(-0.00242928 0.0388651 0)
(0.00637204 0.146697 0)
(0.00587104 0.146305 0)
(0.00476817 0.146646 0)
(0.00435444 0.146313 0)
(0.00323874 0.146599 0)
(0.00285258 0.14628 0)
(0.0016211 0.14654 0)
(0.0013262 0.146195 0)
(-0.000104921 0.146439 0)
(-0.000226761 0.146058 0)
(-0.00174988 0.146263 0)
(-0.00178456 0.14663 0)
(-0.00340901 0.146415 0)
(-0.00362818 0.146754 0)
(-0.00517607 0.146506 0)
(-0.00170911 0.145872 0)
(-0.00553548 0.146822 0)
(-0.00702059 0.146547 0)
(-0.00654095 0.146214 0)
(-0.00828394 0.146217 0)
(-0.00899934 0.146574 0)
(-0.0100324 0.146161 0)
(-0.00931549 0.145831 0)
(-0.0108863 0.14574 0)
(-0.0117037 0.146043 0)
(-0.0123365 0.145596 0)
(-0.0132233 0.145877 0)
(-0.0136352 0.145383 0)
(-0.0145502 0.145638 0)
(-0.0147671 0.145082 0)
(-0.0156702 0.145299 0)
(-0.0157143 0.14468 0)
(-0.0165791 0.144846 0)
(-0.016491 0.14416 0)
(-0.0172783 0.144242 0)
(0.002631 0.145919 0)
(0.00339239 0.146879 0)
(-0.0171114 0.143526 0)
(-0.0177947 0.143477 0)
(-0.0164493 0.143432 0)
(-0.013876 0.144845 0)
(-0.0101741 0.145399 0)
(-0.0167299 0.104701 0)
(-0.0167398 0.10783 0)
(-0.00129781 0.0323388 0)
(-0.00117327 0.0280867 0)
(-0.000524166 0.0181327 0)
(-0.000124438 0.0079981 0)
(-0.000128001 0.00809937 0)
(-0.000140785 0.00885082 0)
(-0.000131246 0.00817817 0)
(-0.00528001 0.0633337 0)
(-0.000587669 0.130118 0)
(-7.53132e-05 0.00402998 0)
(-7.07874e-05 0.00376018 0)
(-0.00172958 0.033389 0)
(-0.0176548 0.0999793 0)
(-0.0173024 0.0932705 0)
(-0.0164838 0.107015 0)
(-0.0164753 0.110028 0)
(-0.00444965 0.106284 0)
(-0.00451844 0.104759 0)
(-0.000240066 0.0113537 0)
(-0.00116269 0.129772 0)
(-0.000143959 0.00891068 0)
(-0.000134128 0.00823329 0)
(-0.000121559 0.00751058 0)
(-0.000124189 0.00756279 0)
(-0.0175598 0.142754 0)
(-0.0181705 0.142538 0)
(-0.0162238 0.109166 0)
(-0.0161865 0.112007 0)
(-0.0159409 0.111044 0)
(-0.0158729 0.113741 0)
(-0.00401151 0.108144 0)
(-0.00366567 0.108412 0)
(-0.00226217 0.100886 0)
(-0.000191562 0.00889518 0)
(-0.000185706 0.00875028 0)
(-0.0011341 0.0279882 0)
(-0.00106322 0.0257572 0)
(-0.00349564 0.091694 0)
(-0.00331726 0.0905312 0)
(-0.00310133 0.0909641 0)
(-0.00314956 0.0893478 0)
(-0.00294539 0.0897428 0)
(-0.00299072 0.0881409 0)
(-0.00279955 0.0885036 0)
(-0.00283781 0.0869002 0)
(-0.00265425 0.0872434 0)
(-0.00268946 0.0856826 0)
(-0.00251882 0.0859317 0)
(-0.00255592 0.0844402 0)
(-0.00239136 0.0845959 0)
(-0.00243463 0.0830875 0)
(-0.00226917 0.0832514 0)
(-0.002311 0.0817301 0)
(-0.00215075 0.0818965 0)
(-0.00219077 0.0803971 0)
(-0.0036836 0.0928378 0)
(-0.00203793 0.0805259 0)
(-0.00207836 0.0790458 0)
(-0.00249235 0.0814475 0)
(-0.00193075 0.0791414 0)
(-0.00197102 0.0776827 0)
(-0.00211053 0.0775268 0)
(-0.00200271 0.0761826 0)
(-0.00186944 0.0763088 0)
(-0.001901 0.074828 0)
(-0.00234106 0.086118 0)
(-0.00285125 0.0851605 0)
(-0.00177378 0.0749239 0)
(-0.00180467 0.0734624 0)
(-0.0019252 0.0733193 0)
(-0.00182909 0.0719718 0)
(-0.00171287 0.0720911 0)
(-0.00173718 0.0706259 0)
(-0.00162609 0.0707163 0)
(-0.00165059 0.0692766 0)
(-0.00154438 0.0693391 0)
(-0.00156782 0.0679127 0)
(-0.00146711 0.067952 0)
(-0.00148853 0.0665435 0)
(-0.00158617 0.0664572 0)
(-0.00150521 0.0651089 0)
(-0.00141357 0.0651835 0)
(-0.0014284 0.0637686 0)
(-0.00151555 0.0636388 0)
(-0.00143869 0.0623186 0)
(-0.00184952 0.0704539 0)
(-0.00135616 0.0624355 0)
(-0.00136652 0.0610074 0)
(-0.00144292 0.0608371 0)
(-0.00137148 0.0595535 0)
(-0.00129893 0.0596973 0)
(-0.00130423 0.0582722 0)
(-0.00123535 0.0583862 0)
(-0.00124072 0.0569925 0)
(-0.00117524 0.0570795 0)
(-0.0011806 0.0557165 0)
(-0.00111831 0.0557787 0)
(-0.00112359 0.054445 0)
(-0.00106443 0.0544835 0)
(-0.00106949 0.0531797 0)
(-0.000507097 0.0179674 0)
(-0.00402774 0.0557732 0)
(-0.000473763 0.0165381 0)
(-0.00178057 0.132252 0)
(-0.00237319 0.131786 0)
(-0.000111767 0.00684954 0)
(-0.000114177 0.00690039 0)
(-0.0156346 0.112651 0)
(-0.0155378 0.115257 0)