/*--------------------------------*- C++ -*----------------------------------*\
| =========                 |                                                 |
| \\      /  F ield         | OpenFOAM: The Open Source CFD Toolbox           |
|  \\    /   O peration     | Version:  v2012                                 |
|   \\  /    A nd           | Website:  www.openfoam.com                      |
|    \\/     M anipulation  |                                                 |
\*---------------------------------------------------------------------------*/
FoamFile
{
    version     2.0;
    format      ascii;
    class       surfaceVectorField;
    location    "300";
    object      Uf_0;
}
// * * * * * * * * * * * * * * * * * * * * * * * * * * * * * * * * * * * * * //

dimensions      [0 1 -1 0 0 0 0];


internalField   nonuniform List<vector> 
20537
(
(1.05528 -0.0222565 -5.75438e-24)
(1.05494 -0.0226134 -8.76921e-23)
(1.05604 -0.0229835 -3.49902e-23)
(0.473338 0.101438 -1.22499e-20)
(0.435473 0.0876594 2.58408e-21)
(0.462373 0.102357 -1.65112e-20)
(1.11551 -0.0131491 -3.7081e-21)
(1.11494 -0.0136869 8.45847e-22)
(1.11564 -0.0141033 -1.74342e-21)
(1.05316 -0.0221733 8.24711e-23)
(1.05421 -0.0224548 4.87645e-22)
(1.05351 -0.0225711 6.12376e-23)
(1.12431 -0.00281715 -7.25098e-22)
(1.12363 -0.00385055 -6.95222e-22)
(1.12291 -0.00268469 -1.15813e-20)
(1.07954 -0.0203395 -6.87615e-22)
(1.07524 -0.0188083 -6.8194e-22)
(1.07407 -0.0222368 -1.74209e-21)
(1.04359 0.00886401 2.21924e-21)
(1.04448 0.00900894 -1.6017e-21)
(1.04378 0.00942636 1.44434e-21)
(1.10634 -0.00829413 3.4142e-21)
(1.10594 -0.00749501 3.40282e-21)
(1.10727 -0.00773938 -8.27852e-21)
(1.00582 -0.011038 8.30544e-23)
(1.00586 -0.011528 4.26557e-23)
(1.00525 -0.0110238 -3.00344e-22)
(1.11138 -0.0240469 -6.11967e-21)
(1.11063 -0.0241663 -3.24651e-22)
(1.11114 -0.0230923 -3.19696e-21)
(0.985731 -0.0269758 0)
(0.981752 -0.0251083 0)
(0.988611 -0.0228622 -1.16738e-22)
(0.259485 -0.00491984 -3.86281e-22)
(0.246243 -0.00069035 3.59568e-21)
(0.235793 0.00440686 1.33264e-21)
(0.60109 -0.0265542 -4.21975e-21)
(0.641095 -0.02507 8.72352e-21)
(0.609577 -0.0255775 1.5362e-20)
(0.0907008 0.0182472 2.78398e-20)
(0.113879 0.0201386 -1.79682e-20)
(0.0493172 0.00601176 4.92506e-21)
(1.03001 0.000679901 -7.59802e-22)
(1.02979 0.000656282 -5.58292e-22)
(1.03 0.000876961 -1.02575e-22)
(1.09022 -0.0129399 -8.81733e-22)
(1.09085 -0.0124269 -2.79762e-21)
(1.09132 -0.0134051 -6.57279e-22)
(1.08144 -0.000623044 1.96493e-21)
(1.08039 -0.00105115 2.05881e-21)
(1.0804 -0.000206263 -1.42753e-21)
(1.07547 -0.0223775 4.77086e-22)
(1.07525 -0.0215079 1.54311e-22)
(1.07657 -0.0221803 -5.34007e-22)
(0.737865 -0.0275565 5.28536e-21)
(0.735336 -0.0277989 -2.4045e-21)
(0.794069 -0.0256764 -2.70732e-21)
(1.00578 -0.0105697 4.09731e-23)
(1.00639 -0.0110719 6.33071e-23)
(1.05207 -0.0218917 1.84563e-23)
(1.0528 -0.0216703 4.28782e-22)
(1.11558 -0.0121322 -1.65087e-20)
(1.11655 -0.0126191 1.18252e-20)
(0.985512 4.4519e-05 0)
(0.984377 -0.000126655 0)
(0.983425 -0.000303862 0)
(1.00009 -0.000878342 2.12314e-23)
(0.999338 -0.000434043 9.51692e-23)
(0.999758 -0.000887821 5.54299e-23)
(0.986785 -8.62843e-05 2.03305e-23)
(0.989059 0.000144224 0)
(1.10565 -0.00905692 -3.42946e-22)
(1.10701 -0.00931014 3.9172e-21)
(1.08017 0.0109139 -7.15399e-21)
(1.07902 0.0110615 0)
(1.07941 0.0102711 0)
(0.0040829 -0.051889 -1.34532e-22)
(0.00147739 -0.0532672 -2.21542e-20)
(1.05476 -0.0217267 3.52617e-23)
(1.05588 -0.0220773 1.47475e-23)
(1.06995 -0.0140226 4.95378e-22)
(1.07069 -0.0137041 1.34522e-21)
(1.07091 -0.0144849 -1.74754e-22)
(1.08426 -0.0230422 -2.30982e-22)
(1.08576 -0.0185176 0)
(1.08243 -0.00138799 1.25665e-21)
(1.08262 -0.000379835 -2.41938e-23)
(1.11385 -0.013508 2.92304e-21)
(1.11429 -0.014487 -3.05952e-22)
(1.00506 -0.026118 5.74661e-23)
(1.00233 -0.024223 3.83272e-22)
(0.985622 -0.0224585 0)
(1.00049 -0.000815953 2.19498e-23)
(1.00114 -0.00136293 -2.72681e-23)
(1.14378 0.0250784 0)
(1.14354 0.0256149 6.68372e-21)
(1.11438 0.0219399 -8.08695e-21)
(0.792511 0.00224206 7.85254e-21)
(0.837634 0.00311387 7.7896e-22)
(0.841803 0.00392563 6.33811e-21)
(0.875563 -0.0275045 -7.09871e-21)
(0.854053 -0.0294202 -4.63863e-21)
(0.926738 -0.0238834 -1.01438e-21)
(1.10859 -0.0247889 0)
(1.11009 -0.0239566 0)
(1.01576 -0.0300043 1.55982e-22)
(1.00648 -0.0291053 1.00047e-21)
(1.03844 -0.0116533 5.39077e-22)
(1.03887 -0.0121238 -4.34159e-22)
(1.03933 -0.0118243 3.92788e-22)
(0.980639 -0.000131426 0)
(0.980686 -0.000255062 0)
(0.980697 -0.000123606 0)
(-0.000253854 0.0526203 -8.3735e-21)
(0.00302586 0.0457878 -8.09495e-21)
(0.000739174 0.0515822 1.16811e-20)
(0.944225 -0.0158649 -2.09572e-22)
(0.949546 -0.0108081 2.43977e-23)
(0.962677 -0.0162476 -1.01998e-21)
(0.938578 -0.0215895 0)
(0.920994 -0.0140667 0)
(0.0606887 -0.0364983 -9.67044e-21)
(0.0827703 -0.0388361 1.64191e-21)
(0.087048 -0.0399191 -3.31568e-22)
(0.866874 0.00358458 -9.29231e-22)
(0.883749 -0.000938161 1.85001e-22)
(0.861485 0.00190175 3.50524e-22)
(0.977517 -0.0541204 1.36686e-21)
(0.954629 -0.0650483 2.57726e-21)
(0.940257 -0.0540705 -2.65026e-21)
(1.08128 0.0107201 -2.32779e-21)
(1.08089 0.0115657 1.55702e-22)
(1.00716 -0.0296435 2.14643e-22)
(1.00696 -0.0287739 -2.56665e-22)
(1.00792 -0.0294566 -1.24843e-22)
(1.12607 0.0097269 -9.11299e-21)
(1.12734 0.00995388 -1.65301e-20)
(1.12615 0.0108158 -2.23686e-21)
(1.1385 0.00289851 -2.0906e-20)
(1.13862 0.00386378 -1.59387e-20)
(1.13895 0.00426284 -3.48982e-21)
(-0.0188869 5.60118e-05 0)
(-0.0151679 0.00615021 0)
(-0.0135566 0.000113413 0)
(1.03012 0.000232801 8.23057e-22)
(1.0299 0.000347087 5.2738e-22)
(1.03037 0.000396596 3.05293e-22)
(1.02493 -0.00110374 -2.83186e-22)
(1.02497 -0.00103695 0)
(1.02592 -0.00129266 -4.21133e-22)
(0.980589 -2.82004e-06 -1.36351e-23)
(0.980563 -0.000136634 8.57657e-24)
(0.990237 -0.000885399 -2.10288e-22)
(0.990583 -0.00114348 4.05243e-22)
(0.990549 -0.000747378 -9.1272e-23)
(-0.0363571 -0.0174747 -1.62716e-21)
(-0.0400899 -0.0169598 -8.98082e-21)
(-0.0367261 -0.0207542 -8.81352e-21)
(1.06889 -0.0134195 -9.77894e-22)
(1.06903 -0.0142475 9.60493e-24)
(1.04837 0.00710504 5.82959e-22)
(1.04739 0.00702819 -1.08935e-21)
(1.04791 0.00763558 -1.67415e-21)
(0.816664 -0.0292363 1.5811e-22)
(0.887785 -0.0258835 -4.68792e-21)
(0.246241 -0.039608 -6.54263e-21)
(0.244638 -0.0400308 -8.11268e-22)
(0.215458 -0.0408252 2.94074e-22)
(1.0903 -0.0396407 0)
(1.0888 -0.0430014 0)
(1.08668 -0.0394978 0)
(1.12746 -0.00239232 1.00977e-20)
(1.12679 -0.00331744 -7.45326e-21)
(1.12803 -0.00346257 -9.5039e-21)
(0.833144 -0.0132839 -1.24146e-21)
(0.886118 -0.0108714 -9.27968e-21)
(0.930997 -0.0154789 -2.04523e-20)
(1.05758 -0.0251102 1.81717e-22)
(1.05675 -0.0247326 -2.55423e-22)
(1.05729 -0.0252823 4.03003e-23)
(0.747604 -0.000619456 -8.46259e-21)
(0.754398 0.000132148 6.27915e-21)
(0.841735 0.00664606 4.22409e-22)
(0.853437 0.00610079 1.29284e-21)
(1.10318 0.0111157 -1.88387e-22)
(1.10302 0.0101232 -6.66819e-21)
(1.1019 0.0107838 1.87193e-23)
(1.07431 -0.022503 1.20391e-22)
(1.07554 -0.0233422 4.27258e-22)
(0.16495 0.0091284 3.92617e-21)
(0.158065 0.00956203 2.12727e-20)
(0.142847 0.0112621 8.52597e-21)
(0.657743 -0.0046521 9.97699e-21)
(0.65576 -0.00486264 1.06072e-20)
(0.703702 -0.00294048 -1.94146e-22)
(0.537724 0.118153 -1.89355e-20)
(0.49889 0.104575 -6.79802e-21)
(1.03009 0.000506067 -7.17892e-22)
(1.02965 6.84816e-05 2.77351e-22)
(1.02501 -0.00199514 3.00055e-22)
(1.02536 -0.00214762 2.7194e-22)
(1.02495 -0.00237359 -3.94635e-23)
(1.00912 -0.0158818 -2.74455e-22)
(1.00866 -0.0158685 1.28013e-22)
(1.00853 -0.0153588 0)
(1.11571 -0.0115568 -2.06e-20)
(1.11488 -0.0119433 -7.22847e-21)
(0.231575 0.0110751 7.40545e-21)
(0.246899 0.00915364 -2.57499e-20)
(0.233781 0.0117293 -1.44979e-20)
(1.11122 0.00194703 0)
(1.11243 0.00197359 0)
(1.11201 0.00102281 0)
(0.153504 0.00833018 5.7466e-21)
(0.135157 0.0080469 -4.79043e-21)
(1.05629 0.00615269 -1.45058e-21)
(1.05562 0.00565089 -2.29123e-21)
(1.05507 0.00627398 1.45205e-21)
(0.895224 -0.0271713 -4.14378e-21)
(0.898916 -0.023486 -1.45535e-22)
(0.899163 -0.0264768 -4.18081e-22)
(1.03778 -0.000290083 -3.02263e-22)
(1.03843 -0.000393764 -1.16057e-21)
(1.03783 -0.000610452 -2.61767e-21)
(0.0691242 -0.0340968 -2.35563e-20)
(0.0924853 -0.0368803 -3.76326e-21)
(0.0566011 -0.0278039 4.77705e-21)
(1.09102 -0.0369023 0)
(1.09489 -0.0398302 0)
(0.27151 -0.0102723 1.61828e-21)
(0.291157 -0.0129529 -2.12207e-21)
(1.06944 -0.0293223 2.70387e-22)
(1.071 -0.0275946 8.25886e-22)
(1.06793 -0.0276278 -1.45705e-21)
(0.403444 -0.0461755 -1.2375e-22)
(0.447911 -0.0484986 7.42323e-23)
(0.436764 -0.0520684 2.75303e-21)
(1.08393 0.00522165 -2.20188e-21)
(1.08398 0.00442872 -1.90815e-21)
(1.08514 0.00492307 -1.9827e-21)
(0.990479 -0.0100663 8.81266e-23)
(0.99041 -0.00978134 6.28827e-23)
(0.990111 -0.00975552 1.01305e-22)
(1.14424 0.0241352 0)
(1.14487 0.0249567 0)
(1.04275 -0.0374803 -1.37558e-22)
(1.04362 -0.0387087 -2.79898e-22)
(1.04211 -0.0378539 -1.54982e-22)
(0.850626 0.00511373 -4.53377e-22)
(1.0906 0.00535246 -1.3163e-22)
(1.09112 0.00486267 8.25794e-21)
(1.09161 0.00562071 7.01731e-21)
(1.0829 0.00560496 -2.61238e-21)
(1.08407 0.00626415 0)
(0.99213 -0.00047143 1.05431e-21)
(0.992377 -0.000438074 5.64772e-22)
(0.991828 -0.00070067 1.0031e-22)
(1.12554 -0.00322409 -8.29785e-21)
(1.12511 -0.00195454 -4.85299e-21)
(0.362972 -0.0274279 -7.25661e-21)
(0.344204 -0.0277208 -4.05266e-21)
(0.349823 -0.026545 -3.53627e-21)
(1.00755 -0.0304546 3.19688e-22)
(1.00651 -0.0298239 -1.77854e-22)
(0.993605 -0.000209769 -2.92805e-22)
(0.991923 -0.000410617 -1.60646e-22)
(-0.0332525 -0.0134925 0)
(-0.0125974 -0.00767911 0)
(-0.0241039 -0.0109501 0)
(1.11583 0.00632461 4.98758e-21)
(1.11609 0.00735204 1.22861e-21)
(1.11476 0.00697442 1.02177e-20)
(1.05374 -0.015973 -1.692e-22)
(1.05485 -0.0161613 2.092e-22)
(1.05444 -0.0166153 2.98669e-24)
(1.07672 0.0198406 -3.15404e-21)
(1.07763 0.0202838 2.11012e-21)
(0.985495 0.000138839 -1.46391e-23)
(0.983114 0.000140961 0)
(0.985071 0.000151932 0)
(1.07128 -0.0338919 -7.04357e-22)
(1.07123 -0.0368602 4.87676e-23)
(1.06833 -0.0351583 3.56804e-22)
(1.11875 0.00898943 5.72947e-21)
(1.11848 0.00798182 1.01555e-20)
(1.11983 0.00823847 5.5023e-21)
(0.980844 0.000727349 2.31879e-24)
(0.980828 0.000589667 1.29114e-23)
(0.98092 0.000661762 -1.27991e-23)
(0.577098 -0.00552434 -1.77437e-23)
(0.539112 -0.00631709 0)
(1.07568 -0.0152218 0)
(1.07077 -0.0180405 5.48674e-22)
(0.995894 -0.000552458 4.89054e-22)
(0.996308 -0.000219986 -1.18834e-22)
(0.995588 -0.000489849 -2.01653e-22)
(0.990531 -0.0103587 -4.93301e-23)
(0.990836 -0.0103777 -1.23309e-22)
(1.04195 -0.0363879 1.71746e-22)
(1.04346 -0.036912 2.70494e-22)
(0.998944 -0.00020981 9.69666e-23)
(0.998755 -0.000200726 -1.6142e-22)
(0.996207 -0.000847693 2.51336e-22)
(0.996283 -0.000513446 2.45946e-22)
(0.79712 0.0738567 -2.85151e-21)
(0.763187 0.0740087 5.59267e-21)
(0.384219 -0.0270951 -1.01239e-20)
(0.379715 -0.0282728 2.50642e-21)
(0.98113 -2.01677e-06 2.39396e-23)
(0.981098 -4.18729e-05 2.17485e-23)
(0.981072 3.72799e-05 3.83225e-23)
(1.01265 -0.00118044 -2.56707e-23)
(1.01212 -0.00113068 -4.71698e-22)
(1.0097 -0.000662105 -6.56072e-23)
(1.02386 -0.0011388 4.34335e-22)
(1.02235 -0.00107257 -1.76232e-22)
(1.02191 -0.000879586 -1.47489e-22)
(-0.00249493 0.0533437 1.31755e-20)
(-0.00241033 0.0647717 -5.60593e-21)
(1.07713 0.0188508 -6.29415e-21)
(1.07577 0.0191968 -2.97461e-21)
(0.595257 -0.0275794 -8.44994e-21)
(0.563869 -0.0279457 -1.37663e-20)
(0.799767 0.00587752 1.05294e-21)
(0.995403 -0.0473837 1.0636e-21)
(1.00528 -0.0562184 0)
(0.982909 -0.00818415 -4.76914e-23)
(0.982655 -0.00780569 -2.47154e-22)
(0.982594 -0.00824739 8.39887e-24)
(1.00778 -0.0394358 -5.25522e-21)
(0.986524 -0.0385273 1.05422e-21)
(1.11328 0.00389354 8.67181e-22)
(1.11372 0.00464878 -9.35493e-21)
(1.11442 0.00354037 0)
(1.05118 -0.0216099 1.14534e-23)
(1.0515 -0.0220746 8.04305e-23)
(1.10969 -0.0123634 -3.11946e-21)
(1.1233 -0.0110456 -2.60552e-21)
(1.10083 -0.0126191 0)
(1.03763 -0.0114817 1.90636e-22)
(1.03803 -0.0112055 -7.67709e-22)
(1.01196 -0.00683124 9.12775e-23)
(1.01254 -0.00719747 1.34629e-22)
(1.01248 -0.00669828 1.00783e-22)
(0.170781 0.00859778 -2.88856e-20)
(0.180591 0.00680766 -1.78707e-20)
(1.03766 4.91675e-05 -3.20249e-22)
(1.03708 -0.000182482 8.76442e-22)
(0.783636 0.073632 -1.53734e-20)
(1.01252 -0.00285817 -5.54186e-23)
(1.012 -0.00278131 -1.80083e-22)
(1.0119 -0.00231048 -6.63629e-23)
(0.981148 3.8847e-05 -4.34288e-24)
(0.981153 -3.35196e-05 2.52853e-23)
(0.664172 -0.00492535 1.36687e-21)
(0.67111 -0.00547003 1.24346e-21)
(0.712684 -0.00424732 -7.35735e-21)
(0.036032 -0.0252924 -9.40211e-21)
(0.0232476 -0.0224657 -9.39147e-21)
(0.0296881 -0.0201792 1.57074e-22)
(0.300165 0.0658655 -3.81103e-22)
(0.40486 0.0771079 1.59173e-22)
(0.305909 0.0687914 -4.18984e-22)
(-0.0398825 -0.0162889 1.19929e-20)
(-0.0427825 -0.0192116 0)
(1.02511 -0.00133204 -7.66275e-22)
(1.0232 -0.000638289 -1.2054e-23)
(1.01723 -0.0257969 7.03278e-22)
(1.01808 -0.0265306 1.98991e-22)
(1.01737 -0.0265453 1.81655e-22)
(0.98073 -0.00261867 -1.17618e-23)
(0.980912 -0.0026895 -5.43917e-24)
(0.980815 -0.00288327 -4.86315e-24)
(1.07078 -0.00378745 -3.49975e-21)
(1.07193 -0.00380004 -2.74457e-21)
(1.07078 -0.0031102 -3.29166e-21)
(0.932069 -0.00501358 1.15287e-21)
(0.953836 -0.00698803 -2.46094e-21)
(0.970847 0.00350047 -7.28895e-24)
(0.971209 0.00410829 -5.99716e-24)
(0.971767 0.0033508 -5.07692e-22)
(1.07552 -0.015578 1.54727e-21)
(1.11407 -0.0120346 -5.43907e-21)
(1.0426 0.00867642 9.30383e-22)
(1.04328 0.00828853 -1.0424e-21)
(0.95269 -0.0279359 1.39378e-22)
(0.934472 -0.0279428 2.24847e-22)
(1.12699 0.0254639 -1.07149e-20)
(1.12802 0.025015 -4.2013e-23)
(1.02253 -0.00128614 2.16052e-22)
(1.02274 -0.00133383 -1.91726e-22)
(1.02373 -0.00146344 -4.64581e-22)
(0.0509065 0.0128309 1.63408e-20)
(0.137317 0.0251418 8.01279e-21)
(0.990051 -0.000752585 -2.81894e-23)
(0.990038 -0.00102676 -8.89588e-23)
(1.07038 0.0046264 0)
(1.07089 0.00515967 0)
(1.06977 0.00521082 0)
(1.07088 -0.00458938 2.9231e-21)
(1.06963 -0.00394131 3.11716e-21)
(1.02429 -0.0140056 1.11078e-22)
(1.02355 -0.0137367 1.80322e-23)
(1.02388 -0.0142703 7.35681e-23)
(1.06698 -0.011357 9.39705e-22)
(1.06606 -0.010892 -4.40301e-22)
(1.067 -0.0107298 0)
(1.12894 0.00119097 0)
(1.13803 0.00196218 6.55959e-21)
(1.12481 0.00942133 -7.16427e-23)
(1.12592 0.00855752 -7.15236e-21)
(0.979736 0.00280702 0)
(0.979953 0.00273982 0)
(0.979896 0.00303577 0)
(1.09157 0.0121833 0)
(1.09221 0.0118118 0)
(1.09252 0.0126287 -1.17478e-22)
(-0.03246 -0.0188315 1.25023e-20)
(-0.0347157 -0.0141431 0)
(1.01144 -0.00647276 0)
(1.01151 -0.00696369 0)
(1.07983 -0.0156781 4.49126e-22)
(1.08009 -0.0149988 2.33981e-21)
(1.07895 -0.0150136 -6.57307e-22)
(0.98076 -0.00152187 1.27726e-23)
(0.980807 -0.00173274 0)
(0.980888 -0.00163561 1.76746e-23)
(0.970435 0.00272531 0)
(0.969853 0.0037107 5.12797e-24)
(1.10439 0.0114218 -8.76318e-23)
(1.1033 0.012028 -1.29908e-23)
(1.0509 -0.0210605 6.20565e-24)
(1.05025 -0.0213473 -6.68052e-24)
(0.254718 -0.0368116 9.76736e-21)
(0.233505 -0.0383561 1.76708e-20)
(0.258174 -0.0362661 -1.21121e-20)
(0.212332 0.0137512 1.79624e-20)
(0.228486 0.0108056 1.53851e-20)
(0.996212 -0.00469454 8.51371e-24)
(0.996598 -0.00496749 -2.85642e-22)
(0.996245 -0.00504867 -1.38693e-22)
(1.02506 -0.0142863 8.72082e-23)
(1.02466 -0.0137588 -1.5204e-23)
(0.226273 0.0518167 -6.81177e-21)
(0.30953 0.0632617 1.34623e-21)
(1.01091 -0.00610297 -4.8516e-23)
(1.01137 -0.00597475 -3.39912e-23)
(0.925924 -0.0717141 5.59232e-21)
(0.973984 -0.0747187 2.12226e-21)
(1.11274 0.0028133 9.18277e-22)
(1.11191 0.00394625 -6.55546e-21)
(1.02071 -0.0264098 -6.11376e-22)
(1.02133 -0.0265385 4.65193e-22)
(1.02157 -0.0272409 3.46797e-22)
(0.692289 -0.0266604 -1.15493e-20)
(0.749474 -0.0269608 -1.04901e-21)
(0.980732 0.000857301 -2.32965e-23)
(0.980752 0.00101887 -8.89028e-24)
(0.980667 0.000934135 -2.95742e-24)
(1.0844 -0.00165944 4.70114e-21)
(1.08337 -0.00193465 -1.72106e-21)
(1.08433 -0.00249873 -2.03837e-21)
(0.618835 -0.00568994 -9.12307e-21)
(1.03676 0.000454397 1.31116e-21)
(1.03614 0.000538914 -6.43157e-22)
(1.03631 0.000240579 -3.00929e-22)
(1.11713 -0.0131782 3.76225e-21)
(1.11724 -0.0123188 -2.94956e-21)
(0.981432 0.000800606 1.08566e-23)
(0.981188 0.000668176 -1.58547e-23)
(0.981462 0.000797727 -8.394e-26)
(0.987103 -5.94461e-05 -5.20928e-23)
(0.986414 -0.000204999 -3.23382e-23)
(0.98599 -0.000500631 5.17723e-22)
(1.05839 -0.0254812 2.40621e-22)
(1.05788 -0.0248631 3.4283e-22)
(1.02485 -0.00162237 1.78594e-22)
(1.02501 -0.00143042 5.2535e-22)
(1.12473 -0.00593641 -1.30288e-20)
(1.12404 -0.00676947 3.90957e-22)
(1.12514 -0.00704696 -5.91973e-21)
(1.09625 -0.0316805 7.6739e-22)
(1.09548 -0.0336412 6.69938e-22)
(1.09839 -0.0314507 1.86383e-21)
(0.874521 0.00459074 -6.07538e-22)
(-0.0218759 -0.00607945 0)
(-0.0239557 -0.000900236 0)
(0.99059 -0.0106171 0)
(0.990951 -0.0109199 -3.92461e-23)
(0.99066 -0.0108906 0)
(1.10253 0.00639362 -2.49536e-22)
(1.10258 0.00734112 4.59087e-21)
(1.10144 0.00699538 1.2677e-21)
(0.246641 -0.0391721 1.3135e-21)
(0.277735 -0.0381994 -6.42351e-21)
(1.06887 0.00367199 -4.13072e-23)
(1.06964 0.00409748 1.35795e-22)
(1.06839 0.00421821 1.45368e-22)
(1.01635 -0.0251248 5.53907e-22)
(1.01704 -0.0250838 1.90549e-22)
(1.00943 -0.0427558 -8.56914e-22)
(1.01521 -0.0446515 1.2685e-21)
(1.01798 -0.0416996 5.11642e-23)
(1.01998 -0.0263987 -1.11758e-21)
(1.01977 -0.0256298 -5.75129e-22)
(1.00958 -0.0158874 3.80158e-23)
(1.00974 -0.01641 -5.66555e-22)
(0.98315 -0.00856288 -5.47589e-23)
(0.983216 -0.00812548 -1.19137e-23)
(0.113916 -0.0447693 -1.29169e-20)
(0.138456 -0.0455664 7.69264e-21)
(0.142653 -0.0446138 -1.29865e-20)
(1.00931 -0.000416008 1.01137e-22)
(1.01309 -0.000711021 3.18377e-22)
(1.00832 -0.00046378 -1.18359e-21)
(1.03685 -0.00432256 4.73628e-22)
(1.03623 -0.00425821 8.48049e-24)
(1.0368 -0.00461337 1.29981e-22)
(1.10137 -0.0271071 2.02415e-21)
(1.09993 -0.0263965 -2.18371e-21)
(1.10107 -0.0256894 4.449e-21)
(1.03723 0.000715987 1.28346e-21)
(1.03742 0.000392075 1.96823e-23)
(0.163114 -0.0189975 2.93549e-21)
(0.131913 -0.0177111 2.76771e-21)
(0.146121 -0.0159165 -7.51609e-21)
(1.08247 0.000941509 -3.28253e-22)
(1.08123 0.00111287 -2.15541e-21)
(1.08209 0.00185236 4.36148e-21)
(0.260993 0.00407004 -6.89346e-23)
(0.246946 0.0057238 -1.48319e-20)
(0.260023 0.00392007 2.06847e-21)
(0.980615 0.00195691 0)
(0.980499 0.00207328 0)
(0.980459 0.00181594 3.59999e-24)
(0.434814 -0.00842407 -3.97716e-21)
(0.40966 -0.00805133 -4.85137e-23)
(0.416736 -0.00784495 5.53071e-21)
(1.053 -0.0154161 -4.7682e-25)
(1.05266 -0.0158341 1.92113e-22)
(0.950928 -0.0370749 -1.03365e-22)
(0.972273 -0.0428485 -5.94802e-22)
(0.944246 -0.0418056 -6.84957e-24)
(0.980987 0.00134269 -4.86113e-25)
(0.980936 0.00116326 6.18186e-24)
(0.981057 0.00123717 2.61372e-23)
(0.980647 -0.00212928 -3.13088e-23)
(0.980486 -0.00200996 7.04873e-23)
(0.980615 -0.00189687 4.74045e-23)
(0.980562 -0.0239696 -6.92899e-22)
(0.982948 -0.0257672 1.84029e-23)
(0.983494 -0.0224587 6.06113e-23)
(1.09455 -0.0330939 -1.97929e-22)
(1.09161 -0.0340853 0)
(1.09124 -0.0310445 0)
(0.0369603 -0.0311942 -1.20389e-20)
(0.0420917 -0.0348273 -1.20434e-20)
(1.03152 0.00107384 4.28604e-22)
(1.03114 0.00104053 4.52144e-22)
(1.03131 0.000906562 8.90774e-22)
(0.263243 0.00410699 -4.15224e-21)
(0.276131 0.00252006 5.78255e-21)
(1.08282 0.000340708 -1.86506e-21)
(1.08358 0.000987258 -1.75729e-22)
(1.05742 0.00611102 -1.39712e-21)
(1.05681 0.00675343 -2.85746e-21)
(0.449398 -0.0169844 9.44186e-21)
(0.430771 -0.0171881 -1.52619e-21)
(0.430482 -0.0163109 8.98234e-21)
(1.13666 -0.00310318 -5.36158e-21)
(1.13482 -0.00398366 -6.94246e-22)
(1.13413 -0.00316072 -4.33432e-21)
(0.370486 -0.00509328 7.54802e-21)
(0.351486 -0.00424351 -1.67081e-21)
(0.351431 -0.00464938 2.03928e-20)
(0.987014 -0.000205403 2.62756e-22)
(0.986779 -0.000149901 -2.0585e-24)
(0.990223 -5.90814e-05 1.45911e-22)
(1.0944 0.00473722 3.62571e-21)
(1.0958 0.00485614 0)
(1.09531 0.00383664 0)
(0.985969 0.000109359 -3.78655e-22)
(0.989121 0.000131118 -1.42732e-23)
(-0.0334461 0.00503361 4.83867e-21)
(-0.0311015 0.00889012 -5.30046e-21)
(-0.0303196 0.00785527 -1.18583e-20)
(0.981034 0.00151596 8.01098e-24)
(0.980913 0.00143843 4.68083e-24)
(1.10509 -0.00995969 -6.22336e-21)
(1.1043 -0.00901746 -7.69873e-21)
(0.946831 0.0029258 -2.89294e-21)
(0.955256 0.00147496 -1.46313e-21)
(0.871059 0.0103083 7.79508e-23)
(0.996208 -0.00434201 1.14043e-22)
(0.995827 -0.00443024 2.89971e-22)
(0.990243 -0.0102906 0)
(1.12416 0.0135476 5.7548e-21)
(1.12408 0.0123978 -6.95292e-21)
(1.12299 0.0130079 -8.60062e-21)
(1.08766 -0.0193652 -4.84997e-23)
(1.08658 -0.0196113 -1.43683e-22)
(1.08726 -0.0202484 5.98332e-23)
(0.193904 -0.0190729 0)
(0.179555 -0.0223161 1.1032e-20)
(0.754062 -0.00683924 6.9567e-21)
(0.792931 -0.0146017 -2.98448e-21)
(0.980686 -0.00235743 5.05636e-24)
(0.980557 -0.00251602 2.00116e-23)
(1.03691 -0.00404471 0)
(1.03751 -0.00438699 0)
(1.08102 -0.0271021 -1.07502e-21)
(1.08721 -0.026915 -8.97152e-23)
(1.00114 -0.0325775 -4.86359e-22)
(1.00256 -0.0330035 2.24221e-22)
(1.00184 -0.031376 2.20754e-22)
(0.977552 0.00327392 4.37926e-25)
(0.977904 0.00314121 0)
(0.977572 0.00282033 -4.6886e-24)
(1.10282 -0.0276035 0)
(1.10162 -0.0285327 0)
(0.981475 0.000262407 0)
(0.981645 0.000208592 0)
(0.329717 -0.00285276 0)
(0.313963 -0.00159352 -6.70778e-21)
(0.326728 -0.00258965 -8.20497e-21)
(1.11563 0.0054097 7.65041e-22)
(1.11691 0.005667 4.80333e-21)
(0.960143 -0.0293249 -1.36299e-22)
(0.96301 -0.0259812 1.72232e-21)
(0.930075 -0.0230463 2.34404e-23)
(1.07094 -0.00519289 2.97074e-22)
(1.07097 -0.00585452 -3.10961e-21)
(1.06985 -0.00530088 1.33836e-22)
(1.08155 -0.00711392 -1.10644e-21)
(1.08044 -0.00653039 5.22229e-22)
(1.08077 -0.00743681 1.18474e-21)
(1.03325 -0.0325548 -2.81583e-22)
(1.03409 -0.0328081 6.28964e-22)
(1.03322 -0.0319923 -2.19546e-22)
(0.999803 -0.0319981 -2.35386e-22)
(1.00084 -0.0340018 -1.76268e-22)
(1.05694 -0.0012455 0)
(1.05789 -0.00139498 3.52612e-22)
(1.05712 -0.00175187 1.56223e-21)
(1.07204 -0.00510793 1.53577e-21)
(1.11722 0.014882 0)
(1.11851 0.0153389 0)
(1.11812 0.0139864 -7.8541e-21)
(1.03712 -0.0733194 3.86316e-21)
(1.0244 -0.078808 3.31621e-22)
(1.05133 -0.0758714 1.9463e-22)
(1.09408 -0.0317666 -1.27363e-22)
(1.095 -0.0298293 -2.19924e-21)
(0.630797 -0.0063789 7.73491e-21)
(0.673829 -0.00535359 -4.84609e-21)
(0.245664 0.000962223 -2.06815e-20)
(0.200587 0.0109525 -1.33876e-20)
(0.187165 0.00445476 -1.65645e-20)
(1.03374 0.00374536 -5.051e-22)
(1.03313 0.00359766 -9.44637e-23)
(1.03354 0.00339848 -7.62272e-22)
(0.980805 -0.0022289 0)
(1.07311 -0.022487 -3.0323e-22)
(1.0728 -0.023342 0)
(1.0716 -0.022463 -7.96531e-22)
(0.87441 0.0393929 3.81203e-21)
(0.911566 0.0335057 -9.21111e-22)
(0.854658 0.0428525 3.78762e-21)
(0.983204 -0.00589325 -2.937e-23)
(0.983011 -0.00559614 -4.64651e-23)
(0.982921 -0.00581243 5.98454e-23)
(0.645439 -0.031237 -7.05988e-21)
(0.65097 -0.0309861 -7.71785e-21)
(0.604751 -0.031014 -5.62642e-21)
(1.0694 0.00303736 1.53784e-21)
(1.06835 0.00307604 -1.70343e-21)
(1.05676 -0.000732727 2.50361e-21)
(1.05599 -0.0010878 0)
(1.09011 0.00623381 -1.78676e-20)
(1.08952 0.00542899 -5.91518e-21)
(0.469457 -0.0185205 -5.33215e-22)
(0.46839 -0.0171728 -3.6456e-23)
(0.990255 -0.0148615 0)
(0.9903 -0.0143588 0)
(0.990752 -0.0148443 4.53507e-25)
(1.03321 -0.0331323 -4.35159e-22)
(1.0324 -0.0323118 -4.74047e-22)
(1.0709 0.00396307 -2.76024e-21)
(1.04685 0.00288864 4.38494e-22)
(1.06279 -0.00206475 0)
(1.03259 0.0085311 0)
(1.10998 0.00183528 0)
(1.11038 0.0028161 7.59225e-21)
(1.08968 -0.0136012 1.33696e-21)
(1.089 -0.0126799 3.00484e-21)
(1.01308 -0.00754786 -1.19828e-22)
(1.01257 -0.00767416 -1.37218e-23)
(0.892123 -0.0290269 2.32034e-22)
(0.895679 -0.0315194 -5.37446e-23)
(0.977731 -0.0115765 2.85435e-22)
(0.977907 -0.0125126 3.1671e-22)
(0.978706 -0.0118584 -4.81004e-22)
(0.37917 -0.00561694 -1.08148e-20)
(0.358966 -0.004577 9.30986e-21)
(0.358275 -0.00532682 3.3228e-21)
(0.986178 -0.0270025 -2.21606e-22)
(0.983468 -0.0306773 1.81662e-22)
(0.977255 0.00339094 -2.29406e-23)
(0.977641 0.00359739 -1.05873e-22)
(0.980917 0.00212916 -5.1756e-24)
(0.98076 0.00204089 0)
(0.980849 0.00229754 4.21957e-25)
(0.984861 0.000237136 6.43748e-24)
(0.984413 0.00018877 6.24844e-24)
(0.982759 0.000114409 -2.50356e-22)
(1.11631 0.0155076 5.21715e-21)
(1.11616 0.0143533 0)
(0.827581 0.0506751 4.00363e-22)
(0.88362 0.0347165 -5.26188e-21)
(0.899534 -0.0781549 8.39459e-22)
(0.919983 -0.085977 1.34191e-21)
(0.865958 -0.0819453 -6.29461e-21)
(1.00816 -0.0133627 -8.2626e-24)
(1.00814 -0.0137871 -1.81805e-22)
(1.00879 -0.0139082 -1.56292e-22)
(1.02897 0.00237116 -6.89195e-23)
(1.02932 0.00228833 -2.85617e-22)
(1.0293 0.0026121 -4.14668e-22)
(1.01923 0.00579996 4.31731e-22)
(1.06288 -0.0050604 -2.01085e-21)
(0.899246 -0.0167561 0)
(0.890304 -0.0206834 0)
(0.895993 -0.0128934 0)
(1.04079 -0.018616 4.50037e-21)
(1.03422 -0.0181261 1.01421e-20)
(1.06795 -0.0130136 1.64709e-21)
(1.06886 -0.0127755 1.04181e-21)
(1.04927 0.00730954 2.01121e-21)
(1.04879 0.00675696 1.75949e-21)
(1.10504 0.00891685 -2.02672e-22)
(1.10484 0.00798286 1.41055e-21)
(1.10616 0.00827709 6.92094e-23)
(0.90059 -0.0195112 7.48716e-23)
(0.907371 -0.012646 -3.52043e-23)
(0.688525 -0.0307042 8.61275e-22)
(0.634482 -0.0311712 5.88661e-22)
(1.0799 -0.0141176 -1.18436e-21)
(1.07914 -0.0138191 -1.63259e-21)
(1.0798 -0.0134475 -3.10303e-21)
(0.266678 -0.0108686 1.66102e-21)
(0.294192 -0.0154111 1.39468e-21)
(1.01357 -0.00841353 1.40917e-22)
(1.01402 -0.00831961 1.42426e-22)
(1.01353 -0.00790056 -1.34101e-23)
(0.33339 -0.00293402 1.00855e-20)
(0.347197 -0.00378102 -5.42061e-21)
(1.09053 0.0121434 3.13018e-21)
(1.09098 0.0129482 0)
(1.07945 -0.00143111 4.75111e-21)
(1.08044 -0.00190963 3.20667e-21)
(0.386812 -0.00632423 1.31313e-21)
(0.363495 -0.00631225 4.01745e-21)
(0.369914 -0.0058833 4.60449e-21)
(1.04898 -0.0101142 -8.30937e-22)
(1.04922 -0.0105272 -7.5468e-22)
(1.04991 -0.010276 7.99731e-22)
(1.07029 -0.0314718 1.134e-21)
(1.07432 -0.0323705 -6.64313e-23)
(0.376166 -0.00695044 -1.43999e-20)
(0.376092 -0.00668909 -3.77119e-21)
(0.393733 -0.00819921 3.05695e-22)
(1.00758 -0.0128757 1.82208e-22)
(1.00819 -0.0129474 2.1478e-22)
(1.11149 0.0137381 7.86794e-23)
(1.1127 0.0140851 0)
(1.11244 0.0128388 5.8362e-21)
(1.09078 0.00386327 -5.64154e-21)
(1.09204 0.00415451 -3.93148e-21)
(1.06697 -0.0125762 7.64539e-23)
(1.06703 -0.0131989 1.57637e-21)
(0.0519944 -0.0272655 -6.98098e-21)
(0.0468609 -0.0298485 -2.26264e-20)
(1.08008 -0.0144236 2.49753e-21)
(1.08058 -0.0142005 2.37391e-21)
(1.05574 -0.00290719 -1.22634e-21)
(1.05584 -0.00245798 -1.49985e-21)
(1.05666 -0.0029602 -4.28448e-21)
(0.420768 -0.0221454 -2.35048e-21)
(0.416859 -0.020574 -1.27903e-20)
(0.400693 -0.020619 -1.78256e-20)
(0.980675 -0.00052122 -3.48714e-23)
(0.980681 -0.000665113 -1.83584e-23)
(0.98076 -0.000639831 -1.59507e-23)
(1.08261 -0.00750036 0)
(1.08212 -0.00660807 6.61964e-21)
(0.983418 -0.00891416 -2.28482e-24)
(0.983725 -0.00924179 2.24579e-22)
(0.983733 -0.00879194 2.45689e-22)
(0.402738 -0.00640942 1.09679e-20)
(0.403412 -0.0065575 0)
(1.13762 0.0231102 1.85493e-21)
(1.13841 0.0237526 -4.42251e-21)
(1.13735 0.0240785 -8.65393e-22)
(1.03172 0.0012646 4.73295e-22)
(1.0319 0.00110369 -2.44468e-22)
(1.11708 0.0104019 0)
(1.11792 0.00957995 9.42908e-23)
(1.11662 0.00938069 0)
(1.03077 0.00177804 1.76316e-22)
(1.03113 0.00173398 0)
(1.03112 0.00199811 0)
(0.258892 -0.00685685 1.90019e-21)
(0.260189 8.16109e-05 -4.25728e-21)
(1.03496 -0.0332897 -1.88021e-22)
(1.03536 -0.0337644 -3.94272e-22)
(1.03588 -0.0336443 -2.30231e-23)
(0.985312 4.16226e-05 0)
(0.984531 -8.36352e-05 0)
(0.983813 -0.00036673 0)
(1.02783 -0.0184303 -1.11513e-22)
(1.02867 -0.01877 2.64926e-22)
(1.02797 -0.0180582 -1.54277e-22)
(1.13764 0.0219633 -7.5333e-21)
(1.13649 0.0224641 -1.57568e-20)
(1.09324 0.0044779 -2.37033e-22)
(1.09363 0.0053118 3.79015e-21)
(1.06964 0.00666577 -3.22737e-21)
(1.0704 0.00634911 1.21504e-21)
(1.06947 0.00590414 -1.58642e-21)
(1.0287 0.00213006 5.99861e-22)
(1.04878 -0.0096546 -1.64215e-21)
(1.04812 -0.00993642 3.92138e-22)
(1.05571 -0.00347677 0)
(1.05476 -0.00298701 1.59479e-21)
(0.970189 -0.027561 1.54163e-22)
(0.974337 -0.02151 6.95277e-23)
(0.231096 0.047328 -1.25892e-20)
(0.213359 0.0449342 1.62015e-21)
(0.249039 -0.0379969 1.11158e-21)
(0.270957 -0.0359409 1.26296e-20)
(0.246775 -0.0382781 2.02128e-22)
(1.07442 -0.0280135 5.28158e-23)
(1.07616 -0.0282565 5.04125e-22)
(1.07541 -0.0294181 9.52145e-23)
(0.41334 -0.00658674 -4.23114e-21)
(0.40706 -0.00663184 -4.5449e-21)
(0.459058 -0.0316343 -4.77131e-22)
(0.429693 -0.0324498 2.66266e-21)
(0.423338 -0.0317589 -2.44449e-21)
(1.03022 0.00071537 -3.19034e-22)
(1.1035 0.00581524 -6.39817e-21)
(1.10242 0.00554974 -9.56666e-22)
(1.04035 -0.0183109 6.80614e-21)
(0.995016 -0.0224797 -5.32516e-21)
(1.04484 -0.0399066 4.73716e-22)
(1.04611 -0.0410347 5.44897e-22)
(1.04579 -0.0391382 -8.03733e-22)
(1.09353 -0.0169379 -2.9331e-22)
(1.09259 -0.018498 -2.30798e-23)
(1.09137 -0.0174114 -4.56876e-23)
(1.13702 0.00628625 1.4068e-20)
(1.13574 0.00589159 1.55951e-20)
(1.13602 0.00694873 1.39765e-21)
(0.743594 -0.0280581 -1.3706e-20)
(1.03762 -0.0317716 -1.25652e-22)
(1.03666 -0.0311789 3.0344e-22)
(1.0372 -0.0309346 1.42829e-22)
(0.735869 0.0659848 1.96241e-22)
(0.758679 0.0640775 0)
(0.733506 0.0713851 0)
(0.374628 -0.00545531 2.20939e-20)
(0.356296 -0.0041992 -9.1315e-21)
(0.359947 -0.00452567 1.34362e-20)
(1.02947 0.000475321 -6.03929e-22)
(1.02957 0.000720434 5.95252e-22)
(0.985845 -0.0113306 4.4013e-23)
(0.985769 -0.0112962 1.72345e-23)
(0.985866 -0.0112821 -1.65995e-22)
(0.986116 -0.011448 -2.99855e-22)
(0.985669 -0.0114253 3.1738e-23)
(0.666842 -0.0295484 1.79659e-23)
(0.719885 -0.0280726 3.75879e-21)
(0.656585 -0.0298129 3.76015e-21)
(1.06897 0.00696184 2.61383e-22)
(1.06995 0.00732694 -4.77087e-21)
(1.09533 -0.0151723 2.58723e-22)
(1.09702 -0.0163331 -2.5268e-22)
(-0.0357576 0.00127024 1.01756e-20)
(-0.0364539 0.00236058 1.12168e-20)
(1.02584 -0.0145623 0)