/*--------------------------------*- C++ -*----------------------------------*\
| =========                 |                                                 |
| \\      /  F ield         | OpenFOAM: The Open Source CFD Toolbox           |
|  \\    /   O peration     | Version:  v2012                                 |
|   \\  /    A nd           | Website:  www.openfoam.com                      |
|    \\/     M anipulation  |                                                 |
\*---------------------------------------------------------------------------*/
FoamFile
{
    version     2.0;
    format      ascii;
    class       volVectorField;
    location    "650";
    object      ddt0(U);
}
// * * * * * * * * * * * * * * * * * * * * * * * * * * * * * * * * * * * * * //

dimensions      [0 1 -2 0 0 0 0];


internalField   nonuniform List<vector> 
13917
(
(0.00256138 -0.000387265 -1.72354e-17)
(0.00283838 -0.00226107 -7.99543e-20)
(-0.0131106 -0.0080218 7.97333e-18)
(0.000246976 -0.00159763 7.08575e-18)
(0.00179439 0.000259101 1.22179e-20)
(0.00308394 -0.00208181 -7.1556e-21)
(0.000198026 -0.0033365 1.57003e-17)
(-0.00337398 -0.00400895 -2.05882e-18)
(-0.000709536 -0.00302411 1.05354e-17)
(-5.95286e-05 0.00386162 -3.66468e-17)
(-0.00197216 -0.00367828 1.80326e-19)
(0.000602588 -0.0010134 9.33871e-19)
(-0.000215323 -1.49213e-05 -5.58973e-18)
(-0.0288518 0.0160882 -6.37367e-18)
(0.00287758 -0.00042698 -1.18812e-18)
(0.00271073 -0.000345234 2.2807e-17)
(-6.42355e-05 1.02871e-05 4.19875e-19)
(-0.00119368 -0.00196809 1.07922e-18)
(0.0029426 -0.00846352 1.12207e-17)
(0.00111315 0.00247875 4.65247e-17)
(0.00281281 -0.000698325 7.41248e-19)
(0.00134888 0.000131623 1.355e-18)
(0.000876261 -0.00551202 1.67213e-17)
(0.00133364 0.000154792 -1.37294e-18)
(0.000997317 -0.00180998 -3.68196e-18)
(0.00258084 -0.000368256 -4.22322e-18)
(-0.0187854 -0.0185586 -1.39258e-18)
(-0.000144488 0.00269607 3.98363e-17)
(0.00109144 -6.12168e-05 3.98735e-19)
(-0.00076438 0.000853204 1.74994e-20)
(0.000617803 0.00458935 1.05118e-17)
(-0.000537532 -0.00722136 1.23766e-17)
(0.000654213 -0.00146169 5.3702e-18)
(0.00207793 -0.000996126 -1.07825e-17)
(0.000462767 0.000758352 1.41425e-19)
(-0.00357167 -0.00561671 1.12674e-18)
(0.00182543 -0.00104376 1.54882e-18)
(9.84072e-05 9.88951e-06 5.14964e-19)
(0.000178716 -0.00339343 8.04193e-18)
(0.00394796 -0.00208972 -4.50798e-19)
(-0.00010491 9.08458e-06 -1.23153e-19)
(0.000371304 0.00010829 4.44653e-19)
(-0.000851958 -0.00252261 3.59553e-18)
(0.00193851 -0.00910041 -1.26711e-17)
(0.00181378 -0.00858625 3.06904e-17)
(-0.0251935 -0.00729774 -6.26334e-18)
(0.0027264 -0.000848112 1.63881e-18)
(-0.000592558 0.0025528 -6.52775e-18)
(-0.0239016 -0.0276981 -2.07245e-19)
(0.000494555 0.000760048 -1.64204e-19)
(0.000631611 -0.000980865 1.28899e-18)
(0.00408651 -0.00631523 -2.48207e-18)
(0.00571929 0.000148544 6.96602e-18)
(0.00104864 -0.000572865 -4.47281e-18)
(0.00105287 -0.000675397 -3.78333e-18)
(0.00333931 -0.00620732 8.55075e-18)
(0.000226699 0.00348336 -2.09078e-17)
(0.000903051 -0.00545119 1.05633e-18)
(0.000367731 0.000120482 -4.25559e-19)
(-0.025771 -0.00752725 3.47082e-18)
(-0.00836996 0.00693977 2.08307e-17)
(0.000913662 0.00200717 -1.36745e-19)
(-0.000628 3.36737e-05 -1.38313e-21)
(0.000957745 -0.00177225 8.53921e-18)
(-0.00514406 -0.00313051 -5.60665e-17)
(-0.00740916 0.00167533 6.82193e-20)
(0.000421264 -0.000353672 -5.88766e-20)
(-0.00289633 -0.00659654 2.45202e-18)
(-0.00206497 -0.00210065 3.18515e-19)
(0.00379622 -0.000260544 -2.87182e-17)
(-0.00798798 -0.00449774 -6.8185e-18)
(0.00235448 -0.000835089 8.08889e-19)
(-0.000137446 -0.00107788 3.72619e-18)
(0.000318214 0.000129503 2.325e-19)
(0.00297757 -0.000674686 3.10998e-19)
(0.00141197 -0.00160074 -3.89104e-18)
(0.00178348 0.000403764 -1.31809e-19)
(0.000316705 0.000138492 -1.23998e-19)
(0.00134495 -0.00157998 1.97673e-18)
(0.000658808 -0.00149332 -1.68517e-18)
(0.00155931 -0.000360195 1.77784e-18)
(-6.24766e-05 1.24018e-05 2.12095e-19)
(-8.84169e-05 -0.00103873 -3.61175e-18)
(-0.00573289 -0.00470236 -6.2777e-18)
(0.000211542 -0.000101667 7.1538e-19)
(-0.00285068 0.00738388 -4.31286e-20)
(-0.00067838 -0.00708206 -1.52105e-17)
(0.000175164 -4.67415e-05 -2.85692e-20)
(0.00382222 -0.0019289 -9.588e-19)
(-8.03397e-05 1.39349e-05 -4.16682e-20)
(-0.0001235 2.84131e-05 -9.24029e-20)
(-0.00152336 -0.00259069 -3.15993e-18)
(-0.0249394 -0.0274291 -1.47961e-19)
(0.000261833 0.000565216 -2.18753e-19)
(0.00140981 -0.00069599 6.13957e-18)
(0.00071071 0.000140948 1.69444e-19)
(-0.0117327 -0.00338203 1.45725e-19)
(3.80763e-05 1.48463e-05 -3.28945e-19)
(0.00019042 -5.5328e-05 2.74627e-18)
(0.0163173 -0.000339983 -2.22536e-18)
(-0.000273244 1.19477e-05 -4.44297e-21)
(-0.000317038 2.21748e-05 -1.6653e-20)
(0.00159308 -0.000394179 -2.81177e-18)
(8.98236e-05 3.89937e-05 2.22105e-18)
(0.00176147 0.000398912 1.04555e-19)
(-0.00140217 -0.00392296 1.04391e-17)
(-0.00167203 0.001342 -4.06376e-18)
(0.000727754 0.00218975 -6.1368e-20)
(0.000407496 9.49e-05 2.7882e-19)
(-0.016556 -0.0207967 -1.16209e-18)
(-4.33333e-05 -9.07781e-05 -5.34851e-18)
(0.00178515 -0.00109051 -2.31787e-17)
(0.00141784 0.000273535 1.34737e-18)
(0.000210013 0.0025903 -1.30874e-17)
(-0.00543165 -0.00334723 6.01111e-17)
(0.00170383 -0.00153418 2.83072e-19)
(0.0024453 -0.00819822 3.57517e-18)
(-0.000190002 2.30667e-05 -5.30896e-20)
(-0.0139548 -0.00888122 1.48989e-17)
(-0.000103565 -0.000852399 -5.746e-18)
(-5.88005e-05 1.68093e-05 8.62425e-20)
(0.000243167 0.000159169 7.57669e-19)
(-0.000158917 -0.000215374 1.02754e-19)
(0.00214591 -0.00649772 2.75183e-18)
(0.00543983 -0.00021145 -1.17659e-17)
(-0.00462964 -0.00440238 2.11043e-17)
(0.000846925 -0.00176087 -8.04152e-19)
(0.00306132 -0.000495702 -3.61941e-18)
(0.000722649 0.000504622 -5.31266e-19)
(0.00201654 -0.00668829 1.71552e-17)
(-0.00101096 -0.00448813 -5.54891e-18)
(-0.0234406 -0.0127762 -1.3418e-18)
(0.00303429 -0.00210286 -1.13516e-17)
(0.00171653 -0.00148471 1.59711e-18)
(-0.000422808 -0.00784099 -1.15277e-17)
(-0.0132108 -0.0200951 -1.48735e-19)
(-0.0118287 0.00824414 -1.06288e-17)
(0.0070858 3.68512e-05 -1.06627e-17)
(0.00238517 -0.000149007 -1.41697e-18)
(-0.000103302 3.60561e-06 -8.88536e-20)
(-0.0102855 0.00752017 -2.77927e-18)
(0.000291008 0.000147991 1.30275e-19)
(-0.000930283 -0.00387482 -2.66053e-17)
(0.000805525 2.73205e-05 1.48118e-18)
(-1.28904e-05 -0.000973586 -8.73562e-18)
(0.000543848 9.1098e-05 -5.09528e-19)
(-0.00799647 -0.00452055 -8.57063e-18)
(0.0109563 0.0145806 2.38321e-19)
(-0.000852657 0.0023669 2.24871e-19)
(0.00107919 -0.000609884 3.19548e-18)
(0.00344524 -0.00184654 -5.91809e-18)
(-0.000397704 2.87694e-05 6.62388e-20)
(-2.02567e-05 -0.00092773 -3.67108e-18)
(-0.000157064 -0.000847169 -8.51866e-18)
(-0.00989067 -0.00501315 1.6983e-18)
(0.00149223 0.000431969 -3.46791e-19)
(8.57891e-05 4.81596e-05 -1.723e-18)
(0.00289924 -0.00207035 4.20956e-19)
(-0.000146595 9.14679e-06 -3.97285e-20)
(-0.000167838 1.90289e-05 6.22612e-22)
(0.000492097 -0.00012886 1.11973e-18)
(-0.00750059 -0.000794016 -4.65916e-18)
(0.00208542 -0.000935245 7.53335e-19)
(-0.0120392 0.00736224 2.54962e-18)
(-0.00621767 0.00265173 -3.2584e-17)
(0.0059857 -0.00188667 3.47395e-19)
(0.00399916 0.000101544 -1.17433e-18)
(-0.00242427 0.00406564 -2.30808e-18)
(-0.000910309 0.000267564 6.84784e-22)
(0.00232218 5.49252e-05 -1.25082e-18)
(0.00137386 0.000208898 -2.46418e-18)
(0.00159339 -0.00249067 -2.49124e-17)
(-0.00173406 -0.00298578 1.57018e-18)
(-0.0132504 0.00500713 2.8768e-17)
(0.00313904 -0.00583347 6.11877e-19)
(-0.000242006 1.71153e-05 1.49411e-19)
(0.000181653 -0.00160842 -8.65632e-19)
(-0.00565473 -0.00691546 -5.70902e-18)
(-0.000875255 -0.00437543 -2.67108e-18)
(0.00210962 -0.000942684 -1.04065e-18)
(-0.000425071 -0.002505 5.82854e-18)
(0.00133294 0.000198985 7.59203e-19)
(0.000675731 -0.000960572 -1.06284e-18)
(-0.0202244 -0.00673727 -2.41453e-18)
(-0.0140742 -0.00860286 1.73483e-19)
(-0.0258989 -0.013664 1.08149e-18)
(0.000649356 -0.000925223 -3.54133e-18)
(-0.0206373 -0.00675387 1.89417e-17)
(-0.000746347 0.000857523 -1.54496e-20)
(-0.00365281 0.00579817 -1.71614e-18)
(0.00328592 -0.00585743 1.04177e-18)
(0.000965472 -0.00822876 -9.28612e-18)
(-0.0151354 -0.00731956 1.11016e-17)
(0.00259697 -0.00035701 2.99197e-17)
(0.000289944 0.000580633 7.31264e-19)
(0.00512719 -0.000229818 1.90034e-17)
(0.00147603 -0.00246435 -3.76692e-18)
(0.00287837 -0.00225506 1.98555e-17)
(0.000430758 0.00072224 1.46234e-19)
(0.00144167 0.000406817 1.2669e-19)
(0.00255719 -0.00107413 -3.47297e-18)
(0.00350246 -0.000271361 1.23435e-17)
(0.00720442 0.000119811 6.86412e-18)
(0.00179191 -0.00087325 1.02307e-18)
(-0.0243658 -0.019517 9.18468e-19)
(0.00183457 -0.00100969 -4.78107e-19)
(0.00355576 -0.00198143 3.67652e-18)
(0.000272292 0.000148 -6.40577e-20)
(-0.00322738 -0.00636218 8.24015e-18)
(0.00158235 -0.000315995 2.73508e-18)
(0.000469052 0.000349048 -8.73115e-20)
(0.00182992 -0.000205871 2.97298e-19)
(0.00170294 -0.00030702 -3.31991e-20)
(-0.00104308 0.00244141 -8.0546e-18)
(-0.000281849 -0.00770147 1.73875e-18)
(0.0026073 -0.000209176 2.07681e-18)
(-0.00395391 -0.00116663 -1.01887e-18)
(0.000256158 2.42384e-05 4.4438e-19)
(4.01065e-05 0.000158055 1.43565e-19)
(3.41347e-05 0.000157905 1.72065e-19)
(-0.00142763 0.0038484 -6.27465e-18)
(-0.0194025 -0.00720048 -4.7967e-18)
(-0.021292 -0.00613718 -1.79893e-18)
(1.30353e-05 -0.000216362 -5.20699e-18)
(-0.000515363 2.6737e-05 1.23266e-20)
(-0.0106482 -0.0222723 -1.89784e-19)
(0.00513919 -0.000143047 -1.27531e-17)
(-1.28713e-05 0.000139586 -7.59384e-19)
(-1.84717e-05 0.000134081 1.13653e-19)
(-9.82373e-05 9.61788e-06 5.69131e-20)
(4.70649e-05 0.000166239 -3.23303e-19)
(4.11361e-05 0.000166045 2.60255e-19)
(0.00245708 -0.00072368 1.48691e-18)
(-0.00217542 0.00228557 -1.75257e-17)
(0.00141297 -8.7017e-05 -1.47729e-18)
(-0.000868509 0.000448823 2.88383e-21)
(0.00237093 -0.00602653 -2.92108e-18)
(0.00311072 -0.000690781 -6.88593e-18)
(-0.000127675 1.02314e-05 -2.97548e-19)
(-1.78958e-06 -0.000199351 4.84876e-18)
(-0.0221379 -0.0205695 -1.22293e-18)
(-0.00148289 -0.00387923 3.64097e-17)
(-0.0200042 -0.00704757 6.9485e-18)
(-0.00341761 -0.00109212 -1.24975e-18)
(0.00292343 -0.0066144 2.70159e-18)
(0.000817203 1.07562e-05 -2.28528e-18)
(-0.0037631 0.00365025 1.64259e-17)
(0.00236694 -0.00610317 3.82426e-18)
(0.00164387 9.84576e-06 -1.51854e-18)
(0.0010481 -0.00705305 5.61749e-18)
(0.00172873 -0.000874629 -1.14188e-18)
(-0.00179026 0.00226476 2.40641e-17)
(-0.000115878 -0.000909715 5.09365e-18)
(0.00331224 -0.00384564 -7.75105e-19)
(0.00302482 -0.00562379 -1.61282e-17)
(0.00145271 -3.17951e-05 8.07675e-19)
(-8.23113e-05 1.94479e-06 7.21755e-20)
(0.000876086 -0.0018024 -7.2243e-18)
(0.00205037 0.000414509 1.41618e-19)
(0.00016776 0.000647344 -3.94449e-20)
(0.00496948 -0.000512284 -1.79252e-17)
(-0.0378057 -0.0262115 2.08974e-19)
(0.000176761 0.000186958 -3.26017e-19)
(-2.57929e-05 0.000128683 2.99003e-19)
(0.00153248 0.000424769 1.22721e-18)
(-2.16075e-05 0.000130161 2.31963e-19)
(-0.000128146 -0.000895292 3.23518e-18)
(-9.07341e-05 -2.69376e-05 1.86854e-18)
(0.00152209 -0.00444073 1.10807e-17)
(0.000204314 0.000173891 -1.33857e-19)
(0.00729945 -6.98906e-05 -7.1576e-18)
(-0.00215402 0.00111718 6.27793e-18)
(0.000596356 -0.000673868 1.5806e-19)
(0.00185058 0.000433962 -1.5351e-19)
(-0.0268122 -0.00680404 1.30557e-17)
(1.15446e-05 0.000156373 -2.05805e-19)
(0.0103333 -0.000459116 -1.37513e-18)
(0.00476796 -0.000700171 -1.66585e-17)
(1.37656e-05 0.000155535 -1.4992e-19)
(0.00356606 -0.000430994 -7.64945e-18)
(0.000164441 0.000597038 1.71133e-19)
(-0.00820665 -0.000902151 1.09687e-17)
(-0.000215255 1.23834e-05 -4.13616e-20)
(0.00260928 -0.000264219 -3.48977e-19)
(0.00152683 -2.26965e-05 -1.49586e-18)
(0.000802476 0.000105467 -2.49762e-18)
(-0.016214 -0.0084341 -6.62894e-18)
(0.000185272 2.13235e-05 -2.25331e-18)
(-0.00659607 -0.00436939 -1.21809e-18)
(0.00221136 -0.0024766 2.21483e-17)
(-0.0311061 -0.028075 -2.07777e-18)
(0.000562847 0.000113755 6.31463e-19)
(-0.0265491 -0.0176652 -2.466e-18)
(0.00756568 9.53665e-05 5.70797e-17)
(-0.000156503 1.71326e-05 -2.09551e-19)
(0.00159244 -0.00561893 7.16407e-18)
(0.00195318 0.000309077 -8.091e-20)
(0.00180952 -0.00143479 -2.68035e-18)
(0.00185419 0.000273416 -1.08876e-20)
(0.00128524 -0.00163972 -7.16091e-18)
(0.000227052 0.00057526 8.94361e-21)
(0.000212365 3.02449e-05 3.02653e-18)
(-0.00419451 -0.00759155 -1.32981e-18)
(0.000730242 0.00180652 -1.18852e-19)
(0.00317854 -0.0037641 -6.57308e-18)
(0.00123883 -0.00161368 6.82811e-18)
(-8.02245e-06 -0.000184332 1.06631e-17)
(0.00287171 -0.00208073 -1.11419e-17)
(0.00356647 -0.000155578 -3.03363e-17)
(0.000615525 0.000510432 7.21273e-19)
(-7.68563e-05 0.000917748 -1.47542e-20)
(0.00179136 -0.00148774 2.78671e-18)
(0.00357057 -0.00479334 -6.03769e-19)
(-0.00338591 -0.00998592 1.09255e-17)
(-0.00143889 0.000707553 -3.258e-17)
(-0.0133903 0.00412366 -2.97174e-17)
(-0.00735594 -0.00156921 -7.74991e-21)
(-0.0144522 -0.0113888 7.40164e-18)
(0.00183018 0.000466482 1.49391e-19)
(-0.00685364 -0.00494591 8.87475e-18)
(0.00305094 -0.00610174 2.67187e-19)
(-0.0129892 -0.0081945 -9.85882e-18)
(-0.00012591 -2.05561e-05 5.38515e-18)
(0.00281004 -0.000329963 1.39101e-18)
(-0.0211511 -0.0185661 1.71906e-18)
(0.001459 0.000294401 4.98173e-19)
(0.00279722 -0.00254318 1.42177e-19)
(0.00107515 -0.00822158 1.1949e-17)
(-8.79095e-05 8.87777e-06 2.54842e-20)
(0.00134731 -0.00259723 9.63964e-18)
(0.000145563 -7.55973e-05 4.01435e-18)
(-0.00176718 -0.0052933 -3.98438e-17)
(0.000205573 0.000224474 1.26254e-19)
(0.00131796 0.00305934 -9.34908e-18)
(0.000334188 0.000152306 1.94369e-18)
(0.00287949 -0.00371109 9.4086e-18)
(0.00176186 -0.000898533 4.74289e-20)
(-0.00581364 -0.00236001 3.17907e-20)
(-0.000100765 1.45296e-05 2.90089e-19)
(0.000849815 -0.00721455 -1.04979e-17)
(-0.00399807 -0.00463606 1.06611e-17)
(0.00133717 -0.000725318 -3.28695e-18)
(0.00145228 0.000321483 -1.27837e-18)
(0.00140476 -0.00128992 -2.38889e-17)
(-0.00359539 -0.00454305 5.12158e-18)
(-0.0141902 -0.00045534 4.06955e-18)
(-0.0317078 0.0109699 7.04725e-18)
(-1.1037e-05 0.000151093 -3.78118e-20)
(0.00138461 -0.000200924 9.53693e-19)
(-0.00111822 -0.00372487 7.75571e-18)
(-0.013223 -0.0103684 1.55605e-18)
(-7.68097e-06 0.000151744 3.00474e-20)
(0.00193505 0.000247118 7.56902e-20)
(0.000843736 -0.000789573 9.31951e-19)
(0.00446411 0.00115943 9.41809e-19)
(0.00291537 -0.00379914 5.06542e-18)
(0.00424921 -0.00617639 -1.6813e-17)
(0.00406645 -0.00695276 -1.20128e-17)
(0.00990095 0.000326234 4.10806e-20)
(-0.00142019 -0.00534406 -1.2246e-17)
(0.00189408 -0.000592602 -1.57312e-17)
(0.000742426 0.000515188 6.874e-19)
(0.00131659 -0.000756419 2.62946e-18)
(0.00176909 0.0002112 -5.26065e-20)
(-0.0159517 -0.00824149 2.17079e-17)
(-0.000101259 7.57271e-06 2.94415e-19)
(0.00263158 -0.00029212 -3.35273e-17)
(-0.00165171 -0.00528095 1.84414e-17)
(-0.0108001 -0.0199067 -5.37954e-21)
(0.00104169 -0.000683854 -7.5835e-18)
(0.00454747 -0.00818292 -8.77083e-18)
(6.73016e-05 0.00108766 -4.05877e-22)
(-0.00879757 -0.0164437 1.31098e-19)
(0.000426257 0.0001209 2.52415e-19)
(-0.0209628 -0.00626691 1.06229e-17)
(-0.0261549 -0.00667224 -1.61857e-17)
(0.00156171 -0.000839578 4.76183e-20)
(0.000625237 -0.000699664 1.41038e-18)
(-0.013466 -0.00524347 -2.85592e-18)
(0.000332305 0.000268296 1.00919e-19)
(-0.00621416 0.00315044 8.77892e-18)
(-0.0180786 -0.00744045 -6.90403e-19)
(0.000446786 0.000122721 -5.43269e-19)
(-0.00914854 -0.0192751 -4.77317e-19)
(0.00166227 6.78587e-05 -1.33943e-18)
(0.00743016 0.00630432 2.36593e-20)
(0.000142737 0.000318146 -3.00618e-20)
(0.000532455 0.00214751 -5.45227e-17)
(0.00836908 0.00778375 3.56195e-20)
(0.00165653 -0.00115029 -6.82709e-18)
(-0.0118101 -0.0253513 1.13003e-19)
(0.00896795 0.000832304 1.34246e-18)
(0.00165847 -0.000827209 -1.2794e-18)
(-0.00937763 0.00111305 -2.26178e-18)
(-0.00738949 -0.00725382 4.7882e-17)
(0.00148505 -0.00118561 -4.65253e-18)
(-0.0170789 -0.00823854 6.0721e-19)
(0.00128958 -0.000284085 -7.00377e-18)
(0.00904871 0.00191814 -2.25315e-19)
(-0.0134555 -0.00825585 3.27442e-17)
(0.000178058 -6.72541e-05 -5.30135e-18)
(-0.00032245 -0.00328193 2.4828e-17)
(0.00117715 -0.00166159 1.94097e-18)
(0.000766449 6.77671e-05 3.09022e-19)
(0.000416308 6.44521e-05 3.62704e-18)
(0.000811295 0.000509525 7.18497e-19)
(-0.0100713 0.00978225 -4.69888e-18)
(0.00795928 -0.00329153 -4.55521e-19)
(0.00124006 -0.000724874 -3.21587e-18)
(0.000833652 0.000563936 8.61783e-19)
(0.00119709 0.000137867 1.90823e-18)
(0.00199446 -0.00528677 1.02312e-17)
(0.00295516 -0.0107022 9.09627e-19)
(7.35237e-05 0.000179004 1.58941e-19)
(-0.000901433 0.000239738 -5.42897e-22)
(-0.00150621 -0.00984254 -1.7255e-17)
(0.00668185 -0.00784683 1.06276e-17)
(0.000812287 9.95384e-05 3.97323e-18)
(0.00157681 -0.00114907 -5.69056e-18)
(-0.017896 0.00075605 3.33162e-18)
(-0.00211855 0.00435176 -2.85659e-18)
(-0.00865511 0.0023551 -1.43356e-20)
(0.00150179 -0.00862584 -3.47288e-18)
(-0.00801342 -0.00538842 4.01576e-19)
(0.000191716 0.000260505 -1.45513e-19)
(3.96636e-05 0.000171663 -1.21498e-19)
(0.00242569 -0.000821721 -1.26045e-18)
(0.000393762 6.03972e-05 -1.96785e-18)
(7.01588e-05 0.000171518 -8.40204e-20)
(0.00143069 -7.37577e-05 -1.91606e-18)
(3.84236e-05 0.000166817 2.46372e-19)
(0.000162804 0.000248071 7.97242e-20)
(-0.00293632 0.00310469 -4.70851e-19)
(0.00132103 -0.000314264 9.37504e-18)
(0.00414552 -0.00253123 6.1972e-18)
(0.00705502 -0.00017061 3.96842e-17)
(0.00166176 -0.0055077 -1.8955e-17)
(0.000483885 0.000359927 9.58146e-20)
(-1.25469e-05 -0.000900075 2.17046e-18)
(-0.00920821 0.000693705 -1.82615e-17)
(0.00253141 -0.000979976 3.33441e-18)
(0.00571396 -0.000114028 3.52962e-19)
(0.000153059 0.000202797 4.82764e-20)
(0.000156349 -0.000402069 8.14519e-19)
(0.000379846 0.000240046 -1.23174e-19)
(4.82192e-05 0.000175168 -5.48198e-20)
(0.00177915 -0.00101208 -2.67934e-18)
(0.00170219 0.000137109 1.05247e-19)
(-0.0194636 6.57812e-05 -1.66157e-17)
(0.000803952 -0.000168432 -2.57258e-19)
(-0.000929957 -0.00373825 6.59313e-18)
(0.000171172 -0.000394769 -2.54291e-18)
(-0.000287523 -0.0047673 5.45166e-18)
(0.000647476 -0.000152996 4.21816e-19)
(0.00154559 -0.000283492 -2.03742e-18)
(0.00272113 -0.00644847 -5.67469e-18)
(-0.0145702 -0.0002863 2.89085e-18)
(0.000808478 -0.000778079 -8.04896e-18)
(0.000811158 -0.00384022 1.49261e-18)
(0.000526689 0.000360965 3.54662e-19)
(0.000288389 3.46459e-05 2.03406e-18)
(0.00118635 0.000149964 -1.32763e-18)
(0.00167355 3.24235e-05 -2.7748e-18)
(0.000412097 0.000325971 1.06288e-18)
(0.000213693 -1.31344e-05 -3.42599e-18)
(0.00321924 -0.00199241 2.17757e-17)
(-0.0102071 0.00582717 -9.25528e-18)
(0.000395528 0.000313193 -1.30203e-18)
(-0.0277156 -0.018286 4.41459e-18)
(-0.00076307 -0.00975386 8.5331e-18)
(-5.92458e-05 -5.6529e-05 -5.91456e-18)
(0.00176378 -0.00567874 6.52476e-18)
(-0.00209811 -0.00737578 2.04355e-17)
(-0.00714362 0.00143275 -3.0355e-18)
(-0.000319496 -0.00349301 2.09917e-17)
(-0.00104907 -0.00390775 -3.07172e-18)
(0.0144154 0.00339246 7.34263e-20)
(0.0170947 0.00239361 1.09129e-20)
(0.0017202 0.000103824 3.83748e-19)
(-0.00661123 0.000369423 -7.68117e-20)
(0.000591273 -0.000158619 -3.72225e-19)
(0.00171463 -0.000831728 1.64061e-18)
(-0.0170206 -0.00326601 3.28382e-18)
(-0.00011369 2.7178e-05 4.89503e-20)
(0.000993466 -0.000567667 -2.55204e-18)
(0.00138317 -0.000730751 -1.81053e-18)
(-0.00062736 -0.00317923 6.42674e-18)
(0.00304728 -0.00108821 1.37188e-18)
(-0.015076 -0.00901406 6.64129e-18)
(0.00039949 -0.00615903 4.56155e-18)
(0.000565549 3.80895e-05 -9.14059e-20)
(0.00191456 0.000411053 3.44797e-19)
(-0.00106415 -0.000891898 -5.9408e-19)
(0.0053121 -0.00342892 3.09895e-18)
(0.00121742 -0.000697534 -1.11073e-18)
(-0.0293177 0.0185234 3.07769e-18)
(0.000917216 -0.00458755 -1.95478e-18)
(0.0021217 -0.00255212 3.60112e-18)
(-0.007584 0.00355337 -1.22373e-17)
(0.000139198 -9.22428e-05 2.89453e-18)
(0.00552171 -0.00357243 -6.99124e-18)
(-0.014887 -0.00762 -1.13578e-17)
(0.000323139 9.48562e-05 -1.19832e-18)
(0.00512899 -0.0014879 -2.62785e-17)
(0.000291163 3.22275e-05 -1.17543e-18)
(4.2591e-05 0.000173903 2.99884e-19)
(0.00194772 -0.00538968 -1.85296e-17)
(0.000145468 0.000186912 1.87142e-19)
(0.000275051 2.57151e-05 5.26545e-19)
(-0.000273719 -0.00718868 -2.61097e-18)
(0.00440397 -0.00163277 -2.07064e-17)
(-0.00573712 -0.0274164 -3.28283e-19)
(0.000444481 -0.00012632 1.22579e-18)
(-7.18835e-05 -0.00180553 6.83581e-18)
(0.000433788 -4.97381e-05 2.8769e-19)
(-0.0198376 -0.00390617 8.82608e-18)
(-0.0284435 -0.006528 7.96065e-19)
(0.00116947 -0.000639048 -1.05441e-18)
(0.00104602 -0.000640691 3.09618e-18)
(0.00040511 -0.000108985 -2.27982e-18)
(0.00283067 -0.00543653 3.72094e-18)
(0.00294106 -0.0112785 1.31434e-21)
(0.000707126 0.000575038 2.37585e-19)
(-0.000113608 1.09776e-05 -2.78302e-20)
(0.00140109 0.000414727 -9.00629e-19)
(0.000713572 5.49144e-05 -5.34321e-19)
(0.00114613 0.00112549 -6.42195e-20)
(0.00141792 -0.00321679 -2.06119e-18)
(-0.000117207 2.18604e-05 -9.78538e-22)
(0.000585378 -0.00616067 -9.5367e-18)
(0.000311444 8.74293e-05 2.608e-18)
(0.00123681 8.91943e-05 1.89833e-18)
(0.00115281 -0.00164651 -4.6097e-18)
(-0.00026074 0.000263988 -1.47692e-17)
(-4.68616e-05 7.21986e-05 -1.21092e-18)
(-0.000151885 -0.00247827 1.86118e-17)
(0.000208593 0.000676779 -4.35556e-19)
(-0.000409638 -0.00466703 -1.5537e-17)
(0.00199798 -0.00607365 -1.52385e-17)
(0.00273179 0.00212997 1.2705e-18)
(0.00307418 -0.00572771 2.51258e-18)
(0.0169606 -0.00153644 1.10128e-18)
(0.00119476 -0.00147131 -9.30902e-19)
(-0.000422489 -0.000960083 8.84682e-20)
(0.00209985 -0.00256979 -1.45812e-17)
(-0.00311997 0.00273811 -1.21985e-17)
(0.00685244 -0.000324604 -2.40955e-17)
(0.000514703 0.00050234 2.41068e-19)
(0.00114859 0.000188655 -3.21126e-19)
(0.000666296 4.41337e-05 -4.85832e-19)
(0.00035378 -0.000600389 -7.68602e-18)
(-0.00468276 -0.00334351 -4.95543e-18)
(1.72859e-05 0.000159104 -3.19592e-20)
(-0.0233947 -0.0246149 -7.61182e-19)
(0.00139209 -0.0025126 -1.02571e-19)
(-0.000910072 -0.00345351 1.2375e-17)
(0.013233 -0.000439718 5.65748e-19)
(-0.000821223 -0.00256252 7.91675e-18)
(0.000112009 0.00279044 2.80073e-18)
(0.000376535 0.000321387 7.14728e-19)
(-0.00181772 -0.00693496 2.10331e-17)
(4.41065e-05 2.16185e-05 1.33431e-19)
(-0.000101206 0.00044468 1.35772e-19)
(-0.000159001 -0.00316643 -3.69606e-18)
(0.000107418 0.000188516 1.32443e-19)
(-0.0113645 -0.00822367 -1.44319e-18)
(-0.00040842 2.02503e-05 1.68426e-20)
(-9.66323e-05 -4.11364e-05 7.65287e-18)
(0.00118472 0.000180135 -2.71188e-19)
(-0.0149395 -0.00923589 -6.46721e-18)
(0.00113198 0.00110888 -4.96186e-20)
(-4.54177e-05 0.000110076 2.36619e-19)
(0.00144586 -0.00861409 6.94433e-18)
(0.001805 -0.0056769 -1.3292e-17)
(0.0194651 0.0167682 -2.49495e-18)
(-0.00894808 -0.00495092 2.901e-17)
(0.00226534 -0.00233074 -2.72501e-17)
(-0.00694668 0.00178766 3.47041e-18)
(-4.88748e-05 6.81897e-05 1.2908e-18)
(0.00456924 -0.000216824 -1.05173e-17)
(-0.000608308 6.1449e-05 -1.7633e-20)
(-0.0113705 0.00724892 1.15605e-17)
(0.00781367 0.011333 -7.19497e-19)
(-0.000182422 0.000417566 2.89732e-19)
(0.000402187 0.00141355 -1.92608e-20)
(-0.000323151 1.52868e-05 4.55595e-20)
(0.000979877 -0.00451494 7.77162e-18)
(-0.000777564 -0.00242038 -1.16001e-17)
(0.000102063 0.000177482 -7.9446e-20)
(4.59405e-05 2.14549e-05 2.29435e-19)
(-8.26739e-05 -1.89475e-05 -3.36977e-18)
(-0.0103076 -0.00531761 2.31492e-18)
(0.000486284 -0.000192319 5.8059e-19)
(-0.00063324 -0.00685538 -4.3615e-18)
(0.000989063 -0.000534602 4.92057e-18)
(-5.45682e-05 0.000105159 -3.07187e-19)
(-0.000164134 1.27839e-05 1.46041e-19)
(-0.0244907 -0.0078429 1.34817e-17)
(-0.0113312 -0.00225512 -9.09642e-18)
(-7.16864e-05 0.00268617 2.35838e-18)
(0.00100675 -0.00690864 -3.28947e-17)
(0.0013017 -0.00323889 8.00692e-18)
(-0.0170283 -0.00521922 -1.41615e-17)
(0.00314478 -0.000759777 2.40859e-17)
(0.000143807 0.000329769 -2.55344e-19)
(-0.0157368 -0.00192328 8.05925e-18)
(-0.00010937 -2.20003e-05 -5.24273e-18)
(-0.00233585 -0.00860882 -2.36038e-17)
(0.00039407 -0.000589594 -5.20305e-18)
(-0.0136741 -0.00550865 1.03293e-17)
(0.000696879 6.38074e-05 6.9871e-19)
(0.00117578 0.001165 1.2247e-19)
(1.24943e-05 -0.00100725 8.66285e-18)
(0.0195067 0.0177485 3.57401e-18)
(0.00135404 -0.00454664 -9.36774e-18)
(-0.00482267 -0.00256984 1.44491e-17)
(-9.66044e-05 2.33995e-05 4.51594e-20)
(0.00136319 -0.00433091 -7.49421e-18)
(0.000631972 0.00071766 1.75048e-19)
(-0.000246472 1.48845e-05 -3.72368e-20)
(0.00160534 -0.000489975 2.44522e-17)
(0.0103952 0.00266719 6.29564e-20)
(0.000637349 0.000796447 -4.63822e-19)
(-0.00121327 -0.00646945 1.31532e-17)
(2.5022e-05 -0.000203227 -1.04286e-17)
(7.23332e-07 0.00028048 -1.01049e-18)
(-0.000331865 1.89978e-05 -9.50068e-20)
(0.00122091 -0.000694645 -1.2895e-17)
(0.000455665 -0.000200888 -1.65748e-18)
(0.0020423 0.000339072 -2.94936e-20)
(1.54318e-05 0.000160207 1.1605e-19)
(0.000628258 0.000762967 2.04571e-19)
(-0.0161017 -0.00816849 6.6421e-18)
(-0.000353733 2.29483e-05 2.77719e-20)
(0.00387257 -0.00667885 -1.95962e-18)
(-3.82728e-05 1.30972e-05 3.74169e-19)
(0.000357981 0.000135881 1.37206e-18)
(-0.0088735 0.00752798 -1.21777e-17)
(-0.00103061 -0.00701172 5.53658e-18)
(0.00113163 -0.000609222 -5.72965e-19)
(0.00814131 0.000345972 -9.01402e-18)
(-0.011249 -0.00844516 -9.8789e-19)
(0.00560187 -0.00807939 5.89317e-19)
(-0.017283 -0.00796243 1.76739e-17)
(0.000355904 0.000308493 2.51573e-19)
(0.0030518 -0.000435169 -2.89225e-19)
(9.15188e-05 0.000624364 -2.67554e-18)
(-0.00887719 -0.00751097 -2.67722e-17)
(0.00238379 -0.000918444 7.87172e-19)
(0.00181807 -0.0010789 5.64627e-18)
(0.00115628 0.00120287 3.38775e-20)
(-3.7118e-05 1.72733e-05 -4.08036e-19)
(0.000853399 0.000422828 1.14556e-18)
(-0.0088139 -0.00184724 1.15837e-19)
(0.00207071 -0.0061373 -1.92469e-18)
(0.00152074 -0.00207182 -3.37779e-18)
(-0.00618986 0.00428832 8.75225e-19)
(0.00122886 -0.00465021 8.80555e-18)
(0.00875877 -0.0142485 7.20432e-19)
(-0.0273603 -0.00526907 -9.18528e-18)
(0.000922252 0.00202481 6.86145e-20)
(0.00242327 -0.00383989 6.74614e-18)
(-0.0125961 -0.00739209 -1.62339e-17)
(0.00330633 -0.000524866 9.33568e-18)
(0.000259186 0.000594052 -9.39116e-20)
(0.0016823 0.00178735 1.52006e-20)
(-0.00868821 -0.00390261 -2.08446e-20)
(0.000362591 0.000127521 1.55117e-18)
(-7.33329e-05 2.38236e-05 7.85146e-20)
(-0.000176365 1.33647e-05 1.01086e-19)
(0.000510308 -8.99579e-05 3.48602e-20)
(0.000254431 9.01764e-06 -1.62012e-18)
(0.00446147 -0.000241669 1.84809e-17)
(-0.00156287 -0.00464978 2.36836e-18)
(0.000149361 5.60614e-05 8.97508e-20)
(0.000816209 -0.00800935 1.10157e-17)
(-8.96178e-05 2.58945e-05 7.78778e-20)
(-0.00191212 0.00037933 2.6577e-17)
(0.000135021 0.000564071 -8.51381e-20)
(0.000702045 0.000523699 3.47765e-19)
(0.0047916 -0.00145594 4.46538e-18)
(0.00179695 -0.00600697 -4.48262e-18)
(0.00684826 -0.00362327 1.25464e-19)
(6.45841e-06 -0.00117928 9.21936e-18)
(0.000360371 0.00062118 3.50702e-21)
(0.000592019 0.000570137 -9.77247e-20)
(1.12818e-05 -0.00154941 -4.29663e-18)
(0.000388573 -0.0036939 7.22749e-18)
(0.000809569 0.000170938 -1.03061e-18)
(0.00637305 -2.50675e-05 3.72188e-17)
(0.00247632 -0.00264329 -3.37654e-18)
(-0.00942199 -0.0139804 -5.11649e-20)
(0.0118268 0.00295648 4.3883e-20)
(0.00156188 0.00175614 -1.67994e-19)
(0.00245918 -0.00235068 -2.06519e-18)
(-1.51242e-05 -0.00181543 1.66801e-18)
(0.000107401 2.89678e-05 -3.69669e-20)
(0.000651077 0.000747251 -6.77826e-19)
(0.00450017 -0.000820311 1.32224e-17)
(-0.00975415 -0.0274503 -4.4547e-20)
(0.00154691 -0.0024971 -8.52741e-19)
(0.00570049 -0.000157536 -1.4295e-17)
(-0.0152235 -0.0222391 5.71526e-19)
(0.000351963 0.000160178 -2.9265e-18)
(0.000645615 0.00052556 -9.48505e-19)
(0.00180353 -0.000975373 -1.24059e-18)
(-0.00297383 -0.0043812 -1.29208e-17)
(0.00902422 0.00234868 4.48131e-20)
(0.00150093 -0.00454581 -6.42333e-18)
(-1.90106e-05 -0.00151121 4.94786e-18)
(-8.97626e-05 -0.00249392 -3.5013e-18)
(-0.00260833 -0.00870171 2.24293e-17)
(0.00176293 0.000468443 -9.0064e-20)
(0.00425268 -0.00631604 1.84561e-17)
(-0.00155997 -0.00472142 -5.74775e-18)
(0.00138057 -0.000657222 -1.26686e-18)
(0.000713763 -0.00149593 -2.4963e-18)
(0.000110717 3.00069e-05 4.87083e-19)
(0.000400556 -0.00362321 4.07711e-19)
(0.00196514 0.000447173 -7.07086e-20)
(-0.00732024 -0.00688547 4.08563e-18)
(0.00190738 -0.0013675 -1.62017e-19)
(3.66832e-05 -0.000191625 -1.67505e-19)
(0.00606294 -4.46646e-05 -2.41215e-17)
(-0.00122909 0.00103038 4.84509e-20)
(-0.0163161 -0.0234615 -5.78042e-19)
(0.00174761 -0.00109192 -7.2071e-18)
(0.00262444 -0.00150878 -2.24507e-19)
(0.00110577 -0.00270368 -6.42642e-18)
(-0.00921924 -0.00783767 -1.31696e-17)
(-7.22943e-05 1.62611e-05 -5.42314e-19)
(-0.00203695 -0.00667099 8.64783e-18)
(-0.0117878 -0.0026721 -8.16053e-18)
(0.0104916 0.0264252 -8.93625e-20)
(0.000337654 -0.000640703 -4.98269e-18)
(0.00189059 -0.00142316 3.82661e-18)
(0.000217886 5.43589e-06 -1.61171e-19)
(0.000286624 -0.000452349 -6.91596e-19)
(-5.67232e-05 -0.000950826 6.67689e-18)
(0.00230651 0.00124331 -2.55414e-19)
(0.000747911 -0.000225761 7.73779e-20)
(-0.023992 -0.00802668 -1.1915e-18)
(0.00349726 -0.00661106 -7.35902e-18)
(0.000322918 0.000301264 2.9722e-20)
(-0.00717006 -0.00648011 1.48774e-17)
(-0.00090319 -0.00301052 9.18714e-19)
(-0.000444272 -0.00321344 -2.48477e-18)
(-0.0055289 -0.00700096 -7.87182e-18)
(0.00143241 -0.000192686 1.95432e-18)
(-0.00170167 -0.0069553 5.03258e-18)
(-0.0132196 -0.00551617 -1.11829e-19)
(-6.55414e-05 8.64134e-05 -3.63291e-19)
(0.00170049 -0.00605215 -2.36855e-18)
(0.00366146 -0.00628102 -4.22108e-19)
(-0.00141629 -0.00467107 -5.57877e-18)
(0.000678604 0.000364626 -1.00416e-18)
(0.000444311 0.000326495 -1.57572e-18)
(0.000835733 0.000434224 -3.94562e-19)
(0.00381606 -0.000173964 3.65986e-17)
(0.000664558 -0.00141382 -1.18572e-17)
(8.78864e-05 0.000538903 1.76254e-19)
(-0.0017508 -0.00524158 2.03516e-17)
(0.000844435 0.000165974 -3.46469e-19)
(0.000547863 0.000398915 2.56687e-19)
(0.00465863 -0.00566273 -1.64694e-17)
(-0.00926967 -0.00280947 4.84584e-19)
(0.00152008 0.00168575 -6.9685e-19)
(-0.001563 0.000382739 5.65125e-19)
(0.00414548 0.000817949 7.85657e-19)