/*--------------------------------*- C++ -*----------------------------------*\
| =========                 |                                                 |
| \\      /  F ield         | OpenFOAM: The Open Source CFD Toolbox           |
|  \\    /   O peration     | Version:  v2012                                 |
|   \\  /    A nd           | Website:  www.openfoam.com                      |
|    \\/     M anipulation  |                                                 |
\*---------------------------------------------------------------------------*/
FoamFile
{
    version     2.0;
    format      ascii;
    class       surfaceScalarField;
    location    "900";
    object      meshPhiCN_0;
}
// * * * * * * * * * * * * * * * * * * * * * * * * * * * * * * * * * * * * * //

dimensions      [0 3 -1 0 0 0 0];
oriented        oriented;


internalField   nonuniform List<scalar> 
20580
(
0.000271052
-0.000140209
-0.000132574
-0.000581577
0.000483121
0.000108086
-0.000300299
-0.000272714
0.000483499
-0.00055601
7.25662e-05
6.5789e-05
9.61407e-05
-0.000104087
-0.000254304
0.000846457
-0.000581184
0.000845674
-0.000904578
2.06825e-05
0.000104694
-7.97078e-05
0.000159176
3.61761e-05
-0.000195455
-0.000589019
0.002796
-0.00219485
0.000308796
-0.000824923
0.000521168
-0.000126706
-0.00133197
0.00148808
0.00234631
-0.000531326
-0.00180658
-3.24084e-05
-8.70846e-05
0.000119454
-0.000116738
-0.000145389
0.000262196
0.000616585
-3.61112e-05
-0.000584486
-0.000342883
0.000313211
2.95413e-05
-0.000726875
-6.42863e-05
0.00081242
-0.000190263
6.97353e-05
0.000120822
0.000109316
0.000158926
-9.40337e-05
0.000226721
-0.000131929
0.000310502
0.00124162
-0.00153378
-0.000638756
0.000380205
0.000259354
8.11364e-05
-9.102e-06
-6.18604e-05
-0.000410807
0.00012016
0.000291235
0.000775933
-0.000618619
-0.000161529
0.000381611
-0.000157143
-0.000224404
0.000100989
-0.000105548
4.44842e-06
0.000387768
-0.000289878
-9.81594e-05
-0.00014021
0.000962998
-0.000792127
3.29699e-05
0.000376067
-0.000409007
-0.000126112
0.000956634
-2.34562e-05
-0.000187362
0.000211334
-0.000146629
3.27228e-05
0.000113772
-0.000375911
-0.000349322
0.000726978
-0.00031193
0.000463687
-0.000151393
6.31967e-06
7.7213e-05
-0.000569383
0.000416015
0.000153996
0.000262049
-2.89434e-05
-0.000233312
0.00238022
-0.00167964
-0.000674523
7.00694e-05
9.86346e-06
-7.98513e-05
0.00025079
0.00013697
-0.000160219
-0.000207058
-0.00103187
0.000743798
0.000291454
0.000165067
0.000164559
-0.000329839
1.64663e-05
0.00151879
-0.00149823
3.15769e-06
0.000178451
0.00031141
-0.000458713
0.000145994
0.00184081
-0.000564509
-0.00125153
0.000215844
0.00213692
-2.56132e-05
-0.000111465
0.000137046
0.00273902
-0.000737643
-0.00199408
-1.9379e-05
0.000632091
0.000846787
-0.000462281
-0.000392675
-0.000211184
0.000228343
-1.72914e-05
0.00154442
0.000854423
-0.000181723
0.000158257
8.75513e-05
-1.72347e-05
0.000500124
-0.000371284
-0.000130122
6.15791e-06
-7.37051e-05
6.81543e-05
0.0013499
-0.00144531
0.000165802
0.000215587
0.00243696
-0.00246021
3.08522e-05
0.000976018
0.000885208
0.000996783
-0.000546716
-0.000447894
0.000705629
0.000293016
5.8415e-05
-5.21894e-05
0.000237837
-0.00095826
0.000366302
0.00138329
-0.00172369
-0.00047777
0.00047127
6.47418e-06
-0.000157051
0.000350863
-0.000193775
-0.000191318
0.000213138
-2.2004e-05
-0.00247297
0.00179666
0.000692867
-2.25723e-05
-5.08097e-05
-0.000493057
0.000622798
-0.000135395
0.000584014
0.00114781
-0.00171303
-3.38937e-06
-0.000339275
-0.000636361
0.000401993
0.000259066
-6.1392e-05
-0.00034831
0.00013014
-0.00199758
0.00190531
-0.00120834
0.00160061
-0.000338498
-0.00013938
0.000478885
-0.000963047
0.000592746
-4.77732e-05
-0.000104375
0.000151913
-7.90687e-05
5.68043e-05
0.000343146
0.000121905
-0.000465228
0.00143452
-0.00110813
1.29797e-07
-0.000261899
0.000261917
0.00227837
-0.00232651
6.3939e-05
-0.000294278
0.00032729
0.000350868
0.00239313
0.000709961
-0.000849294
-2.54902e-05
-0.000149494
-2.85777e-05
0.000371672
-0.000256448
0.000123246
0.000132882
0.000565308
-0.000919058
0.000356631
-0.00277802
0.00135076
0.00146291
-0.000209453
-0.000414677
0.000622178
2.6774e-05
-0.000100039
7.33672e-05
-0.000822598
0.000310391
0.000514942
0.000309644
-0.000520655
-0.000590275
0.00138976
-0.000800013
-0.00135589
0.000292739
0.0010629
0.00239094
-0.00254877
0.000171589
-0.000224041
0.00137981
-0.00112632
-0.000344628
0.000232108
0.00011373
-0.00153188
0.00134332
0.000170292
-0.000327265
0.000813151
-0.000116542
8.82197e-05
-0.000793589
-0.00166264
0.000454735
0.00122026
-0.00167797
0.00173572
-0.000169168
-0.000137966
0.000307785
0.000466339
-0.000455792
-7.84489e-06
0.000319665
-3.5224e-05
-0.000285729
0.000358445
0.000480798
-0.00117945
0.000684526
0.000528191
-0.000101253
0.000167276
0.000372043
0.00011146
-2.6072e-05
-0.000451648
-0.000988156
0.000301025
0.000691219
0.000818467
0.000262796
-0.00105477
-0.000945255
-0.000635492
0.00160205
-0.000114136
7.37561e-05
4.00053e-05
-0.000154161
0.000139234
1.48971e-05
0.000913838
4.77596e-06
-0.00092033
-0.00100268
-0.00173231
0.00091499
-0.000792711
-0.00011586
-3.04338e-05
-7.75801e-05
0.000108005
-1.92324e-05
-0.00016496
0.000185506
-0.000360654
0.00161883
0.00111058
-0.00013762
-0.000959497
-0.000203788
-0.00036556
-4.83516e-06
-0.000141958
0.000690769
-0.000378547
-0.000192077
1.19713e-05
0.00017967
-0.000932331
-0.000211332
0.000333149
-0.00160622
0.000564073
0.00104236
5.31915e-05
0.000226861
-0.000281565
0.000212953
-0.000551994
0.00028692
0.0017504
-0.00202657
0.00261824
-0.000326597
5.29752e-06
0.000784709
-0.000790784
-0.000280876
0.000236664
4.45849e-05
-0.00199473
0.000885485
0.00112687
-0.000338419
-0.000273243
0.000347492
-1.6727e-06
0.000222347
-0.000220449
0.000881486
3.78142e-05
0.000514104
-0.000205565
0.000219406
-0.000389005
0.000452953
1.55744e-05
-6.12781e-05
0.000183102
-0.000121719
0.00192911
-0.00261612
0.000694438
-0.00277926
0.00232201
0.000463661
-0.00162261
0.00157082
8.5318e-05
8.64559e-05
0.000175512
0.000230366
-0.000247131
1.54402e-05
0.000524264
-0.00048892
-4.07612e-05
0.000182544
-0.000146946
-2.05048e-05
-0.000375526
-2.7285e-05
0.000402062
-0.000189796
-0.000148813
0.000537505
-0.000227766
9.64033e-05
-0.00012889
0.000276296
-0.000232275
-4.46592e-05
-5.6427e-06
0.000281166
0.000127684
-0.000153342
-0.00125493
-0.000394736
-0.000138985
4.81787e-05
9.10234e-05
1.15465e-06
0.00138121
-0.00135232
-0.000423069
-0.000711563
-8.38783e-05
0.000314171
-0.000229421
-9.29868e-05
0.000187282
-4.93296e-05
-9.55955e-05
-0.000160216
-8.25117e-05
0.00026136
-0.000179137
0.000238943
0.000180149
-0.000419811
-0.00104165
0.00066093
-0.00061731
-7.69981e-05
0.000686292
-0.000255372
0.000493995
-0.000117733
-3.4743e-05
-0.000463528
0.00152246
-0.000360229
-0.00114969
-0.000264583
0.000246487
-0.00018213
-0.000137022
0.000185716
-0.000187134
4.13303e-05
-0.000228459
-0.00185755
0.00166228
0.000196269
-0.00174836
0.00266873
-0.000911829
-0.00148661
0.00146094
6.09113e-05
-7.95873e-05
-0.000201928
7.92111e-07
0.000227698
4.32133e-05
-0.000130327
-0.000700726
0.000457146
-0.00059765
-0.00137885
-0.000107592
-0.00054035
0.000644944
-0.000145309
0.000186307
-0.000322059
6.49412e-05
0.000262457
0.00103973
0.000115984
-0.0011324
0.00129929
-0.000553504
-0.000747414
0.000231429
0.000304599
-0.000535769
9.79733e-05
3.31858e-05
-0.000131317
-8.377e-05
8.81895e-05
-4.8914e-06
0.000194922
-0.000312662
-0.000546293
0.000558325
-1.08886e-05
0.000139237
-4.12822e-05
-0.00128361
-0.000806934
0.00209188
-0.00050543
0.000122106
0.000380939
-0.000168935
0.000216667
-4.79155e-05
-0.000910136
0.000893236
2.91024e-05
0.000705501
-0.000133974
-0.00057405
0.000674482
-0.00160035
0.000444062
8.51616e-05
-0.000711547
0.000628017
-0.000581694
-0.00015768
0.000743032
-0.000208535
-0.00128327
0.00150721
0.00245398
-0.00223094
9.52511e-05
-0.000148004
5.26679e-05
0.000857277
-0.000525342
-0.000315543
-0.000102386
-0.000397946
-0.000672894
-0.00033031
-0.000213474
9.42027e-05
0.000117725
8.92813e-05
-0.000136946
4.60534e-05
0.000149731
-0.000196664
0.00175005
-0.000461655
-0.00128689
-0.000162687
-0.000345427
-2.2746e-05
-0.000286245
0.000310887
-0.000846559
0.000851446
0.00213134
-3.3726e-05
-0.00206208
-0.000929249
-0.000638983
0.000429644
0.000209258
-0.00141243
-0.000443177
-0.000839545
-5.58127e-05
-7.75912e-05
-0.00215798
1.74416e-06
-8.58088e-05
0.000839181
-0.000946052
-0.000425081
-0.000212514
-7.40804e-05
9.07908e-05
-1.68921e-05
-0.000269421
-0.000549821
0.00016594
2.30776e-05
-0.000610884
-0.000115657
0.000727759
1.60434e-05
-8.55165e-05
6.9591e-05
0.000384766
-0.000219864
0.000664862
-5.36297e-05
0.00027423
-0.000222651
-0.000761554
7.26804e-06
0.000753506
-5.35878e-05
0.000148496
-0.000726386
0.000102034
-0.000365215
-0.000550619
0.000585309
0.000902617
-0.0014756
0.000271922
-3.21207e-05
-0.000239574
0.000195821
-0.000128651
-6.32598e-05
-0.000174149
2.10489e-05
0.000222601
0.000126735
-0.000322616
0.000198771
-0.000524175
-4.11236e-05
-0.000334518
-0.000291587
0.000431099
-0.000139221
-0.000329903
-0.00112529
-8.16777e-05
0.00221068
-0.00229884
0.000100687
-0.000226621
2.64108e-05
0.000199523
-6.94044e-05
0.000145804
-7.74616e-05
0.000238381
-0.000109745
-0.000287473
0.000102959
0.000154166
4.3174e-05
0.0028424
-0.00091971
-0.00189817
-0.00122681
0.000635214
0.000229496
-0.000480403
0.000249673
-0.000132542
9.02834e-05
4.11261e-05
0.000462609
-0.00230919
0.00186941
0.000168596
0.00229131
0.000339108
-0.000101315
-0.000113602
0.000215345
-0.000358445
0.000494204
-0.000135824
-0.000222771
7.41149e-05
0.000148359
-5.23643e-05
0.000893547
-0.000134996
1.86649e-05
0.000163862
-6.79113e-05
-9.59226e-05
-6.88788e-05
-0.000256722
0.000324661
-0.000171503
-0.000112697
8.51611e-05
-0.000186528
4.6875e-05
-8.10407e-05
3.40855e-05
-0.000503104
0.000247276
0.000261923
0.00032755
-0.000102086
-0.000227013
-0.000217014
-0.000279769
0.00049694
-0.002071
0.00117782
0.000930996
0.00139271
-0.00147874
0.000117002
0.000166199
-0.000236043
0.000928629
-0.000621502
-0.000302741
0.000268287
0.000656635
-0.000898109
-0.000568878
0.000665919
-8.32034e-05
0.0004614
0.00170422
0.000143492
5.87958e-05
-0.000132507
-3.3461e-05
0.000226363
-0.000191794
-0.000194901
-3.64144e-05
0.00019546
9.85772e-05
-0.000194016
-0.00224717
0.00074583
0.00152901
-0.000353169
-7.49309e-05
-3.93247e-05
0.00258612
-0.00190292
-0.000674611
-0.000106288
-1.60639e-05
0.000102642
-8.69704e-05
0.00195158
-0.00165525
0.00221617
0.00037553
0.000254255
-0.000155014
-0.000156691
4.13384e-05
0.000114793
-0.000373824
0.000348145
2.67743e-05
-0.000224846
0.000171935
5.27691e-05
-0.00010929
0.000233512
-5.85013e-05
-8.05332e-05
0.00137878
-0.000250114
9.92976e-05
0.000151431
9.37286e-05
-0.000110506
-0.00014183
9.38786e-05
4.63189e-05
0.000383281
0.000134878
0.000242161
-0.000458642
0.000647201
-0.000439006
-0.000207646
0.000473477
-9.88822e-05
-0.000373634
9.11202e-05
-0.000372774
0.000282152
-0.00145347
0.000648503
0.00080367
3.74021e-06
-0.00019589
-0.000106945
8.70218e-05
2.00138e-05
3.46747e-06
9.73281e-05
6.48564e-05
0.000995414
0.000372137
-5.35805e-05
-0.000318702
0.000216733
6.12035e-05
-0.000629129
0.000683299
-5.53998e-05
6.30636e-05
-0.00069384
0.000161912
-0.00144516
-9.45987e-05
-0.000184554
0.000279376
0.001843
-0.000555985
-0.00128058
0.000217113
-0.000216897
-0.00149397
0.000731706
0.000761324
-0.00035536
0.000440514
-2.26136e-05
-0.000218722
0.000182549
-0.00132101
0.000128915
0.00120605
0.000323893
0.00015007
-0.000553955
-0.000613926
-0.00141459
0.000169017
0.00178503
-0.00140759
-0.000371392
0.00039876
0.000720793
-0.000293017
-0.000200923
-6.40205e-05
-9.30234e-05
-0.000109501
-2.52567e-05
-0.000563026
-0.00189864
0.00171013
-0.000897156
7.25358e-05
0.000332129
6.56904e-05
-0.000398338
0.00067986
-0.00242021
0.000102633
-0.0002724
-0.000222512
0.000128102
0.00012684
0.00032154
0.00146861
-0.000102569
-0.000324519
-0.00189369
-0.000657803
0.000181107
0.000477816
0.000723736
-0.000411302
0.000166599
-0.000134092
-3.04343e-05
0.000443885
-0.00014011
0.000471928
-0.000532859
0.00143056
1.38308e-05
0.000165463
1.24443e-05
-0.000177914
0.000517659
-0.000339407
-0.000164417
-0.000106871
-3.51738e-05
0.000221775
-0.000157532
-6.51465e-05
0.00010852
-8.15964e-05
-0.001019
-0.000286652
0.00035833
-0.000742061
0.00031954
0.000179819
-0.000125649
-0.000294851
0.000420799
0.000363856
0.000259069
-0.000623445
-0.000221437
-8.52881e-05
0.000306406
-0.000895335
-0.000138588
0.00104999
-0.000200545
0.000118154
-0.000427867
0.000267245
0.000398031
3.76179e-05
-0.000430732
7.61723e-05
0.000195728
-0.000399656
0.000493623
-8.85694e-05
8.33628e-05
1.7084e-05
-0.000100576
6.93075e-05
0.000258625
0.000878638
-0.000286154
-5.08765e-05
0.000155583
-0.000106033
-0.000775367
0.000310785
0.000465925
-0.00087657
-0.00189567
-0.000243544
0.000610535
-0.000359862
0.00043675
0.000496251
-0.000575794
-0.00131771
0.00171435
-0.00036962
-5.0577e-05
-0.0001737
0.00017723
-9.47761e-05
-8.25448e-05
-0.00115106
-0.0013092
-0.000286345
0.000405994
0.000365452
0.000155736
-0.00052112
0.000794668
0.000143012
-0.000922015
0.000805857
-0.000586579
-0.000217462
0.000700701
-0.000123687
-0.000581958
-0.000384956
1.18085e-05
0.000472358
0.000433703
0.000261243
0.000509706
0.000280523
-0.000824987
6.98167e-05
-1.8587e-05
0.000261212
-0.000244221
7.99361e-05
-0.000371446
-6.27263e-05
0.00012603
-0.000735826
0.00135291
0.00150993
-0.000107247
-0.000546689
-0.00067861
0.00027493
0.000409051
-0.000420772
0.000775929
-0.000223166
-0.0008094
0.00105548
-0.000249753
-9.66366e-05
7.5248e-05
-0.000109598
3.43004e-05
-0.000256422
-0.000113056
0.000369587
-0.000742745
-0.000140158
0.000104791
-0.000337708
2.79587e-06
0.000333829
0.000138991
-0.000497615
-0.000352034
0.000255043
9.43034e-05
5.00158e-05
0.00032206
0.000554692
0.000107116
-0.000660556
-0.000337101
0.000639206
-0.000301663
-0.00060218
0.00119702
-0.000128844
0.000195623
-6.67079e-05
-0.00250493
0.00183487
0.000681641
2.95722e-05
-7.95478e-05
-0.000185409
-2.5959e-05
-0.000249777
0.000278504
-2.93021e-05
-0.00239397
0.00181531
0.000103853
0.000387016
9.758e-05
-0.000385647
-0.00109021
9.21297e-05
0.00103894
0.000107348
-3.23103e-05
0.000134976
-0.000229731
0.000144781
7.64994e-05
0.00041278
-0.000187584
-0.000228493
-0.0010726
0.000198842
0.00163518
0.00084696
-0.00248106
0.000333023
-0.000458333
0.0025526
-0.00177399
0.00251081
-0.000874525
-0.000501174
0.000276588
0.000224128
7.55511e-05
0.000101604
0.00119816
-0.00154258
-0.000464089
0.000293622
0.000169988
0.00221874
0.000219789
-0.000122743
-0.0013199
-6.67674e-05
0.000877274
4.11361e-05
0.000413609
0.000304893
-0.000722765
-0.00106698
0.00176686
-0.000676996
0.000391676
-0.000949703
0.000575533
-0.000550451
-0.000434739
-0.000243397
-0.000219654
0.000470781
-0.000129332
-0.000210387
0.000338904
-0.00181642
0.00131826
0.000537712
-0.000304286
0.00061279
-0.000313119
-0.000192788
0.000357197
-0.00160227
0.00100188
0.000604434
-2.39169e-05
0.000113972
-9.46171e-05
-3.23423e-05
-0.001381
0.00144123
0.000162271
0.000242946
-0.000300946
3.44214e-05
0.000267277
-0.000830065
0.00029231
0.000539762
0.000341942
6.58297e-05
-0.000408092
-0.000234192
0.000181351
-8.23621e-05
0.000441399
-0.000360383
-0.000794259
0.00186343
3.47107e-05
-0.00186849
-2.35786e-05
-0.000104154
0.000127743
-0.00014537
0.000605272
0.000821764
-0.00142602
-0.000715416
-0.00130657
0.00203907
-3.33924e-05
-0.000397644
-0.00120819
-1.54308e-05
-0.000516343
0.000532879
0.000552458
0.00184917
0.000887145
-0.000946645
6.90103e-05
0.000546102
0.000381232
0.000115718
-0.000501049
0.000111193
-2.41164e-05
-9.20486e-05
-0.000246015
0.000180395
-0.000437884
0.00089294
-0.00162584
0.000740746
0.000310398
0.00257593
-0.00217473
-0.000375538
-0.000317713
-6.99903e-05
0.000763891
9.2673e-05
-0.000238251
-0.000135174
-0.000534399
-0.00129524
-0.000693758
-0.000903188
-0.000267821
-5.42929e-05
0.00019637
-0.000260361
-0.00016993
0.000430474
-0.000112083
8.85196e-05
-0.000433379
0.000303503
-0.000410829
0.000484202
-7.33177e-05
-0.00015967
-0.000221971
-4.575e-05
0.000267534
7.73342e-05
0.000554725
-0.00179661
0.00124449
-9.25649e-05
0.0011439
-0.00104247
0.000497629
0.000309046
0.00243879
0.000365075
0.00053693
-0.00182623
0.0016516
-0.000445788
-0.0012034
0.000234464
-7.44708e-05
-0.000159639
-0.00022001
0.00046671
-0.000240518
-0.00145014
-0.000654623
0.00211344
0.000198163
-0.00083797
0.000644104
-9.56552e-05
0.00039965
-0.000303254
-0.000118959
-0.00205089
0.00217301
0.000308219
-0.000255964
-5.24383e-05
0.000413159
0.00139172
-0.00177498
-0.000117823
2.69054e-05
9.09588e-05
-2.86123e-05
-0.000799091
0.00174547
-0.00158376
0.000323996
-0.000180703
-0.000140957
0.000144446
0.000420528
-0.000563939
-4.0172e-05
0.00113912
-0.000461221
5.08874e-05
0.000410787
0.000663589
-0.000165228
-0.000235133
-0.000224994
0.000459004
8.6497e-05
0.000226613
-0.000313694
-0.000121681
-6.83667e-05
-0.000168209
9.21244e-05
7.56429e-05
0.00173816
-0.000836035
0.000451425
-0.000175108
-6.89343e-05
4.89824e-06
6.3946e-05
0.00015518
-0.000393444
-0.000305033
0.000310908
-5.25481e-06
3.77664e-05
0.00177238
-0.00178159
0.00179481
-0.00030379
-0.00023269
0.000536188
7.06439e-06
7.62074e-05
-7.69594e-05
0.000518652
-0.000437522
-0.000363504
0.000772051
-0.00241228
0.000230417
0.00218822
0.000340607
0.000202059
-0.000544205
-0.000113236
8.27466e-05
0.00023144
-1.30734e-05
-0.000218396
0.000203756
-0.000355228
0.000155212
-0.000171277
-0.000116614
0.000287944
0.000677337
0.0014429
0.000214755
-0.000719996
-1.72894e-05
0.000731285
-8.24302e-05
-0.000272294
0.00179794
-0.000635484
0.000185252
0.000136848
-0.000322804
-0.00043483
-0.000339037
0.000271069
-0.000470076
0.00026076
-0.00220294
-8.22211e-05
-9.08298e-05
-0.000139149
0.000230193
0.00146781
-0.00123657
-0.000213931
0.000577799
-0.000556671
-1.84787e-05
-0.000103911
-0.000299442
0.000398558
-0.000439339
-0.000136699
0.000570991
-6.98514e-05
-0.000268819
0.000340955
-0.000135012
-0.000225642
0.00036055
8.45621e-05
-3.78899e-05
0.000432963
0.000207726
-0.00063164
-8.2832e-05
-0.000345305
-0.000487872
0.000134051
0.000349333
0.000355076
-0.00034656
-6.21691e-06
-0.000133525
0.000384229
6.42123e-05
0.000164123
-0.00149276
-0.000307539
0.00182603
0.00167671
-0.0011595
-0.000196493
-0.000111784
0.000248391
-0.000568675
0.000332409
0.00023539
0.000637663
-0.000299682
-0.000545227
0.000530969
-0.000148435
-0.000577968
0.000327809
-0.000259917
-0.000339356
-0.000299402
8.29728e-05
-0.000313783
0.000231002
-0.000773411
-0.000276586
0.00105487
-3.0124e-05
-8.76794e-05
0.000381752
-0.000117804
-0.000264545
-0.000405868
0.000164572
0.000241143
1.40477e-05
0.00108102
-0.00107524
1.70909e-05
-0.000389752
-0.000167379
3.84617e-05
-7.52554e-05
-0.00168297
0.00178496
0.000153896
-0.000179501
9.13328e-06
-0.000179607
0.000170272
0.000280916
-0.0002112
-0.000246454
-0.00175326
0.0020215
0.000482447
-0.000564743
-0.000511054
-0.000352902
0.000866816
-0.00040491
-0.000197638
0.000603045
0.00131255
0.00126529
9.05012e-05
-0.00013797
8.45651e-05
-0.00151231
-0.000381032
0.00189473
0.000366104
-0.000459961
-0.000171943
-0.00160436
0.000139432
-9.30282e-05
0.000218941
0.000109047
0.000272007
-0.00138965
-0.0004778
0.00187553
-0.000713689
0.000290318
-0.000999703
-0.00153442
0.00163393
-0.00175039
0.00117017
-0.00126806
0.000106977
-0.000309198
0.000137968
-3.3859e-05
0.000311775
-0.000278263
0.000161074
0.000760123
0.00120872
-0.000244036
-0.000926909
-2.54346e-06
0.000418956
-0.000405629
0.000256646
5.88189e-05
-0.000452466
0.000859039
-0.000274322
-0.000127174
0.000402259
0.000276726
-0.000453137
0.000182454
-0.000700685
0.00130695
-0.000463324
0.000478769
-0.00150438
0.00014322
0.00136914
-0.000189021
-0.000218183
0.000407005
0.00043171
-0.000453162
-1.27178e-05
-0.000738262
0.000746152
0.000308449
-0.000391423
-0.000149704
0.00031363
-0.000163626
-0.00158281
-0.000685034
0.000281133
-0.000709208
0.000912189
0.000374264
0.00045408
-0.000826344
-0.000133197
0.000141701
-0.000203576
0.000350345
-0.00014118
0.000145766
0.000162534
0.00044189
0.000429663
-2.83033e-05
-0.000616085
0.000205057
0.00029198
-0.000264068
-2.73403e-05
0.000390192
0.00013748
0.000164364
-0.000437435
-2.71843e-05
-0.000289923
-0.000167523
-0.000238429
-0.000133706
0.000174856
-4.12275e-05
-0.00202839
0.00077982
0.00127112
0.000339579
5.07284e-05
3.91993e-05
-8.99161e-05
-0.000121425
-0.000380848
0.000505759
0.000502129
-0.000620415
-9.07897e-05
-0.000531
0.000178722
-0.000367968
-0.000173206
-0.000268365
0.000441228
0.00063473
0.00158453
-4.71433e-05
0.000176611
-0.000130265
-0.000446177
0.000209811
-0.00165603
-0.000740661
0.00240189
0.000359662
6.65002e-05
-0.000426664
0.000107099
-0.000383443
-0.000359274
0.000745721
-0.00025517
-4.12869e-05
0.000295041
0.000412677
-0.000184084
0.000676499
-0.00132295
0.000649922
-0.000788557
0.000478258
0.00030565
0.00114108
-0.0020066
0.000868115
0.00126968
-0.00184967
0.000488817
-0.000995304
-0.000269289
-0.00124129
0.000355984
0.000179545
6.48063e-06
-0.000198391
0.000173782
3.93237e-05
0.0003145
-0.0010839
0.000233413
-0.000748207
-0.00010065
0.000170503
0.000152382
5.50446e-05
-0.000207436
-0.000505546
4.47458e-05
7.71011e-05
0.000436002
3.40801e-05
-0.000155506
0.000121257
-0.0015067
0.00126593
0.000248932
-0.000466306
0.000162048
-7.48164e-05
0.00084286
-0.000900309
7.93319e-05
3.83017e-05
0.000288713
0.0001034
-0.000203741
-0.00141903
0.00042694
0.00100725
-0.00211206
0.000154112
0.000268219
0.00171415
-0.0019456
-0.000612788
-0.000142533
0.000751745
-0.000288326
6.66715e-05
0.000280867
-0.000589092
7.0348e-05
2.03185e-05
0.00105165
0.000199731
-0.000409835
0.000236214
-0.00078731
-8.5288e-05
0.000876332
-9.61813e-06
0.000102419
0.000537055
-0.000371464
0.00083573
-0.000352744
0.000221488
-0.000513616
-0.000126107
0.000115957
-0.000696525
0.000315242
-0.000396054
-0.00110103
-0.000247699
-0.000171459
-0.000879224
-0.00010609
-0.000597935
0.000705788
-0.000629538
-0.00020666
0.000314978
0.000139114
-0.000667328
0.000534412
-0.000442476
-8.62559e-05
0.000529747
-0.0013451
-0.00115063
0.000517054
-0.00228562
0.00148072
0.00119998
-0.00285107
-0.000223148
0.000357085
-0.000134002
-5.11016e-05
0.000248836
-0.000188916
0.000548618
-0.000204049
0.000190221
0.00034814
0.000210348
-9.20285e-06
-0.00020121
-8.88632e-05
-1.11009e-05
8.54492e-05
-0.000292561
0.000667238
-0.000291383
-0.000746233
-0.000836998
-0.00168204
0.00228859
-0.0021143
-0.000598679
7.89166e-05
0.000541657
-0.000425076
0.000437306
0.000129991
-0.000314374
2.0333e-05
0.000295417
-0.000336012
0.000356771
-2.00994e-05
-0.000590786
0.00127021
-8.01582e-06
-9.76562e-05
-0.00096537
0.0016428
-0.000661998
-0.000205584
0.000197665
-0.000205232
-0.000182978
-0.000372975
0.000898571
-0.000244649
-0.000648379
0.000286567
-8.7933e-05
-0.00211814
0.00208687
3.36644e-05
-0.000173546
-0.000113791
0.000287986
0.000707491
0.000151221
0.000298756
-0.000311852
1.29693e-05
4.98388e-05
-0.000183838
-1.9921e-05
-4.69055e-05
0.000142429
-9.57916e-05
-0.000190989
0.000493041
-0.000309024
-9.6009e-05
0.000128658
-0.00191673
0.000701025
0.00122582
0.000224546
0.000249643
-0.000397319
0.00165583
-0.00168632
3.17813e-05
0.00237319
-0.000611366
-0.000281716
0.000486444
-0.00019577
0.000622886
-0.000496738
-0.000130665
-0.000125278
-0.000164964
0.000290281
0.000965301
-0.000207948
-0.000747848
0.000394108
0.00021715
-0.000608037
2.72291e-05
0.000528778
4.14465e-05
0.000190039
0.000945222
0.000716789
-0.00179966
0.000777989
0.00103102
-0.000268574
0.000415353
-0.000147052
-7.22621e-05
-0.000504869
0.000194858
0.000407273
-0.000348666
-3.53902e-05
0.000207371
-0.000420462
0.000335421
-0.000312882
-2.14852e-05
-0.000333345
-0.000120079
0.000451352
0.000330801
-1.24136e-05
-0.000547322
0.000650971
-0.000101016
0.000225854
0.000472386
0.000771273
-0.00125057
0.000172188
-0.000179915
5.61713e-05
0.000299403
-0.00101126
0.00104468
0.000829805
-0.000364262
0.000106891
0.000529203
-0.000644127
-0.000709769
0.000605669
0.000106724
-0.000808509
-0.000253185
0.00110072
0.00024196
0.000538639
-0.000778229
-0.000690937
-2.80217e-05
-0.000375116
0.000402564
-0.000611552
6.70841e-05
0.000519956
-0.000433396
-8.64262e-05
0.00143555
-0.000871442
-2.43274e-05
0.000285964
0.000368251
-0.000653168
0.000603132
-0.00128278
0.000718974
0.000206664
-0.00044394
0.000275652
-0.000123072
-0.000413428
0.000478491
0.000228792
0.000243707
0.000171625
0.00209921
-0.000535472
-0.00153388
-0.000584587
-0.00142215
-1.09864e-05
0.000901107
-0.000886244
0.000561916
0.00127841
-0.00182359
0.00145849
-0.00116087
-0.000267649
0.000609874
-0.000228898
-3.00077e-05
-0.000197531
-0.00023257
4.04867e-05
0.000191862
-0.000608543
9.39589e-05
-0.000428841
-0.00129867
-0.00110129
0.00240591
0.00100119
-1.40191e-05
-0.000443213
-0.000237563
0.000681424
3.59773e-05
0.000108352
-0.000254196
0.000680158
-0.000799544
0.000120337
0.000212301
-0.000248463
7.13455e-05
-0.000400226
0.000329664
8.73424e-05
-0.000535538
0.00247111
0.000104865
-0.000866229
0.000787933
0.000128216
-0.000253359
-0.000937024
0.0020813
-0.000345953
0.000413697
-6.39021e-05
-0.00110947
6.82532e-05
0.00020796
-5.15203e-05
-0.000156301
1.4603e-05
-0.000126287
4.27106e-05
-0.000388375
-0.00209168
0.00244158
-0.000337311
-0.000810387
0.000544051
-0.00019551
0.000216997
-2.13061e-05
-0.000355062
-0.000691835
0.00105054
0.000536149
-0.000261804
0.00207434
0.000421082
-0.000635574
0.00022288
0.000100291
0.000815822
-0.000864914
0.000530565
-0.000257883
-0.000273284
0.00234325
-0.000801809
-0.0015356
0.000238926
0.000192185
0.00106155
-0.000791181
-0.000251604
0.000129608
-0.000174284
4.47023e-05
0.000154202
-2.75927e-05
-0.000126555
0.00069246
-0.000101412
-0.000584267
-0.000698567
0.00015928
0.00058455
-0.000649881
0.000330482
0.000319896
-0.000161609
0.00041136
-0.000249935
-0.000163357
0.000602896
-0.000540401
0.000418285
0.00237251
-7.68109e-05
0.000312887
-0.00031774
4.63768e-06
-0.000120536
0.000987242
-6.02061e-05
0.000163988
0.00022924
-0.00203877
0.00183507
-0.000592615
0.000731456
-4.14009e-05
0.000339783
0.000203435
-0.00148077
0.00147556
0.000136068
-0.000603797
3.37781e-05
5.04733e-05
-8.43726e-05
0.000731161
-0.000439686
-0.000290924
9.00929e-05
-3.91597e-05
-0.00152206
0.00122587
0.000155026
-0.000121158
0.00211379
-0.00163119
0.000208117
-0.000966647
-0.000954818
-0.00165211
-8.06061e-06
-0.000236839
-0.000813618
-1.06094e-05
0.000828217
-7.46884e-05
-1.23451e-05
8.6978e-05
-0.000198773
0.000226914
-2.83526e-05
0.000417238
0.000458717
0.000263026
-7.61931e-06
-0.000448462
0.00037547
-0.00150292
-0.000153875
-0.000301257
-0.00034826
0.000544651
-3.6421e-05
0.000198423
-0.000194734
-0.000110848
0.000539605
-0.000126489
-0.0017716
0.00172174
1.61117e-05
0.000210484
-0.00108334
0.000300295
0.000136861
-0.000338707
0.000350563
6.98913e-05
0.000658401
9.72929e-05
-0.000754297
-0.000182393
4.85828e-05
-0.000172654
0.000124801
0.000130822
-9.94027e-05
-0.000219865
0.000317326
-0.000429718
-0.00201956
5.19911e-05
-0.000538641
0.000491789
-0.000163728
-0.000379121
-9.25008e-05
-0.000174856
0.000267405
-0.000204229
0.000170492
0.000124738
-0.000365464
0.000240282
0.000136361
-0.000100629
-0.000681813
0.000126246
0.000350824
-0.000578701
0.000228118
0.000485967
-0.000134977
-0.000277121
0.00011768
0.000159524
0.00021179
-0.000234932
-0.000291043
0.000525367
-0.00183769
0.000220311
-4.3595e-05
-0.000718281
0.000166309
-0.000185751
1.87837e-05
-0.000387833
-0.00101616
-5.09611e-05
-0.000237877
8.29844e-05
-8.41209e-05
1.13381e-06
-0.000925332
-0.000706877
0.00164793
-0.00011741
-0.000528395
-0.0020068
0.000540147
0.00100001
-0.00190513
0.000133798
6.159e-05
-0.00167381
0.00035489
0.00135385
0.000499736
-0.000443112
-4.37411e-05
0.000133069
0.00166261
-0.00120222
-0.000442166
-0.000385905
0.000248784
0.00198628
-0.000434844
-0.00154553
-0.000325289
2.78925e-05
0.00029543
-0.000101534
-1.45834e-06
0.000102938
0.00143706
-0.000347536
-0.000222364
0.000397977
0.000646937
-0.00103453
9.20595e-05
0.000607281
0.000538911
0.000192703
-0.00165589
0.000535833
-0.000528273
-5.79576e-06
-0.000532943
-5.15871e-05
8.54611e-05
0.000385637
-0.000370771
-1.81495e-05
-0.00033331
0.000221439
0.000111708
-0.000437945
0.000480871
-0.000103189
8.5493e-05
1.79274e-05
-0.00016459
-5.70278e-05
0.000221743
-0.000229323
-0.000103939
-0.000328406
5.46222e-05
0.00027243
0.00239033
-0.00177656
-0.000599706
0.00141597
0.000711699
0.000432806
4.98662e-05
-0.000481584
0.000612072
0.000541161
-0.00236093
0.00182856
3.33267e-05
0.0011782
-0.00152538
0.00180974
-0.000562275
-0.00124358
0.00145933
-0.000514317
-0.00150862
-0.000317801
-0.000146583
-0.00134254
0.000885862
-0.000325576
-0.000570878
0.000814342
0.000682335
-0.00148187
0.00014586
0.000179823
0.00142684
2.25597e-05
-0.000168864
0.000122041
4.67246e-05
0.000550838
-0.000220202
-0.000331471
0.000262832
-0.000363165
0.000104318
0.000814907
-0.00100649
0.000198344
7.57885e-05
7.1427e-06
0.00093341
-0.000421641
0.000323613
0.000502598
-0.000551765
0.000410947
-0.00143874
0.00103828
0.00179255
0.000555646
-0.00141185
7.99838e-05
0.00136379
0.00083932
0.000434163
-0.00126746
0.00196146
-6.95192e-05
-0.00148705
-0.000149052
-0.000874753
-0.000579102
0.00218171
0.000145033
-3.03923e-05
-0.000675908
0.000465194
-0.000900812
2.81583e-05
-0.0001786
0.000150126
0.000106874
-0.000106712
-4.28843e-07
-3.05818e-05
0.000116322
-8.53687e-05
-0.000273438
-3.14498e-05
0.000475846
0.000223015
-0.000685943
0.000197219
0.000152674
-0.000102225
-5.06968e-05
-3.53694e-05
0.00125387
-0.00216511
0.00151945
-0.000396565
-2.46861e-05
-0.00112543
-0.000793174
0.00192357
-0.000934253
-2.95428e-05
-7.75269e-05
-0.000184754
0.000550533
0.000363249
0.000624031
-0.000983656
0.00101907
-0.00115318
0.000156405
0.000249711
8.53674e-05
-0.000114337
-0.000467944
0.00110818
-0.000699449
-0.0011363
0.000929056
0.000120181
-0.000358215
0.00023882
-0.00017479
-5.01827e-05
-0.00150353
-0.000595754
0.00211128
2.06858e-06
-7.11795e-05
0.000474086
0.00113903
-0.00122362
0.000203427
-3.79166e-05
0.000567268
-0.000659164
9.34549e-05
0.000152234
-0.000421763
-0.000131596
-3.73513e-05
-0.000306279
0.0003486
-0.000285321
0.000253571
0.00064351
0.000433501
-0.000375417
0.000149709