/*--------------------------------*- C++ -*----------------------------------*\
| =========                 |                                                 |
| \\      /  F ield         | OpenFOAM: The Open Source CFD Toolbox           |
|  \\    /   O peration     | Version:  v2012                                 |
|   \\  /    A nd           | Website:  www.openfoam.com                      |
|    \\/     M anipulation  |                                                 |
\*---------------------------------------------------------------------------*/
FoamFile
{
    version     2.0;
    format      ascii;
    class       surfaceVectorField;
    location    "900";
    object      Uf_0;
}
// * * * * * * * * * * * * * * * * * * * * * * * * * * * * * * * * * * * * * //

dimensions      [0 1 -1 0 0 0 0];


internalField   nonuniform List<vector> 
20580
(
(1.20627 -0.0343038 -5.08776e-21)
(1.20779 -0.0332762 3.57986e-20)
(1.20543 -0.0329369 2.53537e-20)
(1.09256 -0.0547708 -1.11508e-20)
(1.09254 -0.0562277 7.56996e-21)
(1.09466 -0.0556236 -8.48887e-21)
(1.09249 -0.0528124 -8.28846e-21)
(1.09029 -0.0535774 0)
(-0.181941 0.00160082 0)
(-0.165448 -0.000298978 0)
(-0.181225 0.0013321 0)
(1.00262 -0.00068344 9.63704e-22)
(1.00234 -0.000628153 -2.91554e-22)
(1.00245 -0.00037527 8.29007e-22)
(1.09939 -0.0741484 1.49215e-20)
(1.09827 -0.0763198 -1.13403e-20)
(1.09644 -0.0740895 -4.77184e-21)
(1.10068 -0.00691518 0)
(1.10205 -0.00623283 -1.17243e-20)
(1.01905 -0.00143243 -8.42351e-22)
(1.01855 -0.00143813 1.9253e-21)
(1.01772 -0.000900761 0)
(-0.0109712 0.0123535 -4.22769e-21)
(-0.00840846 0.0124028 0)
(-0.0231742 0.0109337 -1.76062e-20)
(0.990005 -0.0112435 -5.78394e-21)
(0.990462 -0.0104166 -1.23062e-21)
(0.990861 -0.0110404 -1.38723e-20)
(1.15612 -0.160518 -3.7309e-20)
(1.15153 -0.158947 1.22495e-20)
(1.15285 -0.164015 2.03215e-20)
(1.00135 -0.0100979 -8.24722e-21)
(1.00156 -0.0105371 3.87012e-22)
(1.00138 -0.0106142 -2.31194e-21)
(0.978957 -0.0252506 -1.42142e-21)
(0.978498 -0.026342 6.97166e-21)
(0.979778 -0.0258921 3.67579e-21)
(-0.126805 0.00204156 -2.50963e-20)
(-0.135195 0.00174712 0)
(-0.121403 0.00327583 0)
(1.14699 -0.0385151 -6.9424e-21)
(1.14881 -0.0395041 -5.48697e-21)
(1.14642 -0.0403545 -2.30754e-20)
(1.18325 0.0128635 1.17664e-20)
(1.18337 0.0137249 4.66475e-20)
(1.15656 0.0154542 4.09938e-20)
(-0.250405 0.00236752 -4.36589e-20)
(-0.262188 0.00314693 -5.29105e-20)
(-0.256708 0.00508111 8.74695e-20)
(1.04659 -0.0338074 -6.71009e-21)
(1.04787 -0.0341617 1.76863e-21)
(1.04711 -0.0351628 -5.24492e-21)
(1.14723 -0.0595586 0)
(1.15114 -0.0616729 0)
(1.06849 -0.0499436 0)
(1.20696 -0.0362395 3.77764e-20)
(1.2045 -0.0352514 1.35129e-20)
(1.1564 -0.0518396 3.23863e-20)
(1.15424 -0.0529932 1.33731e-20)
(1.1539 -0.0503856 2.80035e-21)
(1.03703 -0.118566 8.12214e-22)
(1.0335 -0.118183 -1.58072e-21)
(1.03579 -0.114913 -7.71208e-22)
(0.568366 -0.289455 8.8351e-20)
(0.431243 -0.226509 -1.92473e-21)
(0.299559 -0.166417 3.58756e-20)
(1.00006 -0.0002325 1.14597e-22)
(1.00011 -0.000309341 -2.13791e-21)
(1.00007 -0.000195893 -1.65772e-21)
(0.691294 -0.0479255 -1.45833e-20)
(0.68211 -0.0475368 2.24957e-21)
(0.592975 -0.0385385 -1.66664e-21)
(1.16749 0.00390296 1.34061e-20)
(1.16852 0.00477159 1.19169e-20)
(1.16895 0.00346563 -2.79815e-21)
(0.742505 0.024696 -4.66398e-20)
(0.693865 0.0258628 -1.07752e-20)
(0.69862 0.026733 1.67805e-21)
(0.566668 0.00911086 2.04517e-21)
(0.572827 0.00885553 -3.41497e-20)
(0.505018 0.0124994 -2.60823e-20)
(0.0600273 0.0128542 1.14122e-20)
(0.0471504 0.0119061 -3.47321e-21)
(0.0426121 0.0114856 0)
(1.02836 -0.0198423 1.99212e-21)
(1.02774 -0.0202447 1.63475e-21)
(1.02748 -0.0192854 -7.03039e-22)
(-0.110603 -0.00138937 7.21442e-20)
(-0.128731 -0.00141979 6.07805e-20)
(-0.101024 -0.00217708 3.65035e-20)
(1.10115 -0.00806889 4.06229e-21)
(1.09924 -0.0073927 -1.80288e-20)
(1.20376 -0.0278658 3.15276e-21)
(1.20312 -0.02596 -1.3081e-20)
(1.20156 -0.0280715 -2.60313e-20)
(0.0270945 0.0186556 2.03286e-20)
(0.0229856 0.0186664 6.33898e-21)
(0.0478933 0.0202619 -2.59468e-21)
(1.12809 -0.137591 0)
(1.13037 -0.134955 -2.76253e-20)
(1.13098 -0.139503 2.2655e-20)
(0.0601647 0.0125612 -4.65992e-21)
(0.0768018 0.0139456 4.16904e-22)
(0.0645395 0.0123774 -4.32385e-21)
(1.00002 -0.000150803 2.33314e-21)
(1.00006 -0.000278103 1.8751e-21)
(0.874889 -0.151855 -3.80423e-20)
(0.777232 -0.130298 -1.66605e-20)
(0.747174 -0.124426 -4.77412e-21)
(-0.10022 0.00870922 2.05325e-20)
(-0.0928095 0.00895581 2.13255e-20)
(-0.0757587 0.00873897 -3.97455e-20)
(1.0061 -0.0497897 4.17935e-21)
(1.00703 -0.0487926 -6.08638e-21)
(1.0074 -0.0504433 4.87417e-21)
(-0.0436271 0.0141187 -7.82171e-21)
(-0.0233591 0.0158328 -8.43501e-21)
(-0.0395667 0.0147066 2.32863e-21)
(0.0724197 0.014205 2.85668e-20)
(0.0772686 0.0143426 2.36969e-21)
(-0.22337 0.00548644 -4.01984e-20)
(-0.225334 0.00458635 3.31451e-20)
(1.04804 -0.479613 -1.06013e-20)
(1.03688 -0.48465 -2.43941e-20)
(1.03563 -0.49137 -2.83405e-20)
(0.0852815 0.0166436 2.63261e-21)
(0.080352 0.0166823 -5.00856e-21)
(0.0663166 0.0145833 -3.31591e-21)
(1.01826 -0.0320983 -6.84388e-23)
(1.01732 -0.0319622 -2.10035e-22)
(1.0177 -0.030959 0)
(1.03102 -0.000731428 -5.05233e-21)
(1.03097 -0.000490169 -3.90695e-23)
(1.19153 0.00344549 1.35909e-20)
(1.19039 0.00492644 8.5219e-21)
(1.19107 0.00421236 -4.3787e-21)
(1.05029 -0.0838123 -7.31662e-21)
(1.0486 -0.0810418 -7.08865e-21)
(1.0517 -0.0817695 1.46148e-21)
(0.9794 -0.0239773 1.40203e-20)
(0.977913 -0.0244204 4.94654e-21)
(-0.230276 0.0047164 -1.83784e-20)
(-0.229759 0.00409172 -1.48448e-20)
(-0.251272 0.00397794 -1.55256e-20)
(0.971147 -0.0180396 9.23586e-21)
(0.972414 -0.0180584 9.03349e-21)
(0.971503 -0.0194343 -2.0901e-20)
(1.18333 0.011978 -3.5718e-20)
(1.18813 0.0122102 -6.14241e-20)
(1.13009 -0.00804264 -1.04652e-20)
(1.132 -0.00817147 -1.50791e-20)
(1.13123 -0.00662954 9.03887e-21)
(-0.108602 0.000381704 -1.79946e-20)
(-0.0948752 0.00200161 4.01907e-20)
(-0.110977 0.000539932 4.45252e-21)
(1.00538 -0.0508719 -8.56823e-22)
(1.00495 -0.0491438 5.40312e-21)
(1.20548 -0.0272587 -5.15909e-20)
(1.20445 -0.0292837 -3.98495e-21)
(-0.0489669 0.0144698 -5.01299e-20)
(-0.0619572 0.011885 -2.54093e-20)
(0.683693 0.03018 2.88404e-20)
(0.637741 0.0328742 -9.11545e-21)
(0.630462 0.0321697 0)
(-0.176077 0.00390264 9.86023e-21)
(-0.170717 0.00342712 0)
(-0.159718 0.00428404 0)
(1.00118 -0.00965568 9.83075e-22)
(1.00133 -0.00959431 1.35743e-21)
(0.793439 0.0241043 -1.38706e-21)
(0.787819 0.0238984 -3.13804e-20)
(0.995267 -0.00396828 5.12769e-21)
(0.995332 -0.00442579 0)
(0.994814 -0.00450454 0)
(1.04879 -0.0850904 -2.17913e-21)
(1.05157 -0.0855547 4.74586e-21)
(0.830442 -0.452879 7.71918e-21)
(0.853703 -0.449772 -7.58382e-21)
(0.839232 -0.432553 -2.05967e-20)
(0.805289 -0.455689 -4.45449e-21)
(0.822331 -0.480263 1.0404e-20)
(-0.181957 0.00183167 -1.2371e-20)
(-0.192731 0.00210915 -4.31818e-20)
(0.689569 -0.117435 -2.13528e-20)
(0.682584 -0.133372 2.45541e-21)
(1.02392 -0.0550261 0)
(1.02244 -0.0549582 2.50256e-23)
(1.0232 -0.0535388 0)
(-0.142904 0.00119968 -5.12603e-20)
(-0.163217 0.00341668 3.88933e-20)
(-0.155071 0.00254079 -8.2324e-20)
(-0.15166 0.00134207 4.21094e-20)
(-0.171331 0.00258441 1.05712e-20)
(-0.153105 0.000184451 -8.83814e-20)
(1.1654 -0.0534537 2.1224e-20)
(1.16549 -0.0555366 1.02959e-20)
(1.16783 -0.0544564 1.36275e-20)
(0.993421 -0.0336523 6.86101e-21)
(0.992544 -0.03319 -2.49602e-21)
(0.992697 -0.0346176 4.71123e-21)
(-0.168217 0.00343688 0)
(-0.187854 0.00173273 -1.99415e-20)
(1.1369 -0.0148384 -5.67053e-21)
(1.13535 -0.0157697 -2.17689e-20)
(1.13716 -0.0163711 -9.43329e-21)
(1.01931 -0.0960162 1.73879e-22)
(1.0169 -0.0941215 -7.98296e-22)
(1.01943 -0.0928358 3.95823e-22)
(-0.23978 0.00237499 6.63782e-22)
(-0.230365 0.00248461 -4.20954e-20)
(1.03086 -0.0114513 1.73369e-21)
(1.03042 -0.0119302 0)
(1.03156 -0.0121475 3.51268e-21)
(0.695463 -0.0472298 7.33622e-20)
(0.796956 -0.0606163 -1.31895e-20)
(1.00606 -0.0240487 2.49774e-21)
(1.00584 -0.0231537 0)
(1.00541 -0.0235479 0)
(1.0255 -0.0554133 -4.14673e-22)
(1.02453 -0.0568654 -8.0939e-23)
(1.24483 -0.181284 4.12855e-21)
(1.24793 -0.178167 -4.66348e-21)
(1.25506 -0.183975 3.55529e-20)
(1.12449 -0.136292 1.52217e-20)
(1.12497 -0.140676 0)
(-0.136743 0.00191075 -3.52988e-20)
(-0.131034 0.00149851 -3.67719e-20)
(-0.120297 0.00423907 -3.36492e-20)
(-0.16673 0.00292389 0)
(-0.152519 0.0043315 -5.84311e-20)
(-0.13903 7.89846e-06 -3.51188e-20)
(-0.134442 -0.000357672 5.33054e-20)
(-0.114604 -0.0019643 2.25967e-20)
(1.03875 -0.121802 2.8303e-21)
(1.04049 -0.118391 8.8962e-22)
(-0.0622712 -0.0021792 2.87023e-20)
(-0.0792615 -0.00418157 -5.17443e-20)
(-0.0608696 -0.00160986 -4.58093e-21)
(0.990713 -0.0157978 -3.50903e-21)
(0.991196 -0.0162815 8.59513e-21)
(0.991309 -0.0152557 0)
(-0.0996386 -0.00222976 -1.74262e-20)
(-0.124073 0.000256671 -4.22356e-20)
(0.969069 -0.0180845 1.43942e-20)
(0.970595 -0.0162009 0)
(1.10166 -0.00916673 3.93689e-21)
(1.10288 -0.00854965 -1.99044e-21)
(-0.233871 0.00291069 8.59416e-22)
(-0.234972 0.00149927 -3.74697e-20)
(-0.145043 0.000286771 -6.65051e-20)
(-0.160787 0.00105959 -3.13949e-20)
(-0.115329 0.0106457 -8.16314e-25)
(-0.123223 0.00911831 3.49065e-20)
(-0.134227 0.00812861 5.56069e-20)
(1.0422 -0.458822 2.37368e-20)
(1.03535 -0.441626 1.29216e-20)
(1.02295 -0.452149 0)
(1.01181 -0.0325153 -8.90706e-22)
(1.01097 -0.0324172 -5.20448e-22)
(1.01174 -0.0335545 -2.56266e-21)
(1.18434 0.00788288 1.31796e-20)
(1.18452 0.00892026 2.51466e-20)
(1.19047 0.0078949 4.36403e-20)
(-0.210834 0.00391354 0)
(-0.210508 0.00332341 2.34972e-20)
(-0.230338 0.00212269 -4.62183e-20)
(1.17666 -0.250249 -3.13164e-20)
(1.18316 -0.251821 -2.88291e-20)
(1.17827 -0.25687 3.13904e-20)
(1.18285 0.00737294 1.01313e-20)
(1.15425 0.0109304 -2.17067e-20)
(0.796416 -0.125181 -2.52923e-20)
(0.79532 -0.114513 -2.41299e-20)
(0.8059 -0.119773 0)
(0.801613 -0.158543 -9.01666e-21)
(0.800425 -0.146907 -2.03287e-20)
(0.789065 -0.154428 -2.39846e-20)
(0.987944 -0.035118 -2.07665e-21)
(0.988957 -0.0355014 -1.44979e-22)
(0.988055 -0.0368011 4.6947e-22)
(1.0221 -0.0320786 0)
(1.02276 -0.0332033 8.11732e-22)
(1.02293 -0.0321131 -5.30964e-22)
(1.16139 -0.0692007 -9.81909e-21)
(1.16162 -0.0714255 -9.52251e-21)
(1.16396 -0.0692739 2.34817e-20)
(1.02143 -0.0308497 0)
(1.021 -0.032007 0)
(-0.150322 0.00108968 6.3196e-20)
(-0.130857 -0.000666804 5.67204e-20)
(1.10014 -0.0098314 0)
(1.1022 -0.0104217 0)
(1.04535 -0.0335627 -3.35395e-21)
(1.04604 -0.0326242 4.00638e-21)
(1.01695 -0.152968 3.57927e-22)
(1.01839 -0.157759 7.50733e-22)
(1.01329 -0.155691 -1.18841e-21)
(1.01926 -0.0324035 8.63706e-22)
(1.019 -0.0334684 -3.28517e-22)
(1.22231 -0.11469 -1.09989e-20)
(1.22281 -0.112131 -5.44759e-20)
(1.22493 -0.114891 -2.74076e-20)
(1.17354 -0.115796 0)
(1.17112 -0.113688 1.62209e-20)
(1.17027 -0.116858 0)
(1.19894 -0.016593 -4.95208e-21)
(1.19807 -0.0152507 -1.66388e-20)
(1.19992 -0.0152558 2.88577e-20)
(1.12824 -0.00788361 9.14661e-21)
(1.12889 -0.00923105 2.02102e-20)
(1.01942 -0.0123424 -7.04488e-22)
(1.01906 -0.0126367 -3.17576e-23)
(1.01987 -0.0129 1.01905e-21)
(1.01967 -0.00129612 -8.02292e-22)
(1.01963 -0.0019405 2.43453e-22)
(-0.197704 0.0034063 -6.78112e-20)
(-0.1847 0.000883675 -4.32375e-20)
(-0.125827 -0.000114205 3.60814e-20)
(-0.116891 -0.000893242 5.2736e-20)
(1.06779 -0.379072 4.8903e-21)
(1.05871 -0.387499 -4.55717e-22)
(1.07232 -0.389974 4.34217e-21)
(1.03941 -0.0280341 2.68614e-21)
(1.03799 -0.0276136 -3.98641e-21)
(1.03874 -0.02692 3.43718e-22)
(1.01687 -0.0534936 -8.14128e-22)
(1.01805 -0.0545354 1.42945e-21)
(1.01676 -0.0551324 0)
(-0.104719 0.00721897 1.19135e-20)
(-0.0930031 0.00878216 -4.33294e-20)
(-0.105749 0.0075831 -1.99352e-20)
(1.21179 -0.0545465 9.42569e-21)
(1.20353 -0.0555403 -3.70358e-20)
(1.15478 -0.0493411 -5.74824e-20)
(0.590725 -0.191562 0)
(0.613952 -0.185246 0)
(0.60897 -0.214719 0)
(1.01283 -0.0329003 -3.20494e-22)
(1.01206 -0.0315115 1.42551e-21)
(1.11431 -0.199989 5.03127e-21)
(1.11381 -0.194168 1.4261e-20)
(1.10958 -0.198226 3.17992e-20)
(-0.0260098 0.0155597 2.17881e-20)
(-0.0433655 0.014224 1.5888e-20)
(-0.0291746 0.0153789 -1.32432e-20)
(1.16145 -0.041366 2.8048e-21)
(1.16336 -0.0411868 1.56516e-20)
(1.16167 -0.0431135 -2.46104e-20)
(1.03009 -0.117049 -1.6436e-21)
(1.03096 -0.120873 -5.86354e-22)
(1.10517 -0.110963 1.05293e-20)
(1.10757 -0.108343 2.9392e-20)
(1.10358 -0.108264 -1.19448e-20)
(1.0142 -0.185854 -3.22128e-20)
(0.983424 -0.171876 -3.3785e-20)
(0.0349071 0.0188589 2.05427e-20)
(0.011508 0.0175791 -4.31715e-21)
(1.16008 -0.16251 -3.86039e-20)
(1.15863 -0.157991 -9.57044e-21)
(-0.113715 0.0101514 -4.08549e-22)
(-0.129451 0.0101792 1.80323e-20)
(-0.134323 0.00991138 -1.70853e-20)
(0.706628 -0.116422 3.51346e-20)
(-0.132874 -0.00035733 4.22411e-20)
(-0.151781 0.00114103 1.02807e-20)
(0.843636 -0.096755 -2.40024e-20)
(0.834334 -0.0949916 1.74033e-20)
(0.839716 -0.0878812 -1.17389e-20)
(1.16086 -0.0370074 -1.40566e-21)
(1.15898 -0.0362649 1.36589e-20)
(1.16105 -0.0349313 1.4371e-20)
(1.24287 -0.186199 -3.72564e-20)
(1.23607 -0.180129 -8.3025e-20)
(0.970911 -0.055603 6.72142e-21)
(0.971161 -0.0532359 6.96971e-22)
(0.972986 -0.0542671 9.17717e-21)
(0.990157 -0.0154096 -5.79253e-21)
(0.990033 -0.0165091 -7.25556e-21)
(0.72437 -0.295836 -7.49734e-21)
(0.707272 -0.309071 5.85669e-21)
(0.729752 -0.313812 -1.52166e-20)
(0.645434 -0.0287069 -9.74674e-20)
(0.580865 -0.0230532 -2.94629e-20)
(0.573697 -0.021637 1.3021e-20)
(1.00533 -0.088907 -6.9927e-21)
(1.00468 -0.0911458 3.39621e-21)
(1.00252 -0.0894072 -4.57583e-21)
(1.03122 -0.0109835 1.55563e-21)
(1.0302 -0.0108885 -9.94974e-23)
(-0.152405 0.000941809 1.10704e-20)
(-0.0210229 0.00627827 1.30319e-20)
(-0.0191354 0.00749737 1.76461e-20)
(-0.0341586 0.00519174 8.8587e-21)
(1.11629 -0.204439 -3.10597e-21)
(1.11953 -0.200134 -2.53465e-20)
(1.18747 0.00608655 -8.38692e-21)
(1.18008 0.00675521 3.42909e-21)
(1.22165 -0.1182 4.3746e-21)
(1.21894 -0.115163 -6.71486e-20)
(1.17572 -0.117879 0)
(1.17658 -0.114739 0)
(1.23153 -0.06838 0)
(1.23372 -0.0717035 0)
(1.23642 -0.0721835 -3.64917e-20)
(0.970293 -0.0285117 1.04138e-20)
(0.970984 -0.0300727 5.18056e-21)
(0.969085 -0.0302678 -1.29657e-21)
(0.98251 -0.013821 -5.31382e-21)
(0.98191 -0.0131396 5.09886e-22)
(0.982959 -0.0127413 -1.73552e-20)
(1.00157 -0.0082277 -1.24352e-21)
(1.00146 -0.00837829 -5.37246e-22)
(1.00135 -0.00779469 -5.39972e-21)
(-0.106697 0.00880717 0)
(-0.12037 0.0075225 1.59439e-20)
(1.15631 -0.0385609 0)
(1.1571 -0.0370178 0)
(1.15529 -0.0371818 1.08341e-20)
(1.09519 -0.0210863 0)
(1.09654 -0.0207053 0)
(1.09651 -0.0220638 0)
(1.00014 -0.000565384 3.16954e-22)
(1.00014 -0.000496187 -2.15778e-21)
(1.00022 -0.000677345 -3.8871e-21)
(0.0531814 0.0113027 -4.19693e-21)
(0.0497602 0.0118265 1.51786e-20)
(0.068008 0.0131372 2.01974e-20)
(1.16156 -0.0666011 0)
(1.15878 -0.0686325 1.93948e-20)
(1.19024 0.00240387 -2.13012e-20)
(1.19255 0.00253713 2.17819e-20)
(-0.118156 0.00217837 -1.11021e-20)
(-0.132906 -4.64012e-05 -2.28912e-20)
(0.032283 0.0158547 1.41183e-20)
(0.0180335 0.0145532 -1.05226e-20)
(0.0351098 0.0145427 1.55865e-20)
(0.0273874 0.0159707 -7.49737e-21)
(0.047862 0.0173486 -1.65529e-20)
(-0.232429 0.00490165 4.67342e-20)
(-0.213874 0.00536903 -3.16298e-20)
(1.0207 -0.150071 3.6019e-22)
(1.01587 -0.148141 -1.5756e-21)
(0.219821 0.0195049 3.42179e-21)
(0.227892 0.0193759 -3.70515e-20)
(0.183996 0.019504 0)
(1.00102 -0.00925495 2.56204e-21)
(1.00087 -0.00883207 -2.50473e-21)
(1.00099 -0.00875494 -5.52292e-22)
(1.01988 -0.0120419 -2.10233e-21)
(1.019 -0.0117131 -9.51479e-22)
(1.17429 -0.0790099 2.33422e-20)
(1.17396 -0.0817084 1.50103e-20)
(1.17156 -0.079981 2.61911e-20)
(1.00141 -0.00048074 7.2046e-23)
(1.00127 -0.000614255 0)
(1.00119 -0.00040239 0)
(-0.110274 0.0109484 0)
(-0.0955556 0.0112997 0)
(0.750365 0.0184399 -2.21071e-20)
(0.811805 0.0166698 -4.83551e-20)
(0.757879 0.0190859 -3.71045e-21)
(1.18216 0.00196743 0)
(1.18252 0.00154123 2.07117e-20)
(1.14642 0.00539902 0)
(1.02033 -0.0117851 -1.50965e-21)
(1.0207 -0.0123566 1.43468e-21)
(1.13621 -0.0119846 -6.60669e-21)
(1.13659 -0.0135381 -2.03942e-21)
(1.13472 -0.0128285 -2.05581e-20)
(1.18195 0.00248633 3.29693e-21)
(1.19218 0.000775438 -2.25554e-20)
(1.21062 -0.0529688 -4.24405e-20)
(1.22646 -0.0573198 3.38666e-20)
(1.06283 -0.46765 4.28566e-20)
(1.02393 -0.146931 0)
(1.02266 -0.142411 4.59744e-22)
(1.02694 -0.143748 0)
(1.16103 -0.0389077 -1.96711e-20)
(1.15889 -0.0408184 0)
(-0.237549 0.00285956 -5.2356e-20)
(-0.23508 0.00412956 1.39204e-20)
(-0.0107708 0.00766025 0)
(-0.0246893 0.00527748 0)
(1.20214 -0.0247313 -1.02266e-20)
(1.20406 -0.0243133 3.05356e-20)
(0.885011 -0.0731755 -1.39665e-20)
(0.880884 -0.0688754 0)
(0.879285 -0.0755582 0)
(0.974721 -0.0313145 8.32352e-21)
(0.974201 -0.0299283 4.52222e-21)
(0.975753 -0.0298211 -1.3141e-20)
(1.0243 -0.0246621 1.38733e-21)
(1.02425 -0.0255424 7.50621e-22)
(1.02532 -0.0253113 -2.48223e-21)
(0.715886 -0.0368624 -3.35108e-20)
(0.708571 -0.0327279 -6.47021e-20)
(1.15674 -0.0401949 0)
(1.15442 -0.0398152 2.41683e-20)
(-0.141129 0.000380171 3.889e-20)
(-0.15127 0.000921299 0)
(1.09988 -0.0716016 7.91117e-21)
(1.10195 -0.0737375 9.12532e-21)
(1.00588 -0.0862359 -1.99848e-21)
(1.00817 -0.08821 3.86457e-22)
(1.18346 0.0101316 -2.22593e-20)
(1.18324 0.0111578 -9.13965e-21)
(1.18878 0.0100479 -9.75394e-21)
(1.20134 -0.0238457 -1.56742e-22)
(1.20033 -0.0253869 3.70703e-20)
(1.06533 -0.0274935 8.96173e-21)
(1.06651 -0.028436 -8.21403e-22)
(1.06495 -0.0286657 5.93381e-21)
(1.05318 -0.0474824 -7.4718e-21)
(1.05138 -0.0470009 -4.54419e-21)
(1.05257 -0.0459776 2.44676e-21)
(0.688112 -0.147335 -7.96237e-21)
(0.708201 -0.152058 -6.93816e-20)
(0.696469 -0.1647 -1.98141e-20)
(1.24182 -0.190242 1.88581e-20)
(1.23973 -0.194942 -8.12182e-21)
(1.233 -0.189167 1.99229e-20)
(-0.109015 0.0113507 -1.90004e-20)
(-0.0981032 0.0116508 4.38284e-20)
(-0.0915319 0.012035 -4.69326e-21)
(-0.0597148 0.0143579 -4.14281e-21)
(-0.0649896 0.0143385 8.95667e-21)
(-0.0423206 0.0153947 3.40557e-20)
(1.1451 -0.0374728 0)
(1.14729 -0.0365152 0)
(0.879374 -0.692189 8.64172e-22)
(0.875321 -0.740421 3.93424e-20)
(0.923513 -0.740562 0)
(-0.124432 0.0109722 -1.23586e-20)
(-0.117612 0.0111799 -1.6891e-20)
(0.932972 -0.0289383 7.91884e-21)
(0.935577 -0.0277163 0)
(0.93295 -0.0257128 1.55303e-20)
(1.1592 -0.0246234 4.90969e-21)
(1.15903 -0.0262058 0)
(1.15762 -0.024825 2.09382e-20)
(-0.0180436 0.0122545 -1.57068e-20)
(-0.00692748 0.0134289 -1.62036e-20)
(-0.0232063 0.0119496 2.79166e-21)
(1.08907 -0.0797856 1.36243e-21)
(1.08972 -0.0816421 -5.25121e-21)
(1.08719 -0.0810164 7.54142e-21)
(1.18221 0.0149711 -3.49648e-22)
(1.17698 0.0164028 2.45848e-20)
(1.15267 0.0179195 -2.87118e-22)
(1.01598 -0.0528357 -2.14941e-21)
(1.01691 -0.0524663 -1.80883e-21)
(1.25207 -0.191792 0)
(1.00009 -0.00220747 -2.7348e-21)
(1.00014 -0.00259231 -4.85231e-23)
(1.00012 -0.00265766 3.61493e-21)
(1.1334 -0.132081 1.01255e-20)
(1.13637 -0.130455 4.58571e-20)
(1.1361 -0.134986 5.8031e-20)
(1.0205 -0.102566 -1.31664e-21)
(1.02313 -0.103521 -3.6971e-22)
(1.02115 -0.105647 -2.7574e-22)
(0.980118 -0.022762 -7.86873e-22)
(0.980816 -0.0236261 8.00395e-21)
(1.20268 -0.0346466 -2.10088e-20)
(1.17735 -0.030124 -2.023e-20)
(1.18136 -0.0320837 -8.78894e-22)
(1.06097 -0.0392594 3.63524e-21)
(1.05976 -0.0380011 4.95551e-21)
(1.06173 -0.037919 1.67613e-23)
(0.169783 -0.510407 5.57263e-20)
(0.126868 -0.553261 -5.4893e-20)
(1.01999 -0.0111188 7.54488e-22)
(1.02088 -0.0115136 -2.92166e-21)
(1.20751 -0.0378142 2.06518e-20)
(1.20802 -0.0396758 -1.89301e-20)
(1.20573 -0.0388655 -2.36471e-20)
(-0.140662 0.00269839 -4.79911e-22)
(-0.15733 0.00103646 2.16242e-20)
(-0.123121 0.00936852 -2.90945e-21)
(-0.126657 0.0100721 -3.08836e-20)
(-0.104822 0.0101926 -4.18326e-20)
(0.890467 -0.0826863 3.09175e-20)
(0.895822 -0.0815328 -4.20435e-22)
(0.893723 -0.087335 -1.71793e-20)
(1.15922 -0.0230578 2.89132e-20)
(1.16063 -0.0243942 -2.84459e-20)
(1.00005 -0.0014555 2.79238e-21)
(1.00002 -0.00108836 2.87188e-21)
(1.00003 -0.00110129 2.79114e-22)
(0.734831 -0.282814 2.67873e-20)
(0.715791 -0.275822 8.54705e-20)
(1.0017 -0.0172055 0)
(1.00172 -0.0164074 0)
(1.00208 -0.0170486 0)
(1.13016 -0.130383 -4.75762e-20)
(-0.0418224 -0.0185226 -4.00986e-22)
(-0.0909543 -0.0127836 1.58102e-20)
(-0.0729483 -0.0156305 1.60122e-20)
(0.887672 -0.0785245 2.01503e-20)
(0.890005 -0.072145 -3.27724e-21)
(1.08801 -0.0772711 1.29856e-20)
(1.09091 -0.0778356 -4.07854e-21)
(0.996282 -0.00178808 0)
(0.995883 -0.00218495 -2.82827e-22)
(-0.0754849 0.0133314 -2.85139e-20)
(-0.0563733 0.0132866 5.86517e-21)
(1.02943 -0.0202924 1.66692e-21)
(1.02897 -0.0192834 0)
(0.743533 -0.369618 -4.98919e-21)
(0.882824 -0.452135 1.90434e-20)
(-0.0680962 0.013988 -2.33004e-20)
(-0.0722704 0.0136336 9.60414e-21)
(-0.051636 0.0145599 -3.76855e-20)
(1.16994 -0.248236 3.39803e-21)
(1.17516 -0.243427 2.53035e-20)
(1.00013 -0.000630645 2.30555e-21)
(1.00008 -0.000452259 2.61711e-21)
(1.23752 -0.374662 0)
(1.24568 -0.368771 2.78419e-21)
(1.24655 -0.379418 0)
(-0.164584 0.00217973 6.12235e-21)
(-0.160373 0.00146366 2.83937e-20)
(-0.148025 0.00423213 5.86184e-21)
(0.105444 0.0183049 9.20121e-21)
(0.0895039 0.0164838 1.67864e-21)
(1.18778 0.0139704 -2.16983e-20)
(1.13652 -0.0616528 7.8384e-21)
(1.13567 -0.0641021 -4.86002e-21)
(1.13388 -0.0615695 -1.38422e-20)
(0.695625 -0.341786 9.7601e-21)
(0.690038 -0.322865 8.41268e-20)
(0.672016 -0.336383 2.77013e-20)
(1.21623 -0.0351719 1.81392e-20)
(1.21763 -0.0369172 -1.88288e-20)
(1.13749 -0.0110959 -2.07219e-21)
(1.13565 -0.0105173 2.50269e-20)
(1.04632 -0.432163 1.18583e-21)
(1.03126 -0.427728 2.31545e-20)
(1.03718 -0.163103 -2.96022e-21)
(1.03241 -0.162045 3.10032e-21)
(1.03568 -0.158684 6.72231e-22)
(-0.0821084 -0.00136895 2.64255e-20)
(-0.0943877 -0.00248975 -3.34027e-20)
(-0.094776 -0.0027662 -9.51204e-21)
(1.21348 -0.0630784 -3.66008e-21)
(1.21308 -0.0604629 2.65143e-21)
(1.21083 -0.0629736 -3.30027e-22)
(1.01356 -0.000909004 1.0379e-22)
(1.01436 -0.00128331 -4.96344e-22)
(1.01365 -0.00184254 2.44414e-21)
(1.11079 -0.0511364 -1.31249e-20)
(1.10885 -0.0499868 -9.63136e-21)
(1.10854 -0.0519768 -1.54286e-21)
(1.15592 0.0121276 -1.13398e-20)
(0.053558 0.010939 -2.26251e-20)
(0.0392023 0.01052 -1.847e-20)
(-0.0318757 -0.00315236 9.03468e-21)
(-0.018516 -0.00108176 1.98994e-21)
(-0.0266103 -0.00181354 7.93284e-21)
(1.02343 -0.0240537 1.16672e-22)
(1.02438 -0.0239534 6.75066e-22)
(0.57185 -0.204117 0)
(0.99164 -0.016699 3.31738e-22)
(0.992112 -0.0171048 -7.89245e-21)
(0.992238 -0.0161504 -4.1533e-21)
(1.19389 -0.0174169 3.25814e-21)
(1.1975 -0.019025 -5.99106e-20)
(1.20766 -0.0214034 -6.2047e-20)
(1.2146 -0.0593882 -2.36184e-21)
(1.21783 -0.0608142 4.90051e-20)
(1.22804 -0.063034 6.79525e-20)
(1.11216 -0.0523942 -1.29936e-20)
(1.11245 -0.0506731 -2.66172e-21)
(1.16187 -0.0645132 0)
(1.16406 -0.0650141 0)
(1.21432 -0.0650852 -6.54178e-20)
(1.21592 -0.0624516 5.36703e-21)
(0.998898 -0.0317553 -5.07237e-21)
(0.999672 -0.0327201 -4.92977e-21)
(0.999629 -0.0311567 8.82335e-22)
(0.798311 -0.135246 -3.39323e-20)
(0.786941 -0.130114 -4.75877e-20)
(1.18788 -0.000920407 -8.58188e-21)
(1.18846 0.000399189 2.59199e-20)
(1.18705 -4.26614e-06 -1.20963e-21)
(0.590713 0.0115313 -4.14935e-20)
(0.583636 0.011251 9.39926e-21)
(0.654892 0.00716168 2.08381e-20)
(0.9974 -0.0108372 9.02587e-22)
(0.997711 -0.0104461 -3.70279e-21)
(0.997484 -0.0100858 -3.38284e-21)
(0.980745 -0.0216733 -1.77311e-20)
(0.979308 -0.0219905 -1.36379e-20)
(0.885074 -0.0842053 1.69078e-20)
(0.0242163 0.0173649 -5.66236e-21)
(0.0285932 0.0172001 9.76076e-21)
(0.0441269 0.0188136 -1.9874e-20)
(-0.213521 0.00571006 1.1415e-20)
(-0.230813 0.00674731 0)
(-0.214848 0.00514649 -4.08005e-20)
(1.16179 -0.0488317 2.45872e-21)
(1.15994 -0.0492088 1.85387e-21)
(1.16164 -0.0508082 1.01752e-21)
(1.04067 -0.0284142 4.4042e-22)
(1.03995 -0.0291815 2.04681e-21)
(1.20787 -0.0508243 -2.52987e-20)
(1.15693 -0.0451433 -9.78126e-20)
(1.22729 -0.0658363 -3.69669e-20)
(1.224 -0.0628788 8.66215e-21)
(1.23347 -0.0674832 -3.84098e-20)
(1.19793 -0.0211839 2.34656e-23)
(1.19683 -0.0193759 2.53415e-20)
(1.19568 -0.0211614 -3.63224e-20)
(1.16212 -0.0620282 0)
(1.15956 -0.0637598 0)
(0.0198305 0.0169741 0)
(0.00683691 0.0147606 1.37644e-22)
(-0.199886 0.00372456 -8.00353e-21)
(-0.198989 0.00320863 4.20139e-20)
(-0.219356 0.00263323 -6.99841e-22)
(1.11083 -0.0606716 1.50019e-21)
(1.11036 -0.0624786 -1.47696e-20)
(1.11257 -0.0614665 1.06564e-20)
(1.14 -0.0382184 0)
(1.14188 -0.0387359 0)
(1.14097 -0.0368094 0)
(0.844333 -0.167111 -1.02063e-20)
(0.807118 -0.155804 -5.08321e-20)
(0.672634 -0.120846 -8.26606e-20)
(1.02556 -0.0312185 -1.42051e-21)
(1.02606 -0.0324446 -2.02811e-22)
(1.02454 -0.0315144 -1.24966e-21)
(1.00165 -0.00801004 5.47808e-21)
(1.00172 -0.00781707 -6.09724e-23)
(1.00149 -0.00744503 2.58377e-21)
(1.19875 -0.0224189 4.53853e-20)
(1.19957 -0.0206873 -2.27077e-20)
(1.13784 -0.172634 -1.93859e-20)
(1.13739 -0.168183 -6.07941e-21)
(1.13342 -0.170892 9.6577e-21)
(1.03052 -0.0205846 4.435e-21)
(1.03148 -0.0209054 2.51776e-21)
(1.03095 -0.0200246 2.7643e-22)
(1.00019 -0.00259952 -1.08658e-21)
(1.00016 -0.00259179 -1.41273e-21)
(1.00011 -0.00220493 2.28813e-21)
(1.00167 -0.0177922 2.43763e-21)
(1.00137 -0.0171685 0)
(1.00518 -0.000939232 -7.41212e-22)
(1.00558 -0.000976711 -7.11136e-22)
(1.00516 -0.000559612 -4.01864e-22)
(1.13592 -0.0526129 4.39882e-20)
(1.13784 -0.0537837 7.20905e-22)
(1.13823 -0.051528 1.85787e-20)
(1.0018 -0.008637 2.64748e-21)
(-0.0138332 0.0123396 -4.42343e-21)
(0.0017086 0.0137158 -1.61144e-20)
(1.15874 -0.0526778 1.85609e-20)
(1.15796 -0.0503616 -9.39901e-21)
(1.01364 -0.0432165 4.2946e-22)
(1.01273 -0.0430001 1.50635e-21)
(1.01343 -0.0441523 4.14873e-22)
(0.0447044 0.00934348 -3.68869e-20)
(-0.106746 0.00742848 3.09157e-20)
(-0.116622 0.00670974 1.61968e-20)
(0.972027 -0.0239951 -4.22145e-21)
(0.972519 -0.0254744 -6.976e-21)
(0.97357 -0.0240942 -8.94306e-21)
(1.20892 -0.0367632 3.43654e-20)
(-0.221508 0.00400145 -9.21838e-21)
(-0.242035 0.00348126 -1.08975e-19)
(-0.221056 0.00367929 9.15087e-21)
(0.968934 -0.056957 -8.10613e-21)
(0.97126 -0.0579305 2.90385e-21)
(0.971293 -0.0225279 0)
(0.97005 -0.0242625 0)
(1.15982 -0.0546199 7.19916e-22)
(1.16106 -0.0527282 -2.64868e-20)
(-0.147396 0.000953317 4.14066e-20)
(-0.148858 0.00153446 -1.75512e-20)
(-0.133122 0.00279828 -3.87749e-20)
(0.0617139 -0.00781428 1.78232e-20)
(0.0257846 -0.00534426 -4.37417e-20)
(0.0562407 -0.00852107 6.03272e-21)
(1.18025 -0.0701271 1.28274e-20)
(1.18228 -0.0716784 1.31376e-20)
(1.17965 -0.0720773 -1.64207e-20)
(1.00295 -0.000666295 0)
(1.00281 -0.000947844 8.07339e-22)
(0.215019 0.0194391 -2.5939e-20)
(0.263893 0.0188863 -2.09709e-20)
(1.00104 -0.0097696 2.22377e-21)
(1.18423 -0.0729953 -1.44161e-20)
(1.18423 -0.0755103 -5.81586e-21)
(1.18674 -0.0742456 -3.50942e-20)
(-0.223777 0.00424108 9.59109e-21)
(-0.20536 0.00559797 3.50237e-20)
(0.593762 0.0093719 1.3352e-20)
(0.594303 0.0113585 -8.72675e-20)
(0.6598 0.00734452 -3.97903e-20)
(1.09361 -0.0218536 -6.77788e-21)
(1.09357 -0.0204679 -5.56408e-21)
(0.88675 -0.184435 -9.12097e-21)
(1.00733 -0.221494 1.23636e-20)
(1.12828 -0.219054 3.04757e-20)
(1.21 -0.231667 2.54057e-20)
(1.2248 -0.24237 2.10261e-20)
(-0.140357 0.000417851 1.63064e-20)
(-0.135336 0.000499977 6.4803e-20)
(-0.116616 -0.000722806 3.25435e-20)
(1.22119 -0.121054 3.5622e-20)
(1.21788 -0.121763 1.69942e-20)
(1.22061 -0.124222 -1.50564e-21)
(0.774441 -0.102943 7.52084e-24)
(0.775418 -0.0915098 -4.68171e-20)
(0.762862 -0.0955221 -8.18942e-21)
(-0.0985563 0.0102921 -1.18269e-20)
(-0.0932472 0.0106101 -1.19747e-20)
(-0.0811146 0.0105511 -3.27903e-21)
(-0.0694895 0.0117026 5.21624e-21)
(-0.0833871 0.01027 3.44836e-20)
(0.620743 0.00402182 3.93703e-21)
(0.551479 0.00982675 2.80331e-20)
(1.05486 -0.0480631 -1.33031e-21)
(1.05358 -0.0492036 -5.4208e-21)
(-0.23079 0.00422952 -4.75467e-20)
(-0.215379 0.00303173 -4.23319e-20)
(-0.209929 0.00320961 3.9932e-20)
(-0.0856784 -0.00396486 3.10285e-20)
(-0.0850097 -0.00575563 -1.32673e-20)
(0.459076 -0.4336 -2.10075e-20)
(0.428053 -0.406909 5.87176e-21)
(0.427858 -0.453028 4.65547e-21)
(0.488116 -0.414952 -4.74354e-20)
(0.495999 -0.455649 -1.41486e-21)
(0.930872 -0.0303462 5.73037e-21)
(0.932262 -0.0315631 -1.51771e-21)
(1.17967 -0.0773135 2.19231e-20)
(1.17701 -0.0780617 -3.22914e-22)
(1.17955 -0.0798155 -1.31662e-20)
(0.933837 -0.131499 3.31981e-21)
(0.937631 -0.127136 5.27156e-21)
(0.939838 -0.133248 -3.21815e-21)
(-0.0526114 -0.000685693 2.93811e-20)
(-0.0668538 -0.00308073 1.93451e-20)
(0.777802 -0.150605 2.45812e-20)
(0.776799 -0.137272 1.71225e-20)
(0.763081 -0.145737 6.8912e-20)
(1.01057 -0.00251696 2.15082e-22)
(1.01051 -0.00298863 3.40003e-22)
(1.01106 -0.00282762 3.05753e-22)
(1.03092 -0.000985146 -1.36447e-21)
(1.03075 -0.00081906 5.79696e-22)
(1.06991 -0.113752 -9.6173e-21)
(1.07279 -0.115323 -2.02232e-20)
(1.06948 -0.116593 6.72973e-21)
(-0.160776 -0.000329386 -8.29413e-21)
(-0.145923 0.00059602 -2.22841e-20)
(0.232356 -0.539008 -1.31567e-20)
(1.02642 -0.0309427 -1.03944e-21)
(1.02506 -0.030232 1.35392e-21)
(-0.139819 0.00979479 9.66487e-21)
(0.923007 -0.127509 6.66201e-21)
(0.92891 -0.130052 1.15689e-20)
(0.927122 -0.123497 -4.83075e-21)
(1.10334 -0.113177 3.36448e-21)
(1.10692 -0.113013 -2.45663e-21)
(1.09805 -0.0206125 2.68194e-24)
(1.09689 -0.0196854 -6.75248e-21)
(-0.148199 0.00155865 6.81348e-20)
(-0.162696 0.00106208 6.27183e-20)
(1.20476 -0.0486232 6.59302e-20)
(1.22157 -0.0528994 9.63203e-20)
(1.15521 0.0137473 1.38143e-20)
(1.01995 -0.0990565 -1.38041e-21)
(1.01769 -0.100861 2.47903e-21)
(1.08693 -0.0753041 5.24622e-22)
(1.08534 -0.0768563 -4.69267e-21)
(0.0945283 0.0131867 0)
(0.0973182 0.0128902 -1.19769e-21)
(0.0822317 0.0116745 0)
(0.973821 -0.0328798 -1.08602e-20)
(0.975444 -0.0326748 4.42127e-21)
(1.18641 -0.062098 0)
(1.10893 -0.0593941 -1.27894e-20)
(1.11146 -0.0584282 -2.8919e-23)
(1.15865 -0.0561678 4.28316e-20)
(1.16124 -0.0560274 -3.61907e-20)
(0.919676 -0.132551 -3.06681e-21)
(0.916786 -0.125697 5.19603e-21)
(0.991038 -0.0172835 3.44927e-21)
(1.01503 -0.0437102 -2.02374e-21)