/*--------------------------------*- C++ -*----------------------------------*\
| =========                 |                                                 |
| \\      /  F ield         | OpenFOAM: The Open Source CFD Toolbox           |
|  \\    /   O peration     | Version:  v2012                                 |
|   \\  /    A nd           | Website:  www.openfoam.com                      |
|    \\/     M anipulation  |                                                 |
\*---------------------------------------------------------------------------*/
FoamFile
{
    version     2.0;
    format      ascii;
    class       volScalarField;
    location    "850";
    object      ddt0(k);
}
// * * * * * * * * * * * * * * * * * * * * * * * * * * * * * * * * * * * * * //

dimensions      [0 2 -3 0 0 0 0];


internalField   nonuniform List<scalar> 
13851
(
-3.81078e-08
0.00103518
-7.3876e-07
1.20095e-08
-6.21479e-07
2.86126e-06
-5.59297e-08
-7.35634e-07
2.6305e-07
-9.20927e-06
0.000473235
0.000407682
-0.000700329
-3.70815e-05
-1.26944e-08
-5.21988e-07
-2.95271e-07
-2.44729e-09
0.000231062
2.55471e-07
1.00022e-08
-1.20864e-06
2.85279e-07
1.41161e-07
3.38003e-07
-7.14452e-07
-2.85711e-07
7.85061e-06
-4.18815e-08
-1.38959e-07
-1.73758e-07
-3.15226e-07
-4.7647e-07
-0.000690499
1.9022e-07
-0.000157507
-0.000830214
0.00164773
-8.80366e-06
-0.000438877
1.78172e-09
7.68409e-08
9.49393e-05
0.000562741
0.000328015
8.27911e-05
0.000103101
0.00081807
-2.9197e-07
5.87848e-07
-1.64968e-06
0.00142741
-1.5093e-05
-2.07003e-08
1.42055e-07
8.04847e-08
1.22559e-07
2.3011e-05
-1.23917e-07
-8.62107e-08
0.00155446
-0.000366792
1.43341e-06
-5.26541e-06
0.000191685
-7.31363e-08
-0.000876355
4.01033e-05
-6.02713e-07
-3.60026e-09
-0.000369592
-0.00103441
0.0014264
-1.30554e-08
-5.46009e-08
2.88026e-07
-9.58223e-07
-0.000361518
-7.65871e-07
-0.000337509
-1.15833e-07
-0.000399464
-5.55415e-08
0.000138609
1.90007e-06
0.000678448
1.75134e-06
0.00083419
-3.37124e-07
3.2431e-07
-0.000100003
-5.34393e-07
2.33358e-05
-4.30419e-07
-3.32083e-07
1.29823e-07
-7.43407e-07
-0.000530302
6.58884e-07
1.32535e-07
-2.84617e-05
-9.10685e-07
-4.94259e-08
-2.51523e-07
3.65525e-07
1.91527e-06
-9.73066e-07
4.87246e-08
-0.00110574
2.40427e-06
8.98125e-08
3.32587e-07
-4.46372e-07
-1.26187e-08
1.08315e-07
0.000976336
-0.000629963
4.00509e-08
3.90348e-07
4.35045e-07
6.96059e-05
-2.39827e-07
-0.000762707
-0.000328845
0.000252475
3.30952e-07
0.000169979
-8.77774e-07
3.58566e-08
0.00235739
-8.25883e-11
8.63335e-08
-0.000434868
-5.35811e-08
0.0011299
7.70309e-08
3.88919e-08
-0.000971356
-0.000121595
0.000843188
-1.45308e-05
5.41563e-08
2.88699e-07
1.78678e-07
-1.91305e-07
0.000467247
-4.92378e-07
0.0023213
-6.75446e-08
0.000206807
-1.03156e-06
2.86543e-07
-5.39694e-05
1.23947e-07
-2.06763e-07
-1.85859e-07
1.45596e-07
-1.30264e-07
0.00154225
-1.56245e-06
1.22404e-07
-4.42988e-07
1.97065e-05
8.51746e-08
-2.41954e-07
1.35866e-07
-7.04005e-07
-6.10984e-07
4.39808e-08
-4.79169e-05
-0.000321666
1.21956e-07
1.37613e-07
0.000478713
7.65695e-08
0.0011614
-8.27315e-07
3.06981e-07
-0.000107001
6.37294e-08
-3.47202e-07
-0.00103205
-4.83816e-08
-2.89827e-06
4.14735e-08
2.17044e-07
-9.61263e-08
-5.78492e-08
1.75411e-05
3.95346e-06
0.000166859
-2.94131e-06
3.56187e-07
-6.10188e-07
-0.000426555
-1.85267e-07
2.93204e-07
0.000303545
3.0549e-07
2.86634e-07
3.27797e-07
-6.95124e-06
5.24376e-07
-4.60815e-08
-2.3005e-06
-5.1704e-08
-0.00021406
-3.09789e-07
-0.000661048
8.90518e-08
-0.00100228
-4.4255e-08
0.000264505
5.06953e-08
1.68791e-07
7.74344e-05
1.78988e-06
8.67564e-05
-2.68769e-08
-0.000687356
-3.20744e-07
-1.23068e-07
-0.000970498
0.0019092
-0.000964849
2.94668e-07
-4.95018e-07
4.50261e-07
2.01903e-05
5.38083e-08
-7.38391e-07
-7.0679e-05
1.13931e-07
3.45465e-07
-1.40608e-06
7.41131e-07
-0.00022382
0.000939486
1.82001e-07
-4.80853e-08
1.8879e-06
6.4424e-06
1.51633e-07
-2.33313e-06
2.43207e-07
-0.000888046
-9.26215e-07
8.81716e-05
-1.83575e-07
-2.96951e-07
4.68015e-07
9.93603e-06
-1.10046e-07
-1.87169e-07
-9.82444e-07
0.000128969
5.13636e-07
-0.000982429
0.000141263
-2.87483e-08
1.65849e-07
-5.63415e-08
-0.00223757
2.28795e-07
-0.000437116
-1.86147e-07
-1.11279e-07
-4.11314e-07
-0.000984264
6.36446e-07
4.95321e-07
-2.07413e-07
-7.15717e-05
-7.5127e-07
-4.71011e-07
9.05768e-08
-0.000196273
1.34735e-06
-0.00101691
0.000374927
1.5406e-07
7.78522e-08
3.60642e-07
-8.87436e-07
-0.00205968
0.00244478
2.8461e-07
-4.79087e-09
-5.21482e-05
-0.000388778
0.00211992
-1.35344e-07
-9.10284e-08
-6.15701e-07
-0.000661195
-0.000326086
-2.44391e-07
0.000568788
1.05074e-07
-0.000908858
-4.36754e-07
-2.90567e-07
-0.00102248
-4.65748e-08
2.3051e-06
-0.000909684
2.72884e-07
-7.53818e-07
-4.30413e-07
-1.22922e-07
-0.00019588
-2.49456e-07
-1.01625e-07
-0.000884957
8.91719e-08
-3.08647e-07
3.37126e-07
-0.00105267
0.00021975
-2.63359e-08
-9.87892e-07
-1.75878e-08
-3.67534e-05
4.93781e-07
2.55674e-07
1.59043e-07
0.000149725
-4.77088e-07
-2.00708e-07
-6.17593e-10
-4.70316e-08
-9.54595e-08
0.000589054
2.31387e-05
-0.000135337
-1.33978e-08
-0.00105615
-0.00048269
-1.36635e-08
-6.17708e-07
0.00211921
-5.97754e-07
1.48743e-06
0.00133165
-3.89082e-06
1.86441e-08
0.000237455
-0.000890992
-9.95802e-09
-3.38246e-07
-2.71427e-07
0.0011801
-2.01431e-07
2.15851e-06
1.93036e-05
1.36981e-07
0.000384697
1.6066e-07
-1.31618e-08
2.00306e-07
4.90223e-08
1.36256e-07
-0.000930825
-3.38639e-05
-6.14232e-08
-7.36993e-07
1.1529e-07
0.00025364
-6.78939e-07
0.000492177
-0.000101968
-5.77297e-08
2.59892e-06
-4.25896e-07
0.000814092
1.33446e-08
4.05083e-08
2.06135e-08
-2.26087e-05
-4.72144e-08
-0.000247698
-6.99696e-07
0.00143015
2.5834e-05
-3.43825e-06
-6.07812e-06
4.62842e-07
6.38532e-08
-1.13718e-08
-1.8386e-07
-9.4235e-07
-4.68873e-05
-6.04514e-07
-0.00100457
-0.000900025
1.18363e-07
-2.92207e-08
-7.79153e-05
-0.000418195
-3.40912e-05
-0.000725963
-1.03032e-08
-4.54475e-07
1.91009e-07
-0.000440892
2.02912e-07
-4.87919e-07
4.25949e-07
-6.44676e-08
4.31753e-07
2.78851e-07
1.31948e-07
-4.2993e-06
3.6693e-07
-0.000109371
-4.48895e-08
-9.73285e-07
1.91858e-07
6.55416e-06
-3.35852e-07
0.00107814
-2.7322e-07
5.74098e-05
3.83619e-08
2.70168e-07
2.6268e-07
0.00089699
-0.000221301
0.00203811
3.05672e-08
-5.48842e-05
-0.00081137
1.60357e-06
4.64512e-07
-1.33581e-06
1.29546e-08
3.99874e-06
3.07025e-07
0.00133147
-0.000370751
-9.46979e-07
-0.000617128
2.95388e-07
1.14707e-06
-0.000551025
8.64358e-05
3.81519e-08
-4.88606e-07
-8.22342e-07
6.41596e-07
1.56452e-07
-9.59894e-08
-9.6062e-07
0.00160209
2.59178e-07
-0.000753518
2.43648e-07
1.54711e-07
0.000110431
-2.12707e-07
7.33615e-08
1.20275e-05
6.33306e-08
-1.56408e-08
1.8368e-07
-4.61931e-07
-1.1022e-07
7.92527e-08
2.96814e-07
-0.00090775
-5.74412e-08
-6.26767e-07
4.0564e-08
3.59389e-07
7.68999e-06
-4.95894e-08
4.9535e-08
-4.68737e-08
-4.54826e-08
0.00152521
-1.11767e-07
1.61868e-06
-4.56729e-08
1.75068e-07
1.26646e-05
-0.000585573
-5.46635e-08
4.33104e-07
-3.34034e-07
1.012e-05
0.000115765
1.48767e-07
-2.12764e-05
7.67332e-09
-1.8557e-06
-7.41676e-08
5.16349e-05
3.65099e-08
-2.0016e-05
2.58046e-06
7.87473e-08
1.61155e-07
-0.000223901
-7.15948e-07
-0.000171365
4.10902e-07
-0.00166801
2.0768e-07
9.30937e-08
1.18922e-07
-5.86906e-08
-0.000534625
-1.14123e-06
0.00109802
-0.000170927
1.69935e-06
1.36225e-07
-0.000753686
-0.000172302
-3.50275e-07
-4.53223e-07
2.31404e-06
-0.00101595
-0.00102112
2.20796e-08
5.27261e-05
0.000106872
6.98347e-06
-2.5526e-07
2.09526e-07
-0.000427097
1.3115e-06
7.35639e-05
0.000338935
0.000824931
-1.32525e-07
0.000585196
-0.000983232
3.6647e-08
1.10782e-06
-1.2429e-06
-0.00048519
-1.86044e-07
-5.0515e-08
1.45573e-07
-2.94742e-08
8.90235e-07
4.44273e-08
0.00130364
9.96444e-05
1.35632e-07
0.000144028
-0.000561971
3.24003e-06
-0.000377347
-6.37614e-07
5.55562e-08
2.73968e-07
3.45441e-06
-0.000767745
-2.09359e-07
-2.74815e-06
9.41655e-05
7.99344e-08
2.35718e-07
-0.00223778
0.00166161
0.00107012
-0.000561079
-0.00099902
6.36405e-09
-6.41444e-08
-0.000279214
-0.00088701
0.000346489
-6.00009e-07
1.55158e-06
5.77865e-08
-3.13341e-08
0.0010033
6.99264e-08
-1.7976e-07
6.27486e-08
-3.88619e-11
-0.00099312
-4.36516e-06
1.56511e-07
6.83406e-08
-0.000306914
0.000441511
9.79341e-08
1.01859e-07
2.33686e-07
-1.20858e-08
-2.77702e-05
0.000204264
0.000251396
-3.91838e-06
-0.000926041
-5.66142e-07
-0.000387646
-0.000606529
-2.27602e-08
-6.13701e-07
5.69154e-08
3.39394e-07
-5.6221e-07
-0.000909604
-0.000947567
-2.41238e-06
-4.42002e-07
2.31318e-07
-4.86523e-07
3.06309e-07
-0.00020071
-1.12515e-06
-4.42811e-08
-5.70496e-08
1.50177e-07
-4.09615e-07
0.00220449
-7.84005e-08
1.94745e-08
-6.71522e-07
-8.23336e-08
-1.34558e-06
0.00122094
0.00196188
-4.94429e-07
0.000286879
2.20082e-07
1.16846e-06
4.73898e-07
1.18459e-05
-4.51727e-08
1.40593e-07
-0.00109902
-9.71366e-08
6.39406e-05
-0.000873824
8.55872e-05
-0.000623826
1.90845e-07
-0.00106527
1.33933e-07
2.60129e-08
3.5821e-08
1.54747e-08
-5.65279e-08
-7.29781e-08
-3.37618e-07
6.00592e-08
-0.000296846
5.16346e-06
-0.000382761
1.73366e-07
4.26851e-08
1.47944e-07
0.00227926
-0.000480695
-8.95083e-07
-4.17353e-07
1.63739e-07
1.62901e-07
2.29653e-07
1.5442e-07
-0.00021434
-0.00076933
-7.64146e-08
5.67234e-08
-5.82843e-08
1.49624e-07
0.00198105
4.95651e-06
-5.09784e-07
-0.000384688
-0.00171476
2.01516e-08
0.00112091
3.22823e-05
-6.43853e-07
0.000486669
-1.17055e-07
-5.77863e-08
-9.45469e-07
-9.96298e-08
0.00039583
-5.30436e-08
-0.00046924
3.91084e-07
-5.02913e-07
-0.000664919
3.03433e-07
-8.65058e-08
7.62811e-07
1.0224e-07
-3.13448e-07
-0.000572089
0.000287235
-1.3558e-06
-0.000273038
-5.43406e-06
5.22834e-08
1.66723e-07
2.5607e-05
8.24844e-05
6.86965e-07
-0.000883031
2.92238e-07
-3.56769e-08
3.73621e-08
-0.000697844
-0.000859464
-2.13234e-07
1.37257e-08
9.22343e-06
-2.98052e-07
1.30659e-07
0.000157982
0.000326088
-0.000670132
8.68143e-08
-7.43876e-08
-0.000397865
3.66279e-06
4.88496e-05
3.11218e-07
-0.00104258
-5.48569e-08
2.55899e-05
0.0030135
-7.66861e-07
-2.68197e-07
9.24485e-05
5.14713e-07
3.43758e-07
-0.000719601
1.24002e-07
5.57727e-07
-1.15473e-07
2.10203e-07
0.00015308
-4.91447e-07
0.00146863
-4.85519e-09
2.30737e-06
2.40304e-07
-0.000783887
3.71299e-07
5.15768e-07
4.93027e-08
2.67875e-08
1.41335e-09
-0.000884049
1.41211e-07
4.52704e-08
1.32783e-05
-7.00043e-08
-0.000491497
3.72299e-07
2.91949e-07
-1.27607e-06
0.00200935
-0.000148747
1.71764e-07
2.89136e-06
-0.00045463
-1.12637e-07
-0.000973401
-4.93384e-07
1.9311e-07
4.20132e-07
0.000120689
2.25428e-06
-2.89664e-07
1.61175e-07
4.88451e-08
-0.00017786
-4.58605e-06
-1.64068e-06
-2.31356e-07
4.34706e-07
7.8403e-09
2.97799e-07
-3.37651e-06
0.000551428
-5.59522e-06
-0.0015137
-6.96697e-08
-1.8557e-06
-1.77186e-06
-0.00106398
-1.97485e-07
-0.000251391
5.72988e-06
-7.02155e-08
0.000116862
2.74494e-06
-0.000481197
0.000328292
-0.000837621
1.17287e-05
-6.90928e-07
2.00729e-07
-2.24832e-07
2.18922e-05
0.000130972
1.933e-07
2.24351e-07
-1.41167e-06
-0.000982758
7.07249e-08
-7.55315e-06
2.7577e-07
-6.66368e-08
0.000141082
-0.000388577
-1.6061e-05
3.42718e-08
-1.21261e-08
4.25482e-06
-7.08631e-05
0.000310997
5.1024e-08
-0.000225876
0.00172881
-0.00052385
-1.05466e-06
-7.46337e-07
-9.65567e-08
-7.28968e-08
0.00171199
-8.20462e-07
-0.00041802
1.08726e-07
-6.08054e-07
0.000163245
-0.000429127
-0.000499862
-6.62608e-08
-5.24251e-07
9.61852e-08
-5.1257e-07
-8.24703e-08
0.000129073
-1.42762e-08
-0.000755603
6.53104e-08
-1.3438e-06
-4.64011e-09
0.00244368
-5.89335e-07
-5.30721e-07
-0.000423075
-7.52339e-07
-6.26686e-07
1.28124e-07
-1.33268e-06
0.00209116
3.14664e-06
-1.75572e-07
-0.000321835
2.22737e-07
0.000623241
1.06481e-05
-7.28661e-08
-0.000990676
-3.50632e-05
-0.000522785
9.88781e-06
2.27189e-07
1.64372e-07
-0.000614655
3.48465e-08
7.66519e-06
-0.000666946
1.60143e-07
-1.86945e-07
0.00104577
0.000522539
-0.000356747
-7.23172e-08
1.08154e-07
0.0020732
-0.000657896
0.00136419
-2.69701e-07
9.30702e-08
3.79281e-05
0.000100764
-2.24519e-06
4.66231e-08
-6.82575e-07
9.06702e-08
4.911e-07
-2.36738e-06
1.882e-07
0.000692723
-2.79793e-06
-6.54672e-08
2.8635e-07
1.6502e-07
-1.24322e-07
-0.000387418
-0.000180154
-4.88605e-07
-0.000227621
-9.69927e-09
-4.84165e-07
1.70567e-07
8.90022e-08
-5.49063e-08
-6.49003e-08
-0.000509232
-5.59752e-08
-9.65522e-07
-6.53925e-08
-2.92777e-07
-3.34219e-06
1.66534e-05
4.14951e-07
-0.000707133
-2.05603e-06
-0.000382258
-5.21988e-07
-5.44191e-07
-0.000343423
-4.16526e-07
3.2107e-07
0.00017173
-0.00364292
-1.11042e-05
-6.9397e-07
0.000393538
-4.28416e-08
-7.13837e-07
-9.13179e-07
-0.000339665
1.96524e-07
-0.0001349
1.76164e-07
1.63716e-07
-2.85315e-05
3.05446e-07
-0.000400364
-2.92069e-07
1.22534e-07
-6.02992e-08
1.08933e-07
-8.14215e-09
1.54475e-07
-1.10495e-07
-0.00058164
1.50479e-07
-1.27233e-06
9.79916e-05
-1.82541e-06
0.000126151
-6.77361e-08
1.0003e-07
3.62825e-07
-2.64748e-08
9.34373e-08
-9.93186e-07
-1.1186e-07
2.67968e-07
7.88127e-09
3.27071e-07
-0.000454044
-0.000918894
2.60387e-06
-0.000700581
-0.000392585
-3.30778e-08
0.000125337
-4.35462e-07
1.46731e-07
-8.88725e-05
1.75332e-06
-0.000357048
-5.37985e-08
0.000210317
0.000767603
2.96497e-05
1.06553e-07
-0.000700895
-4.73609e-07
-2.76171e-07
1.58315e-07
2.863e-07
0.000542276
3.24021e-06
0.0027998
3.03705e-07
-5.13473e-08
2.48014e-05
-7.4218e-08
0.00162166
2.57443e-05
-0.0009784
-0.000145881
-0.000700618
1.80233e-07
-4.6613e-08
2.44192e-06
4.76759e-07
-2.53745e-07
0.00281795
-7.44912e-07
-1.1444e-07
1.18462e-07
-0.00149441
2.7179e-07
-0.000213246
-0.00059667
-0.000130318
0.000785578
-7.59056e-09
2.00182e-07
2.42409e-08
-0.000448157
-1.42353e-05
1.0902e-07
-2.15604e-07
3.03443e-07
-1.8569e-06
9.18605e-08
3.04176e-07
-1.25349e-07
-5.78229e-07
-0.000784133
4.00477e-07
6.77661e-08
1.57498e-08
-9.09998e-07
-0.000531945
-1.42849e-07
9.70852e-05
-5.69953e-05
-1.51527e-06
1.40529e-07
-7.47037e-07
-5.11159e-08
2.7689e-07
2.88803e-08
-0.000327341
0.000313453
-0.000162919
-2.49293e-07
2.07539e-05
-4.8898e-08
3.59739e-07
-3.33816e-08
6.43932e-05
6.25988e-05
1.19036e-07
-5.70491e-07
8.43462e-07
-0.000579612
-5.81065e-08
-0.000896049
-4.31886e-10
-0.000281551
5.05028e-07
-0.000995662
-3.23866e-06
-1.39432e-06
0.0010304
-0.00060107
-0.00049121
-4.5173e-05
1.13986e-07
0.00401863
8.78382e-08
-1.80795e-07
-3.95784e-07
-8.40302e-08
-0.000615058
-4.43778e-07
-4.27859e-07
2.30056e-05
0.00118233
0.00100144
-2.10158e-08
-2.56973e-07
-2.28556e-07
2.12257e-07
-3.25167e-07
0.00119848
-8.1615e-05
0.000694138
-5.08164e-08
-4.1233e-07
1.68597e-08
-0.00133908
-0.000808131
2.45932e-06
2.01432e-07
-1.01e-07
5.01103e-05
-7.3064e-07
0.00119661
-0.000663293
1.00127e-06
1.37713e-07
-0.000878816
-3.75906e-07
-7.86605e-07
-4.64137e-07
-0.000975564
-0.000386082
0.00250274
-1.33641e-06
-5.55693e-08
4.40837e-07
-6.80732e-08
2.86051e-05
6.40103e-07
-0.000583475
8.09086e-06
-4.44508e-07
0.000647979
-1.80056e-07
-0.000988955
-5.79103e-05
1.82174e-07
0.00561623
-0.000692224
0.00539856
-0.00111994
-2.32634e-08
-4.67089e-08
-0.000398362
-0.00056843
6.88479e-05
7.14597e-08
-6.40609e-08
-6.23069e-08
-0.000465276
5.64376e-05
-1.08485e-07
1.86706e-06
-8.5625e-06
-4.95859e-05
-0.000849777
0.00248543
-3.46728e-08
-0.00103728
-3.19025e-07
5.29081e-08
0.000907244
-0.000433412
-6.64265e-08
1.90332e-07
1.45698e-05
-0.000985242
3.09799e-07
-3.7363e-08
3.28219e-05
1.33176e-07
5.79233e-06
-5.38473e-08
-0.00260342
-4.19068e-08
-9.70623e-07
0.000378422
-0.000871138
-1.77612e-07
0.00013929
-1.33784e-05
-0.000170353
-0.000395725
-0.000254991
7.89044e-07
-4.20496e-08
9.39898e-05
-6.47921e-08
-1.87925e-08
2.11579e-07
-0.000271604
2.69031e-08
-0.000764182
1.80857e-07
3.38464e-07
-0.000168716
-9.38375e-07
0.0010102
-1.81603e-07
3.63776e-07
1.09872e-07
-5.7969e-07
-0.000972373
-6.56859e-06
7.15418e-08
-1.09906e-06
-0.000120856
-2.68021e-08
2.91436e-07
-0.00065851
-6.15952e-07
-5.61412e-07
0.00126984
0.00171177
4.92255e-05
-0.000955467
-0.00103514
8.48214e-07
0.000142555
0.000184027
-0.000693011
-1.27537e-06
7.96943e-08
0.000767803
-3.75119e-08
-5.03201e-08
-0.000626774
-0.000666727
-9.31765e-08
-1.97551e-05
5.24933e-06
-0.000277986
2.82421e-06
2.46389e-06
-1.39409e-08
6.73245e-06
4.41624e-07
3.2938e-07
-1.77667e-07
-0.000944693
-0.000656789
-0.000797713
-0.0010104
-5.45895e-07
-0.000805601
-0.000945305
-5.71346e-07
-1.63925e-08
9.81527e-08
-0.000573964
1.90563e-08
-0.000195342
6.23623e-08
-1.35547e-07
-9.75257e-08
-0.000635154
-0.00107469
1.37799e-05
3.02242e-08
-0.000914671
-1.87278e-07
-2.56313e-07
-5.74708e-08
1.64395e-07
2.70557e-05
-3.25959e-07
-0.000612971
0.00257528
1.24256e-06
0.000169035
7.09243e-09
-6.84238e-07
-5.51487e-08
-6.42597e-05
3.14057e-07
-1.73048e-07
3.27815e-08
1.61706e-07
0.000552871
-1.42384e-07
-5.64667e-07
3.33145e-07
-5.76307e-07
0.00208352
-0.000397454
1.22867e-07
-8.53378e-07
3.95261e-07
9.3005e-07
3.68009e-07
-0.000668935
0.00517071
-5.53211e-07
-2.61098e-07
2.65726e-08
1.54676e-06
-9.65906e-10
3.40617e-06
-4.45238e-09
2.97619e-07
2.94946e-07
-0.000884413
-4.02439e-07
-4.59604e-08
-3.94673e-07
3.45899e-07
-1.00867e-06
-0.000777063
-0.000303839
-6.39287e-07
-6.90474e-08
3.59353e-07
7.75799e-08
2.71178e-07
0.000952436
-0.000762258
3.47787e-07
-2.14652e-07
-1.67596e-05
-0.000939556
-1.13451e-07
-1.35443e-07
-0.000724846
-1.75939e-07
5.20349e-07
-0.000399557
-0.00109724
-3.76866e-08
3.81826e-07
-4.46019e-08
-0.000941612
-0.000136652
-7.03889e-07
0.000478641
1.63421e-05
-1.68101e-07
-0.00111232
0.00128681
2.28041e-08
-0.000658676
-1.17084e-06
2.83536e-08
2.52736e-05
-6.8578e-08
1.8886e-07
2.48563e-07
0.00131176
1.27945e-06
0.000257311
-1.7744e-07
-1.45043e-07
-4.98783e-07
-0.000183779
-0.000644124
-0.00107131
-0.000126668
-1.30424e-07
-2.71421e-05
0.00278949
3.46409e-05
-2.28194e-07
-0.00142078
1.94257e-08
-3.5028e-07
2.85906e-07
0.000200108
-4.24034e-07
-4.2761e-08
-0.000294489
0.00444389
-5.23743e-07
3.43315e-07
9.28343e-08
3.22914e-07
-1.11085e-06
-5.60063e-07
5.28481e-05
-1.39479e-06
-8.83592e-07
-1.53496e-06
0.00150603
0.00102622
-6.77317e-07
-0.00104396
1.28779e-07
2.53957e-07
-0.000154415
1.70825e-05
4.65714e-05
2.47243e-06
2.2802e-07
-5.92511e-05
-0.000114239
3.03779e-07
-4.01684e-07
-2.13515e-08
-7.58299e-07
-1.54255e-06
5.51669e-07
1.31579e-07
-0.000581265
-1.81894e-07
-0.000498742
-0.000245398
-3.3195e-08
-6.45896e-07
-5.78796e-05
-1.51202e-05
-2.71041e-07
-1.9596e-06
5.55603e-08
1.25678e-07
3.34232e-07
-2.55231e-07
-0.00102709
-0.000251454
3.29494e-05
-1.61055e-05
-1.82034e-07
-4.91392e-07
-1.43802e-06
1.94353e-07
1.36029e-08
2.80069e-07
-0.000939415
3.82247e-08
-0.00103274
-4.84253e-07
5.19623e-07
0.00252663
-0.000471371
-0.000395509
-0.000937914
-7.44599e-07
1.26445e-07
3.67716e-07
-0.000899175
-0.000585775
-3.11444e-07
-4.53479e-09
1.24494e-07
-9.11557e-07
-4.74126e-07
0.000248692
0.000434088
-1.72465e-07
2.66444e-07
6.21307e-05
3.29541e-07
-0.000379131
0.000794491
-3.24764e-08
-1.40057e-06
2.48834e-08
-0.00100712
1.62687e-07
-0.000840303
2.75407e-07
-1.71703e-07
-5.23483e-07
-1.10075e-08
3.14171e-08
-5.166e-07
-8.22757e-07
2.04947e-05
-0.000694396
-3.34269e-07
-4.71797e-07
-1.71651e-08
-0.000932722
3.14773e-05
2.64899e-07
1.72944e-07
-0.000114006
3.89398e-08
-0.000527719
4.48287e-07
2.8615e-07
-1.05471e-06
0.000993218
-3.13924e-07
1.26074e-07
-5.8748e-08
-1.46265e-06
-0.000953945
-3.9197e-08
0.000106672
4.22855e-05
0.00284386
0.00502722
-4.39239e-07
-0.000300225
-3.42145e-07
0.00242069
-4.80464e-08
-0.000111895
-0.000103044
0.00014509
8.31813e-05
0.000405536
3.14947e-07
1.07681e-06
2.01906e-07
-0.000313795
-9.90692e-05
-0.00091979
1.97235e-05
-3.28464e-07
0.00103717
0.000108708
-4.98385e-07
-8.58722e-08
-7.90292e-08
-0.000607336
-2.89606e-07
-1.60921e-06
-2.60858e-07
-2.82168e-08
7.87451e-08
-6.51138e-08
-0.000576424
-0.000421206
-4.76222e-07
4.89507e-05
-0.000532739
2.91728e-07
-5.24841e-08
3.00141e-07
2.82837e-08
-0.000808935
-0.000650539
-2.5034e-07
7.72552e-07
-1.69741e-05
7.32798e-08
-7.73722e-07
-1.44023e-05
-4.48332e-07
-0.00101577
-5.13902e-07
-1.76224e-08
-4.98226e-08
-2.28948e-07
-1.60175e-06
0.000653835
-0.000110762
-0.000663183
-9.05924e-07
-0.000267203
4.00943e-07
-2.89143e-07
2.98782e-07
3.29231e-05
1.58231e-05
-0.000669998
2.35989e-06
-2.55067e-07
-6.77082e-08
1.1254e-08
-8.11403e-09
2.80304e-07
-5.09644e-05
-4.30252e-07
-1.63476e-05
-4.56021e-07
-0.00057523
0.00173744
-0.00090162
5.19863e-07
-3.86905e-07
5.70133e-05
-6.38509e-07
-0.000697083
-0.000638916
8.62838e-08
9.58674e-07
-4.00878e-07
5.13903e-05
0.000155289
-5.20829e-07
1.54534e-06
-7.28844e-05
4.63111e-07
1.47158e-06
8.37293e-09
2.56869e-05
-7.55568e-05
-2.68672e-07
-6.42076e-08
-9.01864e-05
0.00445931
0.00209359
-0.000564021
0.00100116
1.02781e-07
2.04408e-07
0.00231911
-0.00073339
-9.83814e-07
-5.26851e-07
-0.000656887
7.50998e-05
1.93245e-07
-5.34828e-08
-2.83794e-07
-0.000945797
-0.000910415
-4.21123e-08
-0.000475198
-1.38948e-07
9.87722e-08
-5.32796e-08
3.43345e-05
0.00205275
5.21103e-07
0.000184068
-9.08126e-08
-1.6993e-07
4.37504e-08
0.000162512
4.15185e-08
-0.00022303
-2.04524e-08
0.000325592
-9.92572e-08
-3.29874e-08
0.00220969
-5.5214e-05
-9.30136e-05
-5.64165e-07
-0.000237871
1.47306e-07
-6.78483e-08
-5.81505e-08
-7.24246e-07
-1.18932e-06
-1.39852e-06
1.57595e-07
-0.0010022
-2.98917e-07
0.00292734
-5.38481e-06
0.00131117
2.2989e-07
-0.000579477
-0.000696256
-3.19482e-07
0.000420335
-1.3949e-06
-2.25354e-06
-8.35397e-08
-1.66436e-06
2.78787e-07
-0.00115587
-0.000342244
-8.29823e-07
-0.000986162
-9.70817e-08
-7.55598e-07
-7.92433e-08
-0.000523331
1.47535e-07
-1.32793e-08
0.000123015
-6.77916e-06
1.73401e-05
-0.000942575
-1.25693e-06
-4.27636e-07
2.43165e-07
0.000322043
-5.06318e-07
3.382e-07
-6.44282e-05
1.25427e-07
-7.60392e-07
-6.69491e-08
0.0040243
1.49766e-07
0.000343315
-8.36927e-05
-6.67678e-07
1.38879e-05
-1.08005e-06
-0.0010021
4.66156e-08
-0.000389559
-0.00342489
1.33222e-07
-5.97414e-08
-1.55504e-07
-1.03473e-07
-6.36983e-07
1.37982e-08
1.78095e-06
-1.23717e-06
1.77843e-05
-1.41638e-08
1.938e-08
-1.19066e-07
2.88463e-07
-0.000986414
-7.06292e-08
-2.30572e-09
5.36335e-05
-2.68304e-07
-0.000414407
-0.000999184
-1.94282e-06
-3.70015e-08
-5.33832e-07
-1.62915e-07
-1.37177e-07
-6.19502e-09
1.88919e-07
-2.80802e-07
2.70655e-05
-0.000887737
-0.000354387
-1.57665e-07
0.000122194
0.000133764
-1.03516e-07
5.91139e-06
-0.000988766
-3.88976e-08
-2.54774e-07
-3.32971e-08
-0.00106589
3.45221e-05
0.000220501
1.89237e-07
-2.68156e-07
1.29212e-07
-6.71455e-08
0.0017569
-2.79346e-08
7.61461e-07
2.5517e-05
-0.00103508
1.30771e-07
-2.75514e-07
-2.36772e-07
9.13436e-06
9.35094e-08
4.35493e-05
3.00285e-05
1.7879e-06
-0.00304107
-0.000123067
0.000901173
8.19974e-08
0.000779417
3.59445e-06
-1.63529e-07
2.25407e-07
4.54589e-08
-0.00098114
6.35491e-06
0.000114097
2.69955e-07
-0.00101838
-7.81875e-08
0.00220346
2.87333e-07
-1.7012e-07
-1.63081e-07
1.20523e-07
2.13056e-05
-1.66959e-07
-0.000586076
3.06589e-05
5.01797e-05
-7.21656e-07
-8.708e-07
4.3878e-05
-0.000959914
4.36386e-07
0.000123413
2.84254e-07
4.28971e-08
-4.94375e-08
3.12503e-07
3.18865e-07
2.1365e-05
-6.14373e-07
-1.75444e-06
1.62885e-07
2.92777e-05
3.9822e-05
-1.58791e-05
1.04983e-07
-1.45804e-06
-1.24987e-06
3.20494e-05
2.45564e-07
4.42269e-08
1.20961e-07
-0.00152216
1.08869e-07
-1.20809e-05
1.79251e-05
-7.52668e-07
-7.82871e-07
2.24148e-07
-0.000176437
-1.06499e-07
-0.000830604
9.87387e-08
0.000152635
-5.39864e-07
-6.56164e-08
2.35453e-05
6.3995e-05
1.20729e-07
-1.06079e-06
-2.50247e-07
0.00013629
4.86867e-07
0.000116794
-2.04536e-06
-1.10316e-07
-1.52214e-06
-0.000388212
3.5106e-07
3.21407e-07
1.55186e-07
-1.66435e-06
-5.77139e-07
2.81248e-05
-0.000327746
-6.86178e-08
-0.00057907
-1.75697e-07
-7.62072e-07
-0.000819066
1.59325e-05
-2.2906e-07
-0.000587449
0.00220063
-6.52001e-08
-4.17821e-05
0.000205191
-5.2735e-07
-1.62497e-07
-0.000603253
1.39594e-07
5.18366e-05
-9.24202e-07
0.00108195
-2.14408e-08
8.26535e-08
-0.000590159
-7.79353e-07
-0.000534486
-1.43175e-07
-2.5364e-07
8.23305e-07
-0.000668093
-3.74271e-07
-0.000931542
0.000503374
2.49021e-05
-3.92868e-08
-0.000689176
-5.6899e-05
6.5015e-06
-3.03085e-08
3.42229e-07
1.00115e-07
-0.000947333
3.3737e-07
-0.000277564
-7.89535e-05
-1.10611e-07
2.29926e-07
-3.42574e-08
1.41619e-05
-0.00105771
-2.51667e-05
3.76936e-05
2.24596e-08
-0.000269507
-0.000991844
0.000605677
8.74736e-05
-0.00061035
1.64246e-07
6.598e-05
-2.40936e-07
-3.55243e-07
-0.00109879
-0.000707106
3.13124e-07
5.55034e-06
1.89202e-08
-6.25331e-08
8.77643e-06
-0.000402198
-0.00111521
-0.000294943
-4.56132e-07
-1.12661e-07
2.43295e-07
-0.00100808
6.91003e-05
-4.57912e-08
-6.91945e-07
0.00018513
-5.89181e-08
-6.9173e-08
-0.000952582
-5.89266e-05
-1.67001e-07
-2.21771e-08
-1.56059e-07
-8.53395e-08
1.048e-05
-1.05819e-07
2.85501e-07
-2.65649e-07
0.00362985
-0.000164213
2.77621e-06
-0.000448319
-6.96522e-08
-1.87163e-07
-0.000682745
-0.000977007
-1.95546e-07
-8.73841e-07
-2.80487e-08
-6.28669e-07
1.24895e-07
3.36853e-07
-8.92901e-07
2.72176e-07
-0.00121064
-4.08032e-07
2.83253e-07
-1.74423e-07
-0.00020217
-0.00187655
-0.000507151
-6.56259e-08
5.30959e-07
-0.000983425
-0.000311425
-2.84306e-07
2.42045e-07
-1.96625e-08
0.00019039
-7.00325e-08
2.17745e-07
-4.06329e-07
-5.85941e-08
-0.000686883
3.01e-06
-1.05631e-07
-2.53614e-07
1.71329e-07
-3.68591e-08
0.00294794
5.39041e-06
-1.19091e-06
0.000150398
-1.26577e-06
-1.20511e-07
-3.41644e-08
-6.45053e-08
9.44325e-08
-1.03563e-07
8.19863e-07
-2.79483e-06
-0.000753828
1.50946e-07
0.000693042
-0.000471682
-8.96267e-07
3.98528e-09
-1.72828e-08
-2.45888e-07
-6.3108e-05
9.54057e-08
0.00163934
-0.000707716
4.82824e-07
3.53601e-07
-0.000276982
1.81903e-07
1.10711e-06
8.30608e-08
1.80743e-07
1.04609e-07
3.12866e-07
-2.80285e-08
-0.000752246
5.28342e-06
-5.90023e-07
0.00348473
1.36251e-05
0.000220503
-5.7025e-07
-0.000463263
0.000151321
0.000798084
-0.000125233
-0.000965473
0.000250967
-0.000128418
-1.13138e-07
3.17084e-07
-0.000207333
7.95455e-08
-2.66632e-07
-0.000165376
3.04289e-07
0.000232456
0.00554746
2.37553e-07
3.91188e-07
-6.68916e-08
5.11857e-07
2.84302e-07
8.19759e-07
2.39505e-05
-0.00086509
0.000394262
-5.90475e-08
1.77543e-07
-1.62124e-06
5.79955e-05
-0.000691851
0.00175879
-0.000849098
6.24351e-08
-0.000931127
-0.000575869
3.25269e-06
-1.20552e-07
-6.41683e-08
1.51859e-07
-9.15125e-08
2.01854e-08
5.31695e-08
-2.53242e-07
-0.000653535
-1.77291e-06
-0.000611766
4.38832e-07
0.000409049
-0.000176444
-4.74317e-08
9.95424e-08
3.38562e-07
8.66861e-08
-1.05828e-07
8.00823e-06
-8.13408e-05
0.000161425
-0.00100155
-2.35331e-07
3.41407e-05
0.00264487
-0.000944662
-0.000662672
-3.64323e-08
3.04982e-07
1.61771e-06
-5.67105e-08
1.32481e-07
0.000295609
-0.00069025
-0.000911594
-6.79905e-08
-7.12011e-08
3.68056e-07
-5.91178e-07
8.98332e-05
2.85359e-07
-1.46365e-07
-9.04686e-05
1.71452e-07
-0.00078155
-5.89307e-07
-6.74505e-05
-1.11282e-07
-0.000505956
2.91964e-05
-5.17427e-07
-0.00100117
0.000763398
-0.000606558
1.76135e-07
-2.34976e-07
1.9233e-07
-4.3311e-07
-2.30672e-05
3.05427e-07
2.09596e-05
3.35775e-07
2.86374e-07
-1.66823e-08
-0.000963614
-7.46097e-07
0.00107958
0.00097175
1.26008e-07
-8.55811e-07
2.23112e-05
-1.2791e-06
3.22041e-07
6.87485e-08
-5.05307e-08
1.45864e-06
2.325e-07
2.92593e-07
-0.000974625
-0.0010529
-0.000925972
0.00448621
0.0001168
2.67475e-05
-1.65878e-06
-0.00102711
0.00263319
1.63132e-07
2.04531e-07
4.02105e-08
-4.66988e-08
-0.00102007
-0.0009995
2.36591e-07
2.16404e-05
-0.000907882
-4.85752e-07
1.70253e-07
1.17638e-07
-0.000583951
-0.000928343
-0.000663169
0.00389977
-0.000690651
3.8146e-08
0.000470959
-5.22088e-05
-1.82288e-05
-0.00104682
-4.82284e-08
0.000242749
1.72317e-05
-4.49224e-07
-1.72784e-05
-4.66424e-08
8.71337e-07
2.03287e-05
-0.000769554
-1.88486e-06
-4.76006e-07
-0.000277286
6.15588e-05
-0.000751356
-0.000886171
-0.000685497
0.000396379
-0.000664858
-7.33843e-08
1.23753e-08
-8.02591e-07
-0.000501754
-7.5773e-05
-0.000600831
2.10284e-07
0.00120388
-2.70366e-06
1.30338e-07
-0.000976788
-4.27743e-08
0.000836788
-0.000478239
-3.24085e-08
0.000312917
-0.00014805
-0.00084395
-0.000645864
0.000570857
2.69205e-06
1.70661e-07
-0.00102791
3.38467e-07
3.41676e-07
-7.36479e-07
-2.64678e-07
-0.000691616
-2.83215e-07
4.06093e-07
-2.68506e-07
3.09009e-07
-8.0905e-05
-1.7084e-07
0.000699858
-2.90456e-05
1.04342e-07
-0.000559494
3.45246e-06
2.03512e-07
2.60347e-05
-3.57541e-05
-2.28615e-08
-8.36332e-05
-1.36426e-07
-0.000910905
5.4589e-07
2.36764e-07
2.66653e-05
-1.77182e-07
-0.00104284
-0.000690673
-1.29719e-06
-0.00254006
-1.68955e-07
-1.99648e-08
-7.46926e-05
-2.79594e-07
1.12162e-07
-0.00086476
-6.86134e-07
2.88546e-08
2.80369e-07
0.00269651
-1.4852e-07
-0.000419329
0.00036135
2.45213e-07
1.04042e-06
-9.02743e-07
-8.27394e-07
1.77479e-07
-0.00104563
-0.000390077
1.65155e-05
-3.15373e-08
2.27637e-07
-1.16428e-06
-4.33612e-07
0.000355031
1.08759e-07
-6.38937e-05
2.30287e-07
0.00177712
2.30146e-07
1.42455e-07
0.00252381
0.00018082
-0.000576997
0.00303591
-0.00096648
-0.000666863
4.39565e-08
-0.000728613
-0.000801799
-0.000479116
1.34362e-07
0.00169859
-0.000388638
9.72546e-05
0.000180046
0.000110799
-0.000236825
-0.0010607
-7.38331e-07
0.000185501
1.20322e-07
-8.58366e-07
-6.68877e-07
-4.22528e-08
-1.29666e-06
1.15158e-05
1.18516e-06
6.99154e-05
-0.000950513
-4.86484e-08
2.00044e-07
4.08072e-07
-4.4196e-08
0.000477627
2.97071e-07
2.47207e-07
-0.00106382
-0.000290188
2.94827e-07
1.26737e-05
1.46788e-07
-9.80502e-06
2.04113e-05
-0.000694787
3.78201e-05
-3.53918e-07
-0.000694327
1.3226e-07
1.00632e-07
-2.2672e-07
-0.00057399
-0.000699717
0.000608818
-0.000334612
-1.68023e-07
2.57575e-07
-4.67246e-08
-1.1137e-07
-4.16808e-07
-1.00721e-05
-0.000906904
-4.2748e-07
-0.000986137
-0.000381485
2.26371e-06
7.57209e-05
-6.60179e-08
-4.87691e-07
-2.18135e-06
-5.0476e-08
4.3412e-07
-3.91477e-07
-2.81729e-07
-0.000353017
-0.00069102
3.01556e-07
-6.55735e-07
-4.65475e-07
-1.04436e-06
-5.17901e-06
0.000529565
-0.00103786
1.15396e-07
-1.49726e-06
-0.000996768
-2.23607e-06
6.39857e-05
3.36818e-07
-0.000607042
-0.00110237
-0.00101221
2.73072e-07
-0.000665435
2.40507e-07
-2.38528e-08
-6.17113e-08
-9.99034e-07
-0.00110993
-0.00033248
-0.000153871
0.000129974
-9.35865e-07
1.04445e-07
-1.02275e-08
-7.19654e-08
5.34657e-07
-8.21933e-07
-0.00105565
-0.000954461
-1.49653e-06
-3.22547e-05
-4.0059e-08