/*--------------------------------*- C++ -*----------------------------------*\
| =========                 |                                                 |
| \\      /  F ield         | OpenFOAM: The Open Source CFD Toolbox           |
|  \\    /   O peration     | Version:  v2012                                 |
|   \\  /    A nd           | Website:  www.openfoam.com                      |
|    \\/     M anipulation  |                                                 |
\*---------------------------------------------------------------------------*/
FoamFile
{
    version     2.0;
    format      ascii;
    class       volScalarField;
    location    "850";
    object      k;
}
// * * * * * * * * * * * * * * * * * * * * * * * * * * * * * * * * * * * * * //

dimensions      [0 2 -2 0 0 0 0];


internalField   nonuniform List<scalar> 
13851
(
0.000168859
0.034391
0.000222043
0.000167631
0.000223689
0.000203453
0.000152275
0.000200092
0.000145026
0.000239276
0.00224888
0.0512565
0.0739441
0.0306852
0.000145464
0.000189123
0.000170266
0.000181894
0.0715084
0.000144743
0.000166901
0.000222382
0.00015447
0.000154716
0.00015916
0.000200717
0.000166282
0.00258052
0.000168276
0.000170541
0.000206618
0.000171328
0.000221617
0.00487502
0.000153597
0.0558968
0.0832239
0.0503043
5.98717e-05
0.004591
0.000154783
0.000132437
0.0113376
0.00510556
0.00534294
0.0259577
0.00639165
0.00203105
0.000167016
0.000171068
0.000215747
0.0262239
0.00892527
0.000148157
0.00016134
0.000132499
0.000145071
0.0119843
0.000169712
0.000153409
0.0520009
0.0448234
0.000203224
0.000246909
0.000471746
0.000173901
0.0834653
0.00677156
0.00018554
0.000181521
0.0197858
0.0824559
0.031209
0.000149509
0.000143821
0.000149641
0.000219486
0.0248855
0.000198911
0.0198397
0.000155943
0.00492828
0.000148998
0.0236506
0.000204358
0.0538778
0.000193779
0.0483214
0.000170785
0.000144851
0.0528678
0.000179375
0.00690567
0.000176093
0.00017009
0.000154551
0.000225263
0.0486379
0.000172233
0.000157392
0.0203257
0.000200393
0.00016262
0.000163804
0.000153684
0.00019264
0.00020345
0.000131386
0.0784946
0.000205689
0.000157626
0.000145321
0.000178319
0.00016356
0.000155416
0.0159959
0.05227
0.000131652
0.000159734
0.000165379
0.00999652
0.000163537
0.0725907
0.0102285
0.000992232
0.000144174
0.000704906
0.000199828
0.000166024
0.0231348
0.000154462
0.000142695
0.0243537
0.000148623
0.015367
0.000144475
0.000131748
0.0824296
0.0336082
0.0460576
0.019783
0.000161204
0.000159844
0.000136431
0.000165176
0.00526965
0.000143423
0.0253939
0.000152089
0.00525659
0.000214867
0.000161062
0.030575
0.000144786
0.000162308
0.000164952
0.00015149
0.000166008
0.0273428
0.000215517
0.000132823
0.000174782
0.0115773
0.00014247
0.000180394
0.00013444
0.000144395
0.000185965
0.00016543
0.0343893
0.0213185
0.000138616
0.000151658
0.0453343
0.000142077
0.00282182
0.000198707
0.000160451
0.0729395
0.000131565
0.00017355
0.0816128
0.000147756
0.000223909
0.000131716
0.000152196
0.000174387
0.000154477
0.000249717
0.000237232
0.0065297
0.0101974
0.000146349
0.000186356
0.0472708
0.000161773
0.000158946
0.00406256
0.00015967
0.000149971
0.000144358
0.0309458
0.000165157
0.000149297
0.000218749
0.000148227
0.0485728
0.000170398
0.0396183
0.000131894
0.0650608
0.000161982
0.00699999
0.000131114
0.000135549
0.000677397
0.000204507
0.0246702
0.000144926
0.0415455
0.000171005
0.000156266
0.0633743
0.0198378
0.0599897
0.000157927
0.000180122
0.000158889
0.0135928
0.000131121
0.000200003
0.000704525
0.000138452
0.000145829
0.000209139
0.000201939
0.0510979
0.0012664
0.00013625
0.000149521
0.000205326
0.000214095
0.000135895
0.000220472
0.000144006
0.0542174
0.000201388
0.00715572
0.000165583
0.000174019
0.0001722
0.000257777
0.000157682
0.00016578
0.00019983
0.000360705
0.000232387
0.0816522
0.0137512
0.000146969
0.000135733
0.000179406
0.00518063
0.000140093
0.0712334
0.000161753
0.00015733
0.000174885
0.0660511
0.000156181
0.00017197
0.00016238
0.00031253
0.000196774
0.000188101
0.000143034
0.00500971
0.000155584
0.063183
0.00212503
0.000135846
0.000131474
0.000152571
0.000198406
0.00751488
0.00616466
0.000147797
0.000145485
0.000277871
0.00479139
0.0358867
0.000168473
0.000153642
0.000188749
0.00461652
0.071851
0.000178736
0.0532025
0.000143681
0.0559144
0.000173888
0.000170085
0.0634829
0.000157489
0.000194049
0.057743
0.000147243
0.000193578
0.000176426
0.000167602
0.0353013
0.000179207
0.000157502
0.0594096
0.000132987
0.000174577
0.000145639
0.066177
0.00628905
0.000145159
0.000200913
0.000145294
0.0213271
0.000175519
0.000151722
0.000155134
0.00409844
0.00017873
0.000161624
0.000145454
0.000157241
0.000157295
0.00368183
0.0301131
0.0379481
0.00018629
0.0664656
0.0626738
0.000144945
0.000187402
0.0382466
0.000181654
0.000211812
0.00618986
0.0715681
0.000170021
0.0166775
0.0568474
0.000145754
0.000159629
0.000159454
0.0583361
0.000161542
0.000215887
0.0139069
0.000152347
0.0161508
0.000155017
0.000145232
0.000141776
0.000131375
0.000149612
0.0598362
0.00444672
0.000152972
0.000192419
0.000133631
0.0501555
0.000197739
0.0109391
0.036505
0.000153324
0.000208627
0.000177018
0.00955464
0.000153484
0.000131799
0.000175326
0.0200457
0.000149054
0.037365
0.00018177
0.0178999
0.0316313
0.000291794
0.000294507
0.000168033
0.000143256
0.000154539
0.000184088
0.000200316
0.0336958
0.000185581
0.0630439
0.0576985
0.000133778
0.000147235
0.0357684
0.0241288
0.000346298
0.0550305
0.000175975
0.000178463
0.00015724
0.0645685
0.000141352
0.000188099
0.000167158
0.000152035
0.000155859
0.000146731
0.000134284
0.000236767
0.000209917
0.0271283
0.000182418
0.000202925
0.000186901
0.000235718
0.000176716
0.0602011
0.000169197
0.000527693
0.000131638
0.000146178
0.000156292
0.0605374
0.00634283
0.0163274
0.000186231
0.0233141
0.0043273
0.000192306
0.000169539
0.000209897
0.000152898
0.000293852
0.000152112
0.0636933
0.00230954
0.000217267
0.0365342
0.000160432
0.000154975
0.00319403
0.0233227
0.000131019
0.000181098
0.000199809
0.000157567
0.000140014
0.000157604
0.000210644
0.0187428
0.000189266
0.0444759
0.000155023
0.000155829
0.0155583
0.000182185
0.000131278
0.0482193
0.000143126
0.00016883
0.000141662
0.000200671
0.000164307
0.000131653
0.00015982
0.0614014
0.000149508
0.000188223
0.00014366
0.000177555
0.000204371
0.000163843
0.000154944
0.000163193
0.000164201
0.00237566
0.000156937
0.000197632
0.000147318
0.00015333
0.0230586
0.0343009
0.000148976
0.000178138
0.000176785
0.000237818
0.0240342
0.00015597
0.00454592
0.000153703
0.000223581
0.000152784
0.0172141
0.000132187
0.00859841
0.000234625
0.000132579
0.000178009
0.0390476
0.000200949
0.00696954
0.000159848
0.00864139
0.000166105
0.000141432
0.000143673
0.000151546
0.0301425
0.000210265
0.025743
0.075171
0.000203547
0.000133255
0.0654592
0.00498682
0.000173703
0.000175443
0.000188732
0.00980462
0.067965
0.000158728
0.0176791
0.0257442
0.0293894
0.000180936
0.000178691
0.0101993
0.000158387
0.000299186
0.00586288
0.0657437
0.000166832
0.0657151
0.0792124
0.000131685
0.0001528
0.000211163
0.0279624
0.000166387
0.000146209
0.000150779
0.000152653
0.000242031
0.000199165
0.0455631
0.043652
0.00014304
0.014393
0.03627
0.000200192
0.00501818
0.000187743
0.00013094
0.000145685
0.000163946
0.06359
0.000162652
0.000229862
0.0535034
0.000132369
0.000191745
0.00633216
0.051941
0.00604332
0.031947
0.0795168
0.000154191
0.000152034
0.0390067
0.0562749
0.0184923
0.000185196
0.00020449
0.000131526
0.000146664
0.0646713
0.000132092
0.000166181
0.000131426
0.000142257
0.078134
0.000240931
0.00018276
0.000131984
0.0396984
0.0035018
0.000143964
0.000142622
0.000140374
0.000153372
0.0188473
0.00711526
0.00709074
0.0291853
0.00939714
0.000182836
0.0226341
0.0357505
0.000170994
0.000186325
0.000130888
0.000145508
0.000190712
0.0646129
0.0152548
0.000228964
0.00017963
0.000143604
0.000189105
0.000158539
0.006901
0.000216341
0.000146948
0.000187406
0.000139959
0.000174026
0.0200149
0.0001531
0.000152668
0.00019757
0.000154035
0.000224445
0.0566968
0.0126427
0.00019015
0.0248602
0.000143166
0.000216363
0.000173996
0.0277482
0.000161446
0.00015356
0.0796458
0.000168947
0.03008
0.0548163
0.0222309
0.0472532
0.000141169
0.0816841
0.000136506
0.000142597
0.000132111
0.00014253
0.000139921
0.000183609
0.000198031
0.000131767
0.0625197
0.000237064
0.0609202
0.000149627
0.000132872
0.000143424
0.0334647
0.0492267
0.000199598
0.000174714
0.00013679
0.000154334
0.000149239
0.00015261
0.0767464
0.0434883
0.00015375
0.00013166
0.000151542
0.000152453
0.0568948
0.010671
0.000189679
0.0448859
0.00828285
0.00015203
0.0206722
0.0221809
0.000187998
0.0519883
0.000155966
0.000179775
0.000199093
0.000180394
0.00620351
0.000148466
0.0102816
0.000152975
0.000178196
0.0403719
0.000150292
0.000166522
0.000203105
0.000141828
0.000172192
0.00117791
0.0422737
0.000215223
0.0708424
0.000566737
0.000131252
0.000148822
0.0231596
0.0496879
0.000205312
0.0564508
0.000143505
0.000177388
0.000131804
0.00963647
0.0821417
0.000174851
0.000160538
0.000227285
0.000167306
0.000142402
0.016624
0.000573442
0.0442195
0.000132828
0.000153515
0.0237731
0.00664863
0.042491
0.000157667
0.075636
0.000148792
0.000352631
0.0188863
0.000221416
0.000171673
0.0231951
0.0001697
0.000159256
0.0823501
0.000154024
0.000165392
0.000165082
0.000142722
0.0176773
0.000186276
0.00715806
0.000182544
0.000161248
0.000144141
0.0014235
0.000156538
0.000169567
0.000133791
0.000151124
0.000149779
0.0558791
0.000150359
0.000132119
0.000232238
0.000152313
0.0291625
0.000156666
0.0001591
0.000212208
0.0593885
0.00354446
0.000144311
0.000213479
0.0475849
0.000157312
0.0646958
0.000177718
0.000142001
0.000167839
0.01347
0.000211744
0.0001749
0.000144441
0.000131498
0.00330687
0.000239431
0.000214456
0.000177635
0.000167805
0.000155071
0.000158444
0.000228502
0.00413784
0.000248115
0.0144197
0.00015324
0.000224769
0.000228817
0.067735
0.000174559
0.0421387
0.0740402
0.000152321
0.0268554
0.000219171
0.0506403
0.0424777
0.0550556
0.000803843
0.000197617
0.000142337
0.00018305
0.012889
0.0248895
0.000154284
0.000156138
0.000210829
0.00195235
0.000132716
0.00854898
0.000142891
0.000152464
0.0169741
0.0239856
0.000660663
0.000142648
0.000145301
0.00768807
0.0746097
0.00603801
0.00016692
0.0410757
0.0505287
0.0521015
0.000203247
0.000192204
0.000157744
0.000152535
0.0287957
0.000196534
0.0235324
0.000176923
0.000185157
0.0193431
0.0485981
0.0323219
0.00015036
0.000180201
0.000143734
0.000190806
0.000166229
0.0475228
0.00017801
0.0445839
0.00013262
0.00021159
0.000149183
0.0370688
0.000183776
0.00017978
0.0455572
0.000193244
0.000203112
0.000155771
0.00021157
0.00494538
0.000209938
0.000166765
0.0204207
0.000139565
0.0429855
0.00291073
0.000155895
0.0632049
0.0204735
0.0315973
0.00063178
0.000175656
0.000154167
0.042249
0.000180198
0.0178473
0.0397731
0.000149467
0.000159985
0.0590153
0.0044823
0.03967
0.000154038
0.000140994
0.0337687
0.0397392
0.00623737
0.000173592
0.000164874
0.00269799
0.018929
0.000230048
0.000132178
0.000198152
0.000141843
0.000163368
0.000177887
0.000159162
0.0647765
0.000271672
0.000152788
0.00016051
0.000154461
0.000165205
0.0220656
0.038267
0.000180221
0.042148
0.000148794
0.000180549
0.000153669
0.000142049
0.000156337
0.000152721
0.0297586
0.00014934
0.000199518
0.000150741
0.000175095
0.00018366
0.00629006
0.000159772
0.0406344
0.00021643
0.0773238
0.000187195
0.000187101
0.0193996
0.000173866
0.000200084
0.0478108
0.00995858
0.0102181
0.000195386
0.00421258
0.000160684
0.000191923
0.000201021
0.0396647
0.000147234
0.0406995
0.000148526
0.00014987
0.0337651
0.000144321
0.0734701
0.0001725
0.000143971
0.000190477
0.000143978
0.000145373
0.000137786
0.000155552
0.0803931
0.00014972
0.0739929
0.0178122
0.000214553
0.0394004
0.000152269
0.000157949
0.000146666
0.000153011
0.000143304
0.000222487
0.000155036
0.000148973
0.000160894
0.000156691
0.0301724
0.04458
0.000207545
0.0533853
0.0781541
0.000146817
0.00093868
0.000179219
0.000149326
0.00677643
0.000191959
0.00117131
0.000144468
0.00603388
0.00397527
0.0161636
0.000138792
0.0728202
0.000184766
0.000166306
0.000138294
0.000143534
0.0619388
0.000216258
0.00448199
0.000149704
0.000147937
0.000441384
0.000155939
0.0596671
0.00161593
0.0400424
0.0739531
0.0065782
0.000153011
0.000153092
0.000209055
0.000177877
0.000164221
0.0293024
0.000196595
0.000155291
0.00016431
0.0451814
0.000149211
0.0306462
0.0772523
0.0178948
0.0632984
0.000157429
0.000137891
0.000159551
0.00493808
0.00120799
0.000138794
0.000164412
0.000149371
0.000221249
0.000133588
0.000148796
0.000156654
0.000185296
0.0818987
0.00020119
0.000187302
0.000150246
0.000198214
0.0692543
0.000157033
0.0280476
0.0657526
0.000223357
0.000135136
0.000194263
0.000146383
0.000150988
0.000158985
0.0245896
0.00655291
0.00632726
0.000164312
0.000294619
0.000146779
0.000155572
0.000157976
0.000489908
0.000545536
0.000132631
0.000184779
0.000211584
0.0336252
0.000163491
0.0424445
0.000139937
0.0449702
0.000221217
0.0688302
0.000229282
0.000222797
0.0588203
0.0380935
0.00686922
0.032691
0.000144469
0.017717
0.000133433
0.000166979
0.00017108
0.000154928
0.0375066
0.000182054
0.000176238
0.00133494
0.0515364
0.00154063
0.000145169
0.000164833
0.000176111
0.000138675
0.000184752
0.0340978
0.00988456
0.0280808
0.000143062
0.000173887
0.00016805
0.0092502
0.0588724
0.000208647
0.000137744
0.000154426
0.018599
0.00020022
0.0656755
0.0595603
0.000179603
0.0001349
0.0790454
0.000183751
0.000196407
0.000178168
0.0643274
0.00550468
0.0154306
0.000223994
0.000163038
0.000176474
0.000152208
0.0103713
0.000206395
0.0357544
0.00020124
0.000170824
0.0388518
0.000161979
0.0656832
0.0755538
0.000145433
0.0239642
0.042404
0.0309205
0.0787138
0.000150234
0.000153631
0.0227387
0.0681628
0.0177748
0.000163746
0.000151797
0.000153049
0.02993
0.0364695
0.000155538
0.000194067
0.000242694
0.0555337
0.078818
0.00887
0.000147312
0.0767532
0.000168446
0.000154773
0.0367068
0.0468691
0.000152406
0.000148655
0.00541937
0.0660745
0.000143397
0.000143095
0.0431577
0.000142028
0.000173306
0.000142988
0.00653985
0.000153832
0.0002001
0.0255126
0.0611497
0.000160493
0.0159875
0.000344059
0.0632842
0.0745032
0.0453688
0.000179536
0.000146953
0.0654503
0.000163146
0.000145335
0.000138499
0.00109529
0.000151805
0.0829448
0.000148923
0.000159815
0.0245894
0.000216146
0.0635711
0.000163352
0.000148379
0.00014331
0.000183462
0.0808654
0.0224198
0.000144073
0.000211584
0.00686142
0.000157769
0.000143879
0.0417336
0.000186765
0.000192011
0.0243625
0.0442188
0.000831005
0.0815472
0.0798058
0.000180852
0.000981325
0.00234747
0.0384008
0.00021188
0.000135646
0.0178406
0.000147162
0.000145258
0.0455515
0.0411526
0.000167033
0.0360465
0.000220901
0.0296762
0.000197477
0.000193838
0.000152354
0.000232228
0.000168303
0.000145249
0.000160968
0.0605975
0.047843
0.0419831
0.0684894
0.000197419
0.0479355
0.0614426
0.000182773
0.00015149
0.000151245
0.00476521
0.000146738
0.0764334
0.000159602
0.000157518
0.000167893
0.0696857
0.0683167
0.0194129
0.000160787
0.0791871
0.000173372
0.00018422
0.000143391
0.000144465
0.0114118
0.000177658
0.0360237
0.0285866
0.000191913
0.00338888
0.000145849
0.000198532
0.000156719
0.0326172
0.000160085
0.000162694
0.000160133
0.00016136
0.0468351
0.000157667
0.000190609
0.000145386
0.000191552
0.0449636
0.0225044
0.000152198
0.000199167
0.000161873
0.000204702
0.000144689
0.0614872
0.0230356
0.000181563
0.000164842
0.000159171
0.000183879
0.000153543
0.000178736
0.000145372
0.000150359
0.000158323
0.0578055
0.000175036
0.00017245
0.000176676
0.000158166
0.000206
0.0556249
0.070306
0.00018837
0.000151939
0.000166353
0.000135587
0.000151879
0.0599691
0.0452457
0.000153916
0.000185944
0.000243978
0.0791694
0.0001555
0.000157487
0.0422137
0.000161421
0.00016894
0.0785086
0.0705448
0.000154146
0.00014549
0.000148285
0.0581096
0.015957
0.000196965
0.00623001
0.0202744
0.00015893
0.0713978
0.0653952
0.000158479
0.0684536
0.000223782
0.000159104
0.0117285
0.000152968
0.00015462
0.000141976
0.0483054
0.000181295
0.0486625
0.000163235
0.000157397
0.000178096
0.00474148
0.0811893
0.0686465
0.00642511
0.000156419
0.0203777
0.0221448
0.013083
0.000220609
0.00241987
0.000147078
0.000176586
0.000143888
0.000428294
0.000195676
0.000148107
0.0457082
0.0223438
0.000186436
0.000164317
0.000131912
0.000155617
0.000208345
0.000189959
0.000277808
0.000212299
0.000215768
0.000213472
0.00495227
0.0622045
0.000203478
0.0675838
0.000152445
0.000148949
0.0751727
0.0221983
0.0119611
0.000200951
0.000155774
0.0275432
0.00637413
0.000150645
0.000171931
0.000142365
0.000192855
0.000214102
0.000147961
0.00993219
0.0807654
0.000161066
0.0512505
0.0210348
0.000147035
0.000231824
0.0322585
0.0135284
0.000165532
0.000216488
0.000131054
0.000168416
0.000145359
0.000173293
0.064684
0.0409218
0.00892263
0.0332379
0.000159696
0.000191264
0.000209604
0.00014657
0.000154638
0.000143574
0.0664714
0.000146515
0.0692495
0.000194851
0.000199857
0.031476
0.0783963
0.0259791
0.0784473
0.000192654
0.000133984
0.000147731
0.0783227
0.0774907
0.000169252
0.000142204
0.000140275
0.000212049
0.000183596
0.0370219
0.0623192
0.00015898
0.000142537
0.00428094
0.000165627
0.0217598
0.0245299
0.000143421
0.000216588
0.000157906
0.061656
0.000135747
0.0501976
0.00014198
0.000158668
0.000185522
0.000153027
0.000203092
0.000180767
0.000198416
0.0143017
0.0498331
0.000170788
0.000181984
0.000151985
0.0784204
0.0169918
0.000150999
0.000136467
0.00685795
0.000131445
0.030462
0.000157425
0.000190397
0.00021742
0.00136921
0.000197477
0.000165105
0.00015153
0.000212155
0.062004
0.000147368
0.000324546
0.032949
0.0240554
0.0334019
0.000190544
0.032046
0.000168341
0.0459911
0.000146407
0.00535379
0.0053264
0.0198912
0.019422
0.0586623
0.000144934
0.000181005
0.000148719
0.0176374
0.00700498
0.0581515
0.0134553
0.000177598
0.0638645
0.0136539
0.000192545
0.000165246
0.000153116
0.0353327
0.000173931
0.000211336
0.000163836
0.000158286
0.000141866
0.000155437
0.0516854
0.0784424
0.0001854
0.0189886
0.0738278
0.000143777
0.000148397
0.000143782
0.000175708
0.0481017
0.0811432
0.000174247
0.000185119
0.000354134
0.000221519
0.000196042
0.00724981
0.000183934
0.065069
0.000178469
0.00018359
0.000147239
0.00016405
0.000215561
0.00460597
0.00368751
0.0389928
0.000217196
0.0370471
0.000165614
0.000168509
0.000158813
0.00977525
0.0232219
0.0100854
0.000193926
0.000164753
0.000152286
0.000146416
0.000145405
0.000143936
0.0108941
0.000181616
0.00963333
0.000188134
0.0548761
0.0633796
0.0560565
0.000176718
0.000171137
0.0171999
0.000197815
0.0301938
0.0367453
0.000141208
0.000179789
0.000175828
0.0200694
0.0172478
0.000191975
0.000194279
0.00707337
0.000161271
0.000207543
0.000178188
0.0247943
0.00591016
0.000166965
0.000151763
0.00387884
0.0408751
0.0221443
0.0125508
0.018057
0.000176211
0.000146548
0.0587672
0.0431895
0.000221377
0.000180709
0.053895
0.031566
0.000149006
0.000148868
0.000167815
0.0610256
0.0601891
0.000146628
0.0276744
0.000156805
0.000151987
0.000157132
0.0312093
0.0503518
0.000168384
0.0117539
0.000165991
0.00016267
0.000147078
0.0205952
0.000158398
0.0352771
0.000170155
0.0381513
0.000154431
0.000147595
0.0152688
0.010654
0.00678713
0.0001927
0.0644193
0.000134979
0.000153448
0.000149391
0.000198411
0.000211198
0.000210823
0.000195343
0.0702595
0.000167702
0.0165883
0.000230398
0.0632988
0.000156321
0.0340886
0.041513
0.000167421
0.00780382
0.000208367
0.0191823
0.000154549
0.000218712
0.000152351
0.0282887
0.0193147
0.000231997
0.0638587
0.000168826
0.000196252
0.000163632
0.0300137
0.000134804
0.000142284
0.00962506
0.000237342
0.0214586
0.0805583
0.000206548
0.000179814
0.000141604
0.0365017
0.0001845
0.000145489
0.0399855
0.000137416
0.000194929
0.000152541
0.0230315
0.000162517
0.00600128
0.00205468
0.000185312
0.000257496
0.000209225
0.0615486
0.000155499
0.0239557
0.043406
0.00014273
0.000150011
0.000164328
0.000154755
0.000194859
0.000148622
0.000186155
0.000217906
0.000246229
0.000205147
0.000157495
0.000156592
0.000142453
0.0781322
0.000153732
0.000154217
0.073834
0.000164814
0.0405099
0.0654806
0.000228393
0.00017112
0.000189224
0.000162567
0.000156837
0.000182512
0.000137181
0.000165528
0.00913136
0.0534524
0.0774105
0.000162458
0.0177428
0.000361225
0.000154679
0.000182944
0.0672984
0.000146526
0.000164146
0.000144759
0.0788105
0.0215569
0.00254694
0.000137018
0.000167558
0.000165302
0.000152102
0.0219683
0.000157306
0.000177672
0.00712165
0.0679192
0.00014169
0.000165485
0.000162884
0.0250631
0.000131823
0.0202637
0.0102782
0.000186109
0.0148111
0.0373655
0.0656353
0.000164121
0.00396082
0.000192321
0.000158419
0.000141112
0.00014487
0.0641145
0.0138586
0.0195959
0.00015252
0.0646214
0.000154674
0.0369597
0.00014232
0.000165923
0.000158453
0.000141287
0.0228628
0.000158359
0.0406372
0.031402
0.0199485
0.00020129
0.000198761
0.0212732
0.0620815
0.000153923
0.0141711
0.000142464
0.000131824
0.000147441
0.000151142
0.000144566
0.0148304
0.000183432
0.000169806
0.000196633
0.00997596
0.0175336
0.000251726
0.000140671
0.000210228
0.00022119
0.0226287
0.000156362
0.000132492
0.000166644
0.040496
0.000158777
0.000383623
0.0137387
0.000193669
0.000210736
0.000156744
0.00097282
0.000155166
0.0496569
0.000137111
0.014718
0.000180848
0.000152685
0.0145151
0.0191813
0.000136759
0.000207324
0.000170491
0.0190386
0.000167572
0.000213924
0.000167673
0.000155885
0.000210602
0.0459765
0.000146287
0.000150734
0.000164766
0.000218017
0.000183838
0.011143
0.0362061
0.000153213
0.0339795
0.000159973
0.000196942
0.0603899
0.013427
0.000194438
0.0382928
0.0462674
0.000151754
0.000660913
0.0166046
0.0001811
0.000158359
0.0561302
0.000137283
0.0153004
0.000164531
0.00147493
0.00014486
0.000185865
0.0353824
0.000197196
0.0528458
0.000157278
0.000166751
0.000215982
0.0589419
0.000170373
0.0605478
0.0145422
0.0156283
0.000157679
0.0609687
0.065918
0.0241637
0.000146548
0.000146955
0.000155843
0.0611727
0.000165492
0.00146457
0.000343521
0.000156583
0.000139566
0.000146424
0.0239947
0.082657
0.0212784
0.0183994
0.000146045
0.0422422
0.0667225
0.0242101
0.0151789
0.0378185
0.000193083
0.0145998
0.000163513
0.000169536
0.079737
0.0687234
0.000143545
0.0331476
0.000159877
0.000149995
0.0539462
0.036228
0.0726063
0.0175236
0.000186017
0.000156233
0.000169168
0.0699329
0.0187597
0.000146745
0.000194553
0.00769745
0.000149532
0.000154597
0.0697267
0.030503
0.000165086
0.000146678
0.000157973
0.000164373
0.000230856
0.000154762
0.000152717
0.000174505
0.0067084
0.0328713
0.000199181
0.0491346
0.000153511
0.000172201
0.0441924
0.0650597
0.000181467
0.000257255
0.000144793
0.000189851
0.000165133
0.00014418
0.00021634
0.000152421
0.00952793
0.000189737
0.000149119
0.00017102
0.0661332
0.0439994
0.0318601
0.000150087
0.000185345
0.0658712
0.0097818
0.000166264
0.000155721
0.000147156
0.00159909
0.000154881
0.000150971
0.000178364
0.000149733
0.0436329
0.000197985
0.000156192
0.00016889
0.000136224
0.000157045
0.0363736
0.000199276
0.000215176
0.0160336
0.000201256
0.00015663
0.000144596
0.000152943
0.000155414
0.000155506
0.000174907
0.000219902
0.058129
0.000163298
0.00353983
0.0322507
0.000165724
0.000153448
0.00014239
0.000163505
0.0590207
0.000154772
0.0571055
0.0818816
0.000198826
0.000153066
0.0209473
0.000136257
0.000179597
0.000137848
0.000136545
0.000159159
0.000148343
0.000181647
0.0714034
0.000229844
0.000194543
0.0570595
0.000231052
0.000478486
0.00018316
0.0362322
0.0144945
0.00224019
0.0625723
0.0698282
0.003469
0.000453766
0.000155109
0.000144443
0.0436628
0.000149941
0.000169032
0.0475163
0.000166712
0.0506682
0.0202316
0.000147159
0.000149142
0.000154243
0.00017638
0.000142024
0.000160764
0.0226575
0.0640405
0.0183529
0.000154767
0.000138115
0.000215158
0.0385838
0.0430663
0.00262025
0.0824245
0.000145254
0.0830006
0.0332413
0.000209786
0.000169677
0.00015512
0.000134677
0.000167826
0.000156927
0.000155842
0.000168184
0.0420022
0.00022094
0.0358823
0.000181494
0.0640083
0.0537692
0.000146068
0.000142455
0.000155911
0.000138796
0.000154797
0.000208596
0.0648488
0.0133551
0.0632714
0.000162821
0.0187027
0.0297217
0.0616902
0.0382376
0.000156602
0.0001485
0.000209708
0.000155278
0.000137065
0.00847653
0.0433428
0.0811878
0.000152034
0.000153998
0.000164454
0.000194484
0.0654417
0.000142807
0.000171375
0.0752449
0.000139864
0.00602651
0.000194109
0.0481672
0.000155896
0.0799801
0.0390446
0.000193292
0.0700804
0.00324712
0.0355905
0.000136143
0.000173033
0.000147937
0.0001834
0.0329848
0.000155866
0.010194
0.000155161
0.00015095
0.000146403
0.0606409
0.000195484
0.0046847
0.00708434
0.000140485
0.000202796
0.0125882
0.000209743
0.000144647
0.000165097
0.00015582
0.000203205
0.000155276
0.000149848
0.0597166
0.0690919
0.0595133
0.0369861
0.0724294
0.0172678
0.000211652
0.0644385
0.0161894
0.000135452
0.000147487
0.000131556
0.000157883
0.0697877
0.0686552
0.000140038
0.00877222
0.0548697
0.000177439
0.00016274
0.000184853
0.0559976
0.0694235
0.0414609
0.0440107
0.0427391
0.000131544
0.0693866
1.67287e-05
0.000482831
0.0796864
0.0001475
0.0191616
0.0145519
0.000189279
0.037002
0.000159677
0.000162353
0.0158973
0.0457008
0.000215673
0.000185585
0.0242167
0.0167374
0.0443973
0.0545166
0.0439289
0.00368054
0.0645003
0.000154346
0.000170678
0.000197941
0.0293016
0.00250068
0.0347701
0.000152127
0.00263242
0.000219957
0.000155367
0.0697945
0.000146826
0.02447
0.0294196
0.000146142
0.0555724
0.0601933
0.0505317
0.060239
0.063088
0.000189525
0.000153278
0.0696633
0.0001546
0.000146574
0.000194502
0.000166889
0.0406558
0.000167038
0.000186582
0.000168334
0.000148423
0.0650936
0.000164494
0.00645084
0.000515578
0.000141164
0.0323793
1.07631e-05
0.000163051
0.0115182
0.0749991
0.00014476
0.000973323
0.000158355
0.0552013
0.000184718
0.000140207
0.0023601
0.000164674
0.0693754
0.0420314
0.000216221
0.0216421
0.000175774
0.000147451
0.0498033
0.000165557
0.000155902
0.0807876
0.000189893
0.000144428
0.000148995
0.020706
0.000164173
0.0299695
0.0706611
0.0001659
0.0187111
0.000199304
0.000212172
0.000153793
0.0692597
0.0218588
0.0234339
0.000146828
0.000139287
0.000217417
0.00018518
0.00174817
0.000156175
0.00770762
0.000154692
0.00586416
0.000150275
0.000166277
0.0371867
0.0034718
0.0331451
0.0261957
0.0666814
0.0407762
0.000131867
0.081344
0.081674
0.0273584
0.000144107
0.0496018
0.0223791
0.020569
0.00362118
0.0699436
0.00846255
0.0689228
0.000193598
0.0725421
0.000141072
0.000197999
0.000191634
0.000146387
0.000211997
0.0205073
0.0001815
0.0202701
0.0841214
0.000146274
0.00014762
0.000182402
0.000146734
0.018848
0.000143465
0.000147887
0.0677795
0.076213
0.00019031
1.62282e-05
0.000156492
0.000252369
0.0129345
0.0412476
0.0137732
0.00016919
0.0416746
0.000165807
0.000139125
0.000162257
0.0360399
0.0811718
0.0678898
0.0774667
0.000159437
0.000149181
0.000147095
0.000155095
0.000173131
0.0215651
0.0825678
0.000180618
0.0696331
0.0297206
0.000188015
0.0291852
0.000150654
0.000181554
0.000208261
0.000148483
0.000146142
0.000175456
0.000166984
0.0446498
0.0409737
0.000143445
0.000189678
0.000182248
0.000217469
0.0253489
0.0568094
0.0677643
0.000158915
0.00022227
0.0636002
0.000222589
0.00243247
0.000182472
0.0570381
0.0720447
0.0627623
0.000142504
0.0657942
0.000140102
0.000167378
0.000150525
0.000210632
0.0711216
0.0204005
0.00769907
0.0209313
0.000207874
0.000136185
0.000142319
0.000154317
0.000165085
0.000195954
0.0673616
0.0579946
0.000216878
0.000322617
0.000158176
0.000208011
0.000142028
0.0486941
0.00022388
0.000158268
0.0190451
1.85625e-05
0.0577153
0.032495
0.019519
0.0110444
0.00017146
0.0245105
0.0736447
0.0784823
0.00718668
0.000165504
0.000208079
0.000153405
0.0660264
0.0116178
0.000195814
0.0338399
0.0711796
0.0336995
0.000215599
0.0157206
0.0002007
0.000142738
0.00503252
0.000212517
0.000167797
0.000208221
0.000184454
0.000187893
0.012889
0.047326
0.000166706
0.000184596
0.000190492
0.000188544
0.000163593
0.0560413
0.00449649
0.000196116
0.0224092
0.000151685
0.0385987
0.000146793
0.000171999
0.000167416
0.0392932
0.000196148
0.044134
0.0310677
0.00021087
0.00019743
0.00617976
0.0444888
0.0264596
0.0221813
0.000175197
0.000194137
0.000147731
0.0393055
0.00255292
0.000171429
0.000151263
0.00019551
0.000171992
0.00017026
0.000196941
0.000190135
0.000154796
0.000191829
0.0347097
0.0227343
3.32633e-05
0.000194076
0.000133176
0.0441717
0.000184253
0.000207656
0.000278966
0.000191844
0.054713
0.000137598
0.000180664
0.000171821
0.000191004
0.000150826
0.0367614
0.000288245
0.0666617
0.000196299
0.0693464
0.0772826
0.000171034
0.043731
0.000208938
0.0750083
0.0214546
0.000201524
0.000167667
0.000190397
0.000215935
0.000169807
0.0761529
0.0311297
0.00520473
0.000142947
0.0793535
0.0499823
0.0490016
0.000146597
0.000196406
0.000152324
0.000185045
0.064961
0.000182466
0.000181026
0.000144806
0.000143149
0.0518316
0.0364454
0.000156394
0.057568
0.0723019
0.000136474
0.000159863
0.0389307
0.00420662
2.92975e-05
0.000149373
0.00017642
0.000111308
0.000153005
0.000152102
0.0540403
0.000181168
0.0372201
0.000224745
0.000173028
0.0723284
0.00237351
0.0364187
0.000144926
0.00193782
0.000179115
0.000174629
0.0418364
0.000193488
0.000157504
0.000248301
0.000168826
0.000171297
0.000137311
0.0327016
0.000151591
0.000219083
0.0664974
0.000144294
0.000148729
0.0651892
0.000181514
0.0275994
0.0358549
0.0337695
0.00143461
0.04417
0.000141877
0.000220493
0.00017028
0.00014583
0.00236399
0.0641968
0.00016805
0.000227908
0.000159098
0.000216961
0.0331391
0.000171936
0.000183408
0.00179999
0.0333814
0.0453223
0.0104867
0.000146974
0.000146828
0.000221386
0.000194129
0.0131986
0.0533787
0.0490399
0.0585936
0.0590804
0.000142924
0.0143921
0.000146309
0.000158843
0.000154722
0.00186472
0.031143
0.000229326
0.000150705
0.0239786
0.000176734
0.0312632
0.000146477
0.000213874
0.000180703
0.000210125
0.000198235
0.000180196
0.000162198
0.0463404
0.00263709
0.000145603
0.0189703
0.0794379
0.000199846
0.000162903
0.000182706
0.000149709
0.000152537
0.000207119
0.000160173
0.017198
0.067845
0.000228377
0.00024827
0.000146733
0.0400315
0.000208184
0.0613839
0.00018564
0.000186815
0.00141806
0.000187891
0.000185331
0.000206404
0.0270282
0.000168498
0.000158497
0.0649037
0.000183607
0.000166627
0.000179314
0.00018466
0.000142866
0.000176831
0.0537605
0.000148528