/*--------------------------------*- C++ -*----------------------------------*\
| =========                 |                                                 |
| \\      /  F ield         | OpenFOAM: The Open Source CFD Toolbox           |
|  \\    /   O peration     | Version:  v2012                                 |
|   \\  /    A nd           | Website:  www.openfoam.com                      |
|    \\/     M anipulation  |                                                 |
\*---------------------------------------------------------------------------*/
FoamFile
{
    version     2.0;
    format      ascii;
    class       pointVectorField;
    location    "850";
    object      pointDisplacement;
}
// * * * * * * * * * * * * * * * * * * * * * * * * * * * * * * * * * * * * * //

dimensions      [0 1 0 0 0 0 0];


internalField   nonuniform List<vector> 
14332
(
(0 0 0)
(0.0132178 -0.120417 0)
(0 0 0)
(0.0132178 -0.120417 0)
(0 0 0)
(0 0 0)
(0 0 0)
(0 0 0)
(0 0 0)
(0 0 0)
(0 0 0)
(0 0 0)
(0 0 0)
(0 0 0)
(0 0 0)
(0 0 0)
(0 0 0)
(0 0 0)
(0 0 0)
(0 0 0)
(0 0 0)
(0 0 0)
(0 0 0)
(0 0 0)
(0 0 0)
(0 0 0)
(0 0 0)
(0 0 0)
(0 0 0)
(0 0 0)
(0 0 0)
(0 0 0)
(0 0 0)
(0 0 0)
(0 0 0)
(0 0 0)
(0 0 0)
(0 0 0)
(0 0 0)
(0 0 0)
(0 0 0)
(0 0 0)
(0 0 0)
(0 0 0)
(0 0 0)
(0 0 0)
(0 0 0)
(0 0 0)
(0 0 0)
(0 0 0)
(0 0 0)
(0 0 0)
(0 0 0)
(0 0 0)
(0 0 0)
(0 0 0)
(0 0 0)
(0 0 0)
(0 0 0)
(0 0 0)
(0 0 0)
(0 0 0)
(0 0 0)
(0 0 0)
(0 0 0)
(0 0 0)
(0 0 0)
(0 0 0)
(0 0 0)
(0 0 0)
(0 0 0)
(0 0 0)
(0 0 0)
(0 0 0)
(0 0 0)
(0 0 0)
(0 0 0)
(0 0 0)
(0 0 0)
(0 0 0)
(0 0 0)
(0 0 0)
(0 0 0)
(0 0 0)
(0 0 0)
(0 0 0)
(0 0 0)
(0 0 0)
(0 0 0)
(0 0 0)
(0 0 0)
(0 0 0)
(0 0 0)
(0 0 0)
(0 0 0)
(0 0 0)
(0 0 0)
(0 0 0)
(0 0 0)
(0 0 0)
(0 0 0)
(0 0 0)
(0 0 0)
(0 0 0)
(0 0 0)
(0 0 0)
(0 0 0)
(0 0 0)
(0 0 0)
(0 0 0)
(0 0 0)
(0 0 0)
(0 0 0)
(0 0 0)
(0 0 0)
(0 0 0)
(0 0 0)
(0 0 0)
(0 0 0)
(0 0 0)
(0 0 0)
(0 0 0)
(0 0 0)
(0 0 0)
(0 0 0)
(0 0 0)
(0 0 0)
(0 0 0)
(0 0 0)
(0 0 0)
(0 0 0)
(0 0 0)
(0 0 0)
(0 0 0)
(-0.0138253 -0.120011 0)
(-0.0123229 -0.120033 0)
(-0.0108205 -0.120056 0)
(-0.0093181 -0.120078 0)
(-0.00781571 -0.120101 0)
(-0.00631332 -0.120123 0)
(-0.00481093 -0.120146 0)
(-0.00330854 -0.120169 0)
(-0.00180615 -0.120191 0)
(-0.000303758 -0.120214 0)
(0.00119863 -0.120236 0)
(0.00270102 -0.120259 0)
(0.00420341 -0.120282 0)
(0.0057058 -0.120304 0)
(0.00720819 -0.120327 0)
(0.00871058 -0.120349 0)
(0.010213 -0.120372 0)
(0.0117154 -0.120394 0)
(0.0132403 -0.118915 0)
(0.0132629 -0.117412 0)
(0.0132855 -0.11591 0)
(0.0133081 -0.114407 0)
(0.0133306 -0.112905 0)
(0.0133532 -0.111403 0)
(0.0133758 -0.1099 0)
(0.0133984 -0.108398 0)
(0.0134209 -0.106895 0)
(0.0134435 -0.105393 0)
(0.0134661 -0.103891 0)
(0.0134887 -0.102388 0)
(0.0135113 -0.100886 0)
(0.0135338 -0.0993835 0)
(0.0135564 -0.0978811 0)
(0.013579 -0.0963787 0)
(0.0136016 -0.0948763 0)
(0.0136241 -0.093374 0)
(0.0136467 -0.0918716 0)
(0.0136693 -0.0903692 0)
(0.0136919 -0.0888668 0)
(0.0137144 -0.0873644 0)
(0.013737 -0.085862 0)
(0.0137596 -0.0843596 0)
(0.0137822 -0.0828572 0)
(0.0138048 -0.0813548 0)
(0.0138273 -0.0798524 0)
(0 0 0)
(0 0 0)
(0 0 0)
(0 0 0)
(0 0 0)
(0 0 0)
(0 0 0)
(0 0 0)
(0 0 0)
(0 0 0)
(0 0 0)
(0 0 0)
(0 0 0)
(0 0 0)
(0 0 0)
(0 0 0)
(0 0 0)
(0 0 0)
(0 0 0)
(0 0 0)
(0 0 0)
(0 0 0)
(0 0 0)
(0 0 0)
(0 0 0)
(0 0 0)
(0 0 0)
(0 0 0)
(0 0 0)
(0 0 0)
(0 0 0)
(0 0 0)
(0 0 0)
(0 0 0)
(0 0 0)
(0 0 0)
(0 0 0)
(0 0 0)
(0 0 0)
(0 0 0)
(0 0 0)
(0 0 0)
(0 0 0)
(0 0 0)
(0 0 0)
(0 0 0)
(0 0 0)
(0 0 0)
(0 0 0)
(0 0 0)
(0 0 0)
(0 0 0)
(0 0 0)
(0 0 0)
(0 0 0)
(0 0 0)
(0 0 0)
(0 0 0)
(0 0 0)
(0 0 0)
(0 0 0)
(0 0 0)
(0 0 0)
(0 0 0)
(0 0 0)
(0 0 0)
(0 0 0)
(0 0 0)
(0 0 0)
(0 0 0)
(0 0 0)
(0 0 0)
(0 0 0)
(0 0 0)
(0 0 0)
(0 0 0)
(0 0 0)
(0 0 0)
(0 0 0)
(0 0 0)
(0 0 0)
(0 0 0)
(0 0 0)
(0 0 0)
(0 0 0)
(0 0 0)
(0 0 0)
(0 0 0)
(0 0 0)
(0 0 0)
(0 0 0)
(0 0 0)
(0 0 0)
(0 0 0)
(0 0 0)
(0 0 0)
(0 0 0)
(0 0 0)
(0 0 0)
(0 0 0)
(0 0 0)
(0 0 0)
(0 0 0)
(0 0 0)
(0 0 0)
(0 0 0)
(0 0 0)
(0 0 0)
(0 0 0)
(0 0 0)
(0 0 0)
(0 0 0)
(0 0 0)
(0 0 0)
(0 0 0)
(0 0 0)
(0 0 0)
(0 0 0)
(0 0 0)
(0 0 0)
(0 0 0)
(0 0 0)
(0 0 0)
(0 0 0)
(0 0 0)
(0 0 0)
(0 0 0)
(0 0 0)
(0 0 0)
(0 0 0)
(-0.0138253 -0.120011 0)
(-0.0123229 -0.120033 0)
(-0.0108205 -0.120056 0)
(-0.0093181 -0.120078 0)
(-0.00781571 -0.120101 0)
(-0.00631332 -0.120123 0)
(-0.00481093 -0.120146 0)
(-0.00330854 -0.120169 0)
(-0.00180615 -0.120191 0)
(-0.000303758 -0.120214 0)
(0.00119863 -0.120236 0)
(0.00270102 -0.120259 0)
(0.00420341 -0.120282 0)
(0.0057058 -0.120304 0)
(0.00720819 -0.120327 0)
(0.00871058 -0.120349 0)
(0.010213 -0.120372 0)
(0.0117154 -0.120394 0)
(0.0132403 -0.118915 0)
(0.0132629 -0.117412 0)
(0.0132855 -0.11591 0)
(0.0133081 -0.114407 0)
(0.0133306 -0.112905 0)
(0.0133532 -0.111403 0)
(0.0133758 -0.1099 0)
(0.0133984 -0.108398 0)
(0.0134209 -0.106895 0)
(0.0134435 -0.105393 0)
(0.0134661 -0.103891 0)
(0.0134887 -0.102388 0)
(0.0135113 -0.100886 0)
(0.0135338 -0.0993835 0)
(0.0135564 -0.0978811 0)
(0.013579 -0.0963787 0)
(0.0136016 -0.0948763 0)
(0.0136241 -0.093374 0)
(0.0136467 -0.0918716 0)
(0.0136693 -0.0903692 0)
(0.0136919 -0.0888668 0)
(0.0137144 -0.0873644 0)
(0.013737 -0.085862 0)
(0.0137596 -0.0843596 0)
(0.0137822 -0.0828572 0)
(0.0138048 -0.0813548 0)
(0.0138273 -0.0798524 0)
(-0.00095694 -0.120201 0)
(9.94097e-05 -0.00299563 0)
(0.013409 -0.107653 0)
(0.013815 -0.0806749 0)
(0.0136095 -0.0943016 0)
(0.000164198 -0.00329712 0)
(-0.0128241 -0.120027 0)
(4.93071e-05 -0.00248378 0)
(9.15692e-06 -0.00157323 0)
(-7.49559e-06 -0.000694026 0)
(0.000332554 -0.00454594 0)
(1.16879e-06 -0.00112388 0)
(2.12237e-05 -0.0018226 0)
(0.00937809 -0.120353 0)
(0.000398317 -0.00378423 0)
(-7.00164e-06 -0.000767176 0)
(0.000539542 -0.00330356 0)
(-1.39632e-06 -0.000757994 0)
(0.000709488 -0.00225695 0)
(0.0132676 -0.116609 0)
(-5.26641e-06 -0.000672663 0)
(-2.4888e-06 -0.000707665 0)
(-3.13079e-06 -0.000451076 0)
(-2.00337e-06 -0.000438979 0)
(-2.24169e-06 -0.000358431 0)
(7.25079e-05 -0.002796 0)
(3.91569e-06 -0.00120344 0)
(-0.00689521 -0.120111 0)
(0.0135 -0.101595 0)
(0.013703 -0.0881126 0)
(-1.54561e-06 -0.000301402 0)
(-1.20296e-06 -0.00020385 0)
(0.000347404 -0.00399352 0)
(0.000290929 -0.00468359 0)
(0.000454328 -0.00354607 0)
(0.000671582 -0.00315593 0)
(0.000140091 -0.00335053 0)
(4.01819e-05 -0.00249965 0)
(1.45497e-05 -0.00161994 0)
(-2.35663e-06 -0.00084607 0)
(-7.90158e-07 -0.00110554 0)
(-6.85291e-06 -0.000682845 0)
(-4.87516e-06 -0.000575667 0)
(-1.25342e-06 -0.000231516 0)
(0.00344102 -0.120269 0)
(0.0133424 -0.112054 0)
(-6.81941e-07 -0.000122159 0)
(-6.73536e-07 -0.000117452 0)
(0.000832961 -0.00145593 0)
(0.000209718 -0.00378444 0)
(0.000124462 -0.0033415 0)
(8.67023e-05 -0.00294937 0)
(5.60977e-05 -0.00245729 0)
(3.03071e-05 -0.00219359 0)
(1.36213e-07 -0.00099585 0)
(2.78415e-06 -0.00134269 0)
(1.24582e-05 -0.00172055 0)
(-1.79517e-06 -0.000367335 0)
(5.75304e-06 -0.00129641 0)
(-5.9428e-06 -0.00061966 0)
(-3.06521e-06 -0.000410198 0)
(-2.37059e-06 -0.000364352 0)
(-1.8109e-06 -0.000298117 0)
(-2.15575e-06 -0.000538599 0)
(-3.34498e-07 -5.89571e-05 0)
(-0.00179842 -0.0975121 0)
(-0.00150578 -0.0969341 0)
(-0.00143678 -0.0978563 0)
(-0.00114748 -0.0972208 0)
(-0.00105362 -0.0981239 0)
(-0.000779243 -0.0974287 0)
(-0.000659878 -0.0983051 0)
(-0.000400915 -0.097557 0)
(-0.000259686 -0.0984112 0)
(-1.60478e-05 -0.097601 0)
(0.000144523 -0.0984237 0)
(0.000371668 -0.0975565 0)
(0.000548282 -0.098347 0)
(0.000763469 -0.0974238 0)
(0.000953601 -0.0981857 0)
(0.00115722 -0.0972095 0)
(0.00136401 -0.0979233 0)
(0.00154026 -0.0969372 0)
(0.00176803 -0.0975477 0)
(0.00190814 -0.0965361 0)
(0.0021616 -0.0970715 0)
(0.00226936 -0.09595 0)
(0.00254194 -0.0964871 0)
(0.00262973 -0.0952792 0)
(0.00291209 -0.0957819 0)
(0.00297893 -0.0945542 0)
(0.00326044 -0.0949422 0)
(0.00331181 -0.0937243 0)
(0.0035945 -0.0940791 0)
(0.00363406 -0.092823 0)
(0.00393148 -0.0931429 0)
(0.00394428 -0.0918416 0)
(0.0042473 -0.0920346 0)
(0.0042329 -0.0907211 0)
(0.00453488 -0.0908003 0)
(0.00394518 -0.0905457 0)
(0.00421238 -0.0893967 0)
(0.00393559 -0.0892309 0)
(-0.000320601 -0.0282524 0)
(-0.000314374 -0.0273685 0)
(0.00419149 -0.0880528 0)
(0.00391891 -0.087901 0)
(-0.000301911 -0.0276 0)
(-0.000296243 -0.0267555 0)
(0.00416559 -0.0866915 0)
(0.00389605 -0.0865493 0)
(-0.000284223 -0.0269797 0)
(-0.000278737 -0.0261313 0)
(-0.00026673 -0.0263615 0)
(-0.00026215 -0.0255039 0)
(0.00413265 -0.0853125 0)
(0.00386825 -0.0851773 0)
(-0.000250313 -0.0256973 0)
(-0.000246439 -0.0248644 0)
(0.00409621 -0.0839131 0)
(0.00383655 -0.0837881 0)
(-0.000234919 -0.0250128 0)
(-0.000231607 -0.0242052 0)
(-0.000242235 -0.0240468 0)
(0.00405363 -0.0824916 0)
(0.00379978 -0.082365 0)
(0.00430396 -0.0826652 0)
(-0.000220376 -0.0243164 0)
(-0.000217634 -0.0235313 0)
(0.00400895 -0.0810259 0)
(0.00375743 -0.0809131 0)
(-0.000206738 -0.023617 0)
(-0.000207907 -0.0243558 0)
(-0.000204459 -0.0228473 0)
(0.000316828 -0.0992381 0)
(0.00456421 -0.0921389 0)
(0.00485039 -0.0908219 0)
(0.00488853 -0.0921703 0)
(0.00516278 -0.0908721 0)
(0.00522037 -0.0921163 0)
(0.00547701 -0.0907639 0)
(0.00555998 -0.0919395 0)
(0.00580627 -0.0904427 0)
(0.00590122 -0.0916552 0)
(0.00613835 -0.0900625 0)
(0.00624317 -0.0912609 0)
(0.00646703 -0.0895693 0)
(0.00658279 -0.0907819 0)
(0.00679274 -0.0889632 0)
(0.0069207 -0.09016 0)
(0.00711506 -0.0882536 0)
(0.00725516 -0.0893784 0)
(0.0074318 -0.0874373 0)
(0.00758483 -0.0884925 0)
(0.00774386 -0.0864714 0)
(0.00790748 -0.0874544 0)
(0.00805064 -0.0853344 0)
(0.00822509 -0.086243 0)
(0.00835504 -0.0840111 0)
(0.00817642 -0.0831418 0)
(0.00847475 -0.0816658 0)
(0.00865483 -0.0825335 0)
(0.00875983 -0.0801087 0)
(0.0089419 -0.0808753 0)
(0.00902064 -0.0784347 0)
(0.00921806 -0.0790042 0)
(0.00927661 -0.076566 0)
(0.009493 -0.0769193 0)
(0.00952119 -0.0744487 0)
(0.00975398 -0.0745803 0)
(0.00977208 -0.072056 0)
(0.00999299 -0.0720884 0)
(0.0100257 -0.0696092 0)
(0.0102273 -0.0695353 0)
(0.010252 -0.0669813 0)
(0.0104598 -0.0667066 0)
(0.0104651 -0.0640534 0)
(0.0106774 -0.0635621 0)
(0.0106712 -0.0608554 0)
(0.0108822 -0.0601944 0)
(0.0108674 -0.0574882 0)
(0.0110809 -0.0566514 0)
(0.0110542 -0.0539688 0)
(0.0112687 -0.0529709 0)
(0.0112294 -0.0503276 0)
(0.011442 -0.0491481 0)
(0.011392 -0.046579 0)
(0.0116014 -0.0452403 0)
(0.0115426 -0.0427566 0)
(0.00829635 -0.0808216 0)
(0.00984619 -0.0693048 0)
(0.0110189 -0.0512496 0)
(0.00632849 -0.0925493 0)
(-0.000193947 -0.0229068 0)
(-0.000192036 -0.0221525 0)
(0.00395279 -0.0795416 0)
(0.00370916 -0.0794424 0)
(0.0114806 -0.0517368 0)
(-0.000181834 -0.0221839 0)
(-0.000180231 -0.021446 0)
(0.00388628 -0.0780486 0)
(0.0036554 -0.0779516 0)
(-0.000170398 -0.0214483 0)
(-0.000169017 -0.0207311 0)
(-0.000178196 -0.0207123 0)
(0.00382062 -0.0765299 0)
(0.00359673 -0.0764377 0)
(-0.000159652 -0.0207005 0)
(-0.000158474 -0.020009 0)
(0.0104389 -0.0698033 0)
(0.00375364 -0.0750007 0)
(0.00353489 -0.0748954 0)
(0.00396494 -0.0749897 0)
(0.00807573 -0.0884117 0)
(-0.000149636 -0.0199464 0)
(-0.000150099 -0.0205675 0)
(-0.000148572 -0.0192828 0)
(0.00368267 -0.0734407 0)
(0.00346771 -0.0733346 0)
(-0.000140183 -0.0192002 0)
(-0.00013923 -0.0185542 0)
(-0.00013121 -0.0184555 0)
(-0.000130415 -0.017824 0)
(0.00360684 -0.071859 0)
(0.00339474 -0.0717607 0)
(-0.0001227 -0.0177157 0)
(-0.000122092 -0.0170935 0)
(-0.000129335 -0.0171846 0)
(0.00352402 -0.0702554 0)
(0.00331877 -0.0701473 0)
(-0.000121115 -0.0164743 0)
(-0.000127869 -0.0165594 0)
(-0.00011431 -0.0163626 0)
(0.00343673 -0.0686275 0)
(0.00324115 -0.068523 0)
(0.00312081 -0.0699084 0)
(0.00305085 -0.0683411 0)
(0.00292817 -0.0696651 0)
(0.00286417 -0.0681199 0)
(0.00273887 -0.0694444 0)
(0.00268202 -0.067838 0)
(0.00279933 -0.066465 0)
(0.00262135 -0.0661806 0)
(0.00250662 -0.0674586 0)
(0.00245081 -0.0658565 0)
(-0.000113375 -0.01576 0)
(-0.000107038 -0.0156365 0)
(0.00255578 -0.0644836 0)
(0.00239192 -0.0641677 0)
(0.00228664 -0.0655059 0)
(0.00223416 -0.0638086 0)
(0.00137998 -0.0962717 0)
(-0.000106247 -0.0150721 0)
(-0.000100151 -0.0149162 0)
(0.00212757 -0.065096 0)
(0.00208156 -0.0633978 0)
(0.00217776 -0.062075 0)
(0.00203077 -0.061675 0)
(0.0019336 -0.0629583 0)
(0.00188941 -0.0612312 0)
(0.00179076 -0.0624672 0)
(0.0017535 -0.0607401 0)
(0.00165548 -0.0619214 0)
(0.00162293 -0.060206 0)
(0.00152667 -0.0613379 0)
(0.00149785 -0.0596355 0)
(0.00158639 -0.0584643 0)
(0.00146494 -0.057911 0)
(0.00352174 -0.0807319 0)
(-9.95232e-05 -0.0143236 0)
(-9.34521e-05 -0.0141947 0)
(0.00137815 -0.0590388 0)
(0.00134897 -0.0573327 0)
(0.00142801 -0.0561604 0)
(0.00131642 -0.0556001 0)
(0.00123825 -0.0567287 0)
(0.00121011 -0.0550105 0)
(0.00113292 -0.0560955 0)
(0.00110875 -0.0543944 0)
(-9.24028e-05 -0.0136224 0)
(-8.71377e-05 -0.01348 0)
(-8.82161e-05 -0.0140799 0)
(0.00117841 -0.0532685 0)
(0.00108109 -0.0526733 0)
(0.00101198 -0.0537585 0)
(0.000988425 -0.0520579 0)
(0.000919775 -0.0531022 0)
(0.000900232 -0.0514178 0)
(0.000832467 -0.052422 0)
(0.00081643 -0.0507554 0)
(0.000750148 -0.0517188 0)
(0.000737084 -0.0500747 0)
(0.000797789 -0.0490701 0)
(0.00072087 -0.0484123 0)
(0.000662057 -0.0493818 0)
(0.000648438 -0.0477456 0)
(-8.62879e-05 -0.0129252 0)
(-9.16385e-05 -0.0131096 0)
(-8.12049e-05 -0.0127648 0)
(0.000701704 -0.0467307 0)
(0.000632309 -0.0460897 0)
(0.000580152 -0.0470665 0)
(0.000566925 -0.0454342 0)
(0.000515754 -0.0463692 0)
(0.000505387 -0.0447617 0)
(0.00045422 -0.0456829 0)
(0.000447268 -0.0440775 0)
(0.000492746 -0.0431424 0)
(0.000437241 -0.0424815 0)
(0.000392784 -0.0433745 0)
(0.000385181 -0.0418077 0)
(0.000341817 -0.0426513 0)
(0.000336406 -0.0411233 0)
(0.000374901 -0.0402315 0)
(0.000328494 -0.0395834 0)
(0.000290679 -0.0404351 0)
(0.000284978 -0.0389293 0)
(0.000247891 -0.0397329 0)
(0.000244211 -0.038264 0)
(-8.03179e-05 -0.0122254 0)
(-7.55392e-05 -0.0120577 0)
(0.000277632 -0.0374142 0)
(0.000238841 -0.0367861 0)
(0.000206031 -0.0375947 0)
(0.000202382 -0.0361495 0)
(0.000170381 -0.0369253 0)
(0.000168418 -0.0355066 0)
(0.000137175 -0.0362491 0)
(0.000136748 -0.0348601 0)
(0.000165111 -0.0340815 0)
(0.000134994 -0.033465 0)
(0.000107316 -0.0342099 0)
(0.000107014 -0.0328429 0)
(8.02146e-05 -0.0335505 0)
(8.1115e-05 -0.0322154 0)
(0.000105432 -0.0314783 0)
(8.07238e-05 -0.0308832 0)
(0.00202162 -0.0981243 0)
(-0.00416222 -0.114399 0)
(-0.00399026 -0.113877 0)
(-0.00330233 -0.114278 0)
(-0.00320902 -0.113746 0)
(-0.00246555 -0.114085 0)
(-0.00245208 -0.113481 0)
(-0.00164967 -0.113828 0)
(-0.00165612 -0.113275 0)
(-0.000892718 -0.113538 0)
(-0.000980327 -0.112977 0)
(-0.000206989 -0.113198 0)
(-6.83646e-05 -0.113749 0)
(0.00057292 -0.113373 0)
(0.000771052 -0.113906 0)
(0.00137662 -0.113448 0)
(0.00164761 -0.113992 0)
(0.00218955 -0.113451 0)
(0.00253655 -0.113964 0)
(0.00298187 -0.113378 0)
(0.00338151 -0.113836 0)
(0.00375499 -0.113188 0)
(0.004185 -0.113632 0)
(0.00449751 -0.112918 0)
(0.00494564 -0.113338 0)
(0.00408775 -0.112479 0)
(-0.00171607 -0.112715 0)
(0.00518601 -0.11256 0)
(0.00564953 -0.11294 0)
(-7.4515e-05 -0.0115494 0)
(-7.01227e-05 -0.0113597 0)
(-0.000309499 -0.112643 0)
(0.00155023 -0.0630193 0)
(0.000102749 -0.0301147 0)
(7.92503e-05 -0.0295524 0)
(0.00364196 -0.0686514 0)
(5.52607e-05 -0.0328859 0)
(0.00581913 -0.112121 0)
(0.00628999 -0.112436 0)
(0.00114349 -0.0515034 0)
(0.00211726 -0.0603129 0)
(-6.92188e-05 -0.0108841 0)
(-6.49016e-05 -0.0106683 0)
(-6.59194e-05 -0.0111753 0)
(0.00354041 -0.0670045 0)
(0.00374478 -0.0669466 0)
(0.00362955 -0.0652846 0)
(0.00383103 -0.0651603 0)
(0.00370391 -0.063471 0)
(0.00390338 -0.0632847 0)
(0.00376308 -0.0615652 0)
(0.0039585 -0.0612982 0)
(0.0038044 -0.0595628 0)
(0.00399298 -0.0592112 0)
(-0.00442867 -0.114902 0)
(0.00639336 -0.111564 0)
(0.00687248 -0.111807 0)
(9.91228e-05 -0.0287527 0)
(7.68688e-05 -0.0282238 0)
(0.00666315 -0.0877718 0)
(0.000759758 -0.053348 0)
(0.00382571 -0.0574519 0)
(0.00400855 -0.0570443 0)
(0.00418702 -0.0587787 0)
(0.00419366 -0.0565538 0)
(0.00438199 -0.0582325 0)
(0.00437908 -0.0559573 0)
(0.00457693 -0.0575826 0)
(0.00456508 -0.0552601 0)
(0.00477224 -0.0568309 0)
(0.00475028 -0.0544636 0)
(0.004967 -0.0559632 0)
(0.00493128 -0.0535647 0)
(0.00515835 -0.0549838 0)
(0.00510835 -0.0525503 0)
(0.00534586 -0.0538942 0)
(0.00528482 -0.0514047 0)
(0.00552958 -0.0526761 0)
(0.00545689 -0.050135 0)
(0.00570868 -0.0513339 0)
(0.0056229 -0.0487623 0)
(0.00588245 -0.0498689 0)
(0.00578309 -0.04727 0)
(0.00604979 -0.0482767 0)
(0.00593673 -0.0456598 0)
(0.0062099 -0.0465509 0)
(-6.41815e-05 -0.0102017 0)
(-6.87235e-05 -0.0104492 0)
(-6.00187e-05 -0.00997804 0)
(0.00608395 -0.0439305 0)
(0.00636347 -0.0446895 0)
(0.00691158 -0.110872 0)
(0.00739621 -0.11104 0)
(0.0064029 -0.110721 0)
(0.00622328 -0.0420865 0)
(0.00650909 -0.0426988 0)
(9.46914e-05 -0.0273948 0)
(7.37272e-05 -0.0268999 0)
(5.62036e-05 -0.0276916 0)
(5.42783e-05 -0.0264 0)
(0.00635399 -0.0401387 0)
(0.00664556 -0.040578 0)
(-5.92876e-05 -0.00952982 0)
(-5.54551e-05 -0.00929758 0)
(0.00382927 -0.0552655 0)
(0.00738877 -0.110068 0)
(0.00785738 -0.110141 0)
(0.006474 -0.0380612 0)
(0.00677209 -0.0383234 0)
(0.00663882 -0.0452925 0)
(3.71344e-05 -0.0271544 0)
(3.63339e-05 -0.0258925 0)
(5.17514e-05 -0.0251146 0)
(3.48073e-05 -0.0246378 0)
(0.00658448 -0.0358489 0)
(0.00688786 -0.0359692 0)
(0.00297427 -0.114421 0)
(0.00577145 -0.0538616 0)
(4.87189e-05 -0.0238373 0)
(3.28154e-05 -0.0233952 0)
(0.0066869 -0.0335342 0)
(0.00699295 -0.0335349 0)
(0.00718794 -0.0359794 0)
(0.00729693 -0.0334179 0)
(0.00708821 -0.0310159 0)
(0.00740049 -0.0307714 0)
(0.0071737 -0.0284096 0)
(0.00748975 -0.0279922 0)
(0.00724657 -0.0257257 0)
(0.00756599 -0.0251087 0)
(0.00781762 -0.109142 0)
(0.00826093 -0.109129 0)
(0.0083114 -0.11012 0)
(0.00870351 -0.109038 0)
(0.00861433 -0.108013 0)
(0.00903398 -0.107813 0)
(0.0091623 -0.108854 0)
(0.0094551 -0.107503 0)
(0.00931462 -0.106461 0)
(0.00970052 -0.105989 0)
(0.0098608 -0.107028 0)
(0.0100664 -0.105415 0)
(0.0102353 -0.106394 0)
(0.0104116 -0.104739 0)
(0.0105886 -0.105651 0)
(0.0107334 -0.103955 0)
(0.0109114 -0.104715 0)
(0.0110315 -0.102992 0)
(0.0112064 -0.103673 0)
(0.0113104 -0.101835 0)
(0.011489 -0.102513 0)
(0.0115701 -0.100478 0)
(0.0117521 -0.100983 0)
(0.0118109 -0.0989006 0)
(0.0119913 -0.0991807 0)
(0.012032 -0.0971276 0)
(0.0122062 -0.0972632 0)
(0.0122341 -0.0951426 0)
(0.0123996 -0.0952103 0)
(0.0124233 -0.0929964 0)
(0.0125763 -0.0929763 0)
(0.0125978 -0.0907261 0)
(0.0127376 -0.0905822 0)
(0.0127546 -0.0883109 0)
(0.0128847 -0.0880616 0)
(0.0128986 -0.0857791 0)
(0.0130193 -0.0854423 0)
(0.0130312 -0.0831599 0)
(0.0131449 -0.0826823 0)
(0.0131531 -0.0803926 0)
(0.0132581 -0.0797967 0)
(0.0132635 -0.0776007 0)
(0.0133594 -0.0769174 0)
(0.0133632 -0.0747805 0)
(0.0134549 -0.0739929 0)
(0.0134579 -0.0718348 0)
(0.0133598 -0.0726028 0)
(0.0127743 -0.0860856 0)
(0.0118622 -0.0968839 0)
(0.0108738 -0.102223 0)
(0.00956601 -0.104915 0)
(0.0135405 -0.0731699 0)
(0.0131342 -0.0850633 0)
(0.00730698 -0.0229622 0)
(0.00762478 -0.0221304 0)
(0.0078139 -0.0274142 0)
(0.00452935 -0.0528822 0)
(-5.46685e-05 -0.00887714 0)
(-5.11081e-05 -0.00864288 0)
(0.00735373 -0.0201257 0)
(0.00766747 -0.0191282 0)
(1.99231e-05 -0.0253613 0)
(-0.000271761 -0.0273098 0)
(0.00738625 -0.0172628 0)
(0.0077017 -0.0161157 0)
(0.012558 -0.0952098 0)
(4.52812e-05 -0.0225696 0)
(3.04827e-05 -0.0221621 0)
(-5.02642e-05 -0.0082407 0)
(-4.69532e-05 -0.00800442 0)
(-4.7454e-05 -0.00836713 0)
(0.00519366 -0.0488854 0)
(0.0108268 -0.1064 0)
(0.00614948 -0.113285 0)
(-4.608e-05 -0.00762092 0)
(-4.90039e-05 -0.00782598 0)
(4.15648e-05 -0.0213132 0)
(2.78446e-05 -0.0209383 0)
(-4.29897e-05 -0.00737909 0)
(0.00579944 -0.0430414 0)
(-0.000166116 -0.0967751 0)
(3.76515e-05 -0.0200697 0)
(2.49996e-05 -0.0197285 0)
(5.12611e-05 -0.0204039 0)
(1.514e-05 -0.0205566 0)
(1.32782e-05 -0.0193793 0)
(3.43166e-06 -0.0201682 0)
(2.45409e-06 -0.019022 0)
(-4.21117e-05 -0.00701781 0)
(-3.92535e-05 -0.00677464 0)
(-7.33012e-06 -0.0197725 0)
(-7.50661e-06 -0.0186574 0)
(1.2943e-06 -0.0178912 0)
(-7.89399e-06 -0.0175579 0)
(0.00365747 -0.0556593 0)
(0.00364744 -0.0534416 0)
(0.00348275 -0.0538421 0)
(0.00346153 -0.0515717 0)
(0.00330451 -0.0519469 0)
(0.00327418 -0.0496161 0)
(0.00312912 -0.0499486 0)
(0.00627356 -0.0356732 0)
(0.00363386 -0.086405 0)
(0.00942889 -0.0794174 0)
(0.00309147 -0.0475834 0)
(0.00295475 -0.0479005 0)
(1.71215e-08 -0.0167766 0)
(-8.41293e-06 -0.0164746 0)
(-1.63339e-05 -0.0172175 0)
(-1.61655e-05 -0.0161651 0)
(0.00698898 -0.0236194 0)
(-3.83608e-05 -0.00643351 0)
(-3.56965e-05 -0.00619094 0)
(-9.00449e-06 -0.0154086 0)
(-1.60968e-05 -0.0151295 0)
(0.000117288 -0.0278852 0)
(0.00290989 -0.0455116 0)
(0.00277935 -0.0458238 0)
(0.00303292 -0.0452003 0)
(4.61015e-05 -0.01914 0)
(5.95041e-05 -0.0194304 0)
(-2.40809e-05 -0.0168717 0)
(-3.47711e-05 -0.00586676 0)
(-3.23198e-05 -0.00562881 0)
(-3.29708e-05 -0.00590193 0)
(-9.6275e-06 -0.0143609 0)
(-1.60823e-05 -0.0141117 0)
(0.00272568 -0.0433794 0)
(0.00260302 -0.0436973 0)
(-0.00138624 -0.0988352 0)
(5.31088e-05 -0.0181471 0)
(6.61836e-05 -0.0183897 0)
(-3.13841e-05 -0.00532103 0)
(-3.37368e-05 -0.00554309 0)
(-2.90263e-05 -0.00507509 0)
(-1.02406e-05 -0.0133329 0)
(-1.6077e-05 -0.013113 0)
(-0.0011614 -0.0794774 0)
(-0.000997944 -0.0787168 0)
(-0.00097274 -0.0798381 0)
(-0.000810131 -0.0790351 0)
(-0.000783093 -0.0801389 0)
(-0.000618575 -0.0792986 0)
(-0.000582446 -0.0805244 0)
(-0.000418591 -0.0794966 0)
(-0.00034964 -0.080586 0)
(-0.000214505 -0.0795797 0)
(-0.000135281 -0.0806282 0)
(-6.61064e-06 -0.0795959 0)
(-8.28189e-05 -0.0784492 0)
(8.28867e-05 -0.0806041 0)
(0.000202489 -0.0795394 0)
(0.000304267 -0.0805057 0)
(0.000413251 -0.0793718 0)
(0.00052607 -0.0803252 0)
(0.00041432 -0.0814951 0)
(0.00062557 -0.0791307 0)
(0.00064377 -0.0812846 0)
(0.000533562 -0.0824635 0)
(0.000770572 -0.0822168 0)
(0.00066065 -0.0834044 0)
(0.00254088 -0.0411882 0)
(0.00242737 -0.0415149 0)
(0.00527913 -0.093372 0)
(0.011962 -0.101093 0)
(0.00497964 -0.058287 0)
(-2.79083e-05 -0.00474227 0)
(-2.5912e-05 -0.0045434 0)
(5.86089e-05 -0.0170902 0)
(7.11702e-05 -0.0172841 0)
(-1.08007e-05 -0.0123262 0)
(-1.60405e-05 -0.0121351 0)
(-2.14184e-05 -0.0128828 0)
(-2.08409e-05 -0.0119321 0)
(-5.11002e-06 -0.0125057 0)
(-2.627e-05 -0.0126416 0)
(-2.52077e-05 -0.0117179 0)
(-2.02466e-05 -0.0110034 0)
(-2.41618e-05 -0.0108159 0)
(0.0033865 -0.0762249 0)
(-3.06407e-05 -0.0123898 0)
(0.0126269 -0.0589825 0)
(0.0124718 -0.059566 0)
(0.012459 -0.0624891 0)
(0.000905032 -0.0831222 0)
(0.000796529 -0.084318 0)
(0.000136214 -0.0376158 0)
(0.000460844 -0.0472768 0)
(-0.00012316 -0.0183205 0)
(-0.000290231 -0.0258802 0)
(0.000269212 -0.0358963 0)
(0.00100025 -0.0819047 0)
(-0.000568837 -0.0472995 0)
(-0.000456973 -0.0391189 0)
(-0.000407778 -0.0353006 0)
(0.000679949 -0.0450333 0)
(0.00748648 -0.0358831 0)
(0.00235577 -0.0389514 0)
(0.00225328 -0.0392814 0)
(0.0023141 -0.0417796 0)
(0.00215133 -0.0395533 0)
(0.00220305 -0.0419888 0)
(0.00204967 -0.039773 0)
(0.00209374 -0.0421386 0)
(0.0019486 -0.0399251 0)
(0.001986 -0.0422288 0)
(0.00184884 -0.0400163 0)
(0.0018045 -0.0376593 0)
(0.00171241 -0.0377647 0)
(0.00175103 -0.0400827 0)
(0.00162274 -0.0378476 0)
(0.00245818 -0.0385574 0)
(0.00568375 -0.0892335 0)
(0.00208345 -0.0370019 0)
(0.000505153 -0.0782061 0)
(0.000715533 -0.0778952 0)
(0.000590218 -0.0769713 0)
(0.000798186 -0.0766078 0)
(0.000671506 -0.0756814 0)
(-0.000108036 -0.00987786 0)
(-0.000114982 -0.0105759 0)
(-0.00010752 -0.0100797 0)
(-0.000100761 -0.00938544 0)
(-0.000100228 -0.00957384 0)
(-0.000106661 -0.010263 0)
(-9.93744e-05 -0.00974408 0)
(-9.31128e-05 -0.00905997 0)
(-9.22866e-05 -0.00921857 0)
(-0.000105465 -0.0104266 0)
(-8.6181e-05 -0.00853916 0)
(-8.53999e-05 -0.00868753 0)
(-7.9435e-05 -0.00801255 0)
(-7.87139e-05 -0.00815197 0)
(-8.43504e-05 -0.00881771 0)
(-7.77375e-05 -0.008273 0)
(-7.99013e-05 -0.00785623 0)
(-8.30365e-05 -0.00892813 0)
(-7.65157e-05 -0.00837467 0)
(-2.47835e-05 -0.00424965 0)
(-7.13344e-05 -0.0077261 0)
(-7.02137e-05 -0.00782035 0)
(-2.30093e-05 -0.00404553 0)
(-2.37656e-05 -0.0042738 0)
(0.00157668 -0.0354703 0)
(0.00149591 -0.0355776 0)
(0.00153519 -0.0378903 0)
(0.00141677 -0.0356448 0)
(0.00906704 -0.0759137 0)
(0.00708382 -0.0155105 0)
(0.0104557 -0.0615849 0)
(0.0114931 -0.0406279 0)
(0.00232518 -0.0946522 0)
(0.0123009 -0.0629168 0)
(0.0122841 -0.0658093 0)
(-1.96067e-05 -0.0100973 0)
(-2.3096e-05 -0.00993608 0)
(-0.00124928 -0.096285 0)
(6.25151e-05 -0.0159684 0)
(7.44148e-05 -0.0161205 0)
(0.0124427 -0.0654333 0)
(0.0122645 -0.0686694 0)
(0.0121008 -0.0689666 0)
(0.0120765 -0.0717509 0)
(0.0119071 -0.0719767 0)
(0.0118732 -0.0748002 0)
(0.0117024 -0.0747896 0)
(0.0116523 -0.0777097 0)
(0.0114855 -0.077368 0)
(0.0114209 -0.0803335 0)
(0.00190199 -0.112876 0)
(0.00144959 -0.0378903 0)
(0.00133895 -0.0356707 0)
(0.00104885 -0.0839976 0)
(0.00094328 -0.0852005 0)
(0.00129939 -0.03338 0)
(0.00122957 -0.0334357 0)
(0.00126258 -0.0356653 0)
(0.00116089 -0.0334522 0)
(0.00118805 -0.0356228 0)
(0.00109358 -0.0334315 0)
(0.00111549 -0.0355525 0)
(0.00102791 -0.0333847 0)
(0.00100048 -0.0312279 0)
(0.000941477 -0.0312157 0)
(0.000963949 -0.0333102 0)
(0.000883952 -0.0311728 0)
(0.011254 -0.0798218 0)
(0.0111824 -0.0826953 0)
(-8.14768e-05 -0.00901781 0)
(-2.20256e-05 -0.00378709 0)
(-2.37098e-05 -0.00397757 0)
(8.44882e-05 -0.017464 0)
(8.69541e-05 -0.0162587 0)
(9.84953e-05 -0.0176277 0)
(0.000100075 -0.016371 0)
(0.000113222 -0.0177821 0)
(0.000113761 -0.0164616 0)
(0.000128848 -0.017924 0)
(-6.51406e-05 -0.00717823 0)
(-6.41319e-05 -0.00726651 0)
(0.000128079 -0.0165337 0)
(0.000145297 -0.0180428 0)
(0.000901759 -0.0332029 0)
(0.000827823 -0.0310964 0)
(0.000806399 -0.0290568 0)
(0.000755692 -0.0289911 0)
(0.000773207 -0.030994 0)
(0.000706404 -0.0289239 0)
(0.00072034 -0.0308657 0)
(0.000658792 -0.0288353 0)
(0.000669375 -0.0307108 0)
(0.000612819 -0.0287197 0)
(0.000598519 -0.0268047 0)
(0.00055739 -0.0267313 0)
(0.000568316 -0.0285826 0)
(0.000517551 -0.026635 0)
(0.000525298 -0.0284234 0)
(0.000479015 -0.0265152 0)
(-2.02485e-05 -0.00356673 0)
(0.000468195 -0.0246988 0)
(0.00043391 -0.0246186 0)
(0.00044187 -0.0263732 0)
(0.000400711 -0.0245153 0)
(0.00087064 -0.0752899 0)
(0.00074679 -0.0743717 0)
(-0.000644007 -0.0781942 0)
(0.000142988 -0.0165894 0)
(-1.88991e-05 -0.00921492 0)
(-2.19853e-05 -0.0090794 0)
(-2.62408e-05 -0.0097618 0)
(-2.47673e-05 -0.00892995 0)
(-2.9044e-05 -0.00957445 0)
(-2.72491e-05 -0.00876716 0)
(0.00120577 -0.0848321 0)
(-2.32736e-05 -0.00812281 0)
(-2.54612e-05 -0.00798398 0)
(0.00322205 -0.0961625 0)
(0.00110164 -0.0860505 0)
(0.000826202 -0.086379 0)
(-0.00234489 -0.107116 0)
(-0.00230806 -0.106334 0)
(-0.00182626 -0.106801 0)
(-0.00180549 -0.106019 0)
(-0.00132807 -0.106439 0)
(0.0124251 -0.0683206 0)
(0.00118362 -0.0311074 0)
(-0.00847232 -0.118823 0)
(-0.00801628 -0.118529 0)
(-0.00707933 -0.118818 0)
(-0.00670167 -0.118566 0)
(-0.00577067 -0.118811 0)
(-0.00541919 -0.118567 0)
(-0.00440282 -0.118794 0)
(-0.00412841 -0.118525 0)
(-0.00295781 -0.118742 0)
(-0.00282763 -0.118439 0)
(-0.00159446 -0.118627 0)
(-0.00160042 -0.118925 0)
(-0.000268229 -0.118776 0)
(-0.000128355 -0.119058 0)
(0.00112752 -0.118881 0)
(-0.00160084 -0.118309 0)
(0.00137587 -0.119151 0)
(0.00257034 -0.118949 0)
(0.00222409 -0.118662 0)
(0.0035711 -0.118695 0)
(0.00409352 -0.119011 0)
(0.00490634 -0.118681 0)
(0.00437742 -0.118387 0)
(0.00556691 -0.118339 0)
(0.0061694 -0.118614 0)
(0.00665423 -0.118243 0)
(0.00730537 -0.118503 0)
(0.00762503 -0.118084 0)
(0.00829581 -0.118324 0)
(0.00847187 -0.117843 0)
(0.00913393 -0.11805 0)
(0.00918359 -0.117507 0)
(0.00981865 -0.117669 0)
(0.00977243 -0.117063 0)
(0.0103532 -0.117149 0)
(-0.00520955 -0.118287 0)
(-0.00592896 -0.119027 0)
(0.0102491 -0.116513 0)
(0.0107565 -0.116481 0)
(0.0097612 -0.116418 0)
(0.00781749 -0.11762 0)
(0.00504098 -0.118034 0)
(0.0110105 -0.0820613 0)
(0.0109335 -0.0848259 0)
(0.000405951 -0.0261983 0)
(0.0003902 -0.0227315 0)
(6.48202e-05 -0.0148023 0)
(-5.91594e-05 -0.00663085 0)
(-5.82701e-05 -0.00671435 0)
(-6.29221e-05 -0.00733581 0)
(-5.71882e-05 -0.00677915 0)
(0.0029696 -0.0501489 0)
(-0.00226037 -0.105551 0)
(-1.93793e-05 -0.00334134 0)
(-1.76626e-05 -0.00311856 0)
(0.000731679 -0.0268749 0)
(0.0118374 -0.0779442 0)
(0.0117506 -0.0720347 0)
(0.0107608 -0.0841188 0)
(0.010673 -0.0867845 0)
(0.00137495 -0.0856342 0)
(0.00146428 -0.0843726 0)
(-3.15125e-05 -0.00937465 0)
(-0.00177701 -0.105229 0)
(-6.15162e-05 -0.00738497 0)
(-5.5924e-05 -0.00682429 0)
(-5.1676e-05 -0.00622646 0)
(-5.056e-05 -0.00626916 0)
(0.010602 -0.115835 0)
(0.0110591 -0.115655 0)
(0.0105049 -0.0860363 0)
(0.0104002 -0.0885529 0)
(0.0102392 -0.087717 0)
(0.0101153 -0.090108 0)
(0.000982422 -0.0872382 0)
(0.000699028 -0.0875193 0)
(-0.000265402 -0.0816617 0)
(-2.17464e-05 -0.00734082 0)
(-2.36647e-05 -0.00722555 0)
(0.000360692 -0.0226706 0)
(0.000347833 -0.0208526 0)
(0.000933992 -0.0739505 0)
(0.000815918 -0.0730475 0)
(0.000632412 -0.0734473 0)
(0.000706763 -0.0721259 0)
(0.000533493 -0.0724915 0)
(0.000605161 -0.071184 0)
(0.000442986 -0.07152 0)
(0.00050896 -0.0702142 0)
(0.000353248 -0.0705325 0)
(0.000415827 -0.0692625 0)
(0.000272528 -0.0695014 0)
(0.000335191 -0.0682873 0)
(0.000198777 -0.0684487 0)
(0.000266873 -0.0672194 0)
(0.000129483 -0.0673877 0)
(0.000196692 -0.0661483 0)
(6.33975e-05 -0.0663174 0)
(0.000128618 -0.0650964 0)
(0.00106004 -0.0748365 0)
(2.08195e-06 -0.0652333 0)
(6.71563e-05 -0.0640283 0)
(0.00034942 -0.0658796 0)
(-5.44675e-05 -0.0641366 0)
(9.92392e-06 -0.0629495 0)
(0.000126234 -0.0627934 0)
(6.81152e-05 -0.0617303 0)
(-4.25265e-05 -0.0618603 0)
(1.50747e-05 -0.0606573 0)
(0.000124728 -0.0696894 0)
(0.000557851 -0.0688032 0)
(-9.00675e-05 -0.0607612 0)
(-3.34659e-05 -0.0595744 0)
(6.71961e-05 -0.0594327 0)
(1.8365e-05 -0.0583646 0)
(-7.83431e-05 -0.0584862 0)
(-2.72671e-05 -0.0572973 0)
(-0.000119245 -0.0573948 0)
(-6.86692e-05 -0.0562267 0)
(-0.000156175 -0.0563008 0)
(-0.000106836 -0.055144 0)
(-0.000189452 -0.0551978 0)
(-0.000142203 -0.0540565 0)