/*--------------------------------*- C++ -*----------------------------------*\
| =========                 |                                                 |
| \\      /  F ield         | OpenFOAM: The Open Source CFD Toolbox           |
|  \\    /   O peration     | Version:  v2012                                 |
|   \\  /    A nd           | Website:  www.openfoam.com                      |
|    \\/     M anipulation  |                                                 |
\*---------------------------------------------------------------------------*/
FoamFile
{
    version     2.0;
    format      ascii;
    class       volScalarField::Internal;
    location    "450";
    object      V0;
}
// * * * * * * * * * * * * * * * * * * * * * * * * * * * * * * * * * * * * * //

dimensions      [0 3 0 0 0 0 0];


value           nonuniform List<scalar> 
13917
(
0.00163036
0.0420285
0.00425723
0.042941
0.08973
0.0534368
0.0223713
0.0435918
0.0209225
0.0012611
0.0470536
0.0617013
0.174479
0.0444053
0.0624632
0.00135911
0.162829
0.0467713
0.00631918
0.00165466
0.0321023
0.106036
0.0115883
0.11667
0.0321683
0.0330166
0.0212007
0.00136439
0.0416081
0.16329
0.00131954
0.00751321
0.0449221
0.00168904
0.140601
0.0444703
0.0499776
0.171258
0.0203711
0.0278095
0.200236
0.140167
0.030723
0.00547882
0.00654388
0.00832681
0.0393307
0.00327343
0.0512936
0.113252
0.0613356
0.0092789
0.00142847
0.0782955
0.0770307
0.00690599
0.00121631
0.0130202
0.150114
0.0103682
0.00769606
0.123188
0.161775
0.036813
0.00243043
0.153384
0.0406103
0.041516
0.0419046
0.00128001
0.00365444
0.00125566
0.0717153
0.149115
0.0319259
0.0380028
0.0745016
0.156469
0.0435097
0.0328479
0.0840191
0.179268
0.0768149
0.00342788
0.147722
0.0367337
0.00816314
0.167424
0.0290983
0.137523
0.151306
0.0276412
0.0605531
0.148794
0.0677987
0.0406547
0.0289041
0.173891
0.137935
0.0266129
0.170317
0.131336
0.070594
0.150893
0.0970701
0.00281135
0.00263155
0.136846
0.139171
0.0200341
0.168844
0.00194363
0.0382899
0.00332789
0.00268188
0.0378218
0.00717647
0.167258
0.00469252
0.0717852
0.171585
0.157399
0.0385244
0.00814035
0.00147092
0.00207421
0.0330499
0.0311772
0.13409
0.00651476
0.0125627
0.0118854
0.00208212
0.0423536
0.00645166
0.021077
0.00828616
0.00138299
0.0365046
0.182113
0.062081
0.155963
0.00305297
0.097638
0.0676447
0.151829
0.0033821
0.121292
0.00224126
0.0886156
0.0263242
0.199762
0.0693245
0.0611397
0.0242741
0.0953504
0.143412
0.00170859
0.182759
0.156238
0.136845
0.00375068
0.0542286
0.0702316
0.00456315
0.0236083
0.00122341
0.00454175
0.173349
0.0360726
0.103592
0.00229642
0.0243349
0.00792186
0.0101916
0.167442
0.0386452
0.0096853
0.0156999
0.0506214
0.0305798
0.113643
0.0509378
0.00549807
0.0045363
0.0140288
0.0583964
0.00761045
0.168948
0.0383563
0.0134682
0.00649023
0.00674922
0.0014838
0.113381
0.00149976
0.0261793
0.00212485
0.138832
0.101248
0.0343725
0.00136881
0.0011949
0.0511355
0.0161608
0.0428133
0.0252843
0.152528
0.00880776
0.0829844
0.142144
0.0753847
0.0733819
0.00295704
0.00645265
0.0306239
0.0028873
0.16748
0.151586
0.14397
0.00431379
0.00765319
0.00751728
0.148817
0.167918
0.0217669
0.00147108
0.130355
0.145408
0.152089
0.14661
0.150796
0.00111904
0.00301094
0.0759649
0.169087
0.0110892
0.00143104
0.158726
0.151228
0.0207618
0.00268281
0.00548101
0.00259353
0.0108956
0.0861736
0.00497658
0.00973431
0.033207
0.00843567
0.0505901
0.00237122
0.0583221
0.014393
0.0141797
0.0833382
0.179394
0.0314926
0.101268
0.129788
0.00144181
0.0375801
0.157476
0.142938
0.0952229
0.138609
0.066646
0.176326
0.0157321
0.157241
0.00132011
0.00276711
0.093457
0.095409
0.0103686
0.158719
0.0226761
0.00146761
0.154005
0.00126747
0.134474
0.0045178
0.180645
0.0659754
0.0703567
0.123516
0.00511289
0.167927
0.0222319
0.0253958
0.039081
0.124444
0.020603
0.00132979
0.139026
0.0122666
0.101156
0.0392989
0.0968193
0.0355967
0.141106
0.170858
0.0116847
0.101851
0.0169842
0.035821
0.123614
0.00178882
0.00109467
0.134953
0.16697
0.0366058
0.0842481
0.00492459
0.00276765
0.00673949
0.188964
0.014113
0.0921742
0.00321457
0.0846494
0.00361233
0.138492
0.0593582
0.0191426
0.0955024
0.0403596
0.00638189
0.177943
0.00186503
0.145442
0.00996615
0.161418
0.00165931
0.126891
0.0150761
0.0382467
0.179423
0.187063
0.00722811
0.00303922
0.0698611
0.0935955
0.00185689
0.00290815
0.00542188
0.0428359
0.164118
0.075753
0.00260947
0.0118525
0.17475
0.119959
0.0568778
0.0288796
0.0131797
0.00767099
0.0146908
0.0238659
0.00891227
0.00163827
0.124262
0.071576
0.064443
0.00479049
0.170106
0.00124469
0.0105687
0.118417
0.0594847
0.0144699
0.166128
0.0546941
0.127976
0.0067655
0.00896636
0.0432436
0.0818819
0.00358055
0.159009
0.00501539
0.00610281
0.12614
0.0523622
0.0782705
0.132474
0.135351
0.00157991
0.126463
0.0421313
0.0201353
0.0263943
0.0573675
0.00608279
0.00396322
0.043813
0.00546571
0.0762346
0.0263808
0.00447289
0.125588
0.0194966
0.0297617
0.133234
0.129293
0.134128
0.00768271
0.0230963
0.0586647
0.130429
0.103504
0.0138018
0.0455938
0.164768
0.190414
0.00575394
0.016303
0.101528
0.0506605
0.00658225
0.0291458
0.144122
0.00578399
0.00300979
0.145153
0.163064
0.0366419
0.131867
0.162526
0.0648406
0.137419
0.142043
0.0040882
0.0726596
0.0212965
0.00136742
0.0121857
0.134892
0.070443
0.00553626
0.0393618
0.0012325
0.165673
0.0854461
0.152389
0.144748
0.0480889
0.0803034
0.00818974
0.145041
0.00240085
0.0933273
0.0130989
0.134221
0.07142
0.0103695
0.00667408
0.0551486
0.0234217
0.133451
0.142286
0.101692
0.0790342
0.141214
0.155547
0.00186616
0.00646483
0.140941
0.0172199
0.00482705
0.14794
0.0120456
0.0065823
0.00384518
0.0178165
0.00274589
0.131766
0.131667
0.0741755
0.156529
0.133366
0.0555799
0.00602482
0.140455
0.0748566
0.0575514
0.0199149
0.0269835
0.00422489
0.00804554
0.126171
0.0953356
0.0408123
0.0201392
0.0548939
0.0348998
0.012833
0.0248083
0.00520552
0.126563
0.0168658
0.00826587
0.132705
0.00164348
0.118463
0.132559
0.0118045
0.154729
0.167834
0.0122015
0.00171437
0.0205598
0.127588
0.0307505
0.116627
0.00685408
0.00963338
0.0602189
0.0851399
0.115537
0.0143458
0.108037
0.12614
0.19719
0.103716
0.115217
0.107074
0.0170548
0.157462
0.00772229
0.136382
0.106384
0.032155
0.00186849
0.135319
0.0258012
0.129943
0.0148998
0.0108009
0.028322
0.0116818
0.0224335
0.0429151
0.0411016
0.00206996
0.00374129
0.00141983
0.13881
0.102928
0.119882
0.0757138
0.00280066
0.146902
0.0823255
0.0271291
0.00245436
0.0217244
0.0266158
0.00144534
0.143218
0.00621785
0.178182
0.139442
0.00162013
0.167277
0.00321902
0.17636
0.137403
0.100972
0.00443015
0.106628
0.117796
0.00560711
0.0121464
0.100531
0.00328359
0.00209443
0.00372064
0.122
0.00108512
0.160727
0.00704227
0.11069
0.129404
0.155534
0.13215
0.0135723
0.0278472
0.162463
0.135477
0.151339
0.00363797
0.0914547
0.00792033
0.0757175
0.122414
0.166445
0.00792442
0.00409242
0.00178358
0.00918793
0.0162198
0.00467062
0.00132692
0.133575
0.00628547
0.145618
0.00594942
0.0716826
0.0034776
0.116068
0.101333
0.0582756
0.0937787
0.0158676
0.00258273
0.152851
0.0149847
0.119543
0.134919
0.00155927
0.0263385
0.102754
0.0073099
0.110485
0.134425
0.177571
0.00162619
0.108612
0.0929133
0.123947
0.0993869
0.00417178
0.189021
0.00680018
0.168154
0.139869
0.00713129
0.00655343
0.0787571
0.00114846
0.00304271
0.0489351
0.00677142
0.146269
0.0543373
0.00161182
0.00288641
0.0362404
0.0404791
0.0841329
0.136055
0.111053
0.155339
0.00958457
0.0264461
0.00513588
0.0157804
0.0469998
0.00921577
0.096266
0.015215
0.00658596
0.00124461
0.136037
0.0868489
0.132498
0.133555
0.125731
0.18349
0.109747
0.14845
0.000962198
0.0134979
0.160059
0.00615286
0.121644
0.00227164
0.134769
0.127314
0.00163907
0.00907092
0.139016
0.0495074
0.157126
0.129754
0.0316968
0.0112739
0.11486
0.00119629
0.0224082
0.112328
0.138729
0.0846713
0.00153113
0.0297102
0.132463
0.1086
0.00145422
0.01743
0.0231107
0.00136777
0.0871097
0.131789
0.132219
0.0480175
0.00258328
0.140343
0.0141819
0.0367768
0.0233776
0.00478072
0.0944328
0.00741382
0.01175
0.0663802
0.0263614
0.131049
0.0176298
0.0960741
0.00305245
0.0401632
0.122125
0.00129271
0.168583
0.0857314
0.0459549
0.0480481
0.0210079
0.002963
0.173053
0.00755719
0.00376659
0.168998
0.0805931
0.0365314
0.1453
0.077952
0.0692932
0.0609485
0.143711
0.00807095
0.00680529
0.137948
0.00329776
0.0172115
0.0161544
0.00704153
0.0754674
0.00630415
0.0225385
0.133893
0.00960145
0.0119673
0.0109303
0.0954875
0.13664
0.0920867
0.00114753
0.0500318
0.142562
0.0112092
0.113752
0.133921
0.00592246
0.0232179
0.0612134
0.0280605
0.0304759
0.00245806
0.0497191
0.062065
0.00422968
0.130025
0.132213
0.151685
0.148459
0.0539859
0.0367531
0.0260921
0.0938036
0.159039
0.105581
0.0843691
0.0419036
0.0162342
0.146612
0.00669346
0.0596796
0.00447307
0.0589787
0.141151
0.00215071
0.0323928
0.00147939
0.0297416
0.0628523
0.0928813
0.131972
0.0781439
0.0015718
0.0189119
0.0471889
0.0268413
0.0845014
0.0103593
0.179082
0.115082
0.115293
0.135154
0.00446696
0.0258123
0.0574273
0.00629691
0.0843956
0.151537
0.126803
0.014552
0.136256
0.0752484
0.0439271
0.104872
0.00959774
0.121891
0.0314732
0.0634099
0.00123485
0.00142439
0.0707999
0.00237722
0.0217393
0.00123243
0.0864666
0.145551
0.129066
0.0761854
0.0422435
0.112218
0.0173604
0.0939532
0.0339691
0.0728177
0.00305363
0.0465767
0.0144267
0.0151273
0.130328
0.0230859
0.0309094
0.134381
0.0202749
0.159408
0.00187446
0.00870268
0.14898
0.12884
0.088703
0.101649
0.103863
0.00511563
0.140671
0.0235928
0.113148
0.160176
0.0701806
0.0974729
0.0051536
0.0923307
0.1455
0.140031
0.00535757
0.0554506
0.00668106
0.138094
0.0262013
0.161077
0.101965
0.00134397
0.132331
0.0336524
0.00672564
0.00143268
0.156709
0.0840881
0.00431487
0.14657
0.0866328
0.101779
0.00297834
0.103872
0.00507811
0.0493647
0.00171769
0.0597238
0.0116697
0.118445
0.1632
0.143487
0.16196
0.168984
0.00214413
0.0513542
0.128297
0.0792901
0.137382
0.130511
0.00880201
0.0434392
0.00241158
0.0215685
0.0069145
0.00803975
0.0246034
0.00129814
0.0611788
0.00935763
0.0910398
0.00123509
0.136922
0.0453535
0.163015
0.134034
0.0496971
0.153501
0.139052
0.136425
0.0828191
0.0177392
0.13675
0.0520139
0.00717577
0.00454174
0.00397051
0.00686347
0.0891483
0.11816
0.108738
0.00419622
0.107752
0.00112622
0.120965
0.144127
0.156857
0.0780781
0.126596
0.149066
0.108595
0.014542
0.129272
0.00143283
0.0830431
0.122287
0.00176084
0.0866712
0.103727
0.118031
0.00165837
0.0180187
0.156304
0.13722
0.148329
0.125196
0.00296363
0.132893
0.0273933
0.036799
0.0614834
0.146407
0.139616
0.0246296
0.0864043
0.0274164
0.00145854
0.0947679
0.121129
0.0800534
0.0917336
0.135878
0.00539509
0.0120732
0.0240653
0.00149046
0.00176147
0.0882865
0.00531974
0.139876
0.00146355
0.133511
0.00791461
0.0126674
0.0176507
0.0361183
0.0107619
0.0164457
0.00272057
0.165251
0.102066
0.159176
0.0836814
0.0122685
0.0641462
0.0482919
0.0127032
0.000786273
0.140691
0.0183551
0.0013644
0.175223
0.123095
0.077357
0.00264877
0.0393262
0.165119
0.0160683
0.0691719
0.124708
0.0603214
0.0384421
0.0846717
0.111462
0.164376
0.143428
0.113223
0.096047
0.00143154
0.0474597
0.0469426
0.128444
0.00138397
0.139089
0.155414
0.0375463
0.0450879
0.0271004
0.159658
0.00487194
0.118696
0.0958421
0.00847859
0.0963869
0.18287
0.00831936
0.00466408
0.00733404
0.00707306
0.139409
0.00749554
0.00189443
0.178765
0.00665768
0.105581
0.013499
0.0102345
0.111834
0.0217754
0.130324
0.023747
0.0425135
0.0534845
0.00563648
0.0152375
0.0115774
0.00581296
0.1059
0.00521908
0.0407858
0.0768493
0.0962757
0.135217
0.155726
0.13569
0.0276286
0.00270808
0.130611
0.0499431
0.026865
0.06054
0.0579551
0.0142601
0.00601702
0.0876401
0.13276
0.0289218
0.113283
0.0480133
0.00135823
0.0495947
0.0957523
0.0234031
0.142467
0.0493487
0.00195227
0.00132174
0.0606828
0.0147032
0.0399931
0.00106765
0.0254063
0.025091
0.00342198
0.127067
0.00786645
0.00293937
0.0042496
0.108522
0.0519284
0.145534
0.102462
0.144194
0.0662989
0.0924434
0.00284008
0.134742
0.0124158
0.141791
0.0080695
0.00448428
0.0478
0.00672812
0.0246406
0.0904811
0.00636856
0.0526966
0.0480136
0.0900876
0.00142598
0.00936877
0.00113677
0.0262543
0.00526487
0.0130738
0.153234
0.0716834
0.0153711
0.146596
0.0877982
0.0104131
0.0658172
0.0355308
0.0336238
0.0402471
0.0425868
0.00895489
0.0109146
0.105485
0.011046
0.0514965
0.0749625
0.110554
0.133375
0.00274974
0.00517349
0.141597
0.0146989
0.154414
0.0851942
0.00121716
0.0575757
0.13839
0.134775
0.0792149
0.150853
0.0473478
0.00277485
0.102742
0.0194891
0.137665
0.156972
0.00683922
0.00283784
0.0055461
0.0508892
0.173888
0.138623
0.0520851
0.00706902
0.00185009
0.148238
0.0141744
0.0358622
0.00996077
0.0272381
0.153634
0.0363744
0.00541513
0.0933807
0.0251721
0.150195
0.130331
0.0561966
0.00177899
0.0146638
0.142917
0.00462147
0.0107433
0.12841
0.00944099
0.12618
0.133697
0.00527949
0.104449
0.100583
0.0571778
0.0061113
0.0258542
0.0426573
0.142849
0.102474
0.140036
0.0899627
0.0181026
0.0184094
0.00113673
0.0248061
0.0218841
0.0136639
0.0135549
0.131427
0.0327878
0.00715811
0.00384333
0.00255475
0.057943
0.122836
0.0013301
0.114687
0.119444
0.0313205
0.0198091
0.0505663
0.142397
0.00322314
0.019182
0.0533038
0.0874413
0.0115793
0.00325491
0.00136848
0.106683
0.0956378
0.0507238
0.148882
0.138082
0.0148305
0.108686
0.026048
0.0133644
0.0460294
0.00285844
0.11615
0.0640268
0.0441473
0.148246
0.00352291
0.112024
0.142033
0.0130869
0.00750926
0.0128819
0.00403605
0.104747
0.014189
0.122397
0.127165
0.0831619
0.161927
0.0524131
0.00380611
0.047874
0.0124654
0.0970388
0.134713
0.0685789
0.150508
0.135631
0.00143786
0.15743
0.0465999
0.00697752
0.149944
0.00927012
0.0104128
0.0136993
0.0734953
0.11542
0.12092
0.135401
0.151022
0.0476013
0.109334
0.129326
0.139343
0.126214
0.0372091
0.0979455
0.00292939
0.0123204
0.141016
0.114722
0.126171
0.0128218
0.133291
0.0245665
0.10368
0.154499
0.13158
0.0114254
0.0583896
0.0036152
0.127928
0.156776
0.0274585
0.159184
0.147616
0.00177203
0.0809218
0.13237
0.0140631
0.00987306
0.00102654
0.155016
0.0224753
0.0145426
0.13225
0.144532
0.00433145
0.0958623
0.180475
0.0117368
0.126441
0.00180597
0.157783
0.115077
0.0806029
0.130958
0.00238028
0.133719
0.146276
0.00742249
0.0878167
0.130305
0.147735
0.125335
0.00978592
0.0596124
0.0937307
0.150509
0.0179431
0.0860565
0.147516
0.14563
0.0444719
0.129423
0.023316
0.102686
0.135897
0.057663
0.156906
0.0520249
0.0751192
0.0356606
0.133238
0.00641858
0.0896944
0.0345892
0.140916
0.0432082
0.106318
0.157342
0.0245217
0.0651184
0.0210927
0.0105459
0.128285
0.00151012
0.00292501
0.0062385
0.00233265
0.0920153
0.0787928
0.0213348
0.00840713
0.119572
0.0013529
0.139976
0.00465306
0.0834682
0.0196376
0.00654375
0.0314147
0.0144324
0.140647
0.00942008
0.120043
0.124765
0.017955
0.00190461
0.00161248
0.0475874
0.0878245
0.0178517
0.141299
0.00688097
0.152389
0.0408251
0.144975
0.12116
0.00142741
0.119458
0.0131303
0.0732644
0.0207238
0.0114461
0.0747903
0.137506
0.00278997
0.127977
0.0913615
0.0460736
0.136351
0.00691981
0.0633003
0.0173894
0.00147858
0.0927738
0.0227732
0.0658254
0.117607
0.0134857
0.126296
0.140503
0.0131761
0.125654
0.134142
0.0273946
0.0745239
0.00559539
0.0478403
0.137468
0.114309
0.152897
0.128306
0.114294
0.00777179
0.0802919
0.100873
0.128024
0.110655
0.0864187
0.0692484
0.00268401
0.139491
0.0247773
0.0481962
0.127692
0.0033794
0.0781841
0.143711
0.00146367
0.00609862
0.00177246
0.123043
0.00219463
0.0267157
0.0829163
0.00142018
0.0800331
0.0643315
0.00520238
0.0557659
0.036366
0.00145449
0.0404519
0.00833142
0.0736134
0.00277662
0.0915737
0.114001
0.108231
0.00143855
0.087481
0.147522
0.088648
0.0794828
0.130004
0.117568
0.0148851
0.0294255
0.10308
0.0344548
0.00139534
0.0494109
0.0105442
0.0106438
0.137677
0.0070854
0.0254062
0.0608483
0.00369307
0.158229
0.00752783
0.00120249
0.129574
0.00125228
0.119251
0.00237096
0.00709511
0.0379009
0.0724022
0.113252
0.0822877
0.103799
0.0338939
0.139829
0.0761995
0.00151416
0.0141096
0.00300444
0.105763
0.0199332
0.00176526
0.107787
0.0847772
0.00270327
0.0996196
0.104402
0.00399321
0.00857602
0.0113474
0.083956
0.00363334
0.0265246
0.0621733
0.00179965
0.00453974
0.108008
0.14669
0.00593643
0.0129276
0.0134134
0.0748906
0.0186109
0.0143137
0.0246135
0.0796931
0.132424
0.0357577
0.00147137
0.0316825
0.100832
0.0958983
0.0480397
0.1307
0.00166458
0.021108
0.119112
0.0103213
0.136085
0.145263
0.0152173
0.0111892
0.0872545
0.00248902
0.105811
0.00177537
0.132935
0.00144185
0.00331846
0.00416818
0.15409
0.028804
0.0369316
0.0293265
0.0116193
0.00737791
0.00195197
0.0252924
0.145755
0.0269889
0.130325
0.00587863
0.00134239
0.162719
0.149198
0.0443565
0.0105443
0.0285425
0.155537
0.0178034
0.0110117
0.138061
0.133777
0.0468727
0.00162051
0.067058
0.131834
0.00256344
0.0176606
0.0413783
0.0044306
0.109843
0.0328676
0.00258272
0.151528
0.0234617
0.0144602
0.007951
0.00812413
0.00243154
0.0708631
0.0536816
0.026044
0.120859
0.00441912
0.0102384
0.0142785
0.00580977
0.0167747
0.0830235
0.00856637
0.00269984
0.0244877
0.00517721
0.132053
0.0541768
0.0721712
0.124105
0.00350744
0.0250694
0.15282
0.0389552
0.00385427
0.11413
0.104616
0.0019359
0.125401
0.0727302
0.1515
0.0579489
0.00976567
0.0706045
0.00509792
0.0128624
0.010846
0.056822
0.0133399
0.0692559
0.0497767
0.0367753
0.0828852
0.0584759
0.15361
0.137326
0.00169787
0.00533343
0.0351309
0.00546771
0.103943
0.0689921
0.0388504
0.134832
0.13321
0.0176939
0.0231259
0.00151325
0.0131134
0.00707431
0.0732437
0.00830276
0.0983103
0.0028612
0.146221
0.00393272
0.00778665
0.138129
0.0111407
0.00129575
0.0427249
0.121144
0.135551
0.0268099
0.00670544
0.137254
0.0479586
0.127979
0.158229
0.00311902
0.12579
0.0237158
0.121695
0.180411
0.00428486
0.0153497
0.0610237
0.00469234
0.04911
0.00196039
0.0555016
0.139139
0.0486198
0.00136103
0.0720069
0.00836083
0.0439166
0.00264809
0.111587
0.103317
0.0576796
0.00378695
0.103266
0.139305
0.144996
0.00425391
0.00154098
0.0104638
0.105924
0.0559231
0.118549
0.00138696
0.139424
0.00361672
0.00751054
0.106797
0.00910648
0.0477872
0.153155
0.0329993
0.114312
0.0226498
0.0260533
0.0152084
0.0570662
0.0665764
0.111734
0.0017685
0.140929
0.170572
0.0024588
0.048695
0.107456
0.023037
0.127746
0.138048
0.101773
0.0277724
0.0300319
0.152447
0.153975
0.0276967
0.05032
0.0100007
0.0158259
0.133655
0.156634
0.15418
0.074152
0.0541074
0.00881703
0.00141672
0.00274313
0.119761
0.136048
0.0277351
0.00313314
0.0849317
0.133443
0.00243095
0.0030142
0.123069
0.0332102
0.0473875
0.0872572
0.00167786
0.113614
0.124333
0.0157431
0.00511182
0.0596088
0.0296623
0.0527599
0.00419493
0.00372215
0.135573
0.00399997
0.0608968
0.10364
0.00596636
0.00808735
0.0267815
0.0551358
0.0257757
0.0629555
0.136586
0.0382135
0.0654839
0.0418786
0.0269835
0.134584
0.0218486
0.00335841
0.0107801
0.139552
0.0115903
0.00845769
0.0142683
0.134201
0.055643
0.149818
0.00299288
0.0470744
0.108284
0.00920051
0.00491714
0.157144
0.00130174
0.0253224
0.0813259
0.010378
0.100199
0.100815
0.131182
0.151772
0.0999383
0.120459
0.00213221
0.152869
0.130387
0.00712422
0.0219818
0.057803
0.00436908
0.075493
0.103728
0.0429391
0.0487425
0.146857
0.156448
0.00327452
0.0540001
0.0537014
0.112842
0.0680309
0.0029376
0.00910483
0.00274153
0.148732
0.0419801
0.0801381
0.0829435
0.134014
0.133553
0.00378955
0.00679844
0.0311732
0.110587
0.102949
0.00797628
0.049804
0.0677462
0.0764182
0.00142564
0.0191506
0.00102057
0.0850055
0.153979
0.0649107
0.104288
0.0859697
0.0100169
0.114966
0.00709911
0.00168229
0.0256378
0.00126382
0.0991245
0.158863
0.0144162
0.132908
0.0110379
0.154333
0.133392
0.15253
0.00271187
0.152127
0.0467415
0.086815
0.00733545
0.0358612
0.0379598
0.00747814
0.00226356
0.117326
0.149875
0.131469
0.00265677
0.0769997
0.0729326
0.0549713
0.139464
0.0092919
0.124848
0.14747
0.0377836
0.0719821
0.0119571
0.00164543
0.00175576
0.022008
0.169149
0.0172907
0.0356211
0.013436
0.126469
0.00436944
0.00560253
0.0678564
0.0811747
0.155294
0.0137884
0.0698947
0.00307115
0.00639303
0.0230066
0.00335006
0.00612084
0.00490496
0.00235872
0.0953763
0.002744
0.0411758
0.00144138
0.00326368
0.00276104
0.00217414
0.145409
0.0136723
0.131249
0.101118
0.00117822
0.0763971
0.0739478
0.016155
0.0434584
0.0142881
0.00307364
0.00273565
0.00531683
0.0223001
0.025842
0.0484975
0.10209
0.0616372
0.0106911
0.00629017
0.0079993
0.0187086
0.156082
0.137527
0.0964963
0.00345852
0.0521108
0.0802207
0.0269682
0.0203673
0.0141178
0.0283596
0.0595444
0.00292342
0.0226895
0.0134259
0.0827215
0.0163508
0.0103335
0.126221
0.0293557
0.13718
0.0062993
0.0152986
0.109859
0.013838
0.0016918
0.131709
0.0361418
0.140426
0.00508848
0.0665753
0.114799
0.154296
0.0117437
0.00392881
0.158242
0.00700116
0.00327859
0.139035
0.0522205
0.0130938
0.00135175
0.0213836
0.00132828
0.0672448
0.124334
0.0962373
0.00213936
0.0129589
0.134858
0.00171051
0.0787646
0.0498561
0.0268783
0.00297936
0.0495307
0.0095357
0.0225357
0.0352303
0.00335473
0.111004
0.107457
0.0715376
0.01284
0.0863722
0.0496322
0.152826
0.131603
0.00259016
0.043963
0.00142068
0.153055
0.00160906
0.00135831
0.0716692
0.052962
0.0209892
0.0246453
0.00364928
0.0103295
0.00170392
0.00308715
0.0264634
0.110517
0.00271892
0.00138871
0.0686629
0.00336876
0.0743647
0.106047
0.0736405
0.0573923
0.144674
0.013118
0.00129754
0.044847
0.153634
0.00323783
0.00267961
0.00742107
0.00223589
0.0647982
0.00205228
0.0076619
0.0054935
0.146068
0.102803
0.00734884
0.00132385
0.0898242
0.0044007
0.0018224
0.0949493
0.06422
0.124828
0.0174506
0.0672284
0.0103212
0.00264102
0.140679
0.0929211
0.13751
0.0427043
0.00484338
0.00198693
0.0338915
0.00257013
0.0115113
0.092642
0.155164
0.0155072
0.151557
0.00319731
0.00296958
0.00812424
0.0107024
0.00155728
0.104672
0.00275189
0.00150504
0.00980173
0.0025824
0.155066
0.050109
0.0371899
0.0264203
0.00244292
0.010647
0.0510546
0.0225573
0.138013
0.00146211
0.108177
0.151348
0.00179163
0.00190666
0.0583994
0.0281959
0.0110026
0.110084
0.105169
0.0109541
0.109987
0.00281669
0.158187
0.00234755
0.114819
0.0201235
0.00530627
0.11109
0.147249
0.0121347
0.0105858
0.101001
0.0496921
0.00846471
0.00362315
0.00214707
0.00717914
0.0287941
0.154453
0.139513
0.0169683
0.120246
0.0450467
0.135823
0.152007
0.00144935
0.0267007
0.00967964
0.0232211
0.0863761
0.129249
0.117962
0.0426698
0.0358469
0.00639555
0.0237151
0.00720887
0.00087974
0.0212729
0.00788525
0.00589852
0.00219342
0.00659047
0.154798
0.0203282
0.0168062
0.0274643
0.00713236
0.139216
0.0431603
0.0066987
0.00144467
0.0272231
0.0057716
0.00745342
0.00548032
0.00519248
0.0325118
0.00478325
0.00447038
0.00421849
0.00401069
0.00467973
0.00685643
0.0903616
0.127762
0.0144389
0.00571888
0.111022
0.0072498
0.00214115
0.0106156
0.0017865
0.153626
0.13222
0.121906
0.0029085
0.0372424
0.0524038
0.00587258
0.00634998
0.0545074
0.0771165
0.0452656
0.0233284
0.00194325
0.155294
0.0231324
0.00452751
0.00149617
0.00598221
0.00196893
0.00861074
0.13076
0.00205957
0.125406
0.00208839
0.00147218
0.050644
0.0149676
0.0120455
0.0622304
0.130146
0.0253302
0.0410993
0.139257
0.130025
0.00804181
0.00304467
0.0122591
0.0598747
0.00340851
0.00774638
0.00178091
0.00157504
0.0651185
0.103558
0.0409552
0.172249
0.00193411
0.0529384
0.00296188
0.00617237
0.00329727
0.108044
0.141375
0.140511
0.00144485
0.136846
0.00227884
0.122767
0.00212712
0.0374507
0.0597655
0.083666
0.141664
0.00579581
0.113037
0.145261
0.0544618
0.0355318
0.00351708
0.00132045
0.0107989
0.00165058
0.175432
0.146021
0.0217076
0.0126735
0.00196184
0.00589728
0.0129718
0.00344223
0.00520631
0.00316776
0.170872
0.132475
0.138706
0.142992
0.00432638
0.0423099
0.1246
0.024951
0.00408798
0.112866
0.105024
0.0304648
0.00142137
0.105554
0.0348741
0.151154
0.00154681
0.120072
0.072044
0.00457158
0.00566209
0.0034447
0.151027
0.0122397
0.0106598
0.00388491
0.00304806
0.11195
0.00439511
0.0715197
0.106904
0.017725
0.0538101
0.0113462
0.0775101
0.0136446
0.0147747
0.00770269
0.00142829
0.00232442
0.00231278
0.127881
0.0110824
0.106713
0.00427942
0.110637
0.011749
0.0675027
0.0120806
0.153143
0.113133
0.155676
0.0241069
0.0014988
0.0041912
0.0638178
0.0271413
0.00500589
0.152905
0.105129
0.00242938
0.0187244
0.0111778
0.00343872
0.129634
0.00129566
0.152585
0.002799
0.00167991
0.0526681
0.0234711
0.0161167
0.00545447
0.00599727
0.00213281
0.0493772
0.0419748
0.00324278
0.0512476
0.00719052
0.0324586
0.0051069
0.0113479
0.00286906
0.0175186
0.0387067
0.0388218
0.00153193
0.0106731
0.00328269
0.00113731
0.105239
0.151725
0.00150123
0.00215128
0.0942087
0.0446219
0.0217275
0.0577269
0.00266843
0.0417054
0.00145283
0.0290329
0.00143717
0.0110618
0.061135
0.0435866
0.00724783
0.00550288
0.155335
0.00577993
0.152811
0.0229889
0.063164
0.15475
0.0986254
0.076903
0.00203722
0.00267818
0.147112
0.00241364
0.0437746
0.0975236
0.0907401
0.125085
0.051972
0.00308086
0.00179949
0.139136
0.0260007
0.00730841
0.00864987
0.00394965
0.00599109
0.0276362
0.0159464
0.118913
0.15561
0.0459467
0.00194693
0.140339
0.00250798
0.00337173
0.0105583
0.00277993
0.00140882
0.131755
0.00141995
0.0116813
0.00830427
0.0709508
0.1102
0.08723
0.00371902
0.0660164
0.07008
0.11951
0.00240837
0.00421764
0.00788113
0.00379453
0.00383464
0.00231473
0.0748637
0.0968718
0.00739965
0.0400719
0.0549442
0.0524702
0.0285464
0.111475
0.107265
0.0425013
0.0269757
0.0375899
0.0341156
0.146632
0.0610746
0.00485958
0.0368004
0.00224362
0.038472
0.0986408
0.00557797
0.00944213
0.124556
0.112037
0.0267389
0.02819
0.00139728
0.0265578
0.0099617
0.0954965
0.104784
0.0253068
0.0020242
0.00713684
0.0358668
0.14875
0.00174179
0.0615094
0.108694
0.0065521
0.0194101
0.0078166
0.00148752
0.00637106
0.0261942
0.0248753
0.00140377
0.0915065
0.0603403
0.0136302
0.153383
0.00762474
0.00941458
0.00530941
0.0318382
0.0630248
0.0185812
0.00351429
0.007092
0.0643779
0.00538787
0.00529373
0.0101987
0.0575903
0.0600977
0.00841587
0.0109011
0.00278124
0.112371
0.0625498
0.00916851
0.0551458
0.00894479
0.00733417
0.0666517
0.00881146
0.153429
0.00987581
0.0557949
0.0702228
0.0983024
0.115452
0.00204821
0.00350096
0.0464792
0.0248153
0.00495268
0.0583986
0.101105
0.0145582
0.00217423
0.00748014
0.00152614
0.0151513
0.0138362
0.00321974
0.00465044
0.0141573
0.097124
0.00559428
0.095133
0.0670194
0.00517078
0.00434478
0.0461723
0.0271746
0.0201282
0.0292091
0.02768
0.00412
0.113907
0.00153216
0.0227418
0.134628
0.134248
0.134635
0.0457824
0.0443894
0.127767
0.0237164
0.066411
0.048466
0.152733
0.00634345
0.0428299
0.0105472
0.0268884
0.155649
0.132714
0.00947435
0.094564
0.00304099
0.0684018
0.0704002
0.0136311
0.0110042
0.0613723
0.0634294
0.0114172
0.0263029
0.0125566
0.0106935
0.104544
0.00214865
0.0252086
0.043132
0.0181646
0.0019125
0.132526
0.0113641
0.145593
0.0240204
0.107583
0.0331668
0.0908846
0.0686455
0.0896378
0.0107169
0.00128197
0.0123726
0.070767
0.0279617
0.00142314
0.0326136
0.00377419
0.00572372
0.0755236
0.013659
0.0732521
0.00363294
0.027665
0.0279369
0.0013698
0.136668
0.0430522
0.0577676
0.0135591
0.042193
0.00692118
0.00178847
0.0759126
0.0886482
0.0631479
0.00182347
0.0495866
0.0386389
0.00986978
0.00157389
0.116113
0.0224141
0.00819515
0.0140955
0.145659
0.0128826
0.139921
0.0352696
0.110862
0.0500849
0.00494613
0.00687569
0.11313
0.0451141
0.00476461
0.0709806
0.0555216
0.0193946
0.0551487
0.0771052
0.0245107
0.0522787
0.0528921
0.111768
0.00759132
0.00484886
0.00387298
0.114077
0.00780914
0.00139448
0.00102514
0.15335
0.0733345
0.0196339
0.00622664
0.0526944
0.112606
0.0902103
0.134511
0.0538165
0.0185504
0.142717
0.00741927
0.0370237
0.125577
0.0468195
0.00765994
0.0130807
0.00474351
0.0443366
0.0294143
0.00137585
0.0429842
0.0220613
0.00132737
0.00143912
0.00515904
0.00830494
0.00366413
0.104748
0.141532
0.0470628
0.00338892
0.101068
0.118286
0.00273009
0.134621
0.152586
0.00791573
0.0442331
0.00122443
0.0162681
0.0151146
0.0360138
0.0135644
0.0440725
0.0255559
0.0372762
0.127133
0.0231602
0.00143152
0.0794865
0.0967692
0.0221846
0.00142866
0.0453892
0.0455498
0.001873
0.135083
0.0351549
0.00778403
0.133345
0.0019193
0.0234691
0.0512507
0.0150286
0.00679761
0.00325489
0.02636
0.0115409
0.0136868
0.00948144
0.00826533
0.0737767
0.0140801
0.00604759
0.04208
0.0099998
0.0507978
0.0282483
0.00166093
0.135961
0.0102693
0.00980959
0.0827999
0.0145851
0.0220576
0.0379385
0.0245855
0.0055547
0.037287
0.0143347
0.046289
0.00781456
0.105291
0.00142268
0.0120715
0.121242
0.0466699
0.116137
0.136348
0.133101
0.077939
0.0726073
0.0226161
0.0239785
0.059305
0.147881
0.148449
0.147092
0.00763181
0.136561
0.0620507
0.0398511
0.0398647
0.018367
0.101809
0.0287686
0.0254586
0.0362556
0.0494347
0.0605261
0.0048763
0.0809368
0.0116298
0.0218237
0.00549474
0.0181971
0.0812225
0.0079332
0.0135162
0.00140205
0.00172201
0.0231451
0.0501401
0.0257451
0.01507
0.00965246
0.152542
0.121688
0.012066
0.153129
0.040347
0.0546758
0.0405031
0.0473954
0.0108425
0.0387089
0.0507496
0.114726
0.157112
0.00451263
0.0356802
0.0880198
0.00585719
0.00761122
0.104937
0.0186719
0.102758
0.0604914
0.0764929
0.0444398
0.0744423
0.103155
0.085651
0.072849
0.00377647
0.126808
0.104824
0.0813576
0.0433257
0.00375662
0.0017617
0.0421087
0.0374312
0.00138826
0.0772564
0.100146
0.0877524
0.0151517
0.13719
0.0630225
0.0664015
0.00951852
0.0805624
0.0208214
0.0628951
0.036061
0.00149161
0.10095
0.0413902
0.00995476
0.0194723
0.0183255
0.118266
0.054829
0.0221185
0.0283478
0.0271824
0.0375159
0.0123706
0.00773239
0.138798
0.00892715
0.0529978
0.131332
0.0458387
0.00216803
0.104043
0.134798
0.0283202
0.0672581
0.0418795
0.10134
0.0479097
0.0270121
0.0554002
0.0389572
0.0173995
0.0369834
0.152463
0.0031077
0.0031934
0.0735027
0.0991338
0.00617704
0.14019
0.0511285
0.0685901
0.00730058
0.167466
0.145252
0.0205216
0.0409698
0.00268322
0.062722
0.148909
0.02653
0.135694
0.00173756
0.0659626
0.0415256
0.0458012
0.0135879
0.00923348
0.0254619
0.0525335
0.00953743
0.0741433
0.137819
0.0297746
0.0464268
0.0255666
0.0974233
0.0628777
0.0437269
0.0810895
0.012714
0.00806521
0.00211615
0.0779926
0.0438107
0.126795
0.00297025
0.00195933
0.0676179
0.0772319
0.0259412
0.0229308
0.00676637
0.0665062
0.0231589
0.0215996
0.0140109
0.146061
0.00808754
0.011064
0.0484499
0.0476813
0.0586442
0.0132902
0.0519866
0.150976
0.022923
0.0125298
0.153481
0.0463458
0.00974404
0.152014
0.0727487
0.0557307
0.0204063