/*--------------------------------*- C++ -*----------------------------------*\
| =========                 |                                                 |
| \\      /  F ield         | OpenFOAM: The Open Source CFD Toolbox           |
|  \\    /   O peration     | Version:  v2012                                 |
|   \\  /    A nd           | Website:  www.openfoam.com                      |
|    \\/     M anipulation  |                                                 |
\*---------------------------------------------------------------------------*/
FoamFile
{
    version     2.0;
    format      ascii;
    class       volScalarField;
    location    "600";
    object      k_0;
}
// * * * * * * * * * * * * * * * * * * * * * * * * * * * * * * * * * * * * * //

dimensions      [0 2 -2 0 0 0 0];


internalField   nonuniform List<scalar> 
13917
(
0.000163137
0.000148732
0.0306433
0.000152341
0.000148702
0.000194017
0.0353473
0.0286556
0.0333667
0.000170541
0.000184812
0.000171881
0.000152472
0.00853879
0.000154611
0.000153482
0.000149173
0.000168146
0.000171576
0.000148627
0.000149754
0.0356216
0.00014847
0.0241102
0.000148127
0.0346385
0.000161681
0.000164346
0.000196763
0.000177509
0.000164215
0.00015584
0.000160088
0.000154804
0.000148381
0.000210035
0.000148533
0.0317753
0.000154595
0.0128555
0.000147145
0.000149895
0.00014528
0.000168068
0.000148355
0.000156066
0.000167685
0.000173177
0.000366815
0.000147949
0.000155108
0.000150012
0.000625291
0.0001551
0.00014924
0.000154958
0.000184747
0.000148405
0.000153163
0.000148188
0.0176391
0.000148738
0.00689331
0.000148543
0.00019217
0.000868991
0.00014876
0.000148744
0.000186885
0.000161359
0.000148742
0.0279288
0.0379142
0.000148129
0.000366652
0.000174409
0.0244584
0.000150086
0.0334993
0.000149531
0.000149295
0.000148794
0.000188951
0.0347247
0.0540654
0.00014991
0.000149113
0.000545818
0.000154832
0.000145269
0.038173
0.000174862
0.000147249
0.000151003
0.000750766
0.00019014
0.000180836
0.000171603
0.000181956
0.000170626
0.000146531
0.000158925
0.000168119
0.000150905
0.000146447
0.0240625
0.000187996
0.000173855
0.000149186
0.000165578
0.051133
0.0136683
0.000175375
0.0267986
0.00015138
0.000398971
0.00014791
0.000273911
0.0172325
0.000155016
0.000149806
0.000186862
0.0194994
0.000163764
0.000147667
0.000150754
0.000148194
0.000147724
0.000145314
0.000192393
0.0288237
0.000151209
0.000148435
0.000149809
0.000225065
0.0230102
0.000163286
0.000171009
0.000148721
0.000154871
0.000208014
0.000146452
0.000150462
0.00016992
0.000148765
0.00630793
0.000199459
0.000149861
0.000146244
0.000156285
0.000168942
0.00039479
0.000175768
0.000162803
0.000155089
0.0317993
0.000160604
0.000198039
0.0210292
0.000224447
0.000152993
0.000162051
0.00014953
0.00018011
0.000175097
0.000181644
0.00015085
0.000170128
0.000147594
0.00015938
0.000163295
0.0298566
0.000176722
0.000149982
0.00142552
0.00016391
0.0305504
0.000301256
0.00503475
0.000147482
0.00017549
0.000164843
0.000146429
0.000149045
0.000157634
0.0334559
0.000194681
0.0415939
0.000160973
0.000180599
0.00021046
0.0596775
0.000192779
0.000148557
0.000171786
0.000161324
0.000151816
0.000147324
0.000178428
0.000427845
0.00015478
0.00014806
0.000168613
0.000168579
0.0333317
0.000215349
0.000148375
0.000148504
0.000171152
0.0318498
0.000150223
0.0357604
0.0249094
0.000180649
0.000146485
0.000194861
0.000168689
0.0308632
0.000147627
0.00370757
0.000147423
0.000176427
0.000147066
0.034893
0.0252914
0.000153794
0.000235478
0.000155343
0.000146509
0.000209209
0.000176299
0.000160758
0.0232449
0.0206773
0.000146243
0.00015619
0.0418585
0.0401089
0.000149472
0.000147434
0.0140223
0.000182791
0.000149757
0.000201558
0.000177939
0.000161839
0.000161351
0.000149472
0.000163435
0.0221718
0.000148381
0.000178603
0.00017342
0.000148086
0.000148364
0.000172464
0.0188409
0.00017495
0.000157808
0.000154765
0.000149789
0.0151905
0.00297962
0.000217515
0.000146548
0.0385012
0.0164555
0.000122077
0.0333443
0.000175249
0.000149372
0.000147353
0.000167776
0.0310979
0.000181271
0.000152855
0.000217914
0.000164626
0.000145265
9.77149e-05
0.000148457
0.00269645
0.000154364
0.000149722
0.00015549
0.00016275
0.00016208
0.000206344
0.00015917
0.000148536
0.000202666
0.021963
0.0069883
0.000147634
9.77085e-05
0.000149139
0.000148543
0.000147948
0.000213083
0.000148564
0.000177682
0.000160895
0.000147494
0.000168764
0.000150806
0.000361686
0.00016359
0.00017368
0.000146903
0.000148288
0.0485278
0.0181257
0.000147864
0.000147207
9.93601e-05
0.000147335
0.0404999
0.000146793
0.0369132
0.000150095
0.000197186
0.000159405
0.000404054
0.000152587
0.000215667
0.000183123
0.000155516
0.000182693
0.000192066
0.000149266
0.0291834
0.000172208
0.0194073
0.000153868
0.0137069
0.000156692
0.0661735
0.00018044
0.000171039
0.000170831
0.0338525
0.000149386
0.000163794
0.0562659
0.000149198
0.000151605
0.0171237
0.000181056
0.000149767
0.000196984
0.00019526
0.000146811
0.0151754
0.000210817
0.000148409
0.000147048
0.000149191
0.00014622
0.000201832
0.00341296
0.000210883
0.0540903
0.000148012
0.000180151
0.0092941
0.000163591
0.0361043
0.0346336
0.0291714
0.000146211
0.000212935
0.000146907
0.0022829
0.000148165
0.000430028
0.000178006
0.000153484
0.000149253
0.000170208
0.000176768
0.000173658
0.000673193
0.0609593
0.0245191
0.000163837
0.000169653
0.00014749
0.044249
0.0356635
0.000148439
0.000208726
0.000148251
0.000197558
0.000150064
0.000149459
0.000150878
0.0314965
0.000150821
0.0210884
0.0238528
0.000182845
0.000192921
0.0001492
0.000191544
0.000189715
0.000148073
0.000182266
0.000149099
0.000148213
0.000177457
0.000149719
0.000148203
0.00014688
0.000197533
0.000149613
0.0151772
0.0313197
0.00807634
0.000192596
0.0252181
0.0299773
0.000163352
0.000148032
0.000186985
0.000154306
0.000157097
0.000148499
0.00497355
0.034312
0.0295683
0.000153453
0.000179816
0.000153535
0.000155
0.000173466
0.00015057
0.000206252
0.000149129
0.000148522
0.0446133
0.0294317
0.0308245
0.000178085
0.0052512
0.0320557
0.0553875
0.0223423
0.000145451
0.000169449
0.000150623
0.000148663
0.000209384
0.00016817
0.000148939
0.000171102
0.000162498
0.0211072
0.000148043
0.000180722
0.0289097
0.000209564
0.0187079
0.000149668
0.000148488
0.000151598
0.00016069
0.000146224
0.0312125
0.000201273
0.000159095
0.0454341
0.000154878
0.000180414
0.0592044
0.000200141
0.000182192
0.000209395
0.00018072
0.0001707
0.000186137
0.000164029
0.000184583
0.000195621
0.000166438
0.000175351
0.000147404
0.000219523
0.000155674
0.000146312
0.000159855
0.000150319
0.0223907
0.0261342
0.00014726
0.000145457
0.0285466
0.0246859
0.000149721
0.0150069
0.000150639
0.000188027
0.00014741
0.0326052
0.000221387
0.000156262
0.000149076
0.0274498
0.000191046
0.0136733
0.000149776
0.0254703
0.000368352
0.000187957
0.00014636
0.0478329
0.0374314
0.000163642
0.000146999
0.0001492
0.000174542
0.000199839
0.000148418
0.000147086
0.000147515
0.000147473
0.0338239
0.000209079
0.000163382
0.000193967
0.000147573
0.000146577
0.000179414
0.0525341
0.000159328
0.000147688
0.000148176
0.000148638
7.89452e-05
0.0631001
0.000149072
0.000148569
0.000212255
0.00016372
0.00015941
0.000148456
0.000151013
0.000155098
0.000174942
0.000187365
0.000194733
0.000187156
0.000178523
0.000216863
0.000173543
0.000147705
0.0259005
0.000148647
0.000151945
0.000152816
0.000220009
0.000168417
0.000146639
0.00020876
0.000179383
0.00947264
0.000178527
0.000160039
0.000163261
0.000149192
0.0166513
0.000198883
0.0388678
0.000148883
0.000156982
0.000194579
0.036449
0.0088171
0.000172504
0.000180123
0.000153392
0.000152198
0.000148525
0.000164816
0.000168698
0.000149531
0.000168331
0.000172761
0.0390299
0.0161324
0.000152191
0.000179872
0.000218035
0.000156374
0.000149986
0.000442113
0.00582366
0.0131774
0.000192994
0.000145392
0.0166597
0.000174171
0.000146889
0.000158234
0.00017397
0.000159511
0.000177342
0.0337166
0.000185525
0.000162054
0.0163295
0.000150843
0.0190843
0.000149536
0.000149022
8.24648e-05
0.00605468
0.000200492
0.000150847
0.000149818
0.00014856
0.00016501
0.000405229
0.000180788
0.000152441
0.000181232
0.000169748
0.000147456
0.000246032
0.000180394
0.000183479
0.0001475
0.000185064
0.000150278
0.0291569
0.000170906
0.000168449
0.000157193
0.000146959
0.000146159
0.000148314
0.000172045
0.000156377
0.000195619
0.000478057
0.000169818
0.000146874
0.000185013
0.000201257
0.000206728
0.000148255
0.000155811
0.000147142
0.000157225
0.000153349
0.0398486
0.000149472
0.000386483
0.000156933
0.000184767
0.000174731
0.0384524
0.000169125
0.000149084
0.0297345
0.0174431
0.000148275
0.000152751
0.000221707
0.000190071
0.000181074
0.000149544
0.000149153
0.000191416
0.000153651
0.000173396
0.000171678
0.000146211
0.000168568
0.0296682
0.00014828
0.000151278
0.000147657
0.0173307
0.000149746
0.000153151
0.0318923
0.000151446
0.00421659
0.000155126
0.000160333
0.000147604
0.000165217
0.000148008
0.000170207
0.000147
0.000170995
0.00015062
0.0173653
0.000301328
0.0523879
0.000150443
0.000149312
0.000172802
0.000166724
0.0209498
0.04353
0.000167883
0.000148328
0.000197053
0.000201785
0.000194658
0.000193729
0.000166947
0.0329162
0.000162835
0.000163919
0.000183978
0.000175932
0.000167629
0.000224056
0.000167419
0.000152039
0.000174719
0.000155604
0.000146955
0.000157068
0.000165575
0.000155839
0.000148078
0.000147304
0.000169812
0.000151331
0.0001737
0.000148305
0.000148355
0.000149803
0.000150877
0.000145243
0.000154066
0.000147803
0.0321584
0.000171667
0.000190025
0.000146369
0.00014961
0.000163123
0.000170936
0.000150921
0.000171341
0.000171991
7.64255e-05
0.000157055
0.000181755
0.000149545
0.000149768
0.00014735
0.000150811
0.02312
0.000149668
0.000219827
0.000154372
0.0112602
0.000164239
0.000172423
0.000184382
0.000145794
0.000149934
0.000171929
0.00014867
0.000149736
0.000105833
0.000150143
0.000149176
0.00015578
0.00014739
0.000145809
0.00015586
0.000156783
0.0160326
0.000160348
0.000148283
0.000146965
0.0395323
0.000171859
0.000148934
0.000148864
0.00018869
0.000222851
0.0257513
0.000159977
0.000152052
0.000146313
0.000145708
0.000166821
0.000160882
0.000193353
0.000154196
0.0269954
0.000149059
0.000152014
0.0224638
0.000148292
0.000155809
0.000148044
0.000148404
0.000165029
0.000162276
0.000149539
0.0053813
0.017066
0.000174998
0.000147681
0.000145606
0.000180293
0.000218239
0.000149716
0.000211632
0.000145561
0.000164306
0.000147551
0.000147186
0.000201193
0.000148145
0.00808438
0.000162765
0.000149802
0.000145434
0.00014901
0.000147221
0.000151107
0.000407688
0.000147966
0.000146731
0.0400394
0.0139277
0.000162709
0.00016616
0.000172761
0.000153413
0.000146536
0.000156324
0.031127
0.000171552
0.000148776
0.000148929
0.0403029
0.000160852
0.0609664
0.00014975
0.000151107
0.0153234
0.000159496
0.000149725
0.0209973
0.000290262
0.000147188
0.000182679
0.000147331
0.000147997
0.000146292
0.0418958
0.000145186
0.000148716
0.000146515
0.0136125
0.000153757
0.000188058
0.000166184
0.000147283
0.000158961
0.000149074
0.0561015
0.000147543
0.000148083
0.000149174
0.000180806
0.000149125
0.000185721
0.013421
0.0215901
0.00015543
0.000210045
0.0369225
0.000148238
0.0138831
0.0319676
0.0413009
0.0253024
0.0418971
0.00489917
0.000184215
0.000149281
0.0335723
0.00015943
0.0359358
0.000146253
0.000147247
0.000148989
0.000149023
0.000154266
0.000158141
0.0215731
0.000147147
0.00014854
0.0126223
0.000181987
0.000149023
0.00016113
0.000157034
0.000148842
0.000294704
0.00016144
0.000152303
0.000153682
0.0136716
0.0273552
0.000251816
0.000147386
0.000190983
0.000179293
0.0400056
0.0308578
0.000176354
0.000147405
0.000149687
0.000149055
0.000145039
0.00015103
0.000145387
0.000155175
0.000162377
0.0504741
0.000182791
0.000148719
0.000181234
0.0560429
0.000163814
0.000149724
0.0210662
0.000147371
0.000149546
0.000160797
0.0520044
0.000149155
0.000147534
0.0363601
0.000197457
0.000214121
0.000179761
0.00020737
0.000147306
0.000187143
0.000149793
0.000147795
0.000149844
0.0327693
0.0309626
0.000146793
0.000145431
0.000148152
0.000224796
0.000150713
0.000157119
0.000148643
0.000149515
0.000186984
0.00014743
0.000170574
0.000187638
0.031065
0.000147971
0.00017033
0.000152424
0.0366343
0.0538085
0.000148179
0.0466604
0.000173615
0.000263012
0.000149134
0.0312972
0.000149623
0.000154775
0.000164487
0.000179679
0.0307085
0.000181754
0.000185417
0.0075733
0.000146834
0.000195875
0.000147172
0.000155565
0.0370267
0.000148697
0.000149677
0.00015022
0.00014871
0.0475487
0.000145727
0.000148404
0.000168968
0.000166095
0.000166906
0.000199805
0.00018184
0.0226029
0.000172286
0.00016044
0.000163602
0.0273966
0.000162938
0.00218956
0.034629
0.000153971
0.000147547
0.0246646
0.000188132
0.000149841
0.000180147
0.000159559
0.000149642
0.000154611
0.000148844
0.000164521
0.000149942
0.000166546
0.000170602
0.000146956
0.000170896
0.000147089
0.000166051
0.000146971
0.000155205
0.000169906
0.000151569
0.000148681
0.000146829
0.000274001
0.000173203
0.00290011
0.000148197
0.000148537
0.000170267
0.000148046
0.00017707
0.000173183
0.00014963
0.000178127
0.000146971
0.0019101
0.000149711
0.000161841
0.0195557
0.00019522
0.000147362
0.000151688
0.0116746
0.000147805
0.000147223
0.0448584
0.0464006
0.000153179
0.000184587
0.000148559
0.000148696
0.0320258
0.000150597
0.000145842
0.00019653
0.000147246
0.000221898
0.000149246
0.000145842
0.000149015
0.000182165
0.0233224
0.000149003
0.000149312
0.00014731
0.000154268
0.000148369
0.00021922
0.000170191
0.000149772
0.00356395
0.000164312
0.00019676
0.0334748
0.000425873
0.000146676
0.00014953
0.000148336
0.00019706
0.000154839
0.0232429
0.0352722
0.000152518
0.0372024
0.000322935
0.000166708
0.000183682
0.000168156
0.000188768
0.0291283
0.000166466
0.000212157
0.0363911
0.00017144
0.000153684
0.0279031
0.000164299
0.00014632
0.000151171
0.00697573
0.000161949
0.000147202
0.000165474
0.000178345
0.000162508
0.0264899
0.000151835
0.00172408
0.000163385
0.000175719
0.000181835
0.000191722
0.000156544
0.000146844
0.000149854
0.0267588
0.000147788
0.000152706
0.000146715
0.000151043
0.000147247
0.000160019
0.000184064
0.000290988
0.000162682
0.000165583
0.0281613
0.00018529
0.000147253
0.000221833
0.0314516
0.000146132
0.00014716
0.000157746
0.0268972
0.000149677
0.000173103
0.00019874
0.000165616
0.000148778
0.000151292
0.000147425
0.00018007
0.000162311
0.000147738
0.00799286
0.0331305
0.000162944
0.000214995
0.000171712
0.000311104
0.000151293
0.000153718
0.0222529
0.000215596
0.000176613
0.000252581
0.000156138
0.000149824
0.00014812
0.000148699
0.000148466
0.000150573
0.000165757
0.000147439
0.000181067
0.000147385
0.000156196
0.00014699
0.00017258
0.000180756
0.000210663
0.000148154
0.0001917
0.000148103
0.016674
0.000148235
0.000154783
0.000148732
0.000191383
0.0352739
0.00018305
0.000147398
0.000182793
0.000148181
0.000157133
0.0429719
0.000147851
0.000149892
0.000165337
0.000158209
0.0366723
0.000147464
0.000157526
0.000151549
0.000148127
0.000158709
0.000149649
0.00014608
0.000152157
0.0237119
0.000152552
0.000198128
0.0108577
0.000167642
0.0247506
0.000152286
0.000146121
0.000158242
0.0247154
0.000151763
0.000161274
0.000163517
0.000379679
0.000147112
0.00362475
0.000171357
0.000173291
0.000146083
0.000145492
0.000184846
0.000150032
0.000149896
0.000159232
0.000146215
0.000153157
0.00015625
0.000172925
0.000185786
0.0348071
0.000154275
0.000173717
0.00213285
0.0105865
0.000161896
0.000179594
0.0260966
0.000162161
0.00275134
0.000152604
0.000916768
0.00476621
0.000146402
0.000149722
0.000147477
0.000150194
0.000165221
0.000147102
0.000152889
0.000176438
0.000151047
0.000159964
0.0353147
0.000157643
0.000152379
0.0327924
0.000149716
0.0151719
0.000152971
0.000164883
0.000147033
0.0266152
0.0321606
0.000148188
0.000150395
0.0317367
0.00015729
0.0171865
0.000147969
0.000147273
0.03857
0.000150223
0.000162476
0.0155585
0.000148525
0.000168759
0.000156725
0.000145485
0.000147122
0.0330078
0.0348224
0.000148749
0.000151491
0.000148549
0.000154716
0.000160604
0.0218073
0.000150427
0.000323487
8.44207e-05
0.000193751
0.000217493
0.000150103
0.000180754
0.000176416
0.000157002
0.000148367
0.000170305
0.0349252
0.00015177
0.000162396
0.0248306
0.000457034
0.000182726
0.000154345
0.000149254
0.000149623
0.00014863
0.0280545
0.000168771
0.00015211
0.000150635
0.000152496
0.000149778
0.00014795
0.00014861
0.000173496
0.000162687
0.00287983
0.000163205
0.0160479
0.0225141
0.000157912
0.000167117
0.000146484
0.000156392
0.0230809
0.000148579
0.000151586
0.00016734
0.000181202
0.000164908
0.030904
0.000198981
0.000147364
0.0295192
0.000145333
0.000148959
0.000163418
0.000149805
0.00014839
0.000187194
0.000999531
0.000147252
0.0274237
0.000148472
0.000146637
0.000151413
0.000353905
0.000156712
0.000152981
0.00694461
0.000150407
0.000193422
0.0285098
0.000149606
0.000163389
0.000147885
0.0129305
0.000173299
0.000148699
0.0328472
0.000168432
0.000167711
0.00014984
0.0308874
0.000157043
0.000195508
0.000151096
0.000166756
0.0284445
0.000146696
0.000240547
0.000148921
0.000171254
0.000163999
0.0001496
0.0356469
0.000151768
0.000180821
0.000169838
0.000169536
0.00016223
0.000162718
0.000150289
0.024918
0.000158677
0.0130023
0.000157595
0.000171374
0.000147847
0.00016476
0.000148665
0.00017304
0.0269225
0.000150254
0.000146709
0.000409726
0.000150292
0.00691832
0.000149488
0.0282268
0.000175316
0.000160417
0.000147755
0.000147375
0.000148717
0.000145425
0.00017904
0.000165247
0.000161241
0.000154002
0.00014841
0.000217617
0.000151638
0.000159785
0.000618317
0.000148565
0.0313539
0.000167279
0.00015797
0.000253213
0.0320647
0.000203477
0.0241573
0.000202338
0.000147071
0.000188088
0.0368555
0.000185934
0.00014907
0.000149607
0.000180105
0.0331589
0.0153774
0.000206587
0.000149884
0.000164101
0.000162528
0.0274047
0.00323457
0.00016346
0.000182043
0.00015204
0.000172915
0.000176605
0.000149009
0.000178862
4.4574e-05
0.000148826
0.000180864
0.000149656
0.000147995
0.0244933
0.0385364
0.000146743
0.000150097
0.000149459
0.000147212
0.000165141
0.000187679
0.000151232
0.000147715
0.000148524
0.000163131
0.000155776
0.000155574
0.000202401
0.000148407
0.0432618
0.0196043
0.0429633
0.000174013
0.000167932
0.000211266
0.000159337
0.0332113
0.000210424
0.000226646
0.000149492
0.0461232
0.0237872
0.000146211
0.000148091
0.000177771
0.061686
0.000661215
0.000147401
0.000148227
0.0297406
0.000305154
0.000234088
0.000152031
0.000152766
0.000306763
0.000149092
0.0336708
0.0403814
0.000204371
0.000248816
0.0001488
0.000147336
0.000147004
0.000155056
0.0242384
0.000162815
0.000154086
0.000150745
0.000170856
0.0277601
0.000163232
0.000228972
0.0163397
0.0170063
0.000311547
0.000148347
0.000149063
0.0266159
0.000145643
0.000146255
0.000150966
0.00041917
0.000161348
0.0477905
0.000182457
0.000148068
0.0477782
0.000162468
0.000147242
0.0185033
0.000175181
0.000154347
0.000148877
0.00721246
0.0618109
0.000149158
0.00055516
9.51376e-05
0.0647646
0.000249658
0.000172919
0.00014749
0.000149684
0.000235654
0.000153781
0.0219273
0.000163642
0.00024386
0.000196664
0.00015109
0.000156976
0.00014751
0.000150562
0.0642113
0.0127807
0.000148603
0.0244715
0.000163836
0.000148277
0.000153495
0.000147345
0.000186315
0.000149411
0.000319013
0.000164081
0.000147415
0.000146914
0.000168986
0.0176553
0.000161993
0.000152172
0.000164092
0.000148626
0.000150805
0.000155575
0.0230475
0.0203273
0.0624004
0.000145938
0.000146864
0.000149382
0.000180849
0.000146928
0.00014949
0.000187245
0.000169914
0.000215256
0.000146284
0.0597488
0.0204024
0.000149885
0.0214662
0.000180596
0.000161646
0.000311018
0.000149202
0.0435741
0.000157294
0.000151131
0.000152644
0.000145618
0.000200268
0.000151542
0.000150825
0.00015812
0.0213077
0.0245896
0.000149604
0.000147973
0.000151367
0.000147961
0.000182972
0.000150125
0.000175862
0.000151609
0.0333039
0.00015037
0.0384662
0.000145961
0.0501766
0.000149313
0.000145548
0.0634135
0.000182862
0.000170794
0.000205593
0.00016255
0.00016273
0.000148598
0.0373158
0.00014862
0.000146969
0.000168997
0.000171706
0.0508201
0.0466504
0.0001816
0.00207451
0.000182065
0.000213941
0.000148805
0.00015317
0.000155984
0.0467873
0.000154023
0.0517781
0.0202844
0.00014922
0.000148987
0.000148204
0.000231752
0.000414269
0.000151285
0.000148597
0.000154224
0.00015594
0.000161679
0.000198315
0.000185007
0.000148274
0.000210339
0.000175537
0.0213592
0.000173561
0.00015109
0.000151899
0.0497626
0.000146983
0.000176693
0.0310259
0.00015041
0.000153655
0.000187837
0.000173778
0.000150659
0.0156876
0.000152504
0.000195776
0.000163716
0.00015778
0.000150379
0.0602082
0.000146813
0.000169795
0.000256824
0.0669961
0.000166877
0.000171598
0.000154226
0.000163312
0.000149755
0.0684983
0.000155027
0.000148222
0.000157232
0.000148474
0.000149775
0.000414988
0.000148407
0.000149116
0.000148389
0.000182305
0.000149752
0.000159304
0.000173522
0.000188538
0.000180552
0.000149676
0.00017955
0.00018857
0.000189361
0.000175365
0.000156376
0.000185778
0.0192338
0.00020583
0.000149887
7.82872e-05
0.0304555
0.000149882
0.000152202
0.000145543
0.000207935
0.000178069
0.000148654
0.000253007
0.0490758
0.000146508
0.000149614
0.0315648
0.0219932
0.000171996
0.000145669
0.000281332
0.0256658
0.000461268
0.000148032
0.0471994
0.000175399
0.000166686
0.055443
0.000154403
0.000145611
0.000157343
0.00018674
0.000158573
0.0324252
0.0603703
0.000146679
0.00193433
0.000190993
0.042628
0.000145948
0.000164476
0.000149953
0.000147486
0.0420571
0.000218847
0.000194458
0.000182056
0.000157146
0.000167204
0.00014927
0.0662858
0.0145934
0.000148646
0.000148902
0.000158502
0.000147735
0.000167186
0.0394493
0.000835308
0.000167448
0.000149492
0.000149113
0.0432085
0.000153709
0.000167917
0.000146545
0.0001508
0.000210077
0.00021808
0.000202473
0.000341768
0.000149053
0.00019602
0.000150262
0.0001634
0.00430802
0.0240955
0.000148421
0.000149954
0.000161078
0.000154628
0.000149489
0.0430102
0.0487899
0.000146704
0.000145299
0.000149229
0.000147576
0.000309432
0.000146728
0.0316202
0.000179112
0.000171768
0.00014714
0.000165664
0.0627004
0.000159525
0.000188446
0.0569012
0.000149292
0.0249423
0.000159139
0.000160106
0.000184736
0.0283548
0.0417581
0.000170657
0.000147145
0.000182722
0.000146768
0.000154354
0.000149455
0.0308684
0.000158633
0.000235276
0.000213715
0.000166336
0.000148797
0.000192262
0.000155144
0.000149783
0.000181865
0.000145287
0.000162961
0.00015979
0.000149297
0.00112725
0.000151407
0.000199325
0.000150704
0.000147355
0.0632413
0.0323815
0.0001529
0.000158878
0.000162707
0.000169153
0.000169878
0.000154879
0.000154328
0.000153523
0.000194212
0.000153963
0.0297116
0.00016584
0.000208349
0.000180271
0.000150129
0.0429463
0.000145312
0.032859
0.000153139
0.057858
0.000220261
0.00021198
0.000176024
0.00019727
0.000167669
0.000148539
0.0399428
0.000168471
0.000148656
0.0254619
0.00967679
0.000151651
0.000152097
0.000157813
0.000157834
0.000158932
0.0304643
0.000149883
0.000158081
0.000160607
0.000158909
0.000149007
0.00017551
0.000145578
0.0294431
0.000152139
0.000182389
0.000158491
0.00016241
0.000178013
0.000223746
0.000175736
0.00014675
0.000181403
0.0376789
0.0175062
0.000149627
0.0252072
0.0001566
0.000297658
0.000148604
0.000152985
0.0365338
0.000168072
0.0323704
0.0282365
0.00015918
0.0543419
0.000147873
0.000145567
0.0239609
0.000165151
0.000152893
0.0366305
0.000155056
0.00016303
0.0001573
0.000172599
0.000148642
0.000510117
0.0159694
0.0105548
0.000195157
0.000153771
0.000169104
0.0345742
0.000152465
0.000149529
0.0001732
0.000145938
0.000181204
0.0559893
0.0139555
0.0183541
0.000168951
0.000149781
0.0465257
0.000145337
0.000173875
0.000149521
0.0207787
0.000151915
0.000163814
0.0263878
0.00018116
0.000148006
0.00015888
0.0225821
0.000149049
0.0001844
0.000146612
0.000306359
0.0534918
0.000180407
0.000167449
0.000147459
0.000201852
0.000182697
0.000162297
0.000146623
0.000150006
0.000148886
0.000168578
0.000148775
0.000175798
0.000149357
0.000146812
0.0499075
0.000147249
0.000154962
0.000153685
0.000149813
0.0304217
0.000147142
0.000160012
0.0409469
0.000166965
0.0290612
0.000148853
0.0627733
0.000167782
0.0418302
0.000151608
0.000181624
0.000149288
0.000162996
0.000180894
0.000179702
0.000192153
0.0462061
0.000190174
0.000232207
0.000155807
0.000179606
0.000162543
0.000215623
0.000153801
0.000149145
0.000148539
0.000167607
0.000164052
0.00021652
0.000168185
0.0247813
6.43744e-05
0.000170576
0.00014815
0.000219508
0.000176869
0.000150197
0.000152756
0.000148776
0.00646964
0.000148572
0.0109246
0.000147138
0.000155396
0.0390045
0.000169053
0.000148298
0.000148478
0.0221851
0.000147176
0.000152471
0.000153534
0.000159226
0.000155631
0.000148821
0.000184509
0.000168175
0.000162457
0.000195044
0.0523237
0.0291646
0.0291385
0.00014604
0.000148077
0.000170218
0.000149781
0.00016321
0.0263283
0.029173
0.000145637
0.000148555
0.0285384
0.000205186
0.000145755
0.000146787
0.000155352
0.0456899
0.0334091
0.000154757
0.000159857
0.000149259
0.000197504
0.000181367
0.000173469
0.000158448
0.00016304
0.000150205
0.000161726
0.000197475
0.000150881
0.000148648
0.000154544
0.0332934
0.000153909
0.0265503
0.000148579
0.0352285
0.00016123
0.000156695
0.000146285
0.000147279
0.000210486
1.13962e-05
0.000164998
0.016868
0.0549172
0.000150134
0.0400099
0.000183329
0.000147543
9.39388e-05
0.000204639
0.000180517
0.00014967
0.0272175
0.0440194
0.000148242
0.000162068
0.0199085
0.000164957
0.000148446
0.000146721
0.000149314
0.00015213
0.000175344
0.000196282
0.000168029
0.000174282
0.000146201
0.000149065
0.019342
0.00014695
0.000166414
0.000155525
0.000149513
0.000167275
0.000148057
0.000152054
0.00019649
0.000147803
0.0450736
0.000148093
0.000720357
0.0331422
0.000177829
0.000149099
0.000149947
0.0496236
0.000145559
0.000152307
0.000149936
0.00019028
0.000218054
0.000159615
0.0328069
0.000162224
0.000215625
0.00015058
0.000173042
0.000147362
0.000148832
0.0238824
0.0320033
0.000222192
0.000151793
0.000173213
0.000173128
0.0450603
0.0430736
0.000195058
0.000162529
0.000145296
0.0447498
0.000147722
0.000147941
0.000194888
0.000179903
0.000156587
0.00017664
0.000163543
0.00015863
0.000155665
0.0518567
0.000152547
0.000147757
0.0246608
0.000163697
0.00014605
0.0240703
0.000148052
0.00014862
0.000186501
0.000180199
0.0479387
0.000146133
0.000153527
0.000147277
0.000294321
0.000147081
0.000197125
0.000167459
0.0312376
0.022433
0.00514698
0.00015768
0.040158
0.000227074
0.000149336
0.00015799
0.000162484
0.000157842
0.00025184
0.0343969
0.058622
0.031288
0.000331391
0.000148991
0.000179473
0.000148109
0.0240527
0.000156413
0.000151286
0.000152202
0.000149996
0.000147127
0.000179673
0.0595006
0.000145958
0.000151602
0.000146853
0.0332097
0.000151397
0.0563914
0.0300508
0.000221303
0.000148609
0.000147186
0.0258808
0.000188029
0.000148848
0.000183358
0.000149469
0.000180763
0.0001761
0.000178108
0.000167465
0.000168053
0.000146546
0.000147512
0.000191541
0.0247063
0.000156926
0.000165242
0.00014756
0.0107852
0.000148085
0.000147483
0.000150854
0.000148149
0.0114003
0.0317142
0.000220197
0.000170962
0.0507199
0.000205016
0.000145634
0.000158226
0.000145891
0.000253028
0.000148336
0.000153407
0.000148103
0.00014724
0.000146975
0.000291703
0.000150838
0.000263246
0.000146224
0.000159031
0.000155794
0.000269068
0.000148158
0.000158399
0.000160642
0.000169918
0.0599171
0.000147219
0.0215859
0.000172047
0.000163814
0.000149624
0.000147505
0.0251293
0.0110968
0.00014841
0.00014751
0.000194167
0.000192084
0.000160746
0.0386488
0.000150516
0.000210768
0.000158373
0.000145897
0.00195476
0.000151502
0.0339753
0.000148507
0.000149991
0.000148685
0.029142
0.0300498
0.000145733
0.000179685
0.000190205
0.00014825
0.000147374
0.000147147
0.000180845
0.0408337
0.000171102
0.000153158
0.000162635
0.000148048
0.000148591
0.00015168
0.000147843
0.00018833
0.000148762
0.000171292
0.000207348
0.000160704
0.000145371
0.0249671
0.000174164
0.000148112
0.000173734
0.00015783
0.000219247
0.000153616
0.0278062
0.000169679
0.000148041
0.000176079
0.000176093
0.000152884
0.0499637
0.000170402
0.000158173
0.00022135
0.000147663
0.00017943
0.000168753
0.000177169
0.000147387
0.000147952
0.000145532
0.000159468
0.000169006
0.000168563
4.13567e-05
0.0374974
0.0304448
0.000149753
0.000308077
0.0338873
0.0441207
0.000148158
0.000148232
0.000168295
0.0349242
0.000152671
0.000160588
0.00932517
0.0259284
0.000762409
0.00017194
0.000187091
0.027588
0.000204603
0.000145612
0.000603986
0.000193401
0.000149133
0.000149412
0.000150388
0.0661503
0.000177538
0.0169237
0.000152068
0.000222168
0.000148534
0.000212253
0.0228973
0.000149201
0.000159889
0.045203
0.0176124
0.000169276
0.00015035
0.000152061
0.000150052
0.000179929
0.000180713
0.000253761
0.0432897
0.000146303
0.0206298
0.00018303
9.18208e-05
0.000148025
0.00014901
0.000827866
0.000183211
0.000147814
0.000167273
0.000167421
0.00016119
0.028967
0.0349613
0.0650353
0.0441869
0.000154025
0.000146004
0.000166321
0.0185469
0.000345126
0.000148033
0.000180462
0.000169041
0.000197616
0.000150411
0.000149676
0.000230178
0.000221042
0.000217598
0.00025556
0.0170966
0.000147529
0.000180903
0.0439229
0.000149487
0.000165867
0.000179654
0.00014581
0.000186783
0.0396337
0.000180629
0.000149669
0.0137122
0.000181194
0.0109661
0.000144997
0.000152007
0.000148704
0.000151737
0.000148602
0.000168344
0.000162143
0.000162225
0.000189332
0.000159687
0.0327166
0.000154012
0.000157639
0.000156049
0.0236428
0.000165178
0.0381286
0.000156098
0.000156285
0.0124739
0.000170157
0.000148897
0.000162467
0.000214181
0.0211356
0.000198242
0.000147939
0.00014736
0.000147628
0.000215541
0.000151096
0.000339012
0.000253785
0.000180638
0.000158565
0.000191875
0.0323692
0.000148609
0.000181557
0.000159623
0.000163929
0.000147694
0.000147934
0.000168423
0.0557138
0.000148393
0.0351668
0.00019729
0.00016981
0.000186653
0.000147173
0.000147979
0.000157409
0.000151036
0.0119433
0.0194082
0.000168778
0.000209148
0.000147819
0.000148385
0.00014869
0.000149623
0.0507748
0.00015114
0.0463049
0.000168864
0.000150509
0.000187267
0.000248388
0.0274565
0.024483
0.000151602
0.000147317
0.000148789
0.000152249
0.000223854
0.000179767
0.0441074
0.000148952
0.000149815
0.000174399
0.000149709
0.000201673
0.000152351
0.000173832
0.000175109
0.000162203
0.000162175