/*--------------------------------*- C++ -*----------------------------------*\
| =========                 |                                                 |
| \\      /  F ield         | OpenFOAM: The Open Source CFD Toolbox           |
|  \\    /   O peration     | Version:  v2012                                 |
|   \\  /    A nd           | Website:  www.openfoam.com                      |
|    \\/     M anipulation  |                                                 |
\*---------------------------------------------------------------------------*/
FoamFile
{
    version     2.0;
    format      ascii;
    class       surfaceScalarField;
    location    "450";
    object      phi;
}
// * * * * * * * * * * * * * * * * * * * * * * * * * * * * * * * * * * * * * //

dimensions      [0 3 -1 0 0 0 0];
oriented        oriented;


internalField   nonuniform List<scalar> 
20537
(
-0.387375
0.524541
-0.137152
-0.0502794
-0.0803769
0.130657
-0.185937
0.1744
0.0115409
-0.0175753
-0.313992
0.33158
-0.152568
0.160745
-0.00817218
0.293225
-0.474395
0.181175
0.19875
0.201292
-0.40003
0.242145
-0.0806233
-0.161515
-0.464802
-0.0921993
0.557025
-0.0463395
0.218005
-0.171663
0.619746
-0.188201
-0.431544
0.0505716
-0.0693331
0.0187619
0.0727061
0.0140555
-0.0867601
-0.0130566
0.00782366
0.00523376
0.677048
-0.546314
-0.130685
0.288351
-0.288266
-7.66372e-05
-0.0555189
0.287003
-0.231469
0.456937
-0.25318
-0.203748
-0.128551
0.129574
-0.00102201
0.0806568
-0.545435
0.358789
-0.376344
-0.0700229
-0.11591
-0.362227
0.581107
-0.218872
-0.69637
0.0992849
0.597121
-0.546913
0.184695
0.223562
0.0185902
-0.091241
-0.176879
0.268131
-0.00251456
-0.00111887
0.0102359
-0.397596
0.240494
-0.361215
0.120736
0.467802
-0.174574
0.227803
-0.283308
-0.0101581
0.184562
0.405081
-0.446547
0.0414663
-0.607898
-0.0884351
0.116756
-0.128107
0.0113512
-0.00547772
0.0915873
-0.0861086
0.199989
-0.126862
-0.0731258
0.131754
-0.178091
0.00906797
0.396013
0.0475985
0.342182
-0.389755
0.484426
-0.654298
0.169875
-0.00300684
0.00135759
0.0016489
0.365217
-0.599781
0.234564
0.592537
-0.22732
-0.00151119
-0.00477231
0.00628256
-0.565488
0.227433
0.338054
0.11673
-0.39034
0.273611
0.168889
-0.26012
0.318591
0.239168
-0.557755
0.166035
-0.0241557
-0.141874
0.144551
-0.0705209
-0.0740272
-0.00125797
0.000286451
0.000971573
-0.735279
0.374482
0.360846
0.660865
-0.540425
-0.120368
0.65305
-0.168621
0.654784
-0.296278
-0.358487
0.00207824
-0.00376663
0.00168851
-0.180819
0.421329
0.282753
0.0975049
-0.380239
0.0428528
0.157137
0.038948
-0.050277
0.0113285
-0.424949
0.30681
0.118145
-0.140334
0.132341
0.00799558
-0.129396
0.292502
-0.163103
-0.464525
0.153046
0.311489
0.0644583
-0.0699352
-0.574222
0.25331
-0.215363
0.211836
0.00353605
0.209279
0.247668
0.0140114
-0.017083
0.00307162
0.0797272
-0.0733705
-0.00635537
0.0850436
-0.135323
-0.292745
-0.44248
0.28413
-0.590355
0.306289
-0.536756
0.443683
0.0930881
-0.134309
0.0642895
-0.021788
0.0010282
0.0207597
0.00580816
-0.178624
0.172823
0.0168145
-0.00144438
-0.175056
0.433795
-0.258719
0.515547
0.000824387
-0.516371
-0.435012
-0.0530507
0.488098
0.00289312
0.000447555
-0.00334184
-0.331282
-0.0936621
0.0667431
-0.0161711
0.492164
-0.166852
-0.325307
0.0238612
0.105468
-0.129328
-0.257082
0.323987
-0.0668908
-0.352001
-0.25747
0.609481
0.0253057
0.0914504
-0.100607
-0.325251
0.425865
-0.234822
-0.0843114
0.247861
-0.16354
-0.0209588
-0.236107
0.565018
-0.553621
-0.0113779
0.0231173
-0.175681
0.00865802
0.0275477
-0.0362058
-0.194768
0.513363
-0.0247173
0.589758
0.00454666
-0.000179091
-0.00436697
0.171226
-0.174748
0.00352889
0.0817871
-0.393324
0.311553
0.266952
-0.0198839
-0.45257
-0.0978407
0.550412
-0.51599
0.398181
0.117814
-0.1774
0.179621
-0.00221475
0.517381
-0.671439
0.154059
0.0623506
0.00756204
-0.160075
-0.314316
-0.543981
-0.0196521
0.563657
0.282845
-0.634837
0.317968
-0.418568
-0.653847
0.653881
-0.0721565
-0.471799
0.303505
-0.0745801
-0.0425653
0.0512233
0.0699006
-0.46438
0.394482
-0.579651
0.581637
-0.00193393
-0.194325
0.567267
-0.37288
-0.00285735
-0.000149657
0.233582
0.0333784
0.0789937
-0.00628653
0.093933
0.395593
-0.278861
-0.769353
0.338091
0.431266
0.122084
0.27351
0.16349
-0.187602
0.0241171
0.0348421
0.323963
0.170105
-0.0775018
-0.0926014
0.433171
-0.385543
0.562869
-0.162678
-0.400155
0.0183227
-0.00431158
-0.554579
0.119605
0.227606
-0.57824
0.613698
-0.035415
0.546977
-0.477072
-0.067326
0.0808421
-0.0135143
-0.00718977
0.000651811
0.00653797
-0.0342632
-0.00549559
0.0397593
0.00658826
-0.00204144
0.379706
0.281236
0.164111
-0.577622
0.413523
0.710241
-0.382729
-0.327508
0.418739
-0.0909518
-0.327773
-0.199448
-0.400332
-0.430462
0.606969
-0.176506
0.0358174
0.13429
-0.266959
0.465729
0.186526
0.40601
0.00160467
0.126889
-0.42643
0.621301
-0.194805
-0.000634942
-0.0124207
0.310352
0.344448
0.364634
-0.211565
-0.153056
0.304035
0.11472
-0.506308
0.190932
0.315401
0.232995
0.136813
-0.369794
0.0103545
0.1342
0.00881649
0.157224
-0.343355
-0.245925
0.58928
-0.0713609
0.221874
-0.150506
0.00258927
-0.000511035
0.165446
0.397455
0.27114
-0.382257
0.11113
0.632811
-0.223368
-0.40944
-0.674197
0.243735
-0.000684894
-0.21467
-0.326432
0.36129
0.0336447
0.0001596
-0.0338052
0.000143803
-0.021932
0.240431
-0.548979
0.308567
-0.177181
-0.329103
-0.00288761
-0.0313753
0.572456
-0.406977
-0.151746
-0.238593
0.181713
-0.018216
0.548098
-0.525659
-0.0224288
-0.0233544
-0.105195
-0.512941
0.656169
-0.143227
-0.274712
0.0634309
0.211292
0.0124027
-0.131814
-0.362792
0.494639
0.0439752
-0.159882
-0.355949
-0.231849
0.587799
-0.448097
0.613391
-0.165282
-0.181802
-0.282713
0.359337
-0.553599
-0.166098
0.163922
0.00217931
0.247557
-0.00197457
-0.245578
-0.312178
0.00043511
-0.00169345
0.258753
-0.545508
0.286762
0.182349
-0.212176
0.029835
0.0507307
-0.0117835
0.402255
-0.182757
-0.219485
0.554443
-0.390321
-0.135624
0.477024
-0.3414
0.475721
0.0723881
-0.438654
-0.0980873
-0.295727
-0.473622
-0.00016507
0.0174556
-0.0172914
-0.583524
0.0850152
0.498567
-0.545454
0.149565
0.395924
-0.0349277
0.228611
-0.193679
-0.49452
0.362739
-0.0249086
-0.0145435
0.0394521
0.142599
0.147142
-0.289728
0.0267008
-0.00198971
-0.0247112
0.123391
0.437491
-0.560881
-0.0125439
-0.0308752
0.0434198
-0.359336
0.441142
-0.467009
0.15594
0.311068
0.446113
-0.624702
0.17859
-0.710538
0.428886
0.281656
0.641636
-0.235836
-0.405799
-0.17035
0.423569
-0.253212
-0.00213444
0.000622319
-0.109052
-0.410717
0.519807
0.0281476
-0.00144688
0.264575
-0.121964
0.191693
-0.366731
-0.00144655
0.0396906
-0.0382429
-0.0606066
0.142978
-0.0823681
0.000905562
0.0310248
-0.0319322
-0.597037
0.578476
0.018573
-0.0402027
-0.195775
0.235987
-0.520984
0.068417
-0.00248472
0.000512942
0.0019717
0.661775
-0.215661
0.216565
0.0070036
0.32254
-0.273247
-0.0492902
-0.28843
0.52888
0.541606
-0.156106
0.142354
0.0137578
-0.0734474
-0.252649
0.326102
0.0164888
-0.0413972
0.0944688
-0.223863
0.273072
0.437173
-0.458804
-0.0866186
0.14343
0.324377
0.371679
-0.510266
0.138589
0.568886
0.0518732
-0.62076
-0.205367
0.170442
0.450342
-0.548181
0.0261074
0.00341798
-0.0295241
0.195309
-0.0240777
0.444944
-0.380374
-0.0645717
-0.402604
0.293577
0.109042
-0.233979
-0.118367
0.35236
0.678795
-0.396455
-0.282332
0.515424
-0.143745
-0.244185
-0.111964
0.356166
-0.098556
-0.024626
-0.122634
0.147267
0.384955
-0.153012
-0.23194
0.260927
-0.0133666
0.00659905
0.0742443
0.00682413
-0.0137898
0.00696658
-0.189684
-0.347501
0.537213
-0.437464
-0.462512
0.355562
0.10696
0.313392
-0.0837488
-0.229643
-0.624486
0.199299
0.425192
-0.109521
0.0933957
0.0161265
0.185904
0.216364
-0.369762
0.125593
-0.206457
0.122155
0.0425303
-0.0439757
0.426994
0.141862
-0.568853
0.304683
0.37412
0.181891
0.468335
-0.140298
-0.328035
0.180369
-0.174554
0.254974
0.0333859
-0.541017
0.378374
0.624814
-0.109268
0.597813
-0.177001
-0.42081
-7.17822e-05
0.032101
-0.0320291
0.106807
0.512939
0.0284943
0.540391
0.076271
-0.547851
0.471581
-0.497341
0.59225
-0.0949077
-0.147105
0.122485
-0.00529493
0.318688
0.330172
-0.188084
-0.142088
0.0304898
0.463853
-0.494322
-0.383588
0.498083
-0.114467
0.116096
0.352241
-0.693334
0.296922
0.396412
0.14296
-0.107141
0.159072
-0.339877
-0.106162
0.388932
-0.214865
0.218453
-0.00358091
-0.431101
-0.262234
-0.0277571
-0.0817634
0.0633759
0.181781
-0.245149
0.047234
0.0195096
0.441273
-0.57782
0.136578
0.0316091
-0.00550096
0.109929
-0.181282
0.0873706
0.199646
-0.0111038
-0.0261156
0.0372195
-0.14012
0.371519
-0.23138
-0.36515
-0.150834
-0.0356316
0.0322436
0.00338909
0.487163
-0.456649
-0.00950334
-0.1478
0.15731
0.230053
0.0178194
-0.222847
0.381933
0.00507015
-0.0122596
0.222797
-0.159414
0.392212
-0.363859
-0.0283371
0.041263
-0.0490687
0.00780651
0.641981
-0.251333
-0.390645
0.0488518
-0.282821
0.733046
-0.359836
-0.373206
-0.0417712
0.0416995
0.125957
-0.0186647
-0.10729
-0.509274
0.400259
-0.18774
0.0411351
0.146611
-0.26263
0.491261
-0.228596
0.0236095
-0.0167852
0.000951627
0.462231
-0.463175
-0.452929
0.640151
-0.187211
0.624509
-0.255334
-0.369159
0.12229
0.00366962
0.202534
-0.242726
-0.321678
0.0694776
0.252213
0.107889
-0.374579
0.234481
0.328896
0.0633338
0.471337
-0.659538
0.022795
-0.0138724
-0.0358281
-0.00395424
0.0397813
0.0920304
-0.4009
0.308878
0.0370364
-0.04814
0.00445161
-0.0637706
0.059319
0.384346
-0.0254024
0.207758
0.128878
0.014084
0.573204
-0.349797
-0.223401
0.0284585
0.23529
-0.263744
-0.00434202
0.115241
-0.110896
0.101818
-0.241213
0.532984
-0.291762
0.222955
0.012563
-0.235518
-0.00505986
-0.0292156
0.0342758
0.0390449
-0.585312
0.667185
-0.0835324
-0.583651
0.181016
0.486172
0.148427
-0.0341307
-0.114296
-0.105867
-0.215799
-0.226074
0.254536
0.000249884
-0.00273463
-0.503366
0.326208
-0.0466194
0.269574
0.365823
0.258704
-0.501977
0.239383
-0.110827
0.561171
-0.0517657
0.569149
-0.186077
0.562183
-0.376077
0.0329058
-0.0379653
0.674546
-0.283106
-0.39144
0.316922
-0.447649
0.130752
0.179824
-0.18932
-0.64586
0.357585
0.288278
0.0595379
-0.0123036
-0.308712
0.233092
0.0756269
0.194773
-0.294647
0.0375056
-0.00386185
-0.123407
0.440353
-0.262086
0.091739
-0.0388378
-0.192403
0.231251
-0.166366
0.36114
0.0898223
-0.455516
0.365725
0.158293
-0.622669
0.215014
0.218574
-0.43358
-0.000992032
0.000154025
0.00083856
0.643538
-0.0110622
0.0161322
0.24796
-0.104128
0.099789
-0.0286168
0.0287754
-0.699674
0.177227
0.522449
-0.181583
-0.51809
-0.0186687
-0.347857
0.366533
0.640193
-0.156289
-0.483873
0.515481
-0.529099
0.0136628
0.406148
-0.314109
-0.0813746
-0.106361
0.0152513
-0.00742701
-0.25244
0.218191
0.0342571
-0.0390488
0.0399577
0.0375743
-0.00738664
-0.030187
-0.389967
-0.25589
0.232812
-0.422472
0.00167651
0.00456904
-0.0178466
0.0132775
0.0941943
0.228347
-0.0435577
0.000992686
0.460464
-0.245444
-0.219146
0.180318
0.50202
-0.535298
0.0332956
-0.0748202
0.079272
-0.442506
0.520977
-0.0784527
-0.102748
-0.185511
0.378571
-0.397232
-0.448487
0.340953
0.107553
0.0530731
0.0922319
0.394953
0.311883
0.320931
-0.125572
-0.0147581
0.237497
0.0781095
-0.315601
-0.0136677
-0.00858941
0.0222571
0.357056
0.0186157
-0.375662
-0.13626
-0.465291
0.0256559
0.439641
0.327426
0.187998
-0.337006
0.100804
0.236214
0.145843
0.00258565
0.290852
-0.203469
0.181496
0.460142
0.119151
0.427829
0.501614
-0.409359
0.0930301
-0.541114
0.132065
-0.144633
0.0125686
0.14414
-0.469405
0.325265
0.125239
-0.122919
-0.00231611
-0.0556135
-0.409671
0.00994183
-0.186136
-0.260411
0.12702
0.140907
-0.0642707
-0.0918319
0.452266
-0.362413
0.481356
-0.153928
0.652572
-0.494618
-0.157951
-0.128357
0.0139486
0.11441
-0.285528
0.490665
-0.205136
-0.00342226
0.183936
-0.180509
-0.019992
-0.00299682
0.0229888
0.606046
-0.130315
-0.63383
0.208226
0.425605
-0.541617
0.256088
0.012037
-0.0111708
0.301519
-0.657468
-0.224728
0.228043
-0.00330672
0.00309404
0.562871
-0.135876
-0.493553
0.548097
-0.054525
-0.408425
0.110461
0.297982
0.131894
0.0324269
-0.102944
0.087337
-0.379057
0.291729
0.0757839
-0.0564253
-0.0193587
-0.544938
-0.0520865
-0.576943
0.321625
0.000894052
0.00177068
-0.00266524
-0.0865572
0.357708
-0.451331
0.527602
0.103899
-0.0800374
0.470643
0.16958
0.210561
-0.156211
-0.382524
0.538757
0.128815
0.185373
-0.314182
-0.133721
-0.244333
0.378068
-0.424459
0.47638
0.129677
-0.00828723
0.0495513
0.380484
-0.433504
0.205161
-0.193547
-0.0116073
-0.0795625
-0.498636
0.272996
-0.395923
0.122934
-0.642718
0.198915
0.443804
0.564624
-0.564589
0.52827
-0.160671
-0.367577
-0.554529
0.135742
0.51817
-0.126876
0.366657
-0.23978
0.258329
0.113472
-0.371782
0.343722
-0.510569
0.117581
-0.480341
-0.166133
0.66817
0.00119915
0.00532542
-0.00652433
0.00163041
-0.0216224
0.143019
0.321842
-0.464833
0.416753
-0.14375
-0.285424
-0.0515705
-0.2739
-0.236365
0.00489287
-0.0020007
-0.372689
-0.20424
0.272334
0.402213
-0.0784415
-0.377046
-0.15856
0.010726
0.147838
-0.332854
-0.0668641
0.399737
-0.00412582
0.00268969
0.00143587
-0.130043
0.536412
-0.406366
-0.000290654
0.00057707
-0.249154
0.247383
0.00177376
-0.207888
-0.446408
0.227869
0.188891
0.0387893
-0.012875
-0.0259149
0.215117
0.00145323
-0.467557
0.473075
-0.00551859
-0.524477
-0.0551244
0.294103
-0.358145
0.0640425
-0.57635
0.0359991
-0.170047
0.584241
-0.414164
-0.586482
0.188981
0.397532
-0.448985
0.338015
0.110987
0.0214253
-0.0168564
-0.159435
0.152623
0.00681821
0.129503
-0.0230034
-0.106497
0.0915324
-0.0824326
-0.00909824
0.0922933
0.323844
-0.667199
-0.0712527
-0.00793917
0.0791921
0.482758
-0.338619
-0.0648213
-0.20988
8.71922e-05
0.221796
-0.51164
0.237743
-0.272421
0.366354
-0.0547806
0.042237
-0.516858
-0.00967984
0.526594
-0.00239603
-0.00173023
0.0001195
0.00734901
-0.00751475
-0.159452
-0.147375
0.37525
0.421528
-0.245224
-0.466429
-0.1674
0.281633
0.103325
0.303446
-0.439071
-0.115679
0.0192174
0.0964624
0.362136
-0.129128
-0.0890727
-0.0266055
0.0647015
-0.0037063
-0.0609942
-0.529015
0.398975
0.131386
-0.150614
0.00232233
-0.0190468
0.0167245
0.385484
-0.0918931
0.334847
0.173725
-0.508531
-0.361281
0.552239
0.340171
0.123877
-0.464023
-0.00765386
-0.15844
0.248407
0.0695853
-0.317986
-0.0214183
0.126887
0.0591352
0.0166487
-0.442533
0.602082
-0.159518
0.00291905
-0.00202549
0.00105385
-0.023826
0.0227723
0.510153
-0.411734
-0.0984147
0.190654
0.292104
0.204484
0.570437
-0.469728
-0.100709
0.409437
0.470076
0.0626943
-0.532771
-0.0775597
0.00630726
-0.224847
0.0132905
0.121819
-0.117369
-0.00444806
-0.0825127
0.1024
-0.0198874
0.206231
0.446822
-0.398631
0.459436
-0.0607988
-0.0787014
0.335028
-0.256327
-0.189178
0.155048
-0.144304
0.143372
0.000935775
0.00227463
0.0191505
-0.00316878
0.0640676
-0.0608994
0.354758
-0.108459
-0.34001
-0.0796469
0.0791008
0.000545984
0.00194347
-0.0990681
-0.00561988
0.104688
-0.113666
-0.138768
0.411482
-0.104667
-0.564705
0.316723
0.198555
-0.515239
-0.109139
0.683813
-0.47758
0.285425
0.100073
0.177148
0.479023
-0.162244
-0.400045
0.562331
0.0683065
-0.00360432
0.155463
-0.489119
0.433513
0.288755
0.395061
0.0125958
-0.0236581
0.356529
0.120495
0.639595
-0.185794
-0.453772
-0.416333
0.564453
-0.148107
-0.0849874
-0.539494
0.554577
-0.00172155
0.000730231
0.350834
0.0941095
-0.116176
-0.00162185
0.00897013
0.378309
-0.0842062
-0.0543192
-0.160082
0.214409
-0.014658
0.0169802
-0.0188914
0.0169017
0.157175
-0.39838
0.0157426
0.196101
0.0610088
0.509429
0.437322
-0.244057
0.0266926
0.217372
0.00383916
-0.0568341
0.0529957
-0.239711
0.252274
0.00492477
0.116897
-0.273974
0.029582
0.244401
0.0789702
-0.482869
0.403923
-0.324534
0.241781
0.0827618
0.127564
-0.538377
0.410823
-0.00300046
-0.464557
0.13718
-0.140143
0.00296724
-0.372031
0.489647
-0.313174
-0.0877173
0.0206894
-0.514222
0.140596
-0.224931
0.0843442
0.119679
0.00556235
0.411614
-0.31409
0.106877
0.345418
-0.125806
-0.1829
0.0650672
-0.319424
0.254374
0.153095
0.137573
-0.00550708
0.0466431
-0.107247
-0.312679
0.0817002
0.230986
0.00753156
-0.106597
0.47514
-0.396146
0.108118
-0.359758
0.251643
-0.395497
0.000786937
-0.00240939
0.141178
-0.500493
-0.635547
0.291239
0.344331
-5.78135e-05
0.0624087
-0.208748
0.435286
-0.226525
-0.00682272
-0.0217951
0.0288872
-0.0313083
0.00242145
0.0022407
-0.00215658
-8.48581e-05
0.0129205
0.0909791
0.0793796
-0.521867
-0.0734267
-0.450713
0.479207
0.344273
-0.54349
0.199257
0.120267
0.416149
0.385573
-0.547776
-0.60364
0.264113
0.339527
-0.036732
0.393797
-0.226714
0.355537
0.691291
-0.402535
-0.0684161
-0.00461338
0.0730297
0.0117762
0.00542567
-0.0738413
0.162231
-0.552943
0.390737
0.135217
-0.548972
0.413757
0.622104
-0.144671
-0.477427
0.0103643
0.118516
-0.00993984
-0.0408705
0.0508098
0.11317
-0.14962
0.0364539
-0.0658527
0.130101
-0.580813
-0.452786
-0.0824963
-0.136363
-0.458863
0.595259
-0.261784
0.434676
-0.172876
0.0638528
-0.0842108
0.0203598
0.0429326
-0.0435781
0.000645864
-0.252307
0.317392
0.235129
0.456165
-0.137013
-0.311956
-0.479743
0.217984
0.126577
-0.138611
0.0120353
0.00116799
0.00137708
-0.00254497
-0.0695527
0.0394398
-0.050923
0.0114827
-0.284497
-0.0736483
0.464901
-0.357994
0.131588
-0.00208154
0.0121917
-0.199114
-0.0172349
-0.0520978
0.119722
0.314094
-0.253224
0.14914
-0.0359648
0.374187
0.459386
-0.35147
0.102269
0.383592
0.268984
0.132332
0.049184
0.0230553
-0.026052
0.150618
-0.55413
0.403527
0.401118
-0.12075
-0.280356
0.305593
0.105894
-0.574211
0.404193
0.291245
-0.228541
0.344639
-0.028143
0.00691178
0.0212316
0.00285203
0.134333
0.10696
-0.0135636
-0.392504
0.569732
-0.447553
0.56964
-0.407383
0.00960114
-0.00840163
-0.0987795
0.0162671
-0.316758
0.243317
-0.00506983
0.0339571
0.163246
-0.591124
0.427896
-0.00850663
-0.48252
0.491064
-0.40986
0.306774
0.0715346
0.0753702
0.00342874
-0.0787988
0.350233
-0.12297
-0.227253
-0.429036
0.100792
0.32826
-0.206198
-0.436518
0.0774486
0.215113
-0.292547
0.406515
0.215595
0.000260168
0.00209993
-0.00236095
0.0914904
-0.244501
0.0272292
-0.0276153
0.000386839
0.434096
0.0910559
-0.343345
-0.000812836
0.0180867
-0.0172739
-0.00254453
0.000377516
0.00216699
-0.0701432
0.0954498
-0.395821
0.523395
0.0519332
-0.0587565
0.00682164
-0.191803
0.632417
-0.45092
-0.033147
0.177304
-0.144155
0.182692
-0.18611
-0.143137
0.328321
-0.185172
0.00010555
0.589778
-0.236369
-0.353404
-0.603842
0.386902
0.216948
-0.00870603
0.100294
-0.148326
-0.487197
-0.583464
-0.370304
0.236598
0.118335
0.356827
-0.00247272
0.00273222
-0.214459
0.0536696
0.160797
-0.111873
-0.36663
-0.122482
0.424937
-0.601936
-0.402188
-0.312287
0.571626
-0.0603199
-0.511261
0.24193
-0.400862
0.521132
-0.12755
-0.35759
0.485168
-0.622291
0.246543
0.375802
-0.0035588
0.0358031
-0.547332
-0.510936
0.0145562
0.496383
-0.11723
0.431482
-0.31425
-0.440817
0.332376
0.0192835
-0.0200963
-0.541026
0.00338261
0.537648
0.537699
-0.393759
-0.14393
0.0850401
0.0372306
-0.122268
-0.00717205
0.13375
-0.173375
0.537168
-0.363792
0.189467
0.343964
-0.533399
0.234551
-0.374846
-0.00570103
0.0451405
-0.111416
-0.0450548
0.00264649
0.0424092
0.188727
-0.0563799
-0.505237
0.349047
0.592552
-0.412097
-0.180451
0.00191515
-0.000557703
-0.258622
0.493178
0.103683
-0.336279
0.232607
-0.578863
-0.436308
-0.350963
-0.177285
0.00318042
0.174108
-0.14554
0.273004
-0.127461
-0.193226
0.375017
0.420953
0.171603
-0.499155
-0.0176556
0.402267
0.135441
0.0904907
0.0267608
-0.479074
0.343638
0.135436
0.015464
0.148462
-0.245005
-0.299243
0.39032
-0.143092
0.100894
-0.134303
0.0334122
-0.00623518
0.128362
0.221884
-0.0322276
0.0120092
0.0202185
0.00828416
0.0832499
-0.366002
-0.0747949
-0.00605531
-0.00723191
0.0132861
0.356375
-0.248253
-0.0485825
0.0508735
-0.00229155
-0.0116206
-0.0165218
-0.016722
-0.023823
0.040546
0.606681
-0.247388
-0.359291
-0.234256
0.0015596
0.232703
-0.386879
0.307591
0.0985657
-0.00155111
-0.00221534
-0.00560859
-0.542391
0.14335
0.399058
0.586487
-0.594743
0.00827202
-0.00946116
0.15182
-0.349483
0.571256
-0.221773
-0.411432
0.554453
-0.143018
-0.00160278
0.000243619
0.00135916
-0.405119
0.568381
0.343998
-0.457095
0.113125
-0.000702668
0.018612
-0.000737097
-0.0178748
0.0813378
-0.47384
0.486034
-0.141729
-0.497989
-0.00395398
-0.00138983
-0.00115477
0.0856482
-0.0217939
0.110889
-0.116507
-0.189663
-0.314284
0.503957
-0.0432305
0.0392753
-0.0806255
-0.108551
-0.0593903
0.04945
0.016358
0.163269
0.171642
0.0081886
-0.0795152
0.0699677
-0.402804
-0.0679289
0.152971
-0.0103603
0.147274
-0.136911
-0.0102154
-0.00763123
0.507721
-0.0472504
0.00352977
0.000612889
0.0021184
8.83831e-05
-0.0486715
0.0194267
-0.0183727
0.319601
0.116424
-0.436001
0.20168
-0.0262301
-0.175442
0.48169
0.157934
-0.0708907
0.281088
0.120043
0.0568947
-0.0340416
-0.022853
0.653114
-0.653045
-0.0188652
-0.0061574
0.0250223
-0.532069
0.12064
0.122673
-0.0376297
-0.435828
0.542335
-0.106479
-0.115825
-0.0665375
0.182365
-0.167979
0.191728
0.0099603
-0.0233757
0.0411869
-0.161413
0.120231
-0.163685
0.349065
-0.486658
0.622428
0.0584058
0.178427
0.400879
-0.0733335
-0.327542
-0.378696
0.11801
0.260701
-0.000421869
0.0190339
-0.374849
0.574153
0.653593
-0.381259
-0.444707
0.157689
0.287038
-0.039944
0.00906958
0.000659928
-0.00159371
0.0208773
0.41523
0.191452
0.0929424
0.414786
0.02245
0.397075
-0.419506
-0.000835301
0.0280652
0.124625
0.528553
0.156071
-0.230651
0.000533733
-0.0229835
0.0224498
0.392262
-0.568833
0.176597
0.0888736
0.192966
-0.28183
-0.101779
0.501818
-0.145288
-0.0280338
0.00586436
0.0221696
-0.270208
0.396314
-0.126085
0.218491
-0.514752
-0.00125026
0.112171
-0.110922
0.0049494
0.0231982
0.123509
0.0198668
0.328883
-0.225188
0.493473
-0.153811
-0.339651
0.266819
0.386775
-0.000517548
-0.00176372
0.00228065
-0.0194013
0.120299
-0.524935
0.0140031
0.0274661
-0.261716
-0.570732
0.399537
0.171226
0.41601
-0.330956
-0.404204
0.585222
0.0210408
-0.473812
0.117682
-0.110335
-0.00734586
0.225001
0.256357
0.455475
-0.111451
-0.101231
0.388291
-0.233476
-0.015488
0.0120873
0.00340078
0.0333812
0.00540746
-0.00122776
-0.22349
-0.019445
-0.0127824
0.0468916
-0.482691
0.203302
0.0247496
-0.0802642
0.477358
-0.409832
-0.160868
-0.157199
0.437586
-0.280363
0.338308
0.117194
0.0175266
-0.00148799
-0.0160387
-0.149659
0.471526
0.101902
0.0472425
0.435746
-0.116122
-0.235463
-0.585785
0.00280715
-0.000969766
-0.0018374
0.20982
0.371857
-0.00371329
-0.0759338
0.118881
-0.264417
0.0317695
-0.104039
0.072271
-0.244181
0.0297287
0.205003
-0.0127118
-0.192284
-0.00380548
-0.204102
-0.0208187
-0.328154
0.0755112
0.0396603
-0.100058
0.270706
-0.170646
-0.000286002
0.00158929
-0.0013034
-0.148047
0.176856
-0.0288037
0.657864
0.4294
-0.288204
0.200274
-0.15908
-0.158384
-0.0160248
-0.318981
0.508475
0.0203901
0.00144915
-0.0218392
0.417951
0.151715
-0.160655
0.00568897
0.00956278
-0.181362
0.605876
-0.42451
-0.0932665
0.0699136
-0.261492
-0.14518
-0.37297
-0.0961028
-0.49183
-0.00612985
-0.115619
0.498318
-0.382699
0.385437
-0.265698
0.0824436
-0.0911489
-0.416397
-0.15241
0.0617404
0.0239094
0.00162217
-0.0021402
0.251905
-0.0361201
-0.215781
0.0161712
-0.00925888
0.410939
-0.0220476
0.593716
0.233238
-0.593071
0.452243
-0.112048
-0.404409
0.131615
-0.112719
-0.018892
-0.100034
-0.229767
0.329813
0.346328
-0.522676
0.176366
-0.0969956
-0.332026
0.106945
-0.559864
0.0204552
0.0413507
0.00158217
0.307221
-0.0458978
0.00234037
-0.0066034
-0.0811814
0.0877864
0.438363
-0.12161
0.102345
0.277155
-0.379498
-0.0957931
-0.178174
0.145812
-0.157748
0.511752
-0.354004
0.369546
-0.496662
0.127121
-0.479054
0.342486
0.136569
-0.42445
-0.165849
-0.363878
0.591311
0.357207
0.144612
-0.00405406
9.45895e-05
0.00395949
0.410961
0.093353
-0.504293
0.0144518
0.064543
-0.210617
0.264295
-0.202473
0.279934
-0.562984
0.447366
0.430985
-0.598918
0.16795
-0.0953586
0.0328899
0.0624695
0.258861
0.0975174
-0.314959
0.562967
-0.412335
0.352743
0.127613
-0.480324
-0.281943
0.40403
-0.292394
-0.152295
-0.124661
0.650696
-0.383877
-0.133366
-0.0195893
0.152956
-0.00767124
0.0981632
-0.0904904
0.331866
-0.413165
0.0812982
0.482088
0.104413
-0.0970252
0.452214
-0.355162
0.380798
-0.155452
-0.225342
-0.201918
-0.193998
-0.29949
0.0715861
0.227913
-0.14897
-0.193586
0.0455443
-0.341308
0.241285
0.346656
0.146828
-0.000806362
0.0597672
-0.0589608
-0.14647
0.492813
-0.0257292
0.01714
-0.094438
0.0823985
0.0120411
-0.0599135
0.215983
0.127033
-0.116875
-0.0101555
0.453915
-0.462389
0.66616
-0.238092
-0.428064
0.130248
0.326615
-0.456844
0.404806
0.0685646
-0.47337
-0.133903
-0.352704
0.486608
0.503623
-0.0926424
-0.497637
0.497674
0.166805
0.396178
0.11561
-0.139762
0.563663
-0.140477
-0.423182
0.563187
-0.396367
0.379012
-0.187303
0.212419
-0.196555
-0.0158566
-0.00818161
0.0835516
-0.0797416
0.349898
-0.262552
-0.144959
-0.477274
0.132907
-0.143265
0.0964775
-0.0161479
-0.0803292
-0.0895898
0.325205
-0.0140554
0.0985647
-0.097175
-0.00138921
0.132714
-0.0250054
-0.107706
0.573201
-0.167241
-0.405955
-0.149419
0.00162395
0.477303
-0.142426
0.351049
0.28911
-0.331668
0.461935
0.0194926
-0.0195525
5.99705e-05
0.00945611
0.112836
-0.145964
-0.323443
-0.0658996
0.42622
-0.365701
-0.134989
0.500724
-0.376552
-0.144431
-0.443773
0.129578
0.314216
-0.288318
0.390665
-0.293821
0.084432
0.20939
-0.532446
0.286521
0.192731
0.019695
0.330686
-0.0931841
-0.0179576
0.017074
0.000883511
0.0101665
0.554496
0.125487
-0.093299
-0.0321876
-0.351417
-0.252223
0.0343742
-0.0126951
-0.0216789
0.197825
-0.012219
-0.185602
0.0053631
0.046008
-0.0513701
0.116992
-0.0264999
0.00190618
0.129712
0.00426246
0.133312
-0.00206144
-0.0217643
0.414778
-0.0829127
-0.00315137
0.020606
-0.582451
0.201848
-0.233439
0.0315936
0.160504
0.403163
-0.0932585
0.222749
0.0243228
-0.247066
0.219123
-0.374201
0.155099
0.0231663
-0.0024565
-0.0207098
-0.0796253
0.275171
-0.195536
0.0376623
0.403308
-0.0178524
0.129944
-0.112089
0.128066
-0.518496
0.392223
0.126311
-0.085438
0.290311
-0.20486
-0.316185
0.650303
-0.252881
-0.397418
0.411466
-0.103866
0.0938109
-0.0950614
0.0417189
-0.382088
-0.0529878
0.148366
-0.0953813
-0.226434
0.4931
-0.266627
-0.241469
0.037376
0.284212
-0.473866
-0.351123
-0.0491806
0.0501737
0.118715
0.259063
0.407101
0.365606
-0.114572
-0.251022
-0.00427855
0.00188211
0.206988
0.00813551
0.0897286
-0.0938473
0.0041196
0.0619528
0.00593814
-0.0678911
-0.526128
0.391861
0.134273
0.396005
0.177199
0.0757506
-0.0633185
-0.0124311
0.302578
0.108896
0.170791
0.00958409
0.220363
-0.0434474
0.00463216
0.0388159
-0.0368892
0.441695
0.0424708
-0.11997
-0.0199825
0.348963
-0.328977
-0.389632
-0.00368002
-0.413537
0.211625
-0.458433
0.348384
0.110077
-0.00169043
-0.00065053
0.00234091
-0.238644
0.0215726
-0.165147
0.609748
-0.444599
0.0885183
0.134239
-0.00610273
0.097687
-0.0915823
0.129769
-0.31054
0.180782
-0.00569978
-0.037747
-0.0229027
0.0846449
-0.496552
0.557411
-0.0608534
-0.178816
0.0160567
0.162761
0.0255384
-0.00248296
-0.164127
-0.0146869
-0.0669414
0.0600803
0.00686268
-0.506307
0.0437852
0.462573
0.344567
-0.441567
-0.0147654
-0.000372088
0.0151375
0.0126276
0.0838502
-0.0011737
-0.00122268
0.00239595
0.121726
-0.558526
0.436865
-0.0997475
0.43778
-0.109313
0.00355232
-0.0219249
-0.126004
0.0558623
0.275429
0.110026
0.476412
-0.106862
-0.00477833
-0.172504
0.0549532
0.00126834
-0.0562214
-0.064923
-0.00796476
0.0728892
-0.308455
0.0659548
0.390201
-0.456127
-0.00653349
0.0584661
0.207034
-0.00154396
-0.205477
0.207688
0.320604
0.085109
-0.10811
0.00985981
-0.14315
0.344453
-0.57918
0.42001
0.159196
-2.7562e-05
0.00283488
-0.0396907
-0.225421
0.563515
-0.114845
0.565868
-0.45098
-0.00515636
0.0255468
-0.521494
0.0249471
0.623176
-0.1531
-0.477788
0.251392
0.0505309
0.332365
-0.452419
0.120078
0.145815
-0.0439075
0.0936471
-0.14664
-0.0453407
-0.110211
-0.23468
0.344909
0.000154412
-0.00151288
0.00135797
0.461429
-0.236428
0.0720096
3.11944e-05
-0.0720405
0.0788136
-0.0864833
0.0198311
-0.51549
0.405124
0.110372
0.37074
0.134399
-0.505104
-0.00294977
0.101515
-0.205703
-0.35886
-0.0272042
0.412216
-0.180093
-0.298962
0.337377
-0.00634048
-0.079767
-0.161204
-0.214373
-0.389462
0.0026742
-0.0194586
-0.195743
0.197261
-0.00151394
0.00854355
0.372302
-0.218022
-0.154265
0.601336
-0.154188
-0.447146
0.567385
0.20483
-0.201292
-0.0675441
0.0643769
0.00695924
-0.00163357
0.209238
0.404491
-0.0013626
0.15399
0.169614
-0.517498
0.347883
-0.109662
-0.334291
0.443974
-0.160123
0.0242602
-0.0263214
-0.0270957
-0.185072
-0.304424
0.234878
0.112064
0.019527
-0.0761364
-0.217683
-0.0641145
-0.0603408
-0.111672
-0.403812
0.307674
-0.54351
-0.484867
-0.0169979
-0.116367
0.154545
-0.151688
0.529785
-0.394566
-9.7286e-05
-0.101794
0.101894
-0.496728
0.36111
0.135654
0.17383
-0.598218
-0.0548546
0.0138588
0.0409961
0.0232224
-0.0256788
-0.172081
-0.232382
0.404478
-0.019859
0.0291706
-0.348085
0.267384
0.0807046
0.0241412
-0.0214666
0.176982
0.333175
-0.0281857
0.426371
-0.346911
0.462505
-0.11557
-0.0892203
0.183615
-0.639366
0.455756
0.338943
-0.502321
0.163383
-0.329681
-0.0326972
0.0360872
0.0334055
0.0043544
-0.0377595
0.0311602
0.0943272
0.0441493
-0.0498484
0.0938877
-0.332452
0.238572
0.0275364
-0.00235168
-0.0251849
0.0375385
0.200853
0.00398617
0.432688
-0.310914
-0.142966
-0.359232
0.502223
-0.430277
-0.508617
0.379851
0.128798
-0.0573288
-0.0268801
0.611084
-0.4411
-0.169918
0.260661
0.0187479
-0.279397
-0.380816
0.0950162
-0.0788892
-0.0067495
0.043786
-0.00885782
0.00590208
0.00295592
0.121415
-0.454027
0.332628
-0.059059
0.0718373
-0.0127775
-0.225733
0.354106
0.252448
-0.338995
-0.207596
0.513928
-0.308295
-0.213193
-0.00101646
0.00270507
0.319106
-0.0828817
0.0195892
-0.0190554
0.0571127
-0.125043
0.365509
0.110908
0.111247
-0.000355446
0.399777
0.22401
0.267453
-0.0343549
-0.394033
0.236856
-0.00375054
0.095136
-0.0913844
-0.288823
-0.236827
0.336428
-0.200406
-0.136009
0.448047
0.338632
0.282716
-0.084879
0.0787779
-0.230845
-0.0994465
0.330305
0.233492
-0.121168
-0.112317
-0.137884
0.476832
-0.0105595
-0.147162
0.0149817
-0.0137063
-0.00127542
0.33293
-0.492691
0.159784
-0.125994
-0.0616037
-0.465023
0.0884727
0.399383
-0.0937855
-0.163071
-0.415589
0.578662
-0.00983937
0.071792
-0.000282106
0.202132
-0.186306
-0.195454
-0.0899722
0.285438
0.132008
-0.514196
0.382192
-0.146043
0.497223
-0.351153
0.623853
0.325531
0.172582
0.407084
-0.541263
0.134194
0.160694
0.0191895
-0.0359107
0.25151
-0.213835
-0.284256
0.437312
0.569878
-0.251902
0.55801
-0.0315603