/*--------------------------------*- C++ -*----------------------------------*\
| =========                 |                                                 |
| \\      /  F ield         | OpenFOAM: The Open Source CFD Toolbox           |
|  \\    /   O peration     | Version:  v2012                                 |
|   \\  /    A nd           | Website:  www.openfoam.com                      |
|    \\/     M anipulation  |                                                 |
\*---------------------------------------------------------------------------*/
FoamFile
{
    version     2.0;
    format      ascii;
    class       volVectorField;
    location    "1000";
    object      ddt0(U);
}
// * * * * * * * * * * * * * * * * * * * * * * * * * * * * * * * * * * * * * //

dimensions      [0 1 -2 0 0 0 0];


internalField   nonuniform List<vector> 
13917
(
(0.209833 0.00865446 1.87353e-17)
(-0.0231261 0.0525549 2.96682e-18)
(0.018206 -0.0561388 1.01039e-17)
(-0.00111908 -0.00246413 -7.16163e-19)
(-0.0256652 0.00399384 -4.20433e-20)
(-0.0294794 0.0463852 3.55383e-19)
(-0.000738546 -0.0115417 -4.13596e-19)
(0.0785204 0.0697947 -7.85561e-19)
(-0.00637244 -0.00726609 -6.42767e-19)
(-0.0416621 0.194607 -2.42186e-17)
(0.0698282 0.0699896 1.78839e-18)
(-0.00107839 -0.000704381 -2.91103e-19)
(-0.00206546 -7.85733e-06 -3.66038e-19)
(0.160452 -0.0491418 6.66268e-19)
(-0.0155387 0.00276057 -3.74108e-18)
(0.210242 0.00272813 -2.3257e-17)
(-0.00175633 2.03994e-05 -5.5014e-19)
(0.0540063 0.0528383 8.83566e-19)
(-0.0660047 -0.0782944 4.2721e-18)
(0.237374 0.0947135 1.31392e-17)
(0.017546 0.0111975 -6.27677e-19)
(-0.00354304 0.00116059 2.23541e-18)
(-0.00503691 -0.0351622 -3.95677e-19)
(-0.00353748 0.00100138 -1.56721e-18)
(0.00297255 -0.00227083 -1.19485e-18)
(0.0188177 0.0145631 -2.90042e-18)
(-0.0162806 0.162779 1.23645e-18)
(-0.0186099 0.148531 3.33307e-17)
(0.0294362 0.0268919 4.50385e-18)
(0.000988747 -0.00374743 7.93848e-21)
(-0.121078 0.130995 -2.01953e-17)
(-0.035831 -0.0283955 7.19596e-19)
(0.000371452 -0.00164744 7.65424e-20)
(0.173112 -0.00123988 9.74062e-19)
(-0.00213086 -0.000505905 2.72224e-19)
(0.105911 0.0727656 9.11624e-19)
(0.00337983 0.00657486 -3.87135e-18)
(-0.00358645 1.8008e-05 8.84953e-19)
(-0.000897511 -0.0118336 4.05429e-19)
(0.0246091 0.00390636 -1.88424e-18)
(-0.000744836 1.15716e-05 2.52434e-19)
(-0.00464335 0.00199948 1.91219e-19)
(-0.00317611 -0.00562153 -1.43769e-19)
(-0.0678838 -0.0470643 5.80384e-18)
(-0.0672109 -0.0504844 -7.17415e-18)
(0.0805532 -0.191969 1.49427e-18)
(0.0162209 0.0104741 -2.25588e-19)
(-0.218017 0.00121083 -3.87601e-17)
(-0.00725219 0.302472 1.29286e-18)
(-0.00205294 -0.000236733 1.01235e-19)
(-0.000871781 -0.000654552 2.10846e-18)
(0.0767112 -0.116466 1.79922e-18)
(0.181636 -0.00705877 -4.52282e-18)
(-0.00186295 0.00132641 2.07286e-18)
(-0.0014076 0.0013653 -5.93156e-19)
(0.0661113 -0.121068 -7.08388e-18)
(-0.0421279 0.0949154 1.95655e-17)
(-0.00369407 -0.0349256 -3.04254e-19)
(-0.00401784 0.0015184 -1.70023e-19)
(0.0990435 -0.179363 -3.10699e-18)
(-0.0346167 -0.298705 1.23972e-17)
(-0.0446355 0.000849796 -8.97569e-20)
(-0.000212435 -6.18303e-05 -1.57928e-21)
(0.00271194 -0.0021888 1.64848e-18)
(0.0689242 -0.028212 -3.94511e-18)
(-0.000920172 -0.0390225 -2.609e-19)
(0.0354317 0.0328348 6.06214e-18)
(0.102859 0.100898 4.25966e-18)
(0.0647636 0.0528462 -7.43987e-19)
(0.190737 -0.00667666 -9.90024e-18)
(0.0540592 -0.0409559 -4.7323e-18)
(0.178516 -0.000740945 -2.20074e-18)
(-0.00219194 -0.00132279 1.27335e-18)
(-0.00359637 0.00179533 -8.87116e-20)
(0.0185952 0.0106322 9.32262e-18)
(0.00485696 0.000113651 2.37733e-18)
(-0.00960885 0.00302088 3.40442e-19)
(-0.00318728 0.00150095 5.21744e-20)
(0.0043091 4.92336e-05 -3.48639e-19)
(0.000379663 -0.00169787 2.41252e-18)
(-0.00334203 0.00269345 -3.86378e-18)
(-0.00196426 4.21927e-05 1.01851e-18)
(-0.00145654 -0.00125118 -7.94545e-19)
(0.0789279 -0.0235962 -3.2341e-18)
(-0.00352395 -6.39095e-05 -4.40164e-19)
(0.0730177 -0.0178467 5.36581e-18)
(-0.0352274 -0.0282419 -7.08497e-19)
(-0.00343104 -2.89553e-05 -1.15817e-18)
(0.0233656 0.00431893 3.14451e-18)
(-0.0018473 1.81645e-05 1.87662e-19)
(-0.0017618 -4.62649e-05 -2.52367e-19)
(-0.00527806 -0.00577984 4.30684e-19)
(-0.00181225 0.200663 -1.37948e-17)
(-0.000933802 -0.000907536 9.23444e-20)
(-0.0012901 0.00310091 -1.85282e-18)
(0.0340567 0.0269425 -3.85632e-18)
(-0.0836075 0.0539235 -3.27042e-18)
(-0.00209447 1.22236e-05 -4.24973e-19)
(-0.00324924 -3.78852e-05 1.81e-18)
(0.00275164 0.0430455 2.20437e-18)
(-0.000749755 3.38912e-05 -1.59102e-20)
(-0.00075721 4.87571e-05 -4.25857e-20)
(-0.00331905 0.00292405 5.8439e-18)
(-0.00226569 -2.07379e-05 1.33287e-18)
(-0.00986132 0.00185137 -1.52536e-18)
(0.122562 -0.0219391 2.07861e-18)
(0.0592854 0.0637816 2.30901e-17)
(-0.0480307 -0.0156013 1.01649e-19)
(-0.00528924 0.00166373 2.69357e-19)
(-0.0200893 0.187441 1.40427e-18)
(-0.000607798 -6.66716e-05 4.79764e-18)
(0.169789 0.000495811 -9.08901e-18)
(0.0286302 0.0224529 4.66058e-18)
(-0.282599 0.0238162 7.66056e-18)
(0.0680462 -0.029713 -4.02539e-19)
(0.00659532 0.00139492 2.45416e-18)
(-0.0602497 -0.0745261 2.30202e-18)
(-0.000932034 -7.92685e-05 -4.7341e-20)
(-0.0456256 -0.0603715 5.83896e-18)
(-0.000660223 -0.00101816 1.54608e-18)
(-0.00197584 5.80444e-05 -8.92106e-20)
(-0.00255064 0.00201247 -2.98652e-19)
(0.0410243 0.0328671 -4.53519e-20)
(-0.00918728 -0.096619 -4.0402e-18)
(0.185002 -0.00901901 1.60891e-18)
(0.0841412 -0.0219541 -1.16339e-18)
(0.00199036 -0.00237657 -5.28558e-18)
(0.0194691 0.0110682 1.99113e-18)
(-0.00110092 -0.00010301 -4.32833e-19)
(-0.015597 -0.0981018 7.16351e-18)
(-0.012666 -0.0147225 1.34724e-18)
(0.148404 0.0506185 -2.14173e-18)
(0.130619 -0.00534596 -2.79934e-19)
(0.00640309 0.00189742 -9.89783e-19)
(-0.0501023 -0.0322887 -4.34944e-19)
(-0.0511222 0.193671 -1.60972e-18)
(-0.00852631 -0.340736 -4.11772e-17)
(0.173891 -0.00667716 -3.01986e-19)
(0.0204351 0.0166047 1.0243e-18)
(-0.00364136 8.18389e-06 -1.26196e-18)
(-0.116262 0.433836 4.58029e-18)
(-0.0029218 0.00168036 1.249e-19)
(0.122147 -0.0245271 -1.87939e-18)
(-0.00282036 0.000838193 2.37274e-18)
(-0.00168652 -0.00104682 -1.42814e-18)
(-0.00609223 -0.00650453 9.7921e-21)
(0.0567786 -0.0395831 -2.39392e-18)
(-0.063254 0.0178226 2.40368e-18)
(-0.176006 0.0521658 -4.71638e-18)
(-0.00161802 0.00142048 -1.93173e-18)
(0.0210611 0.00372917 -2.28464e-19)
(-0.000748948 2.87844e-05 5.91335e-20)
(-0.00166957 -0.000973313 -1.53069e-18)
(-0.000878314 -0.00104091 6.73406e-19)
(-0.104695 0.0660863 -8.36981e-18)
(-0.00437554 -0.00224368 2.07521e-19)
(-0.00221448 -1.32137e-05 -7.27298e-19)
(0.133075 -0.00514153 -1.13641e-18)
(-0.000785498 -1.40562e-05 4.20504e-20)
(-0.00080959 -6.20216e-05 -1.0554e-19)
(-0.00266581 0.000179943 -1.37127e-18)
(-0.00283163 -0.082285 -8.86597e-18)
(0.000648714 0.0129142 9.5135e-19)
(-0.0688188 0.399712 -8.27305e-18)
(-0.0470449 -0.149774 -3.00802e-17)
(-0.016263 0.0571253 -1.99762e-18)
(0.118744 -0.0055972 4.39633e-18)
(-0.162754 -0.176296 -2.5938e-17)
(0.000213034 -0.000428957 -2.65998e-20)
(0.0222349 0.01684 1.55209e-18)
(-0.00414335 0.000826187 7.6583e-19)
(0.130992 -0.00712972 -8.81449e-19)
(-0.00637588 -0.00686844 1.28607e-18)
(-0.0212396 -0.299053 2.25946e-17)
(0.0581494 -0.0428891 -1.51216e-18)
(-0.000687071 5.82834e-05 -7.50638e-20)
(-0.0014002 -0.00252812 7.04435e-19)
(0.10266 -0.123429 4.79607e-19)
(-0.0101633 -0.0139829 -8.69418e-21)
(0.00098711 0.0142427 -6.9115e-18)
(-0.00398765 -0.00579953 9.80736e-19)
(-0.00387016 0.000800318 -1.90956e-18)
(-0.000859346 -0.000528732 -4.40317e-19)
(-0.0205778 -0.193616 3.57375e-18)
(-0.0273691 -0.0671669 -3.03468e-18)
(0.139884 0.0617227 2.2261e-19)
(-0.00100262 -0.000477936 -1.28417e-18)
(-0.0194437 -0.200751 -1.45884e-17)
(0.000593716 -0.00388921 2.27168e-21)
(0.0667141 -0.00942122 8.52535e-18)
(0.0613197 -0.0385224 -1.29853e-19)
(-0.0610485 -0.0495306 1.29521e-17)
(-0.00232041 -0.165142 -1.15089e-17)
(0.215365 0.0250172 1.92004e-17)
(-0.00108393 -0.000873843 -2.946e-19)
(0.185299 -0.00820811 1.4689e-18)
(0.00777959 -0.00518991 1.45517e-18)
(0.125579 -0.00578475 -7.45155e-20)
(-0.00187161 -0.000647379 -9.53365e-20)
(-0.00407087 -0.00168287 1.30403e-18)
(0.0141715 0.00881312 -3.99113e-18)
(0.190917 -0.00538434 -1.61691e-18)
(0.171771 -0.00729264 2.79023e-18)
(0.000238537 0.00675613 -1.49198e-18)
(0.0440746 0.165527 -4.98851e-18)
(0.0115442 0.0289853 -1.37784e-18)
(0.0221086 0.00322313 -9.16669e-19)
(-0.00291772 0.0020459 -2.47406e-20)
(0.0873435 -0.127986 -1.38461e-17)
(-0.00359505 0.00263039 -1.28865e-18)
(-0.00193777 -0.000283067 -9.14796e-20)
(-0.0556318 0.00346535 -7.14941e-19)
(-0.0662044 0.00867167 9.75014e-19)
(-0.185104 0.0169045 9.62186e-18)
(-0.0459244 -0.0312426 -1.18456e-19)
(0.0202127 0.0147954 1.35425e-18)
(0.0583711 -0.0151012 3.34142e-17)
(-0.00396157 5.30411e-05 8.36494e-19)
(-0.00170815 -0.000569492 -2.57842e-20)
(-0.00168031 -0.000691952 1.97259e-19)
(-0.230383 -0.177081 1.46333e-17)
(-0.00838511 -0.182749 -1.25205e-17)
(-0.0240895 -0.214227 8.45652e-18)
(-0.00188262 -0.000130569 -2.75827e-18)
(-0.000146197 -3.7698e-05 3.10238e-21)
(-0.0739203 0.222285 -1.35875e-17)
(0.185941 -0.00758557 -4.25312e-19)
(-0.00178666 -0.00040059 -1.93531e-19)
(-0.00180126 -0.000399974 -1.21119e-20)
(-0.000753974 4.86077e-06 4.72094e-20)
(-0.00173903 -0.000813515 1.46975e-21)
(-0.00169072 -0.000937389 -3.93304e-19)
(0.182531 -0.00030217 4.37526e-18)
(-0.150207 -0.0269867 1.00786e-17)
(-0.00371193 0.00179679 -3.40727e-18)
(0.000199664 -0.000864103 2.15384e-21)
(0.0336161 -0.0720454 2.44055e-18)
(0.181175 -0.00624852 1.158e-18)
(-0.00110692 -4.33955e-05 -1.81658e-19)
(-0.00218319 -0.000125277 1.21564e-18)
(0.0247474 0.176424 4.93361e-18)
(0.128837 -0.026751 2.05246e-18)
(-0.0200669 -0.189612 1.36856e-18)
(0.0691667 -0.00607417 -1.43032e-17)
(0.0952682 -0.0522766 2.96543e-18)
(-0.00273071 0.000863378 -5.21264e-19)
(-0.104326 -0.162652 5.61466e-17)
(0.0309814 -0.0777997 -1.49562e-18)
(0.025437 0.0225266 -6.13355e-18)
(-0.0325212 -0.0582796 -2.45641e-18)
(0.000155302 0.00608584 -1.16161e-18)
(-0.161431 0.00175332 -2.60494e-17)
(-0.00102787 -0.00108477 -9.78231e-19)
(0.0303991 -0.0105574 2.82801e-18)
(0.049175 -0.0397083 -6.88097e-19)
(-0.0041295 0.00187513 6.98986e-19)
(-0.000773426 2.7387e-06 -3.11943e-19)
(0.00233275 -0.00247427 -2.62018e-19)
(-0.0150005 -0.0146485 1.59664e-18)
(-0.000170717 -0.00200727 -3.59396e-19)
(0.178277 -0.00814005 -4.52592e-19)
(0.0687976 0.490266 -8.82086e-18)
(-0.00182143 0.00290555 3.292e-19)
(-0.00186677 -0.000270564 1.3796e-19)
(-0.00497975 -0.00216811 1.36841e-18)
(-0.00188578 -0.000171438 -2.18973e-19)
(-0.000993192 -0.00110144 -1.26011e-18)
(-0.00198039 -8.004e-06 1.92333e-18)
(0.011619 -0.0243242 -1.84812e-19)
(-0.00167454 0.00324719 -4.17859e-19)
(0.168664 -0.00740366 1.56401e-18)
(0.0507048 0.047182 -3.62332e-17)
(-0.00173921 -0.000164129 -1.36325e-18)
(-0.0120123 -0.00622382 2.78174e-19)
(0.0826562 -0.203229 -7.72969e-18)
(-7.32775e-05 -0.0012776 5.41418e-20)
(0.0124463 0.0320652 1.0904e-17)
(0.173251 -0.00773463 8.77793e-19)
(-0.000175219 -0.00133986 1.06519e-19)
(0.187437 -0.00703696 -1.05157e-17)
(5.43855e-05 -0.00157073 2.13112e-19)
(-0.00870564 -0.0958003 1.63754e-17)
(-0.000694152 4.24514e-05 3.72887e-20)
(-0.0102147 0.00234956 -3.0159e-18)
(-0.00401771 0.00196146 1.50426e-19)
(-0.00264351 0.000691693 -7.56518e-19)
(-0.0535013 -0.127188 2.03286e-18)
(-0.00331474 1.39636e-05 -6.99786e-19)
(-0.0259674 0.0676361 -6.83278e-18)
(0.0142335 -0.00380718 1.467e-19)
(0.0589848 0.511584 -1.93918e-18)
(-0.00987051 -0.0083098 -7.50748e-20)
(0.0589652 0.134891 2.04403e-18)
(0.171509 -0.00769404 -1.20453e-18)
(-0.00109314 -7.4062e-05 -2.15834e-19)
(0.00694721 -0.0455616 -1.75289e-18)
(-0.020983 -0.00894278 9.70723e-19)
(0.00686827 0.00287412 -4.50471e-18)
(-0.024353 -0.000108447 -1.31373e-18)
(0.00430739 -0.000565588 1.19928e-19)
(-0.000617213 -0.00109738 -3.01875e-20)
(-0.00335575 1.53699e-05 1.36665e-18)
(0.119442 -0.104507 7.87064e-18)
(0.0300919 0.00938703 3.83406e-19)
(0.0283611 -0.010329 -1.8364e-18)
(0.00372892 -0.000583689 -1.68641e-18)
(-0.00258317 -0.000132867 -2.56855e-20)
(0.13168 -0.00542666 1.21981e-18)
(0.191081 -0.00544204 5.12698e-19)
(-0.00127347 -0.000232092 7.07531e-19)
(-0.00519265 0.0146168 -9.60581e-20)
(0.0070485 0.00229957 -3.40429e-18)
(-0.163977 -0.0887983 -1.27347e-18)
(-0.0658146 -0.0105584 -3.15598e-18)
(0.0885155 0.0456535 1.59391e-17)
(-0.0228311 -0.290722 5.66383e-18)
(0.00622203 -0.027021 1.38412e-19)
(0.132053 0.0333956 -1.77246e-19)
(-0.00988231 -0.00701944 -1.31794e-18)
(0.0719492 -0.0272448 -7.94114e-18)
(-0.16268 -0.0497893 -1.86641e-18)
(0.00962429 -0.0533367 -1.11041e-17)
(-0.00175293 -1.26211e-06 -5.64441e-19)
(-0.0137795 0.00175791 2.46197e-18)
(0.0076893 0.159306 5.48258e-19)
(-0.00448195 0.000163574 -3.03749e-18)
(-0.0227799 0.06071 4.47566e-18)
(-0.0586198 -0.0524803 -3.92158e-18)
(-0.00165769 -1.07618e-05 -4.67292e-20)
(0.129919 -0.00704785 7.50681e-19)
(-0.00386272 -3.91949e-05 -1.97215e-18)
(-0.0198433 -0.0109886 -1.86558e-18)
(0.00214224 0.000820396 -2.13631e-20)
(0.282025 0.102914 2.35924e-17)
(-0.00294383 3.78475e-05 -1.73852e-18)
(0.025511 -0.011505 -5.7178e-19)
(0.0140453 0.0285453 -1.63336e-18)
(0.0118838 -0.0190618 -1.36939e-19)
(-0.00170655 -1.96584e-05 2.74099e-20)
(-0.0364963 -0.0526471 -1.37067e-18)
(0.110591 -0.0206306 1.32535e-18)
(-0.00100524 0.00264026 6.08401e-19)
(-0.00448462 -0.000237494 -2.20596e-18)
(0.161858 -0.000286541 2.93283e-18)
(0.118919 -0.0225803 8.80973e-20)
(-0.0325122 -0.212501 -1.7111e-17)
(0.165002 -0.0491352 -6.78794e-19)
(-0.000406868 -0.00120789 -2.56893e-20)
(-0.00332719 0.00182353 1.79863e-19)
(0.133841 -0.0293754 -3.97276e-19)
(0.138067 0.022321 5.98215e-19)
(-0.000530413 -0.00127369 9.66696e-20)
(-0.0252499 -0.00639014 -6.98591e-19)
(-0.00120902 0.000428811 -3.63524e-18)
(0.0231705 0.00969198 -1.29354e-17)
(0.0264756 -0.011993 -7.36767e-19)
(0.00919517 -0.128573 1.14827e-17)
(0.0935982 -0.00525528 4.7328e-19)
(0.00988642 0.0274835 -3.45483e-18)
(-0.0191357 -0.0144678 -5.85742e-19)
(0.182841 0.017199 -1.20687e-17)
(-0.00110692 -8.26391e-05 2.06514e-20)
(-0.000737627 0.00253302 1.36453e-18)
(-0.0296583 0.00604008 -1.88456e-18)
(-0.023324 -0.105657 3.7847e-18)
(-0.00124187 -3.43087e-05 -1.03856e-20)
(0.22098 0.0119248 -2.09644e-17)
(-0.0203695 -0.013735 4.15727e-19)
(-0.00729048 -0.0113032 7.0949e-19)
(-0.00188194 0.00154238 -4.08806e-18)
(0.120356 0.00638626 1.00745e-18)
(-0.0011358 0.0148487 1.08169e-19)
(0.0200738 0.0454603 -3.80104e-18)
(-0.00282623 -0.000211289 4.03693e-20)
(-0.0248879 -0.206174 -2.28614e-18)
(0.0689282 -0.212067 -1.16962e-17)
(0.0172166 0.0302983 -6.27458e-19)
(-0.0016471 -0.000107475 -5.91112e-19)
(0.0113139 -0.0809773 2.46277e-17)
(0.00282008 0.00205862 -3.35296e-20)
(-0.0530016 -0.1665 9.33553e-18)
(-0.00976537 -0.173035 -2.92695e-18)
(-0.00225228 -0.000400236 3.67112e-21)
(-0.00474996 0.12321 9.56902e-18)
(-0.00446881 0.00214897 1.1389e-18)
(-0.0326143 0.0168751 -5.51716e-19)
(-0.00107896 9.76443e-05 -7.22454e-19)
(0.211803 0.0917075 -3.51568e-17)
(-0.0410673 0.019996 6.90558e-19)
(0.00359166 0.0042436 2.29908e-18)
(-0.0534133 0.253331 1.82225e-17)
(0.0150242 0.0193073 7.48138e-18)
(-0.000339181 0.00522673 -3.61528e-18)
(-0.0323968 -0.163616 -3.78603e-18)
(-0.0595544 0.0199611 3.38532e-18)
(0.00289277 0.00289305 -1.85901e-19)
(-0.0451378 -0.134049 1.16211e-17)
(-0.00294639 0.00168431 -9.28287e-19)
(0.0115422 0.0158141 -2.03535e-18)
(0.00669628 -0.0608317 2.72274e-18)
(-0.00338219 -3.46026e-05 1.57278e-18)
(-0.00442554 -0.0101548 9.05398e-19)
(0.0035627 -0.00104839 1.10374e-18)
(-0.00267149 0.000741816 -2.19589e-18)
(-0.0031797 0.000334401 -1.21309e-18)
(-0.000961531 -0.000115974 -8.72392e-19)
(-0.0115889 -0.353621 -2.11698e-17)
(-0.00225568 0.0634388 6.05155e-18)
(-0.000821362 0.00199762 9.08831e-19)
(-0.000528031 -9.49025e-05 -8.70096e-19)
(-0.0035957 0.000953479 2.74707e-18)
(0.0197227 -0.0407512 1.83914e-21)
(0.0293541 0.279094 4.44108e-18)
(0.00108181 -0.000692997 3.68603e-20)
(0.000100673 -0.00039102 7.28859e-21)
(-0.0660106 -0.0134374 3.01133e-18)
(0.113376 0.0133841 -1.1094e-18)
(-0.00286091 0.000734335 -1.76183e-18)
(0.00300162 0.00389837 -8.41175e-18)
(-0.0164298 -0.284471 -1.84825e-17)
(-0.20777 -0.0613825 -3.55362e-18)
(-0.00334693 -0.0404053 -1.85248e-19)
(-0.0722321 -0.0762749 -6.74986e-18)
(0.0667971 -0.0305482 1.31756e-18)
(-0.00257413 -0.00166151 -4.99684e-19)
(0.000643074 -0.000906508 4.08367e-20)
(0.01379 0.0127486 -2.483e-18)
(-0.00327267 0.000305298 1.6267e-18)
(0.00100752 -0.000932659 -2.06529e-19)
(-0.00399981 0.0018899 -1.30638e-18)
(0.000555235 -0.00110315 6.97358e-20)
(-0.0024116 -0.00173647 2.12919e-19)
(-0.133226 -0.140688 5.27254e-17)
(-0.00286987 0.00180568 3.23737e-18)
(0.027436 0.00271612 4.89249e-18)
(0.166122 -0.00701283 7.67581e-18)
(0.00956306 -0.0435214 8.48095e-19)
(-0.00195133 -0.000249174 -3.01365e-19)
(-0.00178876 -0.000902569 4.54868e-19)
(-0.0304427 -0.149571 3.43388e-17)
(0.0141381 0.0100592 2.42744e-18)
(0.184724 -0.00956498 -1.19824e-18)
(0.0018277 0.000158944 1.87318e-20)
(-0.0022493 -0.000426159 -2.66545e-18)
(0.00329542 0.00183461 3.85637e-20)
(-0.00171843 -0.00109793 -4.74358e-20)
(0.00264505 0.00638676 7.02975e-18)
(-0.00479345 0.00221686 -1.50608e-19)
(-0.00971452 -0.293019 3.32841e-17)
(0.0108769 -0.00159796 2.96418e-19)
(0.127033 -0.0238638 -2.83642e-18)
(-0.00228983 -0.000430639 2.79317e-18)
(-0.00927198 -0.0206407 -3.37432e-20)
(0.0119125 -0.00797652 -8.5248e-19)
(-0.00352072 0.00241928 4.03816e-18)
(0.0886065 -0.0593608 -4.35965e-18)
(-0.0316315 -0.225875 -2.31212e-17)
(-0.00134858 0.000304012 -2.01162e-18)
(-0.260681 0.0643898 3.78906e-18)
(-0.00203319 -0.000141243 -1.98685e-19)
(-0.00366555 9.39731e-05 -4.79639e-19)
(-0.0032487 0.00084936 -2.86915e-18)
(-0.00435392 0.00219973 3.12494e-18)
(-0.00206462 -0.000333341 2.8417e-19)
(-0.00366789 1.11171e-05 -9.7057e-19)
(0.133598 -0.00521904 2.75947e-19)
(-0.0319064 -0.291703 5.82318e-17)
(-0.00208836 -0.000346503 -8.09766e-19)
(0.0750772 0.141118 -1.42712e-17)
(-0.0700714 -0.0189554 -8.82416e-19)
(-0.00194197 -2.22499e-05 -1.09936e-18)
(0.01189 -0.0511611 -1.40922e-18)
(-0.0331628 -0.00654609 -1.59383e-18)
(-0.0325481 -0.12611 1.79928e-17)
(-0.00486706 -0.0110084 6.98368e-19)
(0.118455 -0.0202001 -2.48309e-19)
(-0.060308 0.0170102 3.53391e-20)
(-0.0617027 0.0206745 1.73517e-19)
(-0.00460495 0.00226692 -5.04337e-19)
(0.0042165 -0.0329956 1.53432e-19)
(0.0133483 -0.0126834 -2.94318e-19)
(-0.00029038 0.00579347 1.23343e-18)
(-0.0318662 -0.197952 -4.13786e-18)
(-0.00177235 -2.3966e-05 1.7211e-19)
(-0.00182611 0.00113887 1.13672e-18)
(-0.00103025 0.00300266 2.51834e-18)
(-0.00554236 -0.00888308 -3.84603e-18)
(0.0178734 0.00783123 1.77036e-18)
(-0.0691594 -0.0704711 -1.07148e-17)
(-0.0176919 -0.0384939 8.03431e-19)
(-0.0126787 0.00392228 4.01452e-19)
(-0.0144549 -0.00772849 -7.14194e-20)
(0.0511539 0.0410611 5.60818e-18)
(0.0382336 0.00716673 1.54745e-18)
(-0.00111062 0.00198794 -1.72413e-18)
(0.165588 -0.045653 -1.67053e-18)
(0.00384231 -0.0252521 -5.4308e-19)
(0.0137379 -0.00457895 1.45514e-18)
(-0.0481357 -0.201061 -1.70465e-17)
(-0.00384956 -5.21866e-05 4.55236e-19)
(0.0397731 0.00892543 -3.69204e-18)
(0.106273 -0.14008 -4.94915e-18)
(-0.00326155 0.000183136 -2.1143e-19)
(0.144089 -0.00531219 -8.2446e-20)
(-0.00365918 9.48636e-05 -1.2024e-18)
(-0.00164935 -0.00121048 -2.98874e-20)
(0.0193279 -0.0440821 -3.70199e-19)
(0.00180572 -0.000240246 -1.99286e-20)
(-0.00393586 6.19727e-05 -1.30665e-18)
(0.119543 -0.0915619 -1.0684e-18)
(0.137455 -0.00831916 1.60029e-19)
(-0.162479 0.307435 8.73622e-18)
(-0.00284128 0.000151843 2.85752e-18)
(-0.00267652 -0.00337341 1.09499e-20)
(-0.00681908 0.0103353 1.25074e-19)
(-0.0304515 -0.226247 -1.80502e-17)
(0.111097 -0.184346 -9.35541e-18)
(-0.00149641 0.00177025 -6.84783e-19)
(-0.00144891 0.00130362 -5.88916e-19)
(-0.00292896 0.00013115 2.79477e-18)
(0.0404316 -0.0390719 6.3877e-19)
(0.109113 0.133159 8.01149e-20)
(-0.000991713 -7.32559e-05 1.75859e-18)
(-0.00113887 -4.89262e-05 -1.68003e-19)
(-0.00356305 -0.00171558 3.94309e-19)
(-0.00282708 0.000733055 -7.05953e-19)
(0.0111293 0.00792798 -9.76961e-20)
(0.00886034 -0.0110696 2.35982e-19)
(-0.00168583 -4.32592e-05 4.0794e-19)
(-0.0163332 -0.0406515 -1.96345e-18)
(-0.00332236 0.000160758 1.07072e-18)
(-0.00356507 0.00118937 -3.17492e-18)
(0.0033951 -0.00113371 -1.04859e-18)
(0.127117 0.0459588 3.75666e-18)
(-0.00199068 0.000294564 -4.44436e-19)
(-0.00240581 -0.0061671 5.43224e-19)
(-0.000637673 -0.00206066 3.53566e-19)
(-0.00859694 -0.0195349 -9.53881e-19)
(0.00733185 -0.0652934 4.20366e-18)
(0.0288941 0.00905409 -9.13502e-18)
(0.0527743 -0.0423171 1.70304e-18)
(0.00478682 0.0540935 6.4652e-19)
(0.00301666 -0.000222457 -3.51707e-18)
(0.0429597 0.0413609 2.22403e-18)
(0.123124 -0.00630595 -4.58783e-19)
(-0.120455 -0.118632 8.92735e-18)
(0.163068 -0.00668482 9.23214e-18)
(-0.00147729 -0.000382226 1.26588e-18)
(-0.00312628 0.000594669 3.63982e-19)
(-0.0173691 0.00389823 -4.77475e-19)
(-0.00198692 -0.000543421 3.37641e-19)
(0.0781863 -0.0247298 -5.11928e-19)
(1.64483e-05 -0.00139786 2.15946e-19)
(0.0667104 -0.168868 -5.74737e-18)
(0.00724495 -0.00566367 -5.67957e-19)
(0.110673 -0.00980389 2.65522e-19)
(0.00994805 0.0381542 -1.42349e-18)
(-0.00300713 -0.00589549 -1.35286e-18)
(-0.0587477 0.24497 4.66535e-18)
(-0.00208295 -0.000377534 -3.13071e-19)
(-0.032085 -0.0115758 -1.00383e-19)
(-0.00206614 2.42648e-05 8.12199e-19)
(0.00623945 -0.000327086 -4.42212e-20)
(0.116004 -0.00892404 4.19643e-18)
(0.00145227 -0.000346105 1.11312e-19)
(-0.0655672 -0.0126225 -3.37918e-18)
(-0.00045726 -1.7994e-05 -5.29634e-21)
(-0.00206751 -1.6904e-05 1.51976e-19)
(-0.00327989 0.000682487 -4.60079e-19)
(-0.0888185 -0.0627734 1.31079e-17)
(0.0109524 0.00961039 7.74043e-19)
(-0.00188092 2.63109e-05 -1.7333e-20)
(-0.0686988 -0.0395623 7.69291e-19)
(0.0143058 -0.047612 2.26157e-18)
(-0.0423271 0.133156 -1.75949e-18)
(0.0522122 -0.0414651 -1.42144e-17)
(0.12929 -0.00637606 1.99564e-19)
(-0.036664 -0.131384 -2.49396e-17)
(-0.00199254 0.000276542 6.5478e-19)
(0.186008 -0.00868673 -1.0334e-18)
(-0.000610945 -5.81048e-05 3.0169e-20)
(-0.0158295 -0.324366 3.70789e-17)
(-0.0386841 0.0227956 -8.16662e-19)
(0.00838943 -0.000303458 3.10296e-19)
(0.0059139 0.0151463 1.04164e-19)
(-0.000769362 3.5585e-05 -1.05115e-19)
(0.00476991 -0.0242844 7.38515e-19)
(-0.00511494 -0.0054582 -6.70779e-19)
(0.00139236 -0.000663155 -1.80003e-21)
(-0.00217395 1.26399e-05 7.22441e-19)
(-0.00281715 1.48612e-05 9.15624e-19)
(0.0448027 -0.0451104 6.13399e-18)
(-0.00258773 9.39159e-05 3.44068e-18)
(-0.03163 -0.0253533 1.63599e-20)
(-0.00187893 0.00107458 1.3418e-18)
(-0.00187426 -2.63643e-05 1.96728e-19)
(-0.000782085 -2.25256e-05 -3.87034e-19)
(0.0971081 -0.172504 6.89969e-18)
(-0.0167263 -0.128872 -6.85627e-18)
(-0.0675873 0.23842 -6.04301e-18)
(-0.0286111 -0.055775 9.3286e-20)
(0.00786742 -0.011362 -1.58815e-18)
(-0.0186564 -0.133146 -3.62234e-17)
(0.178686 -0.00664456 -3.67658e-18)
(-0.000992267 0.000114197 1.50599e-18)
(-0.0321032 -0.208199 -7.48484e-18)
(-0.00281482 1.85408e-05 -1.45948e-18)
(-0.0444574 -0.00201391 -8.29045e-18)
(-0.00187366 -0.000494715 4.64541e-19)
(0.0127868 -0.0778452 -6.10187e-18)
(-0.00276896 0.000694221 7.46528e-19)
(0.0128358 0.00655405 -6.6447e-19)
(-0.00116029 -0.00112496 -1.06242e-19)
(-0.0462919 0.137317 4.99356e-18)
(0.00895376 -0.0254682 4.6334e-19)
(0.06512 -0.0270792 -1.62139e-17)
(-0.00192133 4.25917e-05 8.16648e-20)
(0.0102877 -0.0227312 -1.20391e-18)
(-0.00122555 0.000258247 2.16236e-19)
(-0.00068166 2.46913e-05 9.78129e-20)
(0.176532 0.0225189 9.34893e-18)
(-0.0276408 0.0329476 1.88607e-18)
(-0.00172476 0.000646327 6.60992e-19)
(0.00497096 -0.140017 -7.94981e-18)
(-0.00216656 -0.000145261 -2.84148e-18)
(0.00418236 0.0030314 -2.60319e-21)
(-0.000683223 1.74425e-05 1.17457e-20)
(0.166107 0.0196289 -4.85484e-18)
(-0.00262485 5.67765e-05 -3.51819e-18)
(-0.0194214 -0.0141627 -2.32063e-18)
(0.000110712 -0.00129634 1.29097e-19)
(-0.00155125 0.000400309 -5.67958e-20)
(-0.0262211 -0.111337 2.65527e-17)
(-0.000724804 3.40317e-05 -7.9485e-20)
(-0.0159297 -0.122307 -1.26294e-18)
(-0.0019959 4.41405e-05 -6.78356e-19)
(-0.00290768 0.000116062 2.97089e-21)
(-0.0258176 -0.317275 -8.90318e-18)
(-0.0341812 -0.0254907 4.80479e-22)
(-0.00169129 0.00163732 8.12586e-19)
(0.150955 -0.0073072 -3.58216e-18)
(-0.0835037 -0.00464769 2.64692e-19)
(-0.0878653 0.259522 2.52252e-18)
(0.120013 -0.13427 1.67169e-17)
(-0.00205043 -0.000375594 8.84286e-19)
(-0.0186028 0.00165945 -2.81737e-18)
(0.13802 0.0567414 -3.2384e-18)
(-0.0721656 0.0155399 5.57479e-19)
(0.0126961 0.011823 3.73607e-18)
(0.00389994 0.00604452 2.73556e-18)
(0.0144473 0.00676036 5.84308e-19)
(-0.00202835 5.73967e-05 8.0581e-21)
(-0.0014207 -0.00014321 1.83185e-18)
(0.00140285 -0.0282978 -8.60039e-19)
(0.0120051 -0.0722192 -1.83124e-18)
(0.00740898 -0.00248758 2.38647e-18)
(-0.0628448 -0.206086 -1.01941e-17)
(0.00739813 -0.0267618 -2.73149e-19)
(-0.0139558 0.371436 -2.07569e-19)
(0.0684252 -0.239084 4.7407e-18)
(0.0315366 0.00720414 -3.58746e-20)
(0.0215004 -0.0150585 1.08247e-18)
(-0.0105734 -0.15669 4.32646e-18)
(0.18661 -0.00662004 -5.52077e-19)
(-0.000822956 -0.00111283 -8.328e-19)
(0.0261601 -0.00573576 -1.17199e-18)
(-0.00159355 -0.0229463 8.18399e-20)
(-0.00295711 0.000149979 3.92577e-19)
(-0.00201016 8.63462e-05 -6.11671e-20)
(-0.000735136 -7.65433e-06 3.9221e-19)
(-0.00972003 0.0123952 7.63188e-21)
(-0.00385198 3.12308e-05 1.55257e-18)
(0.188032 -0.00868515 -7.70673e-19)
(-0.0152779 -0.0118583 2.30739e-18)
(-0.00260759 -4.96871e-05 5.72875e-19)
(-0.0543649 -0.0510072 -9.63131e-19)
(-0.00186294 5.55478e-05 5.95338e-20)
(0.078903 0.0332011 -7.14741e-18)
(0.000446796 -0.00132074 -3.90213e-19)
(-0.00108068 -0.000117495 1.06604e-18)
(0.138179 -0.00702784 2.83286e-19)
(0.00336043 -0.0589763 9.60712e-19)
(0.0621812 0.055536 -2.09679e-18)
(-0.00192249 -0.0014546 1.09704e-18)
(0.00115543 0.00662962 -1.11228e-20)
(-0.0012686 -0.000228562 -3.24186e-18)
(-0.00162602 -0.00249624 4.02447e-19)
(8.40222e-05 -0.0143985 1.78134e-18)
(-0.00258186 0.000464154 3.24539e-18)
(0.179584 -0.00672286 9.21785e-19)
(0.0167124 -0.00426357 3.51715e-18)
(0.0486698 -0.0437114 4.32627e-19)
(0.0681469 0.0619303 4.7143e-19)
(0.0259407 -0.00269238 1.41314e-18)
(0.12973 -0.00743345 2.55224e-18)
(-0.00236772 -0.00339088 -9.22829e-19)
(-0.00208346 -1.35542e-05 -4.91992e-19)
(-0.00132345 0.000461544 1.39252e-18)
(0.171322 -0.00760988 -3.69743e-18)
(-0.0885631 0.291657 -9.4698e-18)
(0.00853504 -0.00526977 3.13397e-19)
(0.184789 -0.00944943 8.05321e-19)
(0.0699309 -0.339269 8.87033e-18)
(-0.00293777 6.50437e-05 1.61561e-18)
(-0.00123314 -0.000183205 -1.06957e-18)
(0.00205711 0.00693494 -3.49837e-18)
(0.115793 -0.0195238 -1.44397e-18)
(0.0674892 0.064363 -5.22666e-19)
(0.0109849 -0.0256941 -5.17567e-20)
(-0.0018466 -0.00236414 -1.38037e-19)
(-0.00209715 -0.00627655 -9.06274e-20)
(-0.0452206 -0.000106717 9.04251e-18)
(-0.00871461 -0.00552406 5.84579e-19)
(-0.000170433 -0.123952 8.21624e-18)
(-0.0156845 -0.0126858 -9.14847e-19)
(-0.00145868 0.00287128 2.94604e-18)
(0.000638878 -0.00161091 -2.40355e-18)
(-0.00211422 -1.63156e-05 2.72552e-19)
(0.000243408 -0.0139406 -1.40159e-18)
(-0.0129991 -0.0111748 1.33891e-18)
(-0.0607063 0.0217568 7.99636e-18)
(0.00737275 0.00404697 -8.77425e-20)
(0.00691344 0.0138811 -9.35085e-20)
(0.181495 -0.00740336 -9.93893e-19)
(0.00200108 -0.0107027 -4.05169e-20)
(0.0586189 -0.293562 5.12256e-18)
(0.0035175 0.00528173 -3.81684e-19)
(-0.0147181 0.0320205 1.15769e-18)
(0.00534141 -0.00730613 1.52778e-18)
(-0.0733788 0.013999 -8.5511e-20)
(-0.00201678 5.44657e-05 -1.50281e-19)
(-0.0311479 -0.0109963 9.3286e-19)
(-0.0146574 -0.129047 2.47458e-19)
(-0.0501292 -0.000895404 4.32516e-20)
(-0.00183051 -0.000614018 6.96749e-19)
(0.00759627 0.0033785 5.96571e-20)
(-0.00389023 1.86059e-05 8.32446e-19)
(-0.00229681 -0.000417091 -2.23549e-18)
(-0.00147115 -0.00106839 5.85201e-19)
(0.014116 0.00861721 -1.91313e-19)
(0.0139785 -0.0041199 4.78364e-19)
(0.13365 -0.148688 -2.51828e-17)
(-0.00915547 -0.128294 -1.41745e-17)
(-0.00197692 -0.000371878 1.31771e-19)
(-0.0614734 0.022353 3.16875e-19)
(-0.00659483 -0.00735969 -1.19402e-18)
(-0.00505523 -0.00919471 1.96547e-18)
(-0.00756595 -0.145683 -1.20638e-18)
(-0.00348556 0.00194992 3.33513e-19)
(-0.0319947 -0.0127615 -1.81317e-18)
(-0.0585327 0.0725731 3.4108e-18)
(-0.00200051 0.000226944 2.56758e-19)
(0.000122303 -0.0578258 3.62718e-18)
(0.0794772 -0.0359207 1.10536e-18)
(-0.0150542 -0.0131038 -4.14961e-19)
(-0.00197252 7.39811e-05 -6.40035e-19)
(-0.00212716 -0.000250095 1.16021e-18)
(-0.0013928 -0.000123488 -1.58533e-18)
(0.190051 -0.00561378 1.25393e-17)
(0.000287967 -0.00147672 -2.78054e-18)
(0.00143268 -0.00118537 -4.02679e-20)
(-0.0193666 -0.011946 1.17089e-18)
(-0.00257099 0.00050331 -2.2471e-18)
(-0.00169642 -0.000236618 -1.68287e-18)
(0.0581312 -0.11453 7.57368e-18)
(-0.0442304 0.0570097 1.34263e-17)
(0.0227539 0.0356778 -2.55838e-19)
(-0.232233 -0.0118683 4.62544e-18)
(0.0233384 0.0100219 2.60841e-19)
(0.137122 -0.0309712 3.44666e-19)
(-0.00153337 -0.00109287 5.02619e-19)
(-0.0107759 0.00384332 5.01096e-18)
(-0.00747921 -0.107451 -1.95226e-17)
(0.00879786 0.00201353 1.63125e-19)
(-0.0717908 -0.00673883 2.31702e-19)
(-0.00171456 -7.64426e-06 1.07147e-19)
(-0.00190167 9.48657e-05 -7.78125e-19)
(-0.00164573 -0.00134656 -1.73843e-19)
(0.0076733 0.00539413 -2.70811e-18)
(0.0279404 0.00699657 6.53278e-18)
(-0.00194396 4.6234e-05 9.50968e-19)
(-0.00223831 0.0047232 2.13858e-19)
(-0.00188758 -0.002199 1.90122e-18)
(-0.0322359 0.0442721 1.55197e-18)
(0.00385333 0.00489951 2.5337e-19)
(-0.00556545 -0.0105596 -3.95276e-20)
(0.00216174 0.000337619 -4.71048e-20)
(-0.0314366 -0.0614666 1.53277e-18)
(-0.0117564 0.00303571 2.04598e-18)
(-0.0249689 -0.140576 2.99577e-20)
(0.0331591 0.0342864 1.58845e-20)
(-0.00169477 2.75565e-06 1.25653e-19)
(0.106027 0.0495967 -1.25151e-19)
(0.00119678 -0.00142918 -4.37374e-18)
(0.180794 -0.00797694 8.66002e-19)
(-0.0038666 -0.00498645 2.43711e-18)
(0.0793853 0.0637442 -1.09323e-19)