/*--------------------------------*- C++ -*----------------------------------*\
| =========                 |                                                 |
| \\      /  F ield         | OpenFOAM: The Open Source CFD Toolbox           |
|  \\    /   O peration     | Version:  v2012                                 |
|   \\  /    A nd           | Website:  www.openfoam.com                      |
|    \\/     M anipulation  |                                                 |
\*---------------------------------------------------------------------------*/
FoamFile
{
    version     2.0;
    format      ascii;
    class       pointVectorField;
    location    "1000";
    object      pointDisplacement;
}
// * * * * * * * * * * * * * * * * * * * * * * * * * * * * * * * * * * * * * //

dimensions      [0 1 0 0 0 0 0];


internalField   nonuniform List<vector> 
14386
(
(0 0 0)
(-2.40637e-05 -0.000192472 0)
(0 0 0)
(-2.40637e-05 -0.000192472 0)
(0 0 0)
(0 0 0)
(0 0 0)
(0 0 0)
(0 0 0)
(0 0 0)
(0 0 0)
(0 0 0)
(0 0 0)
(0 0 0)
(0 0 0)
(0 0 0)
(0 0 0)
(0 0 0)
(0 0 0)
(0 0 0)
(0 0 0)
(0 0 0)
(0 0 0)
(0 0 0)
(0 0 0)
(0 0 0)
(0 0 0)
(0 0 0)
(0 0 0)
(0 0 0)
(0 0 0)
(0 0 0)
(0 0 0)
(0 0 0)
(0 0 0)
(0 0 0)
(0 0 0)
(0 0 0)
(0 0 0)
(0 0 0)
(0 0 0)
(0 0 0)
(0 0 0)
(0 0 0)
(0 0 0)
(0 0 0)
(0 0 0)
(0 0 0)
(0 0 0)
(0 0 0)
(0 0 0)
(0 0 0)
(0 0 0)
(0 0 0)
(0 0 0)
(0 0 0)
(0 0 0)
(0 0 0)
(0 0 0)
(0 0 0)
(0 0 0)
(0 0 0)
(0 0 0)
(0 0 0)
(0 0 0)
(0 0 0)
(0 0 0)
(0 0 0)
(0 0 0)
(0 0 0)
(0 0 0)
(0 0 0)
(0 0 0)
(0 0 0)
(0 0 0)
(0 0 0)
(0 0 0)
(0 0 0)
(0 0 0)
(0 0 0)
(0 0 0)
(0 0 0)
(0 0 0)
(0 0 0)
(0 0 0)
(0 0 0)
(0 0 0)
(0 0 0)
(0 0 0)
(0 0 0)
(0 0 0)
(0 0 0)
(0 0 0)
(0 0 0)
(0 0 0)
(0 0 0)
(0 0 0)
(0 0 0)
(0 0 0)
(0 0 0)
(0 0 0)
(0 0 0)
(0 0 0)
(0 0 0)
(0 0 0)
(0 0 0)
(0 0 0)
(0 0 0)
(0 0 0)
(0 0 0)
(0 0 0)
(0 0 0)
(0 0 0)
(0 0 0)
(0 0 0)
(0 0 0)
(0 0 0)
(0 0 0)
(0 0 0)
(0 0 0)
(0 0 0)
(0 0 0)
(0 0 0)
(0 0 0)
(0 0 0)
(0 0 0)
(0 0 0)
(0 0 0)
(0 0 0)
(0 0 0)
(0 0 0)
(0 0 0)
(0 0 0)
(-2.40621e-05 -0.000127512 0)
(-2.40622e-05 -0.000129918 0)
(-2.40622e-05 -0.000132324 0)
(-2.40623e-05 -0.00013473 0)
(-2.40623e-05 -0.000137136 0)
(-2.40624e-05 -0.000139542 0)
(-2.40624e-05 -0.000141948 0)
(-2.40625e-05 -0.000144354 0)
(-2.40626e-05 -0.00014676 0)
(-2.40626e-05 -0.000149165 0)
(-2.40627e-05 -0.000151571 0)
(-2.40627e-05 -0.000153977 0)
(-2.40628e-05 -0.000156383 0)
(-2.40629e-05 -0.000158789 0)
(-2.40629e-05 -0.000161195 0)
(-2.4063e-05 -0.000163601 0)
(-2.4063e-05 -0.000166007 0)
(-2.40631e-05 -0.000168413 0)
(-2.40631e-05 -0.000170819 0)
(-2.40632e-05 -0.000173224 0)
(-2.40633e-05 -0.00017563 0)
(-2.40633e-05 -0.000178036 0)
(-2.40634e-05 -0.000180442 0)
(-2.40634e-05 -0.000182848 0)
(-2.40635e-05 -0.000185254 0)
(-2.40635e-05 -0.00018766 0)
(-2.40636e-05 -0.000190066 0)
(-2.16578e-05 -0.000192472 0)
(-1.92519e-05 -0.000192472 0)
(0 0 0)
(0 0 0)
(0 0 0)
(0 0 0)
(0 0 0)
(0 0 0)
(0 0 0)
(0 0 0)
(0 0 0)
(0 0 0)
(0 0 0)
(0 0 0)
(0 0 0)
(0 0 0)
(0 0 0)
(0 0 0)
(0 0 0)
(0 0 0)
(0 0 0)
(0 0 0)
(0 0 0)
(0 0 0)
(0 0 0)
(0 0 0)
(0 0 0)
(0 0 0)
(0 0 0)
(0 0 0)
(0 0 0)
(0 0 0)
(0 0 0)
(0 0 0)
(0 0 0)
(0 0 0)
(0 0 0)
(0 0 0)
(0 0 0)
(0 0 0)
(0 0 0)
(0 0 0)
(0 0 0)
(0 0 0)
(0 0 0)
(0 0 0)
(0 0 0)
(0 0 0)
(0 0 0)
(0 0 0)
(0 0 0)
(0 0 0)
(0 0 0)
(0 0 0)
(0 0 0)
(0 0 0)
(0 0 0)
(0 0 0)
(0 0 0)
(0 0 0)
(0 0 0)
(0 0 0)
(0 0 0)
(0 0 0)
(0 0 0)
(0 0 0)
(0 0 0)
(0 0 0)
(0 0 0)
(0 0 0)
(0 0 0)
(0 0 0)
(0 0 0)
(0 0 0)
(0 0 0)
(0 0 0)
(0 0 0)
(0 0 0)
(0 0 0)
(0 0 0)
(0 0 0)
(0 0 0)
(0 0 0)
(0 0 0)
(0 0 0)
(0 0 0)
(0 0 0)
(0 0 0)
(0 0 0)
(0 0 0)
(0 0 0)
(0 0 0)
(0 0 0)
(0 0 0)
(0 0 0)
(0 0 0)
(0 0 0)
(0 0 0)
(0 0 0)
(0 0 0)
(0 0 0)
(0 0 0)
(0 0 0)
(0 0 0)
(0 0 0)
(0 0 0)
(0 0 0)
(0 0 0)
(0 0 0)
(0 0 0)
(0 0 0)
(0 0 0)
(0 0 0)
(0 0 0)
(0 0 0)
(0 0 0)
(0 0 0)
(0 0 0)
(0 0 0)
(0 0 0)
(0 0 0)
(0 0 0)
(0 0 0)
(0 0 0)
(0 0 0)
(0 0 0)
(0 0 0)
(0 0 0)
(0 0 0)
(0 0 0)
(0 0 0)
(-2.40621e-05 -0.000127512 0)
(-2.40622e-05 -0.000129918 0)
(-2.40622e-05 -0.000132324 0)
(-2.40623e-05 -0.00013473 0)
(-2.40623e-05 -0.000137136 0)
(-2.40624e-05 -0.000139542 0)
(-2.40624e-05 -0.000141948 0)
(-2.40625e-05 -0.000144354 0)
(-2.40626e-05 -0.00014676 0)
(-2.40626e-05 -0.000149165 0)
(-2.40627e-05 -0.000151571 0)
(-2.40627e-05 -0.000153977 0)
(-2.40628e-05 -0.000156383 0)
(-2.40629e-05 -0.000158789 0)
(-2.40629e-05 -0.000161195 0)
(-2.4063e-05 -0.000163601 0)
(-2.4063e-05 -0.000166007 0)
(-2.40631e-05 -0.000168413 0)
(-2.40631e-05 -0.000170819 0)
(-2.40632e-05 -0.000173224 0)
(-2.40633e-05 -0.00017563 0)
(-2.40633e-05 -0.000178036 0)
(-2.40634e-05 -0.000180442 0)
(-2.40634e-05 -0.000182848 0)
(-2.40635e-05 -0.000185254 0)
(-2.40635e-05 -0.00018766 0)
(-2.40636e-05 -0.000190066 0)
(-2.16578e-05 -0.000192472 0)
(-1.92519e-05 -0.000192472 0)
(-2.19854e-05 -7.09608e-05 0)
(-2.53929e-05 -0.000180638 0)
(-2.4394e-05 -0.00013133 0)
(-2.45275e-05 -0.000152994 0)
(-2.49705e-05 -8.2973e-05 0)
(-1.35085e-05 2.56457e-05 0)
(-1.02918e-05 3.04744e-05 0)
(-1.67434e-05 -2.3727e-05 0)
(-3.0392e-05 -0.000138671 0)
(-7.58818e-06 3.1611e-05 0)
(-3.35515e-05 -0.000172346 0)
(-5.75589e-06 5.70801e-05 0)
(-3.51535e-05 -0.000155959 0)
(-3.59041e-05 -0.000104004 0)
(-5.24516e-06 2.80007e-05 0)
(-2.50665e-05 -0.000193737 0)
(-4.93743e-06 4.80187e-05 0)
(-4.15832e-06 2.59236e-05 0)
(-4.14308e-06 3.93369e-05 0)
(-3.14141e-06 2.03789e-05 0)
(-2.89218e-06 2.71168e-05 0)
(-2.01972e-05 -5.43374e-05 0)
(-1.70085e-05 7.82382e-06 0)
(-1.17662e-05 3.20491e-05 0)
(-2.52094e-05 -0.000169534 0)
(-2.56189e-05 -0.000149649 0)
(-1.82792e-06 1.22039e-05 0)
(-1.81818e-06 1.53565e-05 0)
(-3.60896e-05 -0.000178554 0)
(-3.69434e-05 -0.000136002 0)
(-3.45671e-05 -0.00017154 0)
(-2.86354e-05 -0.000111141 0)
(-2.18878e-05 -6.92189e-05 0)
(-7.07389e-06 3.34504e-05 0)
(-8.84793e-06 2.95843e-05 0)
(-5.46192e-06 5.30602e-05 0)
(-5.42318e-06 5.25446e-05 0)
(-4.93723e-06 3.02319e-05 0)
(-2.60624e-05 -0.000194307 0)
(-1.18706e-06 8.72603e-06 0)
(-9.72171e-07 7.75944e-06 0)
(-3.26505e-05 -7.2174e-05 0)
(-2.5826e-05 -8.8279e-05 0)
(-2.31301e-05 -7.45201e-05 0)
(-2.11456e-05 -6.76573e-05 0)
(-2.19855e-05 -4.4328e-05 0)
(-1.57036e-05 -7.68745e-06 0)
(-1.34253e-05 1.6057e-05 0)
(-1.28611e-05 3.22787e-05 0)
(-1.13999e-05 3.12002e-05 0)
(-2.33928e-06 1.53694e-05 0)
(-5.30191e-06 5.21617e-05 0)
(-8.31166e-06 3.11983e-05 0)
(-6.30273e-06 6.09958e-05 0)
(-2.43971e-06 2.19904e-05 0)
(-2.9174e-06 2.73454e-05 0)
(-3.73416e-06 2.32574e-05 0)
(-7.18717e-06 3.21801e-05 0)
(-3.94753e-07 2.97194e-06 0)
(-0.000223621 -0.000926932 0)
(-0.000230525 -0.000946145 0)
(-0.000227796 -0.000998254 0)
(-0.000234447 -0.00101338 0)
(-0.000231869 -0.00106245 0)
(-0.000225031 -0.00104269 0)
(-0.000229296 -0.00110361 0)
(-0.000235857 -0.00111977 0)
(-0.00023335 -0.00115681 0)
(-0.000226583 -0.0011367 0)
(-0.00023062 -0.0011833 0)
(-0.000237337 -0.00120002 0)
(-0.000234825 -0.00122015 0)
(-0.00024155 -0.00123244 0)
(-0.000239507 -0.00124598 0)
(-0.000232663 -0.00122783 0)
(-0.000237889 -0.00124744 0)
(-0.00024477 -0.00126361 0)
(-0.000243674 -0.00126239 0)
(-0.000235831 -0.00123845 0)
(-0.000242711 -0.00125431 0)
(-0.000249359 -0.00127368 0)
(-0.000248365 -0.00126381 0)
(-0.000241541 -0.00124525 0)
(-0.000247148 -0.00125014 0)
(-0.000240042 -0.00123363 0)
(-0.000245946 -0.0012353 0)
(-0.000252885 -0.00124836 0)
(-0.000251889 -0.0012317 0)
(-0.000244678 -0.0012185 0)
(-0.000250696 -0.00121387 0)
(-0.000243276 -0.0012009 0)
(-0.000249325 -0.00119493 0)
(-0.000241747 -0.00117987 0)
(-0.000247771 -0.00117297 0)
(-0.000254847 -0.00118765 0)
(-0.000253315 -0.00116575 0)
(-0.000246186 -0.00114988 0)
(-0.000251695 -0.00114327 0)
(-0.000244574 -0.00112821 0)
(-0.000250075 -0.00112201 0)
(-0.000242901 -0.00110827 0)
(-0.0002484 -0.00110251 0)
(-0.000241459 -0.00109074 0)
(-0.000246793 -0.00108584 0)
(-0.000240165 -0.00107445 0)
(-0.000245136 -0.00107025 0)
(-0.000238621 -0.00105628 0)
(-0.000243619 -0.00105341 0)
(-0.000236697 -0.00103606 0)
(-0.000241929 -0.00103604 0)
(-0.000234426 -0.0010155 0)
(-0.000239875 -0.00101868 0)
(-0.000232341 -0.000995981 0)
(-0.000238277 -0.00100042 0)
(-0.000231014 -0.000975198 0)
(-0.000237496 -0.000981008 0)
(-0.000230544 -0.000953714 0)
(-0.000237257 -0.000961703 0)
(-0.00023074 -0.000932777 0)
(-0.000237733 -0.000941846 0)
(-0.000231806 -0.000911714 0)
(-0.000239401 -0.000920383 0)
(-0.000234131 -0.000889362 0)
(-0.000242628 -0.000897132 0)
(-0.000237783 -0.000865706 0)
(-0.000247083 -0.000872581 0)
(-0.000242298 -0.00084252 0)
(-0.000251596 -0.00084958 0)
(-0.000246824 -0.000822232 0)
(-0.000255934 -0.000830221 0)
(-0.000251233 -0.000805731 0)
(-0.00026062 -0.000814521 0)
(-0.000256099 -0.000793764 0)
(-0.000265729 -0.00080242 0)
(-0.000261451 -0.000785286 0)
(-0.000271273 -0.000792875 0)
(-0.000267394 -0.000778184 0)
(-0.000277668 -0.000784769 0)
(-0.000274248 -0.000771753 0)
(-0.000285027 -0.000777315 0)
(-0.000281997 -0.00076483 0)
(-0.000292857 -0.000769254 0)
(-0.000290256 -0.000757032 0)
(-0.000300884 -0.000760914 0)
(-0.00029891 -0.000750017 0)
(-0.000308957 -0.00075333 0)
(-0.000307051 -0.000743834 0)
(-0.000316734 -0.000745335 0)
(-0.00031475 -0.000736263 0)
(-0.00032491 -0.00073527 0)
(-0.000323476 -0.000727023 0)
(-0.000334303 -0.000724286 0)
(-0.000334175 -0.000717901 0)
(-0.000345162 -0.000715069 0)
(-0.000344734 -0.000719485 0)
(-0.000355407 -0.000710816 0)
(-0.00028851 -0.000790527 0)
(-0.000251943 -0.000903831 0)
(-0.000248543 -0.00105575 0)
(-0.000259834 -0.00118088 0)
(-0.00035397 -0.000714926 0)
(-0.000364648 -0.000706457 0)
(-0.00034622 -0.000711263 0)
(-0.000362165 -0.000711116 0)
(-0.000372659 -0.000701844 0)
(-0.000369683 -0.000706224 0)
(-0.000379951 -0.000695351 0)
(-0.00037662 -0.000698589 0)
(-0.000386816 -0.00068571 0)
(-0.0003831 -0.000686753 0)
(-0.000393136 -0.00067182 0)
(-0.000389111 -0.000670645 0)
(-0.000398776 -0.000653987 0)
(-0.000403324 -0.000658118 0)
(-0.000408249 -0.000637056 0)
(-0.000412657 -0.000644076 0)
(-0.000416863 -0.00061935 0)
(-0.000412084 -0.000614286 0)
(-0.000420174 -0.000593281 0)
(-0.000421044 -0.000628153 0)
(-0.000415213 -0.00059029 0)
(-0.000422916 -0.000565782 0)
(-0.000417878 -0.000565274 0)
(-0.000425284 -0.000537286 0)
(-0.000420122 -0.000539069 0)
(-0.000427415 -0.000508307 0)
(-0.000422482 -0.000511979 0)
(-0.000429513 -0.000479976 0)
(-0.00042507 -0.000485377 0)
(-0.000431773 -0.000453176 0)
(-0.000427684 -0.000460311 0)
(-0.000434029 -0.000428922 0)
(-0.000438114 -0.000423628 0)
(-0.000440001 -0.000398197 0)
(-0.000443855 -0.000395329 0)
(-0.000445154 -0.000367393 0)
(-0.000448714 -0.000368047 0)
(-0.000449399 -0.000338734 0)
(-0.000445913 -0.000338736 0)
(-0.000449693 -0.000308178 0)
(-0.000446034 -0.000307818 0)
(-0.000449532 -0.00027587 0)
(-0.000452809 -0.000344125 0)
(-0.000445537 -0.000275059 0)
(-0.000448939 -0.000241514 0)
(-0.000444589 -0.000240298 0)
(-0.000447934 -0.000204568 0)
(-0.000443069 -0.000203914 0)
(-0.000446365 -0.000165502 0)
(-0.000441065 -0.000164738 0)
(-0.000444264 -0.000124301 0)
(-0.000449513 -0.000129037 0)
(-0.000447348 -8.52778e-05 0)
(-0.000452341 -9.44139e-05 0)
(-0.000450154 -4.86927e-05 0)
(-0.000444856 -4.03761e-05 0)
(-0.000447495 -4.31165e-06 0)
(-0.000442174 4.39314e-06 0)
(-0.000445287 4.31015e-05 0)
(-0.000439295 4.77978e-05 0)
(-0.000441806 8.49596e-05 0)
(-0.000452528 -1.41765e-05 0)
(-0.000435886 9.02743e-05 0)
(-0.000438287 0.000129033 0)
(-0.000432027 0.000135135 0)
(-0.000434253 0.000176754 0)
(-0.000427795 0.000183003 0)
(-0.000429812 0.00022621 0)
(-0.000334874 -0.000711082 0)
(-0.000423042 0.000232144 0)
(-0.000424694 0.000275541 0)
(-0.000431158 0.000267455 0)
(-0.000425675 0.000316566 0)
(-0.000431609 0.000306528 0)
(-0.000426025 0.000356137 0)
(-0.000419943 0.000366101 0)
(-0.000420236 0.000405107 0)
(-0.000414128 0.000416023 0)
(-0.000414503 0.000454857 0)
(-0.000425741 0.000392592 0)
(-0.000408257 0.000465929 0)
(-0.000408612 0.000506076 0)
(-0.000402276 0.000516532 0)
(-0.000402492 0.000558171 0)
(-0.000396077 0.000566417 0)
(-0.00039621 0.000608476 0)
(-0.000389582 0.000612938 0)
(-0.000389771 0.000655892 0)
(-0.000382936 0.000656315 0)
(-0.000383056 0.000699962 0)
(-0.000389458 0.000698937 0)
(-0.000382656 0.00074363 0)
(-0.000388568 0.000741738 0)
(-0.000381755 0.000787523 0)
(-0.000375821 0.000787089 0)
(-0.000374769 0.000831592 0)
(-0.000380313 0.000831151 0)
(-0.000373182 0.000875455 0)
(-0.000367644 0.000875308 0)
(-0.000365998 0.00091939 0)
(-0.000360459 0.000918573 0)
(-0.000358735 0.000962223 0)
(-0.000353088 0.000959695 0)
(-0.000351231 0.00100234 0)
(-0.00035646 0.00100352 0)
(-0.000348863 0.00104249 0)
(-0.000343599 0.00104074 0)
(-0.000341267 0.00108071 0)
(-0.000335954 0.00107836 0)
(-0.000333622 0.00111721 0)
(-0.00032825 0.00111395 0)
(-0.000325847 0.00115095 0)
(-0.000330794 0.00115134 0)
(-0.000322956 0.00118335 0)
(-0.000317975 0.00118193 0)
(-0.000315133 0.00121348 0)
(-0.000310126 0.00121097 0)
(-0.000307317 0.00124068 0)
(-0.000302286 0.00123709 0)
(-0.00029945 0.00126447 0)
(-0.000304074 0.0012648 0)
(-0.000296184 0.00128724 0)
(-0.000291548 0.00128552 0)
(-0.000288329 0.00130777 0)
(-0.000283696 0.00130499 0)
(-0.00028051 0.00132567 0)
(-0.00027587 0.0013212 0)
(-0.000272702 0.00134023 0)
(-0.000276997 0.00134339 0)
(-0.000269226 0.00135712 0)
(-0.000264943 0.00135246 0)
(-0.00026155 0.00136903 0)
(-0.00025725 0.00136264 0)
(-0.00025393 0.00137796 0)
(-0.000347608 -0.000707829 0)
(-0.000336066 -0.000704746 0)
(-0.00034924 -0.000705624 0)
(-0.000337876 -0.000700246 0)
(-0.000249628 0.00136958 0)
(-0.000246365 0.00138307 0)
(-0.000250297 0.00139006 0)
(-0.000242774 0.00139279 0)
(-0.00023884 0.0013839 0)
(-0.00024625 0.0013988 0)
(-0.000238819 0.00139942 0)
(-0.000241705 0.00140284 0)
(-0.000234572 0.00140244 0)
(-0.000234347 -0.0010785 0)
(-0.000421304 -0.000493083 0)
(-0.000382453 0.00061333 0)
(-0.00042091 0.000186536 0)
(-0.000263621 -0.000764627 0)
(-0.000224559 -0.000971232 0)
(-0.000237211 -0.000814238 0)
(-0.000437898 -0.000206241 0)
(-9.1362e-05 -0.00047148 0)
(-8.77987e-05 -0.000463859 0)
(-9.34087e-05 -0.000506838 0)
(-8.96833e-05 -0.000498515 0)
(-9.54081e-05 -0.00054044 0)
(-9.15942e-05 -0.000531529 0)
(-8.60705e-05 -0.000490311 0)
(-8.78727e-05 -0.000522229 0)
(-9.3638e-05 -0.000559856 0)
(-8.97808e-05 -0.000547116 0)
(-9.57237e-05 -0.000582259 0)
(-9.18281e-05 -0.000566 0)
(-8.28785e-05 -0.000486404 0)
(-9.78326e-05 -0.000600789 0)
(-9.39868e-05 -0.000582613 0)
(-0.000100049 -0.000617351 0)
(-9.61671e-05 -0.000598203 0)
(-0.000102259 -0.000632999 0)
(-9.84196e-05 -0.000614214 0)
(-9.2288e-05 -0.000580776 0)
(-9.47203e-05 -0.000597709 0)
(-8.86019e-05 -0.000567238 0)
(-9.1171e-05 -0.00058341 0)
(-8.50127e-05 -0.000555581 0)
(-8.767e-05 -0.000567798 0)
(-9.36595e-05 -0.000597249 0)
(-9.0198e-05 -0.000576989 0)
(-8.1349e-05 -0.000540349 0)
(-9.6176e-05 -0.000609292 0)
(-9.27751e-05 -0.000584473 0)
(-0.000106169 -0.00065303 0)
(-9.89563e-05 -0.000618548 0)
(-9.59182e-05 -0.00059049 0)
(-0.000102461 -0.000624417 0)
(-9.98319e-05 -0.00059528 0)
(-9.28776e-05 -0.000563935 0)
(-9.7161e-05 -0.000568996 0)
(-8.99408e-05 -0.000539769 0)
(-9.44197e-05 -0.000543547 0)
(-8.69653e-05 -0.000516148 0)
(-9.15284e-05 -0.000517949 0)
(-8.39399e-05 -0.000492577 0)
(-8.8546e-05 -0.000493599 0)
(-8.06038e-05 -0.000470097 0)
(-8.55301e-05 -0.000471688 0)
(-7.73239e-05 -0.000449223 0)
(-8.29464e-05 -0.000450701 0)
(-7.51955e-05 -0.000429534 0)
(-8.15072e-05 -0.000430441 0)
(-7.48494e-05 -0.000409857 0)
(-8.23145e-05 -0.000412402 0)
(-7.56661e-05 -0.000390929 0)
(-8.21277e-05 -0.000393428 0)
(-7.71031e-05 -0.000372344 0)
(-8.38442e-05 -0.000377506 0)
(-7.95109e-05 -0.000354948 0)
(-8.62295e-05 -0.000362069 0)
(-8.22228e-05 -0.000339725 0)
(-8.87564e-05 -0.000348658 0)
(-8.44419e-05 -0.00032725 0)
(-9.01118e-05 -0.00033799 0)
(-8.55809e-05 -0.000318344 0)
(-9.00841e-05 -0.000330629 0)
(-8.55573e-05 -0.000312476 0)
(-8.9429e-05 -0.000326469 0)
(-8.46427e-05 -0.000309135 0)
(-8.78319e-05 -0.000324851 0)
(-8.2648e-05 -0.000308437 0)
(-8.53741e-05 -0.000325112 0)
(-8.04069e-05 -0.000309429 0)
(-8.35747e-05 -0.000325867 0)
(-8.01386e-05 -0.000310812 0)
(-8.45518e-05 -0.000326748 0)
(-8.39061e-05 -0.000312538 0)
(-8.91636e-05 -0.000329062 0)
(-9.12801e-05 -0.000315641 0)
(-9.68555e-05 -0.000333829 0)
(-0.000100743 -0.000321017 0)
(-0.000106304 -0.000340712 0)
(-0.000111482 -0.000327981 0)
(-8.89107e-05 -0.000399741 0)
(-9.43679e-05 -0.000344751 0)
(-0.000117007 -0.000348072 0)
(-9.42293e-05 -0.000346107 0)
(-9.35728e-05 -0.000496554 0)
(-6.95596e-05 -0.000428275 0)
(-0.000106613 -0.000629656 0)
(-0.000380065 -0.000688026 0)
(-9.51466e-05 -0.000302777 0)
(-0.00024351 -0.000988846 0)
(-7.18266e-05 -0.000346929 0)
(-7.77448e-05 -0.000293109 0)
(-0.000108855 -0.000662186 0)
(-0.000113027 -0.000666814 0)
(-0.000115199 -0.000702376 0)
(-0.000119169 -0.000704621 0)
(-0.00012165 -0.000742071 0)
(-0.000125392 -0.000744061 0)
(-0.000128195 -0.000781508 0)
(-0.000131894 -0.000784763 0)
(-0.000134809 -0.000820095 0)
(-0.000138466 -0.000824465 0)
(-0.000141287 -0.000857251 0)
(-0.00013552 -0.000786496 0)
(-0.000142236 -0.000826732 0)
(-0.000139203 -0.000788262 0)
(-0.000146173 -0.000828581 0)
(-0.000143366 -0.000790266 0)
(-0.000150509 -0.000830476 0)
(-0.000148274 -0.000791594 0)
(-0.000452218 -0.000372824 0)
(-0.000456268 -0.000353794 0)
(-0.000155239 -0.000832192 0)
(-0.000153368 -0.000793431 0)
(-0.000157787 -0.000870692 0)
(-8.00556e-05 -0.000307009 0)
(-0.000224131 -0.000903248 0)
(-0.000235496 -0.00118458 0)
(-0.000286577 -0.000743073 0)
(-0.000311389 -0.000762312 0)
(-0.000354497 0.000915782 0)
(-0.000252609 0.00135329 0)
(-0.000227133 0.00139919 0)
(-0.000278717 0.00129907 0)
(-0.000304759 0.00120565 0)
(-0.000378202 0.0008732 0)
(-0.000327453 0.00117986 0)
(-0.000300365 0.00128452 0)
(-0.000401637 0.000475255 0)
(-0.000424391 -0.000468694 0)
(-0.000418522 -0.000502117 0)
(-0.000421596 -0.000477018 0)
(-0.000416095 -0.000510978 0)
(-0.000418548 -0.000484551 0)
(-0.000413317 -0.000518133 0)
(-0.000414861 -0.000490928 0)
(-0.000409766 -0.000523748 0)
(-0.000410495 -0.000496616 0)
(-0.000405554 -0.000525871 0)
(-0.000406015 -0.000496744 0)
(-0.000400673 -0.000524683 0)
(-0.000400814 -0.000494951 0)
(-0.000394925 -0.00052569 0)
(-0.000394567 -0.000499161 0)
(-0.000387792 -0.000536187 0)
(-0.000388082 -0.000507139 0)
(-0.000381618 -0.000541124 0)
(-0.000381569 -0.000517708 0)
(-0.000375436 -0.000551478 0)
(-0.000374654 -0.00053187 0)
(-0.000368684 -0.0005661 0)
(-0.000367385 -0.000550033 0)
(-0.000369162 -0.000583318 0)
(-0.000362587 -0.000598169 0)
(-0.000362756 -0.000616599 0)
(-0.00035655 -0.000630658 0)
(-0.000356738 -0.00065132 0)
(-0.000350961 -0.000663779 0)
(-0.000351187 -0.000686739 0)
(-0.000345521 -0.000697847 0)
(-0.000345648 -0.000724182 0)
(-0.000339985 -0.000734798 0)
(-0.000339102 -0.000707912 0)
(-0.000340157 -0.000763212 0)
(-0.00033468 -0.000772387 0)
(-0.000334758 -0.000802378 0)
(-0.000329499 -0.000809508 0)
(-0.00032963 -0.000841265 0)
(-0.000324479 -0.000847809 0)
(-0.000324912 -0.000880564 0)
(-0.000319674 -0.000885799 0)
(-0.000320418 -0.000919766 0)
(-0.000314966 -0.000921494 0)
(-0.00031599 -0.0009564 0)
(-0.00031364 -0.000886734 0)
(-0.00032922 -0.000874081 0)
(-0.000310344 -0.000953188 0)
(-0.000311713 -0.000988177 0)
(-0.000305993 -0.000979975 0)
(-0.000307904 -0.00101353 0)
(-0.000313099 -0.00102087 0)
(-0.000309825 -0.00104477 0)
(-0.000314225 -0.00104795 0)
(-0.000311303 -0.0010706 0)
(-0.000306564 -0.00106593 0)
(-0.000308177 -0.00108956 0)
(-0.000314776 -0.00106705 0)
(-0.000302811 -0.00108328 0)
(-0.000304545 -0.00110484 0)
(-0.000298504 -0.00109455 0)
(-0.000300512 -0.00111376 0)
(-0.000293947 -0.00109944 0)
(-0.00029618 -0.00111595 0)
(-0.000301998 -0.00112812 0)
(-0.000297621 -0.00112826 0)
(-0.000302599 -0.00114004 0)
(-0.000298158 -0.00113834 0)
(-0.000292792 -0.0011229 0)
(-0.00029334 -0.00113052 0)
(-0.000302216 -0.00115174 0)
(-0.00028742 -0.00111192 0)
(-0.000288115 -0.00111916 0)
(-0.000350815 -0.000713175 0)
(-0.000372989 -0.000512083 0)
(-0.000365547 -0.000533879 0)
(-0.000370895 -0.000494004 0)
(-0.000363271 -0.000515568 0)
(-0.000281628 -0.00109949 0)
(-0.00028278 -0.00111141 0)
(-0.000368358 -0.000473966 0)
(-0.000360402 -0.000493356 0)
(-0.000365275 -0.000447655 0)
(-0.000357009 -0.000464231 0)
(-0.000361832 -0.000414093 0)
(-0.000353283 -0.000428521 0)
(-0.000358088 -0.000374996 0)
(-0.000349376 -0.000388189 0)
(-0.000344587 -0.000441179 0)
(-0.000340514 -0.000398617 0)
(-0.000335823 -0.000450406 0)
(-0.000331527 -0.000404915 0)
(-0.000326919 -0.000454801 0)
(-0.000322427 -0.000405326 0)
(-0.000327084 -0.000355727 0)
(-0.000317777 -0.000352385 0)
(-0.000322484 -0.000302536 0)
(-0.000312781 -0.000299619 0)
(-0.000317777 -0.000249729 0)
(-0.000307806 -0.00025017 0)
(-0.000312941 -0.000200724 0)
(-0.00030275 -0.000204418 0)
(-0.000307755 -0.000155109 0)
(-0.000297297 -0.000160981 0)
(-0.000302217 -0.000111303 0)
(-0.000291584 -0.00011821 0)
(-0.000296469 -6.774e-05 0)
(-0.000285766 -7.52204e-05 0)
(-0.000290659 -2.36444e-05 0)
(-0.0002799 -3.24516e-05 0)
(-0.000284909 1.95681e-05 0)
(-0.000317649 -0.000453431 0)
(-0.000273992 7.86132e-06 0)
(-0.000279081 5.99972e-05 0)
(-0.000268034 4.54483e-05 0)
(-0.000272688 9.74138e-05 0)
(-0.000261997 8.37757e-05 0)
(-0.000266544 0.000135949 0)
(-0.000297362 -0.000253115 0)
(-0.000255806 0.000122864 0)
(-0.000260544 0.000175338 0)
(-0.000249285 0.000158913 0)
(-0.000254347 0.000213005 0)
(-0.000242667 0.000191253 0)
(-0.00024765 0.00024506 0)
(-0.000235845 0.000221038 0)
(-0.000240786 0.000275591 0)
(-0.000228904 0.000252305 0)
(-0.000233808 0.000308705 0)
(-0.000274645 -8.32042e-05 0)
(-0.000221833 0.000286793 0)
(-0.000226731 0.000343957 0)
(-0.000238298 0.000370905 0)
(-0.000231145 0.000405132 0)
(-0.000219596 0.000377014 0)
(-0.000223925 0.000437565 0)
(-0.000212351 0.00040779 0)
(-0.000216668 0.000469645 0)
(-0.000227932 0.000502453 0)
(-0.000220679 0.000535129 0)
(-0.000209433 0.000501088 0)
(-0.000213434 0.000566635 0)
(-0.000202223 0.000531115 0)
(-0.00020619 0.000595854 0)
(-0.000195048 0.000558556 0)
(-0.000198955 0.00062113 0)
(-0.000187894 0.000581423 0)
(-0.000191736 0.000640816 0)
(-0.000202477 0.000682073 0)
(-0.000195214 0.000699652 0)
(-0.000184576 0.000655921 0)
(-0.000188057 0.000715163 0)
(-0.000177528 0.000668812 0)
(-0.000181038 0.00072928 0)
(-0.000170619 0.000680237 0)
(-0.000174121 0.000739753 0)
(-0.000184222 0.00078912 0)
(-0.000177235 0.000796565 0)
(-0.000167278 0.000745092 0)
(-0.000170322 0.000799242 0)
(-0.000160517 0.000746464 0)
(-0.000163524 0.000798639 0)
(-0.000153875 0.000745301 0)
(-0.000156845 0.000795258 0)
(-0.00016615 0.000847528 0)
(-0.000159394 0.000842034 0)
(-0.000150272 0.000788449 0)
(-0.000152822 0.000833341 0)
(-0.000143861 0.000779188 0)
(-0.000146261 0.000822343 0)
(-0.000154975 0.000875193 0)
(-0.00014841 0.000864529 0)
(-0.000138536 0.000804409 0)
(-0.000142053 0.000854141 0)
(-0.000150277 0.000903171 0)
(-0.000144055 0.000892606 0)
(-0.000136384 0.000845837 0)
(-0.000137837 0.000877749 0)
(-0.000145154 0.000924662 0)
(-0.000138983 0.00090683 0)
(-0.000131621 0.000858246 0)
(-0.000132804 0.000884998 0)
(-0.000139865 0.000932116 0)
(-0.000133728 0.000909391 0)
(-0.000140399 0.000954536 0)
(-0.000134349 0.000932302 0)
(-0.000127641 0.000886158 0)
(-0.000128319 0.000909411 0)
(-0.000134704 0.000953125 0)
(-0.000128708 0.000930215 0)
(-0.000134709 0.000971199 0)
(-0.000128769 0.000947897 0)
(-0.000122757 0.000906867 0)
(-0.000122817 0.000922881 0)
(-0.000128577 0.000962451 0)
(-0.000122602 0.00093567 0)
(-0.000128178 0.000974921 0)
(-0.000122137 0.000946586 0)
(-0.000116656 0.000907561 0)
(-0.000116155 0.000916955 0)
(-0.000121449 0.000955887 0)
(-0.00011547 0.000924411 0)
(-0.000110212 0.000884286 0)
(-0.000120531 0.00096294 0)
(-0.000114537 0.000929288 0)
(-0.000119366 0.000967282 0)
(-0.000113376 0.000931421 0)
(-0.000117953 0.000969005 0)
(-0.000111925 0.000930744 0)
(-0.000116266 0.000967613 0)
(-0.000110152 0.000926649 0)
(-0.000114406 0.000963152 0)
(-0.000108073 0.000918905 0)
(-0.000103934 0.000882421 0)
(-0.00011222 0.000954603 0)
(-0.000105878 0.000909159 0)
(-0.000109787 0.000942661 0)
(-0.000103569 0.000896968 0)
(-0.000107206 0.000927934 0)
(-0.000100963 0.000881325 0)
(-0.000104366 0.000909832 0)
(-0.000116089 0.000987185 0)
(-0.000124077 0.00100462 0)
(-9.80572e-05 0.000862263 0)
(-0.000101296 0.000888488 0)
(-9.46602e-05 0.000833067 0)
(-0.000231629 0.000568788 0)
(-0.000250373 6.73042e-05 0)
(-9.49751e-05 0.000839989 0)
(-9.8056e-05 0.000864306 0)
(-0.000104371 0.000912167 0)
(-0.000100983 0.00088666 0)
(-0.00010732 0.000934483 0)
(-0.000103759 0.000907583 0)
(-0.000266961 0.000231302 0)
(-9.74431e-05 0.000859067 0)
(-0.000100048 0.000878786 0)
(-0.00027573 -0.00109307 0)
(-0.000277304 -0.00110773 0)
(-0.000284124 -0.00112503 0)
(-0.000278962 -0.00111796 0)
(-0.000285699 -0.00113599 0)
(-0.00028073 -0.001123 0)
(-0.000287123 -0.00114423 0)
(-0.000282287 -0.0011262 0)
(-0.000288299 -0.00115039 0)
(-0.000283624 -0.0011285 0)
(-0.000277342 -0.0011048 0)
(-0.000278935 -0.0011036 0)
(-0.000284661 -0.00113004 0)
(-0.000280697 -0.00110442 0)
(-0.00027467 -0.00107608 0)
(-0.000277103 -0.00107451 0)
(-0.000282581 -0.00110659 0)
(-0.000279667 -0.00107415 0)
(-0.000273616 -0.00103859 0)
(-0.000276655 -0.00103265 0)
(-0.000281986 -0.00106947 0)
(-0.000279154 -0.00102042 0)
(-0.000283573 -0.00105664 0)
(-0.000280715 -0.00100158 0)
(-0.000275682 -0.000963326 0)
(-0.000277002 -0.0009395 0)
(-0.000280644 -0.000973555 0)
(-0.000276546 -0.000907235 0)
(-0.000272369 -0.000873324 0)
(-0.000271897 -0.000836967 0)
(-0.000275076 -0.000866515 0)
(-0.000270925 -0.000793352 0)
(-0.000273493 -0.000820935 0)
(-0.000270049 -0.000745867 0)
(-0.00026703 -0.000718577 0)
(-0.000266558 -0.000668673 0)
(-0.000269304 -0.000694106 0)
(-0.000265849 -0.000612568 0)
(-0.000262658 -0.000586762 0)
(-9.37462e-05 0.000829744 0)
(-9.62015e-05 0.00084886 0)
(-0.000300953 -1.59406e-05 0)
(-0.000269591 -0.00108812 0)
(-0.000267669 -0.00107176 0)
(-0.000223361 0.000200946 0)
(-0.000110128 0.000955383 0)
(-0.00040461 -0.000552267 0)
(-8.991e-05 0.00079919 0)
(-9.22355e-05 0.000818113 0)
(-0.000183679 0.000521841 0)
(-0.000261051 -0.00106352 0)
(-0.000258913 -0.00104828 0)
(-8.59485e-05 0.000767564 0)
(-8.81473e-05 0.00078582 0)
(-9.44203e-05 0.000835409 0)
(-8.36264e-05 0.000748277 0)
(-0.000291374 -0.00107854 0)
(-0.000252109 -0.00103704 0)
(-0.000249538 -0.00102225 0)
(-0.000322578 -0.000200626 0)
(-0.000366503 -0.000359651 0)
(-0.000242564 -0.00100726 0)
(-0.000239341 -0.000993384 0)
(-0.000283479 0.000116421 0)
(-0.000150545 0.000693527 0)
(-0.000187011 0.000843771 0)
(-0.000433042 5.10842e-05 0)
(-0.000254916 -0.00111594 0)
(-0.000162282 -0.000872072 0)
(-0.000165341 -0.000910408 0)
(-0.000264953 -0.000836408 0)
(-0.000236942 -0.000956062 0)
(-7.87583e-05 -0.000530375 0)
(-7.50889e-05 -0.000516803 0)
(-7.2715e-05 -0.000509517 0)
(-6.91618e-05 -0.000498485 0)
(-6.71598e-05 -0.000493313 0)
(-6.36689e-05 -0.000482013 0)
(-6.20834e-05 -0.000479118 0)
(-5.87197e-05 -0.00046581 0)
(-5.76061e-05 -0.000463338 0)
(-5.43479e-05 -0.000449616 0)
(-5.38013e-05 -0.000446695 0)
(-5.07412e-05 -0.000432361 0)
(-5.05022e-05 -0.000428813 0)
(-4.77596e-05 -0.00041425 0)
(-4.76442e-05 -0.000409486 0)
(-4.52866e-05 -0.000393745 0)
(-4.51048e-05 -0.000386864 0)
(-4.31731e-05 -0.000369693 0)
(-4.27765e-05 -0.000362645 0)
(-4.48094e-05 -0.000376828 0)
(-4.23409e-05 -0.000354193 0)
(-4.44271e-05 -0.000365451 0)
(-4.20831e-05 -0.000343799 0)
(-4.40341e-05 -0.000349157 0)
(-4.1846e-05 -0.00032557 0)
(-4.3725e-05 -0.000324152 0)
(-4.15203e-05 -0.000298482 0)
(-4.34466e-05 -0.000293735 0)
(-4.12325e-05 -0.000268278 0)
(-4.3103e-05 -0.000261969 0)
(-4.08369e-05 -0.000236851 0)
(-4.26328e-05 -0.000231 0)
(-4.03455e-05 -0.000207231 0)
(-4.20422e-05 -0.000204183 0)
(-3.97474e-05 -0.000182907 0)
(-4.11592e-05 -0.000345107 0)
(-4.18106e-05 -0.000350748 0)
(-3.87495e-05 -0.000211919 0)
(-3.99962e-05 -0.000327601 0)
(-4.07728e-05 -0.000335684 0)
(-3.91893e-05 -0.000314755 0)
(-4.00212e-05 -0.000324914 0)
(-3.84532e-05 -0.00030409 0)
(-3.92047e-05 -0.000313902 0)
(-3.75196e-05 -0.000292872 0)
(-3.80869e-05 -0.00030019 0)
(-3.68866e-05 -0.000281416 0)
(-3.5987e-05 -0.00027124 0)
(-3.54321e-05 -0.000258772 0)
(-3.99327e-05 -0.000318444 0)
(-3.87337e-05 -0.000303326 0)
(-3.46663e-05 -0.000250378 0)
(-3.41884e-05 -0.000239517 0)
(-4.05683e-05 -0.000318687 0)
(-3.94898e-05 -0.000304447 0)
(-3.35374e-05 -0.000232061 0)
(-3.3007e-05 -0.000224185 0)
(-5.54337e-05 -0.000445485 0)
(-4.56441e-05 -0.000316546 0)
(-9.92724e-05 -0.000549781 0)
(-0.000137821 -0.000850141 0)
(-0.000144531 -0.000886717 0)
(-0.000141234 -0.000878243 0)
(-0.000148391 -0.000913586 0)
(-0.000145148 -0.000903715 0)
(-0.000152196 -0.000934463 0)
(-0.000149075 -0.000925058 0)
(-0.000155816 -0.000951958 0)
(-0.000152803 -0.000944158 0)
(-0.000159722 -0.000970834 0)
(-0.000156536 -0.000964199 0)
(-0.000163472 -0.000992024 0)
(-0.000160321 -0.000984253 0)
(-0.000161979 -0.000974599 0)
(-0.000167155 -0.00101303 0)
(-0.000164199 -0.00100271 0)
(-0.000171104 -0.00103132 0)
(-0.000168307 -0.00101787 0)
(-0.000161599 -0.000985376 0)
(-0.000165774 -0.000996924 0)
(-4.13664e-05 -0.000317903 0)
(-4.05155e-05 -0.00030386 0)
(-3.8506e-05 -0.000290234 0)
(-3.98896e-05 -0.000289306 0)
(-3.77844e-05 -0.00027638 0)
(-3.96512e-05 -0.000275004 0)
(-3.75345e-05 -0.000263155 0)
(-3.99326e-05 -0.000261512 0)
(-3.80001e-05 -0.000250113 0)
(-4.08134e-05 -0.000248816 0)
(-8.85143e-05 -0.000341805 0)
(-3.24021e-05 -0.000216842 0)
(-3.17727e-05 -0.000211983 0)
(-3.24446e-05 -0.000218991 0)
(-3.11912e-05 -0.000206695 0)
(-0.000159239 -0.000959607 0)
(-0.000163359 -0.000967518 0)
(-4.20819e-05 -0.000274603 0)
(-0.000232039 -0.000972394 0)
(-0.00022815 -0.000959238 0)
(-0.000235233 -0.000980021 0)
(-0.000400234 -0.000464285 0)
(-0.000156711 -0.000926444 0)
(-0.000160828 -0.000930433 0)
(-0.000153815 -0.000887656 0)
(-0.000158177 -0.000886869 0)
(-0.000165099 -0.000930656 0)
(-0.00016244 -0.000881198 0)
(-0.000172587 -0.00103112 0)