/*--------------------------------*- C++ -*----------------------------------*\
| =========                 |                                                 |
| \\      /  F ield         | OpenFOAM: The Open Source CFD Toolbox           |
|  \\    /   O peration     | Version:  v2012                                 |
|   \\  /    A nd           | Website:  www.openfoam.com                      |
|    \\/     M anipulation  |                                                 |
\*---------------------------------------------------------------------------*/
FoamFile
{
    version     2.0;
    format      ascii;
    class       volScalarField;
    location    "550";
    object      ddt0(omega);
}
// * * * * * * * * * * * * * * * * * * * * * * * * * * * * * * * * * * * * * //

dimensions      [0 0 -2 0 0 0 0];


internalField   nonuniform List<scalar> 
13851
(
6.56994e-05
0.0440018
0.0023177
5.90682e-05
0.00248143
-0.000120207
1.55309e-05
0.00140832
-5.73258e-07
0.00239101
-0.00992225
-0.037376
0.0193209
0.0591301
9.05569e-06
0.000637996
0.000206797
0.000228196
0.0023459
-2.56201e-07
5.67672e-05
0.00228916
-0.000167828
-0.000114151
-0.000203964
0.00144437
0.000180778
0.087651
6.17506e-05
0.000118548
-0.00430837
0.000226481
0.00224188
-0.00788178
-8.35057e-05
0.00469801
0.00266263
0.00336405
0.00255533
-0.00795683
1.95314e-05
-4.76931e-06
-0.0102689
-0.00299768
-0.000390078
0.0706081
0.00998632
-0.240877
0.000195484
0.0353464
0.00238033
0.00370987
-0.0190574
1.5409e-05
3.03197e-05
-5.89225e-06
-6.28488e-05
-0.00978463
0.000109249
2.23229e-05
0.0033537
-0.0566922
0.00075581
0.00277905
0.000919088
9.77456e-05
-0.00430078
0.00442663
0.00084229
0.000214373
0.00433865
0.00948056
0.0388823
1.72663e-05
1.46137e-05
-1.22013e-07
0.00223863
-0.0380361
0.00151899
0.00424475
3.73574e-05
-0.00341453
1.41404e-05
0.0749043
0.000933447
-0.0244999
0.000606788
0.0144806
0.000251372
-5.44027e-07
0.00456056
-0.000357549
0.00262933
0.000403768
0.00023969
-0.00017301
0.00254153
0.0257947
0.0525418
-0.000187919
0.103554
0.00163043
4.16643e-05
0.000161374
-8.15537e-05
0.000933048
0.00181677
-2.73951e-06
0.233162
-0.000815377
-0.000180835
5.00106e-06
-0.000302423
-0.000189868
-0.000159435
-0.00214566
0.0290913
9.28267e-07
-2.89668e-05
1.98547e-05
-0.0121364
0.000151512
0.0413362
-0.0170791
-0.315559
0.000382534
-0.270716
0.0015939
5.23842e-05
0.00331992
1.91604e-05
6.02171e-06
-0.0139833
1.36611e-05
-0.0125362
8.81188e-06
1.2748e-06
0.0113901
0.0384842
0.00916582
0.0845583
3.46229e-05
-5.36338e-05
-1.85976e-05
0.000104584
-0.00227742
-0.000270949
0.00321826
1.70305e-05
-0.000635218
0.00246805
2.15595e-05
0.0703152
-5.61779e-05
9.61562e-05
9.94461e-05
1.16789e-05
8.31035e-05
0.00366708
0.00236651
-1.66629e-05
0.00041545
-0.015149
5.72975e-06
0.000296824
-1.22232e-05
0.00042
0.000865971
4.94128e-05
-0.0822275
-0.0287093
-2.40456e-06
1.19124e-05
0.0111219
5.55367e-06
-0.175443
0.00153229
-3.98701e-06
0.00161768
-4.89658e-06
0.000270213
0.00835631
1.26264e-05
0.00239999
-1.47115e-05
-0.000173413
9.90676e-05
3.20514e-05
0.00263001
0.00201256
0.010768
-0.020934
1.66054e-05
0.000839038
-0.0246527
8.56934e-05
-3.93882e-05
-0.00441154
-5.50651e-06
1.60801e-07
0.000379216
-0.0520913
-3.52217e-05
1.54508e-05
0.00180401
1.31218e-05
-0.0880915
0.000220594
0.00727178
-8.53787e-06
0.0858921
3.92927e-05
-0.0165068
-3.91431e-06
-1.78017e-05
-0.00521354
0.00100933
0.0668497
9.57487e-06
0.00658877
0.00023063
3.96976e-05
0.0474064
0.00332687
0.0462383
-0.0002201
0.000535981
-9.14116e-05
-0.00476452
-4.67565e-06
0.00136623
0.000647869
-2.26869e-06
3.07065e-06
0.00217915
0.000897689
-0.124675
-0.000671113
-1.85663e-05
1.54727e-05
-0.00179995
0.0256047
-2.10172e-05
0.00198403
-6.6227e-05
0.0180107
0.00166549
-0.00695022
0.0001024
0.000240886
0.000253635
-0.000255925
4.08707e-05
0.00010712
0.00172425
0.00133517
0.00202142
0.00652829
-0.0535851
8.71147e-06
-1.70848e-05
0.000167486
-0.0463217
2.26181e-05
0.000483844
8.49538e-05
4.00571e-05
0.000368347
0.0630144
0.00247212
0.000279485
9.51827e-05
-0.067141
0.00143078
0.000582423
6.50978e-06
-0.00535213
-0.00997464
0.0709888
-0.00759718
-1.60136e-05
-7.62545e-06
-6.98858e-05
0.00165923
-0.0307386
-0.0434015
3.75492e-07
6.3813e-06
-0.0289096
-0.00098913
0.00293269
9.95381e-05
2.4163e-05
0.000991839
-0.000308443
0.00383498
0.000273789
-0.0261466
6.41822e-06
0.0240481
0.000387112
0.00019667
0.0788238
2.75388e-05
0.00120864
0.0344431
1.07379e-06
0.00141539
0.00040929
9.07071e-05
0.0483905
0.000283993
3.80461e-05
0.0394973
-5.62571e-06
0.000253751
0.000832983
0.0930992
0.00365475
9.31652e-06
0.00170142
8.25636e-06
-0.0900925
0.000416963
-0.000165644
1.43522e-05
0.00359682
0.00048676
9.16081e-05
5.66606e-06
2.71428e-05
3.57684e-05
-0.00927985
0.144948
-0.051813
0.000225596
0.0970341
0.0125814
8.34739e-06
0.000870429
0.002868
-0.000609155
0.00137928
0.00320528
0.0024325
-2.77783e-05
-0.014488
0.0310898
9.35107e-06
0.025765
0.0373514
0.00242612
9.18064e-05
0.00148095
-0.0025692
1.23911e-05
-0.021747
1.42226e-05
7.65741e-06
-5.56844e-05
-3.16087e-06
1.08619e-05
0.0488069
-0.000198177
1.83363e-05
0.00130057
-7.85689e-06
-0.0314718
0.00091214
0.0393509
-0.0405996
1.89681e-05
0.00120189
0.000410587
0.0129109
1.73971e-05
1.2692e-06
-9.40463e-05
0.169038
2.22566e-05
0.0457307
-0.000556947
0.00358291
-0.330515
0.000294593
0.000144644
0.000170402
7.45765e-06
2.49926e-05
0.000187652
0.00169179
0.0597979
0.000867801
0.0721345
0.034783
-8.54479e-06
8.8655e-06
-0.0946507
0.0046621
0.00274176
0.0329527
-0.00023238
0.000450693
-0.000246992
0.00936608
-2.41991e-06
0.000607882
0.000122981
1.65874e-05
-7.94709e-05
3.08872e-07
-1.2651e-05
0.00273349
0.00124227
-0.0633196
0.000202419
0.00182148
0.000340144
-0.00655717
0.000287584
0.00161806
0.00018057
-0.00512636
1.0216e-06
2.87529e-07
-0.000240859
0.0019852
0.0130711
0.00333583
0.000289999
-0.0951333
-0.00529736
0.00075353
2.10929e-05
0.00220814
1.65215e-05
-0.00842155
-9.76309e-05
0.011977
0.000193547
0.00208513
0.00872792
-2.22914e-05
-0.0494249
0.00307837
0.247331
-6.7673e-06
0.00054153
0.00156385
-0.0039866
-2.3478e-06
3.67492e-05
0.00234908
0.0036969
0.000333958
-0.0447031
-0.000215635
1.49437e-05
0.00444594
0.000328543
-7.28783e-06
-0.0437979
7.34259e-06
6.63664e-05
-1.08628e-06
0.000887271
6.70131e-05
-7.80091e-06
-2.51892e-05
0.0434335
1.48443e-05
0.00101329
9.13144e-06
4.61535e-05
-0.0207846
-0.000168413
1.77882e-05
-0.000195643
-0.000214539
-0.0222256
3.8731e-05
0.000146646
1.20779e-05
-0.000199967
0.0553356
0.0094212
1.34179e-05
-2.9954e-05
0.000297608
0.0581987
0.0728637
1.51454e-05
0.00220946
1.75226e-05
0.00245414
1.97676e-05
0.0102718
-6.67933e-06
-0.0194317
0.00193078
-4.95492e-06
-7.68384e-05
0.00885064
0.00141427
-0.0176032
-6.50513e-06
-0.00727238
3.38418e-05
3.83199e-06
5.72612e-06
1.41963e-05
0.0138876
0.0021626
0.00383045
0.00266509
0.000828509
-1.8143e-05
0.0612879
0.0124851
0.000281921
0.000424842
0.108232
-0.0146198
0.121523
3.5255e-05
0.0120529
0.0694445
0.0356915
0.000317679
-6.59305e-05
-0.00601163
-0.0409289
-0.0015567
-0.010273
0.025016
8.91948e-05
0.0157116
0.016227
2.20623e-07
-0.0118667
0.00221132
0.000929243
0.000109735
1.30851e-05
1.11797e-05
1.69925e-05
0.0026077
0.000770195
0.0568992
-0.0489484
4.08157e-06
-0.00206487
0.0104894
0.00367738
0.0107145
0.000980734
-5.48945e-06
-5.2112e-08
-0.00694863
0.0502651
0.000100255
0.00300289
0.00433565
-5.69752e-06
0.000475504
-0.0202166
0.00318795
0.00333148
-0.0036959
0.017995
1.88668e-05
1.6515e-05
0.0271224
0.0340311
0.00402738
0.000867115
0.000853906
-4.20818e-06
1.35322e-05
0.0182491
-4.64339e-06
0.000104401
-5.04858e-06
9.53264e-06
0.0576208
0.00267919
0.000253417
-4.3784e-06
0.0322265
0.000531795
6.96e-06
-4.48491e-05
2.32404e-05
2.40997e-05
0.174837
-0.0108806
-0.01581
0.0620897
-0.0155034
0.000742657
-0.051022
0.00783254
-4.36618e-05
0.000863832
-5.61957e-06
0.000750111
0.000745722
0.0547149
-0.0345934
0.00294215
0.000453168
-2.24822e-07
0.000594779
-2.41943e-05
-0.0157081
0.0023426
1.19642e-05
0.000268875
-1.92053e-06
0.000355438
0.00325686
2.11715e-05
1.65275e-05
0.000927933
2.43214e-05
0.00247829
0.00347583
0.0032893
0.000608733
0.00410547
-1.12549e-07
0.00261778
0.000305606
0.0699983
3.79516e-05
-0.000181069
0.178263
8.20663e-05
-0.291557
0.0222523
0.0594735
-0.0312203
-2.32651e-06
0.0168589
-1.38178e-05
8.85142e-06
-6.76782e-06
9.434e-06
0.000129703
0.00020372
0.000784306
-3.65313e-06
0.0136122
0.00189984
0.0139521
9.61968e-06
-1.79186e-05
-8.84767e-05
0.00302604
-0.0253593
0.00173232
0.000375616
-9.58616e-06
-0.000201597
-1.25271e-05
1.16305e-05
0.0103732
-0.0357309
2.32884e-05
-3.6184e-06
1.42793e-05
1.21565e-05
0.00321668
-0.0215227
0.000634886
0.0195163
-0.00799067
1.56606e-05
0.00377544
0.212975
0.000971496
-0.0405127
3.73865e-05
0.00017566
0.00168902
0.000169597
-0.0119373
1.32252e-05
-0.0122935
-9.96029e-05
0.000625748
0.00861223
-7.20385e-07
6.14508e-05
0.000622606
3.8593e-06
0.000241312
-0.00892391
0.0246806
0.00231172
0.00114577
-0.00264514
-4.09674e-06
9.1853e-06
0.0431875
0.00409966
0.00102195
0.0281489
-4.567e-06
6.95714e-05
2.81121e-07
-0.016682
0.00247342
0.000205216
3.11713e-05
-0.0195923
0.000187467
-8.24935e-05
0.00862253
0.000509151
0.0163784
-5.46035e-06
2.22369e-05
-0.0313243
-0.034234
0.00415927
-2.29702e-05
0.258138
1.37834e-05
-0.00867781
0.00289585
0.00220914
0.000198569
0.0733928
0.000251277
6.44102e-05
0.010113
-0.000159554
-2.71748e-05
7.27619e-05
-4.75993e-07
0.018118
0.000606966
0.00336094
0.000224823
-0.0361387
2.87127e-07
-0.0777123
-4.74724e-05
0.000246864
-2.16353e-05
1.49705e-05
2.14294e-05
0.0339192
1.1314e-05
-1.56515e-07
-0.1041
1.7724e-05
0.00277157
-0.00012934
-5.45838e-05
0.00239165
0.00561922
-0.00163888
2.50307e-06
-0.0279416
0.022747
4.03405e-05
0.0651558
0.000599897
-9.63173e-07
-0.00561927
-0.00555361
-0.015309
0.000241228
4.57277e-06
-2.6514e-06
0.00476859
0.00237299
0.00141949
0.000253113
-0.00386166
2.88754e-05
-4.86768e-05
0.00283342
0.0114656
0.00262316
-0.0264371
2.11173e-05
0.00247373
0.0027455
0.117371
0.000192539
0.000128829
0.00232013
1.78664e-05
-0.12605
0.00236746
0.0178793
0.0302965
0.0311782
-0.00439672
0.0010606
-7.00016e-07
0.000169092
0.00229096
0.0498151
1.25812e-05
-0.000219596
0.00223425
0.00592433
-3.26653e-06
-0.0275249
-4.51968e-06
1.7868e-05
0.0119667
-0.0436903
-0.00510297
8.87913e-06
7.49494e-06
-0.0414006
0.00918216
0.00362769
-1.08979e-05
0.00596479
0.00367053
0.0118032
0.00180842
0.00127181
3.77681e-05
1.89102e-05
0.0232445
0.00157389
-0.00396311
-2.94077e-05
0.00084582
0.0372288
0.0165623
0.00768647
1.44497e-05
0.000651689
6.61525e-06
0.000650725
5.89307e-05
-0.0625729
6.75883e-05
-0.00223365
-2.2401e-06
0.00231144
1.41137e-05
0.0029075
0.000781499
0.000630985
0.0201851
0.00142404
0.000965562
-0.000142338
0.00230645
-0.0864757
0.00131382
0.000106093
-0.0308585
1.93259e-05
0.034187
-0.00101288
2.70748e-05
0.0656144
0.139782
0.00246863
-0.00517622
8.71552e-05
1.36032e-05
0.015663
7.12558e-05
0.0324519
0.00655477
1.00983e-05
8.80376e-05
0.00344808
0.00170484
-0.00315392
2.31638e-05
-1.63167e-05
0.0359971
0.00769115
0.00326364
0.000217098
1.42209e-06
-0.000971696
0.0225501
0.00285243
-2.56494e-07
0.00111242
4.60945e-06
-1.97822e-05
0.0202816
-0.000251186
0.00489876
-0.0178516
1.84631e-05
-5.54274e-05
1.36558e-05
7.65321e-05
-0.0218563
0.00734905
0.000521228
0.00217713
1.45795e-05
0.000515045
1.26065e-05
4.9178e-06
2.60667e-05
1.81325e-05
0.00226248
1.39457e-05
0.00171265
1.46417e-05
0.000252829
0.00525566
-0.0520536
-1.59388e-05
0.0140497
0.00146101
0.00255435
0.000653295
0.000706113
-0.027928
0.000358543
0.00079465
-0.0609065
-0.0712537
-0.00848124
0.00115357
-0.00475188
3.5195e-05
0.00129325
0.00167416
0.00171423
-1.7226e-05
0.00404852
8.73003e-06
1.00202e-05
0.049361
2.31045e-05
0.000185447
0.00021585
6.02004e-06
0.000359764
6.64823e-06
6.7683e-06
2.416e-05
3.44869e-05
0.0116419
1.03693e-05
0.00804603
0.0155961
0.00160468
0.0209287
1.78565e-05
-5.89413e-05
0.00137801
1.75141e-05
6.83981e-06
0.00262052
3.50817e-05
2.27602e-06
3.26567e-05
-0.000214245
0.0014472
-0.0331648
0.00113158
0.0297067
0.0150222
1.4409e-05
0.0481715
0.000442221
1.04774e-05
0.00426066
0.000706704
-0.0247701
1.54566e-05
0.00462888
0.00721629
0.0119222
-1.35599e-06
0.0211727
0.000558648
0.000169277
5.1529e-05
-3.96933e-06
-0.0129347
0.00224
-0.0578725
-9.45459e-07
1.362e-05
-0.345665
2.72699e-05
0.00313912
-0.007536
-0.19746
0.00146453
0.00164072
-0.000206395
1.84869e-05
0.00127165
8.89192e-05
0.000160107
0.00288581
0.00125984
3.53927e-05
1.08507e-05
-0.0188398
1.96543e-06
0.000761583
-0.0098882
0.0301909
0.00463765
2.86923e-05
1.29611e-06
2.80992e-05
-0.0022812
0.00409105
-1.78806e-06
-0.000104758
-1.2671e-06
0.00253935
-3.67428e-06
-1.4933e-06
4.20594e-05
0.000752587
0.00273795
0.000866278
0.000285538
2.06948e-05
0.00171243
0.0281084
6.03845e-05
-0.221369
-0.00308204
0.00269422
-5.65248e-06
0.0014613
1.36824e-05
-0.000173147
2.65625e-05
-0.0204706
0.0036355
0.00523002
0.000165014
-0.00855058
1.28929e-05
-9.37635e-05
2.74819e-05
0.177066
-0.204218
-1.28423e-05
0.000731009
0.00135125
0.00959511
-0.000179547
-0.0646965
0.000222487
-0.0183122
0.00219979
0.145435
0.00286679
0.00261103
0.0024356
0.0110479
0.00621181
-0.0779343
-6.42693e-05
0.00345658
-3.42032e-06
0.000111389
0.000321032
2.60271e-05
0.00972231
0.000479443
0.000393205
-0.00821405
0.00353382
-0.141607
8.72566e-06
0.000144858
0.000228139
9.18884e-06
0.000169128
0.0486291
-0.0261435
-0.0365361
1.2714e-05
0.000364815
-2.12904e-05
-0.00951155
0.0401381
0.00123069
1.5833e-06
3.0447e-05
0.0158148
0.00134338
0.0328483
0.023819
0.0016545
-4.03517e-06
0.0142244
0.000154296
0.00140829
0.000459265
0.0712938
-0.00290372
0.00328138
0.00235524
4.335e-05
6.85079e-05
1.74246e-05
-0.0200554
0.00110759
0.00979382
-0.0143212
0.000310251
0.00394719
8.19768e-05
0.0894622
0.00873052
-9.54251e-05
0.00422262
0.00877924
0.00302878
0.139809
2.37398e-05
1.89426e-05
-0.0322463
0.0278159
0.0134508
4.34985e-05
1.55419e-05
1.87468e-05
0.00301607
0.00424423
3.37691e-05
0.00140281
0.00244686
-0.12133
0.00806934
0.0165204
1.00079e-05
0.199832
0.000211401
1.7454e-05
0.003883
-0.0574982
1.85444e-05
8.06902e-06
-0.0123955
0.086107
0.000272914
1.20429e-05
0.00261548
-8.04832e-05
-0.00135529
1.29656e-05
-0.00994147
1.90726e-05
0.00173689
-0.0267308
0.0433545
7.34203e-05
0.00330952
-0.014445
0.0140587
-0.00111415
-0.0120669
-0.000219094
1.37272e-05
-0.000983879
-0.000162801
8.40079e-06
5.80173e-06
-0.0310387
1.5724e-05
0.00881398
8.53768e-06
-1.05628e-05
-0.0211874
0.00195588
0.00219759
8.75983e-05
0.00434252
5.81702e-06
0.000752299
-0.0156259
0.0675021
8.41774e-06
0.00219712
0.00989867
2.64273e-05
-4.40466e-06
0.0119622
0.000862375
0.000714953
0.00369858
0.0117222
-0.19451
-0.01269
0.134933
-0.00146515
-0.00615611
0.0041663
-0.250553
0.00220339
-3.34227e-05
0.00383645
1.39348e-05
1.71732e-05
-0.0184713
0.0104311
7.04691e-05
0.0838824
0.00257881
-0.0009634
0.00235774
0.00108343
1.63632e-05
0.00287479
0.0156448
-4.46287e-05
7.81301e-05
0.0455934
0.0204131
-0.0303965
0.143093
0.000806694
-0.00222346
0.0543927
0.000722481
2.59831e-05
1.3003e-05
-0.00113956
1.2821e-05
0.00998255
3.72348e-05
4.81475e-05
7.58438e-05
0.0408916
0.126862
0.0333599
3.10884e-05
0.00580588
0.000173709
0.000372736
1.3762e-05
-9.42607e-05
-0.0164878
0.000304401
0.00794018
0.0145278
0.000624797
0.00353807
5.27257e-06
0.000944365
2.71169e-05
0.00430728
8.51308e-06
8.35172e-05
2.93197e-05
2.36219e-05
0.00413046
5.14445e-05
0.00076689
-3.00673e-05
0.000789636
0.00288924
-0.0155702
1.2775e-05
0.00157635
-0.000102818
0.000665651
0.000560186
0.0197151
0.00306447
0.000708644
0.000154802
3.50091e-05
0.016291
1.74169e-05
-0.0312563
6.35419e-06
-6.60375e-07
-4.00005e-05
0.0351321
0.000357971
8.89897e-05
-0.000218579
-0.000175586
0.002211
0.0319733
-0.000887024
0.000967722
1.70661e-05
0.00678625
-3.63956e-05
3.17679e-06
0.00516151
-0.00111814
-0.00013331
0.000410712
0.00161373
0.00927809
3.53466e-05
4.73357e-05
-0.00208559
7.73054e-05
0.0191048
0.0136384
0.174575
1.95777e-05
0.0011294
1.40859e-05
0.0423897
0.00416353
0.00120437
0.00352582
0.0327069
6.77629e-05
0.219076
0.0217879
2.5579e-05
0.0438865
0.0026761
3.57614e-05
-0.0052168
2.0253e-05
1.31687e-05
-3.93862e-06
0.0041416
0.00756048
0.00430418
8.39811e-05
6.26887e-05
0.000602855
-0.00403317
0.0092867
0.131676
0.00798656
4.45444e-05
0.00419894
0.00303582
-0.00725897
0.00214016
0.00607332
1.30292e-05
-0.000189692
-3.84906e-06
-0.000203682
0.000699974
1.39558e-05
-0.0152517
0.0030553
0.000675824
0.000150416
-9.80252e-06
-0.000175954
0.00147511
0.00073864
-0.241506
0.00219722
0.00198695
0.00155679
0.00294731
-0.00408436
0.000232802
0.112551
1.26824e-05
4.02906e-06
0.00900803
0.0305953
-0.0134549
0.000980401
-8.99597e-05
-0.0590329
0.00913817
-6.44224e-07
0.000333958
1.08404e-05
0.0013025
0.00232404
-0.00448677
-0.0252164
0.0160545
8.14118e-05
0.015349
-0.0374356
9.48521e-06
0.00167602
0.0319963
-0.00612872
0.000157953
0.00246268
-4.81323e-06
4.88266e-05
-2.37349e-05
0.00020431
0.083648
0.0097956
-0.190502
-0.338484
8.1296e-05
0.000625732
0.00143217
-0.000116988
2.78732e-05
-3.48899e-06
0.0638871
1.21052e-05
0.150133
0.000722665
0.000538951
0.00295527
0.0106396
-0.0298208
0.0171291
0.00127368
-9.7999e-06
-0.000587793
0.00622787
-0.00768244
0.000216887
9.7227e-06
-3.49906e-06
0.00193679
0.000528488
0.00418361
-0.0141826
7.29973e-05
-4.04515e-06
0.00373953
0.00463025
-0.0469746
0.0275261
1.22581e-05
0.00235966
2.44087e-05
0.0651008
-1.34538e-05
0.00239099
9.72019e-05
6.86114e-05
0.000151394
2.23071e-05
0.000460522
0.000570869
0.00155729
0.0108675
0.023898
0.000247424
0.000523
1.64779e-05
0.0116657
0.0150663
-1.70496e-05
-3.59487e-06
0.00677397
5.35305e-07
0.0115052
-0.000115897
0.000377683
0.00204725
0.00854573
0.000748861
4.00422e-05
1.42706e-05
0.00236867
0.0546498
1.39356e-05
-0.00342257
0.115862
0.359208
0.00561853
0.000586582
-0.00424008
0.000275063
0.00385024
1.26256e-05
0.00365548
0.00486234
0.0371303
0.0250094
-0.0588042
4.82091e-05
0.00225714
7.56198e-06
-0.0565335
-0.00169979
0.0379593
0.00268413
0.000294585
0.00549283
-0.0253806
0.000647379
6.07632e-05
2.13794e-05
0.00813348
0.000231764
0.00228841
-0.00011038
2.76068e-05
5.20213e-06
2.51029e-05
0.0268001
0.010735
0.000546506
0.0174317
0.00177135
3.98136e-05
1.40218e-05
-5.86342e-06
-0.000113962
-0.000198211
0.0108007
0.000212782
1.91635e-05
-0.107605
0.0022455
0.00144333
-0.0414027
0.000499626
0.0812146
0.000621593
0.00022584
1.3201e-05
-0.000123206
0.00231902
0.00954951
0.00277409
0.00451037
0.00211935
0.0304788
7.58329e-05
0.000188573
-0.00019496
-0.11999
0.0304896
-0.0165906
0.00115512
0.000139237
1.78313e-05
1.51852e-05
6.85913e-06
-3.36638e-06
-0.0199096
0.00045225
-0.0155515
0.000550267
0.0197088
0.0197923
0.0238952
0.000260356
0.000304942
0.0102403
0.000852999
-0.146589
0.000886637
3.4952e-06
0.00729911
0.000366074
0.28097
0.00869555
0.000668605
0.000217988
-0.00897949
-2.88111e-05
0.00118955
6.92418e-05
0.0543725
-0.00364523
0.000162543
1.59191e-05
0.00177614
0.0040577
0.00334541
0.00665784
0.00381445
-7.51215e-05
-2.80223e-06
0.0883933
-0.00121713
0.00218334
0.000653262
0.0292918
0.033571
8.02668e-06
1.27754e-05
0.000177832
0.0454122
0.0415607
1.16004e-05
-0.000131319
4.74101e-05
1.34787e-05
2.71476e-05
-0.242876
0.0038579
0.0119631
-0.0148963
6.56042e-05
8.08638e-05
1.2261e-05
0.0598335
3.7343e-05
0.0537461
7.39567e-05
0.0649805
2.99009e-05
1.39287e-05
0.00328178
-0.0180547
0.0101781
0.000758845
-0.00478317
-1.97455e-05
2.12987e-05
1.34297e-05
0.0013628
0.00214983
0.00216321
0.000623341
0.201471
0.00019382
0.00297336
0.00201746
0.0160717
1.55413e-05
0.00853719
0.00601891
0.000247207
0.0292706
0.00217696
0.0597036
2.53585e-05
0.00172531
2.0323e-06
-0.0960655
-0.0529197
0.00169563
0.0724663
7.81228e-05
0.00156459
5.26266e-05
-0.00151328
-1.3896e-05
1.01844e-05
-0.0209562
0.00234425
0.0366451
-0.0173719
0.0021515
0.000429514
-3.9485e-06
-0.0395706
0.00014058
-3.47944e-05
0.00445017
1.46658e-06
0.00141346
1.81445e-05
0.38086
3.23523e-05
0.00283595
0.00640769
0.000133061
0.0033834
0.00151934
0.0683024
1.8971e-05
-0.0320664
-0.0131574
4.45555e-06
1.49908e-05
8.30928e-05
3.21871e-05
0.00107491
1.73241e-05
0.024731
0.00255864
-0.00994771
0.000436888
2.37283e-05
3.97115e-05
-6.1777e-06
0.0421148
2.22947e-05
1.8448e-05
0.0121676
0.000167872
0.0115946
0.0883951
0.00297984
7.90675e-05
0.000679239
7.66887e-05
4.69806e-05
-0.000199957
-2.246e-06
0.000176862
-0.075936
0.0137817
0.00226134
7.33951e-05
0.0164649
0.00209119
3.13256e-05
-0.0264543
0.0732804
1.09745e-05
0.000143576
1.01593e-05
0.0731789
0.0266222
-0.00287244
-3.40723e-06
0.000161317
8.64369e-06
1.67027e-05
0.00354623
2.55713e-05
0.00272384
-0.168134
0.117954
1.89441e-06
0.000167174
0.000141125
0.0511663
-1.00712e-05
0.0221412
-0.0654529
0.0240234
-0.0375415
-0.0941761
0.0166039
4.16829e-06
-0.00564684
0.0154709
5.97732e-05
-3.78042e-06
1.04686e-05
0.0729868
-0.00444703
0.0313095
-0.000168331
0.0792568
2.4949e-05
0.00303275
-6.29567e-06
9.75817e-05
6.22514e-05
1.89064e-06
0.0305611
7.00384e-05
-0.00721396
0.040296
0.0210729
0.00139735
0.00172184
0.0257705
0.0495469
1.25302e-06
-0.00727668
-5.69067e-06
2.34469e-07
1.31354e-05
0.0122098
-6.89134e-06
0.00901306
0.000123437
-0.0227566
0.000688632
-0.0577358
0.0138853
0.00166035
1.52498e-06
0.00147302
0.00211509
0.0304451
1.55733e-05
-2.24496e-05
4.70713e-05
-0.0121248
1.9139e-05
-0.00341674
-0.0011677
0.00129145
0.0018763
1.66077e-05
0.00342685
3.29753e-05
0.00104353
-8.74526e-07
-0.00101312
0.000697437
1.94387e-05
0.00364326
0.0197672
-1.86765e-06
0.00222953
0.000173548
0.0261094
0.00836665
0.00060459
-0.00365436
3.5182e-05
0.00143528
0.0193781
3.19338e-05
0.0112275
1.69315e-05
0.00254426
0.000751146
-0.016574
0.0090599
2.09403e-05
0.00896887
6.9361e-05
0.00140117
0.0401009
-0.00456657
0.000646079
0.0113397
0.00375815
1.61532e-05
0.000549389
0.00403585
0.000648672
5.8203e-05
0.0228114
-2.61377e-06
0.364826
-0.00134834
0.00269516
8.99315e-06
0.000245309
0.00953675
0.0014228
0.0144135
4.94972e-05
0.000148409
0.00224937
0.0261904
0.000325374
0.0483071
-0.0232337
0.0138633
2.7412e-05
0.0248316
-0.000423533
0.0338681
9.5071e-06
-0.000313845
1.72352e-05
0.0547405
0.000162652
0.00175789
-0.00253809
3.74575e-05
-4.87603e-06
1.02631e-05
0.035597
0.0169155
0.0905871
0.0163529
1.21436e-05
0.0089952
0.0832312
0.00395825
0.00187013
0.0103169
0.000546726
0.371664
0.000132144
0.000297514
0.0725604
0.0567751
0.000265443
0.103645
2.92246e-05
1.45447e-05
-0.111147
0.0107849
0.287137
-0.0740525
0.00052346
3.69416e-05
3.65081e-05
0.195218
0.0180453
1.36604e-05
0.00150181
0.0284192
1.30007e-05
2.3723e-05
0.156492
0.0372417
9.08517e-05
8.05857e-06
5.53683e-05
5.67371e-05
-0.280349
3.21019e-05
8.07297e-07
0.000225575
0.00280171
0.0584178
0.00361963
0.0130269
2.15858e-05
0.000157935
0.0157177
0.0635162
0.000305187
0.00274601
9.75641e-06
0.000937932
4.10433e-05
0.000457206
0.00192461
3.5224e-06
-0.0243535
0.000543969
3.76056e-07
0.000142058
-0.000406625
-0.0167114
0.000175921
1.39957e-05
3.8661e-05
0.0874754
-0.0208897
0.000176993
1.41632e-05
6.79515e-06
-0.00443824
2.44038e-05
-3.58183e-05
0.000391909
1.51526e-05
0.0127632
0.00218919
3.45665e-05
0.000162149
-4.05041e-06
2.55666e-05
0.00952495
0.0777091
0.00231303
0.00662047
0.000266116
4.05965e-05
1.03789e-05
2.01015e-05
1.69686e-05
3.22973e-05
1.36733e-05
0.00170008
0.0367869
1.34431e-05
0.00304627
0.00609986
-0.0149438
1.73498e-05
1.04084e-05
0.000139852
-0.0286002
1.61771e-05
0.0023416
0.00987669
0.000463048
-9.79904e-05
-0.0356783
-2.50467e-05
0.00516786
-3.92343e-06
-2.18774e-05
1.97415e-05
-2.54467e-06
-0.000243866
0.050714
0.0028671
0.00102602
0.0398973
-3.82584e-05
-0.00171729
0.000719256
0.0116163
-0.00138709
0.00288355
0.00917084
0.145117
0.00344077
0.00116781
3.45332e-05
5.94391e-07
-0.0429976
1.30363e-05
0.000171713
-0.0513378
0.00742643
-0.0255331
0.00289707
3.82309e-06
-6.807e-05
2.26304e-05
0.00179664
-7.82442e-06
0.0286609
0.0386003
0.0495859
0.0421735
2.30511e-05
-3.62504e-06
0.00236158
0.0673775
0.0111313
0.00281756
0.00278784
1.03052e-05
-0.000351854
0.00552217
-0.00295298
0.000104614
2.41735e-05
-1.95145e-05
7.04955e-05
2.27853e-05
1.91539e-05
0.000158319
0.012744
0.00252022
0.00836605
0.0105537
0.000705768
0.00487987
1.24331e-05
-4.17455e-05
9.04607e-06
-7.13676e-06
3.2506e-05
0.107707
-0.00469992
-0.00657572
0.0745274
0.000136536
0.0193384
0.00309469
0.0537619
9.15721e-06
2.44427e-05
-1.85025e-06
0.0482289
2.36016e-05
-2.27782e-06
-0.00302594
0.0118812
-0.0158004
1.73072e-05
2.29377e-05
4.38761e-05
0.000935499
-0.00545739
-5.70038e-06
7.3749e-05
0.00422713
-4.79653e-05
-0.00667746
0.000900898
-0.0530067
3.56758e-05
0.0154107
0.0566807
0.000691363
0.197914
0.00316456
0.0074895
-1.59751e-05
0.000191984
7.27248e-06
0.000469859
-0.235132
-0.0001863
-0.0350966
1.02978e-05
2.32344e-06
7.20895e-06
0.0544898
0.0014427
0.00315813
-8.86714e-05
-5.01095e-06
0.00103818
0.0200258
0.00150033
5.69718e-07
-4.98063e-07
2.39546e-05
0.000954112
1.34239e-05
-4.55307e-07
0.05146
0.145239
0.0477448
0.00624388
0.00272334
0.0195155
0.00226441
0.0819681
0.00308521
-1.52328e-05
-0.000121269
8.46204e-07
2.82204e-05
0.188206
0.14524
-1.94303e-06
-0.0591684
0.0200353
0.00055318
1.97501e-05
7.24851e-05
0.0186188
0.132643
0.01151
0.0186826
0.00998667
1.97e-07
0.00513228
0.00275433
-0.00575937
0.107231
1.26886e-05
0.00394427
0.0204947
0.000566123
0.0489863
3.3121e-05
0.0378453
0.0207945
7.14602e-05
0.00245703
0.000564725
-0.0216682
0.00416021
-0.00340722
0.0188051
0.0143779
0.00344759
0.0353247
2.37488e-05
-4.48023e-05
0.00155553
-0.00793052
0.00146992
0.00776405
-4.4097e-05
0.002844
0.00167493
-9.71432e-05
0.142925
1.16262e-05
0.00388389
0.00377625
1.01283e-05
-0.0754655
-0.000533871
0.00338745
0.0237083
0.000671065
0.0395206
1.23256e-05
0.179676
2.07576e-05
-5.6051e-05
0.00127945
0.000157158
0.00351259
0.000175961
4.95541e-05
0.000168135
-2.17559e-06
-0.00489371
8.87685e-05
0.00349375
-0.000529828
2.8083e-06
0.00125161
0.0028121
2.55947e-05
0.0279405
0.0109577
9.31077e-06
0.00239646
5.0287e-05
0.02308
-0.00224332
3.12107e-05
0.00365161
9.32943e-05
0.163598
0.00769556
0.00237028
-0.0300171
0.00010906
6.4195e-06
-0.0596109
0.000180978
1.64405e-05
-0.0160167
0.00128298
1.07511e-05
6.92947e-07
0.00309107
7.91107e-05
0.00125409
0.00508649
0.00528507
0.0543427
0.00173368
0.00191113
1.28445e-05
0.153364
-0.0080067
0.0321306
9.41833e-06
-4.52158e-06
0.00233196
0.000487968
0.00156571
1.70049e-05
0.0278885
1.23437e-05
0.0023676
-2.66973e-05
0.00433296
0.00303297
0.00347644
0.00516141
-0.00988625
0.0645059
0.00954509
6.93109e-08
0.0015862
0.00177177
-3.99403e-05
-2.97092e-05
0.0029364
-0.042048
0.0354057
0.00356941
0.00185666
-0.0223331
0.14021
0.00149434
0.0122119
1.61771e-06
0.00155452
0.0014088
1.17719e-05
0.00240318
0.0398219
0.0114298
0.0263257
-0.00868297
1.35799e-05
6.80838e-06
0.000266597
1.2013e-05
0.039539
-5.2309e-06
3.9658e-06
0.113989
0.0101281
0.000405552
0.0028957
-0.000112235
0.00233226
-0.00737213
0.00501694
-0.00343616
0.000287813
0.00674675
3.0904e-05
-6.36186e-06
0.000126358
0.0104964
0.00815934
0.00590349
0.0106169
6.58521e-05
3.48439e-06
1.24401e-05
3.47341e-05
0.000355588
0.0687282
0.00219176
0.000440028
0.150038
0.000287376
0.0136634
-0.100638
1.48725e-05
0.00053999
-0.000293838
1.20854e-05
0.0012036
0.000345392
0.00017042
-0.0389008
0.00371373
-5.90566e-06
0.00124075
0.000504812
0.00201172
0.0384817
-0.0558753
0.115188
1.8229e-05
0.00273097
0.0759841
0.00267289
0.00359232
-0.024833
0.0214068
0.259649
0.0705582
-4.58348e-06
0.036723
-6.19416e-06
5.75738e-05
1.56153e-05
0.00190452
0.206263
-0.0379744
0.0212567
0.0495691
0.00177752
-1.29832e-06
9.98124e-06
2.36502e-05
8.20832e-07
0.00143535
0.108301
0.0380062
0.00256287
-0.18544
2.8283e-05
0.00174959
4.18799e-06
0.000678908
0.00159181
1.76675e-05
0.0029786
0.00284726
0.0837856
0.0116739
0.00298876
-0.0133813
0.000188219
0.0316321
0.00819853
0.0578799
-0.00410856
3.26804e-05
0.00171051
2.09365e-05
0.0576209
-0.0114315
0.00114088
0.0525491
0.0111299
0.0318839
0.00202666
0.00342984
0.00081837
1.18037e-05
0.00373247
0.00157003
0.000182079
0.0016755
0.00058907
0.000643581
0.0527307
0.00422458
8.44321e-05
0.000489829
0.000981992
0.000528588
1.95381e-05
-0.0452889
0.00291971
-0.00639592
0.0281679
1.64685e-05
0.00365396
7.36253e-06
7.67674e-05
0.000108717
0.00490466
0.000817157
-0.00773826
-0.0935676
0.00183922
0.000303667
0.00357896
-0.0398721
0.00407667
-0.0326748
-5.53361e-06
0.00149857
-2.05599e-05
-0.00209383
-0.00117495
-1.73636e-05
-0.000196077
0.000769112
0.000310397
0.000164492
0.00160099
0.00124024
2.61999e-05
0.00060475
-0.224736
0.130667
0.00149545
0.00128838
-6.02804e-06
-0.028134
0.000747904
0.00218354
-0.109371
0.00140391
0.0197264
-3.03778e-06
6.24343e-05
7.59729e-05
0.000560314
1.58494e-05
-0.00170706
-0.00094039
0.00377047
0.000749715
0.150548
0.0103198
0.000295823
-0.0442282
0.00224899
0.00967824
0.0560177
0.00084117
0.000167997
0.00128395
0.00206875
1.12518e-05
0.00386582
0.00824819
0.00461623
1.16697e-05
0.00997939
0.00384105
0.0603552
1.29232e-05
0.00143737
5.51419e-07
0.000512936
-0.00252629
0.000458946
0.00046471
1.0747e-05
1.2263e-05
0.0124989
0.0110744
2.04299e-05
0.0842529
0.0073885
-1.48255e-06
0.000158314
-0.00295907
0.00288957
0.00288138
1.38868e-05
0.000359988
0.00254152
-0.000209264
1.31565e-05
-0.117392
0.000501634
-0.00112863
0.00271281
0.000319025
0.272395
0.00279963
0.00305793
1.16979e-05
0.00080129
0.000617936
0.000338522
-0.0462295
0.0012662
2.63421e-05
0.00233877
0.000202322
-3.36629e-05
-3.41488e-06
-0.235472
1.66124e-05
0.00157196
0.000898457
0.00273038
-1.74571e-06
0.000668725
0.000646551
0.0594388
0.00315907
0.00920124
0.00271102
0.000941101
5.91325e-06
0.00248327
0.000280734
1.3369e-05
0.00314382
0.0418204
0.00025094
-0.00154604
0.000140079
0.0023412
0.0108485
0.000316014
0.00231532
-0.383338
0.0639763
-0.0274759
0.00209198
0.00233809
3.24539e-06
0.00153858
0.000674892
-0.0066834
0.024309
0.00154439
-0.0396397
0.0449863
1.20774e-05
-0.020606
8.95058e-06
6.65129e-05
2.49165e-05
-0.000485154
0.00300614
0.00161829
1.34122e-05
-0.21
0.000375753
0.00438244
2.02424e-05
0.0016262
0.000626715
0.00238889
0.00122253
0.00307296
9.80895e-05
0.00333968
0.00295
1.19837e-05