/*--------------------------------*- C++ -*----------------------------------*\
| =========                 |                                                 |
| \\      /  F ield         | OpenFOAM: The Open Source CFD Toolbox           |
|  \\    /   O peration     | Version:  v2012                                 |
|   \\  /    A nd           | Website:  www.openfoam.com                      |
|    \\/     M anipulation  |                                                 |
\*---------------------------------------------------------------------------*/
FoamFile
{
    version     2.0;
    format      ascii;
    class       surfaceVectorField;
    location    "550";
    object      ddtCorrDdt0(Uf);
}
// * * * * * * * * * * * * * * * * * * * * * * * * * * * * * * * * * * * * * //

dimensions      [0 1 -2 0 0 0 0];


internalField   nonuniform List<vector> 
20537
(
(0.000170869 -0.00109259 -3.54394e-20)
(0.000116952 -0.00112756 -7.17502e-19)
(0.000189931 -0.00117246 -6.95784e-19)
(0.0117618 -0.0302292 -2.3312e-18)
(0.0149729 -0.0279005 7.22499e-19)
(0.0112982 -0.029317 -9.31907e-19)
(-0.00180036 -0.00141846 -2.26992e-19)
(-0.00177714 -0.00127404 1.39177e-18)
(-0.00192479 -0.00128876 2.31644e-18)
(2.64066e-05 -0.00106028 7.45496e-19)
(6.55654e-05 -0.00110144 5.07419e-20)
(-7.9249e-06 -0.00109295 3.45904e-19)
(-0.0011739 -0.00326296 -3.10674e-18)
(-0.00124595 -0.00315496 3.34339e-18)
(-0.00112842 -0.00315588 1.23832e-18)
(-0.0098255 0.00522747 -2.36399e-19)
(-0.00993274 0.00220803 -6.20388e-20)
(-0.00789866 0.00357238 2.74103e-21)
(0.000524902 -0.000337047 1.09076e-18)
(0.000538641 -0.000352241 -7.45706e-18)
(0.000545222 -0.000337923 2.1266e-18)
(-0.000708386 -0.00142826 2.59655e-18)
(-0.000632663 -0.00147058 4.90581e-19)
(-0.000735142 -0.00152642 -1.23717e-19)
(-0.0015718 -0.000425006 -6.55855e-20)
(-0.00159809 -0.000443664 7.60986e-20)
(-0.00160086 -0.000414167 -6.29258e-20)
(-0.000868142 0.000899637 -6.65704e-18)
(-0.000626648 0.000765653 -1.1207e-18)
(-0.000878921 0.00062642 -2.19388e-18)
(-0.00287813 0.0101705 -2.26918e-18)
(-0.00206616 0.0142941 -5.32275e-19)
(-0.00277157 0.0172542 -5.74537e-19)
(-0.0107179 0.0100635 -2.22459e-19)
(-0.00987889 0.00903711 9.9082e-19)
(-0.00786806 0.00978512 2.66498e-20)
(-0.000686193 -0.00587294 -3.05451e-18)
(-0.00137404 -0.0054754 7.82911e-18)
(-0.000435174 -0.00584779 2.30308e-18)
(0.00378615 0.00190599 -3.03447e-18)
(0.00431276 0.00161724 1.91524e-18)
(0.0027701 0.00143152 9.74956e-18)
(0.000171025 -5.11417e-05 -2.34647e-18)
(0.000180167 -4.74498e-05 -4.48662e-19)
(0.000179534 -5.97167e-05 4.46222e-18)
(-6.62989e-05 -0.000825475 2.25485e-18)
(-7.71593e-05 -0.000850491 -7.38841e-19)
(-8.27436e-05 -0.000824531 3.97048e-18)
(0.000280894 -0.00106216 -8.35501e-19)
(0.00027702 -0.00102312 -2.66083e-18)
(0.00030809 -0.00104845 4.47137e-19)
(0.00061829 0.000133253 -5.86407e-19)
(0.000514634 7.83848e-05 -2.52949e-19)
(0.000529463 0.000230113 6.06266e-19)
(-0.00293861 -0.00476882 8.80677e-19)
(-0.00302657 -0.00464715 -8.44573e-18)
(-0.002603 -0.00462184 -6.6547e-18)
(-0.00154609 -0.000407027 1.00504e-19)
(-0.00154277 -0.000436226 -2.51647e-20)
(-5.3213e-07 -0.00102645 5.20754e-19)
(5.26972e-05 -0.00103182 -4.4143e-20)
(-0.00168236 -0.00158358 -1.53689e-18)
(-0.00186922 -0.00161898 -4.22617e-19)
(-0.000885441 5.67124e-05 1.31003e-19)
(-0.000897182 6.22352e-05 2.13898e-19)
(-0.000957628 7.28263e-05 -1.42804e-19)
(-0.00135081 -2.72684e-05 -2.70445e-20)
(-0.00115133 -1.50172e-05 -1.43414e-19)
(-0.00139601 -2.60867e-05 -3.80182e-20)
(-0.000855212 3.34809e-05 5.15691e-20)
(-0.000720283 3.49985e-05 1.0884e-19)
(-0.000690929 -0.00133802 -6.20554e-19)
(-0.000784434 -0.00137115 -2.23015e-19)
(0.000778384 -0.00126778 1.10821e-20)
(0.000787751 -0.00123017 -6.28996e-19)
(0.000747345 -0.00123263 1.21034e-18)
(0.000533067 -0.00293428 -1.0592e-18)
(0.00129681 -0.00444979 1.20112e-17)
(0.000169558 -0.00103739 -2.57443e-19)
(0.000232127 -0.00106539 2.21945e-19)
(0.000194873 -0.000445708 2.69086e-18)
(0.00017562 -0.000457984 1.55105e-18)
(0.000187221 -0.000427386 3.56308e-18)
(-0.00921378 0.00792808 3.18679e-19)
(-0.0124741 0.00758242 2.28059e-18)
(0.000249898 -0.00106582 3.59901e-18)
(0.000280338 -0.00110038 -5.73256e-18)
(-0.00161751 -0.00123113 3.93214e-19)
(-0.00173716 -0.00108504 -1.88295e-18)
(-0.000418823 -0.0426576 2.11073e-18)
(0.00230086 -0.0481531 7.22842e-20)
(-0.00292458 -0.0481807 5.56471e-19)
(-0.00132354 -2.83201e-05 -1.95551e-19)
(-0.00141209 -4.46993e-05 1.31393e-19)
(0.000494393 -0.00595099 -8.18036e-19)
(0.000597009 -0.00599901 7.9444e-18)
(0.000640837 -0.00608038 4.2395e-18)
(-0.00141563 -0.00649798 3.35748e-19)
(-0.00125058 -0.00641114 2.14182e-18)
(-0.00116222 -0.00649956 -3.89932e-18)
(-0.00346406 -0.00301986 8.27176e-19)
(-0.00340016 -0.00326871 6.94382e-18)
(-0.00329322 -0.00300411 2.2042e-18)
(-0.000852371 0.00113212 8.39356e-19)
(-0.00113115 0.000973992 -2.51625e-18)
(0.000192945 -0.0353506 9.45072e-20)
(-0.00298528 -0.0328441 2.72298e-18)
(-0.000144106 -0.000544614 4.72394e-19)
(-0.000142442 -0.000562515 8.8129e-19)
(-0.00012353 -0.000551105 -4.15509e-19)
(-0.000336022 0.000593138 2.22025e-20)
(-0.000364408 0.000583767 -1.39081e-20)
(-0.000335111 0.000556928 -6.42142e-21)
(2.03542e-05 6.51725e-05 -1.10995e-18)
(5.73648e-05 0.000170799 -3.05164e-18)
(0.000265591 0.00012879 5.63252e-18)
(0.00318812 0.017859 -1.49369e-18)
(0.00432347 0.022592 7.14981e-19)
(0.00173588 0.0208472 2.69602e-19)
(0.00216343 0.0123633 4.43489e-20)
(0.00467378 0.0148411 -6.74516e-19)
(0.000657638 -0.000763163 -1.17108e-17)
(0.00217423 -0.00101766 6.63087e-19)
(0.0025403 -0.00101218 -5.30374e-18)
(0.0122332 0.0171723 -5.82805e-19)
(0.00977274 0.0171131 7.44641e-19)
(0.00973862 0.0133592 -1.18681e-18)
(0.0409371 -0.0245493 -5.77899e-19)
(0.0450208 -0.0273206 -1.69196e-18)
(0.0506967 -0.0190447 9.93139e-20)
(0.000766851 -0.00130597 -2.17579e-18)
(0.000809585 -0.00130244 3.90135e-18)
(0.00130009 0.0136434 -2.36157e-19)
(0.00244421 0.0107633 -4.77197e-19)
(-0.00101489 0.0130606 5.15691e-21)
(-0.000109497 -0.00391318 4.72278e-18)
(-0.000113541 -0.00405964 -1.29671e-18)
(3.5753e-05 -0.00396776 3.84698e-19)
(-0.00102569 -0.00464905 -2.23403e-18)
(-0.000913724 -0.00462416 9.38432e-19)
(-0.000973136 -0.00476124 6.30026e-18)
(-0.00111401 -0.004058 4.45134e-18)
(-0.000922388 -0.00384651 8.39046e-18)
(-0.000847811 -0.00423084 4.31102e-18)
(0.000154682 -3.78428e-05 -5.70681e-19)
(0.000143451 -2.76438e-05 -1.06104e-18)
(0.000146029 -4.48113e-05 -2.85663e-18)
(-0.000336141 -4.06566e-05 -6.94136e-19)
(-0.000318542 -3.47988e-05 -1.65053e-18)
(-0.000317034 -5.73708e-05 -1.352e-18)
(-0.000306959 0.000602824 6.98401e-21)
(-0.000339177 0.000631071 -7.38387e-21)
(-0.00162435 1.41627e-05 -1.2243e-19)
(-0.00163879 1.07076e-05 1.61861e-19)
(-0.00160974 1.15857e-05 6.9729e-20)
(-0.00257821 -0.00467101 7.34161e-18)
(-0.00307887 -0.00427318 -1.01481e-17)
(-0.00285607 -0.00496334 1.17821e-17)
(0.000202245 -0.000467224 -8.78448e-19)
(0.000215634 -0.000441487 -6.02548e-19)
(0.000494685 -0.000431717 -3.37128e-18)
(0.000489391 -0.000415207 -1.17666e-18)
(0.000510382 -0.000423628 5.86771e-18)
(-0.00378476 -0.00304269 -6.05132e-18)
(-0.00351223 -0.00279164 -1.44627e-18)
(-0.00786908 -0.00371166 -1.4733e-18)
(-0.00799234 -0.00360115 -5.44005e-18)
(-0.00456679 -0.00323551 5.14664e-18)
(0.00402807 0.00354962 3.85738e-19)
(0.00497726 0.00325516 6.49559e-20)
(0.00406806 0.00260306 8.06706e-19)
(-0.00121628 -0.00359157 -2.57914e-18)
(-0.00129513 -0.00349588 -3.41415e-18)
(-0.00133538 -0.00361111 -6.75767e-18)
(-0.00529447 -0.00792104 5.7144e-20)
(-0.00643729 -0.0064466 -5.85723e-20)
(-0.00467023 -0.0063731 9.3759e-19)
(8.1459e-05 -0.00151276 -5.57904e-19)
(1.11167e-05 -0.00141953 -1.63952e-19)
(-4.27927e-05 -0.00154247 -5.46854e-19)
(-0.000915684 -0.00642168 -2.62232e-19)
(-0.000987536 -0.00657994 -7.7599e-19)
(0.0160442 0.0167695 -3.33158e-19)
(0.0140767 0.0172213 2.15218e-18)
(0.000597829 -0.00233694 -2.74921e-18)
(0.000530892 -0.00229452 3.54805e-18)
(0.000593604 -0.0022514 -4.28749e-18)
(0.000684125 5.09826e-05 -3.02531e-19)
(0.000746579 0.000201517 -5.37064e-19)
(-0.0213453 -0.00104056 9.40046e-19)
(-0.0212263 -0.000847603 3.46085e-18)
(-0.019741 -0.00075993 -9.92094e-19)
(0.00330039 -0.0072904 -5.84435e-18)
(0.00358085 -0.00735955 -3.91966e-18)
(0.00134008 -0.00708875 -3.6464e-18)
(0.00925323 -0.0313689 4.30701e-18)
(0.0108351 -0.0297641 -6.06668e-18)
(0.000163791 -4.38305e-05 -1.78295e-18)
(0.000162338 -3.07802e-05 2.16663e-19)
(-0.000386895 -8.49605e-05 2.81101e-19)
(-0.000365861 -9.52543e-05 -9.94475e-19)
(-0.000385219 -0.000104946 3.66659e-19)
(-0.0017209 -0.000677343 5.07382e-20)
(-0.0017533 -0.000664387 -1.05966e-20)
(-0.00171715 -0.000641176 -2.30491e-20)
(-0.0016304 -0.00168567 8.84393e-22)
(-0.00156617 -0.00155152 1.447e-18)
(-0.0153552 -0.0012883 -1.09171e-18)
(-0.0158515 -0.0014977 9.85869e-18)
(-0.0151197 -0.00131779 -3.58396e-18)
(-0.000286179 -0.00244386 4.10537e-18)
(-0.000302212 -0.00254116 -3.70767e-19)
(-0.000380273 -0.00246291 -1.27739e-18)
(-0.0225482 -0.000916767 1.27346e-18)
(-0.0216805 -0.000763638 3.33247e-18)
(0.000522267 -0.000593008 1.55857e-18)
(0.00049488 -0.000577697 4.4206e-18)
(0.000511358 -0.000567147 6.06353e-19)
(0.00222028 0.00352628 -1.61533e-19)
(-0.00118417 0.000159301 -4.6177e-21)
(-0.000261339 -0.00111398 -1.58899e-19)
(0.000146783 -0.000271685 2.33373e-18)
(0.00014848 -0.000284681 6.11854e-18)
(0.000133892 -0.000275202 4.92506e-18)
(0.000976464 -0.000385625 7.9673e-19)
(0.00213301 -0.000421619 3.7249e-18)
(0.000545018 -0.00012757 -1.27313e-18)
(0.00315036 0.00371115 -3.59137e-19)
(0.00384063 0.00450365 -2.37386e-19)
(-0.0110131 0.0109431 1.70241e-19)
(-0.0117073 0.0103089 4.45012e-19)
(-0.00280193 0.00394191 1.53121e-19)
(-0.00428982 0.00419314 -6.0375e-20)
(-0.00339281 0.00292596 1.7152e-19)
(0.0136999 -0.00658575 -7.44475e-20)
(0.0118824 -0.00788945 -1.21478e-18)
(0.011511 -0.00553067 -2.45364e-19)
(0.000490383 -0.00128544 -6.47913e-19)
(0.000449565 -0.0012696 -6.85325e-18)
(0.00046387 -0.00132783 1.39882e-18)
(-0.00213774 0.000444393 4.02824e-20)
(-0.00214193 0.000461913 1.59475e-21)
(-0.00215417 0.000438876 -4.2016e-20)
(0.000463944 -0.00585057 -1.80307e-17)
(0.000387836 -0.00590547 -5.92706e-18)
(0.000574804 -0.00540068 -2.77571e-19)
(0.00143053 -0.00591689 -4.99095e-19)
(0.000297004 -0.00616035 1.24466e-19)
(0.0180732 0.0188098 -5.62219e-19)
(0.000436959 -0.00153226 -8.88401e-18)
(0.000394712 -0.00154284 -3.42951e-18)
(0.000429594 -0.00159416 1.25657e-19)
(0.000524023 -0.0012653 -4.77448e-18)
(0.000536137 -0.00131865 -3.15775e-19)
(-0.00148616 -3.44768e-06 2.2081e-19)
(-0.00149153 3.98409e-06 2.84287e-19)
(-0.00159259 5.0999e-06 4.80932e-21)
(-0.00124524 -0.00337836 2.01775e-19)
(-0.00110895 -0.00337671 2.16557e-18)
(-0.0107936 -0.00379601 1.70715e-18)
(-0.0110346 -0.00353939 2.75196e-18)
(-0.0113108 -0.00358087 5.09945e-18)
(-0.00244537 0.0168869 -5.49875e-20)
(0.00286829 0.0134651 -8.73674e-20)
(-0.00120005 -5.09423e-06 -2.10354e-20)
(-0.00147227 -2.76956e-06 -1.33529e-19)
(-0.000985203 0.00248916 2.07431e-19)
(0.000493732 0.00302443 6.54257e-18)
(-0.000220149 0.0027872 2.57943e-18)
(-7.00865e-05 -0.00298709 6.42046e-19)
(1.55378e-05 -0.00304906 5.58771e-18)
(2.2336e-05 -0.00293435 2.04977e-18)
(0.000194625 -0.000653394 5.39317e-19)
(0.000224069 -0.000647567 -9.36426e-20)
(0.000218442 -0.000673086 1.46822e-19)
(0.00123904 -0.00118466 -1.36081e-18)
(0.00127015 -0.00121962 5.26397e-18)
(-5.71781e-05 4.12278e-05 3.35602e-20)
(-5.44742e-05 6.39301e-05 3.78555e-21)
(-3.19379e-05 4.12556e-05 2.29812e-21)
(-0.000538231 0.00590082 -2.4539e-19)
(0.000889504 0.00646494 -1.41553e-19)
(0.000454303 0.00474988 1.21489e-19)
(0.000109988 -0.00331358 8.48458e-18)
(1.50848e-05 -0.00325564 -6.53107e-18)
(-7.30537e-06 -0.00338783 -2.97005e-18)
(-0.000114763 0.000448818 -6.14886e-21)
(-0.000143162 0.000444927 -1.58451e-20)
(-0.000117964 0.000415104 4.78017e-21)
(0.00324596 -0.00781816 -1.04161e-18)
(-0.00164847 -0.00775837 -1.94662e-18)
(-0.0117732 0.00082157 2.93436e-19)
(-0.00912233 0.000176911 1.1216e-20)
(-0.00140635 -1.6052e-05 1.56781e-19)
(-0.00114275 -5.46929e-06 -6.7653e-20)
(-0.00140725 -1.36637e-05 -1.78824e-19)
(-0.00212502 0.000415024 -1.30554e-20)
(-0.00211918 0.000481707 1.99449e-20)
(-4.21096e-05 -0.00504085 -3.16456e-20)
(0.000824881 -0.00478789 1.54808e-19)
(-0.000822207 -1.53121e-05 -8.92807e-20)
(-0.000831753 -5.163e-06 -9.04906e-20)
(-0.00150715 -2.16096e-05 1.50724e-19)
(-0.00138224 -1.47214e-05 -1.46776e-19)
(0.00781519 -0.0602663 2.94212e-19)
(0.0184783 -0.05658 7.42817e-19)
(-0.0105387 -0.00415245 6.89646e-19)
(-0.0102501 -0.0040898 1.44699e-18)
(-0.000297785 0.00032672 -4.33864e-21)
(-0.000314885 0.000346849 -3.5255e-20)
(-0.000284404 0.000348694 3.11863e-21)
(-0.000828763 -3.92621e-05 4.75277e-19)
(-0.00084938 -3.6037e-05 6.52411e-19)
(-0.000715404 -1.789e-05 2.71216e-19)
(-0.000390422 -4.36635e-05 -7.43258e-19)
(-0.000405197 -2.68736e-05 1.42839e-20)
(-0.000378782 -2.11898e-05 -9.0169e-19)
(-0.000205531 -4.66713e-05 -1.45321e-18)
(7.02711e-05 5.93087e-05 -3.80123e-18)
(0.00117962 -0.0012009 -8.74378e-19)
(0.00119165 -0.00114179 -4.65961e-18)
(-0.00100485 -0.0058069 -6.88834e-18)
(-0.00206848 -0.00598257 2.47944e-18)
(0.00244959 -0.0508391 1.20698e-18)
(0.0356313 -0.0231776 3.42593e-19)
(0.0282843 -0.0302114 6.61645e-19)
(0.000670089 0.00162335 -2.56649e-20)
(0.000412658 0.00124721 1.95364e-20)
(0.000844988 0.00111192 2.06785e-20)
(0.0294778 -0.0218808 1.0808e-19)
(0.0424802 -0.017574 -1.65403e-18)
(-0.000170715 -0.00268478 2.36907e-18)
(-0.000129541 -0.0027523 5.27392e-18)
(-0.000238511 -0.00274435 4.6793e-18)
(-4.06014e-05 -0.000990578 -8.76666e-20)
(-6.65737e-05 -0.00103424 -4.26673e-19)
(-0.00226693 -0.00360718 1.20856e-18)
(-0.00214296 -0.00360396 1.82978e-18)
(-0.00224118 -0.00376013 1.92852e-18)
(-0.000163555 -0.000537473 -1.0092e-18)
(-0.000145394 -0.000526209 6.25526e-19)
(-0.00107667 -0.000302867 4.44511e-19)
(-0.00105996 -0.000321464 1.24905e-20)
(-0.00104739 -0.00029794 -1.83328e-19)
(-0.0213273 -0.00106262 -9.40638e-21)
(-0.0214774 -0.00114634 -7.87026e-18)
(0.000158153 -0.000266025 -1.80355e-18)
(0.000142221 -0.000256617 -3.37695e-18)
(0.00833856 -0.0623498 -4.38809e-18)
(-0.00100255 -0.000117618 -3.80447e-19)
(-0.00102555 -0.000114272 -1.34727e-19)
(-0.00101987 -9.26958e-05 -7.67857e-19)
(-0.000281205 0.000302181 -4.1011e-22)
(-0.000314153 0.000298563 -1.1254e-21)
(0.00291796 -0.007055 7.27954e-19)
(0.00243683 -0.00695124 6.49677e-18)
(0.000777311 -0.00675604 3.04204e-18)
(0.0019043 -0.00325139 -5.30943e-18)
(0.00122688 -0.00302322 -1.00588e-18)
(0.0014048 -0.00346147 4.2298e-19)
(0.00833857 -0.00293378 -7.30621e-19)
(0.00949036 -0.00273052 -5.95725e-19)
(0.00863035 -0.00319993 8.25691e-19)
(-0.00179445 0.0019827 -4.09457e-18)
(-0.00183876 0.00174124 -9.69402e-18)
(-0.000355173 -4.96803e-05 -3.19754e-20)
(-0.000348693 -3.07589e-05 1.37802e-18)
(-0.00168012 -0.00170238 1.07355e-20)
(-0.00154963 -0.00177585 -8.45156e-20)
(-0.00171041 -0.00190731 1.03035e-19)
(-0.000812081 0.000861535 1.61422e-20)
(-0.000813124 0.000837021 -1.9332e-20)
(-0.000844646 0.000862752 3.70843e-19)
(0.000258587 -0.000748934 1.62955e-18)
(0.000253171 -0.00077047 4.72463e-18)
(0.000273186 -0.000764414 1.89375e-18)
(0.00728738 0.02354 2.96201e-19)
(0.00517323 0.0261984 -7.62735e-19)
(-0.00245084 -0.000105959 -2.00153e-19)
(-0.00267812 0.000637387 2.10556e-20)
(-0.00181069 0.000248132 -4.63058e-20)
(-0.00244722 -0.00361073 -1.822e-18)
(-0.00234041 -0.00344518 -2.69347e-18)
(0.000509446 -0.000317535 -5.32397e-19)
(0.000500568 -0.000332368 -5.91493e-19)
(0.000145737 0.00936567 8.09138e-19)
(0.00130104 0.00663494 -8.58591e-20)
(0.00141304 -0.00454881 -4.96207e-18)
(0.00132491 -0.00463197 3.94548e-18)
(-0.00043094 -3.11864e-05 1.0206e-19)
(-0.000455033 -4.07086e-05 1.48033e-19)
(-0.000432412 -5.80031e-05 6.60911e-19)
(0.00281357 0.00214487 1.0792e-18)
(0.00501885 0.00224735 -6.67354e-18)
(-0.00160103 7.6096e-06 1.88383e-19)
(-0.00162858 2.02344e-05 1.64852e-19)
(0.000513291 -0.000892129 3.27714e-18)
(0.000535091 -0.000917745 3.51615e-18)
(0.000536332 -0.00088125 1.80041e-18)
(0.000238453 -0.000734752 3.79235e-18)
(0.000255763 -0.00072277 -4.75968e-18)
(-0.000743103 -0.000677965 -2.23765e-19)
(-0.0007681 -0.000664218 -1.82972e-19)
(-0.000774325 -0.000693407 1.97991e-19)
(0.000194897 -0.000523397 -8.62453e-19)
(0.000198105 -0.000530545 1.27383e-18)
(0.000191505 -0.000539103 -8.55233e-19)
(-0.00113826 -0.00471762 -3.39931e-18)
(-0.00109368 -0.00459292 -4.28679e-18)
(-5.31332e-05 -0.00384411 3.02493e-18)
(-0.000151921 -0.00383692 2.90722e-18)
(0.000105544 0.000802392 1.48302e-21)
(0.00011053 0.000763 5.76767e-20)
(0.000146194 0.000773237 8.49708e-22)
(0.000806429 -0.00173927 -6.87368e-18)
(0.000764711 -0.00177215 -4.91514e-19)
(0.000824422 -0.00181142 -1.03025e-18)
(-0.00218768 -0.0050087 1.09257e-17)
(-0.00234038 -0.00439682 2.44013e-18)
(-0.00109045 -0.000284901 1.0874e-19)
(-0.00110278 -0.000307683 2.22366e-19)
(-5.55852e-05 -0.000482551 1.01734e-19)
(-4.03567e-05 -0.000531422 -2.61513e-18)
(-1.89111e-05 -0.000489782 1.62039e-18)
(-0.000619391 0.000760247 -1.59443e-20)
(-0.000655772 0.000775231 2.68652e-20)
(-0.00064203 0.000741704 1.90038e-20)
(-0.00221959 -0.00106215 -5.51421e-20)
(-0.00352655 -0.000685232 1.98691e-19)
(0.000601711 -0.00242245 4.60882e-18)
(0.000666488 -0.00236835 5.65219e-19)
(-1.5422e-05 -0.00096493 2.30051e-19)
(-5.95245e-05 -0.000963515 -5.8397e-20)
(-0.0102779 -0.00239971 4.64196e-18)
(-0.0078771 -0.00208784 6.37101e-19)
(-0.0107521 -0.002319 1.33424e-18)
(-0.0137156 -0.000993196 6.22347e-19)
(-0.0155782 -0.00124396 1.30437e-18)
(-0.00164336 -8.12432e-05 5.50145e-20)
(-0.00164403 -9.34184e-05 5.05618e-20)
(-0.00165735 -8.62153e-05 2.26817e-20)
(-0.000717059 -0.00069268 -1.88326e-19)
(-0.000714953 -0.000664248 -3.29541e-19)
(0.00731116 -0.00312322 4.9329e-18)
(0.00823182 -0.00260063 -6.32242e-18)
(-0.00110427 -0.000266715 2.97294e-19)
(-0.00107849 -0.000262153 -1.91104e-19)
(0.0424666 -0.027257 -5.45079e-19)
(0.0383464 -0.035881 -3.56693e-18)
(-0.000222709 -0.00260996 -2.53871e-18)
(-0.000149444 -0.00261851 -9.30511e-18)
(-0.00128881 -0.00132338 -3.65151e-19)
(-0.00127634 -0.00125042 -6.41574e-20)
(-0.00118202 -0.00132024 -2.58417e-19)
(-0.00290917 -0.00490472 -4.38307e-18)
(-0.00284701 -0.00487905 8.88107e-18)
(-0.000105481 0.000508296 1.42321e-20)
(-7.44676e-05 0.000510896 -2.37525e-22)
(-0.000101476 0.000543429 5.79716e-21)
(0.000216987 -0.00110798 4.55129e-19)
(0.00022055 -0.00107269 7.21053e-18)
(0.000192511 -0.00107873 1.94049e-18)
(0.0037068 -0.0074903 4.91333e-18)
(0.000164415 -0.000244947 2.20028e-18)
(0.000160626 -0.000231996 -2.3882e-20)
(0.000149972 -0.000237687 3.28551e-18)
(-0.00199395 -0.00161387 3.86396e-18)
(-0.00189265 -0.00175964 -1.61109e-18)
(9.99324e-05 0.000187981 1.90656e-20)
(0.000103519 0.000161074 -3.0026e-21)
(0.000127502 0.000174145 2.69453e-21)
(-0.00131962 5.21688e-05 6.63499e-19)
(-0.00133893 5.09677e-05 -1.33e-20)
(-0.00138383 4.99897e-05 4.28734e-20)
(0.000184764 -0.00159876 -2.02114e-20)
(0.000193866 -0.00146611 9.75244e-20)
(-0.00039091 -6.15062e-05 -4.16304e-19)
(-0.000372399 -5.52129e-05 -1.06739e-18)
(-0.00150231 -0.00317905 8.90488e-19)
(-0.00157178 -0.00306752 -4.45121e-20)
(-0.00165443 -0.00319285 -1.26104e-18)
(0.00158246 -0.000502725 -1.69105e-19)
(0.00188906 -0.000285398 9.2202e-19)
(0.001441 -0.0001901 4.43662e-19)
(0.0140987 0.020095 -1.21206e-19)
(-0.0012716 -0.00434244 -5.54419e-18)
(-0.00145701 -0.00390091 -5.05736e-18)
(-0.00209896 0.00037722 -1.93243e-20)
(-0.00204228 0.000444268 1.61848e-20)
(-0.00205268 0.000330377 4.29076e-21)
(0.00028654 -0.00213655 1.0511e-19)
(0.000344487 -0.00217474 -4.71132e-18)
(0.00034494 -0.00210147 6.61739e-18)
(-0.00770936 -0.0037813 -3.96319e-19)
(-0.00817885 -0.00387998 -6.20865e-18)
(0.000478411 -0.000838821 -4.1023e-18)
(0.00049377 -0.000865373 -1.15571e-18)
(0.000497915 -0.00083729 2.07123e-18)
(-0.00181568 -0.0016211 -5.50007e-20)
(-0.00168349 -0.00155613 4.19717e-21)
(-0.00157694 0.00677342 -1.46887e-18)
(-0.00275292 0.0127674 1.02299e-18)
(-0.00420527 0.00283312 4.98187e-19)
(-0.00132829 -0.00143663 1.14286e-19)
(-0.00137875 -0.00132927 4.99026e-20)
(-0.00168645 -0.000688351 4.16597e-20)
(-0.00172241 -0.000714029 4.29787e-21)
(0.000988064 0.00200806 7.52085e-20)
(0.000337423 0.00196324 6.95204e-20)
(0.00452118 -0.00162307 -4.59981e-18)
(0.0051138 -0.00191086 -7.90521e-19)
(0.00486976 -0.00180107 -3.66136e-18)
(-0.000452913 -1.15912e-05 -7.14859e-21)
(-0.00063372 -2.20197e-05 1.50795e-18)
(-0.000437747 -7.85126e-06 -6.8208e-20)
(-1.05603e-05 -0.000316039 -7.4664e-19)
(-2.39094e-05 -0.000306168 5.14586e-19)
(-2.17817e-05 -0.000321919 -7.87859e-19)
(0.000596758 7.35869e-05 -6.48856e-19)
(0.000581496 -0.000103086 3.00558e-19)
(0.00040945 -2.00622e-05 3.25492e-19)
(0.000180073 -0.00025194 1.6114e-18)
(0.000168817 -0.000258443 6.80796e-19)
(0.00306355 -0.00423675 2.17187e-18)
(0.00471616 -0.0045296 1.5111e-18)
(0.00379956 -0.00441904 3.10397e-19)
(0.000328381 -0.00113607 1.26436e-18)
(0.000346655 -0.00110372 1.70435e-18)
(0.000368979 -0.00114903 1.70857e-18)
(-0.0185574 -0.00203602 -7.9869e-20)
(-0.0186646 -0.00182199 1.73583e-18)
(-0.0187376 -0.0020323 8.44059e-19)
(4.29105e-05 0.000605328 -2.04862e-20)
(5.35997e-05 0.000634806 -1.17123e-20)
(1.54346e-05 0.000638202 -5.9511e-21)
(-0.0154662 -0.00502636 -3.32608e-18)
(-0.0170632 -0.00472336 1.41734e-18)
(-0.0164869 -0.00476344 -4.43042e-18)
(0.000170423 -0.000637524 -5.7348e-19)
(0.000164428 -0.000658547 1.39998e-19)
(0.00500431 0.0129472 -3.79461e-19)
(0.00512769 0.0173971 2.12012e-19)
(0.00789273 0.0227393 -2.90034e-19)
(9.74268e-06 0.000455855 -1.55974e-21)
(-2.35903e-05 0.000452229 -9.85382e-21)
(3.74174e-06 0.00042448 8.04017e-21)
(-0.000733246 0.000849074 -2.83768e-20)
(-0.000717415 0.000878345 1.35837e-20)
(-0.000693033 0.000838671 -1.97379e-20)
(-0.00115151 -0.00719202 -6.47287e-20)
(-0.00214831 -0.00282494 -1.41965e-19)
(-0.00119149 -0.00142163 1.58515e-19)
(0.00162533 0.00430347 -6.48189e-21)
(0.00233412 0.00363726 -3.03141e-19)
(0.00143534 0.00336554 -2.13984e-19)
(-0.000972097 -0.000352872 -2.45838e-18)
(-0.000522891 -0.00053429 -5.07705e-18)
(0.000160235 -0.000112673 -2.95326e-18)
(0.000159501 -0.000100991 -1.60351e-18)
(0.000149143 -0.000105409 -4.10184e-18)
(-0.018387 -0.00206025 -4.38004e-18)
(-0.0184529 -0.00227352 -1.22298e-19)
(0.000300401 -0.00112569 -4.86665e-18)
(0.000308789 -0.00116218 -1.53856e-18)
(0.000526645 -0.00061244 7.44525e-19)
(0.000544484 -0.000605424 1.84828e-18)
(-0.0114692 -0.00521807 -9.92921e-19)
(-0.0120579 -0.00497095 -2.11581e-18)
(-0.0123655 -0.00490334 -1.77031e-18)
(-0.00143442 -0.00417179 2.25357e-18)
(-0.00156857 -0.00417805 -2.68986e-18)
(-0.00151508 -0.00430573 -1.75375e-18)
(-0.0199386 -0.00426641 -1.4124e-18)
(-0.0203709 -0.00392024 9.25157e-18)
(-0.0206225 -0.00400745 -1.00881e-17)
(-0.00115722 3.40786e-05 7.26501e-22)
(-0.0011482 3.54835e-05 8.11904e-20)
(-0.000918887 1.86683e-05 -3.01232e-21)
(0.000332924 -0.00168079 8.77063e-18)
(0.000317491 -0.00173824 -9.35942e-18)
(0.000275395 -0.00168561 5.91876e-18)
(-8.09489e-05 3.64363e-05 3.0404e-21)
(-5.60551e-05 2.06435e-05 -3.83719e-20)
(-0.00224256 -0.00256497 -2.65246e-18)
(-0.00209653 -0.00233427 4.90424e-18)
(-0.00198131 -0.00266652 7.66152e-18)
(3.81711e-05 0.000461775 -5.76795e-21)
(1.08004e-05 0.000490618 -1.39793e-22)
(-0.00067175 -0.00122891 1.63554e-18)
(-0.000602859 -0.0012989 -1.24858e-18)
(-0.0111327 0.00565169 2.1075e-19)
(-0.0107471 0.00359077 5.44931e-19)
(-0.0137759 0.00449342 1.17451e-19)
(-0.00163035 -7.6239e-05 -5.73314e-20)
(-0.00164316 -7.00521e-05 1.05992e-20)
(-0.00214737 0.00037042 2.96456e-20)
(0.000342818 -0.00388455 -6.03324e-18)
(0.000234052 -0.00385212 -1.15419e-18)
(0.000325262 -0.00376669 3.54742e-18)
(-0.0012724 0.000764173 7.54251e-19)
(-0.000988771 0.000604053 -4.57178e-19)
(-0.000959981 0.000916381 1.92243e-20)
(-0.000746551 -0.00372914 -6.34459e-19)
(0.00148488 -0.00402026 -1.76352e-18)
(-0.00567925 -0.00929975 -1.93557e-19)
(-0.00394693 -0.00897164 -1.02526e-19)
(-0.000770874 0.00085827 -6.76615e-20)
(-0.000803863 0.000889787 -8.51195e-21)
(-1.89188e-06 -0.000311673 -2.45505e-19)
(-3.18349e-07 -0.000325594 -2.50291e-18)
(-0.00654925 0.00810998 1.34283e-19)
(-0.00724271 0.0112115 1.77616e-19)
(-0.000684085 0.00841195 -2.55434e-19)
(-0.00473709 0.0145397 -1.76115e-20)
(0.00330685 0.00332572 3.37246e-19)
(4.08995e-05 0.00111309 -4.94069e-20)
(5.26094e-05 0.0010735 7.40684e-21)
(4.66788e-06 0.00110096 -1.95347e-21)
(0.000588135 0.000270597 -4.03414e-19)
(0.000788589 0.000168436 -1.86157e-18)
(-5.00694e-05 9.04118e-05 -8.46535e-20)
(-7.89384e-05 8.57564e-05 5.67197e-21)
(-0.0197622 -0.0033985 -6.22886e-19)
(-0.0198223 -0.00310521 4.33649e-18)
(-0.0200043 -0.00336333 1.75589e-18)
(-0.000144982 -0.0029395 -6.0485e-18)
(-0.000150353 -0.00304983 2.66507e-18)
(-0.00203275 -0.0116536 1.6623e-18)
(-0.00432597 -0.0246809 -6.1373e-19)
(-0.00296563 -0.0181666 5.16056e-19)
(0.000226703 -0.000721742 4.58406e-18)
(0.000213392 -0.000705493 -2.89872e-18)
(0.000228426 -0.000699883 1.33388e-18)
(0.000113523 -0.000865709 -2.17519e-18)
(0.000137067 -0.000858899 3.2692e-18)
(0.000113323 -0.00083809 5.40789e-18)
(-0.0031497 -0.000325905 -1.39679e-19)
(-0.00349017 -0.000667527 -4.15656e-19)
(-0.00300743 -0.000805764 -2.33629e-19)
(0.00357365 0.00291601 7.75416e-19)
(-0.00541943 0.0150635 -3.76097e-19)
(0.000291261 -0.000566441 -6.1376e-19)
(0.000296509 -0.000579476 -4.18812e-19)
(0.000280584 -0.000566275 -2.79336e-18)
(0.000224627 -0.000740868 2.07987e-18)
(0.00061643 -0.00341123 4.3697e-19)
(0.000612399 -0.0034845 4.6272e-19)
(0.000533694 -0.00343467 -3.55626e-18)
(0.0178893 -0.0115856 -4.15752e-19)
(0.0214213 -0.0102483 5.32402e-19)
(0.0175255 -0.00805498 -1.64826e-19)
(0.00164306 -0.000882717 7.06801e-19)
(0.00131767 -0.000701297 1.32934e-18)
(0.00341074 -0.0072071 5.59763e-18)
(0.0021534 -0.00689782 -1.98438e-18)
(-0.0105414 -0.00119846 -1.12801e-18)
(-0.00845534 -0.00110943 -1.04186e-18)
(-0.00692014 -0.00106083 4.24753e-18)
(0.00028533 -0.000172046 5.57411e-19)
(0.000277157 -0.000158802 1.62474e-18)
(0.000269528 -0.000167437 1.57472e-18)
(-0.000741803 0.000825119 -5.66885e-21)
(0.000738518 -5.07794e-05 6.27765e-19)
(0.000842317 -6.83875e-05 -3.97469e-19)
(0.000760809 -0.00017377 -7.87198e-19)
(-0.0212539 -0.000528757 1.75774e-18)
(-0.022348 0.00321151 -1.44341e-18)
(-0.0127387 -0.00886296 -4.46625e-19)
(-0.000892688 0.00122537 1.71894e-20)
(-0.000897337 0.00113029 1.13781e-20)
(-0.000827874 0.00114025 5.26708e-20)
(-0.00285344 -0.00465225 -5.1413e-18)
(-0.00301104 -0.00461593 1.50636e-18)
(-0.00265363 -0.00475685 1.23258e-18)
(0.000462305 -0.000856345 -3.84076e-19)
(0.000452413 -0.00081729 4.95337e-19)
(0.000301093 -0.000566263 4.79022e-18)
(0.00028518 -0.00055238 8.56511e-19)
(0.000481855 -0.00154038 -5.97797e-18)
(0.000451781 -0.00150206 5.55723e-19)
(-0.0103691 -0.00552223 5.591e-18)
(-0.0106396 -0.00544528 1.01705e-17)
(-0.00162988 -0.00963416 7.18815e-19)
(-0.00195277 -0.00763825 7.17485e-19)
(6.36959e-05 -0.00845515 1.18757e-19)
(-0.00307668 0.000315244 1.87829e-19)
(-0.00269423 -6.66731e-05 -1.23266e-19)
(0.0004875 -0.000898107 -3.40109e-18)
(-0.0259117 0.00777732 -8.55326e-19)
(-0.0234954 0.0047703 1.47993e-18)
(-0.0265197 0.00142374 -4.98515e-19)
(-0.000253102 -0.00238047 6.56063e-18)
(-0.000218968 -0.00245397 5.53011e-18)
(-6.25775e-05 -0.000805064 -6.96448e-18)
(-5.11529e-05 -0.000819817 9.86002e-19)
(-0.00104474 -0.000339584 -3.22185e-19)
(-0.00107435 -0.000344109 1.63201e-19)
(0.00488413 0.00830132 4.07508e-19)
(0.00533205 0.00681771 -2.07216e-19)
(0.00070842 -0.0117886 5.12728e-19)
(0.00255334 -0.0131142 -3.39563e-19)
(0.00263251 -0.0109091 3.35441e-19)
(-0.0216289 -0.00516127 3.84913e-18)
(-0.0229277 -0.00479474 -1.90647e-18)
(-0.0230958 -0.00496742 -1.27387e-18)
(-0.00277784 0.00642661 -1.11873e-19)
(-0.00269853 0.00364044 7.62735e-18)
(1.80923e-05 0.00114986 1.62426e-20)
(7.64367e-05 0.0011287 -8.14865e-20)
(9.35909e-05 0.000541198 8.82441e-22)
(6.77795e-05 0.000573896 1.67266e-20)
(0.000107395 0.000567323 2.58977e-22)
(-8.15438e-06 4.35902e-05 3.05451e-19)
(1.7364e-05 4.81889e-05 -1.49949e-19)
(-2.10878e-06 7.05536e-05 9.68096e-21)
(0.000717204 -0.00338529 5.45842e-18)
(0.000620909 -0.00331735 -4.29795e-18)
(-0.0175679 -0.00760043 -1.2962e-19)
(-0.0298918 0.00860693 -1.21383e-18)
(0.0348994 -0.0238216 3.00227e-18)
(0.0255531 -0.0265416 -3.22962e-18)
(0.0165886 -0.0123695 7.6598e-19)
(-0.0015863 -0.000555099 -5.80012e-20)
(-0.00162074 -0.000570509 3.21597e-20)
(-0.0015872 -0.000587362 -5.69422e-20)
(0.00025248 -7.21104e-05 -4.66329e-19)
(0.000245524 -7.73303e-05 2.05923e-18)
(0.000257296 -8.02501e-05 7.18049e-19)
(-0.0285227 0.0122713 2.40619e-18)
(-0.0237267 0.0138913 -9.40779e-19)
(-0.00247219 0.00376502 1.45948e-20)
(0.00147404 0.0100939 -1.22942e-19)
(-0.00175303 0.00858881 -7.79687e-20)
(-0.00258533 -0.00362857 5.14438e-19)
(-0.00250274 -0.00377349 7.58738e-19)
(0.000205299 -0.000480379 -7.40322e-20)
(0.000190208 -0.000488542 5.80234e-18)
(0.000501636 -0.000449903 -2.10073e-18)
(0.000480483 -0.000440092 8.85074e-19)
(0.000396966 -0.00237978 2.62316e-18)
(0.00033503 -0.00233479 -1.63761e-18)
(0.000325121 -0.00242558 6.04058e-18)
(-0.00277148 0.000730602 -6.57534e-19)
(-0.00536831 -0.000397442 5.56578e-19)
(-0.00299665 -0.00460522 -5.91005e-18)
(-0.00269616 -0.0047329 7.61279e-19)
(-9.91981e-06 -0.000573018 4.18812e-18)
(7.42763e-06 -0.000569328 2.41813e-18)
(3.53072e-06 -0.000599785 1.25775e-18)
(-0.0103124 0.011718 -6.04733e-19)
(-0.0112379 0.011409 -2.14399e-18)
(-0.00105041 -0.000381716 2.30458e-19)
(-0.00102416 -0.000378535 2.34302e-19)
(-0.00103447 -0.000357324 -1.04713e-19)
(-0.0195132 -0.00342404 -1.52966e-18)
(-0.0195583 -0.00368904 -3.49004e-18)
(0.000811629 -0.0017061 -2.47196e-18)
(0.0008488 -0.00173656 -5.3394e-18)
(0.000273997 -0.000989112 -3.03075e-18)
(0.000251392 -0.000997606 2.90981e-18)
(-0.020429 -0.00523091 3.73394e-18)
(-0.0220174 -0.0049493 -5.64366e-19)
(-0.0214272 -0.00484385 1.09131e-19)