/*--------------------------------*- C++ -*----------------------------------*\
| =========                 |                                                 |
| \\      /  F ield         | OpenFOAM: The Open Source CFD Toolbox           |
|  \\    /   O peration     | Version:  v2012                                 |
|   \\  /    A nd           | Website:  www.openfoam.com                      |
|    \\/     M anipulation  |                                                 |
\*---------------------------------------------------------------------------*/
FoamFile
{
    version     2.0;
    format      ascii;
    class       surfaceScalarField;
    location    "550";
    object      phi;
}
// * * * * * * * * * * * * * * * * * * * * * * * * * * * * * * * * * * * * * //

dimensions      [0 3 -1 0 0 0 0];
oriented        oriented;


internalField   nonuniform List<scalar> 
20537
(
-0.372898
0.499459
-0.126585
-0.0446933
-0.116979
0.16167
-0.183296
0.164461
0.0188291
-0.021327
-0.296311
0.317617
-0.145626
0.160225
-0.0146071
0.274814
-0.443424
0.1686
0.200008
0.200488
-0.400508
0.241756
-0.0871756
-0.154592
-0.451896
-0.100112
0.551973
-0.0327343
0.206485
-0.173757
0.517701
-0.152852
-0.364851
0.0942393
-0.126764
0.0325238
0.0934094
0.0135203
-0.106933
-0.00943725
0.0035969
0.00583928
0.678862
-0.547027
-0.131892
0.275577
-0.284715
0.00912409
-0.047521
0.281905
-0.234407
0.434441
-0.247864
-0.186592
-0.135936
0.141897
-0.0059645
0.0881763
-0.54011
0.340979
-0.362338
-0.0771151
-0.106189
-0.372335
0.598978
-0.22666
-0.695126
0.0990598
0.596007
-0.561027
0.188674
0.21506
0.0266843
-0.0882291
-0.179879
0.268092
-0.00215957
-0.000773654
0.005124
-0.378046
0.224119
-0.348898
0.124756
0.442816
-0.168012
0.229417
-0.27696
-0.0191536
0.183606
0.422555
-0.412377
-0.0101811
-0.605642
-0.0895446
0.110776
-0.124248
0.0134704
-0.00262549
0.0874914
-0.0848655
0.20033
-0.123601
-0.0767314
0.137327
-0.170066
0.0790345
0.343518
0.044747
0.335156
-0.379941
0.504808
-0.685346
0.180531
-0.00216933
-0.000159254
0.00232904
0.312393
-0.504528
0.192134
0.49911
-0.186718
-0.00103913
-0.00441142
0.00545182
-0.527091
0.197477
0.329615
0.138157
-0.471838
0.333677
0.171747
-0.259991
0.298518
0.249919
-0.548446
0.161365
-0.0191005
-0.142273
0.143696
-0.073835
-0.0698653
-0.000275204
-0.00103082
0.00130576
-0.737697
0.376254
0.361385
0.658009
-0.538122
-0.119986
0.684461
-0.17966
0.663517
-0.301582
-0.361971
0.000637005
-0.00106657
0.000429242
-0.182532
0.406625
0.282944
0.0977273
-0.380694
0.0488725
0.151455
0.0697268
-0.0830669
0.0133405
-0.394346
0.295988
0.0983464
-0.13998
0.126467
0.0135073
-0.133223
0.306103
-0.172885
-0.438071
0.141022
0.297033
0.0665583
-0.0691835
-0.568844
0.237902
-0.212503
0.213928
-0.00143892
0.191551
0.242874
0.0225583
-0.0275301
0.00497164
0.0881999
-0.0798049
-0.00839607
0.0893188
-0.134013
-0.293479
-0.444283
0.282248
-0.58661
0.304273
-0.528637
0.428562
0.100051
-0.133879
0.0567576
-0.0335964
0.00178969
0.0318067
-0.000881199
-0.172733
0.173603
0.0270108
-0.00246182
-0.17324
0.432687
-0.259473
0.447711
0.0392531
-0.486964
-0.433841
-0.0523649
0.486159
0.0017584
-0.000526325
-0.00123051
-0.319004
-0.0753537
0.125902
-0.0316631
0.459101
-0.153595
-0.305517
0.0585924
0.182615
-0.241209
-0.260674
0.322296
-0.0616434
-0.379137
-0.243889
0.623009
0.0209968
0.0897777
-0.0836447
-0.304995
0.388626
-0.22413
-0.0896974
0.249925
-0.160243
-0.0274413
-0.233256
0.57072
-0.558219
-0.012537
0.0286464
-0.174281
0.0112988
0.0434163
-0.0547154
-0.203058
0.501567
-0.0246321
0.595311
0.00267185
-0.00453618
0.00186348
0.17307
-0.171222
-0.00185917
0.0740088
-0.377991
0.303955
0.267881
-0.018237
-0.467473
-0.101647
0.569117
-0.479557
0.373916
0.105629
-0.178373
0.175691
0.00267196
0.540736
-0.703477
0.162736
0.0752134
0.0106475
-0.152252
-0.291181
-0.545942
-0.0193558
0.565256
0.26944
-0.648595
0.300725
-0.384383
-0.654623
0.654567
-0.0733598
-0.472627
0.281341
-0.0751649
-0.0657999
0.0770982
0.0747765
-0.486553
0.41177
-0.575198
0.576983
-0.00186126
-0.193463
0.564403
-0.371027
-0.0026733
0.000504155
0.235547
0.0323244
0.0990599
-0.00565286
0.104538
0.452083
-0.313932
-0.802279
0.364044
0.438228
0.153156
0.298922
0.15699
-0.185851
0.0288516
0.0300872
0.310866
0.167547
-0.0806184
-0.0869326
0.423011
-0.378307
0.557149
-0.164029
-0.393175
0.0292263
-0.00666784
-0.553001
0.11911
0.213618
-0.573672
0.607785
-0.0341755
0.572448
-0.497679
-0.0727052
0.0885495
-0.0158454
-0.00193288
-0.00398969
0.00592286
-0.0123828
-0.00460124
0.0169836
-1.99447e-05
0.00269166
0.377993
0.279908
0.171521
-0.558009
0.386468
0.743062
-0.39424
-0.348829
0.409642
-0.0839217
-0.325742
-0.170261
-0.334268
-0.463459
0.645935
-0.182478
0.0407326
0.126809
-0.26685
0.466836
0.149052
0.350058
-0.00204853
0.127259
-0.423844
0.617563
-0.193811
-0.00103423
-0.00840431
0.31555
0.347936
0.363626
-0.208139
-0.155506
0.302475
0.107143
-0.494153
0.189087
0.305029
0.232486
0.12685
-0.359358
0.0139089
0.129782
0.00388025
0.157474
-0.362885
-0.257267
0.620151
-0.0756139
0.224528
-0.148926
0.00108036
-0.000443506
0.16639
0.390711
0.269942
-0.366613
0.0966497
0.662322
-0.239196
-0.423135
-0.7166
0.25314
0.00416372
-0.21668
-0.314182
0.344244
0.0521745
0.000925451
-0.053099
0.000162976
-0.0337593
0.246078
-0.551182
0.305072
-0.175209
-0.318979
0.00104877
-0.0134316
0.567045
-0.400706
-0.166754
-0.305088
0.181453
-0.0244744
0.52976
-0.499526
-0.0302488
-0.0216541
-0.114286
-0.536288
0.68828
-0.151996
-0.269055
0.0556956
0.21334
0.0154935
-0.131587
-0.362049
0.493594
0.0492962
-0.155491
-0.373389
-0.243111
0.616498
-0.457437
0.62762
-0.170209
-0.167244
-0.270843
0.357486
-0.551038
-0.165333
0.157084
0.00824282
0.226815
0.0128413
-0.239663
-0.289189
0.00114043
-0.00141529
0.283375
-0.555317
0.271928
0.184716
-0.209176
0.024447
0.0841165
-0.0143888
0.400127
-0.17901
-0.221138
0.536286
-0.364784
-0.183114
0.465416
-0.282305
0.449468
0.0802726
-0.423576
-0.105085
-0.320265
-0.482023
-0.000180038
0.0237346
-0.0235534
-0.582435
0.0843155
0.498037
-0.540218
0.147401
0.392767
-0.0212898
0.214871
-0.193587
-0.493563
0.361933
-0.0381338
-0.0299157
0.0680498
0.147916
0.140275
-0.288213
0.0411448
-0.0032867
-0.0378582
0.131204
0.458231
-0.589437
-0.0179862
-0.0465093
0.0644946
-0.351371
0.42535
-0.516727
0.204296
0.31243
0.46678
-0.655166
0.188383
-0.744497
0.44386
0.30063
0.577897
-0.210115
-0.367785
-0.147527
0.394812
-0.247298
0.000213262
-0.0012511
-0.110128
-0.410927
0.521008
0.0430757
-0.00193109
0.264114
-0.116216
0.193063
-0.366329
-0.00320383
0.0601885
-0.0569867
-0.0645191
0.141402
-0.0768884
0.00159823
0.0468611
-0.0484596
-0.611167
0.592138
0.0190036
-0.0460299
-0.190438
0.236453
-0.53738
0.0699024
-0.00140954
-5.38932e-05
0.0014634
0.694094
-0.227316
0.217194
-0.00214666
0.341988
-0.287372
-0.0546205
-0.285441
0.531487
0.552801
-0.153142
0.143689
0.00944522
-0.0586715
-0.247758
0.306419
0.0378974
-0.0760312
0.120998
-0.254225
0.291815
0.451239
-0.45537
-0.0848916
0.132089
0.310718
0.361522
-0.48128
0.119754
0.598842
0.0571819
-0.656024
-0.192941
0.171646
0.470009
-0.57166
0.0399955
0.00499328
-0.0449892
0.191838
-0.0187769
0.496269
-0.362081
-0.13419
-0.393722
0.292291
0.101408
-0.22136
-0.123183
0.344522
0.640811
-0.381827
-0.258998
0.479099
-0.117579
-0.244772
-0.107706
0.352455
-0.091268
-0.03009
-0.118971
0.149049
0.39252
-0.146429
-0.246098
0.254895
-0.0280869
0.00864914
0.0798995
0.00918319
-0.0206821
0.0114975
-0.191353
-0.346844
0.538165
-0.45269
-0.439574
0.345306
0.0942517
0.384394
-0.0820681
-0.30233
-0.653315
0.220197
0.433107
-0.130963
0.108037
0.0229236
0.187374
0.212735
-0.366892
0.122095
-0.206122
0.11641
0.0622848
-0.0654906
0.404043
0.167327
-0.571377
0.28028
0.360517
0.184596
0.508929
-0.134926
-0.374009
0.175252
-0.176145
0.253014
0.0225474
-0.535499
0.371419
0.587247
-0.139536
0.618409
-0.196117
-0.422296
-0.000360716
0.0487465
-0.0483862
0.0899368
0.427762
0.0280393
0.570804
0.0813701
-0.575828
0.494455
-0.514786
0.613614
-0.09883
-0.149123
0.119023
-0.0291371
0.413527
0.407574
-0.272147
-0.135431
0.0399855
0.449793
-0.489811
-0.383253
0.499397
-0.116172
0.115954
0.392969
-0.613867
0.238389
0.375479
0.141951
-0.101223
0.147408
-0.329962
-0.106427
0.389349
-0.216793
0.215172
0.00160856
-0.40525
-0.208616
-0.0349491
-0.0960157
0.0707521
0.167878
-0.238644
0.0890666
0.0368344
0.432853
-0.570619
0.137721
0.0480238
-0.00802863
0.106931
-0.182557
0.0795181
0.202366
-0.0167249
-0.039391
0.0561156
-0.141315
0.364574
-0.223288
-0.343135
-0.136433
-0.0541843
0.0487546
0.00542809
0.48358
-0.443631
-0.0143705
-0.14438
0.158741
0.226046
0.0238607
-0.222402
0.369788
0.0110511
-0.0129842
0.220542
-0.149802
0.385733
-0.360944
-0.024812
0.0609595
-0.0743613
0.0134001
0.672772
-0.266908
-0.405872
0.0557461
-0.277123
0.763342
-0.388313
-0.375036
-0.0621062
0.0617452
0.122006
-0.0155372
-0.106472
-0.510373
0.400201
-0.188251
0.0451889
0.143052
-0.261692
0.491761
-0.230111
0.0359295
-0.0267467
0.0131668
0.429582
-0.442763
-0.465281
0.659056
-0.193796
0.603858
-0.248917
-0.354967
0.12167
0.000332563
0.198762
-0.244808
-0.322882
0.0722998
0.250564
0.109499
-0.367908
0.226561
0.326333
0.0593748
0.392981
-0.545835
0.0112595
-0.00515432
-0.0563538
-0.00615043
0.0625054
0.0776427
-0.375673
0.298016
0.0547256
-0.0714509
0.0074247
-0.100726
0.0933008
0.385332
-0.019785
0.204489
0.12282
0.0191281
0.526441
-0.32369
-0.202762
0.0378876
0.217657
-0.255554
-0.000352731
0.111639
-0.111293
0.106946
-0.234493
0.503575
-0.269098
0.225998
0.0346297
-0.260629
-0.00721286
-0.0445229
0.0517351
0.0403137
-0.587395
0.677638
-0.0641682
-0.613474
0.162554
0.515079
0.180429
-0.0426951
-0.137735
-0.1085
-0.2144
-0.206083
0.243964
0.000325465
-0.00173514
-0.490548
0.315304
-0.064177
0.290172
0.356674
0.247158
-0.502742
0.24101
-0.116034
0.58604
-0.0560129
0.596745
-0.18444
0.5507
-0.366301
0.0497419
-0.0569554
0.598575
-0.301296
-0.297281
0.314776
-0.442417
0.127605
0.177097
-0.191478
-0.676371
0.370585
0.305778
0.10699
-0.017924
-0.297109
0.234062
0.063035
0.179698
-0.318122
0.0589616
-0.00678603
-0.119962
0.434704
-0.243435
0.0959027
-0.031392
-0.195665
0.227041
-0.233352
0.413046
0.0870385
-0.445266
0.358183
0.163997
-0.650556
0.189067
0.214629
-0.403709
-0.00363909
-0.00182472
0.00546301
0.639633
-0.00675518
0.0178068
0.221432
-0.100779
0.10042
-0.0457907
0.0467175
-0.661249
0.147694
0.513552
-0.152209
-0.509044
-0.00750552
-0.335635
0.343128
0.632059
-0.155861
-0.476243
0.517156
-0.531513
0.0143055
0.381516
-0.303888
-0.0849701
-0.103289
0.00906443
-0.00546826
-0.253534
0.215558
0.0379626
-0.0585171
0.0601147
0.0566233
-0.0107292
-0.0458952
-0.411623
-0.264753
0.23204
-0.423418
0.00260891
0.0072842
-0.0285403
0.021256
0.0900361
0.251947
-0.0651547
-0.000646291
0.428963
-0.239909
-0.214518
0.183109
0.508871
-0.543105
0.0342005
-0.110267
0.117691
-0.435681
0.520806
-0.0851543
-0.108302
-0.176425
0.363065
-0.370585
-0.448898
0.340731
0.108144
0.0543274
0.100447
0.3831
0.330094
0.332222
-0.120375
-0.0196114
0.232824
0.0626374
-0.295471
-0.0197709
-0.0146025
0.0343733
0.345437
0.00875252
-0.354207
-0.133193
-0.435986
0.0256288
0.410345
0.314774
0.164323
-0.327441
0.0905008
0.236921
0.174748
0.00568044
0.285415
-0.205916
0.173248
0.404647
0.126056
0.446385
0.49812
-0.397708
0.0949253
-0.55239
0.138443
-0.156307
0.0178617
0.113897
-0.470669
0.356772
0.125219
-0.116616
-0.00860884
-0.0542902
-0.381707
0.0161583
-0.219439
-0.19294
0.115955
0.14046
-0.059725
-0.0934239
0.442637
-0.355644
0.435634
-0.120864
0.67626
-0.511799
-0.164468
-0.188606
0.0164657
0.17214
-0.225671
0.43939
-0.213722
0.00574041
0.174651
-0.180398
-0.0310033
-0.00434847
0.0353516
0.584905
-0.135456
-0.654294
0.236065
0.418226
-0.500772
0.275098
0.00993557
-0.00669781
0.315913
-0.689303
-0.226293
0.223171
0.00310819
0.00871106
0.562913
-0.158875
-0.488041
0.548108
-0.0600981
-0.402004
0.10557
0.296407
0.12902
0.026553
-0.100392
0.0722828
-0.354932
0.282635
0.0505499
-0.0422938
-0.00825613
-0.556853
-0.0543393
-0.556478
0.307535
0.00218912
-0.000156192
-0.00203236
-0.0730207
0.342945
-0.472954
0.554323
0.201787
-0.143196
0.463208
0.168808
0.203128
-0.161699
-0.375466
0.537129
0.110709
0.187413
-0.298135
-0.124279
-0.242918
0.367175
-0.444626
0.449434
0.135453
-0.0144212
0.0753786
0.379252
-0.431658
0.202296
-0.195661
-0.00664681
-0.0801181
-0.493615
0.256028
-0.370486
0.114446
-0.630219
0.213514
0.416702
0.56523
-0.565286
0.513751
-0.155732
-0.358052
-0.555619
0.134711
0.519803
-0.122062
0.441273
-0.319216
0.259135
0.109703
-0.368865
0.322706
-0.476312
0.117625
-0.479716
-0.16985
0.678689
0.00423071
-0.00284399
-0.00138695
0.00236119
-0.0333647
0.142764
0.321104
-0.463904
0.388837
-0.132822
-0.2848
-0.0426604
-0.268235
-0.213049
0.00342907
-0.00166944
-0.361272
-0.195227
0.264741
0.333833
-0.0755148
-0.369794
-0.152132
0.00414465
0.14798
-0.332733
-0.0670336
0.399744
-0.0037142
0.00239711
0.00131731
-0.13716
0.561866
-0.424713
-0.00135968
0.000328767
-0.229773
0.241994
-0.0122266
-0.220698
-0.464656
0.212907
0.175917
0.0597616
-0.0212875
-0.0384735
0.207714
0.00947055
-0.392496
0.469789
-0.0772931
-0.520032
-0.0552388
0.294589
-0.393765
0.0991719
-0.57427
0.0360441
-0.171479
0.579761
-0.408328
-0.579172
0.189783
0.389342
-0.44993
0.337564
0.112348
0.0336528
-0.0263685
-0.155107
0.153263
0.00183507
0.125142
-0.0192772
-0.10587
0.0936741
-0.0871726
-0.00650433
0.0757969
0.339504
-0.70239
-0.102726
-0.0132528
0.115978
0.462202
-0.348307
-0.0573658
-0.211706
0.00431649
0.220198
-0.491459
0.22322
-0.29484
0.399375
-0.0794283
0.0614403
-0.518984
-0.00988907
0.528802
-0.00211826
-0.0015955
-0.000980908
0.00726979
-0.00744887
-0.146085
-0.136256
0.349153
0.453519
-0.285023
-0.464771
-0.189527
0.305959
0.0865537
0.27218
-0.455296
-0.19454
0.030239
0.1643
0.351179
-0.118715
-0.145345
-0.0491965
0.0766171
-0.00530058
-0.0713188
-0.553827
0.41666
0.153634
-0.151235
0.00360722
-0.0297577
0.0261502
0.376515
-0.0842447
0.333413
0.172718
-0.506186
-0.35096
0.540009
0.335707
0.120451
-0.456194
-0.0133498
-0.15199
0.244297
0.0552218
-0.29953
-0.0490186
0.231631
0.0421312
0.00841869
-0.438514
0.598736
-0.160272
0.00249092
-0.0003012
0.00133374
-0.0362506
0.0349164
0.475666
-0.390681
-0.0849934
0.144042
0.318158
0.206446
0.598106
-0.493066
-0.105041
0.397974
0.4763
0.0752814
-0.551582
-0.113864
0.0111374
-0.224907
0.016755
0.117331
-0.116696
-0.000637899
-0.0825522
0.099557
-0.0170072
0.218506
0.46595
-0.372487
0.428082
-0.0556068
-0.0973868
0.376413
-0.279029
-0.204145
0.161448
-0.139351
0.143098
-0.00375289
0.00360251
0.0300503
-0.00450979
0.0753207
-0.0708118
0.347454
-0.109242
-0.339677
-0.116763
0.0963916
0.0203711
0.00243775
-0.0954275
-0.00851869
0.103942
-0.11733
-0.136215
0.379769
-0.0837918
-0.592306
0.313545
0.195882
-0.509483
-0.158368
0.716534
-0.498035
0.284026
0.0924666
0.18711
0.501166
-0.161755
-0.395031
0.556725
0.0808346
-0.00421874
0.155106
-0.459595
0.405291
0.304305
0.412224
0.0229376
-0.0296926
0.317671
0.147742
0.631046
-0.185282
-0.445808
-0.422245
0.574686
-0.152469
-0.100915
-0.55241
0.557411
-0.00493113
0.00129101
0.342283
0.153985
-0.174446
-0.00182179
0.00909263
0.407997
-0.113411
-0.0500474
-0.162472
0.212504
-0.023042
0.0266492
-0.0294076
0.0261207
0.141448
-0.375955
0.0205966
0.193318
0.0634274
0.534678
0.44307
-0.233089
0.0164058
0.216669
0.00793741
-0.0848524
0.0769132
-0.273993
0.30862
0.00101872
0.116308
-0.27324
0.0349228
0.238303
0.0864879
-0.480868
0.394344
-0.311123
0.240618
0.0704915
0.138926
-0.522448
0.383505
0.0662565
-0.458753
0.132784
-0.140587
0.00779558
-0.371442
0.489023
-0.302942
-0.0727456
0.0260029
-0.514076
0.145455
-0.225668
0.0801989
0.114443
0.0107714
0.411902
-0.314199
0.104095
0.3385
-0.112037
-0.185083
0.0636575
-0.318032
0.254351
0.146868
0.149489
-0.0110478
0.0410175
-0.105541
-0.299447
0.0690244
0.230409
0.0101086
-0.105539
0.473888
-0.387436
0.0942449
-0.349014
0.254761
-0.368672
-0.000573716
-0.00124717
0.132376
-0.48378
-0.640046
0.293862
0.346142
-0.00138752
0.0766002
-0.207173
0.419444
-0.212291
-0.0102467
-0.0355428
0.0439648
-0.0474297
0.00346442
0.002088
-0.00376409
0.00167711
0.0400848
0.1617
0.0850369
-0.520747
-0.0811934
-0.478134
0.506173
0.338342
-0.537009
0.198609
0.126604
0.435256
0.379982
-0.541797
-0.640135
0.282294
0.357841
-0.0253263
0.370749
-0.225594
0.33629
0.724314
-0.420014
-0.115408
-0.00549899
0.120907
0.025116
0.00605036
-0.121459
0.162041
-0.541463
0.379385
0.141933
-0.57526
0.433324
0.644049
-0.149029
-0.495033
0.00289072
0.119924
-0.0116209
-0.074314
0.0859357
0.108726
-0.148674
0.0399425
-0.0606803
0.135571
-0.613706
-0.458454
-0.0846796
-0.136784
-0.455352
0.592085
-0.2514
0.421811
-0.170435
0.0595836
-0.0823087
0.0227199
0.0280555
-0.0287917
0.000736945
-0.252282
0.315916
0.247887
0.476421
-0.138565
-0.311381
-0.467322
0.215885
0.166312
-0.175407
0.00909543
0.000155582
0.00129155
-0.00144747
-0.0581219
0.0591172
-0.0780489
0.0189319
-0.296262
-0.0975067
0.45541
-0.351358
0.130649
-0.00551352
0.0081099
-0.19621
-0.0298669
-0.0968975
0.117906
0.314753
-0.248038
0.148803
-0.0400866
0.354043
0.476475
-0.350839
0.106074
0.398671
0.277582
0.130729
0.052261
0.035448
-0.0397967
0.159025
-0.545675
0.386628
0.386083
-0.11118
-0.274922
0.293808
0.0859493
-0.569182
0.397658
0.285094
-0.304938
0.420885
-0.0125671
0.00531352
0.00725328
-0.00245393
0.13523
0.12709
-0.0190546
-0.377989
0.52568
-0.468059
0.558609
-0.396607
0.00375369
0.000476653
-0.0963638
0.0138091
-0.29704
0.238359
-0.0071782
0.0511428
0.172748
-0.591229
0.418452
-0.00892361
-0.485004
0.493889
-0.427778
0.298511
0.109482
0.0750553
0.0053382
-0.0803946
0.338272
-0.111238
-0.227051
-0.41309
0.0948348
0.318231
-0.208328
-0.421895
0.072891
0.218482
-0.291395
0.421291
0.222746
-0.00160361
0.00228412
-0.000679465
0.126849
-0.273283
0.0418044
-0.0421607
0.000355062
0.452067
0.0897543
-0.342061
-0.00108213
0.0281474
-0.0270653
-0.00218406
5.69432e-05
0.00212701
-0.0713678
0.092363
-0.371543
0.510452
0.067136
-0.0763951
0.00925829
-0.191116
0.596751
-0.423506
-0.0242634
0.16844
-0.144181
0.182301
-0.176567
-0.132734
0.319916
-0.187201
0.0023022
0.557293
-0.21796
-0.339343
-0.587676
0.36045
0.227212
-0.0108804
0.0983703
-0.150439
-0.48965
-0.582522
-0.359809
0.235507
0.12476
0.349094
-0.00218703
0.000584194
-0.206318
0.0438528
0.162453
-0.112804
-0.341998
-0.117608
0.417309
-0.613429
-0.392728
-0.387012
0.568198
-0.0605875
-0.507678
0.221645
-0.419299
0.545897
-0.124619
-0.351077
0.475655
-0.61754
0.244861
0.372601
-0.00555793
0.0543114
-0.53544
-0.535511
0.0174104
0.518094
-0.13678
0.424484
-0.287711
-0.441509
0.332246
0.0299661
-0.0310484
-0.559075
0.00348832
0.555577
0.520901
-0.368099
-0.152819
0.0810289
0.0398766
-0.12091
-0.00729425
0.173606
-0.209207
0.469551
-0.260346
0.190199
0.341307
-0.531557
0.23967
-0.374603
-0.0104393
0.0695564
-0.107782
-0.0665621
0.00383247
0.062728
0.190135
-0.059415
-0.503551
0.34182
0.568107
-0.413811
-0.154304
0.00165283
-0.00181192
-0.241642
0.481302
0.0938938
-0.327137
0.233224
-0.575347
-0.455594
-0.356733
-0.168748
-0.00561772
0.17436
-0.12652
0.25856
-0.132047
-0.194647
0.362508
0.421836
0.146263
-0.500935
-0.0181068
0.375911
0.144973
0.0926058
0.0229742
-0.460988
0.338317
0.122669
0.00870769
0.14837
-0.303133
-0.299038
0.388765
-0.143431
0.102904
-0.132718
0.0298081
-0.00949272
0.11605
0.222203
-0.04433
0.0123199
0.0320106
0.00454016
0.0891307
-0.365809
-0.0757228
-0.00685742
-0.0119475
0.0188064
0.334792
-0.240556
-0.0771326
0.0796312
-0.00249814
-0.00699584
-0.00557188
-0.0267958
-0.035511
0.0623049
0.532487
-0.223991
-0.308499
-0.222755
-0.00838644
0.231129
-0.378826
0.29666
0.0848412
-0.000130549
-0.000936441
-0.00738268
-0.526239
0.143272
0.382939
0.597086
-0.605795
0.00867676
-0.00450087
0.148181
-0.341066
0.524231
-0.183165
-0.427413
0.579999
-0.152592
-0.00129629
-0.000571304
0.00186738
-0.396368
0.569087
0.342175
-0.452884
0.110669
-0.00234246
0.0288784
-0.000956099
-0.0279224
0.0522783
-0.430271
0.48008
-0.141785
-0.499899
-0.00288178
-0.000686919
-0.00149725
0.0828934
-0.023312
0.106891
-0.115414
-0.184834
-0.293083
0.4779
-0.0667826
0.0606331
-0.088187
-0.115959
-0.0963635
0.084743
0.0109215
0.16476
0.173623
0.00346276
-0.0756912
0.0704453
-0.403201
-0.0488641
0.138183
-0.00688622
0.145968
-0.139089
-0.0161315
-0.0124088
0.485162
-0.0562101
-0.00113733
-0.00143227
0.00201765
-0.00154825
-0.0755838
0.0297624
-0.0284291
0.319073
0.116396
-0.435499
0.200526
-0.0223327
-0.178205
0.472937
0.158066
-0.058842
0.274999
0.111064
0.0907227
-0.056559
-0.0341636
0.65717
-0.657254
-0.0290814
-0.00941349
0.0384948
-0.556041
0.128622
0.121689
-0.0406654
-0.429686
0.533771
-0.104126
-0.118081
-0.0583934
0.176471
-0.167389
0.194442
0.00607418
-0.0346324
0.0360911
-0.159546
0.123445
-0.146157
0.33356
-0.486606
0.62127
0.0619584
0.240816
0.37214
-0.0567958
-0.315353
-0.369054
0.109035
0.259997
-0.000783682
0.0296619
-0.379208
0.599394
0.565039
-0.3003
-0.437863
0.152472
0.285362
-0.0599072
0.013397
0.000926172
-0.00220911
0.032175
0.357247
0.175237
0.100551
0.384596
0.0175561
0.386654
-0.40424
-0.000894506
0.0426978
0.124741
0.532351
0.164657
-0.239824
0.000629607
-0.0353002
0.0346704
0.381333
-0.557124
0.175751
0.0872922
0.195028
-0.282329
-0.107437
0.48922
-0.171552
-0.0295735
0.00382229
0.0257514
-0.269776
0.393183
-0.123436
0.219905
-0.521517
-0.0182941
0.0943012
-0.0760067
0.00734266
0.0357329
0.118691
0.0244001
0.319804
-0.225928
0.469351
-0.150656
-0.318713
0.247124
0.317913
0.00134776
-0.0031694
0.00182244
-0.0151734
0.118073
-0.547764
0.0122462
0.0355904
-0.258356
-0.565614
0.393201
0.172366
0.412733
-0.328474
-0.433383
0.595933
0.0216372
-0.48012
0.167299
-0.156243
-0.0110584
0.212732
0.222898
0.450892
-0.108754
-0.108592
0.374203
-0.232981
-0.0249127
0.0193225
0.00559004
0.0502399
0.00952232
-0.00807282
-0.218237
-0.0255969
-0.0187331
0.0460119
-0.475739
0.205212
0.0179449
-0.0739627
0.460589
-0.40347
-0.162192
-0.150931
0.429007
-0.278111
0.336357
0.114496
0.0274075
-0.00213612
-0.0252713
-0.149199
0.47027
0.105732
0.0430621
0.434814
-0.11577
-0.236655
-0.585597
0.00203431
-0.000339084
-0.00169534
0.207505
0.369421
-0.0247327
-0.0920313
0.121858
-0.248384
0.0358432
-0.107902
0.0720564
-0.242083
0.0357551
0.198737
-0.00510499
-0.193644
-0.00627413
-0.200368
-0.0253153
-0.30889
0.061122
0.0608554
-0.146096
0.349856
-0.203764
-0.000865101
0.000482114
0.000382972
-0.139572
0.175256
-0.0356945
0.542032
0.415436
-0.283089
0.197942
-0.161863
-0.160311
-0.0172529
-0.316536
0.506692
0.00925612
0.0026589
-0.0119146
0.406563
0.152007
-0.160168
0.0053966
0.00366736
-0.205128
0.634662
-0.429543
-0.107798
0.0861412
-0.255937
-0.146362
-0.346869
-0.0977225
-0.492651
-0.00727891
-0.125582
0.528787
-0.403205
0.384308
-0.266427
0.077625
-0.0885085
-0.405347
-0.151815
0.062543
0.0203481
0.00275892
-0.00141064
0.23618
-0.0217676
-0.21442
0.00931577
-0.00400275
0.411154
-0.0215981
0.589731
0.22748
-0.6158
0.44416
-0.108489
-0.397823
0.13275
-0.109876
-0.0228804
-0.100881
-0.230327
0.331195
0.333265
-0.513155
0.179864
-0.090753
-0.322361
0.109432
-0.574735
0.0315516
0.0278162
0.000238514
0.296777
-0.0705485
0.00539302
-0.00889301
-0.0778034
0.0866936
0.433578
-0.120075
0.0990262
0.301687
-0.400717
-0.100354
-0.172898
0.145314
-0.154805
0.499617
-0.344811
0.345498
-0.456149
0.110641
-0.451223
0.331649
0.119571
-0.421677
-0.165013
-0.322575
0.520051
0.337145
0.152072
-0.00181571
-0.000778919
0.00259449
0.407719
0.0973372
-0.50509
0.0145444
0.0845132
-0.212621
0.256459
-0.205535
0.278407
-0.596729
0.471146
0.422114
-0.598346
0.176203
-0.179366
0.0594432
0.119922
0.253437
0.0813462
-0.394213
0.555656
-0.396655
0.351647
0.126755
-0.478445
-0.280898
0.434048
-0.290613
-0.147276
-0.158941
0.561185
-0.314063
-0.23225
-0.0282902
0.260537
-0.00441043
0.10253
-0.0981222
0.316476
-0.42215
0.105673
0.49147
0.105588
-0.0936896
0.445327
-0.351675
0.363368
-0.15619
-0.207185
-0.190497
-0.180002
-0.300493
0.0705115
0.22997
-0.142348
-0.190366
0.0507846
-0.342857
0.241962
0.324502
0.144831
-0.00203703
0.0292818
-0.0272451
-0.150642
0.483883
-0.0401499
0.0255469
-0.104654
0.0888159
0.0158349
-0.064303
0.228959
0.120285
-0.114679
-0.00560904
0.455327
-0.464284
0.694107
-0.256468
-0.437649
0.123548
0.316828
-0.440405
0.300367
0.119297
-0.419665
-0.087465
-0.339924
0.427385
0.504817
-0.0971302
-0.497434
0.497379
0.175343
0.380288
0.116673
-0.135782
0.588736
-0.150871
-0.437873
0.557012
-0.381694
0.378703
-0.185662
0.209351
-0.198745
-0.0106179
-0.0100363
0.0850903
-0.0646042
0.328282
-0.256014
-0.144049
-0.473573
0.134786
-0.141679
0.126951
-0.0227334
-0.104219
-0.0899803
0.326911
-0.0221931
0.133443
-0.131827
-0.00161666
0.132869
-0.028105
-0.104769
0.598372
-0.180638
-0.417743
-0.149744
0.00535638
0.474817
-0.141446
0.361234
0.297805
-0.322516
0.446034
0.0298416
-0.0301693
0.000327416
0.0129173
0.108748
-0.128802
-0.341869
-0.064956
0.38842
-0.364654
-0.134149
0.498757
-0.387648
-0.149735
-0.431449
0.122864
0.308554
-0.313048
0.41207
-0.352386
0.111863
0.240518
-0.559442
0.302174
0.19439
0.0149498
0.308437
-0.0756225
-0.0279342
0.0267145
0.00121958
0.00949356
0.555674
0.207458
-0.165391
-0.0420687
-0.369851
-0.270285
0.0574041
-0.0245395
-0.0328646
0.188255
-0.00232283
-0.185938
0.00756839
0.0661294
-0.0736994
0.115572
-0.02297
0.00516042
0.127584
0.0087201
0.140766
-0.00276852
-0.0334825
0.44001
-0.123534
-0.00315341
0.0268893
-0.592124
0.211836
-0.232715
0.0208758
0.171419
0.417308
-0.085048
0.221702
0.0268159
-0.248527
0.215067
-0.371612
0.156515
0.0353868
-0.00347237
-0.0319146
-0.069927
0.267895
-0.197983
0.0303611
0.337192
-0.0128553
0.124218
-0.111366
0.136179
-0.519925
0.392441
0.127439
-0.0817535
0.289295
-0.20756
-0.305902
0.677055
-0.273222
-0.403842
0.385473
-0.0888271
0.0876067
-0.105901
0.0700844
-0.400779
-0.0595539
0.172617
-0.113064
-0.22442
0.488886
-0.26452
-0.241983
0.0416005
0.263067
-0.447917
-0.392229
-0.0750226
0.0743751
0.119928
0.277379
0.416719
0.366937
-0.11537
-0.251581
-0.00390108
0.00178327
0.208357
-0.000653463
0.155835
-0.162947
0.00711064
0.0947225
0.00884905
-0.103572
-0.502972
0.368373
0.134588
0.407902
0.190462
0.0857932
-0.071009
-0.014787
0.291076
0.0943824
0.172387
0.00285291
0.222606
-0.0642264
0.006469
0.0577565
-0.0936792
0.394045
0.0351718
-0.115795
-0.0135089
0.328382
-0.314881
-0.378101
9.19263e-05
-0.388272
0.197763
-0.454717
0.346766
0.107912
-0.000986036
0.00044015
0.000545906
-0.234413
0.0331775
-0.167321
0.606835
-0.439517
0.0846479
0.137043
-0.00269631
0.093381
-0.0906877
0.124416
-0.306614
0.18218
-0.00799877
-0.0562283
-0.0203715
0.0829117
-0.516273
0.578844
-0.0625821
-0.216345
0.00468721
0.211655
0.0389236
-0.0034758
-0.20886
-0.00748798
-0.0807631
0.0713832
0.00937893
-0.505417
0.0436147
0.461732
0.340933
-0.434659
-0.023499
-0.000516869
0.0240157
0.0190457
0.107904
-0.000541966
-0.0023502
0.00289259
0.121407
-0.558913
0.437419
-0.101005
0.438549
-0.106101
0.00517119
-0.0336005
-0.12405
0.0526797
0.275948
0.108336
0.43402
-0.0885315
0.00347872
-0.172232
0.101436
0.00879875
-0.110235
-0.0726209
-0.01007
0.0826878
-0.368786
0.0672615
0.389806
-0.4571
-0.0083597
0.0754949
0.208704
-0.00699868
-0.201724
0.20168
0.312037
0.0852732
-0.104554
0.00980318
-0.144316
0.344793
-0.567879
0.408142
0.159699
-0.000184786
0.00221875
-0.0589953
-0.220489
0.584526
-0.113996
0.56054
-0.446607
-0.0045167
0.0137727
-0.541614
0.0253299
0.643634
-0.167334
-0.474118
0.249643
0.0801484
0.328531
-0.444799
0.116231
0.145695
-0.0399716
0.081719
-0.141273
-0.0670869
-0.106311
-0.236684
0.342969
-0.00075202
-6.89625e-05
0.000821681
0.412597
-0.199868
0.120844
0.00187927
-0.122724
0.0932563
-0.0976698
0.0274883
-0.493279
0.378835
0.114432
0.367637
0.132542
-0.500229
-0.00596515
0.139407
-0.205693
-0.359636
-0.028199
0.420577
-0.161439
-0.289786
0.330752
-0.0089459
-0.0759205
-0.161353
-0.224185
-0.363504
0.00311406
-0.0298621
-0.185746
0.196426
-0.0106869
0.00892999
0.366699
-0.219087
-0.147636
0.622193
-0.145344
-0.476854
0.561156
0.202691
-0.203843
-0.0735783
0.0690673
-1.56328e-05
-0.00282864
0.206322
0.401417
0.00363576
0.149619
0.143871
-0.509734
0.365863
-0.103628
-0.328208
0.431806
-0.169143
0.0371173
-0.0398863
-0.0216395
-0.187549
-0.291887
0.233754
0.108168
0.0224757
-0.106147
-0.246243
-0.0682414
-0.072115
-0.118694
-0.374596
0.26152
-0.471637
-0.444201
-0.032871
-0.19938
0.149929
-0.152391
0.554843
-0.412914
-0.00317551
-0.0980609
0.101233
-0.491531
0.357836
0.133644
0.173134
-0.594897
-0.0268239
0.00855197
0.018271
0.0356015
-0.0390742
-0.159665
-0.230243
0.389886
-0.00673607
0.0125635
-0.331752
0.266648
0.0650952
0.0365764
-0.0334632
0.155543
0.320113
-0.0202213
0.394128
-0.34185
0.454022
-0.112207
-0.0783241
0.193813
-0.629892
0.436068
0.326473
-0.511048
0.184565
-0.327469
-0.0490725
0.054499
0.0499374
0.00788523
-0.0578235
0.0502413
0.157214
0.0638812
-0.0718802
0.0791804
-0.317356
0.238162
0.0422508
-0.00357704
-0.0386739
0.0562101
0.2033
-0.000624079
0.432337
-0.310995
-0.140867
-0.35007
0.490901
-0.365997
-0.500929
0.373712
0.127171
-0.0536097
-0.0287043
0.609872
-0.440575
-0.169387
0.258466
0.0208044
-0.279287
-0.36686
0.126494
-0.103572
-0.0100118
0.064737
-0.0019006
0.00362038
-0.00171998
0.114778
-0.436575
0.321772
-0.0668412
0.0818327
-0.0149936
-0.225777
0.341808
0.250238
-0.323276
-0.206068
0.51028
-0.319414
-0.22221
-0.000227401
0.000656393
0.309625
-0.0727211
0.0303769
-0.0297476
0.0457971
-0.0946609
0.338964
0.0950462
0.110483
-0.00359609
0.400063
0.225054
0.254828
-0.0207768
-0.386647
0.235684
-0.00666422
0.0943225
-0.0876601
-0.266671
-0.232869
0.331547
-0.201741
-0.129825
0.43158
0.336688
0.280809
-0.0811418
0.0784421
-0.232276
-0.0977071
0.329964
0.230322
-0.127463
-0.102871
-0.157997
0.48446
-0.00277695
-0.146582
0.0240059
-0.0220442
-0.0019619
0.322625
-0.48058
0.15792
-0.129164
-0.0566956
-0.477862
0.09021
0.366009
-0.072211
-0.183781
-0.422306
0.606081
-0.0151344
0.109857
0.00986776
0.201965
-0.184816
-0.198317
-0.0869409
0.285241
0.124097
-0.492127
0.368021
-0.141287
0.486408
-0.345161
0.630819
0.324927
0.17444
0.390561
-0.532684
0.1421
0.168168
0.0281965
-0.0549938
0.248308
-0.217966
-0.272255
0.41326
0.528932
-0.228221
0.574769
-0.0321514
-0.542633
0.130761