/*--------------------------------*- C++ -*----------------------------------*\
| =========                 |                                                 |
| \\      /  F ield         | OpenFOAM: The Open Source CFD Toolbox           |
|  \\    /   O peration     | Version:  v2012                                 |
|   \\  /    A nd           | Website:  www.openfoam.com                      |
|    \\/     M anipulation  |                                                 |
\*---------------------------------------------------------------------------*/
FoamFile
{
    version     2.0;
    format      ascii;
    class       volScalarField;
    location    "800";
    object      k_0;
}
// * * * * * * * * * * * * * * * * * * * * * * * * * * * * * * * * * * * * * //

dimensions      [0 2 -2 0 0 0 0];


internalField   nonuniform List<scalar> 
13917
(
0.00016315
0.000148349
0.00873286
0.000150239
0.000148678
0.000194116
0.0188231
0.00644184
0.0149087
0.000170378
0.000190819
0.000173478
0.000150352
0.00894537
0.000154449
0.000153257
0.000148812
0.000169524
0.00017297
0.000148628
0.000149756
0.0198835
0.000148465
0.00323134
0.000148053
0.0206306
0.000161754
0.000164418
0.000200641
0.000179201
0.000164434
0.000155584
0.000160095
0.000154851
0.0001483
0.000209993
0.00014853
0.0322579
0.00015251
0.0111639
0.000147099
0.000149896
0.000144878
0.000168216
0.000147617
0.000156142
0.000169026
0.000175623
0.000401769
0.000147949
0.000154275
0.000149988
0.00050858
0.000155136
0.000148889
0.000154373
0.000190744
0.000148236
0.000152554
0.000147478
0.0332875
0.000148345
0.00779176
0.000148543
0.000192538
0.00116466
0.000148735
0.000148716
0.000192725
0.000161131
0.000148718
0.010938
0.0450248
0.000148061
0.000393339
0.000176083
0.0284901
0.000149254
0.0216008
0.000149533
0.000149298
0.00014877
0.000190019
0.0345111
0.0571388
0.000149032
0.000149116
0.000277511
0.000153977
0.000144823
0.0431484
0.00017559
0.000146811
0.000150831
0.000421334
0.000190268
0.000185632
0.000173677
0.000186087
0.000170591
0.000146465
0.000158973
0.000168243
0.000149888
0.00014627
0.00863122
0.000189766
0.000176486
0.000148819
0.000165661
0.0624398
0.0116319
0.000178116
0.0110261
0.000151385
0.000401183
0.000147874
0.000262687
0.0160192
0.000155072
0.000149808
0.000192634
0.0190068
0.000163822
0.000147666
0.000150565
0.00014758
0.000147726
0.000145038
0.000192636
0.0266698
0.000151215
0.000147718
0.00014981
0.000234378
0.00270528
0.00016327
0.00017117
0.000148694
0.000154911
0.000202054
0.000146
0.000150396
0.000170145
0.000148738
0.000442512
0.000203809
0.000149826
0.00014584
0.000156092
0.000170372
0.000404129
0.000179275
0.000162536
0.00015469
0.0279699
0.000160417
0.000230668
0.0247535
0.00023486
0.000152911
0.000162107
0.000149534
0.000184745
0.000177845
0.000185757
0.000149854
0.000171923
0.000146882
0.000159431
0.000162995
0.0361686
0.000179586
0.000149643
6.45168e-05
0.000163647
0.027723
0.000304618
0.000327671
0.000147215
0.000176493
0.000165128
0.000145957
0.000149048
0.00015748
0.0163887
0.000200152
0.037522
0.000161209
0.000185021
0.000204233
0.0626587
0.000197358
0.000148548
0.000172068
0.000161415
0.000151204
0.000146873
0.000179262
0.000382569
0.000153455
0.00014806
0.000170103
0.000169963
0.0399287
0.00022366
0.000148299
0.000148326
0.000173127
0.0115675
0.000150157
0.019295
0.0302878
0.000185095
0.000146322
0.000196947
0.000170191
0.0386805
0.000147556
0.0131997
0.000147162
0.000178262
0.000147034
0.0360688
0.0104512
0.000153562
0.000285814
0.000154967
0.000146358
0.000208878
0.000178994
0.000160957
0.00207782
0.0253987
0.000146159
0.000155964
0.0463532
0.0419061
0.000149476
0.000147417
0.0117033
0.000187982
0.000149757
0.000198979
0.000180876
0.000161956
0.000161632
0.000149476
0.000163254
0.0266618
0.000146676
0.00017993
0.000173632
0.000147464
0.000148205
0.000174821
0.0159162
0.000178237
0.000157654
0.000154609
0.000149789
0.0147466
0.0014119
0.000200637
0.000146409
0.0468697
0.0176621
0.000229333
0.0220832
0.000177148
0.000149376
0.000147342
0.000169138
0.0338925
0.000185339
0.000152194
0.000229277
0.00016354
0.000144993
8.05527e-05
0.000148457
6.4749e-05
0.000153023
0.000149722
0.000155325
0.000162488
0.000162071
0.000199565
0.000158929
0.000147275
0.000213161
0.00243445
0.00300644
0.000147566
0.000224961
0.000149113
0.000147264
0.00014792
0.000217905
0.000148566
0.000179748
0.000161133
0.000146755
0.000170209
0.00015033
0.000360789
0.000163348
0.000174342
0.000146163
0.000148132
0.0592454
0.0178793
0.000147827
0.000147186
0.00014855
0.000147045
0.0475559
0.000146128
0.0375614
0.000148076
0.000202462
0.00015908
0.000418452
0.000152496
0.000233113
0.000184226
0.000155334
0.000187822
0.000194346
0.000149034
0.0281509
0.000172429
0.0207632
0.000153868
0.0126312
0.000156496
0.0753181
0.000180879
0.000171322
0.000171035
0.0135693
0.000149386
0.000163514
0.0679394
0.000149059
0.000151301
0.0182227
0.000182045
0.000149398
0.000202398
0.000198372
0.000146773
0.0145829
0.000203679
0.000148409
0.000146987
0.000149165
0.000145801
0.000211228
0.000152662
0.000211657
0.0655017
0.000147967
0.000181887
0.00924211
0.00016401
0.0206928
0.0371838
0.0130162
0.000146105
0.000199641
0.000146837
0.00794697
0.000147468
0.000450314
0.000180873
0.000151728
0.000149252
0.000172019
0.000177958
0.000175953
0.000691584
0.0698079
0.0307554
0.000163672
0.000169582
0.000147476
0.0458736
0.0220768
0.000148223
0.000222151
0.000148205
0.000204404
0.000148078
0.00014946
0.000150445
0.0210626
0.000150394
0.017633
0.018812
0.000188295
0.000193208
0.000148949
0.000193424
0.000190409
0.000148062
0.000183675
0.000148963
0.000148159
0.000179095
0.00014972
0.000148121
0.000146808
0.00020419
0.000149616
0.0134986
0.0153686
0.00734777
0.000197091
0.0213346
0.0375078
0.00016373
0.000147987
0.000191592
0.000152266
0.000156942
0.00014849
0.000193913
0.0166312
0.0112097
0.000153254
0.000183172
0.000153511
0.000152968
0.000175846
0.000150195
0.000200362
0.000148742
0.000148522
0.0515195
0.0268678
0.0275873
0.000178834
0.00485631
0.0303271
0.0661804
0.0253149
0.000145225
0.000171122
0.000150254
0.000148493
0.000217674
0.000169584
0.000147653
0.000172496
0.000162761
0.0236973
0.000148031
0.000185149
0.0233737
0.000218684
0.0169168
0.00014967
0.000148282
0.00015092
0.000160442
0.000146117
0.0123917
0.000202226
0.000158841
0.0446845
0.000154278
0.00018516
0.0694349
0.000204594
0.000187474
0.000202989
0.000185117
0.00017186
0.000190723
0.000163873
0.000190169
0.000197987
0.000166425
0.000178368
0.00014695
0.00022885
0.000154949
0.000145269
0.000159687
0.000149439
0.0250178
0.00924218
0.000147
0.000145145
0.00744358
0.0310393
0.000149721
0.0136395
0.000149216
0.00019145
0.000147124
0.0396412
0.000227786
0.000156068
0.000148517
0.0228152
0.000195532
0.0142304
0.000149776
0.0307509
0.000366571
0.000348746
0.000145323
0.0513513
0.0318755
0.000164015
0.000146935
0.000148891
0.000176
0.000207688
0.000147172
0.000147036
0.000147508
0.000147466
0.0413861
0.000217657
0.000163718
0.000199288
0.000147568
0.000146519
0.000182792
0.0468595
0.000159343
0.000146961
0.000148112
0.000148608
0.000108729
0.0683402
0.000149075
0.000148533
0.000198168
0.000163585
0.000159089
0.00014827
0.000150602
0.000154826
0.00017786
0.000189517
0.000200293
0.000191916
0.000181905
0.000224217
0.000174193
0.000147646
0.03106
0.000148618
0.000151653
0.000151314
0.000229124
0.000168457
0.000146579
0.000219476
0.000181494
0.00980948
0.000181904
0.000159978
0.000163686
0.000149189
0.0111733
0.000205114
0.0280874
0.000148517
0.000156631
0.000200071
0.0389063
0.0105517
0.000174695
0.000181286
0.000153159
0.000151673
0.000148334
0.00016477
0.000168877
0.000149547
0.000169818
0.000172796
0.0266948
0.0168596
0.000151803
0.00018451
0.000221139
0.000156217
0.000149909
0.000433275
0.00128933
0.00101373
0.000198237
0.000145128
0.0156268
0.000175642
0.00014682
0.000158145
0.00017683
0.000159525
0.000179123
0.0217462
0.000190217
0.000161469
0.00968842
0.000150006
0.0218398
0.000149539
0.000149025
0.000225178
0.00110259
0.000203124
0.000149992
0.000149464
0.000148525
0.000164011
0.00044274
0.000184671
0.0001519
0.000186265
0.000171511
0.00014716
0.000289114
0.000184106
0.000201758
0.000147415
0.000189711
0.000149394
0.0242699
0.000170901
0.000168457
0.000156898
0.000146936
0.000145397
0.000147691
0.000172354
0.00015636
0.00020199
0.000496875
0.000171603
0.000146841
0.000189382
0.000203962
0.000216972
0.000146576
0.000155808
0.000147095
0.000155701
0.000152735
0.0337152
0.000149474
0.000400975
0.000155504
0.00019074
0.000175338
0.0460393
0.000169147
0.00014877
0.0330904
0.019923
0.000148009
0.000151202
0.000228454
0.000194485
0.000185294
0.000149544
0.000148581
0.000194954
0.000151879
0.000175702
0.000173778
0.0001454
0.000169893
0.00831012
0.00014647
0.000149309
0.000147653
0.0172196
0.000149747
0.000152926
0.0388241
0.000151196
0.000591614
0.000154761
0.000160338
0.000147598
0.000164978
0.000147981
0.000171182
0.00014698
0.000171016
0.000149217
0.0185632
0.000309915
0.0468695
0.000150035
0.00014931
0.000173368
0.000166996
0.0217614
0.0304365
0.000169216
0.000148261
0.000203832
0.000205427
0.000200357
0.000199322
0.000168233
0.0203706
0.000162701
0.00016268
0.000187883
0.000176533
0.000168924
0.000230685
0.000168668
0.000150269
0.000177799
0.000155421
0.000145681
0.000155538
0.000165666
0.000155628
0.00014805
0.000147286
0.000171599
0.000150122
0.00017591
0.000148239
0.000148316
0.000149804
0.000150495
0.000144598
0.000153709
0.0001478
0.0391436
0.000172894
0.00018903
0.000146286
0.000149613
0.000163151
0.000172135
0.000150934
0.000610347
0.000171929
1.17903e-05
0.000155612
0.000185505
0.000148464
0.000149771
0.00014734
0.000150357
0.0267161
0.000149671
0.000235136
0.00015402
0.0112398
0.000164111
0.000172355
0.000190221
0.000145451
0.000149934
0.000173354
0.000148625
0.000149534
0.000240448
0.000149803
0.000149154
0.000155402
0.000147375
0.000145527
0.00015562
0.000156923
0.0165756
0.000160509
0.000146459
0.000146918
0.041094
0.000172156
0.000148676
0.000148488
0.00041721
0.000226932
0.031961
0.000159909
0.000150313
0.000146236
0.000145412
0.000166982
0.000161106
0.000201431
0.000154175
0.0264808
0.000148593
0.000151846
0.0274963
0.000148251
0.000155061
0.000147816
0.000148403
0.000165001
0.000162271
0.000148728
0.000912748
0.0147044
0.000175718
0.000147617
0.000144898
0.000184487
0.000234138
0.000149717
0.000218977
0.000144901
0.000164489
0.000145618
0.000145908
0.000209502
0.000147146
7.13592e-05
0.000163241
0.000149802
0.000145072
0.000148993
0.00014709
0.000149169
0.000418904
0.000146299
0.000145892
0.0220287
0.00146975
0.000162249
0.000166459
0.000174982
0.00015256
0.000146094
0.000156568
0.0372947
0.000171609
0.000148765
0.000148371
0.0262693
0.000160955
0.0726936
0.000149751
0.000151118
0.0154542
0.000159318
0.000148875
0.0233772
0.000286858
0.000147062
0.000186216
0.00014732
0.000147037
0.000146202
0.0506795
0.000144558
0.000146542
0.000146054
0.00022226
0.000151765
0.000191469
0.000166482
0.000145842
0.000159041
0.000149076
0.0675877
0.000147525
0.000146383
0.000149155
0.0001852
0.000149105
0.000190301
0.0115257
0.00142088
0.000155428
0.000204289
0.0447954
0.000148075
0.013393
0.0547539
0.0500405
0.0215379
0.024738
0.00660842
0.000188216
0.00014895
0.0224589
0.000159277
0.0243038
0.000145299
0.000146767
0.000148715
0.000149025
0.000153407
0.000158066
0.021552
0.000146695
0.000148505
0.0129675
0.000183626
0.000149008
0.000161155
0.000156765
0.000147961
0.000302807
0.00016148
0.000152188
0.000151701
0.0118063
0.0334272
0.000256366
0.000145526
0.000195459
0.000181492
0.0448009
0.0151675
0.000178866
0.00014709
0.000148615
0.000148598
0.000144504
0.000150623
0.000145173
0.000154916
0.000162227
0.0501469
0.000187557
0.000146591
0.000185031
0.0663725
0.000163894
0.000149631
0.0242605
0.000146651
0.000149357
0.000160811
0.0512797
0.000149127
0.000147436
0.020082
0.000200761
0.00021738
0.000183468
0.000210219
0.000147211
0.000192
0.000149697
0.000147783
0.000149763
0.0152951
0.0385113
0.000145827
0.000145044
0.000147906
0.00022996
0.000150318
0.000156757
0.000148597
0.000149154
0.000191582
0.000145923
0.000171678
0.000189922
0.0274486
0.000147364
0.000170373
0.000152063
0.0442265
0.0640502
0.000148107
0.057406
0.000176079
0.00026385
0.00014911
0.0218605
0.000149608
0.000154198
0.000164337
0.000183368
0.0101588
0.000203685
0.000190777
0.00223235
0.000146803
0.000202966
0.000145849
0.000155373
0.0212449
0.000148524
0.000149663
0.000149701
0.000147916
0.0476486
0.00014543
0.000148398
0.000170368
0.000166592
0.000168142
0.000202536
0.00018546
0.0255483
0.000172964
0.000160488
0.000162241
0.0307738
0.00016264
0.00418261
0.0212818
0.000152706
0.000145929
0.0202842
0.000201525
0.000149804
0.00018346
0.000159587
0.000148
0.000153778
0.000148032
0.000164369
0.000149942
0.000167774
0.000170835
0.000146894
0.000172186
0.000146118
0.000165975
0.000146946
0.000155228
0.000171641
0.000150349
0.000147514
0.000145887
0.00028167
0.00017339
0.000272783
0.00014811
0.000148113
0.000172082
0.000147818
0.000179262
0.000173344
0.000148007
0.00018112
0.000146021
0.00631929
0.000149672
0.000161191
0.0206782
0.000202202
0.000147271
0.000151365
0.0102909
0.000147795
0.000147182
0.0500525
0.0554964
0.000153177
0.000189579
0.000148559
0.000147488
0.013754
0.000150096
0.000145514
0.000204423
0.000146117
0.000220723
0.00014925
0.000145543
0.000148761
0.000186075
0.020803
0.000148864
0.00014909
0.000147219
0.000154096
0.00014837
0.000222698
0.000171599
0.000149772
7.87672e-05
0.000164181
0.000204108
0.0308711
0.000427252
0.000145762
0.000149437
0.000148085
0.000201062
0.000154661
0.0208782
0.043168
0.000152419
0.0234038
0.000325409
0.000167954
0.000188034
0.000168068
0.000189914
0.00801737
0.000166435
0.000253446
0.0350728
0.000173137
0.00015346
0.031063
0.000164353
0.000145366
0.000150149
0.0268999
0.000161649
0.000146945
0.000165242
0.000180734
0.000162425
0.0285491
0.00015149
0.000279264
0.000162305
0.000200537
0.000185598
0.000196213
0.00015622
0.000145981
0.000149504
0.00536629
0.000147754
0.000152595
0.000146406
0.000150629
0.000146686
0.000159866
0.000189463
0.000296156
0.000162714
0.000165863
0.0087317
0.000187274
0.000146602
0.000226795
0.0135475
0.000145747
0.000147115
0.000157545
0.0309519
0.000149669
0.000175114
0.000201047
0.000165289
0.000148697
0.000149659
0.000146183
0.000183428
0.000162053
0.000147735
0.0145744
0.0207818
0.000162741
0.000221777
0.000173448
0.000399744
0.000151011
0.000152893
0.00168915
0.000225787
0.000179246
0.000258673
0.000155897
0.000149826
0.000146857
0.000148287
0.000148387
0.000150505
0.000165518
0.000147347
0.000186143
0.000147371
0.000155852
0.000145743
0.00017247
0.000185596
0.000226932
0.000147998
0.00019623
0.000146856
0.000353589
0.000148181
0.000154837
0.000148719
0.000199614
0.0425593
0.000187412
0.000147293
0.000187586
0.000147889
0.000156982
0.0508546
0.000146919
0.000149832
0.000165845
0.000158117
0.0220974
0.00014736
0.000157318
0.000149576
0.000148103
0.000158649
0.000149313
0.000145975
0.000152045
0.0283781
0.000152065
0.000203204
0.00116669
0.000168924
0.0218568
0.00015179
0.000146017
0.000158031
0.0301636
0.000149966
0.000160974
0.000163699
0.000410197
0.00014698
0.00351559
0.000172793
0.000175396
0.000145683
0.000145169
0.000190026
0.000149947
0.000149896
0.000159362
0.000145364
0.000153076
0.000155988
0.00017549
0.000184145
0.0183538
0.000152272
0.000176605
0.000191456
0.00929025
0.000161418
0.00018045
0.0294563
0.000162607
0.0138546
0.000152635
0.00221809
0.00457922
0.000145247
0.000149722
0.000147458
0.000148694
0.000165606
0.000145741
0.000152911
0.000178771
0.000150259
0.000159807
0.040513
0.000157622
0.000151331
0.0154296
0.000148888
0.013891
0.000151393
0.000164817
0.0001469
0.0327298
0.0396965
0.000147889
0.000148954
0.0194199
0.000157266
0.0183427
0.000147968
0.000146094
0.0257094
0.000148989
0.00016243
0.0123565
0.000148487
0.000170066
0.000156526
0.000145138
0.0001471
0.0216148
0.0420541
0.000148218
0.000150445
0.000148385
0.000154407
0.000160756
0.0249099
0.000150255
0.0003301
0.000229317
0.000200002
0.000231492
0.000148901
0.000184205
0.000177014
0.000156968
0.000148331
0.000171966
0.0387312
0.000151655
0.000162469
0.00408581
0.000455123
0.000183544
0.000154367
0.000149022
0.000149612
0.000148601
0.0344264
0.000170277
0.000150806
0.000149177
0.000151833
0.000149781
0.000147741
0.000148561
0.000176314
0.000161515
5.74411e-05
0.000163233
0.0138158
0.0187644
0.000157691
0.000168417
0.000146414
0.000156215
0.0286237
0.000148205
0.000151205
0.000168623
0.000185384
0.000164998
0.0153817
0.000201301
0.000146695
0.0304656
0.00014494
0.000148095
0.000163279
0.000149805
0.000146652
0.000192931
0.000306587
0.000146155
0.0066804
0.000148054
0.0001457
0.000151029
0.000356672
0.000156537
0.000151356
0.0294426
0.000149887
0.000201198
0.0232482
0.000149606
0.000163415
0.000147883
0.0110391
0.000175404
0.000148661
0.0169495
0.000169901
0.000167885
0.000149842
0.037792
0.000156941
0.000192547
0.000149231
0.000166859
0.034862
0.00014584
0.000244859
0.000148794
0.000172566
0.000164017
0.0001496
0.0379153
0.000151515
0.000185011
0.000171201
0.000169821
0.000161983
0.000162615
0.000150135
0.00367484
0.00015852
0.0120439
0.000157436
0.000173387
0.000147281
0.000165106
0.000148572
0.000173998
0.00471466
0.000149889
0.000146442
0.000437474
0.000149362
8.87748e-05
0.000148756
0.00751731
0.000201705
0.000160579
0.000147724
0.000147333
0.000148696
0.000145176
0.000181925
0.000165178
0.000161348
0.000153636
0.00014841
0.00022673
0.00015055
0.000159877
0.000220196
0.000148473
0.0271907
0.000168576
0.000156351
0.000253513
0.0363981
0.000214663
0.00270921
0.000274579
0.000146926
0.000190248
0.0418051
0.000186622
0.000149072
0.000149563
0.000184921
0.0188356
0.0138795
0.000213845
0.0001478
0.000164069
0.000162999
0.0229448
0.00334051
0.000163709
0.000187058
0.000151693
0.000172957
0.000179017
0.000149012
0.000181324
0.000237428
0.000148806
0.000234418
0.000149658
0.000147051
0.0264536
0.0419544
0.000146699
0.000148013
0.000148865
0.000146158
0.000164896
0.000193422
0.000149618
0.000147703
0.000148523
0.000162742
0.00015546
0.000155256
0.000212335
0.000148333
0.0475743
0.0217019
0.0375208
0.000174486
0.00016896
0.000214275
0.000159243
0.0224365
0.00022109
7.69173e-05
0.000149142
0.0521078
0.0203613
0.000146121
0.000148066
0.000179384
0.0724005
0.00292435
0.000145845
0.000147949
0.0268344
0.00041675
0.000143934
0.000151551
0.000152744
0.000304411
0.000148894
0.030559
0.0366366
0.00021435
0.000281034
0.000148716
0.000147217
0.000146982
0.000155046
0.0240944
0.000162863
0.000152757
0.000150749
0.000170901
0.0337138
0.000162813
0.000101704
0.0168801
0.0160307
0.000314001
0.000148301
0.000149065
0.00549895
0.000145366
0.000145362
0.000150694
0.000419356
0.000161593
0.0477872
0.000185726
0.000148031
0.037518
0.0001629
0.000146727
0.0197015
0.000175603
0.000154419
0.000147451
0.00686953
0.0733989
0.000149141
0.000465445
0.000223459
0.0719616
0.000280841
0.000172904
0.000147275
0.000148936
0.000281816
0.000153201
0.00222289
0.000164232
0.00028142
0.000204325
0.000150987
0.000156827
0.000147228
0.000150425
0.0725281
0.0118673
0.000148565
0.0257805
0.0001642
0.000148012
0.000153381
0.000147293
0.000191345
0.00014883
0.000309978
0.00016407
0.00014719
0.000146888
0.00016928
0.0204973
0.000162423
0.000151818
0.000164768
0.00014854
0.000150023
0.000154692
0.0279005
0.0183906
0.0740385
0.000145763
0.000146836
0.000149059
0.000184542
0.000146845
0.000149146
0.000193
0.000171684
0.000209368
0.000145178
0.0704128
0.0183175
0.000149885
0.0253378
0.000185104
0.000161176
0.000314078
0.000148865
0.043629
0.000157157
0.000150973
0.000152585
0.000145345
0.000198264
0.000151083
0.000148994
0.000158228
0.0179822
0.0218774
0.000149607
0.000147976
0.000150787
0.000147376
0.000186921
0.000150056
0.000177861
0.000150508
0.037027
0.000148881
0.0273706
0.000145766
0.0438094
0.000148618
0.000145239
0.0716009
0.000184095
0.000171197
0.000212463
0.000162515
0.00016323
0.000148551
0.0464062
0.000148587
0.000146893
0.000169096
0.000172729
0.0541137
0.0530314
0.000185407
0.000891997
0.000185336
0.000231121
0.000147574
0.000152416
0.00015515
0.0529318
0.000154047
0.0617767
0.0194088
0.0001477
0.000148957
0.000147973
0.000267741
0.000423207
0.000150239
0.000148592
0.000153999
0.000155664
0.000161958
0.000205432
0.000186745
0.000148273
0.000209137
0.000177049
0.0262268
0.000175778
0.000150712
0.000151269
0.0409716
0.000146961
0.000178912
0.00981231
0.000150165
0.00015328
0.000193583
0.000173891
0.000150515
0.0160087
0.000151855
0.000202831
0.000162696
0.000157603
0.0001491
0.0720019
0.000146764
0.000169999
0.00026586
0.0760887
0.000168002
0.000172263
0.000152953
0.000163271
0.00014975
0.0773716
0.000154054
0.000147071
0.000156924
0.000148474
0.000149775
0.000450681
0.000148375
0.000149116
0.000148157
0.000187403
0.000149725
0.000159332
0.000176312
0.000192037
0.000183386
0.000149665
0.000180478
0.00019064
0.000193643
0.000176748
0.000156488
0.000190763
0.00151632
0.000214684
0.000149887
0.000154079
0.0114067
0.000149883
0.000151558
0.000145288
0.000213019
0.000179676
0.000147264
0.000253557
0.0578715
0.000146439
0.000149581
0.0180544
0.0208906
0.000173254
0.000145356
0.000452687
0.0208604
0.000464787
0.000148003
0.0524697
0.000177439
0.000166782
0.065604
0.000153748
0.000145363
0.000157093
0.000190349
0.000158332
0.0174889
0.0701928
0.000146399
0.000416618
0.000193185
0.0483258
0.000145746
0.000164475
0.000149959
0.000147248
0.0382068
0.000231603
0.000201316
0.000234959
0.000156959
0.0001684
0.000149221
0.0778065
0.0134202
0.000148607
0.000148366
0.000158621
0.000146048
0.000168484
0.0250963
0.00060691
0.000168676
0.000148779
0.000147574
0.0415363
0.000153588
0.000169318
0.000146253
0.000150515
0.000218571
0.000233177
0.000207632
0.000351834
0.000149055
0.000202715
0.000149972
0.000163356
0.0136449
0.0267788
0.000148393
0.000149955
0.000160292
0.000154599
0.000149443
0.0342788
0.0563957
0.000146047
0.000144707
0.000149215
0.000147562
0.000321072
0.000145687
0.0163182
0.000182087
0.000172581
0.00014661
0.00016533
0.0719934
0.000159398
0.000190147
0.0583195
0.000149079
0.0304856
0.000159141
0.000160236
0.000186043
0.0353027
0.0476359
0.000171732
0.000147003
0.000184088
0.000145752
0.000154385
0.000149364
0.0145606
0.000158472
0.000283182
0.000201142
0.000167517
0.000148773
0.000196726
0.000154351
0.000149783
0.000182153
0.000145003
0.000161507
0.000159845
0.000149204
0.00443759
0.000151104
0.000201098
0.000150544
0.000147315
0.06796
0.0301667
0.000152845
0.000159025
0.0001624
0.000169107
0.000171355
0.000153553
0.000154164
0.000152727
0.000199368
0.000153866
0.011335
0.000165787
0.000201189
0.000183514
0.000148952
0.0312048
0.000145069
0.0128276
0.000153112
0.0695983
0.000207874
0.000315126
0.000163588
0.000204299
0.000167749
0.000147141
0.0292411
0.000168628
0.000148613
0.0312889
0.000807721
0.000151542
0.00015077
0.000157704
0.000157719
0.000158557
0.0367473
0.000149883
0.000156536
0.000160095
0.000158706
0.000149009
0.00017887
0.000145035
0.0102244
0.000151971
0.000185626
0.000158425
0.000162876
0.000178769
0.000232317
0.000177208
0.000146519
0.000182755
0.0245381
0.0358802
0.000148338
0.00450337
0.000156201
0.000293419
0.000148568
0.000152779
0.034624
0.000168358
0.0360553
0.0352219
0.000159192
0.0510744
0.000147553
0.000144967
0.0297637
0.000165492
0.000152662
0.0174879
0.000154712
0.000162959
0.000157117
0.000173245
0.000148096
4.76254e-05
0.000459716
0.0108087
0.000202134
0.000153174
0.000169152
0.0389452
0.000152231
0.000149345
0.000173145
0.000145668
0.000182186
0.0587976
0.0129657
0.0185426
0.000170326
0.0001485
0.0492568
0.000144975
0.000176766
0.000149524
0.028431
0.000151523
0.000163696
0.0250077
0.000184667
0.000148004
0.000158664
0.0168879
0.000149025
0.000189634
0.000146156
0.00117072
0.0641436
0.000184942
0.000167677
0.000147445
0.000195599
0.00018815
0.000162759
0.000146196
0.000148529
0.000148887
0.000169847
0.000148755
0.000179246
0.000149363
0.000146172
0.0556757
0.000146648
0.000154618
0.000152381
0.000149815
0.0282599
0.000146652
0.000159773
0.0412661
0.000166851
0.0106162
0.000148788
0.0746116
0.000167909
0.0251195
0.000151238
0.000186798
0.000147632
0.000163534
0.000185923
0.000184292
0.000197619
0.0530996
0.000195061
0.000280305
0.000155811
0.0001843
0.000162329
0.000232043
0.000153704
0.000147436
0.000148457
0.000168722
0.000163824
0.000227765
0.000169647
0.00393058
7.01307e-05
0.000170517
0.000147902
0.000234957
0.000177476
0.000150109
0.000152644
0.000148657
4.65671e-05
0.000148505
0.0104059
0.000146566
0.00015446
0.0484558
0.000169092
0.000148253
0.000148391
0.0268396
0.000146759
0.000152241
0.000152765
0.000159058
0.00015531
0.000148508
0.000189397
0.000168146
0.00016241
0.000201062
0.0588896
0.0272372
0.0357125
0.000145871
0.000147935
0.00017044
0.000148532
0.000163214
0.0055945
0.0287386
0.000145334
0.000148505
0.0230784
0.000208899
0.000145438
0.000146526
0.000155349
0.0572019
0.0190098
0.000154353
0.00015996
0.00014926
0.000204281
0.000186498
0.000173858
0.000158629
0.000162872
0.000150203
0.000162121
0.000204538
0.000150796
0.000147866
0.000154175
0.0134189
0.000153775
0.0311972
0.000148577
0.0343506
0.000160946
0.000156806
0.000146186
0.000147234
0.000218539
0.000150633
0.00016509
0.0142434
0.0627218
0.000149956
0.0432854
0.000187471
0.000147116
0.000217379
0.000202959
0.000184996
0.000149663
0.0237161
0.0493698
0.000146914
0.000161814
0.0182438
0.000164601
0.000148217
0.00014613
0.000148635
0.000151059
0.000177051
0.000203873
0.000168039
0.000175469
0.000145889
0.00014885
0.00081507
0.000146531
0.000166083
0.000155571
0.000147404
0.000168445
0.000148021
0.000151829
0.00020316
0.000147793
0.0555942
0.000148044
0.00128283
0.0282857
0.000180563
0.000148824
0.000149947
0.0555375
0.000145272
0.000151835
0.000149886
0.000193561
0.000237838
0.000159646
0.0297187
0.000162093
0.000217276
0.000150586
0.000175614
0.000146025
0.000148825
0.0253122
0.0309677
0.000241739
0.000151332
0.000175712
0.000175661
0.0469528
0.0451603
0.000201568
0.00016296
0.000144947
0.0527818
0.00014683
0.00014723
0.000201674
0.000184667
0.000156461
0.000177274
0.000163443
0.000158408
0.000155328
0.0455256
0.000151829
0.000147743
0.0275861
0.000163533
0.000145689
0.0206818
0.00014805
0.000148613
0.000191468
0.000181296
0.0508631
0.000145802
0.000153416
0.000147155
0.000303357
0.000146728
0.000197595
0.000237163
0.0272506
0.0188732
0.0084629
0.000157877
0.0488362
0.000224737
0.000149338
0.000157812
0.000162437
0.000157812
0.000251805
0.0385953
0.0675838
0.0255206
0.000342925
0.000148796
0.000183675
0.000148109
0.0249841
0.000156019
0.00014982
0.000151564
0.0001493
0.000146857
0.000183599
0.0698189
0.000145797
0.000150983
0.000146826
0.0391541
0.000150739
0.0569203
0.0133962
0.000239887
0.000148583
0.000146908
0.0277184
0.000189156
0.000148837
0.000185298
0.000149473
0.000182356
0.000176677
0.000181186
0.000168696
0.000247363
0.000146244
0.000146024
0.000197001
0.020548
0.000156727
0.000164936
0.000147354
0.00934392
0.000148021
0.000147476
0.000150247
0.000147999
0.0100913
0.0341444
0.000217706
0.000171482
0.0572196
0.00021625
0.000145382
0.000157788
0.000145603
0.000253223
0.000147178
0.000153238
0.000148003
0.000147198
0.000145986
0.000337689
0.000149182
0.000270628
0.000144937
0.000159147
0.00015431
0.000274031
0.000148143
0.000158127
0.000160123
0.000169791
0.0735783
0.000147168
0.0208448
0.00017249
0.000163595
0.000148277
0.000147426
0.0218461
0.0134598
0.000147218
0.000146723
0.000201843
0.000200233
0.000160922
0.0356919
0.000150295
0.000205087
0.000157902
0.000145672
5.89769e-05
0.000149416
0.0224047
0.00014843
0.000149377
0.00014868
0.0318871
0.0267825
0.000145467
0.000180165
0.000198407
0.00014825
0.000146601
0.000147075
0.000181787
0.0419344
0.000171569
0.000151355
0.000163093
0.000148027
0.000148448
0.000151004
0.000147835
0.000194121
0.000148649
0.000173032
0.000219954
0.000160946
0.00014513
0.00441187
0.000176934
0.000148092
0.00017423
0.000157473
0.000214988
0.000153634
0.0488724
0.000170878
0.000147767
0.000177725
0.00017796
0.000152204
0.048294
0.00017182
0.000156447
0.000217518
0.000147372
0.000180305
0.000168967
0.000177747
0.000147352
0.000147744
0.000145251
0.000159483
0.000170225
0.000169762
0.000103923
0.0415382
0.0139294
0.000149756
0.000305786
0.0272112
0.041695
0.000148048
0.00014795
0.000169753
0.0206625
0.000152444
0.000160367
0.0111313
0.0296439
0.00133346
0.000171885
0.000192076
0.0227151
0.000216003
0.000145027
0.000800071
0.000199944
0.000148471
0.000148289
0.00015003
0.0768499
0.000179475
0.00093328
0.000151609
0.000133176
0.00014796
0.000218617
0.0208958
0.000148991
0.000159699
0.0544937
0.00106546
0.000170264
0.000149639
0.000151836
0.00015
0.000180921
0.000185322
0.0002947
0.0425238
0.000145894
0.0216424
0.000185157
0.000218856
0.000148024
0.000149012
0.000219167
0.000183785
0.000147611
0.000168173
0.000167394
0.000161223
0.00961737
0.0157238
0.0759107
0.0466522
0.000153855
0.000145328
0.000166555
0.0170178
0.00225531
0.000146949
0.000181344
0.000169146
0.00019562
0.000148297
0.00014968
0.000233769
0.00023383
0.000173733
0.00026343
0.0145647
0.000147488
0.000181754
0.0472469
0.000149398
0.000166212
0.000183034
0.000145517
0.000192096
0.0214279
0.000180832
0.000149672
0.0116631
0.000185339
0.0211467
0.000144448
0.000150605
0.000148339
0.000149654
0.000148246
0.000168349
0.00016192
0.000162144
0.000187477
0.000159496
0.0367455
0.000153903
0.000155847
0.000155846
0.029436
0.000165388
0.0442487
0.000155908
0.000156254
0.0153069
0.00017023
0.000148831
0.000162331
0.000233491
0.00284191
0.000205348
0.000147676
0.000147113
0.000147271
0.000215856
0.000150806
0.00033754
0.000258344
0.000181387
0.000158557
0.000196848
0.0390328
0.000148254
0.000191792
0.000159418
0.000163981
0.000147287
0.000146759
0.000169701
0.0653279
0.000148393
0.039273
0.000202211
0.000169842
0.000190182
0.00014679
0.00014797
0.000157025
0.000149341
0.0227522
0.0231067
0.00016884
0.000218889
0.000147541
0.000147837
0.000148081
0.00014961
0.0655084
0.000150046
0.0561701
0.00016906
0.000148364
0.000188355
0.000292956
0.0235184
0.0297739
0.000150598
0.00014592
0.000148774
0.000150218
0.00021901
0.000180463
0.0355741
0.000148944
0.000148413
0.000174899
0.000149709
0.000198175