/*--------------------------------*- C++ -*----------------------------------*\
| =========                 |                                                 |
| \\      /  F ield         | OpenFOAM: The Open Source CFD Toolbox           |
|  \\    /   O peration     | Version:  v2012                                 |
|   \\  /    A nd           | Website:  www.openfoam.com                      |
|    \\/     M anipulation  |                                                 |
\*---------------------------------------------------------------------------*/
FoamFile
{
    version     2.0;
    format      ascii;
    class       volScalarField;
    location    "50";
    object      nut;
}
// * * * * * * * * * * * * * * * * * * * * * * * * * * * * * * * * * * * * * //

dimensions      [0 2 -1 0 0 0 0];


internalField   nonuniform List<scalar> 
13917
(
0.000385556
0.00181386
0.0218818
0.00173761
0.00672495
3.56109e-05
0.021324
0.0180877
0.0215309
0.000266109
0.000260685
0.000593585
0.0017433
0.000666866
0.000556477
0.000731263
0.0018907
0.000482638
0.000697237
0.00672324
0.00672594
0.0215454
0.00672481
0.0218147
0.0067397
0.0207631
0.000162349
0.000109752
3.10101e-05
0.000340331
0.000409687
0.000650515
0.000221281
0.000577727
0.00531095
0.0109247
0.00672467
0.0138291
0.00137881
0.00475974
0.00674116
0.0067262
0.00673117
7.25191e-05
0.00253978
0.000485148
0.000524489
0.000480108
5.33421e-05
0.00672116
0.000928287
0.00194953
6.04591e-05
0.000520169
0.00171107
0.000857986
0.000867188
0.00303817
0.000961989
0.00253453
0.00732666
0.00207312
0.000341672
0.00672315
3.63278e-05
0.00232631
0.00672468
0.00660805
0.000211831
0.000343342
0.00672476
0.0215288
0.00966416
0.00607845
4.76356e-05
0.000697735
0.00502451
0.00161583
0.0198297
0.0067256
0.00672518
0.00672437
3.55989e-05
0.0158203
0.00939144
0.00172776
0.0067249
0.00151194
0.000977283
0.00673289
0.0122623
0.000298573
0.00393601
0.00111487
0.00181187
3.67654e-05
0.000391878
0.000497581
0.000835147
5.66468e-05
0.00672681
0.000256096
6.97409e-05
0.00146044
0.00674501
0.020962
4.26758e-05
0.000483052
0.00179643
0.000363129
0.0104773
0.00621597
0.000664335
0.0216729
0.00121251
5.06454e-05
0.00673133
3.86163e-05
0.00655879
0.000528334
0.00672604
0.000723872
0.00691095
0.000130161
0.00672589
0.00121102
0.00253338
0.00672656
0.00672344
3.56259e-05
0.0152288
0.00117869
0.00243665
0.00672603
0.0101479
0.0217139
0.000383625
5.27665e-05
0.00672493
0.000553629
0.00814421
0.00616009
0.00148373
5.82732e-05
0.00521427
0.0198297
4.19019e-05
0.00182497
0.00676654
0.000554949
0.000515007
5.03157e-05
0.000569732
0.000276646
0.000741146
0.00386249
0.000388383
0.0146518
0.00274974
0.00992851
0.000776221
0.000159521
0.0067256
0.000503659
0.000689553
0.000706867
0.00148639
0.0005277
0.00337787
0.000257233
0.000263504
0.00322149
0.000606726
0.00141343
0.0175453
0.00023757
0.0165883
4.1098e-05
0.0197845
0.00405779
0.000300645
0.00040953
0.00622389
0.00672486
0.000396692
0.0206775
0.000532407
0.0037852
0.000575581
0.000545837
0.0103807
0.00965158
0.000540273
0.00672496
5.40848e-05
0.000161583
0.00370586
0.00373477
4.74615e-05
0.00074558
0.00113009
0.00672108
0.000547862
0.000583835
0.00736348
0.0109171
0.0062633
0.00320542
0.000500241
0.0214102
0.00159994
0.0217265
0.00356395
0.00061956
0.00674352
2.75102e-05
0.000535824
0.00391459
0.00633944
0.0085514
0.00448256
0.000379473
0.00673209
0.0143229
0.0214281
0.000685052
0.000159404
0.000755584
0.00674256
0.00980701
0.000654583
0.000609857
0.021551
0.0021478
0.00672462
0.000608475
0.0142759
0.00713587
0.00672558
0.00672597
0.0067063
0.000796679
0.00672561
0.00475285
0.000478358
0.000157923
0.000439113
0.00672552
0.000204149
0.00298159
0.00337202
0.00026738
4.80314e-05
0.00263585
0.00323219
0.000558801
0.0105495
0.000498856
0.000333307
0.000604654
0.00672571
0.00406621
0.0153907
0.00578144
0.00674088
0.00817265
0.00289472
0.0137179
0.0200643
0.000772712
0.0067254
0.00672247
0.000522769
0.0106139
0.00048738
0.00101954
0.0122789
0.000848184
0.00672236
0.0112206
0.00672273
0.0210163
0.00110412
0.00672543
0.000530105
0.000258072
0.000168181
0.00605536
0.000339958
0.00278277
0.0018802
0.0214888
0.013455
0.00673899
0.0150905
0.00672402
0.00280974
0.00673024
3.41605e-05
0.0067211
0.000389218
0.000454051
0.00355231
0.000603856
0.0012503
5.1814e-05
0.000261741
0.000302363
0.00442549
0.00349246
0.00939541
0.00611713
0.00673253
0.00672829
0.0101578
0.00386197
0.0111803
0.00462889
0.0156615
0.00248013
0.00028097
0.000791043
4.90913e-05
0.000794843
0.00838808
3.47853e-05
0.00058295
0.000611093
5.06081e-05
0.00182505
0.0141653
5.53297e-05
0.00393937
0.000638432
0.00390614
0.000563891
0.013071
4.05345e-05
7.82643e-05
8.08129e-05
0.0204671
0.00672543
0.000279533
0.0121534
0.0022972
0.000985783
0.00352472
4.40217e-05
0.00160215
0.00827602
3.10572e-05
0.00672431
0.00372842
0.0101368
0.00672287
0.00673312
0.00672405
0.00676718
0.00133789
0.0181137
2.97289e-05
0.0112596
0.0067349
0.000265578
0.00118344
0.000582661
0.0216309
0.0130735
0.021559
0.00672944
0.00456786
0.00673407
0.00775246
0.00262615
4.74832e-05
0.000463683
0.00139903
0.00672525
0.000514326
0.000292051
0.000480706
1.4557e-05
0.0120717
0.00198399
0.000189556
0.000281198
0.00672526
0.00774075
0.0213122
0.00262158
0.00624723
0.00673211
0.000942295
0.00276045
0.00672552
0.00116482
0.0187267
0.00120345
0.0127162
0.00210692
0.000911555
3.27884e-05
0.00189445
3.11364e-05
3.09964e-05
0.00672595
4.4422e-05
0.00229649
0.00648797
0.000355463
0.00672548
0.00600144
0.00673421
0.000131417
0.00672572
0.00570085
0.0161933
0.00102299
0.000432784
0.0152881
0.00396291
0.000645033
0.00673314
0.000612943
0.00138657
0.00057774
0.00672525
0.0201375
0.0206394
0.0161951
0.000675193
0.000470642
0.000723953
0.0013566
0.000482045
0.00123796
0.00444486
0.0018232
0.00672251
0.0132476
0.0159691
0.0171024
0.000200948
0.0005494
0.0162278
0.0135377
0.00479914
0.00672393
0.000522132
0.00121928
0.00268613
0.00908829
0.000521094
0.00679089
0.00043575
0.000628607
0.00418032
0.00672631
0.000543722
0.000762344
0.000262358
0.00822974
0.0067258
0.00291064
0.0068617
0.000365752
0.00672813
0.0189189
3.33559e-05
0.000379475
0.00690998
0.000868925
0.000430189
0.0150895
3.42162e-05
0.000644644
0.00934342
0.000457344
0.000402503
0.000671081
0.000698802
0.000469378
3.83523e-05
0.000726886
0.000462831
0.00677694
0.00936659
0.000856593
0.00669877
0.000390985
0.00166979
0.00526815
0.0217479
0.00447004
0.00672832
0.019461
0.00232066
0.00672547
0.00512176
0.00179457
0.000352987
0.00438197
0.00641328
0.013931
0.000623414
0.00176238
0.0168815
0.000539818
0.00153829
0.00672568
0.00382791
5.14852e-05
0.0106008
0.00672345
0.00869064
0.0192017
0.000697325
0.00673403
0.00183599
0.000787974
0.00338207
0.00677985
0.00673179
0.0067213
0.00672149
0.00613218
0.00802034
0.000646362
0.000570187
0.00673826
0.00672598
0.00047824
0.0199068
0.0006099
0.00307981
0.00673736
0.00672873
0.0108846
0.0099043
0.00672461
0.00672975
0.00392495
0.000715773
0.000774327
0.0027217
0.00111279
0.000629007
0.00048094
5.15675e-05
0.000561904
0.000812901
0.000459143
0.0119284
0.000310556
0.00673802
0.00425658
0.00672796
0.000876816
0.00129536
0.00933658
0.000118236
0.00672748
0.000264527
0.000345371
0.00050564
0.000530414
0.000217832
0.000643353
0.006725
0.0187103
0.000348861
0.0213818
0.00199252
0.000767794
0.000549577
0.0139617
0.000267999
0.000491986
0.000200422
0.000675801
0.00103527
0.00286218
0.000124772
6.75905e-05
0.00259243
0.000531097
4.99494e-05
0.0215969
0.00203845
0.000920971
0.000528699
0.0131419
0.000548871
0.00158218
2.94241e-05
0.0179214
0.0218843
0.00061298
0.00672478
0.00521816
0.000715801
0.00673906
0.000607373
0.000489494
0.0002295
0.000348388
0.0203797
0.000613989
0.000741895
0.0189146
0.00139513
0.00302953
0.00672565
0.00672453
0.0174956
0.020204
3.34971e-05
0.00139992
0.00141035
0.0067291
0.000820787
5.3607e-05
0.000517739
0.000985647
0.000559346
0.000523303
0.00411392
0.00017244
0.000657397
0.00362523
0.00661052
0.000562747
0.00153652
0.0015546
0.000292875
0.000124793
0.00069665
0.00672263
0.00678654
0.00241456
7.93233e-05
0.000368725
0.000282689
1.47567e-05
0.0005423
0.00672394
0.000517699
3.04102e-05
0.0127392
0.00342526
0.00046551
0.00673105
0.0010546
0.000942903
0.019458
0.00672556
0.000261127
0.00107667
0.000300444
0.000267818
0.00944399
0.000130056
0.00194561
0.00915041
0.000487094
0.00276724
0.00141866
0.0139976
0.000596645
0.000522279
0.00672484
0.00180455
0.000188725
0.00138717
0.000496184
0.000588499
0.00679082
0.000571576
0.0218696
0.00383589
0.00202492
0.00672126
0.00503374
0.00672591
0.000734075
0.00388149
0.000992731
0.0170465
0.00076114
0.000199087
0.00672146
0.000197602
0.0067293
0.00039956
0.00672229
0.00015483
0.00199344
0.000954746
1.70862e-05
0.0198137
0.00684262
0.0067251
0.000318585
0.000382418
0.00618136
0.0210832
0.000514456
0.00647252
0.000186331
3.16616e-05
0.00343466
0.000499059
0.000528543
0.0189621
0.000381731
0.000889512
0.000523303
5.34143e-05
0.000500378
3.16243e-05
0.000482962
0.00159975
0.000495144
0.000537127
0.0050164
0.0010686
0.000366474
0.000576683
0.00672984
0.00673084
0.000534232
0.00150867
0.000438843
0.00583094
0.00672947
0.00672599
0.00114788
0.00674292
0.000791051
0.00672138
0.00590064
0.000666104
3.63268e-05
0.00672688
0.0067256
0.000129172
0.000433908
0.00133155
0.0108982
0.00021243
0.00767428
0.0010561
0.000491601
0.00198195
0.00672598
0.0067215
0.00115699
0.00210837
0.00672567
0.0133903
0.000703843
0.00160045
0.000162986
0.000209246
0.000702407
0.00674415
0.00672624
0.000677304
0.00515201
0.00159171
0.0110165
0.00135406
0.00672421
0.000745286
0.00672499
0.00673537
0.000619541
0.00040767
0.00359821
0.000462956
0.00362609
0.00673508
0.0159357
9.00065e-05
0.00202455
0.00215296
0.0106835
0.0140316
0.00217475
0.000240485
0.00158819
0.00672468
0.00673276
0.000713231
0.000421313
0.00594803
0.000583854
0.0122719
0.00188345
0.000884513
0.00166621
0.00673125
0.000938073
0.00325444
0.00672223
0.000369265
0.000147747
0.00179468
0.0202782
0.00854279
0.000286743
0.00673895
0.00675843
0.000584302
0.0128149
0.00672546
0.0107794
0.00675419
0.000392946
0.00482844
0.0046141
0.00548708
0.00289358
0.0100332
0.000465247
0.00672595
0.00673332
0.00341177
0.00606138
0.00205292
2.38927e-05
0.00379941
0.00504958
0.0220811
0.0175307
0.00077285
0.000362685
0.000481939
0.00102978
0.00585362
0.000399425
0.00641438
0.000142813
0.00672504
0.00202256
0.0212891
0.000661483
0.0132074
0.00672589
0.00122478
0.00350422
0.000707482
0.00173605
0.00185259
3.8554e-05
0.00642171
0.000506021
0.0067216
0.00282015
0.0067288
0.00991306
0.00674063
0.00346934
0.00588241
0.0110601
0.00137554
0.000308022
8.77655e-05
0.00449959
0.000252386
0.00672438
0.011745
0.0067271
0.00351102
0.0067244
0.000496135
0.0067242
0.000611832
0.00625493
0.0203307
0.000469616
0.0096367
0.00537545
0.00355052
0.00341669
0.00794846
0.00684398
0.0151893
0.0219835
0.000277374
0.000555807
0.00191277
0.0202434
0.000710449
0.0211877
0.00679899
0.00394854
0.00214417
0.00672429
0.000957507
0.000294659
0.00740022
0.00409371
0.00672809
0.00161471
5.69717e-05
0.00352549
0.000222586
0.000673436
0.00218734
2.27654e-05
0.000164438
0.000827326
0.00158554
0.00566228
0.00250556
3.88715e-05
0.00493097
0.000434311
0.000361576
0.00674578
0.0214202
0.000672881
0.00398701
0.00191744
0.00184732
0.00672717
0.00116511
0.00672213
0.000668441
0.000343773
0.00740459
0.000571057
0.00357759
0.000498402
0.0141168
0.000378305
0.0018907
0.0035499
0.00360905
0.0017621
0.000189743
0.00652806
0.00672383
0.00618523
0.0217678
0.00727782
0.0127889
0.000477751
0.0104276
0.00623078
0.00081645
0.00184236
0.00672724
0.00184318
0.0207737
0.00371411
0.00501976
0.00673497
0.00305002
0.0151839
0.0013793
0.000732057
0.0057897
0.0016565
0.000661372
0.00433874
0.000400946
9.80669e-05
0.017508
0.00272217
0.000143643
0.000853099
0.00832377
0.0133719
0.00610438
0.00896556
0.00048613
3.85155e-05
0.00672407
0.018768
0.00672505
0.000810943
0.000358317
0.000505229
0.0210038
0.00516458
0.000414887
0.0178977
0.00672297
0.00254551
0.00468049
0.000566795
0.0217821
0.00256107
0.00672531
0.00142199
0.00219198
0.0076243
0.00673777
0.00672495
0.000568944
0.000405193
0.000565163
3.29519e-05
0.000700533
0.00208803
0.000754085
0.000620688
0.000867509
0.00764019
0.000718678
0.00596747
0.0208929
0.00113757
0.00426143
0.015467
0.00388969
0.0018799
0.000476432
0.000594142
0.00237743
0.000979024
0.00200145
0.000354033
0.00672627
0.0005452
5.43827e-05
0.00673303
0.000440177
0.00424317
0.000148641
0.00672236
0.000515122
0.000510079
0.00146239
0.00256338
0.00468752
2.7027e-05
0.000253413
0.0167836
0.00512447
0.00211163
0.000528772
0.00339171
0.00041146
0.000256495
0.00277899
0.000466896
0.00461156
0.00800338
0.00202442
0.000819463
0.00485272
0.0023179
0.0063533
0.0009846
0.00431942
0.00672685
0.0067312
0.00799697
0.0119205
0.000739898
0.000691989
0.00672303
0.00258098
0.020777
0.00131658
0.00674501
0.00758335
0.00447798
0.0142236
0.00672522
0.0067424
0.00214999
0.000814076
0.0125438
0.00240153
0.00183215
0.00674249
0.000591921
0.00672147
3.41782e-05
0.00044464
0.00672569
0.019906
0.000181138
0.00357827
0.0174166
3.24906e-05
0.00535761
0.00191773
0.00276387
3.56912e-05
0.000533431
0.0123144
0.00471744
0.000827605
0.0216493
4.29775e-05
0.000557788
0.000830242
0.000141197
3.57197e-05
0.0198003
0.000119793
0.00017157
0.0171739
0.000640047
0.000699946
0.00813123
0.000102254
0.00679846
0.00140474
0.00589162
0.000309121
0.00465861
0.000186679
0.000411819
0.000413537
0.00847422
0.000983504
0.0175975
0.000870973
0.00263562
0.000478346
0.000450218
0.000706107
0.00471843
0.0014503
0.0196819
0.00673186
0.000757339
0.00676124
0.00112532
0.00387973
0.000242754
0.000761495
3.95609e-05
0.000160058
9.72766e-05
0.0157575
5.32103e-05
0.00383667
0.0150255
0.0190311
0.0067605
0.00673191
0.000695185
0.002923
0.00672539
0.000461447
8.22675e-05
0.000263999
0.0033861
0.00177863
0.00393775
0.000506864
0.000270577
0.00672145
0.00108479
0.0192058
0.000217599
0.0119744
0.000622205
0.00106608
0.00105167
0.00101253
0.0174903
0.0130265
0.000638329
2.13098e-05
0.00064318
0.00672609
0.00321104
0.00229887
0.00459966
0.00135823
0.000210969
0.00639118
0.0004863
0.00672515
0.000724448
0.0049036
0.000224253
0.000541107
0.000211589
0.00372036
0.000554053
0.00322281
0.0177383
0.00673342
0.000577864
0.00672502
0.00251007
0.00773048
0.000804338
0.00626527
0.000472913
0.00294748
0.000571189
0.0115947
0.00298112
0.00174883
0.000418057
0.000618222
0.0216537
0.00635239
0.000418468
0.00178536
0.00672864
0.000291303
0.0015964
0.00672599
0.000871882
0.00379969
0.000935155
0.00844801
0.0199111
0.000495046
0.01392
0.000990171
0.00672584
0.000353397
0.00232695
0.00177146
0.000317361
0.000676296
0.000251405
0.00640356
0.000718815
0.000439893
0.000456083
0.00675867
0.00673286
0.00069408
0.00166867
0.00672618
0.000239187
0.00679309
0.000703451
0.00064059
0.000506988
3.7956e-05
0.0214399
0.0013533
0.000595907
0.00910468
0.00373064
0.000751984
3.59575e-05
0.00286619
0.000575527
0.00589501
0.000989945
0.000749391
0.000631223
0.006634
0.00672551
0.00672731
0.00203111
0.00040848
0.00477042
0.000852964
0.000691755
0.00132566
0.00027379
0.0105226
0.000329323
0.00119142
0.0218664
0.00174273
0.00509341
0.00135831
0.000118338
0.0065053
0.0034628
0.00403485
0.00280226
0.00190124
0.0186929
0.000338601
0.00197257
0.0067215
0.00390163
0.0216465
0.00169135
0.000144125
0.000918885
0.00672903
0.000472146
0.00060919
0.00673401
0.00672594
0.0198594
0.00480052
0.00208936
0.00126974
0.00288418
0.000632082
0.000215311
0.00417876
0.00129304
3.05525e-05
0.0145167
0.00296778
0.0135596
0.00187594
0.000643002
4.8014e-05
0.000356453
0.00672893
0.000589797
0.0117819
0.000926196
0.000133922
0.0220236
3.79549e-05
3.89894e-05
0.000588919
0.00194936
0.00672521
0.00672844
0.00273902
0.000532616
0.00138704
0.00176493
0.00103365
0.00672603
0.00358842
0.00552883
0.000558212
0.00081362
0.0197319
0.000159143
0.00188896
0.0138093
0.000383262
0.00053691
0.0067269
0.000458635
0.00238933
0.00214745
0.001043
0.000549359
0.000497822
0.000106566
0.0169649
0.00725568
0.0036689
0.0121183
0.00673173
0.00216339
0.000169758
0.00672594
0.0033188
0.000692953
0.0145857
0.00424366
0.0175125
0.00215457
0.00534352
0.00108021
3.3589e-05
0.000569509
0.00146153
0.00578645
0.0013014
0.0052465
0.0176051
0.00672508
0.000133126
0.00672162
0.00596415
0.000459268
0.00559854
0.0189999
0.000531153
7.6622e-05
0.00672612
0.00345683
0.000380676
3.29447e-05
0.0018707
9.13411e-05
0.00341878
0.00504177
2.55978e-05
0.00254331
0.00042368
0.000107397
0.00672505
0.00642286
0.000946586
0.000525792
0.000457593
6.60773e-05
0.000229408
0.000184656
0.00150393
0.0220009
0.000341679
0.00380938
0.000351886
0.000582387
0.00291182
0.000422507
0.00344999
0.000755266
0.0207032
0.00145716
0.00597511
5.1078e-05
0.0016341
0.0111658
0.00175988
0.0191061
0.00319458
0.000425589
0.00673201
0.00673348
0.00672544
0.00672455
0.000454678
0.000143013
0.00018215
0.000745015
0.00672254
0.0114401
0.00146752
0.000455993
0.00813356
0.00396042
0.00113158
0.000548827
0.00101786
3.8391e-05
0.00939455
0.0018068
0.0192113
0.00776229
0.00634098
9.44968e-05
0.00570309
3.64777e-05
0.00672425
0.00215496
0.00043904
0.0195346
0.00542398
0.000285375
0.00251906
0.000150371
0.00061846
0.016796
0.000588469
0.00064101
0.000473393
0.000903212
0.000262068
0.000666616
0.00672422
0.000405008
0.0112002
0.00672463
0.0149066
0.00672557
0.00281892
0.00704476
0.013961
0.00672516
0.00236477
0.00163123
0.00395337
0.000225564
0.000609309
0.00202856
0.00672667
0.00672325
0.000803844
0.000671725
0.000649253
0.00119633
0.00519288
0.0148975
0.00183361
0.020126
5.33265e-05
0.000451641
0.0129699
0.000684668
0.0191741
0.0140127
0.00575527
0.00158478
0.0169516
0.0141134
0.00672506
0.00672855
0.000325307
0.0126934
0.00858926
0.00441924
0.00282718
0.0164258
0.000947238
0.00467915
0.00100325
0.000784765
4.14201e-05
0.00207133
0.0178223
0.00448873
0.0122098
0.000945553
0.00322985
0.00654062
0.00672267
0.0005156
0.00947424
0.000665246
0.00113727
0.00140379
0.000140156
0.00286466
0.000714428
0.0170449
0.00256883
0.00571124
3.92296e-05
0.0067306
0.00672412
0.017864
0.00673438
0.00677312
0.00111427
4.59964e-05
0.000577983
0.00428804
0.000469719
0.00673185
0.0206398
0.000476646
0.0038723
0.00237932
4.63652e-05
0.000614951
0.00264162
0.00110521
0.014279
0.0067245
0.0123158
0.0172245
0.010318
0.000774135
0.000223662
0.00443278
0.00168422
0.000161851
0.00093401
0.0182468
0.000492614
0.00182115
0.00648853
0.00115705
0.000381775
0.00355217
0.00132467
0.0124861
0.00335296
0.00672869
0.00406161
0.000607036
0.00265507
0.000660352
0.00673451
0.000767441
0.00163138
4.40198e-05
0.000141449
0.00445883
0.00672336
7.02371e-05
0.00226013
0.000588752
0.000985376
0.000450679
0.00375358
0.00137681
0.00094761
0.00181585
0.00962782
0.0134723
0.00673128
0.00672276
0.00174896
0.000641868
0.0067362
0.00169962
0.000184445
0.000539703
0.0132087
0.00680248
0.0147552
0.00987938
0.00672604
0.00173776
0.0005252
0.000820611
4.07568e-05
0.00179153
0.00707882
0.000383085
0.00104173
0.000811465
0.00673257
0.00402183
0.00363175
0.00196077
0.000300014
0.0126744
0.0136082
0.00672548
0.00672237
0.00114917
0.00277982
0.000516966
0.00156319
0.00040965
0.00139341
0.0109818
0.00196001
0.0214393
0.0067347
0.0199006
0.00182108
0.0067332
0.00944402
3.33321e-05
6.0591e-05
0.0116379
0.000144291
0.000588252
0.00574986
0.00594881
0.0067291
0.00673556
6.62535e-05
0.000696422
0.00454887
0.00846659
0.000487265
0.0155472
0.000424964
0.00230669
0.00678377
0.00100575
0.000907369
0.0145848
0.000661126
0.0131514
0.00777153
0.00246315
0.00346903
0.00296602
0.000167448
3.88552e-05
0.00135237
0.00672513
0.000605124
0.00068318
0.000614944
0.000225387
7.88223e-05
0.00672238
2.92177e-05
0.000364487
0.00213644
0.00046504
0.00103425
0.0010942
0.0203999
0.00672235
0.000410323
0.0206675
0.00131299
0.00077035
0.000160183
5.02587e-05
0.00125297
0.00357072
0.00104529
0.00261506
0.000868957
0.000367354
0.00175025
0.0134792
0.00672778
9.01212e-05
4.16241e-05
0.013171
0.000486933
0.000340164
0.00113126
0.000142637
0.00672566
0.0131491
0.000957481
0.00291896
0.000734806
0.00672295
0.00672571
4.35783e-05
0.00672795
0.00672334
0.00275662
0.000530945
0.00208536
0.000459048
0.000519403
0.000320714
0.000401801
0.00672534
5.9854e-05
3.12656e-05
0.000468362
0.000357237
0.000443184
0.000685387
0.0186359
0.000274024
0.00672605
0.0111876
0.0183024
0.00672603
0.00106727
0.00672918
3.57057e-05
0.000319938
0.00264856
3.75865e-05
0.013308
0.00672609
0.00213167
0.0170867
0.00937607
0.000699965
0.00673771
0.00712394
0.0161406
4.83469e-05
0.00672907
0.0153034
0.000715534
9.15499e-05
0.0111736
0.000904438
0.00672996
0.000704487
0.000362626
0.000707792
0.019654
0.0154555
0.00585546
0.0158881
3.67393e-05
0.00740257
0.00673564
0.000113724
0.00201253
0.00427422
0.0192964
0.0140764
0.00198569
0.0145556
0.000417251
0.000482348
0.00683763
0.0145968
0.00469462
0.00673542
0.00196939
0.000270439
0.00400598
0.000539153
0.0219041
0.0132004
0.000491588
0.00175391
0.00270187
0.0186094
0.000620432
0.000522946
0.00642371
0.00114928
0.000255677
0.0137606
0.0100023
2.75979e-05
0.00672398
0.00117861
0.00684682
0.000152747
0.00782152
0.00252996
0.00672739
0.00672633
0.000824
0.000551726
0.00225988
0.0208867
0.0142092
0.00514153
0.00673317
0.0067246
0.00672634
2.38057e-05
0.00524731
0.0189375
0.000437032
0.000725044
0.00404107
0.000296298
0.0160438
0.000693822
4.35534e-05
0.00821375
0.00178907
0.00306665
0.000253942
0.000210225
4.70533e-05
0.00306491
0.00714
0.00072134
0.00626928
9.28502e-05
0.00512266
0.000601402
0.00207222
0.0156533
0.000305809
0.00229355
0.00581918
0.000503882
0.00672448
0.000436588
0.000843891
0.00672575
3.86586e-05
0.0067235
0.000867176
0.000628995
0.00227157
0.0094003
0.00101782
3.46575e-05
0.00119454
0.0067326
0.0102046
0.016783
0.00073121
0.000250832
0.000743158
0.00032249
0.000609258
0.00113175
0.00055283
0.0010138
0.00446912
0.000599624
0.0167259
0.00013189
0.00822731
0.000729571
0.00185154
0.0215092
0.0067219
0.0213138
0.000749145
0.0125278
0.00539207
0.00717724
0.0114816
0.001386
9.0547e-05
0.00277531
0.0213925
8.48057e-05
0.0050967
0.00226795
0.0196184
0.000989582
0.00141032
0.000502318
0.000573268
0.000732673
0.00587669
0.006726
0.000977133
0.000835767
0.000356856
0.00672402
0.000555242
0.00674918
0.0172899
0.000863915
0.000420923
0.00060934
0.000578289
0.000207975
0.0146206
0.000352848
0.00601778
8.35722e-05
0.0216157
0.00322176
0.00213692
0.0167813
0.000743374
4.14207e-05
0.00672929
0.00072524
0.0176566
0.000706439
0.00488191
0.00289124
0.000238531
0.0194798
0.00281893
0.00675155
0.00202273
8.94875e-05
0.00075896
0.0221922
0.000688352
0.000158573
0.000393019
0.00033081
0.00215022
0.0176808
0.0201687
0.0012284
0.00217392
0.000924894
0.000306918
0.00524861
0.000802151
0.00187543
0.000239014
0.00673698
3.49368e-05
0.00644742
0.00428763
0.00506134
0.000582971
0.00204025
0.0167427
0.00673047
0.000496491
0.0067256
0.00211515
0.000971762
0.000162177
0.0128411
0.000456138
0.00672258
0.000339344
0.00121399
0.00336916
0.00072756
0.00557684
0.00923147
0.0129778
0.000467434
7.23142e-05
0.0067244
0.000909004
0.000825009
0.00056964
0.005528
0.00209344
0.006723
0.000578212
0.00672471
0.000561784
0.00282547
0.00455414
0.0172037
0.00384047
0.000725684
0.00118134
0.00672605
0.0158908
0.00406215
0.000386819
0.0171104
0.00074489
0.0168833
0.00333444
0.0139989
0.000737757
0.021896
0.00101397
0.000592247
0.00263748
0.000573413
0.000495064
0.00050122
0.000630323
0.0138461
0.000690854
0.000166451
0.000534439
0.000544838
0.00020613
0.00320985
0.000628166
0.00271513
0.00409137
0.000569029
0.000190911
0.0137187
0.000533368
0.0197867
0.0141547
5.96025e-05
0.00299195
0.0140362
4.22167e-05
0.00160771
0.000746782
0.00281981
0.0197901
0.00448521
0.00249133
0.00403415
0.000947133
0.00661571
0.000125882
0.00673202
0.00430987
0.00268354
0.00409245
0.000822919
0.00102446
0.000407213
0.000688921
0.0021093
0.00104006
6.8726e-05
0.000161166
0.000320862
0.00983517
0.0150575
0.00427432
0.00673347
0.00415655
7.26294e-05
0.00198819
0.000150596
0.0168739
0.0133785
0.00673548
0.0060572
0.0176761
0.0114413
0.0067407
0.00569172
0.000482493
0.00454494
0.0204052
0.000763512
0.000445414
0.00672547
0.000360047
0.000530727
5.15342e-05
0.000273634
0.000188072
0.00178182
0.000510828
0.00108183
0.00131525
0.00235779
0.000762248
0.0217222
0.000685574
0.00265133
0.00672472
0.016586
0.000294363
0.000398093
0.00672888
0.00673276
0.000260694
0.0114714
0.000101091
0.00881193
0.00602895
0.00139037
0.0146435
0.000992105
0.00678009
0.0157004
0.009199
0.000428969
0.00672544
0.0159021
0.00774332
0.00313027
0.000242979
0.00891566
0.000305976
0.00279937
0.00487097
0.00179736
0.00127527
0.000392486
0.00268198
7.24234e-05
0.000352369
0.00674542
0.00214819
0.0191065
0.00450957
0.000331987
0.000482016
0.00280969
0.00048584
0.0067305
0.000863879
0.000271582
0.00672533
0.00875269
0.00673373
0.000426982
0.0188774
0.000436476
0.00203211
0.00672629
0.0155947
0.00673223
0.000950758
0.00186855
0.000179312
0.00258662
0.000607439
0.0176111
0.000189663
0.0141016
0.00147101
0.000515482
0.00417362
0.00672499
0.00378988
0.0154981
0.00087395
0.00103274
0.000516008
0.000493466
0.00789501
0.016465
0.000192549
0.000444886
0.00672851
0.012287
0.00320397
0.00285831
0.000710014
0.000463542
0.000408159
4.22427e-05
0.000167351
0.000396453
0.000679898
0.020017
0.00104843
0.00672668
0.0026207
0.00014804
0.00675637
0.0141033
0.00672243
0.00672507
0.00084112
0.000173982
0.00343514
0.00675588
0.000649959
0.00616343
3.48881e-05
0.00436487
3.39998e-05
0.0149812
0.0178597
0.0135736
0.000548611
0.000315403
0.00888376
3.53207e-05
0.00672546
0.000361107
0.000164908
0.000314251
3.86378e-05
0.0110289
0.0117309
0.0187916
5.1175e-05
0.00213767
0.000586686
0.00672161
0.00408197
0.000786702
0.00173319
0.00106459
0.00155926
0.00465986
0.000497809
0.0121255
0.00673061
0.00111839
0.00672265
0.00788725
0.00117647
0.0185981
0.0155058
0.000631952
0.00672573
0.0044274
0.00826658
3.64238e-05
0.00672495
7.01364e-05
0.0067256
0.000226396
4.58747e-05
0.000469975
0.000537869
0.00720722
0.00630019
0.00411894
0.00158783
0.0153403
0.000614503
0.000245443
0.00438119
0.00376596
0.00632946
0.00672479
0.00129272
0.0039244
0.00147056
0.0114974
0.0141919
0.000723737
0.0154182
0.00580041
0.00673152
0.000774416
0.00674275
3.82954e-05
0.00282403
0.000715259
0.0049212
0.00673185
0.00459089
0.000118219
0.00195131
3.25083e-05
0.00680797
0.000257893
0.0068597
3.82704e-05
0.00672713
0.00072475
0.000812261
0.000200635
0.0140834
0.00673377
0.00873725
0.000318228
0.000198448
0.00679888
0.00674124
0.0146197
0.000493648
0.00277164
0.00340801
0.00362559
0.00429637
0.000178547
0.0186706
0.00124974
0.0107812
0.000777235
0.00673647
0.0185688
0.00193045
0.0204997
0.00447059
0.00149888
0.00672494
0.00933341
0.0169025
0.00673628
3.88421e-05
0.0019878
0.00672181
0.00356096
0.00674879
4.01541e-05
0.0165528
0.000325511
0.00139251
0.000493018
0.00672842
0.00301709
0.00115048
0.00672503
0.000487245
0.00311617
0.000623853
6.76414e-05
0.000490823
0.00672311
0.0154423
0.000495806
0.00672771
0.000266807
0.000753941
0.0140459
0.000669313
0.00707205
0.000423937
0.00302836
0.000363725
0.000379901
0.00100953
0.0188872
0.000617548
0.00106311
0.0144568
0.00385268
0.000166045
6.86522e-05
0.000170191
0.00673172
0.00370399
0.00673039
0.00025422
0.000615772
0.000586468
0.0154553
0.0063165
0.015846
0.00672594
4.23381e-05
0.0198229
0.0190409
0.00462477
0.00270903
0.000551841
0.021145
0.00078299
0.000732489
0.00037322
0.00628298
0.000388948
5.61997e-05
0.00081884
0.0170626
0.000769494
0.00675301
0.000219934
0.000266263
0.00188182
0.00208614
0.00124127
0.0137088
0.000363826
0.0187193
0.000971441
0.00568976
0.00227032
0.0117347
0.011561
0.00211323
0.000678778
0.0110433
0.0188096
0.000416967
0.00144254
0.00088914
0.00171475
7.83539e-05
0.000575363
0.00140995
0.0181319
0.00677107
0.00313909
0.000244976
0.00627932
0.00672169
0.00672389
0.00780692
3.82386e-05
0.00391708
0.000445294
7.73152e-05
0.000173375
0.0168753
0.0219091
0.0154386
0.0164043
0.000606155
0.00677555
8.40821e-05
0.00775275
0.00928254
0.00300963
3.56977e-05
5.8143e-05
3.11249e-05
0.00244476
0.00672584
2.87988e-05
0.0142655
0.00752902
3.23985e-05
0.00908818
0.00673348
4.1645e-05
0.0157404
0.00212868
9.06432e-05
0.000490755
0.00674038
0.000918841
0.0222265
3.86764e-05
0.00672578
0.00610309
0.000509722
0.00198602
0.00673096
0.00148562
0.00203293
0.00184067
0.00207339
0.000320167
0.00022919
0.000178567
3.36338e-05
0.000756144
0.0102021
0.000608962
0.00105913
0.000584244
0.00187951
9.96448e-05
0.00599502
0.000530409
0.000409271
0.000476754
5.77612e-05
0.00315159
0.00018588
0.0137346
0.0209859
0.00108463
0.00326133
0.00424779
0.00347353
0.0128532
0.00107369
4.01016e-05
3.84362e-05
3.87548e-05
0.000483758
0.000646537
0.00445063
0.0022359
0.0124609
0.000332285
0.000120033
0.00317426
0.00315017
0.000483799
0.0147948
0.00672206
0.00542012
0.000184593
6.67251e-05
0.000411813
0.0041722
0.00672552
0.000735061
0.00184773
0.00239653
0.00166948
9.15338e-05
0.000259702
0.00332887
0.00234138
0.00213108
0.00672513
0.0135756
0.00143845
0.00845651
6.74193e-05
0.00242398
3.58184e-05
0.00107908
0.0164094
0.00204124
0.00136434
0.00452735
0.00672499
0.00164746
3.6591e-05
3.82239e-05
0.0201858
0.00672496
0.00206967
5.24853e-05
0.00672542
0.00412373
0.000855096
4.70593e-05
4.55025e-05
0.000207139
0.000243978
0.00675878
0.000502769
0.00027029
5.52089e-05
6.80076e-05
0.000209071
0.00672759
8.83128e-05
0.00479468
0.000625867
0.0196478
3.67893e-05
0.00288237
6.52448e-05
0.00294702
0.000550444
0.00140623
0.00199251
0.000376385
0.00205899
0.0205951
7.25738e-05
0.000210395
7.24193e-05
0.000191988
0.0174791
0.0150141
0.000417011
0.0124956
0.000138075
0.00423801
0.000109939
0.0169133
6.53537e-05
0.00672562
0.000433225
3.31336e-05
0.00684413
0.00221724
0.00219965
0.013286
0.00672491
0.0046696
0.000758123
0.010717
0.00672561
0.00903392
0.0130905
0.00518155
0.00750901
3.6957e-05
0.0147558
0.000416705
0.00675334
0.000909302
0.00678618
0.000158374
0.00115322
0.00499646
0.0007363
0.00023495
0.00679725
0.0131592
0.000653365
0.000455962
0.0210285
5.49847e-05
0.00564704
0.0162825
0.00368377
0.00241126
0.00672416
0.00039514
0.000135569
0.0205317
0.000323605
0.000416181
0.00179957
2.84516e-05
0.000508199
0.021154