/*--------------------------------*- C++ -*----------------------------------*\
| =========                 |                                                 |
| \\      /  F ield         | OpenFOAM: The Open Source CFD Toolbox           |
|  \\    /   O peration     | Version:  v2012                                 |
|   \\  /    A nd           | Website:  www.openfoam.com                      |
|    \\/     M anipulation  |                                                 |
\*---------------------------------------------------------------------------*/
FoamFile
{
    version     2.0;
    format      ascii;
    class       volScalarField;
    location    "200";
    object      nut;
}
// * * * * * * * * * * * * * * * * * * * * * * * * * * * * * * * * * * * * * //

dimensions      [0 2 -1 0 0 0 0];


internalField   nonuniform List<scalar> 
13851
(
0.000835772
0.000924757
0.000985314
0.00360201
0.0067237
0.000772314
0.0013639
0.00678508
0.0195437
0.00538936
0.000281504
0.00673071
0.00250858
0.00529883
0.000603484
0.000496798
0.00175557
0.00246471
0.0106423
0.000831454
0.000534671
0.000566965
0.00218583
0.00672545
0.0132252
0.000765181
0.015613
0.018204
0.0209482
0.00603289
0.0102517
0.00161095
0.000857183
0.0240202
0.000345084
0.0213582
0.00672582
0.00937564
0.0173325
0.00201821
0.0217002
0.022075
0.000145124
0.00023715
0.0229326
0.00355836
0.00675626
0.000840001
0.000960035
0.00226436
0.00257514
0.00228443
0.000643655
0.000896486
0.00481893
0.00202625
0.00084248
0.020834
0.0149385
0.0040603
0.00673009
0.015091
0.0067325
0.000902039
5.03019e-05
4.26257e-05
0.00212785
7.72289e-05
0.0018675
0.00561015
0.00930183
0.000519332
0.0028009
0.00301697
0.000822554
0.000772976
0.00289555
0.00677624
0.0128325
0.00574085
0.00166724
0.00156559
0.000346996
0.00559526
0.0045899
0.0101117
0.000590527
0.0043652
0.00464417
0.0101022
0.00178057
0.00140547
0.000182657
0.00897634
0.0158688
9.52378e-05
0.00400757
0.000467196
0.00289008
0.000304749
0.000353334
0.000151838
0.000127979
0.00234756
0.00394898
0.000432766
0.00334455
0.00996055
0.00144182
0.00260748
0.000362033
0.00385122
0.000652377
0.000354251
0.000888885
0.000949556
0.00675224
0.00677357
0.0029571
0.00639744
0.000104636
0.00350535
0.00160074
0.013978
0.00691779
5.00658e-05
0.00366867
0.000238835
0.0212208
0.000528221
0.000572996
0.000518355
0.00856277
0.0237226
0.000316647
0.0156092
8.86246e-05
0.00982622
0.000199617
0.000596822
0.001004
0.00118665
0.00466219
5.61942e-05
0.0137601
0.000937117
0.00677304
0.00910881
0.0155084
0.000226021
0.000418215
0.000670551
0.000365794
0.00415686
0.00162907
0.00320869
0.00672823
0.0163118
0.000604788
0.00132949
0.00672504
0.0211467
0.000508697
0.000900358
0.00510012
0.0221374
0.0226767
0.00375203
0.000384159
0.0234888
0.00672957
0.00675028
0.000433064
0.00672265
0.0170221
0.0149913
0.000158645
0.00675144
0.000840453
0.000296112
0.00497955
0.000198255
0.00040893
0.000584975
0.000153118
0.0161141
0.000864857
0.000313927
0.00195908
0.00441475
0.0140098
0.000642982
0.00231793
0.000717131
0.000858416
0.000523934
0.000891573
0.00205011
0.00174851
8.42171e-05
0.000933017
0.0177596
0.0205386
0.000670194
7.15806e-05
0.0163333
0.000891997
0.000689843
0.0198047
0.000747364
0.000510246
0.00215413
0.00144535
0.00672659
0.000357542
0.000700226
0.00248158
0.00519852
0.00183591
3.12019e-05
0.00675068
0.000828026
0.00304401
0.0162235
0.000332394
0.000689223
0.00672638
6.48646e-05
0.00674117
0.000345171
0.00524514
0.000332331
0.000762026
0.00672904
0.0199076
0.00587416
0.0016469
0.0200378
0.000259822
0.00672533
0.000560849
0.00491176
0.0233698
0.000780403
0.000582317
4.86055e-05
0.00206001
0.000817298
0.000112665
0.000355203
0.00367923
0.000789651
0.00675634
0.000781415
0.000406594
0.0204336
0.00725643
0.00493215
5.13173e-05
0.00486226
0.00168916
0.00536181
0.000823896
0.000503255
0.000766869
0.00311112
0.000139997
0.000812867
0.0167602
0.00673463
0.00252988
0.000341047
0.0232917
0.00142111
0.000551862
0.00323081
0.00652585
0.00462318
0.000793238
0.000502273
0.0226402
0.00271438
0.000720746
0.000714813
0.00799399
0.00355776
0.00672766
0.00077058
0.000285451
0.00576174
0.00672651
0.00674285
0.0067276
0.000635428
0.00672833
0.020262
0.00054326
0.00263406
0.0205706
0.012592
0.00209055
0.000817445
0.00251501
0.00105802
0.00183875
0.000551427
0.00411317
0.0159064
0.000497404
0.00672212
0.0232443
0.00673006
0.000437042
0.00398781
0.0166991
0.0013321
0.00743521
0.00592401
0.0115769
0.000685939
0.000130682
0.0172194
0.0170909
0.0171605
0.00163448
0.00371535
0.000405053
3.13856e-05
3.09201e-05
0.000683587
0.00045244
0.000326007
0.00487212
0.000111445
0.00673014
0.00674625
0.00056574
0.0106188
2.98113e-05
0.00348513
0.0153658
0.000322841
0.000491189
0.00129872
0.00254718
0.00520845
0.000560832
0.000766357
0.000828305
0.0213743
0.00183863
0.00608568
0.000784172
0.00057025
0.000310503
0.00466751
0.00231536
0.00054474
0.000396787
0.000787352
0.00770946
0.0217436
0.000752413
0.0194011
0.0076386
0.00541662
0.0188826
0.000635669
0.00421709
0.000588732
0.000758419
0.0143439
0.0116037
0.000468334
0.00517492
0.00139898
0.0161943
0.00034697
0.000618141
0.00638651
0.000585864
0.0209603
0.000721679
0.000849972
0.000786129
0.000435147
0.00336424
0.000801374
0.000260812
0.000835591
0.00338771
0.000579787
0.0252391
0.00275632
0.000575357
0.00184725
0.000903668
0.00110884
0.000706791
0.0159632
0.000639619
0.000692909
9.39163e-05
0.00620448
0.000470966
0.00497368
0.00301959
0.000552536
0.00338033
0.000553358
0.000529474
0.000733271
0.0034452
0.000168454
0.0251412
0.0119138
0.000814226
0.000765322
0.0143969
0.00162784
0.00679213
0.00203587
0.000483707
0.00155472
0.000314534
0.0158104
0.00319503
0.00672361
0.00319515
0.0147141
0.00460268
0.000975481
0.000563648
0.00674847
0.0250671
0.000428819
0.000609437
0.00101367
0.001284
0.00199271
0.0109498
0.00249139
0.00224831
0.0216733
0.0251745
0.000588134
0.0128983
0.00673115
0.00672757
0.000863359
0.000774901
0.00077748
0.00309186
0.00121557
0.000119453
0.00118987
0.0141673
0.00673017
0.000940363
0.0231502
0.000228156
0.00674627
0.00672955
0.000975861
0.00195005
0.000518518
0.0235182
0.000621764
1.75072e-05
0.000901819
0.00673581
0.021371
0.0145787
0.000206514
0.00244349
0.016147
0.00021982
0.000244172
0.0022615
0.000490695
0.000508287
0.000738989
0.0189674
0.0157854
0.0117829
0.000710653
0.000648519
0.00309469
0.0203607
0.000792426
0.000899081
0.000574843
0.000786037
0.000215621
0.000416864
0.00672261
0.00152736
0.0204136
0.0134385
0.00110774
0.0218808
0.00615818
0.00627168
0.000370641
0.00672787
0.00140575
0.00539334
0.00397322
0.000300007
0.0178956
0.00100478
0.00120379
0.000120424
0.000440093
0.00516888
0.0165904
0.00434825
0.0222305
0.000431213
0.00502608
0.00123727
0.000609043
0.0192891
0.00567148
0.0107201
0.00245014
0.00458514
0.0143196
0.0092724
0.000837365
0.000812747
0.0210256
0.00425316
0.00414743
0.00444168
0.00191168
0.00336704
0.0176455
0.0211091
0.000505962
0.000757132
0.00515929
0.000685599
0.0220189
0.0163842
0.00352428
0.00324791
0.00344836
0.00172503
0.000472075
0.00113214
0.00679217
0.000739961
0.0148905
0.000456322
0.0139058
0.00103974
0.0048165
0.0235242
0.0067287
0.000578984
0.000946748
0.000817072
0.000603711
0.0240326
0.00403313
0.000797181
0.00186047
0.00142333
0.00039079
0.0224235
0.00835187
0.00182786
0.0034328
0.000126985
0.0143007
0.0100642
0.000663337
0.000918206
0.00104785
0.00070614
0.00501401
0.0164659
8.85353e-05
0.0216867
0.00203787
0.0223455
0.00137755
0.0166277
0.0156486
0.00673353
0.000444555
0.022184
0.000379465
0.000582311
0.00221214
1.42684e-05
0.00018264
0.00370276
0.00279575
0.0067233
0.000436047
0.000420207
0.00672934
0.0169442
0.00672325
0.000954928
0.000705229
0.000710173
0.00235339
0.00464195
0.000254007
0.00306457
0.000460903
0.0149771
0.000512653
0.00675059
0.00411281
0.000427936
0.00124355
0.000446539
0.000988485
0.000230239
0.0147802
0.0067287
0.00462851
0.00672636
0.000912661
0.00249957
0.0232132
0.000348917
0.00359238
0.000111683
0.000354147
0.0224238
0.00302565
0.018432
0.000329814
0.0005808
0.00149544
0.0148949
0.00501569
0.000386867
0.00215683
0.021562
0.00303795
0.00169438
7.2001e-05
0.0235965
0.00672666
0.00672692
0.000704664
0.00289306
0.0186534
0.00157598
0.00078379
0.00122631
0.00433363
0.0147921
0.000764856
0.000345877
0.00677523
0.000829163
0.000147123
0.00071401
0.00119372
0.000894713
0.00018793
0.000438118
0.000978155
0.000525558
0.000537305
0.000101554
9.6319e-05
0.00923056
0.0235207
0.00954343
0.000691323
0.00955361
0.000237927
0.0184001
0.00080559
0.00268902
0.000675972
0.00580662
0.000550677
0.00594516
0.00619296
0.000838261
0.00364993
0.000931655
0.0189199
0.00675157
0.0210716
6.99516e-05
0.0022644
0.000403728
0.000699184
0.0010211
0.00316054
0.000339287
0.000252841
0.0160798
0.00141231
0.00176738
0.000795748
0.00164563
0.000529608
0.00162198
0.00326507
0.0067265
0.000848514
0.00429904
0.0222049
0.00672605
0.0139043
0.0229063
0.000378264
0.0169475
0.00364006
0.00164642
0.000409085
0.000378143
0.00672658
0.00279321
0.00677128
0.00361586
0.00672294
0.000401792
0.000678609
0.000133765
0.0164927
0.000876665
0.0192129
0.00672662
0.00448775
0.000363605
0.00672656
0.00672838
0.0230864
0.000747931
0.0175848
0.021781
0.000554897
0.000479593
0.0051434
0.0234701
0.000663308
0.00103173
0.0163081
0.00672694
0.00116296
0.00317205
0.000726066
0.00451897
0.000574907
0.000518934
0.0005207
0.0152113
0.000315527
0.000474415
0.0226191
0.00676693
0.0222788
0.00672435
0.0012905
0.0129848
0.000600493
0.000898911
0.000293191
0.000467872
0.00672681
0.0067265
0.000402275
0.00136825
0.00672666
0.00095037
0.000435566
0.0067279
0.000291846
0.000710666
0.0180732
0.000293288
0.00918523
0.000193256
0.00672691
0.000407776
0.00675135
0.000775443
0.0230082
0.0217359
0.0191853
0.0232162
0.00164279
0.00183558
0.000116608
0.000961731
0.0035845
0.0018879
0.00252602
0.00696065
0.000754734
0.000584168
0.00385879
0.00630451
0.00351435
0.000559921
0.00109665
0.00672632
0.000908899
0.000594442
0.0194293
0.0016524
0.00672504
0.00274713
0.00136143
0.000573919
0.0067455
0.0184146
0.00678433
0.00317551
0.00673703
0.000231401
0.000577692
0.000102793
0.000537967
0.00270718
0.000935745
0.00672544
0.0133159
0.00122426
0.0100853
0.00161364
0.0216031
0.0221966
0.000546193
0.00672477
0.00247359
0.0225513
0.000729091
0.000723054
0.00280546
0.00330467
0.00257164
0.00494197
0.00673592
0.00672563
0.0169726
0.000619016
0.00673007
0.000840625
0.0202332
7.80923e-05
0.0249274
0.00497588
0.011138
0.00673579
0.00672708
0.00174189
0.00673924
0.00672754
0.024488
0.0241271
0.00180479
0.00672324
0.000481978
0.00359822
0.00342966
0.00046504
0.00701479
0.0175862
0.00109827
0.000988196
0.0067343
0.000576246
8.16136e-05
0.00316436
0.00672462
0.00114209
0.00324087
0.000515491
0.000403019
0.000583361
0.00673227
0.000456074
0.00067462
0.00220183
0.000636121
0.0175184
0.000529049
0.00672625
0.00397961
0.00500415
0.00752429
0.0136579
0.0170706
0.00076956
4.79236e-05
0.00216185
0.0162633
0.000585565
0.00673057
0.0248181
0.000939382
0.0067245
0.00196533
0.00106567
0.0174232
0.00575947
0.00658328
0.000437472
0.00437052
0.000987645
0.000374617
0.000863885
0.000593887
0.0203483
0.00672858
0.012173
0.00045576
0.000526296
3.22343e-05
0.00109242
0.00136294
0.000717624
0.0216038
0.00217341
0.00771882
0.000631821
0.00989131
0.00218085
0.0046326
0.00055026
0.00272354
0.00151366
0.00672679
0.000840739
0.00673034
0.0196971
0.000430627
0.000375877
0.000413995
0.000782331
0.00559378
0.00115567
0.000573233
0.00130599
0.000546233
0.0227542
0.0136081
0.000663112
0.000249303
0.0241192
0.00114155
0.0115391
0.00676349
0.000328853
0.00119599
0.00249604
0.000272601
0.00673645
0.00650672
0.000128237
0.00301979
0.000433537
0.0012477
0.000377095
0.0162973
0.00203164
0.00220739
0.00207408
0.0158636
0.000675356
0.00672649
0.000516805
0.00126401
0.0124461
0.000978519
0.000137213
0.0176402
0.00128771
0.000206507
0.00183545
0.0238917
0.0161551
0.0190169
0.0004192
0.00675202
0.00357934
0.000459528
0.00306201
0.00296775
0.00061753
0.00672812
0.00646631
0.000433644
0.00313154
0.0229684
0.00256096
0.0018054
0.00112281
0.0238661
0.0004366
0.00673114
0.00409538
0.000480796
0.00343963
0.00418952
0.000825752
0.000822581
0.0213334
0.0105189
0.000711903
0.022519
0.00073463
0.00379682
6.38773e-05
0.00669962
0.00398442
0.0033215
0.00672477
0.000802686
0.00136093
0.0226215
0.00489792
0.00937416
0.0038241
0.0187739
0.000340267
0.00267557
0.0014157
0.00184769
0.00338628
0.00680023
0.000354335
0.0137545
0.0108829
0.00675841
0.00035755
0.000552674
0.000826831
0.000340482
0.0048756
0.00679166
0.00133314
0.0117302
0.000963767
0.0217593
0.000914207
0.00672499
0.0032733
0.00417195
0.000695092
0.00143101
0.0226382
0.0224969
0.000326578
0.00673606
0.00125155
0.00194197
0.0181584
0.0071522
0.000288433
0.00442223
0.0218206
0.00856358
0.000686531
0.000667867
0.0138115
0.000651371
0.00026523
9.97072e-05
0.000406051
0.00135098
7.27351e-05
0.00360964
0.0231465
0.0124201
0.00676277
0.000721211
0.000211628
0.000952981
0.000640783
0.00672422
0.000835271
0.000918661
0.000987697
4.70312e-05
0.00672904
0.0237731
0.00438893
0.00326468
0.000697968
0.000823578
0.00673296
0.0212535
0.000663686
0.0165183
0.0138737
0.00673659
0.000710469
0.000611773
0.00164298
0.00971767
0.000648741
0.00672661
0.00062338
0.000521422
0.0227472
0.000579141
0.00307867
0.000974444
0.000965396
0.000117607
0.000554124
0.000437529
0.00411542
0.000774828
0.0111837
0.00149916
0.00770596
0.0248924
0.0219446
0.00877249
0.00392039
0.00496517
0.00235266
0.00915447
0.000731395
0.000467117
0.00144874
0.00217886
0.00674385
0.00502165
0.00548909
0.00677492
0.000855209
0.000828226
0.0231983
0.00102443
0.00674984
0.00673441
0.00276103
0.00672355
0.000234483
0.00874962
0.000278056
0.0242462
0.00579585
0.00354079
0.0214659
0.0232487
0.0033588
0.0185818
0.000128417
0.019797
0.00674985
0.000162469
0.000996659
0.00673595
0.0012887
0.00442512
0.00131939
0.000550157
0.00584485
0.00195134
0.0026756
0.000460492
0.00230624
0.00672633
0.0208584
0.00241058
0.00660868
0.00672915
0.00186854
0.000728311
7.36367e-05
0.00204096
0.0161097
0.00955106
0.00275386
0.0241002
0.00331727
0.00320062
0.0158005
0.00674104
0.0121377
0.00170615
0.000148769
0.00182741
0.00251363
0.00673211
0.00495038
0.00144632
0.000393696
0.000533401
0.00175914
0.00673149
8.76663e-05
0.00536932
0.0162171
0.00672851
0.000571376
0.000811465
0.0061356
0.0171446
0.00672985
0.0023925
0.00674322
0.000964139
0.000187572
0.0197686
0.000610849
0.00672628
0.000844921
7.92745e-05
0.000615315
0.0163809
0.000245735
0.000738335
0.000614293
0.000549281
0.000947109
0.00341288
0.0210052
0.00186254
0.000760661
0.00673172
0.000426407
0.00675535
0.000530446
0.00674779
0.000187209
0.010121
0.0067879
0.00192254
0.000751148
0.0067249
3.89809e-05
0.00672961
0.000166223
0.0152473
0.000512886
0.0198722
0.00673278
0.00672635
0.00014133
0.00672748
0.00672611
0.000940592
0.000649305
0.000539949
0.000192197
0.00221612
0.000362929
0.00365075
0.00673466
0.00672778
0.00674042
0.00174034
0.00345
0.000894087
0.0122058
0.00675458
0.00673171
0.0233917
0.00672644
0.000500448
0.00130669
0.0243493
0.00520198
0.000118826
0.00358992
0.000304145
6.59319e-05
0.00164352
0.000573183
0.000584984
0.0036177
0.00377708
0.00087409
0.000649786
0.00286586
0.000266321
0.00674311
0.00106182
0.000325717
0.00257908
6.2644e-05
0.00130221
0.000124457
0.00651441
0.00553802
0.00672881
0.000936135
8.86161e-05
0.00194344
0.000416039
0.00570636
0.0226864
0.000897932
0.000634446
0.00112186
0.00045736
0.00672681
0.000240819
0.0199907
0.00182976
0.00678779
0.0147505
0.000390644
0.0110136
0.0243169
0.000806098
0.00137029
0.00674236
0.00164622
0.00599133
0.0159991
0.0221631
0.000308765
0.00350207
0.00862787
0.00673145
0.000655492
0.000449621
0.00146357
0.000526559
0.00673685
0.022646
0.01908
0.00502652
0.000514995
0.000674478
0.00540724
0.000410158
0.000687902
0.0105149
0.00080786
0.0131623
0.000628981
0.0067313
0.000742767
8.13869e-05
0.0221788
0.00673779
0.0167438
0.000406235
0.000724159
0.00672637
0.0181013
0.000886354
0.000741963
0.00370739
0.000336341
0.000389162
0.000122323
0.00672749
0.00116564
0.000246684
0.000150422
0.000296366
0.00672903
0.00118551
0.000766393
0.00106787
0.00672884
0.000227536
0.0072707
0.000241527
0.0239155
0.000841005
0.00260078
0.00152298
0.00360036
0.0090669
0.00672489
0.000663201
0.000793021
0.000583066
0.000458789
0.000682849
0.000249142
0.000264356
0.000542137
0.000763771
0.00677163
8.03674e-05
0.000948498
0.000361603
0.0171216
0.000605847
0.000378497
0.0058777
0.00649021
0.000222918
0.00228105
0.000965971
0.000921656
0.00404169
0.000601665
0.000819853
0.0230595
0.0161355
0.00108028
0.000505463
0.0128212
0.00675706
3.54897e-05
0.00680141
0.000442973
0.0082159
0.0212677
0.00506824
0.00174015
0.00673036
0.00278803
0.00623984
0.000654363
0.000551232
0.018651
0.0246095
0.00127662
0.00672384
0.00389003
0.000142498
0.00640872
0.00829129
0.00673628
0.000782523
0.000934547
0.00183823
0.000522757
0.000902369
0.00349069
0.000364408
0.00111504
0.00057293
0.000302736
0.00674509
0.00377077
0.0217032
0.00672577
0.0137835
0.000588806
0.000336085
0.0231148
0.00672609
0.00114611
0.000399152
0.0104851
0.00674128
0.00672492
0.000468815
0.0187408
0.00672586
0.000320463
0.000323599
0.0164395
0.000392141
0.000473155
0.00599986
0.00673491
5.00086e-05
0.00675274
0.00328493
0.00051642
0.00568404
0.00101262
0.00035591
0.00672472
0.00199063
0.000788826
0.0234655
0.00192962
0.00373596
0.00672653
0.00675678
0.000420458
0.00673666
0.00330194
0.0223517
0.00672677
0.000547828
9.94282e-05
0.0131229
0.0165035
0.00358343
0.000722871
0.000381322
0.00672807
0.00287706
0.00673347
0.0177587
0.00672791
0.0122028
0.000831543
0.00678812
0.00509097
0.000566102
0.000803754
0.0132883
0.000137354
0.000308897
0.000852363
0.0204353
0.000200534
0.000965837
0.000644571
0.000182911
0.000415829
0.00115876
0.000826669
0.0112297
0.0230655
0.0045061
0.000994805
0.00254967
0.000422849
0.000224197
0.00395653
0.00198972
8.80553e-05
0.00672615
0.00150271
0.00673689
0.00678109
0.0013349
0.0022136
0.00269663
0.00672387
0.0104513
0.00672812
0.00013112
0.00133952
0.000829648
0.00014951
0.00262301
0.02517
0.000702611
0.00672749
0.000605844
0.00388703
0.000321979
0.00248181
0.0230802
0.000749506
0.000476376
5.77882e-05
0.0230366
0.000429345
0.0133989
0.0152668
0.000247262
0.00214124
0.00130946
9.88983e-05
0.000409583
0.00273741
0.00515644
0.00643977
0.00186097
6.87843e-05
0.0129915
0.000386462
0.0164741
0.000617933
0.000601681
0.00063735
0.0193843
0.000497102
0.00672334
0.000243212
0.000792117
0.000956278
0.0059333
0.00672449
0.0171077
0.00672713
0.000463532
0.0232692
0.000517697
0.00320767
0.000246581
0.000669613
0.0225267
0.00674655
0.0037469
0.00674496
0.000504928
0.0014653
0.00204745
0.000574688
0.0218258
0.00372855
0.00673074
0.0207289
0.00230263
0.00211397
0.00159521
0.0179961
0.0036961
0.000676383
0.00674545
0.0102281
0.0243205
0.000351554
0.000101471
0.000426556
0.00295471
0.00672975
0.0232717
0.00672321
0.000668344
0.00678815
0.000828976
0.00672832
0.0227746
0.00674978
0.00066168
0.00678358
0.000215893
0.000551739
0.00421073
0.000226503
0.0209182
0.00055519
0.0184034
0.0183653
0.000452221
0.000870522
0.000571416
0.000492322
0.0187317
0.00247332
0.000835515
0.000370255
0.00240742
0.00920777
0.00689369
0.000532832
0.000687266
0.00233349
0.00039009
0.0237136
0.00403231
0.00451158
0.000354679
0.0182865
0.000999588
0.000697805
0.0159443
0.00675209
0.0184461
0.0114354
0.0124416
0.00672496
0.0049302
0.00963602
0.000543335
8.52942e-05
0.0148226
0.000591156
0.000535637
0.000638405
0.00054154
0.00279413
0.00817866
0.000586105
0.00676992
0.00645156
0.00672803
0.000449831
0.000573022
0.000456552
0.0148624
0.000254598
0.00168046
0.000707957
0.000479791
0.0157572
0.0206384
0.000812591
0.00155717
0.00053545
0.000401195
0.000146397
0.00674206
0.000408404
0.000115005
0.000675867
0.00296339
0.000614704
0.000718017
0.00025177
0.0218435
0.0139235
0.000974133
0.000177473
0.00660734
0.00190904
0.00108385
0.0131523
0.000738588
0.000806164
0.000875247
0.0067323
0.000179993
0.00106545
0.022206
0.000421971
0.00130791
0.00672488
8.15634e-05
0.000431528
0.016831
0.00366418
0.00434091
0.00674066
0.000497482
0.00672639
0.000928849
0.00102623
0.00118751
0.000505314
0.00374491
0.000694951
0.00205891
0.000669477
0.0173116
0.00672617
0.0240077
0.00117516
0.00675474
3.69521e-05
0.000218973
0.000216879
0.00107957
0.00060832
0.000744639
7.60577e-05
0.000674416
0.00113163
0.00672472
0.00274467
0.00113043
0.0201137
0.00120218
0.00410287
0.00673916
0.00017884
0.00384463
0.000513794
0.000621738
0.000151643
0.00656935
0.0163686
0.00996072
0.012282
0.00675105
0.000491478
2.91202e-05
0.0105196
0.0140236
0.00135782
0.00147628
0.000328214
0.0163011
0.018813
0.000565496
0.0145584
0.0067247
0.0033231
0.000262898
0.00672763
0.0023524
0.000657517
0.00672653
6.62948e-05
0.00357296
0.0214321
0.0232024
0.021712
0.0234985
0.0105367
0.00223013
0.00673004
0.0222957
0.00470608
0.00396229
0.00676058
0.000177219
0.0237303
0.00322192
0.000413838
0.00237785
0.00098274
0.000264535
0.00447356
0.00672508
0.0190894
0.0218102
0.00672816
0.00672736
0.0103119
0.000640834
0.00151793
0.00666343
0.0237257
0.0100656
0.0023889
0.00263147
0.00672656
0.0135578
4.42694e-05
0.00164707
0.00437459
0.00183009
0.0226488
0.00394767
0.00233557
0.00672726
0.00672633
0.0235756
0.00341183
0.000244407
0.0133898
0.00208134
0.0012362
0.000282457
0.0166098
0.000410867
0.0216604
0.0130144
0.006742
0.000914098
0.00084732
0.000746136
0.0241846
0.00677157
0.00487516
0.000338256
0.000629971
0.00101186
0.00672816
0.00090117
0.00040132
0.00374609
0.00672739
0.000311251
0.00150565
0.000883961
0.00100836
0.021363
0.0152249
0.000323415
0.000751365
0.00307486
0.000714722
0.000549988
5.02447e-05
0.0232013
0.0218949
0.00672445
0.0184771
7.42336e-05
0.0193965
0.00115666
0.000390261
0.00046063
0.00197734
0.0230445
0.00673491
0.000611239
0.0124194
0.0215125
0.00396231
0.0229205
0.000452694
0.00047871
0.00499748
0.0214027
0.000475835
0.0174048
0.00479131
0.0233322
0.00678906
0.00674308
0.000626081
0.00031401
0.000295087
0.00245891
0.0126881
0.000717805
0.00354487
0.000369247
0.0100299
0.000128097
0.00352571
0.0142384
0.000737112
0.000823487
0.000834539
0.00674188
0.000356946
0.00674482
0.00827395
0.000134446
0.00103894
0.0052023
0.00074653
0.000497371
0.00528219
0.0220981
0.0170892
0.00515577
0.00554656
0.0162398
0.00673004
0.000303782
0.000864526
0.000150369
0.0159654
0.0112452
0.000209598
0.0231553
0.00027338
0.000444791
0.00610612
0.0249099
0.000138157
0.000423471
0.000101935
0.00672529
0.0134074
0.000302678
0.00126862
0.0113617
0.0220356
0.0130262
0.00768976
0.00593975
0.00039161
0.000272514
0.00673327
0.00202391
0.00677364
0.000449366
0.000418173
0.000274084
0.0161826
0.0043478
0.00673958
0.000726754
0.000785717
0.000775148
0.00677077
0.0181569
0.000889474
0.00071953
0.00167648
0.00330992
0.000382222
0.0246625
0.000134426
0.000579656
0.000280413
0.00673408
0.00108149
0.016137
0.000345018
0.00219256
0.00672799
0.00327615
0.0104318
0.0208606
0.00321082
0.000350391
0.0166082
0.0021292
0.00673231
0.00198564
0.0233536
6.3716e-05
0.000368229
0.00107055
0.000967524
0.0227365
0.000219523
0.00667418
0.00108964
0.000578152
0.00678332
0.000162807
0.000291037
0.00393101
0.0230674
0.0136706
0.0191667
0.0234183
0.00893928
0.0158409
0.0225884
0.000949932
0.00342538
0.0235425
0.00679659
0.0138757
0.00205023
0.000549153
0.00399809
0.0036453
0.0179845
0.0219109
0.000522501
0.00657368
0.0151404
0.000562268
0.000476081
0.00883121
0.0126546
0.0136083
0.00672755
0.0209488
0.0166963
0.000595429
0.000832156
0.00050773
0.00213764
0.00634085
0.000453795
0.000440859
0.000726699
0.000667744
0.000751837
0.000626618
0.00767094
0.00978025
0.000299134
0.000688295
0.0117191
0.00496159
0.00672992
2.85928e-05
9.51868e-05
0.00755245
0.000426195
0.00187877
0.000662777
0.000570657
0.000356457
0.00674438
0.000233891
0.000731815
0.00056725
0.000397962
0.00672513
0.00111231
0.012328
0.0234508
0.0195913
0.0162338
0.000806698
0.00677667
0.00453856
0.000600912
0.00526171
0.020874
0.0043461
0.0067267
0.00677732
0.0229096
0.00187917
0.00141724
0.00056832
0.000521591
0.000253641
0.000587139
0.000213972
0.00057625
0.000432153
0.00371024
0.000800188
0.00793629
0.00039687
0.0189378
0.000571932
0.00672655
0.00628805
0.00053918
0.00078039
0.00674185
0.000224064
0.000570779
0.000331657
0.0210301
0.00415497
0.021245
0.00672669
0.0158588
0.000363222
0.000381068
0.0053412
0.00031204
0.000802317
0.010778
0.000125538
0.000333282
0.00673596
0.0234074
0.000386927
0.00812033
0.00654084
0.00849171
0.000701266
0.000714345
0.0224067
0.0154388
0.0170435
0.000359522
0.00239931
0.000381699
0.00314269
0.0139808
0.000609782
0.000486089
0.0160016
0.0178908
0.00270339
0.00291486
0.00953092
0.000404093
0.0147176
0.000239047
0.00657438
0.000431504
0.00448848
0.000153761
0.0195157
0.000381567
0.0161548
0.000746314
0.00672713
0.00302203
0.000501936
0.00120875
0.000152364
0.00344454
0.00216081
0.000475695
0.00100824
0.00195083
0.00673587
0.000407175
0.0158259
0.000688566
0.000462547
0.000475616
0.000370766
0.00225057
0.000254894
0.000595104
0.000504683
7.9959e-05
0.00106144
0.000142696
0.000143339
0.00334171
0.000551171
0.00856655
0.0147768
0.00204527
0.00157011
0.00859148
0.00324311
0.00118602
9.83247e-05
0.00961214
0.000424795
0.00920808
0.00407954
0.00250897
0.000657998
0.00676835
0.000791861
0.00039429
0.00853648
5.58526e-05
0.00993546
0.0165871
0.0231744
0.0158619
0.00147571
0.014561
0.00531547
0.0174475
0.0136934
0.00673282
0.00672324
0.013447
0.00234071
0.00673484
0.0154769
0.0245153
0.00181708
0.000933965
0.0112422
0.00672378
0.0237703
0.0114666
0.0067249
0.0157236
0.00940042
0.00924181
0.012915
0.0126424
0.0117881
0.00675939
0.000912275
0.000417257
0.000518549
0.00673598
0.00496617
0.00580596
0.0137767
0.0145201
0.000142487
0.0122777
0.0148113
0.0140258
0.00890992
8.67784e-05
0.00196211
0.000945074
0.000998889
0.00676547
0.0180145
0.000288362
0.00486315
0.0183732
0.00359895
0.0178248
0.00227106
0.0224025
0.00110744
0.0041972
0.000724411
0.000411294
0.000228652
0.0109555
0.0214755
0.000855072
0.000936968
0.000779997
0.000869115
0.000753973
0.000818523
0.000685264
0.00672677
0.000104049
0.000442521
0.000373438
0.00938887
0.000519161
0.000263652
0.000374217
0.000454646
0.000702552
0.00416084
0.000562485
0.00598567
0.000801925
0.0150845
0.0090337
0.00674407
0.000441971
0.00474457
0.00124332
0.000343561
0.000876306
0.000449644
0.0236362
0.000470128
0.000825035
0.00320145
0.00674022
0.0233478
0.00672913
0.00125547
0.000769426
0.0214743
0.000403876
3.2331e-05
0.000138159
0.000770138
0.00174731
5.5092e-05
0.000416786
0.0163663
0.000489596
0.000794514
0.000795888
0.000807493
0.000622901
0.000152658
0.000411504
8.02463e-05
0.000483791
0.000263805
0.000826493
0.00241806
0.00249317
0.00301222
0.000587095
0.00674949
0.000676508
0.00060943
0.00050211
0.0118501
0.00103236
0.00130188
0.006741
0.00207262
0.00672755
0.00672689
0.00105627
0.00675001
0.000630423
0.00268399
0.000533823
0.00051992
0.00109173
0.0020662
0.0129695
0.00242793
0.022508
0.0215794
0.00502234
0.000741334
0.000393834
0.000944872
0.00672897
0.000332885
7.08729e-05
0.000365366
0.0117915
0.000553788
0.0140536
0.00063612
0.0067252
0.00674082
0.0143278
0.00309972
0.000703147
8.2722e-05
0.00300919
0.00134859
0.0223558
0.0067273
0.000630911
0.00371319
0.00118962
5.18612e-05
0.000729625
0.0016615
0.000815112
0.000218351
0.000525359
0.000600908
0.000176382
0.000125403
0.000460772
0.000862584
0.00112966
0.00109041
0.000629661
0.0216155
0.0229173
0.0234261
0.000777961
0.0144442
0.000749804
0.00133422
0.00674336
0.000696161
0.00672981
0.000858977
0.003276
0.00411859
0.00377038
0.00269445
0.0174639
0.000690855
0.00265288
0.00236103
0.0047423
0.00038541
0.0194607
0.000313021
0.00221697
0.0238319
9.08706e-05
0.00315151
0.00014895
0.00672711
0.000231042
0.00055844
0.000100254
0.019066
0.000256392
0.0228295
0.00480343
0.0120153
0.00242369
0.000746697
0.00119433
0.000381632
0.0067248
0.000131949
0.0231877
0.00020341
0.000464084
0.000377265
7.84189e-05
0.00282261
0.00682163
0.0013309
0.0182096
0.000976049
0.0224
0.0073111
0.000259007
0.00672777
0.000328693
0.000516581
0.000758811
0.00130808
0.00754437
0.00303977
0.00676824
0.00340264
0.0113949
0.00203219
0.00307533
0.0234632
0.00426187
0.000698046
7.28219e-05
0.00363513
0.0228062
0.00107892
0.0220141
0.00248801
0.0181941
0.00113987
8.30383e-05
0.00355808
0.000490567
0.00433761
0.00103814
0.0226219
0.000883022
0.000363347
0.000635857
0.000600715
0.00019943
0.000404881
0.00227582
0.000131934
0.000540073
0.000976194
0.00044694
0.00377038
0.00425701
0.00672451
0.000947787
0.00210026
0.000551953
0.0238516
0.00118392
5.96372e-05
0.00105233
0.000707114
0.00091584
0.0182536
0.0118331
0.00138102
0.00138501
0.0115255
0.0111329
0.0076461
0.000532954
0.0212267
0.0236622
0.00236579
0.00842897
0.0235264
0.000161988
8.26844e-05
0.000353799
0.00109673
0.00499675
0.00042514
0.00672665
0.00352922
6.82373e-05
0.000126042
0.00674031
0.000560076
0.000153231
0.000876507
0.00672648
0.00672263
6.46032e-05
0.00130678
0.00193481
0.00078
0.0145433
0.000920394
0.00028363
0.00674408
5.346e-05
7.52049e-05
0.00195869
0.000505909
0.00674776
0.0227361
0.0241195
0.000659377
0.00443719
0.000327818
0.000507668
0.00672955
0.000705418
0.00679066
0.00156376
0.0067274
0.0251133
0.00499247
0.000774475
0.000267897
0.000473236
0.000696536
0.00494912
0.0174313
0.000588832
0.00329986
0.00758305
0.00065734
0.00604178
0.00855222
0.00417403
0.01496
0.00157013
6.15952e-05
0.000219881
0.0121176
0.0213698
0.00622726
0.00377667
0.000199707
0.0240896
0.00674096
0.000539381
0.0184235
0.00672655
0.00400609
0.000558587
0.0035401
0.00672457
0.00263384
0.000316289
5.2046e-05
0.00102163
0.0003551
0.00378444
0.00188844
0.0122851
0.0246326
0.00720172
0.000709545
0.00238213
0.00142355
0.00672866
0.000279864
6.50908e-05
0.0242407
0.0174901
0.0136514
0.000481772
0.00672835
0.0067265
0.00422736
0.00252367
0.000817345
0.000477354
0.000668351
7.44913e-05
0.00580217
0.00221343
0.00678123
0.00497414
0.00628139
0.00112463
9.21862e-05
0.00040563
0.00216849
0.000384209
0.000144804
0.00753072
0.00835304
0.00672458
0.00375617
0.000771542
0.0123754
0.019641
0.00672689
0.000305558
0.0100472
0.00677524
0.017375
0.0239762
0.00422129
0.00673151