/*--------------------------------*- C++ -*----------------------------------*\
| =========                 |                                                 |
| \\      /  F ield         | OpenFOAM: The Open Source CFD Toolbox           |
|  \\    /   O peration     | Version:  v2012                                 |
|   \\  /    A nd           | Website:  www.openfoam.com                      |
|    \\/     M anipulation  |                                                 |
\*---------------------------------------------------------------------------*/
FoamFile
{
    version     2.0;
    format      ascii;
    class       pointVectorField;
    location    "150";
    object      pointDisplacement;
}
// * * * * * * * * * * * * * * * * * * * * * * * * * * * * * * * * * * * * * //

dimensions      [0 1 0 0 0 0 0];


internalField   nonuniform List<vector> 
14324
(
(0 0 0)
(0.0212663 0.147826 0)
(0 0 0)
(0.0212663 0.147826 0)
(0 0 0)
(0 0 0)
(0 0 0)
(0 0 0)
(0 0 0)
(0 0 0)
(0 0 0)
(0 0 0)
(0 0 0)
(0 0 0)
(0 0 0)
(0 0 0)
(0 0 0)
(0 0 0)
(0 0 0)
(0 0 0)
(0 0 0)
(0 0 0)
(0 0 0)
(0 0 0)
(0 0 0)
(0 0 0)
(0 0 0)
(0 0 0)
(0 0 0)
(0 0 0)
(0 0 0)
(0 0 0)
(0 0 0)
(0 0 0)
(0 0 0)
(0 0 0)
(0 0 0)
(0 0 0)
(0 0 0)
(0 0 0)
(0 0 0)
(0 0 0)
(0 0 0)
(0 0 0)
(0 0 0)
(0 0 0)
(0 0 0)
(0 0 0)
(0 0 0)
(0 0 0)
(0 0 0)
(0 0 0)
(0 0 0)
(0 0 0)
(0 0 0)
(0 0 0)
(0 0 0)
(0 0 0)
(0 0 0)
(0 0 0)
(0 0 0)
(0 0 0)
(0 0 0)
(0 0 0)
(0 0 0)
(0 0 0)
(0 0 0)
(0 0 0)
(0 0 0)
(0 0 0)
(0 0 0)
(0 0 0)
(0 0 0)
(0 0 0)
(0 0 0)
(0 0 0)
(0.0167024 -0.098505 0)
(0.0167367 -0.0966528 0)
(0.016771 -0.0948007 0)
(0.0168054 -0.0929486 0)
(0.0168397 -0.0910965 0)
(0.016874 -0.0892444 0)
(0.0169083 -0.0873923 0)
(0.0169426 -0.0855402 0)
(0.0169769 -0.0836881 0)
(0.0170112 -0.081836 0)
(0.0170456 -0.0799839 0)
(0.0170799 -0.0781318 0)
(0.0171142 -0.0762796 0)
(0.0171485 -0.0744275 0)
(0.0171828 -0.0725754 0)
(0.0172171 -0.0707233 0)
(0.0172514 -0.0688712 0)
(0.0172858 -0.0670191 0)
(0.0173201 -0.065167 0)
(0.0173544 -0.0633149 0)
(0.0173887 -0.0614628 0)
(0.017423 -0.0596107 0)
(0.0174573 -0.0577585 0)
(0.0174916 -0.0559064 0)
(0.017526 -0.0540543 0)
(0.0175603 -0.0522022 0)
(0.0175946 -0.0503501 0)
(0.0176289 -0.048498 0)
(0.0176632 -0.0466459 0)
(0.0176975 -0.0447938 0)
(0.0177319 -0.0429417 0)
(0.0177662 -0.0410896 0)
(0.0178005 -0.0392374 0)
(0.0178348 -0.0373853 0)
(0.0178691 -0.0355332 0)
(0.0179034 -0.0336811 0)
(0.0179377 -0.031829 0)
(0.0179721 -0.0299769 0)
(0.0180064 -0.0281248 0)
(0.0180407 -0.0262727 0)
(0.018075 -0.0244206 0)
(0.0181093 -0.0225685 0)
(0.0181436 -0.0207164 0)
(0.0181779 -0.0188642 0)
(0.0182123 -0.0170121 0)
(0.0182466 -0.01516 0)
(0.0182809 -0.0133079 0)
(0.0183152 -0.0114558 0)
(0.0183495 -0.0096037 0)
(0.0183838 -0.00775159 0)
(0.0184182 -0.00589948 0)
(0.0184525 -0.00404737 0)
(0.0184868 -0.00219526 0)
(0.0185211 -0.000343149 0)
(0.0185554 0.00150896 0)
(0.0185897 0.00336107 0)
(0.018624 0.00521318 0)
(0.0186584 0.00706529 0)
(0.0186927 0.0089174 0)
(0.018727 0.0107695 0)
(0.0187613 0.0126216 0)
(0.0187956 0.0144737 0)
(0.0188299 0.0163258 0)
(0.0188642 0.0181779 0)
(0.0188986 0.0200301 0)
(0.0189329 0.0218822 0)
(0.0189672 0.0237343 0)
(0.0190015 0.0255864 0)
(0.0190358 0.0274385 0)
(0.0190701 0.0292906 0)
(0.0191044 0.0311427 0)
(0.0191388 0.0329948 0)
(0.0191731 0.0348469 0)
(0.0192074 0.036699 0)
(0.0192417 0.0385512 0)
(0.019276 0.0404033 0)
(0.0193103 0.0422554 0)
(0.0193447 0.0441075 0)
(0.019379 0.0459596 0)
(0.0194133 0.0478117 0)
(0.0194476 0.0496638 0)
(0.0194819 0.0515159 0)
(0.0195162 0.053368 0)
(0.0195505 0.0552201 0)
(0.0195849 0.0570722 0)
(0.0196192 0.0589244 0)
(0.0196535 0.0607765 0)
(0.0196878 0.0626286 0)
(0.0197221 0.0644807 0)
(0.0197564 0.0663328 0)
(0.0197907 0.0681849 0)
(0.0198251 0.070037 0)
(0.0198594 0.0718891 0)
(0.0198937 0.0737412 0)
(0.019928 0.0755933 0)
(0.0199623 0.0774455 0)
(0.0199966 0.0792976 0)
(0.020031 0.0811497 0)
(0.0200653 0.0830018 0)
(0.0200996 0.0848539 0)
(0.0201339 0.086706 0)
(0.0201682 0.0885581 0)
(0.0202025 0.0904102 0)
(0.0202368 0.0922623 0)
(0.0202712 0.0941144 0)
(0.0203055 0.0959665 0)
(0.0203398 0.0978187 0)
(0.0203741 0.0996708 0)
(0.0204084 0.101523 0)
(0.0204427 0.103375 0)
(0.020477 0.105227 0)
(0.0205114 0.107079 0)
(0.0205457 0.108931 0)
(0.02058 0.110783 0)
(0.0206143 0.112636 0)
(0.0206486 0.114488 0)
(0.0206829 0.11634 0)
(0.0207172 0.118192 0)
(0.0207516 0.120044 0)
(0.0207859 0.121896 0)
(0.0208202 0.123748 0)
(0.0208545 0.1256 0)
(0.0208888 0.127452 0)
(0.0209231 0.129305 0)
(0.0209575 0.131157 0)
(0.0209918 0.133009 0)
(0.0210261 0.134861 0)
(0.0210604 0.136713 0)
(0.0210947 0.138565 0)
(0.021129 0.140417 0)
(0.0211633 0.142269 0)
(0.0211977 0.144121 0)
(0.021232 0.145974 0)
(0.0194142 0.14786 0)
(0.0175621 0.147894 0)
(0.01571 0.147929 0)
(0.0138578 0.147963 0)
(0.0120057 0.147997 0)
(0.0101536 0.148032 0)
(0.00830152 0.148066 0)
(0.00644941 0.1481 0)
(0.0045973 0.148134 0)
(0.00274519 0.148169 0)
(0.00089308 0.148203 0)
(-0.000959029 0.148237 0)
(-0.00281114 0.148272 0)
(-0.00466325 0.148306 0)
(-0.00651536 0.14834 0)
(-0.00836747 0.148375 0)
(-0.0102196 0.148409 0)
(-0.0120717 0.148443 0)
(0 0 0)
(0 0 0)
(0 0 0)
(0 0 0)
(0 0 0)
(0 0 0)
(0 0 0)
(0 0 0)
(0 0 0)
(0 0 0)
(0 0 0)
(0 0 0)
(0 0 0)
(0 0 0)
(0 0 0)
(0 0 0)
(0 0 0)
(0 0 0)
(0 0 0)
(0 0 0)
(0 0 0)
(0 0 0)
(0 0 0)
(0 0 0)
(0 0 0)
(0 0 0)
(0 0 0)
(0 0 0)
(0 0 0)
(0 0 0)
(0 0 0)
(0 0 0)
(0 0 0)
(0 0 0)
(0 0 0)
(0 0 0)
(0 0 0)
(0 0 0)
(0 0 0)
(0 0 0)
(0 0 0)
(0 0 0)
(0 0 0)
(0 0 0)
(0 0 0)
(0 0 0)
(0 0 0)
(0 0 0)
(0 0 0)
(0 0 0)
(0 0 0)
(0 0 0)
(0 0 0)
(0 0 0)
(0 0 0)
(0 0 0)
(0 0 0)
(0 0 0)
(0 0 0)
(0 0 0)
(0 0 0)
(0 0 0)
(0 0 0)
(0 0 0)
(0 0 0)
(0 0 0)
(0 0 0)
(0 0 0)
(0 0 0)
(0 0 0)
(0 0 0)
(0 0 0)
(0.0167024 -0.098505 0)
(0.0167367 -0.0966528 0)
(0.016771 -0.0948007 0)
(0.0168054 -0.0929486 0)
(0.0168397 -0.0910965 0)
(0.016874 -0.0892444 0)
(0.0169083 -0.0873923 0)
(0.0169426 -0.0855402 0)
(0.0169769 -0.0836881 0)
(0.0170112 -0.081836 0)
(0.0170456 -0.0799839 0)
(0.0170799 -0.0781318 0)
(0.0171142 -0.0762796 0)
(0.0171485 -0.0744275 0)
(0.0171828 -0.0725754 0)
(0.0172171 -0.0707233 0)
(0.0172514 -0.0688712 0)
(0.0172858 -0.0670191 0)
(0.0173201 -0.065167 0)
(0.0173544 -0.0633149 0)
(0.0173887 -0.0614628 0)
(0.017423 -0.0596107 0)
(0.0174573 -0.0577585 0)
(0.0174916 -0.0559064 0)
(0.017526 -0.0540543 0)
(0.0175603 -0.0522022 0)
(0.0175946 -0.0503501 0)
(0.0176289 -0.048498 0)
(0.0176632 -0.0466459 0)
(0.0176975 -0.0447938 0)
(0.0177319 -0.0429417 0)
(0.0177662 -0.0410896 0)
(0.0178005 -0.0392374 0)
(0.0178348 -0.0373853 0)
(0.0178691 -0.0355332 0)
(0.0179034 -0.0336811 0)
(0.0179377 -0.031829 0)
(0.0179721 -0.0299769 0)
(0.0180064 -0.0281248 0)
(0.0180407 -0.0262727 0)
(0.018075 -0.0244206 0)
(0.0181093 -0.0225685 0)
(0.0181436 -0.0207164 0)
(0.0181779 -0.0188642 0)
(0.0182123 -0.0170121 0)
(0.0182466 -0.01516 0)
(0.0182809 -0.0133079 0)
(0.0183152 -0.0114558 0)
(0.0183495 -0.0096037 0)
(0.0183838 -0.00775159 0)
(0.0184182 -0.00589948 0)
(0.0184525 -0.00404737 0)
(0.0184868 -0.00219526 0)
(0.0185211 -0.000343149 0)
(0.0185554 0.00150896 0)
(0.0185897 0.00336107 0)
(0.018624 0.00521318 0)
(0.0186584 0.00706529 0)
(0.0186927 0.0089174 0)
(0.018727 0.0107695 0)
(0.0187613 0.0126216 0)
(0.0187956 0.0144737 0)
(0.0188299 0.0163258 0)
(0.0188642 0.0181779 0)
(0.0188986 0.0200301 0)
(0.0189329 0.0218822 0)
(0.0189672 0.0237343 0)
(0.0190015 0.0255864 0)
(0.0190358 0.0274385 0)
(0.0190701 0.0292906 0)
(0.0191044 0.0311427 0)
(0.0191388 0.0329948 0)
(0.0191731 0.0348469 0)
(0.0192074 0.036699 0)
(0.0192417 0.0385512 0)
(0.019276 0.0404033 0)
(0.0193103 0.0422554 0)
(0.0193447 0.0441075 0)
(0.019379 0.0459596 0)
(0.0194133 0.0478117 0)
(0.0194476 0.0496638 0)
(0.0194819 0.0515159 0)
(0.0195162 0.053368 0)
(0.0195505 0.0552201 0)
(0.0195849 0.0570722 0)
(0.0196192 0.0589244 0)
(0.0196535 0.0607765 0)
(0.0196878 0.0626286 0)
(0.0197221 0.0644807 0)
(0.0197564 0.0663328 0)
(0.0197907 0.0681849 0)
(0.0198251 0.070037 0)
(0.0198594 0.0718891 0)
(0.0198937 0.0737412 0)
(0.019928 0.0755933 0)
(0.0199623 0.0774455 0)
(0.0199966 0.0792976 0)
(0.020031 0.0811497 0)
(0.0200653 0.0830018 0)
(0.0200996 0.0848539 0)
(0.0201339 0.086706 0)
(0.0201682 0.0885581 0)
(0.0202025 0.0904102 0)
(0.0202368 0.0922623 0)
(0.0202712 0.0941144 0)
(0.0203055 0.0959665 0)
(0.0203398 0.0978187 0)
(0.0203741 0.0996708 0)
(0.0204084 0.101523 0)
(0.0204427 0.103375 0)
(0.020477 0.105227 0)
(0.0205114 0.107079 0)
(0.0205457 0.108931 0)
(0.02058 0.110783 0)
(0.0206143 0.112636 0)
(0.0206486 0.114488 0)
(0.0206829 0.11634 0)
(0.0207172 0.118192 0)
(0.0207516 0.120044 0)
(0.0207859 0.121896 0)
(0.0208202 0.123748 0)
(0.0208545 0.1256 0)
(0.0208888 0.127452 0)
(0.0209231 0.129305 0)
(0.0209575 0.131157 0)
(0.0209918 0.133009 0)
(0.0210261 0.134861 0)
(0.0210604 0.136713 0)
(0.0210947 0.138565 0)
(0.021129 0.140417 0)
(0.0211633 0.142269 0)
(0.0211977 0.144121 0)
(0.021232 0.145974 0)
(0.0194142 0.14786 0)
(0.0175621 0.147894 0)
(0.01571 0.147929 0)
(0.0138578 0.147963 0)
(0.0120057 0.147997 0)
(0.0101536 0.148032 0)
(0.00830152 0.148066 0)
(0.00644941 0.1481 0)
(0.0045973 0.148134 0)
(0.00274519 0.148169 0)
(0.00089308 0.148203 0)
(-0.000959029 0.148237 0)
(-0.00281114 0.148272 0)
(-0.00466325 0.148306 0)
(-0.00651536 0.14834 0)
(-0.00836747 0.148375 0)
(-0.0102196 0.148409 0)
(-0.0120717 0.148443 0)
(0.0173037 -0.0660284 0)
(0.0179213 -0.0327059 0)
(0.0185342 0.000397576 0)
(0.0191568 0.0339479 0)
(0.0197765 0.0674661 0)
(0.0203908 0.100598 0)
(0.0210111 0.13413 0)
(0.019467 0.0507444 0)
(0.0169946 -0.0827156 0)
(0.0188494 0.017398 0)
(0.0176141 -0.0492927 0)
(0.0207007 0.117324 0)
(0.0182297 -0.0160536 0)
(0.0200824 0.0839259 0)
(0.00154782 0.148183 0)
(0.0164833 0.147896 0)
(-0.0114008 0.14841 0)
(0.000765524 0.00420461 0)
(0.000589048 0.00725425 0)
(0.000907926 0.003321 0)
(0.000924129 0.000974856 0)
(0.000472666 0.00838212 0)
(0.000324178 0.00942218 0)
(0.0211703 0.143107 0)
(0.0005376 0.00360597 0)
(0.000488825 0.00495885 0)
(0.000149134 0.00983516 0)
(0.000888433 -0.000624419 0)
(0.000393472 0.00359739 0)
(0.020565 0.11003 0)
(0.0180917 -0.0235358 0)
(0.0202202 0.0913644 0)
(0.0174693 -0.0570547 0)
(0.0192922 0.0413001 0)
(0.0196413 0.0601521 0)
(0.0189826 0.0245646 0)
(0.0171314 -0.0753297 0)
(0.0186783 0.00815433 0)
(0.0177792 -0.0403395 0)
(0.0208727 0.126581 0)
(0.0168556 -0.0902389 0)
(0.0183969 -0.00698816 0)
(0.0199134 0.0747923 0)
(0.00921628 0.14805 0)
(0.000421723 0.0031476 0)
(0.000554898 0.00793496 0)
(0.000825307 0.00381613 0)
(0.000897323 0.00201215 0)
(0.000274106 0.00234282 0)
(0.000312046 0.00246275 0)
(-0.00563978 0.148318 0)
(0.00015636 0.0012753 0)
(0.000429277 0.00896395 0)
(0.000237955 0.00955709 0)
(0.000517548 0.0058266 0)
(0.000951733 0.00282107 0)
(0.000845781 0.000146249 0)
(0.00101978 -0.0017105 0)
(0.000542442 0.00325801 0)
(0.000606803 0.00431823 0)
(0.000444062 0.00425633 0)
(0.000346443 0.00304842 0)
(0.000174958 0.00146465 0)
(6.47671e-05 0.000534054 0)
(0.0141305 -0.0550898 0)
(0.014068 -0.0520123 0)
(0.0143195 -0.0503051 0)
(0.0142482 -0.0472862 0)
(0.0145294 -0.0451796 0)
(0.0144067 -0.0418452 0)
(0.0146858 -0.0394641 0)
(0.0145984 -0.036373 0)
(0.0148458 -0.0340241 0)
(0.0147392 -0.0311973 0)
(0.0149815 -0.0287166 0)
(0.0148752 -0.0261169 0)
(0.0151032 -0.0234511 0)
(0.0149916 -0.0210539 0)
(0.0152185 -0.0179547 0)
(0.0150882 -0.0158395 0)
(0.0153178 -0.0124501 0)
(0.0151819 -0.0104798 0)
(0.0153987 -0.00699427 0)
(0.0152478 -0.00512776 0)
(0.0154657 -0.00157535 0)
(0.0152992 0.000150109 0)
(0.0155119 0.00378051 0)
(0.0153479 0.00533548 0)
(0.015539 0.00903921 0)
(0.0153687 0.0103327 0)
(0.0155545 0.014172 0)
(0.0153751 0.0152662 0)
(0.0155533 0.019121 0)
(0.015368 0.0199977 0)
(0.0155336 0.023999 0)
(0.0153351 0.0245716 0)
(0.0154883 0.0286776 0)
(0.0152879 0.0290868 0)
(0.0154286 0.0330813 0)
(0.0152276 0.033469 0)
(0.0153641 0.0374757 0)
(0.0151473 0.0377159 0)
(0.015285 0.0419996 0)
(0.0150525 0.0418956 0)
(0.0151804 0.0462231 0)
(0.0149491 0.0458444 0)
(0.0150592 0.0499612 0)
(0.0145007 -0.0333678 0)
(0.0150594 -0.0033725 0)
(0.0151374 0.0250363 0)
(0.0148225 0.0493727 0)
(0.0149197 0.0534028 0)
(0.0146795 0.0527243 0)
(0.0147638 0.0566974 0)
(0.0145706 0.0485881 0)
(0.0145234 0.055893 0)
(0.0145923 0.0597984 0)
(0.0143447 0.0586837 0)
(0.0144042 0.0626439 0)
(0.0141509 0.0612368 0)
(0.0141983 0.0652791 0)
(0.0139396 0.0636948 0)
(0.0139747 0.0677526 0)
(0.015531 0.0417167 0)
(0.0157402 0.0182032 0)
(0.0148444 0.0608827 0)
(0.0137106 0.0660857 0)
(0.0137347 0.0699696 0)
(0.0134683 0.0682053 0)
(0.0134809 0.0718753 0)
(0.0137429 0.0737234 0)
(0.0134746 0.0754591 0)
(0.0137303 0.0773887 0)
(0.013447 0.0790238 0)
(0.0131954 0.0769361 0)
(0.0131503 0.0803572 0)
(0.0129086 0.0782278 0)
(0.0128492 0.081455 0)
(0.013066 0.0836413 0)
(0.012765 0.0845403 0)
(0.0129697 0.0867989 0)
(0.0125525 0.082519 0)
(0.015532 -0.00901825 0)
(0.0126588 0.0875064 0)
(0.0128468 0.089827 0)
(0.0125296 0.0903366 0)
(0.0127061 0.0926541 0)
(0.0123787 0.0930124 0)
(0.0125522 0.0954489 0)
(0.0121995 0.0955477 0)
(0.0123499 0.097998 0)
(0.014957 -0.0369071 0)
(0.011985 0.0978964 0)
(0.0121169 0.10032 0)
(0.0117401 0.100039 0)
(0.0116296 0.0974298 0)
(0.0118539 0.102482 0)
(0.0114684 0.102035 0)
(0.0115638 0.104525 0)
(0.0127246 0.097884 0)
(0.0111699 0.103868 0)
(0.0112363 0.106346 0)
(0.0108431 0.105488 0)
(0.0108774 0.107886 0)
(0.0104868 0.106903 0)
(0.010491 0.109316 0)
(0.0136752 0.0619809 0)
(0.0101115 0.108169 0)
(0.0100662 0.110547 0)
(0.0100824 0.105899 0)
(0.00971073 0.109166 0)
(0.00961693 0.111512 0)
(0.00926502 0.109972 0)
(0.0112718 0.108739 0)
(0.00914412 0.112303 0)
(0.00878492 0.110694 0)
(0.00950641 0.113797 0)
(0.00900015 0.114528 0)
(0.00937676 0.115995 0)
(0.00884305 0.116663 0)
(0.00920476 0.118109 0)
(0.00867804 0.118637 0)
(0.00897209 0.120037 0)
(0.00844455 0.120427 0)
(0.008729 0.121832 0)
(0.00815706 0.122144 0)
(0.00787556 0.120471 0)
(0.00846757 0.123594 0)
(0.00784386 0.123787 0)
(0.00813605 0.12522 0)
(0.00749627 0.125267 0)
(0.00777793 0.126682 0)
(0.0084333 0.126588 0)
(0.00806492 0.128022 0)
(0.00874286 0.127871 0)
(0.00738916 0.128028 0)
(0.00764844 0.129336 0)
(0.00695201 0.129269 0)
(0.00718381 0.13053 0)
(0.00645979 0.130375 0)
(0.00665699 0.131609 0)
(0.00590858 0.131357 0)
(0.00607498 0.132579 0)
(0.00530312 0.132239 0)
(0.00518715 0.130982 0)
(0.00455417 0.13177 0)
(0.00685422 0.132804 0)
(0.00463936 0.13302 0)
(0.00386998 0.132477 0)
(0.0039032 0.133703 0)
(0.00313685 0.133063 0)
(0.00306949 0.134231 0)
(0.00224355 0.133375 0)
(0.0021905 0.134633 0)
(0.00147379 0.133916 0)
(0.00131398 0.134965 0)
(0.00068699 0.134194 0)
(0.00042038 0.135159 0)
(0.00451596 0.130473 0)
(0.00200888 0.135735 0)
(0.000801696 0.133254 0)
(0.0162783 -0.0909454 0)
(0.016292 -0.0882685 0)
(0.0164009 -0.0872967 0)
(0.0164153 -0.0846307 0)
(0.0165176 -0.0836092 0)
(0.0165314 -0.0809736 0)
(0.0166309 -0.0798166 0)
(0.0166435 -0.0772245 0)
(0.0167368 -0.0759778 0)
(0.0167515 -0.0734196 0)
(0.0168344 -0.0722866 0)
(0.0168529 -0.069675 0)
(0.0167718 -0.0706383 0)
(0.0168701 -0.067061 0)
(0.0161687 -0.0892037 0)
(0.0169525 -0.0658631 0)
(0.0169701 -0.0633382 0)
(0.0170522 -0.0619343 0)
(0.0170687 -0.0594955 0)
(0.0171476 -0.0580233 0)
(0.0171637 -0.055541 0)
(0.0172395 -0.0541182 0)
(0.017258 -0.0515703 0)
(0.0173291 -0.0502115 0)
(0.017349 -0.0476627 0)
(0.0174175 -0.0462743 0)
(0.0174372 -0.0438342 0)
(0.0175042 -0.0423296 0)
(0.0175212 -0.0400311 0)
(0.0175877 -0.0384387 0)
(0.0176032 -0.0361436 0)
(0.0176685 -0.0345765 0)
(0.0176858 -0.0321982 0)
(0.0177468 -0.0307547 0)
(0.017766 -0.0283111 0)
(0.0178227 -0.0270128 0)
(0.0178451 -0.0244352 0)
(0.0177798 -0.0260367 0)
(0.0178604 -0.0221366 0)
(0.0173803 -0.0447197 0)
(0.0168827 -0.0643914 0)
(0.0179265 -0.0204453 0)
(0.017942 -0.0181146 0)
(0.018008 -0.0163568 0)
(0.0180217 -0.014067 0)
(0.0180879 -0.012241 0)
(0.0181005 -0.0100022 0)
(0.0181662 -0.00813934 0)
(0.018178 -0.00597431 0)
(0.0182429 -0.00408903 0)
(0.0182546 -0.00195847 0)
(0.0183178 -0.000133241 0)
(0.0183294 0.00204762 0)
(0.0183913 0.00383262 0)
(0.0184013 0.00599189 0)
(0.0184622 0.00772233 0)
(0.0184707 0.00986908 0)
(0.0185308 0.0115443 0)
(0.0185411 0.0138067 0)
(0.0184733 0.0118784 0)
(0.0185455 0.0159728 0)
(0.0181115 -0.00778008 0)
(0.0186216 0.0180612 0)
(0.018617 0.0200981 0)
(0.0186866 0.0221783 0)
(0.0186853 0.0241876 0)
(0.0187523 0.0260842 0)
(0.0187505 0.0281557 0)
(0.0188187 0.0300519 0)
(0.0188145 0.0320525 0)
(0.0188848 0.0340449 0)
(0.0188759 0.0359705 0)
(0.0189477 0.0380765 0)
(0.0189339 0.0399078 0)
(0.0190075 0.042089 0)
(0.018992 0.0438944 0)
(0.0190663 0.0460797 0)
(0.0190478 0.0478895 0)
(0.0191225 0.0500316 0)
(0.019101 0.0518966 0)
(0.0190218 0.0496634 0)
(0.0190721 0.0537841 0)
(0.0187491 0.0305218 0)
(0.0191532 0.0560148 0)
(0.0191197 0.0579205 0)
(0.0192022 0.0601564 0)
(0.0191635 0.0619321 0)
(0.0192469 0.0642746 0)
(0.0192007 0.0659044 0)
(0.0190794 0.0599543 0)
(0.0192862 0.0683609 0)
(0.0192303 0.069866 0)
(0.0193197 0.0724118 0)
(0.019256 0.0738885 0)
(0.0193465 0.0764334 0)
(0.0192743 0.0778876 0)
(0.0193655 0.0804092 0)
(0.0192837 0.0818157 0)
(0.0191898 0.0792129 0)
(0.0191895 0.0831107 0)
(0.0192843 0.0857527 0)
(0.0191798 0.0869742 0)
(0.0192735 0.0896605 0)
(0.0191559 0.0907426 0)
(0.0192487 0.0934531 0)
(0.0191159 0.0944187 0)
(0.0190279 0.091542 0)
(0.0189665 0.0950615 0)
(0.0190591 0.0980101 0)
(0.0188931 0.098642 0)
(0.0189827 0.101484 0)
(0.0188047 0.102035 0)
(0.0188922 0.104882 0)
(0.0186984 0.105323 0)
(0.01878 0.108145 0)
(0.0187942 0.0955339 0)
(0.0185696 0.10841 0)
(0.0186399 0.11116 0)
(0.0184238 0.111239 0)
(0.0184775 0.113995 0)
(0.0182481 0.11382 0)
(0.0182803 0.116568 0)
(0.0182166 0.111206 0)
(0.0180405 0.116168 0)
(0.0180525 0.118811 0)
(0.0178059 0.118275 0)
(0.017801 0.120873 0)
(0.0175421 0.120178 0)
(0.018884 0.0318058 0)
(0.0191377 0.0481955 0)
(0.0175137 0.122744 0)
(0.0172443 0.121885 0)
(0.0184454 0.00536715 0)
(0.0181569 -0.0102204 0)
(0.0193712 0.070756 0)
(0.0177897 -0.0239023 0)
(0.0184726 0.0138765 0)
(0.0189842 0.107766 0)
(0.0177231 -0.0333164 0)
(0.0173988 -0.0487094 0)
(0.017187 0.124348 0)
(0.0169142 0.123367 0)
(0.0169813 0.120914 0)
(0.016645 0.122348 0)
(0.0167221 0.119898 0)
(0.0182892 0.119298 0)
(0.0168142 -0.0746072 0)
(0.0168298 0.125699 0)
(0.0163864 -0.0899459 0)
(0.0171115 0.126701 0)
(0.0163738 0.121313 0)
(0.0164658 0.118834 0)
(0.0167153 0.127895 0)
(0.0169988 0.128939 0)
(0.0165676 0.129931 0)
(0.0093811 -0.0229071 0)
(0.0168468 0.131 0)
(0.0163843 0.131805 0)
(0.0166617 0.132891 0)
(0.016112 0.120159 0)
(0.0162159 0.117695 0)
(0.00904084 -0.0206233 0)
(0.00943407 -0.0191814 0)
(0.0161603 0.133526 0)
(0.0164233 0.134625 0)
(0.0169456 0.133954 0)
(0.00907808 -0.0170801 0)
(0.00947408 -0.0154653 0)
(0.00982237 -0.0174871 0)
(0.00986001 -0.0136166 0)
(0.00949705 -0.0117924 0)
(0.00988103 -0.00978447 0)
(0.00950339 -0.00817459 0)
(0.00988325 -0.00597335 0)
(0.00949072 -0.00461287 0)
(0.0098662 -0.00220428 0)
(0.00945775 -0.00110197 0)
(0.00983054 0.00148598 0)
(0.0159059 0.132461 0)
(0.0158825 0.135089 0)
(0.0161353 0.136178 0)
(0.0155415 0.136467 0)
(0.0157751 0.137551 0)
(0.0101999 -0.0155617 0)
(0.0151356 0.137685 0)
(0.0153295 0.138733 0)
(0.00940691 0.00235854 0)
(0.00977538 0.00504989 0)
(0.014653 0.138757 0)
(0.0148033 0.139772 0)
(0.0140809 0.139676 0)
(0.0141564 0.140646 0)
(0.0139967 0.138711 0)
(0.0102258 0.000378671 0)
(0.00933704 0.00569069 0)
(0.00970177 0.00848045 0)
(0.0158712 0.118903 0)
(0.0159689 0.116497 0)
(0.0134024 0.140435 0)
(0.0134219 0.141324 0)
(0.000965701 0.0937162 0)
(0.0011873 0.0967411 0)
(0.00137197 0.0939083 0)
(0.00160956 0.096758 0)
(0.00177221 0.0940311 0)
(0.00203027 0.0967797 0)
(0.00216548 0.0939718 0)
(0.00924844 0.00887619 0)
(0.00960882 0.0117593 0)
(0.00914251 0.0119178 0)
(0.00949766 0.014866 0)
(0.00994853 0.0148332 0)
(0.00983106 0.0179664 0)
(0.00937187 0.0177776 0)
(0.00969894 0.0208827 0)
(0.00922995 0.020497 0)
(0.00955057 0.0235889 0)
(0.00907191 0.0230178 0)
(0.0093927 0.0261245 0)
(0.0024651 0.0967921 0)
(0.0025616 0.0936997 0)
(0.00890195 0.0253131 0)
(0.00920978 0.0284545 0)
(0.0160026 0.138615 0)
(0.0126228 0.141075 0)
(0.012596 0.142003 0)
(0.00871281 0.0273249 0)
(0.00900227 0.0304735 0)
(0.0156238 0.117752 0)
(0.015721 0.115307 0)
(0.0160507 0.113834 0)
(0.0158047 0.112704 0)
(0.0160974 0.111065 0)
(0.0158665 0.109956 0)
(0.0161432 0.108218 0)
(0.0159105 0.107093 0)
(0.0161949 0.105129 0)
(0.00289925 0.0964885 0)
(0.00295931 0.0933016 0)
(0.00222027 0.0908868 0)
(0.0085037 0.0290586 0)
(0.00878667 0.0322067 0)
(0.0101329 0.0210987 0)
(0.00926948 0.033771 0)
(0.00904651 0.0354535 0)
(0.00856187 0.0337114 0)
(0.00881271 0.0369002 0)
(0.00832672 0.0349869 0)
(0.0085677 0.0381024 0)
(0.0090354 0.0400912 0)
(0.00878274 0.0412276 0)
(0.00831205 0.0390765 0)
(0.00852118 0.0421698 0)
(0.00804517 0.0398186 0)
(0.00824104 0.0428503 0)
(0.00776968 0.0403504 0)
(0.00795345 0.0432747 0)
(0.00838749 0.0458425 0)
(0.00810551 0.0461757 0)
(0.0076637 0.0434962 0)
(0.00781225 0.0462844 0)
(0.00822547 0.048967 0)
(0.00793467 0.0489839 0)
(0.00828971 0.051168 0)
(0.00810229 0.0520377 0)
(0.0076243 0.0487606 0)
(0.00770404 0.0513128 0)
(0.00811949 0.0546221 0)
(0.00774256 0.0536983 0)
(0.00734906 0.0505326 0)
(0.007388 0.0527913 0)
(0.0077651 0.0560449 0)
(0.00739886 0.0549243 0)
(0.00774749 0.0581504 0)
(0.00737608 0.0568654 0)
(0.00704599 0.0536627 0)
(0.0076965 0.0600583 0)
(0.00732571 0.0586469 0)
(0.00762203 0.0618467 0)
(0.00723983 0.0602222 0)
(0.00752024 0.0634811 0)
(0.00713126 0.0616761 0)
(0.00739177 0.0649305 0)
(0.00700633 0.0629835 0)
(0.00723686 0.0661721 0)
(0.00673616 0.0597974 0)
(0.0068553 0.064068 0)
(0.00705904 0.0672207 0)
(0.0066859 0.0649786 0)
(0.00686365 0.0681263 0)
(0.00647936 0.0655131 0)
(0.00663698 0.0687505 0)
(0.00624073 0.0657816 0)
(0.00638446 0.069078 0)
(0.00607843 0.0622412 0)
(0.0159384 0.10414 0)
(0.0162102 0.1019 0)
(0.0117158 0.141599 0)
(0.0114747 0.142408 0)
(0.00331518 0.0960078 0)
(0.0033418 0.0927106 0)
(0.00281637 0.0995797 0)
(0.00790387 0.0650368 0)
(0.00370765 0.0953355 0)
(0.00370509 0.0919516 0)
(0.00408132 0.094521 0)
(0.00405252 0.0910718 0)
(0.00368015 0.0883924 0)
(0.00400182 0.0874263 0)
(0.00439289 0.0901306 0)
(0.00432337 0.0864167 0)
(0.0153705 0.116602 0)
(0.0152412 0.119202 0)
(0.00598988 0.0659241 0)
(0.00723692 0.0703013 0)
(0.00907465 -0.00358183 0)
(0.0106814 0.141987 0)
(0.0103245 0.142752 0)
(0.00471905 0.0891285 0)
(0.0159517 0.101056 0)
(0.0162018 0.0986582 0)
(0.00392692 0.0835567 0)
(0.00422868 0.0825293 0)
(0.0111968 0.143199 0)
(0.00983904 0.143436 0)
(0.00908309 0.142995 0)
(0.00846528 0.143636 0)
(0.00925502 0.144116 0)
(0.00770021 0.144219 0)
(0.00704075 0.143769 0)
(0.00616586 0.144288 0)
(0.00681758 0.144764 0)
(0.00513909 0.144734 0)
(0.00458968 0.144269 0)
(0.00351851 0.144682 0)
(0.00403642 0.145191 0)
(0.0021769 0.145041 0)
(0.0020263 0.144515 0)
(0.000583365 0.144815 0)
(0.0141589 0.141571 0)
(0.000682302 0.145344 0)
(-0.000896142 0.145067 0)
(-0.000849918 0.144508 0)
(-0.00229757 0.144697 0)
(-0.00213816 0.144103 0)
(-0.00351753 0.144226 0)
(-0.00376938 0.14483 0)
(0.0109573 0.141183 0)
(0.0149939 0.117674 0)
(0.0156651 0.106143 0)
(0.0148132 0.119957 0)
(0.015951 0.0978488 0)
(0.0161835 0.0953523 0)
(0.0164334 0.0959838 0)
(0.0163974 0.092588 0)
(0.0166425 0.0930428 0)
(0.0165916 0.0895674 0)
(0.016829 0.0898671 0)
(0.0167651 0.0863197 0)
(0.0169948 0.086426 0)
(0.0169187 0.0828405 0)
(0.0171412 0.0827753 0)
(0.0170535 0.0791594 0)
(0.0172705 0.0788763 0)
(0.0171668 0.0752545 0)
(0.0173698 0.074649 0)
(0.0172563 0.0711251 0)
(0.017444 0.0703248 0)
(0.0173273 0.0668368 0)
(0.0175061 0.0658772 0)
(0.0173825 0.0623243 0)
(0.0175542 0.0612161 0)
(0.0174271 0.0577612 0)
(0.0175867 0.0563937 0)
(0.0174456 0.0531258 0)
(0.0175971 0.0514917 0)
(0.0174461 0.0482573 0)
(0.0175918 0.0465064 0)
(0.0174462 0.0433372 0)
(0.0175766 0.0414384 0)
(0.0174305 0.0383944 0)
(0.0175495 0.0363882 0)
(0.0173999 0.0333594 0)
(0.017511 0.0312957 0)
(0.0176581 0.0342626 0)
(0.0176114 0.0291002 0)
(0.0174629 0.0261739 0)
(0.0175547 0.0238988 0)
(0.0174058 0.0210469 0)
(0.0174888 0.0186637 0)
(0.0173403 0.0159021 0)
(0.0174147 0.0133497 0)
(0.0172638 0.0106786 0)
(0.0173321 0.00793523 0)
(0.0171759 0.00541825 0)
(0.0172383 0.00256115 0)
(0.00876904 0.00912443 0)
(0.0170807 0.000179506 0)
(0.0171373 -0.00268621 0)
(0.0172832 -0.000538942 0)
(0.0171816 -0.00565478 0)
(0.0170314 -0.0079027 0)
(0.0170703 -0.0108504 0)
(0.00382632 0.0794262 0)
(0.00409382 0.0783223 0)
(0.0161558 0.0919016 0)
(0.0176312 0.0216024 0)
(0.0169177 -0.0131048 0)
(0.0169492 -0.0161052 0)
(0.0085658 0.0224736 0)
(0.0170728 0.0718041 0)
(0.0193667 0.0923215 0)
(0.0172103 -0.00861448 0)
(0.0167953 -0.0183176 0)
(0.0168256 -0.0213844 0)
(0.00409229 0.0977709 0)
(0.0177181 0.0599551 0)
(0.0145944 0.118519 0)
(0.0143848 0.120819 0)
(0.0166658 -0.0235004 0)
(0.0166969 -0.0266202 0)
(0.0168657 -0.0243154 0)
(0.0167188 -0.0297537 0)
(0.016558 -0.0317684 0)
(0.0165803 -0.0349892 0)
(0.0164129 -0.0368343 0)
(0.0164287 -0.0401922 0)
(0.0162592 -0.0418065 0)
(0.0162694 -0.0452298 0)
(0.0167586 -0.0326359 0)
(0.0160961 -0.0467031 0)
(0.0161033 -0.050131 0)
(0.0162742 -0.0487021 0)
(0.0161067 -0.0535408 0)
(0.0159309 -0.0549069 0)
(0.0159326 -0.0582576 0)
(0.0157507 -0.0595533 0)
(0.0157478 -0.0629872 0)
(0.0155582 -0.064135 0)
(0.0155463 -0.0676832 0)
(0.0153537 -0.068615 0)
(0.0153319 -0.0722085 0)
(0.015139 -0.0729238 0)
(0.00755536 0.0374018 0)
(0.0190935 0.0804354 0)
(0.0166976 0.0826818 0)
(0.00370478 0.0750476 0)
(0.00394598 0.073914 0)
(0.0172522 0.0181068 0)
(0.0149218 0.0378878 0)
(0.00891402 0.108349 0)
(0.00843386 0.108981 0)
(0.00855929 0.106647 0)
(0.015751 -0.066748 0)
(0.00867389 -0.0184838 0)
(0.0155694 -0.0606755 0)
(0.0151718 0.0113781 0)
(0.0140155 -0.0493744 0)
(0.0148388 -0.0192836 0)
(0.0172459 0.0585063 0)
(0.017297 0.0448981 0)
(0.0122115 0.0905554 0)
(0.00923188 0.0431455 0)
(0.00954725 0.119722 0)
(0.0141756 0.119201 0)
(0.0139247 0.121427 0)
(0.016276 -0.0521093 0)
(0.00434422 0.0770928 0)
(0.00416636 0.0726458 0)
(0.0175592 0.0736136 0)
(0.00809127 0.10713 0)
(0.0082136 0.104783 0)
(0.00344705 0.0760828 0)
(0.003332 0.0714664 0)
(0.00308382 0.0724219 0)
(0.0137488 0.119657 0)
(0.0140033 0.117519 0)
(0.0166306 -0.0203733 0)
(0.0170157 0.00297513 0)
(0.0134602 0.121725 0)
(0.0136115 0.123569 0)
(0.0172239 0.0864347 0)
(0.0029697 0.0675277 0)
(0.00272968 0.0684152 0)
(0.0132169 0.0894406 0)
(0.00100141 0.122357 0)
(0.00115762 0.120685 0)
(0.00160161 0.121922 0)
(0.00172288 0.120202 0)
(0.00221053 0.121404 0)
(0.00229162 0.119597 0)
(0.00280863 0.12079 0)
(0.00284209 0.11886 0)
(0.00233624 0.117643 0)
(0.01331 0.119969 0)
(0.0171331 -0.0603845 0)
(0.00456689 0.0756963 0)
(0.00436472 0.071263 0)
(0.0160851 -0.0432907 0)
(0.0077648 0.105119 0)
(0.00788131 0.102759 0)
(0.00761714 0.107388 0)
(0.016457 0.106533 0)
(0.0166563 -0.0980342 0)
(0.0166765 -0.0962579 0)
(0.0167127 -0.0953676 0)
(0.0167343 -0.0936396 0)
(0.0167679 -0.0927203 0)
(0.0167901 -0.0910131 0)
(0.0168227 -0.0900522 0)
(0.0168453 -0.0883539 0)
(0.0168776 -0.0873247 0)
(0.0169004 -0.0856596 0)
(0.0168676 -0.0866342 0)
(0.0169234 -0.0839469 0)
(0.0169543 -0.0829897 0)
(0.0169781 -0.0812786 0)
(0.0170072 -0.0803451 0)
(0.0170321 -0.0786167 0)
(0.0170596 -0.0777027 0)
(0.0170852 -0.0759664 0)
(0.0171116 -0.0750572 0)
(0.0171379 -0.073317 0)
(0.0171634 -0.0724022 0)
(0.0171897 -0.0706796 0)
(0.0172147 -0.0697457 0)
(0.0172415 -0.0680282 0)
(0.0172151 -0.0689722 0)
(0.0172677 -0.0663054 0)
(0.0172937 -0.0653377 0)
(0.0173202 -0.0636251 0)
(0.0173453 -0.0626699 0)
(0.0173721 -0.0609597 0)
(0.0173961 -0.06003 0)
(0.0174239 -0.0582862 0)
(0.017399 -0.0592118 0)
(0.0174519 -0.0565014 0)
(0.0174764 -0.0555692 0)
(0.0175046 -0.0537923 0)
(0.0175283 -0.0528674 0)
(0.0175564 -0.0511195 0)
(0.0175793 -0.0502079 0)
(0.0176077 -0.0484583 0)
(0.0176301 -0.0475517 0)
(0.017659 -0.0457868 0)
(0.017681 -0.0448775 0)
(0.0177105 -0.0430961 0)
(0.0176875 -0.0440124 0)
(0.0177394 -0.0413112 0)
(0.0177625 -0.0403678 0)
(0.0177908 -0.0386309 0)
(0.0178135 -0.0376758 0)
(0.0178417 -0.0359709 0)
(0.0178626 -0.0350884 0)
(0.0178923 -0.0333153 0)
(0.017913 -0.032437 0)
(0.0179428 -0.0306553 0)
(0.0179643 -0.0297113 0)
(0.0179936 -0.0279748 0)
(0.0179718 -0.0288903 0)
(0.0180231 -0.0261976 0)
(0.0180443 -0.0252949 0)
(0.0180741 -0.0235131 0)
(0.0180949 -0.0226171 0)
(0.0181239 -0.0208918 0)
(0.0181448 -0.0199623 0)
(0.0181727 -0.0183079 0)
(0.0181072 -0.0215465 0)
(0.0181936 -0.0173696 0)
(0.0182216 -0.0157077 0)
(0.0182426 -0.0147705 0)
(0.0182713 -0.0130703 0)
(0.0182911 -0.0121889 0)
(0.0183204 -0.0104656 0)
(0.0182992 -0.0113864 0)
(0.0183497 -0.00871113 0)
(0.0183661 -0.00802589 0)
(0.0183968 -0.00621299 0)
(0.0183798 -0.00688751 0)
(0.01843 -0.00423652 0)
(0.0184449 -0.00370381 0)
(0.018481 -0.00154607 0)
(0.0185009 -0.000708166 0)
(0.0185321 0.00116471 0)
(0.0185508 0.00195248 0)
(0.0185821 0.00382038 0)
(0.0186002 0.00457195 0)
(0.0186325 0.00649318 0)
(0.0186126 0.00567243 0)
(0.0186636 0.00837414 0)
(0.018683 0.00918259 0)
(0.0187143 0.0110661 0)
(0.0187331 0.0118459 0)
(0.0187648 0.0137488 0)
(0.0187449 0.0129576 0)
(0.0187967 0.0156955 0)
(0.0188153 0.0164236 0)
(0.0188479 0.0184075 0)
(0.0188667 0.0191556 0)
(0.018899 0.0211126 0)
(0.0188285 0.017693 0)
(0.018919 0.0219381 0)
(0.0189498 0.0238125 0)
(0.0189701 0.0246617 0)
(0.0190002 0.0264926 0)
(0.0190204 0.0273391 0)
(0.0190506 0.0291729 0)
(0.0190305 0.0283831 0)
(0.019081 0.031063 0)
(0.0191006 0.0318348 0)
(0.0191314 0.0337432 0)
(0.0191503 0.0344829 0)
(0.0191819 0.0364303 0)
(0.0191618 0.0356765 0)
(0.0192137 0.0384488 0)
(0.0192325 0.0391262 0)
(0.0192656 0.0412023 0)
(0.0192832 0.041835 0)
(0.0193153 0.0438258 0)
(0.0193336 0.0445265 0)
(0.0193644 0.0464605 0)
(0.0193835 0.0472056 0)
(0.0194152 0.0492021 0)
(0.0193913 0.0483118 0)
(0.0194461 0.0512092 0)
(0.0194662 0.0519249 0)
(0.0194968 0.0539149 0)
(0.0194754 0.0532023 0)