/*--------------------------------*- C++ -*----------------------------------*\
| =========                 |                                                 |
| \\      /  F ield         | OpenFOAM: The Open Source CFD Toolbox           |
|  \\    /   O peration     | Version:  v2012                                 |
|   \\  /    A nd           | Website:  www.openfoam.com                      |
|    \\/     M anipulation  |                                                 |
\*---------------------------------------------------------------------------*/
FoamFile
{
    version     2.0;
    format      ascii;
    class       volVectorField;
    location    "450";
    object      cellDisplacement;
}
// * * * * * * * * * * * * * * * * * * * * * * * * * * * * * * * * * * * * * //

dimensions      [0 1 0 0 0 0 0];


internalField   nonuniform List<vector> 
13851
(
(-0.00111946 0.0256173 0)
(-0.000151204 0.0340811 0)
(-0.00318638 0.0362215 0)
(-0.00107311 0.0250952 0)
(-0.00412257 0.0352533 0)
(-0.000394452 0.0263908 0)
(-0.0029369 0.00975294 0)
(-0.00340079 0.0338566 0)
(-0.000170835 0.00903591 0)
(-0.0022728 0.036225 0)
(1.70948e-05 0.00436571 0)
(-0.000627463 0.0375718 0)
(-0.00454375 0.0388622 0)
(0.000923289 0.0401908 0)
(-0.000681098 0.00284247 0)
(-0.00268855 0.0323477 0)
(-0.00329788 0.0271118 0)
(-0.00152643 0.0298353 0)
(-0.0041955 0.0385779 0)
(-0.00017524 0.00894175 0)
(-0.00109036 0.0248538 0)
(-0.00328744 0.0361362 0)
(-9.0635e-07 0.000354115 0)
(-2.58503e-05 0.00119668 0)
(-6.88573e-07 0.000260313 0)
(-0.00333138 0.0340399 0)
(-0.00382596 0.0218004 0)
(0.00372728 0.0408938 0)
(-0.00115914 0.025543 0)
(-0.00209723 0.0283797 0)
(-0.000354155 0.0263018 0)
(-0.00331502 0.0274698 0)
(-0.0031401 0.0360824 0)
(4.25501e-05 0.0147536 0)
(-3.23443e-05 0.00146234 0)
(-0.00513545 0.0279656 0)
(-0.00519732 0.0287801 0)
(-0.00334714 0.0381892 0)
(-0.00222263 0.0364042 0)
(3.83808e-05 0.0145568 0)
(-0.00126336 0.0193154 0)
(4.00062e-08 0.000901868 0)
(-0.00396006 0.0408828 0)
(1.99677e-05 0.00460477 0)
(2.03135e-05 0.00450994 0)
(-0.00284212 0.0406458 0)
(2.32212e-05 0.0047217 0)
(-1.81752e-05 0.0228521 0)
(-0.00385997 0.0219753 0)
(-2.66699e-05 0.0128055 0)
(-0.00464609 0.0318129 0)
(-0.00469631 0.0354515 0)
(0.000668402 0.0409255 0)
(-0.000464369 0.00217009 0)
(-0.000216284 0.00274108 0)
(9.9724e-08 0.000893883 0)
(-1.22709e-05 0.0012078 0)
(0.0017119 0.0408946 0)
(-0.00208714 0.0280821 0)
(-0.00296846 0.0129434 0)
(-0.00324249 0.0382275 0)
(-0.00258017 0.0399635 0)
(-0.000893829 0.0307144 0)
(-0.00423569 0.0356862 0)
(-0.000893609 0.0340393 0)
(-0.00097416 0.0261723 0)
(-0.00520554 0.028831 0)
(2.5157e-05 0.00489543 0)
(-0.00421501 0.0273736 0)
(-0.00148776 0.0296984 0)
(-0.00526185 0.0290154 0)
(-0.00521956 0.0276802 0)
(-7.37604e-05 0.034133 0)
(-0.000480761 0.0021413 0)
(-0.00032648 0.00455601 0)
(-0.000193974 0.0113747 0)
(-0.00333704 0.0359366 0)
(-0.00530839 0.0384721 0)
(-0.00404274 0.0323332 0)
(-0.00525225 0.0271306 0)
(-0.0031321 0.0169152 0)
(1.85795e-06 0.000388161 0)
(-0.00189318 0.0129509 0)
(-0.00328194 0.0407218 0)
(-0.000905931 0.0309349 0)
(-0.000700179 0.0374741 0)
(-0.00044643 0.0257742 0)
(-0.000632315 0.0356116 0)
(-0.00364904 0.0257878 0)
(-1.53309e-05 0.00602638 0)
(-0.00512423 0.0282913 0)
(-0.000315692 0.0220114 0)
(2.58388e-05 0.00502516 0)
(-0.00379119 0.0271447 0)
(-0.00367723 0.0252476 0)
(-1.03423e-05 0.000880579 0)
(-0.00417915 0.0353088 0)
(-0.00445508 0.0401103 0)
(-2.07377e-05 0.0127753 0)
(-7.83024e-06 0.00068213 0)
(0.00121731 0.0405818 0)
(-0.00432474 0.0312804 0)
(-0.00155363 0.0248153 0)
(-0.00410832 0.015553 0)
(-1.65004e-08 6.59947e-05 0)
(-0.000395542 0.0251791 0)
(-0.00444657 0.0313095 0)
(3.46429e-08 0.000471049 0)
(-0.00522994 0.0270756 0)
(-0.000404197 0.0266429 0)
(-1.31799e-05 0.000809283 0)
(-1.48776e-05 0.00617352 0)
(-0.000334864 0.0219167 0)
(-6.81548e-06 0.000322064 0)
(-1.70794e-05 0.00102281 0)
(9.89666e-05 0.0279347 0)
(-0.00445297 0.0399989 0)
(-1.56328e-07 0.000589088 0)
(-6.63456e-05 0.0015745 0)
(-0.000158746 0.00219972 0)
(-0.0037189 0.0408859 0)
(-0.0040743 0.0159978 0)
(-0.00448461 0.0390344 0)
(0.000100739 0.0217104 0)
(-4.48858e-05 0.0227616 0)
(4.2821e-06 0.00365463 0)
(-4.56558e-05 0.0225037 0)
(-0.00418239 0.0319203 0)
(-0.00105748 0.0245437 0)
(-0.00398529 0.0373504 0)
(-0.00124852 0.0188915 0)
(-0.000250127 0.00755483 0)
(-0.00526285 0.0291803 0)
(-0.00187254 0.0124093 0)
(0.000112784 0.027744 0)
(-0.000122298 0.00340648 0)
(-1.66064e-07 0.000541732 0)
(-0.00521778 0.0284751 0)
(-0.000611484 0.0398457 0)
(0.000567199 0.0392229 0)
(0.00102848 0.0406168 0)
(-0.000190927 0.00248956 0)
(-0.000183864 0.0151442 0)
(8.50668e-07 0.0019848 0)
(-0.00291775 0.0259669 0)
(2.06838e-05 0.00474428 0)
(7.00075e-07 0.000250745 0)
(-0.003908 0.0374565 0)
(-0.00287609 0.00969778 0)
(1.95644e-05 0.00437234 0)
(-0.00496218 0.0251045 0)
(-0.000180087 0.00263033 0)
(0.00105722 0.0402383 0)
(-1.14546e-05 0.00116644 0)
(-0.00340238 0.0221557 0)
(-0.00286936 0.0259687 0)
(-0.000563345 0.0147972 0)
(-0.00227041 0.026979 0)
(-0.00466455 0.0357396 0)
(-0.00460197 0.0320184 0)
(1.57003e-07 0.000185161 0)
(-0.00408597 0.024317 0)
(0.0015849 0.0409056 0)
(-0.00023554 0.007313 0)
(-0.00214763 0.0306804 0)
(2.41245e-07 0.00157 0)
(9.16608e-07 0.000317313 0)
(-0.00426187 0.0271883 0)
(-0.00107102 0.0242916 0)
(-0.00390274 0.0404549 0)
(-0.00530868 0.0382497 0)
(-5.94443e-05 0.00429944 0)
(-0.000587923 0.015045 0)
(0.000521074 0.0393213 0)
(-0.00021913 0.00678733 0)
(-1.64857e-05 0.0231035 0)
(-0.00414071 0.0318888 0)
(-0.000226662 0.0160409 0)
(-0.00427468 0.0386401 0)
(9.85688e-08 0.000480259 0)
(-0.00328126 0.0282957 0)
(-0.00522226 0.0281113 0)
(-0.00181487 0.0112729 0)
(-0.00331619 0.0363013 0)
(-9.04174e-10 5.72607e-05 0)
(-3.16642e-06 0.000579989 0)
(-0.00100152 0.026393 0)
(-0.000220414 0.00303196 0)
(-0.00399861 0.036115 0)
(-0.00170857 0.0353591 0)
(2.39875e-05 0.00485579 0)
(0.000779103 0.0409233 0)
(-1.23094e-05 0.00632572 0)
(-0.00406527 0.0288086 0)
(-0.00258464 0.0398753 0)
(-0.00332173 0.0222574 0)
(-0.000189569 0.0149234 0)
(3.78047e-05 0.0137184 0)
(-0.000222529 0.0157787 0)
(-0.000201762 0.0116319 0)
(4.26226e-06 0.00376737 0)
(-0.00280374 0.0404803 0)
(-4.31078e-05 0.000879026 0)
(-0.00151856 0.0147703 0)
(-0.00205492 0.0352646 0)
(-0.00189324 0.0117141 0)
(-0.00116572 0.039186 0)
(-0.00342824 0.0266391 0)
(-0.00528683 0.0340127 0)
(1.51136e-07 0.000302814 0)
(-0.00525313 0.0337978 0)
(-0.00155388 0.0244457 0)
(5.86244e-05 0.0136704 0)
(6.31887e-08 0.000305896 0)
(6.97853e-07 0.00172069 0)
(1.41408e-05 0.00401336 0)
(-0.000991714 0.0311752 0)
(-0.00257242 0.0406775 0)
(-0.00113742 0.00559786 0)
(-0.00528708 0.0343121 0)
(-0.00341531 0.0270762 0)
(-0.0031795 0.017136 0)
(-0.00503138 0.0389965 0)
(-0.00440295 0.0365532 0)
(-0.00526254 0.0311293 0)
(-1.55123e-06 0.000354638 0)
(-0.00383129 0.0283242 0)
(-1.65253e-08 5.52178e-05 0)
(-0.000242458 0.0409039 0)
(7.18353e-08 0.000283194 0)
(-0.00327355 0.0339156 0)
(-0.000721546 0.0329752 0)
(-5.51503e-05 0.00399987 0)
(-1.27937e-05 0.00618524 0)
(-0.00466777 0.0302914 0)
(-0.00137637 0.0319951 0)
(-0.00132164 0.039176 0)
(-0.000839613 0.034181 0)
(8.86042e-07 0.00189758 0)
(-0.00156441 0.0149216 0)
(-0.000346603 0.0260443 0)
(7.12486e-06 0.0121587 0)
(4.09438e-07 0.000265802 0)
(-0.0019977 0.0354428 0)
(-2.38448e-08 9.73493e-05 0)
(-0.00527117 0.0322327 0)
(-0.00429887 0.0317389 0)
(5.87412e-05 0.0142677 0)
(-0.00278042 0.0264343 0)
(-0.00288954 0.029167 0)
(-0.000247002 0.0191762 0)
(1.15369e-05 0.0120862 0)
(-0.00272725 0.0214099 0)
(-0.00283054 0.0264382 0)
(-0.00461095 0.0285682 0)
(-0.000439293 0.0299552 0)
(-0.00170477 0.035174 0)
(-0.00522029 0.0288785 0)
(-0.00525631 0.0407409 0)
(-0.00186644 0.00695516 0)
(6.75573e-07 0.00180587 0)
(-0.00147367 0.0292138 0)
(-0.000127831 0.0268144 0)
(5.68804e-07 0.00325 0)
(-0.0039606 0.0390023 0)
(-0.00328344 0.0225579 0)
(-0.00273361 0.020979 0)
(-0.00379142 0.0267312 0)
(-0.00500872 0.0388545 0)
(6.72172e-06 0.00664759 0)
(-0.000235985 0.0189853 0)
(-0.00336472 0.0225051 0)
(-0.000260225 0.0268597 0)
(-0.00403577 0.0319623 0)
(-0.00264503 0.0321952 0)
(-0.000266008 0.00806178 0)
(1.43866e-06 0.000295625 0)
(9.29704e-06 0.00347547 0)
(-0.00524821 0.0277059 0)
(1.64167e-05 0.0042358 0)
(3.0941e-07 0.000194058 0)
(8.29537e-08 0.000192284 0)
(-9.48228e-09 5.37561e-05 0)
(-0.00459566 0.0282406 0)
(-0.00010413 0.0266489 0)
(8.44598e-06 0.0234425 0)
(-0.00020281 0.0106117 0)
(-0.00118861 0.00338534 0)
(-0.00023859 0.026685 0)
(6.62817e-07 0.000144475 0)
(-0.00388595 0.0377013 0)
(-0.00213799 0.0277956 0)
(-0.00298431 0.0134992 0)
(-0.00418179 0.0288748 0)
(1.2311e-06 0.000268986 0)
(-0.00406821 0.0389229 0)
(-0.00229118 0.0304346 0)
(-0.000660533 0.0373391 0)
(-0.000295898 0.00881474 0)
(-0.0052702 0.0324954 0)
(-0.00407738 0.0239223 0)
(-0.00323422 0.0272568 0)
(-0.00525131 0.0285922 0)
(-0.00181816 0.0222863 0)
(-0.000400978 0.0254413 0)
(-0.00523076 0.0374644 0)
(-0.0002001 0.0102891 0)
(-0.00447756 0.0280302 0)
(-0.00375119 0.0275803 0)
(-0.00212449 0.027485 0)
(-0.000849323 0.0398426 0)
(-0.00225988 0.0306479 0)
(-0.00260101 0.021612 0)
(-0.00487903 0.0395957 0)
(6.07016e-08 0.00110747 0)
(-0.00291375 0.0293944 0)
(4.96211e-06 0.003991 0)
(-0.00524612 0.0277043 0)
(-0.0050627 0.0278134 0)
(-0.00124641 0.00611595 0)
(-0.00445442 0.0304878 0)
(-0.00127426 0.00514409 0)
(-0.00523881 0.0406926 0)
(-0.000229848 0.0196044 0)
(-1.43641e-06 0.00043974 0)
(-0.000576613 0.0172445 0)
(-0.00504516 0.0282381 0)
(-0.00382222 0.0278933 0)
(-0.00345916 0.0213499 0)
(-0.00111329 0.00298423 0)
(-0.00182458 0.0219513 0)
(-0.00255723 0.0215625 0)
(1.81374e-05 0.00441138 0)
(0.00188166 0.0403495 0)
(-0.00357883 0.0403267 0)
(-0.00121335 0.0296477 0)
(-0.00524854 0.0284938 0)
(-0.00267648 0.0392101 0)
(-0.000638423 0.00280549 0)
(-0.0040378 0.0293075 0)
(-0.00380224 0.0378109 0)
(-0.000324711 0.0225112 0)
(-0.00116199 0.0323723 0)
(-0.00474033 0.0343694 0)
(-0.00410062 0.0387111 0)
(-0.000366342 0.0204254 0)
(2.25953e-06 0.0266207 0)
(-0.00526527 0.0355252 0)
(-0.000585701 0.00233594 0)
(1.09548e-05 0.00495872 0)
(1.13523e-05 0.00487305 0)
(-0.0023181 0.038153 0)
(-0.00348394 0.0209062 0)
(-0.00111188 0.0324946 0)
(-2.89436e-05 0.0409008 0)
(-0.000601842 0.0154793 0)
(2.64429e-05 0.0264549 0)
(-0.000558464 0.0170769 0)
(-0.00118906 0.00468254 0)
(-2.06352e-08 0.000103927 0)
(5.53888e-08 0.000455993 0)
(-0.000545973 0.0136738 0)
(-0.00525733 0.0354161 0)
(3.23025e-05 0.00890665 0)
(-0.00185338 0.017574 0)
(-0.00445852 0.0276585 0)
(2.96768e-07 0.00124107 0)
(-0.000564945 0.0372992 0)
(-0.00233492 0.0332602 0)
(8.08352e-05 0.0234336 0)
(-0.00384257 0.0403924 0)
(-0.00185146 0.0179747 0)
(-0.000956692 0.0313378 0)
(-0.00365036 0.0282275 0)
(5.85207e-05 0.0233388 0)
(-0.00114241 0.0179085 0)
(-1.75748e-07 0.00064309 0)
(-0.000291459 0.020476 0)
(0.00175051 0.0405879 0)
(-0.000265748 0.00373859 0)
(-0.000945174 0.0397529 0)
(-0.000310362 0.0223135 0)
(-0.00476572 0.0345573 0)
(-0.00375415 0.04052 0)
(1.4627e-05 0.00485934 0)
(1.44323e-05 0.00495848 0)
(-0.000215368 0.0178289 0)
(-0.000318545 0.00819544 0)
(-0.000341034 0.00130093 0)
(-0.00124814 0.0293957 0)
(-0.00448422 0.030067 0)
(0.00104647 0.0401155 0)
(-0.00433118 0.0263801 0)
(-0.00525909 0.0311223 0)
(-0.00524677 0.0368261 0)
(2.61927e-07 0.00130549 0)
(-0.00195188 0.00716155 0)
(-0.00363431 0.0403946 0)
(-0.00525891 0.0285217 0)
(-0.000722778 0.0327971 0)
(-0.00456257 0.0399067 0)
(-0.00027401 0.0205061 0)
(-0.00366722 0.0285475 0)
(-4.69707e-06 0.000556165 0)
(-0.00277009 0.039109 0)
(-0.00010415 0.00661094 0)
(-0.00275286 0.0322184 0)
(-0.000224642 0.0176955 0)
(-0.00270961 0.0114147 0)
(-9.99213e-09 4.647e-05 0)
(-0.000189515 0.00999234 0)
(2.87725e-07 0.00149669 0)
(-0.00428463 0.0354141 0)
(-0.0013289 0.0326328 0)
(-0.00509446 0.040645 0)
(-0.00139045 0.0295842 0)
(-0.0044725 0.0308485 0)
(-0.000656116 0.0266022 0)
(1.13647e-05 0.0118551 0)
(-0.00278573 0.0299706 0)
(-0.0021996 0.0381502 0)
(-0.00321453 0.0269392 0)
(1.36239e-05 0.00388181 0)
(-1.32186e-07 0.000486728 0)
(-0.000185984 0.00967431 0)
(-2.51426e-06 0.000445972 0)
(-0.00305255 0.0384549 0)
(5.48534e-05 0.0122847 0)
(-0.00428163 0.0367299 0)
(-0.000689932 0.0266748 0)
(-0.00513584 0.0407113 0)
(3.98706e-05 0.0149401 0)
(-0.000437874 0.0255158 0)
(-0.00013772 0.00196874 0)
(-0.00470311 0.0299551 0)
(-0.00112225 0.0174426 0)
(1.55479e-05 0.0117834 0)
(-5.70289e-08 0.000125824 0)
(-0.00177561 0.0380167 0)
(3.49194e-05 0.0116094 0)
(-0.00302883 0.0358166 0)
(-0.00529311 0.035317 0)
(-0.000208241 0.015718 0)
(8.84044e-06 0.0031497 0)
(3.97505e-05 0.0117101 0)
(0.00226433 0.0405392 0)
(-7.96162e-12 7.97962e-05 0)
(-0.00369284 0.0292625 0)
(-0.00409209 0.0323176 0)
(8.12817e-06 0.00660213 0)
(-8.81749e-05 0.00551358 0)
(-0.00249109 0.021987 0)
(-0.00494457 0.0248825 0)
(-0.00469891 0.0351426 0)
(-0.00129152 0.0303221 0)
(1.86028e-05 0.0370911 0)
(-2.07821e-06 0.00045837 0)
(-0.000584614 0.0176868 0)
(-0.0031708 0.0408702 0)
(-0.00207775 0.030871 0)
(6.68523e-08 0.000174431 0)
(-0.000533878 0.0356302 0)
(-0.000302319 0.00792751 0)
(-0.00108754 0.0254307 0)
(-0.000127349 0.00684871 0)
(-0.00178355 0.0328141 0)
(-0.00219053 0.0262598 0)
(1.2025e-07 0.000273289 0)
(-0.000202922 0.0154645 0)
(-0.00481591 0.0395583 0)
(-0.00196148 0.0134455 0)
(-0.00432832 0.0274118 0)
(-0.000138802 0.00378398 0)
(-0.0005167 0.0239078 0)
(1.10648e-05 0.00352019 0)
(-6.88889e-06 0.000294013 0)
(-0.00101667 0.0188074 0)
(-1.30014e-05 0.000599622 0)
(-1.14792e-05 0.000559775 0)
(-4.16152e-05 0.0235247 0)
(-0.00278891 0.0203581 0)
(-0.000416226 0.0259581 0)
(-0.00178588 0.0107158 0)
(-5.99142e-06 0.000728643 0)
(0.000588562 0.0404747 0)
(-0.00529291 0.0350606 0)
(-0.00201616 0.0119634 0)
(-0.000490259 0.0238954 0)
(-0.00284084 0.0300266 0)
(6.808e-06 0.0124121 0)
(-0.00305291 0.0407079 0)
(-0.000603528 0.0178361 0)
(3.16619e-05 0.00872833 0)
(-0.00118654 0.018173 0)
(-0.00388098 0.0357302 0)
(-0.00280457 0.0128522 0)
(-0.00124001 0.0408609 0)
(-1.00639e-07 0.000341879 0)
(0.000361028 0.0409141 0)
(-0.00161147 0.0349589 0)
(2.40785e-08 0.000970445 0)
(-0.000471603 0.0236085 0)
(-0.00436149 0.0403685 0)
(-0.00320169 0.0341308 0)
(2.8872e-05 0.00599897 0)
(-8.51298e-05 0.0019756 0)
(4.29193e-05 0.0211247 0)
(-0.000170584 0.00211228 0)
(-0.000175314 0.00618978 0)
(-0.000280401 0.00881573 0)
(-0.00273911 0.00944195 0)
(-0.0052594 0.0285861 0)
(-0.00453639 0.031831 0)
(-0.00491976 0.0330583 0)
(-0.00465846 0.0380479 0)
(-0.000972292 0.0309615 0)
(2.20442e-07 0.000237387 0)
(-0.00392084 0.0394552 0)
(4.87365e-05 0.0122418 0)
(-0.00333695 0.0282123 0)
(-0.0040616 0.0248449 0)
(1.59652e-06 0.0124527 0)
(7.72725e-05 0.0216677 0)
(-0.00524539 0.0336557 0)
(-0.000312808 0.00163023 0)
(-0.00112047 0.0408495 0)
(-0.00307628 0.0406596 0)
(-0.00259424 0.0405206 0)
(-0.00220019 0.030786 0)
(-0.000447128 0.0236109 0)
(9.46047e-05 0.0224433 0)
(9.21669e-06 0.00327648 0)
(-0.000432485 0.0297192 0)
(4.53291e-05 0.0137862 0)
(-0.00164817 0.0382566 0)
(-0.00222641 0.0272656 0)
(-0.00166397 0.0383738 0)
(-0.00520413 0.0326229 0)
(-1.02851e-07 0.000387677 0)
(8.92535e-06 0.00334578 0)
(-0.0045818 0.0316506 0)
(-0.00529577 0.0354112 0)
(-0.0027417 0.0268498 0)
(-0.00133413 0.0112895 0)
(-0.000550088 0.014354 0)
(-0.00141421 0.0175461 0)
(-0.00406073 0.0358614 0)
(-0.0015491 0.0321301 0)
(-0.000673194 0.0354572 0)
(-2.29629e-05 0.036985 0)
(-8.42892e-05 0.00315255 0)
(-0.00339546 0.0408755 0)
(-0.00529774 0.0380684 0)
(-0.000307232 0.02516 0)
(4.677e-05 0.0120259 0)
(-0.0042834 0.0276145 0)
(4.29972e-08 0.000142091 0)
(-0.000175913 0.00939757 0)
(1.26615e-06 0.00037328 0)
(-0.0039773 0.0395497 0)
(-0.00344038 0.0222274 0)
(-0.00498129 0.0274568 0)
(-0.00510544 0.0298819 0)
(1.05401e-07 0.000823321 0)
(-0.000590444 0.0267557 0)
(3.52861e-05 0.0218085 0)
(-0.00243319 0.0380027 0)
(-0.00461164 0.0351446 0)
(-0.00526085 0.0288424 0)
(-0.00521223 0.0318201 0)
(-0.00120388 0.0186238 0)
(-0.002752 0.0110564 0)
(-0.000196802 0.0355916 0)
(-0.00524652 0.0371491 0)
(-0.0050329 0.0299819 0)
(-0.00435664 0.0258473 0)
(-0.000828538 0.0306757 0)
(7.74987e-08 0.00050264 0)
(-0.00102111 0.01262 0)
(-0.00179041 0.0381441 0)
(5.94349e-08 0.000759192 0)
(-0.00269108 0.0268254 0)
(9.08426e-08 0.000413073 0)
(-0.000270998 0.00617732 0)
(-0.00520649 0.0329731 0)
(-0.00417739 0.0356488 0)
(-0.000723334 0.0264444 0)
(6.84802e-08 0.000697647 0)
(-0.00116072 0.0397313 0)
(3.60459e-05 0.0134989 0)
(-0.000326889 0.00909017 0)
(-9.60435e-06 0.00118659 0)
(4.50437e-07 0.00337527 0)
(-0.000423869 0.00170343 0)
(0.00177072 0.040624 0)
(5.55852e-05 0.0140597 0)
(6.11423e-05 0.0138907 0)
(-0.00232511 0.0405058 0)
(5.98636e-05 0.0209283 0)
(-0.0043311 0.0250816 0)
(-0.00529649 0.0354522 0)
(-0.00528797 0.0340057 0)
(-0.000359024 0.0206456 0)
(-0.00418768 0.0279464 0)
(3.3891e-08 0.000107253 0)
(5.01303e-06 0.00387219 0)
(-0.0028881 0.0326077 0)
(-0.00465915 0.0394915 0)
(-3.61109e-05 0.026559 0)
(-0.00495996 0.0278274 0)
(-0.00344658 0.0296813 0)
(-0.00015974 0.00830797 0)
(-0.00252115 0.0322965 0)
(-0.000147479 0.0140382 0)
(2.8525e-05 0.00609994 0)
(-0.00449494 0.0331275 0)
(-0.00170473 0.0102687 0)
(-0.00123841 0.0298739 0)
(-8.86534e-05 0.00538831 0)
(-0.00385526 0.0258976 0)
(-0.00422066 0.0369568 0)
(-0.0029105 0.0127567 0)
(-0.00108049 0.0171927 0)
(-0.00239124 0.0333646 0)
(-0.00267989 0.0165067 0)
(-0.00406151 0.0355381 0)
(-0.00300356 0.0383239 0)
(-0.00441263 0.0362983 0)
(-0.00239552 0.0323878 0)
(-0.00505351 0.0296337 0)
(-0.000154806 0.00797703 0)
(-0.000786376 0.0324989 0)
(-0.000244364 0.0194682 0)
(-0.00213498 0.0405449 0)
(-0.0015949 0.0242419 0)
(-1.16936e-05 0.000897124 0)
(-0.00522797 0.0274096 0)
(-0.00178053 0.0274887 0)
(-0.00381311 0.0405657 0)
(-0.00527309 0.0346567 0)
(-0.00222257 0.0407436 0)
(-0.000483461 0.0355096 0)
(-0.000105608 0.00649914 0)
(-0.00522258 0.0273275 0)
(3.45571e-07 0.000201175 0)
(-0.000292467 0.00697324 0)
(-7.94947e-08 0.00030097 0)
(-0.000299857 0.00681143 0)
(2.80872e-07 0.000117064 0)
(-0.0013328 0.0296049 0)
(-0.00181256 0.0325578 0)
(3.9759e-08 0.000640916 0)
(-0.00219195 0.0390188 0)
(-0.00161378 0.0351428 0)
(-0.00219832 0.0391237 0)
(-0.000466135 0.013282 0)
(-3.74337e-08 0.000195735 0)
(-1.14531e-06 0.000485482 0)
(-0.00372069 0.0377287 0)
(-0.00238761 0.039754 0)
(-0.00474052 0.0264663 0)
(-0.00384676 0.0263221 0)
(4.69548e-07 0.000263812 0)
(-6.01132e-06 0.000684052 0)
(-6.06781e-05 0.00223293 0)
(-0.000556441 0.0155739 0)
(-0.00505392 0.0346843 0)
(-6.48918e-05 0.0382597 0)
(-0.00263847 0.0162464 0)
(4.96285e-08 0.000584498 0)
(-0.00277545 0.00899617 0)
(-0.000564727 0.0153938 0)
(-0.0018711 0.0377547 0)
(0.00128374 0.0409197 0)
(-0.00256942 0.0324098 0)
(-0.00424038 0.0401999 0)
(4.82733e-05 0.0213707 0)
(-0.0010592 0.0167252 0)
(-0.00488414 0.0333209 0)
(0.00202519 0.0405387 0)
(-0.00420902 0.0283414 0)
(-0.000660871 0.0376922 0)
(-0.0030866 0.017289 0)
(-0.00150954 0.0293945 0)
(-0.00471273 0.0266035 0)
(-0.00141826 0.0292922 0)
(5.10598e-05 0.0136182 0)
(-0.0019422 0.0115696 0)
(8.96654e-05 0.0221855 0)
(-4.38553e-08 0.0001059 0)
(-0.00450774 0.0198278 0)
(-0.00529087 0.0352658 0)
(-0.000159384 0.0113236 0)
(-0.00169071 0.0265236 0)
(-0.000816774 0.0304509 0)
(-0.000188821 0.00668781 0)
(-0.00326757 0.0279393 0)
(-0.000192629 0.0266718 0)
(0.000687247 0.0396381 0)
(-0.00444671 0.0332398 0)
(-0.00389545 0.0388934 0)
(1.56864e-05 0.0048511 0)
(6.92192e-08 0.000370584 0)
(-0.00045381 0.0128124 0)
(0.000269463 0.0404864 0)
(-0.00510099 0.0295567 0)
(-0.00133843 0.0322157 0)
(-0.00526922 0.0349083 0)
(-9.46366e-05 0.00757461 0)
(-0.00016505 0.000484371 0)
(-1.32807e-07 0.000435828 0)
(5.40329e-05 0.0206812 0)
(-0.0051915 0.0311983 0)
(-0.00232929 0.0296109 0)
(-0.00122477 0.0229256 0)
(1.15004e-05 0.00364845 0)
(-0.00371684 0.0233312 0)
(-1.13308e-06 0.000504961 0)
(-0.00384307 0.0408526 0)
(-0.000403906 0.0301043 0)
(-0.00522396 0.0394776 0)
(8.31417e-08 0.00103967 0)
(-0.00264372 0.0157235 0)
(-0.00530093 0.0365801 0)
(0.00240796 0.0409195 0)
(-0.0051104 0.0282731 0)
(-0.000151955 0.0138297 0)
(-0.00523394 0.0312135 0)
(-0.00192463 0.0123062 0)
(1.27658e-05 0.00383061 0)
(-0.00287467 0.0375054 0)
(-0.00298321 0.0360617 0)
(-0.00291971 0.0284807 0)
(-0.00252493 0.0407216 0)
(-0.000225108 0.018293 0)
(-0.000106045 0.0132293 0)
(-0.00518967 0.0292081 0)
(-1.32454e-05 0.000984042 0)
(-2.4377e-05 0.000483717 0)
(-0.00220262 0.0265998 0)
(-0.000146072 0.00773746 0)
(-0.00362616 0.0408428 0)
(-0.00308341 0.0317795 0)
(-0.00466678 0.034991 0)
(-0.000755664 0.0265315 0)
(9.99553e-06 0.00353443 0)
(-0.000169494 0.00857596 0)
(-0.000169237 0.0268308 0)
(-5.26704e-05 0.00164811 0)
(-0.0002153 0.0181174 0)
(-7.68465e-08 0.000259663 0)
(-0.000997586 0.0160065 0)
(-0.000197601 0.0033935 0)
(-0.00523273 0.0377386 0)
(-0.000560211 0.0141464 0)
(-2.50378e-07 0.000848019 0)
(-0.000111917 0.0224322 0)
(-0.00281818 0.0112942 0)
(-0.00530007 0.0365741 0)
(-1.12394e-07 0.000139276 0)
(-0.000170205 0.0146102 0)
(-0.00478599 0.0293782 0)
(-0.00174475 0.037736 0)
(3.04856e-05 0.00919612 0)
(-6.10024e-05 0.00254839 0)
(-0.000303613 0.0268684 0)
(-0.00415962 0.0401173 0)
(-0.00278243 0.0208189 0)
(-0.00520364 0.0369408 0)
(-0.00448002 0.0199867 0)
(-0.000132971 0.00719229 0)
(-5.99093e-05 0.0136102 0)
(-0.00397787 0.0408753 0)
(-0.000330718 0.0267098 0)
(-0.00272211 0.0295898 0)
(-7.66383e-05 0.00280228 0)
(2.78866e-08 0.000529447 0)
(4.08122e-05 0.011951 0)
(-0.00283306 0.0363872 0)
(-0.0016384 0.0339301 0)
(-0.00227781 0.0301808 0)
(-5.53253e-05 0.0134743 0)
(-0.000389644 0.00196442 0)
(-0.000163859 0.0143475 0)
(-0.00501308 0.0254741 0)
(4.24128e-05 0.0127666 0)
(-0.00393714 0.0360597 0)
(-6.08465e-05 0.0267203 0)
(-0.00259619 0.0154274 0)
(-0.00394127 0.0357667 0)
(-0.00472903 0.0320621 0)
(-0.00524349 0.0272941 0)
(-0.00227259 0.0295418 0)
(-0.000654274 0.0390395 0)
(-0.00460231 0.0380682 0)
(-0.00286362 0.0108702 0)
(-0.00353926 0.0406415 0)
(-0.000847409 0.032351 0)
(-0.00321085 0.0398774 0)
(0.00081861 0.0397003 0)
(-0.00499459 0.0396743 0)
(2.17284e-05 0.00814305 0)
(-0.00280001 0.033564 0)
(-0.000140929 0.00740829 0)
(-0.00122177 0.0291704 0)
(0.00148669 0.0408849 0)
(-0.00351198 0.0406932 0)
(-0.000478634 0.0161591 0)
(-3.48447e-06 0.000506107 0)
(-0.00464962 0.0308645 0)
(1.17861e-06 0.000287832 0)
(-1.87408e-07 0.00110608 0)
(0.0013331 0.0409268 0)
(-9.21153e-05 0.00727322 0)
(-0.00195626 0.016765 0)
(-0.00328544 0.040855 0)
(-0.00530322 0.0371474 0)
(1.65094e-05 0.00493646 0)
(-0.000302608 0.00734117 0)
(-0.00117311 0.00428526 0)
(0.00216915 0.0409211 0)
(-0.00502804 0.0348255 0)
(-0.00501567 0.0297844 0)
(-0.000435899 0.0204853 0)
(-0.0037134 0.0402499 0)
(-0.00253595 0.0380217 0)
(-0.00255304 0.0396799 0)
(-0.00439855 0.031454 0)
(-0.00441268 0.0279255 0)
(-0.00253537 0.0219915 0)
(-0.00279141 0.0122646 0)
(-3.01652e-06 0.0339791 0)
(-0.00478333 0.0239836 0)
(-0.00525757 0.0282479 0)
(-0.0002561 0.0203052 0)
(-0.00428704 0.0265336 0)
(-0.0036896 0.0408163 0)
(-0.00327599 0.0399571 0)
(-0.0053027 0.0380966 0)
(-0.00225092 0.0122444 0)
(-0.0043274 0.0240244 0)
(-0.00031117 0.00882799 0)
(-0.002446 0.0325062 0)
(-0.00165248 0.026368 0)
(-0.000533716 0.0378748 0)
(-0.0001053 0.000474322 0)
(-0.00526435 0.029655 0)
(-2.62413e-07 0.00109727 0)
(-0.00476035 0.0294539 0)
(-0.0010943 0.0148745 0)
(-0.00269335 0.0377547 0)
(-0.00435609 0.025305 0)
(-0.00428584 0.0243847 0)
(-0.00437118 0.0401923 0)
(-0.0045482 0.0268701 0)
(-0.00170714 0.0329364 0)
(-2.22216e-05 0.00108677 0)
(-0.00473043 0.0300137 0)
(8.84288e-06 0.0231857 0)
(-0.000857233 0.0313351 0)
(-0.00259794 0.0271756 0)
(-0.00530453 0.0373783 0)
(2.21468e-07 0.00314973 0)
(0.00102228 0.0396662 0)
(2.83562e-05 0.00864562 0)
(-0.00232637 0.0204762 0)
(-0.00525847 0.033594 0)
(0.0015329 0.0405705 0)
(-0.00530026 0.0368472 0)
(2.12772e-05 0.00798336 0)
(-0.000253431 0.0200442 0)
(-0.00054587 0.0164136 0)
(-0.00521688 0.0397249 0)
(-0.000184502 0.000877092 0)
(5.54086e-05 0.0280068 0)
(-0.00528412 0.0333677 0)
(-0.00049434 0.0133449 0)
(-0.00374732 0.0167015 0)
(-0.00317114 0.0384264 0)
(4.17227e-05 0.0133381 0)
(-0.000374153 0.0389662 0)
(-0.0024496 0.0175843 0)
(-1.49795e-05 0.00146757 0)
(2.87356e-05 0.034895 0)
(-0.00528923 0.0346507 0)
(-0.00457795 0.0355151 0)
(-0.00271592 0.0292444 0)
(-0.000466329 0.0202274 0)
(2.78369e-05 0.00848024 0)
(-0.00254907 0.0408304 0)
(-0.00472275 0.0324493 0)
(-2.7397e-07 0.000907695 0)
(-0.00283857 0.0337311 0)
(-0.000197377 0.00662295 0)
(-7.83082e-05 0.00160074 0)
(1.24481e-05 0.0048717 0)
(-4.90803e-06 0.000542863 0)
(-0.00194816 0.0382761 0)
(1.59158e-05 0.0115397 0)
(-0.00195822 0.0171924 0)
(-0.000189691 0.0154051 0)
(-0.000545361 0.0167082 0)
(-0.00225713 0.0266426 0)
(-0.00528032 0.0321217 0)
(-0.00420504 0.0403757 0)
(-0.00373603 0.0288184 0)
(-0.00071232 0.0391157 0)
(-0.00109186 0.0145375 0)
(-0.00363955 0.0293136 0)
(-0.000524785 0.0160258 0)
(-0.000209392 0.00684733 0)
(-0.0019403 0.021182 0)
(-0.00190692 0.017196 0)
(-0.00528485 0.0330868 0)
(-0.00204371 0.0125017 0)
(-0.00468028 0.0272932 0)
(-0.00227278 0.0127702 0)
(-0.00278028 0.0296109 0)
(1.33059e-05 0.00496654 0)
(0.00317183 0.0409116 0)
(-7.43046e-05 0.00181147 0)
(-0.000247716 0.0357205 0)
(-0.00160903 0.0341131 0)
(-0.00490011 0.0371613 0)
(-0.00312954 0.0318558 0)
(-0.00342817 0.0313843 0)
(-0.00525966 0.028697 0)
(-0.00389937 0.0254192 0)
(-0.00144483 0.0319688 0)
(-0.000532859 0.0377754 0)
(-9.72436e-05 0.0277364 0)
(-0.000674919 0.0409137 0)
(-0.0035704 0.0328124 0)
(1.84743e-05 0.00431965 0)
(-0.00158593 0.0238337 0)
(-0.0045223 0.026632 0)
(-0.00437566 0.0311215 0)
(-0.000453017 0.0390432 0)
(-5.04614e-05 0.0021174 0)
(0.000133604 0.0392373 0)
(-0.000434558 0.012539 0)
(-0.000486156 0.0135488 0)
(0.000870049 0.0400659 0)
(3.59391e-06 0.00392841 0)
(-0.00428189 0.0388402 0)
(-0.00293476 0.0287556 0)
(-0.000295641 0.0090699 0)
(-0.000625304 0.0268233 0)
(-0.00031207 0.00910491 0)
(-0.00124425 0.00434877 0)
(6.15619e-07 0.000313687 0)
(-0.00303885 0.016972 0)
(-0.00517928 0.0290878 0)
(-0.000515475 0.0136153 0)
(-0.0050022 0.0352326 0)
(-0.00246349 0.0408506 0)
(-0.00207734 0.0349115 0)
(0.000484395 0.0396657 0)
(-0.00272976 0.0120086 0)
(-4.05844e-05 0.00130109 0)
(5.60075e-06 0.00410376 0)
(-0.00140683 0.0178652 0)
(-0.00028079 0.00830318 0)
(-0.00479405 0.0305633 0)
(-0.00342232 0.0118735 0)
(-0.000240009 0.0114473 0)
(-0.00125815 0.023154 0)
(-1.14168e-06 0.000335255 0)
(-0.00530481 0.0384136 0)
(1.12873e-05 0.0381609 0)
(-0.000849883 0.0311177 0)
(-0.00465471 0.0399524 0)
(-0.00511343 0.0333042 0)
(-0.00103422 0.0130321 0)
(-1.58415e-05 0.0189004 0)
(-0.00348969 0.0293994 0)
(-0.000523498 0.0134056 0)
(3.84381e-05 0.00824482 0)
(-0.000324917 0.0244761 0)
(2.35001e-05 0.0159536 0)
(-0.000347901 0.00471149 0)
(2.213e-05 0.00468688 0)
(3.97006e-05 0.0131267 0)
(6.56544e-06 0.0408605 0)
(-6.04669e-05 0.00378557 0)
(-0.00439569 0.0390188 0)
(-0.00308543 0.0314775 0)
(-0.00368278 0.0230782 0)
(6.83532e-07 0.000329747 0)
(-0.000103159 0.00769429 0)
(-0.0013063 0.0384057 0)
(-0.000833001 0.0321437 0)
(-1.59788e-05 0.0236148 0)
(-0.000158978 0.0110387 0)
(-0.00171148 0.0124831 0)
(-6.86018e-05 0.0224009 0)
(-0.0023728 0.0204205 0)
(-0.00189409 0.0378917 0)
(2.48568e-05 0.00839281 0)
(-0.000499895 0.0344255 0)
(-0.00443119 0.038488 0)
(4.49363e-05 0.0106718 0)
(-4.01508e-06 0.000605373 0)
(-0.00165556 0.0179459 0)
(-0.00100175 0.0316369 0)
(-0.00053572 0.024181 0)
(-0.00403729 0.0173086 0)
(-0.00282247 0.0376799 0)
(-0.00360441 0.0329323 0)
(-0.00346662 0.0119984 0)
(-0.000451257 0.0199556 0)
(0.000229885 0.0380399 0)
(-0.000234445 0.0115554 0)
(-0.0051168 0.0405314 0)
(-0.00488535 0.0376909 0)
(2.79951e-05 0.027887 0)
(-0.00461593 0.0373326 0)
(-0.000318383 0.000936729 0)
(-6.07264e-07 0.00281564 0)
(-0.00118951 0.0223262 0)
(2.40714e-05 0.00594619 0)
(3.08971e-05 0.0120413 0)
(-6.13582e-05 0.00394595 0)
(-9.437e-06 0.000308989 0)
(-0.000151864 0.0108001 0)
(-0.00466832 0.0321126 0)
(-4.23871e-07 0.00148452 0)
(-0.000150848 0.010511 0)
(-0.00318921 0.0177326 0)
(-0.00397088 0.0290611 0)
(-0.00518083 0.0315436 0)
(-0.00147864 0.0321693 0)
(-0.00132704 0.0300933 0)
(-0.000216007 0.00361493 0)
(-0.00480485 0.0241673 0)
(-0.0037303 0.0391356 0)
(-0.00368796 0.0123957 0)
(-0.00372415 0.0406156 0)
(-0.00260394 0.038795 0)
(-0.00484517 0.0297846 0)
(-5.65243e-07 0.00201694 0)
(-0.00451229 0.027857 0)
(-0.00136501 0.011785 0)
(-1.28725e-06 0.000412774 0)
(-0.00118508 0.0219457 0)
(-0.00530956 0.0390529 0)
(-0.00504288 0.0288292 0)
(5.73298e-05 0.0124887 0)
(-0.0040712 0.0168317 0)
(1.22871e-05 0.003702 0)
(-0.0015188 0.0114657 0)
(-2.50076e-08 7.35849e-05 0)
(-0.0016596 0.0223769 0)
(-2.91803e-05 0.0187966 0)
(-0.000246694 0.0282794 0)
(1.626e-07 0.000210253 0)
(-0.0039263 0.0291366 0)
(-0.001252 0.0326285 0)
(-0.00527803 0.0318438 0)
(-1.30765e-05 0.000572371 0)
(-0.000355233 0.0343782 0)
(5.50304e-07 0.000228015 0)
(-0.00109854 0.0393477 0)
(-0.00258798 0.0360559 0)
(-0.00519237 0.0364161 0)
(-0.00501756 0.0258898 0)
(-0.00478235 0.0310077 0)
(-0.00287623 0.0383633 0)
(-0.00529563 0.0377383 0)
(4.72343e-05 0.0105368 0)
(-0.00277519 0.0404195 0)
(-8.46788e-06 0.00101711 0)
(-0.00177914 0.036705 0)
(-3.39524e-07 0.00140625 0)
(-0.00265068 0.0272 0)
(-0.0041269 0.0218429 0)
(-0.00253039 0.0186973 0)
(-0.00529595 0.0365211 0)
(-0.00313704 0.030808 0)
(-0.00369263 0.0277208 0)
(2.43802e-05 0.00822874 0)
(-0.00455447 0.0370665 0)
(-4.27525e-05 0.0232687 0)
(-0.00123499 0.00551921 0)
(-0.00366285 0.0222336 0)
(-0.00233198 0.0299179 0)
(-5.65391e-07 0.00303398 0)
(-0.00116357 0.029199 0)
(-5.72878e-05 0.0349006 0)
(8.8589e-05 0.0205274 0)
(-7.77882e-05 0.0329092 0)
(-0.000443892 0.00671933 0)
(-0.00393807 0.0253818 0)
(-0.000427807 0.0207335 0)
(5.85623e-05 0.0218696 0)
(-0.00456887 0.0397658 0)
(-0.000967893 0.0315426 0)
(-4.20269e-07 0.00272229 0)
(-0.00336192 0.011066 0)
(-0.00131894 0.0408297 0)
(-0.00314502 0.0340149 0)
(-0.00150719 0.0380944 0)
(-0.00336325 0.0395811 0)