/*--------------------------------*- C++ -*----------------------------------*\
| =========                 |                                                 |
| \\      /  F ield         | OpenFOAM: The Open Source CFD Toolbox           |
|  \\    /   O peration     | Version:  v2012                                 |
|   \\  /    A nd           | Website:  www.openfoam.com                      |
|    \\/     M anipulation  |                                                 |
\*---------------------------------------------------------------------------*/
FoamFile
{
    version     2.0;
    format      ascii;
    class       surfaceScalarField;
    location    "50";
    object      meshPhi;
}
// * * * * * * * * * * * * * * * * * * * * * * * * * * * * * * * * * * * * * //

dimensions      [0 3 -1 0 0 0 0];
oriented        oriented;


internalField   nonuniform List<scalar> 
20673
(
0.00441293
0.00143012
-0.00578645
-0.00490005
-0.00345577
0.00850127
-0.00156757
0.00104321
0.000525913
-0.00655377
0.00122699
0.00525646
-0.0137781
0.0139366
-4.01848e-05
-0.0038247
0.00401018
-0.00018514
-0.00163358
8.18689e-05
0.00154684
0.000763583
-0.000965522
0.000203836
-0.000432912
0.000489761
-5.59182e-05
-0.00431973
0.000174745
0.00417452
0.00230085
-0.000678514
-0.00162533
0.00231961
-0.00360541
0.00128534
-0.00350073
-0.00073381
0.000578305
0.000154609
-0.00728802
0.011444
-0.00408576
0.00353744
0.00631988
-0.009761
0.0114241
-0.00453253
-0.00674969
-0.00211289
0.00102323
0.00110581
-0.0018956
0.00422745
0.00577271
-0.00626891
0.000719923
0.00214059
-7.32901e-05
-0.00201963
-0.000396232
-0.00123744
-1.26133e-05
0.00806785
-0.00786355
-9.3783e-05
0.000858669
-0.0139385
0.013371
0.00072291
0.00191071
-0.00161487
-0.000295526
-0.00305754
-0.003967
0.00702362
0.00139218
-0.00498634
0.00358838
0.00250925
-0.00440707
0.00190216
0.000987174
-0.00330193
0.00232947
0.0016986
0.00347591
-0.00512956
0.00288804
0.00380833
-0.00661818
-0.00642438
-0.00146936
0.0078973
-0.00226212
0.0101087
-0.00784113
0.00579975
0.00800165
-0.0137074
0.000338258
0.00118723
-0.00152264
0.00745973
-0.00728007
0.000716386
-0.000188889
-0.000525539
0.00592314
-0.00567757
0.00204364
-0.00170262
-0.000343305
0.000743625
0.000354759
-0.000714557
6.78565e-05
0.000685868
-0.000726252
-0.00169608
0.00119413
0.000465066
0.00610335
-0.00537268
-0.000736199
-0.00284135
0.00548379
-0.00254878
-0.0102541
0.0097189
0.000540597
-0.000639881
-0.00144316
0.000216734
0.000602609
-0.000819148
0.00324462
-0.00296074
-0.000283796
3.7936e-05
-0.000946559
0.00124759
-0.000805078
0.00129909
-0.000450657
-0.00946521
0.0137739
-0.00427727
0.00361868
-0.000373751
-0.00958002
0.00732177
0.00813517
0.00342317
-0.00293926
0.000129539
0.00284604
0.000387618
0.00191062
0.0117965
0.00348087
-0.0151102
-0.00525307
0.00314878
0.00218541
0.00221846
-0.00495897
-0.0023976
0.00257146
-0.000170675
-0.0104098
0.00567941
-0.000242145
0.00699649
-0.00100927
-0.00439829
0.000574355
-0.000596477
-0.00264726
0.00325091
0.000192619
-0.0133132
-0.0129984
-0.00199187
0.000888091
-0.000622844
-0.000264274
-0.00448659
-0.0018212
0.00636101
-0.000462005
-0.0132059
2.96184e-05
-0.000461877
0.000394215
-0.000590959
0.000197324
-0.0145149
0.00073753
0.00296911
5.19296e-05
-0.00302051
-0.00481497
0.00152606
0.00326453
0.000388566
-1.52288e-05
-0.000372363
-0.00413116
0.00234146
0.00185596
-0.0022485
-4.92144e-05
0.00229374
0.000174672
0.00445869
-0.00457517
0.00586437
-0.00134876
-0.0043828
-0.011779
0.00384929
-0.0040871
0.000234644
5.79574e-05
0.000660059
-0.00256587
0.00271303
-0.000144808
-0.00150206
-0.00256607
0.00593839
-0.00579176
1.78301e-05
0.00199817
-0.00258873
-0.00141546
0.000613182
-0.00137813
-0.000376224
-1.18188e-05
0.000359492
-0.00034713
0.000906002
-0.00486792
0.00398882
0.008815
-0.00402318
-0.0046083
-0.00455926
0.0117835
-0.00714718
-0.00107566
0.00307871
-0.00325137
-0.000957544
0.00420775
0.000452968
0.000720807
-0.00117472
-0.000993557
0.000474291
0.000522203
0.00388024
-0.00287228
-0.00102558
0.00315129
0.00302108
-0.00618227
-0.00217002
-0.00190273
0.00430446
0.00511828
-0.00881695
0.00369939
0.00425063
0.00184691
0.000660449
0.00119111
-0.00182185
0.00483024
-0.00574315
0.00110565
-0.000343795
0.000633122
-0.000288542
-0.00479613
0.00465765
0.000146418
-0.000542711
0.000761345
-0.0117119
0.00733519
-0.00356549
-0.00147918
0.0050877
-0.00131051
0.00150363
-0.000191901
0.00230933
-0.000267683
0.00386294
-0.00111069
-0.00276221
-0.000608764
0.000265941
0.00201333
-0.0100396
0.00804114
0.00351052
-0.00230843
-0.00120153
-0.00892671
-0.0031822
0.0123234
0.000188187
0.00310842
-0.00329718
-0.000562309
-0.000646041
0.00120977
0.0101499
-0.00213629
-0.00800921
-0.00190773
0.0019995
0.000544803
0.000334205
-0.0010344
0.000300151
0.000734096
0.00656401
-0.00517564
-0.000481155
0.0012502
-0.000450107
0.0075458
-0.0120182
-0.00604462
0.00365025
0.00250537
0.000554763
-0.000658642
0.000851246
-0.000838882
-6.18901e-06
0.000758799
0.000760797
0.000233673
-0.000994176
0.0119917
-0.0099598
0.00381542
0.00176292
0.00216733
3.13128e-06
0.000752818
-0.0014778
0.000725611
0.000826507
-0.000918753
0.00578004
-0.00131242
-0.00154659
0.00469536
-0.013992
0.000693031
0.00829559
0.00185793
-0.000564046
-0.00118882
0.00175859
-0.00262293
0.00469236
-0.00194804
-0.0132634
-0.00042263
0.0137352
0.000316937
0.00445191
-0.00477909
-0.0132413
0.000251535
-0.000568056
0.000149582
0.000419986
0.00260628
-0.00454835
0.00195051
-0.014483
0.00505092
-0.00246946
0.00386425
-0.00129934
-0.00505158
-0.00196698
0.00710399
0.000133293
-0.00120903
0.0010829
0.00162696
0.00188419
0.0025111
-0.000195712
-0.00231774
0.00740078
-0.00684115
-0.000518852
0.00107943
0.00431823
-0.00532198
-0.00376815
0.00109457
0.00267719
0.00313536
-0.00755812
-0.00100293
0.000872635
0.00013202
6.17274e-05
0.000328538
-0.000705859
0.0014593
-0.00921755
-0.00141198
0.010664
0.0053134
-0.00805591
0.00274332
0.00422779
-0.0047688
0.000587812
-0.000933833
0.00139288
0.000300073
0.00355288
0.00311719
0.000765952
0.00201199
-0.00132367
0.00121163
-0.000783634
-0.000430398
-0.00605568
0.00380347
0.00238936
0.0083207
-0.00319802
0.00277684
0.00413015
-0.00685174
3.68017e-05
0.00121038
-0.00124655
0.0015437
-0.00364414
0.00210488
-0.0115888
0.00589769
0.00581769
-0.000596129
0.000400902
0.000197504
-0.00662941
0.00627953
0.000385822
-0.000537707
0.00130107
0.00313595
-0.00294649
-0.000542788
-2.29586e-05
-0.00915098
-0.000339393
0.00968584
0.00410707
-0.00317818
0.00564048
-0.00389325
0.00146716
-0.00396629
0.00705377
-0.000956709
-0.00092506
0.0081213
-0.00716021
0.000678819
0.00123302
-0.00287178
0.000639759
0.0022293
-0.000841517
-0.00291832
-0.00234565
6.07305e-05
0.00230437
0.00278326
-0.00061931
-0.00216976
0.00146072
-0.00134352
-0.000116863
-0.0023321
-0.000231848
0.000128455
-0.00283699
0.00271608
0.00233672
-0.0107009
0.00859227
0.00518675
-0.00512705
-6.32706e-05
0.00362562
-0.00668462
3.65086e-05
0.000282696
0.00543211
0.00355098
0.00432448
-0.00012195
-0.00419134
-0.000329507
-0.00239395
0.00273122
0.0023227
-0.00286695
0.000522373
0.00092343
-0.000625989
-0.00172814
0.000855974
0.000855267
-0.00123792
0.00138692
-0.000193795
0.00058905
0.000962634
-0.000354593
-0.00060609
-0.0070992
0.0129809
0.0129005
-0.000948392
-0.000392147
-0.000598418
-0.00192938
0.00066323
0.00126655
0.00129224
-0.0145002
-0.00136158
-7.59804e-05
0.00143416
0.000649432
-0.000452051
-0.000196623
0.00307809
-0.000302821
-0.00115068
0.00616507
0.00327674
-0.00464445
0.00135731
-0.000988811
0.000216589
0.000778232
0.00134939
-0.00105035
-0.000298364
0.000606102
-0.0086407
0.00819375
-0.00239439
4.88536e-07
0.00318371
-0.0121088
0.00268393
-0.00204277
-0.00062898
0.00139284
-0.000331222
0.000624435
-0.000204015
-0.000419573
-0.000362571
0.000672063
-0.000308341
0.00979263
-0.00616895
0.00137071
0.00320386
-0.00455913
0.0048155
-0.00367638
0.00583822
-0.00676651
0.00143648
-0.00109628
-0.00222457
0.0037506
-0.00215631
-0.000167193
0.000914043
-0.00131078
0.000397911
0.000335848
0.000313683
0.00146315
0.000755759
-0.00198505
-0.0032368
0.00619152
0.00040099
-0.000411751
-0.00236463
0.00235829
9.48611e-06
0.00435908
-1.75581e-05
-0.00417835
-0.00382554
0.00824762
0.000164241
0.00187906
0.00101714
-9.32584e-05
-0.000923118
-0.000238805
1.23441e-05
0.000257832
-0.00111028
-0.0012417
0.00235113
0.00157671
-0.000220548
-0.00134753
-0.00129157
0.00660985
-0.00347879
0.00551763
-0.00198825
-0.000432312
-0.00423555
0.0033302
-0.00786977
0.00458795
0.000163466
-0.00046768
0.000304757
0.00348994
-0.00160552
-0.00193479
0.00396142
-0.000153926
-0.00378539
0.00539292
-0.00500686
-0.00039366
-0.00378181
-0.00215887
-0.00995293
0.013581
0.00286002
-0.000846008
-0.00202567
0.00239072
-0.00184024
-0.000550439
0.000269374
0.002235
-0.00665102
0.00575508
-0.00957605
0.0023576
0.000468609
-0.000482444
3.42928e-05
-0.000372503
-0.000660943
0.00132006
-0.00129263
-2.57223e-05
0.00224582
0.000116488
-0.00236312
-0.000387098
0.00640941
0.000655269
-0.00076855
0.000112779
0.000676197
-0.000221783
-0.000455687
-0.000286805
-0.000714296
-0.000487727
-0.00176121
-0.000967147
-0.00388493
0.00552839
-0.00113043
0.00023846
0.00131725
0.00157095
-0.00108136
-0.000475054
0.000252571
-0.00047256
0.000220094
-0.000920449
0.000770017
0.000157836
-0.0024604
-0.00272116
0.000375028
0.000589762
-0.00185953
0.00515067
0.000121069
0.000525805
-0.000652284
-0.000655475
-0.000935747
0.00159319
0.00546883
-0.00587217
0.00061003
-0.000456266
-0.000137812
0.00256562
-0.000271316
-0.000178927
-5.48983e-07
-0.0108446
0.00522714
0.00569469
0.00508637
0.00235718
-0.00406356
-0.00398939
-0.00177697
0.000668424
-0.00914279
0.00286275
0.00633742
-0.00189521
0.000403686
0.00150271
-0.00158368
-8.94955e-05
0.00167674
0.00120227
-0.000286475
0.000322219
0.00100314
0.0097992
-0.00901349
-0.000875026
0.000717613
0.000156756
0.00875834
-0.0105777
0.00185036
-0.00039392
-0.0014906
0.00460451
-0.0133096
-0.00112662
0.0037397
0.00186775
-0.000856129
-0.000715838
0.00216283
0.000532015
0.00290284
-0.00632451
-0.00284315
-0.00307853
-0.000782441
-0.000957759
0.00677949
-0.00922454
0.00257208
-3.69833e-05
0.00176686
-0.00172941
-0.00534334
-0.00124982
-0.00314492
-0.00169528
-0.00225905
0.00349648
-0.00115571
-0.0137616
0.00395653
-0.00160026
0.000507596
0.00109321
-0.000674277
-0.000206991
0.000881722
0.00805951
-0.0110597
-0.000862033
-7.54264e-05
0.00129053
0.00127207
-0.00192928
-0.0068389
0.0114582
-0.0044162
-0.000362463
-0.000228302
-0.00401568
0.00186033
0.000420122
0.000204848
0.00429608
0.00109459
-0.00547284
0.000842745
-0.00415501
0.00332443
-0.00130732
0.00110534
0.000198084
-0.00279789
0.0029852
-0.000187267
-0.0125363
0.00335508
-0.00193467
0.00123332
0.000834256
0.00269475
-0.00354016
-0.0032934
-0.00747301
0.00107912
-6.05977e-05
-0.00384714
-9.4443e-05
0.00395452
-0.0128975
0.00646154
0.00655504
0.00107369
-0.000393727
-0.000679206
0.00164085
0.00354398
0.000343199
0.00033247
0.00474331
0.00603607
-0.0107696
0.00154316
-0.00138915
-0.000155007
-0.00396937
0.00617163
-0.00213196
0.0019327
-0.000162838
-0.00176762
0.00472738
-0.00390112
-0.00689783
0.00307085
0.00384512
-0.00199598
-0.00487678
-0.000853926
-0.000713563
0.000420316
0.00527167
-0.00562162
-0.00417473
0.00699985
-0.00135578
4.60941e-05
-0.0132403
0.00243428
0.0108907
0.00568838
-0.0107399
0.00515422
0.000665525
-8.93669e-05
0.00473946
-0.000401306
-0.00882823
0.0129734
-0.00398751
0.00115024
0.000311536
0.00378182
-0.00127152
0.00023991
0.00383628
-0.00379642
0.000672143
-0.0012319
0.00104766
-0.00160718
0.000562768
0.00620445
-0.000519661
-0.00370838
-0.00499309
0.0089349
0.00942151
-0.000665417
0.00124433
-0.00362636
-0.00158589
6.69044e-06
0.000451614
-0.000534647
8.47889e-05
-0.00369719
0.00464764
-0.000942994
-0.000132115
-0.00146682
-0.00978241
0.0149035
-0.0049455
0.00376534
0.000208057
-0.00160731
-0.00087978
0.00248796
-3.21164e-05
0.000992869
-0.000954928
-0.00128381
0.000482681
-0.000229232
0.000271128
-0.00406342
0.00251962
0.00173161
-0.000404497
0.00264792
-0.00768638
0.00229158
0.0056106
-0.00257071
0.000178905
0.0051804
-0.00286567
-0.00289965
0.000102169
0.00161751
-3.05926e-05
-0.00547422
0.00397602
0.00145631
0.00463246
0.00132109
-0.00587003
-0.00100773
0.000621378
0.00325967
0.000864254
-0.00146492
0.000590959
0.000889209
-0.00042004
0.00248638
-0.00207373
0.000534434
0.00139952
0.000442366
0.000907333
0.00730484
-0.00393658
-0.00479522
0.000503677
-0.00627105
0.00230349
-0.000941611
-0.00142055
-0.000627569
0.00163759
-0.00100924
0.0160827
-0.00667702
-0.00923962
-0.00160901
-0.000323067
0.0143587
-0.00175956
-0.0124571
0.000887846
-0.00116428
0.000280148
0.00511398
-0.000892856
-0.00457423
0.0050721
0.00376992
-0.00684363
0.00315599
-0.00100955
0.0023813
-0.00137188
0.00779273
-0.0039283
0.00163843
0.000751281
-0.00248742
0.00319623
-0.000705158
0.000856737
0.000513943
-0.00137226
-0.00490876
0.00383909
0.00106104
-0.00748939
-0.00529198
-0.000631042
0.00390009
-0.00222139
0.00195879
-0.00957321
0.0078534
-4.53214e-05
0.000407293
-0.013545
-0.0140502
0.00128606
0.0128616
0.00270745
-0.00170807
0.000618887
-9.52025e-05
-0.0117435
-0.00369065
0.0155702
-0.000609856
-0.00691171
-0.00171301
0.000133229
0.00332376
-0.00309384
-0.000112964
0.00165454
0.00264342
-0.00199981
-0.000643288
0.00318721
-0.00270796
-0.000478505
0.00271494
-0.00257942
0.00213922
-0.00111723
-0.00102166
0.00114003
-0.000835622
-0.000303778
-0.00105342
0.00102163
0.0031195
-0.0127231
0.000506672
-0.0016084
0.00110579
0.00207829
0.00379315
-0.00414175
-0.00211323
0.00632946
0.0100841
-0.00755009
-8.92204e-05
-0.0010099
-0.000920144
0.00183382
0.000807961
-0.0043557
-0.00541292
0.00984207
-0.0013572
0.000862307
0.000502456
-0.00775461
0.0125132
-0.000169861
-0.00558099
-0.00108789
-0.000368566
-0.0101608
0.00119844
0.00907517
0.00278699
-0.000630284
-0.00215999
-0.00778169
-0.00377902
0.00106574
0.00103441
-0.000608827
0.000247304
0.000617381
-0.00115267
-0.000576562
0.00119753
0.00373095
-0.00407392
0.000364673
0.000713281
0.00247466
0.000223699
0.000851229
-0.000951289
6.24771e-05
0.000888667
0.000299193
0.000115629
-0.000413552
-0.00060731
-0.000124421
0.000792627
0.00119253
-0.000687908
-0.000497754
-0.000422887
-0.00962608
-0.00360177
-0.00956101
0.0132914
0.000457233
0.000660194
-0.00111521
0.000950737
-0.000966359
0.000116925
0.000585603
-0.00278591
0.00248668
0.000318196
-0.000427448
0.00112381
-0.000695699
0.000468615
-0.000166247
-0.000301159
-0.0061397
0.00828414
-0.00110448
0.000478667
0.00062483
-0.00310312
0.00284648
0.000260212
-0.00323027
0.0038538
-0.000614068
-0.00142405
0.00101464
0.000409064
0.00329679
0.00827356
0.00796578
-0.00018751
0.000479657
-0.00318332
0.00636971
-0.00148812
-0.00237903
-0.00087103
0.00209352
-0.00122107
0.000189062
-0.00387926
-0.00382667
-0.00525545
-0.00267209
0.000512803
0.00216147
-0.00321792
0.00030746
0.000298207
-0.00122699
3.51622e-06
-0.000953884
-0.0021999
-0.0023445
0.00251594
-0.00166276
-0.00148798
0.00093026
-0.000574485
-0.000541482
0.001981
0.00148282
-0.0034557
-0.00157871
0.000809172
0.000774988
0.00293103
-0.000293404
-0.00267064
0.00118099
0.00119818
-0.00238093
-0.000549703
-0.000960988
0.00373526
-0.0027759
-0.000525076
-0.000202121
0.00072995
0.000532257
-0.000104978
-0.000280381
-0.00104931
0.00129819
-0.000246062
-0.000730541
-0.000819859
0.00155696
0.000795255
-0.00274828
0.00192344
0.00402705
-0.00714614
0.00123495
-0.00369971
0.00253432
0.000202918
0.000266895
-0.000452902
-0.00015526
-0.0101522
0.00350598
0.000403804
-0.000286332
-0.000725881
0.00183213
-0.00110435
0.000391315
0.000748362
-1.56049e-05
-0.000396223
-0.000383525
-0.00103999
0.00220308
-0.000292821
-0.00192471
-7.37062e-05
0.00291396
-0.00283308
0.0123239
-0.00625068
-0.00584865
0.000463619
-0.000696948
0.000234238
-0.000371138
0.000598075
-0.000225998
-0.00745445
0.00249232
-0.000118199
-0.00497385
0.00518062
0.000798012
0.00134174
-0.000263248
-0.00260333
-0.00157253
-0.000773317
0.00234662
0.000582714
5.3038e-05
-0.000382515
-0.000181976
0.000565258
0.00309923
0.00045287
-0.0019751
0.00152262
0.00221612
-0.00142861
0.00207471
0.000639749
1.37384e-05
-0.000939554
0.000925766
0.00190051
-0.00118205
-0.000724428
-0.00795362
0.00446207
-0.00721192
-0.0033833
0.0107078
0.00371147
0.00130017
-0.000407126
-0.0010112
-0.000241898
0.00406612
-0.00881323
0.000458095
0.0020289
-0.00221619
-0.0018922
0.00261945
0.000837223
-0.000180159
-0.000601185
0.00106063
0.000847338
0.00168108
0.00132919
-0.00302018
-0.000127768
-0.000648767
-0.00359492
0.00160979
-0.000996482
-0.000355812
0.00055575
-0.000898108
0.000343639
0.00118622
0.00210505
-0.00326217
0.00516027
-0.00123595
-0.00176684
-0.0121416
0.0118668
-0.0129217
0.00106683
0.00172324
-0.00237075
4.05861e-05
0.00483348
-0.0055308
0.000837468
-0.0122412
0.0119881
0.000303082
0.00238049
0.00312807
-0.000229142
-0.000267677
-0.00104171
0.0159678
-0.007532
0.00900514
-0.00343865
-0.0054615
-0.00698722
0.000164345
0.00691199
0.000310718
-0.000833766
-0.00410775
0.00027499
0.00231486
-0.000928194
0.00143438
0.000871433
-1.02749e-05
-0.000857146
0.000592745
-0.000945378
-0.00428266
0.00116254
-0.00323914
-0.00788877
0.0112988
0.000509412
-0.00034527
-0.000207543
-0.00332421
0.00910221
0.000401542
-0.00245823
0.00204389
0.000175082
-0.00122176
-0.00625981
0.00497299
0.00131455
-0.00124171
0.000477163
0.000990012
-0.00338992
0.000169566
-0.00272969
0.000563329
0.00217671
-0.00179536
0.00289448
-0.00109716
8.60488e-05
0.000789943
-0.00956515
0.00340491
0.00617909
-0.00124084
0.000817009
-0.00386714
0.00857876
-0.000690833
0.00101507
-0.00253725
0.000938117
-2.38954e-05
-0.000916066
-0.0109994
0.00338123
0.00342244
-0.000682127
-0.00268385
-0.00117582
0.00249924
0.000272327
0.000211204
-3.72203e-05
-0.000603665
-0.00053503
0.00101633
0.00404132
-0.000295649
0.0106415
-0.00423304
0.00245619
0.00343197
-0.00581176
0.0101462
0.00594949
0.00640963
-0.00637795
-1.5756e-05
0.00456317
-0.0133807
-0.000940554
-4.42732e-05
0.0038398
-7.22836e-05
0.0010096
-0.00242647
0.000854227
0.00966317
-0.00409861
-0.00545444
0.00137767
-0.00107704
-0.00058172
0.000217366
-0.0101563
0.00660597
0.00362443
0.00550398
-0.0151375
0.00967891
0.00351964
-0.00124519
-0.00227564
-0.000194601
0.000727495
-0.000536018
0.000542102
-0.000409337
-0.000131426
-0.00280579
0.00299571
-0.000180271
0.000749109
0.000131231
-0.000365901
0.00104
0.00520238
-0.000256316
-0.000689347
-0.00438499
-7.8453e-05
0.00452026
-0.00122333
0.00135818
-0.000130278
0.0026646
-0.00908761
-0.00319027
-9.60143e-05
-0.00176303
0.00222467
-0.000463436
-0.00055098
-0.00102118
-0.0033411
0.000542912
0.00276511
-0.00116985
0.000481522
-0.00184786
-0.00173298
0.00363412
0.000400759
-0.0001002
0.00418563
0.000247281
0.00595776
-0.00100978
-0.000301897
-0.00057686
-0.00061443
0.000415017
-0.00399901
0.00430887
-0.000314923
-0.00327326
0.00147671
-0.00707549
-0.00436939
-0.000735862
-0.0114511
-0.00467034
0.00275626
8.87713e-06
0.000657415
0.00246494
-0.00321692
0.005738
0.000535812
0.00197461
-0.000785772
0.00794601
0.00454749
-0.00177441
0.00315559
-0.00300003
0.00365466
0.00289042
0.000453274
-0.00335021
0.0131846
-0.00592514
-0.00707019
0.00122289
-0.000692329
-0.000525915
0.00364431
0.000144571
-0.00262858
0.00433618
-0.00413061
-0.000921543
-0.00530763
0.00122725
0.00222853
0.00308029
-0.00050943
-0.00229053
-0.00148183
2.61673e-05
0.00147115
0.00620805
-0.00245007
0.00612949
-0.00505647
-0.00104784
-0.0016444
-0.0086048
-0.00201453
-5.186e-05
0.0020686
0.00213723
-0.00255586
0.00077587
0.000431824
-0.0034082
0.00391157
-0.00154129
0.00102056
0.000529595
-0.000641799
-0.00336135
0.00123129
0.000315447
-0.00154606
0.00221556
0.00123915
-0.00643094
-0.00298572
0.00942991
0.00896665
-0.0046662
0.00518847
-0.00357283
-0.00167766
0.00429928
-0.00109653
0.00080711
-0.000794206
0.00466562
-0.000116155
0.00288251
-0.00381775
0.00379678
-1.52047e-05
0.00105334
-0.00173459
-2.83385e-05
-0.00353338
0.00358373
0.000628793
-0.000423431
-0.000204376
-0.00499558
0.00558135
-0.00055697
-0.0115772
0.00449435
0.000255818
-0.000427592
0.000172765
0.000627375
-0.000665858
-0.00368829
-0.00804261
0.0118878
-0.00238497
0.00277427
-0.000564191
0.000573589
-1.37637e-05
-0.00263293
-0.000182503
-0.000696816
-0.000217409
0.000667212
-0.0005424
-2.46162e-05
0.00497425
-0.00500239
-0.000281887
-0.00386026
-0.00213475
-0.00340828
0.00179281
-0.00118185
0.0022659
0.000585743
-0.0015163
2.0036e-05
-0.000243615
-0.00154217
0.00179125
-0.000267688
-0.00206592
-0.00154022
0.00355347
0.00587044
-0.00548409
-0.000478464
0.000393396
0.00250039
-0.00259974
0.000337177
-0.00101073
0.00239963
-0.000199641
0.005954
-0.0102327
-0.0012737
0.00131123
-0.0105595
0.00454622
0.00610071
-7.38868e-05
-0.000546011
0.00622626
-0.00183078
0.0049777
-0.00644678
0.00267839
0.00318186
-0.00679506
0.00365653
0.0122061
-0.00740729
0.00141969
-0.00363294
0.00223562
0.0020344
9.79639e-05
-0.00178869
0.00189557
0.00352969
-0.00540185
0.000464579
0.00172155
-0.00015289
-0.0029453
-0.00326425
0.00186434
0.00139556
0.000763427
-0.000206659
-8.18491e-05
0.000697536
0.00668523
-0.00295367
-0.00130372
-0.00238545
-0.00211986
0.00454088
-0.00068257
0.000607803
7.4586e-05
-0.000637658
0.000178579
0.000460339
-0.000511596
0.00155031
-0.0109089
0.0155987
-0.0045684
-0.000180805
-0.00152651
0.00391658
0.000388012
0.000371023
0.00251377
-0.00208161
7.69147e-05
-0.00124976
0.000808832
0.000450476
-0.00112034
0.00231018
-0.00118811
-0.000196173
-0.00488627
0.00513145
0.00207584
0.0030274
-0.0016917
0.000264042
0.00143236
0.00419748
-0.00430875
0.00122277
-0.00173181
-0.0026998
-0.00128024
0.00397744
0.00056069
0.00153573
-0.00208982
-9.50919e-05
0.00377615
-0.00377305
-0.00150774
0.000275821
-0.00850824
0.00527845
0.00138698
-0.00275076
0.00134093
0.000720005
0.00439729
-0.00511879
0.00159829
0.0052792
-0.00716116
-0.00888553
0.0139577
-0.00487668
-0.000670973
-0.00101631
0.000185282
0.000832796
0.000184612
-0.00131141
0.00113019
0.00088768
0.00091343
-0.013594
0.00277737
-0.0129338
0.00166282
0.0113895
0.00242592
4.04843e-06
-0.00105167
-0.00845317
0.0095955
0.00235138
-0.00341324
0.000961788
0.00752848
-0.00552451
-0.00191001
0.000105269
-0.00264485
0.00281297
-2.72594e-05
0.000491669
-0.00186821
-0.0024911
0.00433163
0.000698256
-0.00432416
0.00378644
0.000185299
-0.0037343
-0.00231328
0.00254636
-0.000171899
-0.00720288
0.000625494
0.00658055
-0.000813087
0.00281099
-0.0035763
-0.0085327
0.0121253
-0.0019615
0.0015739
0.00039133
0.000805454
-0.00459995
0.0038188
-0.000134724
-0.00243215
-0.00315253
-0.00133011
0.000499481
0.000834524
0.00156759
-0.00158718
3.96826e-05
-0.00114325
0.00213731
-0.000952283
0.000835936
-0.00242429
-5.24852e-06
0.0068814
-0.000694643
-0.000955315
0.00165049
4.08751e-05
-0.00230862
0.000323438
0.000528265
-0.000849536
0.00705468
0.000555698
-0.00253974
0.000933159
-0.00625918
0.000651497
0.00564131
-0.00309041
0.00391422
0.0020115
-0.000954543
0.00201335
-0.00191479
-2.21356e-05
0.000109484
-0.000117633
-0.00375512
-0.000187916
0.0128321
-0.0126062
-0.00582175
0.0131576
-0.00723259
0.00187015
-0.00159251
-0.000272789
-0.00414389
0.0101503
-0.00938653
0.00908583
0.000387715
0.00418799
-0.00302645
-0.00111656
0.00788693
-0.00483685
-0.00279442
3.81928e-05
0.000345113
-0.0003204
-0.00356733
-0.00849539
-0.000108431
-0.000573888
0.00285329
0.00333029
-0.00612495
0.00101219
-0.00312248
-0.000767841
0.00151
-0.000211474
0.000484258
0.00415635
-0.00526918
0.0128655
-0.00745096
-0.00810177
-0.00276775
-0.000387903
-0.00156795
0.000557594
-0.000592943
3.00585e-05
-0.00134252
0.00124068
0.000103203
-0.00488905
-0.00465578
-0.00350943
0.00334346
0.0026569
-0.000977253
-0.00038333
0.000460978
-0.00358339
0.00260908
0.00580633
-0.00117774
0.00105485
0.000124363
0.0101821
-0.00413698
0.000559015
-0.000952528
0.00415875
-0.00838223
0.00434789
0.0117521
-0.00490019
-0.00679209
-0.000737906
-0.000326253
0.0010646
0.0149438
-0.000449185
0.000636952
-0.00137946
0.00823256
0.00374401
-0.0118144
-0.00188544
0.00173023
0.000414259
-0.00529203
0.00385976
0.00285593
-0.00692325
0.00175072
0.00222945
-0.00391243
-0.000527536
0.000453342
-0.00188148
0.000505089
0.00137516
0.00398686
0.00669899
0.00254007
-0.00145334
-0.00114167
-0.00179695
0.00346665
-0.0016749
0.000918502
0.000667375
-2.60981e-05
0.000860664
-0.000412277
-0.000447173
0.00117264
0.00132495
-0.00159932
0.0050336
-0.00116769
-0.00395362
-0.00166915
-0.000156573
0.00182712
0.000703176
-0.00122627
0.00266064
-0.0013859
-0.00295533
0.00131401
-0.00418736
0.00355518
0.000677874
-0.00250841
6.96976e-06
0.0025247
-0.000999031
0.00128549
-0.000276966
0.0153154
-0.0107745
-0.00451694
-0.0119375
0.00540149
0.00673507
0.00112538
0.00465579
0.00186411
-0.00353095
0.00166273
-0.00316173
0.00209893
0.00103708
0.00207006
-0.00214703
0.000131358
-0.000477911
0.00018503
0.000293007
0.000453941
-0.000303356
-0.000487973
-0.00287747
0.00330337
0.000743493
0.000404154
-0.0011407
0.002128
-0.000257111
-0.00183825
-0.00285377
0.00504384
-0.00206478
0.00261047
0.00711206
-0.000575196
-0.00226023
0.00417584
-0.00936791
-0.000255855
0.00972756
0.00281725
-0.00765333
-0.000358624
-0.000278685
-0.00103073
0.00139611
-0.000346223
0.00137142
-8.44701e-05
-0.00128636
-3.77681e-05
0.00842783
-0.000884844
0.000678085
0.000597231
-0.00111416
0.000500275
0.00226295
-0.00369807
-0.000733773
-0.00113745
0.00187163
0.00308813
0.000142743
-0.00323129
-0.00529084
-0.00643808
-0.00150382
-0.000181252
-0.00125771
0.00234075
0.00157105
-0.00275309
0.000339407
0.00363034
-0.000643691
-0.000124132
-0.000491599
0.00272213
-2.4889e-05
0.00196983
-0.00113377
0.00276524
-0.00446534
0.00164105
0.00283054
-0.0028969
-0.00227749
-0.0040074
-0.00274809
0.00156154
0.00116668
0.00540495
0.00305932
-0.00846423
0.00532491
-0.00529305
0.000119211
0.00124005
-0.00411646
-0.00309408
0.00741208
-0.000979707
0.00938709
-0.0083756
-0.00092118
-0.00242234
6.78283e-05
0.000676569
-0.001317
-0.000638674
0.00195618
-0.00150663
0.00107367
0.00043342
-0.00981796
0.00340037
0.00143931
-0.000389597
-0.00130867
-0.00016468
0.00147345
-0.00925895
-0.00435235
-0.00107457
0.000709305
0.00110745
0.00146597
2.99161e-05
-0.00133805
0.00202443
-0.00164574
-0.000378127
-0.000201198
-0.000276905
0.00153203
-0.00332343
-0.000265494
-0.00127081
0.00758961
-0.0108589
-0.00181531
0.00126856
-0.00068443
-0.00150192
0.000874486
0.000710407
0.00150735
-0.00782726
0.00397217
0.00673073
-0.01185
-2.97874e-05
-0.00013869
0.00133547
-0.00118522
0.00597023
0.00303538
-0.00899026
0.000938427
-0.000424451
-0.000513495
-0.0036551
-0.00400944
0.000187453
0.0110297
-0.0111592
-0.00270587
0.00163354
0.00107273
0.00412585
-4.79483e-06
-0.00410555
0.00640175
0.00892158
-0.00780229
-0.00441884
0.00298689
0.00147838
0.00402916
-0.00157123
-0.00238802
-0.000497371
-0.0027679
-0.00287652
-0.00492212
0.00745643
0.00405289
-0.0114669
-0.00178664
0.00449063
-0.00142541
-0.000456219
0.00051592
-0.00125315
0.00323774
-0.000129086
0.000875954
0.00407672
0.00264527
-0.00290448
-0.00249427
-0.000224004
-0.00188239
0.00188209
1.43833e-06
0.000315223
-0.00160198
-0.00235032
0.0039632
0.00541217
-9.72627e-05
0.00169386
0.00803202
-0.00376401
0.00147501
-0.00150195
0.00803649
-0.000714963
0.000143696
0.000721009
-0.0076275
-0.00311314
0.00294309
0.000964103
0.00170222
-0.00266507
0.000963878
-0.000599503
-0.000363784
-0.00453776
0.00443545
-0.000463852
0.00022478
0.000744852
-0.000970709
-0.00381323
-0.0026521
-0.0108844
0.0136052
-0.000284798
-2.84626e-05
0.000313658
0.00269828
-0.0054085
0.00587914
-0.0115934
0.00579471
0.002095
-0.00789045
-0.00240634
-0.000261873
0.000823306
0.00773438
0.00563312
-0.000213317
-0.00111472
0.00132674
0.000666367
0.000775929
0.000317952
-0.000620018
0.000305546
0.000754335
7.78386e-05
-0.00082965
0.00148994
-0.00030219
-0.00139199
0.00773711
-0.00618899
-0.000397868
-0.000694561
0.00109229
0.0104874
-0.0130783
-0.0114474
0.00523772
0.00643424
0.0151364
-0.00958536
0.00131377
-0.00218345
-0.00106406
-0.000277026
0.00184148
-0.000839432
-0.000967487
-0.0012261
0.000218711
0.0120339
-0.00364245
-1.25174e-05
-0.00877362
0.00316645
-0.00280836
-0.000311004
0.0129843
-0.013131
0.00306914
-0.0117295
-0.00132738
-0.00104337
-0.00173635
0.00291002
0.00475264
-0.00432361
-0.000412202
-0.00063429
0.0014208
-0.000784187
0.00294903
-0.00659616
0.000468351
-0.00475766
0.00431472
0.00232546
0.00744566
-0.000252373
-0.000443928
-0.000508104
0.000733061
0.000617262
0.000886826
0.0012016
-0.000452637
0.00330332
-0.000215757
-0.00143522
-0.00218686
0.0011775
-0.00435163
-0.00021191
-0.00238343
0.00254552
-0.00449188
-0.00119244
0.00573409
0.000745778
0.00102739
-0.00175083
0.0025602
-0.00268675
0.000123026
0.00188723
-0.00315718
0.00125357
-0.000586298
-0.000213502
0.000799885
0.00265586
-0.00200504
-0.000359533
0.000877857
-0.000554031
-0.000318839
0.000835852
-0.00250621
-0.00500075
-0.0034574
-0.000923542
-0.000252486
0.00117586
0.00872055
-0.012206
-0.00428981
2.83735e-05
0.00495772
0.00336961
-0.00820914
0.00400493
0.000252875
-0.00417615
-0.0010344
0.00199997
-0.00172561
0.00206172
-0.000260234
-0.00206137
0.0103313
-0.00146764
-0.00399925
0.000841513
0.00318807
-0.00102103
0.000900082
0.000126376
0.000174581
0.00373899
-0.00129498
0.00393014
-0.0026528
-0.000752013
0.00175549
-0.00100316
-0.00520174
0.0035859
-0.00136404
0.000345949
0.00592177
0.000371444
0.00261632
0.00344694
-0.00270727
-0.000735967
-0.00130169
-0.000312554
-0.00216508
0.00162128
0.0005274
0.00339539
-0.00263221
-0.000812156
-0.00228686
0.000872378
0.00141502
0.00292523
-0.0100764
-0.00436955
0.000734404
0.000884061
-0.00161244
-0.00138486
0.0025837
0.00292195
-0.00341434
0.000454038
0.0011629
-0.00129813
0.00407495
-3.15257e-06
0.00134094
0.000245778
-0.000263071
-0.000527057
-0.000713938
0.00492769
-0.000482789
-0.00543083
-0.000224327
0.00308605
-0.00283214
-0.00214216
0.000340941
0.00186815
0.00159809
0.0046084
-0.00617824
0.00264995
-0.000272262
-0.00127833
0.000762377
0.000436113
0.00133133
-0.00113655
-0.00168322
0.000777386
0.000921748
0.000606357
0.00127195
-0.00367779
0.00212041
0.0015517
0.00459318
-0.00428313
-0.000285659
-0.000358857
-0.000388141
0.000747757
0.00920534
-0.0127951