/*--------------------------------*- C++ -*----------------------------------*\
| =========                 |                                                 |
| \\      /  F ield         | OpenFOAM: The Open Source CFD Toolbox           |
|  \\    /   O peration     | Version:  v2012                                 |
|   \\  /    A nd           | Website:  www.openfoam.com                      |
|    \\/     M anipulation  |                                                 |
\*---------------------------------------------------------------------------*/
FoamFile
{
    version     2.0;
    format      ascii;
    class       volScalarField;
    location    "950";
    object      ddt0(omega);
}
// * * * * * * * * * * * * * * * * * * * * * * * * * * * * * * * * * * * * * //

dimensions      [0 0 -2 0 0 0 0];


internalField   nonuniform List<scalar> 
13917
(
-0.00795752
0.000199212
0.00284371
2.29587e-05
-0.000101402
0.000232992
9.36906e-05
-0.000144042
8.15941e-05
-0.0536913
-0.000338854
1.62386e-05
4.44415e-05
0.121462
8.82638e-05
-0.00847485
-9.10595e-05
-7.39618e-05
0.00166492
-0.049709
8.44134e-05
1.23914e-05
0.000433188
1.24777e-05
3.56551e-05
8.28559e-05
-0.0331088
-0.0306662
5.41824e-05
-1.67755e-05
-0.030141
0.000893327
2.30787e-05
0.000193361
6.32986e-07
-0.000596566
3.95448e-05
-7.05913e-05
9.4164e-05
0.000189329
-8.14233e-05
7.0448e-07
5.03757e-05
0.00159531
0.00157097
0.00286904
7.9769e-05
-0.0298763
-0.544728
4.75117e-07
1.53154e-05
0.00156041
-0.0350718
1.52563e-05
1.62669e-05
0.00154551
-0.0654113
0.000431736
8.35482e-06
0.0030474
-0.0307707
-0.00167417
-7.96465e-07
3.33101e-05
0.0444404
0.00257542
3.47333e-05
-0.000515367
-0.000254712
-0.0081849
0.00146901
0.000482236
1.34643e-05
5.62958e-06
9.10505e-05
3.89477e-05
-3.70923e-06
3.84811e-06
3.7065e-05
2.45197e-05
1.98496e-05
-0.000102943
1.2156e-05
0.000592013
9.5323e-06
0.000162674
0.000858749
1.45383e-05
0.000171595
-8.17739e-05
-1.21739e-05
5.63734e-05
-0.337722
-4.61175e-07
2.1329e-05
5.62801e-05
0.0180994
-7.19064e-05
1.32502e-05
0.001381
-3.93365e-05
-3.59406e-05
2.07237e-05
-1.18733e-05
-7.96746e-08
0.0053853
-0.000423116
-0.00103707
2.78677e-05
-0.0450892
6.35316e-06
0.000462022
6.36669e-05
-0.0308554
0.0509458
4.09311e-05
0.00154798
-2.34909e-05
0.00234741
8.32463e-06
-6.65535e-05
-1.33338e-06
2.2565e-05
0.00125179
-0.0119467
0.00597496
3.15567e-05
9.83441e-05
3.82223e-06
0.00128848
0.000215828
0.00171776
0.0233587
4.04119e-05
0.00110167
-0.0534214
-0.0243003
0.000225196
8.12227e-05
-7.62057e-05
0.0524175
4.41629e-06
0.00314265
8.66649e-06
1.16471e-05
0.000361284
0.0042135
0.0110391
-0.0422052
1.56885e-05
0.000136445
-2.75906e-05
1.10062e-05
8.59154e-06
0.0188317
1.80481e-05
-1.11905e-05
0.019805
-6.84982e-05
-3.86556e-05
8.5241e-06
0.011783
5.9131e-05
0.0281439
0.00560566
0.00173023
0.02267
-0.0534781
-4.05156e-06
8.18927e-05
1.34857e-05
0.0208869
8.16832e-05
0.0132219
0.000780109
-5.14201e-05
2.31147e-05
0.00171758
0.00019609
6.44238e-05
5.02406e-05
1.30086e-05
1.54769e-05
0.00252216
0.0023822
0.00165026
1.521e-05
0.00248538
-1.66893e-05
0.000153106
0.000783614
0.00143323
0.00198204
-0.00107789
-3.0468e-07
-0.0123326
6.51637e-05
0.0320377
7.06145e-07
1.59351e-05
7.19316e-05
-0.00576603
-0.000744003
3.71704e-05
-0.0384267
9.47202e-05
0.000151768
2.74639e-06
0.00170034
1.97429e-05
2.76444e-06
-0.000335872
-0.000410301
-0.0509216
0.00105188
8.69555e-05
0.00893063
1.91026e-06
-2.98487e-06
-2.80406e-06
-0.0576245
0.00212524
0.00277048
7.01375e-06
3.16038e-06
-0.0656928
-0.00819532
-1.30519e-06
-1.11519e-06
-8.14475e-05
-3.56323e-06
-3.43025e-06
-0.000705683
-0.0897049
1.52299e-05
-4.2831e-06
0.000897124
-0.000319257
-7.97528e-05
7.4809e-06
-0.0441179
-0.00439401
0.00208892
0.00731036
0.00118244
8.5584e-06
-0.0431159
0.000941563
7.52196e-05
0.000994908
3.4628e-05
-0.0823731
9.35249e-06
0.000288494
0.000695165
1.58284e-05
-7.92023e-05
3.34894e-05
2.0648e-05
9.16815e-07
-0.000900632
-0.0152045
-4.38274e-06
-8.82399e-07
1.73295e-05
-7.50828e-07
9.30847e-06
4.60692e-05
0.000248535
-5.03299e-06
0.00536282
-0.000250751
1.25689e-05
1.51836e-05
0.00234099
-3.22594e-06
0.000896498
0.00146267
-3.30689e-06
-0.00547579
-8.72439e-07
0.0127406
-5.24922e-05
5.93299e-05
1.56699e-05
7.80074e-06
0.0021123
-3.11174e-05
0.0027742
8.75132e-05
0.040667
0.00047367
-0.00157572
-8.35903e-05
-3.77556e-05
0.000550581
-2.36822e-05
4.31615e-05
-6.91987e-05
3.67697e-05
-7.61712e-07
-1.69689e-05
0.00165524
-9.94404e-05
0.000268745
3.51052e-05
8.06369e-06
0.0231577
-0.0154661
2.70491e-06
-0.000201823
4.34749e-05
0.0110107
0.00191395
9.71529e-06
0.0143246
0.00126803
0.00145297
2.29414e-05
0.00177818
0.0150151
0.0029284
4.48341e-05
7.85558e-05
-0.0321471
1.4525e-05
0.000204793
0.0014071
-9.39433e-05
0.0191758
1.10041e-05
0.000408821
-1.13925e-05
-0.0956893
4.67588e-06
0.000236413
8.41396e-05
0.000582769
-6.18306e-05
0.00100031
0.0133093
2.01294e-05
1.47185e-05
0.00111996
0.0107249
0.0299398
0.204179
-2.71706e-06
1.55304e-05
-0.00189484
0.001499
-2.77769e-06
-7.22213e-05
1.54965e-05
0.000269326
0.000253869
0.00157339
0.00106581
0.00082822
0.000387909
0.000717445
4.34431e-06
2.00624e-05
-0.000148124
0.00234142
-9.43575e-05
-0.00655572
0.000389058
-0.000611895
1.77702e-05
0.00136496
-0.000216857
-0.254735
2.73295e-05
0.00274272
0.00245514
7.21706e-05
1.30378e-05
0.00328436
-1.92982e-05
0.013062
0.00212741
2.96115e-05
-0.422702
1.58169e-05
-0.00263936
-1.08903e-06
-0.050758
8.29855e-05
3.53048e-05
-0.0785408
0.000589704
3.06341e-05
0.00382192
0.00259307
3.21001e-05
0.00220395
1.51547e-05
0.000736039
0.00264939
1.0533e-05
8.94254e-05
3.5176e-05
7.84028e-06
6.88811e-06
5.01723e-06
-0.0378333
0.00136341
1.7631e-05
4.69636e-06
1.20763e-05
0.000503661
-0.0056881
-5.59411e-06
-4.14614e-06
0.00184983
0.00132144
8.40726e-06
3.47382e-05
0.00754091
0.227472
0.0082562
0.00174889
0.00148509
-1.34262e-05
-3.98722e-06
7.13782e-05
7.03678e-06
-5.16557e-06
1.60218e-05
-4.07056e-06
-1.23456e-05
-0.0562293
1.57383e-05
0.000241272
0.0048911
0.000536062
3.06318e-06
1.10699e-05
0.00603453
7.14604e-05
-0.0109366
-7.32787e-06
8.63082e-06
-1.85253e-05
-4.07788e-06
3.90124e-05
1.53663e-05
0.0089691
-0.000582356
-0.00144419
8.60114e-06
0.000254133
-0.000639714
1.85953e-05
0.00114879
0.024145
1.50393e-05
-0.02638
3.46029e-06
8.75154e-06
1.10947e-05
1.63344e-05
2.73647e-06
1.80319e-05
0.0195672
0.000618619
2.48669e-06
-0.00206052
0.0018453
1.52715e-05
0.000628898
0.00105359
0.00253571
0.000102228
0.00911816
0.00555034
0.00403597
1.56482e-05
0.0014503
-0.00107821
3.29226e-05
0.00855263
-1.77518e-05
1.48105e-05
2.14569e-05
8.51459e-05
9.3709e-05
0.00225805
0.00062563
-8.28381e-05
8.36111e-06
-0.000105022
0.000469419
1.80294e-05
0.0958603
0.000246902
8.85553e-05
0.016652
1.06988e-05
0.000482895
0.00186902
6.02455e-06
0.0117653
8.61194e-06
-4.07321e-06
0.000535731
-7.41065e-06
9.49201e-06
0.0016133
0.0220522
-0.0258974
8.89949e-06
2.60248e-05
8.42379e-05
0.00619137
0.0143199
1.71413e-05
1.5606e-05
8.86325e-06
0.000627546
-0.00882029
3.3075e-06
-7.8575e-05
1.58518e-05
7.98212e-06
-1.64997e-05
0.000105943
-3.04805e-05
0.000641543
6.0447e-06
1.2441e-05
3.32962e-05
0.000402127
7.20253e-07
4.67244e-05
9.9556e-07
0.000230983
0.000791831
0.000155411
0.000726867
0.00158771
3.02751e-05
-8.42407e-06
0.0443288
-0.0530716
0.00521649
1.65275e-06
1.06456e-05
-0.000397937
1.069e-05
0.0524317
-3.49068e-06
-0.020596
6.61607e-05
0.113599
0.00108972
5.02113e-05
0.0422544
2.3771e-06
0.000865954
-5.5541e-05
-2.53004e-06
0.0674181
-6.3538e-06
0.00283894
-1.12966e-05
2.77713e-05
1.11475e-05
0.00222767
-9.79119e-05
2.54948e-07
0.00161426
0.000601598
-0.00542773
0.000323114
0.0270775
0.0018759
7.84463e-07
-0.00724136
-1.69835e-05
-0.0215217
-0.000535628
-7.3612e-05
0.000443792
-3.52922e-05
0.000234457
4.83887e-05
-6.17042e-06
-5.34028e-05
3.8274e-05
0.00151416
8.80658e-06
0.000795117
1.41348e-05
4.12546e-07
-6.77962e-05
0.00202894
0.0266417
0.0134271
0.000917417
0.000105345
0.00380718
-0.000292721
-1.38681e-06
0.0445007
3.61545e-05
0.00154082
1.05371e-05
0.00327047
7.69394e-06
-4.36631e-05
1.1373e-05
-0.00424127
0.000256603
0.0201566
-2.3718e-05
0.000223981
1.08745e-06
-3.59859e-05
0.000942998
0.00174591
-4.25368e-07
0.00175629
7.46005e-06
-1.85254e-05
-2.66269e-05
0.000855212
9.10657e-06
-1.48158e-05
-3.5104e-06
1.55466e-07
0.00227595
-2.9048e-05
0.00160481
-0.00011136
4.82656e-06
-0.031841
0.000835013
1.64568e-05
-0.0296236
0.00286099
0.000930003
0.00188231
2.22701e-06
0.000101598
0.000752832
0.00318196
6.72867e-05
3.9508e-05
3.40194e-05
-7.66283e-05
6.04365e-06
0.00826079
0.000863265
5.27882e-05
-0.00341225
0.000268466
0.00209979
0.0217479
0.000454543
0.000217123
0.00196358
-0.00339483
-4.64273e-07
0.000243492
0.0101997
5.01862e-06
-2.41985e-05
-6.73432e-05
-2.14971e-05
1.71593e-05
-0.00740746
0.000267128
-5.69482e-07
0.00130517
-2.3039e-05
0.000378787
-9.90625e-07
3.50185e-06
0.0169059
0.000736118
-0.00287424
1.45884e-05
-2.20894e-05
1.99754e-06
1.92718e-05
0.000117928
7.36681e-06
-0.00397107
0.000111117
-0.0190921
-0.00154305
0.000215309
0.030238
2.59879e-05
-2.77389e-05
6.37475e-07
0.000875584
-0.0269169
7.012e-05
-0.0127961
0.0196172
4.66764e-06
2.94066e-06
3.93343e-05
0.0123232
0.00817817
0.000258736
1.96081e-05
4.6527e-05
0.00161163
1.70644e-05
0.00155357
0.000269524
2.0539e-05
2.46304e-05
-3.44757e-05
0.000115592
1.71238e-05
0.00258356
4.59255e-05
-0.000278761
-0.00443401
-5.30471e-05
-0.0162536
3.65654e-05
0.000146134
6.72005e-05
0.00279269
-5.70985e-05
0.000815581
0.0379003
0.00193128
1.05656e-05
4.62026e-05
-9.75182e-06
9.74353e-06
1.10462e-05
-5.80595e-05
-0.000787049
0.00189295
0.00160916
1.92763e-06
0.00269348
8.13052e-05
8.4733e-05
0.00179805
1.62305e-05
0.000864252
0.00085774
1.03704e-06
0.000737536
0.000948348
0.000261318
4.6242e-06
3.19082e-06
5.8022e-06
-0.0115179
2.2325e-05
-1.23147e-06
0.000394014
7.5498e-06
2.80586e-06
0.00146228
0.00277232
-0.000190032
0.0771275
0.000218654
0.00312259
1.1089e-05
-8.66061e-06
0.00308585
-6.58657e-05
0.0055045
-7.64741e-05
-2.44723e-05
1.439e-05
4.9008e-05
0.000210601
4.51865e-06
0.0268337
1.45959e-05
5.63354e-05
3.69948e-05
0.000103291
-1.11436e-05
0.00100215
6.87692e-05
0.0146796
-0.000166407
-0.000109098
-0.000330702
2.54102e-05
0.000224422
4.30658e-05
0.000399668
1.58442e-05
9.22547e-07
1.02732e-05
0.0156596
0.000112749
-0.00462484
0.139147
9.18847e-06
0.000265488
-4.37039e-06
0.000170751
0.0189339
-5.01322e-06
-0.0315474
4.8373e-05
0.000588236
0.00148252
-0.00177824
-1.13246e-06
-1.75722e-05
0.00117038
2.12743e-06
1.46379e-05
3.00754e-05
1.00051e-05
0.000395011
-1.06571e-06
0.000478972
2.0455e-05
-0.00483833
0.000721584
-0.00853161
-0.00459468
-0.0225277
-0.0116291
0.0444179
3.69259e-06
-4.3416e-05
1.22449e-05
2.50052e-05
8.99436e-06
0.000115276
8.73167e-06
-0.000398307
1.53321e-05
0.0053183
2.09868e-05
0.000182016
0.000978936
1.06132e-06
0.00022539
2.4913e-05
3.8602e-06
7.65468e-05
-1.89413e-05
0.0310931
0.000940073
0.0202014
2.4219e-06
5.61245e-06
1.36987e-05
1.56654e-05
0.00846157
3.99287e-06
0.00140004
7.60122e-06
0.00457337
4.71673e-05
8.95882e-06
0.000842556
-0.00105741
4.09868e-06
-0.00162929
0.0211055
4.09953e-05
0.00101139
1.41421e-06
0.0013962
-2.7148e-05
1.54876e-05
0.00204652
-4.19219e-05
2.47226e-05
0.00126165
0.00122905
-3.60298e-05
-0.33255
0.00351646
3.73243e-05
1.21285e-05
1.06333e-05
0.00175799
6.24343e-06
0.00174344
1.45472e-05
0.012825
5.97279e-05
-0.00535223
5.11742e-06
-8.13121e-06
0.00303324
1.94628e-05
-3.56459e-05
0.0658371
2.93493e-05
5.93385e-06
-0.113072
4.24756e-05
-5.28828e-05
0.000861686
3.09867e-05
0.0515737
0.00021053
0.00104081
0.00178025
4.5737e-05
0.0103746
2.29651e-05
0.000793405
8.04997e-06
0.00398702
0.00599851
1.40158e-05
-2.90071e-05
-5.20468e-06
1.72626e-05
-3.55095e-05
-5.50333e-06
-6.47667e-06
9.75311e-06
0.000110466
9.19419e-07
2.74345e-05
0.000946117
0.000369852
0.009491
0.0011532
1.37403e-05
0.00255738
8.89176e-06
0.00270225
0.0150537
0.0292778
-3.59925e-06
3.84596e-06
1.49015e-05
1.36016e-05
-3.51688e-06
-1.77655e-05
9.24851e-06
0.000237477
5.94432e-06
-0.0958886
-0.048775
5.36875e-06
0.02483
7.93419e-06
5.36355e-06
-0.000697054
0.00146515
0.000548993
-5.23089e-05
-0.00230486
6.15174e-07
4.36252e-06
0.0033657
-3.78208e-05
0.0111614
2.52185e-05
0.000833866
3.27531e-06
-2.99898e-06
7.6143e-05
0.00483186
2.99374e-05
-5.07525e-05
2.71265e-05
-5.78257e-06
9.58535e-06
6.16612e-06
2.88315e-06
0.00132519
0.000248588
5.06136e-05
0.000339067
-0.139591
0.00571302
0.0014165
-4.83232e-06
0.00163018
-1.59679e-06
0.00817788
0.000661764
9.08488e-05
2.7629e-05
-0.00636626
-0.020694
0.00359838
-5.47425e-05
0.00165463
-3.11558e-05
8.87608e-06
0.000276094
1.97433e-05
1.40389e-05
0.00209122
-0.00107254
-2.78278e-06
0.000115079
-4.85179e-05
-8.01503e-06
-2.63101e-06
0.00516132
0.0029244
2.38318e-05
-1.5842e-05
8.55429e-05
1.09765e-05
3.66101e-06
-7.61763e-05
5.68341e-05
1.15586e-05
0.00158358
-0.000186999
0.0148896
0.00239587
-0.000176107
0.00309924
1.48098e-05
2.02718e-05
-0.0046749
0.00200647
-0.00667632
-0.000249724
7.42312e-05
1.56251e-05
2.51123e-05
-2.68888e-05
0.011029
-1.96019e-05
1.57095e-05
0.000602308
7.93792e-06
0.00250977
0.000960462
0.00171939
0.000798866
0.00322118
0.0112638
0.0268177
0.00422095
-8.05845e-05
0.00314114
-2.91561e-06
0.000592139
0.000901945
0.00618642
5.54041e-05
-3.15499e-06
6.13713e-05
0.0028958
3.0451e-05
0.00217295
0.000205328
0.00100895
0.00593511
-2.48438e-05
0.00150651
3.40583e-05
1.41395e-05
-0.000222424
0.0113567
-1.13991e-05
1.54939e-06
2.75559e-05
0.00284312
5.5516e-06
2.94151e-05
4.92055e-05
2.30073e-05
1.31882e-05
0.0010057
0.000967504
1.55237e-05
1.91817e-06
0.000389414
0.00139537
0.000184375
0.0137059
1.60483e-05
7.22863e-06
-0.0279999
-1.5103e-06
3.15855e-05
0.00622188
0.00265322
-6.39553e-05
0.000581762
5.75168e-05
-0.0110083
0.00157776
8.77165e-05
0.0018379
2.99721e-06
0.000944863
0.00418925
0.00250834
0.000411376
-0.2009
-1.14903e-05
1.20643e-05
3.45295e-05
1.34826e-05
1.23331e-05
0.00264334
-3.75621e-05
0.000379708
1.9235e-07
0.000755532
0.00374045
3.11745e-05
0.00637851
-0.00806983
7.69748e-06
0.00106788
6.20336e-05
2.82324e-05
9.57045e-06
0.00322441
0.000889488
-0.00311776
6.60792e-05
-0.0558297
0.000968058
-2.65225e-05
-0.0105234
0.000213985
0.000273876
9.04002e-06
0.00274298
9.53143e-06
4.92334e-05
8.55791e-05
5.4607e-05
1.62012e-05
0.000642412
-0.0179802
9.03225e-06
0.00182498
0.000180285
1.46736e-05
8.71415e-06
0.000297829
0.00240258
0.00441483
1.65066e-07
0.000170625
-0.00139155
0.0173464
-0.00314542
1.3128e-05
6.99282e-06
-1.11412e-05
6.1918e-06
-1.40728e-05
3.81841e-05
0.00380814
1.60031e-05
5.28341e-05
0.00240612
-0.00136011
0.00111828
0.00398889
-0.048841
1.46882e-05
-6.01584e-07
6.96799e-06
2.64999e-05
0.000970706
0.0408783
0.0199086
0.00103414
6.80685e-05
0.000535011
4.58682e-05
0.000130124
4.748e-05
0.00152689
4.23005e-08
0.00119321
0.000677322
-5.32211e-07
1.32509e-05
0.00337055
0.000458815
-0.00236005
0.00769205
0.00151552
2.33146e-06
0.00189124
-6.35832e-06
1.01466e-05
0.045001
-0.00636822
3.28814e-08
-7.41106e-05
0.00145212
0.000112607
2.29283e-05
-1.05454e-06
8.83514e-06
2.60557e-06
9.02707e-06
0.000116282
0.000406157
-0.000270432
0.000125337
7.01483e-05
0.000182815
0.000916623
1.41346e-06
9.14275e-05
0.00287491
0.00305472
-0.000183189
2.77842e-05
-1.07533e-06
0.00282413
7.64926e-06
-0.0108896
3.07e-05
0.000235201
1.80067e-05
7.60254e-06
0.00325389
7.2393e-05
2.62804e-05
5.92577e-06
-0.0644926
0.00346209
-0.000301451
1.29236e-05
1.20657e-05
-0.313483
-3.69013e-05
-1.37467e-05
0.00124487
-0.00663844
6.2256e-05
0.00019504
2.1641e-05
0.00449727
8.98087e-06
1.49067e-05
1.60944e-05
-9.0656e-07
0.00315586
9.09697e-06
2.40332e-06
0.00137672
0.000739754
-0.0201378
0.00263683
9.19565e-06
0.000143913
2.97795e-06
1.83752e-06
9.8721e-06
2.49977e-05
1.45961e-05
0.00287475
1.32209e-05
0.000820203
-0.000185069
0.000123732
1.09973e-05
0.000117918
4.73293e-06
0.00442733
-9.46823e-06
0.00186872
0.000892237
2.67824e-05
0.000583277
0.000195489
0.000149928
1.3201e-05
0.000229059
4.8645e-06
-6.28515e-07
-0.00244616
0.00018341
-0.00100107
-8.57297e-06
7.03126e-07
2.70433e-06
-0.000129949
8.02581e-06
0.00702179
0.000397181
-4.94666e-06
8.37208e-06
-1.26416e-06
0.000385176
-0.000384114
-0.0314832
0.00278095
0.0046122
8.47565e-05
0.00110184
3.47809e-05
0.0318464
2.14872e-07
-9.1839e-06
4.86777e-05
0.0125143
-1.35614e-06
0.001846
1.36003e-05
-1.24819e-05
0.00130813
0.00280019
-0.0129821
0.0293769
6.43038e-05
0.00137379
-0.000127026
-7.00141e-06
0.028944
7.94636e-06
-4.85154e-05
0.00403008
-8.03026e-07
0.00342071
0.0169055
7.39806e-06
1.0327e-05
-5.69153e-06
0.0374808
-7.25898e-05
-1.099e-06
0.000980052
1.00918e-05
2.73259e-06
-9.61642e-05
-1.05901e-05
0.000439676
1.39717e-05
1.64946e-05
3.33591e-06
-0.000665787
-0.00536623
3.53427e-06
3.56856e-06
2.3181e-05
8.82326e-06
4.7899e-05
1.36926e-05
-2.90453e-06
1.39156e-05
1.35874e-05
2.4797e-05
1.25928e-05
1.70747e-05
-1.15775e-06
0.0010038
1.21541e-05
0.00018062
-1.08515e-07
1.41661e-05
7.61222e-06
-8.95619e-06
0.000137891
4.78841e-05
7.01071e-05
-0.030661
0.00154603
0.0156628
0.00467294
0.00103247
-0.00166114
1.2351e-05
1.18799e-05
0.00169856
0.00684636
8.07868e-06
-0.00108812
-9.61767e-07
0.00181575
0.0223174
4.51085e-05
0.00101826
0.213531
0.0265808
-2.28978e-05
0.000483118
5.59667e-06
0.0668394
5.21941e-05
0.00711333
-0.0538536
1.58479e-05
-0.00380949
0.0024554
-0.000103968
0.00638271
-0.00252053
3.18433e-05
7.63456e-06
-0.0044399
0.00177433
-7.28744e-06
0.00018858
1.63749e-05
0.00262432
0.00158469
1.36548e-05
-4.53812e-08
0.00439308
1.31263e-06
7.68484e-06
2.00145e-05
1.62376e-06
0.00178479
6.77538e-05
0.000112467
0.00107119
8.9636e-06
0.000232376
1.223e-05
0.0025309
0.000545169
0.0101583
-3.91193e-07
0.000104135
-3.31273e-05
-2.73898e-05
4.9284e-05
1.28416e-05
0.00626194
2.64501e-05
1.53499e-06
8.94962e-06
-0.00331525
7.38163e-06
-0.0109407
0.0355278
-0.0967896
1.04757e-05
7.28473e-07
9.12054e-06
-0.106323
1.65468e-05
0.00201295
-2.50448e-05
0.0181237
3.0157e-05
8.40162e-06
0.00309457
1.41487e-05
-7.93836e-05
0.00186729
0.00151304
0.00201049
-2.41243e-07
0.0731543
0.305363
1.29223e-05
7.52883e-05
1.45845e-05
4.41246e-05
-0.0338453
3.30141e-05
9.58404e-05
-0.00035549
7.84808e-05
0.000827087
1.00602e-05
0.00438355
8.21105e-06
-0.00892556
9.19725e-06
-0.00388369
8.03394e-06
8.73913e-06
1.83956e-05
-0.00515868
1.07794e-06
0.000915144
0.000559568
0.0330498
9.39794e-06
6.50186e-05
0.0384301
0.000284075
0.00132608
0.000874529
-3.0965e-07
0.00146589
0.0185
3.99703e-05
0.00312749
-8.72302e-06
0.00187783
-0.0142418
9.42617e-07
-0.00295178
8.08663e-06
0.0362304
0.00372707
3.77157e-05
6.38636e-06
0.0034728
0.0194439
6.01988e-06
2.99617e-05
1.27114e-06
1.36178e-05
0.0221674
0.000669376
0.00327274
1.08928e-05
7.79519e-05
0.00447744
1.4088e-05
-0.190717
0.00175387
1.02531e-05
7.67174e-06
0.00238959
0.00638971
-0.00542176
0.0193811
0.00249961
0.000146567
-3.37719e-05
0.0454688
0.00359826
0.00256816
7.98813e-06
0.000941945
0.000367924
0.000753654
1.19003e-05
8.75712e-05
0.000597241
0.00124272
-0.0590067
4.6364e-05
-0.00422891
0.000914242
7.73289e-05
6.90831e-06
7.41412e-06
-0.00590542
3.80569e-07
0.0229391
8.29298e-05
8.95894e-05
0.0016963
-0.000831641
3.40665e-06
0.000215877
0.000134851
1.22105e-05
0.0562233
6.89304e-05
0.033521
-1.52507e-06
4.8895e-05
0.00335097
0.00246475
-9.12529e-06
5.74762e-05
7.53051e-05
0.000892858
0.0013244
0.00086358
0.0199633
0.00287595
-6.48248e-06
5.6276e-05
3.0108e-06
0.00168144
-0.00968478
-2.63596e-05
3.17317e-06
2.77177e-05
0.00138271
0.000787098
-7.1175e-07
0.000364508
0.0016596
6.65177e-06
-0.000993518
3.84928e-05
0.0337245
4.82016e-05
0.0253371
0.000507028
0.000108866
4.33343e-05
0.00372503
8.6052e-06
7.60271e-05
-0.000875485
3.11082e-05
0.000533593
0.000193482
0.000721259
0.00733607
0.0801169
1.01178e-05
0.0291486
0.00201166
-8.20436e-07
0.00184964
0.000760276
0.00119095
0.0056481
0.00157756
-0.00880224
0.00134244
-2.49035e-05
6.27683e-05
0.000910707
-7.2281e-06
1.33551e-05
1.3004e-05
4.88001e-06
0.00316984
0.00115982
-1.12765e-05
0.000178695
0.00232077
8.4108e-06
0.000932497
0.0226848
-1.82057e-05
1.57628e-05
7.1244e-07
2.46243e-05
0.000432299
7.94574e-06
-0.0537038
0.000132491
0.00078334
5.90569e-05
0.000710556
-0.000370095
0.000160141
-0.00487267
1.21548e-05
2.59947e-05
-1.0509e-05
-9.33688e-07
0.0531501
0.00140523
6.31529e-05
-0.0510711
1.18633e-05
1.78601e-05
8.3301e-05
-7.46652e-07
-6.29494e-06
0.000645175
5.96199e-05
0.000589053
-0.0409905
0.0233738
9.68829e-06
-0.0194632
9.40866e-06
0.00355758
3.19884e-06
0.00193976
-0.00561467
1.04832e-05
0.00184156
-8.27951e-05
7.43422e-05
1.92428e-05
-3.49325e-05
6.32623e-05
0.0391392
1.4151e-06
1.59156e-05
-2.02236e-05
-7.11475e-05
0.00271605
2.61902e-05
6.07167e-05
9.50383e-06
-4.27325e-05
0.0038652
0.00018662
1.79031e-05
0.00169059
0.00139664
0.0104296
-0.0115562
1.7962e-05
2.19686e-05
-0.000347716
1.20504e-05
0.000796138
1.0109e-05
0.0138186
-2.17596e-06
1.43091e-05
-0.000147065
0.0130347
7.48986e-06
-5.21364e-07
2.37957e-07
0.00225207
-0.132804
0.00144582
5.36077e-06
3.48352e-05
5.76992e-06
0.00221955
8.62285e-06
0.00174031
0.000704491
1.19469e-05
0.00239895
0.000157091
0.0220943
1.71868e-05
-1.32891e-05
0.00010613
8.19347e-05
0.00128178
1.39629e-05
1.8059e-05
-2.61615e-06
0.00161284
9.01862e-06
2.31067e-05
0.0836488
3.03352e-05
0.000326985
5.29479e-05
3.25001e-06
-4.38174e-07
0.0112469
4.25033e-05
0.103482
-0.00174631
-3.20892e-06
0.0915892
1.80306e-05
0.00129195
0.000391101
2.47901e-05
-8.26059e-06
-3.08761e-06
8.21668e-06
-0.0516323
0.000497691
0.00503522
0.00028817
5.08468e-06
-0.000858994
0.000147436
0.00443118
9.32557e-06
0.0879843
0.113993
-0.00162124
-2.36262e-06
3.17508e-05
1.90346e-05
0.0370105
0.0504228
5.87435e-05
8.29115e-06
0.000145696
-0.0609337
1.34769e-05
3.28174e-05
2.84227e-05
0.0017899
0.0039507
8.14537e-07
0.00599617
7.02856e-05
7.20433e-06
0.0280706
0.000688327
0.16945
-0.0325261
8.0673e-05
5.23786e-05
2.36119e-05
5.85e-05
1.96965e-05
-4.35228e-05
0.000187164
-2.72378e-06
5.124e-05
0.00266257
-0.0145909
1.29473e-06
0.00124078
-0.0216163
0.0742437
-4.24239e-06
1.24131e-05
-0.00336203
0.000786151
0.000169615
7.21493e-06
-0.0117021
0.000905789
-4.36288e-06
0.000850692
6.37282e-05
1.43427e-05
0.00281432
9.93207e-06
0.00032677
3.71416e-07
-1.3414e-06
1.11999e-05
3.08646e-07
0.0479927
-9.26889e-06
1.04497e-05
0.000948246
6.70212e-05
4.35065e-05
0.00187132
1.32942e-05
6.03753e-06
2.89484e-05
2.40592e-05
0.00126588
0.0043144
0.00405572
0.00179157
0.0001705
-0.0078175
-0.000638529
0.00788651
-0.0543999
0.0194558
3.58819e-06
7.8392e-05
9.25688e-06
1.2922e-05
-1.16235e-06
-1.52569e-05
0.00285312
0.000774136
9.50587e-05
8.27471e-06
7.6909e-06
0.000722144
1.56967e-05
1.7223e-05
1.32299e-05
0.00471046
0.000110549
-0.00830912
8.20779e-06
-0.0015179
1.88037e-05
1.3777e-05
1.56192e-05
0.0003972
7.2489e-06
0.00102863
0.000547203
0.000163882
0.00363351
0.0128606
-0.000117301
7.81668e-05
0.00736116
0.0013496
-1.16782e-05
-1.68849e-06
-3.42277e-06
9.41679e-05
-1.87676e-06
0.000468795
0.000568898
0.000901274
0.0343986
-0.00794055
0.00082046
0.0523175
-9.80244e-06
1.2422e-06
-0.0702102
0.00433624
1.14459e-05
1.01233e-05
-0.121486
8.00426e-06
0.0023435
2.60978e-05
3.81865e-06
4.73906e-05
1.08319e-05
0.000816573
0.00138081
0.000113161
5.49325e-05
-1.02459e-05
0.000756524
2.6033e-05
0.000839811
4.78824e-06
0.001962
0.00128699
1.72096e-05
1.37103e-05
-3.56923e-06
0.00127214
-0.000559675
0.00249412
0.00205117
9.48631e-05
-0.00100035
0.0009643
0.00165407
0.0336009
9.64428e-06
0.000951615
2.39011e-05
0.00544396
0.00301779
0.00051755
0.0403057
-0.000114537
0.000514816
-0.0718176
9.99889e-06
-0.00218721
1.28187e-05
1.1804e-05
7.95933e-05
2.02981e-05
0.000159385
0.00290311
0.00476809
-0.0231913
6.3882e-05
0.000136875
2.56473e-05
1.32794e-05
1.14738e-05
0.00152591
0.00118173
0.00671163
0.000317029
-1.18674e-05
1.80307e-06
1.49008e-05
0.00289846
4.01462e-05
1.41581e-05
4.85931e-05
0.000774371
0.000173891
7.75255e-05
0.000228528
0.00283291
8.89381e-05
0.000191944
9.42542e-06
8.08566e-05
0.0016146
0.0226087
0.000151907
-8.58237e-07
0.0556854
0.000166693
6.8571e-06
0.000450199
0.0024827
0.00886368
8.1146e-05
7.93722e-06
0.00396884
1.80385e-05
6.69783e-06
-1.23194e-05
-0.0126705
0.00362582
-0.000133979
0.00678599
0.0255874
2.62071e-05
0.000219314
0.000611605
0.0328681
0.000101696
0.0498908
1.79549e-05
-0.00314767
0.000444584
0.0664368
0.000187288
-1.66889e-06
0.00406451
1.52794e-05
2.33403e-05
0.00686098
0.00356369
0.00136011
0.00172591
5.74705e-05
2.80824e-05
0.0019942
7.19296e-06
9.14131e-06
9.46408e-06
0.000371187
9.39366e-06
0.000127558
2.80803e-05
0.0767747
0.00626906
2.146e-05
-0.00568736
3.23682e-05
0.00131565
0.00249049
1.02679e-05
1.4778e-05
7.29961e-05
0.000301941
0.00264516
0.000751504
0.00139823
0.00270377
0.00301788
4.51639e-07
0.00438766
-0.0019952
-0.000520243
0.00439309
1.41584e-05
8.78739e-06
8.5594e-06
2.31642e-05
1.12512e-05
0.000201716
-0.000504777
0.000124469
-0.00198892
-0.0726076
0.00254814
0.0169574
0.0128196
4.44084e-05
0.0508924
0.00141542
0.000980787
3.00688e-06
1.06254e-05
0.000857809
-0.00160545
1.7015e-05
0.0284431
0.00756624
3.60009e-06
1.23342e-05
-4.82968e-06
0.000886635
1.88184e-05
0.000837998
0.000746862
1.10443e-06
6.21092e-06
3.79665e-06
2.26235e-05
0.00142101
0.000418808
7.75525e-05
0.00940251
0.00128981
8.92573e-06
0.000945796
0.00135086
-8.01491e-05
0.00397357
0.00496144
0.00513783
0.00075572
-0.00115706
9.3478e-06
0.000214748
-5.07582e-05
0.001785
-0.00260189
-8.23848e-07
3.17709e-05
3.78104e-05
3.97935e-05
0.0155919
0.000732002
1.4663e-05
7.30161e-05
0.0045083
3.19828e-05
2.65978e-06
0.000150492
0.0179503
0.0127356
1.35047e-05
6.31239e-05
0.00132035
8.39183e-06
6.80848e-06
-0.00637275
8.33042e-06
0.00283778
-0.000112361
0.0192042
7.06771e-06
0.000593287
0.0019762
6.29857e-06
-6.67031e-06
-0.0452178
0.00425404
1.46333e-05
0.000164739
0.0021443
0.00295691
0.0228004
0.00658716
5.4046e-05
0.00320119
0.00271757
0.00017262
9.3813e-06
-0.000268213
6.52765e-07
-9.30702e-06
-0.000205216
0.000126956
0.00112775
5.18969e-05
9.00803e-05
5.61131e-07
-9.83529e-07
2.09194e-05
2.44034e-05
0.0352191
4.84732e-05
0.00194017
-0.000865369
0.000294752
0.000874991
0.0285471
0.0688607
0.0579609
-2.5699e-05
5.73601e-05
0.000183384
5.14339e-05
0.00216009
-0.000272176
2.01388e-05
0.00323449
0.00121015
5.69843e-05
0.00127975
0.000937112
0.00142528
0.00156437
2.94311e-05
0.00178029
0.00199928
0.00214658
0.00220108
0.00167043
0.00103419
-8.08154e-06
9.7288e-06
0.000178896
0.00125624
7.75542e-06
0.00351396
0.0404098
0.00181079
0.00391582
-5.45607e-06
-1.47649e-06
-0.00173505
0.0225822
2.31139e-05
3.77368e-05
0.000883131
-0.0615416
-0.0275342
1.28475e-05
9.52983e-05
5.72648e-05
0.0157476
0.0063447
5.26452e-05
0.00308208
-0.000126316
0.0014067
0.025591
0.00116156
0.0951011
0.0338984
-3.69134e-06
0.0752388
0.000609961
2.48595e-05
0.000728775
0.00113162
4.34511e-05
6.19088e-07
0.00594885
0.00803339
-1.89626e-06
-2.02023e-06
0.00525809
0.00469985
0.000866027
1.59788e-05
0.00265676
0.00178238
0.00588176
0.00375898
1.15863e-05
7.78631e-06
2.23336e-05
-8.77264e-07
0.0651812
-0.211383
0.0126336
0.00114985
0.00295907
0.00309119
-4.81857e-06
8.69338e-06
1.15363e-06
-1.21108e-06
0.0563942
-1.78054e-06
0.0204243
2.61435e-05
2.20533e-05
-0.0270028
9.75183e-06
0.00162611
0.00396871
4.80226e-05
3.27574e-05
2.83903e-05
0.00245742
0.000152784
0.00169142
0.00263556
-5.07755e-05
-4.95263e-05
0.000103769
0.000818577
0.0552713
-0.0420593
0.00109547
0.00263315
0.00181771
0.0025257
-4.10635e-05
-2.1788e-06
1.17277e-06
3.07733e-06
0.0028284
-7.1513e-05
0.0282744
0.000162613
0.00213759
7.24841e-06
-0.00056996
-0.000259665
0.00993773
5.6949e-06
2.98921e-05
-1.56049e-06
0.000318638
0.00417338
-0.00994149
0.00284805
0.00175428
0.00313772
-3.50837e-06
0.00026679
0.00169147
0.00283601
0.0043949
1.44843e-05
0.00192117
1.71011e-05
1.47366e-06
0.00101221
0.00847512
0.000487771
1.47417e-05
0.000943962
0.00154807
0.0178423
-0.010808
0.106754
0.0230227
2.23676e-06
0.000655085
9.83681e-06
0.00200004
2.4545e-08
0.00128051
2.23692e-05
0.000470459
0.00140884
0.00583524
-7.25291e-05
0.00106362
0.000198357
0.00178701
2.78962e-05
0.00990067
0.00162199
-7.80465e-05
1.0564e-05
0.0180783
0.000100591
0.00145887
0.00333745
0.0561459
0.000424507
-0.00012457
0.0240451
0.00106925
-0.0439205
0.00102407
0.000148581
0.00152484
0.00134864
0.088968
0.00117903
2.10109e-05
0.00396286
0.000463377
0.00330291
5.97161e-05
-0.0169126
0.00124762
0.00443321
8.74346e-05
-0.0116815
3.96614e-05
0.000809607
0.00178551
0.00244608
-0.0117197
7.39315e-06
-2.11189e-06
-6.55521e-05
0.0759525
-1.00497e-05
1.9648e-05
0.000191611
0.0001117
0.0277721
-5.71332e-05
0.000822559
5.40966e-05
0.00152266
0.00145718
-0.0457716
2.02866e-05
0.00275572
0.00758235
-6.25061e-05
0.00120663
-4.07948e-06
4.91265e-05
1.24339e-05
0.00389838
8.94565e-06
1.00564e-05
0.0366854
-0.000130511
2.70035e-06
0.0670585
2.38959e-05
1.05598e-05
9.41035e-06
3.81662e-07
1.44063e-05
0.00438948
0.0199067
-1.42557e-06
0.0262892
0.00087438
0.000525322
0.00333885
0.00121242
5.13432e-05
0.000194965
8.33514e-06
0.00336208
9.96552e-05
0.0648816
7.14252e-06
-0.00356122
0.00411966
0.000798211
0.00367553
0.00318134
4.56196e-06
-0.000447365
0.000578667
0.000809445
-0.000297488
7.71923e-06
0.000187988
0.00279373
1.1678e-05
-0.00245541
6.23114e-06
0.0351695
0.00206087
0.0239256
0.00225437
0.0024984
0.0427343
1.38943e-05
-9.00076e-08
0.000806364
2.93712e-05
1.47763e-05
1.53047e-05
5.99955e-05
6.81396e-06
8.86605e-06
2.66594e-05
0.000143568
3.21696e-05
5.75287e-05
2.25338e-05
0.000154105
0.00153364
3.53002e-05
0.0395385
3.35254e-05
9.41783e-06
0.00134412
0.000404347
1.46584e-05
6.26612e-06
0.0165776
4.23775e-05
0.000341242
4.55997e-05
0.00142691
8.86409e-06
9.17814e-06
0.00090467
0.0311437
0.000927132
8.26645e-05
-8.27614e-07
0.00521937
1.25589e-05
9.0814e-06
0.00103028
4.75237e-05
0.0018994
0.000164544
0.00137671
0.0018599
0.000187023
-0.00258168
1.16844e-05
1.38807e-05
0.000658416
0.00264273
0.000764003
0.00123547
0.0106372
5.97524e-05
1.31537e-05
0.00010462
0.00288962
0.000759593
1.16582e-05
0.0014845
0.00145758
0.000736932
1.33336e-05
9.7747e-06
0.00239361
0.000696336
0.00639909
0.00282991
3.11713e-05
0.000896478