/*--------------------------------*- C++ -*----------------------------------*\
| =========                 |                                                 |
| \\      /  F ield         | OpenFOAM: The Open Source CFD Toolbox           |
|  \\    /   O peration     | Version:  v2012                                 |
|   \\  /    A nd           | Website:  www.openfoam.com                      |
|    \\/     M anipulation  |                                                 |
\*---------------------------------------------------------------------------*/
FoamFile
{
    version     2.0;
    format      ascii;
    class       volVectorField;
    location    "950";
    object      U;
}
// * * * * * * * * * * * * * * * * * * * * * * * * * * * * * * * * * * * * * //

dimensions      [0 1 -1 0 0 0 0];


internalField   nonuniform List<vector> 
13917
(
(0.739181 -0.00129838 0)
(0.994994 0.0230125 0)
(1.06975 0.0231265 1.60142e-20)
(1.03062 0.00950248 0)
(0.997029 0.00039599 2.69135e-21)
(0.995259 0.0216566 1.32031e-21)
(1.04226 0.01798 0)
(0.982662 0.0409227 -2.28591e-21)
(1.04768 0.00884229 1.60773e-21)
(0.00350782 -0.0691815 0)
(0.984876 0.0395094 1.21383e-22)
(1.02339 0.00909003 0)
(1.01032 6.09774e-05 0)
(0.959237 0.0904396 -7.46733e-22)
(1.0022 0.0146122 0)
(0.704273 -0.00373863 0)
(1.02161 -0.000256296 3.6647e-23)
(0.990543 0.0397483 -7.134e-22)
(1.06467 0.0298211 1.64954e-20)
(0.706049 0.0107103 0)
(1.0161 0.0337802 5.6159e-21)
(1.00968 0.00316857 0)
(1.05208 0.0267182 1.33652e-20)
(1.00962 0.00280957 0)
(1.02867 0.0167385 -9.0864e-21)
(1.01276 0.0349204 -1.50932e-22)
(1.01697 0.0581423 0)
(-0.00551525 -0.0508122 0)
(1.00252 0.0383256 0)
(1.04397 0.00242224 2.16827e-23)
(0.0322772 -0.0654021 -9.89151e-21)
(1.05958 0.0228551 -1.24194e-20)
(1.02725 0.0120819 -2.84734e-21)
(0.808433 0.00654632 1.79927e-20)
(1.01721 -0.0101159 0)
(0.978048 0.0408485 -7.71422e-22)
(1.01646 0.0197843 0)
(1.00833 2.04421e-05 0)
(1.04297 0.0178147 -3.03552e-21)
(1.02665 0.0375194 -5.23799e-21)
(1.01739 -0.000172193 0)
(1.03191 -0.013472 5.24679e-22)
(1.04424 0.00657839 9.93615e-21)
(1.06406 0.0255647 2.69391e-20)
(1.06383 0.0261011 -7.78544e-21)
(1.05761 0.0599434 -1.14957e-20)
(1.01676 0.0326071 0)
(0.24302 0.014097 0)
(0.932473 0.00128916 -1.04191e-20)
(1.01687 -0.00988751 -1.01005e-21)
(1.02303 0.00883583 -3.36637e-21)
(1.05637 0.0476405 -1.96851e-20)
(0.612912 -0.0042302 0)
(1.01655 0.0090503 3.11832e-21)
(1.01755 0.00991814 3.46815e-21)
(1.05734 0.0465944 1.32819e-20)
(-0.0711099 -0.0258047 -2.20674e-20)
(1.05154 0.026926 -1.20694e-20)
(1.032 -0.0129378 -2.47877e-22)
(1.05629 0.0611992 -1.7931e-20)
(0.58093 0.065031 2.03837e-20)
(1.01712 -0.0206746 1.85447e-22)
(1.02749 0.000431786 0)
(1.02852 0.0161735 -7.83074e-21)
(1.08269 0.0251634 6.40422e-21)
(1.06122 0.00483116 0)
(0.999029 0.038947 -2.00922e-22)
(0.976547 0.0380602 8.22209e-22)
(0.988355 0.0415832 1.29624e-21)
(0.699552 -0.0014818 -1.19609e-20)
(1.07403 0.024312 -3.26153e-20)
(0.786261 0.00494352 1.17747e-20)
(1.02854 0.00301141 1.87037e-21)
(1.03149 -0.0125276 -2.44512e-22)
(1.01676 0.0347868 -8.66986e-21)
(1.02513 0.019356 1.02853e-20)
(1.00238 0.00251353 -1.29122e-21)
(1.0316 -0.0120717 0)
(1.02511 0.0187314 -8.96866e-21)
(1.0275 0.0124452 0)
(1.01156 0.0100361 0)
(1.02017 -0.00027447 2.34621e-22)
(1.02822 0.00266013 0)
(1.0678 0.0180204 8.45798e-21)
(1.01594 0.00131207 0)
(0.996238 0.0602142 6.51588e-22)
(1.05917 0.022804 7.61306e-23)
(1.01583 0.000711319 0)
(1.02573 0.0369423 1.17578e-20)
(1.02406 -0.000345254 2.27995e-22)
(1.0284 -0.000854609 -3.91534e-22)
(1.04499 0.00662802 0)
(0.908762 -0.000988308 -5.7826e-21)
(1.01963 -0.00953972 0)
(1.01549 0.0124967 -8.81143e-22)
(1.00119 0.0397542 0)
(1.02138 0.0568178 0)
(1.01585 -0.000295587 0)
(1.0161 0.000788342 0)
(1.02163 0.054315 -1.18526e-23)
(1.02453 0.000240051 -6.17919e-23)
(1.02682 0.000118161 7.9422e-23)
(1.01164 0.0105652 -2.72559e-23)
(1.01816 -0.000516074 1.2231e-22)
(1.00264 0.00189595 1.00239e-21)
(1.05834 0.0127653 -4.04744e-20)
(0.815032 0.0232263 -2.84642e-20)
(1.01867 -0.0209346 6.51119e-22)
(1.0325 -0.0139232 -5.49288e-22)
(0.989588 0.0574545 4.51701e-21)
(1.01882 -0.000129861 0)
(0.823868 0.00826982 0)
(1.00453 0.03896 0)
(0.109644 0.00462693 0)
(1.08627 0.0243612 0)
(1.02364 0.0208043 -7.00764e-22)
(1.06394 0.0295476 0)
(1.03082 -0.000315304 1.46992e-22)
(1.06894 0.0251112 -1.16305e-20)
(1.02726 0.000233694 0)
(1.02192 -0.000369533 0)
(1.03012 -0.0112733 -4.63733e-22)
(0.997578 0.0404946 -1.85756e-22)
(1.05972 0.0362741 -2.37014e-20)
(0.677994 -0.00479721 -2.38152e-21)
(1.07065 0.0176089 4.27741e-20)
(1.02892 0.0151966 0)
(1.01626 0.0359948 -5.97922e-21)
(1.01362 -0.0048052 0)
(1.06038 0.0359739 2.8756e-20)
(1.05206 0.0167211 -1.2356e-20)
(1.03698 0.062254 5.32e-21)
(0.991474 0.0106172 -2.9924e-20)
(1.02294 0.0208224 6.83176e-22)
(1.06104 0.0236627 0)
(0.968581 0.0547568 -4.30287e-21)
(0.555724 0.0663428 -3.53119e-20)
(0.647106 -0.00196876 3.60071e-20)
(1.01067 0.0359787 -1.4111e-21)
(1.00514 -1.06294e-05 0)
(0.864755 0.0494474 -1.53953e-21)
(1.03113 -0.0116858 0)
(1.05747 0.0129559 2.4887e-20)
(1.01284 0.00212881 -4.29813e-22)
(1.02696 0.00314245 0)
(1.03642 -0.0146744 4.20518e-22)
(1.07363 0.0235064 3.44665e-20)
(0.764317 -0.0265573 1.90694e-21)
(0.333926 0.0242581 0)
(1.01676 0.00949055 -4.13974e-21)
(1.02529 0.0350754 -2.69092e-21)
(1.02814 0.00025905 -8.87269e-24)
(1.02666 0.00274701 -6.9673e-21)
(1.02742 -7.87408e-05 -7.91867e-21)
(1.02671 0.0565377 3.45307e-21)
(1.00702 -0.00102386 -9.45494e-22)
(1.01867 -0.000692914 -1.28845e-22)
(0.958874 0.0103465 -2.08333e-20)
(1.0253 -6.29818e-05 1.23008e-22)
(1.02957 -0.000389364 -1.5715e-22)
(1.01497 0.00242597 6.07124e-23)
(1.01037 0.0412354 0)
(1.01056 0.0215667 0)
(0.827605 0.0541453 2.49268e-21)
(0.837132 0.0460855 4.34701e-20)
(1.02129 0.055856 5.91094e-22)
(0.408606 0.000289298 -1.22987e-20)
(0.428334 0.0421074 3.94716e-20)
(1.0348 0.00105396 -4.57125e-24)
(1.00982 0.0372659 0)
(1.00887 0.00238635 0)
(0.995115 0.0112061 5.75143e-21)
(1.04779 0.008203 -5.49534e-21)
(0.806098 0.0647623 0)
(1.04588 0.0436277 -2.3981e-22)
(1.02784 0.000172335 0)
(1.03109 0.00914911 0)
(1.05654 0.0503844 1.95935e-20)
(1.05176 0.0161941 -2.9158e-20)
(1.00984 0.0222349 -1.71204e-21)
(1.04328 0.00739876 -1.58249e-20)
(1.00928 0.00234506 0)
(1.02263 0.00905211 9.70302e-21)
(1.06655 0.0470563 9.34225e-21)
(1.06942 0.0256196 1.19105e-20)
(1.03546 0.0628562 -1.95034e-20)
(1.02229 0.0087916 -1.01594e-20)
(1.06596 0.0483896 2.09455e-20)
(1.04404 0.00229265 0)
(0.997057 0.0573091 -1.15783e-23)
(1.0449 0.0443355 0)
(1.06316 0.0260968 -2.29099e-20)
(1.06419 0.0431754 1.55326e-20)
(0.745121 0.000956221 6.08268e-21)
(1.01923 -0.0093749 -4.42561e-22)
(0.685817 -0.00304829 0)
(1.03222 0.0227472 -6.76131e-21)
(1.0262 0.0105045 2.95811e-20)
(1.01756 -0.00990602 0)
(1.00754 -0.000683977 2.74339e-22)
(1.01801 0.0304116 0)
(0.702301 -0.00158673 -1.15474e-20)
(0.628186 -0.00224471 -2.04456e-20)
(1.0141 0.0174743 0)
(1.02258 0.0615424 0)
(1.00392 0.0300934 0)
(1.02609 0.0356118 -1.48011e-21)
(1.03056 -0.0117309 0)
(1.05723 0.0489077 4.47589e-22)
(1.01105 0.00969212 0)
(1.01513 -0.00377382 9.53544e-23)
(0.992241 -0.000976861 2.71693e-21)
(0.990609 -0.00059141 0)
(0.36199 0.0234362 0)
(1.06068 0.0234781 0)
(1.01221 0.0360729 -6.7164e-21)
(0.984569 0.0297042 -2.96483e-20)
(1.01302 0.000354813 1.2227e-21)
(1.0321 -0.00591656 -3.07477e-23)
(1.03237 -0.00583369 3.23058e-23)
(0.321466 0.0323564 -4.15e-20)
(1.06523 0.0455201 2.80477e-20)
(1.06702 0.0513864 7.47154e-21)
(1.01909 0.000696174 -2.06162e-21)
(1.02322 1.38902e-05 0)
(0.889404 0.0553231 -2.95892e-21)
(0.669647 -0.00226075 0)
(1.03108 -0.00505113 -3.31215e-22)
(1.03091 -0.00485857 4.29593e-22)
(1.01585 -0.000582302 6.12179e-23)
(1.0329 -0.00618395 2.64391e-22)
(1.03317 -0.00611112 -1.05615e-23)
(0.77456 0.00326305 1.26734e-20)
(0.655668 0.0373602 -2.80387e-20)
(1.01049 0.00636276 0)
(1.03667 0.00152158 -1.20852e-24)
(1.05256 0.039989 3.09448e-20)
(0.758579 0.0027702 0)
(1.02569 -0.000102849 -3.71286e-22)
(1.01893 0.00068814 0)
(1.01618 0.0613165 9.70029e-23)
(1.05629 0.0128139 1.81808e-20)
(1.06641 0.046141 -2.03036e-20)
(0.971735 0.0283065 0)
(1.04752 0.0499459 3.06453e-20)
(1.01293 0.00232433 1.4841e-21)
(0.626613 0.0482202 0)
(1.0536 0.0399367 -2.61504e-20)
(1.00556 0.0376211 0)
(1.05942 0.0289861 -1.6948e-20)
(1.01462 0.0169467 -1.23264e-21)
(0.597645 0.0343521 1.77876e-20)
(1.02755 0.000920603 -4.18844e-21)
(1.03637 0.0366893 0)
(1.04528 0.0418601 0)
(1.00977 0.00614821 0)
(1.00983 -0.000116708 0)
(1.02906 0.0157402 0)
(1.00006 -0.0044004 -3.09389e-21)
(1.02066 -0.0117901 0)
(0.717324 -8.53189e-05 2.30843e-20)
(0.779282 0.0576161 0)
(1.02777 -0.0114508 0)
(1.03041 -0.00463802 6.88142e-23)
(1.0065 -0.000740771 3.32009e-22)
(1.0302 -0.00471914 -3.7057e-22)
(1.02768 0.000639523 0)
(1.01563 0.000145357 8.34269e-22)
(1.04428 0.0288119 -2.11696e-21)
(1.0281 -0.0119709 0)
(0.660167 -0.00103675 0)
(0.831268 0.0266215 4.25299e-20)
(1.02003 0.00695491 0)
(1.00179 -0.00200784 -5.95078e-22)
(1.05499 0.0653404 1.81388e-20)
(1.03653 -0.00474772 1.3171e-22)
(1.02179 0.052683 5.40022e-21)
(0.740629 0.00191789 -4.44694e-21)
(1.0363 -0.00485665 0)
(0.723477 -0.000608647 2.3716e-20)
(1.02097 -0.0114932 0)
(1.02168 0.0430792 0)
(1.02499 0.000101782 -1.49018e-23)
(1.00381 0.0132656 0)
(1.00939 0.00625424 0)
(1.01259 0.00113944 5.04391e-22)
(1.06766 0.0348054 1.05635e-20)
(1.01225 -3.78335e-05 -2.98105e-22)
(1.02169 0.0563826 -3.01186e-22)
(1.03067 0.0274492 1.34913e-20)
(0.689774 0.0632098 0)
(1.03694 -0.0153022 -5.10475e-22)
(1.02207 0.0619853 0)
(0.635098 -0.00274844 0)
(1.02873 -0.000339793 2.04791e-22)
(1.05103 0.0318201 0)
(0.998832 -0.00254727 0)
(1.02204 0.0218081 -5.53743e-21)
(0.997847 -0.000394944 -8.22748e-22)
(1.02588 0.0183655 1.10965e-20)
(1.02021 -0.0102867 3.74383e-22)
(1.01385 -0.0001064 3.35507e-22)
(1.05415 0.0521801 0)
(1.00829 -0.00745477 0)
(1.03594 0.0360819 0)
(1.02587 0.0178468 1.08448e-20)
(1.01873 0.000767341 4.81018e-21)
(0.982246 0.0109496 1.3343e-20)
(0.679122 -0.00179341 3.5237e-21)
(1.01462 -0.00544888 -2.24832e-22)
(1.05183 -0.00287246 4.00924e-22)
(1.02269 0.0217824 0)
(0.963803 -0.00710161 0)
(1.06373 0.0205137 0)
(0.843322 0.0226881 -2.68243e-20)
(0.859021 0.0624427 0)
(1.05891 0.00428201 -2.51717e-23)
(1.03746 0.0601613 -4.5231e-21)
(1.00263 -0.00249924 1.36665e-21)
(1.06879 0.0190387 -4.52816e-21)
(0.960514 -0.00357436 1.15645e-21)
(1.0693 0.022719 -1.45652e-20)
(1.01504 0.000175974 1.13611e-23)
(1.00254 0.0139756 0)
(1.02165 0.0597925 0)
(1.00782 0.00147261 3.8373e-22)
(0.993457 0.0235963 0)
(1.0629 0.0266061 1.54008e-20)
(1.02258 -0.000341342 -9.59887e-23)
(1.00503 0.0115944 -1.36914e-20)
(1.01596 0.00102904 -1.40249e-21)
(1.05768 0.0160642 4.33024e-21)
(1.04228 -0.00480933 6.33046e-24)
(0.564688 0.00432449 0)
(1.01478 -0.00134454 0)
(1.03643 0.0344452 -7.13783e-21)
(1.00429 0.0313075 0)
(1.05574 0.00371451 5.69196e-24)
(1.02589 -0.000207829 3.20005e-22)
(1.05978 0.0276828 2.43807e-20)
(1.06141 0.0136676 -3.04514e-20)
(1.01635 0.0121295 0)
(1.00771 0.000960317 -1.6071e-22)
(0.852092 0.0105763 1.67051e-20)
(1.05984 0.0133731 -8.85614e-21)
(1.03819 0.0592999 3.54386e-20)
(0.970106 0.0858447 0)
(1.03574 -0.00459981 -1.39054e-22)
(1.01154 0.00735243 -7.00769e-22)
(1.05518 0.0127279 -4.61326e-21)
(1.0392 0.0598068 1.13268e-20)
(1.03551 -0.00476405 -1.34525e-22)
(0.997641 -0.00188095 -6.8084e-22)
(1.01982 0.009371 0)
(1.0153 0.044515 0)
(1.03671 0.0350708 8.52955e-21)
(1.06126 0.0409763 0)
(1.03999 0.0519461 1.67658e-20)
(1.02088 0.0525074 -7.09975e-21)
(1.05652 0.0173851 0)
(0.790792 0.00743252 1.90097e-20)
(1.01334 -0.00479857 -1.6138e-23)
(1.01683 0.0122611 -3.71677e-21)
(0.995682 0.000397654 -2.82707e-21)
(1.07013 0.0316403 4.51383e-20)
(1.02294 -0.000219224 7.35319e-23)
(0.721075 -0.00193571 3.53255e-21)
(1.05654 0.017018 8.10868e-21)
(0.836012 -0.0218983 0)
(1.01736 0.0102684 -4.61299e-21)
(1.04008 0.0569216 9.6086e-21)
(1.0519 -0.0036888 0)
(0.923894 -0.0131983 8.64552e-21)
(1.03351 -0.0125947 0)
(1.06745 0.0497695 0)
(1.05679 0.0638056 0)
(1.00295 0.0326478 0)
(1.02007 0.00729293 4.13963e-21)
(1.07733 0.0319101 -3.38519e-20)
(1.04401 -0.00506192 -3.6019e-24)
(0.810538 0.0476594 0)
(1.06534 0.043667 0)
(1.03388 -0.0125107 0)
(0.943122 -0.00989853 6.66133e-21)
(1.00783 0.00617001 2.4235e-23)
(1.0322 -0.0206761 -5.01066e-23)
(1.02124 -0.00695026 0)
(0.73812 0.0103878 2.61866e-20)
(1.01546 -0.0188334 -2.88931e-22)
(1.01903 0.018826 -4.16516e-21)
(0.832569 0.0566296 0)
(1.02025 0.0507216 0)
(1.0148 0.0157435 0)
(0.938763 0.0515892 1.22583e-20)
(1.06192 0.0167893 0)
(1.0202 0.0175477 4.41152e-21)
(1.06802 0.0358249 0)
(1.01271 0.00769891 2.58062e-21)
(1.0192 0.0515006 4.92002e-21)
(1.06967 0.0238855 1.93404e-22)
(1.01609 0.0009169 -2.06463e-22)
(1.04472 0.0143324 -1.0031e-22)
(1.02653 0.0175336 0)
(1.01289 0.00146288 -1.12735e-21)
(1.01389 0.000181308 -5.73063e-22)
(1.01283 -0.00441941 -4.33682e-22)
(0.398124 0.0603849 -1.91854e-20)
(1.02187 0.0557284 -1.36682e-21)
(1.01715 0.0112943 0)
(1.0129 -0.00516121 -3.25258e-22)
(1.01035 0.00255026 1.13783e-22)
(1.04783 0.0340917 0)
(0.969269 0.0273726 0)
(1.03945 -0.00466504 7.28395e-23)
(1.03469 0.000967467 5.56153e-24)
(1.06368 0.0208997 -8.9211e-21)
(1.03849 0.0563489 0)
(1.01247 0.00134706 0)
(1.0192 0.0183906 3.27731e-21)
(0.973476 0.0681354 9.80328e-21)
(0.968876 0.0581191 5.74702e-21)
(1.06251 0.00553378 -3.18551e-23)
(1.06524 0.0292406 0)
(1.07171 0.0195049 4.82597e-21)
(1.03665 -0.00902468 1.34256e-22)
(1.03854 -0.00458714 1.10958e-24)
(1.0144 0.030592 0)
(1.01393 0.000186989 0)
(1.03923 -0.00481143 0)
(1.01014 0.00651076 0)
(1.03835 -0.00474969 -1.30729e-24)
(1.03659 -0.00874193 -1.25145e-22)
(0.601077 0.0452629 4.39918e-20)
(1.01277 0.00815956 -2.75133e-21)
(1.02856 0.0383795 -7.76519e-21)
(0.677427 0.000251973 0)
(1.05024 0.032008 1.58494e-21)
(1.01493 -0.0037997 -1.30954e-22)
(1.02616 0.00282102 1.19046e-20)
(0.955561 0.0496563 0)
(1.01687 0.0305176 -6.73501e-21)
(0.653373 -0.0062756 2.74482e-21)
(1.04133 -0.00476866 1.37966e-23)
(1.01963 0.00247053 -3.67178e-21)
(1.04428 -0.00540362 0)
(1.03375 -0.00642495 -5.37929e-22)
(1.01622 0.0190677 0)
(1.007 0.00571772 -1.72717e-22)
(0.992068 0.0703375 3.1207e-20)
(1.03337 -0.0122686 1.76848e-22)
(1.05663 0.0125217 1.00513e-20)
(1.01944 0.0025012 0)
(1.05092 0.0206737 -1.19105e-20)
(1.03383 -0.0115544 0)
(1.01111 0.00912996 0)
(1.04848 0.0488223 -1.52459e-20)
(1.03178 0.0606321 -9.7501e-21)
(1.01993 0.009028 1.41868e-21)
(0.685266 0.0447992 0)
(1.01451 -0.00358063 -9.38625e-23)
(1.01439 9.89551e-05 -6.31484e-23)
(1.01056 0.00221139 1.60454e-22)
(1.00808 0.00661668 2.05369e-22)
(1.0155 -0.00370331 3.05561e-23)
(1.01471 0.00052618 0)
(0.969542 0.0108187 1.30955e-20)
(0.724489 0.0629783 2.31281e-20)
(1.01569 -0.00363458 0)
(1.02312 0.0634843 -5.08681e-21)
(1.06395 0.0216547 2.08078e-20)
(1.01845 0.00024493 1.96221e-21)
(1.05128 0.033555 0)
(1.06109 0.0189471 -3.56403e-20)
(0.894561 0.045322 3.84598e-20)
(1.04639 0.0145679 1.65456e-20)
(1.0582 0.0127639 4.55499e-21)
(0.901351 -0.0205628 0)
(0.923528 -0.0201239 0)
(1.00722 0.00618835 0)
(1.0579 0.00441778 -4.93157e-23)
(1.03391 -0.0110696 0)
(1.01434 0.0162735 1.97682e-21)
(1.07478 0.0531015 -2.28361e-20)
(1.02791 -0.000819734 1.37763e-22)
(1.01679 0.00866613 0)
(1.01602 0.0126461 -1.12257e-21)
(1.04593 0.0120142 -9.93257e-21)
(1.01989 0.033571 1.01643e-20)
(1.06872 0.0269478 -1.2699e-20)
(1.05547 0.0260524 -2.37814e-20)
(1.03365 -0.0172186 0)
(1.00084 -0.00246778 -2.1519e-21)
(0.993372 0.0412236 8.12103e-22)
(1.03041 0.0436825 -9.12279e-21)
(1.01682 0.0110663 -2.24989e-21)
(0.869683 0.0881241 5.87e-21)
(1.04663 0.0265033 1.06372e-20)
(1.03137 0.0270609 -1.39074e-20)
(0.820618 0.0524489 -2.91926e-20)
(1.01602 0.00117242 1.61646e-21)
(1.03043 0.0446071 0)
(1.05756 0.0517374 -4.5043e-22)
(1.01432 -0.000544235 0)
(0.865407 0.00952983 -2.07723e-21)
(1.01429 0.000134614 7.52744e-23)
(1.03398 -0.00631292 3.31487e-23)
(1.04872 0.0340199 0)
(1.04107 -0.00491781 -4.09123e-23)
(1.01351 0.000332183 -5.68919e-22)
(1.05244 0.0521722 0)
(0.9403 0.0113387 1.94105e-20)
(0.627369 0.051007 0)
(1.01506 0.00228766 -1.28441e-21)
(1.03444 0.00778825 5.63569e-21)
(1.03025 -0.0177832 8.26205e-22)
(1.07041 0.0566434 0)
(1.05354 0.0734006 1.75855e-20)
(1.01658 0.0102864 4.07076e-21)
(1.01725 0.00954055 -3.12631e-21)
(1.015 0.00201326 0)
(1.04552 0.0397087 1.03133e-20)
(0.833798 0.00712681 1.78746e-21)
(1.01396 -0.00589056 -3.40626e-22)
(1.0256 -0.000272876 1.57368e-22)
(1.008 -0.000985066 0)
(1.01308 0.00144435 3.59317e-22)
(1.00912 -0.0104839 2.13163e-21)
(1.03751 0.0247746 -1.54371e-20)
(1.02774 -0.000551768 1.26259e-22)
(1.05538 0.0267085 8.28166e-21)
(1.01436 -0.000484354 6.42405e-22)
(1.01045 0.00332912 6.76439e-22)
(1.02659 0.0170365 0)
(0.840066 0.0185546 3.72622e-20)
(1.02481 -0.0021236 0)
(1.03947 0.0112085 -4.187e-21)
(1.0202 -0.0115766 0)
(1.05044 0.0202772 1.02842e-20)
(1.05434 0.0347689 7.87292e-21)
(1.00936 0.0454061 2.08259e-21)
(1.04608 0.0426033 -1.27284e-20)
(1.02233 0.0550834 6.99136e-21)
(1.02481 0.0163768 0)
(0.995108 0.039481 0)
(1.04391 0.0107403 -2.4397e-20)
(0.671712 0.0430487 2.24586e-20)
(0.701817 0.00230791 0)
(1.01568 -0.00597006 4.96485e-22)
(1.01061 0.00150537 1.21747e-22)
(1.03478 -0.0180018 3.42784e-22)
(1.02053 0.00484218 2.22308e-21)
(1.08419 0.0224198 -1.13923e-20)
(1.03714 -0.00496236 1.38937e-22)
(0.796468 0.0396764 -7.8211e-21)
(1.0328 0.0223547 9.83661e-21)
(1.07811 0.0123097 -2.26735e-20)
(1.02222 0.053565 -1.15114e-20)
(1.04396 0.00734524 1.57401e-20)
(0.0242238 -0.0261387 -3.45018e-20)
(1.01592 -0.00386151 -2.66951e-22)
(1.06015 0.0192104 1.40975e-20)
(1.01788 -0.000420337 1.6145e-22)
(1.02288 -0.0146345 4.25027e-22)
(1.06789 0.0123079 -1.74937e-20)
(1.04039 -0.00472192 4.93698e-23)
(1.06688 0.0196123 1.60967e-20)
(1.023 9.37587e-05 -5.77366e-23)
(1.01746 9.402e-05 -3.25817e-23)
(1.0104 0.00181025 0)
(1.06806 0.0267639 0)
(1.00892 -0.010769 -2.67226e-21)
(1.0289 -0.00389682 0)
(1.06395 0.0245115 -1.8047e-20)
(1.05044 0.0337444 -3.26628e-21)
(0.733158 -0.0666771 1.29047e-21)
(1.07205 0.0236586 -2.84931e-20)
(1.00311 0.0105108 0)
(0.875358 0.0446993 -3.86125e-20)
(1.02461 -0.00198033 3.48321e-23)
(0.685215 -0.00544108 -1.89112e-20)
(1.03236 0.000397276 -9.59646e-24)
(0.620893 0.0682812 1.43117e-20)
(0.784837 -0.0209329 1.34671e-22)
(1.02286 -0.0151099 1.49228e-21)
(1.05187 -0.00532059 2.90198e-22)
(1.02645 0.000348311 1.69493e-22)
(1.04605 0.0263095 -3.05972e-20)
(1.0429 0.00671609 1.67749e-20)
(1.04015 -0.00487336 -1.18079e-23)
(1.01713 -0.000367825 0)
(1.01425 0.00030342 -4.5454e-21)
(1.07461 0.0242474 8.4387e-21)
(1.01554 0.00297234 -5.28926e-21)
(1.05878 0.0220442 0)
(1.01656 0.00830844 0)
(1.02895 -0.00368197 -1.68766e-22)
(1.02785 -4.81542e-05 -1.59646e-22)
(1.05704 0.0580979 3.43552e-22)
(1.083 0.0456154 -8.45824e-21)
(0.173355 0.0029781 5.39248e-20)
(1.05866 0.0287898 2.5405e-20)
(1.03797 0.024198 0)
(1.07713 0.0402308 -2.67932e-20)
(0.765729 0.00327934 -2.11732e-20)
(1.02142 -0.00734307 8.08581e-22)
(1.07795 0.0560061 2.08575e-20)
(1.01359 9.40399e-05 -2.2853e-21)
(1.06185 0.0192333 4.11076e-20)
(1.02029 0.00498276 2.2385e-21)
(1.07745 0.0308659 0)
(1.01312 0.00124445 3.14505e-22)
(1.00892 -0.0100849 0)
(1.02742 0.00312385 0)
(0.736039 -0.0654916 -6.84988e-22)
(1.04542 0.0279534 1.08089e-21)
(1.06505 0.0271725 -1.21649e-20)
(1.02602 -0.00064055 -2.64923e-22)
(1.04397 0.0279517 1.96657e-20)
(1.01521 -0.00842893 0)
(1.02145 -0.000170694 -1.68683e-22)
(0.805131 0.00957196 0)
(1.02011 0.056164 4.86985e-22)
(1.01539 -0.00952458 0)
(1.06219 0.0416425 1.40805e-20)
(1.01887 0.000803959 -5.36291e-21)
(1.02417 -0.0144875 0)
(1.02417 9.19314e-05 0)
(0.828436 0.0116671 -1.98533e-20)
(1.01569 0.00297292 5.34705e-21)
(0.9989 -0.00392749 3.35526e-21)
(1.03732 -0.004823 7.47203e-23)
(1.0155 -0.00914946 -1.20761e-21)
(1.06988 0.0322131 -3.79258e-20)
(1.0267 0.000242398 0)
(1.06256 0.0381221 -7.3026e-21)
(1.01853 -0.000284804 -2.86826e-22)
(1.01455 -0.00106703 4.21493e-22)
(0.519276 0.0652717 2.13661e-20)
(1.05915 0.0221537 2.81869e-20)
(1.01646 0.00983679 1.55735e-21)
(0.556466 -0.00259253 -2.27641e-20)
(1.06645 0.0195862 -5.28565e-22)
(0.974968 0.0180048 3.96149e-21)
(1.05688 0.0527916 -3.09926e-20)
(1.0161 -0.00379417 1.84935e-22)
(1.00126 0.0145822 -4.70814e-22)
(0.817712 0.0167535 4.37775e-20)
(1.06389 0.0170917 1.72764e-20)
(1.01513 0.0295517 0)
(1.01716 0.0198597 -3.88298e-21)
(1.00871 -0.0100494 -1.38293e-21)
(1.01989 -0.000364655 5.39262e-22)
(1.0123 -0.00304054 0)
(1.06226 0.00513915 7.06183e-24)
(1.05474 0.0364409 1.79298e-20)
(1.02905 0.0219232 -1.30617e-20)
(0.729304 0.0527309 0)
(1.04618 0.0279762 0)
(0.962966 0.0208876 2.5308e-21)
(1.0542 0.074295 0)
(1.00946 -0.00833061 1.30265e-21)
(1.03839 0.0322112 0)
(1.06434 0.041723 -2.01623e-20)
(0.738462 0.000795548 -4.8058e-20)
(1.01979 -0.0100849 -7.72573e-22)
(1.00856 -0.0111648 0)
(1.06034 0.00438217 0)
(1.01444 -0.000930183 0)
(1.02402 -0.000553289 0)
(1.02825 -8.64097e-05 -3.93296e-23)
(1.03072 -0.0187564 0)
(1.01376 0.000393016 -2.6591e-23)
(0.693721 -0.00540453 -7.00988e-21)
(1.05488 0.0150134 0)
(1.01725 -0.000661433 0)
(1.06226 0.0265492 -1.56765e-20)
(1.02622 -0.000737589 3.29852e-22)
(0.867198 0.0261899 4.68425e-20)
(1.02143 -0.0117002 0)
(1.01383 -0.00516428 0)
(0.904521 0.0107528 -6.74073e-21)
(1.05402 0.0331978 -8.85964e-21)
(0.841797 -0.0352368 -1.32515e-22)
(1.02871 0.00471789 5.45699e-21)
(1.04798 -0.00418181 -5.05862e-23)
(1.0151 -0.00648284 -2.30351e-23)
(1.03234 0.00639553 7.90701e-23)
(1.04391 0.0199816 0)
(1.01242 0.000308826 7.14314e-22)
(0.652927 -0.0024122 -1.6187e-20)
(1.03122 0.0297947 0)
(0.834142 0.031549 1.30396e-21)
(0.83551 -0.0382806 1.48118e-22)
(1.00878 -0.0106649 0)
(1.00553 0.0106282 2.7855e-20)
(1.03422 0.00826119 0)
(1.01687 -0.000315927 -1.55642e-23)
(1.01514 -0.00876102 1.12078e-21)
(0.757305 0.00324944 -2.23044e-20)
(0.711425 0.0549176 0)
(1.03223 0.0234978 0)
(0.666977 -0.0050187 -9.77296e-21)
(0.773054 0.0219075 -2.2824e-21)
(1.01468 -0.00138404 -6.98903e-23)
(1.01434 -0.00547993 2.75839e-22)
(1.01534 0.0189711 5.47202e-21)
(1.0597 0.0131857 4.45678e-20)
(0.847677 -0.0289595 0)
(1.04505 0.0288413 0)
(1.03185 0.00639002 0)
(1.03925 0.0116891 -1.78224e-20)
(1.06186 0.0190948 -4.39452e-20)
(1.00337 -0.00200135 4.09718e-23)
(1.06144 0.0397076 -3.32597e-21)
(1.05466 0.0155188 -1.35911e-20)
(1.01533 0.0119154 -8.17728e-22)
(1.02726 0.0126961 3.05063e-22)
(1.01634 -0.000308364 -1.14006e-22)
(1.04335 0.0199443 0)
(1.00098 -0.00362918 1.45098e-21)
(1.06173 0.0164847 1.62704e-20)
(1.02094 0.0226982 -2.45322e-21)
(1.02492 -0.0184036 0)
(0.655781 -0.0030725 0)
(1.04934 0.00269776 -3.24971e-23)
(0.796329 0.025246 2.31938e-21)
(1.01762 0.01914 -3.86285e-21)
(0.999607 0.0223565 -8.14573e-23)
(1.03514 0.0209884 9.09023e-21)
(1.06405 0.0173114 0)
(1.02271 -0.000391221 -2.14235e-22)
(1.06 0.0187418 -1.22184e-20)
(1.08675 0.0438371 -8.6845e-21)
(0.862702 0.0056235 8.51331e-23)
(1.02114 0.00480834 -9.723e-23)
(1.02171 0.0226554 3.0501e-21)
(1.01209 0.000157693 0)
(1.01935 0.00368459 -7.92803e-21)
(1.02734 0.0022495 -6.26488e-21)
(0.99842 0.00891482 2.56704e-21)
(1.03277 -0.0117203 -3.80463e-22)
(1.05569 0.0577831 4.17504e-20)
(1.06248 0.0392432 0)
(1.01655 -0.00392166 0)
(1.06178 0.0160617 1.51231e-20)
(1.04713 0.0091006 0)
(1.04585 0.0124573 -3.11146e-23)
(1.06335 0.0410831 -1.0874e-20)
(1.01116 0.00757766 0)
(1.06002 0.0194025 2.78466e-20)
(1.01947 0.0567023 -4.86259e-21)
(1.0271 -0.00291538 -2.84967e-22)
(1.05426 0.0324864 0)
(1.04457 0.0478644 1.235e-20)
(1.05408 0.0157427 7.96e-23)
(1.01336 -0.00293453 3.63661e-23)
(1.0151 -0.00349546 6.80023e-23)
(1.01241 -0.00325764 0)
(0.680388 -0.0012903 1.35156e-20)
(1.02664 0.0118836 1.03405e-20)
(1.02205 -0.0124418 6.28848e-24)
(1.05717 0.0162831 0)
(1.01227 0.00050822 -7.19744e-22)
(1.0147 -0.00415363 -2.41961e-22)
(1.05717 0.0457927 0)
(1.02119 0.0565856 5.05569e-21)
(0.995823 0.00943687 5.42582e-21)
(0.914161 0.0547026 -3.86357e-21)
(1.01551 0.0432464 -3.11031e-21)
(1.05394 0.0127933 0)
(1.02762 0.00191234 -1.25006e-21)
(1.00164 0.00256746 4.2577e-22)
(1.07612 0.0351994 2.84374e-20)
(1.02322 -0.0154924 0)
(1.01821 -0.0245086 -7.31329e-22)
(1.02477 -0.000181559 -2.3366e-22)
(1.02336 -0.000663115 0)
(1.02775 0.00555037 -1.69275e-20)
(1.01971 0.0235462 5.37894e-21)
(1.01016 0.0467712 -1.23895e-21)
(1.01348 -0.00305038 0)
(1.0653 0.00256943 -2.4805e-22)
(1.00896 -0.0025965 0)
(0.796078 -0.0290048 3.87792e-22)
(1.0183 0.0192939 4.55466e-21)
(1.0466 0.0139725 -1.62941e-20)
(1.04198 -0.00494934 2.79509e-23)
(1.05961 0.0295138 0)
(1.00348 0.0139521 0)
(1.01792 0.0492264 -3.82028e-21)
(0.995903 0.0101743 -4.07046e-21)
(1.02195 7.03962e-05 1.15975e-22)
(0.838752 0.0212149 -1.63551e-20)
(1.02678 0.0134529 -1.2014e-20)
(0.709646 -0.000544352 -1.86411e-20)
(1.0427 0.00556275 0)
(0.995846 0.0132948 3.50294e-21)
(1.00406 -0.000717288 0)
(1.01679 -0.00635738 -5.49279e-22)
(1.02101 0.00449648 2.17378e-21)
(1.00936 0.0115003 0)
(1.04242 0.0206651 -6.4556e-21)
(0.972013 0.0201513 -6.14818e-21)
(0.929566 0.0582711 0)
(1.01921 0.00355413 0)
(1.05402 0.0162935 7.69509e-21)
(1.03635 0.00149859 8.30778e-25)
(1.01907 -0.0175695 3.60434e-22)
(0.816472 -0.0182625 -4.61704e-21)
(1.03703 0.00158415 -1.75823e-24)
(0.693204 0.047056 -4.69543e-20)
(1.04045 0.0106378 0)
(0.996771 0.0135667 -1.91601e-21)
(1.06336 0.0301865 -1.61114e-20)
(0.975665 -0.0242426 5.70836e-21)
(1.02772 -0.00572255 0)
(1.02236 -0.00067779 -1.85928e-22)
(1.04003 0.0534243 -8.00711e-21)
(1.01636 -0.00401666 1.8902e-23)
(1.0159 0.00857692 -1.47733e-21)
(1.0211 0.016824 2.24595e-21)
(1.01072 0.000816543 -8.72704e-23)
(1.05703 0.0166859 -8.71833e-21)
(1.02779 -0.00549119 0)
(1.00537 0.0569958 5.64354e-22)
(1.01477 0.0117693 -2.39168e-21)
(0.723012 -0.00121121 5.32505e-20)
(0.701593 -0.00133326 -3.54391e-20)
(0.96799 0.00204305 2.26307e-21)
(1.05565 0.0123651 -2.01034e-20)
(0.740009 0.0477203 6.99894e-22)
(0.700816 -0.000984958 -5.31316e-20)
(0.964065 -0.0139325 2.15313e-21)
(1.01554 -0.00188058 -1.22794e-23)
(1.02514 -0.0145606 2.16287e-22)
(1.02363 0.00546213 0)
(1.02392 0.014297 0)
(1.01493 0.00212012 2.23581e-21)
(1.0431 0.0206518 0)
(1.01495 0.00366509 2.64384e-21)
(0.969925 0.0314694 -2.8674e-21)
(1.01608 0.00896959 0)
(1.07392 0.0207807 1.86561e-20)
(1.02656 0.0112438 -2.77321e-21)
(1.05343 0.012697 1.0861e-20)
(1.03628 0.0517007 -1.60775e-20)
(1.01628 -0.00694963 -3.05678e-22)
(1.02666 0.0385128 0)
(1.02641 0.013673 7.25058e-21)
(1.02176 -0.0143718 4.81421e-22)
(1.0383 0.0195848 -1.06062e-20)
(1.04441 -0.00490512 1.94942e-23)
(1.0127 0.0110217 -6.04995e-21)
(1.0555 0.0371356 3.04421e-20)
(1.06494 0.00399905 -2.19641e-22)
(1.01487 -0.00577365 -5.27717e-22)
(1.02205 -0.000424895 0)
(1.00836 0.00165179 -2.1267e-22)
(1.00851 -0.00240235 2.82699e-22)
(0.844574 0.0501932 2.95908e-20)
(1.01524 -0.00178951 -1.79518e-22)
(1.02054 0.0555693 -6.68125e-21)
(1.01326 0.00124395 0)
(0.860816 -0.0194133 0)
(1.00336 0.0114786 0)
(1.01346 0.00282379 -5.86514e-22)
(1.0602 0.0189214 -1.79042e-20)
(1.01601 -0.0214039 0)
(1.01512 -0.00185067 9.57296e-23)
(0.835921 -0.0408509 2.75617e-23)
(1.08098 0.0540348 -4.82369e-20)
(1.0119 0.0175044 0)
(1.05993 0.0282656 -1.3967e-20)
(1.01719 -0.00464987 3.00069e-22)
(1.02068 0.0547123 2.07905e-21)
(1.04663 -0.00499359 0)
(1.00845 -0.0018276 0)
(0.770989 0.00503262 1.57282e-21)
(1.02133 -0.000652912 0)
(1.03086 0.0100684 2.26679e-21)
(1.06194 0.0270059 4.49139e-22)
(0.75787 0.00239969 2.33929e-20)
(1.04751 -0.00529715 8.36778e-23)
(0.965667 -0.0279367 2.408e-21)
(1.07759 0.0352343 -2.8697e-20)
(1.03308 -0.0131947 0)
(1.00532 0.00345791 9.05417e-22)
(1.01049 0.00109004 0)
(1.07318 0.0203701 -1.94543e-20)
(1.02153 3.52289e-05 3.38902e-21)
(1.06449 0.0244752 0)
(1.0239 0.00752606 -4.34657e-21)
(0.877301 0.0101044 -1.96616e-20)
(1.00333 0.0126867 0)
(1.01375 0.0797098 1.43453e-20)
(1.01271 -0.00479835 0)
(1.04138 -0.00238728 -2.32811e-24)
(0.985974 -0.0205146 2.9978e-22)
(1.01338 0.000266839 0)
(1.04871 0.00272502 0)
(1.06754 0.0105754 3.55353e-20)
(1.01757 0.0160798 3.03113e-21)
(1.01382 -0.000238456 8.89388e-22)
(0.961072 -0.00171835 0)
(1.03354 -0.0130137 0)
(1.02573 -0.0149034 -4.22993e-22)
(1.05507 0.0354822 9.7293e-21)
(1.01974 0.0170694 0)
(1.08141 0.0229997 3.15694e-20)
(1.02862 0.0373743 7.94275e-21)
(1.06095 0.0193709 0)
(1.05536 0.0533085 0)
(1.03857 0.0118593 1.08298e-22)
(0.88706 0.00909514 2.17009e-20)
(1.01449 0.0127434 0)
(1.05463 0.0339021 -2.68639e-20)
(1.0205 0.00231822 -4.62645e-22)
(0.697776 0.000794849 1.55211e-22)
(0.877339 -0.0188556 0)
(1.02989 0.00424975 0)
(1.0462 -0.00522075 0)
(1.02202 -0.013662 -9.37435e-22)
(1.01692 0.0104227 -2.4815e-21)
(1.0455 -0.00495108 -2.51e-23)
(1.03241 -0.00946305 0)
(1.02641 -0.011617 3.17124e-22)
(1.02109 0.00402912 0)
(1.03655 0.0259401 0)
(1.02717 -0.0026951 3.19602e-22)
(1.01789 0.0155081 0)
(1.05984 0.0247447 -1.61266e-21)
(0.817831 0.0426728 5.10982e-20)
(0.997999 0.0470243 0)
(1.06128 0.0269073 -1.43904e-20)
(1.00844 0.00212811 0)
(0.978149 -0.0215345 -4.11699e-22)
(1.01495 0.00309617 3.08241e-21)
(1.0754 0.0338957 0)
(0.815147 0.00183387 -5.34956e-21)
(0.366147 -0.000259084 4.68647e-20)
(1.03516 -0.0059111 0)
(1.01542 -0.00195398 5.29768e-23)
(1.0174 0.00069804 0)
(1.01366 0.00702197 -2.89051e-21)
(1.03504 -0.00572101 -1.17878e-22)
(1.04388 -0.00553186 -3.68702e-24)
(1.01676 0.00369989 -3.2683e-21)
(1.03868 0.0329784 -1.79337e-22)
(1.0138 -0.00010799 0)
(0.528589 0.0172099 0)
(0.96266 -0.0071966 -2.25563e-21)
(1.01356 -0.000914704 -3.04065e-22)
(1.03151 0.0137187 0)
(1.02077 0.00236103 5.00801e-22)
(1.01264 -0.0041215 2.77271e-22)
(1.01936 -0.0196555 -2.26422e-21)
(0.843174 0.013675 0)
(1.02926 0.0455392 0)
(1.02933 -0.000138435 8.1292e-23)
(0.839228 -0.0294493 6.90015e-23)
(1.0171 -0.00892664 1.2666e-23)
(1.01321 -0.00517337 1.39535e-22)
(1.06229 0.0155822 0)
(1.02469 -0.0148553 2.1906e-22)
(1.02694 0.05701 3.03239e-21)
(1.03145 0.0102263 0)
(0.997265 0.015456 0)
(1.01471 -0.00352785 -3.51978e-23)
(1.0289 -0.0116043 0)