/*--------------------------------*- C++ -*----------------------------------*\
| =========                 |                                                 |
| \\      /  F ield         | OpenFOAM: The Open Source CFD Toolbox           |
|  \\    /   O peration     | Version:  v2012                                 |
|   \\  /    A nd           | Website:  www.openfoam.com                      |
|    \\/     M anipulation  |                                                 |
\*---------------------------------------------------------------------------*/
FoamFile
{
    version     2.0;
    format      ascii;
    class       volScalarField;
    location    "350";
    object      ddt0(k);
}
// * * * * * * * * * * * * * * * * * * * * * * * * * * * * * * * * * * * * * //

dimensions      [0 2 -3 0 0 0 0];


internalField   nonuniform List<scalar> 
13917
(
-0.000230003
-3.99958e-07
-0.000746585
-2.35504e-07
2.56029e-07
-4.32257e-07
-5.10186e-07
2.47792e-05
-4.19027e-07
-0.000130575
-3.4368e-06
-1.77411e-07
-1.22673e-07
0.000189937
-5.6628e-07
-0.000166344
8.18817e-08
-1.21826e-06
0.00248344
-0.000131973
-5.54037e-07
-6.04362e-08
-8.69969e-07
-5.89687e-08
-3.19902e-07
-5.15179e-07
0.000907689
-0.000136074
-1.02565e-07
1.83618e-07
-0.000175053
-1.23381e-06
-2.3648e-07
-0.000582898
1.72048e-07
-1.65929e-05
-3.09237e-07
1.17366e-06
-5.00325e-07
-7.04717e-07
1.74549e-07
3.19675e-07
-3.12582e-07
-3.08647e-06
2.16632e-05
0.000313173
-5.32132e-07
-2.75236e-05
0.00367923
1.70008e-07
-1.73655e-07
0.000360338
-6.17065e-05
-1.57956e-07
-1.64922e-07
-4.37013e-06
-0.000130612
-8.85888e-07
3.2457e-07
0.000285933
-0.000271634
-5.23379e-08
3.28632e-07
-3.03585e-07
-0.000997058
-1.49771e-08
8.56108e-08
0.000165759
-6.56147e-06
-0.000325947
-0.000968577
-0.000529889
-1.58423e-07
3.20776e-07
-5.86734e-07
-3.36081e-07
1.61577e-08
3.23397e-07
-3.23218e-07
-2.44729e-07
-1.815e-07
8.01192e-08
-1.45687e-07
-0.000962474
-8.76831e-08
0.000240953
-1.21479e-06
-7.46498e-08
-7.28228e-07
1.00448e-07
1.29492e-07
-3.24818e-07
0.00315211
2.12214e-07
-1.9876e-07
-2.76655e-08
0.00162135
9.13355e-08
-7.48334e-08
0.001805
3.01515e-07
2.40759e-07
-1.84873e-07
2.54441e-07
1.82551e-08
-0.00102705
-0.000235251
-2.24404e-08
3.14691e-07
0.000486981
-2.4222e-08
-0.000615282
-5.4449e-07
-1.22239e-05
-0.00100717
-3.38788e-07
-0.0109133
1.09388e-07
-0.000584606
-1.10441e-07
1.15037e-07
3.19203e-07
-2.20066e-07
-1.55307e-05
-0.000355523
-0.000964151
-2.93011e-07
-6.24134e-07
8.55442e-08
-4.25833e-06
-6.99588e-07
0.00153971
-0.000840775
-3.37418e-07
-1.75795e-06
0.000257945
-0.000292557
-0.000342414
-4.75022e-07
1.1077e-06
-0.00047625
3.24447e-07
-0.00105929
-7.45593e-08
-1.41367e-07
2.95778e-07
-0.000969117
-0.000664719
-2.49547e-05
-1.58296e-07
-6.66017e-07
2.39993e-07
-1.33929e-07
-1.13382e-07
0.00109381
-2.89081e-08
2.37008e-07
-0.000820799
1.88477e-07
1.2431e-07
-9.23231e-08
-0.000679533
-3.62676e-07
-0.000126832
-0.000259775
0.0034122
-0.000183196
-0.000132219
4.89597e-08
-5.29297e-07
-5.74926e-08
-0.000840579
-3.99368e-07
-0.000327382
-1.03036e-06
1.89164e-07
-2.36106e-07
0.00160121
-6.4074e-07
-3.66996e-07
-3.31703e-07
-5.44554e-08
-1.70003e-07
0.000375214
-0.000557167
0.00153813
-1.71426e-07
0.000366897
1.86091e-07
0.000243097
-1.10287e-06
-4.92145e-06
0.00089812
-0.000217922
2.04412e-07
-0.000364355
-4.47214e-07
-0.000877931
1.84672e-07
-2.38341e-08
-4.89804e-07
-0.000341961
-0.000281577
-2.86481e-07
0.00105669
-2.77375e-07
-6.7609e-07
3.20337e-07
0.0015609
-1.77392e-07
8.43377e-08
6.21227e-07
6.05384e-07
-3.84824e-05
-1.60692e-06
-5.5682e-07
-0.000784391
3.50829e-07
2.89854e-07
2.90794e-07
-0.000100417
0.00066917
7.60561e-05
-4.23092e-08
3.32466e-07
-0.000132833
-0.000313686
2.45552e-07
2.33178e-07
1.6742e-07
2.98957e-07
3.00837e-07
-0.000484621
-8.80973e-05
-1.20178e-07
6.67867e-08
-2.17245e-06
-0.000500837
1.30904e-07
-4.4353e-08
0.000840674
-0.00105278
0.000519623
-0.000772231
1.31976e-05
-7.47131e-08
-0.000164717
-8.15185e-07
-2.37787e-07
-1.36043e-06
-2.76518e-07
-7.01908e-05
-1.21319e-07
-7.82278e-07
-1.21228e-06
-1.18193e-07
1.73452e-07
-3.07334e-07
-1.7218e-08
2.36118e-07
-0.000470899
0.000910437
3.02874e-07
2.17481e-07
-2.7192e-08
2.19918e-07
-1.20717e-07
-9.508e-08
-7.48707e-07
3.09897e-07
-0.000399462
-0.000281271
-1.4743e-07
1.86151e-09
3.23126e-05
2.6452e-07
-9.90231e-05
-0.000528939
2.64915e-07
-0.000412214
2.37921e-07
-0.000694231
2.35493e-07
-4.56699e-07
-1.15717e-07
-5.34413e-08
0.000269497
4.08729e-07
0.00302539
-5.12329e-07
0.000493357
2.85743e-07
0.00162027
-0.00030895
1.2478e-07
-1.01373e-06
5.89471e-08
-3.4425e-07
1.72689e-07
-3.27343e-07
2.25026e-07
5.36899e-07
0.00162885
3.78568e-08
-7.42426e-07
-3.12256e-07
-4.86828e-08
-0.000831975
-0.0002596
1.03441e-07
7.86823e-07
-3.48121e-07
0.000147255
-0.000600103
-0.000387724
-0.000347674
8.96552e-07
0.0017497
-1.45841e-08
-0.000963351
1.3708e-05
-0.000772597
-1.12231e-07
-5.49306e-07
0.00118018
-3.60457e-08
8.31998e-08
-6.16994e-06
9.40217e-08
-0.000850319
-9.37263e-08
-7.31107e-07
2.83898e-07
-0.000113235
-1.16434e-08
-7.23487e-07
-3.09204e-07
1.67532e-06
1.20475e-07
-1.73613e-06
-0.00101687
-1.94473e-07
-3.58314e-08
-0.000673604
-0.00101921
-0.000606892
0.000342749
2.56674e-07
-1.35947e-07
-0.0010444
0.00166105
2.56565e-07
1.72177e-07
-1.67168e-07
-9.84106e-07
-7.41314e-07
0.00064961
-2.35243e-05
0.000124623
-7.54508e-07
-0.000481871
7.26639e-08
-1.95549e-07
2.34075e-07
-0.000130643
1.31553e-07
-0.00012081
-7.69859e-07
0.000224533
-1.75023e-07
0.00177245
7.32762e-07
0.00384791
3.26518e-07
0.000121238
5.95526e-05
-2.71668e-07
-1.49538e-07
-0.000819012
3.13774e-07
-0.000250878
0.000757607
3.28187e-07
0.00454352
-1.09368e-07
-1.21179e-05
2.26801e-07
-0.00016771
-5.63247e-06
-2.99026e-07
-0.000232846
8.50895e-05
-2.5381e-07
-0.000456461
-0.00135506
-2.82411e-07
0.000282688
-1.42511e-07
6.93729e-05
-0.000688399
-8.65887e-08
-4.75203e-07
-3.15798e-07
-6.03554e-08
-6.60765e-08
6.31913e-08
-0.000266221
0.00313751
-1.76953e-07
7.9241e-08
-6.15173e-08
-9.83187e-07
7.1353e-05
2.68617e-07
4.84855e-08
-0.000145574
0.00101802
-5.7346e-08
-2.9385e-07
-0.000467382
-0.000350714
-3.60028e-06
-0.000438371
-0.0009541
3.42532e-07
2.64373e-07
-4.67413e-07
-6.92989e-08
2.71736e-07
-1.28931e-07
2.66834e-07
3.40222e-07
-0.000129964
-1.47763e-07
-7.82492e-07
-0.000440368
-1.00664e-06
8.43985e-08
-1.35553e-07
-0.000495679
-4.78373e-07
-0.00026728
2.76605e-07
-9.20275e-08
3.29613e-07
3.06088e-07
-3.04308e-07
-9.72725e-08
-0.000455105
2.89432e-07
-0.00104277
-9.32173e-08
-7.36898e-07
3.22355e-07
-1.67651e-07
-3.21291e-05
-0.000581843
-1.61747e-07
-0.000806564
7.20286e-08
-3.00551e-08
-5.22662e-08
-1.13082e-07
8.79594e-08
-2.93536e-08
-0.000818909
-0.000301874
9.66763e-08
0.0013792
-0.00200523
-5.54195e-08
-1.09641e-06
-1.16167e-06
-0.000373167
-4.89543e-07
-0.00102925
0.000459195
0.000359854
-1.02638e-07
1.08726e-06
3.62695e-07
-2.68124e-07
-0.000721623
1.34343e-07
-1.53048e-07
-2.038e-07
-4.49013e-07
-5.81514e-07
-0.000439615
-1.0389e-06
2.78917e-07
2.26063e-08
2.6263e-06
-9.91882e-07
-1.80279e-07
0.00038077
-7.62816e-07
-5.19612e-07
-0.0002854
-9.48372e-08
-1.02823e-06
0.00124688
-5.36669e-08
-0.000726471
-1.70911e-08
3.05996e-07
-9.912e-07
2.79683e-07
7.9205e-08
0.00125427
-0.000785759
-0.000554389
-9.57044e-08
-2.4731e-07
2.93585e-07
-0.000616651
-8.85462e-05
-1.69558e-07
-1.60226e-07
-9.22711e-08
-1.05151e-06
0.00117255
1.00579e-07
1.16917e-07
-2.27977e-08
-6.36631e-08
2.01688e-07
-5.47913e-07
1.32187e-07
-1.03156e-06
-5.38318e-08
-7.08369e-08
-3.0253e-07
-0.000496262
1.17731e-07
-3.48137e-07
2.26641e-07
-7.19045e-07
-1.33433e-06
-1.73374e-06
-1.23937e-06
0.00284156
-2.8256e-07
2.4213e-07
-0.000891552
-0.000130354
-0.000500711
1.24748e-07
-4.19796e-08
2.7639e-07
-1.51889e-07
-0.000998304
2.69353e-07
0.00107714
-4.44841e-07
-0.000924357
0.000372046
-3.11931e-07
-7.75625e-05
1.01138e-07
-1.09036e-06
1.62829e-07
2.78592e-07
-0.000907505
2.70846e-07
-0.000983184
3.69167e-07
-8.40526e-08
-4.83208e-08
-0.000447041
2.18839e-07
1.72852e-07
-0.000239182
-1.09061e-06
-4.73702e-05
-0.000963909
-0.000854038
-0.000327773
1.16657e-07
-0.000331158
1.39153e-07
-0.000298262
-0.00160044
2.82126e-07
9.67024e-07
2.9888e-07
-7.4704e-07
-3.317e-07
2.74651e-07
1.33479e-07
-4.98931e-08
-0.000954096
-1.01278e-07
-1.08255e-06
-1.49998e-07
1.58904e-07
1.6278e-07
0.000508888
-0.00081616
-7.37618e-05
-1.1552e-06
-5.53654e-07
-0.000627117
-0.000524132
2.3022e-07
-0.000699777
-5.91737e-08
-3.89551e-06
-1.51271e-07
-0.000807593
-6.02508e-08
1.83233e-07
-1.38719e-07
-0.000393983
-7.55774e-07
-0.000964374
1.5112e-07
-7.35201e-07
1.44148e-07
2.71175e-07
-0.000520564
0.00339071
1.50675e-07
0.000981621
-4.45065e-08
2.90531e-07
3.17858e-07
-0.000595953
-1.04627e-07
4.49081e-08
2.67231e-07
1.52567e-07
-6.44858e-05
2.77945e-07
0.0002954
1.03712e-07
-2.67625e-08
-0.000272635
-1.18703e-06
-1.66169e-07
-4.52207e-05
-0.000982787
3.88719e-06
0.00122683
1.01688e-07
-6.35778e-07
-0.000420605
-0.00120079
-4.55967e-07
-3.1029e-07
1.89939e-07
1.36518e-07
3.68182e-08
-4.10932e-06
-1.48117e-06
-4.02382e-07
-0.000239904
-7.74834e-07
0.00106246
-0.000171204
8.38219e-08
-7.15669e-07
0.000922659
-0.000445748
2.16329e-07
-2.917e-07
-1.7665e-05
-3.30049e-08
1.72247e-07
1.7404e-07
2.67594e-07
-2.09416e-08
-0.000332491
-6.41302e-07
1.56091e-07
-1.7852e-06
1.43982e-07
-0.000461712
2.46792e-07
8.69837e-08
-0.00076867
-1.24816e-06
-0.00105242
-1.69034e-07
3.9489e-07
1.22348e-07
-2.05406e-07
-5.47714e-07
-3.45292e-08
-0.000295425
-5.80371e-07
0.000455782
-0.00139765
-3.05468e-07
-0.000852769
-2.46906e-07
3.95386e-07
1.44183e-07
-0.000556807
-0.000435582
-4.60107e-07
-0.000313611
0.00163505
-1.48662e-08
1.00647e-07
-3.06037e-07
-0.00100128
0.000233151
-7.49959e-07
-2.08501e-07
-3.49456e-07
-3.4831e-06
-1.98487e-08
9.54052e-05
-6.66136e-07
-1.9617e-07
-2.47956e-07
2.72488e-07
-5.52838e-07
-6.91542e-09
-0.00134958
-3.54287e-07
2.9202e-07
-0.000296462
3.15688e-07
0.00178045
-3.00841e-07
-4.64995e-07
-4.45729e-07
-0.00117327
1.15474e-07
-9.95825e-07
-0.000840668
-0.00140707
-1.49904e-07
-3.62191e-07
4.5984e-07
-1.25862e-07
-1.34428e-07
-3.57603e-07
3.30788e-07
0.00068007
0.000468301
1.13759e-07
-0.00127307
-4.24977e-07
-4.51389e-07
0.000989653
-1.41479e-07
-1.09829e-06
0.00208464
1.26649e-07
-1.23957e-06
-4.04331e-06
-6.74542e-07
4.27242e-08
7.88567e-08
3.91945e-08
-0.000273873
-2.34064e-07
2.60083e-07
-7.40536e-07
-3.73206e-08
8.89902e-08
0.00126359
0.00264366
-4.72006e-07
-0.000530878
-9.47998e-07
-0.00103975
-1.34992e-07
2.49202e-08
-0.000573466
2.92592e-07
-1.30465e-07
1.091e-07
1.71595e-07
-1.67253e-07
-3.69747e-07
-2.28521e-06
4.40433e-08
1.54591e-06
-9.06314e-10
-0.00164893
-3.03552e-07
-4.95028e-07
2.85711e-07
-1.31411e-06
-4.7309e-07
-0.000633083
-1.04994e-06
8.40812e-08
-0.000410105
-2.5409e-07
-0.000442999
-2.99256e-07
1.25755e-06
-1.61245e-08
1.45219e-07
-1.50785e-07
-0.00085661
-5.57757e-07
-4.59568e-06
-0.000714505
-1.16645e-07
-6.92797e-07
6.26758e-08
8.572e-08
0.000870255
7.54044e-08
-0.000164316
-3.48987e-07
-2.59934e-06
0.00502762
-2.35626e-05
2.57715e-07
2.03342e-07
0.000163556
1.08249e-07
-1.52352e-07
-2.72891e-07
-2.9905e-08
-7.60376e-07
2.46715e-07
-0.000165644
-1.91066e-07
-0.000239113
-0.00043829
1.36717e-05
-0.0010321
-0.00076123
-0.000136294
3.51007e-05
1.67331e-08
2.94563e-07
-1.43294e-07
-2.49054e-07
-9.34669e-08
-5.49939e-07
-1.1265e-07
0.000217081
-1.56288e-07
-0.000926421
-2.24133e-07
-5.73573e-07
-1.49182e-05
1.44004e-07
-7.84844e-07
-2.49972e-07
2.62336e-07
-4.6724e-07
3.17298e-07
-0.000853737
-1.51718e-06
2.68479e-08
1.07954e-07
-7.16942e-08
-4.52957e-08
-1.22616e-08
-0.000294666
1.11016e-08
0.00306214
-5.94598e-08
0.000523783
-3.9347e-07
-8.97284e-08
-1.06254e-06
-1.84155e-09
6.98084e-09
-0.00132641
-0.000727962
-2.98335e-07
-1.47769e-06
1.32601e-07
0.00199357
3.62133e-07
-1.39117e-08
-0.000406655
1.66076e-07
-2.47159e-07
-2.21477e-06
-0.000359172
4.19519e-07
-5.34393e-05
-0.000717251
3.22288e-07
-5.1496e-08
-3.95892e-08
-0.00094291
-7.1518e-08
-8.40913e-05
-1.65616e-07
-0.000740889
-4.41977e-07
-8.82647e-05
7.54844e-08
2.31887e-07
3.48533e-05
6.80087e-08
3.00301e-07
-0.000917006
-2.58011e-07
-4.42808e-08
0.000228863
3.23551e-07
2.94274e-07
-1.43484e-06
-2.75247e-07
-0.000997929
-7.1909e-07
-1.19711e-06
0.00138536
-3.46635e-07
-0.000747604
-2.07452e-07
-1.3335e-06
-9.6506e-08
-0.000469019
0.00062765
-1.63773e-07
3.63555e-07
2.59216e-07
-1.72643e-07
3.41135e-07
3.28541e-07
2.98466e-07
-1.45174e-07
-5.65365e-07
1.25873e-07
-2.46239e-07
-1.22766e-06
-0.000218814
-0.000598496
-2.06928e-06
-4.65328e-08
3.94146e-05
-1.06808e-07
-0.000524903
0.00136257
-0.000136397
2.92956e-07
1.2333e-08
-6.55889e-08
-1.3441e-07
2.89238e-07
3.23775e-07
-1.17327e-07
-7.24358e-07
-4.41306e-08
-0.00010248
0.000486793
-8.17678e-09
-0.000879219
-9.97403e-08
6.08859e-08
-7.4432e-08
-0.000633235
-1.3855e-06
1.81112e-07
-0.00100021
1.72086e-07
8.2112e-08
-0.00122181
2.90683e-07
0.000638406
-2.49038e-07
-8.58005e-06
7.20028e-08
3.14572e-07
-5.00129e-07
1.82275e-06
-2.83339e-07
-0.000572031
1.41449e-07
7.76441e-07
-3.40768e-08
-8.83895e-08
8.33125e-08
-2.14397e-06
-7.33485e-07
-3.90972e-07
-0.0006013
-0.000111386
1.83708e-07
-2.16272e-06
2.9991e-07
-0.000558265
3.15796e-07
-0.000382713
-1.12949e-06
-4.70486e-07
-2.66804e-07
-0.000213784
-0.000533483
-0.00111489
4.24938e-07
-0.000938177
3.39309e-07
-1.15548e-07
-6.40396e-07
-1.86975e-07
-1.61694e-07
0.00155831
-0.000359354
3.1682e-07
-4.71086e-07
-0.000496132
2.84774e-07
2.59562e-07
0.000909578
-0.000528109
-2.38556e-07
1.68539e-07
-4.85725e-07
-1.34702e-07
9.4918e-08
-1.35625e-07
-3.60954e-07
-1.36693e-07
0.000645661
4.82032e-07
1.37961e-07
0.000828803
8.86614e-08
-0.000485247
-1.70461e-07
-2.20205e-07
2.27735e-06
-0.000346641
-8.24075e-06
1.01487e-06
-4.90734e-07
-1.73049e-07
-2.49102e-07
4.24787e-07
-0.000588183
3.0416e-07
-2.96076e-08
-9.93765e-07
-6.25391e-08
-0.00168524
-1.51063e-06
-0.0022148
-9.57769e-07
-0.000223478
0.000232646
-0.000481674
-0.000750324
1.09804e-06
-0.000162327
2.72964e-07
-1.01681e-06
-1.25922e-06
0.00129068
-4.01564e-07
2.77826e-07
-4.29959e-07
0.000992816
-2.5657e-07
-0.000375577
-7.12199e-07
-6.77796e-06
-0.000414998
1.63731e-07
-3.20913e-06
-2.95367e-07
-1.3749e-07
2.3041e-07
-6.07595e-07
2.51174e-07
1.25526e-07
-2.63731e-07
-0.00109297
-3.27939e-08
-2.54234e-07
-3.34755e-07
-2.10292e-07
-1.46728e-07
-1.91303e-05
-1.13992e-06
-3.14378e-08
1.20014e-07
2.23884e-06
2.31979e-06
-4.92794e-07
-0.000779372
-1.8413e-07
-8.59511e-08
-0.000575332
2.51084e-07
-2.67027e-07
-0.000776571
-0.000509804
-6.11058e-08
-1.00598e-06
-3.67005e-07
-0.000239024
0.00279461
-5.59217e-07
-0.000949417
1.08087e-07
1.31712e-06
-0.000271317
-0.000657679
0.00100164
0.0051238
3.37672e-07
-6.76916e-08
1.23788e-08
-1.47949e-07
-7.0285e-08
-0.00131612
1.82324e-07
-8.76202e-07
1.56619e-07
-8.96035e-07
-0.000452237
-2.72517e-07
-0.000614274
-0.000813624
-9.90414e-08
-1.11654e-06
-3.78903e-07
-2.59645e-07
-1.32216e-07
-0.000541047
-1.29234e-06
-0.000414161
-4.60986e-07
-0.000175106
-3.64299e-06
3.86976e-07
-6.99582e-06
-7.24889e-07
4.11682e-07
-8.91779e-08
0.00064249
-1.30028e-07
-3.76418e-07
-5.62394e-07
-3.45641e-07
-1.74507e-07
-1.03699e-06
3.72222e-05
-9.73587e-08
0.00118722
-1.04668e-05
-1.50174e-07
-9.99435e-08
3.00781e-07
-0.00114169
-0.000456148
1.68115e-07
-5.37919e-07
8.13042e-07
-2.26133e-05
-0.000263888
-1.51127e-07
-6.25434e-08
3.36743e-07
-8.76589e-08
6.32152e-07
-2.95183e-07
-0.00112162
-1.84294e-08
-3.74118e-07
-8.46501e-07
9.70066e-07
-2.16233e-06
-0.000566152
-0.000204254
-1.699e-07
1.60615e-07
-6.87971e-08
-2.40252e-07
-1.24662e-06
-0.000888226
1.13025e-07
-2.53951e-05
-4.60923e-07
-9.15612e-07
-3.21331e-07
-4.42385e-08
-3.62213e-07
-7.87186e-05
1.87036e-07
0.00118466
-4.07543e-07
2.00699e-07
-1.56193e-07
-0.000742611
-9.30914e-07
6.16374e-08
-0.000212542
0.00118911
1.20514e-07
0.00020329
5.54105e-07
-7.9297e-08
-0.000667545
0.000392161
1.90685e-07
3.41688e-08
-0.000816066
-6.12159e-07
-2.37654e-07
2.45598e-07
-1.01218e-07
9.65441e-08
-1.1564e-07
-5.65341e-07
-8.96303e-07
-0.000385239
-6.40232e-07
-4.52106e-07
-6.29205e-07
-3.86648e-06
1.31272e-07
-5.79246e-07
0.000266944
-0.00124178
-0.000227967
-2.34682e-07
2.47442e-07
-0.000489525
-5.58414e-08
-5.84576e-06
-2.87248e-07
-7.92994e-07
-1.89195e-07
-5.01951e-08
-0.000997571
-4.69085e-07
-2.26199e-07
-6.81051e-08
-0.000143174
-0.00080664
-0.000519289
-6.58918e-09
-7.82359e-08
0.00474748
1.23456e-07
3.43087e-07
0.000985183
0.000967047
-4.43737e-07
-7.11294e-07
-2.28946e-07
-0.00106859
-8.16698e-08
-1.83209e-07
-1.74262e-07
2.33299e-07
-0.00127463
-8.85567e-08
9.56159e-08
0.00127951
-1.00375e-06
5.83342e-05
-0.000917384
-8.40111e-08
-6.12406e-07
7.92041e-08
1.2943e-07
-2.61111e-08
-6.86545e-08
-1.58966e-07
-0.00130163
-1.53227e-07
-1.28938e-06
2.44966e-07
2.63216e-07
-1.32363e-07
4.09726e-07
6.86156e-08
-0.000533576
2.51992e-07
0.000667018
-1.2197e-06
-3.65359e-08
-9.82752e-07
-7.02488e-07
-6.3063e-07
-1.45008e-07
4.49063e-08
1.27352e-08
2.08613e-07
-0.00136528
-4.07421e-07
2.75742e-07
2.71232e-07
1.60965e-07
3.47794e-07
5.67241e-06
-6.84396e-08
-0.000705625
-8.94786e-07
3.11142e-07
-5.57716e-08
2.43266e-07
-8.81261e-07
-3.4257e-07
-0.000667202
-6.62258e-08
-0.001188
2.66237e-07
1.32427e-05
-2.84517e-07
-0.000785466
1.55074e-07
2.45603e-07
-3.83352e-07
-9.47141e-06
2.41587e-07
-0.000694366
-1.29099e-07
2.52204e-07
0.00172746
0.00044048
-0.000209474
7.77702e-07
-4.38455e-07
0.00199891
-2.64314e-07
3.32217e-07
-0.000776415
-9.91105e-08
1.96793e-07
0.000250189
2.39077e-07
-0.000756231
5.18943e-07
-5.77185e-08
-1.49659e-07
3.30363e-07
-0.000873389
2.349e-07
2.46107e-07
-1.19016e-06
-9.15502e-08
8.85794e-08
4.45193e-07
3.38212e-07
-8.38315e-07
-1.62951e-07
-9.62522e-09
1.59476e-08
0.00143121
1.82729e-06
1.2749e-08
2.15873e-08
-2.35762e-07
-6.01479e-08
-3.48048e-07
-1.72618e-08
2.57611e-07
-1.62975e-07
-8.71603e-08
-2.30462e-07
-1.49858e-07
-7.64498e-07
2.48644e-07
-1.25077e-06
-5.78696e-08
2.77655e-07
1.78858e-07
-1.5534e-07
-4.61567e-08
2.61403e-07
-6.69644e-07
-4.13003e-07
-4.04057e-07
-5.48057e-05
1.98817e-06
-0.000799917
-0.000605787
-1.71493e-06
-0.00102607
-7.76351e-08
-1.46258e-07
0.00207327
-0.00039246
3.53345e-07
-0.000509489
2.18905e-07
1.6152e-05
0.00233586
-3.44915e-07
-2.10612e-06
-0.000310997
-0.000336691
1.8859e-07
-8.66736e-07
-7.35512e-09
-4.59431e-07
-3.74497e-07
-0.000796168
-0.000134097
-1.72549e-07
5.77749e-07
0.00233521
7.63905e-08
-0.000538355
-0.000616281
-2.84829e-07
-8.1454e-08
1.29746e-05
-0.000534664
3.32195e-07
-6.2853e-07
-1.524e-07
0.00254785
0.00174278
-1.46711e-07
1.75111e-07
-0.00109304
1.42262e-07
-9.845e-08
-2.17138e-07
1.21862e-07
-0.00045545
-5.89854e-07
-5.54006e-07
-0.000587876
-1.11945e-07
-9.35464e-07
-1.46659e-07
-2.29675e-05
-9.49801e-07
-2.21818e-07
1.90237e-07
-5.41327e-07
1.46044e-07
1.87824e-07
-3.23111e-07
-1.45126e-07
-0.000668633
-2.48483e-07
1.26778e-07
-9.8283e-08
-0.000130952
-7.45077e-08
0.000878398
-0.00046071
0.00143236
-9.94388e-09
1.5131e-07
-9.45261e-08
-1.68869e-05
-1.62938e-07
-0.00108077
1.92758e-07
0.00143625
-2.6619e-07
2.69934e-07
-0.000913572
-1.47396e-07
1.00287e-07
-0.000513761
-9.75522e-05
-0.000705688
2.57949e-07
-0.000932859
-0.000584256
-1.244e-07
-0.000560197
-1.36448e-07
-3.76562e-07
-0.000201867
-2.66341e-07
-1.13919e-07
-0.000411614
-3.82419e-07
-1.26463e-06
-1.24878e-07
-0.00106511
-1.08576e-07
0.00114929
-8.86455e-08
-0.00041733
-1.10949e-07
-3.21644e-08
-2.10579e-08
-0.00111199
1.4196e-07
1.42092e-06
-1.40204e-06
5.46119e-05
-1.2175e-07
-4.5055e-07
-0.000873762
2.86547e-05
0.00018283
-1.11195e-06
1.86762e-07
-4.27758e-05
0.00179705
-2.90259e-07
-0.000667018
2.38236e-07
0.00105457
-0.000334885
1.51138e-07
-0.000273566
-5.36926e-08
-0.000920715
-0.000315391
-3.25185e-07
-1.58752e-08
0.00134707
0.000958887
-6.18959e-08
-2.84646e-07
1.36582e-07
-1.41964e-07
-0.000952776
-1.10133e-06
-0.00106779
1.74152e-08
-4.91774e-07
-0.000772816
3.45469e-07
-2.28441e-05
-0.00113388
-9.23804e-08
-8.067e-08
-0.000927851
-0.000422074
0.000123364
0.00120229
-0.00143273
-6.81748e-07
-6.69601e-07
-0.000896891
-0.000324367
0.00130187
-8.48713e-08
-1.82438e-06
-8.60038e-07
-1.28338e-06
-1.48174e-07
-4.44625e-07
-9.87481e-07
0.00130235
0.00218355
3.14506e-07
0.000914131
-0.000582167
-5.11075e-07
-7.07278e-08
-8.32772e-08
8.4542e-06
1.64105e-07
-0.000828209
-5.09902e-07
3.91304e-07
0.0009614
3.69651e-07
2.11701e-08
-7.23627e-07
-5.84741e-07
-1.48724e-07
-0.000907171
2.63387e-07
-0.000863801
2.32904e-07
-0.00059922
-0.000752364
-0.000897951
2.59608e-07
-4.22786e-07
-3.95306e-07
0.00143888
0.000396047
-1.25638e-06
-0.000966818
0.00263577
9.38922e-08
-4.16434e-07
2.52979e-07
0.00039125
-0.000291019
1.43753e-07
1.93668e-08
-2.6409e-07
0.000337653
0.00150164
2.14457e-07
-9.07562e-07
0.00110405
-5.8001e-08
3.66006e-07
-2.96917e-07
-0.000872407
-4.67099e-07
1.13497e-05
-0.00107629
-5.52642e-07
-3.07964e-07
-0.000664156
-9.44621e-08
-2.67316e-07
-0.000270019
3.3846e-08
1.47578e-05
-5.71984e-07
-1.0426e-06
-0.000407025
-0.000936568
-1.25022e-07
0.000603156
0.00284076
2.37375e-07
-0.000458273
-1.33588e-06
0.000255536
-0.000673623
0.00199659
0.00253652
0.000356103
-0.000266853
-4.46033e-07
-1.07895e-06
1.8208e-07
-1.56946e-07
-1.48582e-07
6.65874e-09
-0.00096864
0.00143793
2.52254e-07
2.19457e-07
-0.000908785
-9.25408e-08
0.00107133
-0.000976922
1.79737e-07
-1.60525e-07
2.47565e-07
-2.18409e-07
-8.27912e-07
-1.07072e-07
-0.000168209
-5.88773e-07
-1.28409e-06
-3.66974e-07
-1.08803e-06
-4.07248e-07
-6.21633e-07
0.0013266
-1.47603e-07
-2.24942e-07
2.45366e-07
2.12567e-07
-0.000885267
-2.45716e-06
-4.34678e-07
-0.000206026
4.5503e-09
-1.62226e-07
-3.68556e-07
2.09913e-07
3.00363e-07
8.13899e-07
-4.21546e-07
-0.000492302
4.70841e-05
-0.000328846
-1.21711e-07
-0.000312323
-1.21805e-07
-0.00107319
2.17274e-08
-0.000312344
-0.000226904
-3.83241e-08
0.00054515
-0.000486105
-5.04459e-07
-6.46425e-09
1.20259e-07
-4.5467e-07
-0.000608008
1.27142e-07
-1.81484e-07
5.05652e-07
1.29977e-06
-0.00104978
-3.50076e-08
-4.27242e-07
-9.1797e-08
3.23985e-07
-0.000695566
-6.98345e-07
-1.76471e-07
0.000295455
7.46374e-06
-0.000834567
0.00192352
9.26574e-08
-1.93012e-07
-0.000343899
-1.45848e-07
-1.28335e-06
-1.26794e-07
-0.000961225
1.34289e-07
-2.50328e-08
3.17581e-07
-0.000657654
-7.04274e-08
1.98924e-07
1.54332e-07
-0.00135588
-0.00010798
0.000563264
-5.15875e-08
-2.84339e-07
-3.3848e-08
-0.000568252
3.55736e-07
-0.000890141
-1.01335e-06
4.36329e-09
0.000480333
-5.17129e-07
-5.16629e-06
-1.77173e-07
3.43536e-07
-5.54799e-07
-2.4022e-07
0.00202192
-1.62889e-07
-1.74804e-07
1.38204e-07
-0.000694928
-6.10197e-09
-6.28203e-08
-0.000943652
-2.6348e-07
3.11739e-07
-3.94417e-07
9.65512e-08
2.27403e-07
-0.00153446
-2.98422e-07
-0.000306854
-0.000162613
1.64862e-07
0.000225989
-1.89455e-07
-0.000160125
-8.52976e-07
-6.16153e-08
2.67041e-07
1.54242e-07
-1.08338e-07
0.00237972
-8.44447e-07
-0.000517516
-0.00035909
1.41581e-08
4.15075e-07
-7.02232e-07
-0.000929891
-1.37533e-07
9.41136e-06
-0.000933221
-0.0009657
1.78941e-07
-2.95702e-07
-2.09889e-07
-1.45954e-05
-0.000894109
3.93746e-07
-3.17865e-08
-6.27057e-07
-0.000134886
-1.5776e-07
-3.00667e-07
-2.40863e-07
2.2659e-05
-0.000701517
1.39034e-07
-0.000510812
-5.71191e-07
-7.08613e-08
-0.000678733
-1.03547e-06
-4.70318e-05
0.00302888
-5.23645e-07
-3.87444e-07
-7.84367e-08
-3.65987e-07
-1.86465e-07
1.47084e-06
-8.77335e-07
2.49156e-07
-3.84525e-07
-0.000894917
-5.05017e-05
1.31298e-07
0.000302284
-0.000316143
0.000471496
2.6101e-07
-1.46818e-07
-0.000869741
-0.000966941
-1.3235e-05
-2.01579e-08
-0.000303179
-1.07304e-06
2.03209e-07
-0.000397742
-4.50453e-07
-1.2408e-07
0.000533575
-2.63261e-08
2.05274e-07
1.62676e-07
9.69287e-08
-1.74045e-08
1.54639e-07
-0.00100047
2.53366e-07
-9.26817e-08
-1.58532e-06
-3.83819e-07
-3.08704e-07
-0.00031714
-1.43416e-07
-6.15069e-08
-2.66479e-07
-2.32035e-07
-0.00214362
-0.0011423
-0.000904304
0.00128492
-1.02047e-06
0.00115137
6.40308e-07
-0.000665943
-0.000231462
-0.00096549
6.00093e-08
-3.93065e-07
-1.38702e-07
-1.19189e-07
2.24596e-07
2.85115e-07
-0.00128511
-1.04284e-06
-5.86595e-07
-8.68047e-08
-7.96945e-08
-9.08704e-07
-1.78414e-07
-1.6686e-07
-1.3856e-07
-0.000579756
-5.67398e-07
-0.000275121
-1.07929e-07
-0.000928185
-1.79293e-07
-1.68277e-08
-1.07759e-07
-7.90562e-07
-5.04126e-08
-4.84308e-06
-0.000623127
-7.2348e-07
-0.000478959
-0.00146535
-4.27907e-07
-4.89157e-07
5.01555e-06
0.000448213
2.76043e-07
2.34129e-07
1.66835e-07
-0.000384124
1.025e-07
-7.07681e-06
-1.74482e-07
-2.2965e-06
0.000303728
0.00111243
-1.22222e-06
-0.000904702
3.37831e-07
1.05173e-07
1.00231e-06
-0.00107842
-1.49091e-07
-1.27686e-07
0.00513956
-8.46756e-08
0.000738461
-2.18814e-08
3.54396e-07
-3.55538e-07
-1.32426e-07
-1.43315e-06
-0.000612488
-0.000522982
-4.0003e-07
1.7896e-07
3.19422e-06
-2.57341e-07
-1.3137e-07
9.34795e-09
-0.000660302
-2.07771e-06
-1.68627e-07
-1.18542e-07
1.88977e-07
0.00100649
9.87471e-08
-0.00108929
-0.000549078
-5.32305e-07
-0.000965896
-1.27909e-06
-5.13274e-06
-0.000958773
-1.27273e-07
-0.000400361
-2.4079e-07
-0.000565069
-0.000946732
-0.000345132
-0.000971795
5.90028e-08
-9.44752e-07
1.00843e-06
-1.08329e-08
-0.000399091
-1.41532e-07
-1.44105e-07
-4.48449e-07
-2.20379e-07
-6.2871e-07
-0.00124304
-0.00110757
-0.000238909
-4.36544e-07
-7.16286e-07
-2.42291e-07
1.08261e-08
-1.38911e-07
0.00168078
-1.58816e-06
-0.000372577
-8.16048e-07
2.61347e-07
1.16075e-07
-9.59388e-08
-0.00129879
-2.91216e-07
-7.21566e-08
-3.83364e-07
7.15984e-05
-6.47097e-07
-3.63225e-07
-1.16587e-06
-0.000499812
-5.28357e-07
-6.9658e-07
-1.35521e-07
-4.47208e-07
0.000358369
-6.56408e-07
-8.26973e-07
2.18239e-07
-0.000655294
-6.79143e-07
-1.47456e-08
-9.39263e-07
-0.000721909
4.17745e-05
-5.36638e-07
-8.05938e-08
-0.000356891
-1.74371e-07
-5.78637e-08
2.67285e-07
0.000267356
-0.000759086
-3.26003e-07
-0.000528217
-0.000994319
1.35485e-07
-1.23781e-06
-1.00618e-06
-0.000855351
-5.64048e-07
-0.000895178
-1.72283e-07
2.34048e-07
2.80213e-07
-0.000935318
-6.97694e-07
2.3332e-07
-0.000743014
-7.16078e-08
-2.26119e-07
-0.000836523
-0.00107898
3.938e-06
0.00017264
-3.61736e-07
-2.72829e-07
-0.000896019
-2.96569e-08
-9.24343e-08
-1.19114e-07
-8.6551e-07
-1.32581e-07
-5.00558e-07
7.70552e-08
7.15693e-06
-0.001015
-2.27013e-07
-0.000437973
4.90851e-08
-0.000670638
-0.000495287
-1.29232e-07
-1.69638e-07
-4.37785e-07
0.00309404
-0.00124259
-1.31777e-06
-0.000684332
-0.00040065
0.00242635
1.48836e-07
-0.00109045
-0.000276226
3.77569e-07
-0.000834521
-1.45132e-07
-1.4946e-08
-1.14579e-07
-2.08055e-07
-8.10536e-08
-6.9535e-07
-0.000527752
-7.17276e-07
-9.30961e-05
-7.48452e-05
-0.00112257
-0.000350211
-0.000848178
-5.14492e-07
-0.000894308
5.56681e-05
-1.30994e-06
2.33567e-08
-2.14846e-08
-1.27879e-06
-0.000427999
-2.99549e-08
-0.0007083
-0.000810436
6.73278e-08
-1.46776e-07
2.61693e-07
2.68011e-05
-1.8085e-07
-1.43065e-06
-0.00042197
1.3633e-07
-3.15847e-08
5.84665e-08
-2.30452e-07
2.90635e-06
-0.000587621
-4.94538e-07
-0.000973452
0.000376172
-1.01263e-07
-0.000803816
0.00186442
1.11349e-07
-0.000916026
-0.000959935
-0.000365415
0.000178223
-0.000496139
-1.84657e-08
-0.000978998
-0.000601118
0.00140822
-0.000975099
2.11998e-07
-2.64024e-07
-3.25627e-07
-3.14286e-07
-0.000964345
-1.32128e-06
-1.68381e-07
-4.76164e-07
0.000720979
-0.00058644
1.5717e-07
4.39011e-07
-0.000795137
-0.000856091
-1.58948e-07
-4.55649e-07
-9.99779e-05
-7.88593e-08
-6.11488e-08
-0.000146864
-8.75726e-08
-0.00129522
-0.000817945
-0.000945421
-4.95461e-08
9.88097e-07
0.000148089
-4.47293e-09
2.24749e-07
-0.000232653
-3.57855e-05
1.53456e-09
-6.53159e-07
0.000790175
-0.0012127
-0.000857422
-0.000462603
-4.09184e-07
-0.000174862
6.17194e-05
-6.73877e-07
-9.0504e-08
1.22083e-06
1.41896e-07
2.44914e-07
-0.000478397
-6.73645e-07
-1.41394e-05
-3.86179e-07
-1.30011e-07
1.63098e-07
2.69613e-07
-2.25166e-07
-2.46651e-07
-0.000629336
-3.71298e-07
-0.000359166
-0.000326192
-7.82704e-07
-1.4795e-06
-0.000569049
-0.0009357
-0.00060073
3.4455e-07
-4.03112e-07
-6.8737e-07
-3.98644e-07
0.000903975
-0.00102485
-2.17685e-07
-0.000426294
-0.000547632
-4.194e-07
-2.4117e-06
-1.7327e-06
2.04911e-05
-0.000355743
-2.8281e-07
-0.000562145
-0.000679513
-0.000795863
-0.000864408
-0.0036791
-1.96966e-06
5.42951e-08
-9.47676e-08
-6.84598e-07
-9.65755e-07
-6.61829e-08
-0.000120353
-0.000891528
0.000824245
-0.000789455
2.15258e-07
2.37057e-07
1.59013e-07
-0.000987454
-2.3573e-07
-2.89133e-07
-1.0806e-06
-0.000212432
0.00428827
-1.42233e-07
-4.12535e-07
-4.1418e-07
-5.18044e-05
0.000697795
-3.57743e-07
-0.00045669
-0.000591886
7.18064e-06
-0.000892808
-5.71057e-07
9.74407e-06
-0.000879718
4.85907e-08
-0.000925846
-0.000610346
-2.33554e-07
-1.00979e-06
-1.50809e-05
-3.5573e-07
1.55375e-07
0.00265635
0.000638366
3.11425e-07
3.10306e-07
-0.000378486
-0.000982911
-1.17783e-07
-1.67133e-07
-0.000916309
0.00114316
-0.000783779
-0.000472354
-1.37731e-07
-7.08803e-08
-2.33059e-07
5.02998e-07
-0.000921761
0.00447291
-0.000873628
-1.54558e-06
-0.000892993
0.00123591
7.1418e-07
-7.89297e-08
-0.000580189
2.21181e-07
-0.000895418
2.99604e-07
-0.000875793
-2.57843e-07
-2.00858e-07
0.00178857
-2.23807e-08
2.10157e-05
0.000847583
-1.40559e-07
-2.68797e-07
-2.76827e-07
-0.0012239
-0.000502798
0.00151238
-0.000716001
1.38541e-06
2.34781e-07
-5.34448e-07
-3.05911e-07
-0.000910905
-0.00023671
-2.20421e-05
-0.000894394
-0.000228612
-0.000936117
3.15225e-07
2.42525e-07
1.33348e-07
2.39218e-08
-0.000377923
4.93423e-07
1.11203e-05
-7.58448e-07
-0.000529281
-3.80504e-08
0.00017424
0.00198514
-6.79711e-05
-5.05651e-08
-2.83783e-07
1.07559e-07
-0.000644028
1.17977e-06
-0.000163699
-0.000294727
-0.00011315
-0.000849746
1.77653e-07
-7.68571e-07
0.00153562
-0.000460404
-0.000942728
-6.89651e-08
-0.00037457
-1.55277e-07
1.21069e-07
-0.000221111
0.00112925
0.000388714
-1.28076e-07
-2.54329e-06
0.0020795
-0.000340553
-0.000366409
-0.000934911
-0.000967919
1.13134e-07
-1.14034e-06
2.85232e-08
-0.000513427
1.90985e-07
0.00034593
-1.99026e-07
-9.39781e-07
0.00108237
0.000848616
9.91858e-07
-0.000145203
-0.000617548
1.0335e-05
-2.51143e-07
-0.0009041
-3.81359e-06
1.15013e-07
7.6624e-08
-0.000960368
-5.35885e-07