/*--------------------------------*- C++ -*----------------------------------*\
| =========                 |                                                 |
| \\      /  F ield         | OpenFOAM: The Open Source CFD Toolbox           |
|  \\    /   O peration     | Version:  v2012                                 |
|   \\  /    A nd           | Website:  www.openfoam.com                      |
|    \\/     M anipulation  |                                                 |
\*---------------------------------------------------------------------------*/
FoamFile
{
    version     2.0;
    format      ascii;
    class       surfaceScalarField;
    location    "350";
    object      meshPhi;
}
// * * * * * * * * * * * * * * * * * * * * * * * * * * * * * * * * * * * * * //

dimensions      [0 3 -1 0 0 0 0];
oriented        oriented;


internalField   nonuniform List<scalar> 
20642
(
-0.000396956
-0.000115061
0.00051216
0.00124403
-0.00208279
0.000832537
0.000323693
0.000305275
-0.000631587
0.000305186
-0.00110287
0.000781076
0.00166442
-0.00232349
0.000646529
0.00210139
-0.000864996
-0.000370054
0.00107038
-0.000712011
0.00257269
-0.0014201
-0.00115667
0.000481721
0.000142787
-0.000632546
0.000481636
3.43543e-05
0.00108464
0.00148279
0.00144634
-0.00136817
-0.000100123
-4.91037e-05
-2.02974e-05
0.00159674
-0.00230577
0.000707662
0.00171045
-0.00225163
0.000529535
6.33269e-06
-0.000403388
-3.97042e-05
-3.86439e-05
5.14724e-05
-0.00251085
0.0010729
0.00143244
0.000930243
-0.000591491
-0.000342992
-0.000536068
0.000253577
0.000282591
0.00173371
-0.00110783
-0.000633189
0.000390326
0.00126212
-0.00167626
0.000344737
0.00049253
-0.000842541
-0.00143178
0.00179578
0.00158335
-0.000743476
-0.000853114
-0.00186193
0.000749926
0.00110523
-0.00169191
0.000932694
0.000758287
0.000438158
-0.00222281
0.000803776
0.00141254
-3.77823e-06
-4.06863e-05
4.29767e-05
0.00042758
1.10468e-05
0.000927159
-0.000256708
-0.000675024
-0.00146346
0.000863667
0.000583121
-0.000486173
0.000200353
0.00028533
-0.000161095
0.00141306
-0.00127693
0.000268336
-0.00169156
0.00143018
0.000219029
-0.00166277
4.80264e-05
-0.000168784
3.71156e-05
-0.000986486
0.000606538
0.00105493
-0.00167905
0.000616744
-4.68375e-07
1.33828e-05
-3.06668e-05
0.000834266
-0.00120291
0.000354149
-0.000686674
-7.64576e-05
0.000757184
0.000277543
0.000368746
-0.000649181
0.000765538
-0.000492359
-0.000335969
0.000878388
-0.000543025
0.00151085
0.000213116
-0.000709628
0.000468776
0.000242194
-0.000919015
-0.00103696
0.00195454
0.000962946
-0.0011442
2.92213e-05
0.00139702
0.000406256
-0.0010675
0.000658212
-0.000286173
0.00039732
-0.000111265
-0.00149817
0.00181648
-0.000343755
-0.00192573
0.00139039
0.00051018
0.000915513
-0.000511578
0.000379668
-0.000554142
0.000892314
0.00123088
-0.000411578
-0.00101821
0.00068149
0.00114856
-0.000624381
-0.000522419
-0.000577866
-0.00105196
0.00161796
5.7949e-06
1.58258e-07
-8.62056e-06
0.000665129
0.000903603
0.000519955
-1.1494e-06
-0.000520381
-8.01948e-05
5.30076e-05
2.64723e-05
0.000908192
-0.00218491
0.00127092
0.00158633
-0.00132122
-0.00143113
0.000447152
-0.000307982
-0.00013929
0.000222186
0.000362827
-0.000587124
-0.00038919
-9.73739e-05
0.00105499
-0.000725434
-0.000351579
0.00094982
0.000263374
-0.00178172
0.000666551
0.0020427
-0.000978028
-0.00107922
0.00148579
-0.00218098
0.000682419
0.00123929
-0.000307312
0.00086746
0.00115837
-0.00100229
-0.000474217
-0.00135912
-0.000672829
0.00200959
-5.76231e-05
-4.95935e-05
6.85841e-05
0.000332301
0.000703953
-0.000664388
0.000334438
0.000328108
0.000778563
-0.000673785
-0.000174102
0.00231553
-0.0010146
-0.00130432
0.000578313
0.000342828
-0.000210404
-0.000189954
0.000315437
0.00158596
-0.000538983
3.12182e-05
-9.40519e-05
2.47438e-05
0.000104659
-0.000153644
-0.00065245
0.00136318
-0.00228444
8.95003e-05
-0.0013442
0.0012287
0.00038694
0.00140412
-0.00181098
-0.0013204
-0.00220181
0.00116004
0.00103967
-7.09547e-05
-6.6616e-05
8.74477e-05
-0.000425946
0.00014948
-0.00111428
0.00181415
-0.000702684
-1.53898e-05
-1.24683e-05
1.85464e-05
5.45496e-06
-2.76287e-05
-0.00192303
0.000545467
-0.000174079
-4.05019e-05
0.000167687
0.00228307
-0.000814059
0.00045118
-3.27592e-05
-0.000419235
0.000399926
0.000146192
-0.000545782
0.00128478
-0.00187608
-0.000331801
-0.000885239
-0.000773822
-0.000918864
6.83993e-06
-0.00016576
0.000533879
-0.000334229
0.00210113
-0.001303
-8.91007e-05
0.000607078
-0.000212968
-0.00102839
0.00123034
0.00044998
0.000475912
8.64976e-05
-0.00010152
-5.3148e-06
-0.000497502
-0.000236845
0.000731168
0.00011297
-0.000546979
0.000425343
-0.000144474
4.99851e-05
-0.00121836
0.000410752
0.000788291
-0.000840043
-0.00135029
-0.000466745
-0.000435102
0.000897932
-0.000212076
0.000410756
-0.000198781
-0.000333086
-0.000332551
-0.00139657
0.000572711
0.000810655
-0.000606063
-0.00118265
-0.00138637
-0.000270557
0.00162706
0.000393028
-0.00086317
0.000900769
-0.000369294
-0.000539452
-0.000465477
0.00109757
-0.000632925
0.000452359
-0.00023464
-0.000217947
-0.00136278
0.00113751
0.000848988
-0.00032003
-0.000534063
-0.00176625
0.000991277
-0.00112015
0.000594584
0.000526766
-0.000238903
-9.29911e-05
0.000331814
-0.0021344
0.000838221
0.00128872
-4.01363e-05
-0.00189267
0.00205586
-0.000164731
0.000400381
0.000820997
-7.18009e-05
0.000521548
-0.000344564
0.00141333
-0.00110075
0.000932187
-0.000682323
-0.000267512
-0.00105451
-0.000177895
0.00122042
0.00057676
-0.000356556
0.00225368
9.41491e-05
0.000354109
-0.000446963
0.000383135
-0.00190945
-0.00112041
0.0016227
-0.000510154
1.71941e-05
4.20912e-06
-3.0095e-05
0.000616009
0.000298664
-0.000878045
-0.00132531
0.00193372
-0.00162398
-0.000328191
4.57428e-05
-0.000263861
0.000226103
0.00015565
-0.000382121
-2.46063e-05
-2.64719e-05
3.23572e-05
9.31863e-06
6.02483e-05
0.00151261
-0.00116848
-0.000397522
0.000188813
0.000439575
-0.000628359
-0.00230268
0.000844026
0.001445
0.000166388
-0.000422835
-0.000392281
0.000816267
-0.00182954
0.000933045
0.000894487
5.29889e-05
-0.000401958
0.000869188
-0.000465853
1.26227e-05
-1.27931e-05
-2.77552e-07
-0.000785516
-0.00135577
0.00271788
-0.00157549
-0.00116727
8.3902e-05
0.000350509
-0.000434983
0.000771846
0.00120726
-0.000773001
-0.00043307
-0.000361217
0.000987921
-0.000630141
1.98426e-05
-4.92228e-05
1.70787e-05
-0.000729487
0.0010193
0.00055443
-0.00106511
0.000508343
0.000407901
0.000485573
-0.00128316
-0.00103174
-0.000629994
0.000850804
-0.000230501
0.00125877
0.0012203
-0.00120766
-0.000279423
0.000724103
-0.000445988
0.000161169
-0.00066167
0.000722495
-0.00118934
0.00137931
-0.000178952
-0.000911003
0.000629682
-6.31249e-05
5.7833e-05
0.00125987
0.00105176
0.000792985
-0.00115864
0.000345682
0.000416002
-0.000983364
0.000521021
0.000459812
-0.000272663
0.000509115
-0.000237053
-0.000981208
0.00105091
-0.000237709
0.000417587
-0.000180001
0.000469143
-0.00132436
0.000844528
0.000219907
0.000231945
-0.000268659
0.00165742
0.0016477
0.00026555
-0.00077624
-0.000916558
0.00168371
-0.000396691
-7.30091e-05
0.00046939
3.31445e-05
-0.000272127
0.00195013
-0.00143464
-0.000529736
-0.00109505
0.00142595
-0.000330763
-0.00140123
-0.000473993
0.00186737
0.000458158
-0.000835589
-0.00051549
0.00142888
-0.00212379
-0.00116658
0.00136293
-0.000233901
-0.0024903
0.00114508
0.00133601
-0.00161506
-0.00088314
0.000564031
0.000584531
0.000260578
-0.00102968
-0.000212784
-0.000377629
0.000589441
-7.58564e-05
0.000219144
-0.000231747
-1.03032e-05
-0.000476799
0.000469136
-0.000454737
0.000427299
0.000438626
-0.00105433
0.000607783
0.000443917
0.000459196
-0.000980239
0.000519697
0.000492484
-0.000559917
2.61635e-05
-9.2579e-07
4.68276e-06
-0.000952425
-0.0008143
0.000159439
0.000655333
-0.000415875
-0.000258288
0.000368963
0.00026592
-2.19405e-05
7.97841e-06
1.36265e-06
-0.000473013
-0.000475307
0.000459216
-0.000262531
-0.000126952
-0.000267501
-0.000373721
0.000642311
-0.00206007
0.00124503
0.000794671
1.67133e-05
-2.52481e-05
6.9324e-06
-0.000729135
-0.000495371
0.00121956
0.000247625
-0.000447889
0.000200104
-7.74688e-05
2.48329e-05
3.27843e-05
-5.77271e-05
0.000504283
0.000575884
-0.00167147
-0.000332363
-0.000118997
0.000450426
-0.000332158
0.000339575
-0.00055309
0.000545574
0.000622001
-0.00117047
0.000903816
-0.00127607
0.000424768
0.000445744
0.000243711
-0.000977187
0.000786255
0.00130915
0.000984789
-0.000757473
-0.000233091
0.00137307
0.000562268
0.000297389
0.00015562
0.000364381
-0.000529361
0.00142737
-0.00109604
-0.000336194
-0.00128485
0.000844441
0.000434981
-0.00233603
0.000922966
0.0013902
-1.65498e-06
-0.000744413
-0.00192713
0.00235093
-0.000438288
0.00109304
0.000307675
-0.00142059
0.000405358
-0.000203206
-0.000202188
-0.00189661
0.000357953
0.0015374
-0.00130919
0.000384673
0.000903049
-9.12596e-05
0.00043917
0.000361945
-0.0020045
-0.000461498
0.000349736
-0.000401401
-0.000146835
2.63928e-05
0.00116482
-0.000745305
-0.000426736
-0.000509799
-0.000818235
-0.000322414
0.000167473
-0.000244158
0.000644362
-0.00190278
0.000709947
0.0011597
0.00170922
-0.00234878
0.000624474
0.000493828
0.00059201
-0.00108624
4.0081e-05
-0.000409943
0.000356269
0.000596322
-0.00143306
0.000834347
0.000195697
0.000209491
0.000396307
-0.000369334
0.000185424
0.000261653
-0.000323849
0.00139662
0.000696783
-0.00050805
-1.63305e-05
2.30599e-05
-0.00154453
-0.000530934
0.00206359
-0.00140971
-0.000943356
-0.001459
-0.000316452
0.0017377
-0.000649496
0.000778044
-0.000131726
-0.000113256
-8.89967e-05
0.000130589
-0.000939872
-0.000891366
0.000505787
-0.0013289
0.000814817
-3.24163e-05
-0.00103268
-0.000774535
-0.000703046
0.00147687
-0.000176985
-5.35433e-05
-4.14821e-05
0.000584777
-0.00114296
0.000551915
-0.0021433
-9.23081e-05
0.0022199
0.000347829
-0.00145737
0.00109801
-0.000478891
0.00212997
0.00173677
-0.000883217
0.000298228
-0.00139902
0.00107755
-0.000292477
0.000107069
0.000588537
-0.00116995
0.00057898
0.000392946
-0.0018408
0.00143849
0.000813659
0.000607407
0.000542209
0.00118081
-0.000362412
0.000433304
-0.000112969
-0.000169333
0.000395306
-7.01858e-05
-0.000326719
-0.00127938
-0.000291602
0.00154127
0.000118534
-0.000436908
0.000313182
-0.00102566
-0.00178237
-0.000335165
0.00211202
0.000468693
-0.00058367
0.000112925
0.000600748
-1.8141e-05
-0.000582949
0.00035308
0.000855085
3.8127e-05
1.78761e-05
-5.68112e-05
0.000193276
0.000902609
0.00221216
-0.00051749
0.000635478
-0.000303043
-0.00202251
0.000234679
-0.000285411
0.000606674
-0.000100084
2.65967e-05
0.00202018
-0.000321036
0.00150818
-0.000247916
0.0017728
-0.00154466
-0.000271881
-0.00181681
0.000748009
-0.000406162
-6.83767e-05
-1.52854e-05
5.63248e-05
0.000369979
-0.000286535
0.000531599
-0.000497072
-0.000110258
0.000204838
-0.000639182
9.48259e-05
0.000372526
-0.000477347
-0.000433623
-0.000102342
-0.00070077
-9.6876e-05
0.000752319
-0.00134677
0.000574709
0.000766316
-0.00198712
0.000578395
-3.40776e-06
4.07241e-05
-0.000104682
7.32871e-06
-0.000524991
-0.000322082
0.000842321
-0.000342274
0.000537453
-0.000195699
0.000370007
-0.00159418
0.00120394
-0.00175959
0.00149219
0.0002967
0.00023644
-0.000393034
-9.74296e-05
0.00049057
-0.000217404
0.000719249
-0.000501281
0.00202752
-0.000432242
-5.61669e-05
0.000436137
-0.00201103
0.00124132
0.000749021
-0.000274053
-0.000146752
0.000420162
0.000972131
-0.000780403
-0.000493624
0.000419913
-0.00263974
0.00148794
-0.00110556
-0.000401921
0.00190349
-0.00114294
-0.00076565
-0.000538659
-0.00100134
0.000533053
0.000465035
-0.00140095
0.000764562
0.000633117
0.00139782
-0.00080481
0.000619555
-6.7757e-05
-0.000556555
0.000236459
-0.000525358
0.000288169
-0.00162904
0.000213321
-0.00126308
0.00161232
-0.0013369
-0.000994357
0.000186265
0.000478817
-0.000667717
-3.69999e-05
3.83577e-05
-2.34394e-05
-0.000387671
-8.71629e-05
0.000699942
-0.000179408
0.000676834
-0.000910134
-0.00103771
0.000631752
-0.00133138
0.000697238
-0.000331816
0.000445243
0.000637597
0.00146179
-0.00210178
-0.00035228
-0.00070595
0.00104591
-0.000453084
-0.000524562
-0.00126842
-0.00072614
-0.000922255
-0.00100988
0.000336724
0.000328448
-0.000667068
-0.000389754
-0.000105585
0.000486554
0.000452944
-0.000874679
-0.00037803
-0.00102534
0.000660942
0.00199874
6.93116e-05
-0.00163636
0.00155009
-0.000566877
0.000418078
0.000146508
-0.00108764
0.000354677
0.000705436
-0.000214332
0.000467938
-0.000537001
-3.27282e-05
0.00209592
-0.00124486
-0.000863883
-0.00172204
0.000768944
-0.000824794
-0.000731612
0.00155334
-0.00204799
0.000683555
0.00134783
0.000576364
-0.0009898
0.000414321
-0.000548137
0.000239159
0.00110496
-0.00179564
0.000676293
-0.000858652
0.000206239
-0.00129989
0.00194564
-0.000667767
0.000855851
-0.00168389
0.000693275
-0.000390941
4.4848e-05
-0.000385141
0.000941671
-0.000566392
0.00147909
-0.000948644
0.00164984
-0.00126617
-0.000425903
0.00118439
-0.000704024
-0.000532568
-0.00155246
-7.7365e-05
0.00159937
0.00184331
-0.000912171
0.000477301
-0.00139828
0.000904734
0.000297975
0.00134351
-0.00166844
0.00152898
0.000418475
-0.001976
-0.000728386
0.00125564
-0.000533892
-6.745e-06
-0.00179384
0.00179706
4.565e-05
-0.000410956
0.000353362
1.08807e-06
9.82612e-06
-0.000247536
0.000713645
0.00136217
-0.000733309
-2.18483e-05
-0.00146985
0.00075201
0.00132725
0.00048116
0.00045277
-0.00093336
-0.00116812
-0.000693708
0.00186129
-6.1825e-05
-1.92862e-05
-0.000758891
0.000163588
0.000316299
0.000317399
0.000893038
-0.000204605
-0.000702167
-0.000403659
-2.29612e-05
0.000413369
0.00180323
-0.00130402
-0.000507709
0.000627958
0.000501539
-0.00036981
-0.00115556
-0.00037139
0.000337193
0.000226184
0.000653016
0.000408273
0.000394658
-0.000801858
-0.00189146
0.000570823
0.0015374
-0.000795372
-0.000748039
0.000328369
-0.000160852
0.000988579
-0.000409991
0.000144854
-0.00134829
-0.000326118
0.000923166
0.000863636
-0.000286586
0.00120936
-0.00199567
0.000120117
-0.000332065
6.47722e-05
-0.000447707
0.000371954
0.000247237
-0.000778266
0.00050228
0.000111367
-0.000509835
6.20941e-05
-0.000554283
-0.000324521
0.00174105
0.000248159
-0.00176066
0.00149568
0.00103059
-0.000548812
-0.000917307
-0.000192144
0.00109952
-0.000405216
0.000802801
-0.000587305
0.00108298
-0.000378008
-0.000712767
-0.00088609
-0.000132675
0.00100946
0.00186271
-0.000452645
-0.000589428
0.001132
0.000597742
-0.000814446
0.00115587
0.000313191
0.000644208
0.00101638
-0.00166106
0.001349
-0.00130345
-8.24373e-05
-1.40008e-05
-0.000362109
0.000307603
-0.00036681
0.00187014
-0.00158822
0.00164036
0.00103394
0.00020849
-0.00128175
0.000207605
4.31453e-05
-0.000335526
-0.000404051
0.000376363
-0.000152313
0.00114773
0.000611877
-0.00138748
0.000671094
-0.000345977
-0.000328084
0.000121292
-0.000184453
1.70879e-05
0.000613515
-0.00102615
0.000406365
-0.000243657
0.000532805
-0.000815337
0.000772946
4.32154e-05
0.000453874
0.00035877
-0.000820442
-0.000426582
0.000622682
-0.000520313
-0.000105173
0.000148167
0.000472251
-0.00140349
7.02179e-05
-0.00107196
0.00017678
-0.000690716
-0.000991904
0.000571329
0.000420067
-0.000110335
0.000112645
0.00130587
0.000485634
-0.00122421
-0.000622507
-0.000262007
0.000875289
0.00153037
-0.000416979
-0.00112018
0.000782582
-0.000574527
-0.000210964
-0.000522352
0.000868807
-0.000351588
-0.00141709
0.000936308
0.000468685
-0.000646773
-0.00171559
0.00224091
-0.00117228
-0.00165422
0.000826963
0.000822217
0.00127146
-0.000810556
-0.00098719
-0.0013188
0.00115868
-0.000290584
-0.000875217
0.0012874
-0.000790062
-0.000875771
0.000418669
0.000458252
0.000215246
-0.000917596
-0.000741471
-0.000566531
-0.000500671
0.000891872
-0.000538037
-0.000407755
0.000227654
0.000104062
-0.000331888
-0.000311435
0.000240306
-0.000426785
0.000473435
-0.00106748
0.000333527
0.000423242
-0.000368737
0.000174059
-0.000338126
-0.000587023
0.00117252
-0.000369387
0.000207759
0.000978762
-0.00168884
0.000709816
0.0010188
0.000441043
-0.000373443
0.000864981
-0.000502969
-0.00126203
0.000859043
0.000391597
-0.000452947
-0.000504307
0.000956842
-0.000572798
-0.000575073
0.00114777
0.00162213
-0.000345322
-0.00129532
0.00174637
-0.00122427
0.000885453
0.000289752
-0.00137035
0.00067499
0.000689658
-0.000431936
-0.00139295
0.00182156
0.00029991
0.00127592
-0.00160284
-9.22726e-05
3.11438e-05
-0.000434938
0.00206178
0.00121526
0.000395376
-0.00142673
-0.000526781
0.00194067
0.000506427
0.000602822
-0.00111703
-2.43898e-05
-0.000843039
0.000316002
0.000445881
0.000390022
0.00151297
-0.0022852
0.000743667
0.00108675
0.000380408
-0.000545112
0.000161569
0.000382897
0.000255486
-0.000347354
6.33895e-05
-0.00055183
-0.000393772
0.000934229
0.00141196
-0.00112397
0.0005156
0.000558984
-0.000990425
0.000446453
0.000539352
-0.00123512
0.00161411
-0.000383166
-0.000300847
0.000726341
0.00146557
-0.00121024
-0.000270279
0.00139498
0.000444586
-0.000225077
-0.000358659
0.000768123
0.000156987
0.000171263
-0.00118205
-0.00030747
0.00145948
-0.00149053
-0.000393746
0.00185811
-0.000774305
-0.000651627
-0.00049879
0.00124845
-0.000776178
-0.000451335
0.00063491
-0.0001856
1.48566e-05
-0.000438048
-0.0016036
-0.000486076
0.00208782
0.00126384
-0.000806046
-0.000538597
0.000278006
0.000259739
0.000378403
-0.000711651
0.000519135
-0.000466274
-5.20819e-05
0.00101083
-0.00120253
3.76923e-05
0.000416308
-0.000456929
7.2742e-05
-0.000193939
-0.00145153
0.000406088
0.00102958
-0.000217818
-0.000321245
3.76093e-05
0.000373744
0.000595606
-0.000497302
-0.000100118
-5.86406e-06
-6.16238e-06
7.76955e-06
-2.13451e-05
9.4593e-05
-0.00188275
0.000553069
0.000226629
-0.00186565
0.000426582
0.000305966
0.000101724
-0.000426551
-0.000763979
0.000357551
0.000403015
-0.000542719
0.00114986
0.00122905
0.00086105
0.000770959
-0.000196268
0.000106597
0.000283599
-0.000390537
-0.000551336
-0.000263397
-3.35593e-05
0.000262608
-1.44491e-06
0.000261974
-0.00026058
1.21372e-05
1.19565e-05
-2.90376e-05
-0.000367074
0.000963313
0.000806659
0.00144328
-0.000399354
-0.00106638
-0.000118417
0.000473789
-0.000360562
1.96151e-05
-2.09452e-05
0.000837827
0.000313895
0.000364011
0.000474908
-0.000384906
-0.000164948
5.77066e-05
1.88222e-05
-0.000131385
4.28821e-05
0.000341793
0.000426589
0.000970724
0.000197206
-0.00120294
-0.000835015
0.000392391
0.000438253
0.00172331
-0.000441964
-0.000107408
0.00039373
2.55735e-05
-6.74473e-05
0.00114173
-0.00026467
0.000800268
-0.000620124
-0.000180597
0.000358637
0.000161446
0.000435241
0.000543762
-0.000571065
0.00106974
0.000854648
-0.000643065
-0.000213273
0.000431639
-0.000184201
-0.000321667
-0.000792241
0.000601985
-0.000971187
0.000369111
4.63369e-05
-9.2838e-05
-0.00038071
0.000611625
-0.00023312
-0.00124113
0.000717776
0.000672607
-0.000337996
0.00153404
-0.000357838
-0.00214384
0.00160482
0.000141335
-0.000836487
0.0019303
-0.000844584
-0.000309477
0.00114691
0.000247449
0.00028873
-0.000537325
-6.37397e-05
9.98426e-05
-6.39665e-05
0.000632605
0.000524742
-0.00191729
0.00121511
0.000679139
1.72748e-07
1.29052e-05
0.000497671
-0.000262076
0.000782636
0.000961419
-0.00174632
0.00168945
-0.00117379
-0.000533952
-0.000481062
-0.000523413
-0.00045355
-0.000379948
-0.000992277
0.00135712
1.40465e-05
-4.09643e-06
0.000219218
0.000277555
0.00154012
-0.000612248
-0.00203407
-0.000343818
0.000347458
0.000748561
0.000923467
-0.000407035
0.000591034
-2.36272e-05
1.95119e-05
-0.000448896
0.000882573
-0.000436993
-5.23388e-05
-5.89895e-05
7.14142e-05
9.78227e-05
0.000667579
-0.000815236
-0.000989917
-0.000262216
-0.000312237
-0.000185894
0.000290405
-0.000104505
0.000539387
5.46376e-05
-0.00165161
-0.000411181
0.00205899
0.000336234
-0.000904269
-0.000227186
0.00119781
-0.000831172
-0.00142988
-0.000172336
-0.000373451
0.000503369
-0.000457904
-4.66269e-05
0.000561916
0.00123236
0.00138289
-0.0011744
-0.000780867
-0.00137477
-0.00013374
4.84084e-05
0.000155554
-0.0014795
0.00129675
-2.54769e-05
-3.17838e-05
-0.001028
0.000545072
0.00047826
0.00102806
-0.00146454
0.000426164
-0.000464875
-0.000409556
-0.00112306
0.000270209
0.000328288
0.00158893
-0.00192029
0.000541655
-0.0011144
-0.00142316
0.00180731
-0.00126942
0.000569251
0.000694101
0.000985756
-0.000467543
-0.000262506
-0.00106809
0.000780222
0.000990596
-0.00178073
-3.12699e-05
5.61567e-06
0.000736967
-0.000687089
-5.51625e-05
-0.000116669
2.66373e-05
-7.15865e-05
-0.000379731
-0.000892811
0.000210604
-1.14534e-06
-0.000289756
0.000233093
-0.000234558
-0.000541094
0.000791278
-0.000257342
3.44383e-05
0.00021535
-0.000304872
0.000320211
0.000423799
-0.000136036
5.05565e-05
0.000146969
0.000453596
-0.00138877
0.00104463
-0.00157308
0.00127424
-0.000194705
-0.000174971
0.000426516
-0.000900785
0.000470111
0.000759741
0.000221446
-0.000694703
0.000916847
-0.000237232
0.000120186
-0.000452174
0.000325285
0.000311143
0.00119028
-0.0015287
0.000655293
-0.000813106
0.000148813
0.00061697
-0.000747336
0.00012534
-0.00132842
-0.0003399
0.00163487
0.000363777
-0.000243847
-0.000119999
0.00143008
-0.000294316
-0.0011439
-0.00150822
-0.000402132
0.00190731
-0.00021197
0.000969788
0.00173512
-0.000964409
0.000323902
-0.000217565
-0.000890207
0.000505893
-3.33757e-06
-0.000144019
0.000105903
-0.00118857
0.000397222
-0.000201662
-0.000743299
-0.000333405
-0.00100068
-0.000261615
0.000381864
0.000504682
-0.00209743
0.00159015
0.000140484
-0.000888009
-0.00156933
0.000260457
0.00144582
-0.00178407
-0.000439606
0.000232441
-0.000975731
0.000740263
-0.00106092
0.000923284
-0.000279643
0.000337306
-0.000899434
-0.000471788
0.000445006
0.00175083
-0.000432854
0.000962433
0.000137824
-0.000685561
-0.000407051
0.00179164
-0.000133666
-0.000878835
0.000102351
-0.000146952
-0.000389116
0.000997895
0.00169012
-0.000300524
0.000379117
-0.00156639
0.00117571
-0.0014996
0.00101631
0.000471441
-0.000300768
0.000386221
-8.55306e-05
6.31931e-05
-9.49733e-05
3.02417e-05
-0.00158562
0.00208821
-2.47147e-05
0.00139512
-0.00212666
0.00150591
0.000612414
-0.00118867
0.000812309
0.000367212
0.00048881
1.3232e-05
5.77625e-05
-0.00014413
-0.000665491
0.000371015
0.000290134
0.000200903
0.000598746
4.7136e-05
-3.47778e-05
-1.2909e-05
0.0012685
-0.000795695
-0.000499696
-0.0010888
-2.91895e-05
0.000160315
0.00125
-0.000728759
-0.000549379
0.000153719
-0.00083133
0.000661644
-0.000569582
0.00188988
-0.00132829
-0.00106004
0.000936618
0.000203705
-0.000884792
-0.000901896
-0.000212179
0.00107678
0.000522526
-0.000264047
-0.000259554
0.000578329
-0.000442977
3.76209e-05
-0.000667119
0.000501726
-0.000655095
-0.00137626
0.000473711
-0.000439103
0.00181276
-0.000653558
0.000332187
-0.000385355
2.84181e-05
-0.000474385
0.000896362
-0.000637915
-0.00054954
0.00118429
-0.000525782
0.000657318
0.000362317
0.000812929
-0.00120118
0.00103365
0.000290192
-0.00104274
0.00117566
-0.000381213
0.00142771
-0.000582704
0.000306236
0.00108938
-0.00141535
-0.000526403
0.000724998
0.000242794
-0.00160371
0.000264605
0.00111388
-0.00141134
0.00092843
-1.53095e-05
0.000871046
-0.00150388
-0.000337756
0.00183467
-0.00170014
0.000531327
0.00107705
0.000820673
-0.000232565
0.000602858
-0.000460538
-0.000351451
-0.0018412
-0.000766636
0.000386209
0.000378395
0.00103401
-0.00144762
0.000198733
-0.00168047
0.00147062
6.04243e-05
-7.66905e-05
-6.90704e-05
-9.30518e-05
0.000130585
0.00076317
0.000296961
-0.0010766
0.000443734
0.00115826
-0.00161288
-0.00159316
0.000354089
-0.0007945
0.00113158
-0.000115472
0.000434998
-0.000322503
-0.00159944
0.00193401
-0.000355898
-0.000844503
0.00164862
-0.00128146
-0.00033675
0.000783005
-0.000362061
-1.95797e-05
-0.0007421
0.00046421
-0.000342123
-0.000443332
0.000785631
-0.00185796
0.000347297
-1.79648e-05
5.63712e-05
-0.000465291
0.000446923
-0.000871215
0.00137996
-0.000520605
0.000214372
-0.000777644
0.000421834
-0.00145026
0.00198053
-0.000535867
-0.00220402
0.00162362
0.000564291
-0.000335612
-0.00103938
0.0013463
0.000492956
0.000749326
0.0004568
-9.23617e-05
-0.000364903
-0.000613517
-0.000503633
0.00110753
-0.00194926
0.000293621
0.00104702
-0.00174157
0.000647671
0.000573413
-0.000697562
0.000166111
-1.91423e-06
1.76983e-05
-0.00125756
-0.000378508
0.00162405
0.000458873
-0.00183502
0.00137211
-1.16891e-05
-1.44504e-05
0.00082084
-0.000446536
0.000932219
-0.000496717
-0.00195035
0.00049434
-0.000421098
0.000866913
0.0021686
-0.00172211
-0.000452065
0.000680758
7.31216e-05
-0.000778205
0.000166197
-3.92667e-05
-0.000158673
-0.000734525
-0.000669451
-0.00116669
-0.00138004
-0.000366389
0.00172296
-0.00169851
0.00117956
0.000504404
-0.00144277
-0.000376699
0.00179344
-0.000619518
0.000118162
0.000543321
0.00197874
-0.00100238
-0.000978781
0.00132511
-0.00175063
-0.000366002
0.000429297
-6.3595e-05
0.000208391
0.000328903
0.00156152
-0.00189527
-0.000393735
-0.000941785
0.00158585
-0.000359738
-0.00213438
0.0017936
-0.00080217
-3.77686e-05
0.000791764
-0.000364378
-0.000934328
0.00128429
0.00143482
-0.000716937
-0.000743393
0.00141016
-0.00102571
-0.000398865
-0.000253222
-0.00101082
0.000274574
0.00100724
-0.00131275
0.00134322
-0.00135251
-0.00174716
-0.000629318
0.000328109
0.000299343
0.000919987
0.000490978
0.00068286
-0.000324235
-0.000364633
-0.000737647
0.00131424
-0.000579543
0.000322434
0.00110229
-0.00145203
-0.000592868
-0.00109261
0.000251497
-0.00113324
-0.000456894
0.00156618
-0.00112526
0.00121967
-0.000495039
-0.000734372
-0.000480748
0.000366444
0.00036126
-0.000210861
-0.00061843
-0.000413963
9.66838e-05
-0.000372397
0.000272813
-0.0015045
0.00118424
-0.000416814
0.000330077
8.24514e-05
0.00166822
0.000393482
-0.00201427
0.000872833
-0.000827053
-4.15366e-05
0.000821205
0.00167559
0.0011081
0.00038686
0.000727176
-0.000239093
-0.000489636
0.000605941
-0.00211955
0.00150111
-0.00168904
0.00115681
0.00049917
-0.000251906
0.000519305
-0.00157992
-0.000972599
9.61598e-05
0.000733816
-0.00039032
0.00135116
-0.00202869
0.00066328
-0.000762267
0.00021773
0.000888634
-0.00114187
0.000970373
-0.000456271
0.000100996
0.000347601
-0.00160097
0.00197376
-0.000228557
-0.00029774
8.23407e-06
0.000126835
-0.000765609
-0.000351196
0.000760817
-0.000444907
0.000282953
-0.000117815
-0.00034515
0.000355029
0.00170826
-0.002068
-0.0004581
-0.000310587
-0.000426694
-0.000797688
0.00121064
-0.00231325
0.00179949
0.000495594
-0.00186233
-0.000314912
0.000536326
-0.000330307
-0.000224308
-0.000308109
-0.000459215
0.000593281
0.000541575
-0.00115251
-0.000152008
0.000379435
0.00136439
-0.00190607
0.000692226
-0.00132851
0.000635978
-0.0012792
-0.000297907
0.000371189
-8.2445e-05
-0.000247242
-0.000292708
0.000202525
-8.49607e-05
-1.35471e-05
7.52606e-05
0.000226173
0.000218024
0.00183591
-0.000581795
-0.00126994
0.00011277
-0.000950077
0.000791445
0.0017499
0.000375252
-0.00212932
-0.00114544
-0.00131418
0.000934958
-0.000450048
-0.000576762
0.00166785
-0.000542169
0.000671854
0.000859191
-0.000309514
0.00061105
-0.000304355
-0.000835559
-0.000676192
0.00100218
0.000356734
-0.000176502
-0.000180401
0.000532846
-0.00184319
0.00129235
-0.000458693
-0.000793334
-0.000160279
0.000927436
0.000175109
-0.000333998
0.000158801
0.000205106
0.000718931
-0.000829832
0.000100456
0.000466989
-0.000373792
0.00149937
-0.00116374
-0.00035286
0.000108667
0.000350369
-0.000332686
0.000853759
-0.000535959
-0.000335631
-0.000832108
0.00114961
-0.00121756
0.000765744
0.000425132
-0.00062913
0.00115046
-0.000529085
-2.70738e-05
0.000334947
0.00122478
0.000595086
0.000782402
-0.000393219
-0.000393635
0.000898143
-0.000429913
-0.000466949
0.000405008
-0.000746924
0.00029386
0.00046273
-0.00151242
0.000233716
-0.000484004
-0.000216522
-0.00122915
0.00140558
0.000762329
-0.000378395
0.00136239
-0.0017979
9.6371e-05
0.000692325
-0.000230558
-0.000475875
-0.000892162
0.000334487
-0.000179345
-0.000224079
-0.00129119
-0.000525195
0.0017929
0.000500946
0.000178217
-0.000402321
0.00050512
-0.000938962
0.00130341
-0.000404766
-0.000585236
-0.000689991
0.000908167
-0.000841146
0.000256374
0.000185921
-0.000441697
-0.000277179
-0.00105444
-0.000254158
0.00126894
0.000352327
0.000103874
7.37765e-05
-0.000890372
-0.00127725
0.00117607
0.00163167
-0.000358484
0.00051144
-0.000293395
-0.00148966
0.000567723
4.62463e-05
-1.43745e-05
-4.61522e-05
0.00099002
-0.00125878
0.00148002
-0.000249595
-0.000312289
0.00051887
-0.0002626
-0.000257295
-0.00132904
0.00176613
-0.000941863
-0.000825188
-0.00107398
0.000294381
-0.00113676
-0.000818686
0.00145344
-0.000474063
-0.00064157
0.0010996
-0.00160427
0.000680905
0.00171254
0.000449527
0.00113385
0.000321174
0.000198691
0.000232724
0.0016358
-2.52294e-05
-0.00162172
-6.78184e-05
-0.000159326
-0.000783682
-0.00154452
0.000234228
0.00025439
-0.000502236
0.00120442
-0.000658763
0.000441828
0.000213806
-0.000678241
0.000253581
-0.000246072
0.00126509
0.000191795
0.000205327
-0.000251263
0.000508292
0.00212717
-0.000421385
-0.000208558
-0.000453605
-0.000789757
0.00115601
-0.000362039
0.000179436
0.000182548
-0.000619779
0.00101498
0.000623707
-0.00102893
0.00040617
-0.000531556
-0.000799554
0.000406112
-0.00061054
-0.000635142
0.00123266
3.39685e-05
0.000981084
-0.00101482
-0.000461346
0.000254762
0.000205954
9.76123e-05
-0.000457828
0.000353881
0.00201895
-5.3554e-05
-0.000380289
-0.00091856
0.00116522
-0.00043473
-0.000482045
0.00178836
0.00105656
-0.000480057
-0.000721545
0.00122023
-0.000499565
0.000396272
-0.000303459
-9.29505e-05
-0.00111
-0.000371024
0.000258614
-0.00044304
5.17304e-06
-1.49945e-05
-0.000536139
8.66977e-05
0.00043662
0.000525261
0.000299876
0.000315933
-0.000615988
0.00109857
0.000297521
1.69206e-05
-9.72202e-06
0.000815421
0.000247367
-0.000631393
0.000942333
-0.000330111
-0.00129979
0.00132399
-0.00190178
0.00205382
-0.00141968
-0.000644482
0.000898797
0.000508414
0.00197673
-0.000372807
0.000464157
0.000840742
-0.00103646
0.000188205
0.00181767
0.00169976
-7.4603e-05
0.000200398
-0.0003832
0.000182732
0.000201978
-0.000910657
0.0013769
-0.000474189
0.000442762
2.61211e-05
-0.000472861
0.000210547
0.000488328
-7.33436e-05
-0.000455365
0.000494872
-0.00180753
-0.00048704
0.000703407
-0.000225846
-4.88785e-05
-0.00103479
0.000331699
-0.000456318
0.000420643
-0.000497511
-0.00101262
0.000266691
-0.00189666
0.0016104
-0.00091233
0.000577484
0.000329023
0.000230433
-0.00152673
9.38314e-07
4.53376e-05
-0.000701178
0.000981357
-0.000285026
0.000341811
0.000326666
0.000648131
-0.000281077
0.000460493