/*--------------------------------*- C++ -*----------------------------------*\
| =========                 |                                                 |
| \\      /  F ield         | OpenFOAM: The Open Source CFD Toolbox           |
|  \\    /   O peration     | Version:  v2012                                 |
|   \\  /    A nd           | Website:  www.openfoam.com                      |
|    \\/     M anipulation  |                                                 |
\*---------------------------------------------------------------------------*/
FoamFile
{
    version     2.0;
    format      ascii;
    class       surfaceScalarField;
    location    "350";
    object      phi;
}
// * * * * * * * * * * * * * * * * * * * * * * * * * * * * * * * * * * * * * //

dimensions      [0 3 -1 0 0 0 0];
oriented        oriented;


internalField   nonuniform List<scalar> 
20642
(
0.00122083
-0.000699804
-0.000521167
0.298847
-0.055216
-0.243625
-0.0752978
0.064364
0.0109363
-0.366851
0.147103
0.219765
0.370687
0.0523732
-0.423048
-0.0535956
0.352449
-0.239902
0.0247619
0.215152
-0.0237066
0.247577
-0.223867
-0.258878
0.238818
0.0200678
0.00249499
0.000311654
-0.26302
0.239318
0.23285
0.141948
-0.374776
0.607056
-0.606996
0.154713
-0.00552103
-0.149192
0.296473
0.0540447
-0.350507
0.00130942
-8.84879e-05
0.575794
-0.580717
0.00494511
0.0747752
-0.290879
0.216109
-0.0359462
-0.0894247
0.125375
-0.00162895
0.0014175
0.000211351
-0.0983492
-0.193251
0.291607
0.640558
-0.387298
-0.253236
0.219967
-0.159141
-0.0608211
0.358064
0.28252
-0.0590465
-0.193075
0.252135
0.082925
-0.280678
0.197759
0.0210938
-0.107633
0.0865391
0.00249445
0.116014
-0.303464
0.187456
-0.666438
0.387439
0.279
0.00223943
0.000254551
0.0277993
-0.119112
0.0913169
0.0492359
0.262411
-0.31163
0.000961913
0.000918443
-0.00187984
-0.657242
0.469919
0.187348
0.388842
-0.141263
0.269341
-0.378254
0.108926
0.620369
-0.10015
-0.520142
-0.0254077
-0.214485
0.238724
0.00564404
-0.244361
-0.762777
0.597815
0.164977
0.399512
0.138953
-0.538452
-0.149415
0.265792
-0.116371
0.142647
-0.123287
-0.0193582
0.0175695
0.125082
0.123829
-0.0625387
-0.0612905
0.227467
-0.325808
0.000528887
-0.00126729
0.000736922
0.296919
-0.217401
-0.0795169
-0.41295
-0.244273
0.358876
-0.126007
-0.16758
0.0556263
0.111956
-0.00427239
-7.65936e-05
0.0043491
-0.312607
-0.101356
0.413988
0.0222208
0.365295
-0.387491
-0.0951354
-0.072442
0.00223813
0.182776
0.0371979
-0.154342
0.553869
0.0435412
0.0802884
-0.00691428
0.00721682
-0.000304829
0.554437
-0.495196
-0.0592288
0.464092
-0.604247
0.140158
-0.277071
0.218039
-0.0204088
0.0177902
0.00262002
0.116745
0.440875
-0.557619
-0.302281
0.103426
0.19886
0.166592
0.222252
-0.18824
-0.000295889
-0.00194137
0.00223738
-0.0376877
0.0238682
0.0138216
0.000923582
3.87346e-05
-0.263411
-0.149996
0.413429
0.377788
-0.532114
0.0929732
-0.286217
-0.0643028
-0.185978
0.250295
0.41889
-0.0928525
-0.326025
-0.163339
0.541144
-0.275297
0.211011
0.247219
-0.19797
-0.379634
0.455841
-0.0761858
-0.59686
0.569745
0.0271494
-0.433296
0.169902
0.00746921
0.0207763
-0.0282437
-0.236293
-0.303263
0.539621
-0.0231012
-0.213955
0.237059
-0.103452
0.131257
-0.647349
0.614031
0.0333987
-0.0385687
0.2773
0.475257
0.100556
-0.570251
0.398511
0.171761
0.118519
0.222212
0.074709
-0.611382
0.212072
0.399335
-0.426433
0.287237
0.139215
-0.186263
0.00557217
-0.132213
0.126642
0.583482
-0.583246
-0.000195159
-0.138713
-0.508574
-0.152961
-0.111732
0.264695
0.518617
-0.523559
0.00494923
0.534099
-0.0154763
0.0124173
-0.392033
0.515157
-0.587351
0.0722355
-0.0223583
0.441265
-0.0254185
0.0229741
0.00244518
0.00467511
-0.00513931
0.000463818
0.407538
0.146913
0.532483
-0.393517
0.0809968
-0.059903
0.541303
0.0727186
-0.00151737
0.00243654
-0.128512
-0.174947
-0.0156117
-0.00479515
0.405735
-0.184577
-0.221147
0.111114
-0.147056
0.41122
0.158593
-0.569796
0.0867285
-0.0700557
-0.0166696
-0.480975
0.282758
0.198225
-0.0929035
-0.503924
0.169698
-0.569222
0.399543
0.285313
-0.181882
-0.145863
0.155688
-0.00982143
0.00381899
-0.00030343
-0.00351546
0.0162537
-0.00878322
0.0833074
-0.283623
0.200329
0.27687
-0.18389
-0.415847
0.555093
-0.139218
-0.110918
-0.034941
-0.0587098
0.170085
-0.111367
0.15705
-0.0583455
-0.0987042
-0.00298872
-0.00352494
0.00651386
0.183361
0.222386
-0.0755584
0.138019
-0.062455
0.0166854
0.0643117
0.00527952
-0.0082613
0.00298004
-0.0048562
0.00511023
-0.000253933
0.0690385
-0.266356
0.197324
0.620449
0.243822
0.029287
-0.273107
-0.551712
0.38839
-0.0185993
-0.00681786
-0.545956
0.252361
0.293627
-0.155306
-0.241356
0.396679
-0.376656
0.573388
-0.196721
-0.0216976
-0.0159883
-0.107041
0.00150616
-0.00119516
-0.000312376
-0.472726
0.160146
-0.202499
-0.0405818
0.243089
0.559807
-0.684835
0.125035
0.256093
-0.411382
-0.0869671
0.0925399
-0.149902
-0.326984
0.476904
0.536834
-0.0216391
0.00275196
-0.00492561
0.00217399
-0.603287
0.596148
0.00715465
0.558208
-0.146974
-0.183472
-0.329763
0.513286
0.0213205
-0.0163873
-0.00493324
0.0799694
-0.325823
0.245867
0.304537
0.00961191
-0.00556198
-0.00405132
0.0339521
-0.191244
0.157293
-0.00427229
-1.8224e-05
-0.00278012
0.0027967
-0.367895
-0.220651
0.588546
0.26126
-0.192216
0.0462369
0.322375
-0.368588
0.00776135
-0.00837373
0.000612972
-0.0691395
-0.0116027
-0.00151192
0.0131129
0.208463
-0.11387
-0.0945905
0.590153
-0.1043
-0.485842
-0.150608
-0.216228
-0.157919
0.0257572
0.132164
-0.208519
0.149817
-0.232297
0.312278
-0.179082
-0.084567
0.263659
0.404327
0.254272
0.10462
0.111633
-0.0581605
-0.0534714
0.0807613
0.00597011
0.130195
0.0268557
-0.110765
0.365057
0.0378387
0.0737958
-0.378974
-0.287463
0.228589
-0.251687
0.147176
0.0612914
0.142085
-0.124512
0.0153311
-0.111255
0.095926
0.000865084
-0.000501156
-0.000363326
-0.257085
-0.354278
-0.0033621
-0.000182168
0.00354439
-0.289374
0.118563
0.170822
0.00567949
-0.00866776
0.505363
-0.0354209
0.350055
-0.499938
0.301214
-0.244337
-0.0568684
-0.00145415
0.00212411
-0.000669655
-0.00531361
0.000457508
-0.098141
-0.234333
0.332487
0.102568
-0.0269217
-0.075648
-0.269081
0.320162
-0.0510741
-0.241061
-0.381997
-0.102291
0.30765
0.148213
-0.4204
-0.124763
0.545199
-0.0302557
0.337163
-0.306898
0.294674
-0.324922
0.000237651
0.056846
-0.132401
-0.183426
-0.0118326
0.0117762
5.72869e-05
0.639418
-0.254137
-0.385198
0.711082
-0.403094
-0.307971
0.339487
0.371611
-0.00229301
-0.00931759
-0.0943381
0.103658
-0.0968131
0.0306499
0.0661642
0.376096
0.183987
-0.560046
0.548795
-0.0847013
-0.050223
0.066908
-0.00343852
0.120811
0.318353
-0.439146
-0.368579
0.489408
-0.309345
-0.453421
0.715105
-0.375601
0.307995
0.407127
0.000539686
0.000384197
-0.00261641
0.00299455
-0.000379346
0.0994604
0.297853
-0.397293
0.468259
0.0855438
-0.553801
-0.122912
0.166168
-0.0432521
7.09848e-05
0.000633802
-0.000704617
0.0127643
-0.505272
0.492525
0.536444
-0.160307
0.0872196
0.0153483
0.0231338
-0.0170814
-0.00605149
-0.0674764
-0.0106285
-0.00120346
-0.171243
0.140754
0.0304922
-0.35044
-0.19549
-0.00560304
0.0028213
-0.179114
0.0562063
-0.269096
0.140589
0.00736507
0.128401
-0.135761
0.233072
-0.331199
-0.00237972
-0.483274
0.228101
0.255182
0.0548806
0.108298
-0.163175
-0.0425082
-0.14934
0.191853
-0.00256851
-0.350796
0.353387
0.597827
-0.19375
-0.322378
-0.131637
0.45403
0.366498
-0.556265
0.189787
-0.000443085
-0.00221203
0.00265516
0.0565234
-0.158087
0.101565
0.175733
-0.563743
0.38803
-0.653979
0.28542
-0.472058
0.145092
-0.273819
-0.380141
-0.200507
0.0633979
0.543719
-0.0252454
-0.173111
0.198363
0.579281
-0.40353
-8.4807e-05
-0.00400716
0.005107
-0.000432219
0.0872407
-0.415639
0.32843
0.305356
0.137173
-0.442514
-0.101629
0.0753599
0.0262695
-0.725564
0.301227
0.42435
0.289498
-0.100095
-0.189401
-0.00171085
0.00126793
-0.33909
-0.386462
-0.00138103
0.00108522
0.570381
-0.203864
-4.74843e-06
0.0213253
0.59292
-0.00275635
-0.303239
0.401886
-0.0986359
0.295272
-0.297824
-0.326889
0.525511
-0.198586
0.100294
-0.00987784
-0.0904129
0.546602
-0.586033
0.039495
0.158191
-0.124239
-0.295314
0.102774
0.192549
-0.534752
0.158106
-0.123008
0.127473
-0.00446583
-0.00523031
-0.430115
0.442894
0.172444
-0.017676
-0.154762
-0.331193
0.470071
-0.138862
-0.373174
0.169866
0.20332
0.501934
-0.131233
-0.0845001
-0.190783
-0.592816
0.217405
0.375433
0.0501964
0.49647
0.159148
0.000444289
-0.15959
-0.529427
0.200753
0.328684
-0.14555
0.200437
-0.26122
0.176733
-0.368862
-0.172546
0.541447
0.00568489
-0.00293284
-0.00212165
0.000667712
-0.416906
0.555531
-0.138597
-0.63921
0.191716
0.447499
-0.189803
-0.317291
0.454824
-0.137528
0.108365
0.0146452
-0.123009
0.00263741
-0.00523134
0.00259424
-0.0138414
0.00223736
0.491001
-0.572332
0.0813327
-0.189671
0.131327
-0.134501
0.439872
-0.00726087
0.0280392
0.158574
-0.475859
-0.0458834
-0.029412
-0.208836
-0.398115
-0.0661352
0.362619
-0.0204139
0.523292
-0.175491
-0.347782
-0.262213
0.207002
0.0165936
0.125495
-0.480772
0.561294
-0.0804994
0.00104099
0.00672084
-0.366247
-0.253325
0.619643
0.1462
0.0263493
-0.634822
0.43825
0.196581
-0.00126152
-0.000367545
-0.392411
0.557998
-0.165545
0.00233584
0.163396
-0.165727
-0.0104806
-0.258593
0.635082
-0.144081
0.184978
-0.665726
0.141131
-0.126549
-0.0145778
-0.0181469
-0.00579412
0.0239419
-0.504328
0.208313
0.296035
0.198567
0.324744
-0.00353858
0.00202197
-0.0150804
0.0231219
-0.0080416
0.0371338
-0.0218182
-0.0153165
-0.0154256
0.170138
-0.688598
0.349522
0.113082
0.296802
-0.409864
0.0218005
-0.0163579
-0.00544204
-0.104621
-0.0850488
-0.31939
-0.369192
0.170759
-0.199372
-0.191835
0.391226
-0.0282945
0.238618
-0.210319
-0.143209
0.0280282
-0.145946
0.117921
0.0139035
0.165841
-0.179741
0.0576492
0.231851
-0.156437
0.170202
-0.0137604
0.000621938
0.000792892
-0.00141409
0.113239
-0.529058
-0.27876
-0.225548
0.323331
-0.27095
0.0948912
-0.0769299
-0.0179588
0.605177
-0.0551882
-0.54997
0.000165229
-0.158545
0.00211464
-0.341532
0.0161785
0.305653
-0.283411
0.185091
-0.0228047
-0.162284
-0.448174
-0.191031
-0.298963
0.218677
0.0802878
0.531506
-0.390989
-0.140506
-0.0589734
-0.0580885
0.288476
-0.29895
0.377141
-0.289872
-0.0421526
0.0346633
0.00749097
-0.420328
0.615448
-0.195113
0.0060771
0.00353342
-0.0790048
0.131108
0.400408
-0.076749
-0.497334
0.230705
0.266646
0.335985
0.224929
-0.560911
0.138604
-0.550387
0.411808
0.000713107
0.000704354
-0.138224
0.474211
-0.0128375
0.243505
-0.230655
0.00721609
-0.0574394
0.263045
-0.254705
-0.00833799
0.115587
-0.358537
0.242966
-0.021058
0.00676495
0.0142919
0.0101478
0.0557444
0.241092
0.0641277
-0.305206
0.013131
0.0871654
-0.304817
-0.0998182
0.404656
0.2143
0.0487477
-0.00556468
0.0699314
-0.504903
-0.212182
0.0260863
0.186106
-0.101387
-0.159821
-0.126984
-0.444622
0.571647
0.118369
0.340261
-0.458581
0.231314
-0.58883
0.357545
-0.048261
-0.142982
0.463929
-0.123145
-0.340768
-0.574402
0.426107
0.148321
0.358762
-0.489393
0.130658
-0.147057
-0.0351446
0.182208
-0.347171
0.14861
0.198563
-0.740987
0.319973
0.421025
-0.657458
0.289565
0.117591
-0.00922308
-0.00928596
0.194379
-0.497573
0.170716
-0.288367
0.275546
0.0251564
-0.0253662
0.000208766
-0.0879423
0.106855
-0.0189139
-0.405359
0.522105
0.0469386
-0.13636
0.0234259
-0.0306851
0.257597
-0.503053
0.245468
0.327874
-0.687759
0.359897
-0.0861766
-0.211701
0.297885
-0.349575
0.467997
-0.413102
-0.251317
-0.350803
-0.336946
0.502655
-0.245045
-0.00444864
0.00236702
0.00208034
0.0997721
-0.404569
-0.0432898
0.226008
-0.182713
-2.91518e-05
-0.00397802
-0.0220094
0.194459
-0.549315
0.12895
0.40802
-0.151909
-0.00578469
-0.0152743
0.216961
0.0842623
0.00396566
-0.00014679
-0.692031
0.263606
0.428435
0.538962
-0.210743
-0.328193
-0.585246
0.164927
0.647163
-0.339152
0.340597
-0.0712429
-0.497372
0.211202
0.286186
-0.00659145
0.0317467
-0.424064
0.549598
-0.125524
0.00453549
0.191672
0.34732
0.00586873
-0.148745
0.142884
-0.397747
0.574057
-0.176301
-0.10853
0.416198
-0.134771
-0.0364696
0.0249441
0.0121886
0.170023
-0.369376
-0.0701197
0.0590437
0.0110754
0.340057
0.21612
-0.556143
-0.633773
0.202495
0.431342
0.487276
-0.128489
-0.292242
-0.205076
0.420707
-0.553783
0.133113
0.444268
-0.628299
0.18411
0.00216
-0.00842742
0.570724
-0.149981
-0.106801
-0.0162072
-0.0189206
-0.0958638
0.114787
0.368705
0.213009
-0.581673
0.16451
0.0311522
-0.195656
0.135284
0.00772484
0.0103665
-0.000310627
-0.0100569
-0.228539
0.204889
0.0236576
0.00789438
-0.273157
-0.239093
0.512252
-0.536274
0.263119
-0.266652
-0.131457
0.154961
-0.552699
0.348675
0.00595834
0.0357637
-0.0417219
-0.407167
-0.163065
0.30355
-0.404882
-0.218104
0.220339
-0.188723
-0.031606
-0.097347
0.271228
-0.173875
-0.0696703
-0.0184192
0.0880923
0.144659
-0.0205971
-0.124057
0.0954671
0.352813
-0.448268
0.443502
-0.306315
-0.0793258
-0.21155
6.93879e-06
-0.187457
0.187455
0.107659
0.356287
-0.100988
0.0954658
0.0851467
-0.173261
0.0881211
-0.104928
-0.190378
0.00403196
-0.0107827
0.00674928
-0.489554
0.157314
-0.157303
0.124502
-0.0987431
0.135064
0.332566
-0.467579
-0.0020939
0.00101927
0.00107476
-0.273264
-0.360456
0.389224
0.257954
0.0344304
-0.181482
-0.302169
-0.389852
0.508226
0.131275
0.169661
-0.0105104
0.00191757
0.00176045
-0.040053
-0.00808434
0.0481365
0.306286
-0.489707
0.292769
-0.0840629
-0.208694
0.126136
0.362564
-0.488689
0.0527672
-0.0412815
-0.0114857
-0.0503018
0.0602239
-0.00992254
0.257543
-0.413327
0.155802
-0.107405
0.159954
0.325757
-0.485664
0.00329564
0.16463
-0.16792
0.49332
-0.368802
-0.124514
-0.54689
0.401155
0.14576
0.0775105
0.527686
0.474508
-0.124433
0.370609
-0.497555
0.476865
-0.43639
-0.0404616
-0.215068
0.180205
0.0348709
0.58351
0.0179559
0.126708
-0.347892
0.483008
0.38857
0.0440371
-0.432579
0.166849
-0.268225
2.5426e-05
0.00355659
-0.00358138
-0.497572
-0.0176578
0.515256
0.280871
-0.206406
-0.074453
-0.175788
-0.380458
0.168963
-0.163085
0.054994
-0.19945
0.144461
-0.179634
-0.0960867
0.275724
-0.156374
-0.20122
-0.178622
-0.172068
0.350705
0.205992
-0.00342845
0.00910827
-0.00204437
-0.00240564
-0.00313876
0.00310975
-0.427618
0.56522
-0.137573
-0.357453
0.488409
-0.130931
-0.344209
0.439685
0.426684
-0.140171
-0.286488
0.0201612
-0.00664319
-0.013516
0.633543
-0.332304
-0.272452
0.362029
-0.0895751
-0.0731854
-0.216177
0.00290906
-0.0138332
0.0109252
-0.211825
0.0867153
0.00143107
-0.00107188
-0.000359982
0.419776
0.150986
0.164042
-0.0910499
-0.0729887
0.517074
0.0664507
0.152989
-0.580954
0.427981
-0.00548721
0.00839676
-0.724886
0.422728
-0.0444422
-0.0162835
0.0607275
0.608595
-0.554358
-0.0542337
0.503694
-0.134947
0.129848
0.0268412
-0.0965087
0.0129387
0.463939
0.416894
-0.503003
0.0861263
0.0102454
0.110219
-0.120462
0.161099
0.00341685
0.450425
-0.356039
0.00184517
-0.0235408
-0.00703272
0.00373082
0.0033022
-0.00157928
0.011945
-0.512277
0.0147289
-0.00343699
0.00183443
0.0016026
0.576034
-0.471689
-0.10434
-0.00271616
-0.00554734
-0.448748
0.341712
0.541642
-0.38864
0.59824
-0.186618
-0.411616
0.309247
0.224858
-0.0975457
0.182699
-0.256616
0.172061
-0.404902
-0.207346
-0.375865
-0.771046
0.295413
0.475694
0.0306748
-0.0288271
-0.433341
0.438014
-0.00463934
-0.00297206
0.127389
-0.124413
-0.114346
0.417919
0.512682
-0.0957699
-0.48282
-0.120453
0.0216669
-0.0842046
-0.0237243
-0.00641346
0.0301382
0.000330318
0.00109979
0.148523
-0.141153
-0.169653
-0.0454071
-0.00195056
0.0439999
-0.0420481
-0.000823403
0.000894584
0.538623
-0.399994
-0.0330596
-0.00347258
0.0365319
-0.453567
-0.31742
-0.107144
-0.0160231
0.123169
0.130883
0.295825
-0.0121043
-0.0300463
-0.138089
0.508736
-0.172411
-0.263967
-0.37554
0.134197
0.0934634
-0.17887
0.196816
-0.0179386
-0.018625
0.0143038
0.00432237
-0.613829
0.0866094
0.527244
0.166405
-0.191644
0.118947
0.329718
-0.448643
0.476539
-0.167286
-0.00093143
0.00155424
-0.220968
0.190231
0.0307385
-0.0693278
-0.35035
0.419696
-0.104293
0.132324
0.167612
0.561485
-0.415185
-0.146286
-0.0143863
0.5742
0.00181161
-0.00274213
-0.0832679
-0.350032
0.147709
0.371416
0.262136
-0.415487
0.346177
0.0711191
0.0237742
-0.380972
-0.303856
0.144676
-0.0304489
-0.114224
-0.57264
0.54337
0.0293049
-0.597817
0.44968
0.148183
0.00449857
-0.106418
0.417713
-0.00549108
4.63064e-05
0.00544477
0.0124884
-0.0569291
-0.24414
0.339548
-0.0954055
0.0986077
0.0258957
0.548312
-0.128498
0.31352
-0.259467
-0.00202186
0.00204795
0.0234406
0.0269443
-0.0503838
-0.297829
0.211661
-0.178337
-0.199906
-0.389281
0.216882
-0.206557
-0.366054
0.567563
-0.307896
-0.25964
0.495175
-0.413841
0.0400679
-0.173085
0.133022
0.195067
0.0382445
-0.233301
-0.00297098
0.00700124
0.026263
-0.205125
-0.345082
0.241623
0.103462
-0.058015
0.00771258
-0.266937
-0.262481
0.0158779
0.16626
-0.182133
-0.0229877
-0.0882645
-0.000747188
-0.380723
0.532228
-0.330913
-0.201305
-0.0774197
0.572595
-0.226232
-0.371541
-0.431893
0.339013
0.493089
0.103074
0.461149
-0.335003
0.410197
-0.600126
0.190004
-0.0015684
-0.00186856
0.189435
-0.0395564
-0.149869
-0.629535
0.452252
0.177332
0.136639
-0.120042
-0.22445
-0.389361
0.00624571
-0.00360816
0.179131
0.39127
0.1521
0.40302
-0.000474603
0.00239242
-0.19287
0.0717647
0.12111
0.333228
-0.499497
-0.220474
-0.124922
0.345412
-0.596722
0.18223
0.414498
-0.55545
0.409002
0.146473
0.188208
0.0951578
-0.283357
0.186931
-0.00914331
-0.177782
-0.369419
0.509022
-0.139572
-3.39366e-05
-0.00387356
0.00390757
-0.0957476
0.233956
-0.1382
-0.361323
0.485566
-0.124239
0.504937
-0.171706
0.21678
0.315459
-0.00582543
-0.00120706
0.0884722
0.204309
-0.64792
0.266997
0.380959
-0.29652
-0.000737204
-0.000973501
-0.0328378
0.24817
-0.129597
0.0035211
0.000444428
-0.395215
0.106218
0.289
-0.562935
0.170568
0.139751
-0.556629
0.245939
0.0946708
0.00497494
-0.565762
0.18283
0.382935
0.0237112
-0.109126
0.297346
0.205542
0.0753392
0.0197426
-0.445548
0.311063
-0.117389
-0.0285534
0.165858
0.0235856
0.409101
-0.121845
0.287179
-0.0399497
-0.363981
-0.283903
0.218991
-0.0320516
0.311879
0.0470906
-0.353544
0.13514
0.218415
0.133877
0.344042
-0.477908
-0.0033683
-0.000648974
0.00401735
0.483845
0.075729
-0.559573
-0.277445
-0.117768
-0.393504
0.215178
0.0764408
0.239263
-0.315696
0.0578705
0.173754
-0.231615
-0.0301139
0.0535558
0.48763
0.082147
0.00519074
-0.131568
0.126382
-0.0304331
0.00670943
0.261437
0.293132
-0.554568
-0.141888
-0.297826
0.43974
-0.183668
0.520334
-0.110062
0.0997383
0.275275
-0.374987
-0.418674
0.205624
0.213065
0.404661
-0.114461
-0.290192
0.150003
-0.0718893
0.0935572
0.0272894
-0.393911
0.55713
-0.163184
-0.00903514
0.0472957
-0.0382595
0.0735493
0.165276
0.219446
0.000899285
-0.127278
0.402858
-0.289756
0.0834767
0.0805682
-0.0165747
-0.115639
0.390569
0.13042
-0.520966
-0.136784
-0.0560823
-0.141264
0.186359
-0.0450915
0.168056
-0.00218996
0.55163
-0.399642
-0.151963
0.406227
-0.530953
0.352643
0.214942
0.000182963
-0.104219
0.366649
-0.597969
0.37115
0.226838
0.174926
-0.0287197
-0.534165
0.164777
-0.565937
0.413189
0.152779
0.0133627
-0.108496
0.141617
-0.283385
0.40389
-0.120498
0.0201765
-0.108119
0.218171
-0.246461
0.0197743
-0.300405
-0.118258
-0.310837
0.217996
0.00908027
-0.052604
0.0435255
0.396471
0.145184
-0.580793
0.17991
0.400895
-0.36945
-0.296257
0.517777
-0.522866
0.00511644
0.250017
-0.355395
0.105394
-0.322219
0.20108
0.121149
0.0759975
-0.255628
0.395647
0.156008
0.595032
-0.184202
-0.410827
-0.348163
-0.142008
0.490192
-0.40967
-0.0390739
-0.149988
-0.173458
-0.0550734
-0.371208
0.142644
-0.0142382
-0.369363
-0.0169801
0.0227618
-0.00578205
0.103107
-0.386485
-0.469698
0.100267
-0.0011978
-0.00403334
0.296696
-0.102655
-0.19403
-0.00239419
0.0961896
0.181189
-0.349195
-0.0281932
0.377394
0.140003
0.309274
-0.44926
0.548505
-0.408474
-0.140004
-0.429284
0.287421
0.00199732
-0.00640198
0.00440516
-0.189171
0.214756
-0.0255741
0.0996129
-0.343749
0.0888344
0.0180207
-0.305235
0.405001
0.0187736
0.149288
0.653136
-0.184876
-0.396865
0.496601
-0.099723
-0.523518
0.165766
0.357758
0.472386
-0.386841
-0.00323767
0.277829
-0.101038
-0.17678
-0.0027962
-0.346393
0.128724
-0.0176058
-0.107882
-0.321004
0.428891
0.284774
-0.507988
0.223236
0.318729
-0.510326
0.191625
0.179677
-0.165771
0.154437
-0.301838
0.42242
-0.120559
0.0847649
0.232657
-0.317407
-0.357126
0.506397
-0.149246
0.0163873
0.483075
-0.198283
-0.0727159
-0.197074
0.269791
0.283009
0.12611
-0.000891257
-0.000398814
0.00129038
0.00235191
-0.440912
0.249923
0.190994
0.00471974
-0.051
-0.0191205
0.000418235
0.123295
0.331535
-0.409353
0.563773
-0.154374
0.541565
-0.434359
-0.107193
-0.106099
0.390924
-0.2848
-0.0794828
-0.250394
0.32989
0.466285
0.0298278
-0.515041
0.361964
0.153106
-0.220296
-0.126873
0.112172
0.00803013
-0.0368962
0.0288678
0.23377
-0.337973
-0.0279801
-0.166566
0.194554
-0.172758
-0.0252523
0.198013
-0.552642
0.405539
0.147129
-0.199338
0.204988
0.270929
0.0257769
0.551766
-0.185594
-0.366156
-0.00857468
-0.188968
0.197553
0.177687
0.437769
-0.00259021
0.00642906
0.162124
-0.122052
-0.578706
0.161604
0.417105
0.159034
0.396524
0.236541
0.238061
-0.538829
0.363359
-0.475892
0.127749
-0.00470717
-0.395112
0.559069
-0.163912
-0.0636753
0.362338
-0.50039
-0.239663
0.549277
-0.309612
-0.429152
0.15201
0.277154
0.113588
0.332022
-0.445578
-0.0858563
-0.380065
-0.115122
0.16133
-0.556395
0.358853
-0.0271012
0.304338
0.0325524
-0.336877
0.00537476
-0.556617
0.406559
0.150091
0.201021
0.216526
-0.648741
0.432222
-0.345275
-0.130596
0.000276879
0.000516958
0.477615
-0.158858
-0.155198
0.302315
-0.00411465
0.140758
-0.000243631
0.641334
-0.424802
-0.460098
0.325679
0.134424
0.0471301
-0.0380481
0.552097
-0.39775
-0.154334
0.105481
0.297202
-0.402665
0.131308
0.0314579
-0.164245
-0.313514
0.477776
-0.100032
0.110282
0.297743
-0.361247
0.0635221
-0.000257297
-0.00183643
0.288989
0.112907
0.0403112
0.0100958
-0.0504072
-0.343064
-0.447871
-0.115287
0.563166
-0.614904
0.476683
-0.0999189
0.54427
0.636136
-0.152289
0.00812537
-0.0115535
-0.100152
0.343692
-0.243525
-0.614443
0.242071
0.372415
0.313607
-0.427414
0.11381
0.16112
0.131953
0.409626
-0.118087
0.320779
-0.0796736
0.00455113
-0.225247
0.181964
-0.13159
-0.00165828
0.133251
0.0990535
0.244801
-0.0392471
-0.00159618
0.00219522
-0.000598885
-0.395074
0.129992
0.2651
-0.127681
-0.253148
0.422633
-0.169461
0.00286359
-0.000109592
-0.00275388
-0.478754
0.210631
0.118162
-0.328783
-0.217283
-0.43145
-0.209325
-0.342776
0.552118
-0.616398
0.399123
0.592395
-0.178558
-0.413823
0.559699
-0.429159
-0.130523
0.131832
0.30219
-0.433997
-0.182494
-0.0364169
0.218919
0.531404
-0.140812
0.248504
-0.348641
-0.0141069
-0.126147
0.140258
-0.00568306
0.00880126
-0.00311968
-0.0190642
0.00208373
0.139183
-0.143293
-0.216435
-0.434813
-0.180088
0.484858
-0.33833
-0.14649
-0.0111048
-0.0414972
0.367468
0.125857
-0.00549105
0.137408
-0.408813
0.271418
0.149762
-0.00885991
0.521008
-0.512085
-0.303799
0.426838
-0.123017
-0.280016
0.417436
-0.410333
-0.174906
-0.375906
-0.140801
0.516745
-0.158687
0.17457
-0.248091
-0.366309
0.00169276
-0.000606684
-0.00108669
0.472186
-0.370129
0.529337
-0.15917
-0.00645172
0.00844966
-0.430523
0.177397
-0.272643
-0.316163
-0.110521
0.51807
-0.00113348
0.00294626
-0.0488532
0.206171
-0.199973
0.569266
-0.369281
-0.163577
-0.457157
-0.159975
0.617159
0.539371
-0.0113996
0.0409067
-0.0295061
0.12714
-0.0162775
-0.114196
0.130473
0.194685
-0.349868
-0.371286
0.368495
-0.20922
0.582278
-0.435912
-0.146351
-0.059912
-0.184419
0.328132
-0.436007
0.0637475
-0.24236
-6.49568e-06
-0.00081667
0.284579
-0.433886
0.149319
-0.434233
0.334137
0.386564
-0.281068
-0.521855
0.363594
0.158274
-0.147521
0.00493359
-0.118394
0.113464
0.0240448
0.151849
0.238064
-0.0429881
-1.22925e-05
-0.000724806
0.00102786
0.000664228
-0.122824
0.450962
-0.112378
0.117315
-0.408616
-0.15511
0.000397992
-0.00185901
0.00146108
-0.442188
-0.12702
0.0147106
0.00685004
-0.0215622
-0.146039
0.00857265
-0.220746
-0.29597
0.321676
-0.025693
-0.0378463
0.0242886
0.0135569
0.00653402
-0.0313286
0.0247952
-0.629536
0.225586
0.403956
0.173895
-0.412085
-0.438704
-0.310411
-0.204603
0.178993
0.396121
-0.113094
-0.0804519
0.378211
-0.0983378
-0.0224727
0.120811
5.57453e-05
0.000469519
-0.000525122
0.140106
0.20521
0.000409693
0.000485125
0.514268
0.0943305
-0.171329
0.454593
-0.283252
-0.317066
0.00808866
-0.00929663
0.0012081
0.223686
-0.303155
0.0194585
0.556579
-0.146304
0.171074
-0.267851
-0.142753
0.410622
-0.394764
0.268621
0.136047
0.0449483
0.198588
-0.243526
0.308634
-0.414707
-0.0608068
-0.414568
-0.214961
0.406002
0.147477
-0.553471
-0.156046
-0.13713
0.421721
0.00222044
0.00032136
-0.00254173
-0.340808
0.120347
-0.110783
0.344569
-0.425604
0.544368
-0.11876
1.66329e-05
-0.399119
0.62405
0.150071
-0.311739
0.100046
-0.204114
-0.11909
0.323214
0.227402
-0.0327068
0.431851
0.20949
0.0169766
0.468189
-0.334301
-0.49414
0.1516
0.342559
0.0160674
-0.140845
0.124784
-0.444122
-0.0004712
0.556256
-0.294818
-0.109027
-0.0345526
0.143584
0.0931733
-0.112091
-0.0148172
-0.116747
-0.0774135
0.0169733
0.0604408
-0.208011
-0.357748
0.0309271
-0.0375194
0.00332958
0.0018779
-0.00520728
0.52952
0.0910056
-0.0467627
0.244132
-0.41545
-0.0155096
0.180144
0.14509
0.0210822
0.488109
-0.322339
-0.0683072
0.241444
-0.173127
-0.391252
-0.189687
0.255383
-0.185049
-0.0703228
-0.196471
-0.252913
-0.10561
-0.00789279
0.0146564
-0.166375
-0.0260113
0.192394
0.040152
-0.181414
-0.0192275
0.013283
0.00594353
0.0859047
-0.00747148
0.118409
-0.110935
-0.224226
-0.421663
0.117886
0.347779
0.109488
-0.457255
0.555197
-0.149188
-0.579953
0.438043
0.141918
-0.395368
0.541231
-0.145829
-0.232214
-0.0210284
0.0275632
-0.598161
0.429995
0.168209
0.0921384
0.251569
-0.160414
-0.255842
-0.115615
-0.237572
0.353206
0.18875
-0.0229069
-0.15166
0.0461406
0.105523
-0.295557
0.119521
-0.547111
-0.240889
0.168176
0.0476861
-0.473287
-0.313021
0.259432
0.00160394
-0.0031999
-0.107941
-0.228833
0.336791
0.15123
0.321271
-0.472481
0.0575576
-0.00942243
-0.418819
0.341938
-0.249785
0.00556531
-0.00223538
0.00261857
0.402178
-0.11616
-0.286009
0.197933
-0.177078
-0.0208497
0.32707
-0.101306
-0.225754
0.00436454
-0.000843361
-0.0265721
0.216805
-0.253209
0.155868
-0.00671838
0.0305889
0.540932
-0.0666717
-0.112439
-0.00726295
-0.0756176
-0.443819
0.341834
-0.302078
0.2204
0.0816809
0.511365
-0.00869739
-0.100795
-0.0117475
0.526664
-0.514852
0.250518
-0.366111
-0.343239
0.0380569
0.271086
-0.157236
0.177803
-0.0205601
0.5809
-0.180215
-0.400657
0.128499
-0.0155859
0.256784
0.0640097
0.0412407
0.0115263
0.0792192
-0.454645
0.128852
0.325813
0.00369616
0.235447
0.140191
-0.375626
-0.0904512
0.332409
-0.241943
-0.5087
0.327129
0.181601
0.000202069
-0.00229562
0.0020937
-0.0162296
0.164759
0.000595631
0.201939
-0.280563
0.0786317
-6.11862e-05
-0.00314224
0.159158
0.0272038
-0.164865
-0.264134
-0.176773
0.192658
-0.0262455
0.37691
-0.563523
0.41097
-0.297354
-0.0947222
-0.0150299
0.109753
-0.233403
-0.187069
-0.185773
-0.0948983
-0.211163
0.256121
-0.323271
0.119166
-0.131494
0.147567
-0.0110598
0.0513705
-0.478137
0.148414
-0.109663
0.132361
-0.0226968
-0.096487
-0.274795
0.300413
0.122029
-0.3535
0.496836
-0.143297
0.183576
0.389822
0.0309239
-0.0232585
-0.00766478
0.0545382
-0.0564873
0.577924
-0.426093
-0.151803
0.169264
-0.603668
0.183934
0.419738
0.124777
-0.445776
-0.00518387
0.365967
-0.446401
-0.157993
-0.340756
0.498805
0.0266545
0.484722
-0.285302
0.0354217
-0.50298
0.467638
0.334876
-0.0889243
0.0239329
0.00699173
0.129253
0.178509
-0.239749
0.0612477
0.408716
0.146489
-0.411947
-0.00167043
0.140857
-0.00241502
0.0105038
0.00368394
-0.003747
-0.130162
-0.497132
0.547392
0.342296
-0.500232
-0.103123
0.351643
0.00589796
-0.423621
-0.155083
0.015994
-0.0808599
0.00969767
0.139829
-0.149521
-0.0941577
0.266229
-0.581255
0.176013
0.405246
0.31384
-0.112749
-0.0130649
0.455921
-0.38731
-0.0685951
-0.206406
0.24279
-0.036383
-0.397317
0.554565
-0.415239
-0.1393
-0.377364
0.227382
0.00174291
0.00310718
-0.00484928
-0.196502
0.161364
-0.142757
0.551482
-0.130131
0.159269
-0.0291355
-0.39639
-0.0126191
0.0879793
-0.467018
0.212943
0.406231
0.169559
-0.575731
-0.0252913
-0.422126
0.0860381
0.369901
0.267374
0.134812
-0.110293
-0.0187663
0.129063
-0.190577
0.261186
-0.070602
-0.0984575
-0.213156
0.480522
0.00257346
0.131393
0.423563
0.121671
-0.553447
0.248242
-0.223043
0.0405566
0.181161
0.0110561
-0.192213
-0.00286102
0.0028271
-0.231152
0.202866
-0.21143
-0.158542
0.172654
-0.0141032
-0.0238532
0.183014
0.169051
0.396196
0.166357
0.104879
0.0906436
-0.0244781
-0.0656391
0.0526837
0.012957
0.00474698
0.000359556
-0.129506
0.375951
-0.246429
0.274358
-0.487992
0.213652
0.00306572
-0.629654
0.288947
-0.496747
0.0976318
0.202179
0.0860569
-0.288224
0.0266746
-0.363908
0.139407
0.224519
-0.427099
0.0402476
0.0119695
-0.0522155
0.220673
-0.162793
0.107387
-0.368179
0.260807
-0.185044
0.423117
-0.0045175
0.0293632
-0.0248462
0.0371802
-0.0448014
0.00762322
0.00118053
-0.000770599
0.353088
-0.495073
0.11576
-0.437101
0.321367
-0.0833986
0.447322
0.1109
-0.486236
-0.0168044
-0.157373
0.189185
-0.0318103
0.128051
0.357519
-0.283982
0.0954548
0.188536
-0.213797
0.167391
0.0464135
-0.32889
0.230449
0.0219982
-0.0277909
0.135302
0.367647
-0.502905
-0.136844
0.393956
-0.257099
-0.139937
-0.183325
-0.223284
0.497664
-0.0117584
-0.0538793
0.117642
-0.4838
0.3662
0.556711
-0.121675
0.023337
0.120846
-0.135158
0.014316
-0.033839
0.0460545
-0.0122161
-0.0117056
0.0645242
-0.0528163
-0.157323
-0.28058
0.437946
0.113504
0.0882467
-0.201743
-0.349787
0.528549
0.077446
0.309133
-0.539356
0.530569
-0.200563
0.370603
0.0652174
-0.0769744
0.0340491
0.331934
0.146657
-0.189904
0.447235
-0.0994439
-0.563294
0.400327
0.162977
0.140186
-0.433036
-0.138391
0.571432
-0.171482
-0.000318835
-0.00281979
0.433337
-0.580013
0.146686
0.341238
0.12234
-0.136443
-0.551035
-0.131141
-0.0953667
-0.118424
-0.0762144
0.189726
0.291822
0.124289
-0.416087
-0.507374
-0.160414
-0.365876
0.526328
0.406403
0.148189
-0.560676
0.419034
0.141643
-0.236573
-0.140774
0.483609
-0.342826
0.321395
0.215474
0.0530337
-0.510165
-0.400489
-0.110725
0.511222
-0.107375
0.299761
-0.192383
-0.191732
0.00154239
0.0102345
0.0172591
-0.174489
0.143385
-0.363961
0.53777
-0.17377
0.546545
-0.43876
-0.107762
0.157597
0.0202113
-0.546594
0.156106
0.390496
0.047074
-0.298157
-0.282627
-0.271661
-0.284471