/*--------------------------------*- C++ -*----------------------------------*\
| =========                 |                                                 |
| \\      /  F ield         | OpenFOAM: The Open Source CFD Toolbox           |
|  \\    /   O peration     | Version:  v2012                                 |
|   \\  /    A nd           | Website:  www.openfoam.com                      |
|    \\/     M anipulation  |                                                 |
\*---------------------------------------------------------------------------*/
FoamFile
{
    version     2.0;
    format      ascii;
    class       pointVectorField;
    location    "350";
    object      pointDisplacement;
}
// * * * * * * * * * * * * * * * * * * * * * * * * * * * * * * * * * * * * * //

dimensions      [0 1 0 0 0 0 0];


internalField   nonuniform List<vector> 
14386
(
(0 0 0)
(0.0100903 0.0886899 0)
(0 0 0)
(0.0100903 0.0886899 0)
(0 0 0)
(0 0 0)
(0 0 0)
(0 0 0)
(0 0 0)
(0 0 0)
(0 0 0)
(0 0 0)
(0 0 0)
(0 0 0)
(0 0 0)
(0 0 0)
(0 0 0)
(0 0 0)
(0 0 0)
(0 0 0)
(0 0 0)
(0 0 0)
(0 0 0)
(0 0 0)
(0 0 0)
(0 0 0)
(0 0 0)
(0 0 0)
(0 0 0)
(0 0 0)
(0 0 0)
(0 0 0)
(0 0 0)
(0 0 0)
(0 0 0)
(0 0 0)
(0 0 0)
(0 0 0)
(0 0 0)
(0 0 0)
(0 0 0)
(0 0 0)
(0 0 0)
(0 0 0)
(0 0 0)
(0 0 0)
(0 0 0)
(0 0 0)
(0 0 0)
(0 0 0)
(0 0 0)
(0 0 0)
(0 0 0)
(0 0 0)
(0 0 0)
(0 0 0)
(0 0 0)
(0 0 0)
(0 0 0)
(0 0 0)
(0 0 0)
(0 0 0)
(0 0 0)
(0 0 0)
(0 0 0)
(0 0 0)
(0 0 0)
(0 0 0)
(0 0 0)
(0 0 0)
(0 0 0)
(0 0 0)
(0 0 0)
(0 0 0)
(0 0 0)
(0 0 0)
(0 0 0)
(0 0 0)
(0 0 0)
(0 0 0)
(0 0 0)
(0 0 0)
(0 0 0)
(0 0 0)
(0 0 0)
(0 0 0)
(0 0 0)
(0 0 0)
(0 0 0)
(0 0 0)
(0 0 0)
(0 0 0)
(0 0 0)
(0 0 0)
(0 0 0)
(0 0 0)
(0 0 0)
(0 0 0)
(0 0 0)
(0 0 0)
(0 0 0)
(0 0 0)
(0 0 0)
(0 0 0)
(0 0 0)
(0 0 0)
(0 0 0)
(0 0 0)
(0 0 0)
(0 0 0)
(0 0 0)
(0 0 0)
(0 0 0)
(0 0 0)
(0 0 0)
(0 0 0)
(0 0 0)
(0 0 0)
(0 0 0)
(0 0 0)
(0 0 0)
(0 0 0)
(0 0 0)
(0 0 0)
(0 0 0)
(0 0 0)
(0 0 0)
(0 0 0)
(0 0 0)
(0 0 0)
(0 0 0)
(0 0 0)
(0 0 0)
(0.0104212 0.0587984 0)
(0.010409 0.0599055 0)
(0.0103967 0.0610126 0)
(0.0103845 0.0621197 0)
(0.0103722 0.0632268 0)
(0.0103599 0.0643339 0)
(0.0103477 0.065441 0)
(0.0103354 0.066548 0)
(0.0103232 0.0676551 0)
(0.0103109 0.0687622 0)
(0.0102987 0.0698693 0)
(0.0102864 0.0709764 0)
(0.0102741 0.0720835 0)
(0.0102619 0.0731906 0)
(0.0102496 0.0742977 0)
(0.0102374 0.0754048 0)
(0.0102251 0.0765119 0)
(0.0102129 0.077619 0)
(0.0102006 0.0787261 0)
(0.0101883 0.0798331 0)
(0.0101761 0.0809402 0)
(0.0101638 0.0820473 0)
(0.0101516 0.0831544 0)
(0.0101393 0.0842615 0)
(0.010127 0.0853686 0)
(0.0101148 0.0864757 0)
(0.0101025 0.0875828 0)
(0.00898318 0.0886776 0)
(0.00787609 0.0886654 0)
(0 0 0)
(0 0 0)
(0 0 0)
(0 0 0)
(0 0 0)
(0 0 0)
(0 0 0)
(0 0 0)
(0 0 0)
(0 0 0)
(0 0 0)
(0 0 0)
(0 0 0)
(0 0 0)
(0 0 0)
(0 0 0)
(0 0 0)
(0 0 0)
(0 0 0)
(0 0 0)
(0 0 0)
(0 0 0)
(0 0 0)
(0 0 0)
(0 0 0)
(0 0 0)
(0 0 0)
(0 0 0)
(0 0 0)
(0 0 0)
(0 0 0)
(0 0 0)
(0 0 0)
(0 0 0)
(0 0 0)
(0 0 0)
(0 0 0)
(0 0 0)
(0 0 0)
(0 0 0)
(0 0 0)
(0 0 0)
(0 0 0)
(0 0 0)
(0 0 0)
(0 0 0)
(0 0 0)
(0 0 0)
(0 0 0)
(0 0 0)
(0 0 0)
(0 0 0)
(0 0 0)
(0 0 0)
(0 0 0)
(0 0 0)
(0 0 0)
(0 0 0)
(0 0 0)
(0 0 0)
(0 0 0)
(0 0 0)
(0 0 0)
(0 0 0)
(0 0 0)
(0 0 0)
(0 0 0)
(0 0 0)
(0 0 0)
(0 0 0)
(0 0 0)
(0 0 0)
(0 0 0)
(0 0 0)
(0 0 0)
(0 0 0)
(0 0 0)
(0 0 0)
(0 0 0)
(0 0 0)
(0 0 0)
(0 0 0)
(0 0 0)
(0 0 0)
(0 0 0)
(0 0 0)
(0 0 0)
(0 0 0)
(0 0 0)
(0 0 0)
(0 0 0)
(0 0 0)
(0 0 0)
(0 0 0)
(0 0 0)
(0 0 0)
(0 0 0)
(0 0 0)
(0 0 0)
(0 0 0)
(0 0 0)
(0 0 0)
(0 0 0)
(0 0 0)
(0 0 0)
(0 0 0)
(0 0 0)
(0 0 0)
(0 0 0)
(0 0 0)
(0 0 0)
(0 0 0)
(0 0 0)
(0 0 0)
(0 0 0)
(0 0 0)
(0 0 0)
(0 0 0)
(0 0 0)
(0 0 0)
(0 0 0)
(0 0 0)
(0 0 0)
(0 0 0)
(0 0 0)
(0 0 0)
(0 0 0)
(0 0 0)
(0 0 0)
(0.0104212 0.0587984 0)
(0.010409 0.0599055 0)
(0.0103967 0.0610126 0)
(0.0103845 0.0621197 0)
(0.0103722 0.0632268 0)
(0.0103599 0.0643339 0)
(0.0103477 0.065441 0)
(0.0103354 0.066548 0)
(0.0103232 0.0676551 0)
(0.0103109 0.0687622 0)
(0.0102987 0.0698693 0)
(0.0102864 0.0709764 0)
(0.0102741 0.0720835 0)
(0.0102619 0.0731906 0)
(0.0102496 0.0742977 0)
(0.0102374 0.0754048 0)
(0.0102251 0.0765119 0)
(0.0102129 0.077619 0)
(0.0102006 0.0787261 0)
(0.0101883 0.0798331 0)
(0.0101761 0.0809402 0)
(0.0101638 0.0820473 0)
(0.0101516 0.0831544 0)
(0.0101393 0.0842615 0)
(0.010127 0.0853686 0)
(0.0101148 0.0864757 0)
(0.0101025 0.0875828 0)
(0.00898318 0.0886776 0)
(0.00787609 0.0886654 0)
(7.16613e-05 0.00224512 0)
(0.0101923 0.0794108 0)
(0.0104151 0.0593358 0)
(0.0103063 0.0691541 0)
(0.000128981 0.00270461 0)
(1.21391e-05 0.00130377 0)
(3.45965e-06 0.000952411 0)
(2.98246e-05 0.00166933 0)
(0.000226086 0.0032409 0)
(-1.34922e-08 0.000680406 0)
(0.000310748 0.00312989 0)
(-4.2612e-06 0.000479267 0)
(0.000401236 0.0027067 0)
(0.000516084 0.00194509 0)
(-1.11933e-06 0.000465579 0)
(0.0101181 0.0857391 0)
(-3.16327e-06 0.000417296 0)
(-1.42426e-06 0.000365233 0)
(-2.35663e-06 0.000353434 0)
(-1.27924e-06 0.00027344 0)
(-1.4795e-06 0.000246739 0)
(5.05396e-05 0.00202157 0)
(2.1924e-05 0.00166744 0)
(6.85295e-06 0.00111525 0)
(0.0102439 0.0747591 0)
(0.0103536 0.064879 0)
(-8.08411e-07 0.000159251 0)
(-8.7297e-07 0.000156261 0)
(0.000301096 0.00361237 0)
(0.000469135 0.00244049 0)
(0.000358777 0.00298171 0)
(0.000188092 0.00313766 0)
(9.3051e-05 0.00231832 0)
(-9.60358e-07 0.000633437 0)
(1.49116e-06 0.000807883 0)
(-3.76431e-06 0.00045974 0)
(-4.30217e-06 0.000449954 0)
(-1.41448e-06 0.000431517 0)
(0.0101564 0.0825731 0)
(-5.36581e-07 0.000101777 0)
(-4.51216e-07 8.33488e-05 0)
(0.000501404 0.00138968 0)
(0.00015161 0.00284931 0)
(8.60919e-05 0.00239661 0)
(6.03612e-05 0.00213132 0)
(4.80601e-05 0.00219218 0)
(2.39859e-05 0.0015539 0)
(1.45844e-05 0.0013077 0)
(9.39647e-06 0.00122948 0)
(5.15666e-06 0.00106949 0)
(-9.99846e-07 0.000203721 0)
(-3.22416e-06 0.000448085 0)
(6.63617e-07 0.000750914 0)
(-5.22518e-06 0.000520182 0)
(-1.20266e-06 0.000208816 0)
(-1.5523e-06 0.000249431 0)
(-1.39016e-06 0.000327717 0)
(-5.28354e-07 0.000643359 0)
(-1.81279e-07 3.40334e-05 0)
(0.00827222 0.0268132 0)
(0.0081516 0.0263951 0)
(0.00813516 0.028853 0)
(0.00801686 0.0283564 0)
(0.00799589 0.0307681 0)
(0.00811045 0.0313345 0)
(0.00796677 0.0331682 0)
(0.00785572 0.0325378 0)
(0.0078234 0.0348511 0)
(0.00793037 0.035539 0)
(0.00778351 0.0371382 0)
(0.00767819 0.036416 0)
(0.00763458 0.0386285 0)
(0.00753153 0.0378681 0)
(0.00748506 0.0400019 0)
(0.00758458 0.0407663 0)
(0.00743348 0.0420812 0)
(0.0073362 0.0412521 0)
(0.00728134 0.0432726 0)
(0.00738312 0.044286 0)
(0.00721707 0.04526 0)
(0.00712943 0.0443168 0)
(0.00706419 0.0461957 0)
(0.00714511 0.0471468 0)
(0.00699276 0.0480024 0)
(0.00706941 0.0489566 0)
(0.00691468 0.0497432 0)
(0.00684084 0.0487794 0)
(0.00676179 0.050443 0)
(0.00682978 0.0514223 0)
(0.00667519 0.0520492 0)
(0.00673774 0.053047 0)
(0.00658061 0.0535984 0)
(0.00663843 0.0546089 0)
(0.00647875 0.0550917 0)
(0.00642414 0.0540697 0)
(0.00631967 0.0555069 0)
(0.0063692 0.0565415 0)
(0.00620863 0.0568917 0)
(0.00625188 0.0579467 0)
(0.00609042 0.0582179 0)
(0.00612789 0.0593077 0)
(0.00596353 0.0594874 0)
(0.00599289 0.0605657 0)
(0.00582767 0.0606953 0)
(0.00584742 0.0617234 0)
(0.00568875 0.0618245 0)
(0.0056952 0.0628239 0)
(0.00554141 0.0628528 0)
(0.00553674 0.0638676 0)
(0.00538028 0.063811 0)
(0.00536901 0.0648626 0)
(0.00520925 0.0647455 0)
(0.00519151 0.0657817 0)
(0.00502997 0.065626 0)
(0.00500546 0.0666299 0)
(0.00484303 0.066433 0)
(0.00480973 0.0674166 0)
(0.0046465 0.0671759 0)
(0.00460065 0.0681585 0)
(0.00443922 0.0678565 0)
(0.00437942 0.0688343 0)
(0.0042224 0.0684608 0)
(0.00414903 0.0694363 0)
(0.00399351 0.069007 0)
(0.00390924 0.0699764 0)
(0.00375329 0.0695109 0)
(0.00366107 0.0704504 0)
(0.00351062 0.0699624 0)
(0.00340623 0.0708671 0)
(0.00326894 0.0703503 0)
(0.00314646 0.0712278 0)
(0.0030207 0.0706654 0)
(0.00287957 0.0714979 0)
(0.00276581 0.0709072 0)
(0.00260859 0.0716895 0)
(0.0025096 0.0710867 0)
(0.002338 0.0718414 0)
(0.00225211 0.0712106 0)
(0.00207149 0.071935 0)
(0.00199511 0.0712743 0)
(0.00180647 0.0719673 0)
(0.00173896 0.0712961 0)
(0.00153922 0.0719555 0)
(0.00148635 0.0712693 0)
(0.00127549 0.0718746 0)
(0.00123843 0.0711898 0)
(0.00102121 0.0717312 0)
(0.000999674 0.0710425 0)
(0.000773887 0.0715512 0)
(0.000766168 0.0708454 0)
(0.00053229 0.0713259 0)
(0.000537194 0.0706172 0)
(0.00030228 0.0710479 0)
(0.000320797 0.0703348 0)
(0.000543505 0.0699015 0)
(0.000335188 0.0696198 0)
(0.0021595 0.0705127 0)
(0.00384067 0.0685119 0)
(0.00540816 0.0627053 0)
(0.00626708 0.0544816 0)
(0.000554493 0.0691759 0)
(0.000345355 0.0688968 0)
(8.98064e-05 0.0707207 0)
(0.00055954 0.0684416 0)
(0.000353555 0.0681624 0)
(0.000554899 0.0676993 0)
(0.000359823 0.0674167 0)
(0.000552514 0.0669412 0)
(0.00036502 0.0666586 0)
(0.000551726 0.0661702 0)
(0.000369702 0.0658867 0)
(0.000549255 0.0653891 0)
(0.000373756 0.0651018 0)
(0.000191718 0.0655687 0)
(0.000204144 0.0647749 0)
(2.0303e-05 0.0652055 0)
(4.09928e-05 0.0644073 0)
(0.000215497 0.0639774 0)
(5.96206e-05 0.0636048 0)
(-0.00014169 0.0647947 0)
(0.000225684 0.0631728 0)
(7.59001e-05 0.0627932 0)
(0.000234944 0.0623551 0)
(8.94437e-05 0.0619706 0)
(0.000245778 0.0615176 0)
(0.000102103 0.061136 0)
(0.000252189 0.0606597 0)
(0.00011266 0.0602905 0)
(0.000254273 0.059798 0)
(0.000120015 0.0594329 0)
(0.00025714 0.0589291 0)
(0.000127302 0.0585651 0)
(-8.63544e-06 0.0590319 0)
(3.51412e-06 0.0581635 0)
(-0.000134236 0.058606 0)
(-0.000114584 0.057722 0)
(-0.000253096 0.0581234 0)
(-0.000227894 0.0572444 0)
(-9.46431e-05 0.0568508 0)
(-0.00020672 0.0563724 0)
(-7.70253e-05 0.0559615 0)
(-0.000185387 0.0554836 0)
(-0.000364984 0.0576004 0)
(-6.02467e-05 0.0550597 0)
(-0.000164751 0.0545863 0)
(-4.70089e-05 0.0541494 0)
(-0.000147742 0.0536836 0)
(-3.73429e-05 0.0532328 0)
(-0.00013275 0.0527714 0)
(-2.87064e-05 0.0523108 0)
(-0.000119153 0.0518533 0)
(-0.000222605 0.0522778 0)
(-0.000204382 0.0513611 0)
(-0.000306687 0.0517487 0)
(-0.000284055 0.050838 0)
(-0.000187152 0.0504411 0)
(-0.000261424 0.0499217 0)
(-0.000172688 0.0495091 0)
(-0.000255123 0.0489536 0)
(-0.000159681 0.0485755 0)
(-0.000229218 0.048053 0)
(-0.00036377 0.0502491 0)
(-0.000146194 0.0476528 0)
(-0.000214643 0.0471544 0)
(-0.000134743 0.046718 0)
(-0.000200788 0.0462261 0)
(-0.000124516 0.0457765 0)
(-0.000188128 0.0452912 0)
(5.47986e-05 0.0714291 0)
(-0.000116022 0.0448294 0)
(-0.000176531 0.0443521 0)
(-0.000248201 0.0447768 0)
(-0.000233638 0.0438439 0)
(-0.00030563 0.0442289 0)
(-0.000288979 0.0433067 0)
(-0.000220158 0.0429139 0)
(-0.000273071 0.0423953 0)
(-0.000207814 0.0419875 0)
(-0.000258772 0.0414869 0)
(-0.000341724 0.0427551 0)
(-0.000196337 0.0410605 0)
(-0.000243944 0.0405653 0)
(-0.000185678 0.0401294 0)
(-0.000230051 0.0396351 0)
(-0.000176266 0.0392 0)
(-0.000218163 0.038713 0)
(-0.000167656 0.0382736 0)
(-0.000207649 0.0377975 0)
(-0.000160046 0.0373508 0)
(-0.000198045 0.0368885 0)
(-0.000244828 0.0372968 0)
(-0.000233138 0.0363996 0)
(-0.000278895 0.0367703 0)
(-0.000265384 0.0358856 0)
(-0.000222238 0.0355102 0)
(-0.000252835 0.035007 0)
(-0.000294957 0.0353494 0)
(-0.000280801 0.0344832 0)
(-0.00024115 0.0341351 0)
(-0.000267691 0.033625 0)
(-0.000230326 0.0332698 0)
(-0.000255493 0.0327731 0)
(-0.000220329 0.032411 0)
(-0.000244059 0.031928 0)
(-0.000278288 0.0322559 0)
(-0.000265577 0.0314246 0)
(-0.000233389 0.0310912 0)
(-0.000253682 0.0306014 0)
(-0.000223384 0.0302633 0)
(-0.000242529 0.0297865 0)
(-0.000214023 0.0294435 0)
(-0.000232098 0.0289802 0)
(-0.00025977 0.0292904 0)
(-0.000248316 0.0284977 0)
(-0.000222299 0.0281823 0)
(-0.000237556 0.0277135 0)
(-0.000213073 0.0273936 0)
(-0.000227444 0.026938 0)
(-0.00020438 0.0266138 0)
(-0.000217904 0.0261716 0)
(-0.000240257 0.0264647 0)
(-0.000229916 0.0257114 0)
(-0.000208881 0.0254144 0)
(-0.000220162 0.0249677 0)
(-0.000200366 0.0246668 0)
(-0.000210964 0.0242336 0)
(-0.000192339 0.0239289 0)
(-0.000202246 0.0235083 0)
(-0.000220217 0.0237847 0)
(-0.000210886 0.0230705 0)
(-0.000193953 0.0227922 0)
(-0.000202031 0.0223669 0)
(-0.000186071 0.0220849 0)
(-0.000193645 0.0216731 0)
(-0.00015282 0.0710566 0)
(-0.000202451 0.0717527 0)
(-0.000409163 0.0713451 0)
(-0.000472781 0.0720345 0)
(-0.000178595 0.0213877 0)
(-0.0001856 0.0209912 0)
(-0.000200161 0.0212469 0)
(-0.000191517 0.0205803 0)
(-0.000177575 0.0203227 0)
(-0.00020551 0.0207982 0)
(-0.000196271 0.0201488 0)
(-0.000209173 0.0203189 0)
(-0.00020014 0.0196984 0)
(0.00600018 0.0617013 0)
(0.000393021 0.0592572 0)
(-0.000119689 0.0377911 0)
(-5.14075e-05 0.0452792 0)
(0.00215367 0.0725532 0)
(0.00517345 0.0667955 0)
(0.00356129 0.0713326 0)
(6.77957e-05 0.0527365 0)
(0.0096802 0.0469755 0)
(0.00966957 0.0488738 0)
(0.00958638 0.0489842 0)
(0.00957312 0.0508777 0)
(0.00948775 0.0509088 0)
(0.00947222 0.0527681 0)
(0.00955707 0.0527728 0)
(0.00945262 0.054627 0)
(0.00936583 0.0545797 0)
(0.00934318 0.0564051 0)
(0.00925391 0.0563089 0)
(0.00922695 0.0581152 0)
(0.00953203 0.0546646 0)
(0.00913558 0.057945 0)
(0.00910353 0.0597323 0)
(0.00901041 0.0594782 0)
(0.00897349 0.0612373 0)
(0.00887851 0.0609186 0)
(0.00883735 0.0626264 0)
(0.00893369 0.0629702 0)
(0.00879358 0.0642965 0)
(0.00889122 0.0646606 0)
(0.00874682 0.065919 0)
(0.00884501 0.0663101 0)
(0.00869591 0.0674955 0)
(0.00859633 0.0670659 0)
(0.00854048 0.0685732 0)
(0.00879631 0.0679114 0)
(0.00844001 0.0680887 0)
(0.00837635 0.0695488 0)
(0.00891902 0.0591556 0)
(0.00827815 0.0689872 0)
(0.00820436 0.0704112 0)
(0.00810984 0.0697836 0)
(0.00802741 0.0711534 0)
(0.00812015 0.071815 0)
(0.00793536 0.0724803 0)
(0.00802634 0.0731505 0)
(0.00783363 0.0737364 0)
(0.00792368 0.0743977 0)
(0.00772231 0.0749024 0)
(0.00781073 0.0755628 0)
(0.00760087 0.0759884 0)
(0.00768355 0.0766885 0)
(0.00746451 0.0770125 0)
(0.00754484 0.0777421 0)
(0.00731558 0.0779746 0)
(0.00739431 0.0786882 0)
(0.00715369 0.0788416 0)
(0.00721589 0.0795477 0)
(0.00692984 0.0796188 0)
(0.00701121 0.0803298 0)
(0.00673287 0.080388 0)
(0.00678744 0.0810505 0)
(0.00649807 0.0810169 0)
(0.00652689 0.081691 0)
(0.00622852 0.0815968 0)
(0.00623188 0.0822429 0)
(0.00591988 0.0821062 0)
(0.00590437 0.0827241 0)
(0.00558712 0.0825526 0)
(0.00554171 0.0831362 0)
(0.00523049 0.0829314 0)
(0.00514192 0.0834795 0)
(0.00483213 0.0832385 0)
(0.00470239 0.0837575 0)
(0.00439542 0.0834883 0)
(0.00421942 0.0839786 0)
(0.00391962 0.0836866 0)
(0.00369252 0.0841467 0)
(0.00340808 0.0838372 0)
(0.00313351 0.0842565 0)
(0.00288018 0.0839353 0)
(0.00255229 0.0843105 0)
(0.00234318 0.0839706 0)
(0.00195347 0.0843134 0)
(0.00178899 0.0839436 0)
(0.00134053 0.0842667 0)
(0.00121894 0.0838757 0)
(0.000723957 0.08418 0)
(0.00647278 0.080318 0)
(0.00496529 0.0826651 0)
(0.000658061 0.0837816 0)
(0.00223555 0.0836225 0)
(0.00739129 0.0762537 0)
(0.00763067 0.0784808 0)
(0.00793796 0.0704666 0)
(0.000730339 0.0656362 0)
(0.00152937 0.0846453 0)
(0.00468739 0.0662194 0)
(0.0068592 0.0817819 0)
(0.00400813 0.0844486 0)
(0.00801922 0.0691297 0)
(0.00784537 0.0698106 0)
(0.00793142 0.0684514 0)
(0.00775175 0.0691758 0)
(0.0078426 0.0677574 0)
(0.00766446 0.0684884 0)
(0.00775624 0.0670649 0)
(0.00758016 0.0677762 0)
(0.00767466 0.0663607 0)
(0.00750011 0.0670465 0)
(0.00759951 0.0656402 0)
(0.00739651 0.0684136 0)
(0.00731902 0.067661 0)
(0.00720663 0.0689896 0)
(0.00713282 0.0682121 0)
(0.0070118 0.0694847 0)
(0.00694452 0.0686756 0)
(0.00681439 0.0698875 0)
(-0.000397952 0.058456 0)
(-0.000507009 0.0579095 0)
(0.00675289 0.0690653 0)
(0.00661489 0.070218 0)
(0.00688266 0.0678458 0)
(0.00586407 0.0833244 0)
(0.00454906 0.0691396 0)
(0.00679773 0.0540553 0)
(0.00131009 0.0726496 0)
(0.00141938 0.0705708 0)
(-0.000194271 0.0328731 0)
(-0.000170513 0.0217708 0)
(-0.000190885 0.0190552 0)
(-0.000181006 0.0243328 0)
(-0.000189399 0.027038 0)
(-0.000321715 0.0347911 0)
(-0.000275141 0.0287793 0)
(-0.000251443 0.025974 0)
(-0.000139122 0.0405978 0)
(0.000389001 0.0583802 0)
(0.000526132 0.0586661 0)
(0.00051407 0.0577774 0)
(0.000652345 0.0580194 0)
(0.000633364 0.0571223 0)
(0.000771601 0.0573203 0)
(0.000746695 0.0564043 0)
(0.000883985 0.056573 0)
(0.000854642 0.0556644 0)
(0.000987279 0.0557651 0)
(0.000945759 0.0548565 0)
(0.00108047 0.0548956 0)
(0.00102963 0.0539515 0)
(0.00117109 0.0540003 0)
(0.00111806 0.0530341 0)
(0.00127909 0.0530775 0)
(0.00119548 0.0520563 0)
(0.00133444 0.0519333 0)
(0.00125686 0.051021 0)
(0.00138463 0.0508863 0)
(0.00131243 0.0499563 0)
(0.00143633 0.0498088 0)
(0.00136647 0.0488607 0)
(0.00151091 0.0507082 0)
(0.00155904 0.0495968 0)
(0.00163997 0.0504812 0)
(0.00168207 0.0493178 0)
(0.0017695 0.0502062 0)
(0.00180387 0.0489992 0)
(0.00189697 0.0498599 0)
(0.00192251 0.0486044 0)
(0.0020235 0.0494435 0)
(0.00204132 0.0481397 0)
(0.00193391 0.0471741 0)
(0.00214977 0.0489678 0)
(0.00215645 0.0476144 0)
(0.00227337 0.0484054 0)
(0.0022673 0.0469954 0)
(0.0023901 0.0477586 0)
(0.00237727 0.0463283 0)
(0.00250253 0.047064 0)
(0.00248255 0.0455962 0)
(0.00261172 0.0463071 0)
(0.00258188 0.0447991 0)
(0.00271618 0.0454867 0)
(0.00245118 0.0440906 0)
(0.00251981 0.0484897 0)
(0.00267613 0.0439378 0)
(0.00281486 0.0445918 0)
(0.00276458 0.0430052 0)
(0.00290694 0.0436264 0)
(0.00295772 0.0452023 0)
(0.00305286 0.0442008 0)
(0.00310474 0.04575 0)
(0.00320234 0.0447203 0)
(0.00313981 0.0431606 0)
(0.00329223 0.0436396 0)
(0.00325471 0.0462472 0)
(0.00321868 0.0420641 0)
(0.00337379 0.0424951 0)
(0.00328886 0.0408956 0)
(0.00344688 0.0412811 0)
(0.00335058 0.0396523 0)
(0.00351104 0.0400042 0)
(0.00360885 0.0416135 0)
(0.00367424 0.0402999 0)
(0.00377388 0.0418786 0)
(0.00383955 0.0405227 0)
(0.00372952 0.0389388 0)
(0.00389555 0.039108 0)
(0.00394102 0.0420578 0)
(0.00377474 0.037524 0)
(0.0039428 0.0376296 0)
(0.00199554 0.0507136 0)
(0.00124508 0.0489891 0)
(0.00129691 0.0478902 0)
(0.0011808 0.0480299 0)
(0.00122613 0.0469127 0)
(0.00380782 0.0360388 0)
(0.00397899 0.0360893 0)
(0.00111798 0.0470604 0)
(0.00115805 0.045928 0)
(0.00105712 0.0460723 0)
(0.00109375 0.0449358 0)
(0.000997897 0.0450786 0)
(0.00103213 0.0439354 0)
(0.000941132 0.0440771 0)
(0.000972766 0.0429309 0)
(0.00105984 0.0427421 0)
(0.000997425 0.0417357 0)
(0.00108052 0.0414974 0)
(0.00101484 0.0404881 0)
(0.00109329 0.0401983 0)
(0.00102524 0.0391863 0)
(0.000951904 0.0394796 0)
(0.000960612 0.03817 0)
(0.000891517 0.0384644 0)
(0.000899944 0.0371262 0)
(0.000833728 0.0374434 0)
(0.000840937 0.0360927 0)
(0.000778349 0.0364255 0)
(0.000783772 0.0350808 0)
(0.000725283 0.0354062 0)
(0.000729205 0.0340623 0)
(0.000674475 0.0343878 0)
(0.000677191 0.0330455 0)
(0.000625766 0.0333712 0)
(0.000627631 0.032035 0)
(0.000579277 0.0323579 0)
(0.0005806 0.0310302 0)
(0.000535469 0.0313566 0)
(0.00109839 0.0388254 0)
(0.000536004 0.0300282 0)
(0.000494155 0.0303538 0)
(0.000493852 0.029036 0)
(0.000456066 0.0293148 0)
(0.000453975 0.0280616 0)
(0.000419696 0.0283422 0)
(0.000844904 0.0346761 0)
(0.000416216 0.0271059 0)
(0.000384642 0.0274215 0)
(0.000380906 0.0261477 0)
(0.000350316 0.0264942 0)
(0.000347462 0.0252072 0)
(0.000318844 0.0255462 0)
(0.000316135 0.0242727 0)
(0.000289913 0.0246142 0)
(0.000286762 0.023354 0)
(0.000262734 0.0236963 0)
(0.000625289 0.0306333 0)
(0.000258917 0.0224449 0)
(0.000237295 0.0227939 0)
(0.000237814 0.0239808 0)
(0.000214637 0.0230802 0)
(0.000213917 0.0219123 0)
(0.000192996 0.022199 0)
(0.000192288 0.0210449 0)
(0.000172863 0.021335 0)
(0.000171448 0.0224428 0)
(0.00015292 0.0215841 0)
(0.000154151 0.0204898 0)
(0.000135711 0.0207426 0)
(0.000136823 0.0196616 0)
(0.000119839 0.0199158 0)
(0.00012081 0.0188491 0)
(0.000105224 0.0191047 0)
(0.000106045 0.0180525 0)
(9.1758e-05 0.0183111 0)
(8.94593e-05 0.019321 0)
(7.72551e-05 0.0185314 0)
(7.93758e-05 0.0175357 0)
(6.60202e-05 0.0177602 0)
(6.8027e-05 0.0167795 0)
(5.57326e-05 0.0170085 0)
(5.766e-05 0.0160437 0)
(4.6353e-05 0.0162761 0)
(4.33052e-05 0.0171999 0)
(3.49529e-05 0.0164689 0)
(3.78445e-05 0.0155633 0)
(2.73735e-05 0.0157574 0)
(3.01503e-05 0.0148689 0)
(2.05036e-05 0.0150657 0)
(2.32141e-05 0.0141927 0)
(1.43431e-05 0.0143918 0)
(1.07655e-05 0.0152248 0)
(5.43628e-06 0.0145509 0)
(8.84383e-06 0.013736 0)
(6.61818e-07 0.0139021 0)
(4.05263e-06 0.0131018 0)
(-3.43197e-06 0.0132587 0)
(-7.46727e-06 0.0140297 0)
(-1.09644e-05 0.0133893 0)
(-6.75732e-06 0.0125112 0)
(-1.42274e-05 0.0127715 0)
(-1.82913e-05 0.0134944 0)
(-2.10494e-05 0.0128931 0)
(-1.73552e-05 0.0122233 0)
(-2.32544e-05 0.012303 0)
(-2.77075e-05 0.0129311 0)
(-2.92924e-05 0.0123606 0)
(-2.49948e-05 0.0117217 0)
(-3.05538e-05 0.0117911 0)
(-3.52368e-05 0.0124058 0)
(-3.59911e-05 0.0118382 0)
(-4.09401e-05 0.0124162 0)
(-4.12241e-05 0.0118532 0)
(-3.64992e-05 0.011274 0)
(-4.13032e-05 0.0112949 0)
(-4.61902e-05 0.0118416 0)
(-4.58703e-05 0.0112886 0)
(-5.08094e-05 0.0117976 0)
(-5.01678e-05 0.011254 0)
(-4.5341e-05 0.0107417 0)
(-4.92755e-05 0.0107121 0)
(-5.42522e-05 0.0111981 0)
(-5.29611e-05 0.010659 0)
(-5.81034e-05 0.0111243 0)
(-5.64057e-05 0.010583 0)
(-5.13797e-05 0.0101232 0)
(-5.45088e-05 0.0100476 0)
(-5.95935e-05 0.0104867 0)
(-5.74531e-05 0.00995549 0)
(-5.24841e-05 0.00951912 0)
(-6.25022e-05 0.010371 0)
(-6.0082e-05 0.00984339 0)
(-6.50889e-05 0.0102362 0)
(-6.23996e-05 0.009714 0)
(-6.73358e-05 0.0100829 0)
(-6.43546e-05 0.00956225 0)
(-6.92396e-05 0.00991042 0)
(-6.59566e-05 0.00938592 0)
(-7.09078e-05 0.00972821 0)
(-6.71734e-05 0.00918589 0)
(-6.24244e-05 0.00885365 0)
(-7.21636e-05 0.00951872 0)
(-6.81438e-05 0.0089761 0)
(-7.29886e-05 0.00928571 0)
(-6.8879e-05 0.00875746 0)
(-7.35266e-05 0.00904172 0)
(-6.91858e-05 0.00851362 0)
(-7.36799e-05 0.00877844 0)
(-7.72282e-05 0.00982275 0)
(-7.0285e-05 0.010614 0)
(-6.90647e-05 0.00824439 0)
(-7.34843e-05 0.0084999 0)
(-6.4741e-05 0.00798198 0)
(0.000149678 0.0226474 0)
(0.000448186 0.0267151 0)
(-6.86983e-05 0.00796788 0)
(-7.30009e-05 0.00821156 0)
(-7.79322e-05 0.0087394 0)
(-7.7289e-05 0.00843674 0)
(-8.24347e-05 0.00896405 0)
(-8.16119e-05 0.00864669 0)
(0.000352078 0.0279236 0)
(-7.63314e-05 0.00812323 0)
(-8.04674e-05 0.00831898 0)
(0.00382916 0.0344871 0)
(0.00400138 0.0344975 0)
(0.00415364 0.0360603 0)
(0.00417459 0.0344396 0)
(0.0043311 0.0359391 0)
(0.00434877 0.0343017 0)
(0.00450708 0.0357411 0)
(0.00452384 0.034061 0)
(0.0046808 0.0354801 0)
(0.00469859 0.033709 0)
(0.00452748 0.0323455 0)
(0.00470338 0.0318909 0)
(0.00486419 0.0332355 0)
(0.00487839 0.0313652 0)
(0.00469879 0.0300472 0)
(0.00487413 0.0294559 0)
(0.00505965 0.0307109 0)
(0.00505034 0.0287668 0)
(0.00485494 0.0275488 0)
(0.005029 0.0268134 0)
(0.00522561 0.0279756 0)
(0.0052021 0.0259707 0)
(0.0053989 0.0270758 0)
(0.00537384 0.0250025 0)
(0.00516605 0.0239575 0)
(0.00533609 0.0229251 0)
(0.00554526 0.023896 0)
(0.00550575 0.0217607 0)
(0.00528476 0.0208656 0)
(0.0054525 0.0196541 0)
(0.00567436 0.0204596 0)
(0.0056177 0.0183125 0)
(0.00583961 0.0190329 0)
(0.00577969 0.0168321 0)
(0.00554774 0.0161988 0)
(0.00570608 0.0146673 0)
(0.00594336 0.0152009 0)
(0.00586336 0.013001 0)
(0.0056203 0.0125842 0)
(-7.50568e-05 0.00779823 0)
(-7.90102e-05 0.00798142 0)
(0.000575501 0.0336154 0)
(0.00383925 0.0328864 0)
(0.00366842 0.0328484 0)
(0.000308906 0.0229258 0)
(-8.69896e-05 0.00917438 0)
(0.00102588 0.0566748 0)
(-7.34804e-05 0.00746288 0)
(-7.72488e-05 0.00763457 0)
(0.000120037 0.0177554 0)
(0.00366592 0.031217 0)
(0.00349674 0.0311627 0)
(-7.16117e-05 0.00711823 0)
(-7.51954e-05 0.00727938 0)
(-8.10142e-05 0.00779371 0)
(-6.80284e-05 0.00694563 0)
(0.00319339 0.0392581 0)
(0.00348065 0.0294971 0)
(0.00331311 0.0294147 0)
(0.000771177 0.0377051 0)
(0.000902936 0.0451721 0)
(0.00328395 0.0277184 0)
(0.00311672 0.0275976 0)
(0.000448922 0.0305527 0)
(3.19699e-05 0.0139577 0)
(3.09361e-05 0.0173533 0)
(-7.57526e-05 0.0481225 0)
(0.00593236 0.0584731 0)
(0.00669255 0.0682477 0)
(0.00682289 0.0670017 0)
(0.00312949 0.0698109 0)
(0.00803007 0.0259508 0)
(0.00894296 0.0666839 0)
(0.0088968 0.0682998 0)
(0.00903964 0.067056 0)
(0.00899701 0.0686698 0)
(0.00913522 0.0674091 0)
(0.00909753 0.0689921 0)
(0.00922918 0.0677236 0)
(0.00919611 0.0692709 0)
(0.00932217 0.0679901 0)
(0.00929243 0.0695338 0)
(0.0094146 0.0682002 0)
(0.00938962 0.0697123 0)
(0.00950535 0.068344 0)
(0.00948513 0.0698256 0)
(0.00959245 0.068452 0)
(0.00957686 0.0699079 0)
(0.00967664 0.0685168 0)
(0.00966501 0.0699466 0)
(0.00975772 0.0685093 0)
(0.00976735 0.067067 0)
(0.00984255 0.0669825 0)
(0.00984924 0.0655525 0)
(0.00991746 0.065381 0)
(0.00992411 0.063979 0)
(0.00998584 0.0637798 0)
(0.00999265 0.0623627 0)
(0.0100502 0.0621518 0)
(0.0100551 0.0607009 0)
(0.0101087 0.060445 0)
(0.0101119 0.0590033 0)
(0.010162 0.0587055 0)
(0.0101645 0.0572563 0)
(0.0102109 0.0569224 0)
(0.0102136 0.0554741 0)
(0.0102566 0.0551009 0)
(0.00974951 0.0699159 0)
(0.00965451 0.0713396 0)
(0.0102091 0.0583373 0)
(0.00974024 0.0713326 0)
(0.0096478 0.0726733 0)
(0.00972862 0.0727471 0)
(0.00963288 0.0739776 0)
(0.00971725 0.074101 0)
(0.00961361 0.0752837 0)
(0.00970601 0.0754082 0)
(0.00959946 0.0765929 0)
(0.0098003 0.0741344 0)
(0.00979224 0.0754373 0)
(0.00987728 0.0741185 0)
(0.0094995 0.0763919 0)
(0.00948079 0.0776905 0)
(0.00987249 0.0753988 0)
(0.00994802 0.0740461 0)
(0.00937447 0.0774595 0)
(0.00934791 0.0786813 0)
(0.00994673 0.0753 0)
(0.0100121 0.0739039 0)
(0.00916539 0.0708368 0)
(0.0100009 0.060916 0)
(0.00950182 0.0490316 0)
(0.00776477 0.0648705 0)
(0.00768611 0.0641837 0)
(0.00784855 0.0633138 0)
(0.00776647 0.0626285 0)
(0.00792376 0.0616958 0)
(0.00784348 0.0610305 0)
(0.00799256 0.0600261 0)
(0.00791017 0.0594294 0)
(0.00805751 0.0582977 0)
(0.0079635 0.0577675 0)
(0.00811653 0.0565158 0)
(0.00801777 0.0560024 0)
(0.00817043 0.0546795 0)
(0.00782036 0.0590439 0)
(0.00807214 0.0541833 0)
(0.00822137 0.0527782 0)
(0.0081208 0.0523283 0)
(0.00826685 0.0508423 0)
(0.00836851 0.0512276 0)
(0.00840979 0.0492331 0)
(0.00923727 0.078384 0)
(0.00920138 0.0795213 0)
(0.00931432 0.0798499 0)
(0.00916094 0.0806003 0)
(0.00927551 0.0809826 0)
(0.00911222 0.081625 0)
(0.00922735 0.0820663 0)
(0.00905132 0.0825876 0)
(0.00916922 0.0830603 0)
(0.00897672 0.0834723 0)
(0.00362929 0.0833939 0)
(0.0100143 0.0750909 0)
(0.0100691 0.0736889 0)
(0.0100673 0.0725234 0)
(0.0101168 0.07227 0)
(0.00851206 0.0495327 0)
(0.00854826 0.0475091 0)
(0.00893918 0.0820606 0)
(0.00307396 0.0258977 0)
(0.0029095 0.0257433 0)
(0.00324163 0.0259815 0)
(0.000978128 0.0529655 0)
(0.00865109 0.0477402 0)
(0.00868203 0.045675 0)
(0.00878594 0.0458596 0)
(0.00881144 0.0437294 0)
(0.00870548 0.0435929 0)
(0.00883153 0.0415845 0)
(0.0083054 0.0488737 0)
(0.00893637 0.0416753 0)
(0.00895326 0.0394669 0)
(0.00905729 0.0395106 0)
(0.00907052 0.0372486 0)
(0.0101154 0.0711124 0)
(0.0101588 0.0708123 0)
(0.00908998 0.0839454 0)
(0.00888163 0.0842691 0)
(0.0101579 0.0696688 0)
(0.0101961 0.0693415 0)
(0.0101966 0.0704416 0)
(0.0102287 0.068972 0)
(0.0102292 0.0678871 0)
(0.0102574 0.0675166 0)
(0.0102591 0.0664354 0)
(0.0102841 0.0660436 0)
(0.0102866 0.0649876 0)
(0.0103092 0.064552 0)
(0.0103121 0.0635281 0)
(0.0103332 0.0630394 0)
(0.0103361 0.0620399 0)
(0.0103557 0.061522 0)
(0.010359 0.0605554 0)
(0.0103768 0.0600274 0)
(0.0103808 0.0590715 0)
(0.0103971 0.0585468 0)
(0.0104018 0.0575815 0)
(0.010072 0.0748363 0)
(0.00943684 0.066721 0)
(0.00872469 0.041481 0)
(0.00797238 0.0536694 0)
(0.00117158 0.0398544 0)
(0.00117162 0.0384307 0)
(0.00465201 0.0371724 0)
(0.00929481 0.083605 0)
(0.00667225 0.0710427 0)
(0.00646337 0.0713155 0)
(0.00651542 0.0721394 0)
(0.00629755 0.0723576 0)
(0.00625345 0.0715297 0)
(0.0060803 0.0725195 0)
(0.00611617 0.0733501 0)
(0.00589261 0.0734525 0)
(0.00591695 0.0742907 0)
(0.00568922 0.0743152 0)
(0.0057004 0.0751483 0)
(0.00547005 0.0751049 0)
(0.00546728 0.0759184 0)
(0.00523297 0.0758283 0)
(0.00521572 0.0766207 0)
(0.00497778 0.076482 0)
(0.00494307 0.0772543 0)
(0.00470227 0.0770724 0)
(0.00474832 0.076303 0)
(0.00447121 0.0768572 0)
(0.00440099 0.0776103 0)
(0.00417598 0.0773507 0)
(0.00408238 0.0780845 0)
(0.00386291 0.0777831 0)
(0.00374951 0.0784895 0)
(0.0035336 0.078152 0)
(0.00339754 0.0788269 0)
(0.00319035 0.078453 0)
(0.00303006 0.0790979 0)
(0.00283083 0.0786971 0)
(0.00299712 0.0780555 0)
(0.0026441 0.0782768 0)
(0.00245168 0.0788928 0)
(0.00227788 0.0784402 0)
(0.00206072 0.0790365 0)
(0.00190337 0.0785474 0)
(0.00166503 0.0791372 0)
(0.00152545 0.0786138 0)
(0.00126474 0.0791672 0)
(0.00114956 0.0786202 0)
(0.000866515 0.0791038 0)
(0.00078209 0.0785629 0)
(0.000468721 0.0790085 0)
(0.000422635 0.0784495 0)
(7.81754e-05 0.0788557 0)
(5.92689e-05 0.0782749 0)
(0.0054698 0.0742828 0)
(0.00281454 0.0776343 0)
(-0.000303366 0.0780621 0)
(0.00452753 0.0760927 0)
(0.00908708 0.0791594 0)
(0.00898865 0.0847304 0)
(0.00875978 0.0849772 0)
(0.00864561 0.0845074 0)
(0.00849622 0.0851371 0)
(0.00860733 0.0856047 0)
(0.00830824 0.0856861 0)
(0.00840941 0.086138 0)
(0.00807135 0.0861553 0)
(0.00814872 0.0865721 0)
(0.00778285 0.0865414 0)
(0.00780755 0.0869126 0)
(0.00741345 0.086829 0)
(0.00737175 0.0871611 0)
(0.00693724 0.0870302 0)
(0.00683247 0.0873393 0)
(0.00637054 0.0871901 0)
(0.00617184 0.0874723 0)
(0.00571277 0.087302 0)
(0.00537682 0.0875684 0)
(0.00493115 0.087377 0)
(0.00434847 0.087653 0)
(0.00403728 0.0874215 0)
(0.00652772 0.0868342 0)
(0.00452195 0.0871565 0)
(0.00771297 0.0861892 0)
(0.00124861 0.0394522 0)
(0.00124255 0.0379989 0)
(0.00132399 0.0389868 0)
(0.00130994 0.0374808 0)
(0.00139721 0.0384579 0)
(0.00137564 0.0368974 0)
(0.00128772 0.035919 0)
(0.00134655 0.0352805 0)
(0.0012579 0.0342984 0)
(0.00130946 0.0336028 0)
(0.00122039 0.0326211 0)
(0.00126436 0.0318673 0)
(0.00117572 0.0308894 0)
(0.00135772 0.0328401 0)
(0.00130448 0.0310518 0)
(0.00140106 0.0320083 0)
(0.00133955 0.0301729 0)
(0.00143879 0.0311085 0)
(0.0013677 0.0292129 0)
(0.00146998 0.0301318 0)
(0.00138809 0.0281644 0)
(0.00149416 0.0290761 0)
(0.0012888 0.0272425 0)
(0.00140156 0.0270461 0)
(0.00151071 0.0279455 0)
(0.00140712 0.0258537 0)
(0.00151854 0.0267415 0)
(0.00162549 0.0288264 0)
(0.0016355 0.027613 0)
(0.00295142 0.0274062 0)
(0.00274638 0.0254783 0)