/*--------------------------------*- C++ -*----------------------------------*\
| =========                 |                                                 |
| \\      /  F ield         | OpenFOAM: The Open Source CFD Toolbox           |
|  \\    /   O peration     | Version:  v2012                                 |
|   \\  /    A nd           | Website:  www.openfoam.com                      |
|    \\/     M anipulation  |                                                 |
\*---------------------------------------------------------------------------*/
FoamFile
{
    version     2.0;
    format      ascii;
    class       volScalarField;
    location    "250";
    object      nut;
}
// * * * * * * * * * * * * * * * * * * * * * * * * * * * * * * * * * * * * * //

dimensions      [0 2 -1 0 0 0 0];


internalField   nonuniform List<scalar> 
13851
(
0.0061148
0.0246208
0.00193844
0.00622288
0.00143805
0.00342568
0.00674539
0.00239595
0.00688118
0.0016301
0.0147691
0.0263717
0.0196986
0.00875503
0.00675501
0.00281017
0.00306267
0.00495567
0.0167518
0.00687345
0.00627956
0.00177454
0.00706792
0.00686717
0.00715853
0.00222762
0.0027008
0.000254686
0.00616706
0.00525246
0.00322692
0.00284321
0.00203736
0.0149089
0.0068344
0.00133182
0.0127622
0.0114747
0.00126121
0.012963
0.00695515
0.00677556
0.00123664
0.0144255
0.0139558
0.00844917
0.0144328
0.00357937
0.00265783
0.00495721
0.00150259
0.000872666
0.00298513
0.00679126
0.00678424
0.00679016
0.00682911
0.00713227
0.00476069
0.00597706
0.0122677
0.0186461
0.00306102
0.00139594
0.00146303
0.0056603
0.0126117
0.0147545
0.00198365
0.00498984
0.00267149
0.0155078
0.0226443
0.00679217
0.00676256
0.00696004
0.00211399
0.00419753
0.00180807
0.00321208
0.00474868
0.00920091
0.00682822
0.00571344
0.00296877
0.02783
0.00385153
0.0260835
0.00282622
0.00688891
0.001547
0.00480755
0.0147369
0.00267081
0.00278774
0.006968
0.00137484
0.0182263
0.00481378
0.00703932
0.00728898
0.00169566
0.0066029
0.0024437
0.00692419
0.00382988
0.00163507
0.00678044
0.0194347
0.00336934
0.00696377
0.00689403
0.00492614
0.00698519
0.00690837
0.0155162
0.0194236
0.00673478
0.00682033
0.00679327
0.00109446
0.00254315
0.0201249
0.0048616
0.00288893
0.00706712
0.00278629
0.00159512
0.00634785
0.0017629
0.00695688
0.00680527
0.00431098
0.00682017
0.0157955
0.00680158
0.00673642
0.0153937
0.0192763
0.0113108
0.0081861
0.00679212
0.0065145
0.00684272
0.00344131
0.0150894
0.00898812
0.00124988
0.006867
0.0135443
0.0017064
0.00679784
0.007834
0.00681647
0.00357093
0.00373511
0.0069813
0.00475969
0.000758857
0.00161897
0.00701143
0.00246056
0.00679936
0.00680181
0.00368539
0.0067949
0.0105498
0.00199055
0.00639413
0.0100935
0.00283488
0.00675507
0.006977
0.01189
0.00679382
0.00398297
0.00173849
0.00650553
0.0171121
0.00680907
0.00284065
0.016786
0.00680253
0.00171213
0.00683423
0.00702316
0.00560901
0.00678756
0.00147829
0.00183234
0.0147616
0.00438766
0.00688639
0.00199362
0.0195402
0.00379546
0.00658041
0.00674844
0.00656595
0.00695697
0.00707872
0.0110123
0.00681359
0.00685158
0.00217534
0.00681046
0.025098
0.00286534
0.0131424
0.006882
0.0214892
0.00664027
0.00888547
0.00680663
0.00683277
0.0145804
0.00304648
0.00926187
0.00674545
0.0142643
0.00294558
0.00446017
0.021284
0.000916481
0.0210277
0.00714873
0.00226156
0.00693627
0.00755704
0.00681921
0.00251301
0.00222189
0.00675217
0.006885
0.00159078
0.00347236
0.0253493
0.00245975
0.00684168
0.00685548
0.00328989
0.00380203
0.00741373
0.00199382
0.00690417
0.0197643
0.00171062
0.0136342
0.00383988
0.00313154
0.00548904
0.00338813
0.00509312
0.00366765
0.00160322
0.00376576
0.00187883
0.0174196
0.000299299
0.00677677
0.00683322
0.00517032
0.00246859
0.00688699
0.0193337
0.00363198
0.00521057
0.00233323
0.0214156
0.00620364
0.00550196
0.00336923
0.0027135
0.00180556
0.00291175
0.00681253
0.00868584
0.0063848
0.0212417
0.0144573
0.00734166
0.00686614
0.00691699
0.00171852
0.00336063
0.00602558
0.00693921
0.00674652
0.00270054
0.013018
0.00440704
0.00475953
0.00636292
0.00197162
0.0126289
0.0179118
0.00365833
0.0279194
0.0068259
0.0202403
0.00215496
0.00305637
0.0212835
0.00685694
0.00373162
0.0206596
0.00692948
0.00177239
0.00230395
0.00511575
0.020183
0.00340762
0.00507274
0.0207767
0.0067793
0.00297978
0.0071705
0.0213403
0.00122355
0.00675087
0.00162834
0.00675029
0.00178153
0.00518354
0.00702232
0.00693975
0.00125113
0.00246382
0.00356958
0.00674589
0.00686549
0.00559655
0.014153
0.0040955
0.0130106
0.00450016
0.0213713
0.0220555
0.0067514
0.00205219
0.00513369
0.0045338
0.00291233
0.00119229
0.0172873
0.00579606
0.0125112
0.0205114
0.00676154
0.00711037
0.00510623
0.0185291
0.00379368
0.0028306
0.00814904
0.00698678
0.0142594
0.00694401
0.00674796
0.00687385
0.00679007
0.00694485
0.0210707
0.0058267
0.00692227
0.00194559
0.00680541
0.0263117
0.00312009
0.0114273
0.0117094
0.00692409
0.00288977
0.00241617
0.00842997
0.00696469
0.00673145
0.00525045
0.00518981
0.00677827
0.0210061
0.00455552
0.000671749
0.00800209
0.00825571
0.00653665
0.00583602
0.00680542
0.00682332
0.00467944
0.00182779
0.0082085
0.00188749
0.0213562
0.0206732
0.00680377
0.00678053
0.0114739
0.0049507
0.00133963
0.0200838
0.00518376
0.00230308
0.00708274
0.0217535
0.00680694
0.00290983
0.00592423
0.00687514
0.00692984
0.00691854
0.00679693
0.00147823
0.0030472
0.00411437
0.00488624
0.00163822
0.00450713
0.00323053
0.00313032
0.0198417
0.00303187
0.0137764
0.00674231
0.00690657
0.00711386
0.016378
0.016737
0.000671356
0.00458598
0.0022264
0.0145121
0.00396245
0.00680799
0.0015704
0.00695614
0.00363052
0.00693309
0.0243292
0.0162432
0.00220013
0.0111615
0.00648786
0.00577712
0.0176303
0.00354397
0.00681149
0.00236359
0.0018438
0.00582885
0.00677856
0.00574938
0.00165948
0.000633776
0.00429671
0.0148513
0.00708208
0.00691998
0.00453224
0.0040499
0.00685298
0.0267194
0.00680363
0.0061178
0.00680981
0.00318918
0.00527428
0.00686718
0.00653533
0.0210473
0.00683737
0.00190804
0.00679331
0.00507015
0.00850232
0.00694367
0.00695706
0.00696969
0.00699916
0.00419075
0.00518628
0.00367555
0.00679338
0.00700785
0.0103324
0.00976828
0.00682275
0.00497904
0.00303816
0.00403341
0.00685951
0.00691507
0.00934112
0.00695881
0.00145331
0.00687906
0.0097072
0.00677419
0.00240997
0.00196423
0.00677481
0.00497073
0.0133271
0.00252287
0.00843735
0.00682274
0.00272022
0.00678789
0.00678716
0.00682928
0.00686204
0.00767574
0.00154162
0.000672546
0.0158683
0.00313671
0.00704365
0.0210512
0.0148782
0.00274472
0.00218932
0.00426767
0.0043351
0.0214664
0.0068028
0.010201
0.00721107
0.010378
0.00306976
0.00489325
0.00565163
0.00596243
0.00346402
0.00870375
0.0265828
0.00475585
0.0265187
0.0173667
0.00675991
0.00589981
0.00158469
0.0061971
0.00379175
0.00678456
0.00696738
0.00693811
0.00145124
0.00370161
0.0245136
0.0167981
0.00679703
0.00338823
0.010945
0.00327383
0.0172787
0.00190435
0.00683524
0.00689597
0.0105022
0.0211681
0.00300665
0.00180816
0.00186825
0.00679116
0.00415328
0.00322615
0.0155202
0.00112856
0.00869439
0.0171879
0.0069631
0.00687061
0.0257708
0.0203384
0.000749437
0.00214644
0.00286289
0.00679715
0.00681554
0.0246307
0.00678451
0.0038769
0.00681145
0.00677446
0.019268
0.00136673
0.00483541
0.00678645
0.0215785
0.00625268
0.00682739
0.00679724
0.00689264
0.00681428
0.00515489
0.0118089
0.0104801
0.0123582
0.00776047
0.00182893
0.0036954
0.0108981
0.00570067
0.00197082
0.00683942
0.00715675
0.00283629
0.0212935
0.00711227
0.00179406
0.00243474
0.0068491
0.00294484
0.00656819
0.00843633
0.00144958
0.00678761
0.00438746
0.00677641
0.00251435
0.000573277
0.00628719
0.00695982
0.0029378
0.00662812
0.0014565
0.015107
0.000716062
0.00293007
0.000706217
0.00683996
0.00160636
0.00531614
0.0112974
0.00667248
0.00693504
0.0175524
0.00610899
0.00678593
0.0199818
0.0098314
0.026632
0.00680259
0.0174881
0.00728164
0.00678475
0.00677968
0.00677959
0.00677906
0.00474253
0.00333358
0.00678141
0.0234525
0.00194684
0.023346
0.00695693
0.00680902
0.00685828
0.00412065
0.0206577
0.00151504
0.00245106
0.00732624
0.00701489
0.00681212
0.00698683
0.0128157
0.0118994
0.00666269
0.00678409
0.00685869
0.00698736
0.0209134
0.00549407
0.00299756
0.0168285
0.00364944
0.0069473
0.000768277
0.00414153
0.0019927
0.0267555
0.0050271
0.00512495
0.00165049
0.00505543
0.00826304
0.00681346
0.00443183
0.00693904
0.00176334
0.0135703
0.00694032
0.00630829
0.00296915
0.00679653
0.00296822
0.00240638
0.0109321
0.00150277
0.0177317
0.0124324
0.0068034
0.0069376
0.012126
0.000900215
0.00330268
0.0204195
0.00685269
0.00663425
0.00675472
0.00855185
0.0149823
0.00384875
0.00673334
0.00919758
0.00292057
0.00683881
0.00298566
0.00475301
0.0153935
0.00677917
0.00689286
0.00401013
0.00192152
0.00129512
0.00662616
0.020315
0.00682216
0.0123247
0.00301456
0.0020409
0.00323892
0.00899875
0.00567871
0.00645872
0.0136947
0.00694404
0.00681988
0.00511782
0.00683124
0.0038665
0.00257847
0.00106892
0.00488392
0.00716481
0.00686001
0.00234432
0.0068058
0.00569098
0.00679162
0.00693333
0.00678656
0.0202253
0.00696253
0.00673255
0.00283926
0.00687665
0.00670916
0.00701374
0.00655188
0.00153944
0.0229039
0.00722157
0.00680123
0.00297488
0.017996
0.00521989
0.0214877
0.00190304
0.00681677
0.00548675
0.00182882
0.00305033
0.00327763
0.0068087
0.0067777
0.0157276
0.0018126
0.00269553
0.00354581
0.00547681
0.00680047
0.00659383
0.00181318
0.00397314
0.00145222
0.00416327
0.00689311
0.00145375
0.00149461
0.0212799
0.00395292
0.0226283
0.0145144
0.00687112
0.00572363
0.00201656
0.0196084
0.0100173
0.0197639
0.00793649
0.00311964
0.00682323
0.00478296
0.00776962
0.00499387
0.00695528
0.00709491
0.00165781
0.013117
0.0067467
0.0030788
0.00684029
0.00690863
0.00480033
0.00409773
0.0123973
0.00678831
0.00674704
0.00272913
0.0123706
0.00122545
0.0061137
0.0149693
0.0146356
0.0210019
0.00165279
0.00177623
0.00563629
0.00688089
0.0187177
0.00171198
0.00426017
0.00508814
0.0019196
0.0035792
0.0189041
0.00852363
0.00684538
0.00201558
0.00682356
0.00295392
0.00633988
0.0233187
0.00248467
0.0158667
0.00673805
0.00154206
0.00687639
0.00928335
0.00181043
0.0019867
0.0170399
0.00180453
0.00307256
0.00687986
0.00160916
0.00521439
0.00267992
0.00400048
0.00279519
0.00686677
0.00843004
0.00647934
0.00686849
0.0214158
0.00602094
0.00807817
0.00917955
0.00519771
0.00696222
0.0142741
0.00670695
0.0136734
0.013243
0.00694977
0.00310801
0.0153482
0.00634245
0.0190355
0.00689965
0.00676649
0.0229048
0.0132748
0.000844069
0.00334271
0.00630653
0.0100757
0.00772062
0.00162462
0.00673053
0.00296236
0.00679377
0.00682774
0.0056798
0.00711267
0.0235292
0.00291617
0.00691194
0.00646566
0.00695603
0.00496447
0.00357492
0.0128709
0.00234668
0.0229469
0.00686541
0.00240275
0.00697442
0.00679631
0.00688611
0.00691526
0.00737019
0.0068304
0.00171093
0.00685522
0.00324928
0.00448537
0.00213479
0.006824
0.026012
0.00259307
0.0160001
0.00255351
0.00241412
0.00279226
0.00236146
0.00362924
0.0236484
0.00364612
0.00313032
0.00201919
0.0136153
0.00671499
0.00170905
0.00175029
0.0201731
0.00680268
0.0138191
0.00693417
0.00695695
0.00928304
0.00707975
0.0170773
0.00305326
0.00683513
0.0042826
0.00683133
0.00674825
0.00677596
0.00503623
0.0118094
0.00695087
0.0118591
0.00753267
0.00244155
0.0121489
0.00687631
0.00680525
0.00726689
0.00693996
0.00681667
0.00165034
0.00430399
0.00696045
0.0067113
0.00713081
0.00703384
0.0106638
0.00279062
0.0196073
0.0123643
0.00681959
0.00295606
0.00268097
0.00694272
0.0186641
0.00363889
0.00451793
0.00676299
0.0144326
0.0058995
0.0101369
0.00675624
0.0199061
0.00282836
0.00278399
0.00649085
0.00685274
0.0286815
0.00216153
0.00580315
0.00694318
0.00681134
0.00264615
0.00673127
0.0217081
0.00706665
0.0213346
0.016083
0.0163637
0.00701195
0.00692907
0.00290872
0.00505238
0.00256152
0.00567104
0.00194535
0.00419669
0.00635538
0.00728998
0.00695968
0.00712754
0.0181056
0.0119845
0.0103793
0.00684224
0.00680615
0.00678814
0.00613306
0.00863395
0.00675674
0.00678836
0.00694615
0.00152652
0.00673948
0.00694188
0.0047867
0.00205066
0.0139293
0.00353542
0.00444001
0.00678671
0.00168639
0.0200939
0.00345881
0.00560594
0.0213296
0.00159666
0.00675879
0.00155585
0.00678983
0.00701122
0.00681568
0.00423284
0.00121643
0.0138665
0.00252961
0.0110703
0.00679174
0.00693331
0.00685009
0.00283146
0.0029534
0.0069754
0.00210836
0.00294931
0.00956909
0.00694142
0.0254584
0.00711543
0.0239602
0.00195938
0.0214069
0.00180945
0.00167065
0.0163612
0.0120701
0.0151312
0.0120957
0.00682564
0.00790748
0.00674079
0.00389589
0.00220413
0.00674593
0.0117867
0.0027943
0.00244264
0.0103937
0.00625886
0.00360832
0.00675001
0.0028969
0.00353229
0.00682673
0.00460018
0.0242596
0.0152171
0.0179807
0.0067586
0.00222834
0.00600836
0.00344054
0.0207988
0.00292664
0.00680581
0.00460052
0.0104668
0.00270969
0.0277733
0.0211654
0.00464387
0.00675831
0.0168325
0.00470174
0.0018972
0.00232446
0.0214887
0.00540829
0.000222178
0.00189645
0.00657089
0.00522864
0.00690123
0.0027786
0.00323574
0.0106679
0.0100967
0.00208457
0.000883977
0.00354795
0.0215157
0.0115302
0.00689399
0.0162763
0.0147134
0.0187934
0.0191523
0.00677246
0.00693743
0.00380145
0.0203997
0.00897451
0.00676167
0.00686472
0.00691849
0.00724404
0.000413959
0.00516817
0.00342443
0.00170184
0.0262556
0.0163299
0.00827731
0.00678422
0.019626
0.00247265
0.00696542
0.000662197
0.019938
0.00639475
0.00694074
0.00146696
0.0215094
0.00703346
0.00676304
0.012895
0.00684132
0.0101432
0.0067578
0.00227168
0.00694167
0.00183737
0.0140759
0.0210521
0.00361102
0.00150903
0.00420884
0.0242709
0.0178663
0.0242114
0.0047331
0.00681295
0.0209851
0.00691312
0.00675087
0.00682407
0.00377704
0.00694805
0.012735
0.0069432
0.00641567
0.00387237
0.00229044
0.0230179
0.00372813
0.00737288
0.00682078
0.00202854
0.0167467
0.0091606
0.00679773
0.00154922
0.0167685
0.00685956
0.00686179
0.0142553
0.00207172
0.00296318
0.0005404
0.00966054
0.00315132
0.0155644
0.0167631
0.0045896
0.0144569
0.0107619
0.0200662
0.00156311
0.00683046
0.000719675
0.00682019
0.00676797
0.00966133
0.0139912
0.00626172
0.00564641
0.00200456
0.00642464
0.00336098
0.0036534
0.00693718
0.00202985
0.00528982
0.00689459
0.00356891
0.0211256
0.0172668
0.0252022
0.021439
0.00305942
0.0175161
0.0212709
0.00203761
0.00677514
0.00696253
0.0115466
0.0068429
0.0112724
0.00678114
0.00390445
0.00615318
0.0202063
0.0213297
0.0117553
0.00671945
0.0168258
0.00403405
0.00364727
0.00675822
0.00687858
0.00648803
0.00311638
0.0110224
0.0172403
0.00354358
0.00128999
0.0067536
0.00303277
0.00687339
0.000700358
0.00654787
0.00387623
0.00675459
0.00679809
0.00110718
0.0041111
0.00306242
0.00688972
0.00263389
0.0121462
0.00382201
0.00698467
0.00181873
0.00695291
0.0027775
0.00671448
0.0212608
0.0109483
0.00196005
0.00276271
0.0068066
0.00405024
0.00695437
0.00719211
0.00674636
0.00694662
0.00661902
0.0204519
0.00261562
0.00578953
0.00509823
0.00710446
0.00161476
0.0200905
0.0191816
0.00198071
0.00689349
0.0055497
0.00685519
0.00695455
0.00943176
0.0161922
0.00699636
0.00367674
0.00194663
0.0164906
0.00486465
0.00430872
0.014614
0.00376109
0.00521449
0.0130016
0.021094
0.0069386
0.00651941
0.00682855
0.0207189
0.00111125
0.00235796
0.00121655
0.0122623
0.00346094
0.0210958
0.0289119
0.00684149
0.0204877
0.00164339
0.00679028
0.00627408
0.00689399
0.00694358
0.00682109
0.00525683
0.00428919
0.00130718
0.00408577
0.00339283
0.0019565
0.00694169
0.012762
0.0213425
0.0168134
0.00408661
0.00109505
0.00138614
0.00525061
0.00202366
0.0134997
0.00684822
0.00512159
0.0068611
0.00379897
0.00315376
0.00682536
0.00970856
0.00974754
0.00245191
0.0059594
0.0069001
0.00706664
0.00280508
0.00304369
0.00274288
0.00154907
0.00229611
0.002534
0.000591598
0.0300963
0.00283548
0.021431
0.00698228
0.00695983
0.011222
0.0134484
0.00393507
0.00344883
0.00681068
0.00458606
0.0178295
0.00693427
0.00232231
0.00676979
0.0017977
0.00159092
0.00558693
0.00445432
0.0129967
0.00342631
0.0200477
0.00280828
0.00678009
0.00228246
0.0183949
0.00467463
0.00284112
0.00163912
0.00682199
0.00678864
0.00688935
0.00340424
0.0214242
0.0146232
0.00394038
0.00990564
0.00318574
0.00297323
0.00279178
0.00691323
0.00678428
0.00685295
0.0213218
0.00684688
0.0213823
0.00304837
0.00324361
0.00465981
0.0108671
0.00496167
0.0189438
0.00174064
0.00680642
0.00689083
0.0188669
0.0169475
0.00254924
0.00677317
0.0067588
0.00201233
0.00281107
0.00104166
0.0282114
0.00302575
0.00683216
0.00122213
0.00566884
0.00338868
0.0217239
0.00676713
0.00146292
0.006863
0.0211385
0.00680649
0.0184018
0.00698526
0.00324124
0.00451824
0.00681425
0.00288972
0.00204387
0.00182954
0.0088668
0.0180878
0.00263221
0.00254115
0.0069323
0.0187768
0.0106139
0.00681586
0.00677682
0.0178938
0.00674874
0.00814118
0.00697229
0.00418836
0.00220126
0.00764376
0.00347768
0.00639581
0.0068587
0.00165315
0.0212994
0.00682281
0.00342735
0.0046103
0.0231588
0.0170664
0.00306253
0.0077322
0.00221448
0.0154631
0.00678331
0.0168377
0.0176759
0.00465033
0.00864769
0.0288557
0.00712079
0.00449679
0.00694537
0.00207804
0.0184196
0.0206452
0.0083166
0.003173
0.0296724
0.0167062
0.00300322
0.00624766
0.00687684
0.0106029
0.00332185
0.00168512
0.00677095
0.00684012
0.00679075
0.00689571
0.0194329
0.0116642
0.00296063
0.0110485
0.0190295
0.00705256
0.00682104
0.0068611
0.00520721
0.0175925
0.0118896
0.00346564
0.00672362
0.00264665
0.00196917
0.00173382
0.0018837
0.00280731
0.0214745
0.00214156
0.00476726
0.00679958
0.00678506
0.00149431
0.00580591
0.0162555
0.0127971
0.00219689
0.0191313
0.00606417
0.0029026
0.00714651
0.00412986
0.0140329
0.00363608
0.00353738
0.00295778
0.00689881
0.00679222
0.00674719
0.00686127
0.00246054
0.0027481
0.00315851
0.00298022
0.0207607
0.0255524
0.0202903
0.00503332
0.00236842
0.00920583
0.00292168
0.0156447
0.0115318
0.00678369
0.00435352
0.00256422
0.00348117
0.0021994
0.00297841
0.00334283
0.0146751
0.00682627
0.003116
0.00673596
0.0133138
0.00726131
0.00294554
0.00686529
0.0172457
0.0194725
0.000583633
0.0159219
0.000761374
0.00515055
0.00680645
0.0299893
0.0151536
0.0019427
0.00203584
0.0199394
0.0118363
0.00694804
0.00681715
0.00286854
0.0211493
0.0208885
0.00678109
0.00622808
0.00406064
0.0069773
0.00686781
0.00834816
0.0167005
0.00533936
0.00352349
0.00623623
0.0037817
0.00685979
0.0023878
0.00678292
0.0184478
0.00599853
0.0263639
0.00471148
0.00683089
0.000556629
0.00224413
0.0187555
0.0029452
0.0228351
0.00726124
0.00690302
0.00682612
0.00226309
0.00154318
0.00154134
0.00395079
0.0212625
0.00281466
0.00108754
0.00126341
0.0303564
0.00686779
0.0099053
0.0142468
0.00221401
0.00625561
0.00165021
0.00991436
0.00688356
0.0022514
0.00693968
0.0143899
0.00260264
0.00235433
0.0214624
0.00612583
0.00168255
0.00634714
0.00715569
0.00679996
0.00677128
0.0149944
0.00164227
0.0126643
0.0160924
0.00161829
0.00267931
0.00681394
0.0251296
0.00462623
0.00689267
0.000396629
0.00689994
0.00180833
0.00690558
0.0232159
0.00677635
0.0148062
0.0133717
0.0045561
0.00230214
0.00274919
0.0211077
0.00694837
0.00958113
0.0113528
0.00679613
0.00685008
0.00425974
0.00454526
0.00238449
0.00679754
0.00374558
0.00151132
0.0123941
0.00272451
0.00688257
0.00482514
0.00683222
0.0182957
0.00690346
0.00695816
0.0133
0.00256268
0.0260303
0.0215155
0.00171686
0.00591754
0.00303844
0.00403868
0.00401773
0.00444416
0.00679049
0.00258083
0.00477019
0.019521
0.0161624
0.00412817
0.00579096
0.00332822
0.00439514
0.00914209
0.0213846
0.00677754
0.00279736
0.00674599
0.0192672
0.0127455
0.00374249
0.00679149
0.00310343
0.00625503
0.00687149
0.000613574
0.0068767
0.00458003
0.00284218
0.0214503
0.00680121
0.00268755
0.00269276
0.0140013
0.00691882
0.0118938
0.00501124
0.00394808
0.00424557
0.0130269
0.0278417
0.00639182
0.0045746
0.00356405
0.00335334
0.00680483
0.00682599
0.0214812
0.00442482
0.00680725
0.00703324
0.0214513
0.00688834
0.00582525
0.00684366
0.00406852
0.00352859
0.00679247
0.0136106
0.00325725
0.0144558
0.0107688
0.0113663
0.00270106
0.00174667
0.0122477
0.0212863
0.00684542
0.00140819
0.00683206
0.00674026
0.00680256
0.0074449
0.00688477
0.0093089
0.00473088
0.00513761
0.00385365
0.00531786
0.0107568
0.00236001
0.00677933
0.0027531
0.00200817
0.0131543
0.00685571
0.00685384
0.00678957
0.00578421
0.006806
0.00859163
0.0084249
0.00187781
0.0022278
0.00684678
0.00579564
0.00513659
0.0182179
0.00673072
0.00278919
0.00190725
0.00689053
0.00903991
0.0100818
0.00672462
0.00166468
0.00339613
0.00578566
0.00544782
0.00121462
0.00531134
0.00519094
0.0027678
0.0173872
0.00688988
0.00739866
0.00630872
0.00158859
0.00197162
0.0052467
0.0108029
0.00689807
0.00982494
0.00368294
0.00196363
0.0210106
0.00795466
0.00355522
0.0121991
0.0145904
0.00686106
0.00839806
0.00120421
0.00202209
0.00328071
0.0208273
0.00673414
0.0027338
0.00570536
0.000864829
0.00674477
0.00456631
0.0104902
0.00184855
0.0207872
0.00402408
0.00317871
0.00210252
0.0210433
0.00203458
0.0211515
0.0162457
0.00981664
0.00685789
0.0211623
0.0206962
0.0144478
0.00677336
0.00690112
0.00693508
0.0212398
0.00583336
0.00662133
0.00511665
0.00517458
0.00680204
0.00677383
0.0140812
0.0143076
0.00760188
0.0111414
0.00683411
0.0154704
0.0214776
0.000646626
0.00511945
0.0119297
0.00410356
0.00230488
0.002876
0.0021966
0.0173735
0.0205992
0.00694935
0.0051076
0.00676879
0.00684246
0.0266123
0.010605
0.020913
0.00209867
0.00310302
0.005051
0.00678777
0.0213115
0.00930591
0.00680583
0.00171404
0.00554672
0.00682789
0.00690427
0.021197
0.0178436
0.00410273
0.00677061
0.00342565
0.00617968
0.00294466
0.00464276
0.00692263
0.00343211
0.00777345
0.0186003
0.00313738
0.0193673
0.00689585
0.00404371
0.0154745
0.0214814
0.00407237
0.0017793
0.00674552
0.00216107
0.00639011
0.00692884
0.00229298
0.00694672
0.00497021
0.003107
0.00695654
0.0041909
0.0210226
0.0142698
0.00819292
0.00683747
0.00668042
0.0215154
0.0121097
0.00268014
0.00687944
0.00677352
0.0137571
0.00689854
0.00681023
0.00267291
0.00684449
0.0152939
0.00344089
0.00544174
0.00331723
0.00677803
0.00688083
0.0220556
0.00337142
0.00154467
0.00619235
0.00301267
0.00478449
0.0067431
0.00689539
0.0069468
0.00542168
0.00680447
0.00215995
0.020756
0.00643518
0.00110967
0.00841672
0.00556133
0.00695922
0.00677041
0.00274836
0.026234
0.00696021
0.0197886
0.0127835
0.00334927
0.006731
0.00289056
0.00687722
0.00443555
0.00673059
0.00687798
0.00678272
0.00693588
0.00455008
0.0202927
0.00201457
0.0024815
0.0281156
0.00278057
0.00366692
0.00201956
0.0106071
0.00593696
0.0011258
0.0250606
0.0212444
0.00128486
0.00539534
0.00463308
0.00688452
0.0244002
0.0069319
0.0031789
0.0251343
0.0055218
0.0270463
0.011126
0.0069212
0.00676685
0.00690837
0.00472493
0.00683524
0.00624721
0.0128145
0.0212414
0.0181197
0.00690965
0.00675048
0.00156889
0.00629825
0.0150497
0.000807131
0.0133452
0.00683727
0.0155963
0.00967858
0.00321094
0.00546006
0.0069031
0.00721546
0.00619964
0.00689959
0.0069361
0.00321089
0.0143794
0.00147688
0.0108319
0.00413814
0.0195287
0.00147578
0.00677733
0.00679335
0.00669224
0.00674086
0.00481685
0.00327769
0.023538
0.0169696
0.0213952
0.00263719
0.0114918
0.00313174
0.0212913
0.012381
0.00689508
0.00694376
0.00386253
0.00690936
0.00673083
0.00989352
0.015168
0.0159929
0.00689211
0.00690567
0.0061821
0.00269287
0.0217482
0.00683975
0.00590452
0.0139895
0.00689818
0.0173516
0.00284426
0.0255783
0.00508942
0.0129339
0.0072616
0.0030514
0.0212906
0.00127733
0.0107643
0.00681839
0.00355823
0.00692663
0.00281965
0.0104248
0.00709621
0.00567427
0.00673175
0.00683656
0.00676413
0.0211403
0.00179642
0.00117205
0.00696636
0.0067613
0.00279644
0.00670015
0.00274738
0.00688663
0.00630795
0.00690531
0.00331913
0.00690665
0.0069528
0.0209356
0.0213613
0.0210174
0.0173241
0.0152637
0.0107998
0.00165967
0.0213907
0.00136734
0.00680679
0.0069307
0.00674365
0.00684416
0.0213317
0.0214245
0.00683215
0.00445498
0.0199283
0.00209183
0.00648031
0.00666052
0.0211944
0.0211563
0.0141293
0.0241557
0.0148887
0.00676083
0.0140918
0.00138799
0.00945899
0.0182088
0.00679862
0.000831409
0.00880445
0.00301565
0.00882159
0.00676617
0.0061526
0.00987908
0.0164193
0.00165092
0.00281038
0.00408406
0.0011182
0.0159061
0.0198626
0.0154102
0.00127062
0.021139
0.00689848
0.00576853
0.00181332
0.00702332
0.0153123
0.0102566
0.00682256
0.000638261
0.0022206
0.00687849
0.0212834
0.00678353
0.000631767
0.00681342
0.00676859
0.0281828
0.0255726
0.0185156
0.0213389
0.0185627
0.00361313
0.00698231
0.0213461
0.00675648
0.00689403
0.00189086
0.00305514
0.0137488
0.00283385
0.0066546
0.00312193
0.00694005
0.0227498
0.0040314
0.00120395
0.00777783
0.00678497
0.00914791
0.0013487
0.00644474
0.00438861
0.013115
0.00674348
0.00259256
0.00440585
0.0200248
0.00393221
0.00684107
0.00126817
0.00390079
0.0213568
0.0145381
0.00152319
0.00472149
0.00548363
0.00677794
0.0259282
0.00256825
0.00693035
0.016764
0.00178848
0.00681184
0.00695805
0.00137048
0.00437997
0.00702459
0.0135892
0.00564404
0.0101138
0.00164281
0.00220667
0.00696655
0.0213608
0.00355372
0.0139713
0.00677739
0.00679491
0.00136476
0.00301963
0.0050288
0.0069185
0.00502273
0.00692304
0.00733641
0.0068059
0.00559845
0.0100697
0.00128565
0.00956942
0.0127626
0.0213671
0.0137891
0.0067383
0.0138805
0.0148349
0.00585892
0.00679743
0.0121231
0.00369753
0.00875723
0.0012668
0.0171042
0.00345882
0.0213519
0.00169389
0.0130121
0.00678833
0.00175292
0.00177732
0.00677874
0.00171381
0.011972
0.00419219
0.0103083
0.0136839
0.00679609
0.0069216
0.00486359
0.00678474
0.018545
0.00685263
0.006938
0.0213225
0.0106254
0.0042327
0.00138528
0.0068715
0.00177382
0.00548996
0.0140915
0.00667871
0.00234841
0.0143568
0.00629759
0.0067473
0.00269354
0.0108098
0.0111416
0.0139681
0.0115722
0.00368611
0.00696049
0.00679217
0.00456045
0.00244921
0.0092778
0.0151903
0.00270905
0.0213092
0.00686637
0.00375089
0.00781492
0.00685391
0.00244666
0.00269454
0.00680932
0.0061592
0.00258073
0.00289845
0.0182688
0.0139439
0.00685291
0.00166629
0.00259605
0.00220665
0.0149764
0.0288099
0.0214449
0.0067915
0.00169269
0.0214235
0.00160012
0.00125436
0.00404064
0.0211253
0.0209241
0.021285
0.00683196
0.0209408
0.00681385
0.00624062
0.00686544
0.00206461
0.0211011
0.00273362
0.00349944
0.00674079
0.00198065
0.0067161
0.00677205
0.0069047
0.00683336
0.00194063
0.0214143
0.0206405
0.00159647
0.00281653
0.00683679
0.00224839
0.00679888
0.0178018
0.00247923
0.0068239
0.00402688
0.00146606
0.0298518
0.00893767
0.00161764
0.00170178
0.00332566
0.0146448
0.0114643
0.0192616
0.0179723
0.00633727
0.00251056
0.00690778
0.0212578
0.00444499
0.00213661
0.019389
0.0123383
0.0190073
0.00229212
0.00828784
0.00355913
0.00676328
0.00121845
0.00255893
0.00290485
0.00271184
0.00265939
0.00277949
0.00608489
0.00110522
0.00502308
0.00303116
0.00208597
0.00307416
0.00639633
0.0286984
0.000809962
0.00491981
0.00271253
0.00688555
0.0125686
0.00676946
0.00583676
0.00409279
0.0129804
0.00292021
0.0157982
0.00997887
0.00246389
0.00338307
0.001217
0.0109645
0.000733069
0.00736985
0.00683623
0.00169139
0.0068996
0.0132281
0.00876529
0.00686193
0.00700414
0.00290036
0.00256426
0.00343558
0.00181566
0.00168591
0.00670195
0.00317129
0.0124022
0.00585533
0.000367402
0.00189746
0.00678137
0.0111445
0.00199272
0.00159388
0.00266189
0.00171395
0.028874
0.00674078
0.00664809
0.0058628
0.00328643
0.00690073
0.0117584
0.00633157
0.0207124
0.00314203
0.0213464
0.0107578
0.00235692
0.012091
0.00156898
0.0104976
0.00450893
0.00338627
0.0030655
0.00176693
0.0019571
0.00589244
0.0131673
0.00838295
0.0162742
0.00676491
0.0109325
0.0176372
0.0263042
0.00678907
0.00189128
0.00693121
0.00283777
0.0222067
0.00278156
0.00275838
0.00682032
0.00677595
0.0252804
0.0110284
0.00692212
0.0288471
0.0103218
0.00672097
0.00627931
0.0129979
0.000585779
0.00142883
0.00683278
0.00276679
0.00112871
0.0070046
0.00698151
0.0257437
0.0024944
0.0120202
0.00167376
0.00233678
0.0209237
0.000925673
0.00529195
0.00681196
0.00505391
0.00201854
0.0025842
0.0203232
0.00181405
0.00686589
0.00179092
0.00305919
0.0056924
0.00674646
0.0173797
0.00688755
0.00250932
0.0204597
0.00114572
0.00693772
0.0170505
0.00208332
0.0140777
0.0112747
0.00962238
0.000748984
0.015671
0.00678675
0.00147782
0.00238494
0.00679172
0.00536548
0.0270445
0.00229074
0.00272679
0.0063488
0.00141966
0.00935244
0.00232409
0.00396545
0.00448841
0.018287
0.00834622
0.0102643
0.00580517
0.00691501
0.00250018
0.00303852
0.016815
0.0285928
0.0179357
0.029492
0.0209156
0.00677603
0.00834635
0.00676755
0.00324372
0.00689101
0.00764389
0.00816848
0.0022785
0.00694988
0.00231974
0.00254528
0.00798007
0.00689173
0.00245194
0.00205744
0.00167283
0.00261044
0.00133379
0.0028979
0.0106407
0.00322468
0.00682456
0.00825154
0.0117851
0.00318846
0.0067973
0.00254617
0.00676791
0.00698468
0.00160413
0.00615266
0.00657376
0.00977109
0.00155
0.00269369
0.00688083
0.0222953
0.00173087
0.0303901
0.00308242
0.00319175
0.00495131
0.00321815
0.00425015
0.0027942
0.00596755
0.00532481
0.00682641
0.0213267
0.00208712
0.00321178
0.00515568
0.00305696
0.00685465
0.00332825
0.0196148
0.00682026
0.00262948
0.0214934
0.00128844
0.00155996
0.0175428
0.0238678
0.0207204
0.0094548
0.0242678
0.00271762
0.022157
0.00417925
0.00229405
0.00690592
0.00685154
0.00760429
0.0126476
0.00342641
0.00689863
0.00274813
0.0016292
0.00686016
0.00537729
0.00199311
0.00691631
0.00401899
0.0156645
0.00225098
0.00177509
0.00303402
0.00683996
0.00201134
0.00160331
0.00296157
0.0194332
0.00194311
0.0237836
0.00955618
0.0119156
0.00620787
0.0136394
0.00662683
0.000263147
0.0022807
0.00849903
0.00150232
0.00349239
0.00168224
0.00157395
0.00264691
0.002171
0.00695146
0.00678106
0.00691886
0.00310637
0.0120332
0.00682273
0.00141905
0.00579603
0.00268597
0.00379845
0.0156067
0.00279055
0.00245776
0.00689858
0.00368091
0.00333787
0.00690179
0.00128415
0.00283294
0.00686428
0.00331486
0.00404229
0.00688567
0.0293728
0.00272069
0.0133732
0.00189093
0.0179077
0.00160901
0.00219432
0.00439576
0.00181339
0.00624333
0.00228112
0.0263254
0.0209901
0.0046473
0.00246161
0.00205313
0.00687111
0.0297514
0.00302968
0.0209206
0.00679594
0.0212608
0.000677494
0.0221346
0.0264047
0.00674469
0.0067703
0.00680198
0.002029
0.0210517
0.00317085
0.0205346
0.00345469
0.00205024
0.00692936
0.00462578
0.00349931
0.00293258
0.00390875
0.00688969
0.0129781
0.00661477
0.0192144
0.00669487
0.0130686
0.00689924
0.006823
0.00142094
0.00463603
0.00307608
0.00153754