/*--------------------------------*- C++ -*----------------------------------*\
| =========                 |                                                 |
| \\      /  F ield         | OpenFOAM: The Open Source CFD Toolbox           |
|  \\    /   O peration     | Version:  v2012                                 |
|   \\  /    A nd           | Website:  www.openfoam.com                      |
|    \\/     M anipulation  |                                                 |
\*---------------------------------------------------------------------------*/
FoamFile
{
    version     2.0;
    format      ascii;
    class       surfaceVectorField;
    location    "750";
    object      Uf;
}
// * * * * * * * * * * * * * * * * * * * * * * * * * * * * * * * * * * * * * //

dimensions      [0 1 -1 0 0 0 0];


internalField   nonuniform List<vector> 
20673
(
(1.02944 0.093093 -4.65236e-22)
(1.03212 0.0917531 1.12637e-21)
(1.02949 0.0898869 -7.14771e-22)
(0.999938 0.0289272 -5.36618e-21)
(0.999339 0.0281457 -1.17491e-21)
(0.99891 0.0294354 4.78898e-22)
(0.825526 0.00863348 -2.52717e-21)
(0.861031 0.0112178 -3.73855e-21)
(0.880867 0.0130294 -4.08523e-22)
(1.03921 0.0169282 4.77148e-23)
(1.03884 0.0172704 1.3547e-22)
(1.03868 0.0168325 -2.52081e-22)
(0.995564 -0.0064865 -2.1069e-21)
(0.995489 -0.00698938 1.20026e-21)
(0.995029 -0.00693436 -1.4567e-21)
(0.372495 -0.0389593 2.92157e-21)
(0.361123 -0.0658445 -2.02537e-20)
(0.344026 -0.0408104 -5.87827e-20)
(0.745144 0.0107707 3.23723e-22)
(0.742908 0.00842851 4.99778e-22)
(0.790211 0.0112612 -1.95593e-21)
(0.898628 0.0138947 -1.91516e-21)
(0.854932 0.010726 1.22209e-21)
(0.875937 0.0101853 1.82247e-21)
(0.844837 -0.00520651 4.79786e-22)
(0.816049 -0.00697737 -6.75972e-21)
(0.775188 -0.00595481 -4.25751e-21)
(1.05339 0.110728 -2.26477e-21)
(1.05714 0.110656 8.85648e-21)
(1.05566 0.114609 4.92699e-21)
(1.05677 0.0258323 -4.77597e-22)
(1.05674 0.0259309 8.56025e-22)
(1.05662 0.0258016 -1.72211e-22)
(1.05653 0.0233991 0)
(1.05676 0.0235353 5.1727e-24)
(1.05642 0.0236766 0)
(1.03964 0.0171704 -2.00159e-23)
(0.199729 0.00791754 6.83931e-22)
(0.257764 0.00942296 -7.99858e-22)
(0.192108 0.00913145 -2.14609e-21)
(0.947974 0.0564653 -1.1233e-20)
(0.944638 0.0553103 -1.11121e-20)
(0.947902 0.0528748 -1.16416e-20)
(0.966635 0.0571133 8.68534e-21)
(0.96539 0.0547391 -8.16586e-21)
(0.968617 0.0545909 -9.74993e-21)
(0.993269 0.0305815 -1.29248e-20)
(0.99442 0.0307862 -6.35023e-21)
(0.994016 0.0295907 3.21205e-21)
(1.059 0.0428495 1.51253e-22)
(1.05928 0.0437763 -4.0819e-21)
(1.06005 0.0427023 -3.87232e-21)
(1.05669 0.0230747 0)
(1.05627 0.0231946 2.85847e-21)
(1.00027 0.00214168 -6.54927e-21)
(1.00032 0.00208329 1.54012e-21)
(1.00025 0.00196119 -5.16725e-21)
(0.999927 -0.000205014 0)
(0.999892 -0.000242744 0)
(0.999932 -0.000159139 -8.28212e-23)
(0.740871 0.00896243 4.60884e-22)
(0.706369 0.00552159 -1.46451e-21)
(0.999007 0.00224918 -1.05648e-20)
(0.998876 0.00238404 2.12888e-21)
(0.999033 0.0024827 -6.39541e-21)
(0.930463 0.013627 1.12634e-21)
(0.941198 0.0133167 -3.69058e-21)
(0.990558 0.0011644 -3.22011e-21)
(0.990099 0.000646095 1.00332e-20)
(0.989965 0.00137524 -3.89855e-21)
(0.764271 0.0129943 -1.16212e-21)
(0.726394 0.0121323 -1.14118e-21)
(0.72597 0.0103323 1.9221e-21)
(0.783741 -0.0279503 6.47757e-20)
(0.774544 -0.0234797 -3.72854e-20)
(0.776751 -0.0348145 1.26337e-21)
(0.750745 0.0494465 -1.92078e-20)
(0.748678 0.0611464 -3.98386e-21)
(0.740497 0.0514685 -3.4426e-20)
(0.695546 0.446531 0)
(0.725103 0.454945 0)
(0.70553 0.487189 -1.83937e-20)
(1.08478 0.0769682 -7.13192e-22)
(1.08411 0.0744808 -1.26074e-21)
(1.08675 0.0746063 1.66388e-21)
(1.04108 0.0860247 0)
(1.03909 0.0876744 0)
(1.0388 0.0848379 -1.12606e-21)
(1.01333 0.0681884 7.86052e-23)
(1.01145 0.0682074 9.25297e-22)
(1.0126 0.0662507 9.2027e-22)
(0.83248 0.012002 0)
(0.824659 0.0135987 0)
(0.826864 0.00479434 1.7294e-20)
(0.905843 -0.0427443 -4.58915e-20)
(0.909108 -0.0451279 -1.01263e-20)
(0.909712 -0.0409797 -1.00292e-20)
(0.987833 -0.00392567 2.67936e-21)
(0.98706 -0.003771 1.89356e-21)
(0.987713 -0.00306606 1.23172e-20)
(1.05313 0.0268435 -2.47238e-21)
(1.05255 0.0265124 1.00649e-22)
(1.04946 0.0266764 -1.13595e-21)
(0.999024 0.00203157 -3.03213e-21)
(0.999149 0.00213915 -3.28934e-21)
(0.400612 -0.00167393 1.00116e-21)
(0.371542 -0.000981477 1.28044e-21)
(0.383817 -0.000838092 2.59727e-21)
(1.0426 0.0180652 1.51166e-22)
(1.0432 0.0181002 -1.63727e-22)
(0.444028 0.0193241 9.89811e-22)
(0.413575 0.0193669 0)
(0.446774 0.0195053 0)
(1.00501 0.000652256 8.39952e-22)
(1.0053 0.000654536 -3.07363e-21)
(1.00476 0.000363099 3.50226e-21)
(0.999979 -2.50924e-05 1.01145e-20)
(0.99999 -1.86692e-05 -4.55736e-21)
(0.999993 -2.50726e-06 5.27167e-21)
(1.01679 0.00534821 -2.33851e-21)
(1.01636 0.0052851 -5.78014e-21)
(1.01655 0.00497779 -3.34072e-21)
(0.685267 0.115468 0)
(0.70045 0.123356 4.45145e-20)
(0.683901 0.135283 -5.64438e-20)
(1.01684 0.0243713 0)
(1.01705 0.0250746 -3.27852e-22)
(1.01756 0.024671 0)
(0.886288 -0.0303931 0)
(0.885764 -0.0351102 0)
(0.890718 -0.0329321 0)
(1.05883 0.0416555 3.13021e-21)
(1.05792 0.0426793 3.74017e-21)
(1.06081 0.0327861 8.60486e-21)
(1.06042 0.0333565 1.77773e-21)
(1.06008 0.0326956 4.36424e-21)
(0.0862439 0.000747708 1.96312e-20)
(0.0882666 0.0407791 0)
(0.120398 0.0204941 -6.24034e-20)
(1.00167 0.000426092 -4.22984e-21)
(1.00184 0.000391425 -1.44826e-21)
(1.0018 0.00059834 -8.00943e-21)
(1.04041 0.0337489 6.0007e-22)
(1.04058 0.0343319 2.02215e-22)
(1.04111 0.0337712 1.6601e-22)
(0.962586 -0.0182042 4.67548e-21)
(0.961719 -0.0199502 1.78611e-20)
(0.960737 -0.0181596 5.85749e-21)
(0.0836011 -0.0328839 -5.37771e-20)
(0.0451221 -0.0162155 -6.5297e-20)
(0.902284 -0.0402567 -6.6322e-20)
(0.901844 -0.0449452 -3.48793e-20)
(0.99253 0.0315088 -9.67892e-21)
(0.992059 0.0301886 -2.71645e-21)
(1.03572 0.0430315 -2.64503e-22)
(1.03502 0.0438502 1.53678e-22)
(1.03618 0.0441781 8.79297e-23)
(1.05683 0.0257361 -3.71563e-21)
(1.05684 0.0258632 -2.79536e-21)
(0.984331 0.0118703 -2.60503e-21)
(0.984894 0.0108574 1.15807e-20)
(0.985474 0.0119718 1.85144e-20)
(1.02762 0.0431774 0)
(1.02839 0.0441121 0)
(1.02711 0.0443711 0)
(1.01613 0.0240632 2.94708e-21)
(1.01656 0.0236619 0)
(1.14165 0.0954578 4.04391e-20)
(1.01576 0.0796771 -6.44971e-20)
(1.06965 0.0827819 -4.65993e-21)
(1.00099 0.0288398 3.72907e-21)
(1.00047 0.0301334 -4.8466e-22)
(0.202524 0.00735198 -1.36538e-22)
(1.00022 0.00219639 2.71071e-21)
(1.00029 0.0023339 -6.61372e-21)
(0.379046 -0.00443991 0)
(0.403235 -0.0325077 -8.78441e-23)
(1.20799 0.350987 2.54648e-20)
(1.20561 0.331962 2.01803e-20)
(1.15464 0.322505 -2.32189e-20)
(0.995628 -0.01112 3.33718e-21)
(0.995125 -0.0114547 3.20976e-21)
(0.987433 -0.0186597 1.90835e-21)
(0.988285 -0.0181919 -1.46641e-20)
(1.06224 0.024594 -1.97579e-21)
(1.06176 0.0245161 2.90666e-21)
(1.06209 0.0240412 -9.3757e-23)
(1.00629 0.0976432 1.64991e-22)
(1.00982 0.0980662 2.26568e-21)
(1.00691 0.101778 3.86043e-21)
(0.996075 -0.00604504 3.97704e-21)
(0.995637 -0.00596233 2.61852e-21)
(0.90921 -0.00651082 5.89618e-21)
(0.872661 -0.0064072 4.98001e-21)
(0.171453 -0.0133969 1.95127e-22)
(0.202029 -0.0162548 1.90173e-21)
(0.19192 -0.0162695 -7.19438e-21)
(0.991093 0.00163882 3.45505e-21)
(0.991178 0.000911809 0)
(0.0888482 0.072627 -4.18046e-21)
(0.121991 0.0925882 6.5196e-20)
(0.0897071 0.109928 -4.14926e-21)
(1.0592 0.0217975 0)
(1.05903 0.0214273 -1.69908e-22)
(1.05876 0.0217828 6.98057e-24)
(0.17335 -0.00103597 -2.49065e-21)
(0.200035 -0.00466287 1.02519e-21)
(0.183515 -0.00195701 6.99925e-22)
(1.02407 0.0302807 -9.00632e-22)
(1.0245 0.0308713 5.44759e-22)
(1.02366 0.0310129 0)
(0.711414 0.0149326 -1.09542e-21)
(0.710973 0.0126835 1.11125e-21)
(0.746874 0.0147951 -7.24649e-21)
(0.99978 -0.0002601 6.1173e-21)
(0.999684 -0.000348132 0)
(0.999707 -0.000237794 0)
(0.999713 0.000416051 -3.52648e-21)
(0.999665 0.000515354 -2.42738e-21)
(0.999748 0.000477057 3.81869e-21)
(0.995997 -0.0103205 3.86267e-21)
(0.387762 0.0220928 0)
(0.397032 0.0519912 0)
(0.418917 0.0300068 5.05865e-22)
(0.433645 -0.00270429 -8.44627e-22)
(0.421826 -0.0029931 -1.48622e-21)
(0.141025 0.00866284 1.54189e-21)
(0.0503308 0.000659962 2.09188e-20)
(0.0784886 0.00046468 -7.00662e-21)
(1.02356 0.0296211 -2.07935e-21)
(1.02444 0.0295492 -3.00227e-22)
(0.999702 0.00112368 4.37091e-21)
(0.999751 0.00116635 -6.69572e-21)
(0.999753 0.00101754 -8.8271e-21)
(1.19733 0.364919 -2.4644e-20)
(1.15869 0.334431 1.26297e-20)
(1.04014 0.0330349 3.83237e-22)
(1.03959 0.0336156 -3.08876e-22)
(1.01718 0.00543833 -4.51737e-22)
(1.01697 0.00574901 -5.8734e-22)
(0.293789 -0.0134987 4.80633e-21)
(0.259477 -0.0122008 3.58003e-21)
(0.274817 -0.0122505 5.81568e-21)
(1.07866 0.0969973 -2.33633e-21)
(1.07526 0.0984663 7.898e-21)
(1.0775 0.100998 -2.50748e-21)
(1.00797 0.019081 3.01247e-21)
(1.00848 0.0187904 5.91197e-21)
(1.00788 0.0184395 -1.58726e-21)
(0.958779 0.0217212 -1.38921e-21)
(0.956566 0.0221631 -7.83288e-22)
(0.95849 0.0239402 -6.84409e-21)
(1.15294 0.352204 -3.59146e-20)
(1.21849 0.384977 -6.2304e-21)
(0.375113 -0.0922575 -9.37681e-22)
(0.404632 -0.0973223 -4.13785e-20)
(0.382591 -0.126952 3.61067e-20)
(1.0583 0.026213 6.43694e-22)
(1.0585 0.0261644 0)
(1.05831 0.0259658 2.24745e-21)
(1.06004 0.0351931 4.79535e-21)
(1.06078 0.0353439 -5.20611e-23)
(1.06034 0.035954 3.16715e-22)
(1.05986 0.0255623 -4.99419e-22)
(1.06004 0.0258427 -2.86344e-21)
(1.06023 0.0255744 1.51585e-21)
(0.590688 0.048232 -4.85116e-20)
(0.610352 0.0358134 4.4797e-20)
(0.611006 0.0605854 1.10093e-20)
(1.00626 0.00443633 0)
(1.00658 0.00460316 0)
(1.00634 0.00483122 9.1921e-21)
(0.839168 -0.0576201 0)
(0.841782 -0.0496578 0)
(0.846751 -0.0558794 9.47422e-21)
(0.670136 0.108093 5.74846e-20)
(0.687724 0.101512 -5.81664e-20)
(1.02939 0.0297515 1.71018e-21)
(1.03006 0.0300476 -1.9566e-22)
(1.02989 0.0291533 0)
(1.0079 0.0101763 -2.53071e-21)
(1.0081 0.00983822 3.93619e-21)
(1.00829 0.0103334 2.91718e-22)
(0.882943 -0.00526657 1.74078e-22)
(0.876304 -0.00710169 -1.49055e-21)
(0.94345 -0.00200168 2.3486e-21)
(0.790478 0.387441 2.49778e-22)
(0.764566 0.403737 -3.24877e-20)
(0.799681 0.410484 -9.82597e-21)
(1.06113 0.032367 -3.13733e-21)
(1.06144 0.0329534 6.1351e-21)
(0.995616 0.0310116 0)
(0.994992 0.0320922 6.1436e-21)
(1.0396 0.093909 0)
(1.03729 0.0954337 0)
(1.03996 0.0970616 0)
(0.0778998 -0.0291848 2.79994e-21)
(0.0313406 -0.0287657 2.36146e-21)
(0.0534338 -0.0286289 4.135e-20)
(0.464027 0.0189171 1.03958e-21)
(0.438909 0.0191484 -4.27814e-21)
(1.05772 0.0242349 1.70803e-21)
(1.05789 0.0241295 4.0905e-21)
(1.05789 0.0244092 6.22416e-22)
(0.880336 -0.00520927 1.48158e-22)
(0.812496 -0.0108721 -9.82968e-23)
(0.945946 -0.0257595 3.80155e-21)
(0.944178 -0.0241564 7.98666e-21)
(0.943962 -0.027191 2.6473e-20)
(0.100063 -0.252659 8.40567e-20)
(0.111553 -0.223276 -3.56974e-20)
(0.0735181 -0.22778 0)
(0.996479 0.00443489 0)
(0.996227 0.00477433 0)
(0.996069 0.0043468 0)
(0.180714 -0.0168567 -1.78901e-19)
(0.21105 -0.0327451 -5.93516e-20)
(0.211618 0.0021038 -2.29458e-19)
(0.37715 0.0160057 6.1533e-22)
(0.384845 0.0138409 -1.06332e-21)
(0.4002 0.0119708 -1.59062e-21)
(0.903408 -0.0318184 2.42487e-20)
(0.900055 -0.0292761 2.44829e-20)
(0.904506 -0.0277118 1.69893e-20)
(0.99995 -2.39007e-05 -3.0152e-21)
(0.999944 -6.67653e-05 4.39626e-21)
(1.06267 0.0246122 1.57476e-21)
(1.06225 0.024963 -8.65838e-21)
(0.354235 0.0118884 7.90457e-22)
(0.376093 0.0102576 3.66773e-22)
(0.369542 0.0101704 0)
(0.753436 0.0386852 2.30437e-20)
(0.763845 0.0477635 2.39844e-20)
(1.00267 0.000405822 -3.9465e-21)
(1.0028 0.00059037 0)
(1.00288 0.000355168 5.07377e-21)
(0.959504 0.0195931 1.49713e-20)
(0.96107 0.0214135 6.16782e-21)
(1.01336 0.0247334 0)
(1.01348 0.0254787 0)
(1.0128 0.0251505 7.19788e-21)
(1.00248 0.000407531 3.22617e-21)
(1.00243 0.000202953 -9.64576e-21)
(1.01404 0.00293859 -1.43747e-21)
(1.01447 0.00285164 2.021e-21)
(1.01413 0.00253563 -6.01258e-22)
(0.347152 -0.0937378 -4.88795e-20)
(0.474822 0.00529988 7.24209e-22)
(0.464383 0.0068672 1.3123e-21)
(0.450479 0.00855025 1.7939e-21)
(0.947973 -0.0276998 -7.09348e-21)
(0.948449 -0.0246768 6.60517e-21)
(1.01724 0.0257108 -2.81722e-22)
(1.0165 0.02544 6.57504e-23)
(0.99992 -0.000258805 0)
(0.999969 -0.000152578 0)
(1.09746 0.0230029 -7.46817e-21)
(1.09698 0.0232673 -6.52562e-21)
(1.09564 0.0212714 -5.13818e-21)
(0.962221 0.014877 3.29087e-21)
(0.919914 0.0131581 2.0505e-21)
(1.02928 0.0962014 2.98465e-22)
(1.0267 0.0940043 2.58384e-23)
(0.573793 0.0577093 -1.15028e-19)
(0.574955 0.0307271 -6.79312e-20)
(0.994967 -0.0109679 0)
(0.99457 -0.0118798 1.05053e-22)
(0.902726 -0.0360739 -3.40349e-20)
(0.906764 -0.0339934 8.92199e-21)
(1.05595 0.026245 -1.2482e-21)
(1.05601 0.0265026 -9.01377e-22)
(1.05654 0.0263403 -3.22762e-21)
(1.0136 0.0136281 -1.57571e-21)
(1.01331 0.0139322 -3.10065e-21)
(1.0131 0.0133905 -3.4353e-21)
(0.956741 -0.00793279 -4.92844e-21)
(0.954342 -0.00792415 2.06593e-20)
(0.955768 -0.0101589 0)
(0.65352 0.110168 5.69344e-20)
(0.633832 0.114945 3.85417e-21)
(0.65093 0.131523 -1.56849e-21)
(0.987033 -0.0179004 8.30089e-21)
(0.986602 -0.0189782 8.2408e-21)
(1.04689 0.00908786 -2.08943e-21)
(1.00431 0.0057289 3.22895e-22)
(1.04774 0.0078585 -5.2346e-21)
(0.78141 0.48252 -1.65527e-21)
(0.789013 0.455682 4.06158e-20)
(0.75664 0.457562 1.45948e-20)
(0.963485 -0.0161568 -8.62575e-21)
(0.964592 -0.0180049 -7.68818e-21)
(1.01362 0.0119507 2.13045e-23)
(1.01339 0.0122701 5.09647e-21)
(1.01317 0.0117276 0)
(1.00881 0.0720418 0)
(1.00643 0.0718783 2.26071e-21)
(1.00749 0.0746833 0)
(1.05543 0.0293392 0)
(1.05581 0.0292051 -2.15515e-21)
(1.05558 0.0296928 0)
(0.125165 -0.271913 7.93199e-20)
(0.0857736 -0.285699 -8.43446e-20)
(1.0567 0.0262312 2.3175e-21)
(1.05678 0.0262907 1.61437e-21)
(1.05676 0.0261562 -1.16078e-21)
(0.974295 0.127614 -2.46917e-21)
(0.977232 0.124142 -4.19726e-21)
(0.980091 0.127659 -1.03049e-21)
(1.02767 0.0547692 7.20634e-22)
(1.02623 0.055517 -5.57304e-23)
(1.02638 0.0537494 -4.9042e-22)
(0.175492 0.0608118 -2.40444e-20)
(0.134006 0.0640545 -6.34631e-20)
(0.0480506 0.0490059 -4.50251e-20)
(1.00292 0.0975536 -6.16874e-23)
(1.00536 0.0945503 2.58711e-21)
(1.04895 0.0209529 -6.65617e-22)
(1.04801 0.0203285 3.13526e-21)
(1.04808 0.0207758 4.31998e-21)
(0.142067 0.000937006 3.49709e-21)
(0.16471 -0.0013764 -3.27914e-22)
(1.10119 0.0251248 1.33611e-21)
(1.09658 0.0218979 -8.24875e-22)
(0.930766 0.00578527 -5.56097e-21)
(0.927681 0.00657263 -2.28089e-20)
(0.928333 0.00320344 1.56878e-20)
(0.789794 -0.0908087 -1.42691e-20)
(0.783518 -0.0828218 -5.34891e-20)
(0.778416 -0.0945026 -4.74086e-20)
(0.999795 0.000174591 1.22295e-21)
(0.99982 0.000231598 1.98614e-21)
(0.999866 0.000164338 -5.33392e-21)
(1.05804 0.0261963 -1.06935e-21)
(1.05819 0.0264142 3.04043e-21)
(1.0575 0.0244129 -2.9669e-21)
(1.05749 0.0241082 -1.63634e-21)
(1.05969 0.0253353 -2.36545e-22)
(1.05953 0.0256059 -2.40434e-21)
(1.02891 0.0303179 9.14463e-22)
(1.02873 0.0294373 -4.51633e-22)
(1.05735 0.0320724 1.42033e-21)
(1.05711 0.031614 1.88042e-21)
(1.0577 0.0316316 5.68037e-21)
(1.01473 0.0203274 0)
(1.01493 0.0209327 2.63488e-21)
(1.01423 0.0206837 0)
(0.836755 -0.0642895 0)
(0.831354 -0.0578111 -4.51048e-21)
(0.993406 0.12477 1.88795e-21)
(0.988407 0.123979 0)
(0.992523 0.119983 0)
(-0.136534 -0.0185779 2.22774e-22)
(-0.155724 -0.0165109 -1.84577e-20)
(-0.117831 -0.0188485 9.57471e-21)
(1.05859 0.0239118 8.14227e-22)
(1.05868 0.0241874 -1.46108e-23)
(1.05837 0.024144 3.37134e-21)
(0.989768 0.0355225 -8.37634e-21)
(0.989154 0.0367054 1.71855e-21)
(0.988224 0.0354151 2.26353e-21)
(1.07199 0.0138328 5.07883e-22)
(1.0719 0.0136361 7.07544e-22)
(1.08095 0.0150165 1.18245e-23)
(0.966669 0.14075 0)
(0.963824 0.144336 0)
(0.969913 0.144762 8.31091e-21)
(0.484528 0.0058705 1.02211e-21)
(0.50412 0.00521428 -1.42766e-23)
(0.14989 -0.0352605 9.12353e-20)
(0.150957 0.00137598 -1.26034e-19)
(1.05099 0.0098653 -7.27379e-22)
(1.07421 0.0107993 -1.59985e-21)
(0.999696 0.0166035 -8.82518e-22)
(0.999872 0.0172015 3.29456e-22)
(0.999206 0.0169794 9.26875e-21)
(1.08173 0.0960178 1.42053e-20)
(1.07951 0.0936343 0)
(1.04393 0.0872354 0)
(1.04335 0.0844092 -4.69876e-22)
(1.01411 0.0138511 1.8576e-21)
(1.01386 0.0133037 -6.5201e-21)
(0.999648 0.00109059 2.51592e-22)
(0.999634 0.00126043 2.11434e-21)
(0.912846 0.0673897 9.39967e-21)
(0.910091 0.0633657 2.36193e-20)
(0.915607 0.0639562 1.07683e-20)
(0.807337 0.0145167 2.70824e-22)
(0.806295 0.0138699 -2.80625e-21)
(1.12359 0.0964022 -7.85043e-22)
(1.12682 0.0943581 1.90492e-20)
(1.1282 0.0985376 -4.49806e-21)
(0.219541 0.0651395 -3.79894e-20)
(0.376967 0.103263 4.65606e-20)
(1.04822 0.0491603 2.77489e-21)
(1.0478 0.0502409 -6.28995e-22)
(1.04903 0.0499864 3.50899e-21)
(1.05801 0.0258302 -1.42522e-21)
(1.05815 0.0258256 -3.99402e-21)
(1.05807 0.0259973 -5.44189e-21)
(1.05729 0.024314 -3.9029e-22)
(1.05669 0.0243569 2.83723e-21)
(1.05678 0.0240339 -1.92986e-21)
(0.252331 0.0168307 -5.58583e-20)
(0.217694 0.0153496 -7.0433e-20)
(1.12604 0.125585 6.53949e-22)
(1.12549 0.121047 1.08765e-20)
(1.1299 0.122735 2.01802e-20)
(0.997817 0.00111315 2.93902e-21)
(0.998081 0.00110217 -5.01747e-21)
(0.997925 0.000814433 -2.1288e-21)
(0.566013 -0.0299535 -2.07617e-20)
(0.570289 -0.0100681 7.92082e-20)
(0.546318 -0.0177118 7.00674e-20)
(0.792415 -0.0302241 8.57215e-21)
(0.79051 -0.0194092 6.50224e-21)
(1.00622 0.000326886 -9.48933e-22)
(1.00591 0.000317278 0)
(1.00741 0.0193397 -5.98143e-21)
(1.00809 0.0197769 2.17524e-21)
(0.833757 0.357429 -1.39789e-20)
(0.829309 0.333635 2.3549e-20)
(0.852961 0.341063 7.54473e-21)
(1.11335 0.356313 0)
(1.11803 0.344076 0)
(1.17253 0.377823 5.86099e-22)
(1.04188 0.0255928 -3.10016e-22)
(1.04247 0.0256125 -1.95991e-22)
(1.04217 0.0261493 1.21482e-22)
(1.00157 0.000503752 -2.27704e-21)
(1.00157 0.000316864 5.851e-21)
(1.05605 0.0309025 7.04858e-22)
(1.05561 0.0311589 -9.76025e-23)
(1.0562 0.0314409 1.37461e-21)
(1.05537 0.0289025 -3.10832e-21)
(1.055 0.0293281 3.04062e-21)
(0.152377 -0.0111999 2.46582e-21)
(0.143307 -0.0113823 -4.58297e-21)
(1.07936 0.0169936 2.68293e-21)
(1.07872 0.0171358 -1.06827e-20)
(1.08107 0.0183062 5.33333e-21)
(0.988494 -0.0039041 -8.40489e-21)
(0.988079 -0.00451795 -4.62799e-21)
(0.983245 0.0115356 -2.53536e-20)
(0.983769 0.0126404 -1.21725e-21)
(1.05937 0.035068 4.76764e-21)
(1.05972 0.0345009 -4.26171e-21)
(0.807114 0.0106035 -1.53784e-21)
(0.859016 0.0145001 -1.48256e-21)
(0.846849 0.0135813 -1.51981e-21)
(0.958741 -0.00805697 1.4122e-21)
(0.957807 -0.00622469 1.27109e-20)
(0.737704 0.00728247 4.9701e-22)
(0.730776 0.00617187 5.3651e-22)
(0.783136 0.00922737 6.11646e-23)
(0.0897686 -0.00643754 2.4057e-21)
(0.11716 -0.00846347 -2.32226e-21)
(0.0984794 -0.00576813 1.47382e-21)
(1.0579 0.0257087 1.60631e-21)
(1.05783 0.0259102 2.50255e-21)
(1.00759 0.00995011 2.97849e-21)
(1.00768 0.0104322 -9.71316e-23)
(0.482194 0.286662 2.53792e-20)
(0.500738 0.320472 5.73798e-20)
(0.448691 0.319455 -1.63873e-20)
(1.05726 0.03462 3.59002e-21)
(1.05798 0.0347718 3.37528e-21)
(1.05746 0.0353092 -3.58316e-22)
(-0.065285 -0.0177155 -7.98688e-22)
(-0.0302679 -0.0209517 9.97487e-21)
(-0.0480724 -0.0169231 -1.09243e-20)
(0.996031 0.00777785 -9.04313e-21)
(0.99618 0.00823896 3.4184e-21)
(0.995748 0.00817751 -1.24919e-20)
(1.21384 0.115324 2.70081e-20)
(1.19764 0.116942 -1.81522e-21)
(0.999499 0.0158489 0)
(1.00018 0.0161393 5.17675e-21)
(1.08091 0.0638735 -1.59948e-20)
(1.07896 0.0629113 0)
(1.07918 0.0650026 -1.37928e-21)
(1.00489 0.000855739 2.73492e-22)
(1.00475 0.000581078 -2.26878e-21)
(0.388004 -0.00506248 -1.76784e-22)
(0.358815 -0.00591882 -2.0656e-21)
(0.378867 -0.00495416 -1.46585e-22)
(0.869984 -0.0083429 -1.41199e-21)
(0.863352 -0.00932021 0)
(0.930008 -0.00412992 0)
(0.965464 0.0593683 5.15462e-21)
(0.968583 0.0592541 -3.9515e-21)
(1.09148 0.363691 1.80481e-20)
(1.1012 0.356601 0)
(1.09944 0.347934 3.45684e-21)
(1.02904 0.0555873 0)
(1.02881 0.0539095 3.52323e-22)
(1.00713 0.00966034 2.03813e-21)
(1.00739 0.00935044 5.85327e-23)
(1.05526 0.0269279 -9.72032e-22)
(1.05298 0.0271282 -5.63421e-22)
(1.05878 0.02368 6.13991e-22)
(1.05849 0.02363 -3.74042e-21)
(1.04748 0.04834 3.63631e-21)
(1.04858 0.0481231 -1.66913e-21)
(0.93855 0.0152522 2.79017e-22)
(0.899438 0.0119658 1.29238e-21)
(0.95288 0.0175939 3.18127e-21)
(0.0791938 -0.00542982 -1.62886e-21)
(0.0611294 -0.00163259 1.25761e-21)
(1.00767 0.00270015 1.39026e-21)
(1.008 0.00280389 -2.32935e-21)
(1.00788 0.00241454 -7.10809e-21)
(1.01529 0.0679839 3.18114e-21)
(1.01426 0.0702248 -2.48007e-23)
(0.318619 -0.015476 7.64987e-24)
(0.333503 -0.0150362 -2.51066e-21)
(0.00514677 0.0124317 1.84489e-20)
(-0.0438781 0.00719398 3.86776e-20)
(-0.00285419 0.0112408 1.65338e-20)
(0.999779 0.00010728 -3.77552e-22)
(0.999724 0.000179101 -6.14037e-21)
(1.002 0.00512601 -5.09116e-21)
(1.00219 0.0053754 4.53436e-22)
(1.00197 0.00538799 -7.3889e-21)
(0.47404 0.0230967 0)
(0.492281 0.0216502 0)
(1.05909 0.0257177 5.61816e-22)
(1.05881 0.0257545 -3.73714e-21)
(1.0589 0.0254368 -1.68091e-21)
(1.00003 6.04324e-05 -2.10312e-21)
(1.00001 4.60332e-05 -6.51795e-21)
(1.00002 7.56316e-05 -4.95436e-21)
(1.05738 0.0275992 -1.44293e-21)
(1.0576 0.0277847 6.90638e-21)
(1.05733 0.0274516 3.15915e-21)
(1.07198 0.0401208 -4.68842e-21)
(1.07133 0.0390127 2.29691e-21)
(1.07051 0.0402496 0)
(0.799091 -0.0897647 -5.46372e-21)
(0.795171 -0.100175 3.33249e-20)
(1.02885 0.0821103 -6.43723e-23)
(1.03041 0.084546 0)
(1.03122 0.0814712 7.68274e-22)
(0.999765 0.000322529 -3.09322e-23)
(0.99984 0.000292346 6.04995e-22)
(0.938769 0.147697 -9.97077e-21)
(0.940696 0.140145 -7.19689e-21)
(0.932549 0.142826 -1.48238e-20)
(0.125846 -0.0055497 2.44534e-21)
(0.128708 -0.00428449 -5.08483e-22)
(0.0978623 -0.00234742 1.41269e-20)
(1.02717 0.0158161 1.02643e-21)
(1.02761 0.015706 -1.5885e-22)
(1.02766 0.0161795 4.58036e-22)
(1.09228 0.104755 3.04589e-21)
(1.08919 0.107132 1.01934e-21)
(1.08898 0.1023 -1.54761e-20)
(0.563026 0.073997 1.91908e-20)
(0.576766 0.0944668 2.23373e-20)
(0.547886 0.0975175 1.16059e-19)
(1.01326 0.0239915 1.32414e-21)
(1.01391 0.0242688 -1.50131e-21)
(0.985452 0.00997963 5.0463e-21)
(0.984439 0.00978765 -1.04328e-20)
(1.05597 0.0261486 0)
(1.0562 0.0262414 -1.58988e-21)
(1.05614 0.0259953 4.76652e-22)
(0.511237 0.0188745 3.14723e-21)
(0.494906 0.0194109 -6.03472e-22)
(0.494781 0.0192443 2.68947e-21)
(1.05662 0.0261247 2.88034e-23)
(1.05662 0.026314 1.95607e-21)
(0.914768 0.0715725 -1.9035e-21)
(0.909865 0.071493 2.55338e-22)
(0.951203 0.0571723 1.23281e-20)
(0.948333 0.0596709 -1.00359e-20)
(1.00002 0.000128419 -5.54035e-22)
(1.00002 0.000112275 -5.37797e-22)
(1.00001 7.54193e-05 -7.5538e-24)
(0.331284 0.0132269 7.05882e-22)
(0.338357 0.0130427 6.12171e-23)
(1.06513 0.00413702 7.09006e-21)
(1.10608 0.00831871 4.14447e-21)
(1.10773 0.00805401 6.51485e-21)
(1.05851 0.0289231 1.67355e-21)
(1.05756 0.0288346 2.73011e-22)
(1.05607 0.0290269 5.23637e-21)
(1.00678 0.00945967 -2.58116e-21)
(1.00693 0.00996771 0)
(0.0974485 -0.0155972 -5.80218e-21)
(0.130839 -0.0188096 -6.11388e-21)
(0.115739 -0.018024 1.96019e-22)
(0.265161 0.0058389 0)
(0.26883 0.00703479 0)
(0.238341 0.00770766 1.73865e-21)
(1.05366 0.0205424 -3.47102e-21)
(1.05138 0.0209184 -4.73851e-21)
(0.706523 0.0135695 -3.45602e-21)
(0.679256 0.0109884 2.27529e-21)
(1.0593 0.0221918 0)
(1.05961 0.0218556 0)
(0.999675 0.000347357 5.34444e-21)
(1.00354 0.000484348 -1.69617e-23)
(1.00331 0.000514196 -5.55024e-21)
(1.00356 0.000760985 1.36069e-21)
(1.05871 0.0408762 0)
(1.05784 0.0406742 -3.55355e-21)
(1.05853 0.039994 0)
(0.316941 -0.00457081 -1.54413e-21)
(0.294727 -0.00279434 0)
(0.290033 -0.0034839 0)
(1.06541 0.0291483 -8.49051e-22)
(1.06603 0.029493 -2.68819e-21)
(1.06593 0.0285829 -1.15196e-21)
(1.02681 0.0423033 -6.1639e-22)
(1.02801 0.0420913 0)
(1.07977 0.0167476 0)
(1.07631 0.0152917 0)
(1.05356 0.0194811 -1.23996e-21)
(1.05322 0.0192354 -3.16209e-21)
(1.01438 0.00176367 5.65595e-21)
(1.01422 0.002127 -3.18858e-22)
(1.01464 0.00204875 -7.62313e-22)
(1.16422 0.0411392 -2.14284e-20)
(1.16214 0.0382905 0)
(1.17317 0.0391124 1.98499e-20)
(1.00053 0.00225969 -6.26205e-21)
(1.00057 0.00218568 6.4169e-21)
(1.00049 0.00208214 5.8659e-21)
(1.07115 0.0141863 2.18102e-21)
(1.04138 0.0121614 9.33444e-23)
(1.04121 0.0256109 -5.78968e-23)
(1.0415 0.0250896 -6.29431e-23)
(1.00003 4.69398e-05 3.49265e-21)
(1.00004 7.44046e-05 0)
(0.967623 0.0707935 -6.11157e-21)
(0.965993 0.0741226 -1.69901e-20)
(0.964552 0.0704557 -1.96482e-21)
(0.972342 0.131975 3.74868e-21)
(0.969345 0.127567 8.59266e-21)
(0.77731 -0.0735246 -2.90963e-20)
(0.787711 -0.0717565 1.9845e-21)
(1.05612 0.0275971 -2.37979e-21)
(1.05712 0.027411 -7.53614e-22)
(0.960269 0.0963016 0)
(0.959694 0.101044 -6.73796e-21)
(0.955477 0.097337 0)
(1.02575 0.0192827 -1.23725e-21)
(1.02572 0.0198702 5.20278e-22)
(1.02525 0.0193664 -1.16247e-21)
(1.10297 0.032797 7.93417e-21)
(1.10498 0.0342442 1.23417e-20)
(1.10627 0.0320858 7.68345e-21)
(0.968022 0.0178341 -6.01631e-22)
(0.921858 0.0131327 -1.91533e-21)
(1.01016 -0.00471478 -2.82665e-21)
(1.01767 -0.0024748 1.25309e-20)
(0.995797 0.00738662 -1.07563e-21)
(0.996294 0.00744902 -6.19931e-21)
(1.05796 0.0192996 0)
(1.05238 0.0191872 0)
(1.06015 0.0189514 1.49489e-21)
(0.998352 -0.00611848 0)
(0.998225 -0.00595418 4.70077e-21)
(0.998098 -0.00663604 -4.92941e-21)
(1.02592 0.0187774 3.31864e-23)
(1.02635 0.0192417 -7.92729e-22)
(0.996719 0.00406471 0)
(0.996895 0.00445675 0)
(0.809112 0.507927 -1.65638e-20)
(0.766146 0.516083 -2.53326e-21)
(1.00076 0.000478679 -1.6903e-21)
(1.00083 0.000421333 -6.54611e-21)
(1.00071 0.00037337 3.42069e-21)
(1.08276 0.0647049 -8.20474e-21)
(1.0825 0.0626547 -3.97633e-21)
(1.02647 0.083257 1.34578e-21)
(1.02713 0.0802514 -2.94326e-23)
(1.01451 0.0196358 1.11658e-21)
(1.01519 0.0198923 0)
(1.05642 0.030642 3.35351e-22)
(1.05583 0.0305659 -3.85427e-21)
(1.00512 0.043087 9.92765e-22)
(1.00624 0.0421819 5.52445e-21)
(1.00657 0.0437109 0)
(0.119355 -0.0600079 1.21562e-19)
(0.105085 -0.082266 -8.01315e-20)
(0.106276 -0.0502003 -5.80783e-20)
(0.96999 0.136942 0)
(0.964294 0.136737 0)
(1.07319 0.0950694 1.60043e-20)
(1.07168 0.0987947 3.25958e-21)
(1.01618 0.0161146 0)
(1.01635 0.0166879 1.12021e-21)
(1.01676 0.0162578 -3.07395e-21)
(0.98644 0.0101353 -8.92949e-23)
(0.985986 0.00919457 2.42535e-21)
(0.0416614 -0.0275748 2.80045e-20)
(0.0100757 -0.0263018 -2.19798e-21)
(-0.000257156 -0.0274987 8.37984e-22)
(0.340571 0.0103651 -1.58206e-21)
(0.332479 0.0112613 1.17486e-21)
(0.35776 0.00865368 -6.28765e-22)
(0.99595 0.0050939 0)
(0.996351 0.00515675 0)
(1.004 0.000464894 1.00226e-21)
(1.00428 0.000632504 1.6971e-21)
(1.004 0.000812907 -7.91592e-22)
(1.16904 0.0439102 9.18951e-21)
(1.14712 0.0428796 -2.35341e-20)
(1.00247 0.0168743 1.38918e-21)
(1.00226 0.0175137 6.53211e-21)
(1.00297 0.017527 7.63001e-21)
(0.23672 -0.0182439 3.12542e-22)
(0.213492 -0.0162499 4.23524e-21)
(1.01594 0.0156265 -4.57905e-21)
(1.01557 0.0160098 0)
(0.396082 -0.00526181 0)
(0.417194 -0.00446193 0)
(1.03374 0.0158067 1.42645e-21)
(1.03385 0.0154104 -4.04111e-22)
(1.03421 0.0158381 5.93381e-22)
(1.11333 0.231093 6.05074e-22)
(1.1042 0.230838 1.41476e-20)
(1.10853 0.240545 -1.19132e-20)
(1.04824 0.0330839 -1.47389e-21)
(1.04786 0.0336195 -5.49037e-22)
(1.04863 0.0337193 -2.01621e-21)
(0.0887011 0.183712 -9.67933e-21)
(0.0902157 0.144485 0)
(0.123145 0.16441 1.30965e-19)
(0.933503 0.00756632 -6.01764e-21)
(0.93382 0.00446165 1.11473e-21)
(1.10506 0.0274354 -1.16536e-20)
(1.10383 0.0266538 -5.28933e-21)
(0.507917 0.198843 3.40419e-20)
(0.480988 0.207587 -6.68625e-20)
(0.507524 0.230772 5.25506e-20)
(0.970695 0.0717066 -1.59865e-20)
(0.969601 0.06867 1.11257e-20)
(1.05931 0.0259196 2.24627e-21)
(1.05938 0.0255578 1.85346e-21)
(0.907704 0.396392 -1.49598e-21)
(0.922412 0.411135 -4.14437e-21)
(0.896971 0.416834 -4.27939e-21)
(0.980767 0.0221901 4.15373e-21)
(0.979667 0.0213058 8.2275e-22)
(0.979403 0.0228292 -1.77504e-22)
(0.439571 0.00284575 9.34366e-22)
(0.41192 0.00397109 0)
(0.421335 0.00380003 -1.31388e-21)
(0.581292 -0.0400862 -8.88471e-20)
(0.561008 -0.0504956 -6.75768e-20)
(0.285069 0.00531088 -1.04924e-21)
(0.264423 0.00626357 7.08226e-22)
(0.917971 -0.0228416 -5.38902e-21)
(0.914264 -0.0224317 -1.23019e-20)
(0.916519 -0.019128 -6.34706e-21)
(0.407512 0.0162821 1.17798e-21)
(0.376875 0.0165524 3.59868e-21)
(0.409219 0.0165757 4.89207e-21)
(1.01732 0.0678754 0)
(1.0183 0.0702131 1.77684e-21)
(1.01943 0.0681405 1.52427e-21)
(0.135789 -0.0197631 0)
(0.194618 -0.0187705 0)
(0.219827 -0.0195453 -8.14234e-21)
(0.515348 0.16958 -4.92572e-21)
(0.539079 0.192947 8.70048e-20)
(0.888147 0.261264 -3.67448e-20)
(0.873827 0.259298 -3.82766e-20)
(0.881489 0.274352 -2.09397e-21)
(0.903614 0.265946 -9.43602e-21)
(0.896876 0.250298 -2.01794e-20)
(0.793392 0.00629281 -3.68195e-22)
(0.767627 0.00392182 8.60363e-22)
(0.999524 -0.000716662 0)
(0.999378 -0.000856374 6.01894e-21)
(0.999427 -0.000688717 -6.00789e-21)
(0.998402 0.124385 1.70209e-21)
(0.995758 0.129204 6.34778e-21)
(0.134353 -0.0311918 8.92721e-21)
(0.110201 -0.031044 -2.21371e-20)
(0.973802 0.00644364 1.11101e-22)
(0.972543 0.00682116 -1.05202e-20)
(0.972738 0.00528487 -6.063e-21)
(0.976234 0.0455804 5.99341e-21)
(0.977537 0.0440521 3.9091e-22)
(0.975235 0.0436898 -8.54683e-21)
(0.283331 0.0069444 0)
(0.290212 0.00713973 0)
(0.812995 0.374307 -2.31119e-20)
(0.841789 0.380524 -3.34811e-20)
(0.993559 0.0342735 2.21677e-21)
(0.992866 0.0353078 -2.86663e-21)
(0.994425 0.0355973 -6.83808e-21)
(1.05733 0.024298 -3.78942e-22)
(1.05715 0.0245372 1.8375e-21)
(0.662348 0.442971 -1.95928e-20)
(0.686933 0.41653 0)
(1.00495 0.00365306 0)
(1.00521 0.0038956 0)
(1.00524 0.00356416 6.96432e-22)
(0.36992 0.0150216 -9.93908e-22)
(0.344036 0.0164099 1.38092e-21)
(1.05548 0.0255693 -3.35092e-21)
(1.05303 0.0255483 -2.31684e-21)
(1.05617 0.0259217 1.67408e-21)
(1.00048 0.00232803 -9.8868e-22)
(1.00057 0.00245005 -1.81777e-20)
(1.00318 0.00840061 0)
(1.00296 0.00805915 -3.27331e-21)
(1.00287 0.00843418 0)
(0.998404 -0.00645029 0)
(0.998631 -0.00567734 0)
(1.01409 0.0122233 3.93357e-21)
(1.01384 0.0116978 -5.51701e-21)
(1.10025 0.0337092 0)
(1.10098 0.0315548 0)