/*--------------------------------*- C++ -*----------------------------------*\
| =========                 |                                                 |
| \\      /  F ield         | OpenFOAM: The Open Source CFD Toolbox           |
|  \\    /   O peration     | Version:  v2012                                 |
|   \\  /    A nd           | Website:  www.openfoam.com                      |
|    \\/     M anipulation  |                                                 |
\*---------------------------------------------------------------------------*/
FoamFile
{
    version     2.0;
    format      ascii;
    class       volScalarField::Internal;
    location    "750";
    object      V0;
}
// * * * * * * * * * * * * * * * * * * * * * * * * * * * * * * * * * * * * * //

dimensions      [0 3 0 0 0 0 0];


value           nonuniform List<scalar> 
13917
(
0.0120994
0.0431681
0.00275611
0.034515
0.120715
0.00224758
0.00227507
0.00146637
0.00177574
0.00798532
0.00439164
0.00913584
0.0247421
0.00135181
0.0218359
0.026584
0.0409584
0.00911693
0.0104329
0.158349
0.136701
0.00191969
0.124232
0.00200282
0.0724064
0.00214538
0.00738857
0.00497104
0.00209205
0.00600696
0.0112663
0.0180578
0.0111494
0.0171259
0.0711769
0.00312086
0.122181
0.00145291
0.026689
0.00122998
0.174376
0.17242
0.132201
0.00481429
0.0438641
0.0172245
0.0103345
0.00766735
0.00167515
0.170673
0.015871
0.0391631
0.00147195
0.0159101
0.0385516
0.0197457
0.00562466
0.0668132
0.0273089
0.0425912
0.00238359
0.0487616
0.00124764
0.136997
0.00319412
0.00244277
0.113783
0.0676675
0.00369028
0.0126731
0.129069
0.00180005
0.0014171
0.0960876
0.00149438
0.00887841
0.00124792
0.03734
0.00232359
0.146908
0.153564
0.109274
0.00262011
0.0017165
0.00194021
0.0385612
0.141994
0.00193008
0.0209771
0.106307
0.00145221
0.00764353
0.0698371
0.0312151
0.00155157
0.00296455
0.00507229
0.00778838
0.00480243
0.00520215
0.12693
0.0119283
0.00416972
0.0273877
0.0903358
0.00226285
0.00352772
0.00665297
0.0438117
0.00991409
0.00166618
0.00155357
0.00625993
0.00196272
0.0264536
0.00132702
0.10378
0.0017426
0.00140442
0.0157297
0.164094
0.00417959
0.00125191
0.00673689
0.150623
0.0344535
0.0430682
0.170827
0.17247
0.00224737
0.00129657
0.0330855
0.0442468
0.140598
0.00326216
0.00206281
0.0113669
0.00359042
0.101384
0.0171989
0.00418419
0.0763289
0.0410677
0.0043371
0.0567268
0.00259861
0.00234478
0.0470685
0.0881054
0.0194054
0.00930959
0.00118077
0.00732375
0.00912733
0.021237
0.00190345
0.0147712
0.0031341
0.00125696
0.00319745
0.0234651
0.0081785
0.162318
0.00560861
0.00793623
0.00458881
0.0265946
0.00878132
0.0626962
0.00953561
0.0107495
0.00132187
0.00606254
0.0354656
0.00272616
0.00746152
0.0016229
0.00164018
0.00278292
0.0662936
0.0065799
0.012378
0.0773797
0.126906
0.0151522
0.00234615
0.00423092
0.00208829
0.0101651
0.00351185
0.00311567
0.0019472
0.00352288
0.143369
0.00368951
0.0078197
0.188493
0.0559519
0.00379075
0.00203982
0.0215158
0.129958
0.0112109
0.0102209
0.00134687
0.00298835
0.0609188
0.0589933
0.00808929
0.00270149
0.0444556
0.00224779
0.00138584
0.00540876
0.0921271
0.00267102
0.00950518
0.00154603
0.0705389
0.00272133
0.0787331
0.00564
0.143323
0.00137585
0.00201903
0.0235931
0.00356207
0.0187629
0.104296
0.0027168
0.00638935
0.0108932
0.00256936
0.00105144
0.141364
0.0162079
0.00173091
0.00120844
0.139111
0.116536
0.00131689
0.00435636
0.16251
0.00393146
0.00715207
0.00733988
0.0128481
0.164094
0.011493
0.00128595
0.0562328
0.00653806
0.00385405
0.0468082
0.0594201
0.00804271
0.00133884
0.00666569
0.0120056
0.0201061
0.177322
0.00112941
0.00262151
0.00341692
0.0836314
0.0015342
0.00126311
0.00287907
0.0019202
0.00763421
0.16023
0.186074
0.00889661
0.00140252
0.0058454
0.0272457
0.00297335
0.0114871
0.161334
0.00230627
0.138985
0.00243518
0.0248702
0.133701
0.0182449
0.00814595
0.00990471
0.00324601
0.0126329
0.0494032
0.00338476
0.00219758
0.0019564
0.0806099
0.00295812
0.124154
0.0520136
0.110483
0.00203868
0.184204
0.00521229
0.0148292
0.0680428
0.00927332
0.0321626
0.00103752
0.00813971
0.00815532
0.0660298
0.0612706
0.00153674
0.00135457
0.088505
0.156004
0.00268342
0.0718667
0.00150816
0.0772934
0.00126416
0.03927
0.00389495
0.0160376
0.0014241
0.0256122
0.00308769
0.00259806
0.0185526
0.00370808
0.00272296
0.0408296
0.00158958
0.0032466
0.00103762
0.020165
0.00127953
0.0168398
0.00185092
0.00358929
0.00447292
0.00508678
0.00220782
0.124047
0.0108853
0.00186734
0.0409218
0.0282678
0.00139303
0.00339552
0.043833
0.00351314
0.00199064
0.144995
0.00146456
0.00358497
0.133583
0.105428
0.138907
0.0791497
0.00331212
0.00244897
0.00242939
0.0018396
0.0894376
0.00552333
0.00127744
0.0114339
0.00192893
0.001664
0.00193291
0.109059
0.00378106
0.0906158
0.00250488
0.0414406
0.00133826
0.00655018
0.0311312
0.109831
0.00884372
0.00526622
0.00612248
0.00121047
0.00163991
0.00122942
0.0100978
0.00650703
0.0998188
0.00125035
0.00195859
0.0591147
0.00383661
0.104752
0.00397585
0.0367137
0.13565
0.0233089
0.00167885
0.0280291
0.00167957
0.00148986
0.00245864
0.00245493
0.0397045
0.00259015
0.00237882
0.125871
0.00380496
0.0472799
0.066123
0.00490977
0.177572
0.0982944
0.0824273
0.00363306
0.142098
0.00144788
0.0021324
0.00134733
0.00329873
0.00158061
0.00128723
0.0123169
0.0946177
0.00522861
0.023335
0.0167368
0.125496
0.00259633
0.00240042
0.00258215
0.0211655
0.00574195
0.0233471
0.0280193
0.00728312
0.0294862
0.00298578
0.0410353
0.153245
0.00157208
0.0014823
0.0015446
0.00551149
0.00119645
0.0017881
0.00151006
0.00150441
0.142984
0.00791993
0.0292027
0.0540576
0.00325949
0.00769178
0.159444
0.00836079
0.0123343
0.00135143
0.1004
0.00561736
0.00165665
0.00308584
0.00121042
0.133991
0.0507262
0.161353
0.0115502
0.131405
0.00230054
0.00271412
0.0147502
0.00170651
0.0207426
0.00475144
0.00158571
0.0014973
0.00453634
0.00334951
0.00483784
0.00929553
0.0046419
0.0113229
0.00444042
0.00232131
0.00949164
0.00534665
0.154882
0.00278254
0.0214381
0.0794966
0.0125702
0.0337817
0.00150475
0.00164375
0.0699764
0.152839
0.0024086
0.00112537
0.18089
0.00124433
0.0294866
0.00415675
0.0731979
0.00108143
0.00311715
0.0190117
0.0308437
0.00184908
0.00406225
0.00128014
0.177006
0.00135883
0.00186407
0.00295218
0.0679189
0.0017079
0.002109
0.0113013
0.100242
0.0354775
0.00920042
0.00376266
0.135138
0.111343
0.138444
0.137228
0.0012513
0.0030653
0.0121763
0.00421821
0.167169
0.098674
0.00575715
0.00217229
0.0121982
0.0515568
0.0881506
0.0700683
0.0025741
0.00185346
0.141532
0.0729577
0.00353561
0.0118079
0.0118622
0.0572477
0.0249813
0.0190096
0.00595971
0.00283962
0.00349672
0.00441936
0.00528595
0.00300763
0.00693866
0.0782532
0.00147914
0.079382
0.02528
0.0269832
0.00267812
0.00539357
0.116668
0.00320704
0.00519709
0.00145296
0.00485026
0.00966545
0.0117489
0.104431
0.0019228
0.00327718
0.00158107
0.0477821
0.0152058
0.00368574
0.00151018
0.00135792
0.00722852
0.00441358
0.0257759
0.0218107
0.0500277
0.00606376
0.00413015
0.0424494
0.00970434
0.00330927
0.00171151
0.00108554
0.0264139
0.00509553
0.00359994
0.0165059
0.0433205
0.0015526
0.00257781
0.00226118
0.00416442
0.139439
0.00124579
0.00974938
0.137115
0.0141594
0.00725199
0.011375
0.00639225
0.00215869
0.00501632
0.0152871
0.00233913
0.0266887
0.00138496
0.141208
0.108042
0.00244332
0.00215024
0.0024278
0.0249329
0.0398654
0.0782723
0.0101737
0.00136075
0.00493343
0.0210161
0.00553061
0.00890445
0.0595685
0.00245448
0.00603688
0.00339494
0.0770331
0.00403652
0.0328006
0.00156528
0.00823759
0.00596937
0.012848
0.137049
0.0775033
0.0420564
0.00502864
0.014951
0.00376008
0.00126229
0.0085445
0.135369
0.00383498
0.00178018
0.00335007
0.0553662
0.0154811
0.111196
0.0166385
0.0205757
0.00187789
0.145957
0.00231517
0.0173655
0.00404839
0.00650871
0.0013375
0.00561267
0.0389485
0.00135825
0.00136219
0.054775
0.028356
0.00332173
0.00464845
0.00558446
0.168147
0.0308586
0.00405471
0.0244568
0.00749388
0.00921246
0.0703586
0.0103521
0.00243478
0.0527657
0.041464
0.155174
0.00138402
0.153778
0.0221023
0.00135615
0.0252274
0.00239493
0.0209943
0.00848243
0.137787
0.00832801
0.100913
0.0090622
0.163375
0.00576625
0.0288541
0.00176246
0.00133643
0.00166382
0.18921
0.135738
0.00725774
0.00958868
0.00119775
0.00156682
0.00879985
0.0758801
0.00372584
0.00237079
0.00296647
0.00415672
0.00905248
0.00208096
0.0101841
0.0127431
0.00400999
0.0037881
0.00943306
0.00168598
0.01043
0.0303061
0.00639378
0.0146808
0.0685732
0.0179606
0.0101561
0.0183776
0.102457
0.153182
0.00901605
0.0258327
0.00666081
0.0673568
0.0902886
0.141117
0.0264126
0.0996269
0.0207886
0.142573
0.00110769
0.00981419
0.0028367
0.139887
0.138384
0.00676409
0.00790578
0.0300522
0.00241963
0.00636813
0.00263389
0.0135108
0.00490727
0.0311248
0.158416
0.145766
0.0261812
0.00124014
0.145287
0.00268282
0.015364
0.00106825
0.00804557
0.00556281
0.00435757
0.096024
0.182468
0.00873919
0.0711703
0.0402856
0.00269452
0.031939
0.130356
0.0154358
0.129075
0.131612
0.0178832
0.0135318
0.00105188
0.0136653
0.0439928
0.17918
0.0015774
0.00413127
0.0483635
0.0384526
0.00254691
0.00324157
0.00130894
0.0113926
0.029402
0.130453
0.124355
0.00930452
0.0129288
0.00320252
0.0147626
0.00156474
0.0343544
0.0254993
0.000928913
0.103467
0.0182647
0.0575961
0.160653
0.0101808
0.00749381
0.0323139
0.00205219
0.00121195
0.00753722
0.0636659
0.0804753
0.00551973
0.00274257
0.158831
0.0028074
0.083746
0.0107985
0.0530746
0.069479
0.00345111
0.0506995
0.00292647
0.0108483
0.151699
0.109357
0.0509579
0.0723645
0.0440818
0.00150846
0.0557672
0.0706671
0.0016523
0.00200425
0.0120389
0.0117605
0.00662656
0.0211916
0.079636
0.0107868
0.00136691
0.00462603
0.0983528
0.0411551
0.00181613
0.00999529
0.00157192
0.136289
0.0284744
0.00134072
0.0132129
0.0346892
0.00124278
0.00162011
0.0800502
0.00436085
0.119159
0.054475
0.107032
0.00137893
0.0979426
0.0470578
0.0801904
0.00250962
0.0213983
0.00425455
0.00591717
0.06217
0.0103396
0.144177
0.0015117
0.0989159
0.055233
0.131253
0.00380841
0.110513
0.00397034
0.00127273
0.00255628
0.0184516
0.00302537
0.00134754
0.0606055
0.0012352
0.00166377
0.00127903
0.00156448
0.00157716
0.00153481
0.00405721
0.0352456
0.00188525
0.0140848
0.00178112
0.080092
0.0626453
0.0484935
0.142084
0.0184195
0.0130299
0.00104639
0.0642636
0.0733921
0.00109436
0.00321946
0.0479404
0.00712982
0.0153827
0.041655
0.00107971
0.00698013
0.0237399
0.0212889
0.00121417
0.00100416
0.00174906
0.0563515
0.00401657
0.00495929
0.00135583
0.00173075
0.00693622
0.0626859
0.0306835
0.0318496
0.158518
0.0241876
0.132352
0.0166161
0.00601261
0.0016484
0.00552009
0.0441361
0.00518423
0.00152434
0.0109796
0.0474967
0.00122182
0.0603567
0.0416703
0.00858085
0.00175906
0.112578
0.0745141
0.00208077
0.00317236
0.00306154
0.00500664
0.00246181
0.0669117
0.0035037
0.0432608
0.103198
0.0439086
0.00257397
0.00114604
0.0626475
0.106892
0.0556458
0.00296375
0.0264255
0.017557
0.0754814
0.0458255
0.00417879
0.0572995
0.00766867
0.00360352
0.00174599
0.0506155
0.00537494
0.0225551
0.00139449
0.00120431
0.0865339
0.00122923
0.00661247
0.00163715
0.121898
0.00153512
0.120072
0.0159925
0.0109704
0.00444996
0.00235297
0.00285442
0.00446412
0.00225726
0.141331
0.00374201
0.0724344
0.0119821
0.00185765
0.0483758
0.155076
0.0338011
0.0394154
0.00130526
0.114475
0.12367
0.00899377
0.00767356
0.00958483
0.00226248
0.00538239
0.00120228
0.00900166
0.0123329
0.0140421
0.00135065
0.0122488
0.00265728
0.00150833
0.0212506
0.0643165
0.00160292
0.00333125
0.0415199
0.0059646
0.00945254
0.0354413
0.0188394
0.0362612
0.0113208
0.173288
0.00917756
0.00333197
0.102005
0.00856361
0.0614213
0.00643727
0.166465
0.0148625
0.00769567
0.0240764
0.0410213
0.0650215
0.00162876
0.00617707
0.00258032
0.0729379
0.038648
0.00824875
0.0584759
0.00682229
0.00572261
0.0343694
0.00651417
0.0697783
0.00240594
0.0438039
0.0161692
0.0010302
0.00360947
0.0810264
0.0272297
0.00127311
0.0994132
0.102879
0.00143181
0.00149111
0.0219278
0.00432209
0.145908
0.0403432
0.00253678
0.0320214
0.0904434
0.00330271
0.055987
0.00298528
0.11571
0.0981399
0.0441639
0.00516518
0.00143374
0.0436596
0.040986
0.0735892
0.0195191
0.134966
0.00163402
0.00841683
0.15897
0.00232271
0.00854786
0.00284555
0.00158202
0.00150033
0.0677315
0.0483522
0.0536941
0.00199373
0.0196945
0.00149831
0.00140935
0.0274579
0.00180311
0.00154985
0.00928312
0.00438038
0.00579651
0.00238084
0.00224249
0.00481454
0.00280063
0.00156137
0.00906801
0.0224118
0.00134066
0.00541939
0.0709058
0.0238218
0.00248244
0.0102951
0.0677973
0.00729383
0.00603245
0.0117126
0.00122844
0.0269988
0.0022389
0.0126042
0.00376896
0.00448183
0.00400482
0.0159591
0.065861
0.0404642
0.00238542
0.0822327
0.022755
0.153287
0.02506
0.0595328
0.0104763
0.00503208
0.00142783
0.00809667
0.00646745
0.00236899
0.00292528
0.0591682
0.00302283
0.00220439
0.057074
0.101221
0.0126188
0.00132652
0.141287
0.00746445
0.00258914
0.00845754
0.0575465
0.027746
0.0573949
0.0052838
0.00953197
0.134476
0.0017366
0.00207991
0.00967769
0.00277365
0.00762349
0.00215298
0.026527
0.0194368
0.00228919
0.00277386
0.00679981
0.00184543
0.017989
0.147843
0.0617436
0.0496752
0.0588646
0.0273186
0.00897256
0.0761994
0.00459068
0.133811
0.0145115
0.0669831
0.00650914
0.00524539
0.00296668
0.062076
0.00401131
0.059486
0.00225904
0.0925653
0.0176169
0.0940947
0.00360502
0.00124474
0.00398006
0.0730183
0.00527702
0.0465099
0.0144308
0.00149444
0.0532499
0.0425515
0.00815142
0.0157976
0.0019116
0.0740521
0.0147086
0.0380667
0.106014
0.0122639
0.0330688
0.101426
0.024528
0.00100107
0.0224093
0.00305187
0.00227454
0.00907358
0.0014309
0.0223476
0.109704
0.014477
0.00116919
0.0337775
0.010383
0.0107312
0.00161362
0.0753974
0.00113663
0.0072228
0.00736066
0.0671105
0.114055
0.00502155
0.0392231
0.14452
0.00999589
0.0808884
0.0159521
0.0158338
0.00537957
0.00333747
0.00207789
0.0218831
0.00551829
0.00245636
0.00110489
0.0138574
0.00279892
0.00133
0.0118058
0.00201621
0.0202159
0.00180922
0.0011998
0.0729673
0.16455
0.107592
0.0383447
0.00992847
0.0655041
0.0189432
0.00652442
0.0257702
0.0110075
0.00106273
0.00973865
0.0225842
0.00157123
0.032997
0.00122372
0.0254712
0.004262
0.0774497
0.00106436
0.00130654
0.0464839
0.0367236
0.00181135
0.0106545
0.00126831
0.13393
0.0479328
0.00168058
0.0309505
0.00628332
0.00157371
0.0764995
0.00843244
0.0124864
0.111133
0.13355
0.00185247
0.0013136
0.0404324
0.0227447
0.0548747
0.0141138
0.00873767
0.00145693
0.0272009
0.00169302
0.00278821
0.00337139
0.00270944
0.0314579
0.00568147
0.00350585
0.0142396
0.0911089
0.00879831
0.00146633
0.0251815
0.00727257
0.00185189
0.00132612
0.00271957
0.01955
0.0483731
0.130968
0.0794753
0.00130045
0.00896342
0.0248687
0.0283006
0.0241407
0.135854
0.0595103
0.0761148
0.00619015
0.0153165
0.0023713
0.00573307
0.00120317
0.00148653
0.013592
0.00926742
0.114861
0.0172864
0.00105543
0.0369253
0.0248843
0.00911899
0.00454539
0.00605643
0.00220962
0.00201957
0.0587692
0.00106938
0.120783
0.0385443
0.00802517
0.145045
0.0468545
0.00432463
0.00238483
0.0541653
0.00233273
0.0375907
0.067316
0.0208215
0.00168168
0.0161877
0.0272502
0.0020074
0.0319437
0.00338799
0.00164809
0.169515
0.0050413
0.130591
0.00119989
0.00640075
0.0670843
0.00196263
0.00873103
0.00461647
0.128986
0.00105191
0.0138404
0.00285759
0.0403946
0.0042483
0.00129442
0.0692174
0.00172812
0.0463254
0.00765237
0.00631724
0.159727
0.00103089
0.0242554
0.00433198
0.00818853
0.00474233
0.00969192
0.00931783
0.0283843
0.00188118
0.0107917
0.00116792
0.0134242
0.00985431
0.0495368
0.0114716
0.0556414
0.00908603
0.00223674
0.0361154
0.0708254
0.00134149
0.0288587
0.00226433
0.0328477
0.00228887
0.00256109
0.0129474
0.0730234
0.101277
0.0857324
0.120211
0.00577408
0.00659827
0.00730197
0.0192435
0.136594
0.003034
0.0249562
0.0139427
0.00273624
0.0564085
0.00182059
0.00959933
0.0174014
0.00173222
0.00133011
0.00314321
0.00230539
0.00270611
0.0721734
0.00258737
0.00148805
0.00260915
0.148884
0.0442216
0.00473318
0.00210624
0.00128473
0.00301174
0.0495678
0.00720294
0.0110967
0.00186099
0.00127122
0.0121142
0.00335009
0.0219828
0.00653654
0.00636112
0.145033
0.00550824
0.00247037
0.106894
0.00282218
0.142707
0.0463359
0.00103039
0.0015301
0.127922
0.0387514
0.0231806
0.0459765
0.00987102
0.00431682
0.0258485
0.100823
0.102839
0.00874833
0.0165367
0.0208071
0.00327215
0.0705277
0.00176575
0.00122652
0.00148614
0.00349044
0.00968459
0.00305166
0.0133739
0.00184225
0.00268917
0.00271067
0.0408289
0.00188092
0.00113019
0.115601
0.0971077
0.00537368
0.00149906
0.00231071
0.0628751
0.0500335
0.00151512
0.00185648
0.00271402
0.024622
0.0209834
0.0018508
0.049428
0.0014884
0.00174156
0.00313244
0.00248602
0.0513866
0.0781025
0.131615
0.015493
0.00115772
0.0110579
0.022366
0.0297907
0.00458115
0.00108105
0.00999385
0.00278292
0.00110864
0.0010359
0.0017144
0.0804138
0.152701
0.002262
0.114342
0.0691369
0.0285129
0.00112698
0.011644
0.00197879
0.00444249
0.0880856
0.00146478
0.0119791
0.0598459
0.00134658
0.00302752
0.0182183
0.0411895
0.00119151
0.00156748
0.118965
0.00229423
0.00230231
0.00183236
0.0020946
0.00543304
0.0641337
0.0319228
0.00351646
0.0203273
0.00217206
0.00843286
0.00281963
0.00325923
0.0267382
0.0165335
0.0550898
0.0344168
0.00168233
0.00113797
0.0810708
0.00127019
0.0100241
0.047643
0.0204096
0.0935344
0.00415549
0.0264143
0.0016891
0.00651169
0.0660032
0.134633
0.00490414
0.000988635
0.0108672
0.0230107
0.00964621
0.0642697
0.024881
0.0175173
0.00093781
0.0013671
0.00156041
0.109566
0.131555
0.0248224
0.00651781
0.0990441
0.0344224
0.00383576
0.00716863
0.00273267
0.071267
0.00161828
0.00132795
0.163999
0.00100889
0.00518985
0.010441
0.00153235
0.0362274
0.00144249
0.0147262
0.0241838
0.0226532
0.122086
0.00355695
0.167222
0.0360884
0.0114255
0.00150148
0.00150285
0.14045
0.161773
0.0242242
0.0492623
0.00413873
0.038202
0.0061903
0.0291252
0.00145224
0.0351881
0.00156621
0.103102
0.00162471
0.0352173
0.113125
0.00181684
0.00258631
0.00390647
0.00298981
0.00566382
0.0101548
0.0726549
0.00142944
0.0656815
0.099898
0.00451184
0.00900733
0.00180247
0.00144057
0.00488511
0.00276821
0.0047809
0.00282121
0.13966
0.0222947
0.0165578
0.00155165
0.0202815
0.00138248
0.00103028
0.0365423
0.0463727
0.0522215
0.00264516
0.0010614
0.0236454
0.124368
0.0210282
0.0185391
0.0109201
0.00347627
0.00309232
0.126864
0.00203715
0.00629872
0.000967118
0.00649895
0.0246314
0.0245781
0.00138362
0.142327
0.00604969
0.00219714
0.0286516
0.0197952
0.00378398
0.00422189
0.0332252
0.00125827
0.0245897
0.00333235
0.00955502
0.0138325
0.0304404
0.00166597
0.101683
0.00504117
0.00178508
0.00154892
0.00912437
0.00720567
0.0211118
0.00959978
0.138345
0.00172708
0.019073
0.0495913
0.0148631
0.139485
0.164481
0.000882216
0.093214
0.147227
0.0538379
0.00394585
0.0463078
0.0131306
0.00613057
0.0035479
0.00536315
0.137559
0.00314546
0.00199094
0.00414862
0.00750857
0.0121088
0.0041955
0.00265256
0.00269014
0.166819
0.00247686
0.00216743
0.168774
0.0250962
0.119306
0.00223951
0.00520145
0.0343227
0.00169647
0.00149382
0.136744
0.0426112
0.00208458
0.00111565
0.00833183
0.107641
0.00265398
0.00159793
0.00130871
0.100711
0.00151919
0.00670706
0.00403877
0.00129013
0.0210876
0.118762
0.0135668
0.00426878
0.012953
0.00204674
0.00150231
0.0689971
0.00231817
0.00155268
0.00134068
0.0865505
0.0062395
0.0288267
0.0637179
0.00122276
0.00306488
0.00336043
0.00293576
0.0146837
0.0100317
0.158565
0.00162513
0.00118528
0.0718576
0.0379049
0.0111173
0.0605914
0.0091821
0.00167713
0.00192722
0.0090641
0.0343524
0.0366733
0.00162615
0.0196653
0.00899611
0.0757333
0.0291835
0.00334319
0.00280812
0.00311129
0.00154522
0.142675
0.00366045
0.153768
0.00784309
0.0017784
0.00136706
0.0958556
0.144755
0.0144494
0.0165109
0.0445307
0.00138803
0.001524
0.0761777
0.139946
0.118168
0.0958892
0.00143815
0.0658406
0.00150436
0.00513112
0.00845543
0.0617824
0.00924455
0.00163013
0.0140732
0.00266473
0.00162444
0.0323273
0.00102631
0.00988165
0.0063625
0.00320836
0.00122572
0.00136293
0.00921049
0.0724523
0.0038868
0.0652796
0.0155857
0.0440237
0.00232266
0.010432
0.00279276
0.00344714
0.0100276
0.114681
0.00344048
0.0181121
0.161662
0.00269654
0.108888
0.0144856
0.010571
0.0440095
0.00215421
0.0281392
0.00230262
0.0271529
0.094394
0.00179921
0.00151601
0.0211813
0.0109111
0.0123305
0.00665741
0.00881947
0.0148131
0.0149541
0.022338
0.00367237
0.0182381
0.00218702
0.00562915
0.00262889
0.00566766
0.0298119
0.00160123
0.155499
0.00234311
0.0207082
0.00195463
0.00269348
0.00269766
0.00270245
0.00399049
0.00466507
0.0330158
0.00166511
0.00444762
0.073052
0.00106401
0.002304
0.0253623
0.0276573
0.0122092
0.0118509
0.0148263
0.00137412
0.184735
0.0152715
0.0110468
0.0111765
0.14095
0.00584234
0.0933204
0.00212446
0.0193773
0.00448941
0.013157
0.0110211
0.00507064
0.00283287
0.00696991
0.0698726
0.0037612
0.00177957
0.00174649
0.0380794
0.0023138
0.0168501
0.00143381
0.0638727
0.0223374
0.00145941
0.00994055
0.0012313
0.0012312
0.0101779
0.00123109
0.0490317
0.0929804
0.00103103
0.00567214
0.0241705
0.00171558
0.0183927
0.00725522
0.0149238
0.00711703
0.0419115
0.00253857
0.0018052
0.00123427
0.00323694
0.0170344
0.00851328
0.00124479
0.023989
0.042737
0.0053086
0.113279
0.00209243
0.00180231
0.00121468
0.00132037
0.00884288
0.0346062
0.00158402
0.123789
0.00506747
0.147465
0.00166706
0.027666
0.00656421
0.0012551
0.00471204
0.124903
0.0125956
0.00184146
0.0473773
0.00536628
0.0682395
0.00215152
0.0013184
0.00548068
0.00430436
0.124427
0.00402051
0.00495416
0.0103218
0.0683718
0.0379699
0.166257
0.00958216
0.100104
0.00563858
0.0433402
0.0634246
0.00183036
0.0588103
0.0184988
0.0219381
0.134926
0.00146841
0.062523
0.0119017
0.00159489
0.0100003
0.00260851
0.0492153
0.00173413
0.0100655
0.00176344
0.0262285
0.0039469
0.0433655
0.00949001
0.00511001
0.00539031
0.0038946
0.00153582
0.00428954
0.00288382
0.0157165
0.00523388
0.00915669
0.00266585
0.0185936
0.0413976
0.0597737
0.00965641
0.00691278
0.00287919
0.00898151
0.00220859
0.00237706
0.00386829
0.0541374
0.00277317
0.00259174
0.0397433
0.0252436
0.0509453
0.00218502
0.0586582
0.000884675
0.0623001
0.0180073
0.00143071
0.00526282
0.0874439
0.0595576
0.00122397
0.0742927
0.0235254
0.0168867
0.0123573
0.0203017
0.040288
0.00314703
0.00436476
0.00919552
0.00366674
0.00146338
0.00137331
0.00111576
0.116624
0.0638109
0.00421795
0.0352873
0.00555552
0.00223821
0.00127895
0.11206
0.0714178
0.00153172
0.00305078
0.108026
0.0715966
0.0148857
0.00186006
0.00200172
0.0186083
0.0127209
0.130701
0.00356175
0.00546447
0.00323678
0.0114558
0.0102163
0.0269401
0.011039
0.00332089
0.023403
0.0402159
0.0187261
0.00209286
0.0178723
0.00122418
0.0910134
0.00151599
0.0112823
0.0124244
0.0869285
0.0937542
0.00281344
0.00235899
0.00599019
0.00118513
0.00190467
0.0350121
0.00148588
0.00473097
0.144921
0.00260785
0.002853
0.00339507
0.139281
0.00146418
0.00144243
0.06413
0.00977354
0.0012848
0.0101969
0.0491628
0.0693528
0.0351468
0.024277
0.00665266
0.00371563
0.00447993
0.00677168
0.12077
0.0518424
0.00228653
0.0640158
0.00848993
0.0138013
0.0474064
0.0087858
0.0804892
0.0240902
0.00358811
0.10326
0.00135211
0.0987261
0.00183724
0.00166524
0.00589039
0.042803
0.162441
0.00157073
0.12011
0.0230462
0.0355935
0.00371995
0.00298606
0.0114057
0.00156984
0.00983352
0.00282524
0.0300403
0.00694961
0.0587878
0.0968715
0.00122574
0.00134993
0.00303132
0.0239021
0.007618
0.0066437
0.00107197
0.00150973
0.00353005
0.00773191
0.118877
0.0015776
0.0516422
0.0469341
0.00414657
0.00528965
0.0139564
0.00296748
0.0069995
0.0124805
0.0176561
0.00142302
0.023569
0.0912052
0.000991087
0.00559091
0.0903854
0.00110261
0.128047
0.107671
0.00400009
0.00505366
0.00190279
0.0995488
0.0195313
0.0619946
0.00180406
0.0670264
0.00228109
0.00258526
0.0015256
0.00143538
0.00159104
0.011615
0.0014838
0.00198693
0.13365
0.0127786
0.00944499
0.0114851
0.00178051
0.00128373
0.00127358
0.00156503
0.00170009
0.0439779
0.00584695
0.144912
0.00142988
0.0165996
0.0254175
0.0235229
0.0279208
0.0665563
0.00477959
0.00133803
0.108026
0.0252635
0.144868
0.00149546
0.0267497
0.00169136
0.00215973
0.0029363
0.0864899
0.0664486
0.00115357
0.00261421
0.103207
0.00323123
0.13726
0.00469051
0.00294925
0.00584815
0.00977471
0.00263501
0.05796
0.0605094
0.00361768
0.00147987
0.0150246
0.00696231
0.0634127
0.00110205
0.0815963
0.142622
0.0311907
0.0625889
0.00174977
0.00142959
0.00288009
0.0086353
0.00150075
0.00337864
0.119522
0.0139847
0.0856328
0.00175023
0.0365613
0.0196911
0.0616802
0.0973326
0.0646632
0.00205442
0.0391955
0.00153838
0.0772298
0.0116078
0.155326
0.00181946
0.100354
0.0138406
0.0105448
0.00591958
0.00178482
0.0930329
0.00117318
0.00731492
0.00849492
0.141566
0.0801537
0.00142344
0.00101578
0.0407529
0.0651537
0.00343068
0.00362579
0.00889864
0.00156029
0.0278669
0.00214487
0.0168871
0.0927283
0.00178976
0.0356325
0.00188159
0.0593999
0.0281342
0.110067
0.000986579
0.00146014
0.111024
0.00277387
0.00367132
0.139451
0.0571824
0.144958
0.00281151
0.00153914
0.00756034
0.0280095
0.0102839
0.0999576
0.0509819
0.0246877
0.107179
0.00394945
0.0463843
0.00780746
0.00288552
0.0106463
0.130766
0.00237096
0.00569568
0.0964911
0.00545802
0.0146899
0.00288879
0.0200742
0.00231
0.00844886
0.0529249
0.00613957
0.00615041
0.0257072
0.00170375
0.0081068
0.0181639
0.00292937
0.0570266
0.00453302
0.00387598
0.00481412
0.0965992
0.0606912
0.120736
0.0105531
0.00889235
0.008776
0.00237376
0.0012996
0.00223381
0.133218
0.00159595
0.00163087
0.001584
0.0603561
0.0467313
0.00887356
0.00188996
0.0232551
0.0107428
0.00152289
0.00130066
0.00170006
0.00379968
0.00404001
0.00154176
0.00290137
0.0881025
0.00182063
0.00363211
0.0366826
0.0380446
0.0279698
0.00143444
0.0059786
0.00181766
0.0230387
0.00273387
0.0424728
0.00254369
0.001339
0.0359823
0.00877242
0.00146611
0.00234794
0.00844635
0.02878
0.0238814
0.033284
0.00364845
0.00543178
0.00249951
0.00155259
0.0783777
0.00105163
0.00433731
0.00270855
0.14471
0.137572
0.00354327
0.00294404
0.0617044
0.00908874
0.00490018
0.00614319
0.00209123
0.00192106
0.00159231
0.00149317
0.0194396
0.0768757
0.00519884
0.00127119
0.00225216
0.0495392
0.00188111
0.00427149
0.00211769
0.0318298
0.146333
0.00174843
0.00266383
0.00249415
0.00181664
0.00133098
0.0859964
0.00283951
0.00158386
0.0461566
0.00542604
0.00651259
0.0998679
0.00388726
0.00185586
0.0028341
0.142198
0.00112197
0.00493447
0.00162064
0.107064
0.025427
0.0322702
0.0359757
0.036116
0.00739296
0.00951131
0.00803213
0.0029162
0.010405
0.00136236
0.0187201
0.0183865
0.0146205
0.00105681
0.00581629
0.0014546
0.0145651
0.0139408
0.00103274
0.00363005
0.0481648
0.00840743
0.00284905
0.00228457
0.00369177
0.0546915
0.0807056
0.0497555
0.00311808
0.0284293
0.00148875
0.00181659
0.00261103
0.0134396
0.00384785
0.00132465
0.0475429
0.00249971
0.01116
0.00510357
0.0480566
0.0512916
0.00786842
0.00148152
0.140455
0.00153141
0.00320198
0.00447264
0.00427981
0.07463
0.113715
0.0148652
0.037565
0.0016865
0.00170181
0.00515507
0.00287644
0.0563122
0.0436573
0.0408722
0.13212
0.00182287
0.0300339
0.00136249
0.00439301
0.028327
0.00247636
0.00214606
0.0014692
0.0010821
0.0239372
0.0667859
0.104326
0.0240495
0.00213213
0.00343485
0.00162609
0.113309
0.0361924
0.00333664
0.149542
0.00339856
0.0230453
0.00332305
0.00291349
0.00854389
0.00952996
0.0755658
0.00919921
0.00991144
0.00347933
0.00442648
0.00925053
0.097777
0.00381878
0.0690316
0.00252056
0.00161108
0.00187908
0.0505927
0.00562171
0.0563909
0.0107497
0.027342
0.0355292
0.0126852
0.00139545
0.0018869
0.00465615
0.00782393
0.00347833
0.00574531
0.00209602
0.00152082
0.015366
0.00146494
0.00350041
0.0640829
0.00581077
0.00153059
0.00474484
0.142566
0.00814686
0.00162501
0.00324696
0.00103385
0.041672
0.0030097
0.0745926
0.0640158
0.0108087
0.00187026
0.159474
0.00147355
0.00163205
0.0033435
0.00261257
0.00262674
0.00157465
0.00371243
0.108521
0.0201477
0.0811984
0.00728604
0.00374183
0.00222591
0.0191475
0.0106748
0.0744582
0.00158674
0.0111384
0.00922225
0.00174585
0.00336001
0.00167909
0.00157811
0.059529
0.00104373
0.104128
0.014787
0.00534298
0.00166069
0.00435825
0.01435
0.0314905
0.00199516
0.0146391
0.00201567
0.00100485
0.00998907
0.00153899
0.0104626
0.144065
0.00189077
0.00737454
0.027694
0.000988471
0.00189166
0.0148962
0.0150178
0.00497763
0.00131054
0.0637251
0.0484562
0.111231
0.0896265
0.0285192
0.00151284
0.0108199
0.00165265
0.120799
0.0471251
0.00201471
0.0365041
0.165323
0.111367
0.0505229
0.00271094
0.0677963
0.00158571
0.0362259
0.0272857
0.00774705
0.0387264
0.00268154
0.0699448
0.149459
0.0650457
0.0127955
0.00503164
0.0219194
0.00144597
0.0473589
0.00780203
0.0160054
0.00151734
0.0334062
0.104977
0.0599299
0.0750372
0.00340084
0.0687378
0.0571956
0.0255999
0.00280825
0.142668
0.00803262
0.00885387
0.0540383
0.00166571
0.00161433
0.00305708
0.00260021
0.0221772
0.00536941
0.0443057
0.00350385
0.00361414
0.0369784
0.00292505
0.00505005
0.00242074
0.0133762
0.0629452
0.00164055
0.00883258
0.00297871
0.00187465
0.0783694
0.0628212
0.00122283
0.00153479
0.00860904
0.00605522
0.0278853
0.00183164
0.00248803
0.110861
0.0920378
0.0402962
0.0991875
0.134264
0.0600668
0.00960296
0.00152472
0.0147048
0.0432778
0.00230706
0.0845875
0.00304035
0.00508956
0.0445913
0.0164888
0.0625663
0.00306849
0.0177266
0.00651299
0.0631808
0.0384977
0.00118073
0.00147543
0.132288
0.00893601
0.00759732
0.0153918
0.021249
0.160309
0.0352894
0.00293402
0.00299223
0.0109833
0.00212083
0.0371005
0.00164167
0.00458774
0.0251451
0.00125413
0.0265279
0.00179702
0.00240613
0.00142476
0.00270009
0.00151388
0.00151759
0.0706297
0.017607
0.0225481
0.0772052
0.0653735
0.0151064
0.00462427
0.0598092
0.0133929
0.00419416
0.00493881
0.00266657
0.00360145
0.0131167
0.00257385
0.00213335
0.0103329
0.0184303
0.00385278
0.00175841
0.00181899
0.0189142
0.077099
0.0666425
0.0674128
0.0129162
0.00127845
0.00335398
0.061744
0.00128149
0.107211
0.00455131
0.00210017
0.00462546
0.00389607
0.00399247
0.00322637
0.0285649
0.01081
0.0776751
0.00359118
0.0624729
0.0272556
0.0132458
0.00312799
0.0961374
0.0242988
0.00118144
0.116273
0.0413976
0.0162261
0.0015872
0.00487538
0.00302952
0.00920574
0.138613
0.0016495
0.0083051
0.0268448
0.0674465
0.0104434
0.0151862
0.0566142
0.0219462
0.00125356
0.023756
0.0804141
0.00653415
0.0806326
0.0114083
0.00981802