/*--------------------------------*- C++ -*----------------------------------*\
| =========                 |                                                 |
| \\      /  F ield         | OpenFOAM: The Open Source CFD Toolbox           |
|  \\    /   O peration     | Version:  v2012                                 |
|   \\  /    A nd           | Website:  www.openfoam.com                      |
|    \\/     M anipulation  |                                                 |
\*---------------------------------------------------------------------------*/
FoamFile
{
    version     2.0;
    format      ascii;
    class       volScalarField;
    location    "550";
    object      omega_0;
}
// * * * * * * * * * * * * * * * * * * * * * * * * * * * * * * * * * * * * * //

dimensions      [0 0 -1 0 0 0 0];


internalField   nonuniform List<scalar> 
13917
(
0.0419725
0.0221614
3.05681
0.0230375
0.0221092
0.436826
3.80642
3.19066
6.59945
0.073205
0.186014
0.0736451
0.0231027
16.9477
0.0263601
0.0251833
0.0222755
0.0627311
0.0719181
0.0221146
0.0222679
3.85005
0.0220951
2.50238
0.0220104
3.75167
0.0417331
0.0542829
0.857768
0.127011
0.0453549
0.0287411
0.0360564
0.0256295
0.0220266
0.34235
0.0221038
5.78682
0.0246911
6.67553
0.0219089
0.0222861
0.0215658
0.0837736
0.0220112
0.0273684
0.0618104
0.0859991
2.76416
0.0220206
0.027242
0.0223422
3.08896
0.026029
0.0222923
0.0274114
0.185846
0.0220221
0.0252093
0.0219734
9.28044
0.0221624
26.9663
0.0221031
0.39777
20.6595
0.0221044
0.0220462
0.21456
0.0377627
0.0221167
6.40324
6.20445
0.0220175
2.8788
0.0858383
7.25103
0.0226651
3.79105
0.0222384
0.0222061
0.0221119
0.387745
5.94184
5.06082
0.0225455
0.0221816
20.8811
0.0268786
0.021555
6.24316
0.104694
0.0218602
0.023008
20.7566
0.37191
0.148387
0.0779529
0.152379
0.108693
0.0218163
0.0323701
0.0832656
0.0230202
0.02179
6.65094
0.5208
0.0915726
0.0222819
0.048794
5.85803
6.35143
0.0963476
6.64162
0.0229637
3.4558
0.0220116
1.49188
5.9359
0.025991
0.0222747
0.213956
5.55085
0.0513663
0.0219837
0.0228255
0.0219965
0.0219918
0.0215946
0.411544
4.97196
0.0228782
0.0220406
0.0222752
5.07263
2.22367
0.0427093
0.114743
0.022097
0.0258593
0.311597
0.0217416
0.022564
0.10633
0.0220453
5.75438
0.917575
0.0222878
0.021719
0.0294004
0.0652872
3.24323
0.103887
0.0429325
0.0277208
5.46777
0.0360481
0.436891
9.6218
4.96419
0.0242372
0.0415221
0.0222382
0.14209
0.0948424
0.150026
0.0229862
0.0708571
0.0218643
0.0333943
0.0433525
9.31617
0.104624
0.0225896
3.61478
0.0474638
5.02454
1.94281
5.2837
0.0219139
0.111308
0.0475293
0.0217346
0.0221729
0.0301965
3.12737
0.510146
6.49865
0.0405602
0.1419
0.348344
5.18733
0.451857
0.0221051
0.116295
0.0406237
0.0224894
0.0218679
0.265346
11.8501
0.0260294
0.0220358
0.0649353
0.064472
6.5133
1.12577
0.0220298
0.0220338
0.0763595
2.6539
0.022473
3.92397
8.5823
0.142472
0.0217982
0.643826
0.0651444
8.38005
0.0219665
10.1478
0.0219081
0.112637
0.0218982
6.06257
6.78145
0.0255446
3.08287
0.0281647
0.0218033
0.333588
0.102428
0.0399528
1.78859
11.7001
0.0217706
0.0293389
6.38367
4.98048
0.0222305
0.0219516
5.48882
0.167787
0.0222668
0.277228
0.124435
0.0402203
0.0389571
0.0222304
0.0467917
9.14058
0.02179
0.146559
0.144435
0.0219707
0.0220133
0.0806594
3.98457
0.0970707
0.0305446
0.0265568
0.0222713
7.39852
7.49168
0.288313
0.0218113
6.38837
8.08533
0.463926
3.83018
0.0916606
0.022217
0.0219377
0.0621867
5.96297
0.154048
0.0248613
1.59417
0.0434535
0.021589
8.79173
0.0220909
3.68846
0.0255288
0.022262
0.0277076
0.0425926
0.0425513
0.286643
0.0330283
0.0219115
0.470663
1.85904
7.5067
0.0219679
0.560384
0.0221734
0.021904
0.0220194
1.32639
0.0221061
0.125005
0.0378073
0.0218455
0.0650554
0.0231581
2.19205
0.0460381
0.0945319
0.0217571
0.0220054
5.9666
6.46863
0.0220057
0.0219177
8.94305
0.0218934
6.16963
0.0217562
6.20949
0.0220926
0.675302
0.0355948
2.96454
0.0239504
3.37326
0.327919
0.0277186
0.168154
0.631483
0.0222456
5.30851
0.117776
6.84015
0.0248265
7.00958
0.0302587
5.44552
0.275838
0.123072
0.119299
3.52661
0.022219
0.0453294
5.7525
0.0221538
0.0234891
7.57175
0.327258
0.0225252
0.317697
0.776888
0.0218602
6.51765
0.334645
0.0220845
0.0218941
0.0221809
0.0217123
0.463621
4.74732
0.582536
5.7525
0.0220166
0.167986
7.11998
0.0477715
4.00796
6.0914
6.80128
0.0217628
0.277694
0.0218732
10.6369
0.0219736
3.71455
0.124191
0.0241583
0.0222008
0.0713604
0.123337
0.0904545
7.58736
5.43173
12.8812
0.0489979
0.0677484
0.0219596
4.95394
4.01807
0.0220396
1.56493
0.0220428
0.411393
0.0220925
0.0222288
0.0231819
3.59198
0.0231415
3.79615
4.91584
0.166176
0.469381
0.0222294
0.493148
0.428844
0.0220406
0.364846
0.0221438
0.0220284
0.127143
0.0222616
0.0220146
0.0218691
0.434474
0.0222493
6.1522
2.84326
5.80021
0.450518
4.0278
8.32111
0.0469432
0.0220231
0.232626
0.0245151
0.0308834
0.022098
5.39886
3.30067
1.78129
0.0251489
0.141542
0.0245396
0.0251428
0.0899992
0.0229411
0.279485
0.0222716
0.0220972
6.2602
4.94217
4.97046
0.158583
6.81198
5.44214
6.00799
7.00814
0.0216261
0.0688318
0.0230045
0.0220641
0.669023
0.0631019
0.021815
0.0744222
0.0444185
6.99273
0.0220365
0.147995
9.85171
1.17108
4.93271
0.0222567
0.0220431
0.0224491
0.0362376
0.0217649
2.181
0.501226
0.0328423
5.01582
0.0273244
0.143784
6.12086
0.942804
0.160195
0.322599
0.147338
0.0711425
0.216914
0.0458466
0.180257
0.582419
0.0519894
0.101862
0.021852
2.42307
0.0282361
0.0216015
0.0346226
0.0227639
6.65719
6.57149
0.0218897
0.021604
1.74662
11.6786
0.0222618
6.45646
0.0225874
0.313673
0.0219012
6.82556
0.488786
0.0293308
0.0222808
4.06953
0.374305
7.69863
0.0222694
8.35034
2.26533
9.10328
0.0216106
5.05178
7.33573
0.0476655
0.0218871
0.022273
0.0855525
0.439048
0.0217571
0.021901
0.0219606
0.021955
6.95646
0.772517
0.0468786
0.499001
0.0219756
0.021824
0.13926
7.12955
0.0361322
0.0218749
0.0220244
0.0220654
8.93839
5.4004
0.0221755
0.0220648
0.273771
0.0458091
0.0355537
0.0220428
0.0232641
0.0275439
0.100006
0.499206
0.516272
0.236053
0.126271
1.04646
0.0919186
0.0219786
7.85801
0.022069
0.0238046
0.0239411
2.40932
0.0832841
0.0218303
1.16604
0.146544
9.90695
0.127687
0.0362729
0.0470534
0.0221922
7.40946
0.776037
5.10499
0.0221885
0.0309776
0.498304
6.20925
31.282
0.0831913
0.188174
0.0250872
0.0242404
0.0220424
0.0561848
0.090169
0.0221664
0.0643871
0.138096
4.98885
7.04324
0.024143
0.139419
0.458524
0.0288661
0.0223799
3.38874
6.74521
5.44306
0.436894
0.0216091
6.53022
0.0836287
0.0218669
0.033532
0.0916135
0.0346713
0.12424
3.82879
0.211166
0.0396468
7.35225
0.0230821
8.4668
0.0222391
0.022169
0.546204
6.7162
0.666323
0.0230701
0.0225466
0.0220681
0.0443406
3.22201
0.140881
0.0244869
0.148899
0.0701964
0.0219068
3.32337
0.136872
0.281083
0.0219484
0.204309
0.0227233
7.12892
0.0748739
0.0815632
0.0314137
0.0218822
0.0216339
0.022026
0.132813
0.0277186
0.45193
6.77136
0.0702268
0.0218697
0.20839
0.721154
0.369869
0.0217752
0.0271389
0.021909
0.028625
0.0253977
7.26632
0.0222307
9.81148
0.0284583
0.185157
0.105723
6.19834
0.0859315
0.0222201
6.03342
24.4557
0.0220187
0.0238304
0.60835
0.334721
0.153709
0.0222376
0.0223096
0.483958
0.0242978
0.0896828
0.0756735
0.021634
0.0640121
2.88972
0.0217511
0.0225786
0.0219805
6.24898
0.0222668
0.0247297
8.40664
0.023346
6.56005
0.0278571
0.036731
0.0219731
0.0532702
0.0220279
0.0685294
0.0218879
0.096927
0.0225864
24.2621
3.06447
7.13375
0.0223347
0.0222086
0.0863158
0.0527342
6.04736
7.15532
0.0619749
0.0220308
0.430236
0.743222
0.279239
0.447637
0.0589412
3.57082
0.0412673
0.0411011
0.199444
0.2046
0.0608819
1.14006
0.060016
0.0231168
0.0978192
0.0278367
0.0216599
0.028402
0.0486678
0.0286774
0.0220348
0.0219312
0.0704065
0.0231442
0.0906494
0.0220335
0.0220575
0.0222742
0.0231678
0.02151
0.0262204
0.0220007
6.99524
0.0714163
0.344839
0.0217903
0.0222481
0.0490834
0.0728983
0.0226995
8.43204
0.0918545
11.4843
0.0285727
0.163635
0.0222854
0.0222699
0.0219376
0.0231668
10.0018
0.0222558
2.50671
0.0266113
6.50143
0.0517029
0.0938814
0.180869
0.0216589
0.022291
0.0731072
0.0220454
0.0223775
8.34527
0.0227025
0.0221816
0.0288664
0.021945
0.0216614
0.028764
0.0285398
8.08104
0.036472
0.0217482
0.0218817
6.41717
0.131546
0.0221748
0.0221887
8.48386
0.530726
11.7885
0.0363789
0.0231425
0.0217822
0.021643
0.0532371
0.0377431
0.300524
0.0251858
5.27896
0.0222649
0.0236471
12.6094
0.0220497
0.0283732
0.0219777
0.0220813
0.0468138
0.0431263
0.0223929
6.53582
4.61247
0.108114
0.0219745
0.0215556
0.137967
2.5139
0.0222613
0.675002
0.0215585
0.0457819
0.02161
0.0216978
0.456349
0.0218966
0.393107
0.0430234
0.022274
0.0215983
0.0220684
0.0219076
0.0225083
4.01876
0.0217378
0.021713
6.24861
5.98386
0.0414185
0.0508353
0.0838084
0.0252559
0.0217573
0.0282234
6.76252
0.103328
0.0221325
0.0222229
7.0592
0.0398647
5.67621
0.0222674
0.0228051
7.44014
0.0362471
0.022465
9.55357
1.64839
0.0219041
0.178878
0.021935
0.0218805
0.0217772
6.16782
0.0215036
0.0217234
0.0217506
0.385782
0.0241136
0.310461
0.0629349
0.0216808
0.0329529
0.0221753
5.70669
0.0219671
0.021747
0.0221829
0.14356
0.022175
0.210996
6.1426
1.31312
0.0266214
0.329578
7.27828
0.0220006
7.47931
8.38021
6.5526
4.07702
6.30832
38.0246
0.193802
0.0222921
3.88241
0.0362249
4.33457
0.0216107
0.0218533
0.0221739
0.0221686
0.0261777
0.0312349
5.77097
0.0218443
0.0220721
7.06621
0.351705
0.0220679
0.0374359
0.0311156
0.0221108
2.86924
0.0377599
0.0237695
0.0240682
6.18963
10.869
1.28054
0.0216027
0.379332
0.146535
5.82815
6.94135
0.101852
0.021897
0.0223443
0.0222676
0.0214806
0.023251
0.0216197
0.0276818
0.0400347
5.13104
0.169122
0.0217392
0.158618
6.08389
0.0442779
0.0222864
7.95584
0.0218315
0.0222996
0.0378831
5.51901
0.0221743
0.0219484
4.06619
0.298285
0.433915
0.138804
0.342331
0.0219244
0.23467
0.0223174
0.0220015
0.0223253
2.88623
8.6967
0.0216981
0.0215926
0.0219955
0.579491
0.0230157
0.0312014
0.0220456
0.0224035
0.228071
0.021688
0.0706475
0.438619
4.91687
0.0219449
0.0935139
0.0243474
6.30347
6.05374
0.022018
6.09239
0.0908005
1.44828
0.0221735
3.70501
0.0222458
0.0272082
0.0453183
0.13932
2.25509
0.295161
0.188185
6.90591
0.0218634
0.381995
0.0216882
0.0278315
4.25118
0.0220724
0.0222533
0.0227851
0.0221012
5.0198
0.0216567
0.022086
0.065188
0.0517216
0.0590778
0.60561
0.14925
9.49349
0.0712425
0.0387776
0.0400017
6.18293
0.042889
13.732
3.80617
0.0253027
0.0216824
3.75339
0.281073
0.0222922
0.1455
0.0366782
0.0220828
0.0266509
0.0221363
0.04514
0.0222921
0.0579064
0.111982
0.0218816
0.0731664
0.0217432
0.0637806
0.0218833
0.0261572
0.0701861
0.0232879
0.0219691
0.0217089
2.1571
0.0948581
6.26386
0.0220132
0.0221042
0.0714391
0.021979
0.117162
0.0954325
0.022085
0.12495
0.0217298
9.76464
0.0222543
0.039087
6.86315
0.363966
0.0219313
0.0236359
6.8131
0.0220045
0.0219212
5.5241
6.11002
0.0242535
0.179657
0.0221051
0.0219573
2.51859
0.0230055
0.021669
0.371235
0.0217385
0.43682
0.0221999
0.0216746
0.0221737
0.152749
4.41333
0.0221058
0.0222477
0.0219255
0.0260675
0.0220784
1.04776
0.0701069
0.0222689
4.91155
0.0517973
0.408355
5.4794
3.49845
0.0216864
0.0222383
0.0220278
0.881064
0.0265313
4.48743
7.90759
0.0239404
4.45247
2.38091
0.0585404
0.1681
0.0758808
0.399714
1.94832
0.0677575
2.58159
6.02486
0.073037
0.0253138
6.06986
0.0549199
0.0216215
0.0231783
12.0845
0.0395088
0.0218829
0.0557084
0.130493
0.0403613
5.89211
0.0238051
6.79912
0.0406165
0.271056
0.167677
0.409283
0.0302246
0.0217255
0.0225612
2.16384
0.0219974
0.0241255
0.0217882
0.023273
0.0218403
0.0358795
0.175838
1.83266
0.0458567
0.0574489
1.25672
0.430159
0.0218267
0.528244
2.41269
0.0217044
0.0219119
0.0326367
8.66219
0.0222552
0.0866035
0.7845
0.0510009
0.0220537
0.0227974
0.0217438
0.146
0.0408552
0.0219918
32.3776
3.6378
0.0446572
0.807096
0.0737591
11.8399
0.0232743
0.0255895
0.632834
0.834122
0.102877
1.84994
0.0292552
0.022277
0.0218438
0.0221505
0.0220256
0.0226087
0.0560883
0.0219396
0.15107
0.0219441
0.0295509
0.021671
0.0933221
0.145766
1.59592
0.0219897
0.40473
0.0218454
0.513918
0.0220373
0.0255978
0.0221265
0.270155
6.4304
0.161569
0.0219328
0.169555
0.0220065
0.0309257
6.14143
0.0218638
0.0223442
0.0497093
0.0334568
4.24135
0.0219403
0.030083
0.0226978
0.0220436
0.0324177
0.0224503
0.0217439
0.0236614
8.15354
0.0246035
0.327383
5.31172
0.0609102
4.36761
0.024313
0.02175
0.0313048
11.2356
0.0229278
0.0375786
0.0467526
12.2386
0.021893
5.72923
0.0751005
0.0877745
0.0216931
0.0216148
0.182525
0.0224027
0.0222864
0.0337283
0.0216247
0.0243883
0.0296494
0.0833725
0.264672
3.58771
0.0245328
0.0898492
0.393856
7.83732
0.0397611
0.298215
8.25515
0.0443445
12.2578
0.0236747
24.1786
5.87535
0.0215926
0.022262
0.0219575
0.0223365
0.0489202
0.0216655
0.0239418
0.101344
0.0232427
0.0360025
6.22057
0.0302674
0.0240569
6.59475
0.0224777
6.42394
0.0239824
0.0561236
0.0218826
9.01901
8.20153
0.0220055
0.0224537
3.39708
0.0295294
7.70188
0.0220239
0.0217321
4.82133
0.0224997
0.0451769
7.14735
0.0220664
0.0643287
0.0303191
0.0216088
0.0219046
3.7379
7.58794
0.0221578
0.0233624
0.0220414
0.027066
0.0361436
7.29159
0.0226473
2.53457
0.514028
0.276594
1.14841
0.0224614
0.1388
0.217162
0.0291667
0.0220626
0.0693798
6.12039
0.02337
0.0476289
2.95067
3.68233
0.275848
0.0252436
0.0222424
0.0222471
0.0220689
10.0964
0.0654074
0.023604
0.022541
0.0244912
0.0222709
0.0219673
0.022043
0.0882609
0.0386605
4.33868
0.0478339
4.96935
3.78126
0.0308295
0.0595111
0.0218088
0.0289157
10.7741
0.022105
0.023601
0.0600621
0.153599
0.0553865
2.81898
0.302144
0.0218394
5.71582
0.0215758
0.022155
0.0474354
0.0222743
0.0217818
0.218121
7.23607
0.0217446
1.08084
0.0220851
0.0216762
0.0235058
2.63037
0.0301521
0.0239248
11.189
0.022906
0.298058
4.07049
0.0222462
0.0490721
0.0220122
6.49201
0.0885758
0.0220445
3.02641
0.0642006
0.081981
0.0222792
9.05502
0.0293041
0.341287
0.0225483
0.0757824
9.30164
0.0217037
1.52667
0.0220971
0.0741906
0.0530821
0.0222453
5.0931
0.0236214
0.150366
0.0686306
0.0971977
0.0417023
0.0453103
0.0225759
2.97201
0.0322423
7.4742
0.0301579
0.0750767
0.0219274
0.0472896
0.0220411
0.0759346
1.69419
0.0227278
0.0218139
3.36039
0.0227133
0.394315
0.0224045
1.36152
0.279768
0.0365925
0.0219938
0.0219421
0.0221118
0.0216167
0.134143
0.05948
0.0389862
0.0261458
0.0220845
1.73358
0.0234546
0.0351679
0.367836
0.0220295
9.99688
0.0599675
0.029432
1.29422
6.15655
0.569691
0.963204
10.5965
0.0218852
0.47212
6.43386
0.358179
0.0221746
0.0222157
0.14014
3.40985
6.07136
1.00971
0.0220043
0.0519172
0.0452319
4.12704
4.89763
0.0469505
0.160554
0.0239813
0.0946429
0.101976
0.0221665
0.136774
8.3589
0.0221325
0.473804
0.0222538
0.0218829
5.98668
6.29199
0.0218497
0.0220605
0.0224222
0.021747
0.0515828
0.224831
0.02278
0.0219918
0.0221002
0.0429378
0.0287283
0.0283566
0.527427
0.0220263
6.45037
8.90689
6.39532
0.16966
0.0601386
0.419304
0.0362017
3.86385
0.403104
12.2162
0.0223976
7.07544
4.03979
0.0217652
0.0220387
0.132588
5.53395
9.75579
0.0216753
0.0220122
4.89364
10.4827
11.635
0.0240881
0.0239541
1.80057
0.0221746
5.41928
5.83027
0.359962
7.50714
0.0220589
0.0219226
0.0218882
0.0262067
5.37785
0.0440768
0.0253265
0.0226361
0.0981562
9.41864
0.0428445
6.06215
5.93794
5.59151
2.13159
0.0220522
0.0221734
1.21671
0.0216474
0.0216223
0.0230482
3.07696
0.0416098
7.11104
0.177969
0.0220288
7.20101
0.0424213
0.021847
6.97804
0.182218
0.0251042
0.0219356
4.97243
5.83963
0.0221821
7.81854
0.521847
5.60705
7.1201
0.0967006
0.0219224
0.0224903
3.02252
0.0259284
0.948454
0.045223
8.8
0.363232
0.0228782
0.0292801
0.0219164
0.0226799
5.36536
7.83623
0.0220686
5.56258
0.0478603
0.0220196
0.0248934
0.0219366
0.216277
0.022406
2.35963
0.0537787
0.0219132
0.0218749
0.0944381
9.48528
0.0438084
0.0240907
0.0466093
0.0220371
0.0230817
0.0277755
11.7344
4.74154
5.66055
0.0217109
0.0218679
0.0223337
0.140613
0.0218745
0.0223777
0.217874
0.0703123
0.383555
0.0215827
6.01838
4.67594
0.0222842
11.3011
0.147342
0.0394385
2.04227
0.0222791
4.9707
0.0297719
0.0230555
0.0239168
0.0216436
0.269328
0.0224848
0.0224315
0.0307562
3.88908
4.43263
0.0222469
0.0220247
0.0235561
0.0219487
0.18066
0.0224155
0.106766
0.0234037
6.06564
0.0224099
4.9692
0.0217113
7.1862
0.0223409
0.0216258
5.89516
0.356491
0.111426
0.351772
0.044745
0.0460517
0.0220445
7.08361
0.0220648
0.0218813
0.0880333
0.0705989
7.67574
5.6387
0.163784
7.37289
0.175601
2.64654
0.0218237
0.0251194
0.0284924
6.39026
0.0248889
6.08751
5.2805
0.0219989
0.0220684
0.0220016
2.44203
3.3566
0.0232528
0.0221124
0.0259872
0.0291072
0.0425686
0.468786
0.405409
0.0220659
0.543932
0.106405
10.8358
0.0904889
0.0233042
0.0239722
7.19958
0.0218853
0.114701
2.46762
0.0227105
0.0257345
0.224372
0.13139
0.0227542
7.71369
0.0245139
0.389879
0.0416249
0.0306812
0.0225427
5.76486
0.0218603
0.106881
1.50005
5.44195
0.0576369
0.0778902
0.0254993
0.0496068
0.0222666
5.45791
0.0269114
0.0218799
0.0314804
0.0220937
0.0222693
3.09238
0.0220701
0.0221794
0.0220331
0.164442
0.022247
0.0341595
0.0883273
0.329621
0.155651
0.0222543
0.284417
0.513601
0.318078
0.105765
0.0273183
0.209237
1.34931
1.05969
0.0222845
8.16704
1.88254
0.0222839
0.0242398
0.0216354
0.730646
0.13543
0.0219041
1.41281
6.16109
0.0218102
0.0222143
3.23885
5.08938
0.0726749
0.0216446
11.8758
3.74199
3.18408
0.0220307
6.49045
0.0930216
0.0746859
5.57442
0.0266629
0.0216471
0.0317329
0.263447
0.0342219
3.13947
6.13603
0.0218074
6.80523
0.619747
5.80412
0.0217081
0.0504001
0.0222986
0.0219187
6.42343
0.786631
0.346133
0.463304
0.0296944
0.0590713
0.0222449
5.72654
7.09032
0.0220496
0.0222164
0.0318394
0.0216989
0.0597325
5.0531
7.84693
0.0600084
0.022414
0.0219651
6.6419
0.0251005
0.0628058
0.0217857
0.0229907
1.19861
1.07654
0.389346
2.90776
0.0221719
0.396725
0.0223353
0.0495108
9.26139
8.30902
0.0220751
0.022294
0.0369569
0.0257824
0.0221887
6.19675
6.27584
0.0217436
0.0214989
0.0221927
0.0219714
2.71761
0.0216699
2.96098
0.134078
0.0698859
0.0218306
0.0510622
6.17454
0.0364373
0.536169
5.29707
0.0222307
9.31237
0.0332418
0.0354303
0.429391
9.78634
5.96837
0.0670179
0.0218957
0.317774
0.021681
0.0252901
0.0221968
2.59034
0.0321256
8.65876
0.291686
0.0564845
0.0221261
0.432573
0.0274266
0.0222705
0.267577
0.021589
0.0381913
0.0372712
0.0221664
9.52931
0.0234226
0.549156
0.0228309
0.0219397
5.33056
5.39718
0.0241436
0.0324713
0.0421493
0.0644753
0.0675168
0.0261457
0.0261744
0.0254059
0.274193
0.0250794
1.83453
0.0638165
0.307949
0.133764
0.0224852
6.05519
0.0216017
2.97675
0.0242332
5.71079
10.2639
10.7197
8.3795
0.412055
0.0829761
0.0218792
5.36012
0.0925716
0.0220437
10.6181
4.95336
0.023285
0.0235538
0.0323489
0.032378
0.0344658
6.95725
0.022284
0.0296745
0.0371665
0.0327197
0.0221658
0.10121
0.0215855
1.58743
0.0236683
0.181263
0.0341026
0.0448434
0.154765
0.729558
0.108059
0.0218261
0.299512
4.61571
18.8346
0.0222149
0.931256
0.0302426
1.82527
0.0220648
0.0246655
5.97668
0.0566516
6.23832
10.0517
0.0335515
7.11237
0.0219593
0.0215721
11.8906
0.0591398
0.024548
6.2336
0.0276586
0.0473324
0.0296522
0.0842769
0.0221253
4.76805
3.21467
7.62028
0.374338
0.0258687
0.0635631
6.37096
0.0241201
0.0222936
0.0967893
0.0216831
0.335886
6.15064
7.9568
6.52224
0.0649286
0.0222759
6.69546
0.0215829
0.0908866
0.022237
20.2042
0.0238782
0.0495135
5.01588
0.159157
0.0220296
0.0325781
6.63102
0.0220764
0.186934
0.021767
9.637
6.01042
0.145788
0.08199
0.0219546
0.248218
0.165267
0.044478
0.0217729
0.0222716
0.0221475
0.0636238
0.0221256
0.102479
0.0221287
0.0217614
6.98047
0.0218343
0.0275302
0.0249531
0.0222755
5.16505
0.0218377
0.0348709
6.52279
0.0523958
1.65147
0.0220591
5.73721
0.0555719
6.44252
0.023637
0.155181
0.0219717
0.0467087
0.148661
0.134617
0.38442
6.28925
0.308013
3.00287
0.0269928
0.136139
0.0433581
2.67003
0.0251374
0.0219272
0.0220298
0.0597259
0.0485787
0.749733
0.0638664
1.59381
7.20321
0.0996369
0.0219944
1.49647
0.222114
0.0224694
0.0241148
0.0220661
0.929502
0.0220335
10.3327
0.0218238
0.0274831
6.74421
0.087161
0.0220461
0.022024
9.84312
0.0218537
0.0241238
0.0254796
0.0334166
0.0286393
0.0221465
0.177419
0.0824755
0.0451905
0.476987
5.40288
5.08119
8.13657
0.0217278
0.0219849
0.112262
0.022297
0.0486013
0.859255
5.44077
0.0216412
0.0220452
4.02105
0.406511
0.0216574
0.0218265
0.0266773
10.1511
3.43665
0.0272003
0.035323
0.0222026
0.457151
0.150579
0.146973
0.0318704
0.0458808
0.0224153
0.0415492
0.411504
0.0227608
0.0220777
0.0269532
3.23643
0.0253212
9.52022
0.0221102
5.93661
0.0377061
0.0280971
0.0217753
0.0219288
1.20074
8.23761
0.0583985
4.51984
7.61316
0.0225182
6.38908
0.163624
0.021881
0.678658
0.328384
0.146468
0.0222548
4.4029
5.65948
0.0218499
0.040819
4.98362
0.0480856
0.0220393
0.0217588
0.0223465
0.0238451
0.103169
0.404859
0.0777487
0.0957448
0.0217107
0.0221775
0.816112
0.0218226
0.0525139
0.0266551
0.0218893
0.0591197
0.0220287
0.0237704
0.429059
0.0220032
6.16592
0.0220239
22.66
4.97543
0.122745
0.0222279
0.0222928
6.47582
0.021632
0.024356
0.0223342
0.464469
3.4966
0.0368275
5.28563
0.0432048
0.429891
0.0225512
0.0848733
0.021714
0.0221428
5.84551
5.56433
4.19994
0.0238802
0.0861965
0.08557
4.96033
6.6117
0.416103
0.0423087
0.0215786
6.14894
0.0218511
0.0219175
0.37902
0.137473
0.0284632
0.217528
0.0489354
0.0323017
0.0286339
7.1944
0.024525
0.0219972
8.31954
0.0487596
0.0216959
4.07203
0.0220357
0.0221148
0.215681
0.19425
9.40846
0.0217149
0.024897
0.0219148
2.22644
0.0218517
0.524416
0.495445
4.85699
3.88472
35.0509
0.030438
6.25289
0.852852
0.0222124
0.0309969
0.0451344
0.0305745
1.24278
6.13144
5.46336
4.46219
2.35966
0.0221398
0.133457
0.022043
5.46155
0.0299282
0.022899
0.0242424
0.0226572
0.0218714
0.136847
5.52046
0.0217159
0.0237219
0.0218665
6.3262
0.0235431
6.91543
2.39701
4.38203
0.0220966
0.0218778
5.89044
0.366859
0.022142
0.378224
0.0222303
0.184355
0.204424
0.124701
0.0601038
11.5354
0.0217843
0.0217082
0.243625
3.84892
0.03075
0.0500283
0.0219313
9.7079
0.0220156
0.0219574
0.0231729
0.0219906
4.93545
5.94564
0.42075
0.0656179
6.41201
0.736889
0.02165
0.0329208
0.021684
1.25579
0.0218933
0.0249722
0.0219986
0.021924
0.021722
3.30347
0.0225255
1.7054
0.0215317
0.0326244
0.022863
1.52322
0.022051
0.0337827
0.0372066
0.0786655
6.44354
0.0219197
5.28298
0.0807579
0.0477021
0.0219065
0.0219511
4.25482
19.6164
0.0219027
0.0218398
0.339678
0.278119
0.0382821
6.11277
0.0227492
0.347399
0.033077
0.0216964
3.46016
0.0226155
3.9216
0.0220276
0.022665
0.0221236
5.91331
4.84344
0.0216632
0.250463
0.249891
0.0220622
0.0218234
0.0219052
0.270282
6.51635
0.0750291
0.023866
0.0431459
0.0220346
0.022042
0.0237618
0.0220086
0.234851
0.0220551
0.0728589
1.18466
0.0384259
0.0216111
0.663671
0.0929712
0.0220435
0.0968907
0.0324491
0.407658
0.024563
8.92813
0.0671663
0.0219816
0.11025
0.110423
0.0248719
7.1162
0.0680991
0.0294309
0.424165
0.0219293
0.190887
0.0924047
0.15671
0.0219444
0.0219682
0.0216288
0.0329522
0.0640114
0.0631186
6.67837
5.68689
2.48225
0.0222677
2.00364
4.74968
6.67505
0.0219984
0.022013
0.0639951
3.77633
0.0242358
0.0382743
34.29
6.52599
21.0606
0.111212
0.223698
4.02007
1.06526
0.0215821
15.9566
0.336463
0.0222746
0.0222134
0.0228309
5.56111
0.124884
3.43884
0.0241257
11.65
0.0220893
0.616038
4.62572
0.0221937
0.0369662
6.10271
1.0287
0.0647334
0.0228342
0.023761
0.0223793
0.273351
0.143932
9.32869
6.67925
0.0217266
6.01507
0.224508
0.323513
0.0220315
0.0221662
0.362007
0.265183
0.0219544
0.0574702
0.0730471
0.0394796
1.45752
3.79704
5.94833
6.65059
0.0256975
0.0216259
0.0658572
5.12149
10.1604
0.0218647
0.316323
0.0948816
0.407991
0.0221571
0.0222577
1.28059
1.00945
9.4261
1.68402
4.47401
0.0219628
0.262375
6.57776
0.0222335
0.0621305
0.141733
0.0216705
0.214005
5.69544
0.249535
0.0222567
5.421
0.154611
25.5271
0.0214899
0.0234337
0.0221408
0.0227286
0.0221065
0.0600108
0.0417896
0.0440919
0.298275
0.036587
6.08864
0.0253889
0.0284902
0.028921
12.2109
0.0574537
6.56405
0.0287569
0.0279945
22.6084
0.0944455
0.0220681
0.0437598
1.61895
4.28326
0.413319
0.0219651
0.0219023
0.021922
0.451402
0.0231945
2.47241
1.33418
0.268544
0.0330743
0.392701
7.4565
0.0221047
7.69418
0.0343854
0.0517463
0.0219252
0.0218334
0.0633235
6.19929
0.0220815
6.2396
0.706298
0.0983197
0.263756
0.0218587
0.0220274
0.0316683
0.0226191
23.5407
21.1058
0.090688
1.18241
0.0219508
0.0220542
0.0221293
0.0222464
6.98216
0.0231079
6.08598
0.088174
0.022179
0.384365
8.4235
4.29408
11.3248
0.0234897
0.0216936
0.0221328
0.0230366
0.665875
0.267406
7.27292
0.0221578
0.0222294
0.178301
0.0222602
0.270597
0.0237083
0.16357
0.187531
0.0426806
0.0413721
0.0217067
0.0545951
0.0396629
0.242986
0.0816519
0.0438705
0.0218697
0.300623
0.0218802
7.14739
4.44529
1.00529
0.0220639
0.112476
0.0220098
0.0579047
0.0229566
0.0224274
0.0283391
12.0949
3.55751
0.080249
0.0502077
0.277461
0.0893087
2.833
6.30401
0.0315165
6.10427
0.47212
0.0218294
0.0570329
6.70759
0.0965479
0.0222381
0.0629396
2.20617
0.454447
9.64247
0.0220671
0.407089
0.0220975
0.0219271
0.0452225
0.348731
0.0222641
4.6851
5.47199
0.27903
10.1239
0.387907
5.73062
0.47719
0.0217093
0.0250774
0.0216046
0.0446234
0.383875
0.514493
0.0244623
0.0436437
0.0215822
5.78547
0.04329
0.0543778
3.89498
0.0995484
5.456
6.19319
0.0219616
8.10954
0.022118
0.0285054
0.0487979
4.60251
0.186467
0.027983
0.0228098
0.604783
0.0362496
3.2357
4.99518
0.0321745
3.7072
0.0489825
0.0222733
1.01207
0.0730336
0.0229969
11.6542
11.8652
0.0317189
0.0261033
0.152943
6.40071
0.0219541
0.022176
0.0216589
0.0217488
0.0223399
4.89498
0.0320873
6.09082
0.0219586
0.0218569
0.857964
0.022097
0.0234803
0.0220606
0.0220339
0.449577
0.0217238
5.26986
0.0218818
0.0229685
0.0433311
0.022179
0.139957
0.0217354
0.0222654
0.0217625
0.0287769
0.0921578
0.0243832
4.66573
0.021925
0.0451167
0.0314775
6.20765
0.0227638
0.0222695
0.0216084
0.0216596
0.459294
0.0219003
0.0218504
0.0247817
5.89804
0.0219375
0.0439982
0.0332249
0.0220077
1.49851
5.63883
0.313377
1.30864
0.0247899
0.132071
0.0221424
0.0989964
0.432236
0.0221562
0.438163
0.149375
0.57504
0.0312512
0.0220336
1.44881
0.0457712
1.18707
5.40388
0.0215223
0.0219812
8.55469
3.7007
0.0689278
0.0598687
0.0230829
8.12931
4.39195
0.0214926
0.0219689
0.0220328
0.0221757
0.0222496
0.0220366
0.0357231
6.83165
0.0316235
0.0221821
0.426616
0.0219904
1.19441
0.0478114
0.0218724
0.0285524
0.0219147
0.482781
0.024994
0.049439
0.0219577
0.0222173
6.13214
6.62436
0.0221779
0.0591678
0.0450173
0.0315822
0.0239443
0.0222714
0.022477
2.72199
0.797773
0.0417477
0.964552
0.0223017
22.5664
0.137475
0.0263583
23.5956
0.0230685
5.20218
3.58146
4.14272
8.59049
6.34033
4.67328
0.0215753
0.0281172
0.024783
0.0215964
0.0216754
0.0306708
0.0770142
0.0217332
0.02965
0.151376
0.0811353
0.292988
0.261365
0.0351653
2.96651
9.96067
0.0341244
0.0249615
0.149897
6.79885
6.04541
0.0256493
0.0215741
0.0218593
0.0217537
0.0341933
5.3274
0.493211
0.0216545
6.3805
0.0219837
0.159643
2.19819
0.0800309
0.251639
0.0866842
0.324974
0.0228227
0.033383
0.0218617
0.265612
0.0219608
0.0229941
0.0361849
0.1799
0.022179
0.0244727
6.80886
0.0218202
0.0219964
0.0291878
5.05651
0.154569
0.383355
0.0383025
0.0221505
3.74097
0.0373035
0.0233325
0.0220203
0.0313653
0.0272073
0.0220308
0.0276702
6.10607
0.0236185
0.0216196
0.0476039
0.0218806
0.0320484
0.0302506
0.022069
0.0219993
4.97232
0.0217008
0.0220342
0.0216386
0.0258788
0.0214614
6.63715
0.0263968
0.29869
0.0219627
0.0218433
0.0218929
5.95113
0.0720934
0.0220401
0.0215525
4.42661
0.0251121
0.0837684
0.0218577
0.203989
0.0234016
0.0215421
9.76476
0.0216689
0.0222502
0.0221493
0.0218884
0.0241754
0.0221275
0.022038
1.69464
1.42826
5.02911
0.276832
6.84444
0.021844
5.82934
0.0219691
3.02031
6.45661
0.021798
8.8144
0.0219811
4.45282
10.7341
0.256471
6.18844
5.87878
1.14947
0.356403
5.358
3.3108
0.045818
0.0458357
6.19374
0.0235136
0.0216439
0.859573
0.0239816
0.0283965
12.1527
0.0229848
0.300849
5.14082
6.89881
0.453398
0.148873
0.0222523
0.0283993
0.0486995
0.0222289
7.33653
0.46583
0.109055
0.0219016
0.0220702
6.3218
0.021671
1.39968
0.0218103
7.95143
5.31713
0.03353
0.0264228
0.0219908
9.43542
1.34456
0.025575
0.0348469
0.0222861
0.0222857
0.0670157
0.0231796
0.0320961
0.0715002
0.0243448
0.0350855
0.0220406
0.0324261
11.9761
0.0223509
10.5507
0.0219072
0.405799
0.0545998
0.0220402
11.1241
0.152309
0.0218444
0.165499
0.0220377
0.394312
0.0221823
0.0220111
2.89278
0.0221484
0.140545
0.0234236
0.168897
0.0218157
0.0223186
0.0218588
0.0302894
0.0242962
0.0222788
0.0225919
0.0253624
0.0224381
0.147106
0.0683967
0.0293107
0.0233813
0.0215639
2.30919
12.3584
0.0227668
0.0225154
0.0226384
0.0391039
0.0222021
0.0364963
0.0215518
0.0222853
0.288768
0.0233347
0.0222847
0.0219026
6.28871
8.49537
0.0215848
0.07864
0.0573733
0.339609
0.256855
7.22485
5.6115
1.19543
0.0228621
0.166644
0.0219294
0.0314499
5.89509
5.94247
0.146208
0.0239639
12.1383
0.0220436
0.0501591
0.474311
0.0222099
0.16091
0.0235014
0.0232836
0.0881348
0.170707
1.15157
3.82608
0.0218189
0.0215684
5.84215
5.08512
0.0222197
0.0293511
0.1446
0.0220586
0.0220175
0.0242081
0.344867
0.0217632
6.19465
0.0297703
0.0221737
0.26688
0.0831734
0.0761514
0.147117
6.30922
0.0244553
0.0382747
0.0273071
0.0237905
7.93828
0.0339384
0.578963
6.36348
0.0720682
3.32669
0.0497471
0.0506054
0.425759
0.0217123
5.86358
0.115084
0.0343781
0.0292973
0.0221804
0.0216259
2.03233
0.0457033
2.04197
0.48983
0.0221172
6.17333
0.0218341
0.0219514
0.0288953
10.0497
0.088077
0.0215946
0.761194
0.0219856
0.023845
4.0275
0.0237465
3.94229
0.0222733
5.55724
4.16417
0.0685522
6.82921
0.0233935
4.19827
0.0215628
6.66867
5.96911
5.40487
5.22579
0.0219469
0.0217728
0.322682
4.43958
4.35173
4.14135
4.34445
0.0221238
5.36106
4.11602
0.022394
9.75597
0.0316083
0.03421
11.789
0.0393036
2.81542
0.021928
0.0388357
0.0381614
0.28668
5.48936
0.0377689
4.2848
1.55282
0.0221735
0.0246753
0.0238483
0.0250425
4.40717
0.0220166
0.0217524
0.0403405
4.83751
4.5067
0.0293492
4.24564
3.88741
0.021956
7.26861
6.49786
0.218988
4.35414
0.0771126
0.0244605
0.022175
0.198801
0.0270114
0.0995352
8.89213
5.65647
0.0293507
0.0870616
0.0258291
0.0412458
0.0216453
0.0450468
0.0247508
0.113733
1.37954
9.83203
3.75757
0.0216028
0.150392
0.0731778
6.09129
0.023232
5.29576
1.8572
6.656
0.0219126
0.182694
5.29583
10.2327
6.18288
0.0375722
3.9635
10.7244
0.0744507
0.0824956
0.0242141
0.0295905
5.55361
0.0457967
0.0221881
3.88453
0.0219998
0.022173
0.145526
0.148079
0.021746
0.0995246
0.0248461
4.64176
11.2246