/*--------------------------------*- C++ -*----------------------------------*\
| =========                 |                                                 |
| \\      /  F ield         | OpenFOAM: The Open Source CFD Toolbox           |
|  \\    /   O peration     | Version:  v2012                                 |
|   \\  /    A nd           | Website:  www.openfoam.com                      |
|    \\/     M anipulation  |                                                 |
\*---------------------------------------------------------------------------*/
FoamFile
{
    version     2.0;
    format      ascii;
    class       volVectorField;
    location    "400";
    object      ddtCorrDdt0(U);
}
// * * * * * * * * * * * * * * * * * * * * * * * * * * * * * * * * * * * * * //

dimensions      [0 1 -2 0 0 0 0];


internalField   nonuniform List<vector> 
13851
(
(0.00333054 -0.000667288 4.13499e-19)
(-0.0680431 -0.0453801 2.17856e-18)
(0.00839478 0.0204685 -3.95782e-18)
(0.00322432 -0.000650793 -9.8983e-20)
(-0.00028404 0.0173919 -1.26046e-17)
(0.00992948 0.000336643 -1.72207e-19)
(0.000211507 0.00157964 -2.78763e-18)
(0.00675889 0.0131979 -1.03986e-18)
(-0.000864059 -0.00179546 5.84488e-20)
(0.0237825 0.0155427 3.53169e-18)
(0.0138554 0.0109013 -1.9912e-18)
(-0.0780874 0.0783166 -2.39212e-18)
(-0.0260016 0.00759371 -2.23004e-18)
(0.0153908 -0.104182 -1.32858e-17)
(0.000547257 0.000194475 -3.53762e-19)
(0.00911289 0.0051359 3.35117e-18)
(0.00359537 0.00525762 -1.82335e-18)
(0.00572614 -0.000189099 5.07481e-20)
(-0.0393529 0.0145166 -7.83127e-18)
(-0.00073543 -0.00172153 -7.13786e-20)
(0.00319976 -0.000617829 -3.7223e-20)
(0.00713147 0.0200373 -3.00013e-18)
(-0.000432992 0.000112053 8.19427e-21)
(-0.000478828 -9.84603e-05 -3.08566e-19)
(-0.000413567 6.68096e-05 -1.77245e-20)
(0.00749559 0.0132759 -2.3235e-18)
(0.000687289 0.00541139 -5.27119e-18)
(-0.00215136 0.00406439 1.48312e-17)
(0.00336085 -0.000616081 -3.56267e-19)
(0.00498646 0.00123841 -3.46638e-19)
(0.012286 -0.00156239 -7.48424e-19)
(0.0037159 0.00550908 1.66183e-19)
(0.00926705 0.0197636 6.42457e-18)
(-0.0361545 0.0569255 -2.75009e-19)
(-0.000503578 -0.000135962 1.49399e-19)
(-0.01031 0.0149509 -6.97148e-18)
(0.000730778 0.0097724 -1.84212e-17)
(-0.0380009 0.0273118 1.08806e-18)
(0.0252357 0.0169959 3.10093e-19)
(-0.0191968 0.0367378 2.94584e-19)
(0.00234206 -3.14596e-05 -1.23507e-19)
(0.00164334 0.000974597 -2.94722e-21)
(-0.000936539 0.00393431 2.24618e-17)
(0.0345487 -0.0115951 -8.44418e-19)
(0.0333373 -0.0095611 4.70066e-19)
(0.01604 -0.0289166 1.16937e-17)
(0.014931 -0.00258613 3.13523e-19)
(-0.0468116 0.0675306 7.27664e-20)
(0.000605767 0.00560015 -4.11554e-18)
(-0.00690762 -0.0423919 -9.02046e-19)
(-0.0037219 0.0144671 -6.70473e-18)
(-0.00470832 0.0178489 -1.68438e-17)
(0.000758602 0.00518732 3.00862e-18)
(0.000642337 0.000127604 -2.07074e-19)
(0.00149694 -2.39356e-05 4.00685e-19)
(0.00175062 0.000978228 6.13613e-21)
(-0.00173322 -3.85287e-05 1.41904e-19)
(0.00107357 0.00471151 -3.83912e-18)
(0.00482879 0.00120025 -1.48085e-19)
(0.000581655 0.00183965 2.79084e-18)
(-0.044207 0.0288515 8.68768e-18)
(-0.0380983 -0.0234529 7.32791e-18)
(0.0097339 -0.00351093 -2.04971e-19)
(-0.00160772 0.0179308 1.38813e-17)
(-0.0115462 -0.00911368 1.93283e-18)
(0.00326709 -0.000834329 4.96164e-19)
(0.00195567 0.00878841 -1.92982e-17)
(0.0055873 0.00462422 -1.31395e-19)
(-0.000271574 0.00972245 -4.3512e-18)
(0.00568053 -0.000319084 -3.09938e-19)
(0.0227837 -0.000322869 1.01792e-18)
(0.00555688 0.00676638 -6.00171e-18)
(-0.0535595 -0.0618295 5.25299e-19)
(0.000601891 0.000127437 -2.0246e-19)
(0.00148234 -3.94249e-05 -6.41359e-19)
(-0.000785172 -0.00285071 -3.79097e-19)
(0.00668515 0.0193618 2.02675e-18)
(0.0174372 -0.000959565 3.48535e-17)
(0.00128221 0.0133153 4.08807e-19)
(0.0236205 -0.000325579 -2.23147e-17)
(0.00104134 0.00247188 -6.12985e-20)
(-0.00335373 -0.00311366 6.2448e-20)
(0.00125055 0.000853009 -1.21769e-18)
(0.0136362 -0.0222803 -8.97429e-18)
(0.0104402 -0.00256586 6.50548e-19)
(-0.0764774 0.0748027 3.26664e-18)
(0.0065188 -0.00216347 -6.97804e-19)
(0.00786098 -0.0566364 1.44454e-18)
(0.00218946 0.00618776 3.83202e-18)
(-0.0024036 0.00233939 3.56382e-20)
(-0.0105679 0.0146222 1.50915e-17)
(0.00279289 0.00132921 4.81597e-19)
(0.00521282 0.00788241 -1.01206e-19)
(0.00200768 0.00756842 2.97084e-18)
(0.00193902 0.00606184 -2.35611e-18)
(-0.00141375 -4.04343e-05 -1.16478e-20)
(-0.000794395 0.0174622 -5.37626e-18)
(-0.00505405 -0.00831114 -4.16624e-18)
(-0.00711331 -0.0488533 6.93971e-19)
(-0.00124129 -3.36863e-05 8.46879e-20)
(0.0181751 -0.0287006 2.14015e-17)
(-0.000946595 0.0130966 -4.53857e-18)
(0.00340226 8.46588e-05 1.54374e-19)
(-0.00111573 0.00472708 -5.28661e-19)
(0.00106044 3.91621e-05 5.08459e-23)
(0.00507163 -0.0045231 -7.64096e-19)
(-0.00194367 0.0135087 9.66678e-18)
(0.00167568 0.000536879 -1.21678e-20)
(0.00921585 0.00462795 6.29396e-18)
(0.00965575 0.00246444 6.49713e-19)
(-0.000870976 -5.97596e-05 3.41597e-19)
(-0.00256948 0.00267591 1.7996e-20)
(0.00301043 0.000943003 2.5948e-20)
(-0.000103302 -2.77305e-05 -1.1225e-19)
(-0.000972003 -8.55573e-05 -1.83281e-19)
(-0.0769369 0.192235 -3.93757e-18)
(-0.0077952 -0.00661239 -2.17589e-17)
(0.00124478 0.000563827 -2.07775e-20)
(0.000921461 -6.25377e-05 1.39807e-20)
(0.00149102 -4.95282e-05 -4.88652e-19)
(-0.00150498 0.00501092 -2.02078e-17)
(-0.000935352 0.00471558 1.47927e-18)
(-0.0256506 0.00639936 4.71682e-18)
(-0.0841888 0.13042 2.07071e-18)
(-0.0290708 0.0627495 2.02037e-19)
(-0.00441778 0.0123957 -4.12137e-20)
(-0.0112195 0.062438 -7.7064e-19)
(0.000153323 0.0133066 1.13374e-18)
(0.00313228 -0.000630146 -3.23544e-20)
(-0.000130631 0.0207189 1.0971e-18)
(0.00229373 -2.29782e-05 -4.55147e-19)
(0.000604204 -0.000772676 -1.38349e-19)
(0.0226746 -0.000237846 -1.61754e-18)
(0.00118714 0.00083329 1.08185e-18)
(-0.0714483 0.231349 -1.09643e-18)
(0.000605052 -0.000261696 -4.59205e-21)
(0.00120071 0.000515658 -2.15252e-20)
(0.00401713 0.00717759 2.41125e-17)
(-0.0185013 -0.0439358 -2.45762e-18)
(0.0948875 0.0245497 3.15214e-18)
(0.0192425 -0.0247426 -2.25645e-17)
(0.00150652 -2.97776e-05 6.53656e-19)
(0.000897099 -0.00541376 -1.51079e-19)
(0.00202929 0.00287051 -1.84279e-20)
(0.00363871 0.0033735 -1.34035e-19)
(0.0325239 -0.0130753 -8.29286e-19)
(0.00359173 -0.000829667 1.48556e-21)
(0.00023742 0.0210762 9.81775e-18)
(0.000253882 0.00151529 5.33834e-19)
(0.0316337 -0.00414128 -9.04999e-19)
(-0.00674729 0.0117037 1.60171e-17)
(0.00150453 -5.50066e-05 5.71627e-20)
(0.0108269 -0.10185 2.94268e-17)
(-0.00174661 -2.69819e-05 -3.56811e-19)
(0.00180225 0.00399949 1.74702e-18)
(0.00366686 0.00321189 1.21553e-18)
(0.00168131 -0.00104226 -5.28818e-20)
(0.00431407 0.00162808 1.18338e-18)
(-0.00431003 0.0180984 1.55633e-17)
(-0.00338775 0.0145256 9.93368e-18)
(0.00254133 0.000348189 1.17027e-21)
(9.07949e-05 0.00746235 -9.44889e-20)
(0.000883326 0.00491343 -6.36859e-18)
(0.000522809 -0.0007762 7.0728e-20)
(0.00660199 0.00142317 -6.14444e-19)
(0.0016812 0.00191451 -4.6873e-21)
(0.00367191 -0.000968389 1.77846e-20)
(-0.000602842 0.00980737 -2.60478e-18)
(0.00310196 -0.000597808 1.3345e-20)
(0.00348132 -0.0190709 1.5414e-17)
(0.018032 -0.000942142 -1.94877e-17)
(-0.0016628 -0.000529968 -3.11551e-19)
(0.00173277 -0.000992113 -3.44182e-20)
(0.0908001 0.0232843 -8.39877e-18)
(0.000492842 -0.000711371 -1.30496e-19)
(-0.0534567 0.0502698 -1.03247e-18)
(0.000526483 0.0131253 -2.01309e-18)
(0.00176016 -0.00474149 -3.6218e-19)
(-0.037529 0.0130837 6.08757e-18)
(0.00187123 0.000572232 -8.76274e-21)
(0.00418696 0.00576916 -3.67985e-18)
(0.00558185 0.00640923 -1.7432e-17)
(0.00106301 0.000774445 -1.90395e-18)
(0.00639409 0.0207363 2.27131e-18)
(0.00167361 0.000121412 -2.94355e-21)
(-0.00129378 7.15917e-05 -1.34632e-19)
(0.00331085 -0.000876288 7.08064e-19)
(0.00150688 -3.81706e-05 -1.92948e-19)
(-0.000200339 0.0188704 1.28866e-17)
(0.0239777 -0.0040728 -2.64756e-20)
(0.0113026 0.000994199 2.66362e-19)
(0.00103154 0.00472887 5.9018e-18)
(-0.00220925 0.0035444 1.83499e-20)
(0.000867666 0.0100341 -4.51865e-18)
(-0.0430879 -0.0193159 -3.69219e-18)
(0.00193261 0.00378354 5.76264e-19)
(0.000711022 -0.00520105 -3.34666e-20)
(0.0119608 -0.0708726 1.2853e-18)
(0.00151567 -0.00473909 5.76712e-19)
(-0.000633061 -0.00290631 6.38601e-19)
(-0.00599764 0.0118995 2.65539e-20)
(0.0187878 -0.0360145 1.56791e-18)
(0.000968406 -2.36349e-05 9.49136e-20)
(0.00173303 0.00053363 -7.17967e-19)
(0.0214657 0.00361078 1.09977e-18)
(0.00107456 0.00082868 -6.21011e-19)
(-0.0914734 0.0221492 -2.23942e-18)
(0.00311895 0.00562715 -5.02559e-18)
(0.0173443 0.00042007 -8.47802e-18)
(0.0022038 0.000455136 -1.67192e-21)
(0.00701977 0.00343539 -7.3776e-18)
(0.00331018 0.00010763 -1.31109e-19)
(-0.0257146 -0.0564973 6.57228e-19)
(0.00183467 0.000420503 -1.14744e-21)
(0.0021107 0.00227733 4.12054e-20)
(-0.0243191 0.0556007 -8.98755e-19)
(0.00962482 -0.000683534 -2.15358e-19)
(0.0108448 -0.0286328 1.01061e-17)
(0.000698828 0.000377308 -1.57909e-20)
(0.0166037 0.000600159 -3.64451e-18)
(0.00331721 0.00575373 5.42715e-18)
(0.00102217 0.00257778 -8.92834e-19)
(-0.00206013 0.00184037 1.33222e-17)
(-0.00302787 0.0187942 -1.13306e-17)
(0.0123257 0.00220286 1.15738e-17)
(-0.000917778 4.77121e-05 1.53775e-19)
(0.00212918 0.00856031 -9.95456e-18)
(0.000874734 2.22812e-05 -2.4005e-23)
(0.00248708 0.00163301 6.79773e-18)
(0.00190102 0.000415398 -2.87877e-21)
(0.00795317 0.0126304 1.65568e-18)
(0.000349109 0.0190902 1.05113e-18)
(-0.00164565 -0.000476324 2.04255e-19)
(-0.00200803 0.00303401 6.87353e-22)
(-0.00376607 0.0134238 -1.9355e-18)
(0.00602445 0.000407771 -2.45853e-19)
(-0.0926919 0.0211714 2.97267e-18)
(-0.014099 -0.0120589 1.54266e-18)
(0.00217783 0.00269056 2.90323e-20)
(0.00172922 0.000571979 8.22216e-20)
(0.0112017 -0.00369934 -7.36646e-20)
(-0.01876 0.00012578 -3.05353e-20)
(0.00313666 0.000148212 -4.47124e-22)
(0.0232285 0.00355609 1.2307e-18)
(0.00124343 7.05102e-05 -5.10985e-23)
(0.0137235 0.00161673 1.28208e-17)
(-0.000754584 0.0134586 6.66743e-18)
(-0.042337 0.0243692 7.53638e-19)
(0.00393358 0.00302753 -5.22265e-19)
(0.0054316 0.00427705 -2.67332e-18)
(0.00558421 -0.00347311 -2.34363e-19)
(-0.013814 0.0160261 -1.5149e-19)
(0.00230122 0.00218066 3.39261e-18)
(0.00389815 0.00318814 -1.75459e-18)
(-0.00316953 0.0120773 -2.36069e-18)
(-0.00406535 -0.0232747 -3.61885e-19)
(0.0217717 -0.00475842 2.03597e-20)
(0.0040762 0.00681775 -3.50187e-18)
(0.0226359 -0.00268021 1.56857e-17)
(0.000457043 0.000701697 -3.97433e-18)
(0.00201761 0.00244276 -4.50422e-20)
(0.00536696 -0.000406884 3.9259e-21)
(0.0672943 -0.00818018 3.14587e-19)
(-0.00165739 0.00508441 8.45729e-23)
(-0.0435464 0.0105953 -8.33814e-18)
(0.0020488 0.0037302 9.08296e-19)
(0.0021942 0.00215316 -1.01137e-19)
(0.00190845 0.00737481 -7.73838e-18)
(-0.00427713 0.00272486 -9.03229e-18)
(0.0200951 0.0112276 -3.0387e-19)
(0.0054888 -0.00396987 5.27745e-20)
(0.00192248 0.003965 6.02364e-18)
(0.0273058 0.00632772 8.39308e-19)
(0.00134967 0.0128664 -4.8284e-18)
(0.00887684 0.00468716 -3.44193e-18)
(0.000638087 -0.000832684 -1.40956e-19)
(-0.00140052 0.00228185 -1.12134e-19)
(-0.00512168 0.045594 9.33122e-19)
(0.0138418 0.00190176 5.53601e-18)
(0.00434044 0.0253883 2.44572e-18)
(0.0031291 9.39018e-05 -4.45996e-22)
(0.0021238 0.000376778 7.47055e-21)
(0.00113777 3.44552e-05 -2.94636e-22)
(-0.00303763 0.0118148 -8.47502e-18)
(0.0696579 -0.0295431 -2.61729e-19)
(-0.0444526 0.00865459 -5.25483e-19)
(-0.000563864 -0.00228372 -3.08135e-19)
(0.000288215 0.000346236 1.68799e-18)
(0.0285652 0.000522135 -1.72399e-19)
(-0.000916885 0.00168175 -1.47046e-22)
(-0.00272471 0.0216485 7.81839e-18)
(0.00468835 0.00133282 3.88034e-19)
(0.000649538 0.0019002 -2.80062e-18)
(9.14005e-05 0.010602 -7.21974e-18)
(-0.00188624 -0.00124311 8.11591e-20)
(-0.0416475 0.0112231 6.6921e-18)
(0.00653222 0.00194722 -1.56301e-18)
(-0.0727008 0.0699436 -1.28091e-18)
(0.000736639 -0.000894235 -8.29154e-20)
(0.0127965 0.001867 -2.63771e-17)
(6.13406e-05 0.00727947 2.46347e-18)
(0.0037865 0.00504509 6.03526e-18)
(0.0130652 0.00210415 -4.02582e-18)
(0.00282429 0.000654251 5.24075e-19)
(0.00611023 -0.00417576 2.67958e-19)
(0.00636197 0.00218206 2.00496e-18)
(-0.000562675 -0.0021536 -6.11925e-19)
(-0.00207978 0.0112179 -1.59947e-17)
(0.00230412 0.00764577 4.07997e-18)
(0.00453787 0.001278 7.17985e-19)
(-0.0275322 -0.0426656 -1.2303e-17)
(0.00669551 0.0018447 1.72616e-18)
(0.00241779 0.00196053 -4.74759e-20)
(-0.00341548 -0.000938728 -3.30151e-17)
(0.00162864 0.0012268 1.34879e-20)
(0.00553324 0.00450498 3.68441e-18)
(-0.0103786 0.0122547 -1.21216e-19)
(0.0128785 0.00225337 6.35566e-18)
(-0.00835783 0.0135369 2.20199e-18)
(0.000701945 0.00042286 6.55433e-19)
(-0.0019546 0.0128467 -8.5255e-18)
(0.00052515 0.000407553 1.65881e-19)
(0.0215994 -0.00338029 -2.68118e-18)
(0.00665127 -0.00307735 -7.89029e-21)
(-0.00075401 0.000118694 1.35826e-19)
(0.00206534 -0.00128339 -3.85056e-20)
(-0.00800898 0.0138157 -4.26904e-18)
(0.00206681 0.00823316 2.84328e-18)
(0.00147026 0.00398792 -3.60462e-18)
(0.000258865 0.000314971 -1.68784e-18)
(0.00275613 0.000673682 -4.75663e-19)
(0.00243352 0.00187856 1.6521e-18)
(0.0257649 0.00166392 -4.32895e-19)
(-0.0293398 -0.0630084 -9.50979e-18)
(-0.00574205 -0.0209368 3.88948e-18)
(0.00585185 -0.00146063 -3.36802e-19)
(0.0120921 0.00244216 -2.12885e-18)
(-0.0661564 0.0120684 6.80623e-18)
(0.000589794 0.000189282 3.04052e-19)
(0.0011066 0.0103137 -1.7273e-18)
(-0.00565375 0.022372 -1.09262e-17)
(0.00140808 0.00105953 4.22181e-19)
(0.005383 0.0020939 6.76946e-20)
(-0.00528105 0.01682 1.87877e-17)
(-0.0416377 0.0138675 -3.38592e-18)
(0.0039453 -0.00102068 -8.89325e-20)
(0.0801659 -0.0597675 -2.42772e-19)
(0.00933329 0.00230782 -1.44096e-17)
(0.00050996 0.000162286 6.74001e-19)
(-0.0206889 -0.0167596 -4.21512e-19)
(-0.0231076 -0.0135982 2.37897e-19)
(-0.0750077 0.0487987 5.45102e-18)
(0.00133866 0.00397317 2.06059e-18)
(0.00492069 0.00261162 1.03972e-18)
(0.00317073 0.00139531 -8.68861e-19)
(0.00179181 -0.0010055 3.39486e-20)
(0.0748279 -0.0953146 2.043e-19)
(0.00204378 -0.00134078 -2.18298e-20)
(0.000499137 0.000381375 -6.03596e-19)
(0.00135954 8.51442e-05 -2.47952e-21)
(0.0017414 0.000530771 3.97349e-21)
(0.00155553 -0.000919468 1.72485e-20)
(0.00787255 0.0027406 -1.27617e-17)
(0.00558746 0.00728063 -3.09355e-19)
(0.00195922 0.000818029 -2.76022e-20)
(-0.00196056 0.0109158 -1.4373e-17)
(0.00191898 0.00143068 5.17775e-21)
(-0.0698558 0.0706818 3.55402e-19)
(0.0113873 0.00296151 1.00768e-18)
(-0.0204683 -0.0287428 3.0202e-19)
(-0.001115 -0.0188595 -6.52225e-18)
(0.00202347 0.000808928 2.4461e-19)
(0.0102465 -0.000425759 -4.4114e-19)
(0.00292896 0.00758616 3.63642e-18)
(-0.0368433 -0.00479176 7.98177e-19)
(0.0021812 -0.000112394 -3.43767e-19)
(0.00121589 0.000622236 -2.45341e-21)
(0.00536872 -0.000709866 1.62218e-19)
(0.00530862 -0.0158828 6.72294e-18)
(0.00149618 -4.68479e-05 8.325e-19)
(-0.0405035 -0.0312202 1.2507e-17)
(0.00187063 0.00158798 -3.43603e-19)
(-0.00570881 0.0170982 4.33564e-18)
(0.0122602 -0.0214379 2.22219e-19)
(-0.0112198 -0.0194752 3.48755e-19)
(-0.0109839 -0.02436 -7.45252e-21)
(0.00387287 -0.0052505 -1.20577e-20)
(0.000969064 -0.000630619 -4.13393e-21)
(0.000466212 8.16067e-05 -1.20766e-18)
(0.00553654 -0.00133623 3.74237e-19)
(-0.00217524 0.0126114 1.28261e-17)
(0.0128865 -0.0949552 -7.52057e-18)
(-0.0010875 0.00962891 5.97668e-18)
(0.0110602 0.0025971 -1.297e-17)
(0.00727577 0.00239764 -1.16176e-17)
(0.00184344 0.00152061 8.99066e-21)
(0.000433261 0.000742334 -2.90618e-19)
(-0.000322705 -0.0215909 -6.30316e-18)
(0.0229442 -0.000306485 -7.73783e-18)
(0.00496092 0.0181337 3.4484e-20)
(-0.00739707 -0.00465812 -2.70873e-18)
(0.00582366 -0.000590283 1.89068e-19)
(0.00297004 0.00791303 2.92638e-18)
(-0.00134416 1.17681e-05 3.40389e-19)
(-0.0674269 0.0154373 -1.40811e-18)
(-0.00153585 -0.00112491 6.19608e-20)
(0.00879787 0.00552767 -2.96891e-18)
(0.00356429 -0.00506242 -4.65771e-19)
(0.000564433 0.00144988 6.39854e-20)
(0.000983042 1.93753e-05 2.12955e-21)
(-0.000713689 -0.0021003 -2.12665e-19)
(0.00176539 0.00180679 -8.53999e-21)
(-0.00182009 0.0175535 -4.6934e-18)
(0.00487022 -0.000203602 1.63843e-21)
(0.0192564 -0.0070004 -1.27094e-17)
(0.00567664 -0.000652902 -4.40837e-19)
(-0.00212046 0.0131963 -1.51286e-17)
(0.00345335 0.000119779 -3.9303e-20)
(-0.0109412 0.0473143 -1.41306e-18)
(0.00617207 0.00413345 -7.74132e-21)
(-0.0805441 0.0512906 -1.1514e-18)
(0.00367759 0.00482257 -1.38245e-18)
(-0.0287099 0.0632804 -1.79045e-18)
(0.00124981 0.000467773 3.82113e-20)
(-0.000715572 -0.00197862 3.07277e-20)
(-0.00118766 4.60033e-05 2.61962e-20)
(-0.0646066 0.0294754 1.2639e-17)
(0.0373407 -0.00763034 1.96818e-19)
(-0.00276317 0.0191188 -1.74266e-18)
(0.00319388 -6.372e-05 -2.72251e-19)
(0.0223936 -0.00611808 1.73531e-17)
(-0.0374526 0.0614394 -2.44203e-19)
(0.0058796 -0.0028261 6.20246e-20)
(0.00148244 -5.16245e-05 -6.5651e-20)
(-0.00405956 0.0133157 -1.12456e-17)
(0.00213381 -0.000108781 5.39399e-19)
(-0.00401116 0.0631136 9.84783e-19)
(0.000933715 6.8427e-05 -1.65136e-20)
(-0.0844139 0.0605249 5.45574e-18)
(0.0100922 0.0897133 4.14635e-19)
(0.0109822 0.0182114 -4.51443e-19)
(0.0171557 0.000189515 -1.42884e-17)
(0.00145148 -0.00503848 -4.89952e-19)
(0.0119715 0.021011 4.63463e-19)
(0.0124176 0.0824578 1.71083e-19)
(-0.0213796 -0.0149047 4.33372e-18)
(0.00167342 0.000152488 3.46383e-21)
(0.00310371 0.00858907 4.07667e-18)
(0.000873218 0.013457 1.37106e-19)
(0.0203927 0.00489113 8.5624e-19)
(-0.00144084 -0.000848843 -4.4984e-20)
(0.00257133 0.00178788 -1.98391e-18)
(-0.00650335 0.0114854 -2.55214e-17)
(-0.00543751 0.0176417 3.05921e-18)
(0.00644676 -0.000717412 1.0663e-18)
(-0.0231935 0.0726142 -5.40977e-18)
(-0.00106201 6.32616e-05 -1.15236e-19)
(0.00216344 -0.0012842 3.08166e-20)
(-0.00102003 -0.00105061 1.99081e-18)
(0.00668121 0.00115449 3.74125e-20)
(0.00206577 0.000361084 -4.71295e-21)
(-0.000995696 -0.0545662 7.86075e-18)
(0.00091834 -0.000632551 3.71562e-21)
(0.00328335 -0.000671112 4.88857e-20)
(-0.00103996 -0.00118149 2.85116e-19)
(0.00803988 -0.00105256 -5.785e-21)
(0.00400708 0.00138961 -4.90067e-19)
(0.00213488 0.000432532 5.28686e-21)
(0.00121764 -0.00506871 -2.41189e-19)
(-0.00603418 -0.000410438 2.6863e-17)
(0.00127914 0.000911734 -3.20432e-19)
(-0.00104493 0.0102441 1.12792e-17)
(0.00065474 -0.000291393 8.38706e-21)
(0.00285151 -0.00178903 3.12001e-19)
(-0.0231037 0.0620938 1.00934e-18)
(2.77642e-05 -2.09894e-05 -1.41695e-19)
(0.00227308 -0.000377141 -1.00692e-19)
(-0.000180261 -4.69345e-05 1.61214e-19)
(-0.000243496 -3.28775e-05 -2.22191e-19)
(-0.0443215 0.0149561 -1.49572e-19)
(0.00201108 0.00219631 -1.84001e-18)
(0.00781963 -0.00198886 -5.17675e-19)
(0.000998384 0.000745564 -1.46332e-18)
(-0.00150415 8.53664e-06 -2.94478e-19)
(0.0328619 -0.062207 -5.93752e-18)
(0.017855 4.35719e-05 1.54955e-17)
(0.00103362 0.000912732 -7.22912e-19)
(0.00268056 -0.0019684 -2.39646e-19)
(0.00618925 0.0044429 4.20384e-18)
(-0.0157365 -0.0401271 -1.20232e-19)
(0.0130928 -0.0232825 1.31846e-17)
(0.00218529 -0.00122402 5.29166e-20)
(0.00981239 0.0249368 1.10139e-19)
(0.00221152 -6.54417e-05 1.28722e-19)
(0.00133732 0.0183625 3.99248e-18)
(0.000691557 0.00163542 -2.40346e-18)
(0.00387497 -0.00648977 -8.92631e-18)
(0.00128318 0.000314816 7.66696e-21)
(0.000965461 0.0052808 1.24668e-17)
(0.0189723 -0.00753582 5.31382e-20)
(0.00160586 0.0010518 6.47456e-21)
(0.00238228 -0.0017696 2.60521e-19)
(0.000996954 -0.0132206 9.09876e-18)
(0.00869592 0.0127426 -2.05898e-18)
(-0.000102786 -0.00403012 -1.60823e-20)
(0.000989958 -8.48266e-05 5.46842e-20)
(0.0268091 -0.00892353 5.99864e-20)
(0.00147994 -2.16261e-05 -1.47891e-19)
(0.000132008 -0.000760608 -9.50153e-20)
(0.00061955 -0.00097612 -6.64189e-20)
(0.000306126 0.00136415 3.22161e-19)
(0.0221514 -8.97716e-05 5.97775e-18)
(-0.00275949 0.0141994 1.17678e-17)
(-0.00639949 0.016157 -4.59844e-18)
(-0.02776 0.013125 7.53636e-18)
(0.00957937 -0.00150007 -4.07744e-20)
(0.00261983 0.000364451 -1.28871e-21)
(-0.0324444 0.00167758 -1.50261e-18)
(0.0310864 0.00658559 -1.26755e-19)
(0.00401113 0.00600525 9.56018e-19)
(0.000300639 0.0075953 -3.1421e-18)
(-0.0189441 -0.0463633 -1.03567e-20)
(-0.0629087 0.114602 -2.05453e-18)
(0.00561869 0.00395738 1.52842e-17)
(0.00074059 9.01488e-05 -1.38455e-18)
(0.0048732 -0.00813527 -8.76268e-18)
(0.0208761 -0.0266771 -7.00668e-18)
(0.0175429 -0.0389769 5.72008e-18)
(0.00675656 0.00160144 -6.65299e-19)
(0.0021569 -0.00186382 -2.53128e-19)
(-0.0736135 0.103829 -3.28195e-18)
(0.00451925 0.0328999 -5.79637e-19)
(-0.00821244 -0.0199127 -3.16255e-18)
(-0.00658504 -0.0559022 1.81804e-18)
(-0.0900959 0.0600751 2.12078e-18)
(0.00444429 0.00152588 -1.48242e-18)
(-0.0907989 0.0568427 -2.26056e-18)
(-0.00144372 0.00730536 -8.12147e-18)
(0.00129117 0.000368062 -2.15568e-20)
(0.00446887 0.0351299 4.23531e-19)
(-0.00313188 0.0141727 -1.72614e-17)
(0.0188281 -0.000338551 -4.56277e-18)
(0.00415281 0.00298247 -2.18171e-18)
(0.00140739 0.000473358 -1.52207e-18)
(0.00162165 -0.00102021 -3.83266e-20)
(0.00211383 0.000288464 -2.84799e-19)
(-0.000448938 0.0183624 -7.65951e-18)
(0.00626439 -0.000298 1.32582e-19)
(0.0116953 -0.0580153 -2.12818e-18)
(-0.0297309 0.0697504 4.838e-18)
(-0.000145968 -0.000349007 -1.28261e-21)
(-0.00140811 0.000309434 1.35245e-17)
(0.0151411 -0.000305727 6.94337e-18)
(0.00473013 -0.00895607 -6.45615e-20)
(0.0226594 0.0456278 -1.65151e-20)
(-0.000728841 0.0101675 -1.4399e-18)
(0.00196271 0.000325179 9.14446e-21)
(-0.000857072 -0.00192588 -1.79793e-19)
(0.00352335 -0.0016744 -1.72132e-20)
(-0.0284308 -0.000525118 -1.19876e-18)
(0.00174331 0.0041851 -1.69351e-18)
(-0.00689824 0.0129771 1.15571e-17)
(-0.00969029 0.0149553 -1.7049e-17)
(0.00177984 0.00090573 -7.3492e-21)
(0.00384603 0.000923499 -3.2655e-19)
(-0.020627 0.091518 2.84085e-18)
(-0.0560761 0.0464581 8.66802e-18)
(-0.00434785 0.0174114 2.63474e-18)
(0.0218246 -3.18004e-05 -7.63362e-18)
(-8.6534e-05 0.0069557 -1.55016e-17)
(0.00226072 -6.93831e-05 -5.38158e-20)
(0.000493587 0.00147173 -1.85538e-18)
(-0.00127971 -0.0477043 -4.36741e-18)
(0.00763467 0.0021247 1.60383e-17)
(-0.00774128 0.0145677 -1.63297e-18)
(-0.00130012 0.00942265 4.19582e-19)
(0.010259 -0.00516886 3.27855e-19)
(0.00179908 0.000583759 6.56237e-21)
(0.00173211 0.000119339 -9.48819e-20)
(-0.0873393 0.0596834 -7.77172e-18)
(0.00170596 0.00082548 -1.73662e-20)
(0.00416615 0.00281811 -7.61137e-19)
(0.00187942 0.000516821 1.56688e-20)
(0.00105809 -0.000360238 -3.74826e-20)
(-0.0012065 0.00706927 9.77754e-18)
(-0.00114719 0.0179224 -5.78882e-18)
(0.00327952 -0.000353258 5.96992e-19)
(0.00173761 0.000768963 3.16135e-21)
(-0.0551925 -0.0273487 1.21948e-17)
(0.0194828 -0.103467 -1.34646e-18)
(0.000894443 -0.000815912 -1.52966e-20)
(-0.00176551 2.29465e-05 -1.67972e-20)
(-0.00223159 0.00497388 1.01198e-20)
(0.000509521 0.00010877 1.30299e-18)
(0.00423024 -0.0097405 7.34172e-18)
(-0.0344489 -0.00509771 -2.04344e-18)
(-0.0366465 -0.0240012 1.22792e-18)
(0.0138031 -0.0410747 -1.48877e-17)
(0.0227639 -0.0267872 1.19076e-18)
(-0.00120856 0.00897501 8.98028e-18)
(0.0195822 -0.00052479 -7.43682e-18)
(0.0183255 0.000219254 -1.39182e-17)
(0.00396345 -0.000807373 -9.31201e-20)
(-3.35142e-05 0.00996281 5.0307e-19)
(0.00198677 0.000306187 -5.04876e-21)
(-0.00823065 0.0138805 -1.91025e-19)
(0.00895712 0.0071073 6.54946e-19)
(-0.0120091 0.000448348 -4.21713e-18)
(0.0855421 -0.0634268 3.89875e-19)
(-0.00664486 0.0130708 -9.1666e-18)
(0.00439047 0.00760717 4.02832e-19)
(-0.000862066 -0.00155408 1.5762e-19)
(0.00921778 0.00381346 -3.76861e-19)
(-0.000378857 -0.00616317 6.47975e-19)
(-0.00951122 -0.0149531 -6.85125e-20)
(-0.00264493 0.0152427 6.8798e-19)
(0.000989548 0.000688997 -2.63687e-19)
(0.00612288 -0.00125881 -1.20495e-18)
(-0.00136262 -0.00083002 1.5983e-20)
(0.00140801 0.00721336 1.98518e-18)
(-0.00218411 0.0193641 2.2972e-17)
(0.000598761 0.00175675 -2.0471e-18)
(0.00210637 -0.000152514 -1.77193e-19)
(0.0116346 0.00360009 2.53593e-19)
(0.00133084 0.00171598 -2.8662e-18)
(-3.53324e-05 0.017857 5.37885e-18)
(-0.0587596 0.0322186 -1.28331e-17)
(-0.00377844 0.0183626 7.51041e-18)
(0.00935518 0.00286493 -1.41072e-18)
(-0.00777919 0.0143405 8.96165e-18)
(-0.000854737 -0.00145766 5.97906e-20)
(0.0092925 0.0120418 -1.30213e-18)
(0.00601971 -0.00312978 1.99355e-19)
(0.0113507 -0.0403816 1.43108e-17)
(0.0032709 0.000187897 -1.46964e-19)
(-0.00132906 -4.62922e-05 3.28846e-19)
(0.00811004 0.00519649 1.33738e-17)
(0.00445807 0.000420473 -3.1212e-20)
(0.0170672 -0.0223254 -4.87581e-18)
(0.0113078 0.00197664 -1.79449e-17)
(0.0061109 -0.0222768 4.94586e-18)
(0.00283855 -0.0602487 -7.90316e-18)
(-0.00144284 -0.00110189 -6.2776e-21)
(0.0069352 0.00617122 9.10636e-18)
(0.0032158 3.2434e-05 1.3229e-20)
(0.00102748 -0.000453973 -4.42054e-21)
(0.00133622 0.000279278 -1.56905e-20)
(0.00109373 -0.000396409 -2.384e-20)
(0.00345583 -0.000432176 4.5016e-21)
(0.00573494 -0.000888385 5.38027e-19)
(0.00775182 -0.000638575 -1.46964e-19)
(0.00168136 0.000701099 1.33161e-20)
(-0.0815172 0.0242147 -4.82002e-18)
(0.021203 -0.00734121 7.15592e-20)
(-0.0781275 0.0211077 -1.3201e-18)
(0.001381 -0.00117425 6.29185e-20)
(0.00145226 0.000189042 1.93888e-20)
(-0.000374905 0.000204159 -8.86058e-20)
(0.000580378 0.0225703 -1.97568e-18)
(-0.0527763 -0.0155738 3.33634e-18)
(-0.00425275 0.0113759 6.90759e-18)
(0.00156805 0.00739678 -1.95156e-18)
(0.00329363 1.1677e-05 -1.44933e-20)
(-0.00147943 1.94113e-06 -3.18336e-20)
(-8.42891e-05 -0.000215671 -6.63391e-20)
(0.00176368 -0.00118252 7.80534e-21)
(-0.0131131 0.0136477 -1.36771e-18)
(0.00307033 0.0681144 7.56682e-19)
(0.00130024 0.00165056 1.41215e-18)
(0.00171009 0.000651344 -8.83668e-22)
(0.000235023 0.00137308 6.88798e-19)
(0.00175605 -0.00112925 8.44767e-20)
(-0.0668828 0.0581355 4.0265e-18)
(0.00112426 0.00509914 5.18996e-18)
(0.00933791 0.00419064 3.11641e-18)
(-0.0061322 -0.0114948 -2.23262e-18)
(0.00533909 0.0316066 -5.96547e-19)
(0.00206346 -0.000149668 5.29893e-20)
(-0.00630718 0.0162478 1.97861e-18)
(-0.0135651 -0.0181046 -7.9353e-18)
(-0.000148106 0.0103257 4.1079e-18)
(-0.0817009 0.0788752 1.806e-18)
(0.00114874 0.00242792 -4.90279e-19)
(0.0054846 -0.000285114 1.83716e-19)
(-0.00404413 0.0113835 -4.78506e-18)
(0.00542977 -0.000606311 -1.13788e-19)
(-0.0103589 -0.0752486 -1.73428e-18)
(0.00102093 0.000858873 1.80672e-19)
(-0.0815225 0.130152 -1.50468e-18)
(0.000945591 5.24097e-05 3.63671e-20)
(-0.00272618 0.00748306 -1.17188e-17)
(0.0161711 0.000496625 -2.01313e-19)
(-0.00165696 -0.00334387 -4.37065e-19)
(0.00402148 0.00024557 -8.16324e-19)
(0.0090725 -0.00589402 1.09998e-18)
(0.000154952 -0.000836264 -1.03092e-20)
(0.0040475 0.00551224 -1.23641e-18)
(0.0389059 -0.00658862 -9.16271e-19)
(0.0719782 0.0138269 6.8724e-20)
(-0.00226184 0.0152636 -1.19028e-17)
(-0.0463255 0.0127907 -7.32297e-18)
(-0.0018034 -0.0213456 -4.48102e-19)
(0.00182065 0.00047105 -1.4154e-20)
(0.00131789 -0.00113029 -6.38345e-20)
(0.0317592 -0.0610069 -3.42804e-17)
(-0.0101012 0.0146378 1.86807e-17)
(0.0056435 0.000406241 2.25223e-19)
(0.01026 0.00222205 1.48953e-17)
(-0.00230778 -0.00129611 -6.52752e-20)
(0.000269251 4.0176e-05 -2.49712e-18)
(0.00123269 0.000408375 -1.18043e-20)
(0.0310239 -0.0442288 -2.27437e-19)
(-0.0023934 0.00927346 5.86116e-18)
(0.00587706 0.0020343 -1.40335e-18)
(0.00290143 -0.000307864 6.80951e-20)
(-0.0281559 0.0669588 3.42949e-18)
(0.00131767 0.00553885 -9.18835e-19)
(-0.000323141 0.000227487 1.48014e-19)
(0.00126071 -0.00271437 -7.99467e-18)
(-0.00177294 -0.0274321 1.31682e-18)
(0.0108358 -0.00133521 1.86697e-18)
(0.00167972 0.00114556 1.21591e-21)
(0.00121933 0.00163959 -3.01271e-18)
(0.0186645 -0.000674463 1.35843e-17)
(-0.000400303 0.00681185 1.15338e-17)
(-0.00908352 0.0141553 -7.0021e-18)
(-0.000598235 -0.0058932 -1.38756e-19)
(0.00472706 0.00514946 1.12488e-17)
(0.00114317 0.000864805 2.30988e-18)
(-0.0312109 0.0663721 1.10901e-18)
(0.00999638 0.0290206 -4.15882e-20)
(0.0115056 0.0193772 5.11772e-18)
(0.00492698 0.00415814 2.42222e-18)
(0.00747607 -0.0239384 -2.20379e-18)
(0.00454312 -0.00484873 1.95519e-21)
(-0.00239846 -0.00818497 -2.75163e-20)
(-0.000555661 0.0104734 -1.79252e-19)
(-0.00130412 -5.95787e-05 -2.29349e-19)
(0.000660162 -1.02949e-05 -1.51178e-19)
(0.00414749 0.00143565 1.63784e-18)
(-0.000963399 -0.00140901 2.82997e-19)
(0.00150868 -0.00456449 2.47342e-18)
(0.00726607 0.00741022 -3.51294e-19)
(-0.00494701 0.0173752 -3.04002e-18)
(0.00314187 -0.000464234 -6.52124e-19)
(-0.0140255 0.0543784 -1.05236e-18)
(-0.000742614 -0.00160979 1.68222e-19)
(0.0492464 -0.00239968 8.40325e-19)
(0.000377687 -0.00011344 1.62768e-20)
(0.00435891 -0.00519377 -1.4377e-19)
(0.0013146 0.000228743 1.10392e-21)
(0.00199553 -0.000185821 -2.00246e-19)
(0.0014025 -8.66708e-05 4.90776e-20)
(0.0069855 0.00181377 -7.59594e-18)
(0.00161169 -0.000948449 2.94538e-20)
(0.00115885 0.000835778 5.09296e-20)
(0.00567378 0.028363 -8.93107e-20)
(0.000481149 0.00155084 -7.01667e-19)
(0.0178005 -0.000398837 -2.03504e-17)
(0.000562939 6.26357e-05 1.13098e-20)
(0.000356949 -0.00560632 -4.63521e-20)
(-0.00481991 0.0132391 -1.39854e-17)
(-0.0757617 0.0612434 1.72293e-18)
(-0.000596715 -0.0368595 -1.55528e-18)
(-0.000442046 -0.000286246 -1.54507e-20)
(0.0183073 0.00544056 1.10683e-19)
(-0.00986122 -0.010444 3.16759e-18)
(0.00212682 0.00222909 6.74233e-19)
(0.00251217 0.00365003 4.10958e-18)
(-0.00253546 0.00744878 7.25151e-18)
(-0.00105087 -0.00127223 2.58794e-19)
(0.000483742 -0.0167561 1.69978e-19)
(-0.000939193 0.00153529 -4.20132e-18)
(0.0153141 0.00288883 -9.40647e-20)
(0.00589364 0.0036942 8.81353e-19)
(-9.06614e-05 -0.000292278 7.19426e-21)
(0.00165366 0.000587548 -2.60658e-21)
(0.0158748 0.0622774 -3.91899e-19)
(0.0132931 0.0211054 1.84898e-17)
(0.0102201 -0.00490439 -7.4267e-20)
(0.00629544 0.00187884 2.74985e-18)
(-0.000135851 -0.0187557 -3.1083e-19)
(0.000714748 0.000112119 7.5454e-19)
(5.34128e-05 -0.00570105 2.72897e-19)
(-0.00739675 0.0121412 2.89715e-18)
(0.0324992 -0.0996797 -3.03379e-18)
(0.000332174 0.0189001 9.283e-19)
(0.0886393 -0.0318366 -2.64828e-19)
(0.00120529 0.00155561 1.31717e-18)
(0.000764551 0.0183826 -5.36692e-18)
(-0.0045181 0.0149052 6.16011e-19)