/*--------------------------------*- C++ -*----------------------------------*\
| =========                 |                                                 |
| \\      /  F ield         | OpenFOAM: The Open Source CFD Toolbox           |
|  \\    /   O peration     | Version:  v2012                                 |
|   \\  /    A nd           | Website:  www.openfoam.com                      |
|    \\/     M anipulation  |                                                 |
\*---------------------------------------------------------------------------*/
FoamFile
{
    version     2.0;
    format      ascii;
    class       volScalarField;
    location    "400";
    object      p;
}
// * * * * * * * * * * * * * * * * * * * * * * * * * * * * * * * * * * * * * //

dimensions      [0 2 -2 0 0 0 0];


internalField   nonuniform List<scalar> 
13851
(
0.00132435
0.0262773
-0.0389801
0.00105429
-0.0583415
0.00428158
-0.013205
-0.0352957
0.00140216
-0.0218162
-0.00624967
-0.0129124
-0.0820841
-0.127383
-0.0068379
-0.0157222
-0.0229147
0.000839678
-0.0761217
0.00136518
0.000899376
-0.0411607
0.000154076
0.00106896
0.000298334
-0.0336247
-0.0309261
-0.0972421
0.000931262
-0.00570481
0.00428719
-0.0232724
-0.0374936
6.94513e-05
0.00107414
-0.0953829
-0.101841
-0.0547545
-0.0226826
-0.00219375
-0.00223242
5.63105e-05
-0.100147
-0.00349339
-0.00297041
-0.0935614
-0.00239705
-0.00950269
-0.0318988
0.00552759
-0.070077
-0.0790885
-0.0977436
-0.00690834
-0.00317954
4.55874e-05
0.00108006
-0.0996854
-0.00558073
-0.0142038
-0.0516252
-0.0634114
0.00704188
-0.0634433
0.0157769
0.0023248
-0.0989122
-0.00162451
-0.0477449
0.00115317
-0.0976403
-0.102691
0.0236055
-0.00690668
-0.00261566
0.00167101
-0.0418073
-0.0923075
-0.0491903
-0.0990588
-0.0164437
-0.000617073
-0.00801211
-0.0952355
0.007223
-0.0155242
0.00395483
0.0306853
-0.0293323
0.000321321
-0.0947471
0.0016796
-0.00142198
-0.0344306
-0.0297532
0.00126849
-0.0600474
-0.0862019
0.00319709
0.00127554
-0.118017
-0.056801
-0.00197474
-0.034652
5.89303e-05
0.00404943
-0.0612772
9.23661e-05
-0.104096
0.00433234
0.00120674
0.000167348
0.00173638
0.00112605
0.00119965
-0.0269435
-0.0870402
9.48009e-05
-0.000242517
-0.00272161
-0.099847
-0.0339573
-0.0820191
-0.0100736
-0.00695295
-0.000908672
-0.0077286
-0.0524233
0.000861014
-0.0634555
-0.00230078
0.000417787
-0.0978995
-0.00799369
-0.0258343
0.000167468
0.000109254
-0.100461
-0.0605261
-0.018445
-0.116792
-0.00288932
0.0020863
-7.13659e-05
-0.0153676
-0.00241439
-0.000289737
-0.0618388
-0.0127416
-0.00408431
-0.082033
-0.00239716
-0.129167
0.00113313
-0.0218487
-0.0147483
0.000290254
-0.00764081
-0.0776958
-0.0686136
-4.1277e-05
-0.0404455
-0.0998747
0.000489292
-0.00560089
-7.20723e-06
-0.000240576
-0.0491041
0.000663754
-0.0863633
-0.0922782
0.00127015
0.000217827
-0.0270175
0.000467971
-0.00907364
-0.0511179
0.00176224
-0.080746
8.84227e-05
-0.0234624
-0.0999984
-0.00800537
-0.0423888
-2.95666e-05
0.000787526
0.00229279
-0.0027142
-0.0581555
-0.00291813
-0.00184218
-0.0981791
-0.000111006
-0.0443129
-0.0599121
-0.0205757
0.00210872
-0.00793538
0.00180439
0.00166795
-0.000697333
-0.0873881
-0.000899733
-0.00555473
-0.0108345
-0.008244
-0.0215605
-0.0251363
-0.0956525
6.44736e-06
-0.0971086
-0.00211931
-0.00717279
5.53761e-05
-0.000116191
-0.0121748
0.00614969
-0.0946117
-0.00715131
-0.0953698
-0.0253601
-0.0171388
-0.0912534
-0.0715549
-0.097838
0.000742608
-0.0364483
6.16556e-05
-0.0990431
7.22454e-05
-0.0319865
0.010148
0.00126816
7.68411e-05
-0.0691389
0.00381207
-0.0214026
0.0180919
-0.000265317
-0.00570892
0.00453433
-0.00315747
-2.91792e-05
-0.0106088
8.26944e-05
-0.0980187
-0.0565304
-0.00148862
-0.0138814
-0.016548
0.00207889
-0.00467601
-0.0126219
-0.0145787
-0.0645221
0.01163
-0.00213003
-0.102155
-0.0972651
-0.00824772
-0.000137812
0.000932953
0.00352676
6.45361e-05
-0.0725428
-0.0200123
-0.0126522
-0.0338809
-0.0921639
-0.00382795
0.00205712
-0.0214548
0.00503307
-0.0483403
-0.0149896
0.000437407
-0.00061866
-0.0088991
-0.101695
-0.00723339
-5.52367e-05
4.35871e-05
-2.88904e-05
-0.0637534
0.00378609
-0.00598542
0.00143768
-0.00677991
0.00440297
-0.000573259
-0.0633028
-0.00619698
-0.0144228
-0.0482751
-0.000775052
-0.074575
-0.00819295
-0.00330922
0.000424795
-0.0971582
-0.0397546
-0.0218345
-0.10152
-0.004885
0.00398885
-0.095044
0.00143579
-0.058038
-0.0335917
-0.00599942
-0.0575369
-0.00782144
-0.0111394
-0.0919569
6.96108e-05
-0.017239
-0.00109568
-0.103817
-0.0894712
-0.00727938
-0.0602397
-0.007325
-0.0955954
0.00163812
0.000448356
0.000829053
-0.0884757
-0.0359706
-0.0226304
-0.00661919
-0.00505509
-0.0107823
-0.00511613
-0.130603
-0.0813584
0.0033808
-0.100541
-0.0483841
-0.00684125
-0.0441642
-0.0619181
0.0019625
0.00642526
-0.0783869
-0.0701293
0.00168479
-6.86561e-05
-0.0958948
-0.00677129
0.00175737
0.00185251
-0.0397784
-0.0230116
0.00693109
-0.0992272
0.000258628
0.00212949
0.000820693
-0.00722264
5.30389e-05
3.60538e-05
9.18353e-05
-0.0960876
-0.00294828
-0.00647696
-0.0572418
-2.9106e-06
0.00331236
-0.0104133
-0.00912794
-0.0842338
-0.00633771
0.00635068
-0.0317558
-0.00934606
-0.00202626
0.000159486
0.00143086
-0.115986
-0.00256369
-0.0509762
0.00176593
-0.0799211
-0.0879726
8.55249e-05
0.00113596
0.00169323
4.9693e-05
-0.0066396
0.00287169
-0.0611321
-0.126404
-0.0505971
-0.100389
-0.0937943
0.000128306
-0.00849843
-0.0840137
-0.0979392
0.00912565
-0.0868553
0.00140241
-0.0325857
0.00105305
-0.0504431
0.00135926
-0.0171028
0.00179839
-0.0120137
2.39063e-05
0.00145567
-3.55308e-06
-0.0641897
0.00513912
-0.0940533
0.00180797
-0.0617526
0.00395817
-0.00745415
-0.015439
-0.0405743
-0.02119
-0.0121818
0.000106928
0.00140744
0.000892995
-0.052428
-0.00289769
-0.0684819
0.00391964
-0.0941909
0.000173248
0.00397796
-0.00247182
-0.0703447
-0.00208335
-0.00522977
3.43054e-05
-0.0356371
-0.000398101
-0.0342188
-0.0940047
0.00193332
-0.00807055
0.00111452
-0.114092
4.63244e-05
-0.0340981
-0.0505414
-0.00361459
0.00128589
-0.0103017
-0.0806864
-0.078392
0.0030567
0.0172057
0.000730554
0.00093994
-0.0995919
-0.00507335
3.43935e-05
0.0326367
8.73855e-05
0.00135576
0.00127442
-0.000807261
-0.00689292
3.17961e-05
0.00203669
-0.0890511
-0.00812334
-0.0518917
0.000124758
0.00276456
-0.0133845
0.000976204
-0.0009409
0.00107879
0.00120355
-0.00280021
-0.0132367
0.00424982
-0.00799831
0.00102705
-0.121627
-0.0940229
-0.00868279
0.00279084
-0.0163103
-0.00168302
-0.0966817
0.00090805
-0.0034148
-0.00221239
-0.0534577
-0.0128584
-0.0988395
0.000101494
-0.0973644
0.000584952
5.67427e-05
0.00265647
-0.086467
-0.031291
-0.00236036
-0.000349233
-0.0057107
-0.00327231
0.000718535
0.00056122
-0.0118971
-0.0991648
-0.0656101
-0.0841485
-0.0852872
0.00671472
2.33794e-05
-0.0742944
-0.00230658
-0.0245582
-0.0398259
0.00285074
-0.00946201
-0.0960024
-0.00641097
-0.0991002
-0.0937826
-0.0894395
-0.00637976
0.00270292
-0.0151825
-0.00872473
0.0121297
-0.00731216
-0.0341893
-0.00716393
-0.0360892
-0.0955202
0.000110359
-0.00821131
-0.0672688
-0.0924755
-0.0134153
-0.00599764
0.000248493
-0.0037887
-0.0589525
0.00202092
0.0255429
0.0154908
0.000757632
-0.0996321
-0.0932607
0.0044858
6.89066e-05
-0.0504326
5.36376e-05
0.00140824
-0.00039399
-0.0777996
-0.0227625
-0.0838542
-0.094663
6.20381e-05
0.00424939
-0.0119654
-0.0390577
-0.0749086
-0.0991492
-0.0983455
-0.00213529
-0.0122117
0.0356632
-0.0944693
-0.0883138
-0.0513861
0.00756755
3.297e-05
-0.00346814
-0.0359471
8.18965e-05
-0.0126998
9.38638e-05
-0.000398662
-0.0936127
-0.0615239
0.00369139
9.60001e-05
-0.0480111
-0.0109268
0.000263191
0.00111319
2.56953e-06
-0.0067403
-0.114687
-0.00381875
-0.00490779
-0.0899857
-0.00308576
-0.0495151
-0.0919758
-0.0941712
0.0015981
-0.0474993
5.78743e-05
-0.00168115
-0.0203635
-0.0872052
0.00206064
-0.0827697
-0.0281768
0.00132658
-0.0129714
0.00238006
-0.00227633
-0.0663437
-0.00780958
0.00339887
0.00128427
-0.0352883
-0.0679073
-0.0136355
-0.0019124
-0.011709
-0.012177
-0.0577873
-0.0532042
-0.0713664
-0.0107113
-0.0895383
0.00129916
0.00840986
0.00158885
-0.0923179
-0.00240533
0.00123901
-0.104761
-0.00263088
-0.0903257
-0.0961848
-0.0970456
0.0356799
0.00133684
-0.105628
-9.15444e-05
-0.000232183
0.000104732
-0.000410236
9.02745e-06
0.00242487
-0.00128192
9.86218e-05
-0.0393615
-0.000222749
-0.043042
0.000464285
0.000106914
0.000368484
-0.0591224
-0.0534136
-0.0687468
-0.0353716
-2.21526e-05
0.00108588
0.000738244
0.000487118
-0.0928202
0.00506833
-0.0118831
9.02252e-05
-0.0119638
0.000399943
-0.0341836
-0.0985896
-0.0140112
-0.0848836
-0.00681384
-0.00196
-0.0828665
-0.115636
-0.0487027
-0.009149
-0.0160524
0.000637617
-0.0675408
0.00133161
-0.00824647
-0.00845056
-0.0160521
0.000219705
-0.0526205
-0.0943821
0.00189996
-0.00234385
0.00776209
0.00074478
-0.0228611
0.00444805
-0.0556792
-0.064615
-0.0716445
-0.00268364
8.10751e-05
0.000410307
-0.116755
-0.0929079
0.00445041
-0.0953959
0.00146348
-0.00606463
0.000107548
-0.00273584
-0.0989829
-0.00840462
-0.000642945
-0.0140006
-0.0292297
0.000326933
-0.0994012
0.0127613
-0.0941944
4.86891e-05
-0.0118644
-0.0918257
-0.0983273
-0.0938137
0.0022822
-0.0995758
-0.00822436
-0.0139185
-0.042127
-0.0345283
-0.0168131
-0.0964765
0.0021293
0.00277535
-0.0993097
0.00123657
-0.000885516
-0.00696067
0.00130891
-0.0999322
-0.023368
-0.0764122
0.00363924
-0.0109004
0.00129824
0.00247743
0.000460857
0.0021073
7.46782e-05
-0.00184875
-0.00153958
-0.092708
0.000144344
0.000198045
-0.0012676
-0.0127304
-0.0925848
0.000168974
0.00221865
-0.073528
-0.0319197
-0.00499762
0.000917622
0.0037404
-0.0826762
-0.013156
-0.0953956
-0.0515812
0.00130113
0.0039703
-0.100241
0.00440314
-0.0142884
0.000742563
0.000102218
-0.000510013
-0.0336165
0.00159794
-0.00758423
0.00392469
-0.00655939
0.0022726
-0.0861454
-0.0112255
-0.0562176
0.00297181
-0.0115458
-0.0552256
-0.0745035
-0.102858
-0.00765345
-0.0200074
-0.0828717
-0.0129816
-0.0906096
0.00826498
-0.0674185
-0.0654895
-0.0902598
-0.00791636
-0.0206044
0.00129046
0.00296323
-0.100365
-0.0948905
0.000973929
0.000914871
-0.0691528
-0.000516459
0.000117903
-0.0980998
0.00145118
-0.0073603
-0.0994173
-0.091784
-0.00376305
-0.000200289
-0.00702183
-0.0984776
-0.0935583
-0.0870194
0.00165417
-0.0803833
-0.0407894
-0.0535942
-0.0596153
-0.0558241
-0.0106476
-0.0127007
0.0176083
-0.0699813
-0.0988647
0.00156971
-0.0491806
-0.0987898
-0.070965
-0.0927618
-0.00966582
-0.0486993
0.000314199
-0.0118473
-0.00208776
-0.0121526
-0.00712672
-0.0991957
0.00011205
-0.0724689
-0.00289562
-0.0425344
-0.0508854
-0.0473673
-0.0845077
-0.0604552
0.000530382
0.00118166
-0.0720092
-0.00757231
0.00803605
-0.0115495
-0.0914391
3.4356e-05
-0.063552
-0.00247294
-0.00900922
-0.100974
-0.117921
-0.0928775
-0.00941491
0.00159479
0.000697513
-0.0940178
-0.00713964
-0.0215969
-0.0957114
0.000306275
-0.0262985
-0.051836
-0.0122204
-0.0147474
-0.0103552
0.00118398
0.0311297
-0.0941204
-0.0747481
-0.0140055
0.00158111
-0.00411866
-0.0984848
-0.0745179
0.000225594
-0.0215478
0.000636892
-0.000845681
-0.00175681
0.00106251
-0.0370852
-0.00713456
-0.00724998
0.002073
0.0006831
-0.00753874
-0.0945997
-0.0866482
-0.0347765
-0.0209278
-0.00304079
-0.0327472
0.000786354
0.000587616
-0.0059364
-0.00692361
-0.0943503
-0.00872807
-0.0673206
-0.00973285
-0.0152674
-0.00170435
-0.0978462
-0.00024744
0.0342547
0.00200633
-0.0884084
-0.0242061
-0.0305573
-0.0972976
-0.035407
0.0030645
-0.0119324
-0.00981895
-0.0972271
-0.0366384
-0.00463407
-0.00259136
-0.0588689
-0.0582703
-0.0155702
0.000901523
-0.0205817
0.00046463
0.000398922
-0.116952
1.17818e-05
-0.0783973
-0.017344
0.000506438
0.00418002
0.000381858
-0.00704701
-0.000179993
-0.0155187
-0.0982154
0.000258204
-0.0875652
-0.0989718
-0.00970797
-0.0577579
-0.0122402
0.000547583
-0.000236397
-0.00362998
0.000380851
-0.0755049
-0.0188324
0.00141584
-0.000737599
0.000591633
-0.0929119
0.00719896
0.00787147
-0.0873995
-0.0935424
-0.0033827
0.0014075
-0.0290952
0.000164551
0.00121441
0.00385812
-0.000676873
-0.00277791
-0.00228282
-0.013298
-0.100408
0.00124395
-0.0816769
-0.0229276
-0.0283809
-0.000167869
0.00146514
-0.0287897
0.00794305
-0.00171102
0.00182943
-0.00729897
-0.0044921
-0.00939301
-0.0355279
-0.00448079
0.0315843
-0.0799379
-0.00126054
0.000934962
-0.00515336
0.0070102
0.00278572
-0.0338583
-0.0431127
-0.0375683
-0.0195054
0.00156404
0.0142219
0.00145111
-0.0937363
-0.0909891
-0.0270584
-0.0826326
-0.00608782
9.40932e-05
-0.000675107
-0.00102685
-0.00325995
0.00124769
0.000548303
0.0018371
-0.0714913
0.00011364
0.00176694
-0.0173876
-0.0417547
-0.0971344
0.00288416
0.00254448
-0.00168796
-0.0713173
-0.0676577
-0.0232918
-0.0901337
-0.0458332
-0.0775012
9.95278e-05
-0.0592858
-0.0059487
0.000625533
-0.000806011
-0.0921614
-0.0887381
-0.00454643
-0.0344611
-0.0146297
-0.00677287
-5.70059e-05
-0.0036338
0.00138878
0.00327667
-6.87536e-05
-0.0405216
0.00598503
-0.0960398
0.00113938
0.0309744
-8.07617e-05
-0.0328211
-0.026697
-0.0953989
-0.0863932
-0.0752991
-0.0485077
-0.0935409
-0.00336451
-0.0833822
0.00114937
-0.0173984
0.000109772
-0.0122544
-0.0396195
-0.0108512
-0.0936002
-0.0231557
-0.0321616
-0.00669208
-0.0806378
-0.0032232
-0.00721111
-0.0273356
-0.00846329
4.63996e-05
0.00344597
0.0346816
-0.00240682
-0.017629
-0.00221133
-0.036406
0.00166472
-0.0140623
-0.0866235
0.00708193
4.16962e-05
-0.0177584
-0.0992042
-0.0296393
-0.029759
-0.0657633
0.00174243
7.21267e-05
-0.0946672
0.00348356
-0.0466043
-0.0346214
-0.0962751
-0.000927015
-0.0635612
0.0098122
-0.00203149
0.00274589
-0.00776846
-0.0972667
0.00438363
-0.0933557
-0.0121138
-0.0385411
-0.0879568
-0.0184249
-0.0961864
-0.0868821
0.000407943
0.00998806
-0.0946982
0.00797317
-0.0998762
-0.00478453
-0.00522333
-0.0932057
-0.0658676
-0.0989421
-0.00517404
-0.0121971
-0.00680907
-0.0917454
-0.0939229
-0.0150675
0.00382621
-0.0353475
-0.0284108
-0.0951925
-0.00480239
-0.00854446
-0.0987991
-0.0296032
-0.000843499
-0.0859513
-0.0569409
-0.0136407
0.000601763
-0.0975745
-0.0955461
-0.000500206
-0.00181775
-0.0161868
0.000464182
-0.000225884
-0.00226287
-0.00973519
-0.00474348
-0.0675563
-0.0182491
-0.0873582
-0.0199315
-0.100014
-0.0051577
-0.0364748
-0.079467
-0.0300052
0.00161654
-0.00437194
-0.0449428
0.000718737
-0.00726531
7.55617e-06
-0.00193098
-0.00180564
-0.101241
0.000546698
0.00263521
-0.0951843
-0.0290844
-0.0353709
-0.015611
-0.00166939
0.000531323
-0.0482001
-0.0989475
-0.122525
0.000233129
-0.065404
0.000102908
-0.00311878
0.00148688
-0.0938676
-0.0455986
-0.0138377
-0.0827428
-0.0170271
0.00588637
-0.0991322
-0.101259
0.00146525
-0.0112393
-0.00352293
0.0327865
-0.0633389
8.26762e-05
-0.0856921
-0.00404719
-0.00288736
0.0088469
-0.0940903
-0.0032809
-0.133893
0.00807792
-0.0946713
0.00433314
0.00402568
-0.0030847
0.0081286
0.00258013
6.93592e-05
-0.0206313
-0.0969836
-0.0920625
0.0300261
-0.0962645
-0.00479761
-0.100899
-0.096099
-0.0468731
-0.00524378
-0.000333443
-0.000553313
-0.00163001
-0.0950301
-0.00436345
-0.0178905
-0.00322247
-0.0713164
-0.101419
-0.104292
-0.000294461
-0.0957103
-0.00762679
-0.0047932
-0.00254247
0.000174625
-0.0997477
-0.0149017
-0.0950802
0.016746
0.0034624
-0.0857709
-0.00613867
-0.0095392
-0.00609661
-0.0943819
0.00188863
-0.0165909
-0.000430428
-0.00218211
-0.088935
-0.019271
-0.0231355
2.13284e-05
-0.0214023
-0.0405283
-0.0949825
7.72818e-05
-0.0537732
1.37645e-05
0.00824432
-0.00233871
-0.0625722
-0.0167891
-0.049774
-0.029743
-0.00708064
0.00182962
-0.00255354
-0.0116353
-0.0068647
0.00185467
0.00217854
-0.0893027
-0.0314451
0.00205001
0.00181994
0.000321808
-0.0780101
-0.0882808
-0.0674758
-0.0467567
-0.00814911
0.00247896
7.37427e-05
0.00157962
-0.0815474
-0.0987678
0.000199781
-0.00410038
0.0128158
-0.0973434
-0.0163177
-0.0173504
-0.100892
-0.0180511
0.00234384
-0.0971505
-0.103154
-0.00455427
-0.00306678
-0.00576014
-0.0965731
-0.0932163
-0.0321596
-0.0844367
-0.105578
-0.0229574
-0.100763
-0.0293686
-0.00102599
-0.0699669
-0.077127
-0.00613475
-0.0995839
-0.0114917
0.000989261
0.00140434
-0.0772255
0.00174335
-0.0915171
-0.0149263
-0.0241232
-0.051553
-0.00687493
-0.0966647
-0.10066
-0.000642899
-0.0194682
-0.0932332
-0.0578099
-0.0982064
-0.0247911
-0.000614565
-0.00174066
0.00171387
0.00148174
0.0123437
-0.00247885
-0.00563814
0.0100173
-0.019749
-0.029248
0.00288959
2.95309e-05
0.000185097
-0.0135115
-0.0235908
-0.00319037
-0.0612788
-0.032318
-0.00823687
-0.0585346
-0.0240595
0.0086782
-0.100032
0.000189956
0.00124076
-0.0943246
-0.105514
-0.097876
0.00418973
0.000819852
-0.0935379
-0.000530403
0.00188343
-0.0382117
-0.000848706
-0.0556
-0.0702824
-0.00509182
-0.0985314
-0.0970185
-0.0212974
-0.0622101
-0.0920616
-0.00837065
0.0100041
-0.0704079
-0.0985912
-0.028302
-0.0778298
9.54579e-05
-0.00531273
3.56042e-05
-0.0130813
-0.0998265
-0.0844642
-0.0972439
-0.0855633
-0.0255182
-0.00857494
-0.00771948
0.000321637
-0.0029098
0.00146562
-0.087759
-0.00117608
-0.0979451
-0.00528791
0.0063701
-0.0522225
-0.09799
-0.0908233
-0.0966814
-0.0539959
1.03114e-05
0.00117667
-0.0945688
-0.0896283
-0.0290717
-0.000480727
0.00124424
-0.03819
-0.0235354
-0.0903896
-0.0294324
-0.0264525
0.00143803
-0.0920685
0.0020037
-0.0938434
0.0215777
-0.00181978
-0.064217
-0.0011194
-0.105591
-5.90069e-05
-0.0994087
-0.00039662
-0.0258578
0.00391387
-0.00657219
0.00828668
-0.0375242
-0.0538525
-0.100816
-0.0920118
-0.0282575
-0.0286846
-0.00323983
-0.0957409
-0.10065
0.000696455
9.907e-05
0.000571129
0.000120998
-0.0992765
7.75731e-05
0.003115
-0.0308651
0.0142652
-0.000582134
0.00146216
-0.0122052
-0.0765127
-0.095261
-0.00424646
0.0110001
-0.134666
0.0212688
-0.0117644
-0.00674868
-0.0942957
-0.0414873
-0.0351238
-0.00683479
-0.00242856
-0.00158365
-0.0991291
-0.0985671
-0.0281655
-0.00035797
0.0015645
0.000722501
-0.0939285
0.00202833
-0.0944245
-0.100159
-0.0138768
-0.0285045
0.00250761
-0.0064503
-0.0038049
-0.01331
-0.0963871
-0.0156981
-0.0765102
0.000488521
-0.00305171
0.000527751
-0.0077974
-0.081672
-0.0965991
-0.0196622
-0.0995289
-0.079711
-0.000517436
-0.00723959
0.00144324
0.00239039
-0.0988159
-0.100387
-0.0115487
-0.00353262
0.00496025
-0.0331002
-0.0525817
-0.0975174
-0.0191062
-0.0977621
-0.0519076
0.00150917
-0.00693065
0.000519999
-0.0625824
-0.0119213
-0.00355286
-0.0968386
-0.0373204
-0.0657303
0.00190751
-0.0254099
0.00073583
-0.097964
-0.104848
-0.00974383
0.0038616
-0.0265245
-0.00806776
-0.000741716
-0.00700882
0.00148161
-0.0983788
-0.0219121
-0.0975526
-0.0108855
-0.062751
-0.0324852
-0.0974826
0.00159914
-0.0370654
-0.0993803
-0.0059933
0.0237269
-0.0998207
0.000760161
0.00184584
-0.0297836
-0.110796
-0.100112
-0.00959413
0.00336457
-0.00138331
-0.000437048
0.00561412
-0.00669648
-0.0957672
-0.00419099
-0.0246909
-0.0124336
-0.00342406
-0.0140894
-0.0705824
0.00232123
-0.0842546
0.00248225
0.000803224
-0.0087493
-0.0988728
-0.0232613
-0.0472521
-0.0836785
-0.103912
0.000674239
-0.00903243
-0.025544
-0.0933053
-0.0883124
-0.00778838
-0.0940175
-0.0197385
-0.000284921
-0.00522739
-0.087443
-0.0357608
0.00328055
-0.0983004
-0.00375284
-0.0159113
-0.00114594
-0.0985556
-0.0041204
-0.0715236
0.00141199
0.0293677
-0.017551
-0.00391779
-0.0659428
-0.0989092
0.00103615
-0.0149269
-0.0398242
-7.07657e-05
-0.0101767
-0.00930901
-0.0353884
-0.0596099
-0.0617023
0.0016508
-0.0946775
-0.0292553
-0.0593018
0.0100912
-0.0242689
0.00132236
-0.094258
-0.0958715
-0.0401359
-0.0134751
-0.0751954
-0.110356
-0.0113579
-0.00918876
0.00171348
0.020162
-0.0946766
0.0095305
-0.0979804
-0.00220901
-0.0686453
-0.00425614
-0.093218
-4.49749e-05
-0.000658231
-0.00146834
-0.0193405
-0.108738
-0.0979829
-0.0766408
-0.0255369
0.0013876
1.83487e-05
0.00390901
-2.43674e-05
-0.0941915
3.62859e-05
-0.0530504
-0.00768112
0.0193989
-0.00344622
-0.00268491
-0.00376001
0.00423075
0.00839173
-0.0149622
-0.0988597
-0.000881117
-0.0201628
0.0270385
0.000835774
-0.00810906
-0.0114948
-0.0179243
-0.0317559
-0.000834689
0.00160563
-0.0762971
-0.0127436
0.00872895
-0.00133656
-0.0152253
0.00132832
-0.102423
-0.0104524
-0.00245044
-0.0864899
-0.0335023
0.0212525
-0.0979154
-0.0837949
0.00168258
-0.0203663
-0.0145611
-0.0193125
0.00262768
0.000121182
-0.0330675
-0.0981883
-0.0996742
-0.0886537
-0.0138464
-0.0993293
0.00929983
-0.0184026
-0.0123039
-0.0909947
-0.0079043
-0.0295374
-0.00699056
-0.0999211
-0.100335
0.000633674
5.72303e-06
-0.0227103
0.00160322
-0.0127103
-0.0743179
-0.00338605
0.00180093
-0.0970775
-0.0986038
0.00100191
-0.0307577
-0.0331539
-0.0969866
4.00169e-05
-0.0998355
-0.0984791
0.00159481
-0.00884217
-0.0804121
-0.0273291
0.00152965
0.000523
0.00131086
-0.0241977
0.00136961
-0.000525
-0.0963852
-0.0990622
-0.0985502
0.000566142
-0.098984
-0.0104382
-0.0550755
0.000602924
-0.011411
-0.0227262
0.000973156
-0.100854
-0.0254154
-0.00796024
-0.112862
-0.0992321
-0.0286677
-0.0700456
-0.0994124
-0.0941289
-0.000152194
-0.100807
0.0013664
0.00016553
-0.00713945
9.51405e-05
0.000530976
-0.100352
0.0037811
0.00199037
0.00139918
-0.0988145
-0.100014
0.0114151
0.000993398
-0.00898935
-0.0212079
-0.0995011
0.00140385
-1.80308e-05
-0.00443574
0.0191335
0.000753557
-0.00366053
-0.0996748
-0.051867
-0.0364423
0.00128975
-0.00198317
-0.0157555
-0.100227
0.00119224
-0.100009
-0.0507061
-0.0111204
-0.100098
-0.0988307
0.00096441
-0.077977
-0.0156791
-0.0987403
0.00444178
0.0150721
0.00276538
-0.0146678
-0.00612637
-0.0820749
3.36778e-05
-0.000164009
0.00160806
-0.077659
-0.0466016
-0.0992979
-0.0932279
-0.0112038
-0.0947664
-0.0198931
-0.0443574
-0.0840939
-0.0993828
-0.00131559
-0.0933307
-0.0376166
-0.0125551
-0.00217917
-0.0906854
-0.0456896
-0.0246019
-0.0650052
0.000985515
-0.102256
0.00169228
-0.0383653
-0.00710198
0.00287158
-0.0934427
-0.0459477
-0.0564284
-0.0190929
-0.0220019
0.00900039
-0.0699104
-0.0418833
-0.0941642
-0.00106696
-0.100905
-0.00406651
-0.0678832
-0.0473251
-0.101322
-0.00806538
0.000974191
0.000170678
-0.0962298
0.00287308
-0.00472558
-5.99609e-05
-0.0137519
0.000480919
-0.00796678
-0.0995638
-0.10233
-0.120749
-0.100176
-0.00130233
-0.0817453
-0.0943274
-0.0870302
-0.0991835
-0.093498
0.00111251
-0.0990333
-0.0285317
-0.0412408
-0.0999103
-0.0729461
-0.00176515
-0.130317
-0.000775767
-0.0090077
-0.0249164
-0.0936368
-0.100827
-0.0938492
-0.0150859
-0.014697
-0.00351755
-0.0959001
-0.0985767
-0.00470167
-0.067258
-0.0147907
-0.00949137
-0.00903052
-0.0891958
-0.0830947
-0.0118072
-0.00808744
-0.0233637
-0.00424642
-0.00208859
-0.0176029
0.00176337
-0.0124296
0.00931676
-0.0764355
0.0037278
-0.0676788
-0.0112092
-0.00825944
-0.0940369
-0.0938372
-0.00461491
0.00908792
-0.00706436
-0.0394301
0.00143629
-0.00219588
-0.0260164
0.00163092
0.00373251
-0.00580697
0.00158591
-0.00817344
-0.0495285
0.0261208
-0.09265
-0.00979443
-0.00446208
-0.09574
-0.00115019
-0.0300979
0.00135412
-0.0080547
-0.011568
-0.0088838
0.000857352
-0.0249702
-0.00789005
-0.0938975
0.00443967
-0.0132903
-0.0182865
6.07725e-05
-0.0039656
0.0242373
0.00183245
-0.066754
-0.0992121
0.00785073
-0.0156659
-0.0068793
-0.010864
9.92118e-05
-0.0141815
-0.00275682
-0.00340077
-0.0832859
0.00152571
-0.0677464
-0.0926145
0.00173501
-0.00237181
-0.000753064
-0.0306869
-0.029508
-2.43678e-05
-0.0366476
-0.0977854
0.00656998
0.000937662
-0.0913335
-0.000310162
0.00187569
0.00105079
-0.00035665
0.00073883
0.00178756
0.00268001
-0.0801805
0.00875381
-0.0303916
-0.0137414
0.0106509
0.0112425
-0.0451433
-0.0940332
-0.0988949
-0.0623565
-0.0341973
-0.0909431
-0.0830834
-0.00123496
-0.0175952
0.000377325
0.0103704
-0.000703971
-0.0201602
-0.0287659
0.000768175
-0.00335187
-0.0119617
0.00110358
0.00108211
-0.00881383
0.00184733
0.000565193
-0.00902388
-0.112566
-0.0842538
0.00688111
-0.00777592
0.000937346
-0.0718687
-0.117084
-0.0942758
-0.0400525
-0.098962
-0.00043282
-0.0986243
-0.0995562
0.00434292
-0.00480022
-0.0079559
-4.40311e-05
-0.00243654
-0.00142196
-0.00070805
-0.0196729
-0.093793
-0.0692282
-0.0941176
0.00113727
-0.0460291
-0.0955338
-0.00668969
0.00113597
0.00253544
0.00109582
-0.0169736
0.00160517
-0.0387489
0.00528359
-0.09728
-0.0323114
-0.100808
-0.0546373
-0.0959091
-0.0999517
-0.00397148
0.00176205
-0.012691
-0.00668889
0.00095595
-0.00994931
-0.0941509
-0.0971692
-0.00843913
-0.0100149
0.00181201
-0.0229981
-0.0429075
0.00139931
0.00100729
-0.0875048
7.86308e-05
-0.0044051
-0.0216689
-0.0196025
-0.0151427
-0.0962934
-0.108507
-0.00743824
-0.0956535
-0.0767245
-0.0956467
-0.000102631
-0.0113624
0.000676151
-0.017858
-0.0852131
0.000705961
-0.0991336
0.00239291
0.000439473
-0.00771184
-0.0984358
-0.0545518
-0.0726552
-0.000666607
0.00121426
-0.00345791
-0.100517
-0.0118915
0.000299902
0.00160427
-0.0055797
0.00522827
0.00129305
0.00172017
-0.100048
-0.0995116
-0.0956302
-0.0172975
-0.0769279
-0.101169
-0.0779017
-0.100041
-0.0559201
-0.000117141
0.000307443
0.000147848
-0.00431743
-0.0970637
-0.0958133
0.000381417
-0.098561
-0.100007
-0.0486295
0.00152608
-0.00625659
-0.0572806
-0.0870309
-0.0939917
0.0137535
-0.0943772
0.000130396
-0.0765794
-0.061007
-0.00553142
-0.0997369
-0.00781158
-0.0897592
-0.101032
-0.00881174
-0.109212
-0.00344251
-0.00833472
-0.101349
-0.0982874
-0.0792299
-0.0208638
-0.0925938
-0.0921039
-0.0990855
-0.0975892
-0.0939713
-0.0816371
-0.0634439
-0.00992028
0.00201037
-0.0557594
-0.0949856
-0.00428424
-0.0968624
0.00113418
-0.0429988
-0.00274363
0.0010805
-0.0926207
-0.0079537
-0.0856328
-0.0924779
-0.00776294
-0.0265839
-0.0317906
-0.0990063
-0.0606287
-0.0484813
0.00157667
0.000669022
-0.097366
0.00242169
0.000792291
-0.0478544
-0.0237656
-0.0972505
-0.027422
-0.00501276
-0.0215093
0.00177688
-0.040935
-0.012872
-0.0830178
-0.00107999
0.000847428
-0.10079
-0.0637912
0.00156082
-0.0995954
-0.0919898
-0.00699519
0.00810689
-0.016245
-0.0996063
0.00101082
0.000378045
-0.0908815
-0.0136613
-0.0979576
-0.0947801
-0.0685005
-0.0131262
0.00256809
-0.0082784
-0.0267434
-0.03379
0.000430559
-0.0974851
-0.0645609
-0.000731207
0.00158002
-0.0550924
-0.0108265
-0.0926612
-0.0798569
-0.000146816
-0.10885
-0.0701555
-0.0353038
0.000899045
-0.0987967
-0.0954629
-0.107567
-0.00828894
0.000461038
-0.0597335
-0.0140058
-0.0101049
0.00039235
-0.0208125
0.00124324
0.0128385
0.000866386
-0.00267532
-0.0401676
-0.084513
-0.0990961
0.0114233
-0.0894141
-0.0941657
0.000155685
-0.0968975
-0.0966125
-0.0954963
0.00122647
-0.0522714
-0.093493
-0.0979171
-0.0872412
-0.0705081
0.00735059
-0.100108
-0.0672575
-0.086958
0.00100741
-0.0575707
-0.06462
-0.00743996
-0.0750357
-0.108279
0.00173851
-0.0983557
-0.101189
-0.00462853
0.00072732
0.00341637
-0.0076221
0.00827666
0.0014436
0.00114839
-0.102362
-0.095984
0.00252074
-0.0663244
0.00108798
-0.0236774
-0.0982225
-0.0964155
-0.0985
-0.0408934
-0.0952589
0.00158838
0.00116726
-0.0311813
-0.0931507
-0.10079
-0.0756
-0.095852
-0.0204142
0.00129426
-0.00761728
-0.0179157
-0.0374798
-0.120271
-0.0991478
-0.0237791
-0.0931141
-0.0930822
0.00126071
-0.0904226
-0.00950585
-0.0322881
0.00920725
-0.0089556
-0.00346228
-0.0285569
-0.0265251
-0.0633577
-0.0966373
0.00141135
-0.0632085
-0.0256422
-0.0276658
-0.0991453
-0.0158974
-0.0990709
0.000881118
-0.0831826
-0.0973096
-0.080349
-0.0895761
0.000763252
-0.0598707
-0.102309
-0.100677
0.00141744
-0.0658436
0.000471715
0.00061131
-0.0074622
-0.0394063
-0.101536
-0.0914719
-0.020701
-0.0975299
-0.0388253
0.000908519
-0.000576914
-0.00956415
-0.00165615
-0.0509776
-0.100136
-0.100236
-0.0805497
-0.00276919
-0.00387301
-0.0358086
0.000692808
-0.099015
0.00828303
0.000788707
-0.0371032
-0.0687722
-0.0034702
-0.0967446
-0.0512047
-0.0994819
-0.0159208
-0.10568
-0.0917571
-0.0970711
0.00101975
0.00154089
-0.0329328
-0.0098225
-0.085074
-0.0978768
-0.0346263
-0.0682318
-0.0864676
-0.0567723
-0.0357501
-0.0136944
0.00386623
-0.00147821
-0.0908086
-0.0114655
-0.0264201
-0.0299934
-0.0275037
-0.0210223
-0.100843
-0.0899999
-0.00655558
-0.015758
-0.0409023
-0.00780102
0.0015598
-0.0179476
-0.059485
0.00167095
-0.0971136
-0.0084968
-0.0972309
-0.00787737
0.000949036
-0.0103728
-0.0962487
-0.00857095
-0.101623
-0.087787
-0.0333093
0.00676042
-0.0857644
0.00838983
-0.0905186
-0.00943508
-0.00236233
-0.0659263
0.00118628
-0.0997802
-0.00120885
-0.00179774
0.000903939
-0.00730519
-0.0350352
-0.0148057
-0.067207
-0.0618646
-0.0112678
-0.00475137
-0.0817322
-0.1253
0.0149878
-0.0499383
2.34009e-05
0.00560649
-0.0448758
-0.0737912
0.00323912
-0.0659408
-0.00482252
0.000969706
-0.00639114
0.00139548
-0.00396516
-0.00389411
-0.101087
0.00068464
-0.0547048
-0.00334859
-0.0939161
-0.0972039
-0.0360713
0.00745276
-0.0736201
-0.0949148
-0.0975598
0.00522259
-0.0236201
-0.0632467
-0.0383619
0.00206734
-0.088241
-0.0994825
-0.00193846
-0.00148124
-0.0986172
-0.0329051
0.0145149
-0.00658024
-0.0505905
0.00179432
-0.0168991
-0.0437351
-0.0199428
-0.0249639
-0.000710948
-0.000849305
-0.0113849
-0.093305
-0.000641574
-0.00897855
-0.0938704
0.000897051
0.00125456
-0.100926
-0.0552545
-0.0712919
-0.00852399
-0.0270567
-0.016214
0.00100294
-9.84314e-05
-0.0303656
-0.0292009
-0.100099
-0.080161
-0.0326721
-0.102022
-0.0372556
-0.0584117
-0.00123076
-0.00857287
-0.0487117
-0.0301623
0.0171399
-0.0503556
-0.00369229
-0.0272321
-0.0271508
0.00209849
0.000528212
0.0188091
-0.00755444
0.00707483
-0.0511486
-0.0583242
0.00179091
-0.0588142
-0.0440354
-0.0920976
-0.0329591
-0.0954914
-0.0412811
-0.097705
0.000404289
-0.0674515
-0.036885
-0.00406548
-0.0100125
-0.0298424
-0.0388569
0.00590738
0.000541155
-0.0621286
-0.0960903
-0.0360945
0.00139449
0.00509335
-0.0756928
0.0150355
0.00770089
-0.00439477
0.0011459
0.00729042
-0.00443074
0.00525153
0.00147264
-0.0986899
-0.0200246
-0.0987526
-0.000729205
0.0185668
-0.00795106
-0.0245452
-0.0101115
-0.00337108
-0.0376876
0.00848316
-0.000660007
-0.0963307
-0.0281356
-0.0928199
0.000670139
-0.0131718
-0.0442902
-0.0792787
-0.0289805
-0.0734532
-0.023132
-0.0563512
-0.0139691
-0.00132732
-0.112129
-0.097918
0.00744782
-0.00626307
-0.0269674
-0.00495176
0.000347277
-0.0752676
0.0007392
-0.0990822
-0.091017
-0.0750211
0.00523673
-4.13635e-05
0.0238833
-0.0721861
-0.0218102
-0.00986068
-0.00801182
-0.00914932
-0.00604697
0.001269
0.00877668
-0.0940209
-0.00497297
-0.00330233
-0.0875053
-0.0434663
-0.0211036
0.00320751
-0.0117675
0.000537539
-0.011955
-0.0993543
0.00113931
-0.0315227
-0.0956978
-0.0784717
-0.0580225