/*--------------------------------*- C++ -*----------------------------------*\
| =========                 |                                                 |
| \\      /  F ield         | OpenFOAM: The Open Source CFD Toolbox           |
|  \\    /   O peration     | Version:  v2012                                 |
|   \\  /    A nd           | Website:  www.openfoam.com                      |
|    \\/     M anipulation  |                                                 |
\*---------------------------------------------------------------------------*/
FoamFile
{
    version     2.0;
    format      ascii;
    class       volScalarField;
    location    "650";
    object      p;
}
// * * * * * * * * * * * * * * * * * * * * * * * * * * * * * * * * * * * * * //

dimensions      [0 2 -2 0 0 0 0];


internalField   nonuniform List<scalar> 
13851
(
-0.00106912
0.0131155
-0.0411547
-0.00115607
-0.058461
0.00311584
-0.0140276
-0.0376541
-0.000619812
-0.02278
-0.00208599
-0.0142621
-0.0776157
-0.0710167
-0.00787189
-0.0203302
-0.0254927
-0.00321635
-0.0738112
-0.000653292
-0.00136455
-0.0431654
0.000244919
-0.000823991
-1.5638e-06
-0.0362891
-0.0320287
-0.0935585
-0.00152561
-0.00946999
0.00318218
-0.0259072
-0.0396068
-0.00380444
-0.000851483
-0.0876727
-0.0922489
-0.0542014
-0.0226991
-0.00422856
-0.0042346
0.000115862
-0.0932892
-0.00267923
-0.00319501
-0.087283
-0.0050771
0.0038183
-0.0329409
-0.000339866
-0.0673804
-0.0748052
-0.090234
-0.008082
-0.00494486
0.00011601
-0.000480124
-0.092604
-0.00925704
-0.0153084
-0.0545811
-0.0700573
0.00410313
-0.0628
-0.00479161
3.39079e-05
-0.0895409
-0.00505125
-0.0478705
-0.00283743
-0.0889915
-0.0929053
0.0126071
-0.00803079
-0.00433385
-0.000442195
-0.0436325
-0.0849593
-0.0498268
-0.0904081
-0.0178751
-0.000480253
-0.00958461
-0.089048
0.00426964
-0.0119226
0.00266676
0.00327658
-0.0312228
-0.000654834
-0.08971
0.00164474
-0.00345124
-0.0360125
-0.0314689
-0.000628577
-0.0599467
-0.0813862
-0.000463062
-0.000489269
-0.0871524
-0.0562228
-0.00458027
-0.0347722
8.58333e-05
0.00271796
-0.0600444
6.42893e-05
-0.0942869
0.00318096
-0.000603757
-0.000669159
0.00157078
-0.000833289
-0.000702604
0.00789198
-0.0819918
0.000152291
-0.00205033
-0.00439367
-0.0933881
-0.0341446
-0.0777372
0.00301382
0.00309754
-0.000378033
0.00303333
-0.0526482
-0.00128672
-0.0626208
-0.00432438
-0.00139546
-0.0891943
-0.00954634
0.00762513
-0.0016484
0.000132995
-0.0907348
-0.0598614
-0.0386803
-0.0882997
-0.00459775
0.00011649
3.04843e-05
-0.0183643
-0.00219209
-0.000498515
-0.0616027
-0.0135748
-0.00316935
-0.0770165
-0.00418519
-0.0688801
-0.000524695
-0.0237087
-0.0176921
-0.00138938
-0.0110467
-0.0750674
-0.0662126
9.11931e-05
-0.0410149
-0.0925137
-0.00132753
-0.0105519
7.73644e-05
-0.000541169
-0.0490254
-0.00148506
-0.0816235
-0.0848874
-0.000627746
-0.00145592
-0.0428648
-0.00134906
0.0029798
-0.0514585
0.000261012
-0.0778587
4.94642e-05
-0.0262517
-0.0906293
-0.00944575
-0.0445035
3.27089e-05
-0.000197626
-5.56198e-05
-0.00437972
-0.0586558
-0.00950175
-0.00379583
-0.0908363
-0.000704817
-0.0450378
-0.0681603
-0.0225735
7.43513e-05
-0.000803414
0.000164982
-0.000426606
-0.000374804
-0.0826922
-0.00283995
-0.00742222
-0.0153898
-0.00969494
-0.0437005
-0.0275065
-0.0872131
8.36657e-05
-0.0881812
-0.00474937
-0.000731995
6.01919e-05
0.000103032
-0.00202545
0.00288378
-0.0880134
-0.00830287
-0.0869931
-0.0277442
-0.0185355
-0.0841794
-0.0704023
-0.0890287
-0.000251429
-0.0379924
5.17085e-05
-0.0919301
1.55797e-05
-0.0347224
0.00489833
-0.000631419
-0.00068186
-0.0665
-0.00191196
-0.0445155
-0.00177894
0.000138003
-0.00761435
0.00315909
-0.000296691
6.28872e-05
-0.014874
4.24843e-05
-0.0890665
-0.0560661
-0.00412528
-0.0169651
-0.0201375
0.00126446
-0.000405644
-0.0148428
-0.0175828
-0.06248
0.00653547
-0.00933258
-0.0921764
-0.0895102
-0.00919273
8.1223e-05
-0.00287184
0.00459135
-0.000237709
-0.0726552
-0.0220766
-0.0148213
-0.0354574
-0.0848518
-0.00108553
0.00121748
-0.0234188
0.00409723
-0.0490199
-0.0195198
-0.00137092
-0.00052294
-0.000500299
-0.0924817
-0.00139619
9.13563e-05
1.07493e-07
9.42601e-05
-0.0617569
0.00454381
0.00305955
-0.000570978
-0.00753895
0.00388168
-0.00219651
-0.0631261
-0.00981334
-0.0155923
-0.0485449
-0.00185516
-0.073356
-0.0127184
-0.0043651
-0.00137716
-0.0883733
-0.0403154
-0.024533
-0.0922126
-0.00735868
0.00273171
-0.086934
-0.000597938
-0.0569475
-0.0353311
-0.00955039
-0.0600734
-0.0125407
-0.0134574
-0.0849563
8.5102e-05
-0.0207924
-0.000431296
-0.094198
-0.0829932
-0.00843099
-0.059116
-0.00829306
-0.0881999
0.00125411
2.97398e-06
-0.000704595
-0.0819862
-0.0374924
-0.0243496
-0.00734421
-0.00750294
-0.0130966
-0.00176803
-0.0806474
-0.0786496
-0.000136241
-0.091289
-0.0588591
-0.00791237
-0.0449497
-0.0626678
0.00217524
0.000628283
-0.0743311
-0.0696822
0.00106021
0.00553548
-0.0873787
-0.0077548
-0.00077601
-0.000682022
-0.0384329
-0.0246238
0.00111483
-0.0920782
-0.00140185
0.0048829
-0.000677733
-0.00816926
7.53067e-05
0.000108262
-0.00160675
-0.0874615
-0.000219668
-0.00849697
-0.0561939
9.69975e-05
-0.00132553
-0.0160341
0.00273249
-0.080227
-0.00838533
0.00343664
-0.0337358
0.00186978
-0.00398292
4.72616e-05
0.00128028
-0.0893754
-0.00427125
-0.0585912
0.00212456
-0.0753427
-0.0828784
-0.00106022
-0.00097838
0.000645398
-0.00170107
-0.00759617
-0.000602374
-0.0598001
-0.0690366
-0.0503575
-0.0908794
-0.0857941
7.68275e-06
-0.00941659
-0.080271
-0.0893328
0.00682162
-0.081721
0.00130964
-0.0345256
-0.000421267
-0.0594711
-0.000637128
-0.0215069
0.000618651
-0.0130916
6.09769e-05
-0.000608024
7.98515e-05
-0.0632938
-0.00164503
-0.0871398
-0.0020412
-0.0603859
0.00209257
-0.000764718
-0.0193381
-0.038869
-0.0238738
-0.000571482
0.000136372
-0.000632811
-0.000430039
-0.0556155
0.000437939
-0.068152
0.00198424
-0.087486
-0.00296905
0.00262153
-0.00416541
-0.0675194
-0.00402507
-0.000835209
0.000170905
-0.0302877
-0.00279325
-0.0363515
-0.0859499
0.000205866
-0.000230197
-0.00213619
-0.0883821
3.86567e-06
-0.0360243
-0.0510156
-0.0010912
-0.000649166
-0.0126889
-0.0759123
-0.0742265
-0.000806569
-0.00394767
-0.000241075
-0.00060275
-0.093207
-0.0100486
3.01196e-05
0.00655614
-0.00167644
-0.000873015
-0.000706282
-0.00773964
-0.0101184
4.22224e-05
0.000182667
-0.0829375
-0.00970965
-0.0515103
-0.0016712
0.00161182
-0.000671848
-0.00092221
-0.00282884
-0.000952579
-0.000769243
0.00333126
-0.0152782
0.00291209
-0.00940103
-0.000312827
-0.0821147
-0.0859461
-0.0101061
0.00171769
-0.0202541
-0.000350382
-0.0896103
-0.000618535
0.000195337
-0.00419463
-0.0544488
-0.0140332
-0.0918146
0.000112701
-0.0900981
-0.00793065
0.000111824
0.00172535
-0.0814168
-0.034039
-0.000533393
-0.00216346
0.00241979
-0.00499886
-0.00113057
-0.00124599
-0.0127811
-0.0903163
-0.0637182
-0.078285
-0.0797959
0.00345613
2.01231e-05
-0.0739608
0.000121518
-0.0272525
-0.0405802
-1.5339e-05
0.00260044
-0.0870877
-0.00759591
-0.0917055
-0.0879097
-0.083997
-0.0113215
0.00180869
0.00326738
-0.000370627
0.00601736
-0.000822249
-0.0321266
-0.0106353
-0.0367345
-0.0864411
0.000119184
-0.000374437
-0.0650666
-0.0847603
-0.0166288
-0.00768223
-0.00142912
-0.00582529
-0.0591567
-0.00416283
0.00299486
-0.00300135
-0.00112241
-0.0931332
-0.0856327
0.00309222
-0.00060502
-0.0502493
-5.74545e-05
-0.000615975
-0.000377541
-0.0762553
-0.0244999
-0.0784276
-0.0857452
0.000113269
0.00252572
0.00213182
-0.03862
-0.0718937
-0.0902872
-0.0889993
-0.00414973
-0.0132321
0.0112595
-0.0863417
-0.0817428
-0.0509498
0.00487263
0.00011509
-0.005313
-0.032545
8.68366e-05
-0.0159406
4.36298e-05
-0.00216184
-0.0845278
-0.0612146
0.00175892
8.83584e-05
-0.0587422
0.000846645
-0.00148956
-0.000462939
-0.000245016
-0.00773805
-0.0899446
-0.00321815
-0.00177585
-0.0841733
0.00135096
-0.0491806
-0.0843738
-0.0860635
0.00107408
-0.0477333
-7.62006e-05
-0.000371799
-0.0243187
-0.0817633
0.00529981
-0.077532
-0.030897
-0.000692771
-0.0178272
-6.09744e-05
-0.00153164
-0.0644882
-0.00919989
-0.000279953
-0.000677492
-0.0365034
-0.0676167
-0.0147519
-0.00383184
-0.0170496
-0.0137865
-0.0580771
-0.0553811
-0.0692831
-0.0159552
-0.0826177
-0.000707545
0.0063424
0.0011527
-0.0850514
-0.00504904
-0.000643041
-0.0949511
-0.00600991
-0.0842225
-0.0875739
-0.0898721
0.00691935
-0.000642791
-0.0955461
5.32606e-05
-0.00200411
0.000107332
-0.00218244
-0.000106822
-0.00134655
-0.00780813
8.64425e-05
-0.0510468
-0.00805732
-0.054654
-0.00124204
8.46859e-05
-8.09668e-05
-0.0626191
-0.0647989
-0.0659953
-0.0366586
-9.12863e-05
-0.000446633
-0.00114102
-0.00116123
-0.0848674
-0.0254084
-0.0134757
7.17018e-05
-0.0127787
-0.00124877
-0.026792
-0.0915236
-0.018682
-0.080259
0.00204488
-0.00386915
-0.07785
-0.0857432
-0.0488353
-0.0115546
-0.0175661
-0.00322365
-0.0649494
-0.0024182
-0.000531701
-0.00986122
0.00389693
4.79722e-05
-0.0514706
-0.0862337
-0.000392421
-0.00543788
0.00476481
-0.00111426
-0.0256379
0.00333264
-0.0502574
-0.0630894
-0.0719494
-0.00170567
5.48623e-05
-0.0012986
-0.0819677
-0.0823244
-0.0015441
-0.0869452
-0.000562784
-0.00679385
0.000131185
0.00165612
-0.0894141
-0.0126627
-0.00283777
-0.00101009
-0.0306951
-5.38917e-05
-0.0922911
0.00930362
-0.0866425
9.1313e-05
-0.0134207
-0.0843467
-0.0920577
-0.0885501
-9.94321e-05
-0.0898859
-0.00972739
-0.0013855
-0.0449435
-0.0365196
-0.0202045
-0.0895981
0.00104531
-0.000210428
-0.0894574
-0.00051167
-0.00274013
-0.0102836
-0.00069949
-0.0929911
-0.0267999
-0.0729836
0.00161852
-0.000603875
-0.000696208
0.00410752
-0.00138995
0.000980402
0.000114816
-0.00372518
-0.00327092
-0.0850344
-0.0015481
7.69417e-05
0.00273425
-0.0137426
-0.0849325
0.000128049
3.46838e-05
-0.0700916
-0.02442
-0.00079667
-0.00102165
0.0034893
-0.0790547
-0.0152794
-0.0870047
-0.050522
-0.000694065
-0.000187621
-0.0932929
0.00351793
-0.0181533
-0.0011328
6.97769e-05
-0.00129757
-0.035217
-0.00708512
-0.0121077
-0.000260578
-0.00771764
-1.42878e-05
-0.0803271
0.00182528
-0.0570512
0.00413511
-0.0130829
-0.0560057
-0.0709163
-0.093437
-0.0119265
-0.0403833
-0.078024
-0.0139343
-0.0851442
0.00528549
-0.0712211
-0.0514058
-0.0838064
-0.00163345
-0.0245975
-0.00071007
-0.000448014
-0.0925785
-0.0878314
-0.00058958
-0.000270258
-0.0665004
0.000501508
8.21663e-05
-0.0908492
-0.000573954
-0.0092825
-0.0928292
-0.084386
-0.00166124
-0.00197766
-0.00794144
-0.0919624
-0.0857041
-0.0808437
0.000791748
-0.0779139
-0.0394638
-0.06433
-0.0586468
-0.0549832
-0.013031
-0.0138242
0.0156767
-0.0668691
-0.0900879
0.00140947
-0.0490645
-0.0917314
-0.0732811
-0.085256
-0.011015
-0.0483384
-0.00145281
-0.0169373
-0.00512982
-0.01755
-0.00829632
-0.0902822
9.77119e-05
-0.0691944
-0.00478932
-0.0476486
-0.0503831
-0.0471996
-0.0797565
-0.0588695
-0.00675883
-0.000681525
-0.0688099
0.00465225
0.00547287
-0.0149121
-0.084142
-0.000168258
-0.0495891
-0.00115759
-0.0112563
-0.0913825
-0.0879188
-0.0851944
-0.0016353
0.00129566
-0.000915814
-0.0865412
-0.00831564
0.00385325
-0.0872528
-0.00139201
-0.0270952
-0.0542738
0.000542195
-0.0376191
-0.0122042
-0.000554957
0.0160754
-0.0860163
-0.0718101
-0.0177746
0.000577755
-0.000891314
-0.0921331
-0.0710141
2.85429e-05
-0.0255127
-0.00121149
-0.00274986
-0.00111282
-0.000505706
-0.0366911
-0.00132876
-0.00921121
0.00016869
-0.000874653
-0.0108541
-0.0863673
-0.0816699
-0.0365577
-0.0411634
-0.00493605
-0.0348202
-0.000821812
-0.00124549
-0.00829542
-0.00890038
-0.0861691
-0.0102009
-0.0646993
-0.0111267
-0.0190631
-0.00113608
-0.0932942
-0.00210347
0.0106797
-0.00687203
-0.0813449
-0.0277016
-0.0331863
-0.0887754
-0.0366032
-0.00272278
-0.0163414
0.00101033
-0.0910947
-0.0387972
-0.00213487
-0.00515826
-0.0575164
-0.0574527
-0.0389392
-0.00104115
-0.0417159
-0.00125498
-0.00129303
-0.0663778
-0.00041946
-0.0761465
-0.0207077
-0.00127856
0.00232896
-0.00140419
-0.00794842
7.16823e-05
-0.0169974
-0.0886666
-0.00143969
-0.0794077
-0.0927532
-0.0150043
-0.0510579
-0.013362
-0.00130664
-0.000484585
-0.00567616
-0.00141532
-0.0716874
-0.0195508
-0.000545787
-0.00298407
-0.000183995
-0.0853939
-0.0247109
0.00518494
-0.0818527
-0.0841261
-0.00523959
0.00154579
-0.031647
-0.00154143
-0.00204523
0.0027591
-0.000398316
-0.00449483
-0.00353912
0.00166046
-0.0916973
-0.00068853
-0.0778094
-0.0263996
-0.0298393
2.71108e-06
-0.000570241
-0.0304768
0.00569788
0.0038857
-0.000418847
-0.00891436
0.00290686
-0.0116131
-0.0297899
-0.00155143
0.0109768
-0.0766641
-0.00620242
-0.000292175
-0.00722299
0.00351498
0.00154507
-0.0341763
-0.0459827
-0.039703
-0.020201
0.000562149
-0.0254474
-0.000513843
-0.0868029
-0.0836466
0.00376015
-0.0779498
-0.00684729
-0.000130617
-0.00278538
-0.000885179
-0.00137419
-0.000672479
-0.00136763
-0.00043078
-0.0685606
5.49117e-05
-0.000455841
-0.0188725
-0.0427809
-0.0875693
-0.00332997
-0.00130414
-0.00342238
-0.0680242
-0.0695233
-0.0237947
-0.0845928
-0.0529737
-0.0732671
-5.1977e-06
-0.0580316
-0.00766526
-0.000180877
-0.00289598
-0.0849965
-0.0818542
0.000486702
-0.0346963
-0.00117031
-0.0083844
0.000159222
-0.00607893
0.0014969
0.00410844
0.000145873
-0.0417159
-0.000664208
-0.0875418
-0.000873939
0.0071536
-0.000254708
-0.0495525
-0.0283781
-0.0868392
-0.0805345
-0.0715655
-0.0517955
-0.0858194
-0.00653281
-0.0801339
-0.000481123
-0.0127374
7.5807e-05
-0.0155966
-0.0400375
-0.0127847
-0.0857253
-0.0264939
-0.0340161
-0.00133289
-0.077395
0.00357646
-0.00829686
-0.0287717
-0.0128225
-0.000151782
0.000112994
0.013748
0.00180288
0.0140741
-0.00396348
-0.0375442
0.000897302
0.00354957
-0.0815372
0.0039895
-0.000103492
-0.0184517
-0.091521
-0.032557
-0.026513
-0.0696796
0.00120775
2.32419e-05
-0.085893
0.00022792
-0.0475282
-0.0362818
-0.0875446
-0.000834211
-0.0620343
0.00451353
-0.00471051
0.00135201
-0.00963204
-0.0914878
-0.00207066
-0.0855564
-0.00101361
-0.0390077
-0.0813203
-0.0206806
-0.0874614
-0.0784417
3.19043e-05
-0.00150097
-0.0865125
-0.00077931
-0.090318
-0.00642048
-0.0073304
-0.0852602
-0.0687615
-0.0924952
-0.00677878
-0.0131207
-0.0088153
-0.0844457
-0.087379
-0.0166122
0.00278173
-0.0370305
-0.043464
-0.0865269
0.00367302
-0.0095872
-0.089246
-0.0311788
-0.00269402
-0.0787541
-0.0668557
-0.0144956
-0.00112525
-0.0934109
-0.0870667
-0.000280724
-0.00356296
-0.037779
-3.09018e-05
0.000169352
-0.00402209
0.00326071
-0.00686087
-0.0649371
0.0121592
-0.081939
-0.0217561
-0.0924331
-0.00157535
-0.0470572
-0.0760454
-0.0477219
0.00124356
-0.00621423
-0.0507589
-0.00117028
-0.00832218
-0.000130766
-0.000155173
-0.00369158
-0.0915979
-0.00116612
-0.000179453
-0.0878594
-0.0314315
-0.0328904
-0.0183154
-0.000547454
-0.00127236
-0.048119
-0.0894359
-0.0838658
-0.00159729
-0.0635949
-0.00308853
-0.00548228
-0.000562781
-0.0860522
-0.0461517
-0.0187231
-0.0784352
-0.0372466
0.00342802
-0.0896374
-0.0915216
0.00132901
-0.00246868
0.000177962
0.0114085
-0.0619848
9.03604e-05
-0.0796172
-0.00590343
-0.00459514
-0.0281148
-0.0860944
-0.00654232
-0.0730925
0.00696945
-0.0873234
0.00301782
0.00271476
-0.0050744
0.00667413
-0.000470279
-0.000627765
-0.0224498
-0.0883903
-0.0851367
0.00698248
-0.087415
-0.0112652
-0.0917404
-0.087498
-0.0469688
-0.00683807
-0.00205951
-0.000150398
-0.00342724
-0.0870425
-0.00612516
-0.0194613
-0.00654939
-0.0716928
-0.0919894
-0.0888281
-0.00240956
-0.0866358
-0.0117446
-0.0099497
-0.00427142
6.35302e-05
-0.0931441
-0.018897
-0.0867536
0.0136921
0.00270909
-0.0798303
-0.00681871
-0.0152175
-0.0085001
-0.0866515
0.0002398
-0.019103
-0.00252072
-0.00395437
-0.0816824
-0.0206809
-0.0266874
-0.000633993
-0.0252897
-0.0462136
-0.0866986
-0.00160612
-0.0537019
8.526e-05
0.00540654
-0.000201127
-0.0675329
-0.00891206
-0.0493335
-0.0308277
-0.00827617
0.00124974
-0.00456191
-0.000671095
-0.0076739
-0.000387828
3.89181e-05
-0.0830975
-0.0332932
-0.000217887
0.00172741
2.6628e-05
-0.0736801
-0.0825245
-0.0692497
-0.0472246
-0.00994816
-0.000550683
6.78082e-05
-0.00035181
-0.0774054
-0.0898727
0.000102794
-0.00934323
-0.000335613
-0.0879656
-0.0176698
-0.0189583
-0.0916558
-0.0202744
-0.000460925
-0.0886486
-0.0936037
-0.00668888
-0.000225718
-0.00754286
-0.0878311
-0.08594
-0.0349094
-0.0786621
-0.0879771
-0.0240417
-0.0912123
-0.0248074
-0.00313318
-0.0710864
-0.0729811
-0.00753354
-0.0931322
-0.0129757
-0.000558882
-0.000588355
-0.0757756
0.00115178
-0.0861729
-0.0176886
-0.0245837
-0.0504947
-0.000250329
-0.0871182
-0.0912184
-0.00372008
-0.0205439
-0.08585
-0.0629007
-0.09246
-0.0267223
0.000234579
-0.00354533
0.00175297
-0.000568498
0.00563375
-0.00881795
-0.00741494
-0.0257855
-0.0199052
-0.0320304
-0.00021951
4.0866e-05
0.000117142
-0.0183009
-0.0270313
0.00286592
-0.060366
-0.0345647
-0.0141122
-0.0609878
-0.0228824
0.00525298
-0.0905916
-0.00147172
-0.000642001
-0.0857575
-0.0857093
-0.0922685
0.0029479
-0.0010657
-0.0869348
-0.00331659
-0.000376633
-0.0388841
-0.00261145
-0.0548569
-0.0674865
-0.00017838
-0.0912266
-0.0874303
-0.0229903
-0.0683854
-0.0849597
-0.00941032
-0.00160073
-0.0628596
-0.0928485
-0.0296997
-0.0735303
-2.29835e-05
-0.00694493
-0.000648864
-0.0169399
-0.0904978
-0.080076
-0.0942503
-0.081431
-0.0263463
-0.0141034
-0.0138986
-2.23066e-05
-0.00460728
-0.000572308
-0.0820448
-0.00294464
-0.0886671
-0.0113719
0.00329762
-0.055458
-0.0887757
-0.0837781
-0.0876259
-0.0534981
0.00010795
-0.000626663
-0.0859517
-0.0821589
-0.0307671
-0.00225368
-0.000610496
-0.0403557
-0.0269481
-0.0839884
-0.0312222
-0.0269773
-0.000578288
-0.0850539
-0.000592635
-0.0857539
0.0141421
-0.00357683
-0.06283
-0.00319619
-0.0956726
4.66343e-05
-0.0904277
-0.000301691
-0.0263838
0.000733498
-0.00747619
0.00511842
-0.038983
-0.0536708
-0.0920393
-0.0851678
-0.0302629
-0.0313644
-0.00522881
-0.0868331
-0.0912508
-0.00118098
-6.75572e-05
-0.0028883
7.72461e-05
-0.0905724
0.000111783
-0.000951398
-0.0330516
0.00954755
-0.00709129
-0.000277554
-0.0129102
-0.0724544
-0.0870048
-0.00610166
0.00604517
-0.0741305
0.0129332
-0.00910296
-0.012364
-0.0870543
-0.0411196
-0.0293291
-0.00841157
-0.00353093
-0.00422843
-0.0921543
-0.0921671
-0.0325416
-0.000445912
0.00126563
-0.00102221
-0.0858174
-0.00228215
-0.0865832
-0.0922572
-0.0179913
-0.0261535
0.0063064
-0.0123173
-0.00694737
-0.0144924
-0.087849
-0.0194684
-0.0724473
-0.00145037
-0.00546914
-0.00130142
-0.0100332
-0.0783133
-0.0873577
-0.0235385
-0.0911934
-0.076302
-0.000353342
-0.00889153
-0.000555721
0.00162054
-0.0899725
-0.0908367
-0.0155995
-0.00521534
0.00400507
-0.0349498
-0.0525363
-0.0899183
-0.0230073
-0.0886988
-0.0508806
-0.00234563
-0.00855848
-0.00139046
-0.0614996
0.0011424
-0.00323537
-0.0882174
-0.0394436
-0.0689239
0.000583365
-0.0274873
-0.000357231
-0.0945662
-0.0843109
0.00326859
0.00278115
-0.0280669
-0.00990929
-0.0025019
-0.00784856
-0.000572144
-0.0928001
-0.0253772
-0.0904356
-0.0159261
-0.0684925
-0.0249334
-0.0886136
0.00125421
-0.0378232
-0.0923051
-0.0121732
0.00782019
-0.0908499
-0.00110189
0.00104517
-0.0319615
-0.0892786
-0.0924414
-0.0150117
0.00279709
-0.00515144
-0.00224679
0.000495728
-0.00771864
-0.0851916
4.52899e-05
-0.0267612
-0.0132094
-0.00377068
-0.00745061
-0.069839
0.00538658
-0.0785175
0.00164254
-0.00108371
-0.00339251
-0.0899815
-0.0250381
-0.0471663
-0.0795414
-0.0649599
-0.00105369
-0.0103273
-0.0275575
-0.0855436
-0.0819516
-0.00914336
-0.0858937
-0.0208731
-0.00200859
-0.00759586
-0.0824626
-0.0319149
-0.000432472
-0.0926427
-0.00698472
-0.0185113
-0.00292051
-0.090872
-0.00587322
-0.0711096
-0.000834762
0.00943289
-0.0183213
-0.00578338
-0.0648559
-0.0932153
-0.00218
-0.0196526
-0.0499466
0.000131167
-0.0119376
-0.0106069
-0.0376661
-0.0589868
-0.0606417
-0.00391687
-0.0862666
-0.0307689
-0.0627473
0.00528611
-0.0205817
-0.000175787
-0.0860906
-0.0873965
-0.0398876
0.0026449
-0.071364
-0.0884054
-0.0131757
-0.0144424
-0.000293218
0.00346834
-0.0864347
-0.000879983
-0.0889065
-0.00565187
-0.0657446
-0.00729445
-0.0853228
9.61945e-05
-0.00242527
0.000344832
-0.0210579
-0.0859419
-0.0885071
-0.0725412
-0.0284888
-0.0005817
0.0125162
0.000782633
-0.000645513
-0.0859795
-6.19988e-05
-0.0528568
-0.0095845
0.0118747
-0.00517873
-0.00311253
-0.0025576
0.00123489
0.00809397
-0.019344
-0.0899312
-0.0027867
0.013973
0.00157297
-0.00105648
-0.00975198
-0.0145923
-0.0187386
-0.0344882
-0.00257845
0.0010978
-0.0722945
-0.000970202
0.00562753
-0.00342805
-0.0169864
-0.000560389
-0.0926694
-0.0122398
-0.00447976
-0.0795917
-0.0339753
0.00848857
-0.0888246
-0.0784393
-0.000591393
-0.0242877
-0.0172589
-0.0205215
0.00205462
-9.57035e-05
-0.0337269
-0.0935803
-0.0906177
-0.0807173
-0.0165901
-0.0930182
0.00512356
-0.0190779
-0.000820807
-0.0841297
-0.00918316
-0.0305499
-0.00825293
-0.090232
-0.088423
0.00137403
-5.42274e-05
-0.0250923
0.000656983
-0.0136269
-0.0710661
-0.00574803
0.000929609
-0.0943264
-0.0893062
-0.000910103
-0.0317817
-0.0333333
-0.085193
4.91534e-07
-0.0899639
-0.0939293
0.00128214
0.00399855
-0.0782173
-0.0266684
0.000383037
0.0012794
0.00103791
-0.0249562
-0.000590759
-0.00227239
-0.0876095
-0.0931648
-0.0921274
-0.000138217
-0.0897036
-0.0123802
-0.0610655
-0.000559142
-0.0146657
-0.023743
-0.000929441
-0.0866084
-0.0259198
-0.0340473
-0.0663187
-0.0904467
-0.0316369
-0.066982
-0.0890454
-0.0860674
-0.00194816
-0.0932926
-0.000561942
7.08858e-05
-0.00873985
-0.000878423
-0.000629941
-0.0918901
0.00086392
-0.001224
-0.00443888
-0.0938
-0.0913248
-0.000848522
-0.000919766
-0.0147101
-0.0234211
-0.087129
-0.000111334
5.3787e-05
-0.00613575
-0.026151
-0.000809091
-0.00166741
-0.0919207
-0.0518008
-0.0386875
-0.000172587
-0.00144139
-0.0171093
-0.0911558
-0.000555739
-0.0930723
-0.0500551
-0.0125906
-0.0918482
-0.0915788
-0.000460945
-0.0736596
-0.0190775
-0.0921938
-0.000421953
0.00272729
-0.00109658
-0.0163475
-0.0126442
-0.0788897
-0.00069457
-0.000788918
0.000644553
-0.0733992
-0.0468081
-0.0936889
-0.0862561
-0.0127935
-0.0865056
-0.0216516
-0.045623
-0.0797036
-0.091834
-0.00743202
-0.0857431
-0.0348178
-0.0132867
-0.00176087
-0.0842374
-0.0458818
-0.0252497
-0.0693779
-0.000477201
-0.0928877
-0.00105354
-0.040135
-0.00820473
-0.000952251
-0.0855662
-0.0470155
-0.0656731
-0.0204414
-0.0243707
0.00440084
-0.071828
-0.041757
-0.0860156
0.00527955
-0.0916332
-0.00646969
-0.0705754
-0.0537516
-0.0840647
-0.00913562
-0.000603901
-0.00144041
-0.0875681
-0.000219477
-0.00116132
-0.00143039
-0.0156838
-0.000365928
-0.00916618
-0.0851571
-0.092608
-0.0861498
-0.090991
-0.00307741
-0.0786808
-0.0862655
-0.0805225
-0.0930362
-0.0857086
-0.00426874
-0.0906673
-0.0295991
-0.0411151
-0.0902839
-0.0726728
-0.000149854
-0.0675136
-0.00293608
-0.0104788
-0.0412782
-0.086486
-0.0913096
-0.0857726
-0.0195608
-0.0164502
-0.00521646
-0.0871268
-0.0918826
-0.0065242
-0.064553
0.00371824
-0.0107477
-0.0110871
-0.0827715
-0.0686873
-0.0149728
-0.00898616
-0.0241543
-0.0073644
0.00243108
-0.018488
-0.000255279
-0.0164244
-0.00239554
-0.0703172
0.00298814
-0.0721394
-0.0128395
-0.0122825
-0.086409
-0.0858008
-0.00950616
0.00533743
-0.00825879
-0.0410665
-0.000333684
-0.000175645
-0.0284445
-0.000301213
0.00381784
-0.0115009
-0.000456568
-0.0120746
-0.0571187
0.00328633
-0.0850982
-0.011053
-0.00616145
-0.0871273
0.00162206
-0.0313288
-0.000193686
-0.00876048
-0.00382725
-0.0109922
-0.00106917
-0.0279056
-0.00956165
-0.0861233
0.00294931
-0.0152014
-0.0212901
-3.42066e-05
-0.00633437
0.0175218
0.00132172
-0.0647468
-0.0931511
0.00461457
-0.0173922
-0.0081371
-0.0124363
-0.00158726
-0.015849
-0.00428112
-0.010428
-0.0793559
0.000446322
-0.0665585
-0.0852604
-0.00113297
-0.00435704
-0.00250812
-0.0314029
-0.0429782
-0.00172504
-0.0319661
-0.08817
0.00336753
-0.000703091
-0.0843106
0.000161253
0.00110519
-0.000462869
0.000144288
-0.000853175
-0.000477314
0.00195725
-0.0766321
0.00810103
-0.0332388
-0.00543122
0.00611638
0.00520991
-0.0455505
-0.08665
-0.0929996
-0.0626636
-0.0451447
-0.0839845
-0.07764
-0.001318
-0.0186065
-0.000614527
0.00210408
-0.00245959
-0.0229806
-0.0459606
-0.000656716
-0.00318377
-0.00865269
-0.000761863
-0.00072234
-0.0108286
0.000869719
-0.000541841
-0.00116774
-0.0836967
-0.079841
0.0102087
-0.00992036
-0.000486113
-0.0687846
-0.0637024
-0.086277
-0.0424893
-0.0893595
-0.00217358
-0.0886803
-0.0907695
0.00337443
-0.00856994
-0.0101532
2.53638e-05
-0.00571891
-0.00349193
-0.00259122
-0.0224494
-0.0860706
-0.066815
-0.0860168
0.000680237
-0.0505797
-0.0862745
-0.00825333
-0.000528109
-0.00028227
-0.000456205
-0.0180003
0.00131481
-0.0471596
0.00577891
-0.0883011
-0.032622
-0.0905644
-0.0577896
-0.0874041
-0.0909292
-0.00626917
-0.000463103
-0.00129783
-0.00893394
-0.000463235
0.00155611
-0.0862423
-0.0877111
-0.0102151
-0.0119016
0.000462217
-0.0266197
-0.0492188
-0.000563459
-0.00179301
-0.0810598
7.68625e-05
-0.00381955
-0.0255925
-0.0388112
-0.0167474
-0.0869084
-0.062061
-0.0131735
-0.0869814
-0.0730428
-0.0872298
6.12993e-05
-0.0153007
-0.00107552
-0.0219172
-0.0812617
-0.000296787
-0.0930352
-0.000298309
-0.00142408
-0.00853725
-0.0893451
-0.054138
-0.0697202
0.00104297
-0.000629271
-0.0104677
-0.0929474
-0.0169258
-0.000617796
0.000515295
-0.00788186
0.000760215
-0.000260943
-0.000417264
-0.0908883
-0.0901148
-0.0870697
-0.0130084
-0.0739837
-0.0909934
-0.0735846
-0.0907527
-0.0587533
8.97701e-05
9.04812e-05
5.09455e-05
-0.00677138
-0.088032
-0.0870846
-0.000323267
-0.0933571
-0.0909343
-0.0480824
0.000434005
-0.00753965
-0.0657589
-0.0813731
-0.0860742
6.16812e-05
-0.0863035
6.24241e-05
-0.073561
-0.0613114
-0.00182969
-0.0903128
-0.00929177
-0.0827164
-0.0918995
-0.0141428
-0.0627171
-0.0060271
-0.00114453
-0.0914578
-0.0894363
-0.0746652
-0.02466
-0.0854585
-0.0849164
-0.0902903
-0.0887055
-0.0862699
-0.0765508
-0.0678253
-0.0118591
0.00107886
-0.0552267
-0.0866746
-0.00299848
-0.0882636
-0.000837755
-0.0453724
-0.0101034
-0.00080166
-0.0850884
-0.0092682
-0.0794525
-0.0849228
-0.00896492
-0.0352435
-0.0452497
-0.0900366
-0.0668283
-0.0526933
0.00113336
-0.000966951
-0.0882334
-0.000330301
-0.00065314
-0.0484668
-0.0259511
-0.0885723
-0.0290787
-0.00658597
-0.0241013
-0.0004706
-0.0490831
-0.0159192
-0.0775794
-0.00141505
-0.00103088
-0.0918556
-0.0634492
0.000489123
-0.094231
-0.085412
-0.00809924
0.00928283
-0.0181968
-0.090527
0.000615007
-0.000327551
-0.0840708
-0.0166459
-0.0887337
-0.0865519
-0.0661348
0.0127231
0.000169894
-0.00898307
-0.0431885
-0.0343358
-0.00118263
-0.0877524
-0.0621167
-0.00248077
-0.000484201
-0.0575746
-0.0139745
-0.0853474
-0.0760529
-0.000693421
-0.0890572
-0.0671058
-0.0375286
-0.000664154
-0.0894689
-0.0871085
-0.0831841
-0.00936118
-0.000336533
-0.0593594
-0.0185619
0.00113835
-0.00122033
0.00307129
-0.000341127
-0.00176657
-0.00104759
-0.000812302
-0.0363318
-0.0787376
-0.0903036
0.0157792
-0.0829573
-0.0861087
5.94553e-05
-0.0874824
-0.0872256
-0.0870713
-0.000615244
-0.0543702
-0.0854771
-0.0911147
-0.0809431
-0.070822
0.00472257
-0.0906889
-0.0645351
-0.0807646
-0.000906699
-0.0567311
-0.062252
-0.00885938
-0.0712441
-0.0870991
0.0010863
-0.0908245
-0.091419
-0.00643105
-0.00103936
0.0017223
-0.00905234
0.0115582
-0.000558984
-0.000721391
-0.0928668
-0.0871448
-0.00182568
-0.0652527
-0.000810917
-0.0248631
-0.0921392
-0.0878432
-0.0922658
-0.0407424
-0.0869128
9.78647e-05
-0.00051198
-0.0315669
-0.085471
-0.0913873
-0.0733974
-0.0868283
-0.0219917
-0.000591111
-0.0090792
-0.0188571
-0.0383278
-0.0849405
-0.0895405
-0.0269938
-0.0853261
-0.0857922
0.000954674
-0.0850345
-0.0109429
-0.0344727
0.00544757
-0.0102085
-0.000233536
-0.0308904
-0.0283604
-0.0689089
-0.0880489
-0.000556987
-0.0609798
-0.0286977
-0.0298976
-0.0824976
-0.0227385
-0.0897373
-0.00062373
-0.0779382
-0.0882721
-0.0755875
-0.0830172
0.000439447
-0.0668063
-0.0927813
-0.0913483
-0.00057008
-0.0690732
-0.000376065
-0.00178642
-0.00923213
-0.0414815
-0.0920141
-0.0841042
0.00328155
-0.0909832
-0.0409479
-0.000426421
-0.0023385
-0.0115251
-0.00342062
-0.0511879
-0.0907565
-0.0910782
-0.0757466
0.00241517
-0.00631511
-0.0381597
-0.00115336
-0.0900565
-0.0010794
-0.000740775
-0.0372982
-0.0671276
-0.0011281
-0.0881842
-0.0547215
-0.0933618
-0.0194448
-0.0814793
-0.0846089
-0.0877681
-0.00285435
8.47283e-06
-0.0354217
-0.011622
-0.0802368
-0.0916548
-0.0370327
-0.0651153
-0.0802087
-0.0573914
-0.0378651
-0.0116491
-0.00138309
-0.00322208
-0.0840115
-0.0164895
-0.0283922
-0.0326433
-0.0303954
-0.0249393
-0.0931347
-0.0827552
-0.0100241
-0.0201745
-0.0423615
-0.0132304
0.000510457
-0.020374
-0.0608295
-0.0013227
-0.0898162
-0.010229
-0.0885672
-0.00864244
-0.00193356
-0.0138696
-0.0877133
-0.0142504
-0.0926091
-0.0832182
-0.0357144
0.0036118
-0.0797756
-0.0207372
-0.0837302
0.0122292
-0.00424644
-0.0634352
-0.000619319
-0.0909448
-0.0028468
-0.00353945
-0.000364027
-0.0132037
-0.0361436
-0.0182601
-0.0645635
-0.0598832
-0.0131977
-0.0106165
-0.0792853
-0.0865763
0.00198082
-0.0502108
0.000127166
-0.0248756
-0.0453872
-0.0702084
0.00403453
-0.0633836
-0.00177048
-0.000479856
-0.00799131
-0.00127857
-0.00983932
-0.00585828
-0.0921189
-0.00114671
-0.0613857
-0.00962258
-0.0858283
-0.0877023
-0.0369425
-0.0214107
-0.0700836
-0.0859175
-0.09097
0.0011271
-0.0259036
-0.0610554
-0.0405779
0.000847965
-0.0812759
-0.0906455
-0.000723489
-0.00323247
-0.0891435
-0.0269494
0.00101959
-0.00821587
-0.0508903
-0.000272837
-0.0211514
-0.0520365
-0.023681
-0.0280472
-0.00246267
-0.00260175
-0.0055362
-0.085755
-0.00254224
-0.00349234
-0.085633
-0.000430741
-0.000668575
-0.0919683
-0.0571058
-0.0687141
-0.0100296
-0.0296534
-0.0169733
-0.000377695
-0.00180045
-0.0463666
-0.0318022
-0.0912294
-0.0754189
-0.034237
-0.0924786
-0.0393031
-0.0595218
-0.00299052
-0.000242568
-0.0483007
-0.0321843
0.00227247
-0.0505068
-0.00609036
-0.0284161
-0.0291444
0.00110725
-0.000308632
0.00491609
-0.00938995
-0.00204236
-0.0579219
-0.0588938
-0.000459948
-0.0625244
-0.0445253
-0.0834835
-0.0294875
-0.0870838
-0.0432043
-0.0889339
-0.00141131
-0.0654412
-0.0375571
-0.00587233
0.000322802
-0.0218746
-0.0389113
0.00411036
-0.000706087
-0.0612093
-0.0876227
-0.0370519
0.000800129
0.00440776
-0.0714881
-0.0208872
-0.00265483
-0.000274706
-0.000745161
-0.00267
-0.0105378
0.00479058
0.00055424
-0.0897433
-0.0224679
-0.0895915
-0.00249234
0.00317508
-0.0089876
-0.0253555
-0.0121218
-0.00175106
-0.0363583
-0.00279401
-0.00241763
-0.0888361
-0.0306014
-0.0850896
-0.000659233
-0.0176019