/*--------------------------------*- C++ -*----------------------------------*\
| =========                 |                                                 |
| \\      /  F ield         | OpenFOAM: The Open Source CFD Toolbox           |
|  \\    /   O peration     | Version:  v2012                                 |
|   \\  /    A nd           | Website:  www.openfoam.com                      |
|    \\/     M anipulation  |                                                 |
\*---------------------------------------------------------------------------*/
FoamFile
{
    version     2.0;
    format      ascii;
    class       surfaceScalarField;
    location    "350";
    object      meshPhiCN_0;
}
// * * * * * * * * * * * * * * * * * * * * * * * * * * * * * * * * * * * * * //

dimensions      [0 3 -1 0 0 0 0];
oriented        oriented;


internalField   nonuniform List<scalar> 
20580
(
0.00021672
-0.000119848
-0.000105305
-0.000333275
0.000310798
2.80614e-05
-0.000214416
-0.000114967
0.000358114
-0.000425761
6.78248e-05
6.91196e-05
7.57519e-05
-9.37607e-05
-0.000178447
0.000551907
-0.000366243
0.000742077
-0.000795935
3.32802e-05
8.05623e-05
-7.42687e-05
0.000128455
2.30564e-05
-0.000151383
-0.000371705
0.0021674
-0.00178494
0.000237969
-0.000595096
0.000360901
-0.000177111
-0.00102927
0.0012291
0.00179179
-0.00034257
-0.00144274
-2.95261e-05
-6.39664e-05
9.35763e-05
-5.71163e-05
-0.000184768
0.000242035
0.000505052
-4.21174e-05
-0.000467873
-0.000266276
0.000234495
3.15994e-05
-0.000491404
-4.57308e-05
0.000543749
-0.000132737
5.49897e-05
7.79953e-05
8.48439e-05
0.000125854
-0.00014832
0.000210367
-4.72318e-05
0.000286662
0.000891198
-0.00116425
-0.000480255
0.000268915
0.000210871
6.44432e-05
-3.19759e-06
-5.14692e-05
-0.000294604
8.05775e-05
0.00021463
0.000637773
-0.000518193
-0.000122854
0.000305626
-0.000119421
-0.000185955
7.92889e-05
-7.51779e-05
-4.86173e-06
0.000298398
-0.000233341
-6.67446e-05
-7.03806e-05
0.000702131
-0.000611042
9.29657e-06
0.000289448
-0.000298706
-0.000123548
0.000853779
-5.07114e-05
-0.000158876
0.000212616
-0.00011688
2.66529e-05
9.01049e-05
-0.000281546
-0.00023483
0.000517752
-0.000230218
0.000357944
-0.000127532
2.91801e-06
6.47955e-05
-0.000426545
0.000300801
0.000126258
0.000191361
-1.51727e-05
-0.000175953
0.001824
-0.00134941
-0.000455121
5.10945e-05
1.08025e-05
-6.17768e-05
0.000202357
9.55933e-05
-0.000134791
-0.000144824
-0.000767205
0.000572842
0.00019673
0.000117732
0.000137263
-0.000254947
9.31174e-05
0.00114274
-0.00120837
-8.58868e-06
0.000162893
0.000263543
-0.000373671
0.000109598
0.00135206
-0.00045102
-0.000883197
9.19904e-05
0.00170503
-2.40946e-05
-8.00824e-05
0.000104121
0.00218691
-0.000652587
-0.00152838
-2.78155e-06
0.000503789
0.000735011
-0.000400454
-0.000340289
-0.000167198
0.000174817
-7.67615e-06
0.00122854
0.000609531
-0.000176596
0.000130862
6.66612e-05
-1.53852e-05
0.000399932
-0.000303871
-9.53693e-05
5.53248e-06
-5.82055e-05
5.31435e-05
0.00103806
-0.00119085
0.000127833
0.00017794
0.0019084
-0.00200203
0.000101492
0.000691928
0.000675361
0.000757425
-0.000389638
-0.00036612
0.000515124
0.000243759
4.58752e-05
-4.03038e-05
0.000159746
-0.00071545
0.0003545
0.00101469
-0.00135005
-0.000368183
0.000351523
1.78332e-05
-0.000130347
0.000265159
-0.00013466
-0.000117748
0.00018301
-6.54767e-05
-0.00195738
0.0013601
0.000610664
-1.86212e-05
-3.91621e-05
-0.000431748
0.000558719
-0.000131559
0.000499272
0.000822738
-0.00130773
-1.43157e-05
-0.000251636
-0.000409984
0.000273233
0.000162997
-3.84277e-05
-0.000255286
0.000191852
-0.0016301
0.00146775
-0.000880469
0.00125385
-0.000263197
-9.0343e-05
0.000354312
-0.000687859
0.000410972
-3.32673e-05
-8.34857e-05
0.00011691
-6.23018e-05
4.40812e-05
0.00024951
0.000105241
-0.00035455
0.00109649
-0.00079784
-1.02712e-05
-0.000198116
0.000208387
0.00186306
-0.00181341
-3.63835e-05
-0.000231777
0.000241127
0.000344373
0.00184687
0.000624091
-0.000757622
-2.55527e-05
-0.000107847
-3.58559e-05
0.000285563
-0.000189084
8.75979e-05
0.000101631
0.000443219
-0.000686276
0.000245228
-0.00215756
0.000991239
0.00119322
-0.000156852
-0.00034528
0.000499004
1.83806e-05
-7.39554e-05
5.5673e-05
-0.000614779
0.000250423
0.000366202
0.000259832
-0.000420078
-0.000415495
0.00104954
-0.000634468
-0.00101175
0.000187145
0.000824407
0.00183818
-0.00202773
0.000200814
-0.000251225
0.00109806
-0.000823897
-0.000199721
0.000164145
3.71424e-05
-0.00122493
0.00100164
0.000116865
-0.00024708
0.000734205
-0.000120786
5.62053e-05
-0.00053927
-0.00126738
0.000386713
0.000890207
-0.00125695
0.00138052
-0.00012074
-9.56265e-05
0.000216872
0.000326113
-0.00031422
-8.38676e-06
0.000272477
-2.68791e-05
-0.000246669
0.000312893
0.000418735
-0.000913327
0.000503225
0.000434599
-7.85586e-05
0.000149429
0.000287377
7.08573e-05
-3.64826e-05
-0.000331272
-0.000736902
0.00020234
0.000537371
0.00058631
0.000171535
-0.000738937
-0.00079301
-0.000428094
0.00123703
-8.92936e-05
5.7254e-05
3.16942e-05
-0.000101547
0.000102899
-1.04984e-06
0.000703789
-1.26026e-05
-0.000692478
-0.000721856
-0.00140401
0.000692559
-0.000573127
-0.000114344
-2.40571e-05
-6.10835e-05
8.51387e-05
3.72922e-05
-0.00018
0.000143681
-0.000319678
0.0012231
0.000764963
-8.68873e-05
-0.000668539
-0.000164671
-0.000261702
-4.72263e-06
-0.000112304
0.000498785
-0.000258249
-0.000144831
1.45086e-05
0.000130359
-0.00072172
-0.000148552
0.000253965
-0.00123522
0.000468325
0.000767142
8.33342e-06
0.000242006
-0.000251442
0.000144983
-0.000408727
0.000295391
0.00129666
-0.00158365
0.00206278
-0.000188745
-2.46505e-05
0.000603379
-0.000579114
-0.000201346
0.000167669
3.3855e-05
-0.00154081
0.00074063
0.000813662
-0.000223187
-0.000181251
0.000253768
-1.13487e-05
0.000178926
-0.000167363
0.000645681
5.01524e-05
0.00041697
-0.000159059
0.000152306
-0.000273725
0.000316027
1.25336e-05
-5.1761e-05
0.000127455
-7.55984e-05
0.00145213
-0.00205414
0.000608122
-0.00216367
0.00188049
0.000288991
-0.00127608
0.00129948
5.91164e-06
5.81752e-05
0.000133436
0.000187204
-0.000234235
4.62785e-05
0.000537824
-0.000456674
-8.70765e-05
0.000144797
-0.000123377
-8.02622e-06
-0.000299983
-1.11434e-05
0.000309485
-0.000142426
-5.22324e-05
0.000439177
-0.000176669
7.12388e-05
-0.000100675
0.000221136
-0.000180537
-4.0909e-05
1.1327e-06
0.000219615
9.24548e-05
-0.000116736
-0.00091276
-0.000344625
-0.000100352
3.77016e-05
6.29555e-05
7.49615e-05
0.00106752
-0.00111912
-0.000295881
-0.000585847
-7.7643e-05
0.000207333
-0.00012846
-7.63576e-05
0.000165071
-4.90329e-05
-6.80395e-05
-0.000119974
-6.7453e-05
0.000214882
-0.000147826
0.000187
0.000153898
-0.000341174
-0.000801218
0.000533881
-0.00053809
-7.42298e-05
0.00060605
-0.000216058
0.00040295
-9.03167e-05
-9.42259e-06
-0.000321627
0.00115775
-0.000318355
-0.000829814
-0.000225367
0.000263669
-0.00012778
-0.000115261
0.000139589
-0.000150725
5.47928e-05
-0.000211129
-0.00145062
0.00126214
0.000189735
-0.00130856
0.0020945
-0.000779158
-0.0011721
0.00110555
9.34014e-05
-5.96467e-05
-0.000142274
-4.92602e-05
0.000235516
3.57937e-05
-9.96576e-05
-0.000445001
0.0002737
-0.000518375
-0.00100875
-7.4572e-05
-0.000445428
0.00051756
-0.000119548
0.000174734
-0.000133178
-8.33388e-05
0.000218337
0.000723024
6.83515e-05
-0.000774295
0.000988
-0.00044072
-0.000548459
0.000185734
0.000212123
-0.000397699
7.47469e-05
2.20752e-05
-9.74779e-05
-6.48597e-05
6.51916e-05
-7.66022e-07
0.00022491
-0.000282402
-0.000431937
0.000420263
1.23967e-05
0.000103768
-2.9118e-05
-0.000942803
-0.000683513
0.00162772
-0.000453106
9.68437e-05
0.00035433
-0.000136076
0.000169349
-3.31754e-05
-0.000611086
0.000603369
1.59291e-05
0.000572957
-0.000122049
-0.000454987
0.000468591
-0.00124802
0.000330324
3.78413e-05
-0.000550132
0.000519255
-0.000420485
-0.000100384
0.000523837
-0.000210997
-0.000930988
0.00115359
0.00186906
-0.00177133
8.68185e-05
-0.000122581
3.57833e-05
0.000542464
-0.000310257
-0.000222393
-7.83456e-05
-0.000303204
-0.000547927
-0.000225531
-0.000172645
6.95903e-05
0.000100048
7.17044e-05
-0.000104583
3.98466e-05
0.000107379
-0.000147477
0.00135586
-0.00039611
-0.000958178
-0.000135457
-0.000319777
2.67177e-06
-0.000238594
0.000243328
-0.000660432
0.000635652
0.00173676
-0.000111182
-0.00159794
-0.000653926
-0.000480839
0.000338868
0.000142184
-0.00106203
-0.000386647
-0.000562259
-3.94705e-05
-0.000140643
-0.00168402
-9.52959e-07
-6.41645e-05
0.000642742
-0.000690561
-0.000301935
-0.000178399
-5.6658e-05
6.69041e-05
-1.04018e-05
-0.000221206
-0.000391185
0.00013803
1.30435e-05
-0.000473227
-7.00716e-05
0.000544424
1.36364e-05
-6.75442e-05
5.40754e-05
0.000297902
-0.000179492
0.000525088
-0.000115186
0.000177926
-6.36425e-05
-0.000561716
-1.71938e-05
0.000578484
-3.68646e-05
0.000123034
-0.000634467
9.09099e-05
-0.000251697
-0.0004328
0.000480709
0.000644076
-0.00111553
0.000207621
-1.83237e-05
-0.000189163
0.000128662
-0.000100221
-2.64997e-05
-0.000152063
3.27451e-05
0.000177534
-1.71719e-05
-0.000150776
0.000168864
-0.00042131
-4.34496e-05
-0.000256938
-0.000215433
0.000332587
-0.000116924
-0.000300875
-0.000850475
-5.08609e-05
0.00179921
-0.00179002
1.68116e-06
-0.00019141
1.55967e-05
0.000175397
-6.34887e-05
0.000103856
-4.09712e-05
0.000112322
-0.000129812
-0.000164563
2.66115e-05
0.000114656
1.45587e-05
0.0022205
-0.000654284
-0.00154713
-0.000921779
0.000505268
0.000196895
-0.000394884
0.000197241
-0.000108356
6.55017e-05
4.2613e-05
0.000454895
-0.00188212
0.00144768
5.72336e-05
0.00181663
0.000295364
-7.49319e-05
-9.391e-05
0.000169487
-0.000287908
0.0003764
-8.86196e-05
-0.000209745
0.000113584
9.63664e-05
-2.80126e-05
0.000628729
-9.03545e-05
1.54413e-06
0.000114747
-5.81434e-05
-5.65042e-05
-6.92905e-05
-0.000218927
0.000287846
-0.000138929
-2.29455e-05
7.08491e-05
-0.000145527
3.48066e-05
-6.05723e-05
2.57644e-05
-0.000281012
0.000174282
0.000110682
0.000342093
-0.000149012
-0.000194213
-0.000178326
-0.000194081
0.000372512
-0.00158126
0.000938504
0.000670419
0.00115582
-0.00116251
3.42743e-05
0.000139352
-0.00020912
0.00067846
-0.000435737
-0.000238889
0.000170867
0.000496412
-0.000650005
-0.000432203
0.000541671
-9.5786e-05
0.000446016
0.00131563
0.000112426
6.23058e-05
-0.000115388
9.14281e-05
9.16819e-05
-0.000184023
-8.99794e-05
-2.36907e-05
0.000152271
2.66571e-05
-0.000172941
-0.00172692
0.000520786
0.0012265
-0.000274051
-5.92704e-05
-3.01426e-05
0.00204367
-0.00143539
-0.00060136
-9.25178e-05
-1.55282e-05
7.80363e-05
-6.27713e-05
0.0015375
-0.00123474
0.00168979
0.000358532
0.000187343
-0.000158242
-0.000122327
3.40379e-05
8.79252e-05
-0.000274973
0.000264605
1.03368e-05
-0.000156632
9.28037e-05
6.4149e-05
-9.09636e-05
0.00021173
-4.58563e-05
-5.43941e-05
0.00113451
-0.000167205
8.81104e-05
8.0113e-05
6.76315e-05
-8.37062e-05
-0.000120598
6.90833e-05
4.84942e-05
0.00033984
0.000191931
0.000165501
-0.00034341
0.000485264
-0.000315796
-0.00016893
0.00034875
-6.33935e-05
-0.000284338
6.85046e-05
-0.000264801
0.000197206
-0.00109933
0.000467588
0.000630627
-2.08687e-06
-0.0001424
-8.3921e-05
6.76264e-05
1.64245e-05
9.89568e-06
6.88448e-05
5.22981e-05
0.000685521
0.00028655
-5.36505e-05
-0.000232865
0.000174591
3.70751e-05
-0.000483576
0.00051452
-3.18567e-05
3.45993e-05
-0.000519361
0.000165036
-0.00110731
-8.61599e-05
-9.78138e-05
0.000184695
0.00142354
-0.000476642
-0.000941639
0.000161593
-0.000171897
-0.00112754
0.000527909
0.000598848
-0.000317073
0.000366455
3.40121e-06
-0.00020662
0.000160235
-0.00096576
0.000118158
0.000856655
0.000247522
0.000101824
-0.000420183
-0.000425394
-0.0011252
0.000127596
0.00138834
-0.00104659
-0.000336856
0.000266767
0.000504621
-0.000311215
-0.000149957
-5.1703e-05
-7.06373e-05
-8.72747e-05
-2.15853e-06
-0.000451468
-0.00144863
0.00125289
-0.000599203
4.7231e-05
0.000267876
3.96964e-05
-0.000307985
0.000600134
-0.00190225
6.30822e-05
-0.000106743
-0.000169062
0.000137874
5.15819e-05
0.000291953
0.00110041
-2.90611e-06
-0.000191784
-0.00151318
-0.000470034
0.000119056
0.000352475
0.000539612
-0.000287887
0.00011188
-0.00010659
-3.94901e-06
0.000320911
-9.82817e-05
0.000365905
-0.000358011
0.00110784
8.26896e-06
0.000136488
1.77339e-05
-0.000153979
0.000301706
-0.000245914
-5.03811e-05
-8.22567e-05
-4.03841e-05
0.000205955
-0.000126293
-7.78012e-05
8.03721e-05
-6.18739e-05
-0.000716153
-0.000239759
0.000307289
-0.000601425
0.000264205
0.000135885
-0.000105439
-0.000210762
0.000317564
0.000278923
0.000175882
-0.000454689
-0.00017849
-5.70058e-05
0.000235524
-0.000617646
-0.000121414
0.000750546
-0.000164949
9.77005e-05
-0.000326417
0.000191598
0.000214077
5.55539e-05
-0.000265816
5.27233e-05
0.000154879
-0.000223745
0.000310843
-8.30156e-05
6.25805e-05
1.09516e-05
-7.35881e-05
0.000116281
0.000226037
0.000731073
-0.000225171
-5.44528e-05
0.000111219
-5.78218e-05
-0.000570243
0.000217795
0.000353536
-0.000615943
-0.00154173
-0.000179434
0.000370495
-0.000186375
0.000333274
0.000348643
-0.000510543
-0.00109295
0.00134149
-0.000228332
-8.61121e-05
-0.000125502
0.000141859
-7.56482e-05
-6.61875e-05
-0.000959905
-0.000987179
-0.000281578
0.000376475
0.000291793
0.000101445
-0.000393292
0.000535206
9.33907e-05
-0.000618516
0.000609788
-0.00042394
-0.000184167
0.000601928
-0.000109154
-0.000496775
-0.000293339
1.88043e-05
0.000319837
0.000290901
0.000203287
0.000431025
0.000193429
-0.000624016
3.97111e-05
-5.32837e-05
0.000175321
-0.000122787
7.35012e-05
-0.000288746
-4.83054e-05
7.6756e-05
-0.000549064
0.00100089
0.00123586
-6.8306e-05
-0.00039813
-0.000431626
0.000187554
0.000247868
-0.00032685
0.000632034
-0.000138132
-0.000612555
0.00076719
-0.000177928
-8.58907e-05
6.22052e-05
-8.74389e-05
2.52473e-05
-0.000199435
-7.45732e-05
0.000274146
-0.00049238
-9.75821e-05
6.07463e-05
-0.000271641
6.17001e-06
0.000263412
9.16458e-05
-0.000379603
-0.000300656
0.000299225
-7.19801e-06
4.9703e-05
0.000237019
0.000397619
9.49203e-05
-0.000491546
-0.000269674
0.000482611
-0.000210781
-0.000414818
0.000902692
-8.63167e-05
0.000137551
-5.08694e-05
-0.00199053
0.00139075
0.000609325
3.38825e-05
-7.1518e-05
-0.000141503
-2.57568e-05
-0.000205421
0.000225418
-2.05007e-05
-0.00186785
0.00150535
9.3998e-05
0.00022107
7.13826e-05
-0.000354466
-0.000898313
0.000122916
0.000808884
8.57414e-05
-2.37732e-05
6.63433e-05
-0.000152221
0.000112918
9.28186e-05
0.000399057
-0.000127912
-0.000274611
-0.000764717
0.000160864
0.00120204
0.000728067
-0.00192834
0.000239016
-0.000342015
0.00198029
-0.00143532
0.00196627
-0.0007625
-0.000391464
0.000227169
0.000164176
6.02372e-05
8.16067e-05
0.000866951
-0.00117456
-0.000370797
0.000242079
0.000128012
0.0018115
9.93794e-05
-3.71145e-05
-0.00109514
-4.57018e-05
0.000590744
1.32452e-05
0.000341903
0.000263787
-0.000609034
-0.000902023
0.0013921
-0.000471692
0.000263893
-0.000621905
0.000370922
-0.000431099
-0.000303694
-5.97166e-05
-0.00019963
0.000261781
-0.000114162
-0.000148088
0.000259939
-0.00149341
0.00101437
0.000512726
-0.000310249
0.000575944
-0.000269964
-0.000142665
0.000279941
-0.00122994
0.000738882
0.000494204
-3.0144e-06
8.60688e-05
-9.43416e-05
4.14199e-05
-0.00113575
0.00111704
9.56316e-05
0.000296217
-0.000278526
0.000162823
0.000113911
-0.000615179
0.000200472
0.000415942
0.000277679
3.902e-05
-0.000316903
-0.000169649
5.63525e-05
-7.51128e-05
0.000333344
-0.000259363
-0.000528921
0.00153433
-5.64937e-05
-0.00145365
-1.71809e-05
-8.33553e-05
0.000100603
-0.000107828
0.00041445
0.000656607
-0.0010702
-0.000638669
-0.000957273
0.00160959
-2.68775e-05
-0.000342239
-0.000892627
9.29711e-06
-0.00040885
0.00039948
0.000373037
0.00147381
0.00060275
-0.000647474
5.09467e-05
0.000399463
0.000332502
0.000121712
-0.000457561
8.74205e-05
-1.97487e-05
-7.94046e-05
-0.000195537
0.00012374
-0.000324029
0.000620003
-0.00122986
0.000615987
0.000220445
0.0019948
-0.00175151
-0.000223037
-0.000245938
-5.94978e-05
0.000655952
8.93784e-05
-0.000208635
-0.000104884
-0.000320371
-0.000934811
-0.000568752
-0.000657012
-0.000174456
-5.4299e-05
0.000171215
-0.000184074
-0.000142206
0.000326445
-8.78805e-05
7.07707e-05
-0.000333369
0.000220886
-0.00029606
0.000369833
-7.33448e-05
-0.000113913
-0.000173672
-2.52754e-05
0.000198972
4.53969e-05
0.000472092
-0.00139064
0.000920924
-1.92951e-05
0.000897455
-0.000865922
0.000396387
0.00021404
0.00197169
0.000203294
0.000349766
-0.0014201
0.00127469
-0.000385163
-0.000887498
0.000172299
-5.23193e-05
-0.000118948
-5.29094e-05
0.000246764
-0.000192271
-0.00107055
-0.000574988
0.00165225
0.000112199
-0.000612576
0.000503647
-5.38361e-05
0.000258963
-0.000203903
-6.24893e-06
-0.0016696
0.00167939
0.00022275
-0.000189808
-3.27731e-05
0.000419994
0.00103724
-0.00143403
-9.33855e-05
2.17301e-05
7.17447e-05
-2.08039e-06
-0.000611573
0.0014178
-0.00120133
0.000246304
-3.49509e-05
-0.000211528
0.000120632
0.000298524
-0.000418201
-4.13622e-05
0.000833997
-0.000335989
2.38525e-05
0.00031293
0.000499509
-0.000102486
-0.000336298
-0.000155743
0.000483756
7.5479e-05
0.000162639
-0.000238565
-7.7099e-05
-5.54107e-05
-0.000138333
6.49817e-05
7.29896e-05
0.00132676
-0.000699529
0.000352495
-0.000125473
-5.29109e-05
4.63864e-06
4.83695e-05
6.18901e-05
-0.000404596
-0.000215422
0.00021869
-2.74032e-06
0.000107581
0.00133064
-0.00141719
0.00143525
-0.00022242
-0.000196102
0.000418555
6.85598e-06
5.56916e-05
-6.81385e-05
0.000339741
-0.000268313
-0.000312972
0.000650777
-0.00186569
9.36602e-05
0.00177822
0.000282603
0.000175082
-0.000458514
-8.94321e-05
6.5371e-05
0.000168375
-4.04748e-06
-0.000164035
3.72139e-05
-0.000286448
0.000247312
-0.000119962
-9.49816e-05
0.000214991
0.000462342
0.00113817
0.000112411
-0.000644423
-2.62719e-05
0.000666122
3.93758e-06
-0.000312871
0.00135408
-0.000520238
0.000131327
0.00011167
-0.000243376
-0.000306347
-0.000262701
0.000206415
-0.000249767
0.000201044
-0.00179013
1.18742e-05
-6.72696e-05
-0.000113492
0.000181061
0.00119469
-0.00094454
-0.000232913
0.000411506
-0.000404682
-4.05489e-06
-0.000158424
-0.00024874
0.000404174
-0.00038573
-0.000139818
0.000521385
-9.82114e-05
-0.000108219
0.000209016
-9.56293e-05
-0.000184095
0.000279731
6.29571e-05
-2.82508e-05
0.000246447
0.000150494
-0.000390876
-7.59335e-05
-0.00025045
-0.0005111
0.000204474
0.000301772
0.000226375
-0.000231063
7.19728e-06
-9.31343e-05
0.000295153
4.37341e-05
0.000131132
-0.00109338
-0.000312344
0.00142418
0.00135651
-0.000890334
-0.000121474
-7.58995e-05
0.000187559
-0.000449523
0.000274518
0.000174811
0.000539234
-0.000258272
-0.000392853
0.000402045
-0.000124184
-0.000526262
0.0003471
-0.000232107
-0.000270555
-0.000209866
6.70804e-05
-0.00023166
0.000164638
-0.000610634
-0.000177724
0.000792433
-2.44434e-05
-6.89097e-05
0.000320312
-9.93608e-05
-0.000220845
-0.000313589
0.00011694
0.000196587
4.07753e-05
0.000764555
-0.000791087
5.16365e-06
-0.000310371
-0.000117459
3.13218e-05
2.67521e-05
-0.00138341
0.00137983
0.000111416
-0.000137085
7.38709e-06
-0.000130293
0.00012153
0.000255263
-0.000216849
-0.000115847
-0.0014048
0.00153736
0.000356268
-0.000431488
-0.00040687
-0.000239184
0.000648035
-0.000321197
-0.000129988
0.000451787
0.000968061
0.00103114
8.8618e-05
-0.000121645
6.44393e-05
-0.00119374
-0.00025703
0.00145208
0.000245882
-0.000297578
-0.000205414
-0.00125371
0.000105222
-7.34651e-05
0.000192814
9.13036e-05
0.00022938
-0.00100678
-0.000432585
0.00144579
-0.000579686
0.000251174
-0.000853656
-0.00116216
0.00134415
-0.00134758
0.000850213
-0.000952767
0.000109569
-0.000230539
0.000110619
-5.27136e-05
0.000205204
-0.000152355
0.000121708
0.000523191
0.000944239
-0.000142443
-0.000772915
4.09235e-05
0.000244141
-0.000279162
0.000152034
5.67627e-05
-0.000298422
0.000573659
-0.000193316
-8.77445e-05
0.0002818
0.000208038
-0.000243202
3.81292e-05
-0.000573037
0.00098831
-0.000377738
0.000380349
-0.00117038
5.32202e-05
0.00112811
-0.000135706
-0.000177015
0.000312753
0.000358142
-0.000348818
4.50501e-06
-0.000601874
0.000596791
0.000224401
-0.00030029
-0.000108905
0.000243522
-0.000134284
-0.00121525
-0.000517527
0.000196838
-0.000557278
0.000673168
0.000301131
0.000319751
-0.000619501
-9.36599e-05
9.97844e-05
-1.60451e-05
0.00024516
-0.000228651
0.000101209
0.000121644
0.000382158
0.000268887
-5.20943e-05
-0.000466392
0.000170728
0.000209807
-0.000186755
-2.25699e-05
0.000262159
4.38693e-05
0.00011292
-0.000305246
0.000102984
-0.000234508
-0.000119233
-0.000194377
-9.54672e-05
0.000131793
-3.62868e-05
-0.00155009
0.000633452
0.00093312
0.000271448
3.55849e-05
3.58136e-05
-7.14042e-05
-7.1001e-05
-0.000311009
0.000391569
0.00041817
-0.000481361
-8.70422e-05
-0.000433495
0.00014662
-0.00028225
-0.000125452
-0.00022005
0.000345689
0.000440245
0.00125215
-4.83242e-05
0.000123389
-7.57021e-05
-0.000235552
0.000178213
-0.00123956
-0.000674812
0.00191943
0.000272837
6.29447e-05
-0.000338622
6.19346e-05
-0.000263986
-0.000285396
0.000551328
-0.000296758
4.46983e-05
0.000243762
0.000342788
-0.000146403
0.000551559
-0.00100366
0.000454878
-0.000650467
0.000405917
0.000241196
0.000817841
-0.00154186
0.000726339
0.000923779
-0.00142892
0.000340513
-0.000744081
-0.000257576
-0.000934641
0.000299481
0.000138509
6.13481e-05
-0.000179054
9.92628e-05
8.41461e-05
0.00020606
-0.000812988
0.000153631
-0.000559739
-6.32638e-05
0.00011833
0.000118072
4.74953e-05
-0.000165475
-0.00038192
4.69313e-05
6.97379e-05
0.000345749
2.28181e-05
-0.000119186
9.6315e-05
-0.0011583
0.000937767
0.000227092
-0.000363203
0.000140624
-7.00095e-05
0.000613793
-0.000639111
3.76255e-05
8.34868e-05
0.000262037
7.73889e-05
-0.000140457
-0.00104804
0.00034816
0.000715963
-0.00163876
3.87261e-05
0.00012983
0.00141239
-0.00151343
-0.000504919
-0.000100747
0.000605848
-0.000221025
4.25014e-05
0.000239548
-0.000552868
5.32934e-05
1.35273e-05
0.00087067
0.000105159
-0.000319504
0.000195125
-0.000620736
-3.37378e-05
0.000657235
-1.12632e-05
7.83471e-05
0.000377836
-0.000263968
0.00056255
-0.000236082
7.34619e-05
-0.000284144
-9.692e-05
8.53528e-05
-0.000508204
0.00024563
-0.00034398
-0.000806744
-0.000199757
-0.000146141
-0.000602167
-0.000102872
-0.000435337
0.000539258
-0.000500855
-0.000176309
0.000267995
8.10307e-05
-0.000431193
0.000354528
-0.000314475
-7.98724e-05
0.000395146
-0.00112728
-0.000855664
0.000402481
-0.001783
0.00110141
0.00102995
-0.00226451
-0.000180817
0.000274939
-9.44251e-05
-5.19091e-05
0.000211009
-0.000160076
0.00043432
-0.000160583
0.000130626
0.000247656
0.000152676
-1.47023e-06
-0.00015096
-6.66698e-05
-7.21855e-06
7.05393e-05
-0.000246485
0.000500642
-0.000198451
-0.000529639
-0.000685071
-0.00123603
0.0017439
-0.00168203
-0.000416266
5.78966e-05
0.000382158
-0.000251824
0.000301219
0.000123184
-0.000210606
2.8187e-05
0.00018401
-0.000233477
0.000248556
-1.46396e-05
-0.000418405
0.000972301
1.77002e-06
-7.79649e-05
-0.000793569
0.00125565
-0.000450929
-0.000159701
0.000167748
-0.000166242
-0.000152006
-0.000273495
0.000646286
-0.000191463
-0.000450239
0.000234269
-5.9201e-05
-0.00165721
0.00170691
-4.63135e-05
-0.000128242
-9.59185e-05
0.000224783
0.000454239
0.000105966
0.000232147
-0.000248507
1.63818e-05
3.46454e-05
-0.000130173
8.41647e-06
2.51519e-06
0.00010689
-0.000110355
-0.000266824
0.000501921
-0.000247862
-7.5673e-05
0.000102262
-0.00147324
0.00058508
0.000896163
6.03661e-05
0.000189475
-0.000317315
0.00133622
-0.00131679
-3.6602e-05
0.00185431
-0.000548728
-0.000113448
0.000284547
-0.000167833
0.000541383
-0.00042949
-0.000115516
-8.94251e-05
-0.000133306
0.000222747
0.000666356
-0.000152726
-0.000507164
0.000261937
0.000122613
-0.000382626
2.47409e-06
0.000396182
2.44912e-05
0.000144253
0.000678566
0.000583995
-0.00137475
0.000636894
0.000745275
-0.000216872
0.000319857
-0.000103541
-5.71523e-05
-0.000346358
0.000140803
0.000322439
-0.000290078
-1.16934e-05
4.71648e-05
-0.000244874
0.000239317
-0.000228517
-1.02975e-05
-0.000286762
-0.000102045
0.000387437
0.000288082
-1.66996e-05
-0.000384197
0.000470332
-8.39592e-05
0.000121864
0.000342571
0.000648908
-0.000985347
0.000146126
-0.000145308
2.51905e-05
0.000202042
-0.00070634
0.000761115
0.000670017
-0.00032376
0.000112292
0.000467765
-0.000586055
-0.00051342
0.000454251
6.09167e-05
-0.000702583
-0.000164907
0.000899187
0.000202333
0.000384611
-0.000585208
-0.000525563
-1.49129e-05
-0.000299723
0.000314331
-0.000440097
5.85134e-05
0.000408896
-0.000323626
-8.36983e-05
0.00109935
-0.000630962
4.3702e-05
0.000223887
0.000256165
-0.000479094
0.000423396
-0.00100902
0.000614743
7.70197e-05
-0.000252344
0.000220423
-0.00010198
-0.000329316
0.000368508
0.000168395
0.000197901
0.000122592
0.00156389
-0.000351789
-0.0011893
-0.000486155
-0.00104822
3.12056e-05
0.000667782
-0.00069603
0.000492124
0.000928003
-0.00140778
0.00109147
-0.000909407
-0.000160158
0.000456669
-0.000187476
-1.95389e-05
-0.000173446
-0.00017823
2.57524e-05
0.000152282
-0.000480039
7.85201e-05
-0.000366406
-0.0011105
-0.000798466
0.00191445
0.000757286
-3.87868e-05
-0.00031647
-0.000192379
0.000509164
-1.5177e-05
0.000127835
-0.000199515
0.000587996
-0.000650218
6.93429e-05
0.00018328
-0.000210889
5.56641e-05
-0.000286026
0.000230835
6.42327e-05
-0.000488045
0.00194558
4.14428e-05
-0.000683513
0.000665086
0.000105644
-0.00019489
-0.000799927
0.00162061
-0.000178001
0.000258245
-7.68724e-05
-0.00086193
1.13539e-06
0.000151617
-3.57879e-05
-0.000114531
4.29205e-06
-0.000104302
4.75413e-05
-0.000297965
-0.00172726
0.00192582
-0.00018827
-0.000606511
0.000387501
-0.000171804
0.0001485
3.4483e-05
-0.000228544
-0.000557471
0.000788833
0.00034469
-0.000285699
0.00165865
0.000282283
-0.000390467
0.000112852
0.000131399
0.000643959
-0.000733687
0.000418746
-0.000191702
-0.00022609
0.00184787
-0.000692614
-0.00115038
0.000194661
0.000137978
0.00074813
-0.000543882
-0.000188616
0.000105307
-0.000141623
3.66601e-05
0.00012083
-1.93763e-05
-0.000101358
0.000457367
-6.48837e-05
-0.00038794
-0.000595103
0.000159875
0.000474392
-0.000491391
0.000262852
0.000228819
-0.000115383
0.000320783
-0.000205265
-0.000127177
0.000377896
-0.000459834
0.000356451
0.00188163
-0.000132054
0.000249174
-0.000242614
-6.73524e-06
-7.34646e-05
0.000695021
-3.52222e-05
0.000112872
0.000268846
-0.00166604
0.00141972
-0.000454248
0.000616987
-3.92644e-05
0.00027126
7.92955e-05
-0.00114797
0.00121138
0.000117433
-0.000521964
2.79567e-05
3.7859e-05
-6.56672e-05
0.000556185
-0.000317961
-0.000237668
7.05949e-05
-3.50251e-05
-0.00120494
0.000926627
0.000119448
-9.66935e-05
0.00171173
-0.00123887
0.000113133
-0.000776171
-0.000810376
-0.00123658
-2.03596e-05
-0.000211838
-0.000634118
-4.20426e-05
0.000685817
-5.88163e-05
-4.16946e-06
6.29955e-05
-0.000161411
0.000181876
-2.04961e-05
0.000279017
0.000269736
0.000217276
6.32802e-06
-0.000288781
0.00022385
-0.00116724
-7.42564e-05
-0.00021321
-0.000277693
0.000399868
-2.55722e-05
0.000143849
-0.000145672
-4.66829e-05
0.00033322
-9.67811e-05
-0.00137076
0.00141951
7.36234e-05
0.000134696
-0.000813207
0.000195648
0.000253231
-0.00027257
0.000292518
4.26519e-05
0.00047947
9.23688e-05
-0.000570691
-0.000136093
4.05983e-05
-0.000147515
0.000150163
0.000106702
-7.265e-05
-0.000208395
0.000279859
-0.000415986
-0.00157487
2.55842e-05
-0.000349934
0.000328727
-0.000140014
-0.000321273
-7.80454e-05
-0.000125073
0.000203212
-8.55714e-05
0.000174654
9.1954e-05
-0.000288741
0.000196776
0.000101795
-0.000119342
-0.000547752
0.000127994
0.000280361
-0.000438197
0.000158272
0.000367155
-8.63793e-05
-0.000212939
8.33346e-05
0.000129679
0.000149559
-0.000170014
-0.000240635
0.000410371
-0.00144578
0.000222572
-1.03249e-05
-0.000551479
0.00014033
-0.000152746
1.2266e-05
-0.000321994
-0.000716307
-6.51018e-05
-0.000197235
6.77347e-05
-6.38051e-05
-4.01552e-06
-0.000764384
-0.000487311
0.00126307
-0.000127097
-0.000427024
-0.00154951
0.000474797
0.000713514
-0.00146292
0.000100171
5.04462e-05
-0.00130345
0.000225499
0.0011041
0.000323685
-0.000294104
-3.05767e-05
0.000102647
0.00122135
-0.00092065
-0.000286879
-0.000295066
0.000179817
0.00156529
-0.000401812
-0.00115868
-0.000287637
3.11793e-05
0.000255318
-7.35467e-05
-1.90749e-06
7.55435e-05
0.00112688
-0.000284482
-0.000165275
0.000254234
0.000498411
-0.000745231
5.65037e-05
0.000405524
0.000393553
0.000163334
-0.00126901
0.000386226
-0.000390554
5.87563e-06
-0.000451417
-3.81715e-05
6.64416e-05
0.00044111
-0.000320509
-0.000125214
-0.000254769
0.000178
7.67293e-05
-0.000243392
0.000303128
-8.16337e-05
6.62399e-05
1.55406e-05
-0.000118513
-4.954e-05
0.000168214
-0.000183944
-7.0966e-05
-0.00032274
7.82548e-05
0.000243654
0.00184825
-0.0014416
-0.000395117
0.001099
0.000485954
0.000334841
6.77206e-05
-0.000392897
0.000520509
0.000503288
-0.0019061
0.00141374
2.61063e-05
0.000853093
-0.00116141
0.0013991
-0.000480062
-0.000915768
0.00110844
-0.000429347
-0.00112921
-0.000307577
-0.000161598
-0.00101801
0.000779693
-0.000288641
-0.000498446
0.000564799
0.000521177
-0.00107951
0.000190571
5.53152e-05
0.001048
5.92051e-05
-0.000124139
9.03238e-05
3.33132e-05
0.000434241
-0.000161936
-0.000272314
0.000105551
-0.000211626
0.000108645
0.000581156
-0.000750801
0.000174924
5.49602e-05
1.25986e-05
0.000791786
-0.000309485
0.000247
0.000351645
-0.000394455
0.000350413
-0.00109383
0.000751568
0.00136106
0.000491029
-0.00111373
0.000115275
0.00101725
0.000658357
0.000293534
-0.000947203
0.0015357
2.17047e-05
-0.00121122
-6.41605e-05
-0.000685423
-0.00041435
0.00170084
0.000183978
-6.07339e-06
-0.000504977
0.000312887
-0.000600728
2.71732e-05
-0.000136132
0.000108855
7.60693e-05
-8.5277e-05
9.37925e-06
-3.88831e-05
9.60295e-05
-5.70358e-05
-0.000191455
-2.38169e-05
0.000274582
0.000163548
-0.000430425
0.000148862
0.000125872
-7.22905e-05
-5.41569e-05
3.52352e-06
0.000922879
-0.00169449
0.00112649
-0.000300687
-7.97446e-06
-0.000813684
-0.000676462
0.0014941
-0.0007348
-1.73394e-05
-6.73713e-05
-0.000126327
0.000418233
0.000247914
0.000483317
-0.000728601
0.000741729
-0.000814185
8.60185e-05
0.000202384
7.64253e-05
-9.0378e-05
-0.000366147
0.000806732
-0.00054489
-0.000877631
0.000763275
-2.18318e-05
-0.000295435
0.000313109
-9.85489e-05
-5.78642e-05
-0.00112162
-0.000548614
0.00168001
1.2312e-06
-5.40874e-05
0.00034651
0.000945533
-0.000953778
0.00017461
-3.77491e-05
0.000408333
-0.000490081
8.28398e-05
0.000129553
-0.000238277
-9.64014e-05
-2.52847e-05
-0.000222576