/*--------------------------------*- C++ -*----------------------------------*\
| =========                 |                                                 |
| \\      /  F ield         | OpenFOAM: The Open Source CFD Toolbox           |
|  \\    /   O peration     | Version:  v2012                                 |
|   \\  /    A nd           | Website:  www.openfoam.com                      |
|    \\/     M anipulation  |                                                 |
\*---------------------------------------------------------------------------*/
FoamFile
{
    version     2.0;
    format      ascii;
    class       volScalarField;
    location    "350";
    object      omega;
}
// * * * * * * * * * * * * * * * * * * * * * * * * * * * * * * * * * * * * * //

dimensions      [0 0 -1 0 0 0 0];


internalField   nonuniform List<scalar> 
13851
(
0.116192
0.024123
0.0240232
4.80831
0.0220819
0.0256136
0.0244341
0.0218643
2.71344
0.0220468
0.0577624
0.0220783
0.0221342
4.62134
0.0340187
0.145413
6.6226
0.0220006
0.284828
0.115561
0.0373435
0.0257975
21.3372
0.0222638
5.46624
0.0611088
3.44478
5.05368
2.54809
0.0217945
4.93726
0.0244174
0.115566
3.40844
0.0405231
2.52562
0.022274
4.66873
4.29482
0.0221084
3.4148
2.59343
18.208
0.505376
2.70116
0.021901
0.0216887
0.1301
0.0234095
0.0221249
6.42838
0.0221924
0.141132
0.0300895
4.71958
0.0221112
0.117018
3.30872
3.55506
4.74117
0.0220859
2.61438
0.022098
0.0235226
0.199533
0.210674
6.31593
0.0662164
0.0221523
4.72415
4.1182
0.0440458
0.0220352
5.64462
0.0311689
0.0236854
5.28073
0.0217141
3.74933
0.0219533
0.0221695
0.277791
0.0401127
4.27858
4.56413
4.59314
0.0259447
6.03372
0.0220347
5.04702
0.0222301
0.0244775
20.7303
4.32184
3.58822
0.309121
0.0219294
0.145461
6.11652
0.149108
0.151173
0.0435429
0.0461145
0.0220867
0.0218915
0.0426177
0.0218921
4.27015
0.0244644
0.0219727
0.0304281
0.0219007
0.133668
0.054453
0.117734
0.029437
0.0217914
0.0218227
4.86941
5.30712
0.196876
0.0218627
0.0221399
3.00423
0.223517
0.119693
0.0219269
0.0525478
3.11555
0.0416553
0.0257524
0.0299371
1.98452
3.31786
0.0587341
3.66493
0.0637185
4.39165
0.0356816
0.0414641
0.260806
0.0226827
0.0220345
0.10328
6.21587
0.0234863
0.021708
4.41809
2.73346
0.0548081
0.151069
0.129099
0.0578426
0.213996
0.022302
0.0220624
0.022101
4.05253
0.0385352
0.0237109
0.0222429
2.53769
0.0417833
0.130317
4.47682
2.77027
2.81334
5.19041
0.0299528
5.63996
0.0221012
0.0217942
0.0506888
0.022139
3.71734
2.35167
0.162621
0.0217831
0.031223
0.159412
0.215891
0.468038
0.0290578
0.0413585
19.5639
2.69564
0.115938
0.0294997
0.0222352
0.0218403
4.57341
0.0384932
6.40927
0.0256818
0.0233436
0.143955
0.11275
0.0222472
0.0222462
0.0708372
0.262465
3.49268
3.37343
0.0340537
2.45304
3.38889
0.0237768
0.0412747
2.73915
0.0251291
0.147038
0.0221229
0.272352
0.022234
0.041136
0.0243426
0.0221043
0.203321
0.0222749
3.87944
0.0217808
0.114813
5.29851
3.68166
0.0292166
0.0417809
0.0222636
0.0903875
0.0220115
0.0406462
9.24214
0.0291841
0.0251159
0.0221196
3.28879
0.0217913
13.3952
3.35777
0.131268
0.0222512
0.720852
4.42534
2.75674
0.137183
0.0310649
0.137516
0.183361
0.0314424
0.287391
0.0320877
5.44728
0.114233
0.0218529
0.0255711
0.148642
2.51976
4.03735
0.0218363
0.126163
0.0220316
0.176269
0.217945
0.0259254
0.0423763
0.118797
0.0219889
0.0443945
0.105428
4.62321
0.0220814
0.022099
0.0293422
2.97417
6.32897
0.0412019
0.02188
0.219301
0.215348
0.102244
0.0418085
2.90555
6.17516
0.0261966
0.0315668
5.37207
0.0218842
0.0221005
0.105323
0.0514893
0.0217926
0.0222313
0.0220038
0.0219991
0.0309383
0.0220937
2.73129
0.0389705
0.0219965
2.51127
3.06931
0.0222206
0.1171
6.46584
0.0227849
0.0222426
0.0405383
4.58319
7.68794
0.0551448
0.0220724
5.62031
0.0220934
0.0595221
5.09618
4.58849
0.0235925
3.37756
0.855165
4.37116
0.127687
0.0456299
3.88623
2.9448
4.93326
0.0223122
4.85619
19.786
0.747112
0.672601
0.0237953
0.0546402
0.0295862
5.35053
0.0495723
0.0218761
0.0215998
0.0269077
4.16943
3.24357
0.0218764
3.5761
0.0298267
0.0302046
0.0238307
5.62911
0.2153
0.146744
0.0241157
0.0247045
2.47803
0.0222448
0.225956
0.0261281
0.0404789
0.0304606
0.0220311
0.0219934
0.128018
0.161437
0.115179
1.12596
2.5026
0.0235525
3.27561
0.232489
0.0217753
4.6314
0.0768348
5.02522
0.0264128
0.0661185
3.37328
2.92794
0.122724
4.62454
0.0226831
3.18111
13.6244
0.0289101
4.18249
0.0308743
3.51906
0.0312122
0.0381382
0.115166
0.209538
0.0220654
0.0258467
0.0551312
0.0314083
0.0219214
0.0415613
4.2981
0.0220308
0.0413247
5.52543
0.023967
2.4255
0.0410943
7.95471
0.0255563
0.0576749
1.8436
0.225772
0.0419988
4.92851
5.50066
0.657675
0.021996
0.124519
0.0310598
0.0648279
0.0218702
18.7885
4.44435
3.69701
0.0246656
0.11721
2.36268
5.91698
0.0216702
6.25176
0.23597
23.2768
0.0330058
5.51622
0.022048
0.0221265
5.81908
2.27503
0.0220443
0.0241528
0.041991
0.0218237
4.65623
0.0549326
0.0754395
0.0255178
0.0226981
0.022214
1.93202
0.0219919
0.0221911
3.46883
4.42134
0.0253991
2.47447
0.0221049
0.0220927
0.0242505
0.118214
0.0410165
0.0219324
0.0229145
0.183577
0.0233718
8.68528
0.0220736
0.0270337
2.74264
0.0352349
0.0216341
0.0221187
0.0254382
0.0223934
0.671729
3.27658
0.0312697
9.17384
0.0242901
0.022054
2.99165
3.24583
0.0351628
0.0220531
2.94216
0.0345541
4.03033
0.0220867
0.030096
0.125992
0.0326022
2.97171
2.5896
2.56754
0.0238307
0.131577
0.0219866
2.53219
0.0408773
0.112312
0.0308569
0.0239203
0.03519
0.0512436
0.022094
6.17634
2.94266
8.98415
5.9116
3.35078
4.08712
0.225812
0.0281634
0.0222061
4.00422
0.0220482
0.0219185
0.0301876
3.75831
0.0239578
0.0226786
0.0817862
0.0422796
0.0220534
7.2613
0.0219322
3.17138
0.631957
0.0219495
0.0234967
0.242845
4.70964
0.0217963
8.66242
8.68891
0.0218044
4.33421
0.275469
0.11344
0.0238052
3.52467
4.86958
0.021824
0.25531
0.0221431
0.021933
3.40675
3.58373
0.0352356
0.0402616
0.0220499
0.051103
3.1813
3.91924
0.0219144
5.30701
0.0219292
0.022159
0.042347
0.0271662
0.0216675
0.0237035
4.37664
0.197711
4.16473
0.0236781
0.0220278
2.98881
0.0221774
0.125094
0.0268878
0.0311444
0.0309539
2.93991
4.97037
0.0255368
6.34867
0.0233868
0.0548791
2.62659
3.60696
0.0221359
0.021992
0.0463693
4.16735
2.22577
0.050309
8.76167
0.0272955
0.0305453
12.3493
7.38257
0.138994
3.09711
0.185723
2.5687
0.0224844
3.57561
4.4221
0.0220753
14.5322
5.99643
0.0299427
0.0414252
0.0220845
6.91513
0.0691088
15.5292
0.0219941
0.0221657
0.026669
0.0417007
0.0220834
3.62984
0.0221599
0.169242
0.0238807
0.0661743
0.0220833
0.0220538
0.0443483
5.52881
0.0419527
3.58401
0.0301458
0.0218328
0.021834
0.0512703
0.0229076
0.0818925
0.02433
0.034622
3.5144
0.0221794
4.86952
0.0222532
0.0915113
5.50968
2.80251
0.0285457
14.5178
0.079608
0.215451
5.81919
0.0219795
7.185
0.0298211
0.0296688
5.744
1.05346
0.0217876
0.0801136
0.0222307
2.51139
5.84883
0.0222384
0.0706513
4.87724
0.0222629
0.0222515
0.0620518
6.05242
3.65783
0.0222479
0.114903
0.0231906
0.0220526
3.52064
0.116756
0.138466
0.0216475
0.105433
0.0454769
0.0538538
0.0227131
0.0231916
0.0658101
0.0265093
0.117383
0.0437745
0.0438159
0.116235
2.24112
0.277289
3.85787
7.47764
0.142663
3.3659
0.0387882
3.36839
0.117574
0.021952
0.0300177
0.229831
0.0264115
0.0219551
0.0219515
0.0910432
5.30894
0.0271515
3.27126
0.0218365
3.64336
0.133237
6.85952
0.0798649
0.0256666
0.0240204
5.56793
0.137577
0.0373305
2.53634
0.022559
2.97891
0.0918589
0.174229
0.0305635
0.347051
0.0220451
0.0222448
0.0234769
0.022052
2.6237
0.0219992
3.43628
2.91645
0.0817953
3.94869
5.36819
0.180351
0.228317
0.0287289
0.0221811
0.0220841
0.0217186
0.0218289
0.0221411
0.0552018
0.127321
0.048972
4.83748
0.0230962
2.72435
0.0222934
4.98351
0.037969
0.0222834
0.0221344
2.80423
0.025747
3.98222
5.93596
0.0399261
0.0572055
0.0217921
3.31367
0.0243289
0.0239865
3.51612
0.0221841
0.0226713
0.0219329
0.0407864
4.92721
0.0281253
0.0307847
0.255309
3.771
0.0292403
0.0265641
2.6193
0.0217155
2.58022
0.022202
0.0233931
3.49086
0.0699557
0.114556
0.0773937
0.0421795
0.022227
0.0222935
0.0586376
0.0225408
0.0222348
0.0276677
0.24719
0.0219828
0.20169
1.87028
3.89592
0.0763703
6.25148
0.0365464
0.0221765
0.120763
0.021848
0.0258839
3.96033
2.49141
7.25194
2.70676
0.0223144
0.0222177
0.066181
0.0230465
0.0218621
20.6121
0.185834
4.00808
0.0930529
0.0713412
0.0220545
0.0217994
2.23032
0.0754683
0.0236479
0.0222533
0.115367
0.14879
3.3382
0.0222883
0.0221511
6.07895
0.0226888
0.0309153
0.0218281
3.78798
0.0219163
4.93528
0.0220749
0.119189
0.0353788
0.066415
0.0307316
0.0220353
0.0241677
0.0220212
3.37434
0.0226971
3.22462
0.0226298
4.50398
3.00006
0.0294
0.0220026
5.02408
3.35007
0.0259106
0.0698911
0.0220803
5.73854
0.0219746
0.229466
0.0220627
0.0220179
3.97606
0.031086
0.0221086
0.0304702
3.19094
4.74448
4.78806
0.0218377
3.1594
0.0220736
0.0219902
0.0222995
0.0215569
0.0222323
5.00867
4.04285
0.0222821
0.022156
0.035426
0.021901
5.10974
0.123352
3.9091
3.9989
0.0241252
0.116841
0.0220681
0.0373397
0.108317
0.0219645
0.0222103
0.824471
5.56096
0.0557773
15.2678
0.0531884
0.0221017
0.0370813
0.0711597
6.52356
0.0300245
3.85555
0.0774013
0.0222232
15.2145
14.5715
3.71205
2.93551
3.38853
0.0237718
0.133349
0.0221906
4.03806
0.0259268
0.0218779
4.79003
0.0230031
0.0220039
0.0221348
0.0228688
3.65493
0.225577
0.021874
0.037586
4.62553
0.023134
14.1921
0.0232728
0.0665079
3.56714
0.0220965
2.98602
0.0286025
0.0304691
5.59493
0.0229848
0.268699
0.0570592
3.33743
0.0223447
3.74982
0.0286872
3.30354
6.56663
4.94736
0.0400094
0.0220506
0.0223182
0.0222629
0.0366152
0.022124
3.01405
0.028208
0.0279364
0.0289994
0.0236997
0.0218357
0.026544
0.026739
0.0234929
0.0265442
5.23383
3.32365
0.0282055
0.0469873
4.9365
0.0227276
4.22573
0.0217222
0.0323401
0.0227077
0.0219624
0.0426258
0.0220487
0.021869
0.0449608
0.0220691
0.233969
0.0227633
15.4177
3.03531
0.185746
0.220357
0.022135
3.79913
0.132999
0.0222254
0.0266865
0.0225897
4.47701
0.0232616
0.0442365
4.68432
6.1172
0.0722928
0.0221774
2.87736
4.4279
3.35473
0.0285485
0.0218248
0.0219044
0.0552294
0.0220491
5.93412
0.128617
0.0221965
0.230945
0.239179
0.0219166
5.4059
5.40848
0.177757
0.0227165
2.87642
0.0548159
0.0220194
5.36512
0.0264254
0.0218883
0.0219435
0.0302636
0.036782
2.78579
5.69702
0.0373067
2.81578
0.0314106
0.0220263
0.0846065
0.0219573
1.22628
0.0219266
0.0220455
0.0239394
0.0224949
2.95514
4.81437
0.329572
5.20188
7.29656
0.029076
0.0220396
0.0227661
0.277735
0.0219163
0.0219653
0.0398122
5.02343
3.10368
0.0217158
0.037072
0.0309001
0.113233
14.4235
0.0218044
0.0216567
0.0235307
2.11973
0.0276283
3.18862
0.023186
0.0221625
0.0218927
0.0219377
0.0243077
0.174807
2.60253
2.749
0.029014
0.0220543
2.24184
0.0224012
5.76348
3.86669
0.0304238
4.73409
2.59251
5.32247
0.0480926
0.0298767
2.92907
0.0288525
0.0332039
0.0677457
0.218636
0.0224984
4.55958
0.0220294
3.92247
3.32557
0.0217254
0.0238939
0.0435431
0.266804
0.0309691
0.0221422
0.0270317
0.0233053
0.0253338
0.999712
0.0221621
3.28323
4.96202
0.0220326
0.0291533
0.036398
0.0220812
2.46205
13.1624
3.83371
2.74736
0.0220371
0.0244206
0.0259474
0.0223089
0.45809
0.0312679
0.0222568
0.0532882
0.0259166
4.48848
0.035467
5.86195
0.0231857
0.0231591
0.0503483
0.0754769
0.0591403
0.0219922
14.5512
3.18274
23.4375
3.84639
3.85626
2.76628
3.40867
0.0219949
0.0220284
0.0220741
1.53679
0.0402905
0.0589224
6.47752
0.0222802
0.0216906
0.0220479
1.10903
0.0217007
0.0259284
0.0236357
3.66415
0.0229807
0.0218552
0.0220852
0.0219865
0.0221627
0.0339482
0.36565
0.0333245
4.89222
0.022035
0.0219382
3.10472
3.12773
5.91107
3.76667
0.0472738
3.6129
0.0218202
0.0571691
0.023164
0.0220799
0.0241232
4.55792
0.0229974
0.0764908
1.76537
0.0223116
0.0219508
0.0264338
0.185789
0.0222717
3.64813
0.0220589
0.445967
0.0221273
0.0222769
0.0259731
0.0910106
0.0221442
3.64948
4.23209
0.301816
3.35928
0.0220489
5.46021
3.09707
0.0220491
3.28513
0.0223013
0.0422979
0.0222354
0.0222704
0.0219602
0.0220526
0.0224414
0.027288
0.0553419
0.022235
0.0220992
0.0608812
0.0217759
8.30172
0.0221281
0.0297898
0.0313942
4.05251
4.15252
0.0221463
0.185255
0.0218232
0.0291829
0.0628552
3.75092
0.0416246
0.0222721
0.101011
0.0741376
0.0699902
0.834988
0.0350545
0.116378
0.0500892
0.0566786
0.0229338
0.0218717
3.94351
5.24867
0.0243098
0.0220158
14.1011
0.0218395
0.0369614
0.0219602
0.0715235
2.96571
0.0216183
5.71468
0.0254866
0.0221701
0.159401
0.0218784
0.0405268
2.63618
0.0354383
3.92549
0.0219549
0.0222645
0.044214
0.022225
0.0222471
0.0269669
0.0280747
0.0556262
0.0740774
0.0221116
0.0370609
0.0218569
0.0220613
0.0222141
0.0220515
0.872774
0.0219463
0.023314
1.86519
0.0218348
0.0220042
3.05613
0.0222502
15.1666
0.0231517
3.13069
0.21014
0.0508684
1.83059
0.0562273
1.69665
0.0224023
0.156664
0.0262948
0.0218609
0.0219054
0.0233016
0.0290534
0.0219768
0.0490189
0.0219053
0.0231416
14.8158
6.42757
3.20357
0.0240469
0.0461047
4.05016
7.18236
0.0221716
0.0257247
1.60529
0.0222139
0.0365753
1.13993
2.75237
0.0263649
0.0379565
0.0227802
0.252946
0.0222849
0.0351173
5.36975
0.0221917
0.021883
8.41702
0.0391021
0.46301
3.44663
0.0909477
0.0224552
0.0219093
0.0223016
4.17159
3.38138
4.98935
0.0496185
0.0220522
3.70504
0.0221104
0.131072
0.0268397
0.0233301
0.0374587
0.0220569
5.76084
7.22827
0.0217962
0.0557409
0.0413386
1.43245
0.0394877
0.0500994
0.499384
0.0313518
3.27318
0.051796
0.022113
0.0324539
0.0820631
3.48839
0.0220332
3.80972
0.0414445
0.0532004
0.0222724
7.36004
0.0254613
0.0235959
0.0218688
0.0366012
0.0354237
0.0537199
0.0221265
0.0226883
0.0516758
21.7158
0.0528941
0.022157
0.0226823
0.032419
0.185997
0.0221703
0.0754811
4.45888
0.0447965
2.91666
0.0363123
6.4104
0.265243
0.0219954
0.903723
0.0222385
0.0247018
0.0302571
0.0314244
0.080549
0.0408074
0.0410551
0.0426062
0.0292074
0.024031
0.0216943
0.0794141
0.0249692
0.0285935
3.84389
0.0256404
0.0296689
0.0219481
4.23985
0.0706636
0.0221084
0.0243268
0.0233475
4.60871
0.124775
0.0302565
2.70451
0.789877
0.618683
0.075475
3.1447
0.021895
0.297378
0.0219633
0.0269603
4.7433
2.45171
0.278685
0.998855
0.0221227
5.58298
0.0218919
0.0697686
0.025017
3.55874
4.85492
0.0257087
0.0220227
0.260661
0.0435111
0.0220198
3.89489
0.0220733
0.0236921
0.0249677
0.0222298
0.029021
0.0234192
0.022052
0.0331052
0.334463
0.035448
0.0529812
0.0220163
5.26865
2.47899
0.0220039
1.83636
0.0249688
0.0291306
4.71095
0.0220005
0.0227257
0.027783
3.47681
0.0220294
0.0221824
0.0354194
3.33766
0.0219872
0.031652
0.0332837
3.77353
0.0410499
0.0352599
0.231379
0.0220782
0.113204
0.0217342
5.23233
0.028578
0.022052
0.0264133
0.0787584
0.0221502
0.0221929
0.117787
2.85554
0.0223897
4.73434
0.0221869
0.021727
0.0538373
0.0220324
0.0219453
6.14285
0.0222733
0.0355172
0.15652
4.60044
2.90096
0.0219065
0.0240794
0.0280578
0.0220736
0.0220488
0.0220946
3.53316
0.022194
3.21224
0.102874
0.0218801
0.0217874
0.0284085
0.103305
1.85527
0.0531557
0.0532361
0.0237645
2.71971
0.0687192
0.0291555
0.0360711
0.0599017
0.075261
21.2043
0.0350967
3.07078
4.53096
6.58292
0.0242948
0.0219767
0.0344591
0.0341523
0.0218592
0.0224033
0.116562
0.0222431
0.0223079
0.0220498
0.0216514
0.0234289
0.022078
5.65972
0.0220195
7.15405
0.022081
0.0790836
0.0225374
0.103977
0.0711939
0.0220544
3.93922
0.0240552
0.0222247
0.0353793
0.0218474
0.0304286
0.0220037
2.69088
0.0240318
0.0369004
0.102172
4.00582
0.0278606
3.22579
2.98947
0.0472117
0.0221312
0.0228914
0.0988582
0.0536585
5.93629
0.0217982
5.72177
0.0221081
0.0850992
8.85066
0.0333416
3.50772
0.0249656
0.0298745
0.0246799
7.04174
0.0294729
0.0221419
0.0458253
0.113171
0.0232772
0.0220399
0.0221428
4.16505
0.0222515
0.0271427
3.19267
0.0258102
0.0219934
0.0518643
0.0246589
4.32674
0.0216906
0.0220234
0.0218687
0.026166
0.0223817
0.0221435
0.0532151
2.99637
0.021976
0.0221049
4.95018
0.022325
5.40103
0.0237596
7.04878
0.0218751
0.0242533
0.0218219
3.22288
3.37325
0.0298059
0.0670333
0.0270089
0.0219598
0.0221187
2.74553
0.0221367
0.06971
0.0218529
0.0382607
0.0221887
4.959
0.0218451
0.0394062
0.0218735
0.393846
0.629064
0.0218287
0.0423542
6.5882
0.0560727
3.74068
3.52616
0.188719
0.0234704
0.031082
0.0768191
4.87606
0.0222957
0.0348406
0.0281015
0.0219949
3.379
7.45689
0.0565759
0.128025
0.258877
0.031671
2.9957
0.0218546
0.0218223
0.0802769
7.59831
0.177912
0.12608
4.31242
0.0218217
7.35222
3.08474
9.57761
0.0222025
4.51409
5.76802
0.667782
3.61367
2.88414
0.0718755
0.0287578
0.134308
0.0257068
0.0219871
0.833184
0.0752156
0.0216813
3.82582
0.0221873
0.0289007
0.0369425
0.0266611
1.03591
0.0344199
5.7822
0.0391766
0.0262308
4.52281
3.83457
0.11377
0.0224025
0.0258821
0.0593205
0.0552014
0.0218385
0.0417096
0.0594449
0.11551
0.0219856
0.155785
0.0242269
0.0459232
3.50778
3.31128
0.0231395
0.110813
4.06884
0.022192
0.0227864
9.09012
0.249838
0.0240863
0.0243232
0.0220897
0.0665523
0.0249724
2.58894
0.0802911
0.0225549
0.0222232
0.0650784
0.0287587
2.60453
5.34041
0.0218873
0.0220322
0.0269039
0.0221938
0.0239334
0.0228882
0.0227218
0.0258355
0.021943
0.0246915
0.0222049
0.0409854
4.74356
0.0222639
4.76723
9.12943
0.0217344
0.215021
0.109259
0.0736134
0.0227605
0.0752169
0.0261463
0.0770002
0.0280183
0.0231572
0.0222093
5.88316
0.0272469
3.87893
0.0227521
0.0220418
0.0220206
0.0639378
0.0219689
0.0424024
0.0515013
1.31972
0.0219201
0.756183
1.9428
3.12373
0.0218145
0.112706
0.903126
2.25142
1.06538
0.0225876
0.0222908
0.128067
4.23993
3.87825
0.0355254
2.5574
0.0222314
0.021885
0.0386412
0.0221947
0.0221493
0.128718
0.022265
0.0869189
0.0218678
3.71484
4.42436
4.51744
3.55614
3.2625
0.0221447
0.0221438
6.14268
0.0218125
0.0218377
0.0217289
0.102423
3.44726
5.46517
0.0274715
0.0221976
0.0230893
0.0363072
4.43512
0.0220366
3.55636
3.82438
0.0221878
0.0221785
3.28983
0.0663356
0.0232937
0.0220415
4.91316
3.43762
0.022039
0.185671
0.0222531
3.02975
2.28987
0.0235763
8.98204
5.9739
5.06227
0.0218544
0.0222872
0.0222441
0.0222864
3.20272
0.021921
0.190795
3.17256
7.08871
0.0226454
0.0513071
0.760947
0.0423196
6.07739
4.21404
0.0216668
0.0250524
0.0251658
0.141128
2.97738
0.0216364
4.72754
0.0314453
0.0373747
0.0227752
0.0219478
0.221455
0.0361257
5.21641
0.0221947
0.0484568
0.0225542
0.103912
0.0239577
2.94402
4.4787
0.210606
0.0847205
0.0219777
0.023813
0.0705318
0.197834
2.93016
6.27341
0.0221492
3.62247
0.0883141
4.39836
0.02624
0.0387237
0.035136
0.0221173
5.02387
0.0220682
0.0300021
2.86564
3.5575
0.750456
3.3521
0.027694
0.0416621
0.0217952
3.75836
0.0268056
6.28639
0.0217882
4.251
0.0216231
0.0220003
0.0297012
0.0311868
0.0320853
0.0219926
2.96283
0.0385472
0.0219244
0.0348032
3.24839
0.462418
0.022043
4.60587
0.0241931
0.0313899
0.0300983
0.021715
0.0533549
0.0219937
4.01928
0.0737518
0.0262215
0.0220308
0.262781
0.0350773
0.0217885
4.69873
3.52725
0.211406
0.0217828
3.63315
0.0221404
0.116704
0.0266098
0.102002
3.62351
3.13103
0.0346784
3.34775
0.0456023
0.0280261
0.0218385
4.49468
0.0986698
0.0828369
0.0605101
0.0222434
3.46761
0.0721808
0.270602
1.74402
6.00022
2.91921
1.54652
4.15499
0.0284804
0.0314171
0.0220951
0.022106
0.0216519
0.155988
0.0284552
0.0328383
4.45644
0.0219426
0.0218622
0.0367835
0.11417
0.0266975
0.0218289
3.55773
0.0239669
0.0411227
0.0222354
5.03003
0.0286012
4.97221
0.0539701
0.0310583
0.0472555
0.0220881
7.40015
0.53409
0.0576555
0.0220631
0.0219111
5.96807
4.52083
2.5049
0.0219008
0.0587893
2.72472
0.0220936
0.0220064
0.0221116
3.34128
0.0951452
0.0327829
0.0266602
0.0254216
3.94356
0.0764266
0.219902
0.0258405
0.0299509
0.0216489
0.106326
0.0486442
0.0220202
2.73485
4.27104
3.12855
2.91241
5.13406
8.35544
6.06064
0.0231918
0.0219229
5.41944
3.99459
6.22221
0.0220882
0.0352351
0.022054
0.0219721
3.46204
3.6716
0.0524636
0.0220022
2.26481
0.0758183
0.0418783
3.39003
1.01818
1.8814
0.0219162
2.94423
3.50705
0.259111
0.030044
0.0369157
0.0221952
0.0218802
0.0346745
0.039622
0.0242444
0.035631
0.0266691
0.0248768
1.34963
3.34471
0.031209
0.0371581
3.17713
0.325056
0.0221135
0.426099
0.765898
4.04029
0.0365328
0.0221634
0.0278874
0.026183
0.0298545
0.021714
0.0332559
0.0292023
0.0397969
0.184737
0.0222305
0.0229764
3.00572
2.76161
3.77034
0.558289
0.0997662
0.021603
0.022051
0.0285198
0.0217846
6.44715
0.0220426
0.022273
0.0217538
2.68372
14.2265
0.0224565
0.0522424
0.0273682
0.0346219
0.0283162
0.0350457
0.0353425
0.0339221
4.65623
0.0255012
3.71377
0.0355349
3.82584
0.0279276
0.0219358
0.0218333
0.0775537
0.11814
0.0218322
0.0381876
0.0280388
0.0502278
3.55561
8.73426
4.27166
0.0222728
0.865889
0.0292269
0.0342326
0.0220311
0.0574094
0.0236423
3.07754
1.64772
0.0371829
0.0220785
2.75572
0.0273451
3.53248
4.09423
1.99463
0.0241346
0.103364
4.12862
1.0408
2.81545
0.0506727
0.0219724
0.0360468
0.0219081
9.04087
0.0245025
0.0297746
2.75376
3.93186
0.0219413
0.0219716
3.87577
0.0369809
8.58617
0.032742
0.0220416
0.0374267
0.197265
0.0429644
3.72515
0.0335724
0.93955
0.0246742
0.0222439
0.0219566
0.210198
0.0227108
0.108488
0.0220577
0.0220307
0.195201
0.0254907
0.0221199
0.0220359
0.0327614
0.820692
0.037569
0.0347947
0.0263934
0.0509642
0.0220545
0.124501
0.0286399
0.037371
0.0681514
0.0271092
0.0766847
0.0443115
0.0218873
0.0553497
8.21584
2.63965
0.0221498
1.13446
3.51348
0.0219745
0.0227152
0.662956
3.28592
0.0280008
3.39241
0.273811
0.0221394
0.0702394
0.021648
0.0253309
0.0510617
6.01995
0.423611
2.86695
0.757291
2.84536
2.95849
0.0233513
2.87134
0.0220394
3.4591
3.07883
0.0220987
0.0220829
2.79611
0.0221339
0.0220853
0.639028
3.11646
0.187805
0.0255201
3.23548
0.0221033
2.87393
3.09296
0.0221898
3.69021
2.0483
3.59991
2.87771
2.98506
3.01853
0.0218847
0.0232637
0.0511535
0.0533709
0.0220801
0.393974
0.0220419
2.87929
0.668336
0.0481791
0.496127
2.79733
0.616004
0.446005
0.059468
6.6266
0.329109
0.0247997
0.0216783
3.57088
0.0339976
0.021807
7.11006
0.0219835
3.6488
0.0221633
3.43771
0.024981
0.0219853
14.367
0.0275641
0.0349809
3.09683
6.15044
1.26981
0.0266908
0.0401748
0.0233469
0.0354717
0.103358
0.0357852
0.0222101
1.27494
0.0508796
0.0316143
3.33852
0.0354999
0.0360545
0.158456
0.0598477
0.0389981
0.0219811
0.155806
0.0218329
0.103123
3.46362
3.50746
0.0218763
0.0348376
4.58102
0.0231589
0.0540766
0.0293956
0.0368924
5.31731
0.0505442
0.0234991
11.2112
0.0218863
2.75112
0.0221239
0.0229241
0.102544
2.5178
0.0308588
0.363752
0.452131
0.0293286
0.0222297
0.14647
0.0393815
4.25312
0.0266319
6.77889
0.117279
0.0293561
0.0279013
0.0898018
0.0339549
0.0722766
0.0503852
0.0371064
0.0240542
0.0221927
1.04586
0.0220218
0.0274423
0.0216561
0.0923961
0.0276873
0.0501354
3.0645
0.0230836
0.187398
0.0215714
0.0221757
0.0221877
0.0222068
0.0259039
0.0219429
0.0715279
6.29275
0.0498072
0.0389764
0.0246462
0.022064
3.24228
0.0220439
4.18301
4.69949
4.36128
0.136594
0.0325717
0.0263508
0.0221765
0.0295677
0.0915331
0.0383123
3.297
0.0495515
5.1332
0.144781
0.0222099
0.0218474
2.696
0.021963
0.0280652
0.0637942
0.261008
0.0232598
3.15037
0.0221742
0.0253456
0.0220556
0.0226666
0.152137
0.092659
0.0222373
0.0302495
0.0348368
0.0395791
0.0489753
0.397078
0.286095
0.203862
0.128797
0.025779
0.0229278
0.0487265
2.50259
5.93041
2.76009
0.029582
5.49923
0.0924935
0.0227464
0.0219942
0.0540033
0.0221427
0.0302933
4.9444
0.02197
0.021854
0.360056
3.40587
0.0411697
0.704035
0.0221352
4.777
0.0378866
3.86075
0.0293791
0.0220542
2.87725
0.0588232
0.0220407
0.0658737
0.0222523
0.126839
0.027709
0.0552462
7.0847
0.0332657
4.82465
0.0219349
5.46362
0.0221491
0.0254979
0.0224914
0.0408288
0.0221432
0.0533573
2.7017
0.779359
0.0422252
0.0306715
0.0746291
0.0219284
0.0219647
0.0229879
4.1164
0.0248661
3.62763
3.67738
0.112651
0.0222144
0.115771
0.171995
0.117185
0.0255951
3.81971
0.0219863
0.0216014
0.0219693
1.84624
0.022107
0.0220262
2.76516
0.0219791
0.127317
0.0931292
0.0218814
2.95443
0.0272632
3.42292
0.0219566
4.43593
0.0228033
0.0699152
12.1287
0.0538263
0.0219505
0.0264356
4.27831
0.0301476
0.118145
0.0289982
0.025774
0.115402
0.0285378
0.0223305
20.9872
0.0279633
0.0272133
0.143911
0.0219794
0.0218762
0.0221888
0.0294195
0.0221494
0.0256463
4.82904
13.93
0.0961035
6.83791
0.0532781
0.0321682
4.06413
4.74561
0.0224795
7.73468
7.90425
3.14917
0.881665
0.0291222
4.32099
2.83685
17.9968
0.895561
5.66761
0.0417861
0.0785168
0.0292283
0.0255223
0.0221359
0.87183
0.0222849
4.90165
0.113826
0.268472
0.0216364
0.0609565
0.0445348
0.0236557
0.0222931
0.0221183
0.113041
0.02349
0.0223245
0.0364963
3.95199
0.0239918
0.123096
0.0218366
0.116832
0.0784655
0.0221854
0.0263056
0.0219458
3.44448
3.12531
0.134582
2.84899
0.0322223
0.0707059
0.0221324
0.0368006
0.0220486
0.022323
0.0222326
3.90107
0.0218043
0.0409712
0.516389
0.0272593
0.0289385
0.0220007
4.63237
0.148974
16.3926
3.76452
0.130397
0.245777
3.5756
0.259825
3.40524
7.33811
0.114536
0.0343186
0.987482
3.97571
0.0220459
6.14373
0.12219
4.41177
0.0216507
0.0520979
4.71925
0.0222728
4.69213
0.0254496
5.44065
0.0220915
0.022117
0.0565368
0.192661
0.026069
0.053104
0.0218464
0.022172
2.96961
5.01959
8.78138
0.0472739
0.0223196
0.0224756
0.0221345
0.035095
0.915735
3.12906
4.45942
1.09199
0.03004
0.0219533
0.0219827
4.68666
8.42479
0.22046
0.0264294
0.0245124
0.0788761
5.55204
7.41081
0.0216052
0.0219609
4.09904
0.0229834
0.208459
0.0277898
0.022086
0.0313097
0.0452877
3.67076
3.8056
0.022202
0.0218562
0.0244599
3.23728
4.574
0.0222646
0.105605
3.51837
0.021606
3.42925
2.94014
14.8914
0.0221109
6.91127
4.01867
0.0374352
0.259492
0.024475
0.29097
0.262726
0.0250457
0.0219491
8.84229
0.747589
0.0219411
0.117204
0.110644
0.02826
0.214746
3.71892
4.27696
4.14431
0.0270922
0.0236509
0.0231068
3.1957
4.06211
3.83781
5.66242
3.66082
0.021775
0.0388422
0.022067
0.0221145
0.0246964
0.021967
0.0220589
0.0224287
3.11268
8.91092
5.77757
0.0538363
0.147749
0.0361732
0.0218716
0.0219867
3.49417
0.0221376
5.08928
2.71136
0.0221786
0.0219308
2.6111
0.0225538
0.401119
0.0252966
0.0217685
0.0217746
3.49027
0.0217203
3.96664
3.33008
0.0216328
0.0400475
0.0219444
0.0229622
0.0219786
0.0946578
4.03442
0.0219702
3.63086
0.373218
0.0239567
0.0219276
0.0226804
0.0234678
0.0222254
0.345402
4.26667
5.43196
0.0369542
8.60565
0.0222722
0.0253465
0.0223334
0.137524
0.0233894
4.18797
0.0218654
3.32957
0.562088
4.8523
0.156011
0.0218617
0.0386844
0.0219356
3.31749
0.0220884
0.0277362
0.0257899
0.0250784
0.0221563
0.0222508
0.0320061
3.65038
0.0222102
0.0228122
0.0237965
0.0328367
0.175632
0.022187
5.93867
2.697
0.0237103
3.47413
4.64795
3.53105
5.79214
0.021597
0.0230471
3.68669
2.9226
0.110567
2.86335
3.11508
0.0313416
0.0421387
0.0289979
3.64786
0.0220356
0.0219652
4.95553
0.103905
5.38067
0.0245514
0.0217708
0.0220447
4.8692
0.0594973
0.0244347
0.176688
0.0218914
0.0533398
0.0286224
0.0288341
0.0221522
0.0221876
0.0219222
0.0244294
1.01499
3.70601
0.021638
0.0219438
3.68301
0.0220867
0.0595982
0.0260493
0.025626
0.0352809
0.0222856
3.50884
0.0283263
0.0253602
17.0469
0.0707318
0.0232312
0.0313277
0.0220378
0.0224947
8.94998
0.269897
2.72673
0.0223246
0.0221529
0.0522851
0.0271136
0.02203
0.0355829
4.11553
0.0254849
0.0373896
0.0251433
0.102166
0.0221162
0.0218245
5.06232
4.91537
4.84281
0.0219806
0.128106
0.0217563
0.0220219
0.0621856
3.20851
0.0568805
0.0271369
0.128816
0.0228448
0.0283739
0.0514802
0.669077
0.0223272
0.021682
0.022594
0.0247343
0.0267967
0.021961
0.884842
11.7888
0.0221559
0.0315689
0.0224552
0.021774
2.81488
5.22648
7.18974
0.0665999
0.0224105
0.0491472
3.84424
0.0797239
0.0922355
0.0332958
0.0294148
4.32317
0.206981
0.480068
0.0217776
0.0301386
0.0221303
0.0288199
7.1064
0.0216622
0.0386233
0.0254808
0.0292262
0.0230623
0.0218813
0.0218814
2.9231
0.0399374
0.0289622
0.0559914
0.0339515
5.66497
0.0306937
0.418242
0.0219305
4.92418
3.88638
6.43904
0.0222645
0.0297498
0.022084
0.0219756
7.05775
0.0400032
4.98211
0.0219958
0.0440308
0.141087
3.20856
0.0278998
0.0217564
6.31615
0.022285
0.0222841
0.022602
0.0220346
7.67157
0.0218481
0.0218855
0.0351387
0.0271482
0.121417
0.108031
0.0328722
3.12277
0.0221877
0.131688
0.0218913
4.8493
0.0324598
0.362819
0.112253
1.8376
0.0926521
4.47433
0.0230834
5.6861
0.0319482
4.4766
0.150771
0.0279699
0.162526
0.022175
9.18844
0.0231094
0.0350079
0.0270057
3.91697
0.135581
4.15465
0.0305967
0.0220225
4.25032
0.175381
0.0508275
0.114999
8.55427
4.70053
0.0374652
0.197267
0.0372673
0.0218897
0.0442013
0.189847
0.0627415
22.2025
0.0986263
0.0218262
0.022027
0.111966
0.0220855
5.10586
0.0651934
0.0220856
2.68514
0.971555
3.4698
0.090604
0.0220811
0.0288153
0.0257714
3.8672
2.60975
0.0257265
4.69781
0.0219126
0.031355
0.556498
0.0220048
0.0363633
0.0219312
0.0256946
0.0222511
0.143477
3.58582
0.0299395
0.0289827
0.0217672
0.110984
0.0219219
0.0218397
0.0325033
0.0219255
0.158995
4.40939
1.03584
3.12435
0.0218112
5.62144
0.0221886
0.0369456
0.105144
0.0221719
7.62918
0.062697
0.0220609
0.0217607
0.0371468
0.0362925
0.149053
2.13786
0.0258452
0.023823
3.03068
0.0530996
0.219016
0.505174
8.81757
3.30251
5.10732
0.627957
0.0221748
0.0221139
0.043275
0.0222397
0.0457086
0.035199
5.52011
5.39756
5.30816
0.0217996
0.0218317
0.0980858
3.00074
4.31728
0.63864
2.59676
0.0547142
0.0324667
0.5994
0.705265
0.0261167
4.1036
0.032738
0.028738
3.88866
0.037731
0.0221188
4.10142
0.597753
0.0245468
0.11025
0.0237762
2.67076
4.75055
5.5097
0.022018
0.0217141
0.112418
0.0220187
0.0219953
0.0220213
0.0217596
0.0220259
0.0220324
4.81852
0.02727
0.0451735
3.87335
0.0219032
0.0220405
0.0295941
0.0258162
0.0258377
0.0220483
0.0585855
0.0296006
0.0263867
0.079366
3.44853
0.0220594
0.0373872
0.0220714
0.0220372
0.0216546
0.0220838
3.54901
0.0219357
0.0220347
0.0220971
0.0409985
3.38067
3.89751
5.03458
0.729473
0.0391537
3.46105
5.81817
0.0219552
0.0413647
5.4073
2.90441
0.0221113
0.0275907
0.0393143
0.0373764
0.0220601
0.038621
0.056507
0.0434215
0.0216736
0.0471612
4.33089
0.0216346
0.812118
3.91351
0.041241
0.594695
0.0333262
0.0220908
0.0251943
0.0220234
0.186276
4.63108
0.0217648
0.0418791
0.0219799
0.0219797
0.0222239
0.0222857
0.0361615
0.0221716
0.102033
0.113523
0.0254102
0.0243849
0.0396731
0.0220485
0.0434473
0.0310665
0.022392
0.022102
0.0221405
3.9828
0.0220268
0.20685
0.0385259
0.0222527
0.0220531
0.0218701
3.70566
0.0250389
0.0421039
0.0464491
4.81337
0.0280788
3.04467
0.823732
0.0427572
0.0219747
0.177011
0.0351952
4.00547
0.0620883
4.9864
0.0218115
0.0450524
0.0447157
3.19634
0.0220155
0.0394878
4.92549
0.0218739
7.87131
13.4442
4.0322
0.0219845
0.021869
3.62488
0.0220503
3.96256
0.127017
4.00458