/*--------------------------------*- C++ -*----------------------------------*\
| =========                 |                                                 |
| \\      /  F ield         | OpenFOAM: The Open Source CFD Toolbox           |
|  \\    /   O peration     | Version:  v2012                                 |
|   \\  /    A nd           | Website:  www.openfoam.com                      |
|    \\/     M anipulation  |                                                 |
\*---------------------------------------------------------------------------*/
FoamFile
{
    version     2.0;
    format      ascii;
    class       volScalarField;
    location    "350";
    object      omega_0;
}
// * * * * * * * * * * * * * * * * * * * * * * * * * * * * * * * * * * * * * //

dimensions      [0 0 -1 0 0 0 0];


internalField   nonuniform List<scalar> 
13851
(
0.116272
0.0241254
0.0240255
4.80615
0.0220819
0.0256171
0.0244372
0.0218644
2.71253
0.0220468
0.0577815
0.0220783
0.0221342
4.61863
0.0340313
0.145525
6.62106
0.022001
0.285489
0.115648
0.037359
0.0257998
21.3378
0.0222638
5.47587
0.0611469
3.45122
5.05679
2.54745
0.0217946
4.93295
0.0244206
0.115655
3.40652
0.0405352
2.52497
0.022274
4.70278
4.29109
0.0221086
3.41243
2.59271
18.2055
0.505469
2.70033
0.0219011
0.0216888
0.130215
0.0234108
0.0221249
6.42749
0.0221924
0.141258
0.0300986
4.71811
0.0221113
0.117108
3.30658
3.55556
4.74225
0.0220859
2.63165
0.022098
0.0235239
0.199333
0.210463
6.31886
0.0661304
0.0221526
4.72116
4.11594
0.0440648
0.0220352
5.64818
0.0311792
0.0236865
5.27937
0.0217142
3.76112
0.0219534
0.0221698
0.278187
0.0401243
4.27609
4.5654
4.58965
0.0259471
6.03252
0.0220347
5.04221
0.0222301
0.0244807
20.7288
4.31902
3.58598
0.30932
0.0219295
0.145586
6.11605
0.149185
0.151285
0.0435074
0.0461128
0.0220867
0.0218917
0.0426348
0.0218922
4.2675
0.0244676
0.0219731
0.0304346
0.0219008
0.133755
0.054475
0.117835
0.0294455
0.0217915
0.0218228
4.86742
5.30293
0.196974
0.0218629
0.0221402
3.00361
0.223709
0.119409
0.021927
0.0525562
3.1139
0.0416743
0.0257547
0.0299434
1.99823
3.31602
0.0587541
3.66245
0.063562
4.38869
0.035654
0.0414833
0.261158
0.0226829
0.0220345
0.103272
6.22531
0.0234871
0.0217081
4.41494
2.73288
0.0548194
0.151174
0.129141
0.0578664
0.214265
0.0223021
0.0220624
0.022101
4.04932
0.0385523
0.0237132
0.0222429
2.53705
0.0418005
0.130432
4.47449
2.76919
2.81218
5.18959
0.0299566
5.6393
0.0221012
0.0217942
0.0507105
0.022139
3.71483
2.36115
0.162784
0.0217831
0.0312333
0.159547
0.216195
0.46808
0.0290616
0.0413774
19.5627
2.69505
0.116051
0.029498
0.0222352
0.0218404
4.5996
0.0385102
6.40469
0.0256854
0.0233444
0.144073
0.112874
0.0222479
0.0222467
0.0709531
0.262777
3.49054
3.37113
0.0340664
2.45241
3.38699
0.0237769
0.0412943
2.73817
0.025132
0.147228
0.0221232
0.272685
0.022234
0.0411486
0.0243441
0.0221043
0.203322
0.0222755
3.87934
0.0217809
0.114907
5.29478
3.67916
0.0292177
0.0418008
0.0222636
0.0902535
0.0220115
0.0406585
9.23604
0.0291824
0.0251188
0.0221196
3.28668
0.0217914
13.3817
3.35552
0.131321
0.0222512
0.730787
4.4266
2.75586
0.137378
0.031074
0.137678
0.183504
0.0314529
0.287493
0.0320911
5.44614
0.11432
0.021853
0.0255749
0.148754
2.51915
4.03711
0.0218364
0.125966
0.0220316
0.176495
0.218176
0.0259297
0.0423936
0.118879
0.0219889
0.0442578
0.105496
4.62945
0.0220814
0.022099
0.0293407
2.97274
6.32722
0.0412202
0.0218802
0.219522
0.215623
0.102338
0.041826
2.90423
6.1757
0.0262009
0.031577
5.3845
0.0218843
0.0221005
0.105431
0.0515057
0.0217927
0.0222313
0.0220038
0.0219991
0.0309475
0.0220937
2.73032
0.0389872
0.0219967
2.51066
3.06884
0.0222206
0.117206
6.46518
0.0227852
0.0222426
0.0405559
4.58061
7.68426
0.0551703
0.0220724
5.61974
0.0220934
0.0595503
5.09547
4.59332
0.0235947
3.41577
0.8572
4.36856
0.127705
0.045461
3.88331
2.94369
4.93785
0.0223128
4.85496
19.7851
0.748903
0.673098
0.0237954
0.054665
0.0295877
5.34929
0.0496998
0.0218761
0.0215999
0.0269112
4.16713
3.24352
0.0218765
3.57383
0.0298284
0.0302109
0.0238331
5.62471
0.215561
0.146828
0.024117
0.0247071
2.47731
0.0222449
0.226254
0.0261324
0.0404964
0.0304631
0.0220312
0.0219935
0.128101
0.161518
0.115263
1.12838
2.50185
0.0235534
3.27357
0.232904
0.0217755
4.63558
0.0768822
5.02473
0.026416
0.0661617
3.37589
2.94623
0.122831
4.62393
0.022684
3.19206
13.6248
0.0289167
4.18163
0.0308828
3.51649
0.031222
0.0381556
0.115239
0.209727
0.0220654
0.0258506
0.0551475
0.0314188
0.0219215
0.04158
4.29564
0.0220309
0.0413441
5.52333
0.023969
2.43118
0.0411144
7.95179
0.0255595
0.0577096
1.84271
0.225993
0.0420157
4.92838
5.50463
0.657181
0.021996
0.124553
0.0310681
0.0648697
0.0218704
18.7873
4.44112
3.70682
0.0246682
0.117287
2.37552
5.91528
0.0216704
6.25093
0.236252
23.2765
0.0330106
5.51889
0.0220481
0.0221265
5.81759
2.28988
0.0220443
0.0241552
0.0420108
0.0218238
4.65308
0.0549577
0.0754858
0.0255219
0.0226989
0.022214
1.94319
0.0219921
0.0221911
3.468
4.41887
0.0254012
2.49333
0.0221049
0.0220927
0.0242527
0.118308
0.0410365
0.0219326
0.0229157
0.183644
0.0233735
8.68169
0.0220736
0.0270395
2.74174
0.035236
0.0216341
0.0221187
0.0254422
0.0223943
0.672185
3.27566
0.0312789
9.17063
0.0242924
0.022054
2.99027
3.25022
0.0351622
0.0220532
2.94135
0.0345437
4.03758
0.0220868
0.0301026
0.126099
0.0326137
2.97044
2.60194
2.57909
0.0238313
0.131598
0.0219867
2.5316
0.0408973
0.112439
0.030865
0.0239215
0.0351879
0.0512656
0.022094
6.17532
2.9414
8.9809
5.90984
3.34987
4.08581
0.226114
0.0281641
0.0222061
4.01712
0.0220482
0.0219186
0.0301887
3.75576
0.0239601
0.0226789
0.0817355
0.0422952
0.0220534
7.25962
0.0219323
3.16967
0.632722
0.0219495
0.0234986
0.243064
4.71442
0.0217964
8.67523
8.70325
0.0218047
4.33133
0.276142
0.113521
0.0238058
3.52385
4.87028
0.0218243
0.255529
0.0221434
0.021933
3.40653
3.58105
0.0352472
0.0402809
0.0220499
0.0511307
3.17955
3.9162
0.0219148
5.30546
0.0219293
0.0221593
0.0423641
0.0271721
0.0216676
0.0237045
4.3736
0.197885
4.16199
0.0236802
0.0220278
2.98736
0.0221774
0.125097
0.0268933
0.0311547
0.0309627
2.93891
4.97056
0.0255403
6.34818
0.0233888
0.0549034
2.62584
3.60607
0.0221361
0.0219921
0.0464434
4.16451
2.23478
0.0503363
8.78672
0.0273016
0.0305545
12.342
7.38131
0.139061
3.09552
0.186013
2.56794
0.0224851
3.57589
4.43235
0.0220753
14.5325
5.99275
0.029947
0.0414443
0.0220846
6.91405
0.0691326
15.5324
0.0219943
0.0221657
0.0266693
0.0417159
0.0220834
3.62752
0.0221599
0.169547
0.0238813
0.066218
0.0220834
0.0220538
0.0443573
5.52741
0.0419694
3.58174
0.0301524
0.0218328
0.0218342
0.0512922
0.0229088
0.0819297
0.0243326
0.0346136
3.51488
0.0221794
4.86943
0.0222532
0.0915868
5.50892
2.80146
0.028634
14.532
0.079624
0.215604
5.8154
0.0219799
7.18333
0.0298227
0.029676
5.74206
1.06762
0.0217878
0.0801486
0.0222314
2.5107
5.84779
0.0222388
0.0708543
4.87412
0.0222629
0.0222515
0.062091
6.05231
3.65725
0.0222479
0.114989
0.0231922
0.0220526
3.52105
0.11683
0.138551
0.0216477
0.1055
0.0454796
0.0538842
0.0227131
0.0231923
0.0658303
0.0265096
0.11747
0.043794
0.043835
0.116276
2.23807
0.278056
3.85618
7.49966
0.142724
3.36485
0.0388023
3.36799
0.117676
0.0219522
0.0300262
0.230156
0.0264143
0.0219552
0.0219515
0.091111
5.30871
0.0271574
3.26926
0.0218365
3.6426
0.133241
6.85904
0.0798951
0.0256699
0.0240227
5.56755
0.137674
0.0373355
2.54523
0.0225598
2.96747
0.0919317
0.174469
0.0305709
0.347433
0.0220451
0.0222448
0.023477
0.022052
2.62295
0.0219992
3.43714
2.9151
0.0818275
3.94559
5.36777
0.180602
0.228434
0.0287331
0.0221811
0.0220841
0.0217187
0.0218291
0.0221411
0.0552267
0.127433
0.0489707
4.84312
0.023097
2.72343
0.0222934
4.9808
0.037979
0.0222834
0.0221344
2.80315
0.0257506
3.98158
5.93275
0.0399446
0.0572353
0.0217924
3.31181
0.0243299
0.0239888
3.5166
0.0221841
0.0226715
0.0219333
0.0408063
4.92666
0.0281303
0.0307927
0.255614
3.76832
0.0292412
0.0265657
2.61853
0.0217156
2.57949
0.022202
0.0233949
3.50606
0.0699975
0.114659
0.0774296
0.0421963
0.022227
0.0222935
0.0586646
0.0225415
0.0222348
0.0276742
0.247346
0.0219828
0.201833
1.88741
3.89534
0.0764096
6.24414
0.0365893
0.0221765
0.120859
0.0218481
0.0258879
3.95887
2.49065
7.25039
2.70593
0.0223149
0.0222181
0.0662029
0.0230471
0.0218622
20.6215
0.186055
4.00726
0.0931309
0.071383
0.0220545
0.0217995
2.25763
0.0755124
0.0236499
0.0222533
0.115457
0.148864
3.33602
0.0222883
0.0221511
6.07834
0.0226889
0.0309239
0.0218281
3.78544
0.0219164
4.9343
0.0220749
0.119238
0.0353922
0.0664301
0.0307395
0.0220353
0.0241701
0.0220212
3.37551
0.0226972
3.22446
0.0226307
4.50384
2.99866
0.0294064
0.0220026
5.02192
3.34905
0.0259145
0.0699327
0.0220804
5.73849
0.0219749
0.229911
0.0220627
0.0220179
3.97549
0.0310949
0.0221086
0.0304797
3.18908
4.7449
4.78461
0.0218378
3.15844
0.0220736
0.0219902
0.0222995
0.021557
0.0222323
5.00577
4.04148
0.0222828
0.022156
0.0354378
0.0219011
5.1072
0.123492
3.90761
3.99574
0.0241276
0.116925
0.0220681
0.037355
0.108347
0.0219649
0.0222103
0.81343
5.56022
0.0558062
15.2665
0.0532162
0.0221017
0.0370949
0.0712024
6.52212
0.0300327
3.85521
0.077449
0.0222232
15.213
14.5684
3.71167
2.97203
3.38835
0.0237725
0.133527
0.0221906
4.04323
0.0259295
0.0218779
4.78653
0.0230038
0.0220039
0.022135
0.0228695
3.65259
0.225872
0.021874
0.0375993
4.62207
0.023135
14.1924
0.0232731
0.0665463
3.56462
0.0220965
2.98916
0.0286068
0.0304763
5.59542
0.0229856
0.269033
0.0570933
3.33524
0.0223456
3.74933
0.0286936
3.30345
6.56574
4.94672
0.0400281
0.0220507
0.0223186
0.0222629
0.0366309
0.022124
3.01265
0.0282113
0.027938
0.0289995
0.0237004
0.0218357
0.0265494
0.0267423
0.0234948
0.0265474
5.23047
3.32507
0.0282118
0.0469987
4.93336
0.0227278
4.22339
0.0217222
0.0323438
0.0227077
0.0219626
0.0426319
0.0220487
0.021869
0.0448569
0.0220691
0.234098
0.0227643
15.4177
3.05135
0.185897
0.220555
0.0221355
3.79635
0.133064
0.0222254
0.0266896
0.0225899
4.47442
0.0232618
0.0441712
4.68708
6.11512
0.0723239
0.0221779
2.87639
4.43325
3.35439
0.0285527
0.0218248
0.0219048
0.055255
0.0220491
5.93539
0.128637
0.0221965
0.231415
0.239397
0.0219169
5.40287
5.40781
0.17797
0.0227174
2.87547
0.0548403
0.0220195
5.36362
0.0264272
0.0218885
0.0219436
0.0302728
0.036798
2.78468
5.69078
0.0373233
2.81461
0.0314209
0.0220263
0.0847738
0.0219574
1.22605
0.021927
0.0220455
0.0239404
0.0224956
2.95375
4.81383
0.335735
5.20187
7.29439
0.029077
0.0220397
0.0227671
0.278132
0.0219167
0.0219655
0.0398227
5.03899
3.10578
0.021716
0.0370803
0.0309082
0.113275
14.4237
0.0218046
0.0216568
0.0235328
2.12835
0.0276348
3.18682
0.0231867
0.0221625
0.021893
0.0219378
0.0243092
0.175026
2.60172
2.74799
0.0290167
0.0220544
2.26735
0.0224021
5.76479
3.86661
0.030427
4.73246
2.59181
5.31709
0.0481174
0.0298849
2.92824
0.0288593
0.033206
0.06771
0.218792
0.022499
4.56043
0.0220294
3.92096
3.33692
0.0217255
0.0238946
0.0435538
0.267051
0.0309781
0.0221422
0.0270373
0.0233054
0.0253377
1.00157
0.0221621
3.28217
4.96132
0.0220326
0.0291607
0.0364138
0.0220812
2.46133
13.1585
3.83087
2.74705
0.0220372
0.0244223
0.0259504
0.022309
0.46596
0.0312773
0.0222568
0.0533164
0.025917
4.48782
0.0354804
5.85623
0.0231858
0.0231601
0.0503309
0.0755135
0.0591681
0.0219922
14.5459
3.18228
23.4414
3.84491
3.85457
2.76521
3.40887
0.021995
0.0220284
0.0220746
1.55026
0.0403099
0.0589504
6.47693
0.022281
0.0216907
0.0220479
1.10799
0.0217008
0.0259327
0.0236366
3.66312
0.022981
0.0218552
0.0220852
0.0219866
0.0221627
0.0339501
0.368258
0.0333265
4.88972
0.022035
0.0219383
3.10312
3.12615
5.91056
3.7661
0.0472729
3.61228
0.0218202
0.0571797
0.0231649
0.0220799
0.0241259
4.55648
0.0229988
0.0765289
1.7652
0.0223124
0.021951
0.0264344
0.186016
0.0222717
3.64714
0.0220593
0.456397
0.0221273
0.0222775
0.0259771
0.0909993
0.0221443
3.65419
4.2295
0.302646
3.35745
0.0220489
5.45882
3.11644
0.0220491
3.29978
0.0223013
0.0423617
0.0222355
0.0222712
0.0219602
0.0220526
0.0224419
0.0272936
0.0553715
0.0222355
0.0220992
0.060792
0.0217761
8.30133
0.0221281
0.0297971
0.0314047
4.05272
4.16151
0.0221463
0.185482
0.0218233
0.029191
0.0628655
3.75045
0.0416441
0.0222721
0.101081
0.0741408
0.0700338
0.836945
0.0350571
0.116494
0.0501161
0.05671
0.0229341
0.0218719
3.94299
5.24668
0.0243117
0.0220158
14.1012
0.0218395
0.0369759
0.0219602
0.071554
2.98438
0.0216184
5.71365
0.02549
0.0221701
0.159523
0.0218785
0.0405425
2.63582
0.0354506
3.92487
0.0219549
0.0222645
0.0441532
0.022225
0.0222471
0.0269725
0.0280805
0.0556555
0.0741041
0.0221117
0.037069
0.0218571
0.0220614
0.0222141
0.0220515
0.874559
0.0219466
0.0233143
1.89268
0.0218348
0.0220042
3.05459
0.0222502
15.1674
0.0231532
3.12906
0.210403
0.0508833
1.82084
0.0562476
1.69649
0.022403
0.156753
0.0262979
0.0218611
0.0219055
0.0233019
0.0290604
0.0219769
0.0490354
0.0219053
0.0231426
14.8158
6.42658
3.20578
0.0240496
0.0461782
4.04974
7.17746
0.0221716
0.0257289
1.60464
0.0222144
0.0365859
1.1431
2.75137
0.0263699
0.0379734
0.0227808
0.253172
0.0222849
0.035122
5.37245
0.0221918
0.0218832
8.41687
0.0391147
0.473712
3.44473
0.0910129
0.0224553
0.0219093
0.0223023
4.17
3.39528
4.98769
0.0496341
0.0220522
3.70404
0.0221104
0.131153
0.0268369
0.0233321
0.037474
0.0220569
5.7574
7.22612
0.0217965
0.0557683
0.041359
1.44231
0.0395011
0.0501265
0.511023
0.0313621
3.27469
0.0518241
0.022113
0.0324653
0.0823586
3.48738
0.0220332
3.80943
0.0414588
0.0532303
0.0222724
7.35771
0.0254651
0.0235967
0.0218689
0.0366105
0.0354334
0.053729
0.0221265
0.0226889
0.0516835
21.7139
0.0529114
0.022157
0.0226823
0.0324305
0.186249
0.0221703
0.075511
4.46954
0.0448112
2.91546
0.0363278
6.41011
0.265495
0.0219954
0.907666
0.0222385
0.0247035
0.0302661
0.0314339
0.0805979
0.0408272
0.0410622
0.0426155
0.0292135
0.0240321
0.0216944
0.0793713
0.0249725
0.0285962
3.8647
0.0256428
0.029669
0.0219481
4.23973
0.0706865
0.0221085
0.0243294
0.0233475
4.60668
0.124817
0.0302655
2.70368
0.796553
0.618918
0.0755132
3.14696
0.0218951
0.296924
0.0219635
0.0269608
4.7674
2.451
0.278948
0.998096
0.0221227
5.57788
0.0218919
0.0698088
0.0250184
3.5584
4.85157
0.0257132
0.0220228
0.26087
0.0434866
0.0220198
3.89313
0.0220733
0.0236928
0.024971
0.0222298
0.0290266
0.0234192
0.022052
0.0331109
0.334806
0.0354616
0.0529982
0.0220164
5.26825
2.47821
0.0220039
1.86355
0.0249702
0.0291316
4.70911
0.0220005
0.022726
0.0277837
3.47564
0.0220294
0.0221824
0.0354311
3.33735
0.0219872
0.031654
0.0332875
3.7835
0.0410633
0.0352711
0.231768
0.0220782
0.113328
0.0217342
5.2338
0.0285833
0.022052
0.0264185
0.0787995
0.0221502
0.0221935
0.117838
2.85462
0.0223906
4.73656
0.0221869
0.0217271
0.0538619
0.0220324
0.0219457
6.14037
0.0222733
0.0355303
0.156633
4.59779
2.93465
0.0219069
0.0240796
0.0280585
0.0220736
0.0220489
0.0220946
3.53331
0.022194
3.21369
0.102957
0.0218802
0.0217876
0.0284141
0.103383
1.88422
0.0531725
0.0532537
0.0237655
2.71875
0.0687478
0.0291636
0.036086
0.0599148
0.0753035
21.1968
0.0351109
3.07052
4.53084
6.57913
0.0242975
0.0219769
0.0344691
0.0342037
0.0218594
0.0224042
0.116605
0.0222431
0.0223084
0.0220498
0.0216515
0.0234308
0.0220785
5.65832
0.0220195
7.16463
0.022081
0.0790619
0.0225381
0.104057
0.0712006
0.0220544
3.93767
0.0240553
0.0222247
0.0353937
0.0218476
0.0304321
0.0220041
2.69
0.0240331
0.0369139
0.101928
4.00441
0.0278632
3.22725
3.01791
0.0472291
0.0221317
0.0228926
0.0988796
0.0536815
5.93545
0.0217984
5.71694
0.0221083
0.0850022
8.84812
0.0333499
3.50767
0.0249673
0.0298821
0.0246812
7.03909
0.0294786
0.0221419
0.0458333
0.11328
0.0232784
0.0220399
0.0221428
4.16154
0.0222515
0.0271452
3.19099
0.0258117
0.0219935
0.0518851
0.0246608
4.32623
0.0216907
0.0220234
0.0218687
0.0261642
0.0223824
0.022144
0.0532427
2.99497
0.021976
0.0221049
4.94899
0.0223259
5.39985
0.0237621
7.04584
0.0218752
0.0242543
0.0218219
3.22261
3.37144
0.0298054
0.0670442
0.0270105
0.0219599
0.0221187
2.74464
0.0221367
0.0697492
0.0218531
0.0382781
0.0221887
4.95674
0.0218451
0.0394248
0.0218736
0.393823
0.629422
0.0218288
0.042359
6.58457
0.0561037
3.73976
3.52608
0.188815
0.0234705
0.0310904
0.0768589
4.87982
0.0222966
0.0348547
0.0281027
0.0219951
3.37873
7.45047
0.0566062
0.12808
0.258958
0.0316773
2.99423
0.0218548
0.0218225
0.0803183
7.59709
0.178116
0.126172
4.31786
0.0218218
7.35002
3.08417
9.57465
0.0222025
4.51301
5.76148
0.668638
3.61299
2.88331
0.0719188
0.0287633
0.134407
0.0257089
0.0219872
0.837041
0.0752614
0.0216814
3.82609
0.0221873
0.0289066
0.0369577
0.026662
1.03561
0.0344222
5.78011
0.0391951
0.0262312
4.52302
3.83187
0.113829
0.0224025
0.0258824
0.0593483
0.055196
0.0218385
0.0417243
0.0594557
0.115535
0.0219857
0.155946
0.0242281
0.0459264
3.50664
3.31254
0.0231395
0.110886
4.06719
0.0221922
0.022787
9.08628
0.250059
0.0240881
0.0243255
0.0220897
0.0665697
0.0249759
2.58821
0.0803402
0.0225551
0.0222232
0.0651422
0.0287623
2.63165
5.33946
0.0218874
0.0220323
0.0269071
0.0221938
0.0239354
0.0228889
0.0227227
0.025836
0.021943
0.0246928
0.022205
0.0410053
4.74917
0.0222639
4.76421
9.12816
0.0217344
0.214838
0.109281
0.0736424
0.0227608
0.0752661
0.0261505
0.0769392
0.0280244
0.0231582
0.0222093
5.88223
0.027253
3.87824
0.0227524
0.0220418
0.0220206
0.0639498
0.0219689
0.0424201
0.0515278
1.31966
0.0219202
0.766875
1.95695
3.12308
0.0218145
0.11271
0.90384
2.26217
1.07159
0.0225876
0.0222912
0.128171
4.246
3.87775
0.0355387
2.57204
0.0222314
0.0218852
0.0386474
0.0221947
0.0221493
0.128739
0.022265
0.0868198
0.021868
3.71197
4.42181
4.51686
3.555
3.26202
0.0221447
0.0221438
6.14067
0.0218126
0.0218379
0.0217289
0.102495
3.44517
5.46422
0.0274723
0.0221983
0.0230902
0.0363123
4.43319
0.0220366
3.55615
3.8214
0.0221878
0.0221785
3.28898
0.0663727
0.0232955
0.0220416
4.91005
3.43676
0.0220394
0.185855
0.0222531
3.02908
2.29144
0.0235786
8.97754
5.97326
5.06061
0.0218545
0.022288
0.0222441
0.0222864
3.20105
0.0219211
0.190905
3.17497
7.08817
0.0226462
0.0513234
0.773734
0.0423348
6.07579
4.21147
0.0216668
0.0250557
0.0251693
0.141341
2.97614
0.0216365
4.72709
0.0314503
0.0373909
0.0227755
0.0219478
0.221688
0.0361366
5.21395
0.0221947
0.0484719
0.022555
0.104021
0.02396
2.94272
4.47939
0.21076
0.0847806
0.0219778
0.0238141
0.0705758
0.197649
2.92879
6.27002
0.0221492
3.62202
0.0882721
4.39461
0.0262451
0.0387358
0.0351467
0.0221177
5.02172
0.0220682
0.0300101
2.8654
3.55483
0.754512
3.35003
0.027697
0.0416799
0.0217954
3.75554
0.026808
6.29311
0.0217884
4.25016
0.0216232
0.0220003
0.0297089
0.0311889
0.032087
0.0219928
2.96222
0.0385649
0.0219245
0.0348121
3.24803
0.460447
0.022043
4.60299
0.0241945
0.0314003
0.0301073
0.0217151
0.0533748
0.0219937
4.05214
0.0737521
0.0262265
0.0220308
0.263063
0.0350891
0.0217887
4.69718
3.54374
0.211622
0.0217831
3.65682
0.0221404
0.116794
0.026615
0.102009
3.64931
3.13035
0.0346732
3.34575
0.0456131
0.0280259
0.0218386
4.49275
0.0987024
0.0828834
0.0603749
0.0222434
3.46737
0.0722134
0.270852
1.76802
5.99601
2.91862
1.55678
4.15374
0.0284868
0.0314191
0.0220951
0.0221064
0.021652
0.156167
0.0284585
0.0328416
4.45301
0.0219427
0.0218622
0.0367996
0.114275
0.0267024
0.021829
3.55549
0.0239688
0.0411428
0.0222357
5.02865
0.0286029
4.96918
0.0539928
0.0310668
0.047268
0.0220881
7.39778
0.538946
0.0576779
0.0220633
0.0219111
5.96615
4.51757
2.50427
0.0219011
0.0588119
2.74731
0.022094
0.0220064
0.0221119
3.33934
0.0952067
0.0327899
0.0266657
0.0254255
3.94207
0.0764545
0.2201
0.025845
0.0299588
0.021649
0.106362
0.0486598
0.0220202
2.73391
4.26832
3.12689
2.91148
5.1291
8.35391
6.0585
0.0231919
0.0219233
5.41855
3.99366
6.23246
0.0220883
0.035248
0.022054
0.0219722
3.46222
3.66873
0.0524897
0.0220023
2.26701
0.075861
0.0418945
3.38919
1.02126
1.90547
0.0219162
2.94295
3.50739
0.259386
0.0300529
0.0369297
0.0221952
0.0218803
0.0346847
0.039636
0.0242459
0.0356455
0.026674
0.0248782
1.3537
3.34391
0.0312118
0.0371744
3.17647
0.331251
0.0221134
0.424882
0.766314
4.03958
0.0365446
0.0221639
0.0278933
0.026186
0.0298569
0.0217141
0.0332514
0.0292101
0.0398155
0.184853
0.0222305
0.0229774
3.0051
2.76074
3.7678
0.562073
0.0998373
0.0216031
0.022051
0.0285256
0.0217848
6.44284
0.0220427
0.022273
0.0217539
2.68279
14.2563
0.0224567
0.0522695
0.0273718
0.0346262
0.0283218
0.0350474
0.0353561
0.0339312
4.65422
0.025505
3.71302
0.0355445
3.82328
0.0279324
0.0219358
0.0218334
0.0776022
0.118221
0.0218323
0.0381834
0.0280437
0.0502453
3.55464
8.72861
4.27141
0.0222728
0.873314
0.0292286
0.0342401
0.0220311
0.057431
0.0236433
3.07735
1.64724
0.0371913
0.0220785
2.75486
0.0273461
3.53134
4.0935
1.9992
0.0241358
0.103455
4.12788
1.05296
2.81456
0.0506909
0.0219726
0.0360567
0.0219085
9.0397
0.0245038
0.0297805
2.75784
3.92892
0.0219416
0.0219717
3.87389
0.0369925
8.58323
0.0327243
0.0220416
0.0374396
0.197507
0.0429594
3.72463
0.0335792
0.939228
0.0246766
0.0222439
0.0219567
0.210413
0.0227109
0.108508
0.0220577
0.0220309
0.19541
0.0254947
0.0221203
0.0220359
0.0327686
0.820767
0.0375859
0.0348052
0.0263942
0.0509837
0.0220546
0.12457
0.0286457
0.0373855
0.0682133
0.0271152
0.076721
0.0443187
0.0218876
0.0553799
8.20629
2.63934
0.0221503
1.12456
3.51251
0.0219746
0.0227153
0.663335
3.28594
0.0280022
3.39169
0.273965
0.0221401
0.0702816
0.0216481
0.0253344
0.0510828
6.04573
0.424086
2.86973
0.77647
2.84439
2.95754
0.0233532
2.8705
0.0220394
3.4595
3.07795
0.0220987
0.0220829
2.79578
0.0221339
0.0220853
0.646464
3.11493
0.187986
0.0255242
3.23486
0.0221033
2.87302
3.09216
0.0221898
3.69457
2.05334
3.59876
2.87733
2.98433
3.01813
0.0218847
0.0232639
0.0511749
0.053398
0.0220801
0.395154
0.0220419
2.87861
0.677576
0.0481835
0.495339
2.7967
0.618421
0.461111
0.0594565
6.62531
0.329448
0.024803
0.0216784
3.57094
0.0340016
0.0218071
7.10729
0.0219835
3.64862
0.0221633
3.43533
0.0249846
0.0219853
14.3796
0.0275632
0.0349835
3.09657
6.14924
1.28065
0.0266961
0.040194
0.0233473
0.0354864
0.103415
0.0358001
0.0222101
1.27476
0.0509015
0.0316201
3.33814
0.0355125
0.0360577
0.158556
0.059876
0.0390163
0.0219812
0.1559
0.0218329
0.103205
3.46433
3.5071
0.0218763
0.0348479
4.57867
0.0231605
0.0540972
0.0294039
0.0369054
5.31574
0.0505674
0.0234993
11.2576
0.0218863
2.75024
0.0221239
0.0229253
0.102609
2.51714
0.0308638
0.362331
0.452119
0.0293367
0.0222302
0.146461
0.039395
4.24966
0.0266322
6.78078
0.117321
0.0293643
0.0279069
0.0898008
0.0339634
0.0722984
0.0504091
0.0371087
0.024056
0.0221934
1.05783
0.0220218
0.027447
0.0216562
0.0924624
0.0276923
0.0501595
3.06388
0.0230836
0.187655
0.0215714
0.0221757
0.0221877
0.0222068
0.0259085
0.0219429
0.0715707
6.29283
0.049832
0.0389928
0.0246494
0.0220643
3.24366
0.022044
4.18267
4.69842
4.35974
0.136694
0.0325788
0.0263559
0.0221765
0.0295684
0.0915018
0.0383232
3.29596
0.0495759
5.1302
0.144894
0.0222099
0.0218474
2.6957
0.0219631
0.0280713
0.0639101
0.261142
0.0232615
3.14871
0.0221742
0.0253479
0.0220556
0.0226669
0.152041
0.0927155
0.0222377
0.0302587
0.034825
0.0395966
0.0489999
0.397053
0.286178
0.204095
0.128883
0.0257836
0.0229287
0.0487511
2.50188
5.92914
2.75922
0.0295901
5.50131
0.0925544
0.0227475
0.0219942
0.054034
0.0221427
0.0303025
4.94345
0.02197
0.0218542
0.360445
3.40596
0.0411897
0.705155
0.0221352
4.77566
0.0378976
3.85814
0.0293788
0.0220543
2.87631
0.0586874
0.0220407
0.0658564
0.0222523
0.12691
0.0277136
0.055181
7.08202
0.0332853
4.82262
0.021935
5.4586
0.0221492
0.0255011
0.022492
0.0408416
0.0221432
0.0533645
2.70086
0.77847
0.0422417
0.0306771
0.0746557
0.0219286
0.0219648
0.0229893
4.11778
0.0248694
3.62482
3.67635
0.11271
0.0222144
0.115821
0.172171
0.117286
0.0255995
3.81912
0.0219864
0.0216015
0.0219694
1.85771
0.0221074
0.0220262
2.76429
0.0219791
0.127359
0.0931548
0.0218817
2.95303
0.0272693
3.42054
0.0219568
4.43941
0.0228041
0.0699877
12.1201
0.0538523
0.0219505
0.0264408
4.27791
0.0301567
0.118205
0.0290051
0.0257768
0.115472
0.0285402
0.0223314
20.9852
0.0279682
0.0272193
0.144139
0.0219794
0.0218763
0.0221888
0.0294279
0.0221494
0.0256478
4.8267
13.9231
0.0961597
6.83564
0.0533081
0.0321795
4.06093
4.74228
0.0224796
7.73302
7.90975
3.14855
0.883167
0.0291282
4.32065
2.83586
17.9959
0.899144
5.66633
0.0417874
0.0785225
0.0292272
0.0255265
0.0221361
0.869806
0.0222849
4.8994
0.113909
0.268526
0.0216365
0.0609918
0.0445412
0.0236557
0.0222931
0.0221183
0.113164
0.0234919
0.0223253
0.0365122
3.94925
0.023994
0.123203
0.0218366
0.117011
0.0784362
0.0221855
0.0263077
0.0219459
3.44214
3.12368
0.13467
2.87919
0.0322259
0.0707409
0.0221324
0.0368167
0.0220486
0.0223234
0.0222326
3.89945
0.0218044
0.0409911
0.517416
0.0272622
0.0289456
0.0220007
4.62834
0.149058
16.3886
3.7629
0.130512
0.246184
3.57492
0.260056
3.4063
7.33749
0.114659
0.0342855
0.990144
3.97284
0.0220459
6.13972
0.122278
4.40878
0.0216507
0.052125
4.71481
0.0222728
4.69003
0.0254512
5.43963
0.0220915
0.022117
0.0565577
0.192549
0.0260738
0.0531244
0.0218466
0.0221725
2.96929
5.01723
8.77314
0.0472984
0.0223204
0.0224757
0.0221345
0.0350995
0.916516
3.12743
4.45979
1.09567
0.0300462
0.0219533
0.0219827
4.68835
8.42046
0.220707
0.0264269
0.024514
0.0787658
5.54772
7.40733
0.0216053
0.0219609
4.09791
0.0229844
0.208635
0.0277912
0.0220861
0.0313146
0.0452918
3.67064
3.80423
0.022202
0.0218564
0.024462
3.2387
4.56984
0.0222646
0.105627
3.51717
0.0216061
3.42948
2.93918
14.8859
0.0221109
6.90657
4.01742
0.0374407
0.259722
0.0244781
0.290413
0.262948
0.0250491
0.0219491
8.83794
0.746159
0.0219413
0.117273
0.110696
0.0282663
0.215024
3.71759
4.27409
4.14143
0.027098
0.023651
0.0231084
3.19387
4.06102
3.83669
5.66062
3.66045
0.0217751
0.0388598
0.022067
0.0221145
0.0246976
0.021967
0.0220589
0.0224291
3.11131
8.91535
5.7763
0.0538314
0.147898
0.0361806
0.0218717
0.0219867
3.49412
0.0221376
5.08867
2.71053
0.0221786
0.021931
2.61041
0.0225543
0.401502
0.0252995
0.0217686
0.0217748
3.48964
0.0217204
3.96385
3.32961
0.0216329
0.0400634
0.0219447
0.0229636
0.0219791
0.0947201
4.03395
0.0219702
3.6281
0.37365
0.0239577
0.0219278
0.0226807
0.0234691
0.0222254
0.345793
4.26588
5.43023
0.0369704
8.59827
0.0222722
0.0253502
0.0223343
0.137607
0.0233898
4.18701
0.0218655
3.32936
0.566185
4.85081
0.156117
0.0218617
0.0386959
0.0219358
3.3168
0.0220887
0.0277393
0.0257929
0.0250815
0.0221566
0.0222508
0.0320083
3.6477
0.0222102
0.0228131
0.0237986
0.0328402
0.175856
0.022187
5.93562
2.69614
0.0237121
3.47227
4.64555
3.53085
5.79136
0.0215971
0.0230477
3.68594
2.92132
0.110657
2.86244
3.11365
0.0313467
0.0421547
0.0290054
3.64761
0.0220356
0.0219652
4.95309
0.103956
5.37753
0.0245544
0.0217709
0.0220447
4.86721
0.0595316
0.0244362
0.176786
0.0218916
0.0533679
0.0286286
0.0288406
0.0221528
0.0221876
0.0219222
0.0244319
1.01515
3.70959
0.0216381
0.021944
3.68064
0.0220869
0.0595985
0.0260513
0.0256261
0.0352953
0.0222856
3.50829
0.028333
0.0253585
17.0454
0.0707726
0.0232318
0.0313381
0.0220379
0.0224952
8.9407
0.269908
2.72636
0.0223252
0.0221529
0.0523037
0.0271144
0.02203
0.0355977
4.11296
0.0254869
0.0373994
0.0251446
0.102254
0.0221162
0.0218248
5.05912
4.91383
4.84138
0.0219807
0.128175
0.0217566
0.0220219
0.0622248
3.2068
0.0569104
0.027141
0.128885
0.0228461
0.0283807
0.0517187
0.670307
0.0223277
0.021682
0.0225941
0.0247359
0.0268023
0.0219611
0.885258
11.7845
0.0221564
0.0315721
0.0224552
0.0217742
2.81402
5.22447
7.18402
0.0666375
0.0224105
0.0491718
3.84147
0.0797606
0.0923044
0.033298
0.0294157
4.32179
0.207259
0.480566
0.0217776
0.0301424
0.0221302
0.0288251
7.10367
0.0216622
0.0386302
0.0254817
0.0292294
0.0230628
0.0218816
0.0218815
2.92179
0.039954
0.0289695
0.0560199
0.0339555
5.67739
0.0306965
0.417654
0.0219306
4.92099
3.88594
6.43703
0.0222645
0.0297574
0.022084
0.0219757
7.04886
0.0400193
4.97909
0.0219958
0.0440364
0.14131
3.20689
0.027901
0.0217566
6.31342
0.022285
0.0222841
0.0226024
0.0220346
7.66412
0.0218482
0.0218855
0.0351431
0.0271492
0.121445
0.108097
0.0328716
3.12118
0.0221885
0.131773
0.0218916
4.84617
0.0324657
0.362972
0.112365
1.83891
0.0927342
4.47105
0.0230847
5.68388
0.0319507
4.47515
0.150876
0.0279697
0.162689
0.0221752
9.17871
0.0231107
0.0350163
0.0270066
3.91332
0.135728
4.15224
0.0305994
0.0220225
4.24871
0.175492
0.0508548
0.115079
8.55299
4.6967
0.0374707
0.197473
0.0372815
0.0218898
0.0442125
0.189958
0.0627397
22.207
0.0986993
0.0218264
0.0220274
0.111987
0.0220855
5.10454
0.0651478
0.0220856
2.68424
0.974973
3.46983
0.0906386
0.0220816
0.0288175
0.0257718
3.8643
2.60895
0.0257271
4.69661
0.0219128
0.0313573
0.556991
0.0220048
0.0363736
0.0219313
0.0256971
0.0222511
0.143457
3.60639
0.0299407
0.0289848
0.0217674
0.111067
0.0219221
0.0218398
0.032507
0.0219255
0.159154
4.40538
1.02735
3.12268
0.0218113
5.61552
0.0221886
0.0369491
0.105176
0.0221725
7.62831
0.0627077
0.0220611
0.021761
0.0371589
0.0362975
0.149086
2.14281
0.0258454
0.023824
3.02964
0.0531277
0.219301
0.506038
8.84303
3.30168
5.10361
0.630185
0.0221749
0.0221139
0.0432857
0.0222399
0.045721
0.0352133
5.51892
5.39415
5.30832
0.0217998
0.0218319
0.0981283
3.0063
4.31487
0.637392
2.59592
0.0545636
0.0324667
0.601821
0.712117
0.0261214
4.10042
0.0327398
0.0287441
3.88693
0.0377478
0.0221194
4.10045
0.600607
0.0245499
0.110311
0.0237774
2.67304
4.74695
5.51282
0.022018
0.0217142
0.112472
0.0220187
0.0219957
0.0220213
0.0217597
0.0220259
0.0220324
4.81553
0.0272728
0.0451771
3.87133
0.0219032
0.0220405
0.0296012
0.0258208
0.0258419
0.0220483
0.0586011
0.0296045
0.0263873
0.079361
3.44755
0.0220594
0.0374019
0.0220714
0.0220372
0.0216547
0.0220839
3.54683
0.021936
0.0220347
0.0220971
0.0410095
3.37896
3.89569
5.03122
0.731861
0.0391695
3.45976
5.81599
0.0219552
0.0413689
5.40653
2.90743
0.0221113
0.0275972
0.0393325
0.0373422
0.0220601
0.0386388
0.056444
0.04343
0.0216737
0.0471747
4.34595
0.0216347
0.813796
3.9108
0.0412427
0.595301
0.0333336
0.0220908
0.0251977
0.0220234
0.186468
4.62753
0.021765
0.04188
0.0219799
0.0219797
0.0222241
0.0222857
0.0361661
0.0221716
0.102082
0.113592
0.0254124
0.0243863
0.0396869
0.0220485
0.0434522
0.0310766
0.0223925
0.022102
0.0221405
3.97986
0.0220269
0.207063
0.0385437
0.0222527
0.0220532
0.0218704
3.70478
0.0250408
0.0420884
0.0464618
4.80923
0.0280796
3.04324
0.826857
0.0427781
0.0219747
0.177182
0.0352042
4.00489
0.0621039
4.98259
0.0218118
0.0450646
0.0447275
3.19449
0.0220156
0.0395054
4.92102
0.021874
7.87057
13.4362
4.03189
0.0219846
0.0218693