/*--------------------------------*- C++ -*----------------------------------*\
| =========                 |                                                 |
| \\      /  F ield         | OpenFOAM: The Open Source CFD Toolbox           |
|  \\    /   O peration     | Version:  v2012                                 |
|   \\  /    A nd           | Website:  www.openfoam.com                      |
|    \\/     M anipulation  |                                                 |
\*---------------------------------------------------------------------------*/
FoamFile
{
    version     2.0;
    format      ascii;
    class       volScalarField;
    location    "450";
    object      k_0;
}
// * * * * * * * * * * * * * * * * * * * * * * * * * * * * * * * * * * * * * //

dimensions      [0 2 -2 0 0 0 0];


internalField   nonuniform List<scalar> 
13851
(
0.00018047
0.000150884
0.000150694
0.0256638
0.000148408
0.000152866
0.000150157
0.000146536
0.0262747
0.000148595
0.000171094
0.000148363
0.000149226
0.0169529
0.000158546
0.000179937
0.0255534
0.000146711
0.000195004
0.000180478
0.00016071
0.000153912
0.00561467
0.000149734
0.000228086
0.00016806
0.000192488
0.000208099
0.0212947
0.000145944
0.0596425
0.00015016
0.00017991
0.0193644
0.000163831
0.020274
0.00014981
0.000264944
0.0565264
0.000148339
0.0326708
0.0201079
0.00870965
0.000199407
0.0189244
0.000146876
0.000144857
0.000179253
0.000150602
0.000149193
0.0275208
0.000149651
0.000179818
0.000155195
0.0148703
0.000148389
0.000180384
0.0356518
0.000192216
0.0204882
0.00014842
0.000191492
0.00014872
0.000150854
0.000178504
0.000178707
0.0159099
0.00016711
0.000148166
0.0383264
0.0545324
0.00016419
0.000148392
0.0178019
0.000156072
0.000151484
0.0319899
0.000145311
0.000223133
0.000147418
0.000148189
0.000196764
0.00016363
0.0181284
0.0206393
0.0589712
0.000154017
0.0120075
0.00014844
0.0598362
0.000149786
0.000150288
0.00903009
0.0533993
0.0537297
0.000188864
0.000147193
0.000180193
0.0233253
0.000183889
0.000180889
0.000162615
0.00016342
0.000148719
0.000146723
0.00016387
0.00014674
0.0576897
0.000150275
0.000146603
0.000157994
0.000146854
0.000185289
0.000170277
0.000179381
0.000154775
0.000146108
0.000146264
0.0220742
0.0428567
0.000182432
0.000146101
0.00014823
0.0311529
0.000190695
0.000171994
0.000147165
0.000168647
0.0319498
0.000162521
0.000153858
0.000157047
0.000243393
0.0211937
0.000171392
0.0552458
0.000166518
0.0569784
0.000160573
0.000162075
0.000196013
0.000150514
0.000148484
0.000171098
0.000227205
0.000151353
0.000145273
0.0544484
0.0223533
0.000169237
0.000180657
0.000184886
0.000171276
0.000190666
0.000149846
0.000148978
0.000148532
0.0594574
0.000160819
0.00014966
0.000149583
0.0208822
0.000163304
0.000179212
0.0172544
0.0230788
0.022904
0.0317458
0.000157533
8.77912e-05
0.000148534
0.000146137
0.000168017
0.000148821
0.0529878
0.000193613
0.000182198
0.000146036
0.000156041
0.000181621
0.000189952
0.000198687
0.000156824
0.000162147
0.0098596
0.0224304
0.000180028
0.0001578
0.000149572
0.000146325
0.000214406
0.000160799
0.0133345
0.000152966
0.000151087
0.000179998
0.000179413
0.000147197
0.000147794
0.000167815
0.000196083
0.0475807
0.0369004
0.000158412
0.000371875
0.0475442
0.000152845
0.000161596
0.0268154
0.000152511
0.000179817
0.000148184
0.000196468
0.000149515
0.000164136
0.000152351
0.000149104
0.000188184
0.00014756
0.000507244
0.000146027
0.000180578
0.0161667
0.0543993
0.000157434
0.000161801
0.000149733
0.000169709
0.000147878
0.000163884
0.0443187
0.00015753
0.000152419
0.000148863
0.0372339
0.0001459
0.00300047
0.0385277
0.000181801
0.000149643
0.000218806
0.0200546
0.0168695
0.000179658
0.000157151
0.000173906
0.000186727
0.000156176
0.000187831
0.000159111
0.0119803
0.000181533
0.000146615
0.000152438
0.000180531
0.0208566
0.0129768
0.000146304
0.000173027
0.000148374
0.000185318
0.000190514
0.00015274
0.000163581
0.000182244
0.000147915
0.000162877
0.000176756
0.000203583
0.000148457
0.000149092
0.00015765
0.0225755
0.0157469
0.00016247
0.000146172
0.000190142
0.000190531
0.000177696
0.0001632
0.0248678
0.0215895
0.00015325
0.000156925
0.000242569
0.000146606
0.000148529
0.000178318
0.000168941
0.00014585
0.000149496
0.00014785
0.000147796
0.000156861
0.000148478
0.0264087
0.000161383
0.000147674
0.020861
0.0298688
0.000149634
0.000180854
0.0253481
0.000150687
0.000149747
0.000162259
0.0174033
0.0318173
0.000169694
0.000148334
9.58881e-05
0.000148475
0.000171329
0.0289794
0.000201633
0.000149458
0.000240297
0.000212836
0.0621966
0.000184692
0.000163235
0.0547113
0.0333757
0.000208257
0.000147952
0.0344514
0.00618069
0.000204137
0.000201855
0.000152965
0.000169683
0.000157556
0.0123058
0.000164198
0.000146859
0.000144445
0.000154767
0.0584623
0.00036901
0.000146559
0.0539398
0.000157688
0.000157355
0.000149752
0.0163861
0.000189702
0.000180223
0.000152078
0.000151977
0.0185085
0.000149577
0.000191234
0.000153105
0.000162256
0.000158236
0.000148409
0.00014762
0.000184098
0.000185545
0.000181515
0.000232795
0.0181572
0.000151436
0.03933
0.000188155
0.000145422
0.000203281
0.000174705
0.0273153
0.000154338
0.000169254
0.000191174
0.000233882
0.000183307
0.0134746
0.000149005
0.000194723
0.00973517
0.000155834
0.0148338
0.000157255
0.0364134
0.000156702
0.000159359
0.000181817
0.00019178
0.000148994
0.000152929
0.000170086
0.000156239
0.000147065
0.000162604
0.000703048
0.000148342
0.000161753
0.0153677
0.000151013
0.000246138
0.000160896
0.0223167
0.00015299
0.000167105
0.000246778
0.000190747
0.000163595
0.0113572
0.0177578
0.000213009
0.000147993
0.000183774
0.000157618
0.000168896
0.000146232
0.00991333
0.00121007
0.000227546
0.000151867
0.000182091
0.000191989
0.0171957
0.000144772
0.0265975
0.000194315
0.0142642
0.000159681
0.000216761
0.000148691
0.000148736
0.0138367
0.00019228
0.000148602
0.000150939
0.000162117
0.000146386
7.63007e-05
0.00016979
0.000174446
0.000151956
0.000149022
0.000149809
0.000233024
0.000147662
0.000149744
3.56483e-05
0.000219942
0.000153534
0.000189479
0.000148769
0.000148473
0.000151394
0.000182004
0.000160745
0.000147158
0.000149231
0.000181952
0.000149674
0.0179252
0.000148331
0.000153117
0.0180041
0.000160538
0.000144819
0.000148665
0.00015192
0.000147541
0.00021326
0.000304934
0.000157277
0.000701299
0.000151414
0.000148199
0.0295826
0.00019078
0.000160377
0.000148402
0.0325851
0.000160133
0.000152962
0.000148737
0.000157122
0.000183688
0.000157195
0.0335528
0.000192056
0.000223108
0.000152231
0.000185049
0.000147878
0.0213119
0.000160831
0.000179367
0.000157316
0.000151787
0.000160458
0.000168306
0.000148493
0.0188852
0.0310054
0.0172025
0.0086164
0.000349997
0.0427689
0.000191005
0.000156855
0.000149316
0.000226228
0.000148599
0.000147059
0.000157958
0.0516213
0.000150462
0.000150585
0.000171204
0.0001643
0.000148811
0.000161597
0.000147233
0.0288033
0.000213016
0.000147383
0.000149638
0.000194962
0.0002038
0.000145899
0.00022533
0.000979998
0.000145076
0.0641955
0.000194177
0.000180622
0.000152204
5.89673e-05
0.0229231
0.000145145
0.000194699
0.00014818
0.00014723
0.000136494
0.0349746
0.000160199
0.000160429
0.000148661
0.000165103
0.0296519
0.0576018
0.000145662
0.0324064
0.000147151
0.000148212
0.000163749
0.000153071
0.000144735
0.000151516
0.064046
0.000190423
0.0637467
0.000150134
0.000148345
0.0212035
0.000149108
0.000183985
0.000153191
0.000156131
0.00015715
0.0104535
0.0247205
0.00015273
0.0244369
0.000149187
0.000170161
0.0194611
0.0187768
0.000148309
0.000147925
0.000163826
0.0635893
0.000187611
0.000164721
0.000329844
0.000153167
0.00015622
0.0436816
0.000250408
0.000177472
0.0298234
0.00018434
0.017627
0.000148643
0.000192293
0.000206171
0.000148358
0.0171371
0.00368742
0.000157496
0.00016223
0.000148357
0.00047866
0.000171967
0.0102363
0.000147736
0.000149015
0.000155803
0.000163936
0.000148401
0.0527966
0.000148974
0.000184088
0.000152354
0.000169358
0.000148675
0.000148841
0.000165395
0.0328792
0.000163675
0.0546911
0.000157242
0.000146441
0.000145715
0.000168462
0.000149231
0.000177333
0.000151068
0.000160134
0.000191903
0.000149126
0.010869
0.000149657
0.000174057
0.0275429
0.0200659
0.000157419
0.00220495
0.000170807
0.000189446
0.00393727
0.00014599
0.000119604
0.000157723
0.000156352
0.0114424
0.000207157
0.000145477
0.00017701
0.000147061
0.0193149
0.0288042
0.000148347
0.000168014
0.000242156
0.000149728
0.000149643
0.000168288
0.00937845
0.000196707
0.000149764
0.00018189
0.000149405
0.000148869
0.000191866
0.000182206
0.000183093
0.000144703
0.000176717
0.000163561
0.000165749
0.000151034
0.000150872
0.000171033
0.000155596
0.000178016
0.000163859
0.000164001
0.000175143
0.000307556
0.000194556
0.000250928
0.000233211
0.000179997
0.0227019
0.000162416
0.000113144
0.000181133
0.000146619
0.000155884
0.000192031
0.000154419
0.000147426
0.000147392
0.000174037
0.0123881
0.000153298
0.0405526
0.000146463
0.000191542
0.00017552
0.0245814
0.000176938
0.00015311
0.000150691
0.0282511
0.000183003
0.000161957
0.000192399
0.000148698
0.000261486
0.00017421
0.000184235
0.00015733
0.000199947
0.000148644
0.000149595
0.000152495
0.000148881
0.0202935
0.000147796
0.000191377
0.0236608
0.000177344
0.0561605
0.0248586
0.000184923
0.000190747
0.000157388
0.000149205
0.00014901
0.000145377
0.000145717
0.000148834
0.00017019
0.000184507
0.00016436
0.000206234
0.000150424
0.0266589
0.000149953
0.0300512
0.000162499
0.000149879
0.000148928
0.0208333
0.000153093
0.000227721
0.00239852
0.000161375
0.000169764
0.000144967
0.0229604
0.000152741
0.000150577
0.000191987
0.000149214
0.000150477
0.000146073
0.000160864
0.013012
0.00015567
0.000157414
0.00019449
0.0581263
0.000157637
0.000155051
0.0180743
0.000145369
0.0188872
0.000149284
0.000149674
0.000220968
0.000171568
0.000179154
0.000175832
0.000163817
0.000149484
0.000149953
0.000171387
0.000148725
0.000149541
0.000153606
0.000193038
0.000147658
0.000187737
0.000246223
0.00022389
0.000175725
0.059046
0.000160936
0.000149172
0.000182816
0.000146565
0.000152984
0.000196621
0.0178612
0.000541061
0.0154321
0.000148475
0.000148307
0.000168091
0.000150677
0.000146382
0.00826624
0.000185639
0.0160981
0.00017427
0.000171989
0.000148923
0.000145983
0.000285703
0.000174647
0.000150018
0.000149677
0.000179075
0.000186661
0.040159
0.000149828
0.000148907
0.0112098
0.000150995
0.000157211
0.000146428
0.0496925
0.000147011
0.0309115
0.000148556
0.000180217
0.000159606
0.000167919
0.000157411
0.000148401
0.000151014
0.000147949
0.000190793
0.000150863
0.0153647
0.000148818
0.000226033
0.0273017
0.000156545
0.000147814
0.017228
0.000549156
0.000153083
0.000171404
0.000149004
0.0112919
0.000146706
0.000191977
0.000148285
0.000147924
0.000224804
0.000157258
0.000148591
0.000155497
0.0355457
0.000392122
0.000273689
0.000146345
0.023954
0.00014841
0.000147714
0.000149812
0.000144211
0.000149503
0.00148352
0.000290361
0.00014764
0.000148947
0.000160443
0.000146854
0.0222053
0.000183229
0.0203505
0.0541765
0.000150984
0.000177918
0.000148307
0.000160612
0.000173296
0.000145874
0.000149343
0.000224751
0.0307313
0.000169083
0.0125196
0.000167048
0.000148727
0.000161377
0.000171659
0.0282585
0.000156286
0.000198703
0.000175083
0.000149437
0.0235359
0.0284008
0.0159738
0.000213252
0.000146131
0.00015211
0.000173724
0.000149792
0.000197621
0.000153941
0.000146873
0.00111022
0.000150303
0.000147824
0.000148292
0.000150098
0.0516628
0.000191445
0.000146735
0.00016168
0.0176261
0.000150235
0.0115331
0.000151757
0.000171138
0.0399211
0.000148498
0.000188909
0.000156336
0.000157309
0.000416507
0.000150257
0.000196534
0.000166728
0.032662
0.000147117
0.0144826
0.000155622
0.0264775
0.0269459
0.0117936
0.000161307
0.000148578
0.000148518
0.000149728
0.000158746
0.000148828
0.0336685
0.000156282
0.000156569
0.000157489
0.000151941
0.00014634
0.000152325
0.000154697
0.000149626
0.000154634
0.00991554
0.000190369
0.000155089
0.000166734
0.000533748
0.000150655
0.0612784
0.000145473
0.000159328
0.00015092
0.000147107
0.000164694
0.000148166
0.000146699
0.000163257
0.000149044
0.000193188
0.000148976
0.0153097
0.000200878
0.000187478
0.000192407
0.000147158
0.0572963
0.000183222
0.000149453
0.000154649
0.000150392
0.0640225
0.000151837
0.000162963
0.000202051
0.0127497
0.000173089
0.000147687
0.0130923
0.000201053
0.000117722
0.000156296
0.000146374
0.000145552
0.000169696
0.000148624
0.0202037
0.000184332
0.000149246
0.000187949
0.00019379
0.000146011
0.00707539
0.0283433
0.000185176
0.000149018
0.0121354
0.00016985
0.000147921
0.013007
0.000154845
0.000146043
0.000147364
0.000155549
0.000158887
0.0262047
0.0622301
0.00015949
0.0235106
0.0001565
0.000148422
0.000169167
0.000147441
0.000232114
0.000145761
0.000148131
0.000151969
0.000148616
0.0256011
0.011662
0.000187522
0.0247021
0.00975298
0.000157345
0.000148341
0.000148985
0.000196832
0.000145641
0.000146871
0.000163487
0.000224415
0.000188684
0.000145211
0.000162034
0.000157478
0.00018096
0.0106029
0.000145021
0.000144652
0.000149378
0.000222885
0.000153522
0.0307351
0.000150881
0.000148993
0.000146033
0.000147297
0.000152275
0.000184905
0.016163
0.0227676
0.000157538
0.000148212
0.0002727
0.000147548
0.000220722
0.0279079
0.00015831
0.0368866
0.0208722
0.0546754
0.000163839
0.000156057
0.026414
0.000155588
0.000159719
0.000168389
0.000189379
0.000148718
0.000382308
0.00014847
9.4397e-05
0.000229291
0.0001455
0.000152378
0.000164957
0.000195912
0.00015697
0.000148844
0.000153396
0.000152089
0.000151671
0.000214796
0.000149031
0.000668689
0.0129291
0.000148505
0.000155576
0.000158673
0.000148396
0.0181296
0.00667922
0.0561951
0.0178476
0.000148066
0.000152305
0.000153764
0.000149763
0.000187419
0.000157142
0.000149698
0.000166417
0.000155203
0.00022603
0.000159748
0.0150449
0.000151975
0.000150404
0.000164122
0.000174922
0.000171121
0.000147968
0.0060617
0.0301164
0.00475398
0.0481352
7.68153e-05
0.0243766
0.0251761
0.000147987
0.000148313
0.000146716
0.000187208
0.000160519
0.000171118
0.0193488
0.000146965
0.00014532
0.000148657
0.000185514
0.000145197
0.000152643
0.000151555
0.000143654
0.000151046
0.000146625
0.000148471
0.000147756
0.000148996
0.000159903
0.000187167
0.000159737
0.000110127
0.000148273
0.000147297
0.031011
0.0239996
0.011713
0.000219944
0.00016396
0.000200362
0.000146348
0.000167623
0.000150412
0.000148561
0.000150108
0.0361947
0.000149032
0.000175188
0.000303637
0.000147356
0.00014703
0.000155476
0.000185023
0.000149792
0.000165195
0.000146598
0.00018585
0.000148885
0.000147643
0.000153152
0.000170369
0.000149246
0.000193374
0.055716
0.00018422
0.0186384
0.000148696
0.032904
0.000196441
0.000148279
0.000226682
0.000149758
0.000162419
0.000149606
0.000146463
0.000147476
0.000148905
0.000149052
0.000156324
0.000168526
0.00014784
0.000148755
0.000166085
0.000145309
0.00107446
0.000148906
0.000156553
0.000156316
0.0239502
0.00020237
0.000148911
0.000185297
0.000146399
0.000154547
0.000170136
0.000217212
0.000162036
0.000149795
0.000176077
0.000167939
0.000172003
0.000199563
0.000160395
0.00018295
0.000164767
0.000168533
0.000150908
0.000146207
0.000224433
0.014569
0.00015186
0.000147896
0.012542
0.000146482
0.000160659
0.000147462
0.000172748
0.000241469
0.000144309
0.0214815
0.000152661
0.000149047
0.000181782
0.000146878
0.000162065
0.0184634
0.000160344
0.000224096
0.000147435
0.00014974
0.000162635
0.000149454
0.000149633
0.000153251
0.000155144
0.00016882
0.000173638
0.000148814
0.000162089
0.000146174
0.000148254
0.000149374
0.0001483
0.00022389
0.000146012
0.000151856
0.000189077
0.000146448
0.000147806
0.0220656
0.000149652
0.0157567
0.000149239
0.0157098
0.000189038
0.000164633
0.000277868
0.000170739
0.000248523
0.00014809
0.000187161
0.000154159
0.000146129
0.000146922
0.000151882
0.000155777
0.000147673
0.000167677
0.000147031
0.000150267
0.0100271
0.0273971
0.000292075
0.000150054
0.000163742
0.0301161
0.0405713
0.000149068
0.000152389
0.000246528
0.000147439
0.000161449
0.000250802
0.0217646
0.000152748
0.000160199
0.000149958
0.000193773
0.00014989
0.000160477
0.000211926
0.000149108
0.000146621
0.00159449
0.000162893
0.0001883
0.0166761
0.000174112
0.00015005
0.000147066
0.000147755
0.0426224
0.000205301
0.000214996
0.000168464
0.000148881
0.0378265
0.000148761
0.00018496
0.000156066
0.000149027
0.000160965
0.000148243
0.00372255
0.00709184
0.00014472
0.000169449
0.000160952
0.000250021
0.000162943
0.000164552
0.000187904
0.000156372
0.000189974
0.00016544
0.00014877
0.000157052
0.000169053
2.82824e-05
0.000148041
0.000197096
0.000163966
0.000165507
0.000149797
0.0161309
0.000152241
0.000151754
0.000146467
0.000161674
0.000160857
0.000165593
0.000148748
0.000149817
0.000168467
0.00897506
0.000169621
0.000149
0.000150906
0.000156951
0.000189014
0.000149055
0.000174554
0.000243774
0.000165523
0.0166266
0.000158564
0.0233556
0.000196368
0.000147998
0.000212674
0.00014955
0.000152707
0.000155861
0.000157347
0.000176994
0.000160967
0.000163934
0.000164743
0.000156358
0.000152111
0.000145163
0.000169019
0.000151673
0.000157
0.000201444
0.000153642
0.000157492
0.000147368
0.0142697
0.000173423
0.000148808
0.000151061
0.000152329
0.0179525
0.000184107
0.000155859
0.0180869
0.000198339
0.000209861
0.000175422
0.000189366
0.000146921
0.000183075
0.000146796
0.000156175
0.000252371
0.018264
0.000196507
0.000225805
0.000148831
0.0158233
0.000146896
0.000171171
0.000153437
0.000212206
0.00145342
0.000151532
0.000147965
0.000196007
0.000162523
0.000147997
0.0504432
0.000148728
0.000151929
0.000151694
0.000149649
0.000156411
0.000152424
0.000148865
0.000159591
0.000199991
0.000159617
0.000169575
0.000147989
0.0268894
0.0171159
0.00014782
0.000190363
0.000153375
0.000157478
0.000166278
0.000147794
0.000150425
0.000156396
0.0410327
0.00014805
0.000149139
0.000160535
0.000133586
0.000147695
0.000158923
0.000159941
0.000200747
0.000163899
0.000160497
0.000187519
0.000148727
0.000172029
0.000145639
0.0192569
0.000156134
0.000148642
0.000152441
0.000176639
0.000148901
0.000147295
0.000181647
0.00822362
0.000147473
0.0196469
0.000149169
0.000145551
0.000169324
0.000148023
0.000145994
0.00033218
0.000149803
0.000160002
0.000181307
0.0648565
0.000200099
0.000145529
0.000153371
0.000156634
0.00014833
0.000148622
0.000148535
0.000213815
0.000149221
0.000189475
0.000177292
0.000146555
0.000145366
0.000155784
0.000177341
0.000189951
0.000165687
0.000169863
0.000151658
0.0260298
0.000172024
0.000154467
0.000159354
0.000169266
0.000175903
0.0220244
0.000158118
0.0160191
0.000225928
0.0314813
0.000150929
0.000147433
0.000160272
0.000160038
0.000145849
0.00014747
0.000174779
0.000149583
0.000148407
0.000148185
0.000144704
0.000149397
0.00014698
0.0306268
0.000147941
0.000260312
0.000148385
0.000171234
0.000148777
0.0001779
0.00017071
0.000148613
0.000290913
0.000153281
0.000149448
0.000159172
0.000146107
0.00015815
0.000146715
0.0133589
0.000151872
0.000161045
0.000170351
0.000141945
0.000155987
0.000189557
0.00020145
0.000166717
0.000147133
0.000149064
0.000173111
0.000169563
0.0296015
0.000145859
0.0438057
0.000148242
0.000169019
0.0138734
0.000159681
0.000217795
0.000153055
0.000156535
0.000152993
0.00703154
0.000156837
0.000148843
0.000166153
0.000181941
0.000150374
0.000148312
0.000148848
0.0573465
0.000149644
0.000155422
0.0236248
0.000154327
0.000147979
0.000168271
0.000152588
0.000187883
0.000145311
0.000148381
0.000146748
0.000155497
0.00014803
0.000147249
0.000167031
0.028399
0.000147757
0.000148789
0.000219251
0.000146959
0.0219955
0.000149251
0.0250006
0.000146509
0.000152607
0.000146377
0.0170613
0.0169954
0.000157578
0.000168086
0.000156238
0.000147443
0.000148841
0.0119104
0.000148805
0.000170995
0.000146153
0.000159469
0.000149194
0.00011034
0.000146544
0.000160563
0.000146677
0.000197066
0.000211966
0.000146008
0.000164362
0.00416261
0.000168222
0.000201575
0.000214421
0.000188839
0.000152407
0.000157542
0.000175868
0.000205165
0.000146613
0.000157938
0.000156704
0.000147519
0.015155
0.049626
0.000169119
0.000182768
0.000196021
0.00015863
0.0197604
0.0001458
0.00014599
0.000176935
0.00162952
0.000188494
0.000184435
0.000199949
0.000146348
0.0124474
0.0200101
0.00611146
0.000149287
0.0378152
0.0598422
0.000213183
0.000347495
0.0273968
0.000171746
0.000156131
0.000185526
0.000155019
0.000147723
0.000213289
0.000174178
0.000145058
0.0246328
0.000149172
0.000156895
0.000160287
0.000155599
0.000206003
0.000160175
0.015483
0.000160271
0.000155636
0.000214393
0.0389921
0.000181185
0.000150442
0.000155076
0.000171513
0.000167022
0.000146521
0.00016403
0.000166673
0.000182757
0.000147818
0.000186962
0.000152332
0.000166113
2.73521e-05
0.000190145
0.000151978
0.000178134
0.0446937
0.000149111
0.000150008
0.0210926
0.000195385
0.000151548
0.000151404
0.000148459
0.000171057
0.000151367
0.0194769
0.000176989
0.00015025
0.000149438
0.000166932
0.000156689
0.000196898
0.0314364
0.00014676
0.000148073
0.000154831
0.00014922
0.000150972
0.000150154
0.000149052
0.000155036
0.000147358
0.000153
0.000149634
0.000161164
0.000205394
0.000149736
0.000120097
0.0233894
0.000145631
0.000178733
0.000179164
0.000173929
0.000150546
0.00017397
0.000153197
0.000168359
0.00015486
0.000150179
0.000149335
0.0303722
0.000152966
0.000221205
0.00015057
0.000148637
0.000147937
0.00017016
0.000147652
0.000163442
0.00016575
0.000232879
0.00014713
0.000195235
0.000236943
0.0313232
0.000146301
0.00018205
0.000208903
0.0002332
0.000209275
0.000150899
0.000148707
0.000182983
0.000199201
0.000216594
0.0001599
0.000190929
0.000149498
0.000146167
0.000162754
0.000149226
0.000149616
0.000184467
0.000149744
0.000169153
0.000146428
0.0327333
0.000448195
0.000221498
6.82853e-05
0.0298565
0.000149363
0.000148871
0.000273406
0.000145927
0.00014607
0.000145538
0.00017721
0.0206638
0.0315775
0.000156247
0.00014664
0.000150218
0.000161495
0.0179696
0.000148063
0.000212933
0.0315404
0.000149181
0.000149177
0.0200487
0.000170188
0.000148903
0.000148269
0.000385231
0.036358
0.00014683
0.000185904
0.000149655
0.0314243
0.000271082
0.000149029
0.0368345
0.0221998
0.000204241
0.000146348
0.000146616
0.000149591
0.000149903
0.0220969
0.000147086
0.000186187
0.000189745
0.0272777
0.000148843
0.000168868
0.0001977
0.000164438
0.000152189
0.0637909
0.000145132
0.00015187
0.00015205
0.000179251
0.0140011
0.000144643
0.0133963
0.000158695
0.000159965
0.000150601
0.000147398
0.00019316
0.000161167
0.024857
0.000149225
0.000167896
0.000148705
0.000178167
0.000150532
0.0290551
0.000205909
0.000188047
0.000173187
0.000147745
0.000151768
0.000173068
0.000178758
0.0224634
0.000946217
0.000148894
0.000204405
0.00016988
0.0454248
0.000152059
0.000162591
0.000160485
0.000147461
9.52713e-05
0.000148315
0.000156458
0.0165733
0.0338325
0.000212373
0.0262562
0.000155859
0.000163024
0.000145631
0.0348023
0.000155049
0.00022778
0.000145536
8.02471e-05
0.00014436
0.000147777
0.000156207
0.000158583
0.000159146
0.000147733
0.0209626
0.000160016
0.000147127
0.000160526
0.0174695
0.000201387
0.000148655
0.0649732
0.000152043
0.000156446
0.000155421
0.000145537
0.000169853
0.000147745
0.000254777
0.000170533
0.000152212
0.000148303
0.000195435
0.00016005
0.000145528
0.000181071
0.000206413
0.000189312
0.00014465
0.00019996
0.000148876
0.000181339
0.000153012
0.000175959
0.000211343
0.0208334
0.000160104
0.0248921
0.000166376
0.000156225
0.000146395
7.18381e-05
0.000174924
0.000177568
0.000165692
0.000149586
0.000139503
0.000174938
0.000196297
0.000188487
0.00591867
0.0207773
0.000245041
0.0418939
0.00015661
0.000158728
0.000148552
0.000147358
0.000144769
0.000183868
0.00015643
0.000159535
0.0619145
0.000147344
0.000146715
0.000159162
0.00018193
0.000153651
0.000146348
0.0475732
0.00015108
0.000161028
0.000148953
0.0323906
0.00015692
0.00107821
0.000165811
0.000157437
0.000167228
0.000148507
0.0135249
0.000196329
0.000171229
0.000148205
0.000147125
0.0133542
0.0595551
0.0204184
0.000146133
0.000171739
0.000198069
0.000147108
0.000147823
0.000147996
0.0237017
0.000170929
0.000159365
0.000152476
0.000151952
0.000127103
0.000174148
0.000189953
0.00015189
0.000156509
0.000144643
0.000177113
0.000167989
0.000148333
0.0105952
0.0642225
0.0369274
0.00601373
0.0550725
0.00643584
0.000149712
0.000152039
0.000145777
0.00011226
0.03678
0.0002266
0.000148371
0.000159741
0.00014893
0.000147703
0.000216619
0.0312489
0.000167645
0.000147823
0.000193091
0.000174875
0.000163738
0.0232547
0.000211238
0.000190869
0.000147166
0.0300747
0.000209535
0.000195042
0.000155464
0.000160855
0.000149705
0.000146797
0.000160117
0.000162834
0.000152126
0.000159017
0.000153568
0.000153253
0.000186472
0.0202421
0.000158625
0.000159628
0.0315072
0.00018513
0.000148824
0.000188953
0.000208175
0.0149577
0.000161286
0.000147591
0.000154908
0.000154084
0.000157695
0.000145518
0.000159604
0.000155242
0.000160983
0.000187655
0.000149491
0.000149907
0.0210682
0.0140389
0.0443679
0.000196947
0.000175797
0.000144284
0.000148818
0.000155633
0.00014561
0.00642299
0.000148657
0.000149801
0.000145667
0.0119078
0.00135279
0.000150052
0.000166774
0.000155268
0.000160595
0.000155597
0.000160411
0.000159469
0.000159885
0.0275626
0.000152355
0.0345845
0.000160896
0.0474482
0.000155437
0.000147317
0.000146366
0.000174774
0.000181841
0.000146475
0.000162084
0.000155481
0.00016872
6.01383e-05
0.0336674
0.000204249
0.000149799
0.000204065
0.000157154
0.000160246
0.000148267
0.000171238
0.000151484
0.0156796
0.000238986
0.000162146
0.000148502
0.0133229
0.000156296
0.0203866
0.0329608
0.000186811
0.000152118
0.000180582
0.000102443
0.000202835
0.0288338
0.00016888
0.000147008
0.000161194
0.000146021
0.00126958
0.000152746
0.000157024
0.000193418
0.0527708
0.000146807
0.000147615
0.0546362
0.000161593
0.0159231
0.00015958
0.000148253
0.000161671
0.000187132
0.000162738
0.000221072
0.000159888
0.000201685
0.000152146
0.000149588
0.000147426
0.000192097
0.000150857
0.000176507
0.000148938
0.000147479
0.00019042
0.000152008
0.00014753
0.000148051
0.000159276
0.000200518
0.000159796
0.000160119
0.000155256
0.000168867
0.000148333
0.000181384
0.00015584
0.000161198
0.000167171
0.000152846
0.000171567
0.00016322
0.000145936
0.000168316
0.0569688
0.0179892
0.000147273
0.000236922
0.0198011
0.000147729
0.000150999
0.000204229
0.0256536
0.00015684
0.0193707
0.000196462
0.000146489
0.000171883
0.000144769
0.000152379
0.000168716
0.000256804
0.000191697
0.000187755
0.000196458
0.00679165
0.0332372
0.000149061
0.0261048
0.000148509
0.00021067
0.0342415
0.000148556
0.00014841
0.0178295
0.000149425
0.000148539
0.000193351
0.0126642
0.000188361
0.000151967
0.0315839
0.000148567
0.0102884
0.0225827
0.000149192
0.000194578
0.000241819
0.0416343
0.0195501
0.0227464
0.0175463
0.000146831
0.000151989
0.000168539
0.000167914
0.000148532
0.000185137
0.00014836
0.0228482
0.000191791
0.00016423
0.000189265
0.0228771
0.000191201
0.000186985
0.00016602
0.0272211
0.000199498
0.000151342
0.00014507
0.000214916
0.000160222
0.00014592
0.0187605
0.000147852
0.000218803
0.000149549
0.0288372
0.000151348
0.000147839
0.000328756
0.000156453
0.000160417
0.0162592
0.000130308
0.000246463
0.000152936
0.000160326
0.000151601
0.000158603
0.000179577
0.000159019
0.000149384
0.000236945
0.000167832
0.000158617
0.0172952
0.000160194
0.000161306
0.00018534
0.000171676
0.000160404
0.000147795
0.00018695
0.000146354
0.000179173
0.000191391
0.0295604
0.000146808
0.000160414
0.0336862
0.000149273
0.000170194
0.000154901
0.000161352
8.0441e-05
0.000167384
0.000152348
0.00073819
0.000146894
0.0126195
0.000148703
0.000149187
0.000178676
0.0198123
0.000158107
0.000185676
0.000197751
0.000155163
0.000147762
0.000175156
0.000162772
0.0603606
0.000155799
0.000228856
0.000181437
0.00015502
0.000155139
0.00017389
0.000160023
0.00016763
0.000167162
0.000161705
0.000151413
0.000146648
0.000226731
0.000148295
0.000154993
0.000144955
0.000175994
0.000155089
0.000166712
0.0263406
0.000151917
0.000188839
0.000144328
0.000149488
0.000149175
0.000149354
0.000152018
0.000147321
0.00017206
0.0211173
0.000166229
0.000161713
0.000151012
0.000147597
0.000189751
0.000148258
0.000214725
0.000230629
0.0383767
0.000180217
0.000159207
0.000152627
0.000149098
0.000157663
0.000170054
0.00016265
0.0383624
0.000165773
0.0647216
0.000180284
0.000149339
0.000146596
0.0179011
0.00014754
0.000154819
0.000166781
0.000196074
0.000149162
0.0283773
0.000149147
0.000153285
0.000148971
0.000150394
0.00017531
0.000175316
0.000148245
0.000155627
0.000160307
0.000161673
0.000164983
0.000195003
0.000188555
0.000191183
0.000178712
0.000151574
0.000149776
0.000164597
0.0188441
5.97984e-05
0.0159067
0.000155556
0.000218882
0.000174867
0.000148827
0.000147728
0.000165905
0.00014885
0.000155477
0.0304548
0.000147658
0.000146028
0.000200859
0.000219259
0.000161153
0.000213139
0.000149343
0.015307
0.000162222
0.0448557
0.000157688
0.000148216
0.0110912
0.000165354
0.000148577
0.000169735
0.000149651
0.000180738
0.000155306
0.000164752
0.0100342
0.000159683
0.000151416
0.000147255
0.0634084
0.000149228
0.000152977
0.000149135
0.000163846
0.000148851
0.000165517
0.0147063
0.000223401
0.00016399
0.000157952
0.00016812
0.000146861
0.000147289
0.000148993
0.000197456
0.000151485
0.0290177
0.0216106
0.000180127
0.000149374
0.00018179
0.000186912
0.000182413
0.000151416
0.0321026
0.000147851
0.000144345
0.000147667
0.000222586
0.000147431
0.000148361
0.0148558
0.000147755
0.000184591
0.000170706
0.000145573
0.0237872
0.000153054
0.0308802
0.000146941
0.000199778
0.000149622
0.000167463
0.0365602
0.000168643
0.000147434
0.000152563
0.000198207
0.000155388
0.000182335
0.000155819
0.000153626
0.000179163
0.000156529
0.000146961
0.00939628
0.000155576
0.000153163
0.000179872
0.000147802
0.00014663
0.000149186
0.000154689
0.000149158
0.000154113
0.000116773
0.0168036
0.000170765
0.0122547
0.000165628
0.00015632
0.051373
0.0642252
0.000150277
0.0239092
0.00024619
0.0199136
0.000213339
0.000156441
0.000196209
0.0161334
0.0210223
0.000213153
0.000290647
0.000162652
0.000169037
0.00015735
0.000151705
0.000148748
0.00022757
0.00014989
0.0237656
0.000172876
0.000187305
0.000144873
0.000170004
0.000163411
0.000152786
0.000149953
0.00014867
0.000172584
0.000149555
0.000147382
0.000158873
0.061652
0.000150733
0.000182081
0.0001465
0.000172849
0.000168788
0.000149271