/*--------------------------------*- C++ -*----------------------------------*\
| =========                 |                                                 |
| \\      /  F ield         | OpenFOAM: The Open Source CFD Toolbox           |
|  \\    /   O peration     | Version:  v2012                                 |
|   \\  /    A nd           | Website:  www.openfoam.com                      |
|    \\/     M anipulation  |                                                 |
\*---------------------------------------------------------------------------*/
FoamFile
{
    version     2.0;
    format      ascii;
    class       pointVectorField;
    location    "450";
    object      pointDisplacement;
}
// * * * * * * * * * * * * * * * * * * * * * * * * * * * * * * * * * * * * * //

dimensions      [0 1 0 0 0 0 0];


internalField   nonuniform List<vector> 
14246
(
(0 0 0)
(-0.0195093 0.194148 0)
(0 0 0)
(-0.0195093 0.194148 0)
(0 0 0)
(0 0 0)
(0 0 0)
(0 0 0)
(0 0 0)
(0 0 0)
(0 0 0)
(0 0 0)
(0 0 0)
(0 0 0)
(0 0 0)
(0 0 0)
(0 0 0)
(0 0 0)
(0 0 0)
(0 0 0)
(0 0 0)
(0 0 0)
(0 0 0)
(0 0 0)
(0 0 0)
(0 0 0)
(0 0 0)
(0 0 0)
(0 0 0)
(0 0 0)
(0 0 0)
(0 0 0)
(0 0 0)
(0 0 0)
(0 0 0)
(0 0 0)
(0 0 0)
(0 0 0)
(0 0 0)
(0 0 0)
(0 0 0)
(0 0 0)
(0 0 0)
(0 0 0)
(0 0 0)
(0 0 0)
(0 0 0)
(0 0 0)
(0 0 0)
(0 0 0)
(0 0 0)
(0 0 0)
(0 0 0)
(0 0 0)
(0 0 0)
(0 0 0)
(0 0 0)
(0 0 0)
(0 0 0)
(0 0 0)
(0 0 0)
(0 0 0)
(0 0 0)
(0 0 0)
(0 0 0)
(0 0 0)
(0 0 0)
(0 0 0)
(0 0 0)
(0 0 0)
(0 0 0)
(0 0 0)
(0 0 0)
(0 0 0)
(0 0 0)
(-0.0195678 0.191729 0)
(-0.0196264 0.189309 0)
(-0.019685 0.18689 0)
(-0.0197436 0.18447 0)
(-0.0198021 0.182051 0)
(-0.0198607 0.179631 0)
(-0.0199193 0.177212 0)
(-0.0199779 0.174792 0)
(-0.0200364 0.172372 0)
(-0.020095 0.169953 0)
(-0.0201536 0.167533 0)
(-0.0202122 0.165114 0)
(-0.0202707 0.162694 0)
(-0.0203293 0.160275 0)
(-0.0203879 0.157855 0)
(-0.0204465 0.155436 0)
(-0.020505 0.153016 0)
(-0.0205636 0.150597 0)
(-0.0206222 0.148177 0)
(-0.0206808 0.145758 0)
(-0.0207394 0.143338 0)
(-0.0207979 0.140919 0)
(-0.0208565 0.138499 0)
(-0.0209151 0.13608 0)
(-0.0209737 0.13366 0)
(-0.0210322 0.13124 0)
(-0.0210908 0.128821 0)
(-0.0211494 0.126401 0)
(-0.021208 0.123982 0)
(-0.0212665 0.121562 0)
(-0.0213251 0.119143 0)
(-0.0213837 0.116723 0)
(-0.0214423 0.114304 0)
(-0.0215008 0.111884 0)
(-0.0215594 0.109465 0)
(-0.021618 0.107045 0)
(-0.0216766 0.104626 0)
(-0.0217351 0.102206 0)
(-0.0217937 0.0997865 0)
(-0.0218523 0.097367 0)
(-0.0219109 0.0949475 0)
(-0.0219694 0.092528 0)
(-0.022028 0.0901084 0)
(-0.0220866 0.0876889 0)
(-0.0221452 0.0852694 0)
(-0.0222037 0.0828498 0)
(-0.0222623 0.0804303 0)
(-0.0223209 0.0780108 0)
(-0.0223795 0.0755912 0)
(-0.022438 0.0731717 0)
(-0.0224966 0.0707522 0)
(-0.0225552 0.0683326 0)
(-0.0226138 0.0659131 0)
(-0.0226723 0.0634936 0)
(-0.0227309 0.061074 0)
(-0.0227895 0.0586545 0)
(-0.0228481 0.056235 0)
(-0.0229067 0.0538154 0)
(-0.0229652 0.0513959 0)
(-0.0230238 0.0489764 0)
(-0.0230824 0.0465569 0)
(-0.023141 0.0441373 0)
(-0.0231995 0.0417178 0)
(-0.0232581 0.0392983 0)
(-0.0233167 0.0368787 0)
(-0.0233753 0.0344592 0)
(-0.0234338 0.0320397 0)
(-0.0234924 0.0296201 0)
(-0.023551 0.0272006 0)
(-0.0236096 0.0247811 0)
(-0.0236681 0.0223615 0)
(-0.0237267 0.019942 0)
(-0.0237853 0.0175225 0)
(-0.0238439 0.0151029 0)
(-0.0239024 0.0126834 0)
(-0.023961 0.0102639 0)
(-0.0240196 0.00784435 0)
(-0.0240782 0.00542482 0)
(-0.0241367 0.00300529 0)
(-0.0241953 0.000585756 0)
(-0.0242539 -0.00183378 0)
(-0.0243125 -0.00425331 0)
(-0.024371 -0.00667284 0)
(-0.0244296 -0.00909237 0)
(-0.0244882 -0.0115119 0)
(-0.0245468 -0.0139314 0)
(-0.0246053 -0.016351 0)
(-0.0246639 -0.0187705 0)
(-0.0247225 -0.02119 0)
(-0.0247811 -0.0236096 0)
(-0.0248396 -0.0260291 0)
(-0.0248982 -0.0284486 0)
(-0.0249568 -0.0308682 0)
(-0.0250154 -0.0332877 0)
(-0.0250739 -0.0357072 0)
(-0.0251325 -0.0381267 0)
(-0.0251911 -0.0405463 0)
(-0.0252497 -0.0429658 0)
(-0.0253083 -0.0453853 0)
(-0.0253668 -0.0478049 0)
(-0.0254254 -0.0502244 0)
(-0.025484 -0.0526439 0)
(-0.0255426 -0.0550635 0)
(-0.0256011 -0.057483 0)
(-0.0256597 -0.0599025 0)
(-0.0257183 -0.0623221 0)
(-0.0257769 -0.0647416 0)
(-0.0258354 -0.0671611 0)
(-0.025894 -0.0695807 0)
(-0.0259526 -0.0720002 0)
(-0.0260112 -0.0744197 0)
(-0.0260697 -0.0768393 0)
(-0.0261283 -0.0792588 0)
(-0.0261869 -0.0816783 0)
(-0.0262455 -0.0840978 0)
(-0.026304 -0.0865174 0)
(-0.0263626 -0.0889369 0)
(-0.0264212 -0.0913564 0)
(-0.0264798 -0.093776 0)
(-0.0265383 -0.0961955 0)
(-0.0265969 -0.098615 0)
(-0.0266555 -0.101035 0)
(-0.0267141 -0.103454 0)
(-0.0267726 -0.105874 0)
(-0.0268312 -0.108293 0)
(-0.0268898 -0.110713 0)
(-0.0269484 -0.113132 0)
(-0.0270069 -0.115552 0)
(-0.0270655 -0.117971 0)
(-0.0271241 -0.120391 0)
(-0.0271827 -0.12281 0)
(-0.0272412 -0.12523 0)
(-0.0272998 -0.127649 0)
(-0.0146702 0.194031 0)
(-0.0170897 0.19409 0)
(0 0 0)
(0 0 0)
(0 0 0)
(0 0 0)
(0 0 0)
(0 0 0)
(0 0 0)
(0 0 0)
(0 0 0)
(0 0 0)
(0 0 0)
(0 0 0)
(0 0 0)
(0 0 0)
(0 0 0)
(0 0 0)
(0 0 0)
(0 0 0)
(0 0 0)
(0 0 0)
(0 0 0)
(0 0 0)
(0 0 0)
(0 0 0)
(0 0 0)
(0 0 0)
(0 0 0)
(0 0 0)
(0 0 0)
(0 0 0)
(0 0 0)
(0 0 0)
(0 0 0)
(0 0 0)
(0 0 0)
(0 0 0)
(0 0 0)
(0 0 0)
(0 0 0)
(0 0 0)
(0 0 0)
(0 0 0)
(0 0 0)
(0 0 0)
(0 0 0)
(0 0 0)
(0 0 0)
(0 0 0)
(0 0 0)
(0 0 0)
(0 0 0)
(0 0 0)
(0 0 0)
(0 0 0)
(0 0 0)
(0 0 0)
(0 0 0)
(0 0 0)
(0 0 0)
(0 0 0)
(0 0 0)
(0 0 0)
(0 0 0)
(0 0 0)
(0 0 0)
(0 0 0)
(0 0 0)
(0 0 0)
(0 0 0)
(0 0 0)
(0 0 0)
(-0.0195678 0.191729 0)
(-0.0196264 0.189309 0)
(-0.019685 0.18689 0)
(-0.0197436 0.18447 0)
(-0.0198021 0.182051 0)
(-0.0198607 0.179631 0)
(-0.0199193 0.177212 0)
(-0.0199779 0.174792 0)
(-0.0200364 0.172372 0)
(-0.020095 0.169953 0)
(-0.0201536 0.167533 0)
(-0.0202122 0.165114 0)
(-0.0202707 0.162694 0)
(-0.0203293 0.160275 0)
(-0.0203879 0.157855 0)
(-0.0204465 0.155436 0)
(-0.020505 0.153016 0)
(-0.0205636 0.150597 0)
(-0.0206222 0.148177 0)
(-0.0206808 0.145758 0)
(-0.0207394 0.143338 0)
(-0.0207979 0.140919 0)
(-0.0208565 0.138499 0)
(-0.0209151 0.13608 0)
(-0.0209737 0.13366 0)
(-0.0210322 0.13124 0)
(-0.0210908 0.128821 0)
(-0.0211494 0.126401 0)
(-0.021208 0.123982 0)
(-0.0212665 0.121562 0)
(-0.0213251 0.119143 0)
(-0.0213837 0.116723 0)
(-0.0214423 0.114304 0)
(-0.0215008 0.111884 0)
(-0.0215594 0.109465 0)
(-0.021618 0.107045 0)
(-0.0216766 0.104626 0)
(-0.0217351 0.102206 0)
(-0.0217937 0.0997865 0)
(-0.0218523 0.097367 0)
(-0.0219109 0.0949475 0)
(-0.0219694 0.092528 0)
(-0.022028 0.0901084 0)
(-0.0220866 0.0876889 0)
(-0.0221452 0.0852694 0)
(-0.0222037 0.0828498 0)
(-0.0222623 0.0804303 0)
(-0.0223209 0.0780108 0)
(-0.0223795 0.0755912 0)
(-0.022438 0.0731717 0)
(-0.0224966 0.0707522 0)
(-0.0225552 0.0683326 0)
(-0.0226138 0.0659131 0)
(-0.0226723 0.0634936 0)
(-0.0227309 0.061074 0)
(-0.0227895 0.0586545 0)
(-0.0228481 0.056235 0)
(-0.0229067 0.0538154 0)
(-0.0229652 0.0513959 0)
(-0.0230238 0.0489764 0)
(-0.0230824 0.0465569 0)
(-0.023141 0.0441373 0)
(-0.0231995 0.0417178 0)
(-0.0232581 0.0392983 0)
(-0.0233167 0.0368787 0)
(-0.0233753 0.0344592 0)
(-0.0234338 0.0320397 0)
(-0.0234924 0.0296201 0)
(-0.023551 0.0272006 0)
(-0.0236096 0.0247811 0)
(-0.0236681 0.0223615 0)
(-0.0237267 0.019942 0)
(-0.0237853 0.0175225 0)
(-0.0238439 0.0151029 0)
(-0.0239024 0.0126834 0)
(-0.023961 0.0102639 0)
(-0.0240196 0.00784435 0)
(-0.0240782 0.00542482 0)
(-0.0241367 0.00300529 0)
(-0.0241953 0.000585756 0)
(-0.0242539 -0.00183378 0)
(-0.0243125 -0.00425331 0)
(-0.024371 -0.00667284 0)
(-0.0244296 -0.00909237 0)
(-0.0244882 -0.0115119 0)
(-0.0245468 -0.0139314 0)
(-0.0246053 -0.016351 0)
(-0.0246639 -0.0187705 0)
(-0.0247225 -0.02119 0)
(-0.0247811 -0.0236096 0)
(-0.0248396 -0.0260291 0)
(-0.0248982 -0.0284486 0)
(-0.0249568 -0.0308682 0)
(-0.0250154 -0.0332877 0)
(-0.0250739 -0.0357072 0)
(-0.0251325 -0.0381267 0)
(-0.0251911 -0.0405463 0)
(-0.0252497 -0.0429658 0)
(-0.0253083 -0.0453853 0)
(-0.0253668 -0.0478049 0)
(-0.0254254 -0.0502244 0)
(-0.025484 -0.0526439 0)
(-0.0255426 -0.0550635 0)
(-0.0256011 -0.057483 0)
(-0.0256597 -0.0599025 0)
(-0.0257183 -0.0623221 0)
(-0.0257769 -0.0647416 0)
(-0.0258354 -0.0671611 0)
(-0.025894 -0.0695807 0)
(-0.0259526 -0.0720002 0)
(-0.0260112 -0.0744197 0)
(-0.0260697 -0.0768393 0)
(-0.0261283 -0.0792588 0)
(-0.0261869 -0.0816783 0)
(-0.0262455 -0.0840978 0)
(-0.026304 -0.0865174 0)
(-0.0263626 -0.0889369 0)
(-0.0264212 -0.0913564 0)
(-0.0264798 -0.093776 0)
(-0.0265383 -0.0961955 0)
(-0.0265969 -0.098615 0)
(-0.0266555 -0.101035 0)
(-0.0267141 -0.103454 0)
(-0.0267726 -0.105874 0)
(-0.0268312 -0.108293 0)
(-0.0268898 -0.110713 0)
(-0.0269484 -0.113132 0)
(-0.0270069 -0.115552 0)
(-0.0270655 -0.117971 0)
(-0.0271241 -0.120391 0)
(-0.0271827 -0.12281 0)
(-0.0272412 -0.12523 0)
(-0.0272998 -0.127649 0)
(-0.0146702 0.194031 0)
(-0.0170897 0.19409 0)
(-0.0273318 -0.128979 0)
(-0.0262674 -0.0850211 0)
(-0.0252242 -0.0419047 0)
(-0.0241695 0.00165154 0)
(-0.0231128 0.0452929 0)
(-0.0220594 0.0888085 0)
(-0.0210018 0.132498 0)
(-0.0199495 0.175921 0)
(-0.0225847 0.0671157 0)
(-0.0236413 0.0234701 0)
(-0.0268032 -0.107145 0)
(-0.0204785 0.154105 0)
(-0.0257513 -0.0636854 0)
(-0.024697 -0.0201472 0)
(-0.0215354 0.110458 0)
(-0.0138099 0.193998 0)
(-0.000754731 0.00458222 0)
(-0.000406945 0.00843123 0)
(-0.00103719 0.00356103 0)
(-0.00143076 0.000384055 0)
(-0.000255568 0.0109836 0)
(3.34539e-06 0.013651 0)
(-0.00126117 -0.00246258 0)
(-0.0196482 0.187969 0)
(-0.000595203 0.00479345 0)
(-0.000414069 0.00623862 0)
(-0.00034215 0.00437985 0)
(-0.0207105 0.144527 0)
(-0.0249316 -0.0298325 0)
(-0.0212978 0.120279 0)
(-0.0259832 -0.0732713 0)
(-0.0228779 0.0550019 0)
(-0.0222893 0.0793091 0)
(-0.0234046 0.0332469 0)
(-0.0239347 0.0113495 0)
(-0.0265097 -0.0950017 0)
(-0.0201818 0.166337 0)
(-0.0254566 -0.0515191 0)
(-0.024402 -0.00795991 0)
(-0.0270417 -0.117007 0)
(-0.021824 0.0985319 0)
(-0.000419624 0.00395955 0)
(-0.000360013 0.00991937 0)
(-0.000985287 0.00470355 0)
(-0.00105978 0.00168323 0)
(-0.000223967 0.00258612 0)
(-0.000278803 0.00284954 0)
(-0.000150384 0.00161597 0)
(-0.000176527 0.0120577 0)
(0.00011487 0.0125083 0)
(-0.000421245 0.00752253 0)
(-0.00107 0.00274323 0)
(-0.00122132 -0.0013232 0)
(-0.000709808 0.00488688 0)
(-0.000382797 0.00527637 0)
(-0.000551143 0.00484142 0)
(-0.000288915 0.00348587 0)
(-0.000154222 0.00172799 0)
(-7.14206e-05 0.000785447 0)
(-0.000216735 0.0114434 0)
(-0.000458079 0.0216084 0)
(-0.000531699 0.0208905 0)
(-0.000721141 0.0306893 0)
(-0.000823859 0.0297454 0)
(-0.00100297 0.03878 0)
(-0.00112659 0.0376378 0)
(-0.00130456 0.0461578 0)
(-0.00143887 0.0447804 0)
(-0.00162237 0.0526896 0)
(-0.00176123 0.0510609 0)
(-0.00194857 0.0582893 0)
(-0.00209216 0.0564427 0)
(-0.00228032 0.0632376 0)
(-0.00242938 0.0611741 0)
(-0.00261968 0.0676068 0)
(-0.00245342 0.069801 0)
(-0.00279437 0.0737852 0)
(-0.00260839 0.0760179 0)
(-0.00295326 0.0796619 0)
(-0.00274638 0.0818839 0)
(-0.00309805 0.0852409 0)
(-0.00287074 0.0874602 0)
(-0.00322794 0.0905364 0)
(-0.00298459 0.0928384 0)
(-0.0033483 0.0955522 0)
(-0.0031077 0.0979006 0)
(-0.00346362 0.100307 0)
(-0.00320826 0.102562 0)
(-0.00356562 0.104784 0)
(-0.00328944 0.107003 0)
(-0.0036596 0.109037 0)
(-0.00336845 0.11117 0)
(-0.00374225 0.113134 0)
(-0.00342957 0.115147 0)
(-0.00381367 0.116987 0)
(-0.00348739 0.118993 0)
(-0.00388518 0.120623 0)
(-0.00354399 0.12262 0)
(-0.00395607 0.124071 0)
(-0.00360347 0.126063 0)
(-0.00403143 0.127371 0)
(-0.00366555 0.129377 0)
(-0.00437272 0.125287 0)
(-0.00446746 0.128434 0)
(-0.00479804 0.126261 0)
(-0.00490915 0.129275 0)
(-0.00523098 0.127009 0)
(-0.00535883 0.129909 0)
(-0.00567404 0.127536 0)
(-0.00582656 0.130333 0)
(-0.00612239 0.127833 0)
(-0.00629759 0.130388 0)
(-0.00656907 0.127964 0)
(-0.00675443 0.130289 0)
(-0.00701951 0.127841 0)
(-0.00722336 0.130224 0)
(-0.00747418 0.127463 0)
(-0.00770686 0.129842 0)
(-0.00793452 0.126912 0)
(-0.00818677 0.12912 0)
(-0.0060517 0.133192 0)
(-0.00839504 0.126107 0)
(-0.0086611 0.128184 0)
(-0.00885086 0.125048 0)
(-0.00913142 0.127004 0)
(-0.00930483 0.123754 0)
(-0.00960203 0.125586 0)
(-0.00975412 0.122222 0)
(-0.0100663 0.123872 0)
(-0.00946934 0.120397 0)
(-0.0101895 0.120501 0)
(-0.0105122 0.121874 0)
(-0.0106071 0.118484 0)
(-0.0109501 0.119629 0)
(-0.0110157 0.116124 0)
(-0.0113732 0.117002 0)
(-0.0114195 0.113519 0)
(-0.011776 0.114272 0)
(-0.0118148 0.110647 0)
(-0.0121824 0.111271 0)
(-0.0121946 0.107482 0)
(-0.0125799 0.107838 0)
(-0.0118163 0.107132 0)
(-0.00844731 0.131193 0)
(-0.0125582 0.104036 0)
(-0.0129535 0.104118 0)
(-0.0129081 0.100334 0)
(-0.0133042 0.100142 0)
(-0.0133625 0.103761 0)
(-0.0137045 0.0997327 0)
(-0.0136445 0.0959747 0)
(-0.0140403 0.095409 0)
(-0.0141102 0.0991283 0)
(-0.0144421 0.0945593 0)
(-0.0143595 0.090829 0)
(-0.0147583 0.0897421 0)
(-0.0148486 0.0934487 0)
(-0.0151624 0.0883832 0)
(-0.0150584 0.0847003 0)
(-0.0154636 0.0830504 0)
(-0.0153466 0.0794085 0)
(-0.0157542 0.0774476 0)
(-0.0158657 0.0811573 0)
(-0.0161595 0.0753371 0)
(-0.0160389 0.0715313 0)
(-0.0164418 0.069176 0)
(-0.0166065 0.0732671 0)
(-0.0168453 0.0664362 0)
(-0.0167079 0.0627811 0)
(-0.0170837 0.0600127 0)
(-0.0172645 0.0631457 0)
(-0.0174729 0.0564324 0)
(-0.0172749 0.0531826 0)
(-0.017681 0.0500104 0)
(-0.0178632 0.0527039 0)
(-0.018063 0.0462927 0)
(-0.0178751 0.0435351 0)
(-0.0182432 0.0396552 0)
(-0.0180376 0.0371388 0)
(-0.0184003 0.0330407 0)
(-0.018611 0.0353948 0)
(-0.0187581 0.0286502 0)
(-0.0185372 0.0264423 0)
(-0.0188868 0.0218818 0)
(-0.0186547 0.0198679 0)
(-0.0189947 0.0151858 0)
(-0.0192282 0.0170977 0)
(-0.0193252 0.0102673 0)
(-0.0190799 0.00865523 0)
(-0.0193984 0.00367574 0)
(-0.0196461 0.0051171 0)
(-0.0197067 -0.00152623 0)
(-0.0194504 -0.00274203 0)
(-0.019747 -0.00800228 0)
(-0.0194831 -0.00902816 0)
(-0.0197689 -0.0142817 0)
(-0.0200326 -0.0134866 0)
(-0.020041 -0.019702 0)
(-0.0197718 -0.0203002 0)
(-0.0200298 -0.0257252 0)
(-0.0203003 -0.0252562 0)
(-0.0202777 -0.0313711 0)
(-0.0199974 -0.0315776 0)
(-0.0202327 -0.0372718 0)
(-0.0199424 -0.0371721 0)
(-0.0201626 -0.0427439 0)
(-0.019867 -0.0424661 0)
(-0.020072 -0.0478851 0)
(-0.0203668 -0.0483507 0)
(-0.0202612 -0.0533403 0)
(-0.019965 -0.052808 0)
(-0.0201411 -0.0581323 0)
(-0.0204349 -0.0587679 0)
(-0.0203013 -0.0634596 0)
(-0.0200044 -0.0627197 0)
(-0.0201491 -0.0679497 0)
(-0.0198509 -0.0670475 0)
(-0.0199807 -0.0721842 0)
(-0.00314386 0.0773294 0)
(-0.0108368 0.123169 0)
(-0.00322636 0.127945 0)
(-0.00326361 0.131248 0)
(-0.00282361 0.129715 0)
(-0.00284244 0.133054 0)
(-0.00240362 0.131388 0)
(-0.00720491 0.125085 0)
(0.00165928 0.175333 0)
(0.00131808 0.176589 0)
(0.000608944 0.175486 0)
(0.00016827 0.176678 0)
(-0.000465352 0.175451 0)
(-0.000971911 0.176613 0)
(-0.00154338 0.175263 0)
(-0.00210064 0.1764 0)
(-0.00290896 0.104779 0)
(-0.00258048 0.174948 0)
(-0.00319271 0.175992 0)
(0.00180276 0.174108 0)
(-0.00357274 0.174472 0)
(-0.00421645 0.175395 0)
(-0.00150726 0.177768 0)
(-0.00451656 0.173827 0)
(-0.00517538 0.174662 0)
(-0.00300536 0.173464 0)
(-0.00540393 0.173028 0)
(-0.00606577 0.173776 0)
(-0.00588043 0.175409 0)
(-0.00676787 0.174426 0)
(-0.00689181 0.172729 0)
(-0.00759162 0.173266 0)
(-0.00765601 0.171507 0)
(-0.00834449 0.171926 0)
(-0.00831801 0.173699 0)
(-0.00904814 0.172244 0)
(-0.00371317 0.0979734 0)
(-0.00905847 0.174031 0)
(-0.0097623 0.172449 0)
(-0.00970823 0.17062 0)
(-0.0104001 0.170665 0)
(-0.0104926 0.172491 0)
(-0.0111032 0.17054 0)
(-0.0109704 0.168703 0)
(-0.0116378 0.168432 0)
(-0.0118096 0.170239 0)
(-0.0122978 0.167983 0)
(-0.0125023 0.169751 0)
(-0.0129467 0.167321 0)
(-0.0127375 0.16556 0)
(-0.0133517 0.164721 0)
(-0.0135757 0.166417 0)
(-0.0139424 0.163663 0)
(-0.0141824 0.16528 0)
(-0.0144959 0.162452 0)
(-0.0147641 0.163861 0)
(-0.0150188 0.160939 0)
(-0.0153093 0.162163 0)
(-0.0155286 0.159006 0)
(-0.015826 0.160147 0)
(-0.0160251 0.156711 0)
(-0.0163161 0.157755 0)
(-0.0164896 0.154151 0)
(-0.0167729 0.155065 0)
(-0.016917 0.151398 0)
(-0.0172008 0.152053 0)
(-0.017325 0.148301 0)
(-0.0176104 0.148616 0)
(-0.0177181 0.144826 0)
(-0.0180002 0.144891 0)
(-0.0180943 0.141055 0)
(-0.0183721 0.140857 0)
(-0.0184475 0.137104 0)
(-0.0187166 0.136557 0)
(-0.0187725 0.132849 0)
(-0.0190324 0.132094 0)
(-0.0190834 0.128293 0)
(-0.0193302 0.127356 0)
(-0.0193753 0.123544 0)
(-0.019613 0.122377 0)
(-0.0196504 0.118545 0)
(-0.0198793 0.117264 0)
(-0.0199157 0.11341 0)
(-0.0201318 0.112033 0)
(-0.0201656 0.108168 0)
(-0.0203743 0.106635 0)
(-0.0204056 0.102747 0)
(-0.0206051 0.101146 0)
(-0.0206328 0.0972793 0)
(-0.0208236 0.0955905 0)
(-0.0208498 0.09183 0)
(-0.0210325 0.0899334 0)
(-0.0210554 0.0863167 0)
(-0.0212356 0.0841627 0)
(-0.0212528 0.0806548 0)
(-0.0214334 0.0782989 0)
(-0.0214487 0.0748417 0)
(-0.0216239 0.0724367 0)
(-0.0216385 0.0690062 0)
(-0.0218086 0.0665402 0)
(-0.0218217 0.0631899 0)
(-0.0219878 0.0605937 0)
(-0.0220005 0.057265 0)
(-0.0221606 0.0546706 0)
(-0.0221726 0.0513645 0)
(-0.0223284 0.0487568 0)
(-0.0223381 0.0455114 0)
(-0.0224929 0.042804 0)
(-0.022498 0.0396853 0)
(-0.0226547 0.0368327 0)
(-0.0226555 0.0338256 0)
(-0.0228124 0.0309169 0)
(-0.0228093 0.0279502 0)
(-0.0229626 0.0250374 0)
(-0.0229589 0.0220944 0)
(-0.0231108 0.019018 0)
(-0.0231043 0.0161658 0)
(-0.0232545 0.0130044 0)
(-0.0232444 0.0102497 0)
(-0.0233924 0.00706122 0)
(-0.02338 0.00436727 0)
(-0.023529 0.00108823 0)
(-0.0235087 -0.00158449 0)
(-0.023663 -0.00494943 0)
(-0.0236404 -0.00765482 0)
(-0.0237946 -0.0109844 0)
(-0.0237716 -0.013598 0)
(-0.0239215 -0.0169791 0)
(-0.0238929 -0.0194237 0)
(-0.0240414 -0.0229237 0)
(-0.0240069 -0.0252668 0)
(-0.024156 -0.0288303 0)
(-0.0241153 -0.0310833 0)
(-0.0242647 -0.0346876 0)
(-0.0242194 -0.0369039 0)
(-0.0243693 -0.0405482 0)
(-0.0243191 -0.0426748 0)
(-0.0244653 -0.0463657 0)
(-0.0244056 -0.0483036 0)
(-0.0245503 -0.0520387 0)
(-0.0244857 -0.0539103 0)
(-0.0246287 -0.0576252 0)
(-0.0245579 -0.0593942 0)
(-0.0246989 -0.063171 0)
(-0.0246153 -0.0647941 0)
(-0.0247593 -0.0686805 0)
(-0.0246643 -0.0702309 0)
(-0.0248102 -0.0741504 0)
(-0.0247029 -0.0755765 0)
(-0.0248465 -0.0795082 0)
(-0.0247317 -0.0807942 0)
(-0.0248699 -0.0847133 0)
(-0.0247498 -0.085888 0)
(-0.0248832 -0.0898445 0)
(-0.0247495 -0.0907397 0)
(-0.0248804 -0.0947978 0)
(-0.0247324 -0.095472 0)
(-0.0248612 -0.0995309 0)
(-0.0247024 -0.100134 0)
(-0.0248259 -0.104126 0)
(-0.0249891 -0.103476 0)
(-0.0249475 -0.108017 0)
(-0.0247739 -0.108555 0)
(-0.0248894 -0.112441 0)
(-0.0249684 -0.07855 0)
(-0.0246071 -0.0502795 0)
(-0.0241863 -0.0265239 0)
(-0.023668 -0.00213585 0)
(-0.0231096 0.0221248 0)
(-0.0224785 0.0460111 0)
(-0.0224953 0.0366022 0)
(-0.0216543 0.0654513 0)
(-0.0206852 0.0928295 0)
(-0.0193904 0.119951 0)
(-0.0178296 0.141073 0)
(-0.0217966 0.0697375 0)
(-0.0236223 -0.0108562 0)
(-0.0245173 -0.066231 0)
(-0.0241764 -0.0393768 0)
(-0.015723 0.155677 0)
(-0.0210044 0.09377 0)
(-0.0246039 -0.090995 0)
(-0.0131719 0.162974 0)
(-0.020089 0.115988 0)
(-0.018997 0.13581 0)
(-0.00238606 0.13473 0)
(-0.00197379 0.132909 0)
(-0.0230752 0.0139735 0)
(-0.0174796 0.152457 0)
(-0.0150741 0.165092 0)
(-0.00189232 0.136179 0)
(-0.00145556 0.13389 0)
(-0.00137888 0.137519 0)
(-0.000953194 0.135561 0)
(-0.000866952 0.138821 0)
(-0.000440552 0.136703 0)
(-0.000551871 0.133394 0)
(-5.03635e-05 0.134181 0)
(-0.000201806 0.130799 0)
(0.000310056 0.131529 0)
(0.000109751 0.127747 0)
(0.000655563 0.128612 0)
(0.000182935 0.137677 0)
(-0.00180278 0.139247 0)
(0.000424082 0.124592 0)
(0.00096191 0.125404 0)
(0.000728648 0.121309 0)
(0.00124347 0.121992 0)
(0.00151718 0.12603 0)
(0.00177154 0.122487 0)
(0.00207854 0.126451 0)
(0.00151359 0.11826 0)
(-0.0011425 0.0475078 0)
(-0.00215591 0.18906 0)
(-0.00195241 0.188281 0)
(-0.00373596 0.188446 0)
(-0.00405785 0.189239 0)
(-0.00547235 0.188538 0)
(-0.00594406 0.189343 0)
(-0.00713817 0.18853 0)
(-0.00777744 0.18932 0)
(-0.00870176 0.18844 0)
(-0.00947801 0.189169 0)
(-0.0101513 0.188254 0)
(-0.0109872 0.188884 0)
(-0.0114544 0.187876 0)
(-0.0123002 0.188424 0)
(-0.0125946 0.187313 0)
(-0.0134248 0.187772 0)
(-0.00663434 0.187677 0)
(-0.0135597 0.186543 0)
(-0.0143583 0.186906 0)
(-0.0118375 0.186791 0)
(-0.00553792 0.124656 0)
(-0.0143581 0.185542 0)
(-0.0151121 0.185762 0)
(-0.0120963 0.115814 0)
(-0.00261505 0.0894913 0)
(-0.0150179 0.184307 0)
(-0.015705 0.184345 0)
(-0.00855812 0.189986 0)
(-0.0136277 -0.0399442 0)
(-0.0141896 -0.0413871 0)
(-0.0138691 -0.0365825 0)
(-0.0133017 -0.0353781 0)
(-0.0135373 -0.0319742 0)
(-0.0140951 -0.0329231 0)
(-0.0137525 -0.0283041 0)
(-0.0142965 -0.029038 0)
(-0.0139426 -0.0243538 0)
(-0.0133874 -0.0238271 0)
(-0.0135681 -0.0198332 0)
(-0.0141077 -0.0200786 0)
(-0.0137284 -0.0155577 0)
(-0.0131723 -0.0155506 0)
(-0.013327 -0.0113258 0)
(-0.0138685 -0.0110596 0)
(-0.0134577 -0.00688119 0)
(-0.0139846 -0.0063774 0)
(-0.0135636 -0.00223958 0)
(-0.0130303 -0.00293258 0)
(-0.0131256 0.00166842 0)
(-0.0136496 0.00251845 0)
(-0.013201 0.0064118 0)
(-0.0126714 0.00529438 0)
(-0.0127389 0.0099776 0)
(-0.0132653 0.0112804 0)
(-0.0127898 0.0148232 0)
(-0.0122694 0.0131673 0)
(-0.012308 0.0178623 0)
(-0.012803 0.0199013 0)
(-0.0123209 0.0226813 0)
(-0.0118275 0.0205628 0)
(-0.0118404 0.0251728 0)
(-0.0123076 0.0275322 0)
(-0.0118276 0.0297985 0)
(-0.0122715 0.0323661 0)
(-0.011795 0.0344456 0)
(-0.0113432 0.0317743 0)
(-0.0113134 0.0361953 0)
(-0.011759 0.0392592 0)
(-0.0112659 0.040701 0)
(-0.0108287 0.0376125 0)
(-0.0107705 0.0417333 0)
(-0.0111516 0.0449521 0)
(-0.0106815 0.0457852 0)
(-0.0102851 0.0425648 0)
(-0.0102069 0.0464136 0)
(-0.0105767 0.0497754 0)
(-0.0101074 0.0501626 0)
(-0.0104543 0.0536502 0)
(-0.00998617 0.0538025 0)
(-0.00963459 0.0502491 0)
(-0.00951722 0.0536803 0)
(-0.00984132 0.0573388 0)
(-0.00937747 0.0569824 0)
(-0.00967422 0.060737 0)
(-0.00921741 0.0601283 0)
(-0.00948368 0.063881 0)
(-0.00903172 0.0630279 0)
(-0.00925472 0.0666399 0)
(-0.00881287 0.0656731 0)
(-0.008581 0.0618878 0)
(-0.00837967 0.0643826 0)
(-0.00858598 0.0682348 0)
(-0.00815876 0.0666653 0)
(-0.00834106 0.0705118 0)
(-0.00791998 0.0687189 0)
(-0.00808362 0.0726025 0)
(-0.0076699 0.0705683 0)
(-0.00781383 0.0745544 0)
(-0.00740033 0.0721505 0)
(-0.0072546 0.0682122 0)
(-0.00699037 0.0695151 0)
(-0.00683999 0.0656233 0)
(-0.00657992 0.0666774 0)
(-0.00642421 0.0628127 0)
(-0.00617068 0.0636506 0)
(-0.00600787 0.0597676 0)
(-0.00576349 0.060442 0)
(-0.0091539 0.0500872 0)
(-0.00752195 0.0761418 0)
(-0.00558962 0.0565696 0)
(-0.00535569 0.0570502 0)
(-0.0058278 0.0556287 0)
(-0.00517652 0.0532694 0)
(-0.00495281 0.0535029 0)
(-0.00510776 0.0571959 0)
(-0.00477037 0.049818 0)
(-0.00471356 0.0534036 0)
(-0.00484806 0.0570427 0)
(-0.00992108 0.0644112 0)
(-0.00826114 0.0767516 0)
(-0.00445819 0.0529262 0)
(-0.00456623 0.0564146 0)
(-0.0205937 -0.0641528 0)
(-0.0205477 -0.0309113 0)
(-0.0196477 -0.03706 0)
(-0.0195491 -0.0660708 0)
(-0.0266413 -0.124263 0)
(-0.0267103 -0.123267 0)
(-0.0266118 -0.120465 0)
(-0.0266676 -0.119305 0)
(-0.0265722 -0.116672 0)
(-0.0266177 -0.115354 0)
(-0.0265221 -0.112742 0)
(-0.0265607 -0.111342 0)
(-0.0264659 -0.108688 0)
(-0.0264971 -0.107247 0)
(-0.0264032 -0.104567 0)
(-0.0264274 -0.103076 0)
(-0.0263359 -0.100431 0)
(-0.0263533 -0.0988827 0)
(-0.0262647 -0.0962874 0)
(-0.0262769 -0.094747 0)
(-0.02619 -0.0921624 0)
(-0.0261977 -0.0906052 0)
(-0.0261121 -0.0880334 0)
(-0.0261158 -0.0864457 0)
(-0.0260316 -0.0838936 0)
(-0.0260321 -0.0823062 0)
(-0.0259486 -0.0797461 0)
(-0.0259457 -0.0781702 0)
(-0.0258636 -0.0756127 0)
(-0.0258572 -0.074014 0)
(-0.025776 -0.071435 0)
(-0.0257658 -0.0697583 0)
(-0.0256858 -0.0671966 0)
(-0.0256713 -0.0654393 0)
(-0.0255969 -0.0630556 0)
(-0.0255799 -0.0613127 0)
(-0.0255076 -0.0589939 0)
(-0.0254896 -0.0572717 0)
(-0.0254167 -0.0549042 0)
(-0.0253977 -0.0531953 0)
(-0.0253262 -0.050858 0)
(-0.025304 -0.0490652 0)
(-0.025233 -0.046754 0)
(-0.0252077 -0.0448706 0)
(-0.0251363 -0.0425232 0)
(-0.0251113 -0.0406916 0)
(-0.0250377 -0.0382506 0)
(-0.0250145 -0.0365175 0)
(-0.02494 -0.0339864 0)
(-0.0249168 -0.0323132 0)
(-0.0248468 -0.0298909 0)
(-0.0248196 -0.028135 0)
(-0.0247541 -0.0258891 0)
(-0.0247234 -0.0240308 0)
(-0.0246584 -0.021814 0)
(-0.0246256 -0.0198818 0)
(-0.0245592 -0.0176048 0)
(-0.0245269 -0.0157031 0)
(-0.0244599 -0.0134018 0)
(-0.0244279 -0.0115236 0)
(-0.0243607 -0.00921537 0)
(-0.0243284 -0.00733623 0)
(-0.0242617 -0.00504782 0)
(-0.0242305 -0.00322347 0)
(-0.0241638 -0.000934845 0)
(-0.0241338 0.000822759 0)
(-0.0240669 0.00311938 0)
(-0.0240362 0.00490166 0)
(-0.0239701 0.00717112 0)
(-0.0239363 0.00906193 0)
(-0.0238721 0.0112592 0)
(-0.0238378 0.0131555 0)
(-0.0237752 0.015272 0)
(-0.0237409 0.01718 0)
(-0.0236776 0.019309 0)
(-0.0236429 0.021244 0)
(-0.0235778 0.0234171 0)
(-0.0235453 0.0252795 0)
(-0.0234798 0.0274735 0)
(-0.0234475 0.0293208 0)
(-0.0233832 0.0314917 0)
(-0.023349 0.0333841 0)
(-0.0232865 0.035493 0)
(-0.0232505 0.0374433 0)
(-0.0231877 0.0395657 0)
(-0.0231511 0.0415378 0)
(-0.0230863 0.0437189 0)
(-0.0230507 0.0456594 0)
(-0.0229853 0.0478368 0)
(-0.0229508 0.0497479 0)
(-0.0228849 0.0519296 0)
(-0.0228517 0.0538019 0)
(-0.0227839 0.0560405 0)
(-0.0227513 0.0578916 0)
(-0.0226856 0.0600515 0)
(-0.0226527 0.0619062 0)
(-0.0225905 0.0639091 0)
(-0.0265897 -0.10995 0)
(-0.0225575 0.0657801 0)
(-0.0224935 0.0678058 0)
(-0.0224604 0.0697165 0)
(-0.0223935 0.0718154 0)
(-0.0223606 0.0737511 0)
(-0.0222928 0.0758404 0)
(-0.0261978 -0.0889639 0)
(-0.0222599 0.0778052 0)
(-0.0221906 0.0799177 0)
(-0.0221587 0.0818488 0)
(-0.0220876 0.0840033 0)
(-0.0220568 0.085922 0)
(-0.0219853 0.0880508 0)
(-0.0257497 -0.0678796 0)
(-0.0219541 0.090001 0)
(-0.0218835 0.0920685 0)
(-0.0218497 0.0941222 0)
(-0.0217805 0.0960876 0)
(-0.0217468 0.0981725 0)
(-0.0216783 0.100037 0)
(-0.0253782 -0.0515744 0)
(-0.0216465 0.102111 0)
(-0.0215763 0.103951 0)
(-0.021547 0.106006 0)
(-0.0214733 0.107859 0)
(-0.0249834 -0.0346337 0)
(-0.0214466 0.109883 0)
(-0.0213688 0.111761 0)
(-0.0213453 0.11374 0)
(-0.0212635 0.115664 0)
(-0.0212425 0.117617 0)
(-0.021158 0.119577 0)
(-0.0244958 -0.0139132 0)
(-0.0211354 0.121619 0)
(-0.0210503 0.12349 0)
(-0.0210262 0.125625 0)
(-0.0209414 0.127338 0)
(-0.0209211 0.129416 0)
(-0.0208323 0.131109 0)
(-0.0257825 -0.0730711 0)
(-0.0245942 -0.01967 0)
(-0.0263693 -0.106156 0)
(-0.0227065 0.0586168 0)
(-0.0233203 0.0335837 0)
(-0.0239901 0.00575499 0)
(-0.023999 0.00692547 0)
(-0.0251626 -0.0445681 0)
(-0.0208153 0.133178 0)
(-0.0207204 0.134876 0)
(-0.0220114 0.0861939 0)
(-0.0207036 0.137023 0)
(-0.0206045 0.138637 0)
(-0.0205871 0.140875 0)
(-0.0204827 0.142404 0)
(-0.0213946 0.109562 0)
(-0.0206237 0.136443 0)
(-0.0236086 0.0230772 0)
(-0.0204678 0.144696 0)
(-0.0203544 0.146168 0)
(-0.0260995 -0.0895379 0)
(-0.0265381 -0.12107 0)
(-0.0232135 0.0393488 0)
(-0.0203418 0.14854 0)
(-0.0202174 0.149938 0)
(-0.020205 0.152347 0)
(-0.0200699 0.153706 0)
(-0.0229151 0.0516511 0)
(-0.0200622 0.156055 0)
(-0.0199114 0.157434 0)
(-0.0226205 0.0636921 0)
(-0.0200749 0.151216 0)
(-0.0199117 0.159834 0)
(-0.0197399 0.161074 0)
(-0.0223301 0.0755877 0)
(-0.0197424 0.163602 0)
(-0.0195466 0.164645 0)
(-0.0220224 0.0879545 0)
(-0.0195518 0.167188 0)
(-0.0216141 0.104147 0)
(-0.0213193 0.115675 0)
(-0.00418652 0.0520311 0)
(-0.00407886 0.048774 0)
(-0.0106248 0.115302 0)
(-0.0254298 -0.0566275 0)
(-0.00426239 0.0552134 0)
(-0.00463856 0.0598611 0)
(-0.0248549 -0.0309194 0)
(-0.0210013 0.127694 0)
(-0.0242915 -0.00687941 0)
(-0.0236123 0.0213691 0)
(-0.0230193 0.0459081 0)
(-0.022433 0.0695716 0)
(-0.0210628 0.121612 0)
(-0.0217178 0.097569 0)
(-0.0155716 0.182808 0)
(-0.0149149 0.182827 0)
(-0.0228018 -0.0940831 0)
(-0.0226715 -0.0894328 0)
(-0.0229052 -0.0893347 0)
(-0.0227654 -0.084569 0)
(-0.0229891 -0.0843423 0)
(-0.0228437 -0.0795962 0)
(-0.0230554 -0.0791231 0)
(-0.0228925 -0.0744564 0)
(-0.0230955 -0.0734723 0)
(-0.0229096 -0.0688065 0)
(-0.0231115 -0.0676194 0)
(-0.0229209 -0.0629478 0)
(-0.0231131 -0.0617424 0)
(-0.0229264 -0.0570906 0)
(-0.0230991 -0.0557552 0)
(-0.022916 -0.0512852 0)
(-0.0230667 -0.0496012 0)
(-0.0228753 -0.0452794 0)
(-0.0230156 -0.0432516 0)
(-0.0228086 -0.0389204 0)
(-0.0229406 -0.0367001 0)
(-0.0227349 -0.0325011 0)
(-0.0228526 -0.0300116 0)
(-0.0226484 -0.0260382 0)
(-0.0227619 -0.0233965 0)
(-0.0225487 -0.0195107 0)
(-0.0226584 -0.0168386 0)
(-0.0224351 -0.0128249 0)
(-0.0223246 -0.0156171 0)
(-0.0222061 -0.00890713 0)
(-0.0223074 -0.00596909 0)
(-0.0220779 -0.00210781 0)
(-0.0221669 0.000956434 0)
(-0.0219342 0.00468803 0)
(-0.0220143 0.00784968 0)
(-0.0217697 0.0114785 0)
(-0.0218485 0.0147779 0)
(-0.0215964 0.0183866 0)
(-0.0216696 0.0217647 0)
(-0.0214215 0.0252065 0)
(-0.0214785 0.0287188 0)
(-0.0212247 0.0318954 0)
(-0.0212735 0.0356798 0)
(-0.0210132 0.038731 0)
(-0.0210573 0.0426024 0)
(-0.0208032 0.0455009 0)
(-0.020832 0.0494046 0)
(-0.0205744 0.0519762 0)
(-0.0205938 0.0560973 0)
(-0.0203223 0.0585076 0)
(-0.0203416 0.062707 0)
(-0.0200695 0.0650068 0)
(-0.0200771 0.0692363 0)
(-0.0198044 0.0713139 0)
(-0.0197995 0.0756561 0)
(-0.0195277 0.0775041 0)
(-0.0195083 0.0819208 0)
(-0.0192333 0.0834757 0)
(-0.0192031 0.0879646 0)
(-0.0189161 0.0892308 0)
(-0.0188865 0.0937393 0)
(-0.0185913 0.0948557 0)
(-0.0186174 0.0904939 0)
(-0.0182925 0.0958237 0)
(-0.0182517 0.100309 0)
(-0.0179473 0.101108 0)
(-0.0178907 0.105651 0)
(-0.0175847 0.106163 0)
(-0.0175091 0.110784 0)
(-0.0172071 0.110955 0)
(-0.0171139 0.115584 0)
(-0.0168156 0.11546 0)
(-0.0167078 0.120015 0)
(-0.0164145 0.119617 0)
(-0.0162915 0.124079 0)
(-0.0160009 0.123449 0)
(-0.0202907 0.0538581 0)
(-0.0158582 0.127868 0)
(-0.0155676 0.127051 0)
(-0.0211981 0.0283518 0)
(-0.0169185 0.110903 0)
(-0.0225942 -0.0343598 0)
(-0.0227507 -0.0520207 0)
(-0.0227166 -0.0707399 0)
(-0.0157177 0.122644 0)
(-0.0152905 0.126026 0)
(-0.0151244 0.130329 0)
(-0.0148537 0.129108 0)
(-0.0146733 0.133278 0)
(-0.0144077 0.131855 0)
(-0.0142005 0.135935 0)
(-0.0139483 0.134263 0)
(-0.013714 0.138027 0)
(-0.0134764 0.136363 0)
(-0.0132213 0.139928 0)
(-0.019515 0.073187 0)
(-0.0217108 0.00788481 0)
(-0.0220926 -0.0117988 0)