/*--------------------------------*- C++ -*----------------------------------*\
| =========                 |                                                 |
| \\      /  F ield         | OpenFOAM: The Open Source CFD Toolbox           |
|  \\    /   O peration     | Version:  v2012                                 |
|   \\  /    A nd           | Website:  www.openfoam.com                      |
|    \\/     M anipulation  |                                                 |
\*---------------------------------------------------------------------------*/
FoamFile
{
    version     2.0;
    format      ascii;
    class       volScalarField;
    location    "400";
    object      ddt0(k);
}
// * * * * * * * * * * * * * * * * * * * * * * * * * * * * * * * * * * * * * //

dimensions      [0 2 -3 0 0 0 0];


internalField   nonuniform List<scalar> 
13851
(
1.89516e-06
4.20591e-07
4.13659e-07
-0.000629669
9.00929e-09
4.56269e-07
5.52725e-07
9.55893e-08
0.00519527
3.89012e-08
5.06243e-07
1.90789e-08
6.15131e-08
0.00185703
9.29956e-07
3.16596e-06
-0.000838566
2.16731e-07
0.000428196
1.58037e-06
8.04716e-07
2.84843e-07
-0.000154339
9.63179e-10
0.0058346
1.78853e-06
4.87859e-05
0.016064
-0.000232017
1.2183e-07
-0.00145959
5.52248e-07
3.62059e-06
0.00402799
4.05096e-07
-0.00145875
2.56283e-10
0.00353407
-0.00224353
1.26601e-07
0.00172463
9.33178e-05
-0.000321789
9.25618e-05
0.00317707
1.13793e-07
5.90228e-08
4.51452e-06
2.827e-07
5.71745e-08
-0.00161906
4.9136e-08
3.19925e-06
9.76995e-07
0.00123184
1.22517e-07
3.05647e-06
0.00101253
1.5219e-05
0.000625489
1.80385e-08
4.42137e-05
1.5852e-08
2.88265e-07
-1.54888e-06
-8.23705e-07
0.00042805
1.27654e-06
1.65224e-07
-0.000930462
-0.00142388
7.82896e-07
8.5027e-08
0.000806814
1.03103e-06
2.19325e-07
-0.000970514
9.21166e-08
0.00784512
7.8015e-08
1.71064e-07
9.48012e-05
4.02349e-07
0.0017802
0.000854167
-0.00146658
3.02695e-07
0.00167624
5.37355e-08
-0.00141686
4.45241e-08
5.55111e-07
-0.000695531
-0.00135167
-0.00194718
-7.99288e-07
1.02863e-07
3.26215e-06
-0.00122015
-1.74592e-05
3.2234e-06
-2.41766e-07
6.41871e-08
8.16344e-08
1.29184e-07
6.47446e-07
1.27946e-07
-0.00146884
5.54151e-07
2.10501e-07
2.16822e-07
1.17623e-07
4.43402e-06
5.99377e-07
5.09791e-06
9.28036e-07
6.8867e-08
8.06071e-08
-0.000569338
-0.000990924
9.43166e-07
1.82023e-07
1.52124e-07
0.00146001
6.75589e-05
-3.89586e-07
1.06074e-07
3.34245e-07
0.00153536
9.65812e-07
2.88622e-07
4.39276e-07
0.00733053
0.00369578
5.20029e-07
-0.00200358
9.80284e-08
-0.00142663
4.08327e-07
1.02294e-06
2.34433e-05
9.35923e-08
5.38267e-08
6.04141e-07
0.00794925
1.8927e-07
9.03539e-08
-0.00134892
0.00139498
4.05599e-07
3.75975e-06
6.04013e-06
5.94661e-07
7.34024e-05
5.81117e-08
4.36242e-08
1.4484e-08
-0.0021533
9.52116e-07
4.55166e-07
1.49697e-09
-0.000699383
6.44855e-07
4.54135e-06
0.00196107
0.0064538
0.00655077
-0.00169323
2.28717e-07
0.00863153
1.61846e-08
5.11224e-08
7.21907e-07
5.51834e-09
-0.00194727
1.34507e-05
6.93348e-06
5.71965e-08
1.04159e-06
5.81376e-06
4.38265e-05
7.09738e-06
2.51243e-07
9.56783e-07
-0.000368388
0.00136339
3.50786e-06
4.39266e-08
6.41494e-08
1.31285e-07
0.00994277
9.44968e-07
0.00115573
4.59937e-07
1.87671e-07
3.1436e-06
3.75547e-06
2.80304e-07
2.45657e-07
2.8064e-06
2.98132e-05
-0.00142515
0.000558293
9.24248e-07
0.00204936
-0.00152644
4.65864e-08
1.15353e-06
0.00526317
4.08618e-07
3.49001e-06
1.47834e-07
3.67125e-05
2.92168e-09
4.33106e-07
2.51518e-07
5.76678e-08
1.16416e-05
2.66431e-07
-1.20046e-05
5.31058e-08
2.10087e-06
0.00111183
-0.00199092
-1.31018e-08
1.1739e-06
1.02078e-09
-8.84059e-07
4.37776e-08
4.35817e-07
-0.000821297
9.34197e-08
4.15957e-07
9.60324e-09
0.000284876
1.27277e-07
-0.00815685
0.000182671
-1.42042e-05
7.68852e-10
0.00136032
0.000893525
0.00342275
3.28649e-06
7.3577e-07
1.25442e-06
7.31879e-06
1.04968e-06
7.58201e-06
2.12064e-07
0.00123358
1.17799e-06
5.72952e-08
5.33487e-07
2.99667e-06
-0.000765587
0.00215795
1.29956e-07
3.62577e-08
5.51745e-08
5.48885e-06
0.000110839
5.61631e-07
6.82568e-07
1.46789e-06
9.09698e-08
6.95246e-07
3.69471e-06
0.00828711
2.37586e-08
5.50939e-08
-4.38643e-08
0.00546349
-0.000528864
8.50734e-07
1.90346e-07
4.63204e-05
3.23065e-05
3.86055e-06
6.87318e-07
0.00533712
-0.000740377
5.31253e-07
9.10128e-07
0.00375169
1.4048e-07
1.37497e-08
3.74091e-06
5.07112e-07
1.46313e-07
3.96217e-09
4.96571e-08
1.63766e-08
7.8319e-07
1.46763e-08
0.00547208
8.00999e-07
1.24424e-07
-0.000812956
0.00156456
5.60037e-08
2.04024e-06
-0.00149095
9.62285e-08
5.06437e-08
7.77796e-07
0.0012354
-0.00228894
8.25078e-07
8.15449e-09
0.00955349
1.70485e-08
8.39013e-07
-0.00155665
0.00613828
4.51629e-07
0.00495948
0.0076424
-0.00164826
4.45637e-06
1.8516e-06
-0.00207925
0.00124509
0.0130899
2.5214e-07
-0.0010321
0.000811781
-4.2537e-06
-1.38863e-06
4.048e-08
7.89963e-07
1.28518e-07
0.00163758
-1.42192e-07
2.71875e-08
3.86791e-08
3.84002e-07
-0.00156307
-2.03293e-05
1.40149e-07
-0.00191632
1.21138e-07
4.13791e-07
4.7611e-07
0.000596767
2.38296e-05
3.1438e-06
2.34614e-07
4.02552e-07
-0.00143938
6.51374e-08
4.17248e-05
5.37592e-07
7.82668e-07
1.12093e-07
5.48021e-08
1.25393e-07
5.48471e-06
-1.41107e-05
2.4859e-06
0.0103246
-0.00193984
1.94113e-07
-3.82169e-06
2.01383e-06
1.92827e-07
0.00696352
1.49737e-06
-0.00126029
3.69867e-07
1.93877e-06
9.6732e-06
0.00629033
1.95671e-06
0.0014919
2.74094e-07
-5.24674e-06
-0.000481909
6.27753e-07
0.00115607
6.33429e-07
0.000450357
9.12338e-07
1.30539e-06
2.95976e-06
3.47239e-05
4.46685e-08
5.03497e-07
5.65952e-07
1.04076e-06
1.1095e-07
8.87841e-07
0.0139981
8.6806e-08
1.13784e-06
-0.000399269
3.66083e-07
0.0397191
1.29141e-06
-0.00238002
4.23573e-07
1.67627e-06
-2.034e-05
2.53283e-05
6.13091e-07
0.00199996
0.000705857
0.000354918
8.67126e-08
2.47721e-06
6.08747e-07
1.94897e-06
1.73638e-07
-0.000371824
0.0139064
0.00641486
4.04598e-07
2.14786e-06
6.14407e-05
-0.000480093
1.09119e-07
-0.000822014
-2.53897e-05
-0.000516368
2.43326e-07
0.0130084
6.46489e-08
6.57555e-09
0.000961627
1.60816e-05
4.25477e-08
4.17186e-07
1.13357e-06
5.56646e-08
0.0160209
8.01271e-07
1.5044e-06
5.91253e-07
2.75261e-07
3.26771e-08
0.00771327
1.20287e-07
3.36632e-08
0.000143794
0.0146473
2.75119e-07
9.32741e-06
1.24273e-08
1.40779e-08
3.77374e-07
1.80189e-06
1.30501e-06
1.10941e-07
3.12054e-07
2.78322e-07
3.78437e-07
-0.0024086
1.91811e-08
7.45754e-07
0.00410236
1.62768e-07
3.97411e-08
1.59293e-08
5.69992e-07
2.9979e-07
-0.00101724
0.000981433
7.34866e-07
-7.08923e-06
3.85732e-07
2.93415e-08
0.00244529
1.16026e-05
1.7642e-07
9.18519e-08
0.00147996
4.14495e-07
0.000671238
8.05432e-08
4.61239e-07
1.96846e-06
1.0664e-06
0.00122098
4.37571e-05
0.0071513
1.39242e-07
7.02406e-06
9.53694e-08
-0.000274783
1.26367e-06
3.80814e-06
6.0237e-07
2.33695e-07
9.9639e-08
7.18496e-07
7.33955e-09
-0.000626592
0.00222311
-0.00248347
-0.000259922
0.00102394
-0.00134159
-4.56582e-05
9.52015e-08
8.18729e-09
-0.0275602
3.60283e-08
1.10098e-07
1.12915e-07
-0.00191892
4.26709e-07
8.24137e-08
-5.04992e-07
5.35226e-07
2.55704e-08
0.000186953
9.59079e-08
0.00251339
0.000136229
7.99309e-08
4.14826e-07
7.67409e-05
0.00889658
1.37586e-07
0.000461791
0.0114167
2.65214e-07
-0.00191877
0.000111803
2.20389e-06
1.38112e-07
0.000161356
-1.35274e-05
2.70127e-07
8.19014e-05
1.57312e-07
9.98185e-08
-4.77543e-05
0.000449565
5.34988e-07
1.31014e-06
3.4293e-08
1.52822e-06
0.00240093
-0.00212965
2.43831e-07
-0.00104006
1.10108e-07
1.62282e-07
6.2598e-07
7.68392e-07
1.11743e-07
2.18262e-07
-0.00197402
2.77834e-05
-0.00187011
4.05427e-07
5.59522e-08
0.00579304
1.20644e-08
1.39009e-06
7.08551e-07
1.02065e-06
6.87162e-07
0.00469865
-0.000840788
4.6825e-07
-0.000846353
4.2719e-07
7.28356e-07
0.000621933
0.00159863
1.37542e-07
9.21183e-08
2.07107e-06
-0.00189994
3.27512e-06
1.52168e-06
0.0195301
7.8378e-07
8.8822e-07
-0.000989408
-0.000617721
1.19359e-06
0.0020191
1.0899e-05
-0.00239262
2.51378e-07
1.68132e-05
0.0149783
2.3715e-08
-0.000898398
-0.000461696
2.47794e-07
1.00346e-06
1.10812e-07
-2.80729e-05
3.83518e-07
-0.000823718
1.19277e-07
4.2447e-09
6.83948e-08
5.17415e-07
1.76028e-08
-0.00193089
4.4087e-09
9.53943e-06
1.23868e-07
1.94635e-06
8.52134e-08
2.63456e-08
2.39263e-07
-0.00101246
5.74732e-07
-0.00194517
4.60966e-07
5.78336e-08
2.06363e-07
7.06301e-07
3.09221e-07
8.24629e-07
4.4489e-07
1.6314e-07
1.17131e-05
1.09294e-08
0.00182777
1.40475e-09
2.57396e-06
-0.000844877
0.00655261
-1.96728e-06
8.87523e-05
4.81109e-08
0.000122127
-0.000590565
2.44615e-07
-0.000853372
1.25836e-07
6.35748e-07
-0.000256326
0.014098
2.11046e-07
7.92129e-07
2.80225e-07
-0.00188977
-0.00163089
1.9384e-07
2.36441e-06
0.0150994
1.39287e-09
2.34796e-09
1.82743e-06
0.00158625
-5.12387e-05
4.85973e-08
3.6457e-06
3.64664e-07
3.09498e-08
9.93042e-06
3.6563e-06
1.63362e-05
8.57079e-08
3.74501e-06
-1.07954e-07
1.57941e-06
4.53039e-08
1.82091e-07
4.10661e-07
3.12281e-08
3.8e-06
8.05101e-07
7.42615e-07
1.48858e-07
0.00989687
0.000293492
0.00230117
0.0021711
4.03113e-06
0.00250456
2.19359e-07
-4.61671e-05
2.42408e-06
1.96769e-07
8.669e-07
6.97092e-06
3.50297e-07
7.21291e-08
6.6637e-08
2.55543e-06
0.00163146
7.47031e-07
-0.000275409
6.16973e-08
-5.84321e-05
-5.96398e-07
-0.0014669
9.10639e-07
4.26779e-07
4.19285e-07
-0.00154452
2.12669e-06
2.0541e-07
3.56242e-05
2.68215e-07
-0.015428
2.60441e-06
8.58074e-06
5.43539e-07
0.000265168
6.52909e-08
2.05777e-09
4.35979e-08
3.2234e-08
0.00134815
1.5577e-08
4.89194e-06
0.00563353
1.20714e-06
-0.00213694
-0.00116804
6.52959e-06
7.23534e-06
-2.12711e-07
6.23653e-09
5.48696e-08
8.5431e-08
2.03647e-07
5.09513e-09
7.67142e-07
2.12693e-06
1.12078e-06
0.0111378
2.13653e-07
0.00513235
-1.15604e-09
-0.000681607
3.5889e-07
2.42179e-10
9.65817e-09
0.00699068
4.52639e-07
7.19899e-05
-3.42002e-05
1.00361e-06
1.14077e-06
2.69199e-07
0.00327018
1.69068e-07
4.26319e-07
9.92562e-06
7.12814e-09
9.01414e-08
2.25794e-07
1.25188e-06
0.00128074
4.74441e-07
5.7932e-07
-7.046e-06
-0.00205054
-1.19108e-07
1.60603e-07
-0.000987481
7.99142e-08
-0.00134964
3.43097e-09
3.84905e-07
0.00851379
2.35486e-06
4.84976e-06
-2.11147e-07
5.98554e-07
4.69603e-09
-1.42769e-09
7.34561e-07
2.59331e-07
3.28988e-09
7.9442e-07
3.45777e-05
2.04973e-08
-8.73201e-05
-0.0123395
3.76586e-05
9.70887e-07
-0.00140969
-5.54757e-07
7.30105e-09
-5.37796e-09
6.18081e-08
5.04507e-07
0.00202103
-0.00160419
-0.000965854
-0.000358359
1.99848e-07
1.82487e-07
1.89379e-07
1.71205e-07
1.48683e-07
0.000415796
6.00869e-06
0.00106274
2.68013e-06
2.31631e-06
3.66015e-08
1.26374e-07
0.00206938
1.45211e-06
4.082e-07
1.84193e-09
5.29456e-06
6.41469e-06
-0.000175478
5.71312e-08
6.60553e-09
0.00136494
4.25383e-08
6.58544e-07
5.14593e-08
-0.00182602
8.81637e-08
-0.000911335
2.50863e-08
-9.93348e-06
7.56317e-07
-4.05827e-08
5.65159e-07
8.27521e-08
4.05946e-07
1.4195e-08
2.28355e-06
5.59431e-08
0.00219379
2.8035e-07
0.00590842
0.00308579
5.45554e-07
1.51183e-08
-0.000393521
0.00177054
4.88348e-07
2.32417e-06
5.3735e-08
0.00187853
2.03898e-07
3.31135e-05
2.69371e-08
1.44978e-08
5.05757e-05
7.13465e-07
1.71216e-08
9.86241e-07
0.000703934
5.96349e-05
0.0137523
1.19781e-07
0.002858
2.67997e-08
1.85603e-08
5.97156e-08
2.65672e-08
5.02798e-09
0.00985207
0.00416559
2.6774e-07
4.60626e-09
5.43593e-07
1.18789e-07
-0.000453635
1.83304e-06
0.00202268
-0.00213089
4.02504e-07
4.06437e-06
2.51462e-08
7.72063e-07
-4.64218e-07
2.43863e-07
2.55874e-09
-0.00397532
-0.00157716
1.14222e-06
-0.000647316
1.41993e-06
1.7734e-08
4.86881e-07
2.41432e-06
-0.00103634
7.72953e-07
1.28324e-06
1.43858e-06
4.61264e-09
-0.00155087
-0.00152942
0.00114648
0.011249
-6.53113e-05
1.44272e-07
1.25453e-06
3.07802e-08
-8.93577e-05
3.38969e-07
2.74113e-08
0.0118826
2.05119e-07
1.378e-08
1.45116e-07
1.93686e-07
-0.00184739
5.48059e-05
7.96526e-08
5.08531e-07
0.00155971
2.56413e-07
-0.000543305
7.72201e-08
2.06763e-06
-0.000260863
1.60909e-08
3.40284e-06
3.13402e-07
5.12862e-07
6.35178e-05
2.07816e-07
0.000125431
1.6883e-06
0.00155902
3.06639e-07
0.00188332
5.99122e-07
0.00159162
-0.00126136
0.0019444
1.04628e-06
7.76274e-08
2.0401e-07
1.52275e-09
1.27907e-06
1.34978e-08
0.00121803
2.41998e-07
9.63726e-08
-2.85663e-08
1.46059e-07
1.13487e-07
7.30632e-07
3.60705e-07
4.12018e-07
2.91514e-07
-0.000261023
1.11366e-06
6.30442e-07
3.23282e-07
0.0122733
8.45119e-08
-0.00165844
7.41276e-08
2.51527e-07
5.51226e-08
1.59003e-07
2.73904e-07
3.24324e-08
7.82168e-08
2.94033e-06
4.34591e-08
-1.23139e-05
2.99503e-07
-0.000819755
0.00310705
3.91783e-06
3.51896e-05
2.45262e-07
-0.00207973
1.62129e-06
4.3255e-09
3.44728e-07
7.91132e-08
-0.00174794
7.12585e-08
9.59139e-07
0.00419761
-0.000412588
6.89881e-07
2.28678e-07
0.00483403
0.00199677
-5.87211e-05
3.11838e-07
6.22582e-08
2.46292e-07
8.12126e-07
7.08536e-08
8.30138e-05
6.02209e-07
8.94361e-09
3.43686e-06
-2.68871e-05
2.22055e-07
0.000340398
-0.000870076
7.22264e-06
2.86138e-07
0.00391221
7.19378e-07
2.4375e-08
0.00104025
1.88507e-07
2.06105e-07
9.17791e-08
9.65125e-07
1.27474e-06
0.00567735
-0.00153779
1.20453e-06
0.00663063
1.00777e-06
6.52578e-08
2.08058e-07
6.41688e-08
0.00685923
2.4046e-07
1.18762e-08
2.02659e-07
2.59828e-07
0.00456858
0.0020112
1.2617e-05
-0.000916159
-0.00224285
2.28171e-08
8.94998e-08
2.97787e-07
0.00010184
2.45977e-07
1.46684e-07
3.74014e-07
0.00677968
8.03208e-06
6.48464e-08
3.17822e-07
5.79875e-07
1.15284e-06
-0.000560066
2.7386e-07
1.04446e-07
4.41454e-07
0.00763181
8.01681e-07
0.00199971
1.75629e-07
5.87808e-09
2.10639e-07
9.40313e-08
2.4897e-07
7.31658e-06
-0.0029039
0.00614119
-5.15001e-07
2.96299e-08
0.0200278
3.00966e-07
0.011302
-8.07595e-05
9.12557e-08
-0.001203
0.000725381
-0.00129498
1.41745e-06
7.75415e-07
0.00337358
6.53598e-07
1.60618e-07
1.40525e-07
0.000144657
2.45257e-07
-8.6828e-05
6.40643e-08
0.0013976
0.00673367
7.39922e-08
1.29454e-07
2.21968e-07
0.000142472
7.61516e-07
6.39724e-09
7.07385e-07
4.66225e-08
5.90798e-07
7.05352e-06
1.23251e-08
0.00263893
0.00135645
6.62659e-08
7.52236e-07
1.25957e-06
2.22973e-08
-0.0011496
0.00142667
-0.00208828
0.00177009
3.28339e-08
2.75277e-07
3.66971e-07
6.72136e-08
1.00668e-05
8.04707e-07
2.28891e-09
1.61458e-06
7.31888e-08
0.0109696
7.72987e-07
0.00121837
4.24225e-08
2.44556e-07
-3.26689e-06
1.2402e-06
8.4909e-07
8.34795e-08
0.00113931
0.000851137
-9.44153e-05
-0.00145904
0.00174126
0.00625238
0.00157351
8.01132e-08
5.59799e-08
2.47887e-07
2.89308e-06
1.29944e-06
8.21651e-07
-0.00065454
2.96106e-07
4.64596e-08
3.6136e-08
4.92979e-06
9.06921e-08
5.79918e-07
2.02014e-07
0.000198177
1.05009e-07
5.68146e-08
2.39726e-08
1.06514e-07
4.33149e-09
1.12963e-07
1.11572e-05
1.66449e-07
0.0178555
5.09645e-08
9.7475e-08
0.00191125
0.00318041
0.00154684
-3.64453e-05
7.00144e-07
-4.96957e-05
5.73815e-08
5.98634e-07
2.41532e-07
2.38394e-08
5.07637e-07
-0.00106715
3.50477e-07
1.24011e-06
0.00715203
2.87863e-07
1.57412e-07
4.93988e-08
7.79114e-06
-1.03544e-10
4.0907e-05
2.46195e-07
2.55564e-06
1.09071e-08
2.63909e-07
4.93767e-07
1.60501e-06
6.24298e-08
2.7592e-05
-0.00144668
3.33454e-06
0.00389329
6.29052e-08
-0.00109693
-0.000148421
3.73415e-08
0.00640898
6.66437e-08
-1.85084e-06
6.12095e-08
3.09912e-07
2.90893e-08
2.3231e-08
1.8969e-07
-1.87724e-07
1.28879e-06
2.35652e-07
1.24369e-08
3.84385e-07
2.12783e-07
-0.00198259
9.16875e-09
6.57786e-07
1.02915e-06
0.000557627
0.00883081
1.41283e-08
7.08476e-06
4.72439e-08
9.22251e-07
4.18758e-07
-5.88241e-05
1.06679e-06
1.22515e-10
3.39792e-06
-2.37456e-06
2.14712e-06
0.00109818
1.79001e-07
8.81264e-07
1.52175e-06
1.50844e-06
1.02475e-07
1.78393e-07
4.18397e-05
-0.000394422
3.2329e-07
2.5727e-08
-0.000639086
6.67214e-08
7.13375e-07
5.85624e-08
3.94986e-07
0.00557211
9.67399e-08
-0.000658016
4.63637e-07
5.46362e-09
5.57583e-06
2.63577e-08
-2.59896e-06
0.00156085
5.7475e-07
5.43231e-05
3.0755e-08
1.07768e-09
-3.9548e-07
6.00061e-09
2.73724e-09
7.0981e-07
5.93786e-07
1.19765e-06
1.43008e-06
8.54287e-08
3.3272e-07
1.70638e-07
2.72573e-08
7.15797e-09
3.45801e-08
0.00641217
2.32745e-07
8.68777e-08
1.03197e-05
6.52804e-08
2.65957e-08
0.00430672
2.91778e-09
-0.0010451
3.65835e-07
0.00560027
1.4506e-05
-7.17406e-07
0.000185687
5.80556e-07
1.90407e-06
2.68413e-07
2.63142e-06
3.76153e-07
1.77742e-07
1.12961e-07
7.29656e-08
6.84165e-07
1.03633e-07
3.57015e-07
4.77844e-08
2.54612e-07
-0.000455898
-0.00165745
-0.0140116
4.97547e-07
1.82519e-06
-0.000948676
-0.000736801
1.18629e-08
5.78916e-07
-0.0005994
2.5429e-07
4.01142e-07
0.00537007
0.00605345
6.58439e-07
1.08504e-06
1.80669e-07
-5.67401e-05
-6.98742e-10
1.97033e-07
0.0129754
9.01534e-08
1.00437e-07
-0.00186406
4.3015e-07
1.29902e-05
0.00460024
2.55149e-06
8.22629e-08
4.80236e-08
2.66468e-07
-0.00126409
0.0137339
0.0184909
4.70307e-07
3.89297e-08
-0.00152529
1.71696e-08
1.31219e-06
4.61097e-08
4.26931e-07
7.31067e-07
3.08252e-08
-0.000215734
-0.00205084
2.9326e-07
9.9373e-07
1.29136e-06
0.00668194
4.75679e-07
1.50609e-06
1.16399e-05
1.01794e-06
1.511e-06
1.56579e-06
1.46528e-08
1.05043e-06
1.20633e-06
0.00024353
3.58048e-08
1.33492e-06
4.84877e-07
1.59383e-06
-1.0899e-10
-0.00236475
5.36675e-07
1.50588e-07
1.44498e-07
3.13362e-07
3.43457e-07
-2.30493e-07
1.14897e-08
1.69416e-07
3.79923e-07
-0.000626732
4.87084e-07
1.27095e-08
5.31309e-08
1.07e-06
6.51458e-06
1.24327e-08
-1.34003e-06
0.00434957
2.38077e-07
0.00744399
1.27022e-06
-0.00130314
0.000151008
8.10396e-08
0.0106204
1.87614e-09
2.79418e-07
9.15754e-07
7.72554e-07
1.2962e-06
1.2453e-06
2.40024e-07
2.85318e-07
5.02337e-07
2.0062e-07
8.65118e-08
-2.93544e-07
5.03389e-07
1.21273e-07
0.00487492
3.25213e-07
1.98915e-07
7.17582e-08
0.0015771
6.23063e-08
8.23404e-08
4.40447e-07
4.62658e-08
0.00113723
4.56301e-06
9.19803e-07
0.00238009
-0.000856885
0.00133706
1.05712e-06
3.30096e-06
7.03543e-08
4.47488e-07
1.45215e-07
-3.71294e-08
0.00387573
-0.000723195
0.000119754
-0.00201715
1.27231e-08
0.000794432
6.97925e-08
2.37896e-06
2.05388e-07
-8.80108e-06
0.00954468
6.65888e-07
1.18138e-08
-1.70084e-05
1.08068e-07
4.85544e-08
-0.00142585
1.73324e-08
1.50073e-07
5.03742e-07
5.57e-08
4.70207e-07
4.10522e-08
4.38175e-08
2.83972e-07
0.000156935
8.17144e-07
4.72703e-07
5.2626e-08
-0.00133957
-0.00138797
1.64364e-08
3.00785e-05
2.00926e-07
4.9344e-08
0.0178528
1.66107e-08
1.10085e-07
1.24749e-07
-0.0015402
4.14729e-08
4.9128e-09
5.14778e-07
-4.60801e-05
1.69642e-08
1.66303e-07
2.20605e-07
0.00309535
4.40322e-07
4.9421e-07
6.00481e-06
1.61223e-08
1.53206e-06
5.92109e-08
0.000282134
4.19326e-07
3.25664e-08
7.05464e-07
6.93452e-07
6.54978e-09
2.56202e-07
2.07825e-06
-0.000694719
3.01647e-07
0.000618199
7.3298e-09
6.67957e-08
7.83812e-07
3.39663e-08
2.34637e-07
0.000868853
-5.95152e-11
6.97233e-07
4.8255e-06
-0.00181594
0.00124306
2.4788e-07
3.75146e-08
9.97677e-08
1.56311e-08
7.24718e-08
2.26601e-08
-6.55366e-06
9.05294e-09
4.1053e-06
4.48027e-06
1.06276e-07
2.24955e-07
5.26449e-07
4.41817e-06
2.11368e-05
-1.25833e-07
5.2275e-07
2.1284e-07
0.00555004
4.76119e-07
9.22125e-07
1.04478e-06
2.7625e-07
1.03723e-06
-0.000901191
1.23291e-06
0.00207953
0.00678839
-0.000573081
4.47931e-07
1.33618e-07
4.10651e-07
4.3639e-07
2.05415e-07
3.07197e-07
-3.46284e-07
2.97234e-09
2.08025e-07
3.28912e-08
9.25011e-08
4.16387e-07
2.33653e-07
-0.000948634
1.23899e-08
0.00397508
1.53152e-08
-2.95854e-07
2.5232e-07
4.00172e-06
5.89325e-07
7.59346e-08
0.00351381
6.00884e-08
5.66046e-09
9.15647e-07
1.69726e-07
1.58213e-07
2.1768e-07
-0.0027949
2.48171e-07
5.73063e-07
-1.81662e-06
0.00295015
2.31749e-07
5.14143e-06
0.00468006
3.51443e-07
2.44307e-07
3.19207e-07
-2.45077e-07
6.9187e-07
-0.00130749
1.53898e-07
-0.000976899
1.35575e-07
-1.24203e-06
-0.00255379
3.4459e-07
-3.37205e-05
2.72744e-07
6.70641e-07
2.07503e-07
-0.00223316
3.84576e-07
5.36564e-09
3.15169e-07
1.87659e-06
2.76754e-07
4.41243e-08
6.91637e-09
-0.00219935
2.61757e-09
2.2486e-07
0.0030884
1.90499e-07
8.42973e-08
3.60382e-07
2.80778e-07
0.00657574
5.03622e-08
6.75727e-08
5.21133e-08
4.72832e-08
2.65308e-07
2.41635e-07
1.45437e-06
0.0027646
8.89362e-08
1.2272e-08
0.0188187
3.07567e-07
-0.000667311
4.89889e-07
-0.00233875
1.44292e-07
1.72958e-07
4.87888e-08
0.00130951
0.00389514
1.93313e-07
-6.50086e-08
-3.96871e-07
1.16081e-07
1.13536e-08
-0.00213096
5.59249e-09
2.3282e-06
1.11211e-07
1.29549e-06
9.91277e-09
0.0180266
5.59671e-08
1.18606e-06
9.11149e-08
8.89673e-05
0.000559372
1.66963e-07
2.59957e-07
-0.00165231
1.5433e-06
-6.57791e-05
-2.93118e-05
-1.22229e-06
4.61255e-08
6.39094e-07
1.22141e-06
0.0117451
3.1248e-07
1.21685e-06
1.46816e-07
1.36098e-07
0.00201676
-0.00106541
1.25826e-06
2.07568e-06
5.03452e-05
3.0249e-07
0.00612522
2.05816e-07
1.64785e-07
1.24544e-06
-0.00182835
9.25089e-06
2.06497e-06
-0.000453114
6.17078e-08
-0.00233953
0.00122237
-0.00243815
3.73469e-09
-0.00142057
-0.00143387
0.000945105
6.91298e-05
0.00344959
2.39777e-06
4.72001e-07
3.56763e-06
-2.80184e-08
1.12143e-07
0.00728672
1.58822e-06
8.31999e-08
0.000693353
9.89952e-09
2.22417e-07
8.33043e-07
1.0217e-07
0.0154965
1.97362e-07
-0.000446534
1.22396e-06
2.69356e-07
0.00176969
-0.000709352
2.36717e-06
3.35186e-08
7.5828e-08
7.56322e-07
5.86032e-07
4.49261e-08
4.84879e-07
1.00622e-07
4.86583e-06
9.91622e-08
5.67957e-06
2.12647e-07
3.06818e-07
0.000535342
1.57863e-06
3.32829e-08
-1.17487e-05
-0.00130614
8.78716e-08
1.80278e-07
-0.00243006
6.30238e-05
3.20798e-07
3.88065e-07
2.09456e-08
4.25173e-07
5.52909e-07
-0.000628172
1.11889e-06
8.5528e-08
2.28354e-09
2.74763e-06
2.5112e-07
-0.00056042
-0.00169543
1.18512e-07
3.96044e-08
3.63219e-07
6.87285e-09
3.58464e-07
1.92914e-07
2.8248e-07
9.92714e-08
9.39304e-08
2.04459e-07
4.84736e-08
1.22604e-06
0.0109463
8.27124e-10
0.0165558
-0.000983924
6.11871e-08
-1.02542e-06
-1.07308e-05
6.33975e-07
1.09225e-07
1.79136e-06
5.24891e-07
-1.60787e-06
6.3093e-07
2.7007e-07
2.67587e-09
-0.00122695
7.86086e-07
4.23715e-05
1.01796e-07
4.71278e-08
4.0183e-08
4.10674e-07
8.8369e-08
7.24179e-07
1.5508e-06
0.000458845
7.12998e-08
5.84382e-05
0.00743152
0.000719135
5.75254e-08
6.1305e-06
1.22967e-05
0.0072872
0.0112793
3.50361e-08
1.65799e-07
-2.32037e-07
7.78344e-05
2.90192e-05
7.37834e-07
2.86629e-05
1.90198e-09
1.92365e-07
2.64821e-07
8.89848e-09
3.06211e-08
5.65498e-06
9.66696e-10
-1.4151e-06
1.47416e-07
0.000560009
0.0145974
0.0101418
0.000619329
0.000649525
5.37182e-08
1.46286e-08
0.00207574
1.67228e-07
1.68657e-07
6.87879e-08
-2.71823e-06
0.00423713
-0.00133027
9.95551e-08
2.86772e-07
2.45574e-07
2.3077e-07
0.00132103
1.25798e-08
-1.86295e-05
0.000799671
1.0756e-08
7.67306e-09
0.00180207
2.13062e-06
4.2709e-07
4.22028e-08
0.0138571
-0.00106384
2.27146e-07
1.63838e-06
1.7101e-09
0.00117331
-0.0122175
4.6862e-07
-0.000637695
-0.000703395
0.0176398
1.47779e-07
3.10715e-07
3.77875e-09
2.47372e-10
0.00328211
1.07816e-07
4.83317e-05
3.54621e-06
-0.0014901
2.79175e-07
4.69521e-07
-0.000400755
5.19527e-07
0.0031565
-0.00180111
4.36061e-08
4.99936e-07
5.00065e-07
3.59094e-06
0.00754719
7.90691e-08
0.00140224
2.49962e-07
1.05622e-06
1.04371e-07
2.19279e-08
5.01769e-05
4.04502e-07
-0.000499828
8.37559e-09
4.67217e-07
2.6888e-07
3.60606e-06
4.1895e-07
0.00292335
0.000361164
-0.000145164
2.40536e-06
9.68282e-08
2.10861e-07
1.5267e-06
-7.58828e-07
0.00597842
-0.000407936
6.26238e-09
-3.10467e-05
9.14651e-07
-0.00215632
6.97121e-07
4.08989e-07
4.73661e-07
2.22716e-07
0.0171959
2.65439e-08
7.27027e-07
0.00226254
0.00108212
0.00354197
0.00312668
2.31475e-07
7.31637e-07
1.9434e-07
0.000323436
2.32726e-07
0.00816604
2.00341e-07
0.00600038
1.03866e-07
4.84546e-08
6.87346e-07
8.81287e-08
1.62166e-07
1.14573e-07
0.00145565
1.2169e-06
1.08323e-07
3.45374e-07
0.0010436
0.000652239
6.08579e-08
-0.00190749
2.61253e-07
1.00166e-06
9.54418e-07
4.45868e-08
6.16971e-07
5.39075e-08
0.00408828
3.9339e-07
6.96341e-07
5.29263e-08
7.03231e-05
5.55758e-07
1.98895e-07
0.0169717
0.011542
1.20684e-05
2.73621e-07
0.00145668
1.4923e-08
3.83649e-06
6.68875e-07
2.70384e-06
0.0122072
0.00175005
6.24539e-07
0.00340339
3.51352e-07
1.4527e-07
1.00972e-07
0.0151255
1.18433e-06
9.25953e-07
-1.39928e-06
1.39283e-09
-1.91626e-05
8.01394e-07
0.000145162
6.81598e-06
-0.00117496
0.00130591
0.00683233
-0.00135112
1.66313e-07
9.39816e-08
2.08251e-08
2.22571e-07
8.36183e-08
7.2148e-06
2.41434e-07
1.56739e-07
-0.00215851
9.08037e-08
4.21082e-08
1.20552e-06
2.44514e-06
5.78722e-07
7.74542e-08
-0.00146955
3.5095e-07
1.26607e-06
1.16101e-07
-0.000995528
1.24925e-07
0.0109317
-1.59375e-07
6.62623e-07
3.94665e-07
2.21186e-08
-0.000533049
-0.0001314
5.98133e-07
1.11066e-07
2.29299e-08
0.00120959
-0.00152426
-0.00116075
2.05937e-07
6.41871e-07
0.000185498
2.34301e-07
2.7995e-08
1.61848e-07
0.00378067
2.13677e-06
2.87591e-07
7.32458e-07
5.65039e-07
0.00156319
2.27933e-07
1.48675e-05
6.6183e-07
6.94696e-07
9.46095e-08
-2.35397e-08
4.5806e-07
6.78401e-08
-0.00335098
-0.00186175
0.000310708
-0.0002594
-0.00135013
-0.00247244
0.00179369
4.00485e-08
2.3637e-07
0.0121076
-0.00165105
0.00855288
1.09143e-07
6.80117e-07
3.29772e-08
9.02574e-08
-2.09463e-05
0.00126769
1.05223e-06
5.0441e-08
1.00742e-05
1.23169e-06
5.64818e-07
0.00213296
0.0110135
4.48343e-05
2.20948e-08
0.00259194
1.10734e-06
2.18579e-06
9.43885e-07
6.39764e-07
3.84819e-08
7.4046e-08
4.72482e-07
4.8831e-07
2.60958e-07
1.05108e-06
5.85102e-07
2.16436e-07
3.77324e-06
0.0019099
1.55253e-07
1.13301e-06
0.000504777
2.58402e-06
1.118e-08
7.96595e-08
-5.15696e-05
0.0015507
4.45578e-07
2.28791e-07
5.95459e-07
3.62296e-07
1.7818e-07
4.68884e-08
6.09762e-07
8.22454e-07
1.12198e-06
1.55404e-05
1.73385e-09
2.57175e-07
0.00160611
0.000628624
-0.00130428
-0.000714093
3.19865e-06
7.68632e-08
3.08162e-08
5.52737e-07
1.8326e-07
-0.00210083
4.6189e-08
3.12576e-10
9.74435e-08
-0.00368684
-0.0200242
7.90665e-08
1.31859e-06
3.31111e-07
1.73149e-07
5.19779e-07
-9.52732e-08
7.93331e-07
3.92081e-07
-0.000701833
5.25322e-07
-0.00122296
3.73095e-07
-0.00172602
4.70233e-07
1.96887e-08
9.21727e-08
1.5997e-06
2.90618e-06
4.21047e-08
2.10042e-07
4.74166e-07
5.29086e-07
0.000287433
-0.000553839
0.00213044
2.44768e-10
0.0143744
2.10684e-07
3.11879e-07
5.27584e-08
6.24011e-07
2.04813e-07
0.00227978
-0.00024338
3.00018e-07
2.43687e-08
-0.000400661
7.19545e-08
0.00218067
-0.00136672
3.66021e-06
2.35277e-07
1.37233e-06
0.00185857
0.00628444
0.00375746
5.92136e-07
1.78746e-07
3.69361e-07
2.17205e-07
-0.00233653
2.12988e-07
3.98577e-07
1.36721e-05
-0.00203857
1.72285e-07
1.0575e-07
-0.00151596
4.38134e-07
-0.002483
-2.84021e-07
4.07357e-08
4.92991e-07
3.6402e-07
4.18972e-07
-5.87988e-05
3.13028e-07
0.00322061
3.6096e-07
2.85062e-09
1.12257e-07
3.41581e-05
6.16584e-08
3.8662e-06
4.22301e-08
1.71022e-07
-9.32851e-06
5.74617e-07
2.178e-07
3.1844e-08
3.40741e-07
0.00226983
1.15471e-06
4.93432e-07
1.00374e-07
6.31082e-07
9.70473e-08
1.27632e-05
5.64512e-07
6.24705e-07
1.68023e-08
7.79436e-07
3.68882e-07
-4.58063e-07
2.15325e-07
1.37568e-06
-0.0014383
0.00202048
2.42749e-07
0.00355566
0.00200747
9.58251e-08
5.19405e-08
-7.0038e-06
0.00177225
1.81649e-07
0.0015006
0.000122787
2.75032e-07
2.22391e-06
7.62085e-08
4.85292e-07
6.39615e-07
0.00266854
2.79761e-06
5.69226e-06
-0.000416897
-0.00207757
0.00114332
4.29089e-07
0.00359577
4.77122e-08
8.60632e-06
0.000236836
2.05064e-08
8.16676e-09
0.00164437
4.45827e-08
2.26944e-08
-1.23773e-05
0.00685284
4.3959e-06
5.88393e-07
0.000337787
7.69271e-09
0.00197295
0.00259373
4.22788e-09
5.89469e-06
0.00754955
-0.00169795
0.000759844
0.00255839
0.00138436
7.65468e-08
5.33616e-08
6.73435e-07
1.10692e-06
2.39587e-08
4.02776e-06
4.37583e-08
0.00231986
3.65138e-05
2.46313e-07
1.93684e-05
0.00215738
3.24353e-05
8.01033e-06
1.62485e-06
-0.000961644
6.47236e-05
5.17208e-07
7.58828e-08
-2.26881e-05
2.11226e-07
1.61103e-07
-0.00234761
9.02989e-08
-8.2678e-05
4.36844e-08
0.00251435
5.55823e-07
8.28393e-08
0.00175471
-1.53504e-08
1.84915e-07
0.00195338
0.00447179
0.00480031
7.00475e-07
1.31605e-06
1.14333e-07
1.18983e-06
1.4496e-06
1.11727e-06
5.18482e-09
2.48735e-06
7.8605e-07
2.60062e-07
0.00102048
6.29198e-07
2.35355e-07
9.3744e-06
7.56992e-07
1.18203e-06
8.29128e-08
5.26618e-06
9.90673e-08
1.71351e-06
4.87911e-06
0.000202069
5.02733e-08
4.46505e-07
-0.000871946
3.69742e-07
6.18159e-07
9.11061e-07
4.71394e-07
0.011126
8.59427e-07
5.48112e-08
0.000562816
4.3623e-08
-0.00130567
1.46844e-08
3.19326e-07
2.47132e-06
-0.00172725
2.92371e-07
-1.50391e-07
0.000154711
8.59719e-07
2.40452e-07
-2.15736e-06
4.72436e-07
-0.00215457
4.50776e-08
0.0244251
1.32173e-06
8.88083e-07
5.52385e-07
1.54375e-06
3.72636e-07
-2.13153e-06
8.75714e-07
1.71391e-07
3.36996e-07
2.84051e-07
0.00674275
8.2233e-08
4.79217e-07
4.60516e-08
3.69476e-06
5.11439e-07
1.00238e-06
0.00250402
2.85271e-08
5.76674e-06
3.12342e-08
5.38094e-08
9.46231e-09
5.81128e-09
6.59763e-07
6.25899e-08
2.41588e-06
-0.000869629
1.11677e-06
7.28718e-07
5.25096e-07
1.76945e-07
2.16025e-06
9.6487e-08
0.00103598
0.0165639
-0.00109221
5.27585e-06
3.22634e-07
6.76959e-07
1.23409e-08
1.45987e-07
4.11937e-07
3.8272e-07
-0.00104107
1.25091e-06
-0.00191706
4.41691e-06
3.47378e-09
4.37541e-08
0.00188642
1.04064e-07
6.55635e-07
4.08113e-06
2.79953e-05
4.00535e-07
0.00238342
8.08329e-09
3.20577e-07
3.00548e-08
9.86348e-08
-2.09182e-06
3.48545e-06
1.98907e-07
9.56032e-07
4.88432e-07
8.01653e-07
1.36261e-06
6.96259e-06
5.16438e-06
-3.60442e-05
3.21132e-06
6.71352e-07
2.56119e-07
1.41506e-06
-0.00190293
0.00403083
0.00253804
8.55241e-07
0.0135757
2.82283e-06
3.07081e-07
4.76588e-08
1.59517e-06
1.485e-08
9.7506e-07
-0.000920865
8.48906e-08
1.80319e-07
0.000657825
-1.6752e-05
1.25743e-06
0.00210538
5.11836e-08
0.00126705
3.93388e-07
-0.00156729
-4.49126e-07
1.05853e-07
0.00295516
-1.86428e-06
6.895e-08
-1.033e-08
2.57536e-09
1.11771e-05
4.53807e-07
-3.6492e-06
-0.00232074
2.05541e-07
0.0186825
7.94651e-08
-0.00167698
6.52477e-08
4.11759e-07
1.92231e-07
4.20074e-07
7.19663e-09
-1.43459e-07
-0.00127604
0.00142032
5.7924e-07
2.80497e-07
-1.43844e-06
1.54039e-07
1.35507e-07
3.46797e-07
-0.000110066
5.04611e-07
0.00239768
0.00188365
8.45455e-06
7.39816e-09
1.00631e-05
1.24516e-05
3.39591e-06
6.49291e-07
-0.00100632
9.77519e-08
6.80668e-08
9.39371e-08
0.00797058
2.17536e-07
8.1816e-08
0.00162515
8.15135e-08
6.22502e-07
1.31014e-06
2.35265e-07
0.00502599
7.81925e-07
0.00207871
1.75605e-07
-0.000577841
2.41625e-07
2.32162e-06
-0.000744419
8.61867e-07
8.88402e-08
6.98818e-07
0.00374739