/*--------------------------------*- C++ -*----------------------------------*\
| =========                 |                                                 |
| \\      /  F ield         | OpenFOAM: The Open Source CFD Toolbox           |
|  \\    /   O peration     | Version:  v2012                                 |
|   \\  /    A nd           | Website:  www.openfoam.com                      |
|    \\/     M anipulation  |                                                 |
\*---------------------------------------------------------------------------*/
FoamFile
{
    version     2.0;
    format      ascii;
    class       surfaceScalarField;
    location    "400";
    object      meshPhiCN_0;
}
// * * * * * * * * * * * * * * * * * * * * * * * * * * * * * * * * * * * * * //

dimensions      [0 3 -1 0 0 0 0];
oriented        oriented;


internalField   nonuniform List<scalar> 
20580
(
3.24461e-05
-1.55204e-05
-1.70365e-05
-8.12214e-05
6.6209e-05
1.6484e-05
-3.99262e-05
-3.98598e-05
6.73945e-05
-7.4407e-05
6.9915e-06
7.20522e-06
1.15136e-05
-1.21058e-05
-3.65876e-05
0.000116287
-7.7935e-05
9.63276e-05
-0.000111373
4.2034e-06
1.26811e-05
-1.09673e-05
1.97801e-05
5.81002e-06
-2.56186e-05
-8.90408e-05
0.000364976
-0.000274202
3.82774e-05
-0.000113301
7.57973e-05
-6.61494e-06
-0.000163938
0.000173976
0.000310546
-8.04477e-05
-0.000228863
-3.26583e-06
-1.19937e-05
1.52493e-05
-1.69557e-05
-1.28897e-05
3.00204e-05
7.59886e-05
-1.3437e-06
-7.51055e-05
-4.47641e-05
4.27776e-05
1.9171e-06
-9.09589e-05
-8.90306e-06
0.000102454
-2.78032e-05
9.47478e-06
1.83744e-05
1.47688e-05
1.74677e-05
-5.72058e-06
2.70381e-05
-2.10888e-05
3.05597e-05
0.000169735
-0.0001975
-8.64538e-05
5.50925e-05
3.14339e-05
9.33143e-06
-1.33429e-06
-6.82684e-06
-5.85831e-05
1.863e-05
4.00173e-05
9.92131e-05
-7.55892e-05
-2.40897e-05
4.86767e-05
-2.14346e-05
-2.72962e-05
1.30525e-05
-1.54851e-05
2.40964e-06
5.07762e-05
-3.60258e-05
-1.48138e-05
-1.83377e-05
0.000117108
-9.47223e-05
7.96214e-06
4.93241e-05
-5.73278e-05
-2.17144e-05
0.000116425
-1.72851e-06
-2.28694e-05
2.47799e-05
-1.84348e-05
4.26791e-06
1.41217e-05
-4.68075e-05
-5.15559e-05
9.88796e-05
-4.3251e-05
6.0929e-05
-1.76438e-05
8.89716e-07
8.67226e-06
-7.77759e-05
5.92499e-05
1.85975e-05
3.68118e-05
-5.49752e-06
-3.13314e-05
0.000299329
-0.000201517
-9.41984e-05
9.94268e-06
5.73779e-07
-1.05284e-05
3.08371e-05
1.991e-05
-9.05969e-06
-1.50346e-05
-0.00014244
9.82453e-05
4.46561e-05
2.35554e-05
1.94372e-05
-4.30417e-05
-8.10562e-06
0.000187811
-0.000174929
-1.10325e-06
1.69649e-05
3.66575e-05
-5.76553e-05
2.08607e-05
0.000236898
-6.55112e-05
-0.000167707
4.01919e-05
0.000271319
-2.40348e-06
-1.60307e-05
1.83911e-05
0.00034929
-8.33734e-05
-0.000264758
-5.71837e-06
8.12529e-05
0.00010351
-6.0136e-05
-4.43744e-05
-2.69012e-05
3.03924e-05
-3.52466e-06
0.000187424
0.000114545
-2.1257e-05
1.96209e-05
1.17877e-05
-1.82879e-06
6.42858e-05
-4.57195e-05
-1.86795e-05
7.22248e-07
-9.53214e-06
8.8517e-06
0.000166915
-0.000169895
2.25499e-05
2.60672e-05
0.000316059
-0.000308622
-6.38235e-06
0.00013095
0.000109022
0.000134382
-7.93114e-05
-5.48496e-05
9.96653e-05
3.49121e-05
7.63254e-06
-6.93177e-06
3.56261e-05
-0.000131171
3.45029e-05
0.000179379
-0.000210136
-6.28082e-05
6.48649e-05
-2.08792e-06
-1.85137e-05
4.71964e-05
-2.87159e-05
-2.80301e-05
2.62763e-05
1.86559e-06
-0.000308433
0.000233927
7.70647e-05
-2.77867e-06
-6.71946e-06
-5.72616e-05
7.52149e-05
-1.85696e-05
6.55038e-05
0.000156049
-0.000218739
2.16132e-06
-4.6927e-05
-8.107e-05
4.60858e-05
3.82497e-05
-1.02824e-05
-4.81839e-05
3.80655e-06
-0.000231518
0.000232679
-0.000157545
0.000195647
-4.4056e-05
-2.22866e-05
6.64565e-05
-0.000129831
8.40916e-05
-6.9854e-06
-1.29562e-05
1.99094e-05
-1.01798e-05
7.42197e-06
4.83259e-05
1.34682e-05
-6.18335e-05
0.000184058
-0.000151053
2.33943e-06
-3.55627e-05
3.32058e-05
0.000281398
-0.000299584
2.04765e-05
-3.75076e-05
4.54373e-05
3.38384e-05
0.000316299
7.94139e-05
-0.000102511
-9.74074e-07
-1.05629e-05
-6.23595e-07
4.8932e-05
-3.58215e-05
1.79484e-05
1.78508e-05
7.29649e-05
-0.000126222
5.36475e-05
-0.000336469
0.000171419
0.000169812
-2.96068e-05
-5.02364e-05
7.96181e-05
4.00315e-06
-1.39774e-05
9.94693e-06
-0.000112436
3.82608e-05
7.45266e-05
3.67533e-05
-6.65389e-05
-8.52443e-05
0.000188195
-0.000103014
-0.000185777
4.57399e-05
0.000139969
0.000310057
-0.00031944
1.1574e-05
-1.76694e-05
0.000163588
-0.000141658
-5.11573e-05
3.25513e-05
1.88849e-05
-0.000180116
0.000167466
2.55594e-05
-4.41018e-05
9.75393e-05
-1.9533e-05
1.217e-05
-0.000100472
-0.000217929
5.22791e-05
0.000167501
-0.000208305
0.000205595
-2.33937e-05
-2.07075e-05
4.43161e-05
6.51494e-05
-6.51413e-05
6.96531e-07
3.88439e-05
-3.66555e-06
-3.52593e-05
4.82194e-05
5.45026e-05
-0.000136626
8.04836e-05
6.0101e-05
-1.2433e-05
2.2437e-05
4.91721e-05
1.8135e-05
2.66235e-07
-6.30821e-05
-0.00013615
4.63191e-05
9.03247e-05
0.000102834
3.38428e-05
-0.000132611
-0.000107474
-8.82628e-05
0.00019866
-1.46821e-05
9.37699e-06
5.21014e-06
-2.38617e-05
1.94612e-05
4.46948e-06
0.000121552
3.32874e-06
-0.00012511
-0.000129152
-0.00020178
0.000121685
-0.000110943
-9.63822e-06
-4.16773e-06
-9.57738e-06
1.37164e-05
-6.67047e-06
-1.66773e-05
2.36493e-05
-3.81797e-05
0.000210422
0.000151326
-2.25673e-05
-0.000126508
-2.50539e-05
-5.26876e-05
-6.45949e-07
-1.78371e-05
9.46885e-05
-5.58482e-05
-2.58424e-05
3.68872e-07
2.54346e-05
-0.000123226
-3.09431e-05
4.43847e-05
-0.000213546
6.90836e-05
0.000144537
8.91e-06
2.41087e-05
-3.30551e-05
3.24314e-05
-7.6529e-05
2.52377e-05
0.000237084
-0.000260621
0.000334942
-5.16242e-05
6.44416e-06
0.000104274
-0.000110896
-3.95402e-05
3.40843e-05
5.45708e-06
-0.000253385
0.000103118
0.000152942
-3.73433e-05
-4.05022e-05
4.86799e-05
1.93077e-06
2.78109e-05
-2.97305e-05
0.00012206
3.549e-07
6.46115e-05
-2.79909e-05
3.25388e-05
-5.58693e-05
6.48992e-05
7.0678e-07
-7.69025e-06
2.68129e-05
-1.90706e-05
0.000259461
-0.000337608
7.93555e-05
-0.000362915
0.000292067
7.18739e-05
-0.000195388
0.000183124
1.67428e-05
1.3331e-05
2.34719e-05
2.83243e-05
-2.80468e-05
-3.64946e-07
5.91169e-05
-5.45473e-05
-4.91713e-06
2.07822e-05
-1.61646e-05
-2.95725e-06
-4.72483e-05
-5.71896e-06
5.28609e-05
-2.57205e-05
-2.45491e-05
6.77835e-05
-3.13061e-05
1.33228e-05
-1.6602e-05
3.4745e-05
-3.03269e-05
-4.49757e-06
-1.94564e-06
3.65901e-05
1.82147e-05
-2.06759e-05
-0.000172279
-4.37079e-05
-1.99338e-05
6.33259e-06
1.36308e-05
-8.26712e-06
0.000170284
-0.000158624
-5.03098e-05
-8.12569e-05
-1.09724e-05
4.53474e-05
-3.40656e-05
-1.10457e-05
2.16347e-05
-5.4694e-06
-1.39102e-05
-2.17899e-05
-1.05864e-05
3.23923e-05
-2.18239e-05
3.2571e-05
2.08167e-05
-5.34405e-05
-0.000122548
7.68459e-05
-7.24222e-05
-1.22124e-05
8.36944e-05
-3.01329e-05
6.27104e-05
-1.58008e-05
-7.70694e-06
-6.90321e-05
0.000199442
-3.89754e-05
-0.000158571
-3.18067e-05
2.54673e-05
-1.31943e-05
-7.73598e-06
2.53401e-05
-2.33902e-05
4.49299e-06
-2.72321e-05
-0.00024299
0.000223912
1.93499e-05
-0.00023562
0.000344215
-0.000107274
-0.000175166
0.000176953
3.00267e-06
-1.03318e-05
-2.93569e-05
3.93832e-06
2.42424e-05
5.06042e-06
-1.70644e-05
-9.64795e-05
6.16028e-05
-6.63531e-05
-0.000184318
-1.68651e-05
-6.61981e-05
8.27101e-05
-1.77411e-05
2.22589e-05
-4.30023e-05
1.45835e-05
2.96137e-05
0.000131272
1.81933e-05
-0.000145954
0.000174821
-7.09712e-05
-0.000104061
2.86175e-05
4.51329e-05
-7.36899e-05
1.34446e-05
5.06163e-06
-1.85509e-05
-1.1044e-05
1.23033e-05
-1.33291e-06
1.92875e-05
-3.62043e-05
-6.99947e-05
7.61558e-05
-6.04067e-06
1.94697e-05
-6.04985e-06
-0.000178844
-9.61631e-05
0.000275335
-6.00423e-05
1.43573e-05
4.54836e-05
-2.10473e-05
2.81351e-05
-7.12768e-06
-0.000124185
0.000118858
7.05728e-06
8.78101e-05
-1.35271e-05
-7.45671e-05
9.17593e-05
-0.000196674
6.1032e-05
1.34118e-05
-8.75937e-05
7.43128e-05
-7.57506e-05
-2.53558e-05
0.000101882
-1.76891e-05
-0.000172742
0.000192738
0.000325659
-0.00028438
9.72435e-06
-1.77966e-05
8.08869e-06
0.000112337
-6.97018e-05
-4.00854e-05
-1.39551e-05
-5.31005e-05
-7.84435e-05
-3.95383e-05
-2.55908e-05
1.33962e-05
1.21438e-05
1.10246e-05
-1.79963e-05
5.11626e-06
2.15533e-05
-2.67474e-05
0.000230491
-5.41017e-05
-0.000176054
-1.88538e-05
-4.14416e-05
-4.95262e-06
-3.3386e-05
3.82655e-05
-0.00011055
0.000116876
0.000252047
6.5456e-06
-0.00025404
-0.000126713
-8.72756e-05
5.52335e-05
3.20408e-05
-0.000191731
-5.08356e-05
-0.000111366
-1.06749e-05
3.46313e-07
-0.000280891
7.01777e-07
-1.1795e-05
0.000101264
-0.000115174
-6.17862e-05
-2.45236e-05
-9.89438e-06
1.27457e-05
-2.88952e-06
-3.24618e-05
-7.95198e-05
1.83157e-05
3.06592e-06
-8.00634e-05
-1.9535e-05
9.98353e-05
1.87948e-06
-1.09845e-05
9.09105e-06
5.02475e-05
-2.67355e-05
8.59441e-05
-2.54602e-06
3.89009e-05
-3.63853e-05
-0.000106057
5.54561e-06
0.000100336
-8.14425e-06
1.78528e-05
-8.90534e-05
1.58044e-05
-5.48108e-05
-7.10538e-05
7.01152e-05
0.000126607
-0.000194889
3.64988e-05
-5.66118e-06
-3.08195e-05
2.99391e-05
-1.70141e-05
-1.25368e-05
-2.00073e-05
2.50173e-06
2.57548e-05
2.38788e-05
-4.78297e-05
2.46833e-05
-6.73191e-05
-2.902e-06
-4.43629e-05
-4.06319e-05
5.71126e-05
-1.63612e-05
-3.49264e-05
-0.000136319
-1.27555e-05
0.000273414
-0.000295294
2.37625e-05
-2.75309e-05
3.70047e-06
2.3805e-05
-7.58259e-06
2.10729e-05
-1.35256e-05
3.54061e-05
-1.10871e-05
-4.29535e-05
1.80109e-05
2.14023e-05
8.64581e-06
0.000353327
-0.000123695
-0.000226093
-0.000166974
8.15297e-05
2.63428e-05
-6.03247e-05
3.38812e-05
-1.62753e-05
1.29948e-05
3.15525e-06
4.65977e-05
-0.000282687
0.000239173
3.36334e-05
0.000292915
3.90849e-05
-1.40836e-05
-1.36818e-05
2.78258e-05
-4.48346e-05
6.62556e-05
-2.15108e-05
-2.53472e-05
4.38843e-06
2.10322e-05
-6.89164e-06
0.000112992
-2.07201e-05
5.21697e-06
2.39259e-05
-8.26364e-06
-1.56004e-05
-8.49405e-06
-3.10721e-05
3.95174e-05
-2.22695e-05
-2.01569e-05
1.01446e-05
-2.42424e-05
6.46764e-06
-1.11482e-05
4.63869e-06
-7.19643e-05
3.38312e-05
3.91196e-05
3.45661e-05
-7.78598e-06
-2.69222e-05
-2.60478e-05
-4.16985e-05
6.77666e-05
-0.000252713
0.000139721
0.000117983
0.000160687
-0.00017628
1.99447e-05
2.01831e-05
-2.87498e-05
0.000127516
-8.93573e-05
-3.732e-05
3.34548e-05
8.028e-05
-0.000110059
-7.05638e-05
7.88792e-05
-7.00497e-06
4.54635e-05
0.000210724
1.65019e-05
5.99021e-06
-1.4803e-05
-1.193e-05
3.47673e-05
-2.25311e-05
-3.00458e-05
-5.74868e-06
2.54979e-05
1.73791e-05
-2.31729e-05
-0.000279722
0.000100303
0.000183069
-4.61696e-05
-9.6325e-06
-5.10486e-06
0.000332364
-0.000255581
-7.54263e-05
-1.09671e-05
-1.38449e-06
1.377e-05
-1.24534e-05
0.000249296
-0.000222552
0.000295254
3.80279e-05
3.41765e-05
-1.65745e-05
-2.02508e-05
4.98546e-06
1.51687e-05
-5.27079e-05
4.6895e-05
5.82932e-06
-3.18173e-05
2.63011e-05
5.55703e-06
-1.29807e-05
2.68409e-05
-7.62804e-06
-1.23094e-05
0.000161786
-3.59801e-05
1.28964e-05
2.33049e-05
1.34485e-05
-1.49414e-05
-1.70251e-05
1.3058e-05
3.78377e-06
4.22556e-05
1.65588e-05
3.66588e-05
-6.26424e-05
8.81667e-05
-6.28307e-05
-2.5262e-05
6.57848e-05
-1.58748e-05
-4.98245e-05
1.17371e-05
-5.29178e-05
4.13558e-05
-0.000196495
9.16489e-05
0.00010469
1.73909e-06
-2.75852e-05
-1.36527e-05
1.09688e-05
2.65566e-06
-1.36706e-06
1.43904e-05
5.23897e-06
0.000129205
4.89516e-05
-4.29259e-06
-4.46822e-05
1.32715e-05
5.01344e-06
-8.39127e-05
9.3007e-05
-9.31102e-06
1.09322e-05
-9.51308e-05
1.42334e-05
-0.00019296
-1.22561e-05
-2.80338e-05
4.04292e-05
0.000241896
-6.47095e-05
-0.000176169
3.0078e-05
-2.77591e-05
-0.000202365
0.000103401
9.88062e-05
-4.07108e-05
5.09653e-05
-3.00963e-06
-2.10043e-05
1.61878e-05
-0.000170965
1.08069e-05
0.000162281
4.30036e-05
2.28036e-05
-7.46626e-05
-7.99863e-05
-0.000167135
2.30494e-05
0.000233019
-0.000191926
-4.01649e-05
5.77092e-05
9.52109e-05
-3.37544e-05
-2.11253e-05
-7.88052e-06
-1.2421e-05
-1.40363e-05
-6.48117e-06
-7.22995e-05
-0.00024323
0.00022855
-0.000122051
1.2811e-05
4.13366e-05
1.10793e-05
-5.24738e-05
7.6801e-05
-0.000311172
1.62909e-05
-4.11764e-05
-2.94697e-05
1.34176e-05
2.09831e-05
3.46726e-05
0.000199114
-2.42179e-05
-4.86561e-05
-0.000227078
-9.38538e-05
2.84283e-05
6.57642e-05
9.90128e-05
-6.05133e-05
2.52997e-05
-1.73017e-05
-7.69863e-06
6.31841e-05
-2.06219e-05
6.19233e-05
-7.67886e-05
0.000181726
2.3621e-06
2.03199e-05
7.75225e-07
-2.10689e-05
6.72903e-05
-3.78572e-05
-2.74976e-05
-1.41947e-05
-2.84928e-06
2.50911e-05
-1.99702e-05
-5.17012e-06
1.51218e-05
-1.11489e-05
-0.000138578
-2.9994e-05
4.12024e-05
-9.52612e-05
3.9077e-05
2.51539e-05
-1.47563e-05
-4.26914e-05
5.74777e-05
4.7083e-05
3.91857e-05
-8.61608e-05
-2.74716e-05
-1.32083e-05
4.0635e-05
-0.00011979
-1.3071e-05
0.000135259
-2.48599e-05
1.43011e-05
-5.70807e-05
1.89279e-05
5.79758e-05
4.45671e-06
-6.1555e-05
1.14061e-05
2.50951e-05
-5.76577e-05
7.04245e-05
-1.18701e-05
1.14044e-05
2.83726e-06
-1.42772e-05
4.31686e-06
3.04283e-05
0.00011084
-4.07657e-05
-4.42865e-06
2.23623e-05
-1.80723e-05
-0.000107299
4.55331e-05
6.19373e-05
-0.000124877
-0.000236963
-3.33494e-05
8.546e-05
-5.08438e-05
5.67347e-05
7.14917e-05
-7.01134e-05
-0.000150378
0.000206386
-5.24664e-05
-2.17754e-06
-2.32451e-05
2.18328e-05
-1.14707e-05
-1.03947e-05
-0.000136006
-0.000170467
-3.3534e-05
4.76839e-05
4.60666e-05
2.47517e-05
-7.10057e-05
0.000104145
2.24411e-05
-0.000124164
0.000109324
-8.3935e-05
-2.51261e-05
8.44468e-05
-1.20143e-05
-7.30124e-05
-5.21669e-05
-5.40555e-07
5.96864e-05
6.10064e-05
3.74146e-05
6.12374e-05
4.22164e-05
-0.000112007
1.19541e-05
-3.38034e-07
3.74457e-05
-3.71265e-05
7.99913e-06
-4.85891e-05
-8.27473e-06
2.12015e-05
-0.000101078
0.000176579
0.000179771
-1.74079e-05
-7.56692e-05
-9.59858e-05
3.93901e-05
5.7539e-05
-5.84092e-05
9.92722e-05
-2.99943e-05
-9.93022e-05
0.000132798
-1.78199e-05
-4.98027e-06
8.68659e-06
-1.36996e-05
5.001e-06
-3.33116e-05
-1.77969e-05
5.11086e-05
-9.8565e-05
-2.14291e-05
1.70824e-05
-4.19136e-05
-7.00796e-07
4.24725e-05
2.18587e-05
-6.68119e-05
-3.3061e-05
2.03775e-05
1.28529e-05
4.11273e-06
4.48503e-05
7.92113e-05
1.10316e-05
-8.99743e-05
-4.20354e-05
8.63893e-05
-4.43248e-05
-8.74499e-05
0.000159017
-1.92533e-05
2.84738e-05
-9.18799e-06
-0.000317481
0.000243001
7.6234e-05
3.07527e-06
-9.1887e-06
-2.47762e-05
-2.16794e-06
-3.06466e-05
3.52428e-05
-4.64815e-06
-0.000310209
0.000222636
1.34018e-05
5.39742e-05
1.1868e-05
-4.55653e-05
-0.000124771
7.86838e-06
0.000122141
1.34402e-05
-4.7955e-06
2.09607e-05
-3.31617e-05
1.88579e-05
6.25102e-06
4.50658e-05
-2.30829e-05
-2.21597e-05
-0.000137469
2.07229e-05
0.000227379
9.93307e-05
-0.00032639
4.78907e-05
-6.25988e-05
0.000314325
-0.000209716
0.000328658
-0.00010093
-6.50222e-05
3.35526e-05
3.14325e-05
9.63683e-06
1.21673e-05
0.000162453
-0.000198212
-5.95699e-05
3.56879e-05
2.3815e-05
0.00027811
3.80875e-05
-2.07081e-05
-0.000150959
-1.22242e-05
0.000118774
8.60742e-06
5.58939e-05
3.4684e-05
-9.10527e-05
-0.000119544
0.000212269
-8.9455e-05
5.40338e-05
-0.000127157
7.56126e-05
-7.1486e-05
-6.42638e-05
-3.87396e-05
-2.55273e-05
6.56948e-05
-1.4567e-05
-3.09945e-05
4.5485e-05
-0.000212841
0.000162753
5.52215e-05
-3.7076e-05
7.16285e-05
-3.48688e-05
-2.65653e-05
4.5961e-05
-0.000212375
0.000138246
7.46792e-05
-5.62812e-06
9.6941e-06
-4.44654e-06
-1.17198e-05
-0.000163246
0.000178288
2.15598e-05
2.28386e-05
-3.24491e-05
-2.82265e-06
3.58216e-05
-0.000115445
4.42337e-05
7.14348e-05
4.20445e-05
1.11779e-05
-5.32604e-05
-3.1762e-05
2.94908e-05
-8.40421e-06
2.92943e-05
-2.51187e-05
-0.000108492
0.000219369
1.48329e-05
-0.000230356
-3.14954e-06
-1.30686e-05
1.61999e-05
-2.05779e-05
8.93062e-05
0.000104646
-0.000193797
-7.7749e-05
-0.000173843
0.000254218
-4.34579e-06
-4.65843e-05
-0.000166861
-6.70897e-06
-6.63504e-05
7.32071e-05
7.96135e-05
0.000232128
0.000122574
-0.000126838
5.92577e-06
7.58486e-05
4.40769e-05
1.5239e-05
-5.973e-05
1.41588e-05
-3.22121e-06
-1.03818e-05
-3.15854e-05
2.73085e-05
-6.07689e-05
0.000127351
-0.000214565
8.84422e-05
4.43609e-05
0.0003224
-0.000261699
-5.69383e-05
-4.183e-05
-1.1477e-05
9.51154e-05
1.11215e-05
-2.88435e-05
-1.9179e-05
-7.53557e-05
-0.000174816
-8.54114e-05
-0.000126217
-3.87582e-05
-5.98375e-06
2.27438e-05
-3.79793e-05
-1.98299e-05
5.77893e-05
-1.43013e-05
1.11363e-05
-5.81287e-05
4.352e-05
-5.88373e-05
6.47533e-05
-5.91731e-06
-2.30082e-05
-2.88512e-05
-8.31346e-06
3.70997e-05
1.28103e-05
6.56389e-05
-0.000236216
0.000171074
-1.80199e-05
0.000146851
-0.00012809
6.31148e-05
4.63222e-05
0.000307071
5.90107e-05
7.38333e-05
-0.00022025
0.000218029
-5.18029e-05
-0.000165819
3.28146e-05
-1.10313e-05
-2.17072e-05
-3.46221e-05
6.56675e-05
-2.99516e-05
-0.000197542
-7.40721e-05
0.000272981
3.46068e-05
-0.000117678
8.37207e-05
-1.19135e-05
5.57489e-05
-4.34945e-05
-2.86088e-05
-0.000258106
0.000287147
4.35817e-05
-3.48001e-05
-8.78857e-06
3.65381e-05
0.00017468
-0.000207145
-1.48822e-05
3.61348e-06
1.12507e-05
-8.21664e-06
-0.000106948
0.000203314
-0.000195346
3.9099e-05
-2.74412e-05
-1.09147e-05
1.65776e-05
6.07456e-05
-7.71161e-05
-3.38995e-06
0.000139005
-6.55028e-05
1.01483e-05
5.53909e-05
9.0647e-05
-2.74474e-05
-2.60473e-05
-2.10768e-05
4.71476e-05
9.33204e-06
3.25592e-05
-4.19563e-05
-1.8796e-05
-8.96637e-06
-2.01943e-05
1.35612e-05
6.68448e-06
0.00022803
-9.91999e-05
5.86716e-05
-2.51515e-05
-9.18294e-06
4.80064e-07
8.66929e-06
1.49091e-05
-4.116e-05
-4.51014e-05
4.62439e-05
-8.27042e-07
-7.32245e-06
0.000225128
-0.000213834
0.000212153
-4.28259e-05
-2.72057e-05
7.0017e-05
5.46665e-07
1.08309e-05
-1.15192e-05
7.38616e-05
-6.16508e-05
-4.1924e-05
9.72506e-05
-0.000316331
4.23779e-05
0.000274835
4.57647e-05
2.27821e-05
-6.86554e-05
-1.43378e-05
1.01384e-05
3.26537e-05
-3.1388e-06
-2.95221e-05
2.57984e-05
-3.74014e-05
1.23766e-05
-2.53218e-05
-1.43028e-05
3.96095e-05
9.08728e-05
0.000175169
3.24978e-05
-8.47022e-05
-5.11659e-06
8.92077e-05
-8.01882e-06
-2.50424e-05
0.000233637
-7.53776e-05
2.69992e-05
1.66104e-05
-4.36818e-05
-6.32804e-05
-4.3809e-05
3.62633e-05
-6.60688e-05
3.30118e-05
-0.000271861
-2.13557e-05
-1.27148e-05
-1.71126e-05
2.98332e-05
0.000180942
-0.00015954
-1.95211e-05
8.26151e-05
-7.69672e-05
-5.04737e-06
-9.84184e-06
-3.44205e-05
4.39277e-05
-5.08265e-05
-1.79345e-05
6.82279e-05
-6.87578e-06
-4.17978e-05
4.91546e-05
-1.9492e-05
-2.75351e-05
4.7002e-05
1.17059e-05
-5.29799e-06
5.97332e-05
2.93194e-05
-8.76152e-05
-8.19675e-06
-4.89072e-05
-5.37685e-05
1.51131e-05
3.85567e-05
5.12198e-05
-5.00003e-05
-7.03296e-07
-1.93874e-05
5.01886e-05
9.71748e-06
2.06538e-05
-0.000194557
-2.67701e-05
0.00022474
0.000201689
-0.000154249
-3.15743e-05
-1.70833e-05
3.36666e-05
-7.35642e-05
4.03643e-05
3.30972e-05
8.01031e-05
-3.45865e-05
-7.77917e-05
7.12381e-05
-1.41156e-05
-7.12313e-05
3.42726e-05
-3.00448e-05
-4.29e-05
-4.43352e-05
9.8368e-06
-4.31385e-05
3.32907e-05
-9.97863e-05
-4.42484e-05
0.000144687
-3.90679e-06
-1.09912e-05
4.70268e-05
-1.38202e-05
-3.32572e-05
-5.33842e-05
2.38411e-05
2.95151e-05
-4.38735e-06
0.000141124
-0.00013386
4.3618e-06
-5.02538e-05
-2.4393e-05
5.15854e-06
-2.00688e-05
-0.000198683
0.000222312
1.08039e-05
-2.40159e-05
4.40288e-07
-2.47448e-05
2.42768e-05
2.91353e-05
-2.2722e-05
-4.24003e-05
-0.000211858
0.000257416
6.70126e-05
-7.55189e-05
-6.41366e-05
-5.33185e-05
0.000117948
-5.13497e-05
-3.11459e-05
8.25678e-05
0.000168914
0.000148817
9.73501e-06
-1.56924e-05
1.00213e-05
-0.000195436
-5.71485e-05
0.000252889
5.21577e-05
-6.35979e-05
-1.3283e-05
-0.000194326
1.901e-05
-1.11033e-05
2.47888e-05
1.28503e-05
3.4116e-05
-0.000191681
-5.12747e-05
0.00024426
-9.14279e-05
3.27528e-05
-0.000116172
-0.000200933
0.000203654
-0.000231928
0.00016279
-0.000169592
8.23858e-06
-4.26522e-05
1.7309e-05
-3.73356e-06
4.48559e-05
-4.10068e-05
2.18618e-05
0.00010181
0.000142405
-3.18071e-05
-0.000105947
-5.82837e-06
5.60253e-05
-4.83033e-05
3.78564e-05
7.89705e-06
-5.8524e-05
0.000114638
-3.79692e-05
-1.92562e-05
5.7392e-05
3.60923e-05
-6.40474e-05
2.92011e-05
-8.697e-05
0.000176437
-5.7723e-05
6.18669e-05
-0.000192545
2.52592e-05
0.000168136
-2.72357e-05
-2.6976e-05
5.42e-05
5.04711e-05
-5.55232e-05
-5.42581e-06
-9.17603e-05
9.65878e-05
4.35982e-05
-5.18123e-05
-2.10962e-05
4.09778e-05
-1.98706e-05
-0.000211974
-9.28191e-05
4.15943e-05
-9.16238e-05
0.000126961
4.6332e-05
6.64842e-05
-0.000112501
-1.92602e-05
1.96319e-05
-2.70147e-05
3.94331e-05
-1.13101e-05
2.16906e-05
2.18904e-05
5.09505e-05
6.13756e-05
-2.71426e-06
-8.30695e-05
2.42375e-05
4.11937e-05
-3.82812e-05
-2.9104e-06
4.68708e-05
2.19892e-05
2.47029e-05
-6.24185e-05
-9.28744e-06
-3.25884e-05
-2.42085e-05
-2.9194e-05
-1.93419e-05
2.38245e-05
-4.48745e-06
-0.000253339
9.15298e-05
0.000164901
4.34702e-05
7.60853e-06
3.81912e-06
-1.14509e-05
-1.78766e-05
-4.55297e-05
6.33183e-05
5.95564e-05
-7.74462e-05
-7.52098e-06
-6.84163e-05
2.16892e-05
-4.89074e-05
-2.47239e-05
-3.2589e-05
5.7279e-05
9.18539e-05
0.000203889
-4.82029e-06
2.57447e-05
-2.09775e-05
-6.26427e-05
2.5352e-05
-0.00022482
-8.22099e-05
0.000307779
4.88173e-05
6.17186e-06
-5.50662e-05
1.74087e-05
-5.73631e-05
-4.53113e-05
0.000103057
-2.1335e-05
-5.87985e-06
2.7467e-05
5.10886e-05
-2.4818e-05
8.39478e-05
-0.000178164
9.46563e-05
-0.000100109
5.69385e-05
4.26416e-05
0.000161895
-0.000266722
0.000105278
0.000170661
-0.000234401
7.18086e-05
-0.00013522
-2.67649e-05
-0.000168325
4.25297e-05
2.50304e-05
-4.59638e-06
-2.33629e-05
2.61777e-05
2.15716e-07
4.94462e-05
-0.000148592
3.67617e-05
-0.000102884
-1.54363e-05
2.49367e-05
2.04013e-05
6.151e-06
-2.65513e-05
-6.86471e-05
3.18645e-06
7.88202e-06
5.66182e-05
5.1821e-06
-2.0496e-05
1.52768e-05
-0.00019825
0.000173414
2.60811e-05
-6.09213e-05
1.80457e-05
-6.78368e-06
0.000105398
-0.000115021
1.24044e-05
1.2227e-06
3.31048e-05
1.45714e-05
-2.99504e-05
-0.000184247
4.87799e-05
0.00013773
-0.00025554
2.91046e-05
4.2251e-05
0.00019666
-0.000234129
-7.5079e-05
-2.17826e-05
9.6427e-05
-3.83203e-05
1.08008e-05
3.15297e-05
-6.88591e-05
9.50453e-06
3.20692e-06
0.000120414
2.71586e-05
-5.31891e-05
2.8429e-05
-0.000101606
-1.80926e-05
0.000120163
-3.78711e-07
1.37167e-05
7.69517e-05
-5.2001e-05
0.00011151
-5.0238e-05
3.34157e-05
-7.19783e-05
-1.69221e-05
1.64617e-05
-9.77015e-05
4.06082e-05
-4.47138e-05
-0.000152091
-3.14238e-05
-1.64366e-05
-0.000117792
-9.42772e-06
-8.49276e-05
9.46254e-05
-8.09967e-05
-2.60648e-05
3.88489e-05
1.71638e-05
-9.12754e-05
7.5203e-05
-6.39745e-05
-8.14221e-06
7.23751e-05
-0.000161604
-0.000154499
6.38408e-05
-0.000299621
0.000203897
0.000142598
-0.000366671
-2.73155e-05
4.66093e-05
-1.93305e-05
-5.41549e-06
2.79648e-05
-2.18866e-05
7.07239e-05
-2.63445e-05
2.84802e-05
4.87311e-05
2.9706e-05
-2.57244e-06
-2.71465e-05
-1.22919e-05
-1.70919e-06
1.00784e-05
-3.61548e-05
9.07432e-05
-4.41616e-05
-0.00010747
-0.000104392
-0.000216913
0.000303552
-0.000269067
-7.80511e-05
1.47158e-05
6.62363e-05
-5.64458e-05
5.2899e-05
1.45956e-05
-4.54785e-05
2.55094e-06
4.32622e-05
-4.85307e-05
5.21256e-05
-3.39415e-06
-8.52543e-05
0.000169551
-3.14879e-06
-1.23573e-05
-0.000112907
0.000208399
-9.31961e-05
-2.68415e-05
2.44828e-05
-2.6318e-05
-2.18235e-05
-5.25927e-05
0.000121267
-2.87539e-05
-9.14758e-05
3.66004e-05
-1.26393e-05
-0.000275011
0.000261546
1.36991e-05
-2.40662e-05
-1.32962e-05
3.74307e-05
9.53605e-05
2.28426e-05
3.9332e-05
-3.9636e-05
3.18151e-07
6.3907e-06
-2.57424e-05
-3.76272e-06
-9.84085e-06
1.89325e-05
-9.00248e-06
-2.42275e-05
5.29283e-05
-2.93956e-05
-1.19561e-05
1.61914e-05
-0.00024809
8.29542e-05
0.00016674
3.48464e-05
3.21357e-05
-5.16251e-05
0.000206124
-0.000217496
1.13048e-05
0.000306011
-6.71221e-05
-4.00035e-05
6.21035e-05
-2.07083e-05
7.69476e-05
-5.90555e-05
-1.83969e-05
-1.81969e-05
-2.05672e-05
3.87285e-05
0.000127828
-2.31458e-05
-0.000103142
5.62327e-05
2.90462e-05
-8.45517e-05
7.86944e-06
7.15973e-05
7.16329e-06
2.55057e-05
0.000134227
8.97927e-05
-0.00023523
9.44021e-05
0.000142301
-3.32387e-05
5.44997e-05
-2.13344e-05
-1.32237e-05
-6.19543e-05
2.7626e-05
4.61068e-05
-3.79732e-05
-5.3546e-06
3.32213e-05
-5.75142e-05
4.80695e-05
-4.35075e-05
-4.51119e-06
-4.23182e-05
-1.35058e-05
5.56194e-05
4.06241e-05
-1.85388e-06
-7.82954e-05
8.97671e-05
-1.09912e-05
3.36921e-05
6.51476e-05
9.54904e-05
-0.000160675
2.16248e-05
-2.34589e-05
8.06386e-06
4.33494e-05
-0.000132721
0.000131163
0.000108517
-4.37247e-05
1.60647e-05
6.04873e-05
-7.73248e-05
-0.000100565
8.22007e-05
1.882e-05
-8.63634e-05
-3.171e-05
0.0001226
2.82914e-05
7.76979e-05
-0.000105637
-9.30966e-05
-5.20786e-06
-4.74924e-05
5.26663e-05
-8.40097e-05
6.23038e-06
6.93615e-05
-6.06699e-05
-8.70609e-06
0.000191797
-0.000122658
-1.07204e-05
3.56001e-05
5.39856e-05
-8.9373e-05
7.46317e-05
-0.000150388
8.04501e-05
3.07402e-05
-6.29626e-05
3.52843e-05
-1.48432e-05
-5.23741e-05
6.3378e-05
3.15247e-05
2.98709e-05
2.4607e-05
0.000267448
-7.54497e-05
-0.000187699
-6.69462e-05
-0.000183335
-9.33976e-06
0.00012499
-0.000115135
6.17027e-05
0.000172159
-0.00023141
0.000178152
-0.000137149
-3.68216e-05
8.23837e-05
-2.72108e-05
-3.82882e-06
-2.37538e-05
-3.09536e-05
6.508e-06
2.44245e-05
-7.92973e-05
1.05009e-05
-5.29633e-05
-0.0001546
-0.000153338
0.000308855
0.000120309
-4.58067e-08
-6.42383e-05
-2.93041e-05
9.36582e-05
8.42718e-06
1.04541e-05
-3.15124e-05
8.56565e-05
-0.000105217
1.90817e-05
2.65141e-05
-3.02371e-05
8.51997e-06
-5.63702e-05
4.80796e-05
1.23101e-05
-5.80744e-05
0.000318585
1.59543e-05
-0.000101255
8.83418e-05
1.5506e-05
-3.36955e-05
-0.000110825
0.000273276
-5.12879e-05
5.93876e-05
-7.39949e-06
-0.000129792
1.09273e-05
2.92767e-05
-7.84746e-06
-2.14011e-05
1.71511e-06
-1.45332e-05
2.35376e-06
-5.1271e-05
-0.000257825
0.000313086
-5.37923e-05
-0.000110644
7.86209e-05
-2.29554e-05
3.18888e-05
-8.80184e-06
-5.60772e-05
-8.71216e-05
0.000143646
7.40454e-05
-2.08617e-05
0.000257238
5.79201e-05
-8.77371e-05
3.11002e-05
7.10954e-06
9.23734e-05
-9.37522e-05
6.84539e-05
-3.56908e-05
-3.28299e-05
0.000302631
-9.33193e-05
-0.000208314
2.93827e-05
2.76986e-05
0.000137839
-0.000105764
-2.93916e-05
1.6045e-05
-2.13996e-05
5.36027e-06
1.9712e-05
-3.89637e-06
-1.58272e-05
9.4006e-05
-1.10689e-05
-8.17724e-05
-7.61614e-05
1.57987e-05
6.55896e-05
-8.82457e-05
4.18968e-05
4.62041e-05
-2.32736e-05
5.35493e-05
-3.02825e-05
-2.28779e-05
8.37377e-05
-6.6325e-05
5.26165e-05
0.000303265
1.34754e-06
3.94642e-05
-4.23784e-05
2.86263e-06
-1.71053e-05
0.000125499
-9.38404e-06
2.40142e-05
1.68985e-05
-0.000243591
0.000230203
-6.81239e-05
7.95504e-05
-3.87615e-06
4.31894e-05
3.21036e-05
-0.000182419
0.000173926
1.2768e-05
-7.3526e-05
3.85686e-06
7.08938e-06
-1.09787e-05
9.82714e-05
-6.27905e-05
-3.55008e-05
1.16961e-05
-4.07913e-06
-0.000178186
0.00014741
2.03359e-05
-1.51985e-05
0.000260589
-0.000211281
2.78594e-05
-0.000108556
-0.000113268
-0.00022292
-1.78078e-06
-2.18989e-05
-0.000103694
2.45302e-06
0.000101537
-9.63228e-06
-2.86961e-06
1.24823e-05
-2.47573e-05
2.89122e-05
-4.18658e-06
5.41818e-05
6.09542e-05
3.03253e-05
-1.55714e-06
-6.40932e-05
5.32449e-05
-0.000181312
-2.42478e-05
-4.41992e-05
-4.40593e-05
7.48696e-05
-5.26848e-06
2.80116e-05
-2.62829e-05
-1.5158e-05
7.42395e-05
-1.80273e-05
-0.000219684
0.000203006
-3.83171e-06
3.09957e-05
-0.000148418
4.73595e-05
9.73994e-06
-3.61129e-05
3.86688e-05
9.06805e-06
9.31729e-05
8.97182e-06
-0.000101907
-2.51078e-05
5.74214e-06
-2.10684e-05
1.12658e-05
7.74709e-06
-1.19838e-05
-2.61282e-05
3.79718e-05
-4.51624e-05
-0.000261979
5.64802e-06
-7.46072e-05
6.97195e-05
-1.87547e-05
-4.78244e-05
-1.06925e-05
-2.52903e-05
3.59666e-05
-3.11876e-05
1.94247e-05
1.76387e-05
-4.71965e-05
2.95086e-05
1.82297e-05
-9.72256e-06
-8.16386e-05
1.24922e-05
4.41091e-05
-7.81745e-05
3.41082e-05
6.59674e-05
-2.18236e-05
-3.6843e-05
1.71596e-05
1.96661e-05
3.07319e-05
-3.36052e-05
-3.50459e-05
6.85754e-05
-0.000232818
1.95777e-05
-1.05833e-05
-9.55795e-05
1.96898e-05
-2.27165e-05
2.99508e-06
-4.32466e-05
-0.000138704
-5.40763e-06
-2.78171e-05
1.03032e-05
-1.13848e-05
1.06979e-06
-0.000107946
-9.85717e-05
0.000208865
-1.13715e-05
-5.93661e-05
-0.000249264
5.81329e-05
0.000135478
-0.000240451
1.8312e-05
8.06723e-06
-0.000198563
4.73483e-05
0.000155542
6.93132e-05
-6.30066e-05
-6.36193e-06
1.74e-05
0.000214807
-0.000148174
-6.38461e-05
-5.14794e-05
1.75062e-05
0.000255931
-4.61015e-05
-0.000208812
-3.97099e-05
3.91655e-06
3.56302e-05
-1.46045e-05
5.34917e-08
1.45261e-05
0.000174832
-4.26314e-05
-3.10853e-05
6.09273e-05
8.06045e-05
-0.000139889
1.00933e-05
8.50986e-05
7.60791e-05
2.21205e-05
-0.000209048
7.68113e-05
-7.3476e-05
-3.13784e-06
-6.33363e-05
-7.30132e-06
1.11555e-05
4.04455e-05
-3.97542e-05
-6.71111e-07
-4.41987e-05
2.75099e-05
1.66688e-05
-6.27769e-05
6.81688e-05
-1.32571e-05
1.11226e-05
2.12956e-06
-2.35762e-05
-6.23523e-06
2.97919e-05
-2.85848e-05
-1.56284e-05
-3.73756e-05
5.36752e-06
3.19368e-05
0.000308357
-0.000218396
-8.77402e-05
0.00017348
9.79987e-05
5.48327e-05
2.95796e-06
-5.81659e-05
7.21332e-05
5.95503e-05
-0.000296668
0.000238315
4.51427e-06
0.000161959
-0.000198969
0.000237861
-6.61309e-05
-0.000171071
0.000196835
-6.2492e-05
-0.00020044
-3.06044e-05
-1.27187e-05
-0.000160905
0.000110633
-4.60348e-05
-6.58026e-05
0.000112807
8.31178e-05
-0.000193628
1.27011e-05
2.69775e-05
0.000191278
-5.01327e-06
-2.40284e-05
1.70532e-05
6.97659e-06
7.1267e-05
-3.10036e-05
-4.03639e-05
4.07094e-05
-5.23349e-05
1.24709e-05
0.000115513
-0.000135248
2.08612e-05
1.07269e-05
-4.41115e-07
0.0001101
-5.8852e-05
4.30542e-05
5.92931e-05
-6.94136e-05
4.71416e-05
-0.000189544
0.000143981
0.000240584
6.29068e-05
-0.000168431
2.10334e-06
0.000169881
0.000106797
6.48051e-05
-0.000170533
0.000241361
-1.82954e-05
-0.000170981
-2.28683e-05
-0.000114163
-8.23692e-05
0.00028524
7.6172e-06
-7.90898e-06
-9.203e-05
6.36869e-05
-0.000119764
1.19007e-06
-2.38449e-05
1.05064e-05
1.57741e-05
-1.34458e-05
-2.33433e-06
-1.25645e-06
1.43302e-05
-1.30186e-05
-4.11542e-05
-4.36712e-06
6.32741e-05
2.78159e-05
-8.8924e-05
2.65556e-05
1.85694e-05
-1.50217e-05
-3.50768e-06
-7.52237e-06
0.000163482
-0.000278924
0.000206268
-5.30399e-05
-5.79009e-06
-0.000157521
-9.38064e-05
0.000252169
-0.000121278
-5.71853e-06
-8.49318e-06
-2.7993e-05
7.39414e-05
5.45275e-05
8.11402e-05
-0.000135053
0.000126492
-0.0001476
2.43337e-05
3.07369e-05
8.88605e-06
-1.45178e-05
-6.08346e-05
0.000149984
-8.73615e-05
-0.000133967
0.000106734