/*--------------------------------*- C++ -*----------------------------------*\
| =========                 |                                                 |
| \\      /  F ield         | OpenFOAM: The Open Source CFD Toolbox           |
|  \\    /   O peration     | Version:  v2012                                 |
|   \\  /    A nd           | Website:  www.openfoam.com                      |
|    \\/     M anipulation  |                                                 |
\*---------------------------------------------------------------------------*/
FoamFile
{
    version     2.0;
    format      ascii;
    class       volVectorField;
    location    "550";
    object      cellDisplacement;
}
// * * * * * * * * * * * * * * * * * * * * * * * * * * * * * * * * * * * * * //

dimensions      [0 1 0 0 0 0 0];


internalField   nonuniform List<vector> 
13917
(
(0.0243694 0.130934 0)
(0.0175855 0.118218 0)
(0.0224778 -0.0531377 0)
(0.0176895 -0.0572135 0)
(0.0033865 0.0944692 0)
(0.00634753 0.189541 0)
(0.0221883 -0.0653994 0)
(0.022698 -0.0438789 0)
(0.0239821 0.0100593 0)
(0.0254854 0.131878 0)
(0.0223639 -0.0514514 0)
(0.0209999 -0.0798781 0)
(0.0176903 -0.059819 0)
(0.0230012 -0.0314862 0)
(0.0178061 0.164741 0)
(0.0188535 0.15666 0)
(0.0173746 0.128174 0)
(0.0240642 0.0448782 0)
(0.0209008 -0.0815777 0)
(0.004946 0.0433626 0)
(0.0010912 0.0170501 0)
(0.0221574 -0.0667371 0)
(0.00655169 0.0696929 0)
(0.0226905 -0.0441208 0)
(0.00850048 0.119926 0)
(0.0218009 -0.0816652 0)
(0.00671706 0.184508 0)
(0.0137722 0.185299 0)
(0.0261851 0.186994 0)
(0.0255641 0.0984193 0)
(0.0245923 0.122128 0)
(0.0225906 0.128309 0)
(0.0106847 0.18202 0)
(0.00347173 0.174762 0)
(0.00712259 0.126143 0)
(0.0221865 -0.0631096 0)
(0.00624477 0.0670359 0)
(0.0230016 -0.0314468 0)
(0.0183352 -0.0668688 0)
(0.0210214 -0.114844 0)
(0.00138109 0.00733955 0)
(0.00048497 0.00681106 0)
(0.0082557 0.00532257 0)
(0.017445 0.18657 0)
(0.0184265 0.0667804 0)
(0.00542669 0.177399 0)
(0.0239882 0.0426429 0)
(0.0235892 0.0122606 0)
(0.00999754 0.189749 0)
(0.00128565 0.0089365 0)
(0.0220113 0.025314 0)
(0.00539578 0.157741 0)
(0.00891708 0.189778 0)
(0.00366581 0.175495 0)
(0.0173466 0.130172 0)
(0.022643 0.0661041 0)
(0.0224023 -0.0494925 0)
(0.012434 0.134856 0)
(0.0220869 0.0811409 0)
(0.0182102 0.0673419 0)
(0.0265462 0.119185 0)
(0.0177543 0.116717 0)
(0.0229745 -0.0326066 0)
(0.00523882 0.0461654 0)
(0.00750301 0.189447 0)
(0.0274788 0.162456 0)
(0.00162767 0.0984012 0)
(0.00203049 0.128945 0)
(0.0235187 -0.00452349 0)
(0.0236528 0.146229 0)
(0.00345381 0.0917779 0)
(0.0239654 0.00939889 0)
(0.0243367 0.0247658 0)
(0.00847264 0.117879 0)
(0.0127556 0.189682 0)
(0.0203002 -0.104261 0)
(0.0238969 0.00623172 0)
(0.0202264 0.0597713 0)
(0.021431 -0.0971695 0)
(0.00209238 0.0315942 0)
(0.00305462 0.0370725 0)
(0.00158025 0.0943025 0)
(0.010565 0.189315 0)
(0.0230127 -0.0309701 0)
(0.0268445 0.130608 0)
(0.0200616 0.0574456 0)
(0.00397015 0.0428046 0)
(0.0274818 0.163883 0)
(0.0218981 0.0245765 0)
(0.00862007 0.00445781 0)
(0.023934 0.00781072 0)
(0.0257344 0.118057 0)
(0.015985 0.0840616 0)
(0.0140281 0.15902 0)
(0.0275148 0.165148 0)
(0.00330458 0.189541 0)
(0.0229277 -0.0255368 0)
(0.0237318 0.0214978 0)
(0.0210223 -0.0985325 0)
(0.0120484 0.18797 0)
(0.00739764 0.0370787 0)
(0.00350107 0.181476 0)
(0.0164526 0.18673 0)
(0.0205218 0.0391095 0)
(0.0121303 0.0583164 0)
(0.0241844 0.0186495 0)
(0.0260276 0.185601 0)
(0.0236324 0.0127175 0)
(0.0176365 0.126992 0)
(0.0247621 0.128822 0)
(0.0255244 0.0747966 0)
(0.0210462 -0.113794 0)
(0.0211275 -0.0845963 0)
(0.0241487 0.0171105 0)
(0.00489052 0.165811 0)
(-0.000278328 0.18999 0)
(0.00918366 0.0990983 0)
(0.00843003 0.18974 0)
(0.0220874 -0.0699541 0)
(0.00557872 0.175332 0)
(0.000936031 0.0132 0)
(0.0235544 -0.00272274 0)
(0.022375 -0.0578238 0)
(0.0132135 0.18504 0)
(0.00121265 0.00776508 0)
(0.0137962 0.158039 0)
(0.0181367 0.0805069 0)
(0.000974486 0.00632928 0)
(0.0049515 0.00715462 0)
(0.00454667 0.18958 0)
(0.0222392 -0.0635323 0)
(0.00470201 0.16486 0)
(0.0185673 0.0691932 0)
(0.00087137 0.0140461 0)
(0.0251608 0.0614054 0)
(0.0226532 -0.0456565 0)
(0.0243681 0.133579 0)
(0.0117324 0.18822 0)
(0.00186711 0.100498 0)
(0.00489463 0.17518 0)
(0.0222725 -0.0589596 0)
(0.0144389 0.0497 0)
(0.00787619 0.160505 0)
(0.0166575 0.187316 0)
(0.00227664 0.130341 0)
(0.0239517 0.00901382 0)
(0.0266219 0.186095 0)
(0.0055578 0.156549 0)
(0.0135576 0.0433501 0)
(0.022575 0.135355 0)
(0.0226732 -0.0175637 0)
(-0.00157816 0.190021 0)
(0.0222067 -0.0480166 0)
(0.0234521 0.162671 0)
(0.0227893 0.100273 0)
(0.0275455 0.160692 0)
(0.0234649 0.146632 0)
(0.0231022 -0.0257957 0)
(0.0239163 0.00704514 0)
(0.0252069 0.0633804 0)
(0.0106733 0.169584 0)
(0.000942282 0.184484 0)
(0.00218678 0.0279814 0)
(0.0228755 -0.0270138 0)
(0.0211654 -0.0823407 0)
(0.0210492 -0.0967839 0)
(0.0204949 0.0419652 0)
(0.0231862 0.000463782 0)
(0.0171628 0.0655993 0)
(0.00303028 0.181923 0)
(0.0238162 0.158043 0)
(0.0258774 0.0896353 0)
(0.0209668 -0.0915883 0)
(0.017905 0.13649 0)
(0.0236691 -0.00272179 0)
(0.0236925 0.166886 0)
(0.0222217 -0.0642573 0)
(0.00842319 0.189765 0)
(0.0239142 0.00749589 0)
(0.0147187 0.106819 0)
(0.0257418 0.115168 0)
(0.024701 0.120203 0)
(0.0144581 0.0472953 0)
(0.00419825 0.0457487 0)
(0.0175471 0.173042 0)
(0.0218022 -0.0815061 0)
(0.0262108 0.112923 0)
(0.0275209 0.159946 0)
(0.0238101 0.0655943 0)
(0.0214843 -0.0812281 0)
(0.0227191 -0.0408518 0)
(0.0268598 0.131381 0)
(0.0264366 0.124859 0)
(0.00610127 0.0773447 0)
(0.00762672 0.188492 0)
(0.0069744 0.1841 0)
(0.000486196 0.0019541 0)
(0.0161478 0.0862118 0)
(0.0257447 0.183806 0)
(0.027532 0.167724 0)
(0.0206747 -0.0176876 0)
(0.00120213 0.00845704 0)
(0.0229463 -0.0056538 0)
(0.0225929 -0.0195722 0)
(0.0243273 0.0243675 0)
(0.0245639 0.0362032 0)
(0.00684011 0.12467 0)
(0.0125518 0.136595 0)
(0.0236452 0.0184309 0)
(0.0220985 -0.0690382 0)
(0.00806731 0.159364 0)
(0.0222653 -0.0621835 0)
(0.0243479 0.0252366 0)
(0.0215239 -0.0792946 0)
(0.0121478 0.060072 0)
(0.022061 0.18869 0)
(0.0234588 0.0152222 0)
(0.0253123 0.0658455 0)
(0.0110994 0.106223 0)
(0.0265568 0.120005 0)
(0.014486 0.105272 0)
(0.025287 0.0863927 0)
(0.00163887 0.00892705 0)
(0.0232433 -0.0212608 0)
(0.0242552 0.0216192 0)
(0.0191586 0.157014 0)
(0.0274657 0.169809 0)
(0.0229037 0.0980484 0)
(0.0118311 0.0598548 0)
(0.0221492 -0.064399 0)
(0.0208724 -0.0934668 0)
(0.0237342 0.0628096 0)
(0.022534 -0.0506561 0)
(0.0243698 0.0261583 0)
(0.00471455 0.0199964 0)
(0.0227634 0.127519 0)
(0.0239452 0.00829076 0)
(0.0270997 0.141313 0)
(0.00242212 0.0317335 0)
(0.00855618 0.0616596 0)
(0.0207673 -0.125537 0)
(0.0230792 -0.020779 0)
(0.000207028 0.00167288 0)
(0.0219491 -0.0715154 0)
(0.0245279 0.0470839 0)
(0.00041536 0.184107 0)
(0.0241124 0.125308 0)
(0.00239844 0.0299344 0)
(0.022909 0.171946 0)
(0.0241856 0.0183911 0)
(0.0165703 -0.0091653 0)
(0.0259838 0.119505 0)
(0.0141824 0.188302 0)
(0.0179902 0.0779513 0)
(0.0120457 0.134461 0)
(0.021995 -0.0496143 0)
(0.0208801 -0.120766 0)
(0.0221698 -0.0482171 0)
(0.0179657 0.173173 0)
(0.0182044 0.164057 0)
(0.000349246 0.00286035 0)
(0.0223672 -0.0581525 0)
(0.0250201 0.0541627 0)
(0.0215867 -0.0864567 0)
(0.0118481 0.0615299 0)
(0.0247131 0.0405969 0)
(0.023109 -0.0269307 0)
(0.0230898 -0.026498 0)
(0.0214009 -0.0984915 0)
(0.0203493 -0.104984 0)
(0.00287151 0.0357478 0)
(0.00146018 0.00889511 0)
(0.023872 0.0366401 0)
(0.0234577 -0.0122293 0)
(0.023926 0.0162388 0)
(0.0219475 0.0787735 0)
(0.0246035 0.0376876 0)
(0.0195671 -0.0935231 0)
(0.00379514 0.00487805 0)
(0.0257718 0.0866501 0)
(0.00499243 0.041666 0)
(0.0236264 -0.00457656 0)
(0.0205464 -0.0177642 0)
(0.000207324 0.00167081 0)
(0.0202329 0.15888 0)
(0.0234098 0.164106 0)
(0.00222393 0.184501 0)
(0.0219911 -0.0701677 0)
(0.0215908 0.164307 0)
(0.0177894 0.0165564 0)
(0.0252808 0.0678154 0)
(0.0225762 -0.0488691 0)
(0.0250158 0.0538786 0)
(0.0108529 0.105254 0)
(0.0232984 -0.0178598 0)
(0.00149017 0.0678117 0)
(0.0176969 0.0129218 0)
(0.00897278 0.0962966 0)
(0.0269135 0.186182 0)
(0.00121221 0.0091662 0)
(0.0253312 0.0865234 0)
(0.0239782 0.126476 0)
(0.0169703 0.0630704 0)
(0.0229146 -0.00812169 0)
(0.0202021 0.118208 0)
(0.00684441 0.189821 0)
(0.0235361 0.166218 0)
(0.0256563 0.117841 0)
(0.0158917 0.0458003 0)
(0.011913 0.132694 0)
(0.0256059 0.0782234 0)
(0.0225288 -0.0513594 0)
(0.00947509 0.100387 0)
(0.00162475 0.00942522 0)
(0.0258041 0.0881863 0)
(0.0150458 0.0988854 0)
(0.0243074 0.0235369 0)
(0.0156788 0.0464128 0)
(0.0232603 -0.0205377 0)
(0.0168234 -0.0427566 0)
(0.0270077 0.155959 0)
(0.0225072 0.00917225 0)
(0.0154106 0.189615 0)
(0.0108003 0.168587 0)
(0.0252413 0.0651176 0)
(0.0192634 0.188637 0)
(0.0202887 0.157424 0)
(0.0231315 -0.0184947 0)
(0.0268344 0.182401 0)
(0.0148223 0.143103 0)
(0.0225638 -0.0498738 0)
(0.00627617 0.188466 0)
(0.0231313 -0.0259933 0)
(0.00653943 0.172907 0)
(0.0215893 -0.0909301 0)
(0.0229952 0.123927 0)
(0.0261435 0.10097 0)
(0.0185411 0.188516 0)
(0.024984 0.180901 0)
(0.0250191 0.18006 0)
(0.0224646 -0.0537686 0)
(0.00254004 0.0420406 0)
(0.0240389 0.157375 0)
(0.0255401 0.0754717 0)
(0.0109379 0.14833 0)
(0.0181969 0.149616 0)
(0.023002 -0.0314518 0)
(0.0259745 0.184318 0)
(0.0181255 0.130799 0)
(0.0227143 -0.0407397 0)
(0.0257437 0.18724 0)
(0.0063283 0.0347214 0)
(0.0221098 -0.0690204 0)
(0.0224082 -0.0537376 0)
(0.00528641 0.0443026 0)
(0.0109278 0.0733936 0)
(0.0013079 0.0645762 0)
(0.0135769 0.0412424 0)
(0.0252327 0.065981 0)
(0.0238329 0.00411159 0)
(-0.00877439 0.189781 0)
(0.0256131 0.0785397 0)
(0.00883637 0.110563 0)
(0.0260259 0.118805 0)
(0.027627 0.16332 0)
(0.0227475 -0.000989322 0)
(0.0222311 -0.0636471 0)
(0.0234619 -0.0120507 0)
(0.0242183 0.0200345 0)
(0.00766945 0.0328567 0)
(0.0215537 -0.0872977 0)
(0.0110524 0.0697227 0)
(0.0265174 0.11861 0)
(0.0181505 0.0699808 0)
(0.0166622 0.189589 0)
(0.0245966 0.0496552 0)
(0.0192029 -0.0413739 0)
(0.00299875 0.0504092 0)
(0.0235987 0.0183081 0)
(0.0258024 0.115242 0)
(0.0241909 0.0377635 0)
(0.0273492 0.189014 0)
(0.0261355 0.100585 0)
(0.025329 0.0665463 0)
(0.0232461 0.171952 0)
(0.0253845 0.132198 0)
(0.00827323 0.0599881 0)
(0.0270833 0.140697 0)
(0.0220287 -0.0721593 0)
(0.0137199 0.133154 0)
(0.0252333 0.065116 0)
(0.00702819 0.111193 0)
(0.0246942 0.0430889 0)
(0.01691 -0.0396762 0)
(0.00218958 0.0365552 0)
(0.0199819 0.124125 0)
(0.0208699 -0.120515 0)
(0.0198554 0.12572 0)
(0.0208786 -0.120808 0)
(0.027802 0.17166 0)
(0.022078 -0.0611143 0)
(0.0176191 0.188995 0)
(0.0149428 0.141507 0)
(0.0210407 0.188697 0)
(0.0187675 0.188855 0)
(0.00799402 0.0777024 0)
(0.0257939 0.185161 0)
(0.0109954 0.146959 0)
(0.00757648 0.118379 0)
(0.0255933 0.100877 0)
(0.000501755 0.00412525 0)
(0.00822338 0.122654 0)
(0.0109709 0.0679917 0)
(0.0252345 0.0665919 0)
(0.00170154 0.025783 0)
(0.021616 -0.0898073 0)
(0.0210611 -0.112117 0)
(0.0278497 0.17283 0)
(0.0264597 0.126868 0)
(0.0212851 -0.103677 0)
(0.0250867 0.0563347 0)
(0.0226581 -0.00280406 0)
(0.00868591 0.108066 0)
(0.0249039 0.0560456 0)
(0.0183741 -0.0638214 0)
(0.0230721 0.128471 0)
(0.00640227 0.0805939 0)
(0.0238677 0.00550421 0)
(0.0220875 -0.0695959 0)
(0.0210571 -0.112011 0)
(0.0180777 0.16032 0)
(0.024455 0.0410251 0)
(0.00609026 0.17221 0)
(0.0184825 -0.0672138 0)
(0.0241253 0.0355318 0)
(0.0189243 0.135093 0)
(0.0214535 -0.091479 0)
(0.0176454 0.124895 0)
(0.00145991 0.011073 0)
(0.0243174 0.0239636 0)
(0.0221812 -0.0659686 0)
(0.0221596 -0.0668701 0)
(0.0263032 0.141293 0)
(0.0278663 0.17344 0)
(0.0225737 -0.0494461 0)
(0.0250967 0.0567907 0)
(0.0236098 -0.0058474 0)
(0.00482172 0.009328 0)
(0.0237693 0.0275717 0)
(0.0190256 0.133346 0)
(0.0123716 0.139671 0)
(0.0246576 0.0403958 0)
(0.0239486 0.0391344 0)
(0.00162147 -0.00209038 0)
(0.0247342 0.072446 0)
(0.0227941 0.00531502 0)
(0.0235063 -0.0101864 0)
(0.00826693 0.0795997 0)
(0.0234258 -0.00435634 0)
(0.0279095 0.177077 0)
(0.027135 0.155743 0)
(0.0217419 -0.0844966 0)
(0.00148886 0.0233208 0)
(0.0136198 0.134656 0)
(0.000881989 0.00339698 0)
(0.0233577 0.149012 0)
(0.00728304 0.03072 0)
(0.0216787 -0.086537 0)
(-0.00747294 0.18972 0)
(0.0215339 0.163009 0)
(0.0272304 0.147077 0)
(0.0225635 0.0626239 0)
(0.0228074 -0.0300918 0)
(0.0251028 0.0570663 0)
(0.0265951 0.1856 0)
(0.0220265 -0.0626447 0)
(0.0223136 -0.0575342 0)
(0.0233873 -0.00639171 0)
(0.0249076 0.0852784 0)
(0.0246209 0.043564 0)
(0.0213569 -0.0498502 0)
(0.0217797 -0.0740402 0)
(0.00937626 0.189428 0)
(0.0208536 -0.070121 0)
(0.0234961 0.00425392 0)
(0.00166408 0.00473185 0)
(0.0249888 0.054285 0)
(0.0222417 0.0302383 0)
(0.0137657 -0.00260072 0)
(0.0231521 0.149386 0)
(0.020369 0.0542474 0)
(0.0235443 -0.00859537 0)
(0.0241159 0.0157477 0)
(0.0147776 0.0979823 0)
(0.00309795 0.00406469 0)
(0.0219751 -0.074085 0)
(0.0251036 0.0570401 0)
(0.000396848 0.00323398 0)
(0.0217387 -0.0846337 0)
(0.0191468 -0.0048395 0)
(0.0263022 0.122295 0)
(0.014949 0.102633 0)
(0.0245212 0.0325238 0)
(0.023768 0.00230133 0)
(0.0226432 0.132855 0)
(0.0191547 0.0957963 0)
(0.0212932 -0.103302 0)
(0.0261851 0.113233 0)
(0.0273453 0.15145 0)
(0.000444822 0.00367945 0)
(0.0242815 0.0224373 0)
(0.00683856 0.189812 0)
(0.0258855 0.0916254 0)
(0.0139216 -6.39399e-05 0)
(0.0268674 0.131507 0)
(0.0249987 0.0529239 0)
(0.0225401 -0.00939892 0)
(0.011065 0.0726422 0)
(0.0167408 0.133955 0)
(0.0200565 -0.110075 0)
(0.0246842 0.0422526 0)
(0.00203123 -0.00299908 0)
(0.0105806 0.0714672 0)
(0.00331731 0.0216965 0)
(0.00348995 0.0225064 0)
(0.0247011 0.0400885 0)
(0.0247051 0.0425061 0)
(0.0225488 -0.00723221 0)
(0.0261215 0.108863 0)
(0.00107096 0.00644337 0)
(0.00707508 0.0360093 0)
(0.0243908 0.0388554 0)
(0.0245762 0.0349724 0)
(0.0236945 0.0785823 0)
(0.0173781 0.0652272 0)
(0.00785549 0.11844 0)
(0.00221767 0.115035 0)
(0.0258486 0.0899059 0)
(0.0268293 0.130198 0)
(0.00392711 0.0394149 0)
(0.00346398 0.114977 0)
(0.0214826 -0.0899713 0)
(0.0214157 -0.0468186 0)
(0.0224176 0.00562035 0)
(0.013245 0.134934 0)
(0.0197488 0.129481 0)
(0.0219439 0.138446 0)
(0.0234269 0.00193969 0)
(0.0266413 0.182121 0)
(0.0261832 0.111014 0)
(0.0248713 0.0540843 0)
(0.0240154 0.0228903 0)
(0.0245185 0.0341678 0)
(0.0255982 0.114822 0)
(0.0105041 0.105905 0)
(0.0242165 0.0196956 0)
(0.00196979 0.11349 0)
(0.0184314 0.15027 0)
(0.0198956 -0.0186642 0)
(0.0249456 0.0525046 0)
(0.0248734 0.174762 0)
(0.00221434 0.0108126 0)
(0.0270865 0.154166 0)
(0.0255705 0.094881 0)
(0.0281009 0.184339 0)
(0.0240679 0.0252751 0)
(0.0172615 0.179052 0)
(0.0228658 0.00553361 0)
(0.00318606 0.0543403 0)
(0.0249821 0.0523758 0)
(0.0270204 0.154151 0)
(0.0226285 -0.0470322 0)
(0.0173962 0.123836 0)
(0.0231699 0.0680012 0)
(0.0261 0.107141 0)
(0.0234999 -0.010451 0)
(0.0247219 0.0409734 0)
(0.0237726 0.0215571 0)
(0.0263765 0.140742 0)
(0.0185213 0.157818 0)
(0.0215105 0.104455 0)
(0.0131748 0.136438 0)
(0.0217468 0.180417 0)
(0.0160194 0.187114 0)
(0.00200272 0.150912 0)
(0.0233676 0.0122684 0)
(0.0127626 0.188353 0)
(0.0226626 -0.0455822 0)
(0.0273189 0.150351 0)
(0.0204889 0.13385 0)
(0.0227501 -0.0318596 0)
(0.0237375 0.00118453 0)
(0.020858 0.158623 0)
(0.00872234 0.15768 0)
(0.0226676 0.189411 0)
(0.024477 0.0311763 0)
(0.0237391 -3.69155e-06 0)
(0.0260022 0.103531 0)
(0.00537169 0.00860223 0)
(0.0221441 -0.0675722 0)
(0.0201601 -0.106658 0)
(0.00166269 0.00812511 0)
(0.0236302 0.103181 0)
(0.0228584 -0.020117 0)
(0.0109791 0.181441 0)
(0.0255013 0.0965164 0)
(0.0215096 -0.0939019 0)
(0.024574 0.0420252 0)
(0.0211399 -0.0488154 0)
(0.0249444 0.0507843 0)
(0.0208051 0.0657847 0)
(0.0236348 -0.00479614 0)
(0.00220065 0.0296085 0)
(0.00416552 0.0420976 0)
(0.0232569 -0.0196636 0)
(0.0244404 0.0295938 0)
(0.0152759 0.189278 0)
(0.0207882 0.062413 0)
(0.0178729 0.134533 0)
(0.00363646 0.113364 0)
(0.0197177 -0.0916974 0)
(0.0115118 0.189716 0)
(0.0210009 -0.0971482 0)
(0.0216698 0.103441 0)
(0.0220152 -0.0621583 0)
(0.0235101 0.015277 0)
(0.0150572 0.104623 0)
(0.0274591 0.171457 0)
(0.0209108 -0.0993955 0)
(0.0210493 -0.106937 0)
(0.0118111 0.105522 0)
(0.0244693 0.0376462 0)
(0.0203593 0.0583336 0)
(0.0278059 0.172487 0)
(0.0255295 0.129486 0)
(0.0249146 0.17355 0)
(0.0232528 0.0704185 0)
(0.00398198 0.0226118 0)
(0.0136842 0.0140468 0)
(0.0183393 0.0802096 0)
(0.0254182 0.178504 0)
(0.00614946 0.177604 0)
(0.0255237 0.0801604 0)
(0.0270378 0.189002 0)
(0.0232256 0.003137 0)
(0.00617733 0.0347446 0)
(0.0247061 0.0480967 0)
(0.0166436 0.18926 0)
(0.0223546 -0.0564363 0)
(0.016486 -0.00655417 0)
(0.00794725 0.176471 0)
(0.0104309 0.0720568 0)
(0.0199737 -0.0549366 0)
(0.0222147 0.0798209 0)
(0.0249632 0.051401 0)
(0.00225513 0.0351111 0)
(0.0275331 0.169208 0)
(0.0202439 -0.0459358 0)
(0.0222938 -0.0541468 0)
(0.0257988 0.123352 0)
(0.024442 0.0291973 0)
(0.0251922 0.171319 0)
(0.0165196 0.133079 0)
(0.0235888 -0.00672108 0)
(0.0247505 0.0421695 0)
(0.0149356 0.126639 0)
(0.0197388 -0.0213703 0)
(0.023951 0.0100295 0)
(0.0259922 0.104343 0)
(0.0238697 0.0143653 0)
(0.000571048 0.00461968 0)
(0.0192815 0.0942364 0)
(0.0269331 0.156122 0)
(0.0192026 -0.0441301 0)
(0.0242389 0.0409241 0)
(0.0219672 -0.0488879 0)
(0.013863 0.0124185 0)
(0.0224328 -0.0256242 0)
(0.0225242 -0.0511756 0)
(0.0161854 -0.0133131 0)
(0.017636 -0.0466014 0)
(0.00344505 0.0231926 0)
(0.0224937 -0.0528266 0)
(0.00106883 0.0178961 0)
(0.0178059 0.159609 0)
(0.0259109 0.0910437 0)
(0.0172342 0.152872 0)
(0.024397 0.0278306 0)
(0.0228052 0.103681 0)
(0.0112251 0.18238 0)
(0.00361059 0.0239736 0)
(0.0241175 0.166923 0)
(0.0086588 0.0949411 0)
(0.0249649 0.0909348 0)
(0.00264631 0.0150983 0)
(0.025735 0.163195 0)
(0.0191835 -0.00169213 0)
(0.0278837 0.17754 0)
(0.0259119 0.188902 0)
(0.0246162 0.0366584 0)
(0.00089191 0.00372611 0)
(0.00268637 0.0458165 0)
(0.025519 0.114439 0)
(0.0249165 0.119654 0)
(0.0228776 -0.0366658 0)
(0.0243116 0.0238784 0)
(0.0241253 0.0482982 0)
(0.00702204 0.121588 0)
(0.025188 0.0648819 0)
(0.0140205 0.189391 0)
(0.0210871 -0.10516 0)
(0.0255274 0.0809887 0)
(0.0236967 0.0305664 0)
(0.0212562 -0.104398 0)
(0.024216 0.137598 0)
(0.0195285 -0.0918985 0)
(0.0250066 0.0625321 0)
(0.0253503 0.18403 0)
(0.0241224 0.0502345 0)
(0.016703 0.189415 0)
(0.0242202 0.0562875 0)
(0.0186116 -0.0379037 0)
(0.0228899 -0.0201077 0)
(0.0206166 0.156514 0)
(0.015084 0.00184911 0)
(0.020008 -0.0522376 0)
(0.0247442 0.126112 0)
(0.0223694 0.136273 0)
(0.00832849 0.0990737 0)
(0.00115741 0.0067794 0)
(0.0233668 0.00896826 0)
(0.0201853 0.0145329 0)
(0.024303 0.0428664 0)
(0.00696668 0.119409 0)
(0.00608448 0.109074 0)
(0.000851522 0.0147328 0)
(0.0194827 0.132853 0)
(0.00971667 -0.00838208 0)
(0.021869 0.129656 0)
(0.00356097 0.0246655 0)
(0.0245508 0.0337677 0)
(0.0206956 -0.0872077 0)
(-0.0099341 0.18943 0)
(0.0071011 0.0325773 0)
(0.00178425 0.0195144 0)
(0.0158165 0.183857 0)
(0.0249294 0.0835903 0)
(0.00388193 0.163646 0)
(0.0256673 0.0819543 0)
(0.0258088 0.145389 0)
(0.0265217 0.11927 0)
(0.0201922 -0.0488433 0)
(0.0245234 0.0422123 0)
(0.0192813 0.0306859 0)
(0.00114779 0.0152959 0)
(0.0031869 0.020195 0)
(0.0201327 0.120503 0)
(0.0263281 0.108607 0)
(0.00155727 0.0167705 0)
(0.0244683 0.0316866 0)
(0.0220195 0.130718 0)
(0.0275998 0.162193 0)
(0.0231629 0.174329 0)
(0.0258693 0.143598 0)
(0.0222471 -0.0555185 0)
(0.0109566 0.0254926 0)
(6.4987e-05 0.000527413 0)
(0.0208058 -0.0853269 0)
(0.00385725 0.129161 0)
(0.0136236 0.150336 0)
(0.0255562 0.077455 0)
(0.0181563 0.136879 0)
(0.00168413 0.0642726 0)
(0.0230108 0.0867502 0)
(0.00786335 0.0543731 0)
(0.00263671 0.00535212 0)
(0.0225165 0.130979 0)
(0.00033749 0.178 0)
(0.0228719 -0.036903 0)
(0.0238068 0.130765 0)
(0.0160954 -0.0162815 0)
(0.00169423 0.00876585 0)
(0.0235064 -0.0101682 0)
(0.0253773 0.179471 0)
(0.0153266 0.136526 0)
(0.0174217 0.121777 0)
(0.0256371 0.0808256 0)
(0.0238592 0.00622074 0)
(0.0255525 0.0759555 0)
(0.0175587 0.178373 0)
(0.0187822 -0.0348917 0)
(0.00481053 0.0211238 0)
(0.00312136 0.00602685 0)
(0.020979 -0.0678711 0)
(0.0239572 0.129667 0)
(0.0228768 -0.033663 0)
(0.006389 0.173623 0)
(0.0225892 -0.0488132 0)
(0.0185787 0.111206 0)
(0.0141693 0.163048 0)
(0.0256415 0.0797061 0)
(0.00672616 0.110739 0)
(0.0222524 0.0273551 0)
(0.0142409 0.124258 0)
(0.00180798 0.0134868 0)
(0.0246439 0.130434 0)
(0.00278511 0.184889 0)
(0.0197936 0.0643625 0)
(0.0243651 0.0264338 0)
(0.0211132 -0.110965 0)
(0.0258007 0.120697 0)
(0.0107529 0.106755 0)
(0.0114543 -0.00167468 0)
(0.0213479 -0.0851979 0)
(0.0245131 0.0336741 0)
(0.000607216 0.00504736 0)
(0.0243973 0.0292437 0)
(0.0112351 -3.75282e-05 0)
(0.0246124 0.124968 0)
(0.0142734 -0.0311652 0)
(0.0156595 0.00905804 0)
(0.0247225 0.0436001 0)
(0.0178305 0.0411924 0)
(0.0207338 -0.122011 0)
(0.0244012 0.107951 0)
(0.000815909 0.0152046 0)
(0.00874017 0.0113805 0)
(0.00318653 0.141979 0)
(0.0129503 0.0970226 0)
(0.0176635 -0.0431577 0)
(0.0252694 0.189238 0)
(0.0161696 -0.00447333 0)
(0.0154088 0.0301082 0)
(0.0236456 -0.00416624 0)
(0.0239473 0.00874837 0)
(0.0212059 -0.0494961 0)
(0.0248267 0.121371 0)
(0.0239688 0.0298516 0)
(0.0218011 0.0433406 0)
(0.0146809 0.0542519 0)
(0.00482431 0.177779 0)
(0.0242894 0.0227699 0)
(0.0258695 0.162239 0)
(0.00446889 0.0803733 0)
(0.0189618 0.0954287 0)
(0.0242807 0.0225948 0)
(0.0233282 0.0377052 0)
(0.0256641 0.0807174 0)
(0.00103651 0.0186558 0)
(0.00408396 0.164655 0)
(0.0225538 -0.0503144 0)
(0.0229371 0.0270349 0)
(0.0199196 0.0593533 0)
(0.0266676 0.122908 0)
(0.0141234 0.189589 0)
(0.0128828 0.0950468 0)
(0.0249834 0.062497 0)
(0.00340194 0.0212571 0)
(0.0176629 0.0421537 0)
(0.00750304 0.0341631 0)
(0.0246848 0.0394106 0)
(0.00934903 -0.00871507 0)
(0.0152261 -0.0405968 0)
(0.0147081 0.051872 0)
(0.0207349 -0.122694 0)
(0.0184753 -0.0583757 0)
(0.0262777 0.120071 0)
(-0.00364616 0.186794 0)
(0.0154889 3.41606e-05 0)
(0.00652876 0.181523 0)
(0.00380405 0.0370799 0)
(0.0256549 0.0803074 0)
(0.00903864 0.0698439 0)
(0.0162373 -0.00728435 0)
(0.00196151 0.063869 0)
(0.0214111 -0.083695 0)
(0.00192293 0.0666804 0)
(0.0245152 0.0391597 0)
(0.0209065 -0.119673 0)
(0.0224476 -0.0542251 0)
(0.00811445 0.175833 0)
(0.022457 -0.0516514 0)
(0.0259797 0.093943 0)
(0.0121214 0.13126 0)
(0.0221662 -0.066639 0)
(0.0265705 0.119998 0)
(0.0259543 0.0928774 0)
(0.0213663 -0.100267 0)
(0.0236098 -0.00568473 0)
(0.0280783 0.185299 0)
(0.0246847 0.0478369 0)
(0.0170166 0.133006 0)
(0.0214754 -0.0953769 0)
(0.0229546 0.0298757 0)
(0.0220612 -0.070838 0)
(0.0137837 0.00266041 0)
(0.0160724 0.0816677 0)
(0.0156404 0.135899 0)
(0.00401603 0.0394959 0)
(0.0219281 0.0335762 0)
(0.0142251 0.178017 0)
(0.0226285 -0.0471698 0)
(0.0158998 0.0793512 0)
(0.00396433 0.109991 0)
(0.0274854 0.157365 0)
(0.0264708 0.180673 0)
(0.00281688 0.141699 0)
(-0.00166199 0.183325 0)
(0.0233372 0.086453 0)
(0.0189577 0.0529233 0)
(0.0263733 0.188713 0)
(-0.000929852 0.183569 0)
(0.0123443 0.166682 0)
(0.0185903 -0.0553114 0)
(0.0211124 -0.111004 0)
(0.0256611 0.0805327 0)
(0.0069067 0.189761 0)
(0.0142088 -0.0287608 0)
(0.0262188 0.115536 0)
(0.025514 0.0931521 0)
(0.0265856 0.119489 0)
(0.0242847 0.0228238 0)
(0.0206936 -0.0984403 0)
(0.0151364 0.101055 0)
(0.0194439 0.0322564 0)
(0.0184473 0.112966 0)
(0.00318093 -0.00499137 0)
(0.0197337 0.1314 0)
(0.00422585 0.00795233 0)
(0.0219978 0.136352 0)
(0.0241034 0.138891 0)
(0.0271644 0.144333 0)
(0.0234697 -0.00435077 0)
(0.0154095 -0.0379473 0)
(0.0244657 0.0403135 0)
(0.0250323 0.0540843 0)
(0.0245058 0.129337 0)
(0.00896052 0.154755 0)
(0.02375 6.11263e-05 0)
(0.0167325 0.0637341 0)
(0.0134194 0.149234 0)
(0.00987417 0.183064 0)
(0.0272363 0.14757 0)
(0.00117111 0.067114 0)
(0.0117962 0.107291 0)
(0.0223387 -0.0591205 0)
(0.022473 -0.0505918 0)
(0.0236442 -0.00264459 0)
(0.0239732 0.0197189 0)
(0.0222242 -0.0614564 0)
(0.0123316 0.0976672 0)
(0.0247704 0.0495747 0)
(0.00929947 0.155765 0)
(0.00873825 0.076881 0)
(0.00835735 0.156646 0)
(0.0217173 -0.0850206 0)
(0.0255336 0.0751626 0)
(0.0154086 0.0218522 0)
(0.0090788 0.0105728 0)
(0.0144424 0.125756 0)
(0.0239094 0.00818435 0)
(0.0193057 0.132266 0)
(0.0231174 0.0617209 0)
(0.00373317 0.126769 0)
(0.0178715 0.130071 0)
(0.0247998 0.0512982 0)
(0.0155895 -0.00255422 0)
(0.0249777 0.0887495 0)
(0.0268977 0.17138 0)
(0.022096 -0.0695361 0)
(0.0177792 0.0782616 0)
(0.0255876 0.166147 0)
(0.0205978 0.135423 0)
(0.024504 0.0318031 0)
(0.0250048 0.0529159 0)
(0.00818888 0.120405 0)
(0.0255422 0.0755394 0)
(0.0240063 0.0298456 0)
(0.0127606 0.189608 0)
(0.00166745 0.0676892 0)
(0.0209019 -0.119295 0)
(0.000568127 0.0320222 0)
(0.0226007 0.0688533 0)
(0.0245163 0.137143 0)
(0.0240214 0.0220443 0)
(0.0220123 -0.0726077 0)
(0.0211911 -0.101946 0)
(0.0209663 -0.104326 0)
(0.0245564 0.0344922 0)
(0.00370181 0.0201549 0)
(0.0242697 0.0250154 0)
(0.0155307 0.00582181 0)
(0.0206476 0.155115 0)
(0.0224101 -0.0561365 0)
(0.0127181 0.140009 0)
(0.000548211 0.0280527 0)
(0.0198886 0.111672 0)
(0.0189148 0.0603478 0)
(0.0271367 0.143066 0)
(0.00984523 0.0234409 0)
(0.00675079 0.0726893 0)
(0.0225236 -0.0233054 0)
(0.0248151 0.109883 0)
(0.023218 0.00928983 0)
(0.0124869 0.189402 0)
(0.0206968 -0.108026 0)
(0.0264974 0.115735 0)
(0.0199261 -0.106663 0)
(0.0232687 0.0379573 0)
(0.0193581 -0.0939038 0)
(0.0236172 -0.00552858 0)
(0.0213478 -0.0463565 0)
(0.026987 0.139402 0)
(0.0217698 -0.0830124 0)
(0.0207797 -0.0068985 0)
(0.0154908 -0.00855098 0)
(0.0209167 -0.119145 0)
(0.0211559 -0.102758 0)
(0.00610536 0.156453 0)
(0.0245698 0.0458623 0)
(0.0237423 0.0767128 0)
(0.0176524 -0.0196682 0)
(0.0219781 0.0314779 0)
(0.0190729 0.0604346 0)
(0.0245191 0.134625 0)
(0.000145954 0.00123184 0)
(0.0236086 0.0275626 0)
(0.0161887 0.187613 0)
(0.0108731 0.0700739 0)
(0.0248187 0.078165 0)
(0.0160897 0.0314498 0)
(0.0238595 0.175927 0)
(0.00312156 0.0176348 0)
(0.00436941 0.175715 0)
(0.0238511 0.030378 0)
(0.0203387 0.0156277 0)
(0.0181211 0.0215417 0)
(0.0155093 0.0250373 0)
(0.0242377 0.189087 0)
(0.0257705 0.131253 0)
(0.0242943 0.0235359 0)
(0.00854374 0.124205 0)
(0.017832 0.109366 0)
(0.0233206 0.00601379 0)
(0.013947 0.124655 0)
(0.0251023 0.0754883 0)
(0.0258302 0.13311 0)
(0.0177102 -0.0167218 0)
(0.0244867 0.0443975 0)
(0.0158599 0.0297945 0)
(0.0262937 0.108804 0)
(0.006264 0.155184 0)
(0.02099 -0.0518066 0)
(0.0230296 -0.0302866 0)
(0.024172 0.0210208 0)
(0.0122916 0.101527 0)
(0.0187973 0.14658 0)
(0.0209272 -0.118805 0)
(0.00867167 0.0752274 0)
(0.0104445 0.0749666 0)
(0.0265629 0.118552 0)
(0.0246944 0.0398236 0)
(0.00636477 0.171379 0)
(0.0207515 -0.110395 0)
(0.00496881 0.0428125 0)
(0.0180243 0.0181034 0)
(0.0217638 -0.0830339 0)
(0.0200784 0.116311 0)
(0.011054 0.027747 0)
(0.0236164 -0.00307291 0)
(0.0161239 0.0243712 0)
(0.0233535 -0.0151004 0)
(0.00341696 0.0411687 0)
(0.0107634 0.0285489 0)
(0.0152087 0.138308 0)
(0.0207891 -0.106028 0)
(0.0217163 -0.0855624 0)
(0.010623 0.146047 0)
(0.0143301 0.145163 0)
(0.0121119 0.0969293 0)
(0.0182673 0.162553 0)
(0.00162224 0.0120093 0)
(0.0171871 0.189332 0)
(0.0246725 0.0721886 0)
(0.00052453 0.00439036 0)
(0.0237891 0.00223195 0)
(0.0233496 0.173133 0)
(0.0243018 0.0261009 0)
(0.0225427 -0.0507386 0)
(0.0210353 0.189464 0)
(0.0151329 0.0206958 0)
(0.00904927 0.153298 0)
(0.0145661 0.129153 0)
(0.0262203 0.186518 0)
(0.0176691 0.166037 0)
(0.0217819 -0.0827994 0)
(0.0258199 0.0872211 0)
(0.0113535 0.168051 0)
(0.0223719 -0.0577656 0)
(0.0127711 0.189668 0)
(0.0234829 0.0213948 0)
(0.0207364 -0.109604 0)
(0.0249818 0.170855 0)
(0.0121919 0.189301 0)
(0.0220594 -0.0705955 0)
(0.0241484 0.175844 0)
(0.0269929 0.144861 0)
(0.0229839 -0.0321707 0)
(0.0213398 -0.068598 0)
(0.0184486 0.159507 0)
(0.0235538 -0.00819462 0)
(0.0148319 0.185159 0)
(0.0139698 0.00495215 0)
(0.0206606 0.0388727 0)
(0.0269938 0.139057 0)
(0.0233368 0.159079 0)
(0.014697 0.0956043 0)
(0.0243436 0.166568 0)
(0.0251374 0.0752858 0)
(0.0242131 0.135179 0)
(0.0232852 -0.0195089 0)
(0.0197036 0.140146 0)
(0.0245617 0.0348263 0)
(0.0199855 -0.0811222 0)
(0.0208205 -0.114674 0)
(0.0246814 0.0492635 0)
(0.0263083 0.119571 0)
(0.0232165 0.0853805 0)
(0.0156718 0.0316842 0)
(0.0181258 0.132878 0)
(0.0224388 -0.0546957 0)
(0.00962941 0.0952541 0)
(0.0123618 0.167721 0)
(0.00204459 0.00614343 0)
(0.019931 0.128028 0)
(0.0163093 0.0747519 0)
(0.0194581 0.175746 0)
(0.0217188 -0.0757434 0)
(0.0168157 0.189511 0)
(0.0193328 0.180816 0)
(-0.00302276 0.186501 0)
(0.0211001 -0.110118 0)
(0.0266568 0.181 0)
(0.0164729 0.0670785 0)
(0.0238221 0.00453991 0)
(0.0214702 -0.0952061 0)
(0.013043 0.0393432 0)
(0.0106116 0.0745208 0)
(0.0234276 0.0785344 0)
(0.0263579 0.109866 0)
(0.000791174 0.0272538 0)
(0.0244826 0.0534243 0)
(0.0271114 0.178142 0)
(0.0246935 0.151007 0)
(0.0077636 0.141379 0)
(0.0187597 -0.025415 0)
(0.0162939 0.0195225 0)
(0.0246236 0.0485369 0)
(0.0232941 0.161885 0)
(0.00371869 0.0254122 0)
(0.0278927 0.179125 0)
(0.0213317 -0.101283 0)
(0.0228534 0.170619 0)
(0.0244356 0.0306968 0)
(0.0212947 -0.0711169 0)
(0.0273957 0.161482 0)
(0.0172994 0.151256 0)
(0.0219316 0.0444244 0)
(0.0217336 -0.0838639 0)
(0.02427 0.0235948 0)
(0.0207933 -0.0965416 0)
(0.0251722 0.188901 0)
(0.0228204 0.124585 0)
(0.000832646 0.0109432 0)
(0.0172898 0.0203979 0)
(0.0177447 0.114263 0)
(0.00753273 0.131968 0)
(0.00816593 0.161516 0)
(0.0245046 0.163486 0)
(0.012069 0.103639 0)
(0.0224599 -0.0446623 0)
(0.00809543 0.0567736 0)
(0.0231332 0.0877915 0)
(0.0152333 0.00500673 0)
(0.0258213 0.141197 0)
(0.0219368 -0.0645203 0)
(0.0269595 0.144679 0)
(0.0119641 0.129449 0)
(0.026277 0.117343 0)
(0.0173776 0.0240134 0)
(0.0220319 -0.0713662 0)
(0.00729368 0.113837 0)
(0.00274882 0.17454 0)
(0.00471085 0.0816459 0)
(0.0229286 -0.0309968 0)
(0.0244662 0.0302099 0)
(0.0210701 -0.0980109 0)
(0.0123166 0.103466 0)
(0.0235314 -0.00159145 0)
(0.0155579 0.121509 0)
(0.023114 0.125926 0)
(0.0244521 0.0296251 0)
(0.0175211 0.0468724 0)
(0.00788015 0.156981 0)
(0.0247224 0.10945 0)
(0.0235931 0.100266 0)
(0.0223018 -0.0606936 0)
(0.0120801 0.105465 0)
(0.0201868 0.165435 0)
(0.0178069 -0.0471172 0)
(0.00814007 0.0962374 0)
(0.0142875 0.178687 0)
(0.017597 0.134474 0)
(0.00617991 0.0242582 0)
(0.0118691 0.166302 0)