/*--------------------------------*- C++ -*----------------------------------*\
| =========                 |                                                 |
| \\      /  F ield         | OpenFOAM: The Open Source CFD Toolbox           |
|  \\    /   O peration     | Version:  v2012                                 |
|   \\  /    A nd           | Website:  www.openfoam.com                      |
|    \\/     M anipulation  |                                                 |
\*---------------------------------------------------------------------------*/
FoamFile
{
    version     2.0;
    format      ascii;
    class       volScalarField;
    location    "0";
    object      yPlus;
}
// * * * * * * * * * * * * * * * * * * * * * * * * * * * * * * * * * * * * * //

dimensions      [0 0 0 0 0 0 0];


internalField   uniform 0;

boundaryField
{
    frontback
    {
        type            empty;
    }
    topbottom
    {
        type            calculated;
        value           uniform 0;
    }
    outlet
    {
        type            calculated;
        value           nonuniform List<scalar> 0();
    }
    inlet
    {
        type            calculated;
        value           uniform 0;
    }
    walls
    {
        type            calculated;
        value           nonuniform List<scalar> 
151
(
11.1886
12.2187
9.68246
9.13488
10.6018
9.23764
10.9955
9.80489
9.50858
10.7648
9.508
10.5534
9.58552
9.68246
9.45188
8.36959
9.71335
10.2846
9.1085
9.25094
9.69451
10.8253
9.68246
8.97013
9.54834
9.68246
9.9828
9.38549
9.95288
9.58555
10.0757
9.93483
9.60602
10.1751
9.41198
9.22358
9.20416
9.68246
9.36308
9.18106
9.88481
11.7655
9.45544
9.42497
9.00511
8.96158
10.6328
10.8533
11.4733
9.32325
9.90753
10.1365
9.29077
9.40653
10.981
9.88928
9.68246
11.6083
9.68246
9.2152
9.68246
7.50401
9.75695
8.28263
9.77236
9.68246
9.61031
8.56187
9.52103
9.92011
8.9274
9.68246
9.68246
9.22802
8.37641
8.31477
9.20188
10.2022
10.5864
9.43918
9.68246
9.12561
9.21367
8.96387
9.3413
10.6867
11.0748
9.21049
9.91735
9.78001
7.58005
9.2796
9.64317
9.06761
10.1634
9.30616
9.76805
10.125
9.2689
9.51029
9.68246
9.24225
11.0677
11.2383
9.29936
10.1241
8.9294
9.68246
9.65133
9.6921
9.20989
9.8373
9.92391
10.5972
9.9199
9.64757
8.97383
10.1544
9.44124
9.98504
10.3207
9.25806
9.6902
9.65476
9.90401
8.93988
9.20717
9.11736
8.11963
8.52131
8.73722
7.69718
8.83783
8.866
7.61433
7.25079
7.10137
8.46375
7.68153
8.21385
7.99491
7.3301
7.50116
7.50545
6.46996
6.7099
7.11613
6.72683
6.62666
6.21909
6.20103
)
;
    }
    procBoundary2to0
    {
        type            processor;
        value           uniform 0;
    }
    procBoundary2to3
    {
        type            processor;
        value           uniform 0;
    }
}


// ************************************************************************* //
