/*--------------------------------*- C++ -*----------------------------------*\
| =========                 |                                                 |
| \\      /  F ield         | OpenFOAM: The Open Source CFD Toolbox           |
|  \\    /   O peration     | Version:  v2012                                 |
|   \\  /    A nd           | Website:  www.openfoam.com                      |
|    \\/     M anipulation  |                                                 |
\*---------------------------------------------------------------------------*/
FoamFile
{
    version     2.0;
    format      ascii;
    class       volScalarField;
    location    "900";
    object      k_0;
}
// * * * * * * * * * * * * * * * * * * * * * * * * * * * * * * * * * * * * * //

dimensions      [0 2 -2 0 0 0 0];


internalField   nonuniform List<scalar> 
13851
(
0.000151436
0.0207639
0.000173813
0.000151172
0.00017262
0.000380741
0.000144936
0.000163391
0.000144178
0.000177607
0.000641402
0.0308019
0.000632836
0.0296693
0.000144063
0.000157893
0.000150751
0.000156035
0.000176718
0.000143761
0.000150724
0.000173121
0.000156504
0.000178997
0.000160084
0.000163878
0.000150089
0.00145922
0.000151015
0.000150448
0.0018723
0.000151114
0.000173045
0.00496336
0.000172261
0.000183251
0.000200397
0.000188098
0.000179437
0.00516182
0.00014499
0.000139594
0.00429981
0.002142
0.00216657
0.0142347
0.0039347
0.0152181
0.00015036
0.00203864
0.000170542
0.000180306
0.00645546
0.000145472
0.000156416
0.000139847
0.000158389
0.00874732
0.000150186
0.0001451
0.000190663
0.0129885
0.000171647
0.000175194
0.00108956
0.00015391
0.000211621
0.00426322
0.000156961
0.000155928
0.00927664
0.000132609
0.0222212
0.000146217
0.000142058
0.000148358
0.000172392
0.00957228
0.000162928
0.0104477
0.000146027
0.00175083
0.000143668
0.0110308
0.000174441
0.030305
0.000181812
0.0235566
0.000151272
0.000155422
0.000183225
0.000182488
0.00439718
0.000153227
0.000151073
0.000184281
0.000173105
0.0154978
0.00353241
0.000186491
0.0185897
0.000163917
0.000148126
0.000149893
0.000145508
0.000232638
0.000165765
0.000136663
0.00010122
0.000633189
0.000191236
0.000155798
0.000172756
0.000210926
0.000187038
0.0132975
0.0154937
0.000136724
0.000174387
0.000164104
0.00417894
0.000149751
0.00177274
0.0103973
0.0157772
0.00015911
0.0158609
0.000163413
0.000150504
0.000181305
0.000144797
0.000140755
0.0106798
0.000143656
0.0130541
0.000142088
0.000136868
0.000140303
0.0310265
0.040736
0.0176485
0.00015517
0.000158827
0.000147951
0.000148783
0.0025206
0.000153732
0.000181693
0.000144864
0.00173204
0.000170656
0.000158118
0.0289835
0.00015817
0.000148316
0.000148676
0.000145059
0.00014884
0.000180303
0.000170212
0.000141237
0.000153173
0.00836357
0.000140606
0.000154273
0.000144294
0.000154973
0.000157229
0.000150212
0.0108063
0.00875593
0.000139221
0.000145095
0.0401528
0.000140386
0.0152323
0.000162875
0.000157862
0.000167587
0.000137643
0.000151839
0.000121821
0.000143624
0.000174306
0.000135974
0.000170184
0.000154016
0.000149128
0.000175073
0.000178202
0.004334
0.00732071
0.000157365
0.000157114
0.0130969
0.000148067
0.000157501
0.00755896
0.000157342
0.000148496
0.000159299
0.0219345
0.000198828
0.000143322
0.000173897
0.000143688
0.0374332
0.000150922
0.0161005
0.000139079
0.0127379
0.000147877
0.00659134
0.000136335
0.000146599
0.000244894
0.000172999
0.0137079
0.000143552
0.0166046
0.000151095
0.000146208
0.0136113
0.000180199
0.0172002
0.000170609
0.000154634
0.000146822
0.00935364
0.000136555
0.000163317
0.00424795
0.000138878
0.000156977
0.00016832
0.000166854
0.0334668
0.00168856
0.000147811
0.000143387
0.00130931
0.00931904
0.00014582
0.000175342
0.000143937
0.018798
0.000164419
0.00296652
0.000148825
0.000151766
0.000161492
0.0092003
0.00014627
0.000148924
0.00016412
0.0104727
0.000177235
0.000132011
0.00440937
0.000144023
0.000146776
0.000155011
0.0183841
0.000153196
0.000449004
0.000148041
0.000146159
0.000152838
0.0116407
0.000190635
0.000161461
0.000148305
0.0126065
0.000162041
0.000157373
0.000140934
0.00198316
0.000170613
0.0158112
0.000535262
0.000145659
0.000137954
0.000145932
0.00016331
0.0178349
0.0155029
0.000146201
0.00014407
0.0137214
0.000859639
0.000183415
0.00014971
0.000145146
0.00015827
0.000862569
0.000505908
0.000153515
0.0298697
0.000141296
0.0183498
0.000152897
0.000150626
0.0150115
0.000145983
0.000304155
0.0165767
0.000145692
0.000160865
0.000153337
0.00014941
0.0327341
0.000153756
0.000146125
0.0149391
0.000140927
0.000152017
0.000160592
0.0127692
0.000178122
0.000143549
0.000164347
0.000143727
0.00724336
0.000164745
0.000160443
0.000147989
0.000177701
0.000154169
0.000148194
0.000144084
0.000145847
0.000146032
0.00111094
0.0268644
0.0113614
0.00015969
0.0122815
0.0121036
0.000143778
0.000157532
0.000183749
0.000223055
0.000174771
0.000178157
0.000149201
0.000159815
0.0137474
0.0172338
0.000144235
0.000169195
0.000168359
0.00059599
0.00014819
0.000177039
0.00967764
0.000145472
0.012921
0.000148011
0.000143787
0.000142441
0.000136821
0.000143945
0.0160356
0.00697794
0.000144007
0.000160268
0.000142775
0.0293602
0.000162059
0.0154873
0.0109444
0.000144127
0.000173105
0.000153434
0.0157557
0.000144401
0.000136931
0.000163914
0.0179612
0.000145488
0.0350553
0.000208483
0.000179242
0.011938
0.000192359
0.00019378
0.000162731
0.000141017
0.0001488
0.0001584
0.000164081
0.0316166
0.000157193
0.0151518
0.0166267
0.000143021
0.000144065
0.0113168
0.0112295
0.00280843
0.0154985
0.000166209
0.000153908
0.000186152
0.00951869
0.000141836
0.000157391
0.000162136
0.000144622
0.000146773
0.000145441
0.0001441
0.000174527
0.000170888
0.00879611
0.000156795
0.000165325
0.000160625
0.0079792
0.000152696
0.00123234
0.000150329
0.000227104
0.000136701
0.000144966
0.000177459
0.000151172
0.00710604
0.000180022
0.000160367
0.00732999
0.00586739
0.000155091
0.000166562
0.00016868
0.000144184
0.00777078
0.000144955
0.00794014
0.00619898
0.000172026
0.0146234
0.000158673
0.000170143
0.00604962
0.0201251
0.000135325
0.000154905
0.000163377
0.000202398
0.000140293
0.000146122
0.000169649
0.000179345
0.000160731
0.0349337
0.000171011
0.00014841
0.00710083
0.0001551
0.000137374
0.0250376
0.00014093
0.000151426
0.000141299
0.000164192
0.000148293
0.000138338
0.000158284
0.0139859
0.000143727
0.000158253
0.000141096
0.000165007
0.000181859
0.000213594
0.000145596
0.000212842
0.000215046
0.0155988
0.000146054
0.000188679
0.000143619
0.000176905
0.0217729
0.0138643
0.000143818
0.000165228
0.000152833
0.0102299
0.0117853
0.000148364
0.0070341
0.000144488
0.000172987
0.000144803
0.010968
0.000137554
0.00619969
0.000177603
0.000139858
0.00016613
0.0130465
0.000163998
0.00457764
0.000167156
0.00834813
0.000160327
0.00014004
0.000141353
0.000144666
0.0138027
0.00016859
0.000179686
0.000182295
0.000172035
0.000142138
0.00877266
0.00678325
0.000151982
0.000153329
0.0100037
0.0104895
0.00988013
0.00015143
0.0114523
0.013686
0.0205608
0.00015449
0.000166629
0.0135378
0.00017111
0.00932155
0.00651467
0.0131582
0.000149121
0.0140189
4.24733e-05
0.000136827
0.000169653
0.000169021
0.0113638
0.000149073
0.000143046
0.000144698
0.000143866
0.000174541
0.000164219
0.0221035
0.0337944
0.000141315
0.00625602
0.0139524
0.00363385
0.00640066
0.000157933
0.00013622
0.000144723
0.000159604
0.0105081
0.000148466
0.000173602
0.000182981
0.000139609
0.000163712
0.0120688
0.000141935
0.000178071
0.0143161
3.51805e-05
0.000144705
0.000144684
0.0239021
0.0168438
0.000179105
0.000157036
0.000188251
0.000137429
0.000142641
0.00884499
0.000138737
0.000148975
0.000137339
0.000140532
0.000112682
0.000174422
0.000158689
0.000138542
0.0362541
0.00791574
0.000141413
0.000153449
0.00015355
0.000148249
0.0166641
0.00433395
0.00519443
0.0203516
0.0065456
0.00015619
0.00938261
0.014646
0.000160963
0.000157262
0.000136148
0.000160527
0.000158545
0.0117443
0.0146453
0.000173282
0.000154185
0.000142946
0.000157882
0.000156928
0.0041579
0.000170691
0.000143564
0.000160227
0.000140091
0.000152626
0.000180407
0.000144968
0.000144091
0.000162046
0.000144905
0.000173075
0.000150633
0.000179503
0.00015843
0.0001797
0.000142497
0.000673798
0.000162131
0.0190439
0.000147647
0.000183446
0.000107983
0.000150166
0.0128582
0.0180069
0.0126649
0.0248047
0.000141423
0.000119246
0.000146506
0.000140702
0.000137392
0.000140713
0.000150508
0.000157735
0.000162927
0.000137834
0.013305
0.000178439
0.0137336
0.000144348
0.000137801
0.000150851
0.000183265
0.0134734
0.000164408
0.00015284
0.000146994
0.000179557
0.000152972
0.000146032
0.000191897
0.0356208
0.000144793
0.000137563
0.000144726
0.000145869
0.00187016
0.00765266
0.000158192
0.014755
0.00941641
0.000143894
0.000179476
0.0197048
0.000157943
0.0315299
0.000145981
0.000155168
0.000164059
0.000155738
0.00728967
0.000143757
0.0132235
0.000145486
0.000155036
0.016085
0.000149981
0.000149364
0.000177215
0.000140314
0.000151396
0.0181023
0.038162
0.000170194
0.000422275
0.000255847
0.000136682
0.000143942
0.0211692
0.000182674
0.000168491
0.0175231
0.000145415
0.000161153
0.000137025
0.00556951
0.000201636
0.000151964
0.000147897
0.000184327
0.000150232
0.000150593
0.00626717
0.0149758
0.0158692
0.00014062
0.000144732
0.00950906
0.00460981
0.000181629
0.00015583
0.000852479
0.000143714
0.000200983
0.000183571
0.000173195
0.000150964
0.0125549
0.000162753
0.000156729
0.000197598
0.000180868
0.000195709
0.000148548
0.000142253
0.00703848
0.000156671
0.00017838
0.000158324
0.000173083
0.000143226
0.0187839
0.000170463
0.000163074
0.000138898
0.000143621
0.000145931
0.0167598
0.000144284
0.000137642
0.0133423
0.000144775
0.0116089
0.000146442
0.000157821
0.000169656
0.00408415
0.00700218
0.000143185
0.00576191
0.0149524
0.000146167
0.0126801
0.000154846
0.000141657
0.000175285
0.0049627
0.00379318
0.000152009
0.00014257
0.000136945
0.00648432
0.000175567
0.000172085
0.000153066
0.000170274
0.000149219
0.000157138
0.000173314
0.00788031
0.000174651
0.0154617
0.000144644
0.000173278
0.00017282
0.0108202
0.000151869
0.0349956
0.000188773
0.000144842
0.0155979
0.000408332
0.0139434
0.0378814
0.0162278
0.00531314
0.000161931
0.000141859
0.000157924
0.00946757
0.0120382
0.000148203
0.000178229
0.000168959
0.000198974
0.000139787
0.0061296
0.000144761
0.000143956
0.00745111
0.00939563
0.000276136
0.0001407
0.000143869
0.00540507
0.000190526
0.000178028
0.00015717
0.0126171
0.000173578
0.013567
0.000165401
0.000159936
0.00014618
0.000144753
0.0220604
0.000163093
0.0108298
0.00016824
0.000156909
0.00755806
0.0137331
0.0125961
0.000144064
0.000155311
0.000141277
0.000158757
0.000149295
0.0312138
0.000162972
0.0190058
0.000139418
0.000169233
0.000143088
0.000186462
0.000156562
0.000155064
0.0149749
0.000160873
0.00016576
0.000184603
0.000169299
0.0152566
0.000196452
0.000149131
0.00891564
0.000152413
0.0385579
0.0070227
0.000145319
0.0144914
0.0186999
0.0124233
0.0050381
0.000165186
0.000147451
0.0152545
0.000163806
0.0153464
0.0163455
0.000144054
0.000148141
0.000159107
0.0080758
0.0327837
0.000144703
0.000146627
0.0259166
0.0160542
0.000178411
0.000151547
0.000155407
0.00701642
0.009841
0.000173453
0.000137757
0.000162196
0.000140275
0.000180619
0.000171485
0.000188906
0.00768512
0.0062195
0.000144047
0.00015941
0.000147707
0.000148578
0.00937562
0.0124008
0.000154598
0.0358512
0.000142996
0.000154651
0.000147276
0.000140403
0.000145391
0.00014398
0.0124372
0.000143827
0.000164106
0.000144093
0.000152143
0.000173376
0.00413282
0.000169242
0.0237864
0.000173166
0.00019807
0.000157012
0.000157036
0.00971989
0.000152631
0.000165373
0.0309376
0.0165081
0.00697735
0.000160688
0.00110322
0.000147371
0.000160185
0.000164327
0.0331145
0.000151248
0.0369436
0.000143791
0.000144466
0.0322255
0.000159101
0.000193569
0.00015126
0.000141513
0.000162284
0.000141459
0.000143898
0.000148414
0.00014578
0.000189734
0.000144178
0.000190396
0.00940521
0.000171741
0.0368404
0.000144666
0.000179476
0.000161577
0.000144025
0.000141081
0.000171886
0.000146193
0.000146546
0.000147938
0.000166018
0.0115575
0.0371154
0.000176506
0.0156921
0.000193965
0.000142651
0.0145405
0.000154031
0.00014382
0.00532623
0.00107301
0.0103558
0.000142522
0.00344072
0.00814822
0.0114698
0.000138476
0.00106552
0.000156038
0.000149904
0.000149048
0.000144978
0.022155
0.000251121
0.0153332
0.000149421
0.000143461
0.01581
0.000145359
0.00299187
0.00662976
0.0236549
0.000163337
0.0063874
0.000175842
0.000144023
0.000173465
0.000164126
0.000149867
0.000186311
0.000161443
0.000146356
0.000155224
0.0399425
0.000146982
0.0109902
0.000114309
0.0152652
0.000187051
0.00015017
0.000149752
0.000147573
0.00127481
0.00763619
0.000138599
0.00021458
0.000149353
0.000171694
0.000141753
0.000148843
0.000146352
0.000156638
0.000200886
0.000165794
0.000159595
0.000146675
0.000163952
0.00245495
0.000147263
0.0169329
0.00557959
0.000172035
0.00014513
0.000161309
0.000143034
0.00016051
0.000147318
0.00960457
0.000178153
0.00771104
0.000149947
0.000195077
0.000143269
0.000145748
0.000146254
0.0154607
0.0165101
0.000140978
0.000156398
0.000173928
0.0143763
0.000215382
0.0222377
0.000150645
0.0375606
0.000174524
0.00857074
0.000173592
0.000171966
0.000151587
0.0146557
0.00617629
0.023596
0.000158151
0.000194564
0.000141462
0.000149226
0.000152088
0.000145066
0.0147417
0.000154938
0.000153187
0.00665615
0.000183974
0.0155882
0.000143634
0.000149442
0.000152445
0.000150921
0.000159233
0.0247569
0.0033704
0.0184844
0.000141447
0.000152715
0.000158172
0.0119893
0.0144658
0.000173307
0.000149643
0.000145922
0.0118551
0.000163457
0.0139931
0.0129718
0.000383875
0.000144849
9.16188e-05
0.000158774
0.000161663
0.000153896
0.0131316
0.00214835
0.000180264
0.000468541
0.000148229
0.00016079
0.000143948
0.00675477
0.000169253
0.0140513
0.000179976
0.00015196
0.000181058
0.000147974
0.0120131
0.000192211
0.000146786
0.00154175
0.0166025
0.00266462
6.05811e-05
0.000146857
0.000144161
0.00956244
0.0035234
0.0104452
0.000155907
0.000144708
0.000144078
0.011747
0.00018095
0.00014572
0.00291265
0.000176326
0.0257908
8.523e-05
0.0157114
0.000143975
0.000685432
0.000150611
0.00014558
0.000180909
0.0135034
0.000144969
0.000144057
0.00339944
0.0114625
0.000158168
0.000141369
0.0385418
0.00014686
0.000159735
0.000141434
0.0111817
0.000144231
0.000164426
0.0186316
0.0137625
0.000147647
0.00537672
0.00609709
0.0134935
0.000141844
0.0379314
0.000228412
0.000142827
0.00361874
0.000214158
0.000143723
0.000150772
0.0100657
0.000143813
0.000195808
0.000144199
0.000157328
0.00919174
0.000171471
0.00631671
0.00014822
0.000162902
0.000141131
0.000156285
0.000150459
0.0211283
0.000141647
0.000169139
0.00457797
0.000146206
0.000145608
0.0158423
0.000157355
0.000159299
0.000179621
0.0414292
0.0163142
0.000160665
8.74414e-05
0.00030418
0.000296058
0.00700834
0.0233951
0.000169225
0.000139589
0.000179016
0.000142813
0.000143039
0.0395495
0.016006
0.000149407
0.0321817
0.000612449
0.0108857
0.00278583
0.000589169
0.000143858
0.0010072
0.000944433
0.00015839
0.000147854
0.0154719
0.0161193
0.0222973
0.00912886
0.000162131
0.0199295
0.0151361
0.000155982
0.000147709
0.000144299
0.0010812
0.000142424
0.000191764
0.000153682
0.000146688
0.000149717
0.0029351
0.010192
0.0150733
0.000148156
8.33577e-05
0.000151424
0.000155951
0.000141775
0.000147537
0.00835637
0.000153128
0.0149222
0.0221346
0.00204507
0.000177476
0.000144361
0.00016264
0.000145604
0.000180631
0.000156983
0.000148073
0.000147872
0.00015671
0.000181979
0.000146844
0.000158469
0.00015911
0.000158973
0.000186873
0.00972354
0.000145141
0.000163143
0.000146829
0.000221722
0.000160769
0.0118846
0.000222192
0.000155742
0.000149636
0.000151624
0.0037625
0.00014435
0.000176209
0.00014398
0.000149624
0.000156996
0.0158803
0.000152769
0.000153218
0.000169894
0.000152669
0.000167824
0.0156969
0.000404686
0.000158028
0.000143945
0.000518567
0.000140082
0.000149182
0.00018612
0.0189411
0.000146481
0.000156836
0.000185419
8.78586e-05
0.000145867
0.000146609
0.0184231
0.00014779
0.00117707
0.000194344
0.00726679
0.000144398
0.00016188
0.000143239
0.0176007
0.000179284
0.000161559
0.000178001
0.0158657
0.00014756
0.00607352
0.0172611
0.000147052
0.0039451
0.000172177
0.000152129
0.00871637
0.000144577
0.000148301
0.000143499
0.000183556
0.00182811
0.000182304
0.000148137
0.000147437
0.00015485
0.00701493
0.000196945
0.00976523
0.00479285
0.000146565
0.000179474
0.000181753
0.00805523
0.000173909
0.000194636
0.000142525
0.000168499
0.000145162
0.0129488
0.000161419
0.000143205
0.0398893
0.000204969
0.000156766
0.000167486
0.000139137
0.00015194
0.000168069
0.000158107
0.0157483
0.000169368
0.000171277
0.000171106
0.000179634
0.0262763
0.000232621
0.0108992
0.00014547
0.000145851
0.000187835
0.0175608
0.00735182
0.000741127
0.000175237
0.00863498
0.00507313
0.000150042
0.000152251
0.000140681
0.00016034
0.000169863
0.00016532
0.00713421
0.000195268
0.000147942
0.0135496
0.00843782
0.000143945
0.000180816
0.0299093
0.00748656
0.000149694
0.000170672
0.000136377
0.000159463
0.000157626
0.000151412
0.0137662
0.0132385
0.00636703
0.0129285
0.000148002
0.000159052
0.00016883
0.000148879
0.000150157
0.000144603
0.0104472
0.000142345
0.0086975
0.000160925
0.000171013
0.000184187
0.000189062
0.0102525
6.50782e-05
0.000160018
0.000143534
0.000164465
7.4014e-05
0.000118223
0.000150786
0.000140504
0.000141705
0.00016981
0.000155539
0.000180978
0.0213087
0.000148004
0.000144133
0.000178184
0.000411456
0.00929545
0.015794
0.000141497
0.000170803
0.000146794
0.0166744
0.000146713
0.0197171
0.000156406
0.000147853
0.000160161
0.000147974
0.000192696
0.00015494
0.000162717
0.0104718
0.0161572
0.000151229
0.000155063
0.0001437
7.09475e-05
0.0120234
0.000156855
0.000147486
0.00481603
0.000136412
0.0144412
0.000146231
0.000161342
0.00017219
0.0178133
0.0001626
0.000151222
0.000144824
0.000169656
0.0144784
0.000142883
0.0120774
0.0295019
0.0157574
0.000572091
0.000158792
0.0113585
0.000151544
0.000225303
0.000143263
0.00466215
0.0052385
0.00830187
0.0106356
0.0313992
0.000159837
0.000556451
0.000144311
0.00804919
0.00512701
0.0161547
0.00981425
0.00015301
0.0224991
0.0100779
0.000159777
0.000148751
0.000144917
0.0152009
0.000151695
0.000169415
0.000214376
0.000146441
0.000140257
0.00014504
0.0151795
0.000188865
0.000156278
0.0125046
0.000349338
0.000158525
0.000143487
0.000146527
0.0001647
0.019762
0.000190152
0.000151732
0.000182345
0.0123335
0.000174067
0.00016185
0.00522009
0.000155638
0.0133072
0.000154981
0.000157317
0.000143333
0.000215302
0.000170315
0.00818993
0.00335495
0.0166311
0.000171881
0.0322583
0.000162052
0.000150342
0.000160414
0.00719588
0.0184336
0.00915904
0.00153387
0.000149343
0.000144019
0.000143371
0.000143966
0.000144808
0.00611973
0.000154716
0.0068516
0.00015751
0.0139898
0.00894682
0.0181755
0.000174103
0.000151913
0.0105458
0.000162362
0.0211238
0.0166276
0.000139929
0.00196009
0.000152961
0.0176652
0.00608271
0.000159367
0.00455237
0.00290313
0.000176349
0.000172609
0.000162034
0.0170073
0.00676682
0.000149847
0.000144803
0.00415817
0.000892868
0.000180363
0.00583806
0.000179123
0.000164726
0.000147294
0.0210505
0.0185277
0.000174864
0.000155394
0.0152765
0.0315128
0.000144456
0.000143921
0.000150127
0.0150096
0.0145737
0.000143564
0.0115633
0.00014668
0.000144623
0.000145749
0.0145111
0.000308036
0.000488579
0.0070172
0.000149009
0.000148011
0.000142505
0.0077023
0.000152539
0.0308625
0.00015209
0.0204005
0.000145853
0.000142874
0.000180102
0.00578743
0.00510346
0.000159598
0.0111262
0.000144455
0.000144509
0.000143978
0.000162573
0.000168899
0.000168771
0.00016227
0.00677715
0.000150341
0.000180783
0.0012436
0.0244099
0.000150452
0.0142169
0.0170712
0.000151194
0.0136513
0.000168388
0.0161575
0.000144971
0.000173201
0.000150041
0.0216337
0.00884929
0.000181449
0.0137201
0.000150156
0.000162796
0.000148179
0.0120999
0.00014514
0.000140593
0.00400199
0.000177116
0.0176753
0.000155801
0.00016787
0.00015411
0.000143295
0.0206303
0.000159649
0.00015833
0.000181285
0.000147703
0.000161197
0.000144031
0.0163225
0.000157199
0.0034557
0.00205504
0.000160375
0.00207376
0.00016868
0.0162044
0.000145918
0.016167
0.0339904
0.000140821
0.00014375
0.000148347
0.000145971
0.000160555
0.000145105
0.0063175
0.000171131
0.00018862
0.000303433
0.00014655
0.000146104
0.00014594
5.18037e-05
0.000144602
0.000144623
0.000192355
0.000149956
0.0206003
0.0123925
0.00017322
0.000152543
0.000157869
0.000147922
0.00014665
0.000211374
0.00014866
0.000150086
0.00646878
0.019616
0.000191185
0.000147842
0.00823348
0.013911
0.000146064
0.000177558
0.0102288
0.000143631
0.000149423
0.000143379
3.16647e-05
0.0151059
0.0128804
0.00014853
0.000149889
0.000156012
0.000144804
0.000180184
0.000145991
0.000938413
0.00460494
0.010343
0.000140469
0.000149877
0.000149485
0.0178546
0.000138984
0.0137211
0.00755119
0.00507181
0.0157037
0.0117126
0.0157855
0.000154002
0.0126106
0.00679002
0.00014761
0.000142677
0.000141754
0.013436
0.00715747
0.00945666
0.000155795
0.0138573
0.000144936
0.000184457
0.000151241
0.000148853
0.000147427
0.000140198
0.0166835
0.000147793
0.0350824
0.0311277
0.0130512
0.00016421
0.000164061
0.0143723
0.0144472
0.000154499
0.00498643
0.000145463
0.000137062
0.000143394
0.000165195
0.000153562
0.0107233
0.000158951
0.000333357
0.000162821
0.00720343
0.0120643
0.000182683
0.000139731
0.000169323
0.000174273
0.0158733
0.000150902
0.000136821
0.000158615
0.0401865
0.000149059
0.000784456
0.00980529
0.000160505
0.000169111
0.000150534
0.00390049
0.000145707
0.0199046
0.000137938
0.00580627
0.000155604
0.000144487
0.0103428
0.011656
0.000140582
0.000168306
0.000150511
0.00863778
0.000392049
0.000588803
0.000286875
0.000145791
0.000169593
0.0144609
0.000156446
0.000164735
0.000155824
0.000171237
0.000156329
0.00831845
0.0130036
0.000144575
0.0142911
0.000147523
0.00016187
0.0137048
0.0094872
0.0001611
0.0145921
0.000159039
0.000144864
0.000778988
0.000179035
0.000155435
0.000147644
0.014045
0.000141336
0.0125734
0.000218534
0.000180343
0.000143579
0.000158992
0.0140446
0.000162197
0.0135655
0.000146739
0.000149619
0.000208039
0.0132466
0.00015211
0.0154009
0.0122638
0.011302
0.000146081
0.0121404
0.00309181
0.0184559
0.000143841
0.000163065
0.000147175
0.0154313
0.00017442
0.00536464
0.0014883
0.000145962
0.000150806
0.000143697
0.0176042
0.000130617
0.0197412
0.0125737
0.00014221
0.0131167
0.0109166
0.00017959
0.00753602
0.0146985
0.00016105
0.0119354
0.000149193
0.000151785
5.84785e-05
0.00446528
0.000158919
0.0297569
0.000147606
0.000143909
0.0312139
0.0131449
0.00447162
0.00822916
0.000156492
0.000145919
0.000162773
0.00730731
0.0109382
0.000142852
0.000162
0.0135103
0.000144038
0.000144757
0.00741454
0.0273438
0.000148593
0.000144031
0.000147411
0.000148435
0.015105
0.0001459
0.00015052
0.000151853
0.000321735
0.0294189
0.00858575
0.0134603
0.000144655
0.000150982
0.0160495
0.0123011
0.000154846
0.00118964
0.000143474
0.000158406
0.000151092
0.000159881
0.000171611
0.000149695
0.0170252
0.000158442
0.000147502
0.000150574
0.00503853
0.0339913
0.0123221
0.000144103
0.00017728
0.0117306
0.00399115
0.000150032
0.000150389
0.000144281
0.000351236
0.000144874
0.000160619
0.000153625
0.000143687
0.0162695
0.00128216
0.000145767
0.000150089
0.00014723
0.000145815
0.0241746
0.0111046
0.000170151
0.00827629
0.000197953
0.000146163
0.000143374
0.000144489
0.000146812
0.000145613
0.000174691
0.0001752
0.0143605
0.000154436
0.000178027
0.0124152
0.000239328
0.000144304
0.000140696
0.000149388
0.0193485
0.000146385
0.00111403
0.000198107
0.00017002
0.000165107
0.00858654
0.000147828
0.00127849
0.000141457
0.000148186
0.000149092
0.000149665
0.000179652
0.00255713
0.00131594
0.000160252
0.012519
0.00463368
0.0142019
0.000156023
0.0133408
0.00823211
0.000178266
0.0146214
0.00759746
0.00017746
0.00204637
0.000145963
0.000153933
0.0265735
0.000143539
0.000150209
0.0379261
0.000672584
0.0283633
0.000229022
0.000144385
0.000167864
0.000144617
0.000681767
0.000151084
0.000211892
0.0197751
0.0115209
0.0119932
0.000144741
0.000143275
0.000170385
0.03434
0.0164641
0.000180982
0.000202714
0.000141905
0.000198545
0.0156134
0.00101642
0.000150173
0.000144902
0.000144111
0.000149797
0.00014628
0.000146201
0.00014993
0.0157498
0.000171661
0.0145944
0.00220058
0.000799113
0.000183312
0.000143213
0.000153208
0.000154559
0.000143277
0.000145807
0.0123461
0.0116565
0.00923544
0.014675
0.000149393
0.0131548
0.000182857
0.014898
0.0170082
0.000145591
0.00014877
0.00136852
0.000144909
0.000141116
0.0123242
0.0163631
0.000161446
0.000144016
0.000144633
0.000161076
0.000160408
0.00617905
0.000145641
0.00015205
0.00019498
0.000142604
0.00442745
0.000160183
0.0375561
0.000145847
0.000194921
0.0347932
0.000160077
0.00702694
0.000177655
0.0151667
0.000147536
0.000151296
0.000143877
0.000155366
0.0163126
0.000160479
0.00730248
0.000154229
0.000151609
0.000144084
0.0163579
0.000161634
0.000177915
0.0120931
0.000142171
0.000165138
0.00945338
0.00016901
0.000154395
0.000154753
0.000145145
0.000170139
0.00014987
0.000148746
0.017546
0.00902675
0.0163634
0.000714393
0.000164082
0.0124957
0.00016966
0.0141293
0.000181171
0.000146334
0.000149448
0.000136611
0.000146137
0.0076099
0.00882623
0.000152254
0.00615403
0.0195346
0.000154534
0.000154284
0.000168276
0.0138369
0.00717289
0.0159287
0.0119561
0.0165369
0.000136583
0.000189495
0.000177194
0.000988322
8.27755e-05
0.000143559
0.000179231
0.01083
0.000158105
0.0339634
0.000146926
0.000230976
0.0117166
0.0188659
0.000170625
0.000156355
0.00938716
0.000179224
0.019296
0.0185451
0.0161724
0.000177524
0.0090889
0.000144762
0.000159134
0.000162579
0.0121663
0.00263658
0.0150749
0.000167604
0.000180678
0.000174484
0.000182059
0.00773341
0.000143629
0.000179599
0.0115916
0.000143664
0.0349893
0.0158021
0.0195268
0.0126493
0.00040665
0.00761913
0.000147036
0.00788748
0.00015417
0.000154773
0.000160735
0.000149757
0.0173048
0.000150044
0.00017521
0.000150062
0.000149199
0.0102207
0.000148443
0.000178039
0.000619547
0.000139965
0.0151622
0.000177004
0.000154822
0.00878331
0.000192859
0.000143576
0.00637182
0.000146777
0.0192607
0.00242996
0.000152621
0.000177574
0.000148525
0.00834159
0.0166519
0.00017065
0.00885959
0.00015469
0.000144311
0.0376281
0.000150151
0.000147463
0.000163049
0.000159831
0.000141584
0.00014722
0.000181978
0.000148279
0.0115191
0.000189759
0.000522402
0.0153735
0.000164346
0.000169939
0.000147496
0.00866067
0.00966695
0.0194733
0.000143871
0.000150573
0.000171192
0.000156145
0.00860726
0.000147553
0.0134429
0.000149396
0.0004372
0.000157925
0.000627306
0.0001815
0.000177463
0.0154071
0.0177421
0.0108195
0.0160511
0.000137153
0.000199888
0.000200787
0.0114281
0.000151678
0.000190516
0.00944049
0.0111714
0.000177566
0.000145859
0.0171729
0.00932486
0.000161555
0.000191922
0.000140055
0.000162793
0.000160531
0.00014345
0.00016955
0.0167744
0.00276259
0.0122022
0.000211143
0.000142778
0.000143727
0.000159154
0.000143498
0.009948
0.000145878
0.000144874
0.0110028
0.000188234
0.000160783
0.00017694
0.000184174
0.000176441
0.00827248
0.0171383
0.00890051
0.000151697
0.0169638
0.000152513
0.000142057
0.000149166
0.0140174
0.000190403
0.000189036
0.000188497
0.000147425
0.000146261
0.000143498
0.000146025
0.00015254
0.0199498
0.000203581
0.000154373
0.0077776
0.0113581
0.00532591
0.0192515
0.000144035
0.000155007
0.000879146
0.000143917
0.000162782
0.000152775
0.000149958
0.0127381
0.0172243
0.000146358
0.000159527
0.000155089
0.000172309
0.0195266
0.0329651
0.0106322
0.000149474
0.000172091
0.0141277
0.000171986
0.000177539
0.00177175
0.0138546
0.00514562
0.0156071
0.000144563
0.00766795
0.000151697
0.000150691
0.000143707
0.000168994
0.00648719
0.00872635
0.0128143
0.0100124
0.000167739
0.000140144
0.000140616
0.000144699
0.000170882
0.000161562
0.0112482
0.0184898
0.000171109
0.0160689
0.000146297
0.000167827
0.000140445
0.0195889
0.000179135
0.000149063
0.000183916
0.000176764
0.0233435
0.014283
0.000182349
0.00495574
0.000150847
0.0204029
0.000191378
3.79439e-05
0.00496049
0.000152117
0.000167889
0.000144439
0.010244
0.0077939
0.000160911
0.0309969
0.000191611
0.0310255
0.000171142
0.000204912
0.000166264
0.000141143
0.000178143
0.000170565
0.000150193
0.000167994
0.000155923
0.000157275
0.0098585
0.00018206
0.000149092
0.000155873
0.000158741
0.000157794
0.000154954
0.0329651
0.000178862
0.000549953
0.0092997
0.000143956
0.0166856
0.000144182
0.000152264
0.000149322
0.0165811
0.00016144
0.0197897
0.0218291
0.000169222
0.000171301
0.000178007
0.0363712
0.000179901
0.0102446
0.000189008
0.000161633
0.000154943
0.0180053
0.00816504
0.000192954
0.000170513
0.000161185
0.000152015
0.000150391
0.000162966
0.000159566
0.000145055
0.0001595
0.0176239
0.0211664
0.000185535
0.00016061
0.000141503
0.036947
0.000156401
0.000168008
0.0122897
0.000160804
0.0280022
0.000141933
0.000166895
0.000152422
0.000159151
0.000143456
0.0172617
0.000368841
0.00432475
0.000161776
0.0079643
0.000188665
0.000151802
0.0351032
0.000168471
0.000187915
0.00902489
0.000169521
0.000149991
0.000159889
0.000171134
0.000156382
0.00019706
0.0144491
0.00675394
0.000141214
0.000189489
0.000488683
0.0176927
0.00014321
0.000161928
0.000150381
0.000156096
0.00983142
0.000155006
0.000154588
0.000141744
0.000141039
0.00675945
0.0139069
0.000146483
0.0152133
0.000187372
0.000140681
0.000188208
0.0179847
0.000179784
0.00017669
0.00014379
0.00015305
0.000180336
0.000176455
0.000144873
0.0267373
0.000154762
0.0172305
0.00017242
0.000152204
0.00481685
0.000181268
0.000184048
0.000141848
0.00892658
0.000154963
0.000152575
0.0307148
0.000160178
0.000146034
0.000176118
0.000150544
0.000159232
0.000146741
0.022612
0.00014386
0.000176546
0.002594
0.000177319
0.00014926
0.000146893
0.000155494
0.0198224
0.000183225
0.0142841
0.000179883
0.0184066
0.000140249
0.000171664
0.000151627
0.000142599
0.00865422
0.0114354
0.000151216
0.00539246
0.000184337
0.000170967
0.014419
0.000152075
0.00300636
0.0174575
0.0296527
0.0390182
0.000467226
0.000164016
0.000144231
0.000177096
0.000160618
0.0109282
0.0273666
0.0194143
0.0322864
0.017023
0.000140808
0.0138863
0.00014385
0.000147716
0.000144915
0.0081964
0.000182943
0.000179402
0.000143803
0.0106541
0.000153199
0.0124509
0.000154943
0.00017128
0.000155167
0.000169274