/*--------------------------------*- C++ -*----------------------------------*\
| =========                 |                                                 |
| \\      /  F ield         | OpenFOAM: The Open Source CFD Toolbox           |
|  \\    /   O peration     | Version:  v2012                                 |
|   \\  /    A nd           | Website:  www.openfoam.com                      |
|    \\/     M anipulation  |                                                 |
\*---------------------------------------------------------------------------*/
FoamFile
{
    version     2.0;
    format      ascii;
    class       surfaceScalarField;
    location    "250";
    object      meshPhi;
}
// * * * * * * * * * * * * * * * * * * * * * * * * * * * * * * * * * * * * * //

dimensions      [0 3 -1 0 0 0 0];
oriented        oriented;


internalField   nonuniform List<scalar> 
20673
(
0.00165227
0.000523779
-0.00215541
-0.00188429
-0.00129642
0.00323427
-0.000575252
0.000381448
0.000194245
-0.00254396
0.000445003
0.00207255
-0.00515395
0.00530643
-0.000111239
-0.0014117
0.00148056
-6.87312e-05
-0.000599126
2.82247e-05
0.000569067
0.000279886
-0.000353557
7.42509e-05
-0.00015866
0.000181018
-2.17676e-05
-0.00160513
5.71998e-05
0.00155912
0.000830655
-0.000247264
-0.000584166
0.000861278
-0.00133111
0.000467552
-0.00138236
-0.000269834
0.00021301
5.63136e-05
-0.00274152
0.00428808
-0.00152293
0.00131603
0.00238773
-0.00366939
0.00435511
-0.00174146
-0.00256085
-0.00080974
0.000382105
0.000433403
-0.000687892
0.00154539
0.00225257
-0.00247892
0.00031161
0.000822493
-5.15629e-05
-0.000760532
-0.00014351
-0.000455699
5.87663e-05
0.00310249
-0.00309155
-3.37068e-05
0.000313907
-0.00528971
0.00512904
0.000216955
0.000704398
-0.000592571
-0.000111787
-0.00112712
-0.00147451
0.0026009
0.000522349
-0.0018505
0.00132576
0.000933293
-0.00163138
0.000699476
0.000372807
-0.00124752
0.000880303
0.000625458
0.0013032
-0.00191208
0.00106825
0.0014336
-0.00247322
-0.00238069
-0.000553188
0.00293432
-0.000852409
0.00376812
-0.00291416
0.00228173
0.00298673
-0.00523362
0.00012613
0.000432887
-0.000558142
0.00294033
-0.00281194
0.000263318
-7.00054e-05
-0.000192744
0.00230555
-0.00225204
0.000750603
-0.000628372
-0.000123062
0.000303575
0.000146807
-0.000293371
1.27398e-05
0.000267338
-0.000279046
-0.000688584
0.000456856
0.000216
0.00226136
-0.00198588
-0.000277711
-0.00100128
0.00200276
-0.000964734
-0.00382051
0.00361216
0.000209874
-0.000233227
-0.000565715
9.04237e-05
0.000216845
-0.000307504
0.00119794
-0.00109292
-0.000104912
1.59817e-05
-0.000387689
0.000509124
-0.000330305
0.000499012
-0.000150742
-0.00352845
0.0051781
-0.00163855
0.00133535
-0.000137312
-0.00357054
0.00271912
0.00308489
0.0013201
-0.00111551
4.61099e-05
0.00108752
0.000143471
0.000686663
0.00449135
0.00136985
-0.00580242
-0.00196625
0.00117331
0.000826618
0.000849804
-0.00181279
-0.000888109
0.00095614
-6.73753e-05
-0.00396196
0.00214019
-8.84066e-05
0.00275974
-0.000423562
-0.00162384
0.000212389
-0.000215068
-0.000989105
0.00120584
0.000183619
-0.00510519
-0.00498938
-0.000675939
0.00032313
-0.000229914
-9.32609e-05
-0.00166116
-0.000688803
0.00236973
-7.4235e-05
-0.00504165
1.23996e-05
-0.000170534
0.000145888
-0.000219186
7.35192e-05
-0.00558939
0.000358367
0.00109546
1.94571e-05
-0.00111481
-0.00177893
0.000571929
0.00119827
0.000143732
-5.77803e-06
-0.000137604
-0.00149473
0.00082016
0.000703421
-0.000825273
-2.1621e-05
0.000845338
0.000101438
0.00165915
-0.00174781
0.00226976
-0.000560299
-0.00166756
-0.0043932
0.00142162
-0.00150986
8.70004e-05
2.1723e-05
0.00024211
-0.00093145
0.000991109
-5.93274e-05
-0.000508912
-0.000956851
0.00228594
-0.00227518
4.47404e-05
0.000747655
-0.000961321
-0.000540272
0.000214341
-0.000534316
-0.000178739
-4.73367e-06
0.000133258
-0.000128267
0.000333199
-0.00181475
0.00149065
0.00336802
-0.00156261
-0.00174066
-0.0017019
0.00444459
-0.00271801
-0.00039573
0.00114458
-0.0012011
-0.000353178
0.00155391
0.000154085
0.000265427
-0.000419778
-0.000373803
0.000186878
0.000187709
0.0014437
-0.00107273
-0.000373919
0.00116181
0.0011211
-0.00228664
-0.000884099
-0.000772721
0.00174898
0.00189269
-0.00327339
0.00138037
0.00157049
0.000688565
0.000277449
0.000407191
-0.000667888
0.0019406
-0.00230262
0.000435194
-0.000127196
0.000234914
-0.000107401
-0.00176921
0.0017256
4.62758e-05
-0.000193966
0.000284831
-0.00445638
0.00277292
-0.00133575
-0.000542612
0.00189438
-0.000483479
0.000557205
-7.3314e-05
0.000851956
-0.000102072
0.00141772
-0.000402963
-0.00102
-0.000225538
9.87316e-05
0.000778722
-0.00377046
0.00299586
0.00129604
-0.000852911
-0.000442996
-0.00341933
-0.00130132
0.00479906
7.05182e-05
0.00114689
-0.0012177
-0.000209597
-0.000236017
0.000446117
0.00378596
-0.000804713
-0.00297994
-0.000747565
0.000760433
0.000202334
0.000117172
-0.000381526
0.000112201
0.000269244
0.00243537
-0.00191479
-0.000193124
0.000502826
-0.000181662
0.00286941
-0.00454302
-0.00223964
0.0013221
0.000960482
0.000225102
-0.000266675
0.000330273
-0.000328742
-2.91649e-06
0.000279469
0.000282037
8.41257e-05
-0.000366093
0.00449846
-0.0037147
0.0013599
0.000680534
0.000813164
1.41196e-05
0.00028187
-0.000554299
0.00027204
0.000302793
-0.000336093
0.00215218
-0.000479942
-0.000574264
0.00173513
-0.00526771
0.000165834
0.00308434
0.000702538
-0.000206284
-0.000433003
0.000640618
-0.00102752
0.00179085
-0.000723757
-0.00497027
-0.00018526
0.00517294
0.000122456
0.00164448
-0.00177079
-0.0050105
2.37733e-05
-0.000207464
5.18599e-05
0.000156111
0.000958381
-0.00168205
0.000726582
-0.00545669
0.00193991
-0.00097019
0.00149
-0.000484532
-0.00189784
-0.000721664
0.00265053
2.94242e-05
-0.000424529
0.000397361
0.000600313
0.000695924
0.000906533
-6.71235e-05
-0.00083983
0.00275769
-0.00254206
-0.000200957
0.000397217
0.00162647
-0.00199374
-0.00139835
0.000410762
0.000988247
0.00117786
-0.00281528
-0.000365305
0.000318989
4.64464e-05
2.28814e-05
0.00012144
-0.000264941
0.00054642
-0.00344326
-0.000542878
0.00399702
0.00197359
-0.00298274
0.001009
0.00160399
-0.00184598
0.000253344
-0.000339785
0.000496256
0.000104328
0.00130903
0.00116394
0.000277204
0.000743386
-0.000450123
0.000438478
-0.000296228
-0.000143683
-0.00222804
0.0013578
0.000920381
0.00308557
-0.00119192
0.00102416
0.00154561
-0.00254959
1.69497e-05
0.000445639
-0.000462393
0.000567076
-0.00133751
0.00076536
-0.00439229
0.00221984
0.00221921
-0.000225017
0.000141648
8.26103e-05
-0.00246133
0.00233842
0.000135803
-0.000196027
0.000478967
0.00115802
-0.00108696
-0.000201926
-4.79485e-06
-0.00355452
-0.000155973
0.00378112
0.00153141
-0.00119035
0.00210243
-0.00145884
0.000528141
-0.00151617
0.00274726
-0.000407433
-0.00035587
0.00303337
-0.00266531
0.000253379
0.000451383
-0.00106734
0.000233354
0.000834248
-0.000317311
-0.00107875
-0.000895359
1.49511e-05
0.000889166
0.0010227
-0.00022367
-0.000801893
0.000526974
-0.000487186
-4.0226e-05
-0.000854414
-7.67424e-05
5.27252e-05
-0.00106058
0.00101103
0.000813404
-0.00408617
0.00335258
0.00191818
-0.00189437
-2.51454e-05
0.00134973
-0.00247783
1.9245e-05
0.000118465
0.00209792
0.00132948
0.00159553
-3.59898e-05
-0.00155579
-0.000115207
-0.000893873
0.00101113
0.000869702
-0.00106691
0.000193609
0.000379201
-0.000258073
-0.000619631
0.000292522
0.000320986
-0.000451002
0.000485829
-7.20304e-05
0.000218223
0.000360246
-0.000130791
-0.000228788
-0.00265607
0.00496797
0.00494341
-0.000397296
-0.000158213
-0.000215177
-0.000709441
0.000246136
0.000463381
0.000515956
-0.00546645
-0.000498846
-2.97528e-05
0.000527297
0.000240452
-0.000166937
-7.327e-05
0.00113557
-0.000116523
-0.000454695
0.00246585
0.00121441
-0.00171897
0.000500585
-0.000374626
9.51718e-05
0.000280887
0.000499897
-0.000387276
-0.000112396
0.000290053
-0.00340045
0.00316917
-0.00089235
5.04963e-06
0.00126828
-0.00474092
0.00102275
-0.000775792
-0.000242572
0.0005696
-0.000136367
0.000213091
-5.92401e-05
-0.000153439
-0.000134254
0.00024957
-0.000114894
0.00367061
-0.00232404
0.000517475
0.00118552
-0.00169854
0.00180677
-0.00138558
0.00234964
-0.00271802
0.000527084
-0.000400262
-0.000813679
0.00137633
-0.000831408
-5.39327e-05
0.000333943
-0.00048052
0.000146897
0.000124815
0.000115683
0.00060098
0.000329082
-0.000833769
-0.00121947
0.00231227
0.000148157
-0.00015245
-0.000881821
0.000875102
6.90961e-06
0.00168171
-4.19246e-05
-0.00164589
-0.00154085
0.00328178
5.63787e-05
0.000693979
0.000369973
-4.09204e-05
-0.00032885
-9.90567e-05
5.35743e-06
0.000106101
-0.000411373
-0.000453936
0.000864907
0.00059731
-7.35926e-05
-0.000520745
-0.000471043
0.00244601
-0.00128848
0.00205687
-0.000750233
-0.000200462
-0.00161467
0.00122741
-0.00292499
0.0017145
6.08823e-05
-0.000173257
0.000112582
0.00143592
-0.000590482
-0.000865555
0.00147068
-5.12159e-05
-0.00141149
0.0019953
-0.00185027
-0.000147829
-0.00136741
-0.000833439
-0.00378517
0.00520682
0.0010339
-0.000302698
-0.000735782
0.000882742
-0.000676313
-0.000206417
9.53768e-05
0.000808669
-0.00248741
0.00214147
-0.00359112
0.000873269
0.000191402
-0.000197709
1.45662e-05
-0.000138839
-0.000242353
0.000492846
-0.000482976
-9.36357e-06
0.000838535
3.73747e-05
-0.000875738
-0.000149041
0.00257046
0.000241585
-0.000284822
4.30285e-05
0.000248333
-8.13585e-05
-0.000167588
-0.000103847
-0.000261107
-0.00017589
-0.000649674
-0.000363998
-0.0014235
0.0020984
-0.000455688
9.71867e-05
0.000529882
0.000598366
-0.000424585
-0.000168928
0.000151038
-0.000210574
5.93089e-05
-0.000344684
0.000283946
6.34638e-05
-0.000908845
-0.00102747
0.000138576
0.00022234
-0.000725014
0.00195923
4.26023e-05
0.000206371
-0.000254561
-0.000243463
-0.000351089
0.000594525
0.00214493
-0.00232822
0.000262215
-0.000163139
-6.27196e-05
0.000962796
-9.77467e-05
-7.47597e-05
-3.75936e-07
-0.00405814
0.00194697
0.0021393
0.00188819
0.000884844
-0.0015123
-0.00146987
-0.000653428
0.000242516
-0.00340656
0.00105913
0.00236819
-0.000713218
4.80675e-05
0.000670386
-0.000595919
-3.49205e-05
0.000631386
0.000440246
-0.000105774
0.000121101
0.000375102
0.00384064
-0.00348414
-0.000322025
0.000264945
5.64087e-05
0.00337082
-0.00398095
0.000616062
-3.71606e-05
-0.000670937
0.00185099
-0.00518918
-0.00042285
0.00138342
0.000765215
-0.000352128
-0.000293068
0.000820665
0.000206103
0.00109154
-0.00235944
-0.00100567
-0.00117283
-0.000269554
-0.000354626
0.00255506
-0.00345583
0.00094864
-1.44723e-05
0.000651911
-0.000637415
-0.001992
-0.000456292
-0.00117814
-0.000626715
-0.000798314
0.00129331
-0.000470587
-0.00528874
0.00155569
-0.000591149
0.00018535
0.000405948
-0.00024703
-7.78311e-05
0.000325011
0.00309229
-0.00432699
-0.000348499
-3.07178e-05
0.00052264
0.000477038
-0.000721939
-0.00265187
0.00446401
-0.00173839
-0.000134217
-8.48195e-05
-0.00147909
0.000728171
0.000151297
6.60852e-05
0.00167068
0.000468041
-0.00216665
0.000308683
-0.00154933
0.00124526
-0.000490085
0.000377864
0.00011249
-0.00103285
0.00110201
-6.92356e-05
-0.00470382
0.00127217
-0.000726293
0.000462302
0.00031105
0.000995714
-0.00131089
-0.00124009
-0.00278951
0.000386805
-1.64342e-05
-0.00141925
-4.25561e-05
0.0014661
-0.00492782
0.00248502
0.00248557
0.000395444
-0.000146353
-0.000248873
0.000608948
0.00130848
0.0001258
0.000122075
0.00178155
0.00224168
-0.00401987
0.000566699
-0.00051278
-5.42797e-05
-0.0014754
0.00230892
-0.000807602
0.000714547
-5.70212e-05
-0.000657105
0.00174919
-0.00144113
-0.00255825
0.00114496
0.00141939
-0.000747394
-0.00180233
-0.000312327
-0.000263048
0.000204257
0.00194718
-0.0021311
-0.0015628
0.00260467
-0.000503109
1.98867e-05
-0.00500156
0.000894142
0.0041371
0.00213408
-0.00405425
0.00195805
0.000244503
-3.22708e-05
0.00175645
-0.000156231
-0.00333266
0.00491491
-0.00152383
0.000416895
0.000109945
0.00139934
-0.00046586
9.94046e-05
0.00155137
-0.00153829
0.000245607
-0.000454288
0.000381226
-0.000585388
0.000204318
0.00245694
-0.000228351
-0.00150213
-0.0019818
0.0035745
0.00352277
-0.000158891
0.00045363
-0.00138882
-0.000599008
3.9718e-06
0.000162718
-0.00019945
3.68695e-05
-0.00136314
0.00171458
-0.00034857
-4.6261e-05
-0.000544439
-0.00370839
0.00573396
-0.00196248
0.00140249
7.22809e-05
-0.000598831
-0.000319378
0.000918465
-4.3375e-05
0.000370141
-0.000325628
-0.000472169
0.000198274
-4.26441e-05
0.000100875
-0.0016663
0.00102661
0.000713901
-0.0001437
0.000981687
-0.00309284
0.000934097
0.00224421
-0.000954506
6.26643e-05
0.00190343
-0.00101708
-0.00107027
3.74716e-05
0.000621989
-2.11006e-05
-0.00203564
0.00148621
0.000541581
0.00169221
0.000555134
-0.00221948
-0.000380366
0.000223671
0.00121798
0.000318777
-0.00055553
0.000216752
0.000344839
-0.000150812
0.00091894
-0.000771156
0.000194552
0.000520154
0.00016545
0.000334528
0.00271247
-0.00147174
-0.0017882
0.000193635
-0.00250054
0.000936389
-0.00035491
-0.000527503
-0.000233189
0.000602662
-0.000369229
0.00617291
-0.00258677
-0.00352568
-0.000604099
-0.000122088
0.00554195
-0.000763157
-0.004728
0.000336463
-0.000437652
0.000102308
0.00203675
-0.000392429
-0.00169488
0.00192151
0.00143237
-0.0025728
0.00117137
-0.000376136
0.000877767
-0.000501695
0.00292824
-0.00146024
0.000600999
0.000281388
-0.000914724
0.00118178
-0.000265948
0.00031244
0.000186914
-0.00049972
-0.00181528
0.00142005
0.000391941
-0.00284647
-0.00203907
-0.00023105
0.00144246
-0.000822416
0.000707061
-0.00372358
0.00310604
-8.89498e-06
0.000185262
-0.0051508
-0.00541061
0.000552276
0.00489373
0.00102018
-0.000642754
0.00025368
-4.00978e-05
-0.00442599
-0.00148852
0.00596394
-0.000255375
-0.00277174
-0.000645817
4.83132e-05
0.0012718
-0.00115886
-4.43475e-05
0.000610481
0.000974594
-0.000733495
-0.000241097
0.00118047
-0.000998119
-0.000182162
0.00101464
-0.000958969
0.000788578
-0.000414962
-0.000373545
0.0004223
-0.000308192
-0.000113826
-0.000389245
0.000344878
0.00127563
-0.00491949
0.000199091
-0.000614901
0.000416455
0.000774463
0.0015052
-0.00155746
-0.000778864
0.00236362
0.00384974
-0.00296729
-3.8722e-05
-0.000369334
-0.000340418
0.000671416
0.00030266
-0.00162724
-0.00204471
0.00369783
-0.000514171
0.000333721
0.000182937
-0.00288438
0.00467126
-0.000119114
-0.00216895
-0.000420798
-0.000131381
-0.00383888
0.000466003
0.00341459
0.00103192
-0.00022799
-0.000804906
-0.00294956
-0.00145116
0.000438268
0.000421654
-0.000225816
9.19503e-05
0.000229594
-0.000424773
-0.000210151
0.000441031
0.00138694
-0.00152155
0.000142983
0.000268624
0.000912062
8.37736e-05
0.000312041
-0.000351473
2.13359e-05
0.000330023
0.000109708
4.51455e-05
-0.000153149
-0.000248986
-4.27102e-05
0.000314195
0.000450823
-0.000271154
-0.000177906
-0.000172646
-0.00362482
-0.00140805
-0.00362662
0.00507941
0.000169447
0.000249192
-0.000417976
0.000372181
-0.000372834
4.34341e-05
0.000226108
-0.00107351
0.000949729
0.000131061
-0.000124254
0.000398209
-0.000275998
0.000174757
-5.1583e-05
-0.000119727
-0.00243937
0.00321618
-0.000399698
0.000166918
0.000232566
-0.00114357
0.00105521
8.95178e-05
-0.00121051
0.00143811
-0.000224229
-0.00052544
0.000372062
0.000153277
0.0012307
0.00319488
0.00303467
-7.99607e-05
0.000211341
-0.00117668
0.00237348
-0.000603804
-0.000984677
-0.000324143
0.000771356
-0.00044674
7.11658e-05
-0.00143162
-0.00141804
-0.00196646
-0.000990646
0.000185399
0.000804957
-0.00121971
0.000121542
9.93786e-05
-0.000437195
3.02686e-06
-0.000354185
-0.000810174
-0.000870579
0.000917571
-0.000606236
-0.000543481
0.000338502
-0.000213441
-0.000190218
0.000762466
0.000561564
-0.00132087
-0.000597649
0.000309735
0.000289373
0.00106606
-0.000109615
-0.000965867
0.000439783
0.000437029
-0.000877492
-0.000202504
-0.000343091
0.00133632
-0.00100126
-0.000199441
-6.62373e-05
0.000266953
0.00023087
-2.90835e-05
-0.000135517
-0.000393059
0.000487329
-9.36137e-05
-0.000253705
-0.000336665
0.000593441
0.0002526
-0.00111485
0.000847196
0.0015091
-0.00266204
0.000478058
-0.00134705
0.000900537
8.27915e-05
9.64486e-05
-0.000167755
-5.75023e-05
-0.00397396
0.00139175
0.000154244
-0.000114221
-0.000269669
0.000674144
-0.000403822
0.000146168
0.000276022
-7.19873e-06
-0.000162319
-0.000143924
-0.000381326
0.000856458
-5.63795e-05
-0.00080139
-3.28201e-05
0.00108857
-0.00105234
0.00479825
-0.00245223
-0.00226354
0.000172253
-0.000258139
8.62008e-05
-0.000133237
0.000220068
-8.66723e-05
-0.00278554
0.000920261
-6.84352e-05
-0.00184316
0.00194517
0.000297705
0.000490996
-9.34331e-05
-0.000970857
-0.000585809
-0.000280793
0.000866653
0.000238573
2.2384e-05
-0.00014175
-6.75452e-05
0.000209514
0.00114369
0.000167328
-0.000738772
0.000570794
0.000891537
-0.000644752
0.000749974
0.000239301
4.43793e-06
-0.000350659
0.000345289
0.000670101
-0.000433081
-0.000240056
-0.00318936
0.0017713
-0.00274122
-0.00130608
0.00408888
0.00135975
0.000488802
-0.000150597
-0.00039231
-9.16478e-05
0.00164468
-0.00353081
0.000179175
0.000817078
-0.000888558
-0.000762547
0.00104904
0.000309723
-6.74821e-05
-0.000227799
0.000397905
0.000279869
0.000629452
0.000489259
-0.00112007
-5.21652e-05
-0.000260642
-0.00146388
0.000653522
-0.000385236
-0.000127475
0.00020677
-0.000333741
0.000127303
0.000457093
0.000798645
-0.00124363
0.0018962
-0.000494799
-0.000753758
-0.00460548
0.00456763
-0.00488339
0.000319657
0.000643004
-0.000863957
8.5447e-06
0.00187508
-0.00218402
0.000359641
-0.00459158
0.00458324
2.65479e-05
0.000887814
0.00113499
-7.79582e-05
-0.00012884
-0.000360688
0.00611521
-0.00286216
0.00338956
-0.00130638
-0.00204404
-0.00262014
7.39546e-05
0.00257827
0.000104773
-0.000303397
-0.00152362
0.000109239
0.000861986
-0.000349567
0.000547642
0.000322354
1.99127e-06
-0.000322996
0.000223211
-0.000353303
-0.00160022
0.000430669
-0.00131307
-0.00303398
0.00440979
0.000188793
-0.000127728
2.36963e-05
-0.00126629
0.00343357
0.000179556
-0.00094938
0.000773504
6.70443e-05
-0.000459446
-0.00232835
0.00184208
0.000495937
-0.000507657
0.000197149
0.000404281
-0.00126469
5.77296e-05
-0.00103366
0.000212186
0.000826091
-0.000656202
0.00106862
-0.000411773
2.544e-05
0.000298452
-0.00355566
0.00125922
0.00230252
-0.000437223
0.000313519
-0.0014964
0.00321584
-0.000258004
0.000379817
-0.000952239
0.000343893
-7.78006e-06
-0.000336913
-0.00419785
0.00130891
0.00130227
-0.000254354
-0.0010265
-0.000441003
0.000931401
0.000143882
5.89104e-05
-1.22006e-05
-0.000224364
-0.000193184
0.000382456
0.00150844
-0.000115789
0.00400046
-0.00158133
0.000896552
0.00129145
-0.00215658
0.00390526
0.00225559
0.00238155
-0.00236294
-1.34347e-05
0.00169119
-0.00503732
-0.00034001
-3.4042e-05
0.00141863
-2.74271e-05
0.000370856
-0.000897975
0.000312087
0.00361882
-0.00152296
-0.00205503
0.000490969
-0.000390493
-0.00021462
8.33637e-05
-0.00379555
0.0024601
0.00136245
0.00210387
-0.00571382
0.00362634
0.00130016
-0.000460275
-0.00084049
-7.17237e-05
0.000271052
-0.000200558
0.000203197
-0.000144311
-5.8892e-05
-0.00104527
0.00111731
-6.92261e-05
0.000293402
4.63698e-05
-0.000137003
0.000383318
0.00192074
-0.000105122
-0.000280658
-0.00165301
-2.43134e-05
0.00169853
-0.000431031
0.000489375
-5.69643e-05
0.000996534
-0.00337747
-0.00120617
-3.51975e-05
-0.000646267
0.000819531
-0.000173973
-0.000203983
-0.000391804
-0.00122397
0.000201209
0.00101198
-0.000436982
0.000179753
-0.000701012
-0.00061657
0.00134144
0.000147939
-3.72192e-05
0.00157866
0.000123725
0.0023384
-0.000421826
-0.000110852
-0.000212804
-0.000228771
0.000155203
-0.00147787
0.001592
-0.000116148
-0.00120446
0.000526414
-0.00269556
-0.00164322
-0.000182829
-0.00438911
-0.00176623
0.00103115
2.72438e-06
0.000255438
0.000904363
-0.00120819
0.00213444
0.000197011
0.000718789
-0.000284005
0.00310888
0.00175133
-0.000653186
0.00117366
-0.00112116
0.00137163
0.00107704
0.000179454
-0.00125737
0.00515347
-0.0023492
-0.00273363
0.000461498
-0.000265902
-0.000194333
0.00132896
6.0251e-05
-0.000973956
0.00161286
-0.001544
-0.000350676
-0.00196681
0.000463577
0.000851723
0.00124481
-0.000206893
-0.000924923
-0.00065501
0.000106567
0.000550631
0.00230027
-0.000936237
0.00227661
-0.00187098
-0.000397062
-0.000619444
-0.00319966
-0.000766249
-1.74876e-05
0.000783866
0.000792225
-0.000942892
0.00029341
0.000143053
-0.00137547
0.00158078
-0.000588487
0.00038528
0.000206107
-0.000237377
-0.00124215
0.00044883
0.000116189
-0.000565513
0.000980989
0.000440384
-0.00238597
-0.00111977
0.00350981
0.00358133
-0.00184579
0.00183888
-0.00123953
-0.000610787
0.00161294
-0.000417429
0.000299829
-0.000296323
0.00177448
-9.10386e-05
0.00107242
-0.00137685
0.00135798
8.07828e-06
0.000378482
-0.000626455
-1.72001e-05
-0.00131258
0.00133748
0.000233006
-0.000156422
-7.62468e-05
-0.0018529
0.00207873
-0.000215433
-0.00442711
0.00173379
9.18353e-05
-0.000160244
7.16012e-05
0.000232795
-0.000245423
-0.00144358
-0.00307522
0.00457626
-0.000904364
0.00108925
-0.000210082
0.000211187
-2.74467e-06
-0.000980995
-6.10568e-05
-0.000256335
-8.61134e-05
0.000274781
-0.000224104
-1.07736e-05
0.00185029
-0.00188463
-9.91344e-05
-0.00144521
-0.000791686
-0.00125255
0.000684251
-0.0004596
0.000821508
0.000208878
-0.000579081
-8.49518e-05
-7.24639e-05
-0.000558694
0.00063306
-9.9227e-05
-0.000784275
-0.000695865
0.00145913
0.00229242
-0.00217497
-0.0001494
0.000151625
0.00100545
-0.00104077
0.000125709
-0.000372506
0.000921933
-0.000103424
0.00225072
-0.00385071
-0.000469557
0.000486732
-0.0039933
0.00170621
0.00231867
-2.6626e-05
-0.000204228
0.00233496
-0.000677947
0.00184359
-0.00239734
0.0010703
0.00117395
-0.00252497
0.00136663
0.00474719
-0.00282529
0.000544233
-0.00138324
0.000847212
0.000824539
4.04334e-05
-0.000726538
0.000697543
0.00131983
-0.00200847
0.000125619
0.000728464
-4.95539e-05
-0.0010924
-0.00120929
0.00069296
0.000514356
0.000283553
-7.65128e-05
-3.59835e-05
0.0002965
0.00253268
-0.00110852
-0.000482728
-0.000882344
-0.000797412
0.00169332
-0.000251388
0.000223068
2.81523e-05
-0.00023679
6.60244e-05
0.000171196
-0.000213427
0.000601076
-0.00410235
0.00595306
-0.00180605
-6.59521e-05
-0.000578538
0.00144667
0.000143631
0.000130238
0.000945719
-0.000789599
2.64842e-05
-0.000474783
0.000320342
0.000157098
-0.000416377
0.00085087
-0.000433975
-6.36341e-05
-0.0018276
0.00190918
0.000813769
0.00113533
-0.000648944
0.000106435
0.000543965
0.00155841
-0.00159082
0.000462092
-0.000674739
-0.000997228
-0.000473155
0.00146927
0.000231943
0.000583542
-0.00081298
-6.48083e-05
0.00149663
-0.00144348
-0.000541806
0.000107486
-0.00318214
0.00196515
0.000496376
-0.00113743
0.000629445
0.000273661
0.00154724
-0.00190692
0.000587908
0.00197968
-0.00267073
-0.00337623
0.00539351
-0.00194724
-0.000271906
-0.000367944
5.24273e-05
0.000315482
1.83227e-05
-0.00048178
0.000467736
0.000331401
0.000356047
-0.00519195
0.00112326
-0.00488923
0.000546187
0.00438573
0.000912273
1.47047e-05
-0.000408144
-0.00316823
0.00360985
0.000951236
-0.00135111
0.00035829
0.00281315
-0.00207625
-0.000702463
3.54748e-05
-0.00105808
0.00113075
-9.18506e-06
0.000181709
-0.000670422
-0.000901483
0.00157083
0.000255033
-0.00159388
0.00155422
7.04997e-05
-0.00153132
-0.000891099
0.000996365
-8.6732e-05
-0.00266717
0.000225371
0.00244239
-0.000304983
0.00107372
-0.00136241
-0.00317733
0.00454362
-0.000732447
0.000585602
0.000147525
0.000292155
-0.00171034
0.00142738
-4.60012e-05
-0.000907512
-0.00111759
-0.000503972
0.000183129
0.000321871
0.000504948
-0.000585991
9.19755e-05
-0.000427432
0.000823555
-0.000387269
0.000332861
-0.000973832
1.46904e-05
0.00257681
-0.000253088
-0.000356238
0.000609471
3.02128e-05
-0.000906576
0.000119259
0.000198723
-0.000317229
0.00264375
0.00019921
-0.000939263
0.000340654
-0.00233185
0.000251813
0.00209162
-0.00115679
0.00145592
0.000726748
-0.000346592
0.000784108
-0.000732056
-2.70098e-05
4.46324e-05
-4.81539e-05
-0.00136219
1.88053e-05
0.00481816
-0.00482297
-0.00218675
0.0049828
-0.00276082
0.000698529
-0.000594457
-0.000103069
-0.00158125
0.00384101
-0.00354776
0.00334642
0.000228329
0.00158035
-0.00114423
-0.000417755
0.00314984
-0.00191799
-0.00112941
3.3155e-05
0.000135223
-0.000144349
-0.00132313
-0.0031577
-4.06503e-05
-0.000210726
0.00105476
0.00125085
-0.00228434
0.000474542
-0.00127659
-0.000313197
0.000618125
-5.03153e-05
0.000190339
0.001537
-0.00203799
0.00492813
-0.00283655
-0.00308048
-0.00106927
-0.000146102
-0.000585023
0.000205264
-0.000221012
1.37165e-05
-0.000497836
0.000457882
4.04264e-05
-0.00181109
-0.00173807
-0.00136152
0.00128695
0.00110523
-0.000414818
-0.000147464
0.000194564
-0.00129664
0.000945218
0.00216438
-0.00042335
0.000382088
4.08248e-05
0.0037944
-0.00154956
0.000204421
-0.000350773
0.00158642
-0.00316295
0.00162255
0.00442089
-0.0018286
-0.0025727
-0.000270676
-0.000122763
0.000393568
0.00567895
-8.8274e-05
0.000264394
-0.000521795
0.00315089
0.00147265
-0.00456466
-0.0007708
0.00070414
0.00017155
-0.00197019
0.00144496
0.00105136
-0.00256544
0.000607014
0.000842303
-0.00142101
-0.000195921
0.00016912
-0.000694349
0.000189457
0.000504458
0.00148277
0.0025786
0.00102653
-0.0006239
-0.00042576
-0.000669857
0.00127991
-0.000613477
0.00034327
0.000275018
-1.19509e-05
0.000321246
-0.000152222
-0.000168442
0.000438111
0.000569906
-0.000587653
0.00199002
-0.00042637
-0.00159845
-0.000600962
-0.000185965
0.00078503
0.000262299
-0.000341676
0.000913218
-0.000554639
-0.00108933
0.000477738
-0.00157301
0.00132968
0.000259732
-0.000963756
1.77624e-05
0.000947563
-0.00040811
0.000496885
-8.63829e-05
0.00579791
-0.0040283
-0.0017615
-0.00471531
0.00215026
0.00263816
0.000398923
0.00186354
0.000689613
-0.00130554
0.000613988
-0.00130035
0.000935548
0.000353736
0.000692035
-0.000799025
0.000124237
-0.000183773
8.44126e-05
9.959e-05
0.000166619
-0.000114101
-0.000175516
-0.00105284
0.00123817
0.000288294
0.000144542
-0.000430303
0.000810946
-9.9266e-05
-0.000695718
-0.00111847
0.00192254
-0.000762721
0.000964752
0.00264853
-0.000213418
-0.000848504
0.00155363
-0.0036059
-1.9011e-05
0.0036609
0.00107732
-0.00286737
-0.000133493
-0.000103187
-0.000416108
0.000540785
-0.000116568
0.000506338
-2.85428e-05
-0.00047763
-4.00353e-05
0.00313845
-0.00032647
0.000248718
0.000204585
-0.000423977
0.000214986
0.000851581
-0.00133123
-0.000266905
-0.000423792
0.000690904
0.00113998
5.27165e-05
-0.00119303
-0.00211297
-0.00252904
-0.000571378
-7.54149e-05
-0.000508291
0.000940187
0.000612911
-0.000939339
0.000144282
0.00148243
-0.000237662
-4.69067e-05
-0.000171961
0.00107442
-5.02773e-05
0.000715819
-0.000422868
0.00104618
-0.00174741
0.000681697
0.00105229
-0.00108159
-0.000833232
-0.00148494
-0.00113164
0.000719384
0.000401917
0.00200165
0.00114235
-0.00314448
0.00207569
-0.00209221
7.28284e-05
0.000460322
-0.00165889
-0.00120052
0.0029377
-0.00033341
0.00347865
-0.00319012
-0.000261169
-0.000896586
-4.98653e-05
0.000258793
-0.00048924
-0.000231839
0.000721254
-0.000552807
0.000392656
0.000160223
-0.00365871
0.00127687
0.000521955
-0.000140772
-0.000486102
-5.766e-05
0.000543729
-0.00352771
-0.00170751
-0.000396589
0.000259793
0.000414534
0.000541894
7.91837e-06
-0.000493887
0.00074734
-0.000604542
-0.000142629
-9.2364e-05
-9.1468e-05
0.000571471
-0.00122637
-0.000106368
-0.000480685
0.00288156
-0.00414526
-0.000669074
0.000482248
-0.000281655
-0.000553031
0.000319839
0.000202913
0.000685653
-0.00298587
0.00148288
0.002556
-0.0045385
-4.19094e-05
-3.45974e-05
0.000501871
-0.000460583
0.00221452
0.00113811
-0.00334793
0.000345531
-0.000155283
-0.000190072
-0.00141991
-0.0015085
-1.8334e-05
0.00422815
-0.00418922
-0.00100114
0.000608259
0.000392921
0.00152343
6.32393e-06
-0.00152454
0.00247468
0.00332576
-0.00289114
-0.00167167
0.0011302
0.000559988
0.00142262
-0.00051024
-0.000883473
-0.000187297
-0.00102266
-0.00107212
-0.00181801
0.00278732
0.00153746
-0.0043107
-0.0007314
0.00175793
-0.000522947
-0.000171447
0.000192642
-0.000463107
0.00119536
-4.84262e-05
0.000308178
0.00164917
0.000988392
-0.00107908
-0.000945974
-8.29701e-05
-0.000697842
0.0006938
4.50166e-06
0.000116724
-0.000611376
-0.000868752
0.0014759
0.00208756
-0.000106821
0.000626412
0.00303363
-0.00140654
0.000569496
-0.000584543
0.00301205
-0.000283878
4.74126e-05
0.000259609
-0.00285063
-0.00115574
0.00110167
0.000353847
0.000635611
-0.000990297
0.000352111
-0.000212655
-0.000139467
-0.00182867
0.00174909
-0.000169198
8.15312e-05
0.000276804
-0.000358884
-0.00142861
-0.00103346
-0.00408257
0.00514114
-0.00010517
-1.04626e-05
0.000115857
0.00103576
-0.00199203
0.00225357
-0.00440382
0.00214531
0.000783241
-0.00292945
-0.000897598
-9.26199e-05
0.000227108
0.00298901
0.00223231
-8.00723e-05
-0.000408148
0.000487671
0.000242908
0.000279282
0.000119564
-0.000228981
0.000110096
0.000277959
3.39519e-05
-0.000311042
0.000544509
-0.000111639
-0.0005123
0.00303074
-0.00246059
-0.000156905
-0.000259996
0.000416359
0.00393753
-0.00494883
-0.00450991
0.00203281
0.00256229
0.00571328
-0.0035922
0.00048059
-0.000804278
-0.000392827
-0.00010452
0.000674815
-0.000212614
-0.000452416
-0.000469833
5.75157e-05
0.00463777
-0.00142904
-7.04163e-06
-0.00330289
0.0012052
-0.00107349
-0.000112145
0.00498408
-0.00495036
0.00118274
-0.00445349
-0.000507733
-0.000359758
-0.000786371
0.00110865
0.00177101
-0.00160528
-0.000159989
-0.000235957
0.000523456
-0.000286683
0.00112682
-0.00244352
0.000165831
-0.00176676
0.00161045
0.000860042
0.00279838
-9.41116e-05
-0.000163817
-0.000189358
0.000270853
0.000230461
0.000326878
0.000453606
-0.000163183
0.00121945
-7.98616e-05
-0.000618494
-0.000806345
0.000430237
-0.00159751
-0.000124317
-0.000903745
0.000965736
-0.00168138
-0.000434833
0.00213477
0.000280453
0.000375514
-0.000644342
0.000963804
-0.00100285
3.86537e-05
0.000729215
-0.00119043
0.0004591
-0.00021921
-7.89704e-05
0.000298098
0.00107731
-0.000814582
-0.000144976
0.000327122
-0.000205189
-0.000119899
0.000441287
-0.0010455
-0.00186427
-0.00129961
-0.000338007
-9.43043e-05
0.000432153
0.00330717
-0.00467489
-0.0016251
5.23066e-05
0.00183887
0.0012797
-0.00307371
0.00141023
0.000129585
-0.00150599
-0.000388647
0.000742058
-0.000677586
0.000805833
-0.000102859
-0.000860103
0.00403651
-0.000518702
-0.00149597
0.000311819
0.00119569
-0.000368055
0.000342879
2.60557e-05
6.45115e-05
0.00138095
-0.000498661
0.00146441
-0.000970633
-0.000274131
0.000648259
-0.000374038
-0.00192329
0.001318
-0.000524822
0.00011634
0.0022604
0.000138164
0.000953489
0.00128291
-0.00101163
-0.000270254