/*--------------------------------*- C++ -*----------------------------------*\
| =========                 |                                                 |
| \\      /  F ield         | OpenFOAM: The Open Source CFD Toolbox           |
|  \\    /   O peration     | Version:  v2012                                 |
|   \\  /    A nd           | Website:  www.openfoam.com                      |
|    \\/     M anipulation  |                                                 |
\*---------------------------------------------------------------------------*/
FoamFile
{
    version     2.0;
    format      ascii;
    class       volScalarField;
    location    "250";
    object      nut;
}
// * * * * * * * * * * * * * * * * * * * * * * * * * * * * * * * * * * * * * //

dimensions      [0 2 -1 0 0 0 0];


internalField   nonuniform List<scalar> 
13917
(
0.000435447
0.00187102
0.0225602
0.00183288
0.00672513
3.55239e-05
0.0226581
0.0194563
0.0202054
0.000303235
0.000311623
0.000767558
0.00182301
0.000683343
0.000581832
0.000770393
0.00193287
0.000628972
0.00086072
0.00672326
0.00672579
0.0224918
0.00672501
0.0220871
0.006739
0.0226583
0.000163672
0.000111842
3.14572e-05
0.000392835
0.000468119
0.00071522
0.000222477
0.000577177
0.00528163
0.0129786
0.00672483
0.0130227
0.00148599
0.00416886
0.00674349
0.00672616
0.00674164
7.43846e-05
0.00263069
0.00048995
0.000669953
0.000689677
5.49017e-05
0.00672128
0.00108448
0.00192975
6.41072e-05
0.000519085
0.00176073
0.000985307
0.000885606
0.00302334
0.0010795
0.00261547
0.00665838
0.00211693
0.000325744
0.00672323
3.70299e-05
0.00218812
0.00672473
0.00640445
0.000909183
0.000376194
0.00672485
0.0199101
0.00965757
0.00616568
4.6126e-05
0.000787257
0.00490431
0.00175659
0.0224497
0.0067253
0.00672487
0.0067244
3.60263e-05
0.015044
0.00918305
0.00187245
0.00672462
0.00111882
0.00118006
0.00674342
0.0119327
0.000350493
0.00396211
0.00113137
0.00151801
3.67211e-05
0.000650874
0.000681332
0.00112381
5.74978e-05
0.00672937
0.000255876
7.14948e-05
0.00158964
0.00674952
0.0188818
4.41291e-05
0.000681983
0.00185504
0.00041285
0.0105533
0.00553204
0.000865896
0.019693
0.00119798
4.82128e-05
0.00673101
3.84757e-05
0.00573165
0.000529699
0.00672594
0.00094704
0.00635224
0.000131836
0.00672609
0.00122496
0.00260025
0.00672673
0.00673086
3.54804e-05
0.0143796
0.00117071
0.00259509
0.00672592
0.00751001
0.0220624
0.000430357
5.24884e-05
0.00672505
0.00055258
0.0103537
0.00602871
0.00145881
5.90568e-05
0.00513785
0.0177143
4.2241e-05
0.00182221
0.00677614
0.000602397
0.00074583
4.90355e-05
0.000803108
0.000296578
0.000828796
0.00350535
0.000427622
0.013378
0.00274942
0.00725916
0.000776912
0.000158538
0.00672535
0.000813703
0.000877392
0.00111526
0.0015793
0.000760386
0.00349801
0.000256012
0.00028753
0.00336605
0.000784925
0.00146787
0.0154635
0.000255819
0.0158577
4.11653e-05
0.0171607
0.00413927
0.000342898
0.000468876
0.00615001
0.00672457
0.000408126
0.0229354
0.00057697
0.00348152
0.000694183
0.00101219
0.0105459
0.00917559
0.00038133
0.00672518
5.48023e-05
0.000162809
0.00360672
0.00375746
4.93702e-05
0.000336124
0.00127352
0.00672118
0.00074555
0.000815174
0.00738416
0.00776358
0.00628003
0.00319202
0.000691239
0.0228755
0.00162304
0.0225524
0.00361828
0.000812591
0.00674811
2.73468e-05
0.000733963
0.00404576
0.00641002
0.00795198
0.00446581
0.000443869
0.00673359
0.0136763
0.0192309
0.000710405
0.000173844
0.000856761
0.00674653
0.0123805
0.000807516
0.00073821
0.0221668
0.00218005
0.00672775
0.000670825
0.0139095
0.00715938
0.00672525
0.00672625
0.00644909
0.000924972
0.00672561
0.00854786
0.000602204
0.00015694
0.000489398
0.00672521
0.000217727
0.0029883
0.003429
0.000304894
4.86449e-05
0.00270941
0.00321476
0.000800224
0.0101598
0.00075387
0.000346825
0.000635119
0.00672571
0.00375898
0.0127613
0.0115201
0.00674478
0.00825628
0.00272657
0.0127672
0.0221258
0.000842543
0.00672506
0.00672293
0.000680467
0.0101995
0.00075778
0.00113723
0.0093249
0.000986841
0.00673047
0.0100453
0.00672282
0.0189346
0.0012768
0.00672543
0.000560634
0.000275247
0.0001692
0.00991343
0.000363122
0.00285198
0.000444719
0.0220155
0.0111958
0.00673895
0.0135038
0.00672379
0.00293999
0.00672997
3.36863e-05
0.00672111
0.00045009
0.000512327
0.00360029
0.00089783
0.00132193
4.97567e-05
0.000281088
0.00035424
0.00433416
0.00347691
0.00951025
0.00550676
0.00673207
0.00672896
0.00941315
0.00388783
0.0111251
0.00471871
0.0150088
0.00257563
0.00023064
0.00100036
4.94152e-05
0.000804204
0.00542566
3.48598e-05
0.000615632
0.000672209
5.15423e-05
0.00183756
0.0132337
5.55913e-05
0.00392391
0.00064127
0.00355904
0.000622591
0.0126328
4.06603e-05
8.21144e-05
8.49326e-05
0.0221359
0.006725
0.000305353
0.0121256
0.00223667
0.00102242
0.00329825
4.5641e-05
0.00166367
0.00853581
3.13163e-05
0.00672572
0.00348584
0.0117125
0.00672289
0.00673473
0.00672383
0.00677702
0.000583576
0.0158002
3.0615e-05
0.0112825
0.00673428
0.00029987
0.0011986
0.00077968
0.0224157
0.0125481
0.0195802
0.00673353
0.0102776
0.0067362
0.00748481
0.00271487
4.7935e-05
0.000573542
0.00151243
0.00672477
0.00070635
0.000334474
0.000638076
1.44795e-05
0.0118715
0.00202794
0.000201385
0.000320503
0.00672543
0.00760213
0.0223585
0.0026679
0.00307599
0.00673183
0.00112869
0.00276104
0.00672513
0.00123195
0.0218735
0.00126404
0.0125582
0.00181989
0.00103437
3.32412e-05
0.00192793
3.17046e-05
3.1471e-05
0.00672608
4.58546e-05
0.00231631
0.00655197
0.000405949
0.00672547
0.00607293
0.00673653
0.000116708
0.00672547
0.00516883
0.0224945
0.00101414
0.000366764
0.0150789
0.00410279
0.00084919
0.0067327
0.000616826
0.00147605
0.000634021
0.00672553
0.0179514
0.0227776
0.0226265
0.000697298
0.000597032
0.000721236
0.00145252
0.000644386
0.00126945
0.0105896
0.00188824
0.00672246
0.0131149
0.0151695
0.0164444
0.000225616
0.000553527
0.0154099
0.0134419
0.00464327
0.00673098
0.000701772
0.00127272
0.00267857
0.00566913
0.000674669
0.00679781
0.000530783
0.000823763
0.00423204
0.00672638
0.000788313
0.000726567
0.000284109
0.00748095
0.00672559
0.00291569
0.00686465
0.000400066
0.00673148
0.0229913
3.37836e-05
0.000405016
0.00649545
0.00100845
0.000725109
0.014794
3.4253e-05
0.00104174
0.0114748
0.000895908
0.000481191
0.000515702
0.000937455
0.000204203
3.85582e-05
0.000908596
0.000672505
0.00678359
0.00638453
0.00100227
0.00649107
0.00042508
0.00186832
0.00520733
0.0197565
0.00445102
0.00673647
0.0228314
0.00235755
0.00672546
0.00466667
0.00192904
0.00034331
0.00431626
0.00645637
0.0124331
0.000679472
0.00185392
0.0170968
0.00036762
0.0016449
0.00672568
0.00385805
5.14842e-05
0.00940549
0.00650338
0.0086589
0.016929
0.000923663
0.00673591
0.00187516
0.00085224
0.00176764
0.00678811
0.00673316
0.00672157
0.00672177
0.00619731
0.00470162
0.00081771
0.000590201
0.0067391
0.00672823
0.000610528
0.0186655
0.000710298
0.00310333
0.00673706
0.00672883
0.00995083
0.00920879
0.0067244
0.00672991
0.00975785
0.000915641
0.000970176
0.00272464
0.00118033
0.000672554
0.000706618
5.33808e-05
0.000575061
0.000502468
0.000645132
0.00887556
0.000355801
0.00673759
0.0042739
0.00672808
0.000922904
0.00145695
0.00635893
0.000126425
0.00672957
0.000290349
0.00039468
0.00044051
0.000732757
0.000225363
0.000829454
0.00672451
0.0163222
0.000302541
0.0213089
0.00202602
0.00089526
0.000589518
0.0134348
0.000310586
0.000678009
0.00022104
0.000699582
0.00112441
0.0028704
0.00012953
6.86116e-05
0.0025775
0.00072172
5.02117e-05
0.021546
0.00218206
0.000981439
0.000852512
0.0113023
0.00057435
0.00157017
3.09008e-05
0.0150229
0.019937
0.000549602
0.00673209
0.00485512
0.00084234
0.00674183
0.000690406
0.000750558
0.000233565
0.000401766
0.0223865
0.000727049
0.000936512
0.0165132
0.00152058
0.00295434
0.00672537
0.00672431
0.0156684
0.0175813
3.42435e-05
0.0015306
0.00146113
0.00672931
0.000953272
5.43298e-05
0.000834089
0.00107705
0.000943258
0.00072205
0.00416447
0.000175812
0.000748819
0.0115191
0.00661968
0.000711889
0.00165793
0.00144489
0.000334682
0.000133915
0.000836396
0.0067235
0.00680289
0.00250387
8.41217e-05
0.000369869
0.000597331
1.52999e-05
0.000759335
0.00672516
0.000651842
3.01302e-05
0.0137572
0.00342407
0.000471044
0.0067322
0.00123349
0.00104687
0.0175421
0.00672518
0.000173688
0.00121467
0.000279577
0.000308569
0.00945471
0.00014016
0.00199124
0.00888375
0.00050985
0.00281189
0.00157067
0.0117291
0.000393858
0.000701039
0.00672483
0.00186603
0.000170579
0.00151773
0.000649888
0.000830428
0.00664545
0.000807552
0.0224627
0.00374227
0.00212432
0.00672147
0.00467582
0.00672576
0.00075938
0.0040329
0.00102686
0.0143529
0.000853922
0.000200839
0.00672168
0.000215239
0.00672914
0.000470658
0.00672311
0.000170439
0.0019842
0.000724171
1.69173e-05
0.0185552
0.00684697
0.00672464
0.000365881
0.000435874
0.00581647
0.0195313
0.000654816
0.00650987
0.000187429
3.1209e-05
0.0107143
0.000668323
0.000691006
0.022518
0.000425018
0.00102356
0.000541462
5.59237e-05
0.000630675
3.01249e-05
0.000603605
0.0017297
0.000748182
0.000565316
0.00494307
0.00119647
0.00041644
0.000633706
0.00672978
0.00673164
0.000743868
0.00165238
0.00057657
0.00584461
0.00672997
0.00672588
0.00120746
0.00675651
0.000858936
0.00672154
0.00595751
0.000858389
3.67465e-05
0.00672973
0.00672546
0.000131626
0.00051846
0.00132167
0.00984581
0.000238859
0.00642925
0.00120871
0.000588718
0.00211114
0.00672586
0.00672187
0.00121403
0.00217874
0.00672557
0.0117494
0.000761068
0.00162937
0.000173443
0.000235915
0.000908914
0.00675285
0.00672624
0.000832548
0.00515522
0.00161468
0.0101877
0.00140389
0.00672395
0.000853726
0.00672527
0.00674261
0.000682144
0.00040333
0.00340174
0.000518619
0.00370221
0.00673709
0.0153563
9.51824e-05
0.00205801
0.00219224
0.00989308
0.0115605
0.0022613
0.000247909
0.00172599
0.00672751
0.0067401
0.000917015
0.000471772
0.00552098
0.000586076
0.0113425
0.00194796
0.000899695
0.00172094
0.00673128
0.0011104
0.00325309
0.0067222
0.00041621
0.000147791
0.00190837
0.017657
0.00779737
0.00033168
0.00673851
0.00677483
0.000744422
0.0109381
0.00672545
0.0075622
0.00676946
0.000445266
0.00474381
0.0046573
0.00197877
0.00288328
0.0171523
0.000543314
0.00672585
0.00674312
0.00340402
0.00605696
0.00211426
2.37507e-05
0.0037652
0.0050806
0.0209303
0.0158218
0.000940848
0.000415523
0.000654661
0.00117807
0.00575323
0.000399874
0.00643132
0.000156363
0.00672499
0.00214204
0.0196206
0.00082284
0.0130061
0.00672573
0.00121668
0.00320144
0.000874556
0.00184883
0.00193199
4.01746e-05
0.00641279
0.000509015
0.00672198
0.00292582
0.00673235
0.00993951
0.00675384
0.00348961
0.00583242
0.0179944
0.00149208
0.000310909
8.72771e-05
0.00446275
0.000253695
0.0067242
0.0117113
0.00672708
0.00350856
0.00672407
0.000844244
0.00672389
0.000520948
0.00587181
0.0221184
0.000474905
0.0110493
0.00552469
0.00354729
0.00314624
0.00701813
0.00699652
0.0148597
0.0209195
0.000259918
0.000621855
0.00194428
0.0221317
0.000864019
0.0219927
0.006818
0.00397468
0.00216668
0.00672413
0.00109926
0.000300782
0.00681522
0.00409821
0.00672827
0.00169269
6.00097e-05
0.0035204
0.000217467
0.000777488
0.00231079
2.26063e-05
0.000162579
0.000838751
0.00174978
0.00503804
0.00261895
3.91233e-05
0.00486264
0.000392456
0.000410455
0.0069313
0.0194407
0.000832516
0.00405529
0.00204899
0.00191186
0.00673527
0.00121058
0.00672891
0.000723476
0.000383109
0.00690651
0.000619919
0.00357626
0.00061279
0.0139548
0.000427149
0.00186694
0.00353714
0.00363118
0.00174918
0.000194073
0.00603366
0.00672369
0.0063336
0.022421
0.00877615
0.0107952
0.000639127
0.0128298
0.00617048
0.000521895
0.00184673
0.0067273
0.00183717
0.0229803
0.00384423
0.00500054
0.00674507
0.00306294
0.0125042
0.00145196
0.000852698
0.0056759
0.00171972
0.000631172
0.00430353
0.000474955
9.9157e-05
0.0169415
0.00280134
0.000156629
0.000914718
0.00835058
0.0132909
0.00605799
0.00907995
0.000661137
3.87325e-05
0.00672384
0.0215631
0.00672499
0.000914144
0.000402439
0.000694602
0.0229009
0.0118326
0.000174244
0.0149974
0.00672411
0.00117061
0.00460344
0.000595646
0.0222792
0.00255244
0.00672524
0.00150002
0.00238575
0.00724798
0.00674595
0.00672516
0.000800683
0.000470667
0.000766452
3.25351e-05
0.00114502
0.00216086
0.000850464
0.000786521
0.000979506
0.0073677
0.000877804
0.00518532
0.0224373
0.00130021
0.00423148
0.0158627
0.0108474
0.00186532
0.00058733
0.000685761
0.00246204
0.00112285
0.00210476
0.000398484
0.00672627
0.00072094
5.48118e-05
0.00673505
0.00052919
0.0042783
0.00015812
0.00672319
0.000514136
0.000679646
0.00160451
0.00268676
0.00469926
2.67615e-05
0.000289167
0.0140609
0.00523895
0.00216917
0.000742685
0.003388
0.00048483
0.000292511
0.00271021
0.000593999
0.00462066
0.00762021
0.00201461
0.00102617
0.00451375
0.000941955
0.00634966
0.00101729
0.00401454
0.00672683
0.00673209
0.00811895
0.0118924
0.000743416
0.000375664
0.00672308
0.00271205
0.0229912
0.00140208
0.00675343
0.00474607
0.00451791
0.0127955
0.00672489
0.00675001
0.00214413
0.00114062
0.0117102
0.00239877
0.00185305
0.00674408
0.000615877
0.00672147
3.26005e-05
0.000541988
0.00672568
0.0178043
0.000193183
0.000927322
0.0166952
3.26043e-05
0.00530609
0.001915
0.00279214
3.60865e-05
0.000552155
0.0114497
0.00486955
0.000837702
0.0221175
4.2455e-05
0.000743062
0.000214777
0.000152205
3.55524e-05
0.0228198
0.000127967
0.000170923
0.0164165
0.00083141
0.000713479
0.00793544
0.000103938
0.00673827
0.00157249
0.00585661
0.000332799
0.00465654
0.000202217
0.000480937
0.000464362
0.0080204
0.00103752
0.0146838
0.000999105
0.0103574
0.000555756
0.000395601
0.000811938
0.00475618
0.00150778
0.02171
0.0067315
0.00076706
0.00676732
0.00119758
0.00389566
0.000252112
0.000733827
4.00568e-05
0.000166016
9.71278e-05
0.0225299
5.54373e-05
0.00387047
0.0121719
0.0229734
0.00676957
0.00673294
0.000809031
0.00303034
0.00672528
0.000585179
7.7228e-05
0.000291393
0.00336668
0.00190049
0.00395984
0.000622699
0.000293167
0.00672164
0.000804421
0.0224721
0.000231923
0.00886364
0.000931698
0.000717696
0.00108775
0.00116082
0.0223573
0.0100304
0.000796169
2.1334e-05
0.000710348
0.00672601
0.00324007
0.0023798
0.00457982
0.00134648
0.000228995
0.00638588
0.000745733
0.00672566
0.0008311
0.00480932
0.000254474
0.000781645
0.000242374
0.00371704
0.000376762
0.00331562
0.0218513
0.00673315
0.000575743
0.00672505
0.00180384
0.00778063
0.00110161
0.00629743
0.000793669
0.00295488
0.000632961
0.0115626
0.00307157
0.00175096
0.000484118
0.000707929
0.022272
0.00640082
0.000438139
0.00190537
0.00672872
0.000295783
0.00168719
0.00673008
0.000880875
0.00383017
0.00101442
0.00798824
0.0178945
0.000619765
0.0131739
0.00107182
0.00672933
0.000374525
0.00238851
0.00189654
0.000341193
0.000886894
0.000822198
0.0063784
0.000678357
0.000535069
0.000585973
0.00676775
0.00674165
9.08627e-05
0.00166106
0.00672613
0.00023911
0.00681054
0.000708888
0.000715565
0.000747604
3.82521e-05
0.0227442
0.00149863
0.000924316
0.0144985
0.00362809
0.000958561
3.68076e-05
0.00297578
0.0007147
0.00579963
0.000989113
0.000560138
0.000644849
0.00643182
0.0067255
0.00672758
0.00215286
0.000472093
0.00471025
0.0008565
0.00082923
0.00145015
0.000285216
0.0102436
0.000340656
0.00137428
0.020197
0.00186732
0.00459127
0.00149655
0.000124204
0.00650074
0.00354907
0.00415936
0.00281343
0.00201182
0.0222958
0.000343837
0.00214189
0.0067216
0.00395511
0.0217182
0.00183752
0.000149094
0.00090217
0.00672926
0.000579994
0.0006757
0.00674339
0.00672668
0.0222703
0.00494824
0.00218022
0.00137847
0.00287118
0.000682647
0.000212959
0.00406472
0.00129294
3.10259e-05
0.0132379
0.0106364
0.0112845
0.00203549
0.00101324
5.0028e-05
0.000364382
0.00672924
0.000833549
0.0113986
0.000935881
0.000136199
0.0220311
3.76966e-05
3.93846e-05
0.000586508
0.00196678
0.00672508
0.0067286
0.00283185
0.000734427
0.00154154
0.00187083
0.00114634
0.00672592
0.00358509
0.00556915
0.00080017
0.000955206
0.0177495
0.000162582
0.00179331
0.0137693
0.00040314
0.000709833
0.00672956
0.00048596
0.00244412
0.00225689
0.00109911
0.000746548
0.000782752
0.000106241
0.0225001
0.00846359
0.00370703
0.0113394
0.00674124
0.00231625
0.000177738
0.00672584
0.00339712
0.000919185
0.0122162
0.00446182
0.0227569
0.0022472
0.0052625
0.00113095
3.41964e-05
0.00062572
0.00158885
0.00578425
0.00138042
0.00444952
0.0181599
0.00672507
0.000137492
0.00672176
0.00578055
0.000586284
0.00558566
0.022902
0.000708748
7.7682e-05
0.00672605
0.00361115
0.000391098
3.3567e-05
0.0020008
9.46623e-05
0.00351399
0.00505617
2.5159e-05
0.00253231
0.000515734
0.000110239
0.00672505
0.00658918
0.000980437
0.000712591
0.000562528
6.58138e-05
0.000244292
0.000193284
0.00149644
0.0220771
0.000355417
0.00341238
0.000363974
0.00083406
0.00295411
0.000484467
0.00341839
0.000848016
0.0226164
0.00149773
0.00590256
5.17465e-05
0.0017613
0.0184962
0.00187094
0.022857
0.0112267
0.000475489
0.0067315
0.00673394
0.00672557
0.00673144
0.000549489
0.000151364
0.000181446
0.000810619
0.00672265
0.0083844
0.00156131
0.000507511
0.013385
0.00395153
0.00118146
0.000739191
0.00116197
3.8555e-05
0.0091598
0.000500536
0.0225415
0.00597637
0.00633897
9.38676e-05
0.00588146
3.68502e-05
0.0067241
0.00213889
0.00068765
0.0228079
0.00489158
0.000331634
0.00256531
0.000155875
0.00077197
0.0168615
0.000589313
0.000836958
0.000654776
0.00095512
0.000297392
0.000799694
0.00672406
0.000467427
0.0102049
0.00672458
0.0134012
0.00672549
0.00289745
0.00669667
0.0135155
0.00672682
0.00239696
0.00172613
0.00396758
0.000244928
0.000898632
0.00206244
0.00672657
0.00672332
0.00101055
0.000748218
0.000718684
0.000525733
0.00529199
0.0145077
0.00193533
0.0194742
5.54405e-05
0.000541969
0.010447
0.000826579
0.022126
0.0132632
0.00389646
0.00164684
0.014753
0.0136534
0.00672822
0.00672863
0.000373026
0.0124678
0.00815893
0.00438126
0.00289636
0.01569
0.00064022
0.00245552
0.00107931
0.000785084
4.27135e-05
0.00206429
0.0171767
0.0041138
0.0133016
0.000334871
0.00324879
0.00643997
0.0067235
0.000519709
0.00880163
0.000861691
0.0013023
0.00139654
0.000153303
0.00295152
0.00089638
0.0142707
0.00268391
0.00508091
3.98348e-05
0.00673089
0.00672399
0.022741
0.00674215
0.00646988
0.00114768
5.63363e-05
0.000717781
0.00365961
0.000478447
0.00673153
0.0192574
0.000553286
0.00390418
0.00257798
4.73698e-05
0.000610301
0.00271023
0.00108392
0.0140063
0.00672415
0.0106724
0.0153374
0.0094631
0.000262194
0.000252994
0.00443504
0.00180539
0.000182375
0.0010442
0.022252
0.000572003
0.0010097
0.00369422
0.00115754
0.000394113
0.00357656
0.00132727
0.0121062
0.00308377
0.00672889
0.00427714
0.00083004
0.00272483
0.000679872
0.00673529
0.00064359
0.00171103
4.44644e-05
0.000146169
0.0044736
0.00672441
7.04344e-05
0.00225365
0.000724602
0.00104302
0.000525773
0.00376699
0.00149621
0.00112276
0.00189412
0.00879495
0.01322
0.00673619
0.00672389
0.0017659
0.00107897
0.00673854
0.00173462
0.000945899
0.000774165
0.0123116
0.00678932
0.0144852
0.0090402
0.00672604
0.00178606
0.00076533
0.00102022
4.20971e-05
0.00184168
0.00678008
0.000394858
0.00106306
0.000816537
0.00674025
0.00807398
0.00356635
0.00206782
0.000298611
0.012241
0.012811
0.00672537
0.00672238
0.00123889
0.00285508
0.000582711
0.00155985
0.000490545
0.00156433
0.0106109
0.0020673
0.0214836
0.00673988
0.0184265
0.00193097
0.00674191
0.0086415
3.36303e-05
6.11652e-05
0.012923
0.000149297
0.000756053
0.00578809
0.00613267
0.00672919
0.00673768
6.67e-05
0.000837365
0.00400937
0.00855106
0.000580987
0.0131037
0.00047536
0.00124548
0.00679027
0.00115164
0.00107326
0.014361
0.000659301
0.0130623
0.00710073
0.00249871
0.00340776
0.0029759
0.000194953
3.8545e-05
0.00151909
0.00672527
0.000631247
0.000759491
0.000767039
0.000401287
8.14134e-05
0.00672251
2.96928e-05
0.000425623
0.00216543
0.000603583
0.00108625
0.00119937
0.0191637
0.00672321
0.000488259
0.0227744
0.00133856
0.000832176
0.000928137
4.99878e-05
0.00127193
0.00326122
0.00115792
0.000818571
0.00105107
0.000384448
0.00180012
0.0132892
0.00672957
9.46125e-05
4.06308e-05
0.0126553
0.000596067
0.00039383
0.00129573
0.000150963
0.00672557
0.0125196
0.0011261
0.00307984
0.000874057
0.00672303
0.0067257
4.10042e-05
0.00672836
0.00672329
0.00277796
0.000739309
0.00206824
0.00050678
0.000793878
0.000316774
0.000465652
0.00672525
6.31875e-05
3.18599e-05
0.000456509
0.000415102
0.00043979
0.000641266
0.020487
0.000320497
0.00672605
0.0102662
0.0229548
0.00672603
0.00117824
0.00673662
3.61665e-05
0.00036697
0.00274371
3.75639e-05
0.0132012
0.0067284
0.00211526
0.0224028
0.00857526
0.000841041
0.00674588
0.00570391
0.0168888
4.93854e-05
0.00672897
0.0150098
0.00084794
9.52498e-05
0.0110928
0.00104319
0.0067363
0.000818107
0.000399736
0.00085491
0.0228074
0.0150942
0.0057794
0.0132488
3.75409e-05
0.00753292
0.0067415
0.000113342
0.00199813
0.00430453
0.0186369
0.0120556
0.000743321
0.0130757
0.000437464
0.000595468
0.00684296
0.0141183
0.00429374
0.00673528
0.00207131
0.000271352
0.00400129
0.000719921
0.0217207
0.0111442
0.00061042
0.00186363
0.00278041
0.0179465
0.000628248
0.000688028
0.00629138
0.00118343
0.000290375
0.0119231
0.00722462
2.75187e-05
0.00672386
0.000626174
0.00685161
0.000158983
0.00745378
0.00265798
0.00672776
0.00672632
0.00101688
0.000557417
0.0022489
0.0202395
0.0140418
0.00518166
0.00674143
0.0067242
0.00672647
2.33428e-05
0.00520024
0.0226505
0.000534846
0.000843987
0.00406089
0.000329583
0.0155322
0.000851333
4.50879e-05
0.00766531
0.0018106
0.00314151
0.00025589
0.000209197
4.88399e-05
0.00316308
0.0072827
0.000911708
0.0062785
9.81022e-05
0.00504051
0.000598623
0.00206
0.022498
0.000318597
0.000636126
0.0108759
0.00063181
0.00672448
0.000374655
0.00100247
0.00672574
3.89217e-05
0.00673121
0.000974762
0.000727623
0.00225466
0.00896472
0.00106069
3.50392e-05
0.00122625
0.00673316
0.00957969
0.0160254
0.000735466
0.000251846
0.000945171
0.000365309
0.000844928
0.00130388
0.000573945
0.00115703
0.00621738
0.000610298
0.0227159
0.000139841
0.0108158
0.000732845
0.00201846
0.0208447
0.00672934
0.0228223
0.000751538
0.0124417
0.00293099
0.0052559
0.00970905
0.000233743
9.45995e-05
0.00283163
0.0211085
8.85211e-05
0.00506609
0.00234701
0.0177484
0.000997903
0.00157533
0.000553582
0.000642543
0.00090786
0.00592468
0.006726
0.00112424
0.00106716
0.000376278
0.00672389
0.00079658
0.00676208
0.0228326
0.000878844
0.00046253
0.000701259
0.000713601
0.000234637
0.0127134
0.000410869
0.00594343
8.90361e-05
0.0219396
0.00322976
0.00223485
0.0225275
0.000869529
4.14558e-05
0.00672931
0.00074883
0.0169244
0.00086863
0.00509187
0.00299994
0.000240861
0.0184623
0.00291627
0.00676575
0.00207789
8.96396e-05
0.000789201
0.0208589
0.000761712
0.000167299
0.000410114
0.000384108
0.00222963
0.0152811
0.0198918
0.00128206
0.000626727
0.00105302
0.000350832
0.00542089
0.000832774
0.00188621
0.000272358
0.00674365
3.55698e-05
0.00568359
0.00387544
0.00466086
0.000830732
0.00214644
0.0162561
0.00674007
0.000740293
0.0067253
0.00200832
0.00102588
0.000173007
0.0119586
0.000541448
0.00672268
0.000357967
0.00115889
0.00335264
0.000744279
0.00549046
0.0087029
0.0129439
0.000756961
7.24528e-05
0.00672458
0.00817948
0.00103743
0.00069632
0.00551774
0.0022089
0.00672296
0.000805524
0.00672472
0.000815104
0.00280366
0.00458965
0.0155212
0.00387388
0.000802231
0.00133872
0.00672598
0.015106
0.00407518
0.000424596
0.0164817
0.000929941
0.0224972
0.00332261
0.0137111
0.000909121
0.0207406
0.00106638
0.000737482
0.00274991
0.000726994
0.00075273
0.00069195
0.000676243
0.0136801
0.000615646
0.000185225
0.000527683
0.000835617
0.000217808
0.000967793
0.000636148
0.00276592
0.00408426
0.000789176
0.000205189
0.0108338
0.000718614
0.0224616
0.0120738
5.95313e-05
0.00299791
0.0122855
4.31778e-05
0.00160323
0.000752695
0.00281575
0.0201654
0.00452257
0.0023203
0.00406033
0.00111703
0.00679527
0.000135286
0.00673218
0.0043297
0.00270643
0.00411594
0.000853713
0.00118249
0.000444375
0.000775247
0.00214563
0.000220157
6.8491e-05
0.000168488
0.000638966
0.00980869
0.0142288
0.00429515
0.00673814
0.00415689
7.65147e-05
0.00213908
0.000156515
0.0225654
0.0125158
0.00674367
0.00608246
0.0184068
0.00865632
0.00674788
0.00563615
0.00048761
0.00438349
0.02279
0.000850583
0.000493624
0.00672499
0.000474536
0.000880493
5.22265e-05
0.00027278
0.000198984
0.00174432
0.000593548
8.16194e-05
0.00131313
0.0024773
0.000841352
0.0227512
0.000695025
0.00274392
0.00672485
0.0158162
0.000317276
0.000395745
0.00673241
0.00673373
0.000289394
0.0105388
0.000101203
0.00841172
0.0056944
0.00139945
0.014179
0.000888111
0.00678638
0.0139182
0.00995661
0.000941405
0.0067253
0.0154
0.00788922
0.0032004
0.000258817
0.00813107
0.000339967
0.0028188
0.00488463
0.00190396
0.00146597
0.000463792
0.000662984
7.27642e-05
0.000411094
0.00675251
0.00215522
0.0220533
0.00450376
0.000372034
0.000480171
0.00286413
0.000597102
0.00673037
0.000892509
0.000239191
0.00672535
0.00891724
0.00673342
0.0003211
0.0186149
0.000533672
0.00207894
0.00672628
0.0153019
0.0067402
0.00102461
0.00184126
0.000165685
0.00132775
0.000735938
0.0169879
0.000199161
0.0115546
0.00146086
0.000771079
0.00420782
0.00672481
0.0040411
0.0146597
0.00029136
0.00110658
0.000749517
0.000730784
0.00776589
0.0159337
0.000188841
0.000502515
0.00673736
0.0122223
0.003298
0.0029802
0.000193916
0.000697148
0.000419303
4.29163e-05
0.000175511
0.000420301
0.000761113
0.0188191
0.00117214
0.00672659
0.00273218
0.000155765
0.00676521
0.0136218
0.00672252
0.00672517
0.000852994
0.000191109
0.00329644
0.006764
0.000665248
0.00618331
3.42709e-05
0.00435362
3.39035e-05
0.0132874
0.0174117
0.013264
0.000491388
0.000315469
0.0089138
3.57309e-05
0.006725
0.00037614
0.000172704
0.000319359
3.92818e-05
0.0107109
0.0115819
0.0191399
4.98559e-05
0.00213209
0.000864545
0.00672169
0.00426388
0.000912353
0.00186543
0.00117329
0.00166599
0.00467269
0.000688026
0.0119415
0.00673561
0.00121984
0.00672379
0.00795013
0.00127607
0.0172519
0.0223975
0.00018908
0.00672604
0.00444607
0.0078304
3.65359e-05
0.00672477
7.35383e-05
0.00672525
0.000251556
4.70993e-05
0.000610531
0.000731412
0.00559103
0.00618128
0.00408851
0.00532009
0.0154339
0.000686315
0.0002708
0.00438417
0.00364125
0.00642715
0.00672519
0.00137452
0.00391712
0.00138709
0.0109797
0.0125904
0.000848718
0.0151402
0.0025008
0.00673876
0.000954735
0.00675043
3.87948e-05
0.0029005
0.0007338
0.00494704
0.00673271
0.00456491
0.000107377
0.00205632
3.21271e-05
0.00683026
0.000255923
0.0068571
3.90207e-05
0.00672728
0.000886175
0.00100218
0.000223097
0.0122231
0.00673483
0.00799424
0.000370162
0.000212985
0.00680599
0.00674177
0.014026
0.000496513
0.0029108
0.0034576
0.00134799
0.00489393
0.000179397
0.0179882
0.0012751
0.0111274
0.000965667
0.00674212
0.0169902
0.00203502
0.0222645
0.00448954
0.00158879
0.00672499
0.00895809
0.0162632
0.00674377
3.89155e-05
0.00343071
0.00672185
0.00362136
0.00675201
4.03283e-05
0.0159597
0.000378627
0.00152948
0.00057449
0.0067284
0.00301301
0.00126108
0.00672505
0.000868626
0.00308857
0.000835803
0.000262421
0.000557401
0.00673034
0.0221448
0.000740346
0.00672777
0.000308538
0.000913843
0.0123701
0.000666898
0.00649606
0.000508729
0.00302798
0.000424386
0.000447613
0.00112559
0.0172445
0.000828888
0.00121268
0.0131968
0.00384905
0.000182228
6.97682e-05
0.00018942
0.00673217
0.00369953
0.00673748
0.000252623
0.000847871
0.000811714
0.0129495
0.00654153
0.0225207
0.00672581
4.37931e-05
0.0200857
0.0183615
0.00460161
0.00278043
0.000756047
0.0226078
0.000813731
0.000936467
0.000373727
0.00609027
0.000302109
5.58316e-05
0.000849135
0.0174706
0.000224381
0.00676704
0.000185535
0.000262446
0.00198342
0.00221928
0.00129644
0.0132664
0.00042021
0.0186098
0.00104164
0.00356716
0.00233644
0.00859415
0.0106855
0.00210299
0.00084819
0.0110464
0.0210067
0.000497347
0.00155442
0.000916212
0.00168612
8.345e-05
0.000792724
0.000427267
0.0174892
0.00678083
0.00333861
0.000260845
0.011497
0.00672183
0.00672378
0.0143792
3.83802e-05
0.00391284
0.00053028
7.72262e-05
0.000174753
0.0227494
0.0225709
0.0149312
0.0158996
0.000627439
0.0067919
8.39243e-05
0.00705665
0.00805452
0.00310335
3.63379e-05
5.85445e-05
3.12328e-05
0.00238925
0.00672566
2.81382e-05
0.0124915
0.00526068
3.21104e-05
0.00845611
0.00673355
4.18248e-05
0.0152856
0.00212792
9.05036e-05
0.000609466
0.00674782
0.000867758
0.0214135
3.85725e-05
0.0067256
0.00574415
0.000678572
0.00201425
0.00674216
0.00163491
0.00210561
0.00196505
0.00216714
0.000366928
0.000242484
0.000183201
3.41423e-05
0.000931974
0.00991239
0.000621595
0.00120718
0.000639597
0.00194659
9.9653e-05
0.00614541
0.000565834
0.000415418
0.000471427
5.76626e-05
0.00314113
0.00019489
0.011988
0.0205166
9.99984e-05
0.0032908
0.00426231
0.00350532
0.00982794
0.00111447
4.08689e-05
3.87698e-05
3.87887e-05
0.000533104
0.000645578
0.00456861
0.00226715
0.0109173
0.000358946
0.000121149
0.00322509
0.00321284
0.000597446
0.0145519
0.00672207
0.0056291
0.00016117
6.67342e-05
0.000402044
0.00415745
0.00672558
0.000877114
0.00195647
0.00243317
0.00130959
9.67697e-05
0.00025192
0.00338191
0.00239822
0.0022165
0.00672503
0.0119315
0.00156376
0.00858395
6.82548e-05
0.0024527
3.59023e-05
0.00041693
0.0161244
0.00211545
0.00148449
0.0044528
0.00672492
0.00175233
3.76091e-05
3.8604e-05
0.0184417
0.00672463
0.0021618
5.44604e-05
0.00672541
0.00903991
0.000859273
4.83176e-05
4.64181e-05
0.000218946
0.000259416
0.006767
0.000616401
0.000288815
5.80142e-05
6.86246e-05
0.00022104
0.00672905
9.36921e-05
0.00480479
0.000297771
0.020402
3.68164e-05
0.00288323
6.61942e-05
0.00293773
0.000700546
0.00152539
0.00208055
0.000383217
0.00212978
0.0227233
7.22195e-05
0.000226195
7.73753e-05
0.000213466
0.02279
0.0147722
0.000433324
0.0124345
0.000131888
0.00423745
0.000110639
0.0164717
6.6498e-05
0.00672529
0.000519688
3.39166e-05
0.00373523
0.00220603
0.00228364
0.011073
0.00672507
0.00469063
0.000941549
0.0112724
0.00672558
0.00824417
0.0123904
0.00958771
0.00705381
3.66231e-05
0.0142111
0.000631749
0.00676125
0.000998626
0.0068053
0.000163978
0.00014831
0.00228886
0.000758061
0.00024958
0.00681849
0.0130325
0.000843892
0.000542269
0.0224207
5.4958e-05
0.0051984
0.0156975
0.00368022
0.00254817
0.00672416
0.000402334
0.000140303
0.0211424
0.000569171
0.000422885
0.00188883
2.84065e-05
0.000572164
0.022895
0.000964205
0.000277437
0.016072
0.000917092
0.00672575
4.03981e-05
0.000395336