/*--------------------------------*- C++ -*----------------------------------*\
| =========                 |                                                 |
| \\      /  F ield         | OpenFOAM: The Open Source CFD Toolbox           |
|  \\    /   O peration     | Version:  v2012                                 |
|   \\  /    A nd           | Website:  www.openfoam.com                      |
|    \\/     M anipulation  |                                                 |
\*---------------------------------------------------------------------------*/
FoamFile
{
    version     2.0;
    format      ascii;
    class       surfaceScalarField;
    location    "650";
    object      phi;
}
// * * * * * * * * * * * * * * * * * * * * * * * * * * * * * * * * * * * * * //

dimensions      [0 3 -1 0 0 0 0];
oriented        oriented;


internalField   nonuniform List<scalar> 
20642
(
-0.0296604
0.0356371
-0.00597659
0.287076
-0.066018
-0.221071
-0.105801
0.094427
0.0113686
-0.349469
0.138024
0.21142
0.376426
0.0205171
-0.396964
-0.0348873
0.321948
-0.222869
0.0242585
0.19859
-0.00500737
0.21978
-0.214782
-0.242568
0.221781
0.0207702
0.00314846
0.000854593
-0.23705
0.23203
0.229784
0.131591
-0.361407
0.600339
-0.600391
0.252927
-0.0220382
-0.230894
0.293295
0.0329302
-0.326246
-0.0354427
0.0057822
0.60131
-0.606514
0.0051847
0.0523526
-0.262243
0.209878
-0.0289337
-0.0815062
0.110433
-0.00314315
0.0361956
-0.0330524
-0.0814505
-0.185664
0.267099
0.629627
-0.367237
-0.262423
0.199132
-0.14278
-0.0563611
0.336701
0.292888
-0.0504486
-0.184864
0.23529
0.0656261
-0.255992
0.190352
0.0302627
-0.199232
0.168966
0.00314923
0.0927285
-0.27596
0.183218
-0.688806
0.410609
0.278195
0.00227389
0.000875975
0.0250129
-0.105504
0.0804836
0.0422609
0.253274
-0.295561
-0.00255436
0.0422802
-0.0397266
-0.677166
0.503864
0.173268
0.359709
-0.139937
0.262753
-0.356426
0.0936485
0.625106
-0.101893
-0.523302
-0.024607
-0.198279
0.225091
-0.00332986
-0.221775
-0.781809
0.610542
0.171253
0.434013
0.133368
-0.567401
-0.137281
0.249194
-0.111925
0.125634
-0.107084
-0.0185551
0.0171575
0.10847
0.178473
-0.080322
-0.098153
0.2201
-0.30157
-0.000400672
-0.0281624
0.0285647
0.352016
-0.267444
-0.0845757
-0.409356
-0.267837
0.346133
-0.116378
-0.151592
0.0472605
0.104326
0.0233492
-0.000566484
-0.0227829
-0.310675
-0.0880273
0.398666
0.0110855
0.360256
-0.371378
-0.0819833
-0.0696127
0.00227572
0.163951
0.0351694
-0.149696
0.583689
0.059353
0.119117
-0.0309373
0.080855
-0.0499165
0.5642
-0.535789
-0.0284281
0.475014
-0.619843
0.144826
-0.259961
0.209488
-0.0809818
0.0775225
0.00345685
0.144713
0.447137
-0.591852
-0.274112
0.0811336
0.192966
0.163346
0.196355
-0.184709
-0.00277493
0.029071
-0.0262963
-0.114516
0.0764459
0.0380674
0.0272693
-0.0298242
-0.254051
-0.145019
0.399038
0.41148
-0.561199
0.0758683
-0.261546
-0.0521265
-0.179453
0.231553
0.420465
-0.113962
-0.306523
-0.159392
0.570849
-0.256523
0.204366
0.232337
-0.190096
-0.374658
0.434028
-0.0594044
-0.622422
0.594106
0.0282819
-0.418667
0.164587
0.0138777
0.0705844
-0.0844664
-0.230211
-0.303182
0.533317
-0.00331874
-0.208403
0.211714
-0.091759
0.116762
-0.641858
0.607518
0.0342474
-0.027609
0.252685
0.496281
0.105012
-0.598641
0.418653
0.179967
0.11334
0.261541
0.0904688
-0.630603
0.200628
0.429941
-0.406712
0.283927
0.122754
-0.181396
-0.00974285
-0.179359
0.189097
0.602466
-0.602811
0.000296785
-0.139252
-0.502677
-0.151974
-0.0898357
0.241802
0.535875
-0.540616
0.00473268
0.55143
-0.0155613
-0.00150656
-0.37318
0.530248
-0.60598
0.075682
0.0039665
0.416473
-0.080679
0.0808849
-0.000208785
0.0510023
-0.0642101
0.013208
0.450261
0.113918
0.562543
-0.429193
0.183144
-0.152884
0.533012
0.071579
-0.00369454
0.0459737
-0.105372
-0.1706
-0.0715206
-0.00946432
0.381225
-0.178329
-0.202918
0.0990776
-0.128018
0.430941
0.166995
-0.597954
0.105444
-0.0898463
-0.0156024
-0.466322
0.274483
0.191828
-0.097774
-0.52468
0.165822
-0.597103
0.431255
0.25874
-0.177618
-0.131109
0.136936
-0.00583389
-0.0286989
-0.00174053
0.0304392
0.0542371
-0.0403623
0.0743592
-0.26689
0.192509
0.252977
-0.177123
-0.436244
0.557189
-0.120982
-0.097372
-0.0337424
-0.0547591
0.155634
-0.100889
0.188353
-0.0596504
-0.128706
-0.00945463
-0.0483181
0.057772
0.166256
0.214945
-0.0657773
0.121477
-0.0557075
0.029085
0.154056
0.0179091
-0.0857348
0.0678261
0.0295034
-0.0287358
-0.000768002
0.0507013
-0.241892
0.191176
0.625012
0.204085
0.0379294
-0.242019
-0.579847
0.420431
-0.0686878
-0.0119952
-0.541948
0.260452
0.281456
-0.149467
-0.234158
0.3836
-0.41365
0.610353
-0.196721
-0.0558835
-0.0586359
-0.0543629
0.0367494
-0.026864
-0.00988367
-0.454708
0.143992
-0.192438
-0.0294533
0.221876
0.576486
-0.706834
0.130339
0.248869
-0.398359
-0.158776
0.149029
-0.124758
-0.338469
0.4632
0.554764
-0.0245632
0.0435679
-0.0539197
0.0103514
-0.628996
0.621745
0.00723694
0.584826
-0.1539
-0.172496
-0.332694
0.505125
0.102698
-0.0720158
-0.0306825
0.0607584
-0.301608
0.240824
0.272618
0.0794189
-0.061578
-0.01784
0.0252397
-0.196224
0.170979
0.0233491
-0.0347901
-0.0110496
0.0458409
-0.381897
-0.2232
0.605096
0.237269
-0.186582
0.0712129
0.299564
-0.370812
0.069688
-0.0584112
-0.0112776
-0.067442
-0.0536272
-0.0464862
0.100114
0.186282
-0.0985217
-0.0877666
0.61162
-0.107865
-0.503765
-0.144915
-0.204577
-0.151059
0.0207051
0.13035
-0.191105
0.136333
-0.226453
0.287188
-0.166061
-0.0818087
0.247853
0.407875
0.250033
0.096076
0.146424
-0.0699154
-0.0765111
0.102216
0.00322359
0.162067
0.026283
-0.101587
0.351591
0.0466786
0.0997413
-0.381345
-0.307463
0.21843
-0.221757
0.136079
0.0501945
0.125869
-0.108718
0.0115082
-0.113186
0.101673
-0.0341825
0.00267558
0.031506
-0.279212
-0.351416
0.0324513
-0.00322214
-0.0292294
-0.268452
0.105987
0.162445
0.0530054
-0.0624608
0.516256
-0.0124239
0.361817
-0.486605
0.27631
-0.232499
-0.0438283
0.025327
-0.0289525
0.00362503
0.0309855
-0.00148307
-0.0816483
-0.230761
0.312385
0.195397
-0.0361635
-0.159235
-0.259739
0.295251
-0.0355265
-0.220062
-0.414049
-0.103804
0.306775
0.12722
-0.439509
-0.111892
0.551353
-0.0622992
0.337197
-0.274912
0.258212
-0.320523
0.00858826
0.0507973
-0.116581
-0.176279
-0.0762492
0.0695941
0.00665335
0.639756
-0.253158
-0.386696
0.751059
-0.428461
-0.322621
0.356525
0.394512
-0.0412272
-0.0173983
-0.104062
0.121455
-0.14078
0.0408324
0.0999451
0.371184
0.179634
-0.550855
0.561437
-0.0864244
-0.147999
0.177082
0.0318845
0.130747
0.333693
-0.464463
-0.386447
0.517169
-0.319835
-0.461984
0.756156
-0.399653
0.32373
0.432403
-0.0140244
0.0412932
-0.0492318
0.0493049
-7.18234e-05
0.079997
0.299107
-0.379133
0.47719
0.0947365
-0.571929
-0.112701
0.147097
-0.0344046
-0.03516
0.00208458
0.0330751
0.0135498
-0.526821
0.513255
0.527729
-0.156588
0.176707
0.0186872
0.0773235
-0.0661529
-0.0111727
-0.0873173
-0.0628524
-0.0133981
-0.150352
0.128561
0.0217848
-0.339205
-0.202778
-0.0696248
0.0585763
-0.159406
0.0466973
-0.244354
0.138969
0.00878922
0.112336
-0.121135
0.229685
-0.311358
-0.0406425
-0.4682
0.220756
0.247432
0.0560907
0.0943349
-0.150435
-0.0434929
-0.131466
0.174949
-0.0217749
-0.332632
0.354374
0.610529
-0.185623
-0.337489
-0.0954867
0.432954
0.396939
-0.572901
0.175934
-0.00386568
0.0334578
-0.0295922
0.0815134
-0.210562
0.129046
0.16912
-0.588959
0.419812
-0.689367
0.302894
-0.456869
0.118373
-0.291114
-0.398278
-0.193731
0.0621749
0.538111
-0.0199636
-0.159945
0.179896
0.604984
-0.435889
0.00274621
0.0270843
0.0564481
-0.00544569
0.0764087
-0.400674
0.32422
0.317747
0.102493
-0.420262
-0.166129
0.129003
0.0371238
-0.767547
0.319476
0.448055
0.264342
-0.0984876
-0.16586
0.0319395
-0.0358055
-0.358945
-0.408618
0.0273863
-0.0301614
0.588501
-0.19159
0.00699567
0.0957015
0.614697
-0.00308884
-0.299125
0.376091
-0.0769873
0.274155
-0.295955
-0.335979
0.518399
-0.182467
0.107165
-0.00664051
-0.10053
0.554359
-0.595122
0.0406852
0.185089
-0.159854
-0.272085
0.0899307
0.182137
-0.572099
0.158433
-0.207948
0.202735
0.00521036
0.0284749
-0.451106
0.464641
0.15716
-0.0190427
-0.138129
-0.346875
0.451763
-0.104911
-0.34955
0.152714
0.196812
0.475695
-0.0992899
-0.0729336
-0.183614
-0.609744
0.205458
0.404256
0.0489498
0.50533
0.156505
-0.00579683
-0.150713
-0.516535
0.160706
0.355816
-0.129948
0.186026
-0.244885
0.171927
-0.364039
-0.168713
0.532712
0.0558847
-0.0123169
0.0307827
-0.00545614
-0.438415
0.560091
-0.121713
-0.687192
0.218751
0.468433
-0.183315
-0.321979
0.419943
-0.0979737
0.0959304
0.0120372
-0.10797
0.0265478
-0.0606439
0.0340954
-0.088639
0.0350119
0.49331
-0.605643
0.112331
-0.204299
0.144644
-0.102535
0.42026
-0.0108953
0.0814752
0.115988
-0.437978
-0.0700621
-0.0357436
-0.206278
-0.394151
-0.0463677
0.339642
-0.022526
0.508537
-0.153453
-0.355113
-0.245695
0.179665
0.0162889
0.109574
-0.502814
0.586177
-0.0833836
0.0206028
0.0490845
-0.360157
-0.253201
0.613273
0.130863
0.0260394
-0.674391
0.461178
0.213201
0.0219226
-0.0250657
-0.403737
0.564687
-0.161005
-0.00325379
0.152113
-0.14887
-0.0226589
-0.237094
0.664665
-0.171356
0.194043
-0.69688
0.124121
-0.112953
-0.0111758
-0.0661374
-0.0077484
0.0738848
-0.481986
0.190668
0.291287
0.175229
0.33328
-0.0460391
0.0423434
-0.0595798
0.0750186
-0.0154376
0.140012
-0.0709597
-0.0690528
-0.00508927
0.258011
-0.727969
0.369004
0.0945548
0.29702
-0.391605
0.0763143
-0.0662328
-0.0100826
-0.10342
-0.100882
-0.337783
-0.390208
0.128793
-0.185678
-0.1903
0.375949
-0.0141027
0.212096
-0.198005
-0.133212
0.0217947
-0.129128
0.107328
0.00550446
0.15284
-0.158352
0.0607408
0.203593
-0.142489
0.153511
-0.0110313
0.0374156
0.00106833
-0.038485
0.0940406
-0.530321
-0.274252
-0.207766
0.291774
-0.271269
0.119452
-0.0914609
-0.0279952
0.631142
-0.0570679
-0.574092
0.00145468
-0.142717
0.00021528
-0.35674
0.0470599
0.289841
-0.278787
0.177731
-0.0298218
-0.147915
-0.470955
-0.216244
-0.335155
0.248267
0.0868827
0.561932
-0.423687
-0.138261
-0.0941046
-0.106778
0.260015
-0.282689
0.361873
-0.285505
-0.0927768
0.081729
0.0110448
-0.442562
0.655056
-0.212506
0.064838
0.0145816
-0.0925578
0.128835
0.433081
-0.0736192
-0.479814
0.208267
0.271521
0.363888
0.245165
-0.609057
0.130952
-0.566715
0.435733
0.0394568
-0.00326135
-0.150835
0.51472
-0.00138749
0.223986
-0.222622
0.0152939
-0.163295
0.234167
-0.236286
0.00211127
0.097854
-0.337396
0.239515
-0.104611
0.0257813
0.0788299
0.0108014
0.0740702
0.234353
0.0519342
-0.286313
0.0103892
0.0967707
-0.304291
-0.0833659
0.387625
0.200999
0.0331605
-0.00235492
0.0967771
-0.499477
-0.196814
0.024032
0.172765
-0.0902488
-0.154657
-0.112805
-0.450379
0.563131
0.12731
0.335517
-0.462889
0.213444
-0.592323
0.378841
-0.0359515
-0.160277
0.448983
-0.126041
-0.322967
-0.573881
0.44591
0.127938
0.365726
-0.475873
0.110108
-0.135175
-0.0279164
0.16308
-0.318046
0.126648
0.191389
-0.785052
0.34143
0.443607
-0.676805
0.294906
0.102967
-0.00704172
-0.00131408
0.179039
-0.492613
0.156593
-0.269539
0.268122
0.114333
-0.0981651
-0.0161681
-0.195735
0.213247
-0.0175155
-0.410453
0.555165
0.0403931
-0.121906
0.0662092
-0.0771063
0.278668
-0.536937
0.258252
0.349111
-0.727959
0.378831
-0.069948
-0.204769
0.2747
-0.345539
0.472784
-0.435956
-0.252662
-0.370094
-0.357879
0.53623
-0.257581
-0.0603913
0.0515955
0.00879668
0.0834465
-0.387768
-0.0322189
0.203476
-0.171269
-0.00451835
0.0316026
-0.0171937
0.174343
-0.55539
0.115833
0.395141
-0.146297
-0.0178132
-0.0867977
0.20907
0.0672218
-0.0308611
0.00216236
-0.734314
0.283321
0.45098
0.529371
-0.209107
-0.320296
-0.62351
0.180938
0.685312
-0.361604
0.320619
-0.0578901
-0.477962
0.18759
0.290347
-0.00860403
0.122937
-0.46137
0.583294
-0.121939
0.00863309
0.190793
0.338542
0.0057183
-0.135454
0.129722
-0.432975
0.611206
-0.178245
-0.0912612
0.398008
-0.122693
-0.0276649
0.099684
0.0403283
0.169781
-0.355486
-0.170719
0.143671
0.0270448
0.359101
0.204359
-0.563506
-0.637267
0.201259
0.435932
0.475123
-0.109433
-0.295646
-0.184194
0.439334
-0.560759
0.121374
0.442703
-0.624051
0.18126
0.00756642
-0.0774237
0.579717
-0.140433
-0.16598
-0.0419715
-0.0153184
-0.0848091
0.10012
0.363493
0.209367
-0.572898
0.150017
0.0249556
-0.174984
0.11896
0.00525643
0.0598145
0.0072702
-0.0670841
-0.211776
0.189475
0.0222882
0.0213025
-0.249983
-0.259568
0.509547
-0.531381
0.281395
-0.269718
-0.158507
0.15788
-0.59087
0.327513
0.00606522
0.0947318
-0.100799
-0.427822
-0.170839
0.301413
-0.389476
-0.216072
0.205421
-0.174972
-0.0304642
-0.0820665
0.249273
-0.16722
-0.0748456
-0.025947
0.100788
0.128887
-0.0171823
-0.111713
0.0831452
0.388996
-0.472159
0.420378
-0.317905
-0.0583258
-0.203927
-0.00844183
-0.16676
0.175191
0.110589
0.33837
-0.163589
0.141548
0.0802165
-0.158616
0.0783872
-0.0924316
-0.179669
0.0150572
-0.082862
0.0678054
-0.483487
0.138541
-0.146993
0.130778
-0.110077
0.143456
0.331307
-0.474827
-0.0500496
0.046935
0.0031171
-0.276684
-0.360647
0.410512
0.27478
0.0277254
-0.162911
-0.323324
-0.411003
0.510247
0.129412
0.160621
-0.00412198
0.010143
0.040613
-0.125741
-0.0204119
0.146152
0.30897
-0.481531
0.278225
-0.0795496
-0.198694
0.115342
0.39814
-0.513498
0.122139
-0.106058
-0.0160826
-0.127012
0.134853
-0.00784193
0.257603
-0.400407
0.142777
-0.0944911
0.151201
0.327733
-0.478993
-0.0022948
0.151394
-0.149109
0.383343
-0.32461
-0.0587385
-0.549074
0.422441
0.126599
0.0812782
0.549844
0.460954
-0.099168
0.377169
-0.490023
0.452072
-0.446944
-0.00514655
-0.197618
0.168652
0.0289499
0.612675
0.0146414
0.114237
-0.347473
0.490864
0.393629
0.0229865
-0.416656
0.162109
-0.252379
9.50168e-05
0.0450788
-0.0451748
-0.518121
-0.0210789
0.53917
0.263767
-0.193982
-0.0698028
-0.161453
-0.411475
0.154337
-0.148634
0.0461197
-0.177225
0.131097
-0.173718
-0.077919
0.251627
-0.142022
-0.187932
-0.163634
-0.167961
0.331571
0.200402
-0.00909912
0.0621037
-0.0459665
-0.0144236
0.0301944
-0.0347133
-0.450301
0.572397
-0.122133
-0.365229
0.476938
-0.111745
-0.378481
0.461612
0.414158
-0.132072
-0.28212
0.083885
-0.016733
-0.0671552
0.670548
-0.351088
-0.25269
0.317181
-0.0644983
-0.0642144
-0.204259
0.00171367
-0.0652329
0.063518
-0.18833
0.0831218
0.00250626
-0.00104064
-0.00146461
0.439042
0.140625
0.144731
-0.081363
-0.0633732
0.535011
0.0674067
0.137526
-0.601869
0.464319
-0.0409245
0.0426375
-0.768461
0.445122
-0.0546805
-0.0272633
0.0819413
0.624203
-0.568744
-0.0554627
0.496333
-0.13288
0.109859
0.0313305
-0.106181
-0.0226509
0.474705
0.440043
-0.528114
0.0880484
0.00723982
0.0972956
-0.104541
0.143535
0.00647141
0.454344
-0.311164
0.0152472
-0.0711337
-0.0663168
0.0471002
0.0192166
-0.0206074
0.0804222
-0.53545
0.0173003
0.0375155
-0.0247566
-0.012759
0.594491
-0.487894
-0.106602
-0.0658887
-0.0198451
-0.363413
0.309044
0.561831
-0.424325
0.644057
-0.210695
-0.43337
0.318151
0.233274
-0.0873634
0.167567
-0.242471
0.160644
-0.427045
-0.215457
-0.387392
-0.762386
0.290711
0.471614
0.0816553
-0.0664119
-0.421774
0.433072
-0.011341
-0.00272937
0.113265
-0.110543
-0.10134
0.402718
0.538482
-0.0984629
-0.503407
-0.125603
0.0362375
-0.116563
-0.0695394
-0.0302015
0.0997396
-0.0140661
0.0165736
0.133274
-0.124494
-0.15857
-0.0390633
0.00347032
0.0857154
-0.0891889
-0.00507545
-0.0300849
0.555718
-0.424795
-0.091535
-0.0223437
0.113878
-0.449096
-0.313346
-0.0919345
-0.0150281
0.10696
0.122774
0.291352
-0.0189206
-0.0738596
-0.125078
0.502199
-0.212074
-0.234888
-0.363092
0.128915
0.122763
-0.165149
0.178683
-0.0135466
-0.0857746
0.0711323
0.0146405
-0.643694
0.0909174
0.552751
0.153912
-0.173889
0.0934085
0.353634
-0.447073
0.489073
-0.170927
-0.0021975
0.0396118
-0.22126
0.200706
0.0205486
-0.0455958
-0.375219
0.42079
-0.101557
0.123346
0.163659
0.584077
-0.450847
-0.133252
-0.0149007
0.59138
0.0409483
-0.0431471
-0.0736051
-0.348222
0.114253
0.394117
0.276417
-0.412835
0.367216
0.08737
0.032078
-0.39377
-0.313071
0.129068
-0.02392
-0.105154
-0.595645
0.565091
0.0305198
-0.603463
0.460659
0.142744
0.0149672
-0.0944968
0.401559
0.019819
-0.000934457
-0.0188844
0.018951
-0.0736339
-0.232638
0.306892
-0.074263
0.107457
0.0233176
0.55718
-0.118189
0.28829
-0.255377
-0.0373299
0.0374238
0.0361897
0.0364688
-0.0726603
-0.274665
0.204699
-0.16116
-0.195285
-0.40287
0.190778
-0.215793
-0.379881
0.570049
-0.324632
-0.24545
0.534016
-0.421686
0.0324603
-0.15315
0.120682
0.186799
0.0302414
-0.217059
-0.0595933
0.0746514
0.0211716
-0.186335
-0.319165
0.230176
0.0889805
-0.132565
0.005551
-0.293747
-0.222802
0.00992236
0.154538
-0.164471
-0.0184338
-0.0947571
0.0294708
-0.409146
0.539096
-0.307522
-0.231588
-0.0606427
0.594658
-0.222319
-0.381201
-0.451888
0.35409
0.513416
0.108314
0.485816
-0.370489
0.410591
-0.598673
0.187995
0.0171179
0.0203975
0.173632
-0.038476
-0.135166
-0.64531
0.46591
0.17934
0.121307
-0.105025
-0.235906
-0.407808
0.0574785
-0.0309312
0.166129
0.422343
0.134007
0.423148
-0.0366518
0.0467944
-0.171633
0.0615935
0.110032
0.336669
-0.460839
-0.21314
-0.119317
0.332435
-0.637102
0.20307
0.434023
-0.560416
0.431551
0.128832
0.18049
0.0902415
-0.270743
0.173283
-0.00939171
-0.1639
-0.378585
0.502818
-0.124276
-0.00226182
0.0262511
-0.0239898
-0.0828238
0.21528
-0.132472
-0.334704
0.407969
-0.0732713
0.452005
-0.11534
0.246298
0.292784
-0.0418429
-0.024474
0.083386
0.194821
-0.666965
0.274041
0.392881
-0.319453
-0.00537435
0.0373136
-0.110448
0.230197
-0.124229
-0.0231254
-0.0077355
-0.331809
0.0806589
0.251144
-0.568363
0.164571
0.121775
-0.560225
0.241288
0.0793075
0.00888235
-0.479609
0.115851
0.363753
0.0187259
-0.103663
0.284137
0.193456
0.0702944
0.0179222
-0.427007
0.324448
-0.107242
-0.0218924
0.150416
0.0232065
0.39048
-0.106584
0.27322
-0.0408988
-0.373711
-0.293297
0.20162
-0.0283528
0.32487
0.066718
-0.330564
0.119162
0.211378
0.116033
0.380184
-0.496234
0.0238628
0.00243097
-0.0262941
0.490728
0.0965457
-0.587276
-0.249251
-0.0825644
-0.37249
0.211307
0.0564025
0.234332
-0.29075
0.0505507
0.164443
-0.21501
-0.0359506
0.0721391
0.508788
0.0852855
0.00623229
-0.117512
0.111273
-0.0949006
0.0253598
0.265595
0.361829
-0.627425
-0.133831
-0.292824
0.426621
-0.177872
0.519708
-0.109204
0.10249
0.26657
-0.369094
-0.40529
0.198525
0.206743
0.376193
-0.0884326
-0.287774
0.14982
-0.0802241
0.116458
0.0218204
-0.412335
0.567395
-0.155104
-0.00974706
0.0751692
-0.0654233
0.0667365
0.155029
0.203838
0.0015715
-0.119996
0.385079
-0.290554
0.0728757
0.0718502
-0.00730481
-0.172057
0.411738
0.134333
-0.546101
-0.123805
-0.0478354
-0.130095
0.165353
-0.0352636
0.153893
-0.00348751
0.558947
-0.393177
-0.165802
0.423687
-0.535631
0.341276
0.228745
0.0001182
-0.0949239
0.34817
-0.618705
0.40308
0.215597
0.159214
-0.0283621
-0.527643
0.149016
-0.570275
0.431573
0.138662
0.0156434
-0.0976311
0.17778
-0.28406
0.376883
-0.0928352
0.0344783
-0.230217
0.207637
-0.221752
0.0715213
-0.290811
-0.114494
-0.302719
0.188739
0.0111054
-0.0946614
0.0835526
0.432462
0.129348
-0.605467
0.149851
0.455599
-0.3862
-0.310698
0.540828
-0.546841
0.00598504
0.242414
-0.342056
0.0996184
-0.300464
0.195041
0.1054
0.059082
-0.232809
0.389641
0.169275
0.648739
-0.21969
-0.429053
-0.362385
-0.117445
0.479799
-0.359753
-0.0036643
-0.148526
-0.16019
-0.051599
-0.391082
0.126767
-0.0144374
-0.345514
-0.0812338
0.0968017
-0.0155683
0.0754715
-0.359544
-0.49014
0.103925
-0.0132159
-0.0474285
0.279369
-0.0929824
-0.186405
0.0302356
0.0931388
0.169261
-0.343701
-0.00302973
0.34672
0.109321
0.320127
-0.429471
0.557476
-0.430927
-0.126584
-0.416881
0.283016
0.0284013
-0.0528519
0.0244498
-0.175751
0.197567
-0.0218336
0.079266
-0.311913
0.188543
0.0247005
-0.296536
0.398991
0.0184489
0.135435
0.672715
-0.195526
-0.437068
0.510572
-0.0735221
-0.39432
0.0818864
0.312427
0.489998
-0.395263
-0.018028
0.26094
-0.0951347
-0.165824
-0.0260959
-0.317616
0.112181
-0.0131099
-0.0651331
-0.332633
0.397756
0.304822
-0.532957
0.228107
0.333231
-0.532009
0.198748
0.157062
-0.151563
0.144799
-0.300262
0.407124
-0.106896
0.0723604
0.226734
-0.299119
-0.365604
0.49581
-0.130242
0.0164866
0.508621
-0.203821
-0.0514429
-0.186701
0.238137
0.280068
0.110383
0.0319326
-0.00199413
-0.029939
-0.031333
-0.41283
0.260102
0.15272
0.0101601
-0.132583
-0.0381375
-0.00351023
0.0805576
0.339374
-0.424046
0.573658
-0.14967
0.56449
-0.470623
-0.0938878
-0.0987667
0.37693
-0.278198
-0.0700663
-0.242616
0.31266
0.460113
0.0258537
-0.504905
0.36234
0.142527
-0.194282
-0.12377
0.0983701
0.0109595
-0.0793226
0.06836
0.226638
-0.321587
-0.0282262
-0.150941
0.179153
-0.159289
-0.0161681
0.175451
-0.560128
0.428882
0.131212
-0.186058
0.182716
0.258837
0.0205151
0.56953
-0.169026
-0.400526
-0.00536817
-0.176876
0.182226
0.194762
0.460284
-0.00869418
0.059838
0.142852
-0.110399
-0.62544
0.194874
0.430562
0.142401
0.417657
0.23146
0.232878
-0.525591
0.372106
-0.463984
0.101569
-0.0180233
-0.409049
0.567856
-0.158864
-0.0502856
0.368525
-0.493651
-0.20613
0.536778
-0.33065
-0.40183
0.125859
0.27595
0.0997415
0.336023
-0.435806
-0.0751356
-0.38164
-0.154162
0.154517
-0.563626
0.346441
-0.0854713
0.29728
0.017996
-0.315299
0.00297906
-0.567558
0.426726
0.140791
0.19151
0.237588
-0.691808
0.45421
-0.358076
-0.105939
-0.029701
0.030768
0.497686
-0.164484
-0.149417
0.28742
-0.0019496
0.12325
-0.0356786
0.685119
-0.44754
-0.395511
0.309259
0.0862438
0.0975264
-0.0864244
0.582699
-0.432249
-0.150468
0.0780736
0.306211
-0.384311
0.111299
0.0771635
-0.160712
-0.307035
0.46773
-0.0884248
0.0956592
0.289701
-0.347193
0.0574667
-0.0382411
-0.0118064
0.285035
0.0910374
0.129148
0.0126314
-0.141781
-0.360469
-0.467279
-0.127626
0.594894
-0.651046
0.500206
-0.0985179
0.541127
0.66372
-0.172993
0.056947
-0.0660471
-0.0855795
0.324036
-0.238483
-0.615192
0.235029
0.38011
0.289437
-0.364135
0.0746902
0.158995
0.119354
0.445116
-0.107038
0.301765
-0.0674347
0.0123617
-0.203763
0.171532
-0.114508
-0.0028843
0.117387
0.101656
0.229685
-0.0362474
-0.00711771
0.040633
-0.0335187
-0.375334
0.113211
0.262094
-0.115639
-0.25003
0.413374
-0.163375
-0.0322013
0.0050394
0.0271639
-0.465701
0.20313
0.113052
-0.316198
-0.237546
-0.454272
-0.195505
-0.376056
0.571537
-0.656775
0.41922
0.625262
-0.181775
-0.443506
0.584477
-0.461935
-0.122566
0.124515
0.297539
-0.422088
-0.170742
-0.030063
0.20079
0.557286
-0.145577
0.243514
-0.329119
-0.011483
-0.112238
0.123713
-0.0355743
0.0796047
-0.0440292
-0.0837874
0.00255333
0.123788
-0.125744
-0.226055
-0.453115
-0.197935
0.476866
-0.340829
-0.136085
-0.0128629
-0.0818022
0.320872
0.0624639
0.0198192
0.146941
-0.433562
0.286603
0.143751
-0.00761916
0.513456
-0.505904
-0.30376
0.41149
-0.107764
-0.295217
0.442141
-0.432759
-0.190761
-0.373786
-0.131935
0.505671
-0.147339
0.15725
-0.241544
-0.373702
0.0294559
-0.0306365
0.00118143
0.405417
-0.380602
0.528976
-0.148422
-0.0324321
0.0608324
-0.421112
0.171056
-0.288833
-0.30352
-0.0830626
0.533306
-0.0023434
0.0432899
-0.0523065
0.190838
-0.208759
0.594609
-0.385862
-0.108063
-0.486786
-0.143424
0.630173
0.539916
-0.0148137
0.0726137
-0.0578014
0.113433
-0.00809145
-0.209901
0.217989
0.183062
-0.3325
-0.36006
0.333954
-0.196341
0.609431
-0.467932
-0.14152
-0.0644908
-0.168021
0.343244
-0.40839
0.0651515
-0.228803
0.034786
-0.0398619
0.327921
-0.444509
0.116571
-0.438152
0.336194
0.36531
-0.287259
-0.51035
0.355692
0.154646
-0.137122
0.00379974
-0.103394
0.0995887
0.0245254
0.1372
0.222302
-0.0355194
-0.0398339
0.0344593
0.0366806
-0.00722393
-0.0810361
0.424269
-0.0983535
0.102145
-0.439998
-0.148984
0.00447971
0.0332935
-0.0377721
-0.474397
-0.122726
0.093977
0.0188996
-0.112877
-0.133771
0.00823971
-0.205068
-0.283832
0.303282
-0.0194705
-0.153727
0.110575
0.043151
0.0101301
-0.0750165
0.0648864
-0.674514
0.251611
0.422894
0.19006
-0.379907
-0.462024
-0.310612
-0.194327
0.163995
0.378004
-0.0979657
-0.0741462
0.363824
-0.144447
-0.0197651
0.164209
-0.0259652
-0.00138117
0.0273462
0.135012
0.190964
-0.0346726
0.00458737
0.526513
0.0976861
-0.181654
0.480516
-0.298878
-0.285488
0.057604
-0.0649931
0.00738852
0.217935
-0.288024
0.0193309
0.575155
-0.135018
0.159263
-0.260696
-0.137058
0.397728
-0.415101
0.268462
0.107717
0.0558804
0.178111
-0.234011
0.302374
-0.401173
-0.0290522
-0.43591
-0.238612
0.454699
0.131081
-0.585791
-0.0734538
-0.104382
0.432286
-0.0329427
0.00237964
0.0305646
-0.327937
0.114777
-0.101528
0.328139
-0.464313
0.588837
-0.124529
0.0334423
-0.443981
0.689142
0.173095
-0.287302
0.0825165
-0.194691
-0.115477
0.310136
0.216199
-0.0331515
0.453867
0.231242
0.0789881
0.485757
-0.36974
-0.479711
0.126991
0.352691
0.0133076
-0.125767
0.112449
-0.437644
-0.0127721
0.622185
-0.356592
-0.0987365
-0.0283479
0.127076
0.0816464
-0.0969692
-0.0152194
-0.1023
-0.127084
0.0223033
0.104778
-0.134575
-0.345039
0.110503
-0.119108
0.0489779
0.00654108
-0.0555194
0.533959
0.0909615
-0.0862539
0.257929
-0.439597
-0.00932387
0.160708
0.132262
0.0148265
0.39909
-0.31721
-0.0618492
0.225308
-0.163475
-0.425001
-0.176889
0.237202
-0.175258
-0.061962
-0.192523
-0.247576
-0.0898465
-0.0625825
0.0883643
-0.154147
-0.0204286
0.174562
0.0306766
-0.160778
-0.0987128
0.081922
0.0167907
0.0889187
-0.00716867
0.103052
-0.0958865
-0.217629
-0.40595
0.102156
0.383541
0.0764526
-0.46001
0.596095
-0.141407
-0.614084
0.457641
0.156432
-0.41432
0.553095
-0.138817
-0.218696
-0.0657279
0.0758555
-0.598266
0.438318
0.159896
0.0776855
0.246326
-0.149351
-0.252608
-0.119515
-0.226287
0.345775
0.1671
-0.0142661
-0.132958
0.039235
0.0937177
-0.304507
0.102547
-0.552883
-0.215371
0.16392
0.0456248
-0.509943
-0.287669
0.252767
0.036978
-0.0440969
-0.10155
-0.221519
0.323045
0.146763
0.315323
-0.462107
0.166793
-0.0206426
-0.452603
0.321646
-0.243985
0.0545231
-0.0055458
-0.0284594
0.375098
-0.0904717
-0.284641
0.176559
-0.162614
-0.0139549
0.303592
-0.0849137
-0.218698
-0.0285218
0.00539633
-0.0132725
0.213974
-0.232865
0.150786
-0.00916911
0.0856112
0.544183
-0.0618018
-0.0976107
-0.0561814
-0.0922052
-0.425593
0.352497
-0.320956
0.242489
0.0784608
0.542537
-0.00632484
-0.0822833
-0.0121061
0.522254
-0.510209
0.236163
-0.355709
-0.344282
0.0569698
0.281865
-0.144155
0.159641
-0.0154974
0.602016
-0.180809
-0.421242
0.113121
-0.0795271
0.250363
0.0513757
0.102212
0.0199255
0.178147
-0.44419
0.124476
0.319692
0.00444815
0.232891
0.119812
-0.352726
-0.0775714
0.313811
-0.236265
-0.497667
0.32425
0.173377
0.00508217
0.0311572
-0.0362449
-0.0123995
0.145664
-0.03999
0.193356
-0.260651
0.0672793
0.0457391
-0.0527208
0.146659
0.0186875
-0.183243
-0.272572
-0.140267
0.174778
-0.02088
0.395412
-0.606114
0.40078
-0.301076
-0.135437
-0.010591
0.146025
-0.231125
-0.181323
-0.179236
-0.0767713
-0.191143
0.247006
-0.310095
0.115387
-0.11813
0.131428
-0.0124223
0.141569
-0.471996
0.13925
-0.134097
0.15154
-0.0174462
-0.113486
-0.246581
0.299468
0.107623
-0.355829
0.488741
-0.132962
0.18544
0.424897
0.0760101
-0.0640359
-0.0119754
0.0991847
-0.0957178
0.589325
-0.449314
-0.140047
0.153974
-0.649353
0.211971
0.437376
0.0796472
-0.412291
0.0275404
0.356082
-0.430254
-0.164268
-0.340719
0.504918
0.0256761
0.516844
-0.278902
0.0344834
-0.501799
0.467228
0.315595
-0.074329
0.0641643
0.0118448
0.102848
0.167833
-0.224336
0.0564892
0.462617
0.133466
-0.430608
0.000123734
0.123657
-0.0107233
0.0683267
0.058415
-0.0126748
-0.124829
-0.506948
0.55582
0.341881
-0.506218
-0.0889364
0.332424
0.0534893
-0.440035
-0.185409
0.00780508
-0.0656123
0.00787843
0.126026
-0.133913
-0.0904738
0.251103
-0.625388
0.205976
0.419406
0.292903
-0.0978839
-0.00979326
0.45728
-0.403829
-0.0534737
-0.195639
0.216954
-0.0213212
-0.413424
0.569034
-0.438357
-0.13071
-0.363972
0.218929
0.0040081
0.0445962
-0.0486056
-0.175884
0.147955
-0.135578
0.598183
-0.127632
0.148661
-0.0210338
-0.418049
-0.00957464
0.138575
-0.467017
0.213787
0.40271
0.165323
-0.568096
-0.0933041
-0.363762
0.069111
0.388146
0.26702
0.108064
-0.0985172
-0.0140876
0.112599
-0.181476
0.239393
-0.057931
-0.0897028
-0.205884
0.500747
0.00784743
0.120991
0.443087
0.108218
-0.543367
0.246794
-0.204476
0.0337186
0.169058
0.00267413
-0.171742
0.0239312
-0.0261925
-0.210945
0.190589
-0.195976
-0.144713
0.158213
-0.013513
-0.01558
0.162232
0.154287
0.418075
0.162349
0.0869076
0.125931
-0.0259889
-0.0828121
0.0689794
0.0138305
0.0485932
0.00785517
-0.111972
0.355073
-0.243128
0.293172
-0.51418
0.220985
-0.0271192
-0.633938
0.29316
-0.546517
0.102532
0.193927
0.0780519
-0.272
0.0174082
-0.347909
0.126752
0.221131
-0.432752
0.074604
0.017018
-0.0916247
0.204081
-0.153546
0.0909772
-0.347964
0.256963
-0.181326
0.414195
-0.000315608
0.132783
-0.132468
0.0733226
-0.081499
0.00817328
-0.0307581
-0.00391488
0.367139
-0.484616
0.0957193
-0.42314
0.327384
-0.0726949
0.469248
0.115564
-0.514375
-0.0225799
-0.150476
0.171946
-0.0214749
0.0871062
0.320857
-0.264291
0.0834671
0.180807
-0.195385
0.154499
0.0408733
-0.31271
0.222981
0.0643198
-0.0720701
0.12905
0.364627
-0.49373
-0.113361
0.372348
-0.259007
-0.132648
-0.17746
-0.230029
0.523173
-0.0118028
-0.0710108
0.111061
-0.474278
0.363166
0.564414
-0.169769
0.0253198
0.107568
-0.120446
0.0128707
-0.133044
0.152929
-0.0198857
-0.0101382
0.0847089
-0.074573
-0.159328
-0.273813
0.433089
0.10308
0.0821955
-0.185289
-0.365954
0.534065
0.0495411
0.315746
-0.531885
0.524193
-0.188123
0.357878
0.0768291
-0.088634
0.03643
0.31963
0.133672
-0.168086
0.450694
-0.0671702
-0.600381
0.43552
0.164846
0.134421
-0.451732
-0.159125
0.61085
-0.151521
-0.0056764
0.0358693
0.453701
-0.614236
0.160523
0.309435
0.109139
-0.120629
-0.54406
-0.117899
-0.0862126
-0.109183
-0.0711
0.174166
0.289706
0.111727
-0.401468
-0.520149
-0.149476
-0.377566
0.526993
0.430022
0.138979
-0.609574
0.427659
0.181912
-0.231282
-0.127621
0.507039
-0.379432
0.333662
0.221061
0.0292757
-0.516096
-0.425131
-0.121127
0.546247
-0.0858823
0.273343
-0.187471
-0.177231
0.00539366
0.0641992
0.0124159
-0.156583
0.137031
-0.359561
0.529143
-0.169624
0.565809
-0.463135
-0.1027
0.144832
0.0147987
-0.583277
0.148304
0.43496
0.130751
-0.341784
-0.263695
-0.326417
-0.284663
-0.414956
0.159232
-0.359661
0.253647
0.105992
-0.103595
0.0733921
0.455693
0.14629
0.608435
-0.154747
0.245139
-0.0584235
-0.186734
-0.645912
0.207382
0.438527
0.639395
-0.189056
-0.450368
-0.0420321
0.314026
0.0974294
-0.331983
0.0134911
-0.163973
-0.145015
-0.00465903
0.208701
-0.0574044
0.22183
0.168991
-0.155505
-0.150822
-0.432467
-0.481662
0.548024
-0.0663814
-0.0966001
-0.158442