/*--------------------------------*- C++ -*----------------------------------*\
| =========                 |                                                 |
| \\      /  F ield         | OpenFOAM: The Open Source CFD Toolbox           |
|  \\    /   O peration     | Version:  v2012                                 |
|   \\  /    A nd           | Website:  www.openfoam.com                      |
|    \\/     M anipulation  |                                                 |
\*---------------------------------------------------------------------------*/
FoamFile
{
    version     2.0;
    format      ascii;
    class       volScalarField::Internal;
    location    "550";
    object      V0;
}
// * * * * * * * * * * * * * * * * * * * * * * * * * * * * * * * * * * * * * //

dimensions      [0 3 0 0 0 0 0];


value           nonuniform List<scalar> 
13917
(
0.00163023
0.0420309
0.00425832
0.0429486
0.0897345
0.0534397
0.0223763
0.0435933
0.0209264
0.00126098
0.0470555
0.0617114
0.174517
0.0444059
0.0624678
0.00135909
0.16284
0.0467733
0.00632083
0.00165449
0.0321052
0.106045
0.0115905
0.11668
0.032174
0.0330194
0.021201
0.00136414
0.0416106
0.163291
0.0013193
0.00751504
0.0449297
0.0016892
0.140611
0.0444715
0.0499834
0.171295
0.0203754
0.0278125
0.200244
0.140172
0.0307264
0.00547998
0.00654558
0.00832701
0.0393347
0.0032728
0.0512937
0.11326
0.0613452
0.00927995
0.00142851
0.0783067
0.0770417
0.00690679
0.00121576
0.0130228
0.15012
0.0103685
0.00769554
0.123192
0.161776
0.0368193
0.00243099
0.153384
0.0406125
0.0415171
0.0419064
0.00128002
0.00365526
0.00125581
0.0717266
0.149122
0.0319289
0.038009
0.0745065
0.156476
0.0435169
0.0328536
0.0840284
0.179284
0.0768254
0.00342858
0.147754
0.0367349
0.00816549
0.167464
0.0291015
0.137533
0.151317
0.0276455
0.0605534
0.148804
0.0678073
0.0406569
0.0289049
0.173913
0.137966
0.0266141
0.170321
0.131339
0.0706018
0.150914
0.0970765
0.00281169
0.00263122
0.136851
0.139176
0.0200344
0.168864
0.00194387
0.0382921
0.00332725
0.0026826
0.0378266
0.00717816
0.167266
0.00469381
0.071792
0.1716
0.157406
0.0385264
0.00814182
0.00147087
0.00207471
0.0330557
0.03118
0.134102
0.00651602
0.0125661
0.0118856
0.00208214
0.0423589
0.00645364
0.0210774
0.00828592
0.00138296
0.0365077
0.182152
0.062081
0.15597
0.00305363
0.0976516
0.0676543
0.151833
0.00338288
0.121292
0.00224064
0.088628
0.0263273
0.199766
0.0693342
0.0611456
0.0242747
0.0953578
0.143431
0.00170865
0.182767
0.156245
0.136869
0.00375051
0.0542342
0.0702317
0.00456267
0.0236091
0.00122343
0.00454125
0.173349
0.0360754
0.103602
0.00229658
0.0243394
0.0079215
0.0101929
0.167447
0.0386522
0.00968609
0.0157031
0.0506263
0.0305846
0.113654
0.0509458
0.00549848
0.0045375
0.0140294
0.0584058
0.00761105
0.168949
0.0383576
0.0134698
0.00649173
0.00675009
0.001484
0.113389
0.00149973
0.0261837
0.00212496
0.138842
0.101257
0.0343762
0.00136889
0.00119488
0.0511415
0.0161609
0.0428164
0.0252872
0.152534
0.00880857
0.0829936
0.142159
0.0753878
0.0733845
0.00295652
0.00645416
0.0306264
0.00288755
0.167519
0.151593
0.143976
0.00431337
0.00765407
0.00751767
0.148842
0.167919
0.021767
0.00147109
0.130362
0.145416
0.152095
0.146617
0.150802
0.00111914
0.0030104
0.0759732
0.169088
0.0110911
0.00143106
0.158735
0.151255
0.020762
0.00268322
0.00548166
0.0025937
0.0108966
0.0861854
0.00497607
0.00973593
0.0332093
0.00843792
0.0505963
0.0023708
0.0583283
0.014395
0.0141817
0.0833476
0.1794
0.0314982
0.101273
0.129796
0.00144175
0.0375802
0.157484
0.142946
0.0952303
0.138617
0.066653
0.176366
0.015735
0.157248
0.00132003
0.00276683
0.0934723
0.0954145
0.0103687
0.158724
0.022677
0.00146758
0.15401
0.0012675
0.134482
0.00451769
0.18065
0.0659802
0.0703638
0.123532
0.00511404
0.167959
0.0222326
0.0253993
0.039081
0.124448
0.0206034
0.00132973
0.139033
0.012269
0.101162
0.0393038
0.0968241
0.0356026
0.141115
0.17089
0.0116856
0.101854
0.0169867
0.0358269
0.123637
0.00178879
0.00109471
0.134965
0.166971
0.0366105
0.0842497
0.00492536
0.00276762
0.00673923
0.188964
0.0141136
0.0921795
0.00321535
0.084651
0.00361341
0.138523
0.0593627
0.0191428
0.0955104
0.0403618
0.0063834
0.177954
0.00186516
0.145478
0.00996825
0.161422
0.00165918
0.12691
0.0150785
0.0382497
0.179423
0.187076
0.00723
0.00303934
0.06987
0.0936034
0.00185713
0.00290805
0.00542164
0.0428365
0.164124
0.0757617
0.00260972
0.0118531
0.174756
0.119965
0.0568866
0.0288817
0.0131819
0.00767213
0.0146921
0.0238673
0.00891435
0.00163853
0.124274
0.0715849
0.0644457
0.00479146
0.170116
0.00124463
0.0105717
0.118417
0.0594944
0.0144708
0.16613
0.0546945
0.127981
0.00676587
0.00896639
0.0432465
0.0818955
0.00358119
0.159012
0.00501495
0.00610365
0.126145
0.0523624
0.0782775
0.132475
0.135362
0.0015798
0.126464
0.0421368
0.0201355
0.0263956
0.0573744
0.00608237
0.00396357
0.0438191
0.00546676
0.076244
0.026382
0.00447412
0.125616
0.0195009
0.0297668
0.133252
0.129316
0.13414
0.00768246
0.0230971
0.0586718
0.13044
0.103516
0.0138044
0.0455951
0.164772
0.190415
0.00575495
0.0163041
0.101542
0.0506676
0.00658208
0.029146
0.144122
0.00578547
0.00301046
0.145159
0.163069
0.0366455
0.131891
0.16253
0.0648481
0.137423
0.142048
0.00408776
0.0726685
0.0212989
0.00136734
0.0121882
0.134907
0.0704532
0.0055359
0.0393659
0.00123239
0.165677
0.0854609
0.152392
0.144754
0.0480946
0.0803103
0.00818956
0.145045
0.00240134
0.0933435
0.0131022
0.134224
0.0714279
0.0103706
0.00667378
0.0551571
0.0234219
0.133467
0.142317
0.101703
0.0790412
0.14123
0.155587
0.00186611
0.00646465
0.140957
0.0172205
0.00482823
0.147968
0.012048
0.00658301
0.00384477
0.01782
0.00274622
0.131766
0.131668
0.0741817
0.156528
0.13337
0.0555865
0.00602497
0.140465
0.0748676
0.0575588
0.0199191
0.0269863
0.00422604
0.0080476
0.126175
0.0953405
0.0408138
0.0201413
0.0549009
0.0348999
0.0128359
0.0248118
0.00520511
0.126594
0.0168678
0.00826658
0.132729
0.00164347
0.118489
0.132565
0.0118067
0.154733
0.167873
0.0122026
0.00171428
0.0205599
0.127612
0.0307559
0.116631
0.00685416
0.00963348
0.0602271
0.0851518
0.115559
0.014348
0.108037
0.126151
0.1972
0.103724
0.115234
0.107078
0.017058
0.157472
0.00772415
0.136406
0.106396
0.0321602
0.00186865
0.135331
0.0258062
0.129951
0.0149033
0.0108026
0.0283237
0.0116833
0.0224346
0.0429217
0.0411038
0.00207003
0.00374076
0.00141978
0.138822
0.102939
0.119885
0.0757265
0.00280143
0.146907
0.0823254
0.0271338
0.00245462
0.0217255
0.0266188
0.00144493
0.143234
0.00621902
0.178204
0.139448
0.00162026
0.167281
0.00321975
0.176362
0.137431
0.100983
0.00443128
0.106632
0.117803
0.00560844
0.0121489
0.100531
0.0032844
0.00209447
0.0037203
0.12201
0.0010851
0.160729
0.00704183
0.11069
0.12941
0.155535
0.132153
0.0135752
0.0278528
0.162467
0.135495
0.151377
0.00363894
0.0914707
0.0079221
0.0757283
0.122422
0.166452
0.0079249
0.00409249
0.00178307
0.0091902
0.016223
0.00467118
0.00132695
0.133586
0.00628547
0.145652
0.00595027
0.0716943
0.00347835
0.116085
0.101338
0.0582831
0.0937792
0.0158705
0.0025831
0.152862
0.0149877
0.119552
0.134922
0.00155961
0.0263395
0.102761
0.00731101
0.110504
0.134431
0.177574
0.00162653
0.108632
0.0929186
0.123951
0.0993934
0.00417261
0.189025
0.00680139
0.168171
0.139891
0.00713093
0.00655562
0.0787681
0.00114841
0.00304334
0.0489365
0.00677193
0.146285
0.054341
0.00161201
0.00288683
0.0362441
0.0404837
0.0841372
0.136069
0.111064
0.155339
0.00958633
0.0264504
0.00513541
0.0157837
0.0470008
0.00921584
0.0962686
0.0152175
0.00658695
0.00124459
0.136045
0.0868522
0.132497
0.133576
0.125743
0.183498
0.109751
0.148486
0.000962175
0.0135008
0.160083
0.00615443
0.121653
0.00227158
0.134777
0.127325
0.00163913
0.00907254
0.139016
0.0495151
0.157129
0.129765
0.0317014
0.0112761
0.114874
0.00119628
0.0224116
0.112329
0.138729
0.0846745
0.00153117
0.0297153
0.132482
0.108608
0.00145419
0.01743
0.0231148
0.00136764
0.0871099
0.13181
0.132231
0.0480232
0.00258317
0.140343
0.0141844
0.0367828
0.0233822
0.00478159
0.094439
0.00741506
0.0117528
0.0663886
0.026366
0.131067
0.0176332
0.0960791
0.00305287
0.0401681
0.122129
0.0012927
0.168583
0.0857314
0.0459603
0.0480514
0.0210117
0.00296352
0.173068
0.00755881
0.00376674
0.168998
0.0806061
0.0365359
0.145336
0.0779657
0.0693025
0.0609514
0.143714
0.00807145
0.00680638
0.137963
0.00329808
0.017215
0.0161576
0.00704258
0.0754759
0.00630538
0.0225388
0.133903
0.00960321
0.0119685
0.010933
0.0954981
0.136656
0.092096
0.00114759
0.0500402
0.142569
0.0112119
0.113766
0.133935
0.00592331
0.0232186
0.061216
0.0280608
0.0304782
0.0024582
0.0497258
0.0620694
0.00423036
0.13003
0.132216
0.151695
0.148472
0.0539941
0.0367577
0.0260937
0.093814
0.15904
0.105589
0.0843693
0.0419087
0.0162376
0.146616
0.0066951
0.0596842
0.00447291
0.0589812
0.141161
0.00215067
0.0323981
0.00147929
0.0297462
0.0628542
0.0928874
0.131983
0.0781567
0.00157192
0.0189159
0.0471904
0.0268416
0.0845158
0.0103617
0.179082
0.115086
0.115293
0.135155
0.00446636
0.0258173
0.0574293
0.00629852
0.0843973
0.151547
0.126816
0.0145532
0.136271
0.0752589
0.0439334
0.104883
0.00960039
0.121899
0.0314742
0.0634179
0.00123494
0.00142437
0.0708014
0.00237753
0.0217394
0.00123241
0.0864683
0.145572
0.129071
0.0761978
0.0422499
0.112239
0.0173638
0.0939673
0.03397
0.0728281
0.00305432
0.0465844
0.0144294
0.0151284
0.130339
0.0230885
0.0309141
0.134386
0.020279
0.159411
0.00187453
0.00870433
0.148981
0.128852
0.0887115
0.101658
0.103872
0.00511515
0.140691
0.0235935
0.113165
0.160176
0.0701854
0.0974872
0.00515465
0.0923337
0.145521
0.140031
0.00535769
0.0554564
0.00668272
0.138109
0.0262024
0.16108
0.101973
0.00134432
0.132344
0.0336587
0.00672735
0.00143289
0.156711
0.0840894
0.00431556
0.146575
0.0866399
0.10179
0.00297907
0.103884
0.00507944
0.0493728
0.0017177
0.0597281
0.0116698
0.118455
0.163203
0.143488
0.162001
0.168984
0.0021442
0.051361
0.128318
0.0792912
0.137387
0.130517
0.0088038
0.0434452
0.00241222
0.021571
0.00691555
0.00804039
0.0246084
0.00129814
0.0611864
0.00935933
0.0910539
0.00123507
0.136923
0.0453593
0.163018
0.13404
0.049704
0.153503
0.139058
0.136432
0.0828325
0.0177424
0.136759
0.0520208
0.0071776
0.00454113
0.00397032
0.00686517
0.0891562
0.118161
0.108756
0.00419701
0.107753
0.00112619
0.12097
0.144147
0.156892
0.0780884
0.126601
0.149069
0.108614
0.0145445
0.129292
0.00143247
0.0830443
0.122304
0.00176102
0.0866841
0.103737
0.118035
0.00165882
0.0180204
0.15631
0.13722
0.14834
0.125207
0.0029639
0.132899
0.0273937
0.0368054
0.061485
0.146424
0.139622
0.0246324
0.0864064
0.027421
0.00145856
0.0947719
0.121155
0.0800591
0.0917433
0.135894
0.00539636
0.0120759
0.0240692
0.00149041
0.00176109
0.0882887
0.0053211
0.139883
0.00146348
0.133517
0.00791439
0.0126696
0.0176544
0.036124
0.0107618
0.0164457
0.00272071
0.165253
0.102066
0.159179
0.0836942
0.0122709
0.0641544
0.0482998
0.0127036
0.000786327
0.140697
0.0183584
0.00136447
0.175225
0.1231
0.0773569
0.00264869
0.0393325
0.165121
0.0160716
0.0691821
0.124719
0.0603244
0.0384463
0.0846852
0.111462
0.164378
0.143431
0.113224
0.0960508
0.00143148
0.0474669
0.0469504
0.128445
0.00138427
0.13909
0.155416
0.0375499
0.0450934
0.0271048
0.15966
0.00487172
0.1187
0.0958501
0.00848092
0.0963999
0.18287
0.00832125
0.00466512
0.00733551
0.00707333
0.139409
0.00749544
0.00189441
0.178803
0.00665802
0.105586
0.013501
0.0102361
0.111835
0.0217797
0.130329
0.0237512
0.0425142
0.0534909
0.005636
0.0152404
0.0115785
0.0058128
0.105909
0.00522011
0.0407916
0.0768594
0.0962797
0.13522
0.155729
0.135705
0.0276328
0.0027084
0.13063
0.0499496
0.0268707
0.0605476
0.057964
0.0142613
0.00601842
0.0876473
0.132772
0.0289232
0.113284
0.0480164
0.00135826
0.0496027
0.0957655
0.023403
0.142474
0.0493549
0.0019523
0.0013217
0.060686
0.0147051
0.0399972
0.00106763
0.0254072
0.0250937
0.00342291
0.127078
0.00786779
0.0029391
0.0042507
0.108522
0.051929
0.145539
0.102474
0.144231
0.0663092
0.0924526
0.00284055
0.134755
0.0124183
0.141804
0.00807092
0.00448386
0.0478064
0.00672813
0.0246406
0.0904938
0.00636922
0.0527015
0.0480203
0.0901029
0.00142596
0.00937113
0.00113683
0.0262578
0.00526462
0.0130751
0.153237
0.0716848
0.0153742
0.146598
0.0878108
0.0104135
0.0658284
0.0355354
0.0336268
0.0402512
0.0425918
0.00895718
0.0109147
0.105504
0.0110466
0.0514977
0.0749729
0.110572
0.133379
0.00274994
0.0051741
0.141609
0.0147015
0.154416
0.0851958
0.0012171
0.0575847
0.138417
0.134779
0.0792237
0.150894
0.0473534
0.00277504
0.102751
0.0194927
0.137668
0.156973
0.00684098
0.00283779
0.00554565
0.0508969
0.173918
0.13865
0.052092
0.00707048
0.00185021
0.148239
0.0141755
0.0358659
0.00996315
0.027243
0.153635
0.036379
0.0054163
0.0933875
0.0251731
0.150196
0.130342
0.0562046
0.00177926
0.0146665
0.14292
0.00462088
0.0107442
0.128421
0.00944132
0.12621
0.133728
0.00527939
0.10445
0.10059
0.0571809
0.00611278
0.0258571
0.0426647
0.142858
0.102492
0.140052
0.0899783
0.0181058
0.0184114
0.0011367
0.0248092
0.0218887
0.0136672
0.0135562
0.131439
0.0327912
0.00715859
0.00384388
0.00255443
0.0579498
0.122844
0.00133006
0.11471
0.119445
0.031326
0.0198112
0.050574
0.142426
0.00322386
0.0191858
0.0533099
0.0874513
0.0115793
0.00325571
0.00136854
0.106693
0.0956489
0.0507243
0.148889
0.138087
0.0148313
0.108687
0.0260515
0.0133674
0.0460371
0.00285889
0.116172
0.0640317
0.0441525
0.148255
0.0035234
0.112046
0.142049
0.0130873
0.0075111
0.0128818
0.00403702
0.104768
0.0141921
0.12241
0.127176
0.0831678
0.161968
0.0524213
0.00380658
0.0478818
0.0124674
0.0970429
0.134717
0.0685887
0.150509
0.135644
0.00143781
0.157434
0.046601
0.00697931
0.149983
0.00927268
0.0104152
0.0137026
0.0735064
0.115424
0.120936
0.135413
0.151022
0.0476044
0.109337
0.129343
0.139354
0.126216
0.0372108
0.0979587
0.00292951
0.0123229
0.141022
0.114744
0.12618
0.0128242
0.133294
0.0245666
0.103683
0.154499
0.131583
0.0114265
0.0583952
0.00361526
0.127939
0.156779
0.0274628
0.159184
0.147627
0.00177224
0.0809323
0.132387
0.0140639
0.0098735
0.00102653
0.155016
0.0224794
0.0145433
0.132252
0.144538
0.00433143
0.0958767
0.18048
0.0117369
0.126451
0.00180629
0.157784
0.115094
0.0806162
0.130963
0.00238029
0.133724
0.146285
0.00742413
0.0878366
0.130319
0.147737
0.12534
0.00978826
0.0596217
0.0937368
0.15053
0.0179433
0.086059
0.147536
0.14565
0.0444789
0.12945
0.0233204
0.102695
0.135905
0.0576716
0.156945
0.052032
0.0751317
0.0356626
0.133248
0.00642013
0.0897038
0.0345913
0.140927
0.0432149
0.106332
0.157346
0.0245246
0.0651227
0.0210966
0.010546
0.128287
0.00151019
0.00292507
0.00624011
0.00233283
0.0920255
0.0788055
0.0213353
0.00840686
0.119575
0.00135294
0.139988
0.00465412
0.0834684
0.0196413
0.00654528
0.0314147
0.0144323
0.140661
0.00942239
0.12006
0.124767
0.0179585
0.00190481
0.00161225
0.0475952
0.087827
0.0178522
0.141309
0.00688107
0.152389
0.040831
0.145004
0.121159
0.0014274
0.119463
0.0131331
0.073273
0.0207245
0.0114471
0.0748012
0.137517
0.00279031
0.127987
0.0913746
0.0460811
0.136366
0.00691999
0.0633044
0.017393
0.00147852
0.0927898
0.0227748
0.0658345
0.117607
0.0134877
0.126298
0.140515
0.0131792
0.125658
0.13416
0.0273996
0.0745352
0.00559539
0.047847
0.137483
0.11433
0.152898
0.12833
0.114294
0.00777173
0.0802923
0.100883
0.128036
0.110676
0.08642
0.0692579
0.00268435
0.139506
0.024778
0.0482025
0.127697
0.00338027
0.0781949
0.143722
0.00146364
0.00610007
0.00177274
0.123049
0.00219489
0.0267159
0.0829268
0.00142019
0.0800431
0.0643366
0.0052019
0.0557716
0.0363684
0.0014547
0.0404554
0.00833342
0.0736233
0.00277699
0.0915877
0.114001
0.108252
0.00143852
0.0874937
0.147545
0.088654
0.0794829
0.130016
0.11757
0.0148863
0.0294255
0.103097
0.0344585
0.00139545
0.0494122
0.0105445
0.0106453
0.137688
0.00708676
0.0254067
0.0608547
0.00369342
0.158233
0.00752886
0.00120245
0.129585
0.00125226
0.119274
0.00237122
0.00709532
0.0379068
0.0724074
0.113253
0.0822878
0.103812
0.0339
0.139843
0.0762099
0.0015145
0.0141116
0.00300491
0.105772
0.0199364
0.00176557
0.107791
0.0847784
0.00270339
0.0996434
0.104418
0.00399417
0.00857587
0.0113476
0.0839557
0.00363377
0.0265273
0.0621757
0.0017998
0.00453942
0.108009
0.14672
0.0059375
0.01293
0.013415
0.0749027
0.0186148
0.0143155
0.0246146
0.0796935
0.132429
0.0357583
0.00147133
0.0316849
0.100846
0.0959124
0.0480411
0.130711
0.00166465
0.0211115
0.119114
0.0103218
0.136087
0.145283
0.0152203
0.0111915
0.0872687
0.00248913
0.105814
0.00177541
0.132944
0.00144189
0.00331937
0.00416914
0.154093
0.028808
0.036935
0.0293275
0.0116202
0.0073799
0.00195239
0.0252932
0.145755
0.0269932
0.130331
0.00587962
0.00134234
0.162723
0.149218
0.0443636
0.0105446
0.0285434
0.155547
0.0178053
0.0110122
0.138085
0.13378
0.0468782
0.00162055
0.0670627
0.131836
0.00256368
0.0176643
0.0413826
0.00443114
0.109862
0.0328697
0.00258249
0.151568
0.023463
0.0144629
0.00795288
0.008124
0.0024318
0.0708729
0.0536817
0.0260447
0.120869
0.00441997
0.0102404
0.0142795
0.0058099
0.0167754
0.0830237
0.0085673
0.00269954
0.024491
0.00517823
0.132053
0.0541844
0.0721827
0.124122
0.00350829
0.0250704
0.152823
0.0389573
0.00385512
0.114149
0.104616
0.00193625
0.125401
0.07274
0.1515
0.057956
0.00976811
0.070615
0.00509743
0.0128652
0.0108478
0.0568271
0.0133414
0.0692582
0.04978
0.0367761
0.0828985
0.0584832
0.153613
0.137336
0.00169794
0.00533443
0.0351347
0.00546737
0.103952
0.0690001
0.0388536
0.134844
0.133217
0.0176952
0.0231301
0.00151349
0.0131135
0.00707407
0.0732533
0.00830268
0.0983274
0.00286176
0.14624
0.00393374
0.00778656
0.13816
0.011141
0.00129579
0.0427291
0.121175
0.135557
0.0268134
0.00670526
0.137269
0.0479668
0.128003
0.158265
0.00311972
0.125819
0.0237199
0.121722
0.18044
0.0042853
0.0153526
0.0610288
0.00469317
0.0491114
0.00196067
0.0555016
0.139174
0.048625
0.00136102
0.0720179
0.00836291
0.043922
0.0026486
0.111594
0.103326
0.0576822
0.00378683
0.103282
0.139316
0.145008
0.00425449
0.0015406
0.0104648
0.105936
0.0559285
0.118567
0.00138691
0.139425
0.00361766
0.00751245
0.106806
0.00910702
0.0477904
0.153155
0.0330033
0.114316
0.0226536
0.026055
0.0152092
0.0570746
0.0665851
0.111741
0.00176887
0.140959
0.17061
0.00245914
0.0487015
0.10746
0.0230414
0.127757
0.138056
0.101773
0.0277768
0.030032
0.152447
0.153979
0.0276971
0.0503278
0.010002
0.0158278
0.133684
0.156638
0.154184
0.0741632
0.0541075
0.00881892
0.00141669
0.00274288
0.119777
0.136051
0.0277379
0.0031339
0.0849453
0.133445
0.00243123
0.00301473
0.123087
0.0332161
0.0473951
0.0872589
0.00167803
0.113616
0.124352
0.0157468
0.00511131
0.0596182
0.0296676
0.0527658
0.00419583
0.00372286
0.135587
0.00399973
0.0609007
0.103655
0.00596634
0.00808936
0.026782
0.0551362
0.0257786
0.0629606
0.136614
0.0382172
0.0654921
0.0418806
0.0269858
0.134592
0.0218527
0.00335924
0.0107801
0.139568
0.0115913
0.00845751
0.0142685
0.134208
0.0556518
0.149818
0.0029935
0.047076
0.108297
0.0092004
0.00491808
0.157148
0.00130174
0.0253259
0.0813356
0.0103785
0.10021
0.100819
0.131194
0.151775
0.0999479
0.120469
0.00213267
0.152872
0.130416
0.00712574
0.0219858
0.0578087
0.00437009
0.0755039
0.103741
0.0429452
0.0487495
0.146856
0.156448
0.00327526
0.0540001
0.0537044
0.112842
0.0680335
0.00293758
0.00910493
0.00274193
0.148749
0.0419837
0.0801506
0.082954
0.134024
0.133558
0.00379011
0.00680004
0.0311761
0.110605
0.102965
0.00797773
0.0498121
0.0677548
0.0764288
0.00142559
0.0191534
0.00102062
0.0850144
0.15398
0.0649192
0.104298
0.0859782
0.0100192
0.114983
0.00710023
0.00168255
0.0256402
0.00126379
0.0991248
0.158889
0.0144186
0.132909
0.0110389
0.154337
0.133401
0.152534
0.00271167
0.15213
0.046743
0.0868179
0.00733688
0.0358617
0.0379603
0.00748001
0.00226368
0.117331
0.14989
0.131471
0.00265714
0.0770121
0.0729425
0.0549718
0.139492
0.00929251
0.124881
0.14747
0.0377883
0.0719932
0.0119592
0.00164583
0.00175598
0.0220121
0.169174
0.0172921
0.0356265
0.0134374
0.126487
0.00437046
0.0056039
0.0678651
0.0811843
0.155298
0.0137892
0.0698971
0.00307185
0.00639321
0.02301
0.00335075
0.00612206
0.00490599
0.00235906
0.0953928
0.00274381
0.0411824
0.00144138
0.00326445
0.00276075
0.00217467
0.145421
0.0136743
0.131251
0.101128
0.00117825
0.0764082
0.0739598
0.0161583
0.0434656
0.0142912
0.00307392
0.00273598
0.00531648
0.0223041
0.0258445
0.0485043
0.102099
0.0616454
0.010692
0.0062918
0.00799915
0.0187111
0.156085
0.137542
0.0965058
0.00345887
0.0521165
0.0802279
0.0269723
0.0203685
0.0141211
0.0283619
0.0595473
0.00292325
0.0226928
0.0134291
0.0827349
0.0163539
0.0103338
0.126223
0.0293581
0.137191
0.00629929
0.0153017
0.109872
0.0138407
0.0016922
0.131711
0.0361455
0.140454
0.00508808
0.0665839
0.114819
0.1543
0.0117439
0.00392929
0.158267
0.00700122
0.00327924
0.139073
0.0522229
0.0130955
0.00135179
0.0213867
0.00132841
0.067253
0.124337
0.0962402
0.00213945
0.0129616
0.134867
0.00171068
0.0787838
0.0498632
0.0268784
0.00297972
0.0495324
0.00953603
0.0225402
0.0352365
0.00335549
0.111018
0.107478
0.071547
0.0128423
0.0863864
0.0496357
0.152867
0.131605
0.00259064
0.0439702
0.00142065
0.153095
0.00160915
0.00135825
0.0716797
0.0529703
0.0209938
0.024646
0.00364985
0.0103314
0.00170422
0.00308692
0.0264641
0.110522
0.00271924
0.0013886
0.0686653
0.00336959
0.0743749
0.106058
0.0736492
0.0573991
0.144709
0.0131211
0.00129762
0.0448499
0.153634
0.00323726
0.00267979
0.00742071
0.00223621
0.0648023
0.00205232
0.00766318
0.00549455
0.146087
0.102813
0.00735068
0.00132381
0.089831
0.00440059
0.00182265
0.0949602
0.0642301
0.124835
0.0174517
0.0672366
0.0103229
0.00264088
0.140693
0.0929349
0.137526
0.0427111
0.00484461
0.00198721
0.0338943
0.00257045
0.0115122
0.0926584
0.155164
0.0155082
0.151567
0.00319811
0.0029703
0.00812404
0.0107026
0.00155729
0.104683
0.00275251
0.00150509
0.00980234
0.00258289
0.155078
0.0501152
0.0371956
0.026425
0.00244333
0.0106488
0.0510628
0.0225608
0.138013
0.00146212
0.108183
0.15135
0.00179162
0.00190695
0.0584082
0.0281995
0.0110038
0.110103
0.105184
0.0109542
0.110005
0.00281707
0.158188
0.00234784
0.114836
0.0201249
0.00530736
0.111104
0.147253
0.0121346
0.010586
0.101009
0.0496954
0.00846552
0.00362371
0.00214722
0.00717923
0.0287985
0.154453
0.139513
0.016971
0.120272
0.0450487
0.135834
0.15201
0.00144948
0.0267034
0.00968081
0.0232256
0.0863805
0.12926
0.11797
0.042677
0.035853
0.00639552
0.0237197
0.00720904
0.000879728
0.0212756
0.00788704
0.00589836
0.00219364
0.00659043
0.1548
0.020332
0.0168089
0.0274685
0.00713283
0.139217
0.0431673
0.00669891
0.00144464
0.0272269
0.00577322
0.00745513
0.00548174
0.00519388
0.0325178
0.00478446
0.00447151
0.00421952
0.00401163
0.00468086
0.00685793
0.0903665
0.127791
0.0144421
0.00572053
0.11104
0.00725008
0.00214129
0.0106161
0.00178688
0.15363
0.13223
0.121909
0.00290915
0.0372487
0.0524099
0.00587378
0.00634963
0.0545077
0.0771281
0.0452692
0.0233326
0.0019428
0.155294
0.0231367
0.00452823
0.00149616
0.00598374
0.00196923
0.00861189
0.130762
0.00205963
0.125406
0.00208847
0.00147215
0.050651
0.0149695
0.0120466
0.0622354
0.130157
0.0253309
0.0410994
0.139264
0.130032
0.00804172
0.00304535
0.0122605
0.0598835
0.00340936
0.00774743
0.00178112
0.001575
0.0651285
0.103575
0.0409622
0.172289
0.00193439
0.0529388
0.00296215
0.00617415
0.00329814
0.108044
0.141406
0.14054
0.00144487
0.136856
0.00227893
0.122767
0.0021274
0.037457
0.0597725
0.0836667
0.141696
0.00579741
0.113038
0.145286
0.0544673
0.0355383
0.00351769
0.00132053
0.0107996
0.00165072
0.175474
0.146045
0.0217124
0.012675
0.00196201
0.00589687
0.0129729
0.00344302
0.00520769
0.00316855
0.170872
0.132484
0.138721
0.143011
0.00432718
0.0423119
0.124601
0.0249533
0.00408912
0.11288
0.105024
0.0304656
0.00142093
0.105567
0.0348803
0.151158
0.00154685
0.120073
0.0720442
0.00457231
0.00566364
0.00344565
0.151031
0.0122427
0.0106605
0.00388567
0.00304878
0.111977
0.00439628
0.0715279
0.106911
0.017726
0.0538102
0.0113464
0.0775188
0.0136459
0.0147753
0.00770254
0.00142829
0.00232474
0.00231303
0.127893
0.0110842
0.106722
0.00428051
0.110645
0.0117499
0.0675088
0.0120829
0.153143
0.113134
0.155708
0.0241083
0.00149875
0.00419206
0.0638237
0.0271413
0.00500693
0.152924
0.105136
0.00242972
0.0187277
0.0111786
0.00343957
0.129635
0.00129578
0.152611
0.0027995
0.0016803
0.0526683
0.0234717
0.0161199
0.00545599
0.00599887
0.00213313
0.0493789
0.0419818
0.00324358
0.0512496
0.00719085
0.0324624
0.00510638
0.0113482
0.00286968
0.0175223
0.0387073
0.0388274
0.00153224
0.0106738
0.00328354
0.00113732
0.105259
0.151728
0.00150124
0.00215134
0.0942127
0.0446294
0.0217298
0.0577307
0.00266911
0.0417071
0.00145279
0.029037
0.0014371
0.0110626
0.0611351
0.043594
0.00724825
0.00550248
0.15537
0.00578127
0.152815
0.0229932
0.0631738
0.15475
0.0986404
0.076913
0.00203728
0.00267871
0.147131
0.00241376
0.0437821
0.0975335
0.0907558
0.125095
0.0519801
0.0030816
0.00179961
0.139146
0.0260013
0.00731028
0.00865168
0.00395036
0.00599273
0.0276403
0.0159498
0.118936
0.15561
0.0459503
0.00194705
0.140377
0.00250843
0.00337262
0.01056
0.00278011
0.00140879
0.131775
0.00141993
0.0116832
0.0083062
0.0709538
0.110214
0.0872329
0.00371948
0.0660267
0.0700819
0.119527
0.00240866
0.00421881
0.00788109
0.00379525
0.00383545
0.00231477
0.0748751
0.0968783
0.00740162
0.040078
0.054953
0.0524787
0.0285501
0.11149
0.107286
0.0425077
0.0269781
0.0375956
0.0341197
0.14667
0.0610776
0.00486055
0.036806
0.00224384
0.0384782
0.0986582
0.0055795
0.00944419
0.124587
0.112051
0.0267394
0.0281945
0.00139729
0.0265623
0.00996289
0.0955137
0.104795
0.025308
0.00202424
0.00713878
0.0358703
0.148757
0.00174188
0.0615187
0.108715
0.00655395
0.0194139
0.00781753
0.0014875
0.00637259
0.0261951
0.0248779
0.0014038
0.0915174
0.0603498
0.0136319
0.153383
0.00762661
0.00941573
0.00530903
0.031842
0.0630349
0.0185852
0.00351527
0.00709364
0.0643875
0.0053892
0.00529486
0.0102007
0.0575984
0.060105
0.00841662
0.010903
0.00278154
0.112372
0.0625557
0.00917066
0.0551541
0.00894694
0.00733425
0.0666617
0.00881248
0.15343
0.00987705
0.055795
0.0702336
0.0983139
0.115475
0.00204825
0.00350177
0.0464855
0.0248165
0.00495389
0.0584077
0.101116
0.0145588
0.00217429
0.0074807
0.00152609
0.0151521
0.0138395
0.00322045
0.00465156
0.0141605
0.0971255
0.0055957
0.0951345
0.0670301
0.00517188
0.00434581
0.0461792
0.0271752
0.0201307
0.0292105
0.0276836
0.00412095
0.113922
0.00153211
0.0227463
0.13465
0.134257
0.134651
0.0457889
0.0443961
0.12778
0.023721
0.0664211
0.048473
0.152733
0.00634511
0.042837
0.0105491
0.0268927
0.155651
0.132723
0.00947662
0.0945682
0.00304171
0.0684118
0.0704096
0.0136326
0.0110046
0.0613824
0.0634397
0.0114181
0.0263076
0.0125577
0.0106954
0.104553
0.00214808
0.0252133
0.0431387
0.018166
0.00191265
0.132548
0.011366
0.1456
0.0240254
0.10759
0.0331708
0.0909006
0.0686539
0.0896412
0.0107189
0.0012817
0.0123746
0.0707783
0.0279651
0.00142312
0.0326159
0.00377484
0.00572517
0.0755345
0.013661
0.0732529
0.00363393
0.0276654
0.0279408
0.00136975
0.136668
0.0430558
0.0577765
0.0135604
0.0421999
0.00692287
0.00178873
0.0759234
0.0886502
0.0631572
0.00182391
0.0495892
0.0386456
0.00987183
0.001574
0.116114
0.0224185
0.00819695
0.0140986
0.145677
0.0128825
0.139934
0.0352728
0.110881
0.0500897
0.00494579
0.0068774
0.113133
0.0451178
0.00476528
0.0709914
0.0555297
0.0193981
0.055154
0.0771178
0.0245154
0.0522839
0.0528996
0.111784
0.00759331
0.00484995
0.0038739
0.114099
0.00781118
0.00139455
0.00102513
0.153353
0.0733449
0.0196376
0.00622814
0.0527018
0.11262
0.0902242
0.134521
0.0538213
0.0185543
0.142756
0.00742123
0.0370295
0.125586
0.0468256
0.00766174
0.0130829
0.00474443
0.0443437
0.0294178
0.00137582
0.0429879
0.0220654
0.00132732
0.00143908
0.00516009
0.00830689
0.00366499
0.104758
0.141533
0.0470669
0.00338832
0.101084
0.11831
0.00273038
0.134645
0.152586
0.00791561
0.0442404
0.00122411
0.0162713
0.0151176
0.036018
0.0135658
0.0440762
0.0255603
0.0372765
0.12715
0.0231645
0.00143153
0.0794926
0.0967801
0.0221877
0.00142861
0.0453964
0.0455569
0.00187328
0.135109
0.035159
0.00778578
0.133355
0.00191887
0.0234738
0.0512579
0.0150295
0.00679922
0.00325552
0.0263648
0.0115411
0.0136897
0.00948273
0.00826523
0.0737876
0.014083
0.00604864
0.0420872
0.01
0.050805
0.0282528
0.00166118
0.135982
0.0102717
0.0098108
0.0828006
0.0145885
0.0220614
0.0379454
0.0245899
0.00555575
0.0372922
0.0143378
0.0462909
0.00781628
0.1053
0.00142261
0.0120744
0.12125
0.0466763
0.11616
0.136356
0.133111
0.0779496
0.0726184
0.0226192
0.0239831
0.0593084
0.147889
0.148463
0.147094
0.00763348
0.136581
0.0620544
0.0398529
0.0398684
0.0183701
0.10182
0.0287731
0.0254628
0.0362584
0.0494388
0.0605316
0.00487601
0.0809465
0.0116299
0.0218281
0.00549594
0.0181982
0.0812333
0.00793497
0.0135192
0.00140203
0.00172226
0.0231499
0.050148
0.0257495
0.0150731
0.00965469
0.152548
0.121691
0.0120681
0.153131
0.0403491
0.0546787
0.0405049
0.0473993
0.0108429
0.03871
0.050754
0.114727
0.157138
0.00451379
0.0356863
0.0880352
0.0058586
0.00761283
0.104953
0.0186739
0.102772
0.060501
0.0765045
0.0444471
0.0744535
0.10317
0.0856651
0.072857
0.00377749
0.126841
0.104841
0.0813649
0.0433323
0.00375706
0.00176206
0.0421104
0.0374366
0.00138818
0.0772688
0.100162
0.0877544
0.0151549
0.137226
0.0630302
0.0664115
0.00951903
0.0805723
0.0208258
0.0629028
0.0360643
0.00149157
0.100963
0.0413923
0.00995665
0.0194766
0.0183277
0.118269
0.0548376
0.0221204
0.0283483
0.0271872
0.0375191
0.0123707
0.00773386
0.138804
0.00892711
0.0530048
0.131332
0.0458406
0.00216825
0.104054
0.134815
0.0283248
0.0672614
0.0418827
0.101355
0.0479166
0.0270147
0.0554093
0.0389608
0.0174033
0.0369833
0.152466
0.00310844
0.00319418
0.0735057
0.0991453
0.0061781
0.1402
0.0511358
0.0686005
0.00730243
0.167472
0.145258
0.0205244
0.0409714
0.00268375
0.0627303
0.148913
0.0265349
0.135703
0.00173792
0.0659687
0.0415319
0.0458085
0.0135896
0.00923567
0.0254668
0.052539
0.00953981
0.0741531
0.137837
0.0297804
0.0464346
0.0255675
0.0974383
0.0628814
0.043734
0.0811026
0.0127162
0.00806637
0.00211633
0.0780041
0.0438124
0.126797
0.00297044
0.00195964
0.0676212
0.0772432
0.0259454
0.022934
0.00676636
0.0665151
0.023163
0.021603
0.0140139
0.146069
0.00808962
0.0110663
0.0484497
0.0476891
0.0586535
0.0132913
0.0519865
0.150982
0.0229273
0.0125328
0.153485
0.0463525
0.00974634
0.152015
0.0727606
0.0557397
0.0204102
0.00690083
0.0176547
0.0362418