/*--------------------------------*- C++ -*----------------------------------*\
| =========                 |                                                 |
| \\      /  F ield         | OpenFOAM: The Open Source CFD Toolbox           |
|  \\    /   O peration     | Version:  v2012                                 |
|   \\  /    A nd           | Website:  www.openfoam.com                      |
|    \\/     M anipulation  |                                                 |
\*---------------------------------------------------------------------------*/
FoamFile
{
    version     2.0;
    format      ascii;
    class       volVectorField;
    location    "450";
    object      cellDisplacement;
}
// * * * * * * * * * * * * * * * * * * * * * * * * * * * * * * * * * * * * * //

dimensions      [0 1 0 0 0 0 0];


internalField   nonuniform List<vector> 
13917
(
(0.0208738 0.202445 0)
(0.00271888 0.156444 0)
(0.0199818 0.177934 0)
(0.0142705 0.0940202 0)
(0.000844397 0.128077 0)
(0.00270559 0.155359 0)
(0.016425 0.12365 0)
(0.00121738 0.16618 0)
(0.019538 0.0804726 0)
(0.0161554 0.210054 0)
(0.00151171 0.165559 0)
(0.0111069 0.0975475 0)
(0.000429888 0.00199858 0)
(-0.00162167 0.173161 0)
(0.0033929 0.144816 0)
(0.0209151 0.201568 0)
(-2.03179e-05 0.00340326 0)
(0.0020983 0.165597 0)
(0.0181378 0.177758 0)
(0.0195552 0.209151 0)
(0.00685941 0.161409 0)
(0.00351823 0.10972 0)
(0.0170735 0.153976 0)
(0.00338808 0.108883 0)
(0.0124621 0.124464 0)
(0.00599636 0.162528 0)
(0.00125851 0.187686 0)
(0.0167692 0.210081 0)
(0.00381629 0.164911 0)
(-3.89446e-05 0.00227306 0)
(0.0183112 0.210104 0)
(0.0197742 0.146081 0)
(0.0125572 0.107782 0)
(0.0210387 0.194015 0)
(0.000149336 0.0765766 0)
(0.000880762 0.165977 0)
(0.00794271 0.140392 0)
(0.000166754 0.00466167 0)
(0.0166444 0.122747 0)
(0.00883453 0.166994 0)
(-1.35406e-05 0.00103879 0)
(-0.000539725 0.0532795 0)
(0.0190852 0.0714281 0)
(0.0193533 0.167787 0)
(0.0191649 0.168685 0)
(0.00969877 0.19465 0)
(0.00715871 0.160082 0)
(0.010318 0.207957 0)
(-0.00161083 0.161589 0)
(0.000190275 0.0773945 0)
(0.0109447 0.0965309 0)
(0.0126429 0.188842 0)
(0.0217248 0.170972 0)
(0.00763097 0.108796 0)
(0.00819702 0.110638 0)
(0.0129966 0.188598 0)
(0.0193879 0.21015 0)
(0.0168777 0.154526 0)
(-0.000522481 0.0519389 0)
(0.00927549 0.194597 0)
(0.00421336 0.203356 0)
(-0.000697021 0.0875769 0)
(-5.46791e-06 0.000351232 0)
(0.0124955 0.122617 0)
(0.019235 0.198438 0)
(-6.50134e-05 0.00344953 0)
(0.00324643 0.165233 0)
(0.000807547 0.165178 0)
(0.00179461 0.166216 0)
(0.0213391 0.185627 0)
(0.0194243 0.193699 0)
(0.0210674 0.194057 0)
(0.0145446 0.0567159 0)
(-0.000494292 0.0513546 0)
(0.0068999 0.162605 0)
(0.0109065 0.134118 0)
(0.00185145 0.125346 0)
(-0.000478715 0.0500182 0)
(0.0109746 0.132441 0)
(0.0125774 0.10961 0)
(0.00567974 0.123225 0)
(-1.28346e-05 0.0039534 0)
(0.0144674 0.0540893 0)
(0.0206984 0.182009 0)
(0.00295668 0.0324511 0)
(0.00114511 0.172839 0)
(0.0197149 0.145204 0)
(0.00150136 0.0168126 0)
(0.00872227 0.166095 0)
(-2.54936e-05 0.00406913 0)
(-5.02015e-05 0.00663086 0)
(0.0192487 0.0712394 0)
(-0.00175541 0.160803 0)
(7.77395e-05 0.0669614 0)
(0.00748275 0.123541 0)
(0.00350999 0.16573 0)
(0.00116842 0.183712 0)
(3.58495e-05 0.00545455 0)
(0.00172151 0.0187307 0)
(0.00375901 0.181917 0)
(-1.46288e-05 0.000998252 0)
(-1.78876e-05 0.00121484 0)
(0.00577833 0.124612 0)
(9.60145e-05 0.00991058 0)
(0.00182149 0.124043 0)
(0.0221202 0.149234 0)
(0.0171336 0.207621 0)
(-0.000740113 0.0867361 0)
(-0.000569192 0.0538395 0)
(0.000714411 0.188134 0)
(0.00318855 0.00565513 0)
(0.0209584 0.195487 0)
(0.0040827 0.165401 0)
(0.00921663 0.208165 0)
(0.0193542 0.19739 0)
(0.0102877 0.138572 0)
(0.0181555 0.176124 0)
(-4.70973e-05 0.00418726 0)
(0.0195377 0.178272 0)
(0.0145109 0.0364366 0)
(-1.40478e-05 0.00490765 0)
(-0.000411861 0.0493414 0)
(0.00294286 0.165983 0)
(0.0159325 0.180967 0)
(0.021848 0.16625 0)
(0.0207322 0.182896 0)
(0.012771 0.119033 0)
(0.00663601 0.163799 0)
(0.00117804 0.0803611 0)
(0.016148 0.181023 0)
(0.0192707 0.114637 0)
(0.00635867 0.190248 0)
(0.0220599 0.155878 0)
(0.0100661 0.138988 0)
(0.0197473 0.153083 0)
(0.000311723 0.187623 0)
(0.00301597 0.202273 0)
(0.0223746 0.146168 0)
(0.00544487 0.163491 0)
(8.72599e-05 0.00253046 0)
(-0.00227578 0.141181 0)
(-0.000451822 0.0493812 0)
(0.0221601 0.147512 0)
(0.00380575 0.0858724 0)
(0.0137107 0.0574016 0)
(-0.000700393 0.055002 0)
(0.0195977 0.192514 0)
(-0.00215492 0.112282 0)
(0.011839 0.208198 0)
(0.00778697 0.110309 0)
(0.00889429 0.16369 0)
(-1.61935e-05 0.00107765 0)
(0.0136046 0.0547289 0)
(0.0146916 0.0340184 0)
(0.000752409 0.184213 0)
(0.0019686 0.111916 0)
(0.000104502 0.0113939 0)
(0.0222027 0.151172 0)
(-2.44228e-05 0.00201999 0)
(-3.88978e-05 0.00343061 0)
(0.00432862 0.0628555 0)
(0.0150216 0.2038 0)
(0.00612015 0.147223 0)
(-0.00241253 0.14066 0)
(0.00982332 0.205204 0)
(0.00286662 0.183268 0)
(0.0216924 0.172213 0)
(0.00715552 0.206142 0)
(-7.41749e-06 0.000469433 0)
(0.00517407 0.164458 0)
(0.00313612 0.111355 0)
(0.0216969 0.168172 0)
(0.0196845 0.0769204 0)
(0.00525379 0.202531 0)
(0.0119076 0.180402 0)
(-2.37936e-05 0.00172 0)
(0.0144757 0.0921443 0)
(0.0120035 0.190397 0)
(0.0192783 0.112515 0)
(0.00592367 0.148536 0)
(0.0186683 0.0762749 0)
(0.00319153 0.109753 0)
(0.0107182 0.0981676 0)
(0.0137153 0.194149 0)
(0.0194017 0.18013 0)
(0.00592163 0.190185 0)
(0.0105576 0.0972245 0)
(0.0133377 0.194372 0)
(-4.81187e-05 0.00280995 0)
(0.00149147 0.172229 0)
(0.0115849 0.180711 0)
(0.0191265 0.167117 0)
(0.0146025 0.190554 0)
(0.0207533 0.205264 0)
(0.000114259 0.0677935 0)
(0.0217657 0.169384 0)
(0.0127027 0.140538 0)
(0.0220595 0.155354 0)
(0.000157583 0.074994 0)
(0.00211027 0.110775 0)
(0.00771525 0.157074 0)
(0.0212593 0.188655 0)
(0.0223409 0.147457 0)
(0.00718188 0.137555 0)
(0.00201993 0.189185 0)
(0.00446489 0.158853 0)
(0.00899892 0.164569 0)
(-0.000439148 0.0501103 0)
(0.01242 0.189989 0)
(0.00544581 0.123479 0)
(0.00105201 0.0630105 0)
(0.000270391 0.129441 0)
(0.00013626 0.13024 0)
(0.0115151 0.207979 0)
(0.0197758 0.151338 0)
(0.00575052 0.163611 0)
(0.0180089 0.203967 0)
(0.000573766 0.0112886 0)
(-0.000266474 0.0280309 0)
(-0.000269027 0.0276235 0)
(0.00711823 0.206549 0)
(0.0141053 0.192386 0)
(0.0126184 0.195682 0)
(0.0055153 0.0230588 0)
(-3.6975e-06 0.000237409 0)
(-0.000244076 0.187944 0)
(0.0217223 0.171052 0)
(-0.000226793 0.0255079 0)
(-0.000215549 0.0245095 0)
(-1.24228e-05 0.000962346 0)
(-0.000286031 0.0284983 0)
(-0.000288046 0.0280778 0)
(0.0210491 0.195134 0)
(0.0120608 0.207432 0)
(0.00458919 0.115665 0)
(-1.61006e-05 0.00100219 0)
(0.0139562 0.179937 0)
(0.021291 0.186924 0)
(-2.8153e-05 0.00269334 0)
(0.00506885 0.0218818 0)
(0.00159373 0.188925 0)
(0.0222866 0.143637 0)
(0.0140378 0.193303 0)
(0.018316 0.204099 0)
(0.0108073 0.186323 0)
(0.00393367 0.0865006 0)
(0.00812845 0.205874 0)
(0.0141403 0.180603 0)
(0.00435633 0.164601 0)
(0.017837 0.167599 0)
(0.00735158 0.136013 0)
(0.0123035 0.207703 0)
(0.0144843 0.0417477 0)
(0.0113019 0.16817 0)
(0.0122543 0.178086 0)
(0.00430292 0.117264 0)
(-5.97778e-06 0.000456386 0)
(0.012738 0.120971 0)
(0.000728333 0.121719 0)
(-0.000160404 0.0701718 0)
(0.0218171 0.167347 0)
(-0.00237733 0.166379 0)
(-0.00035772 0.0529951 0)
(-0.000202557 0.0239764 0)
(0.00196839 0.113602 0)
(-0.000201317 0.0245167 0)
(0.0146455 0.0393741 0)
(0.000788969 0.00389289 0)
(0.0147771 0.156088 0)
(-0.000388518 0.0538673 0)
(0.0225294 0.140252 0)
(0.0168913 0.207244 0)
(0.00924463 0.0896284 0)
(0.00118366 0.121219 0)
(0.00830085 0.1954 0)
(-0.000281803 0.0222987 0)
(0.00443334 0.180384 0)
(0.0218222 0.167061 0)
(-0.000282752 0.0226773 0)
(0.0213371 0.185588 0)
(-0.000146689 0.0685105 0)
(0.0146569 0.203493 0)
(-1.89961e-05 0.00136299 0)
(0.0036516 0.141203 0)
(0.00423055 0.118719 0)
(0.00328359 0.084338 0)
(0.0169821 0.187621 0)
(0.00020206 0.00768499 0)
(0.0024405 0.183886 0)
(0.0114986 0.15152 0)
(-0.00268854 0.166249 0)
(-0.000724828 0.0560384 0)
(0.00301635 0.188768 0)
(0.0225195 0.14064 0)
(-3.88788e-05 0.00370945 0)
(0.0156579 0.165814 0)
(0.00080523 0.124111 0)
(0.00965624 0.141499 0)
(0.000889964 0.126608 0)
(0.0112642 0.131203 0)
(-1.31118e-05 0.0673077 0)
(0.000238303 0.00947261 0)
(0.0113187 0.190261 0)
(-0.000733795 0.108455 0)
(0.0113573 0.167033 0)
(0.0113432 0.129455 0)
(0.00464878 0.022165 0)
(0.0221596 0.152464 0)
(0.0212322 0.189737 0)
(0.000950333 0.0755685 0)
(-0.000339026 0.01909 0)
(0.00988809 0.141099 0)
(-0.00109395 0.131268 0)
(0.0210265 0.150895 0)
(0.0181512 0.207018 0)
(0.00600728 0.202341 0)
(-4.03589e-05 0.00214497 0)
(0.00688298 0.189463 0)
(0.00120394 0.119615 0)
(0.0205451 0.183073 0)
(-0.00122075 0.132381 0)
(0.0201083 0.176043 0)
(0.000719154 0.00312664 0)
(0.003395 0.143572 0)
(0.00168277 0.18802 0)
(0.00267841 0.112809 0)
(0.00252363 0.157369 0)
(0.0189319 0.167964 0)
(-2.35418e-05 0.00300999 0)
(0.0216365 0.169811 0)
(0.00236112 0.0260886 0)
(0.0209607 0.105525 0)
(-0.000327878 0.0217742 0)
(0.0194242 0.209622 0)
(0.00103784 0.0408584 0)
(0.0117666 0.164727 0)
(0.00448444 0.159873 0)
(-2.97832e-05 0.00159018 0)
(-3.11591e-05 0.00409285 0)
(0.0182515 0.164946 0)
(0.0218517 0.156193 0)
(0.00782862 0.121102 0)
(0.00253582 0.112335 0)
(0.0209171 0.195045 0)
(0.0219889 0.152437 0)
(0.0105735 0.201752 0)
(-0.00145703 0.172272 0)
(-0.000269589 0.0220449 0)
(0.00518463 0.115584 0)
(0.022403 0.139955 0)
(0.00724653 0.189634 0)
(-0.000271656 0.0225571 0)
(0.000745998 0.125677 0)
(0.0092902 0.104024 0)
(0.00519187 0.17134 0)
(0.0116878 0.165941 0)
(0.0148938 0.186928 0)
(0.00899045 0.18521 0)
(0.00432545 0.179734 0)
(0.020348 0.114978 0)
(0.0207156 0.202636 0)
(0.0012074 0.0822767 0)
(0.00804425 0.120716 0)
(0.000687977 0.12884 0)
(0.0179224 0.187782 0)
(-2.33828e-05 0.00239235 0)
(0.020825 0.204285 0)
(0.0204406 0.112373 0)
(-0.000569189 0.0278886 0)
(0.00814931 0.112724 0)
(0.00801282 0.188253 0)
(-0.00034723 0.0196528 0)
(-0.00167929 0.158908 0)
(-0.000552095 0.0499024 0)
(0.0130633 0.195442 0)
(0.00879198 0.195428 0)
(0.0042177 0.160975 0)
(0.00929913 0.0919635 0)
(0.0178922 0.195888 0)
(-0.000342965 0.0219933 0)
(0.00899154 0.20509 0)
(0.0145173 0.191614 0)
(-0.000560361 0.0493074 0)
(-0.00154324 0.159739 0)
(0.0037382 0.121907 0)
(-0.000468522 0.0250115 0)
(9.83298e-05 0.0502423 0)
(0.0192168 0.208933 0)
(-0.000469256 0.0248544 0)
(0.00884772 0.136908 0)
(-0.000407017 0.188772 0)
(0.00467671 0.177987 0)
(0.00739004 0.133115 0)
(0.0110437 0.20384 0)
(0.022324 0.133064 0)
(0.0093444 0.132566 0)
(0.0167611 0.188702 0)
(0.00569674 0.113379 0)
(0.0042755 0.177985 0)
(0.019803 0.17864 0)
(0.00212028 0.0229745 0)
(0.0177568 0.108309 0)
(0.0116102 0.128318 0)
(0.00344905 0.0819372 0)
(0.00197903 0.0465677 0)
(0.00133113 0.0848374 0)
(0.00204982 0.202505 0)
(0.00327384 0.183603 0)
(0.00812009 0.116805 0)
(0.00116053 0.0856786 0)
(0.00348653 0.105356 0)
(0.014456 0.168544 0)
(0.000179213 0.163207 0)
(-0.000304441 0.0217358 0)
(-8.4701e-06 0.00053731 0)
(0.0209016 0.151902 0)
(0.00784335 0.187552 0)
(0.00338287 0.0865144 0)
(0.008941 0.13529 0)
(0.00722093 0.200897 0)
(-0.000644159 0.182636 0)
(-6.30807e-05 0.00332478 0)
(0.0183294 0.177821 0)
(0.020508 0.181958 0)
(-0.000423181 0.0348401 0)
(-0.000295348 0.0216524 0)
(0.00676673 0.157747 0)
(0.00187076 0.043798 0)
(-0.00030712 0.0221509 0)
(0.00450655 0.117132 0)
(-0.000298401 0.0221006 0)
(-0.000409217 0.0340011 0)
(0.00905511 0.206441 0)
(0.00581842 0.114872 0)
(0.00911647 0.168637 0)
(0.0224956 0.141528 0)
(0.0154506 0.165725 0)
(0.0010997 0.0650642 0)
(0.013309 0.0551329 0)
(0.011785 0.203838 0)
(0.00739947 0.157419 0)
(0.021879 0.16508 0)
(-0.000321128 0.0218204 0)
(0.0078625 0.0490601 0)
(-0.000356284 0.0227636 0)
(-0.000304872 0.0288317 0)
(0.00787942 0.139129 0)
(0.00341742 0.122753 0)
(0.00710673 0.200367 0)
(-0.000718923 0.0503206 0)
(0.0222402 0.145502 0)
(0.00768214 0.0496137 0)
(0.018133 0.132263 0)
(-0.000739974 0.0520847 0)
(0.00536492 0.121835 0)
(0.0112178 0.185915 0)
(0.0100396 0.20164 0)
(0.00933014 0.102049 0)
(-0.00168082 0.184468 0)
(0.00122567 0.0676689 0)
(0.00071297 0.0178161 0)
(0.00341799 0.1035 0)
(0.00389824 0.122341 0)
(0.000952486 0.0587793 0)
(0.000957904 0.0132447 0)
(0.022109 0.154427 0)
(0.0050698 0.203128 0)
(0.000905253 0.0566646 0)
(0.00300666 0.189499 0)
(0.020626 0.155786 0)
(0.00182884 0.00691884 0)
(0.0152545 0.169779 0)
(0.0216643 0.119535 0)
(0.0117997 0.204863 0)
(0.0181686 0.108416 0)
(0.022043 0.151491 0)
(-0.000532547 0.0272801 0)
(-0.000530642 0.0274192 0)
(0.00356797 0.123237 0)
(-5.42401e-05 0.00289072 0)
(-0.000764076 0.0530534 0)
(0.00724136 0.134748 0)
(0.0124149 0.199837 0)
(-4.6724e-05 0.00644166 0)
(0.00770215 0.106588 0)
(0.00770795 0.12321 0)
(0.0185143 0.0969613 0)
(0.00777849 0.161291 0)
(0.0190779 0.180284 0)
(0.0179341 0.154541 0)
(-0.00068809 0.0583835 0)
(0.00102473 0.121967 0)
(0.00236973 0.166159 0)
(0.00855106 0.175144 0)
(0.00796719 0.116327 0)
(-0.00202077 0.173373 0)
(0.0158125 0.151003 0)
(0.0117558 0.150684 0)
(0.008122 0.20447 0)
(0.00272566 0.0293964 0)
(0.00834524 0.176198 0)
(0.0117729 0.19149 0)
(0.00113497 0.0351146 0)
(0.0223305 0.147195 0)
(0.000740134 0.0178939 0)
(-0.000304393 0.0282718 0)
(0.0146492 0.168976 0)
(-0.000324621 0.0222619 0)
(0.000600873 0.0122846 0)
(0.0110984 0.189614 0)
(0.0225214 0.139597 0)
(-0.00137667 0.188575 0)
(0.00422662 0.0600984 0)
(0.0159589 0.0830444 0)
(-0.000654184 0.0608217 0)
(0.0113681 0.199006 0)
(0.00606662 0.195978 0)
(0.0077839 0.114113 0)
(0.00803037 0.109397 0)
(0.003884 0.0551619 0)
(0.0127438 0.175673 0)
(-0.00172089 0.0990647 0)
(0.000939363 0.0809411 0)
(-2.89384e-05 0.00289282 0)
(0.0020976 0.109031 0)
(0.00345127 0.0794587 0)
(-0.000181914 0.100719 0)
(0.0138346 0.145242 0)
(-4.27704e-05 0.0055105 0)
(0.0177501 0.156505 0)
(0.00104917 0.0323338 0)
(0.00375573 0.107151 0)
(0.0117002 0.126542 0)
(0.0193097 0.206587 0)
(-3.95496e-05 0.0157678 0)
(0.0168714 0.0972641 0)
(-0.000122641 0.0709281 0)
(0.0181074 0.130706 0)
(0.0155101 0.174005 0)
(0.00412861 0.17029 0)
(0.0121957 0.179278 0)
(0.00369392 0.182975 0)
(0.0111346 0.125779 0)
(0.0026777 0.165438 0)
(0.0220031 0.15691 0)
(0.00996201 0.206561 0)
(0.0225038 0.141185 0)
(0.000747849 0.0708404 0)
(0.0031879 0.101486 0)
(-0.000716015 0.0588101 0)
(0.00933021 0.0727934 0)
(0.0197247 0.195847 0)
(-0.000294652 0.0228917 0)
(-0.00232038 0.133211 0)
(0.0129528 0.139284 0)
(0.0215151 0.17039 0)
(0.00418882 0.181361 0)
(0.0188571 0.0755513 0)
(0.0152686 0.209585 0)
(0.000843724 0.0564464 0)
(0.0211725 0.122955 0)
(3.94186e-05 0.00664753 0)
(-0.000481469 0.0698268 0)
(0.0215342 0.170793 0)
(-0.000313345 0.021811 0)
(0.0209779 0.163418 0)
(-7.0551e-06 0.000457492 0)
(0.00132006 0.00518417 0)
(0.00325281 0.103351 0)
(0.0191254 0.178845 0)
(-0.000257741 0.100354 0)
(-0.000156101 0.0215985 0)
(0.0196824 0.164617 0)
(0.0150489 0.169512 0)
(-0.00228991 0.11906 0)
(0.0196684 0.190858 0)
(0.0222662 0.148411 0)
(0.0111989 0.205059 0)
(-3.29225e-05 0.0149897 0)
(0.0215849 0.176281 0)
(-1.6825e-05 0.00109458 0)
(0.003724 0.202532 0)
(-0.00202683 0.112415 0)
(-0.00053231 0.0705001 0)
(-0.000368921 0.020887 0)
(-1.59244e-05 0.00107648 0)
(0.0157622 0.149981 0)
(0.0186667 0.0735097 0)
(-0.000316534 0.0222471 0)
(4.68886e-05 0.00651117 0)
(0.000780132 0.00482758 0)
(0.0195917 0.190079 0)
(0.00506054 0.0669266 0)
(0.0198439 0.141068 0)
(0.00753516 0.105243 0)
(-0.000151082 0.0205567 0)
(-2.98733e-05 0.00250582 0)
(0.0101773 0.194013 0)
(0.0144888 0.201621 0)
(0.0159638 0.209442 0)
(0.0177965 0.166165 0)
(0.0140581 0.14378 0)
(0.0158998 0.197155 0)
(0.0213311 0.185322 0)
(7.57345e-05 0.0516801 0)
(0.0114598 0.200735 0)
(0.000777815 0.00461639 0)
(0.0218358 0.127054 0)
(0.00918293 0.0743274 0)
(0.0181286 0.194901 0)
(0.00331795 0.0773299 0)
(-0.000169526 0.102263 0)
(0.013972 0.0571903 0)
(-0.00222863 0.118046 0)
(0.0152304 0.154521 0)
(0.0187926 0.200771 0)
(-3.39158e-05 0.00595753 0)
(0.0148643 0.154135 0)
(0.000454377 0.0804748 0)
(-1.10791e-05 0.000747395 0)
(0.0205735 0.203578 0)
(0.00253339 0.181968 0)
(0.000289719 0.0818069 0)
(0.0148032 0.188192 0)
(0.00507986 0.0235682 0)
(-0.000466357 0.0662091 0)
(-1.17823e-05 0.000781996 0)
(0.0205114 0.202844 0)
(0.00511746 0.0655975 0)
(0.000675096 0.12318 0)
(-0.000291647 0.0224124 0)
(0.000339976 0.0808064 0)
(0.0177096 0.188086 0)
(-1.54682e-05 0.00103449 0)
(0.0157532 0.185526 0)
(-3.24604e-06 0.00422485 0)
(0.00111559 0.0401034 0)
(0.00349973 0.203084 0)
(0.0198821 0.142235 0)
(0.00768412 0.112554 0)
(0.0224826 0.142055 0)
(0.0210137 0.161785 0)
(0.000358316 0.160335 0)
(0.0113689 0.191816 0)
(0.00079846 0.0543409 0)
(0.00316235 0.145747 0)
(0.019372 0.207189 0)
(0.0218298 0.146954 0)
(0.00702248 0.156443 0)
(0.00818526 0.140064 0)
(-0.000233268 0.103237 0)
(-1.57686e-06 0.0049908 0)
(0.00172364 0.0864876 0)
(-3.93749e-05 0.0020791 0)
(0.0151674 0.176781 0)
(0.0118672 0.139173 0)
(0.00727763 0.204793 0)
(0.0153978 0.1548 0)
(-0.000316703 0.162612 0)
(0.00613277 0.196611 0)
(-0.000695679 0.109497 0)
(0.0126695 0.161475 0)
(0.0149733 0.189804 0)
(0.0212944 0.187083 0)
(2.66981e-05 0.068041 0)
(-0.000333406 0.111402 0)
(-2.90379e-05 0.00152804 0)
(0.00116243 0.0400379 0)
(-1.88855e-05 0.00662467 0)
(-2.95779e-05 0.00241136 0)
(-0.000686074 0.0612396 0)
(0.000694061 0.011897 0)
(0.0215516 0.177544 0)
(0.0203475 0.103705 0)
(0.00019789 0.0134673 0)
(0.0189079 0.166355 0)
(-3.54123e-05 0.00653725 0)
(0.0180676 0.206492 0)
(-0.000181769 0.0677624 0)
(0.00108733 0.0799322 0)
(0.0225127 0.140133 0)
(0.0158253 0.171116 0)
(-0.000922631 0.0455638 0)
(0.0142689 0.067978 0)
(-0.000327445 0.0196085 0)
(0.000743489 0.0761494 0)
(0.0154733 0.0766646 0)
(0.0164691 0.130503 0)
(0.00288584 0.084003 0)
(0.0221003 0.156634 0)
(0.0112752 0.155977 0)
(-0.00184852 0.103379 0)
(-0.000898507 0.0448858 0)
(-0.000349817 0.110393 0)
(0.022316 0.146595 0)
(0.0157917 0.0856009 0)
(8.70125e-05 0.00801589 0)
(0.000405147 0.0814706 0)
(0.021783 0.168461 0)
(-0.00094024 0.189053 0)
(0.0125811 0.142463 0)
(0.0219248 0.163328 0)
(-0.00226448 0.130011 0)
(0.00111705 0.0432648 0)
(0.000977378 0.0775358 0)
(0.00759707 0.139644 0)
(0.0219173 0.154947 0)
(-0.000886521 0.0460082 0)
(0.014946 0.156406 0)
(0.0152807 0.0768731 0)
(0.0167042 0.0997896 0)
(0.0219389 0.125855 0)
(0.0013594 0.118853 0)
(0.0152227 0.186044 0)
(0.020204 0.106797 0)
(0.00737681 0.122044 0)
(0.0124457 0.11124 0)
(9.28618e-05 0.00807189 0)
(0.0163261 0.130559 0)
(0.000893331 0.121076 0)
(0.0223379 0.133743 0)
(0.00922959 0.143808 0)
(-0.000682014 0.0669495 0)
(0.0220195 0.159719 0)
(-6.82666e-05 0.00381008 0)
(-0.00222291 0.131125 0)
(0.00839484 0.138271 0)
(0.0035126 0.154008 0)
(0.0138473 0.135123 0)
(0.0217698 0.147426 0)
(-1.75483e-05 0.0047764 0)
(0.0212351 0.119036 0)
(0.0147998 0.201078 0)
(-4.13616e-05 0.00204102 0)
(0.0097719 0.0719213 0)
(0.00947853 0.143396 0)
(0.000502854 0.00879854 0)
(0.00811528 0.0633423 0)
(0.0141009 0.0513223 0)
(0.00134141 0.139015 0)
(-0.000741483 0.0513041 0)
(0.0102828 0.193267 0)
(0.0154581 0.18648 0)
(0.000699483 0.0520679 0)
(0.0222721 0.136995 0)
(0.0193447 0.0823929 0)
(0.0183836 0.0997665 0)
(0.0150636 0.188616 0)
(0.00508878 0.117248 0)
(0.0210413 0.125112 0)
(0.00160697 0.184125 0)
(-9.93492e-05 0.018074 0)
(0.0160599 0.169944 0)
(0.0107457 0.183658 0)
(0.020006 0.108501 0)
(0.00161605 0.0768063 0)
(0.00107207 0.0610776 0)
(0.00164287 0.0856721 0)
(0.0213061 0.186914 0)
(0.0123441 0.10742 0)
(-0.000264861 0.0679056 0)
(0.0207633 0.107461 0)
(0.0029774 0.0861225 0)
(0.00111276 0.0689695 0)
(0.0132208 0.187753 0)
(0.00203108 0.183523 0)
(0.000635645 0.138979 0)
(-0.000863829 0.183477 0)
(0.00547239 0.170308 0)
(0.0225135 0.136322 0)
(0.0142975 0.0489056 0)
(0.0017421 0.126418 0)
(0.01713 0.195218 0)
(-0.000557483 0.0696948 0)
(-0.000866753 0.0884679 0)
(-2.93648e-05 0.00402075 0)
(-1.44646e-05 0.00683225 0)
(0.0136724 0.0735418 0)
(0.00878254 0.145961 0)
(0.00405179 0.171309 0)
(0.00155094 0.0756899 0)
(-0.000348116 0.0186194 0)
(0.00177835 0.10443 0)
(-0.00198634 0.113414 0)
(0.00860548 0.138216 0)
(0.0183318 0.105598 0)
(-0.000331527 0.0222197 0)
(0.0176737 0.169466 0)
(0.00364662 0.142552 0)
(0.0128661 0.203136 0)
(0.000544186 0.14014 0)
(-2.11146e-05 0.00296918 0)
(0.0186205 0.207039 0)
(0.0121853 0.114143 0)
(0.0217709 0.169131 0)
(0.0188369 0.0673381 0)
(-3.64639e-05 0.142194 0)
(0.00165581 0.118796 0)
(0.000570987 0.0661365 0)
(0.00963848 0.0694867 0)
(0.0213184 0.178977 0)
(0.0159224 0.133033 0)
(0.000207269 0.161371 0)
(-0.000990637 0.182048 0)
(0.00792078 0.0612965 0)
(0.0198824 0.11128 0)
(-1.16444e-05 0.000726396 0)
(-0.000598789 0.0836095 0)
(-0.00167027 0.09576 0)
(-1.62377e-05 0.00100726 0)
(0.00904069 0.206017 0)
(0.0172628 0.094029 0)
(-0.000104115 0.14323 0)
(0.0179263 0.176331 0)
(-0.00104703 0.126812 0)
(-0.000176855 0.0312913 0)
(4.73892e-06 0.00825349 0)
(0.00868129 0.186238 0)
(0.000741318 0.0541895 0)
(0.00725616 0.108166 0)
(0.00971525 0.129836 0)
(0.00296978 0.0993827 0)
(0.0206397 0.110407 0)
(-0.000170903 0.0300218 0)
(0.00200696 0.174155 0)
(0.00714303 0.122531 0)
(0.0209852 0.198838 0)
(0.0218553 0.165933 0)
(-0.000964359 0.133322 0)
(0.0223542 0.141904 0)
(-0.00138099 0.185049 0)
(0.0209609 0.199942 0)
(-0.00117286 0.130199 0)
(0.000795665 0.0390631 0)
(-0.000473404 0.0641567 0)
(0.0114291 0.0750012 0)
(0.0109795 0.119431 0)
(0.0039925 0.0578947 0)
(0.0161054 0.132919 0)
(0.00527626 0.0790534 0)
(0.000270919 0.163999 0)
(0.00739792 0.109607 0)
(0.0203121 0.181865 0)
(0.012359 0.105044 0)
(0.0203482 0.0936749 0)
(0.00827606 0.184012 0)
(0.000570449 0.0714169 0)
(0.00862433 0.168379 0)
(0.0120241 0.115545 0)
(-0.000449984 0.0729244 0)
(0.0149875 0.130158 0)
(-0.000338565 0.0215224 0)
(0.0225298 0.138728 0)
(0.0151132 0.17827 0)
(-0.000315141 0.0168169 0)
(0.000871493 0.0751351 0)
(0.0108494 0.0229032 0)
(0.00283137 0.111365 0)
(0.00179354 0.106179 0)
(0.00893631 0.204604 0)
(0.000904296 0.041289 0)
(0.00292329 0.182275 0)
(0.00330837 0.0749642 0)
(-0.000552009 0.0278279 0)
(0.00326583 0.139046 0)
(0.00430457 0.0845225 0)
(0.0212677 0.120071 0)
(-0.000719447 0.0887607 0)
(0.000969984 0.0435078 0)
(-0.000885361 0.0440299 0)
(0.0121156 0.200505 0)
(0.00645217 0.139642 0)
(0.0180769 0.166898 0)
(0.00058502 0.0535665 0)
(0.00339375 0.181555 0)
(-0.000344875 0.0210812 0)
(0.00193181 0.106745 0)
(0.0207648 0.203121 0)
(2.53659e-06 0.00680705 0)
(0.0142601 0.096477 0)
(0.0187109 0.167057 0)
(0.0208596 0.201785 0)
(-0.000352985 0.0213236 0)
(-0.00143406 0.129149 0)
(0.0171084 0.196322 0)
(-0.000561418 0.0518531 0)
(0.00259478 0.122041 0)
(0.0030311 0.101297 0)
(0.0203509 0.182934 0)
(0.0100704 0.0259228 0)
(0.0197182 0.16593 0)
(0.0114667 0.0882858 0)
(0.0223718 0.14557 0)
(0.00343531 0.140928 0)
(0.00419283 0.196278 0)
(0.00125155 0.0862285 0)
(-0.000237774 0.0155171 0)
(-0.000480917 0.025246 0)
(0.000704264 0.00999538 0)
(-5.87637e-05 0.00329328 0)
(0.022 0.156344 0)
(0.00841504 0.131023 0)
(0.00189839 0.0512008 0)
(-0.00155505 0.133443 0)
(-0.000570204 0.0511548 0)
(-0.000497463 0.0635034 0)
(0.0154411 0.17571 0)
(0.00919776 0.131628 0)
(0.0195957 0.197064 0)
(0.00931591 0.167301 0)
(0.0214253 0.124232 0)
(0.0111108 0.191281 0)
(0.0164824 0.100503 0)
(0.022143 0.154013 0)
(0.00711471 0.125844 0)
(0.0157654 0.172866 0)
(0.00875704 0.0480027 0)
(0.0222234 0.151895 0)
(-0.000548925 0.0279225 0)
(0.0149017 0.0647473 0)
(-0.000350507 0.0215784 0)
(-0.000377423 0.0707304 0)
(0.00796834 0.114127 0)
(-0.000342274 0.0213244 0)
(-0.000392012 0.0406944 0)
(-0.000328331 0.055672 0)
(0.00964373 0.065217 0)
(0.013364 0.148117 0)
(-9.54802e-05 0.0169376 0)
(0.008543 0.129189 0)
(0.0191759 0.155327 0)
(0.0106589 0.205828 0)
(0.0131324 0.2036 0)
(0.01868 0.165403 0)
(0.00296811 0.112001 0)
(-0.00049304 0.0258405 0)
(0.00488974 0.0725129 0)
(0.0174186 0.194276 0)
(-0.00173506 0.0979367 0)
(0.0224472 0.143407 0)
(-0.000308128 0.026615 0)
(0.000854711 0.0412077 0)
(0.00197252 0.0151023 0)
(0.00593694 0.107675 0)
(-0.000297578 0.025853 0)
(-0.000360455 0.0232408 0)
(0.00619119 0.0688268 0)
(0.0125861 0.16292 0)
(0.00197094 0.0512617 0)
(0.0174296 0.209262 0)
(-0.00142385 0.132387 0)
(0.0020095 0.0643375 0)
(0.0212783 0.179136 0)
(0.00906803 0.0487016 0)
(0.00141652 0.0856165 0)
(-0.000702039 0.0853424 0)
(0.0203347 0.203504 0)
(0.0079302 0.176668 0)
(-3.14127e-05 0.00244137 0)
(-0.000936278 0.046434 0)
(0.000293601 0.0742163 0)
(0.00113798 0.0837648 0)
(0.0222034 0.140387 0)
(-0.000491869 0.0655257 0)
(0.000284435 0.182794 0)
(0.0144543 0.0970461 0)
(-0.000347623 0.143713 0)
(0.00118056 0.0654489 0)
(-0.000393248 0.0517816 0)
(0.00783682 0.157842 0)
(-0.000874812 0.126672 0)
(0.0112472 0.124016 0)
(0.0213263 0.185074 0)
(-0.000711705 0.0925707 0)
(0.000302963 0.0084574 0)
(0.00244481 0.123029 0)
(0.011074 0.0275091 0)
(0.00101878 0.0589589 0)
(0.0205519 0.147498 0)
(0.0206601 0.096926 0)
(0.0117319 0.138625 0)
(0.0217878 0.1681 0)
(0.0172529 0.209013 0)
(-0.000785307 0.125456 0)
(0.0206066 0.148494 0)
(-0.000338163 0.0536555 0)
(0.0221144 0.155925 0)
(-0.000396875 0.0498931 0)
(0.0056059 0.20129 0)
(0.0126361 0.177005 0)
(0.0179581 0.107101 0)
(0.0110482 0.122276 0)
(0.00333529 0.197238 0)
(-0.00187158 0.188912 0)
(0.0221763 0.144663 0)
(-0.000344623 0.0200126 0)
(-0.00215507 0.115026 0)
(-0.000347382 0.0218108 0)
(0.00540448 0.0785569 0)
(0.0207065 0.0984377 0)
(0.00703815 0.121084 0)
(0.0112564 0.0878136 0)
(0.00495493 0.190066 0)
(0.0210825 0.195004 0)
(-0.000409675 0.0513086 0)
(0.0201296 0.0819556 0)
(0.0213752 0.183894 0)
(-7.95538e-06 0.000514656 0)
(-0.000266227 0.0229145 0)
(-0.00245873 0.134176 0)
(0.0170271 0.205691 0)
(0.0110632 0.117269 0)
(-1.4e-05 0.000908998 0)
(0.0163719 0.122196 0)
(0.0128525 0.0582761 0)
(0.00102434 0.0814236 0)
(0.0012019 0.138418 0)
(0.00570849 0.144953 0)
(0.0113157 0.0726117 0)
(-0.00202889 0.104169 0)
(-0.00035259 0.0205888 0)
(-0.000777709 0.0476494 0)
(-0.00166112 0.0969089 0)
(-0.00067286 0.0914744 0)
(0.0220638 0.157952 0)
(0.0144938 0.0678437 0)
(0.0121551 0.104513 0)
(-0.00043543 0.0242054 0)
(0.0207026 0.204735 0)
(-0.000452638 0.024364 0)
(-0.00036083 0.0203192 0)
(0.006799 0.158958 0)
(0.0165363 0.0522055 0)
(0.0143948 0.0992758 0)
(-0.000346969 0.0208248 0)
(0.012219 0.203221 0)
(-0.000719879 0.0673549 0)
(0.00225516 0.113032 0)
(0.0183117 0.150239 0)
(0.00356691 0.0838035 0)
(-3.35029e-05 0.00166354 0)
(0.0172827 0.170408 0)
(0.0206047 0.15442 0)
(0.02137 0.115735 0)
(0.0118416 0.196792 0)
(-0.000898187 0.0468562 0)
(0.00772964 0.19982 0)
(0.021336 0.181486 0)
(0.000151176 0.00457413 0)
(0.012338 0.196604 0)
(-0.000276313 0.0236916 0)
(0.0125155 0.175235 0)
(0.0135887 0.180848 0)
(-0.00174968 0.0956183 0)
(0.0149885 0.121726 0)
(-0.000453994 0.0705864 0)
(0.0132915 0.135745 0)
(-0.000169781 0.163378 0)
(0.00764958 0.132713 0)
(0.0104425 0.204332 0)
(0.0142078 0.155349 0)
(0.0108942 0.184437 0)
(0.00741116 0.202328 0)
(-1.87196e-05 0.00753007 0)
(0.0216114 0.131499 0)
(0.00923736 0.134302 0)
(0.00606826 0.109255 0)
(-0.000419568 0.0982215 0)
(-0.000755481 0.0467966 0)
(-0.000266479 0.0171804 0)
(0.000528107 0.0476247 0)
(0.0111988 0.122602 0)
(0.0221941 0.145107 0)
(0.00188781 0.0542054 0)
(0.00815623 0.131645 0)
(0.0188716 0.0696773 0)
(0.00734788 0.125485 0)
(0.00877786 0.0958859 0)
(0.00884175 0.184478 0)
(0.0214957 0.119987 0)
(0.00239439 0.113587 0)
(0.000773089 0.0727772 0)
(0.00235603 0.173564 0)
(-0.000435763 0.0244092 0)
(0.00298691 0.154462 0)
(0.0221478 0.153578 0)
(0.0135718 0.080859 0)
(0.00980858 0.0356396 0)
(-0.00122893 0.187768 0)
(-0.000232143 0.0686871 0)
(0.00802155 0.133409 0)
(0.021275 0.182605 0)
(0.022109 0.156206 0)
(0.0015272 0.134908 0)
(0.0119659 0.175638 0)
(0.00669406 0.148202 0)
(0.0219497 0.162389 0)
(0.00259413 0.181029 0)
(0.00801956 0.160065 0)
(0.0192178 0.193729 0)
(0.000918038 0.0790291 0)
(0.0144361 0.180082 0)
(0.0112372 0.205562 0)
(0.019746 0.177433 0)
(-0.00196728 0.100879 0)
(-0.00161254 0.157072 0)
(-0.00040291 0.0330541 0)
(0.00366316 0.105438 0)
(0.000601229 0.00437704 0)
(0.00888147 0.0975971 0)
(0.00368781 0.10888 0)
(0.0222596 0.136336 0)
(-1.44746e-06 0.00672122 0)
(0.0146717 0.16338 0)
(3.97252e-05 0.0315742 0)
(0.0213418 0.114334 0)
(0.0120751 0.204331 0)
(0.00893236 0.1325 0)
(0.0107681 0.199139 0)
(-0.00143895 0.183685 0)
(0.0100146 0.0401947 0)
(0.0215562 0.122733 0)
(0.00527782 0.145475 0)
(0.00919056 0.128732 0)
(0.00801563 0.0668368 0)
(0.0222726 0.149953 0)
(0.0175667 0.166594 0)
(0.0210919 0.194391 0)
(0.0100751 0.150569 0)
(0.00531019 0.205316 0)
(0.0103369 0.184082 0)
(-0.000333546 0.0201078 0)
(-0.000907589 0.134308 0)
(0.0146682 0.153973 0)
(-0.00036369 0.0207988 0)
(0.00430764 0.0865662 0)
(0.00854513 0.193208 0)
(0.00815621 0.0658868 0)
(0.00904002 0.145589 0)
(0.00629425 0.162586 0)
(0.00579187 0.143792 0)
(0.0167628 0.0513982 0)
(0.0183408 0.15168 0)
(0.00420063 0.195599 0)
(0.00454774 0.0650402 0)
(0.00880329 0.191644 0)
(-0.000386679 0.144707 0)
(0.00703728 0.108817 0)
(0.00456254 0.0711253 0)
(-0.000704309 0.0541576 0)
(0.0223676 0.138581 0)
(0.0159264 0.19619 0)
(0.000418089 0.0615873 0)
(0.0203211 0.0916379 0)
(-0.000335315 0.0186088 0)
(-0.00114421 0.127976 0)
(0.0224835 0.14202 0)
(0.0111642 0.085265 0)
(0.000897308 0.024593 0)
(-0.00040975 0.0329394 0)
(0.0111345 0.0252052 0)
(0.000302027 0.00456866 0)
(0.00752691 0.138429 0)
(0.0223077 0.140819 0)
(0.00195002 0.108482 0)
(0.0163727 0.108656 0)
(-0.000751889 0.0460219 0)
(-0.0003441 0.0191822 0)
(0.0184813 0.165946 0)
(0.0167039 0.205325 0)
(0.00545129 0.204875 0)
(0.0146843 0.0649054 0)
(0.000326967 0.01308 0)
(0.00100728 0.027675 0)
(0.00840955 0.128011 0)
(0.0216315 0.118064 0)
(0.0225284 0.138422 0)
(-0.000325007 0.0174083 0)
(0.00838418 0.184776 0)
(0.00732305 0.156247 0)
(0.018485 0.146273 0)
(0.0184394 0.0748311 0)
(-0.000329379 0.0180344 0)
(0.00870773 0.144721 0)
(0.0194962 0.165491 0)
(0.000223489 0.0691129 0)
(0.00308127 0.179411 0)
(-0.000338952 0.0186351 0)
(0.000231087 0.0548146 0)
(0.0148299 0.0567369 0)
(0.0209354 0.192739 0)
(0.0145442 0.166805 0)
(-0.000730637 0.0451849 0)
(0.00987903 0.205676 0)