/*--------------------------------*- C++ -*----------------------------------*\
| =========                 |                                                 |
| \\      /  F ield         | OpenFOAM: The Open Source CFD Toolbox           |
|  \\    /   O peration     | Version:  v2012                                 |
|   \\  /    A nd           | Website:  www.openfoam.com                      |
|    \\/     M anipulation  |                                                 |
\*---------------------------------------------------------------------------*/
FoamFile
{
    version     2.0;
    format      ascii;
    class       volScalarField;
    location    "450";
    object      ddt0(omega);
}
// * * * * * * * * * * * * * * * * * * * * * * * * * * * * * * * * * * * * * //

dimensions      [0 0 -2 0 0 0 0];


internalField   nonuniform List<scalar> 
13917
(
0.0655261
-0.00072889
0.00761975
2.76629e-05
-0.000917658
-0.000556348
0.000394019
0.00408434
0.000361985
0.00466985
0.0110294
-7.39363e-06
-7.18871e-05
0.0603335
-0.000449959
-0.0913753
0.000111925
0.00457223
0.00435821
0.0452747
0.000438463
-9.90113e-05
0.00182611
-0.000101753
5.94068e-05
0.000504446
-0.437314
-0.0691877
0.0010774
-0.00150616
-0.404967
0.0035963
1.46691e-05
0.0375108
4.1162e-05
0.0756501
-2.07562e-05
-0.000220638
0.000393786
0.000664148
-2.35348e-05
9.09907e-05
0.000209299
0.00512744
0.00499499
-0.00784372
0.000352779
0.754426
-0.0388792
3.85011e-05
-8.23527e-06
0.00319977
0.600448
-3.31646e-05
-3.03995e-05
0.00343649
-117.478
0.00185128
7.6567e-05
-0.00612981
0.254386
0.00101147
-0.000209344
5.44729e-05
-0.660685
0.000764453
0.00146851
0.0683122
0.00926816
-0.0168756
-0.0235123
0.0225744
8.51918e-06
7.36631e-05
0.000446904
5.10796e-05
-0.000413153
6.4789e-05
4.67949e-05
1.6146e-05
-8.18421e-05
0.000160395
8.06994e-06
0.0178972
-6.8019e-06
-0.512607
0.00336916
-2.08928e-05
0.000638141
0.000105345
4.25482e-05
0.000232667
-0.00547858
4.70099e-05
-4.6893e-05
0.00155982
-0.798159
0.000173999
-1.74557e-05
-0.017226
-0.000110297
-8.83556e-05
-8.0084e-05
3.83479e-05
-0.000429272
-0.00611583
0.0244566
0.00104795
9.18827e-05
-0.122767
-2.12921e-06
0.0431174
0.00109266
0.62227
-0.707817
6.52333e-05
0.0043889
1.28142e-06
0.00521874
6.10274e-06
0.000169275
6.05144e-05
0.00239628
0.0037046
-0.0563433
0.0146855
4.94151e-05
0.000553489
-5.66526e-05
0.00371735
0.00103491
-0.00334219
-0.120326
5.86797e-05
0.00409206
-0.0664133
0.142472
-0.0120008
0.000594001
-0.000220188
-0.0139382
6.47115e-05
-0.0132382
-3.18925e-05
4.10536e-06
0.00016378
-0.0797573
-0.0447197
0.732267
-3.32173e-05
0.000555214
-0.000152822
3.07129e-06
6.61003e-06
-0.224797
-0.000273972
3.69251e-05
-0.0702928
-2.66693e-05
-1.01628e-05
-1.2333e-05
-0.0610324
-7.21532e-05
-0.00874848
0.0319184
-0.00573665
0.472796
0.500463
8.94365e-06
0.000719709
-0.000123044
-0.104923
0.000360454
0.0339311
0.00184345
-5.54515e-05
3.00407e-05
0.00263957
0.000948688
-6.62877e-05
0.000193227
-0.000113804
-1.10431e-05
0.00650364
0.00464387
0.000776414
-1.23023e-05
0.00736133
-0.00148186
-0.140157
0.0017583
0.00465921
0.0043897
0.0665447
4.17347e-05
-0.0602833
0.000215371
-0.25178
5.47394e-05
-0.000218466
0.00030014
-0.0364474
-0.192816
-5.7394e-05
-0.654479
0.000187649
0.00057809
6.4878e-05
0.0036986
-8.49244e-05
-1.79048e-05
-0.00500717
-0.00737277
0.719628
0.00395027
0.000588989
-0.0256006
-7.46211e-05
3.85075e-05
3.89461e-05
0.541883
0.00494842
-0.00936762
-4.67225e-06
-0.000210432
-0.00272841
-0.201742
3.3286e-05
3.21406e-05
-1.97103e-05
4.11499e-05
4.1596e-05
0.0167331
0.215405
-8.5975e-05
-1.01955e-05
0.00263491
-0.0058979
-1.40152e-05
-4.77967e-06
-0.447264
-0.0275319
0.00514672
-0.0259273
0.00172993
-3.2066e-05
0.15669
0.00277574
0.000855055
0.00348584
-5.57722e-05
0.249304
6.49139e-06
0.000924252
0.00181686
-9.9402e-05
5.06094e-06
5.43976e-05
-0.00178471
0.000119377
-0.0173523
-0.0349272
6.75663e-05
3.07926e-05
-0.000281748
2.97573e-05
6.84817e-06
-6.70262e-05
0.00103113
7.49755e-05
0.0224529
0.0303723
-1.50279e-05
-0.000991244
0.0149222
2.74449e-05
-0.00212872
0.0139326
2.95243e-05
-0.0296301
0.000111472
-0.0691102
-7.26212e-05
-0.000334394
-0.000105629
-3.48271e-05
0.00379653
-3.01389e-06
-0.0437474
0.000331408
0.0106492
0.000226101
-0.419207
0.00481155
4.68057e-06
0.00204398
-0.00184696
5.97362e-05
-0.0012639
5.38337e-05
6.483e-05
-2.70704e-05
0.00278868
0.300252
0.000898394
4.17987e-05
-5.1305e-06
-0.125168
-0.13184
-3.68561e-05
-0.0664998
6.20232e-05
-0.0474627
0.00630442
0.0300363
0.0240339
-0.00579507
-0.00631088
-0.000927435
0.0190407
-0.0399373
0.00794966
-4.96403e-05
-0.000443621
-0.593053
-0.00017512
-0.000385308
0.00458635
5.35363e-05
-0.101373
-7.52193e-06
0.00202296
1.96592e-05
1.56644
-4.62029e-06
0.00081885
0.000203381
-0.00670072
7.47772e-05
0.00358306
0.0254221
-4.04105e-05
-0.000178355
0.0488523
0.00948137
-0.140425
0.0421837
2.82665e-05
-7.2496e-05
-0.0354077
-0.00453926
3.02842e-05
-0.00160278
-2.06792e-05
0.000666034
0.000924162
0.00399958
0.000718778
-0.00147074
0.00192113
0.0252926
-6.15073e-05
-3.9087e-05
-0.000970215
0.00267513
8.18508e-06
-0.0273836
0.00190309
0.00126644
-3.33909e-05
-0.00044089
-0.0563535
0.0489321
7.74062e-05
-0.00471675
0.0102435
0.000321008
-1.52069e-05
-0.0235565
1.59257e-05
0.0296044
0.00455784
7.45187e-05
0.0234765
-0.000140419
-0.0430596
1.11897e-05
0.2828
-0.0333332
-8.89319e-06
0.035692
-0.00269923
-5.55841e-05
-0.0130358
0.00301237
-6.12993e-06
0.00346501
-5.84645e-05
-0.00143088
0.00687795
-7.83159e-06
0.000381038
4.86444e-05
-3.01056e-05
-5.2844e-06
-7.23755e-05
0.341762
0.0138391
-3.45128e-05
-7.84982e-05
-8.46613e-05
0.00178568
0.200358
1.28293e-05
7.50913e-06
0.00621156
0.00189802
-3.68512e-05
-9.32319e-06
-0.0564624
0.105537
0.000852064
0.00468573
0.0227315
5.28445e-05
1.62741e-05
0.000294912
-4.32181e-06
1.6113e-05
-8.97441e-05
2.0534e-05
4.77968e-05
0.20171
-5.98577e-05
0.000763865
0.0606363
0.00194369
-1.99512e-05
2.17469e-06
-0.0266192
0.000260384
-0.188234
6.96742e-06
-6.82608e-06
4.25006e-05
4.34693e-05
-2.49193e-05
-0.00016206
-0.0867884
5.98137e-05
-0.0298375
-6.91806e-06
0.00119635
-2.26953e-05
-8.4813e-05
0.00212734
-0.113028
-1.88643e-05
0.0835553
-2.353e-05
-1.13509e-05
-8.26978e-05
-0.000138754
-1.45192e-05
-4.70261e-05
-0.0850543
0.0528283
-1.27623e-05
-0.308744
0.00623945
-5.26444e-06
0.00214858
0.00415126
0.0129108
0.000457524
-0.00037798
-0.00508823
-0.0114946
-0.000157154
-0.00265565
-1.56574e-05
-5.84276e-05
-0.154355
4.76578e-05
-3.11877e-05
-4.33166e-05
0.000366073
0.000425662
0.00443553
0.00246244
0.000158922
-0.0006671
-0.000401951
0.000862363
-3.49855e-05
0.0626581
0.00109281
0.00033859
0.0346454
-6.8319e-06
0.000912749
0.00288604
-2.21997e-06
0.0481544
-1.47683e-05
4.34603e-05
0.00187546
7.53299e-06
-5.48248e-05
0.00239696
-0.100916
0.0786239
-1.13169e-05
5.19643e-05
0.000192035
-0.187095
-0.372836
-3.5706e-05
-3.06035e-05
-9.9687e-06
0.00177507
0.00994873
-5.52974e-05
-7.73749e-06
-0.000214241
-2.67049e-05
0.00121668
0.000420349
4.75575e-05
0.00249716
-1.96458e-06
-8.24512e-05
3.88176e-05
0.0336241
6.22535e-06
0.000153243
0.000118679
0.00109279
0.00261863
0.00100554
0.00184061
-0.0267292
2.13018e-05
0.00302473
-0.408499
0.159907
0.0866661
-1.92254e-05
-8.34459e-05
0.000211388
-1.01263e-05
-0.77457
2.7165e-05
-0.0485145
0.000219079
-1.0922
0.00168664
0.000208416
0.899457
-1.26591e-05
0.00348728
0.000148062
0.000284236
-0.442195
1.53018e-05
0.00928046
-0.000198337
-1.89517e-05
-8.53998e-05
0.00468748
0.00122976
2.32918e-05
0.00531536
0.00210931
-0.209747
0.024107
-0.197801
0.014972
6.05044e-06
-0.0960381
-0.000114586
0.157098
-0.00449809
0.00032235
0.00376029
-0.000123727
0.000990435
0.000171482
1.5466e-05
0.000141252
-9.4964e-05
0.00382445
-1.32236e-05
0.00317286
-3.08941e-05
2.31962e-05
-3.92295e-05
-0.00408578
-0.520867
1.43809
0.00319965
0.00042545
0.0793333
0.0113501
1.69112e-05
-0.446679
-8.29307e-05
0.00516552
-1.10328e-05
0.00767735
-2.53995e-05
-0.00103589
5.29045e-06
-0.19284
0.00109244
-0.244202
6.71074e-05
0.000902948
-1.798e-05
-0.000106767
0.0346056
0.000741263
5.75386e-06
0.0044049
-5.08703e-06
0.000220571
-0.000136126
0.0393799
-1.27667e-05
-0.00158928
2.54051e-05
2.83584e-06
0.00271253
-0.000123268
0.00411937
0.000202552
-3.30621e-06
0.257271
0.0032809
-3.56243e-05
0.56646
0.00849949
0.13058
0.00269407
-1.11836e-05
-0.000569255
0.0326908
0.00315334
0.000202018
-1.57739e-05
-0.00235055
0.000195407
-6.99225e-05
-0.00390224
0.00277275
0.000141693
0.113773
0.0011075
-0.0141941
-0.661214
0.206725
0.000790731
0.00475096
-0.0113475
6.48508e-05
0.0316831
-0.00886867
-3.26923e-06
8.46169e-05
-4.52694e-05
0.000205549
-5.39998e-05
-0.0313652
0.00133298
2.79885e-06
0.00431055
6.68046e-05
0.0292472
0.000111344
-5.22334e-05
-0.0242889
0.0026014
0.00657426
9.44426e-06
0.000353951
-3.552e-05
3.08407e-05
0.000517811
-3.90459e-05
-0.0581226
0.000424515
-0.058097
0.00650003
0.0230794
-0.254917
5.15895e-05
8.28005e-05
-1.63641e-05
0.0330082
0.0718107
0.000236457
-0.0599583
0.159128
-5.11764e-06
-4.30161e-05
-3.80715e-05
0.0158723
-0.00467995
0.00105161
2.68906e-05
0.000151544
0.00537365
-0.00056533
0.00394822
0.00132934
-4.74333e-05
1.7193e-05
9.1432e-05
0.00050092
-0.000962538
0.00192601
5.8337e-05
0.000388995
-0.0938957
-0.0739418
-0.0215861
-1.1165e-05
-0.000423262
0.000231394
0.00410979
0.000150641
0.00330797
-0.648496
0.0349774
-9.02797e-06
6.68187e-05
-0.000139922
-9.7062e-06
5.18548e-06
-0.000466612
-1.74956e-05
0.0002035
0.00419418
-9.67733e-06
0.00115992
0.000353818
0.000368046
0.00456932
-7.7235e-05
0.003485
-1.33597
1.5818e-05
0.00261097
0.00189826
0.00129619
-3.71228e-05
-1.63407e-05
-6.90066e-05
-0.212191
1.06433e-05
0.000145226
0.00195391
-4.05365e-05
-2.53551e-05
0.00312527
-0.515408
-0.00442657
0.108918
0.00073095
-0.0406689
5.95609e-06
-0.000460323
-0.0349362
0.000313557
0.00123042
6.67569e-05
8.29896e-05
6.00923e-06
5.89702e-05
0.000759333
-3.68334e-05
0.0108847
-0.000211983
-0.0253114
-4.55669e-06
0.000459611
1.72877e-05
0.00344154
-0.00034699
-0.0741444
-0.00550317
9.73768e-05
0.0314334
1.56239e-05
-0.0540753
0.000155742
0.17602
-0.000449265
-8.3847e-06
-9.0531e-06
-0.122596
0.000477262
0.128178
0.115609
-9.59232e-06
0.00129902
-3.38027e-06
0.000666338
0.0481509
-1.98478e-05
0.132929
0.000165415
0.145
0.00415391
-0.00851633
2.20855e-05
7.72588e-05
0.000967493
-1.11464e-05
-3.55132e-05
-4.5242e-06
-8.38435e-05
0.00195677
2.13213e-05
-0.0124954
-5.15848e-05
0.0468309
-0.054128
-0.183584
-0.0349377
0.0987641
-0.0979905
-0.0258773
-5.53948e-06
0.00019226
-5.22477e-06
4.77885e-06
-1.07563e-05
0.000497824
-1.96778e-05
0.141822
-3.59017e-05
-0.0165025
9.58746e-06
0.0009303
0.000869269
-1.17316e-05
0.000725032
1.5329e-05
0.000312422
0.000282001
2.44102e-05
-0.352747
0.00292046
0.012465
-3.42159e-05
-8.3646e-07
-0.000144184
-0.000221851
0.0337772
-5.52086e-06
0.00352615
-2.24036e-05
0.00604323
-0.00031394
-2.80392e-05
0.00341422
0.00104639
-6.34099e-06
-0.00953224
-0.640853
-8.69931e-05
0.00355235
-8.59824e-06
-0.0234033
-8.47841e-05
-0.000216251
0.0244461
0.000125497
3.1093e-05
0.00422165
0.00429293
0.000197258
0.0708541
0.128007
7.5663e-05
-0.000238212
-8.58293e-05
0.0121115
-2.0223e-06
0.00571952
-5.17727e-06
0.0245961
-0.000338463
-0.253234
-8.32189e-05
-2.85901e-05
-0.0288545
-8.59642e-05
-0.0604424
-0.809568
-3.06636e-05
-7.02246e-06
0.0281876
6.91778e-05
0.000191314
0.00281089
-1.00024e-05
-0.641568
0.000707874
0.00407836
0.00078182
0.000143958
0.0334443
-5.58598e-05
0.00267649
-5.86114e-06
0.0262187
0.00453558
1.38895e-05
-7.09338e-05
0.000226514
-3.40199e-05
-2.15967e-05
4.78464e-05
7.66888e-05
-8.08039e-06
0.000440652
1.58904e-05
-3.06535e-05
0.00362069
0.0284086
-0.0476073
0.00401479
-0.000141538
-0.0313488
-1.63864e-05
-0.0213568
0.00695647
0.542574
4.01879e-05
-6.06751e-06
-1.72893e-05
-4.66304e-05
3.88665e-05
4.31509e-05
-1.35061e-05
0.000876906
-7.3678e-06
0.743838
0.000665165
-1.66524e-05
-0.179409
-6.05696e-06
-7.39624e-05
0.000938102
0.0408984
0.000752548
-4.78155e-05
0.00620675
2.03364e-05
-7.08379e-05
-0.00249539
0.000221122
-0.0127555
3.85922e-05
0.135849
-2.01671e-05
6.705e-05
0.000297943
-0.0584035
1.76956e-05
0.0296115
0.00104543
-5.39708e-05
-0.000265178
-9.50557e-07
-1.47285e-05
0.00478116
0.00124901
0.000134199
0.053041
0.222026
-0.0581599
0.00506958
6.841e-05
0.0723806
6.10669e-05
-0.0078368
0.00200683
0.000384504
1.11326e-05
-0.0653332
0.0841182
-0.0196779
-0.000369035
-0.0682462
-5.89166e-06
-1.90099e-05
0.00139239
-5.1396e-05
-6.06256e-06
0.0205339
-0.0803655
6.64314e-05
0.000556227
-0.016205
-0.000217514
3.30007e-05
-0.0660467
0.0103674
1.63054e-06
-0.000136064
0.000342699
5.65159e-07
-5.84728e-05
-0.000473414
-0.000122933
-5.39357e-06
-0.0160497
-0.0015323
-0.000521876
0.0583342
0.00103006
0.0148644
1.11671e-05
5.47425e-06
0.0165511
0.0114693
-0.0601943
-0.0418318
0.000280066
2.74755e-05
3.9085e-05
0.000486159
-0.0534105
0.000313765
-0.000216679
0.00242678
-3.06003e-05
0.0107561
0.00325416
0.00582804
0.00324696
0.00914495
-0.0023212
-0.200215
0.0150879
-0.000204792
0.00660134
3.49707e-05
0.00172868
0.00255535
0.0288061
0.000182139
0.000280888
0.000202167
0.0498689
-4.81275e-05
0.00156613
0.000846794
0.00190118
-0.000848695
8.43142e-05
0.00507837
-6.91676e-07
-4.78115e-05
0.00182627
-0.00102736
-3.5769e-05
-7.36099e-06
1.17492e-05
-0.0274324
-8.35145e-06
-3.76198e-05
0.000171987
-5.0895e-05
-1.94682e-05
0.00129169
0.00387384
-0.000212551
-2.71721e-05
-0.00297159
0.0603441
-0.00077685
0.00016951
7.84447e-06
-3.53868e-06
0.0800826
0.000144554
-3.65775e-05
-0.00750985
0.0464146
-0.000360399
0.001627
-1.2131e-05
-0.248663
0.0220764
0.000369232
-0.0152741
-4.82074e-05
0.00284792
0.0225024
0.00572752
-0.0666291
0.086306
4.50971e-05
-8.12752e-05
-0.000131266
-1.93528e-05
-8.87379e-05
0.00165812
0.000119109
0.00148589
-3.35496e-07
0.00309357
-0.00706271
-1.7211e-05
-0.22195
0.113892
-3.54654e-06
0.0041382
-0.0001558
-1.66493e-05
-1.06666e-05
0.0811633
0.00314808
0.0133261
0.000209139
0.523184
0.00159527
0.000391299
-0.270272
0.000898007
0.00752373
-2.97468e-05
-0.0139287
-1.02732e-05
6.96733e-05
0.000501869
-0.000132476
3.09087e-05
0.00256234
-0.428233
-1.2955e-05
0.000505821
0.0755818
-3.81168e-05
-1.5899e-05
0.000176793
-0.00833154
-0.0218994
1.99972e-06
0.000841058
-0.0418777
0.00107906
-0.181392
-7.07797e-06
-2.39806e-06
4.63535e-05
-6.91909e-07
-0.000307466
-4.22753e-05
-0.0218449
-0.000222764
0.000187845
-0.000805734
-0.0665075
0.00393487
-0.00536915
0.418032
1.19895e-05
-4.01111e-06
-1.71553e-06
-3.17765e-05
0.00386651
-0.632818
0.0138115
0.000480385
0.000254741
0.00228006
0.000159017
-0.0080202
5.52271e-05
0.00509885
2.90051e-05
0.00972259
-0.0167817
8.79374e-06
1.04408e-05
0.0421768
0.00158506
-0.000300204
0.0273042
0.00106873
-3.81748e-05
0.0116542
-0.000126428
-6.8617e-06
-0.212078
-0.0538126
3.35966e-05
-0.000401219
0.00403041
0.000473745
1.51817e-05
2.32647e-05
-1.69553e-05
-1.76186e-05
-8.68994e-06
0.000466104
0.00088492
-0.0456341
0.000507544
0.000250337
0.00087673
0.00169052
-1.80008e-05
0.000435963
-0.0042932
0.00324024
0.0253153
-6.50025e-05
2.53826e-05
0.0518749
-4.27099e-06
-0.0777001
5.38694e-05
0.000740357
-2.11802e-05
-5.47852e-06
0.0113489
0.000254646
-7.68818e-05
-1.32025e-06
-0.026259
-0.00391267
0.00678847
-0.000170041
-7.06025e-05
0.0780841
-1.30439e-05
4.88952e-05
-0.00066239
-0.0613402
0.000185859
0.000846657
1.40352e-05
-0.000438373
-7.91594e-06
-0.000223582
3.10525e-05
2.47202e-05
0.00350198
-8.7526e-06
-1.52563e-05
0.0212906
0.00301419
-0.092354
0.0094866
-7.85468e-06
0.000629198
-2.53513e-05
-2.75055e-05
-0.000296259
-4.12303e-05
-1.88631e-05
0.00446086
-8.31082e-06
0.0024743
0.00165539
0.000116153
1.32789e-06
0.00206176
-6.4324e-05
0.0961481
-6.76916e-06
-0.122452
0.00351382
-5.23928e-05
0.00241497
0.000858267
0.000670036
-2.59625e-05
0.000757538
-1.75785e-05
8.96059e-06
0.0185857
-0.000641078
0.000351195
2.98137e-05
1.02555e-05
0.000129691
0.0021832
-2.94315e-05
-0.0145568
0.00151281
7.42841e-05
-5.71087e-06
1.13172e-05
0.00144265
-0.000501587
0.0826376
0.00152985
-0.0295402
0.000131067
0.00190583
-0.000153625
-0.183053
2.28589e-07
-1.38389e-05
0.00011897
0.0121604
1.14643e-05
0.0488155
-4.95514e-05
3.89442e-05
-0.00035201
-0.00672577
-0.198473
0.0143715
0.000218866
-0.00417372
-0.000232636
4.76722e-05
-0.192233
-5.23798e-06
-7.41577e-05
-0.808681
8.91958e-06
0.0383763
0.00424433
-2.12589e-05
-8.22802e-06
4.77243e-05
-0.375987
-5.27327e-05
2.36735e-05
0.00364177
-7.64673e-06
-2.20006e-05
-0.000826328
5.03025e-05
0.00209196
2.40719e-06
-0.000530992
-6.21007e-06
-0.642227
-0.244746
-5.78527e-06
-6.06752e-06
5.63846e-08
-6.02667e-06
0.000164805
-0.00017162
0.000103493
4.66523e-06
-1.53393e-05
-3.12788e-05
-1.44837e-05
0.00230379
1.10575e-05
0.00344764
-9.43637e-05
6.7024e-05
4.93184e-06
-1.8448e-05
-3.46218e-05
1.17775e-06
0.00055394
-0.000314884
0.000291543
-0.0579124
0.0299628
-0.0252865
0.0031058
0.00368654
-0.0439977
-7.70138e-05
-1.33165e-05
-1.2974
-0.0328105
0.000133569
0.0011007
1.0658e-05
0.00564311
0.370045
0.000142223
0.00332168
0.0501551
0.0893406
8.28823e-05
0.00221672
-1.8396e-05
0.00135
0.000178056
-0.0103934
0.125156
-1.49256e-05
-0.258773
0.00551153
0.000106084
-0.179268
0.0290947
9.03557e-07
-3.35954e-06
-0.0114086
0.0334371
4.72025e-05
0.000897891
-6.43884e-05
-0.138219
0.0029768
-2.91256e-05
2.28044e-06
-0.0039691
-1.63789e-05
-3.277e-06
1.95448e-05
-8.38592e-06
0.0260261
-0.000489848
0.000472033
0.0773881
-8.60495e-06
0.000645719
8.86687e-06
-0.00646451
0.00153651
0.00125859
7.20864e-06
0.000431799
-6.64603e-05
6.9996e-05
0.000186973
-2.55081e-05
-0.185649
-1.70339e-05
-8.72789e-06
-1.27952e-05
0.0122166
-3.84825e-06
0.0216069
-0.348177
-0.0439195
-0.000116074
-6.17624e-06
-9.03159e-06
0.0604706
-3.86837e-05
-0.0258064
8.73489e-05
-0.424354
-2.04175e-05
0.000316997
0.00971382
-3.75392e-05
0.000116825
0.0157524
0.00419025
0.0478953
0.000196117
-0.515403
0.127322
-4.81772e-05
0.0221982
-5.43125e-05
-0.000257129
0.142369
-0.000127917
0.000407868
0.0297957
-1.65757e-06
0.00307459
1.4962e-06
-0.0194304
-4.49508e-06
-0.00321694
-8.35163e-06
-0.0203559
-3.68381e-06
-2.9488e-06
-0.000451689
-0.0305145
-1.11376e-05
0.0251987
0.000786199
-0.0414626
-1.33076e-05
0.00017994
-0.242426
0.128777
-0.00320643
0.00245284
5.06634e-06
0.00369008
-0.404869
-8.9754e-05
0.00958209
-2.99357e-05
0.00482383
0.0595616
-6.48945e-06
-0.190007
-5.66872e-06
-0.263196
0.0163654
3.97077e-05
-0.000336997
0.016517
-0.0038296
-2.25931e-06
4.64173e-05
-7.06398e-06
-3.93494e-05
-0.219985
0.00187815
0.0105276
-0.000157356
0.000289374
0.0304017
0.000380928
0.0706387
-0.0192811
-6.87895e-06
-5.44821e-06
0.00811903
-0.0605422
-1.06447
0.487691
0.0043975
0.000596413
0.0430815
-0.293988
0.0262539
-0.0313341
-3.44649e-06
0.00294512
0.00141033
0.00157604
-1.68811e-05
0.000380625
0.00153782
-0.00487438
-0.0349969
8.4842e-05
0.040415
0.0613432
0.000739881
-3.91646e-06
-3.6994e-06
0.0421726
2.50575e-06
-0.111532
0.000305364
-0.00043278
-0.00037145
0.000383398
-6.2043e-06
0.000855548
0.000592185
-1.63764e-05
-0.766653
0.000236397
-0.354854
4.98192e-05
0.0368272
-0.00689709
0.0082451
2.49081e-06
0.000167219
1.50318e-05
-0.341011
0.00119269
0.00337834
-0.224707
-1.47172
-2.37208e-05
0.000158066
0.000255991
0.00424436
-0.232855
-9.17382e-05
-6.94671e-06
6.62592e-06
0.00700625
-0.680732
4.80221e-05
0.000861344
-0.00055035
-5.93073e-06
0.00027917
-5.35974e-05
-0.330652
-0.000368493
0.000501207
-0.0279365
0.000456153
-8.79059e-05
0.0920481
-1.64296e-05
0.000890244
0.0286239
-0.000159523
-0.00134885
0.000956562
0.00293331
-0.104504
-0.62571
-1.14397e-07
-0.231897
-1.45772
7.14401e-06
0.00635835
0.00260626
-0.000710509
-0.100212
0.00986485
0.166782
0.00298562
0.0274876
0.00019769
0.00361895
-0.000118077
8.01284e-06
-1.74082e-05
-1.50637e-05
0.0108783
-0.0248178
-4.10255e-05
-9.85932e-05
0.00768623
-1.53277e-05
-0.0539185
-0.29964
-0.000731971
-3.84617e-05
-0.000137869
-6.02642e-05
0.00207299
-4.8243e-06
0.499795
0.00058232
0.00237551
-0.000163241
0.00157903
0.0273535
-0.000627055
0.0252117
-1.66725e-05
-5.98484e-05
-3.34335e-05
3.4445e-05
-0.353962
0.00480982
0.000173269
0.595822
-0.00016482
-7.65752e-05
8.83228e-05
9.99298e-06
7.5954e-05
0.000322412
0.00019192
0.0172148
-0.0560367
0.0190822
4.75505e-06
0.0392963
-1.30828e-05
0.00692005
-6.68456e-06
0.00467625
-0.0780811
-1.85225e-05
0.00112219
-0.0230502
0.000307317
-5.80328e-05
-1.20849e-05
0.000203228
-0.200842
-7.30993e-06
6.31771e-06
-3.87391e-05
-0.000263737
0.00624711
-4.39394e-05
0.00019443
-6.62718e-06
8.9915e-05
0.0551744
0.000765372
-0.000213412
0.00419
0.0705115
-0.0660434
-0.12072
-9.75725e-05
-8.877e-05
0.0284964
-1.89874e-05
0.00291353
5.4509e-06
-0.035841
-6.3968e-05
-0.000177044
-0.0012728
-0.067044
-5.02825e-06
7.34912e-06
1.47925e-06
0.00610759
1.06703
0.00231313
-2.03557e-06
-0.000143344
-8.68079e-06
0.0894614
-0.000210913
0.0151734
0.00290572
-0.00016431
-0.00640401
-0.00049405
0.0113128
3.48048e-05
4.67766e-05
0.000409538
0.000525566
-0.00122259
3.45182e-06
-4.76356e-05
-4.17576e-05
0.0432507
-2.2679e-05
-1.97448e-05
-0.645342
-2.77599e-05
0.000475325
0.000164764
-4.75163e-05
8.54885e-05
-0.000423803
0.000144778
0.0221781
0.00915954
-2.0275e-05
0.0915631
-1.85379e-05
0.00295883
0.00107988
-3.54323e-05
9.60297e-06
-2.47485e-05
-5.26559e-06
0.0120391
0.00229006
0.0941112
0.0246123
-1.92276e-05
0.000127532
0.000600535
-0.0210572
-7.23207e-06
-0.000118834
-1.0013
0.0189292
6.611e-06
5.19282e-05
3.37443e-06
-0.0212566
-0.316142
-0.000533565
-3.20472e-06
0.000644747
0.512979
9.8763e-07
5.94718e-05
-8.51781e-05
0.00545845
-0.0361735
-1.98883e-06
-0.0283005
-0.000523232
-4.00863e-06
-0.559184
0.0028306
0.115347
0.00266166
0.000335278
-0.00027198
-1.41747e-05
-3.58467e-05
-5.57571e-05
0.00130979
0.000679444
0.000104115
0.00016154
0.0095155
-0.093321
-6.45965e-06
0.00136544
0.023919
-0.0448024
0.000130514
-8.1627e-06
0.00828497
0.0295631
0.0136594
-4.55685e-05
0.0840553
0.00359612
-1.82024e-05
-0.0508255
0.000202525
-6.48121e-05
-0.0203798
-8.51957e-05
0.00179694
-1.49035e-06
-2.81068e-05
-0.000118573
1.42912e-06
-0.57534
-6.74879e-06
-7.971e-06
0.003183
0.000273942
-0.00011422
0.0048575
-3.07936e-05
-1.90575e-06
-7.45096e-06
-1.99952e-05
-0.0120937
-0.00827618
0.00499177
-0.146003
-0.00160559
-0.0360874
-0.00755931
-0.021764
-0.025673
-0.302023
-1.86678e-05
-5.27232e-05
-6.31537e-06
-5.0821e-05
4.88721e-05
0.000254874
0.00460468
0.00316796
0.000538486
-1.47207e-05
-4.90977e-06
0.00300217
2.35764e-06
-5.44434e-05
-3.67749e-05
0.110001
0.000418373
-0.128962
3.95575e-06
0.0156378
-4.82722e-05
-0.000174407
-0.000118186
0.00190991
-2.14491e-05
0.00305515
0.042936
0.000629005
0.0190984
-0.00742916
0.000112947
0.000289588
-0.00376374
0.00184936
4.97177e-06
4.84667e-05
-2.37141e-05
0.0273768
-3.12264e-05
0.00589244
-0.357322
0.00274471
0.042982
0.00127375
0.00320468
-0.767736
4.92727e-05
-2.43685e-06
-0.00224391
-0.00828721
-1.58464e-05
2.15279e-06
0.100456
-3.34261e-06
0.00549154
-6.42748e-05
-0.000210788
3.38815e-05
-4.88387e-06
0.00255398
0.0392232
0.0290873
0.000181839
2.537e-05
0.00010729
1.14812e-05
0.00152956
-1.36218e-05
0.00642328
0.00471914
-5.06202e-05
-6.29773e-05
-1.70304e-05
0.000486546
0.00354078
0.00590705
0.0159062
0.000365595
0.0176715
0.00372515
0.00525702
-0.166222
-1.31644e-05
0.0159751
5.13209e-06
0.11072
0.0105947
0.0211851
-0.724764
0.000164067
0.00153824
-0.00176516
-9.99443e-05
0.015829
-3.03082e-05
-8.54207e-06
0.000326947
1.16586e-05
0.000741583
0.00106176
-0.00743512
0.117165
0.000212558
0.000620407
-1.90544e-05
-0.000200514
6.18593e-06
0.00221333
0.00418309
-0.0204269
0.000947069
-2.57836e-05
-9.6645e-06
-0.000114347
0.00274825
-7.18184e-05
-0.000160019
0.000112197
-0.000587621
0.000820724
0.000743025
-0.00106715
0.00328234
0.000335462
0.000882388
-6.5332e-06
0.000337803
0.00796016
-0.00282787
0.000721811
1.03958e-05
-0.429265
0.000668971
-4.34383e-05
0.00167309
0.0468963
-0.000954299
0.000368968
-3.12574e-06
0.0218251
-5.16144e-05
-6.25816e-06
-2.72039e-05
-0.926787
0.0452199
0.00013161
-0.205518
-0.761205
-0.000190076
-0.0009611
0.00165431
-0.333908
0.000388529
-0.322306
-5.82151e-05
0.00179098
0.000195581
-1.06656
0.00079457
3.49875e-05
0.0342389
-1.48143e-05
-2.15289e-05
0.0629087
-0.018492
0.0460455
0.0136367
0.000216557
4.01996e-05
0.00293062
-3.88408e-05
-8.93866e-06
1.27069e-06
0.0013692
-7.42634e-06
-0.000424528
-0.000179375
0.000102079
-0.0229865
2.11098e-05
0.00826408
-0.000149908
0.0495211
0.0133222
-8.08923e-07
1.10066e-06
0.000285506
-0.72392
0.00522589
0.00238109
0.0494868
0.00658692
-1.03899
0.000220142
-0.0240753
0.0297416
0.000640263
-0.0102445
-4.02092e-05
-8.06028e-05
3.17144e-06
-7.1056e-05
-8.57204e-06
0.000923731
0.020825
-0.000887739
0.0107025
0.340171
-0.010188
0.0179352
-0.101682
-0.000426123
-0.403122
0.00358316
0.00370984
-7.62259e-06
-0.000101162
0.00330153
-0.021619
-0.000268981
-0.14155
-0.0069616
-2.4074e-05
-1.54081e-06
0.000169884
0.000169803
-5.51024e-05
0.00262778
0.0198869
-5.76402e-06
-3.87114e-06
-2.06177e-05
3.9595e-06
0.00502032
0.0394705
0.000483202
0.0409925
0.00189574
-1.34385e-05
-0.0023962
-0.000669188
5.26312e-05
0.0063201
-0.0203961
-0.0483491
0.012962
-0.0119518
-8.38638e-05
0.0320523
0.0402574
0.00125804
0.0316519
3.16914e-05
-4.49007e-05
3.00103e-05
0.000124182
-0.062975
0.0022489
-1.30082e-06
0.000262359
0.0032866
0.0303552
0.000216877
0.00241645
-0.049771
-0.0977923
6.59851e-06
0.000181308
0.00266635
-6.86579e-06
-4.04903e-06
-0.103412
-1.57754e-05
0.00144226
0.00520369
-0.125363
-1.99942e-05
0.000151554
0.00404268
-4.05992e-05
-1.68233e-05
0.0182449
-0.71305
-0.000211053
-0.00069919
0.00407462
0.00396769
-0.121906
-0.162226
0.000144989
-0.00384435
-0.00135965
0.000688351
-6.67247e-06
0.00671478
2.90367e-06
-1.57288e-05
0.013582
0.000562106
0.00266245
0.000163409
-0.000864143
9.62163e-07
2.01544e-05
1.63984e-05
2.61489e-05
-0.498801
0.000154156
0.0274324
-0.0166434
0.000947905
0.003004
-0.145422
-0.804841
-0.600471
-9.36032e-05
0.000195775
0.00070134
0.000131642
0.00383162
-0.100239
1.88232e-05
0.0149611
0.0353584
0.000142986
0.00453315
0.00315672
0.0049101
0.00532285
4.81561e-05
0.00597889
0.00661243
0.00725156
0.00762155
0.00574666
0.00337613
-0.000733535
-5.95962e-06
0.000771486
0.00435195
-1.90518e-05
0.00873991
-0.38464
-0.00300332
0.0282352
-2.53967e-05
1.69569e-05
0.00204815
-0.244917
2.41181e-05
-6.90959e-05
0.0035557
0.553326
0.0398784
-2.71414e-05
-0.000178078
0.000185156
0.374112
-0.00280605
0.000195574
-0.025093
0.0350136
0.00426278
-0.221591
0.00282178
-0.000353393
-0.248891
8.36494e-06
-1.11688
0.0650197
-2.59163e-05
0.00173624
0.00138204
-0.00026179
-2.89283e-06
-0.375272
-0.0377992
5.18446e-05
5.52168e-05
-0.0784143
0.00867715
0.00177293
-2.38175e-05
0.00944678
0.0043078
0.00633746
0.0433566
-2.20199e-06
-5.05657e-06
1.97103e-05
-8.96306e-05
-0.557942
0.10326
-0.102348
0.00419151
0.00957454
-0.0515609
-6.34474e-05
-4.60821e-06
0.0276378
3.46715e-05
-0.389922
-0.000216387
-0.15957
3.48593e-05
-7.03229e-05
0.0494839
-2.18397e-05
0.00489418
0.158194
-1.69262e-05
-0.000121033
4.12053e-05
0.00537501
-0.00161849
-0.00170595
0.0431794
-0.000311403
7.12224e-05
0.000431953
0.00174954
-1.00518
0.355366
0.00101238
0.00967139
0.00541397
-0.0243105
-0.0609301
4.64836e-05
-6.37562e-06
-7.3495e-06
-0.00022375
0.00369494
0.000993418
0.000641642
0.00579077
-3.26084e-05
-0.00682704
-0.134663
0.323558
-2.30721e-06
4.57045e-05
-2.86902e-05
0.0475189
0.0164613
-0.0289545
0.00436458
0.00507952
0.00895075
-2.00594e-05
0.00121097
0.00315089
-0.00234247
0.00728812
-1.36575e-05
0.00545488
-7.45351e-05
-9.3098e-05
-0.00346728
-0.213532
-0.0161195
-6.9718e-05
0.00135535
-0.0190484
0.0100044
-0.0518096
-1.15191
-0.168763
-2.85072e-05
0.00206255
-0.000147812
0.0057195
4.30233e-05
0.000590319
-0.000151254
0.00165684
-0.0017066
0.0929352
-0.000212203
-0.00490375
0.0603111
0.00545175
-0.000148922
0.0967655
0.00524718
0.000194646
-0.000217466
-0.10123
0.000397139
0.00234647
-0.00880805
-0.000849909
-0.0068036
5.91503e-05
-1.00434
0.0426605
0.0333276
-0.347827
0.000625935
0.00462325
0.00415235
-0.607302
-0.00357123
1.57411e-05
-0.014576
0.00967904
0.00305213
0.000147617
0.133906
0.000157192
-0.0071582
0.000383794
-0.0306477
4.46948e-05
0.0322281
0.00349745
-0.00676023
-0.26289
-4.12977e-06
-3.2242e-05
0.0245706
-1.10773
0.00133094
7.99236e-06
0.000666982
-0.000650571
-0.612602
0.0044521
0.0713302
0.000135955
0.083067
0.000211942
-0.016814
1.21289e-05
-0.00891307
0.0849562
-0.000285383
0.00452007
-1.54463e-05
0.000146438
3.75811e-07
0.00190239
-2.48568e-05
3.99403e-06
-0.260989
0.0377045
-8.1747e-06
-1.00714
8.87501e-06
-9.84494e-05
-1.11592e-05
4.9309e-06
6.98524e-06
0.00831544
-0.091157
1.13177e-05
-0.173181
0.00341594
0.00235934
0.0374513
0.00433403
0.000126184
0.000961941
-5.9636e-06
-0.0020428
-0.000216583
-1.07576
-0.000264364
0.0329791
-0.0260796
0.00230134
-0.0139918
0.0929322
-4.74498e-06
-0.0268928
0.00178054
0.00296518
-0.0031379
-4.08146e-05
-0.246891
0.00402463
-1.30389e-06
-0.55741
-4.13001e-06
-0.204811
0.00671145
-0.231299
0.00586769
0.00673523
-0.28285
-2.20359e-05
4.44314e-05
0.00318321
6.0584e-06
2.24698e-06
3.6e-06
0.00016183
-3.13331e-05
-9.34273e-06
-7.31923e-07
0.000656501
1.48523e-05
0.000112547
-7.71047e-05
-0.00111896
0.00515394
2.98238e-05
-0.292602
3.4316e-05
-1.1998e-05
0.00466764
0.00197819
-9.51267e-05
-3.425e-05
-0.0990908
0.000145074
0.0179492
0.000157848
0.00294985
-8.29239e-06
-9.69615e-05
-0.00658412
-0.269461
0.00349292
0.000378199
2.44937e-05
0.0042582
1.24131e-06
-9.60629e-06
0.00381787
0.000153389
0.00391784
0.0567924
0.00408546
-0.320331
0.000664746
-0.0305702
-6.12417e-05
-8.88511e-06
0.00153519
-0.000822183
0.00302501
0.00256902
0.0345306
0.000172277
-9.44126e-06
0.000432464
0.00855177
0.00313112
-4.228e-07
0.00504583
0.00503485
0.00248907
8.94987e-06
4.83036e-06
0.00598351
0.0022303
-0.0132728
0.00178421
-0.000154388
0.00310318
5.76276e-06
0.00214408
-0.177886
-2.63646e-05
0.00483164
0.00094391
0.00244264
-0.034231
-2.47969e-06
-6.23112e-05
-7.27318e-06
-0.410601
0.00869595
-2.14585e-05
-0.00540358
0.005488
4.3848e-06
-7.27789e-05
-0.00724871
-0.80114
0.00680904
0.0566857
-0.00423561
0.000824046
-0.000150424
0.00623985
0.000766518