/*--------------------------------*- C++ -*----------------------------------*\
| =========                 |                                                 |
| \\      /  F ield         | OpenFOAM: The Open Source CFD Toolbox           |
|  \\    /   O peration     | Version:  v2012                                 |
|   \\  /    A nd           | Website:  www.openfoam.com                      |
|    \\/     M anipulation  |                                                 |
\*---------------------------------------------------------------------------*/
FoamFile
{
    version     2.0;
    format      ascii;
    class       volVectorField;
    location    "450";
    object      U;
}
// * * * * * * * * * * * * * * * * * * * * * * * * * * * * * * * * * * * * * //

dimensions      [0 1 -1 0 0 0 0];


internalField   nonuniform List<vector> 
13917
(
(0.670331 0.0389518 0)
(1.00103 -0.0194255 0)
(1.0144 0.0699645 0)
(1.01974 0.0139445 -9.05525e-21)
(1.02649 -0.0280921 -1.18194e-22)
(1.00135 -0.0201479 7.02785e-22)
(1.01852 0.0347404 2.81399e-21)
(1.01814 -0.0251396 0)
(1.03615 0.0349795 -1.61099e-20)
(0.0166548 -0.0602309 -6.01889e-20)
(1.01048 -0.0238053 9.38852e-22)
(1.01566 0.00606131 -1.38443e-20)
(1.0078 0.000115836 -6.46664e-21)
(0.573576 -0.0789806 -2.35689e-21)
(1.01127 -0.0218471 -2.02415e-22)
(0.638189 0.0349956 0)
(1.00061 0.000425817 7.54241e-22)
(1.0038 -0.0259344 0)
(1.01193 0.0721124 6.51189e-21)
(0.645167 0.0539251 0)
(0.989156 -0.00105133 2.46284e-21)
(1.02447 -0.012688 0)
(1.01165 0.0566021 -1.18826e-20)
(1.02498 -0.0127503 -1.14566e-21)
(1.0117 0.0145031 -4.6438e-21)
(0.98889 -0.00631233 2.50415e-22)
(0.830125 0.0565897 -5.51553e-21)
(0.0046008 -0.0415743 6.52312e-20)
(0.992176 -0.0198873 5.71297e-22)
(1.03014 -0.0281722 -8.15191e-24)
(0.035923 -0.0455298 3.33946e-20)
(1.01783 0.0682078 1.13295e-20)
(1.01551 0.0111874 1.45685e-20)
(0.743996 0.0460529 0)
(1.04051 0.013602 -1.46994e-22)
(1.02295 -0.0234102 -4.99888e-22)
(1.00604 -0.00105844 0)
(1.01031 -5.43862e-05 0)
(1.01937 0.0355939 0)
(0.98187 0.018202 4.46423e-21)
(0.997654 -7.85275e-05 -5.21588e-23)
(1.01151 0.027933 -3.71276e-22)
(1.03539 0.0279721 -5.40903e-21)
(1.01344 0.071118 3.82799e-23)
(1.01326 0.0709682 1.26359e-20)
(0.979881 0.0968183 0)
(0.990702 0.000168417 1.35488e-21)
(0.39125 0.0550839 2.48044e-20)
(0.660962 0.0841398 -7.8426e-22)
(1.04108 0.0125036 1.80862e-22)
(1.01568 0.00566778 5.79982e-21)
(0.990523 0.0791076 0)
(0.573973 0.0305846 2.03157e-21)
(1.01465 -0.00200995 0)
(1.0141 -0.000778713 0)
(0.992687 0.0787591 1.75033e-20)
(-0.0497935 -0.0208428 -3.76302e-20)
(1.01083 0.0558615 1.03298e-20)
(1.01032 0.0268983 6.81292e-22)
(0.976633 0.0970285 0)
(0.643793 0.149995 0)
(1.05895 0.0395214 0)
(1.00853 -0.000772887 -3.03048e-23)
(1.01224 0.0141298 4.10869e-21)
(1.01489 0.0686681 -4.58131e-21)
(0.956985 -0.0814438 -4.99113e-22)
(0.994997 -0.0229828 -4.38886e-22)
(1.02573 -0.0178113 5.20781e-22)
(1.0061 -0.0282945 1.42275e-21)
(0.646774 0.0366815 0)
(1.02033 0.0680483 1.34888e-20)
(0.723485 0.0442604 -1.95391e-20)
(1.02335 0.00855723 8.7879e-21)
(1.01041 0.0256701 -1.7479e-22)
(0.987412 -0.000149424 -9.75081e-22)
(1.00761 0.010404 0)
(1.02845 -0.0238359 1.68289e-22)
(1.00928 0.0246826 1.63592e-22)
(1.00831 0.0102022 -2.41035e-22)
(1.01523 0.011444 0)
(1.01576 -0.00914333 0)
(1.00316 0.000582599 0)
(1.02333 0.0081192 -2.74583e-21)
(1.0099 0.0639194 0)
(1.015 -0.000126286 -1.2246e-23)
(0.975005 -0.0634746 7.69526e-21)
(1.01814 0.0676122 0)
(1.01485 7.48696e-05 -5.17731e-21)
(0.982738 0.0163831 -4.25356e-21)
(1.00066 0.000562784 -4.41743e-22)
(1.00026 0.00121851 1.50313e-22)
(1.03622 0.028857 0)
(0.638131 0.0854313 -9.0615e-22)
(1.03161 0.0148419 5.14256e-22)
(1.01259 -0.00340529 -5.61274e-21)
(0.992227 -0.0223984 -5.84555e-22)
(0.853394 0.0143995 6.63117e-21)
(1.01053 0.000552681 0)
(1.01506 6.86413e-05 2.58601e-23)
(0.927965 0.0137774 -3.75292e-21)
(1.00024 -0.00036464 7.05746e-23)
(1.00083 -0.000571739 -8.76334e-23)
(1.01527 -0.0090422 2.27691e-23)
(1.01504 0.00110961 -8.11001e-24)
(1.0291 -0.023941 -2.90684e-22)
(0.994861 0.0671826 0)
(0.735525 0.0683641 1.86585e-20)
(1.05671 0.0413895 -9.3536e-22)
(1.01144 0.0292638 3.9493e-22)
(0.758413 0.0707864 -7.98779e-21)
(1.01679 0.000425129 7.42002e-21)
(0.757071 0.0479401 0)
(0.989709 -0.0187455 1.24973e-21)
(0.219988 0.031475 0)
(1.0219 0.0677251 0)
(1.00553 0.00889326 5.76836e-21)
(1.01176 0.0716438 5.67678e-21)
(0.996991 0.000183702 -4.1151e-23)
(1.01474 0.071205 2.34698e-21)
(1.02415 0.00581086 -1.17137e-20)
(1.00413 0.000804227 0)
(1.0108 0.0222662 -1.8998e-22)
(0.995671 -0.0255014 -7.28486e-22)
(1.00453 0.0718472 -1.74301e-20)
(0.64058 0.0336086 0)
(1.01468 0.0633314 2.2331e-20)
(1.01339 0.0143077 0)
(0.985795 -0.00125974 4.54174e-22)
(1.03523 -0.00186523 -4.03992e-22)
(1.00555 0.0723289 3.30416e-20)
(1.02788 0.0502105 1.33025e-20)
(0.946329 0.0748282 -1.19311e-21)
(0.939873 0.0588902 8.59003e-21)
(1.00542 0.00803728 0)
(1.01591 0.0697373 1.26289e-20)
(0.710699 0.0752203 7.84225e-21)
(0.617433 0.158515 -1.33736e-20)
(0.622474 0.0360497 0)
(0.988552 -0.0096752 -6.76302e-23)
(1.0064 -5.63981e-05 0)
(0.694869 0.0475886 -1.19044e-21)
(1.00948 0.0235461 -3.42264e-22)
(0.994663 0.0680022 -5.86083e-21)
(1.0207 -0.00576569 0)
(1.02188 0.00742134 0)
(1.00933 0.035766 2.7182e-22)
(1.0193 0.0674083 0)
(0.849214 -0.0918509 2.39406e-21)
(0.452942 0.061317 3.59683e-20)
(1.01437 -0.00173418 0)
(0.986002 0.0149181 0)
(1.00271 -0.000759061 -3.54759e-23)
(1.02188 0.00694266 0)
(1.02458 0.00572109 0)
(0.794715 0.0251389 0)
(1.03391 -0.0197155 0)
(1.01515 0.00129103 0)
(0.912271 0.0587634 0)
(0.996715 -3.27672e-05 -2.79384e-23)
(0.996816 0.000110897 1.03712e-23)
(1.01632 -0.00177021 -6.46357e-23)
(0.92586 0.0897261 0)
(1.00442 -0.00830621 0)
(0.705212 0.0575754 1.05259e-21)
(0.752448 0.104346 -2.36577e-20)
(0.915296 0.0146783 1.00234e-20)
(0.381958 0.0215087 9.69131e-21)
(0.574048 0.0972971 7.63011e-20)
(1.01632 -0.00453483 0)
(0.987502 -0.0113908 -2.15445e-22)
(1.02629 -0.0143389 -2.29839e-21)
(0.934889 0.0573983 1.6913e-20)
(1.03713 0.0344639 1.45138e-20)
(0.719794 0.142513 0)
(0.984114 0.0600356 3.99884e-21)
(0.998302 -0.000408518 0)
(1.02034 0.0141694 0)
(0.988162 0.0826214 0)
(1.02851 0.0492739 -1.0748e-20)
(1.00375 -0.00899024 0)
(1.03331 0.0274504 -2.33993e-20)
(1.02612 -0.0138173 1.19146e-21)
(1.01541 0.00524822 -1.36022e-21)
(1.00315 0.0886649 1.40936e-20)
(1.01502 0.0713857 -1.91123e-20)
(0.942572 0.073723 -3.17356e-22)
(1.01542 0.00485859 4.67724e-21)
(1.00144 0.0899048 -3.04182e-20)
(1.02783 -0.0283969 7.88818e-24)
(0.983183 -0.0571475 7.54048e-22)
(0.982149 0.0594368 -3.12034e-21)
(1.01332 0.0706685 0)
(1.00335 0.0821138 7.2459e-22)
(0.673403 0.0419192 6.25374e-20)
(1.03237 0.0141318 1.41717e-21)
(0.646253 0.0352625 -2.79061e-20)
(1.00625 0.0220324 0)
(0.972846 0.0600507 8.34547e-21)
(1.0389 0.0134686 -3.20422e-22)
(1.03305 -0.018357 -1.50004e-21)
(0.9936 0.00228822 -2.90505e-21)
(0.646836 0.0367191 -1.85305e-20)
(0.604091 0.0348337 3.29262e-21)
(1.00835 -0.00451812 7.44671e-23)
(0.878762 0.0617331 1.72034e-21)
(0.997763 -0.0145187 0)
(0.985154 0.0165623 -1.43266e-21)
(1.01074 0.0234159 3.7827e-22)
(0.990349 0.081572 0)
(1.01625 -0.00995466 0)
(1.02721 0.000906448 -2.15991e-21)
(1.01772 -0.0283509 -2.84629e-22)
(1.01388 -0.0265781 1.20466e-21)
(0.491681 0.0656753 -1.31068e-20)
(1.01639 0.0695396 -3.19582e-20)
(0.987502 -0.00756419 -3.21918e-23)
(0.899726 0.0734889 -2.04275e-20)
(1.01498 -5.44507e-05 -3.1304e-21)
(0.99942 0.00863297 0)
(0.999001 0.0082792 1.70732e-22)
(0.496712 0.0827658 -2.13343e-21)
(1.00285 0.0855395 0)
(1.00132 0.0944713 -1.02584e-20)
(1.01615 0.00119872 -3.98864e-21)
(1.00721 -0.000560057 2.26836e-23)
(0.633573 0.0903488 0)
(0.629336 0.0352824 1.2682e-20)
(1.00013 0.0073913 2.62906e-22)
(1.00011 0.00704705 2.51794e-22)
(0.997773 -7.37609e-06 0)
(0.998529 0.00870028 -1.45187e-22)
(0.998134 0.00832161 -1.10244e-22)
(0.711509 0.0425824 3.1148e-20)
(0.663825 0.0820086 0)
(1.01991 -0.0110806 3.51955e-21)
(1.01892 -0.00851861 0)
(0.995046 0.0662123 2.1243e-20)
(0.703001 0.0418118 5.08644e-22)
(0.997011 0.000156819 -1.45192e-22)
(1.01602 0.00110915 -3.89103e-21)
(0.847209 0.0659464 -2.96941e-21)
(0.992549 0.0693036 -1.2868e-20)
(1.00382 0.0869761 -1.50151e-20)
(0.887246 0.0716935 3.42178e-22)
(0.977598 0.0702425 -1.45822e-20)
(1.02045 -0.00574186 -2.5948e-21)
(0.66971 0.103854 -3.90191e-21)
(0.995995 0.0676316 -1.20358e-20)
(0.990049 -0.0165962 -3.96344e-22)
(1.01103 0.0675694 0)
(1.00883 -0.00391127 -1.23837e-21)
(0.633834 0.0777368 -1.6066e-20)
(1.02395 0.00651368 0)
(0.987332 0.0363786 1.40499e-22)
(0.986242 0.0573987 1.27394e-20)
(1.02074 -0.0123654 1.95075e-21)
(0.998546 -8.41381e-06 5.84201e-23)
(1.01289 0.0146881 5.07217e-21)
(1.03309 -0.0361371 6.23883e-23)
(1.03389 0.0207575 5.85546e-22)
(0.677143 0.0389836 -1.42184e-20)
(0.591211 0.0295368 -2.33076e-21)
(1.01568 0.0219443 0)
(1.0006 0.00689205 7.43027e-24)
(1.0334 -0.0205594 3.19214e-22)
(1.00096 0.0071718 0)
(1.02432 0.00642858 6.15943e-21)
(1.01197 0.000204508 6.34797e-21)
(1.00436 0.0449308 -1.40758e-20)
(1.01588 0.0230574 -4.85929e-22)
(0.636284 0.0379662 0)
(0.751834 0.0716539 -2.42976e-20)
(1.01545 0.0023173 5.24813e-21)
(1.03304 -0.0296774 9.91815e-23)
(0.969841 0.102482 9.87287e-21)
(0.995091 0.00186938 -6.96634e-24)
(0.938009 0.0122514 0)
(0.698876 0.0415739 -1.19852e-20)
(0.995154 0.00239345 2.99264e-23)
(0.670304 0.0380211 -3.5306e-22)
(1.03227 0.0202101 0)
(0.937606 0.092268 0)
(0.998395 -0.000302534 4.76674e-23)
(1.01372 -0.0201477 3.41448e-22)
(1.02081 -0.0128741 -1.10666e-21)
(1.02239 -0.00611076 -3.20613e-21)
(1.01177 0.0767283 -1.26379e-22)
(1.01496 9.43638e-05 4.09953e-21)
(0.909582 0.0160372 6.43676e-21)
(0.999175 0.0215814 1.98335e-22)
(0.598582 0.0317918 0)
(1.01054 0.0371437 -4.92707e-22)
(0.915981 0.0582543 -8.1004e-21)
(0.613392 0.0350949 2.2161e-20)
(0.997156 0.000296807 3.11918e-22)
(1.00418 0.0579247 0)
(1.02941 -0.0328958 -1.33419e-22)
(1.0043 0.00693355 4.86289e-21)
(1.02717 -0.0291818 0)
(1.00882 0.0112375 1.09557e-20)
(1.03172 0.0169213 -5.41385e-22)
(1.01668 0.000145075 -1.89362e-21)
(0.983508 0.0821064 9.09583e-21)
(1.13276 -0.0195403 -3.87456e-21)
(0.988187 0.0355839 -3.82206e-21)
(1.00949 0.0110853 -3.70795e-21)
(1.01581 0.00101343 8.13514e-21)
(0.933326 0.0597003 0)
(0.623108 0.0355471 2.53461e-20)
(1.03436 0.00109351 0)
(0.999547 -0.0367494 -5.96443e-23)
(1.00449 0.00788555 0)
(0.861006 0.0190768 -1.38812e-21)
(1.01319 0.0735937 1.05807e-21)
(0.764156 0.0665566 -1.76291e-20)
(0.753206 0.136643 0)
(0.962466 -0.0928957 -1.92554e-22)
(0.949211 0.0718787 1.01194e-21)
(1.03465 -0.0293872 -4.36781e-23)
(1.01071 0.0647896 0)
(0.833058 0.0408595 0)
(1.01398 0.0699527 1.15673e-20)
(1.01165 0.00023016 8.12109e-21)
(1.01245 -0.0218001 0)
(0.866187 0.0544225 1.02571e-20)
(1.02864 -0.0166918 -5.85712e-22)
(1.0006 -0.0193742 -1.25131e-21)
(1.01304 0.0704538 1.90271e-20)
(0.998901 0.000325921 6.2642e-23)
(0.94336 0.0577009 -1.02928e-20)
(1.01507 -7.44771e-05 1.32911e-21)
(1.03345 0.0622298 1.4553e-20)
(0.99416 -0.00630592 0)
(0.549376 0.0450043 0)
(1.02043 -0.000213009 0)
(0.99108 0.035268 1.15398e-21)
(0.996691 -0.0146247 -5.56865e-24)
(0.969465 -0.095257 2.01868e-22)
(0.999388 0.000570941 -1.17118e-22)
(1.01225 0.0677372 0)
(1.00046 0.0659234 2.57855e-20)
(1.01273 -0.00222441 2.37447e-21)
(1.02959 -0.0170949 -4.92121e-22)
(0.782974 0.0504771 0)
(0.998389 0.0668196 -1.64342e-21)
(0.9512 0.115709 -9.3358e-21)
(0.601096 -0.0727731 -1.77558e-21)
(0.995557 0.00253149 -2.81778e-23)
(1.01816 -0.00931351 -2.74828e-21)
(0.990426 0.0707234 0)
(0.952505 0.0734226 0)
(0.995643 0.00312332 6.57591e-23)
(1.02738 -0.0321427 0)
(1.0144 0.00209132 -4.00489e-21)
(0.96999 -0.00694155 -5.28897e-23)
(0.990072 0.0361246 -1.31731e-21)
(1.00199 0.0771966 0)
(0.965198 0.0611107 6.75905e-21)
(0.938816 0.00824677 0)
(1.02958 0.0601252 -2.01015e-20)
(0.72085 0.0477152 -1.72399e-20)
(1.036 -0.0025679 0)
(1.01262 -0.00158794 -8.04958e-23)
(1.02576 -0.0279084 1.64454e-22)
(1.01499 0.0753341 1.801e-20)
(0.997477 0.000180522 0)
(0.651969 0.0380662 -4.93053e-20)
(1.0306 0.0599597 1.73144e-20)
(0.901216 -0.0321761 -1.73097e-21)
(1.01389 -0.00102027 6.31295e-21)
(0.958155 0.0694485 0)
(0.995089 -0.0336242 0)
(0.640773 0.06283 4.71668e-22)
(1.00645 0.0274323 2.72273e-22)
(1.00298 0.092768 2.36291e-20)
(0.973617 0.101911 -1.12316e-20)
(0.996253 -0.0160445 2.92984e-22)
(1.01534 0.00235115 6.0902e-21)
(1.02144 0.0767675 0)
(0.993967 -0.00868788 2.24334e-23)
(0.73656 0.108287 -3.56816e-21)
(1.00426 0.0833708 -7.98558e-22)
(1.00519 0.027544 -3.71496e-22)
(0.663478 0.0716049 0)
(1.022 -0.0153303 0)
(0.918437 0.0185642 0)
(1.02099 0.0111965 1.05568e-21)
(0.668049 0.0549204 0)
(0.90492 0.0198999 -7.87053e-23)
(1.00705 0.0021038 0)
(0.609266 0.0988295 0)
(0.946658 0.00461074 -2.57064e-21)
(1.00991 -0.00389297 -2.42519e-21)
(0.853192 0.108064 0)
(1.00525 0.0790111 0)
(1.00844 0.00355278 -4.54629e-21)
(1.01166 0.0777607 0)
(1.01708 -0.0074666 -1.62846e-21)
(0.944518 -0.00048325 2.57922e-21)
(1.01458 0.0704029 0)
(1.01511 -1.80626e-05 2.75747e-21)
(1.02553 0.0356004 0)
(1.00993 0.0119057 -4.66867e-21)
(1.02129 -0.00546907 2.39242e-21)
(1.01859 -0.00175041 -1.7329e-21)
(1.03613 -0.00418339 1.62072e-21)
(0.542183 0.164292 2.60705e-20)
(0.919127 0.0208846 -4.93021e-21)
(1.01328 -0.00121289 -6.04985e-21)
(1.03857 -0.00347969 1.97089e-21)
(1.02449 -0.0114372 -7.12008e-22)
(0.998896 0.0544959 2.00945e-21)
(1.00274 0.00582561 -8.13239e-22)
(0.994364 -0.00216824 0)
(1.01566 -0.00415453 9.96836e-24)
(1.0135 0.07327 0)
(0.956511 0.066188 -4.41165e-21)
(1.02241 -0.00647033 3.87681e-21)
(1.00765 0.00233793 0)
(0.869961 0.131357 0)
(0.590964 0.0443832 -1.96365e-20)
(0.954478 -0.0850567 0)
(1.01241 0.0722045 0)
(1.01395 0.0657152 0)
(0.994328 0.0125487 0)
(0.994606 -0.00102624 1.06257e-25)
(0.994079 -0.00310913 1.7294e-21)
(1.0184 -0.00160438 1.69821e-21)
(0.99422 -0.00153065 0)
(1.01997 -0.0116254 -1.34846e-21)
(0.994474 -0.000415046 -1.25299e-25)
(0.994326 0.0118555 -1.7393e-23)
(0.655347 0.0945856 0)
(1.0167 -0.00738352 4.95101e-21)
(0.980309 0.0225525 -3.02069e-21)
(0.651827 0.0398414 1.06058e-20)
(1.00325 0.0568253 -9.81844e-21)
(1.02784 0.000558602 1.80239e-21)
(1.02138 0.00662925 0)
(0.870584 0.104211 0)
(0.993529 0.000447679 -3.17772e-21)
(0.617916 0.0312216 0)
(0.994155 -0.00482382 4.66739e-23)
(1.01616 0.00205145 9.0075e-23)
(0.993305 -0.00848075 -7.52597e-23)
(0.997551 0.00860737 1.02975e-22)
(1.00674 -0.00151656 1.39758e-21)
(1.02308 -0.0167091 -1.66944e-21)
(0.886566 0.131064 -3.01552e-22)
(0.998693 0.0369876 -1.64541e-23)
(0.992279 0.0682342 7.20083e-21)
(1.01597 0.00195143 1.17248e-20)
(1.02052 0.0507799 0)
(1.00182 0.0385555 0)
(1.01679 -0.00993485 0)
(0.980172 0.0701881 8.37541e-21)
(0.941975 0.118137 -7.69154e-21)
(1.0146 0.00220669 0)
(0.47019 0.0805144 7.38708e-21)
(1.02828 -0.000357426 0)
(1.01781 -0.000346286 -1.91415e-22)
(1.02475 -0.011039 -3.88414e-23)
(1.02132 -0.0149335 1.58709e-21)
(1.02587 0.00156305 2.55607e-21)
(1.01479 -1.24858e-05 -2.13448e-21)
(0.920095 0.0586959 0)
(0.690719 0.145057 0)
(1.02521 0.00180077 -1.7115e-21)
(0.915957 0.0636568 4.26928e-21)
(1.01362 0.0725181 -6.48324e-21)
(1.01558 0.000465052 1.98649e-21)
(1.00182 0.0593568 1.024e-20)
(1.02407 0.0764389 0)
(0.81178 0.0991115 -3.41794e-20)
(1.02656 0.0384779 2.10969e-21)
(0.995611 0.0662791 0)
(0.861313 0.0185241 2.31847e-21)
(0.863494 0.0181191 -1.57856e-21)
(1.02239 -0.0163195 -1.08445e-21)
(0.962775 -0.0850624 4.88889e-22)
(1.00297 0.0402555 -8.02081e-23)
(1.00949 -0.00439516 0)
(1.01622 0.104306 -1.05891e-21)
(1.00053 0.00119311 -1.78917e-22)
(1.01477 -0.00166933 0)
(1.01241 -0.00266821 4.11419e-21)
(1.02995 0.035387 1.94018e-20)
(0.988606 0.00499905 1.33103e-22)
(1.01471 0.0720601 -1.01503e-20)
(1.01368 0.061556 -2.30133e-21)
(1.01525 0.0350367 -3.6043e-22)
(1.03232 -0.0313029 -9.93264e-23)
(1.00044 -0.0278963 0)
(0.970461 0.0302821 -2.68167e-21)
(1.01339 -0.00159724 3.1681e-21)
(0.544712 -0.0874126 0)
(1.00918 0.0470275 9.58628e-21)
(1 0.0225764 -5.28875e-21)
(0.742139 0.117799 -6.60256e-21)
(1.01499 -9.27414e-05 -3.09464e-21)
(0.968321 0.0311594 -2.76703e-21)
(0.988031 0.0853199 1.4392e-20)
(1.01905 -0.000726638 -1.35129e-21)
(0.826044 0.0555629 1.85121e-20)
(1.01761 -0.00036443 2.28318e-22)
(0.997217 0.00813632 -4.5523e-23)
(0.99946 0.0558959 0)
(0.993892 -0.00406675 0)
(1.01581 -0.000108262 0)
(0.981199 0.0802105 -1.87701e-23)
(0.901145 0.0627226 1.08055e-20)
(0.492909 0.113829 0)
(1.01613 -0.00159997 5.28288e-21)
(1.02444 0.0172031 -7.79541e-21)
(1.01919 0.0333711 0)
(1.0066 0.106944 1.34853e-20)
(0.959573 0.109225 -8.1155e-21)
(1.01391 -0.00200943 -8.61494e-21)
(1.01429 -0.00106548 0)
(1.01601 -0.00139027 0)
(0.989442 0.0555854 8.35955e-21)
(0.921021 -0.0295645 1.00654e-21)
(1.03795 7.3371e-05 0)
(0.997276 0.00022819 0)
(1.03351 -0.0175355 1.83253e-21)
(1.02077 -0.00501368 -9.43841e-22)
(1.08351 0.000616921 -1.49501e-22)
(1.00622 0.0312409 -2.70187e-21)
(0.999729 0.000930725 1.38988e-22)
(1.01277 0.0616573 0)
(1.01885 -0.000629265 -5.41755e-21)
(1.02338 -0.0112485 0)
(1.01056 0.0119007 0)
(0.762407 0.0612483 0)
(1.007 0.00370633 0)
(1.02499 0.0256061 0)
(1.03483 0.019933 6.15841e-22)
(1.02088 0.0498253 0)
(1.00241 0.0644158 -6.07367e-21)
(0.97528 -0.0191199 -1.35086e-21)
(0.985953 0.0589883 -7.68979e-21)
(0.924649 0.019769 -3.69856e-21)
(1.01053 0.00937709 0)
(0.998854 -0.025074 0)
(0.988547 0.0604065 -2.18858e-21)
(0.680058 0.0909367 -9.92734e-21)
(0.674505 0.0430076 -1.96687e-20)
(1.03283 0.00378602 0)
(1.0258 -0.0109236 0)
(1.01544 0.0362233 6.45729e-22)
(1.01618 0.00287195 7.23175e-21)
(1.01923 0.0658778 -4.06658e-20)
(0.994694 0.00161253 3.54202e-24)
(0.772384 0.0201771 6.59451e-22)
(1.00706 0.0227797 0)
(1.01759 0.0601236 3.4219e-20)
(0.933352 0.0139153 0)
(1.03414 0.0283334 1.77808e-20)
(0.043767 -0.0236642 0)
(1.02532 0.00232038 0)
(1.02475 0.0721434 -2.84896e-20)
(1.01152 0.000783247 0)
(1.03135 0.0290678 4.36717e-22)
(1.00581 0.0595917 1.27305e-20)
(0.994228 -0.00343246 0)
(1.0114 0.0704441 -1.27463e-20)
(1.00472 -0.000506562 -4.48924e-23)
(1.01435 0.000252021 0)
(1.02561 -0.0113934 -4.02379e-23)
(1.01434 0.0719889 -1.90368e-20)
(1.08459 0.00390988 -6.43878e-22)
(1.00203 0.00607945 -1.10925e-22)
(1.01377 0.0712279 -1.51739e-20)
(1.00111 0.0581676 2.48489e-21)
(0.90889 -0.0816077 3.68776e-23)
(1.01449 0.0680695 0)
(0.955439 0.0612183 -1.17437e-20)
(0.792217 0.0998727 5.16705e-20)
(1.0073 0.0034942 0)
(0.640262 0.032971 0)
(1.00722 -0.00151912 7.63361e-23)
(0.646938 0.154608 3.13438e-20)
(0.808888 -0.104586 1.46061e-21)
(1.03165 0.030575 -1.00928e-21)
(0.988967 -0.0294359 -1.20273e-22)
(1.00103 -0.000490894 0)
(1.00916 0.0463398 0)
(1.03367 0.0261697 -1.12911e-20)
(0.99402 -0.00273702 0)
(1.01198 0.000743016 -6.40183e-22)
(1.01079 0.000240804 0)
(1.01776 0.0690636 0)
(1.01593 -0.0014765 1.91772e-21)
(1.01954 0.0671171 1.87453e-20)
(1.01498 -0.00191052 0)
(1.00176 0.00566362 8.99023e-23)
(0.996585 -2.89875e-05 0)
(0.981451 0.093684 1.47026e-20)
(1.01691 0.0958435 -2.0648e-20)
(0.24692 0.0243418 -2.30356e-20)
(1.01102 0.0668337 0)
(1.00726 0.0316443 1.47475e-20)
(1.01934 0.0859362 -5.25265e-21)
(0.710899 0.0423979 1.88134e-20)
(1.02149 0.0119666 -1.59046e-21)
(1.00568 0.110308 8.11887e-21)
(1.01038 5.04489e-05 0)
(1.01781 0.0789681 2.8225e-20)
(1.01604 0.00266529 0)
(1.02164 0.0755768 0)
(1.02077 -0.00476491 -9.25203e-22)
(1.08491 -0.00412769 0)
(1.02232 0.00778953 0)
(0.897896 -0.0842911 5.61347e-22)
(1.00617 0.0463379 0)
(0.986036 0.0707236 -3.0411e-20)
(1.00202 0.00113098 0)
(1.00531 0.0437734 0)
(1.04249 0.00682374 7.83831e-22)
(1.00067 -0.000337946 3.09752e-24)
(0.733499 0.0500968 3.57793e-20)
(0.915319 0.00152866 -5.55103e-21)
(1.0453 0.00951921 0)
(1.00238 0.0786929 0)
(1.01592 0.00112625 -1.03632e-20)
(1.02748 0.028012 -1.3031e-21)
(1.00222 -0.00049732 0)
(0.755581 0.0521551 0)
(1.01584 -0.00126069 0)
(1.03053 -0.0360233 5.32174e-22)
(0.994692 0.00106208 2.89806e-26)
(1.04381 0.00881173 -9.37824e-22)
(1.01459 0.0756454 -2.00716e-20)
(1.00198 -0.000609387 0)
(1.00535 0.0758466 0)
(1.00526 0.00058572 -7.93966e-23)
(1.02006 -0.000515783 -6.01329e-22)
(0.615807 0.156741 0)
(1.01918 0.067631 3.21571e-21)
(1.01423 -0.00219044 4.42021e-21)
(0.539403 0.0308787 1.40183e-20)
(1.0114 0.0707835 -1.35349e-20)
(0.998537 -0.000863021 0)
(0.985828 0.0860016 -1.92972e-20)
(1.02466 0.00253356 0)
(1.01074 -0.0231159 2.88649e-23)
(0.740902 0.05983 0)
(1.00694 0.0735683 -1.35564e-20)
(0.995136 -0.00207461 0)
(1.00598 -7.93938e-05 -3.55768e-21)
(1.08754 -0.00548264 1.55833e-21)
(1.00631 0.000771448 1.09182e-23)
(1.03308 -0.00636023 2.66111e-22)
(0.958728 -0.0957272 -2.14088e-22)
(1.00086 0.0660588 1.3525e-20)
(1.00603 0.0168623 1.40467e-21)
(0.708091 0.118958 6.77371e-21)
(1.00659 0.0474334 -1.84698e-21)
(0.93747 0.0243471 0)
(0.957053 0.113299 8.2086e-21)
(1.12352 -0.0325218 -1.12109e-21)
(0.995657 0.0372389 -8.29327e-23)
(1.00454 0.0806557 -1.20123e-20)
(0.683638 0.0396655 1.83784e-20)
(1.03247 0.016145 -1.71376e-21)
(1.10249 -0.0469633 -1.14509e-21)
(0.960137 -0.100696 2.94774e-22)
(1.01988 -0.000652906 6.28684e-22)
(1.00514 0.00123178 -3.70475e-22)
(0.996611 -8.42675e-05 5.15629e-23)
(1.01935 0.0346163 3.65017e-22)
(1.01506 -7.6185e-05 -1.89512e-21)
(0.647469 0.0331658 0)
(1.0334 0.0544715 1.39062e-20)
(1.01731 0.000908576 -1.69038e-23)
(1.01313 0.0700779 -6.54523e-21)
(1.00247 0.00128172 0)
(0.786882 0.0698825 0)
(1.03134 0.0209304 0)
(1.03584 -0.00101099 4.24752e-22)
(0.867019 0.0604056 -1.93962e-20)
(1.00393 0.0628537 0)
(0.963687 0.0839312 -2.53596e-22)
(1.02222 0.00965664 0)
(0.996972 -0.0177177 0)
(1.03637 0.00333474 -7.80536e-22)
(1.02392 0.0140768 7.01488e-21)
(1.01713 0.0385797 0)
(1.02414 -0.00636868 0)
(0.622979 0.0352553 0)
(0.99601 0.0235093 0)
(0.819573 -0.0794401 -2.00671e-21)
(0.95906 0.0806563 2.54124e-22)
(1.10601 -0.0408892 1.17286e-21)
(0.958251 0.0620952 4.88561e-21)
(1.02379 0.0172338 -4.48147e-23)
(1.01455 0.000750168 1.5221e-21)
(1.04386 0.00734783 8.68878e-22)
(0.713412 0.0431786 1.63146e-21)
(0.543583 0.108686 3.59031e-21)
(1.00531 0.0223329 6.77443e-21)
(0.632271 0.033178 1.371e-20)
(0.830539 -0.0925972 2.28473e-21)
(1.02073 -0.00036969 -1.18502e-21)
(1.03533 0.000511695 0)
(1.00679 -0.00264411 -1.39941e-21)
(0.997905 0.0657161 -3.15091e-20)
(0.964829 0.0699011 -7.02378e-23)
(1.00481 0.0461862 1.45222e-20)
(1.02351 0.0135519 -5.95662e-21)
(1.02418 0.0256482 0)
(1.01746 0.0797662 -3.63736e-20)
(1.03458 -0.0275847 0)
(1.00319 0.0762126 0)
(1.03209 0.0546389 0)
(1.01308 -0.00367246 4.56683e-21)
(1.0148 0.0112705 3.65272e-22)
(1.01448 0.000705149 -1.56958e-21)
(1.01671 0.037729 1.77895e-21)
(1.03401 -0.0336515 2.22097e-22)
(1.00388 0.07847 0)
(1.0032 0.00551634 2.22797e-21)
(1.02634 0.0341869 3.92322e-22)
(0.624072 0.0346496 0)
(1.02061 -0.0559545 0)
(0.791521 -0.0426566 0)
(1.00663 0.000573723 -3.36682e-21)
(1.00268 -0.0182832 -2.85739e-22)
(1.01002 0.0255568 4.37799e-21)
(1.00788 0.0735936 0)
(1.00338 0.000761775 1.20198e-22)
(1.02667 0.0714525 -2.31574e-20)
(1.02799 0.092796 -7.164e-21)
(0.974992 -0.110215 1.12296e-22)
(1.01651 0.00339701 6.98871e-21)
(1.00333 0.00658827 -2.43417e-21)
(1.01302 -0.000187104 -1.97282e-21)
(1.01584 0.00183372 -3.33107e-21)
(1.02279 0.00719194 -1.00935e-20)
(1.02993 -0.0291823 -7.84069e-23)
(0.99985 0.0387119 0)
(0.9797 0.0919635 -7.04032e-21)
(1.00456 0.0768214 0)
(1.02399 0.00320567 8.22257e-22)
(1.00285 0.0766828 7.28603e-22)
(1.03514 0.0345227 1.93504e-20)
(1.02909 0.0356073 -1.94116e-20)
(1.004 0.0792007 0)
(1.01823 -0.00992097 -1.288e-21)
(1.02399 0.0716379 -1.37782e-20)
(0.894921 0.0130243 -7.32879e-21)
(1.00379 0.00479915 7.19212e-22)
(1.00491 0.0628138 6.8231e-21)
(0.976978 0.0630818 -6.09715e-21)
(1.03119 0.0536449 1.51306e-20)
(1.02965 -0.0034621 -1.36817e-21)
(1.02629 0.000745157 9.02451e-22)
(1.03344 -0.00583646 -1.55551e-21)
(0.626904 0.0360399 0)
(1.01528 0.0104975 -1.26833e-20)
(1.03098 0.0230323 -1.43322e-21)
(1.03266 0.0609479 -1.67971e-20)
(1.02416 -0.00677506 0)
(1.02955 0.000362177 8.72913e-22)
(0.99352 0.0774224 -2.24264e-20)
(0.902763 0.00953215 -1.28381e-20)
(1.0374 -0.0251656 -2.12344e-22)
(0.563281 0.0583587 2.23872e-20)
(0.973042 -0.00576488 -1.59401e-21)
(0.988319 0.072354 -1.16935e-20)
(1.02332 0.0071551 -2.01824e-21)
(1.02832 -0.0243955 -3.31167e-22)
(1.02105 0.0799824 -2.26975e-20)
(1.0305 0.0310833 4.59319e-22)
(1.05982 0.0471283 -1.97991e-21)
(0.999669 0.000546795 0)
(1.0059 0.00125643 6.4628e-22)
(1.02082 0.00921638 0)
(1.00213 0.00393123 0)
(0.971693 -0.0193369 0)
(1.02968 -0.00299266 0)
(0.961682 -0.0714831 0)
(1.03724 -0.0160213 0)
(0.809909 -0.108804 -3.26667e-21)
(1.00654 0.00139438 0)
(1.02766 0.038258 1.87812e-20)
(0.993844 -0.00547278 -5.66002e-23)
(1.0105 0.0677895 5.63962e-21)
(1.01265 -0.0202968 -1.9896e-22)
(0.933057 0.101783 2.31392e-20)
(1.04032 -0.0273793 0)
(0.999455 0.000304708 0)
(0.760207 0.0647334 -7.1019e-21)
(1.01398 0.0109943 0)
(0.669007 0.0382344 0)
(1.0349 0.0248348 1.06631e-20)
(1.06555 -0.0330039 0)
(1.03286 -0.0247727 0)
(1.03074 0.00610285 -7.48409e-22)
(1.01652 0.00323832 -3.62282e-21)
(0.940879 0.0559781 -2.67818e-20)
(1.01497 0.0365457 0)
(0.99929 0.00456604 5.58504e-22)
(0.549076 0.0395788 6.99339e-21)
(1.0158 0.00181655 9.2616e-21)
(1.03018 0.0538719 -1.69551e-20)
(1.01904 -0.00778423 -7.58549e-24)
(1.05056 0.0353473 1.90576e-21)
(0.997354 0.0247815 0)
(1.01968 -0.00913108 0)
(0.692365 0.0993324 0)
(1.02657 0.0264538 1.05695e-20)
(1.0618 -0.0415429 -7.5119e-22)
(1.01121 0.0714579 -1.27729e-20)
(0.850931 -0.0384089 0)
(1.0061 0.0100015 -4.36123e-22)
(1.00899 0.00152422 9.47934e-22)
(0.962979 0.0635291 3.19135e-21)
(1.02469 0.00305718 0)
(1.01505 -0.00283055 0)
(1.00928 0.00462161 -2.37952e-21)
(1.02683 -0.0106938 -7.09086e-22)
(1.03137 0.0610295 1.92383e-20)
(1.00564 0.00951788 4.1193e-22)
(0.962928 -0.0473886 1.5839e-21)
(1.01326 -0.00442045 0)
(0.657745 0.0380438 0)
(0.663151 0.0375187 2.71258e-20)
(0.922094 0.0266142 0)
(0.990196 0.0694547 1.42739e-20)
(0.497804 0.0862681 0)
(0.63532 0.0372699 0)
(0.830169 0.0107805 2.97671e-21)
(1.02053 0.000802142 -9.43473e-22)
(1.0252 0.0278664 -4.05415e-22)
(1.0178 0.00558873 0)
(1.01211 0.00774974 3.11204e-21)
(1.01615 -0.00156359 0)
(1.01547 0.037611 0)
(1.01666 -0.00264635 1.69325e-21)
(1.00537 0.000356943 -8.8701e-22)
(1.01481 -0.00264613 0)
(1.01774 0.0671509 1.85027e-21)
(1.01573 0.0100973 0)
(1.03628 0.0490315 0)
(0.960507 0.0541007 0)
(1.03415 0.00614145 7.50978e-22)
(0.979474 0.0184365 -2.24097e-21)
(1.01355 0.0106324 -4.74582e-21)
(1.03528 0.0288004 -1.43761e-23)
(1.01375 0.0293941 0)
(0.994386 -0.00968349 2.75094e-23)
(0.967426 0.0658836 -1.47463e-20)
(1.00062 0.0674606 7.5378e-21)
(0.983593 -0.0515269 -2.14575e-21)
(1.03469 0.00199083 -8.02461e-22)
(1.01972 0.00227435 4.00039e-21)
(1.02797 -0.0154414 8.67557e-22)
(1.03699 -0.017122 0)
(0.757843 0.112568 -6.48848e-21)
(1.02081 0.000423774 1.79667e-21)
(0.918578 0.00831068 -2.73521e-21)
(1.0203 -0.00438667 2.94534e-21)
(0.863056 0.000148645 0)
(1.01685 -0.0217409 0)
(1.01911 -0.00485853 -1.31934e-21)
(1.02599 0.0719806 1.57765e-20)
(1.06177 0.0403874 0)
(1.02119 0.000290047 -3.47212e-21)
(0.95444 0.0837468 0)
(1.01686 0.106539 -1.81602e-20)
(1.00846 -0.00746447 -1.85234e-21)
(1.01166 0.0679697 0)
(1.02458 0.00465442 -7.61004e-22)
(0.925589 0.00782349 5.60334e-21)
(0.994689 -0.0137202 -3.29081e-23)
(1.03541 -0.0169469 0)
(0.701509 0.0454273 -2.08826e-20)
(1.00802 0.00113247 -4.4783e-22)
(1.01946 0.0145159 -8.86719e-21)
(1.01281 0.069777 -1.19266e-20)
(0.689673 0.0425671 1.98671e-20)
(0.993964 -0.0147796 -8.08049e-24)
(0.762038 -0.000829233 2.18215e-21)
(1.02138 0.0803217 0)
(1.00891 0.028458 -2.82022e-22)
(1.0268 -0.0198599 5.1976e-23)
(1.02668 -0.0112185 -6.78293e-22)
(1.01607 0.0664178 1.34611e-20)
(1.01894 0.00227269 -4.94187e-21)
(1.01362 0.0713181 2.57283e-22)
(1.01684 0.00629985 0)
(0.838198 0.0569293 -8.74616e-21)
(1.0147 -0.0212785 6.58444e-22)
(0.882965 0.115396 0)
(1.03784 -0.00432756 -4.35592e-22)
(0.999231 -0.009576 -4.21394e-23)
(0.888818 0.026301 0)
(1.01319 -0.000117549 2.0729e-21)
(1.02577 -0.0542813 -1.94594e-22)
(1.0093 0.0613062 2.12802e-21)
(1.00957 -0.000146742 0)
(1.01982 -0.00195198 0)
(0.748983 0.0701219 1.57937e-22)
(1.00756 0.028615 3.00267e-22)
(1.02424 0.0284213 -7.66246e-22)
(1.00208 0.0657471 -2.18616e-20)
(1.00883 0.00289807 2.13205e-21)
(1.01201 0.0665551 4.5852e-20)
(0.98237 0.0221233 -3.39325e-21)
(1.02285 0.0749928 0)
(0.983648 0.0843508 -1.37885e-20)
(1.02354 0.0248244 -1.00646e-20)
(0.842379 0.0544849 -2.57687e-20)
(1.01251 -0.00474162 2.30846e-21)
(1.00351 0.0641836 2.77195e-20)
(1.01685 0.0025927 0)
(0.666841 0.0403135 -1.12188e-20)
(0.855183 0.00470522 -1.58513e-21)
(1.02362 0.0104737 -1.18542e-21)
(0.994135 -0.012505 -2.80867e-23)
(1.03322 0.0264572 -5.24759e-22)
(1.01376 -0.00153761 3.48082e-21)
(0.99451 -0.0115719 -7.07384e-23)
(1.00269 0.0175851 8.57256e-23)
(1.01869 0.0219407 -3.46179e-22)
(1.01672 0.00326416 -3.49819e-21)
(1.00402 0.0303651 0)
(1.00352 0.00440841 -5.84239e-22)
(1.01005 0.000195984 3.31409e-21)
(1.01525 0.067936 -2.25833e-20)
(0.739172 0.0973105 -1.56339e-20)
(0.912637 0.0988369 -1.72256e-20)
(1.01295 0.0692307 0)
(1.02706 -0.0151326 1.44173e-21)
(0.887442 0.0294461 7.64634e-22)
(1.01656 -0.00228111 3.01318e-21)
(1.02059 0.0784123 -2.29582e-20)
(0.935426 -0.0227267 2.65276e-21)
(0.354923 0.0201903 -1.25519e-20)
(0.995875 0.00606163 0)
(1.0209 0.000705462 2.16591e-21)
(1.01483 0.000407854 0)
(1.01695 -0.00589296 6.89385e-21)
(0.995936 0.00574179 3.33263e-23)
(0.99295 -0.00748925 6.94233e-23)
(1.01549 -0.00036113 -7.60565e-21)
(0.994659 0.0382559 8.67771e-23)
(1.0196 -0.00202601 3.18938e-21)
(0.543867 0.0547864 0)
(0.77517 0.0526753 0)
(1.02282 -0.00291789 -1.44337e-21)
(0.962597 0.0587945 1.23053e-20)
(1.01705 0.00275976 6.97154e-21)
(1.03566 -0.00496774 0)
(1.05368 0.0396809 0)
(0.7686 0.0544143 1.76175e-20)
(0.965592 0.029367 1.48924e-21)
(0.997037 -0.000228283 9.16461e-24)
(0.968166 0.0823134 -7.70235e-23)
(1.03775 0.0107336 0)
(1.0377 -0.00259013 -1.22849e-21)