/*--------------------------------*- C++ -*----------------------------------*\
| =========                 |                                                 |
| \\      /  F ield         | OpenFOAM: The Open Source CFD Toolbox           |
|  \\    /   O peration     | Version:  v2012                                 |
|   \\  /    A nd           | Website:  www.openfoam.com                      |
|    \\/     M anipulation  |                                                 |
\*---------------------------------------------------------------------------*/
FoamFile
{
    version     2.0;
    format      ascii;
    class       volScalarField;
    location    "800";
    object      ddt0(k);
}
// * * * * * * * * * * * * * * * * * * * * * * * * * * * * * * * * * * * * * //

dimensions      [0 2 -3 0 0 0 0];


internalField   nonuniform List<scalar> 
13851
(
-6.26644e-07
-2.07806e-07
-1.6361e-07
0.00021421
2.80818e-08
-1.83305e-07
-3.74539e-07
-4.70129e-08
-0.000529373
1.98413e-08
-2.16163e-07
1.85305e-08
1.85782e-08
-0.000115763
-4.76112e-07
-8.83661e-07
0.000429666
-9.06741e-08
-1.31934e-06
-6.34955e-07
-4.92723e-07
-4.91104e-08
-0.0019775
5.30829e-09
-0.00152052
-9.12839e-07
7.0821e-05
0.000406677
-0.000800974
-3.11184e-08
0.00075007
-5.42546e-07
-5.9366e-07
-0.000898328
-2.80888e-07
-0.000874801
1.66844e-09
0.000415573
0.00056121
8.26062e-09
-0.000144547
-0.000923139
0.000187416
8.29507e-07
-0.00102169
-7.63699e-09
-1.02567e-07
-6.72492e-07
-6.00227e-08
1.49083e-08
0.000487337
2.37886e-08
-8.8429e-07
-5.19919e-07
-0.000200078
8.64952e-09
-5.95526e-07
7.86374e-07
-0.00267661
-3.26299e-05
1.9276e-08
-9.80001e-06
1.65996e-08
-5.47335e-08
1.32812e-06
9.86891e-07
-0.000137736
3.16358e-06
-1.78926e-08
0.000333101
0.00104262
-5.15566e-07
2.08276e-08
-8.30371e-05
-5.154e-07
-1.49916e-08
0.000522815
-4.48444e-08
-0.00157962
1.83008e-08
-1.75614e-08
-1.10177e-06
-2.66077e-07
-0.000134346
-5.2647e-05
0.000994915
-6.05717e-08
-0.000265904
2.21242e-08
0.000730773
2.04348e-08
-5.75051e-07
8.3702e-05
0.000855978
0.00160817
-4.58527e-07
8.91182e-10
-7.36178e-07
0.000364523
-6.30276e-08
-5.74009e-07
-6.28811e-07
4.68826e-07
1.60487e-08
-2.35342e-08
-4.52845e-07
-1.83475e-08
0.00110547
-7.26678e-07
-8.32121e-08
-1.04126e-07
-1.17203e-08
-7.45968e-07
-3.46263e-07
-7.50518e-07
-4.86658e-07
-3.01745e-09
-3.71491e-08
0.000176426
0.000317436
6.60032e-07
-8.24905e-08
-4.87969e-09
-1.52999e-06
-6.54512e-07
2.17428e-07
4.07411e-09
-9.29091e-08
-0.000137249
-5.57796e-07
-5.04214e-08
-2.74829e-07
3.11719e-05
-0.000686121
-2.3995e-07
0.000152663
1.91349e-06
0.00101054
-2.42646e-07
-6.09266e-07
-1.02357e-06
1.19968e-08
2.13877e-08
1.52858e-06
0.0108737
-8.59478e-09
-4.52744e-08
0.000794114
-0.000431575
-1.16401e-07
-6.73574e-07
-6.93746e-07
-3.54698e-07
-1.02528e-06
1.98473e-08
1.9032e-08
1.89465e-08
0.000516192
-5.74236e-07
-2.53141e-07
7.33155e-09
-0.00084823
-4.25698e-07
-6.71695e-07
-0.000121302
-0.000830708
-0.000933622
0.000619607
-6.23442e-08
-0.00442727
1.82154e-08
4.50472e-10
-4.21564e-07
2.40707e-08
0.000900495
2.48962e-05
-6.75863e-07
-5.57788e-10
-5.33769e-07
-6.84058e-07
-7.13056e-07
6.09154e-07
-7.17172e-08
-5.74919e-07
0.000156118
-0.000463772
-6.12364e-07
4.96504e-08
1.54177e-08
-1.94845e-08
0.000336277
-5.71379e-07
-8.723e-05
-1.88842e-07
-7.29679e-09
-8.40378e-07
-6.94842e-07
-2.53152e-07
-3.92544e-08
2.10607e-06
-1.11143e-06
0.000451374
1.44346e-05
-4.8677e-07
-1.24493e-05
0.000500122
3.8353e-09
-6.60958e-07
-0.000525305
-1.40172e-07
-9.25421e-07
-8.14035e-09
-1.15925e-06
3.6514e-09
-2.80504e-07
-2.42971e-08
1.54065e-08
-4.12123e-07
-1.13644e-07
6.95014e-07
-4.8614e-09
-5.33842e-07
-9.04079e-05
0.0011531
3.59557e-10
-6.71309e-07
3.72548e-09
9.07828e-07
2.10751e-08
-2.79854e-07
0.000612273
2.52956e-09
-1.38306e-07
1.45014e-08
0.000102929
-3.47076e-08
0.0186937
0.0001014
-8.45583e-08
3.64921e-09
-1.52645e-06
-9.1966e-05
-0.00114847
-8.8146e-07
-3.804e-07
-1.3173e-07
-6.15106e-07
-5.39573e-07
1.26943e-07
-1.02907e-07
-0.000280246
-4.09019e-07
-3.66461e-09
-2.52352e-07
-6.98106e-07
-0.000774091
-0.000391791
-2.15469e-08
1.2346e-06
1.94305e-08
-7.00305e-07
-6.50576e-07
-2.69159e-07
-4.44715e-07
-4.42151e-07
1.4279e-08
1.24356e-06
-7.58282e-07
0.00301287
1.98211e-08
1.49363e-08
8.03694e-08
-0.000907033
0.000110913
-5.49416e-07
-8.85428e-08
-6.71441e-07
-6.87438e-07
-7.63114e-07
-4.69879e-07
-0.000756567
0.000452465
-2.36845e-07
-4.46531e-07
-0.000914311
-2.5347e-08
1.88946e-08
-7.50283e-07
-1.74142e-07
-4.2759e-08
7.82424e-09
2.509e-08
3.23269e-08
-3.76878e-07
1.98702e-08
-0.000575954
-5.2982e-07
3.95925e-09
-0.000795351
-1.20827e-05
2.25152e-08
-6.02373e-07
0.000380493
8.67423e-09
1.91472e-08
-5.21005e-07
-0.000119329
-0.00185738
-4.43992e-07
2.95789e-08
-0.00446363
1.74866e-08
-4.19993e-07
0.000379833
-0.00056943
-2.53064e-07
0.00575814
-3.77397e-07
0.00123722
-4.19952e-07
2.46607e-06
0.000741828
2.29628e-05
0.000494972
-7.76662e-08
0.000636313
-8.63476e-06
-1.65444e-06
7.08674e-07
2.6916e-08
-4.227e-07
-4.02715e-09
-0.000296864
-2.14308e-06
2.57657e-08
-8.27578e-08
-9.67602e-08
0.00114153
-1.67301e-06
-2.45851e-08
0.00118831
1.38293e-08
-4.02205e-07
-2.59863e-07
-2.03018e-05
-7.32008e-07
-8.12757e-07
-2.2367e-08
-1.39239e-07
-0.000950587
1.50358e-08
-8.24041e-07
-2.34797e-07
-5.17535e-07
2.25964e-08
2.11197e-08
1.23684e-09
-3.09797e-07
-2.87504e-07
-5.20997e-07
0.000114742
-0.00100078
-9.10431e-09
0.000147876
-1.08717e-06
-8.72775e-08
-0.000217996
-5.55874e-07
0.000361167
-9.45286e-08
-9.33651e-07
5.63549e-05
0.000375137
-7.46147e-07
-0.000332192
-7.58427e-08
4.73214e-05
0.000194506
-2.83795e-07
-0.000309562
-3.07355e-07
2.80171e-05
-4.25574e-07
-7.17266e-07
-5.74535e-07
-3.80554e-07
2.06938e-08
-2.21701e-07
-1.54094e-07
-5.29307e-07
-3.8704e-09
-5.71116e-07
-0.00361237
1.86313e-08
-6.43149e-07
0.000116109
-1.28587e-07
0.000127157
-7.2849e-07
-0.00270382
-1.3265e-07
-8.89482e-07
-1.89675e-06
-6.29876e-07
-4.73422e-07
-0.000336656
-9.6942e-05
-2.77677e-06
1.55635e-08
-1.19059e-07
-2.85588e-07
-9.27679e-07
-6.80248e-08
0.000209341
-0.0034902
0.000114955
-1.4376e-07
-5.37092e-07
-1.09803e-06
0.000139859
-8.66878e-08
0.000531698
5.76632e-07
-0.000642125
-2.20744e-07
0.00116774
2.22784e-08
2.44056e-08
-0.000113863
-2.12172e-06
1.97692e-08
-2.24119e-07
-6.40221e-07
7.43871e-09
-0.00415863
-4.34106e-07
-5.40948e-07
-3.06799e-07
-7.58889e-08
1.72758e-08
6.15517e-05
5.16683e-09
1.78194e-08
-0.00349337
-0.00389271
-3.65914e-08
-1.97453e-06
1.24087e-08
2.07511e-08
-1.35268e-07
-4.09487e-07
-7.25841e-07
-5.42909e-09
-1.39331e-07
2.46306e-07
-2.33067e-07
-0.00401858
2.11007e-08
-3.92312e-07
-0.00108141
5.61635e-09
-5.38176e-08
1.94283e-08
-3.2027e-07
-1.76401e-07
-5.1015e-06
-0.00278545
-3.66508e-07
-2.89093e-06
-1.39982e-07
2.02924e-08
-0.000303695
0.000114426
-2.55301e-07
1.62539e-08
-6.74516e-06
-1.39988e-07
-0.000169494
1.74894e-08
-3.66614e-07
-5.54364e-07
-5.14468e-07
-1.6672e-05
1.34701e-05
7.11513e-05
-5.75801e-10
-7.06747e-07
1.6086e-08
-0.000767512
-7.31381e-07
-7.08768e-07
-2.80463e-07
-2.47961e-08
-1.83186e-08
-4.36503e-07
2.68534e-08
0.000153729
-0.000221273
-0.00434568
9.2289e-05
-0.00297992
0.000512576
-6.66441e-07
2.14089e-08
9.15299e-09
-0.000237576
1.68356e-08
-7.67722e-09
-2.52412e-08
0.000963933
-1.86821e-07
1.36209e-08
-1.62896e-07
-4.0868e-07
1.85442e-08
-0.00479998
2.78725e-09
-0.000310276
-4.02281e-06
1.64299e-08
-2.06509e-07
-6.267e-07
0.000164058
-4.11159e-08
0.00111201
0.00373905
-1.7201e-07
0.000814589
-1.6014e-06
-4.37356e-07
7.74506e-10
-0.00368154
0.000117061
-1.95425e-07
-9.20339e-07
-1.34677e-08
1.03495e-09
-0.00315056
5.35552e-06
-3.5088e-07
-7.18672e-07
1.90545e-08
-7.56224e-07
-0.000260168
0.000668026
-1.76879e-07
0.000433812
-7.26839e-10
-2.05696e-08
-4.4961e-07
-3.75528e-07
-8.62405e-08
-1.44312e-08
0.000764524
-2.08942e-07
0.000769045
-2.14836e-07
2.10372e-08
-0.0010265
1.39891e-08
-3.00863e-07
-3.62161e-07
-5.03932e-07
-3.42526e-07
-0.00161789
0.00040742
-2.12234e-07
0.000447245
-2.40746e-07
-3.9021e-07
-0.000968988
-0.000237078
-1.09792e-09
1.35007e-08
5.15821e-07
0.000773464
-1.05271e-05
-7.7077e-07
-0.00348513
-3.54087e-07
-4.25401e-07
0.000277134
-0.00470858
-4.52071e-07
-0.000245644
-1.14567e-06
-0.00106868
-6.63256e-08
0.000451477
-0.000140973
1.97131e-08
0.000280707
-0.00387257
-7.12856e-08
-5.83049e-07
1.14557e-08
1.08704e-05
-1.32385e-07
-0.0116514
2.69489e-09
1.80139e-08
6.41071e-08
-4.01972e-07
2.27664e-08
0.000841197
1.84028e-08
-8.23337e-07
1.46237e-09
-9.28608e-07
1.9486e-08
1.8995e-08
-7.17825e-08
0.000442982
-4.63434e-07
0.000831651
-3.61664e-07
4.51119e-09
-1.18983e-07
-4.04403e-07
-1.36864e-07
-4.57884e-07
-1.87628e-07
1.61267e-07
0.00219304
9.3352e-09
-0.000352013
3.57004e-09
-1.06105e-06
0.000461229
-0.00104059
1.6441e-06
0.00367566
-2.87503e-07
1.85956e-07
-0.00292342
-1.41626e-07
-0.00466902
1.19814e-08
-3.01657e-07
0.000129353
-2.13342e-05
-1.03521e-07
-4.28921e-07
-1.70247e-07
-0.000937706
0.000468813
-1.85771e-08
3.15086e-06
-0.00425536
4.70329e-09
4.59954e-09
-9.19464e-07
-0.000327021
-0.00428051
1.79322e-08
-6.45593e-07
-2.65418e-07
2.052e-08
-0.00527908
-6.73765e-07
-7.55261e-08
-7.44604e-08
-7.46842e-07
-1.5331e-07
-8.45225e-07
1.76149e-08
-4.6217e-09
-7.01709e-08
1.32178e-08
-7.28349e-07
-5.3203e-07
-5.16715e-07
-4.03508e-07
2.72315e-05
-2.3353e-07
-0.00313693
-0.000316106
-6.61456e-07
-0.000151509
2.76557e-08
-0.0030992
-4.86797e-07
-7.09321e-08
-4.07321e-07
-1.34376e-06
-7.92911e-08
1.76266e-08
1.83934e-08
-1.02529e-06
-0.000276122
-3.84806e-07
0.000227475
6.60963e-09
-0.00419584
2.84711e-07
0.000383836
-4.21827e-07
-1.3948e-07
-1.66042e-07
0.000393675
-1.678e-07
-2.30419e-08
8.46423e-07
-7.79045e-08
6.16632e-05
-1.04313e-06
-9.42416e-07
-2.65755e-07
2.41371e-06
1.79564e-08
3.60384e-09
1.56084e-08
1.93128e-08
-0.00090814
3.23012e-08
0.00124489
-0.000852558
-4.23244e-07
0.0005462
0.000330926
-9.41931e-07
-6.75494e-07
3.57252e-08
5.77508e-09
1.44331e-08
-3.89703e-08
-1.09291e-07
2.00871e-08
-3.99561e-07
-6.58527e-07
-3.32798e-07
0.000255076
-3.4271e-08
-0.000494915
1.03292e-09
0.000240055
-1.81319e-07
5.44389e-09
1.32851e-08
-0.00100107
-1.7706e-07
-0.00446806
-0.00284504
-5.88989e-07
-5.25587e-07
-1.79183e-07
-0.000585228
-2.27921e-09
-1.34148e-07
0.000861131
2.36343e-08
1.03846e-08
-1.25014e-07
-7.12418e-07
-0.000283046
-1.72107e-07
-2.97963e-07
-3.2809e-07
0.000795079
1.4967e-08
1.44038e-08
-0.00106424
-3.91029e-08
-0.00100806
1.33208e-08
-2.18458e-07
0.000816943
-7.144e-07
-7.69596e-07
-3.12348e-07
-4.68886e-07
1.30116e-08
5.37895e-10
-4.04352e-07
-7.16972e-08
8.4957e-09
-4.27325e-07
-1.08044e-07
2.4719e-08
1.39184e-06
1.39196e-05
-0.0045353
-2.94958e-07
0.00041456
-1.26575e-06
2.29578e-08
-8.79089e-07
6.61594e-09
-2.26274e-07
-0.00344789
-0.00101728
-0.00457267
-0.00122844
-2.42054e-08
-1.95877e-08
-9.07098e-08
-1.79818e-09
-3.74218e-08
-0.00161836
-8.77087e-07
-0.000270073
-1.03629e-06
-7.07749e-07
2.09985e-08
-3.11939e-08
5.61969e-06
-5.19509e-07
-1.90005e-07
-2.18903e-09
-7.40241e-07
-6.71425e-07
0.000205208
1.89022e-08
1.40876e-08
-0.00024528
1.87831e-08
-3.25271e-07
7.12523e-09
0.000413132
-3.58401e-08
0.000538112
1.76211e-08
-2.19093e-07
-4.68945e-07
-1.83826e-07
-2.84928e-07
1.9403e-08
-1.79584e-07
2.41006e-08
-0.000241721
1.82085e-08
-0.000428992
-7.52026e-08
-0.00549292
-0.000475332
-2.18524e-07
3.09075e-08
0.00017324
-0.00293671
-2.12763e-07
-7.31485e-07
1.82656e-08
-0.000253281
-7.09193e-08
-1.1438e-06
2.10973e-08
2.365e-08
-0.00439427
-3.7071e-07
1.88035e-08
-5.21967e-07
2.7192e-05
-1.44034e-06
-0.00390897
-1.71537e-08
-0.00018026
1.95404e-08
2.40352e-08
2.27512e-08
-7.16526e-08
7.62489e-09
-0.00348525
-0.00340553
-1.00771e-07
1.88036e-08
-3.5819e-07
-1.43421e-08
0.000252527
-8.0477e-07
-0.000107866
0.000680839
-1.76984e-07
-7.37439e-07
1.91466e-08
-4.95035e-07
-1.14051e-07
-1.62962e-07
9.00228e-09
-5.87337e-06
0.000516735
-5.36694e-07
0.000220524
-6.24798e-07
1.91436e-08
-3.67878e-07
-7.44106e-07
0.000356248
-3.73726e-07
-0.00224105
-5.15968e-07
9.73574e-09
-0.00222259
-0.00164592
-0.00034672
0.000209823
-0.00307239
5.53119e-10
-3.22276e-07
2.04052e-08
6.5005e-06
-7.11102e-08
2.5246e-08
-0.00367237
-2.45007e-08
2.75224e-08
2.37881e-09
-1.14234e-08
0.000975423
-1.15696e-06
6.87067e-09
-3.57507e-07
-0.000109137
-4.44321e-08
0.000218511
1.4327e-08
-6.79056e-07
0.000160874
2.37368e-08
2.54576e-05
-8.3514e-08
-2.77804e-07
6.16379e-06
-2.58265e-08
-9.79744e-07
-8.84856e-07
-0.000137629
-1.86044e-07
-0.00038575
-2.73184e-07
-4.96926e-05
0.000332046
-0.000325241
-6.09254e-07
2.06128e-08
-2.27432e-08
5.01223e-09
-6.53043e-07
1.67885e-08
-3.10083e-05
-5.8352e-08
8.61498e-09
4.09014e-08
2.66437e-09
-1.16465e-08
-3.71378e-07
-9.14911e-08
-2.05727e-07
-5.83711e-08
-0.00187123
0.000217444
-2.90709e-07
-7.9682e-08
-0.00380632
1.42021e-08
0.0011536
-3.27189e-08
-8.88634e-08
1.88686e-08
-2.89056e-08
-5.37442e-08
2.21298e-08
6.91342e-09
3.23376e-06
1.94746e-08
-5.70435e-07
-1.0026e-07
0.00025699
1.8864e-05
-7.12386e-07
-7.86041e-07
-1.08524e-07
0.000659825
-4.75689e-07
8.06934e-09
-9.28005e-08
1.45438e-08
0.00120651
1.47693e-08
6.3731e-07
0.000233627
0.000102376
-1.78497e-07
-7.79418e-08
-0.00138586
0.000180489
-0.00301361
-8.11234e-08
3.72454e-09
-1.85939e-07
-4.46317e-07
2.00082e-08
1.92749e-05
-1.3873e-07
9.0631e-09
-8.99438e-07
-5.63547e-07
-1.21503e-07
-0.00245417
0.000526943
-7.8512e-07
-8.5189e-08
-0.00145661
-4.07131e-07
2.30366e-08
-0.000227927
-1.82183e-08
-1.09347e-07
1.00305e-08
-4.95134e-07
-6.40547e-07
-0.000652963
0.00067468
-6.58083e-07
-0.000868193
-4.8435e-07
2.03969e-08
-1.08323e-06
1.97655e-08
0.000120183
-1.65943e-07
2.38426e-08
-1.32253e-08
-6.9301e-08
-0.000686957
-0.00038171
5.83645e-08
0.000402113
-0.00283008
1.18179e-08
1.67547e-08
-9.93458e-08
-1.08904e-06
-1.85521e-07
-1.13134e-07
-2.02538e-07
0.00144008
5.01037e-05
-7.9139e-08
-8.89483e-08
-2.80627e-07
-4.33882e-07
0.000221513
-1.79206e-07
-9.0719e-08
-2.45456e-07
-0.000175265
-4.18707e-07
-0.00019635
-3.76627e-09
1.44504e-08
-1.10623e-07
6.59559e-09
-2.90606e-08
-8.54226e-07
-0.00115573
-0.000870737
-4.44709e-08
2.04981e-08
8.04089e-06
-1.86081e-07
-0.00051728
0.000209745
6.07562e-08
0.000512204
-0.0008645
0.000439142
-7.71662e-07
-3.69831e-07
-0.000213385
-3.05547e-07
-4.92543e-10
3.21676e-08
6.67804e-07
-6.26458e-08
-8.51902e-06
1.92286e-08
-0.00366087
-0.000122939
-3.20816e-08
-3.70152e-09
-4.74084e-08
-1.37162e-06
-3.51881e-07
1.78293e-08
-3.49516e-07
1.70946e-08
-3.08561e-07
-5.27908e-06
1.08859e-08
-0.00266633
-0.000301094
1.90354e-08
-3.51745e-07
-6.44255e-07
1.92364e-08
-0.000934669
-0.000185807
0.000570085
-0.000515962
2.10085e-08
-4.26936e-08
-1.04829e-07
1.5507e-08
-2.52063e-06
-3.6066e-07
1.60537e-08
-7.32712e-07
-5.86491e-08
-0.00513064
-4.72332e-07
-9.57692e-05
1.77157e-08
-3.52731e-08
-1.38681e-06
-4.59319e-07
-4.24804e-07
1.55828e-08
-8.9759e-05
6.1008e-05
-0.000459581
0.000582991
-0.0034149
-0.000788219
-6.69415e-05
1.81435e-08
2.27956e-08
-1.39316e-07
-6.28723e-06
-7.11126e-07
-4.29163e-07
0.000218113
-1.78631e-07
-1.9018e-08
1.9427e-08
-1.14721e-05
-4.80378e-08
-2.8413e-07
-1.02654e-08
-0.00417371
1.24444e-08
9.07799e-09
1.89187e-08
7.4634e-09
1.719e-08
9.39967e-09
2.48411e-06
1.82542e-08
-0.0048308
2.10637e-08
2.60318e-09
-0.000195079
-0.000655954
-0.000262147
-0.00469064
1.50055e-07
-0.00408775
4.36983e-09
4.42002e-08
-3.25085e-08
1.78511e-08
-2.7266e-07
0.000635794
-2.06595e-07
-4.73896e-07
0.000215634
-1.86082e-07
-2.42459e-08
8.94894e-09
-8.77718e-07
-5.37442e-11
-0.00415148
-1.63067e-07
-4.57594e-06
1.1362e-08
-9.83477e-08
-2.2351e-07
-2.38597e-07
1.7213e-08
-2.30422e-05
0.00105263
-1.79293e-06
-0.000881846
2.09182e-08
0.000410855
-5.96439e-06
1.84381e-08
-4.10898e-05
1.39391e-08
-1.12773e-06
2.15325e-08
-2.15907e-07
2.31545e-08
1.7792e-08
-1.32518e-08
7.22008e-08
-5.71845e-07
-8.48573e-08
1.15713e-08
1.71776e-06
-1.12024e-07
-0.00517176
1.38871e-08
-2.99274e-07
-5.13953e-07
2.19814e-06
0.000108755
1.34627e-08
-9.05201e-07
6.6141e-09
-4.76435e-07
-2.61141e-08
-0.00464734
-6.30028e-07
1.07533e-09
-7.89968e-07
-7.21111e-07
-6.93671e-07
1.28368e-05
-6.19785e-08
-4.4112e-07
-7.41141e-07
-6.27799e-07
7.54671e-09
-7.73212e-08
-0.00432662
0.000121959
-8.25314e-08
2.28718e-08
0.000271724
5.5085e-09
-4.56318e-07
1.96544e-08
-2.71244e-07
5.98122e-05
-1.02173e-07
0.000185747
-2.08757e-07
1.36086e-08
-6.32819e-07
2.58009e-08
-3.67736e-07
-0.000556019
-3.72101e-07
-0.00466391
2.46237e-08
3.75783e-09
-6.07857e-07
8.36754e-09
-1.37494e-08
-3.67888e-07
-2.68159e-07
-5.51993e-07
-9.42116e-08
1.80838e-08
-1.13792e-07
-6.57176e-08
2.09715e-08
8.2142e-09
1.83308e-08
3.07866e-06
-1.31915e-07
1.95e-08
-6.90771e-07
3.8266e-09
2.37555e-08
-0.000850601
3.67064e-08
0.000261745
-2.29107e-07
-0.00137641
-7.85444e-07
-1.10836e-06
3.24756e-06
-2.66604e-07
-1.00245e-05
-1.10996e-07
-4.75592e-07
-8.96912e-08
-7.45975e-08
-5.4115e-09
1.08705e-08
-3.10685e-07
7.17428e-09
-1.17757e-07
1.75395e-08
-3.74749e-08
0.00021788
0.000529343
6.13212e-06
-2.65587e-07
5.42297e-07
0.000370787
0.00047276
1.20207e-08
-2.87242e-07
4.32445e-06
-1.12327e-07
-2.87327e-07
-0.00013362
-0.000912647
-3.39713e-07
-5.98283e-07
-9.27014e-09
-3.78335e-08
1.42572e-09
-2.08318e-08
0.00432322
1.846e-08
-6.25685e-08
-0.00585167
-3.26998e-07
-8.43762e-06
-0.00104727
-9.92218e-07
1.6089e-08
1.84229e-08
-1.00247e-07
0.000591686
0.000180639
-0.00557961
-2.24319e-07
1.898e-08
0.00041999
2.01876e-08
-3.07913e-07
2.90475e-07
-2.38992e-07
-4.68746e-07
2.03988e-08
-0.00281533
-0.00313938
-2.11195e-07
-4.92214e-07
-7.36358e-07
-0.000514922
-3.54385e-07
-7.94516e-07
-5.15661e-07
-4.98886e-07
0.000104231
-7.77694e-07
1.50888e-08
-5.11826e-07
3.75787e-07
-0.00351607
2.18247e-08
-0.0012599
-3.47257e-07
-8.46857e-07
3.82105e-10
-0.00233059
-2.55592e-07
-1.07568e-09
-2.85459e-08
-2.04548e-07
-1.83578e-07
2.45798e-07
2.67705e-08
-5.39523e-09
-1.10313e-07
9.17077e-05
-2.30278e-07
1.30245e-08
1.8165e-08
-5.22003e-07
-6.38395e-07
1.37481e-08
-1.81263e-07
0.00699437
-5.82584e-08
-0.00130128
-6.48251e-07
0.000378534
-1.05455e-06
1.58748e-08
-6.61822e-06
9.52657e-09
-3.489e-08
-4.46309e-07
-3.74531e-07
-4.75505e-07
-6.85594e-07
-4.18004e-08
-6.02903e-08
-2.99949e-07
-1.4407e-08
-4.85463e-08
1.87283e-07
-2.43585e-07
1.17664e-08
-2.4084e-06
-6.52442e-08
3.03025e-08
1.84241e-08
-0.000310505
-1.97879e-07
1.33279e-08
-1.87585e-07
5.02441e-09
-9.8342e-05
-7.70615e-07
-4.48263e-07
-0.00106735
-9.71886e-06
-2.32906e-06
-4.15358e-07
8.17503e-05
1.45592e-08
-2.09989e-06
-1.14882e-07
3.56117e-08
8.54947e-05
-0.000935474
-9.69959e-07
-2.28797e-06
1.35714e-08
-9.81093e-05
1.23852e-08
-7.7217e-07
-1.26165e-08
-0.00385781
-0.0032193
-2.83133e-07
2.68209e-08
-1.06524e-06
-5.19691e-07
1.9691e-08
0.00076293
1.53525e-08
9.94497e-09
-2.46646e-07
2.02047e-08
-1.23737e-08
2.7892e-08
2.04498e-08
-1.12623e-07
9.14585e-08
-4.74532e-07
-2.3627e-07
2.40294e-08
0.000361395
-0.00101792
2.79555e-08
-9.74888e-06
-1.36453e-08
-4.33203e-08
-0.00498453
2.50953e-08
8.84315e-09
-1.28815e-08
0.000459853
2.12551e-08
1.39071e-08
-3.33091e-07
-0.00293635
2.66494e-08
-1.12352e-08
3.25018e-07
5.27468e-05
-3.23987e-07
-3.2765e-07
-9.57685e-07
1.3637e-08
3.184e-07
-1.91218e-08
-6.37375e-05
-2.17028e-07
1.7945e-08
-3.73757e-07
-3.9665e-07
1.61798e-08
-1.07137e-07
-4.83497e-07
-0.00166527
-1.85266e-07
-8.46822e-05
1.25708e-08
-2.64519e-08
-4.41373e-07
2.28137e-08
-1.33293e-07
-0.00395724
1.0367e-09
-4.31898e-07
-6.22536e-07
0.00111122
-1.19225e-05
-1.94044e-07
3.72766e-08
-1.71362e-08
2.1884e-08
2.16859e-08
1.98782e-08
-0.00414812
9.4362e-09
-0.000199474
-7.38984e-07
-6.48675e-08
-1.1153e-07
-9.81516e-08
-7.33266e-07
-1.45585e-05
-2.18628e-07
-2.76628e-07
-1.86679e-08
-0.000602679
-1.79827e-07
-4.75338e-07
-5.48343e-07
-9.90771e-08
-4.46751e-07
-0.000183992
-6.16699e-07
-0.000459184
-0.00426632
0.000366548
-1.99246e-07
-4.8128e-09
-3.73782e-07
2.9043e-07
-1.16948e-07
-1.77988e-07
-5.18017e-07
8.81304e-09
-3.2694e-08
2.21187e-08
-8.35585e-08
-2.33873e-07
-9.32468e-08
0.000543571
2.86313e-08
0.000468819
2.02584e-08
4.85002e-07
-6.8771e-08
-7.47636e-07
4.70592e-08
1.89343e-08
-0.00318975
1.54945e-08
8.53925e-09
-5.13829e-07
-6.45041e-08
-1.87383e-09
-9.77288e-08
-0.00131847
-2.75232e-08
-4.01591e-07
-2.81215e-06
-0.00337987
-2.61644e-08
-0.000296568
3.15367e-05
-6.95259e-08
-1.04542e-07
-1.12755e-07
-1.26522e-07
-3.83231e-07
0.000356992
-4.67981e-08
0.000343547
3.26511e-09
1.31806e-06
-0.00448065
-1.52853e-07
-0.00358504
-3.55674e-08
-3.15298e-07
-9.6154e-09
-0.00290427
-1.39806e-07
1.96083e-08
-4.7316e-08
-3.95798e-07
-5.30992e-08
2.20107e-08
1.83185e-08
0.000658227
4.32212e-09
-3.37933e-08
-0.00059821
-1.22161e-08
1.54011e-08
-9.06511e-08
-3.7433e-08
-0.00430909
-1.75816e-08
2.10941e-08
1.32009e-08
-3.70852e-08
-1.00133e-07
-9.99982e-08
-6.2202e-07
-0.000384483
1.44867e-08
1.27192e-08
-0.00561704
-1.93267e-07
0.000186229
-2.68987e-07
-0.00147184
-3.10365e-08
-4.21776e-09
5.81196e-09
-0.000414653
-0.0010911
1.63619e-07
-1.53092e-07
-1.64422e-07
1.31845e-09
1.13135e-08
-0.00144065
1.99715e-08
-7.94824e-07
-9.24497e-08
-6.99658e-07
9.26821e-09
-0.00507337
8.52101e-09
-6.29558e-07
-3.76593e-08
-2.87324e-07
-2.74307e-06
-5.63991e-08
-5.90128e-08
-0.00348658
-6.46552e-07
-0.00441944
-0.00382148
-1.29898e-07
1.53198e-08
-2.92226e-07
-4.10882e-07
-0.0101012
-1.99762e-07
-6.09353e-07
3.25687e-08
-6.56402e-09
-0.000417838
0.000411859
-5.5983e-07
-5.5209e-07
-1.44055e-06
-1.30533e-07
-0.00111914
-1.18354e-07
-5.48573e-08
-4.10676e-07
-0.00375324
-4.99778e-07
-4.98855e-07
-3.76295e-05
6.61398e-09
-0.00264687
-0.000337702
-0.00504229
1.18651e-08
0.000437507
0.000533791
-3.50666e-06
6.39316e-06
-0.000218126
-7.55357e-07
-7.86236e-08
-7.23333e-07
6.55733e-08
6.15443e-09
-9.18917e-06
-5.76963e-07
-5.22763e-08
1.17081e-05
1.25643e-08
-3.54046e-07
-4.86279e-07
-6.79444e-09
-4.28316e-05
7.30644e-09
0.000120403
-6.91919e-07
1.39648e-07
-0.00255565
0.000158188
-5.34628e-07
2.06487e-08
8.9449e-09
-4.22743e-07
1.24746e-07
1.02453e-08
-3.81234e-07
-1.80317e-07
-3.70133e-07
1.14161e-08
-6.01365e-07
-1.76019e-08
-6.90855e-08
-0.00353725
-6.11539e-05
2.0291e-08
-4.52684e-07
0.00065086
1.56483e-08
-8.44625e-09
-0.00378056
-1.30426e-06
-7.6274e-08
-1.43511e-07
1.96919e-08
-1.01373e-07
-2.86675e-07
-0.000972439
-4.59379e-07
1.25017e-08
1.02576e-08
1.68129e-06
-4.76813e-08
-7.67554e-06
0.000496266
-7.6732e-09
2.06555e-08
-9.67018e-08
1.20806e-08
-1.24141e-07
-1.19141e-08
-8.28528e-08
-9.81146e-09
5.81424e-09
-1.4434e-08
1.79761e-08
-6.73303e-07
-0.00102696
3.23062e-09
-0.00441773
0.000333678
-2.21711e-08
7.19576e-07
-3.03737e-07
-4.27873e-08
1.17509e-08
-5.98856e-07
-2.32543e-07
2.9108e-07
-2.94426e-07
-5.40919e-08
1.01431e-08
0.000360448
-5.49837e-07
-0.00484923
1.00719e-08
2.17742e-08
2.18276e-08
-5.70722e-08
1.3453e-08
-4.93423e-07
-7.33421e-07
5.03335e-06
1.57304e-08
7.35683e-06
7.78432e-06
7.8877e-05
2.37418e-10
-5.07463e-07
-3.22321e-06
2.38973e-05
5.09596e-06
2.03766e-08
-7.25977e-09
-4.12527e-07
-0.000217599
-0.00434301
-4.52945e-07
-1.63389e-05
9.5362e-09
-8.8228e-08
-2.78438e-08
1.04805e-08
2.12684e-08
-6.08609e-07
3.44093e-09
5.78391e-07
-3.54007e-08
-0.00013614
-0.0037432
-0.00521933
-0.00371959
7.32641e-05
2.12765e-08
1.30882e-08
-0.00408878
-6.10511e-08
-5.84171e-08
-2.5068e-08
-4.4948e-07
-0.000823413
0.0003747
2.97229e-09
-1.70687e-07
-3.47059e-08
-2.94053e-08
-0.00010134
2.33707e-08
-0.0039686
-0.00024881
1.49124e-08
1.15253e-08
-0.000274843
-7.955e-07
-2.50386e-07
2.01867e-08
-0.00412037
0.000378878
-8.8721e-08
-8.01865e-07
3.40631e-09
3.94018e-05
7.2429e-06
-2.87006e-07
0.000667256
0.000254074
-0.00548629
-3.41335e-08
-1.96453e-07
7.82017e-09
9.7745e-09
-0.000731984
-5.8684e-09
-1.37488e-06
9.02187e-05
0.00039325
-8.39444e-08
-1.8493e-07
-1.18381e-05
-3.95686e-07
-0.0044246
0.000981907
-5.95194e-08
-2.33376e-07
-2.29333e-07
-9.04506e-07
-0.00151866
-7.58363e-08
-0.000299507
-1.75851e-08
-5.8431e-07
8.40896e-09
2.46818e-08
-9.24681e-07
-2.80999e-07
0.000263507
1.07597e-08
-2.16743e-07
-7.28995e-08
-7.28557e-07
-1.3535e-07
-0.00036319
-0.00121539
-3.74435e-07
-9.78723e-07
1.10023e-08
-7.23383e-09
-5.70641e-07
1.35811e-06
-0.000961106
-0.00399616
1.66681e-08
-0.00415617
5.54686e-07
0.000479146
-3.91646e-07
-3.08509e-07
-3.29472e-07
-3.26433e-08
-0.00497584
2.1543e-08
-3.3912e-07
-0.000479498
-0.000112014
-1.50129e-05
-0.000440486
-4.62649e-08
-5.0453e-07
-8.71606e-08
-5.36898e-05
-3.78455e-08
-0.0117289
-9.74304e-08
-0.00401397
-1.01085e-07
2.02988e-08
-3.1563e-07
4.43079e-09
-1.09962e-08
4.66731e-09
-0.000350619
-6.38805e-07
2.4202e-09
-1.7438e-07
-0.000404909
-2.89003e-06
2.23213e-08
0.00101762
-3.53513e-08
-4.78462e-07
-4.89789e-07
-1.04133e-08
-3.1659e-07
2.11834e-08
0.00164787
-1.10305e-08
-3.03377e-07
2.34449e-08
-3.33844e-07
-3.66337e-07
-1.04434e-07
-0.00515369
-9.2476e-05
-6.52239e-07
-2.05867e-07
-5.99121e-05
1.39512e-08
-6.92577e-07
-3.40575e-07
4.1767e-07
0.000300927
-0.000286036
7.38771e-07
-0.000525371
-1.0928e-07
1.59899e-07
-7.36136e-09
-0.00438892
-5.98812e-07
-4.59851e-07
3.08927e-07
7.21437e-09
-0.00334941
-2.96898e-07
-1.292e-06
-3.63274e-06
-0.00341061
-0.000379925
-0.000143318
0.000490089
2.10259e-08
1.89073e-09
1.69122e-08
-4.81391e-08
-7.21752e-08
-6.7361e-07
-5.6821e-08
6.69013e-09
0.000596054
1.12787e-08
1.35121e-08
-6.21738e-07
-5.30334e-07
-2.75578e-07
-2.72064e-08
0.000422835
-1.25074e-07
-7.22177e-07
1.15194e-08
0.000630042
1.8327e-08
-0.00365916
2.15024e-07
-3.18406e-07
-1.32187e-07
1.65057e-08
0.000113479
-1.08342e-05
-3.48565e-07
6.84856e-09
2.65938e-08
-0.000150647
0.0010923
-0.000833544
-1.05365e-07
-3.24002e-07
2.37542e-05
-8.97552e-08
2.33383e-08
-8.27534e-09
-0.000574785
-3.94551e-07
-1.14943e-07
-6.0827e-08
-2.95087e-07
-0.00354694
-5.35781e-08
-6.62011e-07
-3.36206e-07
-3.18334e-07
-8.59787e-08
2.61491e-07
-1.80158e-07
2.13653e-08
-0.00149643
0.00088397
0.000112316
-0.00174437
0.00045957
-0.00424493
-0.00392284
1.57992e-08
-1.59605e-07
-0.0044447
0.000463891
-0.00678877
1.05834e-08
-4.27289e-07
1.96586e-08
1.51108e-08
-0.00348688
-0.000238992
-5.28477e-07
2.33179e-08
1.23569e-05
-4.89257e-07
-4.33205e-07
-0.000121433
1.408e-06
-5.42895e-07
2.73356e-08
-0.000292385
-0.00409064
4.68161e-07
-4.80135e-07
-4.23983e-07
2.08638e-08
9.45678e-09
-3.20817e-07
-3.88877e-07
-3.65144e-08
-5.44655e-07
-2.7811e-07
-1.40929e-08
-1.0597e-05
-0.000245762
-1.00495e-08
-5.80134e-07
0.000110002
-2.95007e-06
1.54151e-08
1.83993e-06
-4.20546e-07
-0.000352935
-3.37925e-07
-3.17631e-08
-2.68357e-07
-8.0191e-08
-7.52411e-09
-3.48948e-09
2.91015e-07
-4.07688e-07
-6.58765e-07
-6.92967e-07
7.08605e-09
-4.44422e-08
-0.000331503
-0.00131457
0.000294619
-9.86944e-06
-8.25245e-07
-9.46152e-08
2.0717e-08
-2.43941e-07
-7.55028e-08
-0.00295504
2.12059e-08
1.5185e-09
-3.11773e-08
-0.00138593
-0.00914021
1.54231e-08
-6.08596e-07
-8.80183e-08
-2.68745e-08
-2.15991e-07
-3.18141e-07
-4.82427e-07
-2.2666e-07
0.000229093
-2.48528e-07
0.0003709
-1.70935e-07
5.1414e-05
-3.82755e-07
2.87003e-08
-4.82754e-09
-5.67441e-07
-5.8725e-07
9.45369e-09
-1.18457e-08
1.28231e-07
-2.68667e-07
-0.00375127
0.000806689
-0.00433302
9.86181e-10
1.92262e-05
2.39169e-08
-1.57042e-07
2.04987e-08
-3.20943e-07
-1.43473e-08
-0.000444486
-4.92191e-07
-7.93026e-08
1.7192e-08
-0.00135055
4.84657e-08
-0.000173392
0.000379441
-1.15342e-05
-2.02246e-08
-4.2422e-07
-0.00390311
3.11786e-05
-0.000265782
-3.17801e-07
-3.95186e-08
-1.45995e-07
-1.20812e-07
-0.00595587
-1.75709e-08
-3.55449e-07
1.08271e-05
0.00100711
-3.96069e-08
6.20092e-09
0.00082957
-3.36437e-07
-0.00409583
1.02269e-07
1.84015e-08
-3.54808e-07
-7.27604e-07
2.70747e-08
-0.0046612
-1.45409e-07
-2.70027e-05
-1.2652e-07
2.42809e-09
3.59746e-09
-7.20894e-07
1.72643e-08
3.67282e-07
1.97844e-08
-2.40775e-08
-1.18365e-07
-3.18809e-07
-4.69978e-08
2.08278e-08
-1.70958e-07
-1.19351e-05
-6.43443e-07
-3.32512e-07
-5.2921e-09
-3.28315e-07
1.57668e-08
4.642e-07
-2.28256e-07
-4.26201e-07
-1.52105e-06
-4.78027e-07
7.61958e-08
5.08129e-07
-1.23904e-07
-5.83591e-07
0.000195267
-0.000537113
-1.03218e-07
-1.63037e-06
-0.000212661
1.23843e-08
1.70831e-08
-3.83479e-07
-8.08058e-05
-3.01844e-08
-0.000247024
-1.27412e-06
-1.61339e-07
-6.9776e-07
-6.63716e-08
-2.17232e-07
-3.82954e-07
-0.00647364
-1.15603e-07
5.27072e-05
-1.11441e-06
-0.00170794
5.41361e-05
-2.43258e-07
-0.000261714
1.82256e-08
-0.00373808
0.000166744
1.71349e-08
2.32962e-08
-0.000504917
1.9099e-08
1.75395e-08
-1.25843e-05
-0.00164887
-7.45777e-07
-3.07523e-07
0.000142395
2.52482e-08
-0.00156993
-0.00024444
1.16371e-08
-3.02604e-05
0.00013691
0.000510322
-0.00045505
-0.000290541
-0.000461197
1.08519e-08
1.6189e-08
-3.89723e-07
-5.46197e-07
1.76658e-08
-2.52179e-06
1.8858e-08
-0.000336467
-6.17323e-06
-4.14234e-07
-4.96236e-06
-0.00038289
-4.21575e-06
-3.44012e-06
2.33138e-06
0.000482509
3.49399e-06
-3.16639e-07
-4.12859e-08
-0.00429393
-1.02359e-08
-4.89873e-08
-0.00182348
1.88214e-08
-0.00450844
2.13334e-08
-0.000314841
-2.81092e-07
1.71409e-08
-0.000136964
-2.02199e-08
1.39827e-08
-0.000447562
-0.00535557
-1.4885e-05
-3.6676e-07
-7.31965e-07
7.20732e-09
-6.15128e-07
-6.22532e-07
-5.49075e-07
1.3545e-08
5.57981e-07
-4.45723e-07
-8.91269e-08
-0.00038223
-3.97541e-07
5.71803e-09
-3.51865e-07
-3.99039e-07
-6.26108e-07
1.80226e-08
-1.10608e-06
-7.09695e-09
-6.34164e-07
0.000539501
0.000164895
1.54012e-08
-2.99921e-07
0.000296149
-2.17985e-07
-3.12996e-07
-4.75608e-07
-3.56186e-07
-0.00423456
-4.91275e-07
1.51142e-08
-0.00194344
1.48384e-08
-0.00138792
1.62294e-08
-1.00525e-07
-6.1601e-07
-0.000909806
-1.17375e-07
1.69416e-06
7.96754e-07
-4.33328e-07
-4.62523e-08
4.54234e-07
-3.65767e-07
0.000521001
-7.13299e-09
-0.0530801
-2.98956e-07
-4.5417e-07
-2.34844e-07
-3.82441e-07
5.82383e-09
-4.37552e-07
-5.1839e-07
-3.261e-08
-9.91756e-08
-1.68658e-07
-3.36602e-06
1.84439e-08
-6.81839e-08
-5.71593e-08
-7.30395e-07
-1.44474e-07
-5.37075e-07
-0.00013522
2.63347e-08
-1.023e-06
-6.25604e-08
2.34024e-08
1.38173e-08
1.18239e-08
-3.49215e-07
1.96873e-08
-6.97414e-07
0.000457561
-5.91776e-07
-4.83642e-07
-2.4526e-07
-2.38295e-08
-0.000154874
1.36319e-08
-0.00417988
-0.00552376
0.000605669
-6.55123e-07
-1.4761e-07
-3.52349e-07
1.21528e-08
-1.07433e-08
9.47766e-07