/*--------------------------------*- C++ -*----------------------------------*\
| =========                 |                                                 |
| \\      /  F ield         | OpenFOAM: The Open Source CFD Toolbox           |
|  \\    /   O peration     | Version:  v2012                                 |
|   \\  /    A nd           | Website:  www.openfoam.com                      |
|    \\/     M anipulation  |                                                 |
\*---------------------------------------------------------------------------*/
FoamFile
{
    version     2.0;
    format      ascii;
    class       surfaceVectorField;
    location    "800";
    object      Uf_0;
}
// * * * * * * * * * * * * * * * * * * * * * * * * * * * * * * * * * * * * * //

dimensions      [0 1 -1 0 0 0 0];


internalField   nonuniform List<vector> 
20580
(
(1.08267 -0.0347381 -1.24472e-21)
(1.08279 -0.0343167 0)
(1.08229 -0.0346147 -1.28354e-20)
(1.04387 -0.0407256 1.14335e-21)
(1.04371 -0.0414663 -2.47743e-22)
(1.0448 -0.041325 2.6088e-21)
(1.044 -0.0397828 -1.7907e-21)
(1.04288 -0.0399969 4.99336e-23)
(-0.15003 0.000388441 3.33102e-20)
(-0.118466 -0.00406044 1.71729e-20)
(-0.147828 -0.000135245 9.559e-21)
(1.00134 -0.000364977 0)
(1.00119 -0.000332804 -5.13025e-21)
(1.00125 -0.00019986 0)
(1.04594 -0.0510885 1.55882e-21)
(1.04528 -0.0522077 -1.5531e-22)
(1.04443 -0.0509553 -1.52748e-22)
(1.05369 -0.0211598 1.08997e-21)
(1.05433 -0.0211664 1.0018e-21)
(1.01154 -0.00101485 1.43639e-22)
(1.01117 -0.00100167 -4.61427e-22)
(1.01052 -0.000618983 1.44485e-21)
(0.36436 0.00360761 9.90063e-22)
(0.367922 0.0032858 4.45007e-21)
(0.344999 0.00259841 7.20512e-21)
(0.988558 0.00385425 7.7696e-21)
(0.989143 0.00431265 5.33576e-21)
(0.989422 0.00350645 7.9858e-21)
(1.08215 -0.0978004 -6.46621e-21)
(1.07913 -0.0974701 4.79582e-21)
(1.08068 -0.100581 4.599e-21)
(0.999477 -0.00408289 -4.42966e-21)
(0.999529 -0.00435173 -9.8167e-22)
(0.999372 -0.00428455 1.69349e-21)
(0.975319 -0.00201612 3.88092e-21)
(0.974635 -0.00275292 1.27888e-20)
(0.975874 -0.00293103 2.38813e-21)
(0.198335 -0.00254868 9.91236e-21)
(0.185942 -0.00439913 -4.97229e-21)
(0.20389 -0.00149567 3.35743e-21)
(1.06754 -0.0371673 -1.70374e-21)
(1.06812 -0.0375885 4.44121e-21)
(1.06729 -0.0377934 -1.54436e-21)
(1.08378 -0.0296223 1.2727e-21)
(1.08399 -0.0293067 0)
(1.08411 -0.0298255 0)
(-0.198306 0.0135225 -1.00907e-20)
(-0.22753 0.0137117 3.89057e-20)
(-0.209544 0.0165201 0)
(1.02286 -0.0246321 -1.53163e-21)
(1.02353 -0.0249953 -1.36207e-21)
(1.02291 -0.0254429 -5.45496e-22)
(1.10133 -0.0354709 -5.71872e-21)
(1.10242 -0.0360071 -2.0473e-20)
(1.10265 -0.0346595 3.33587e-21)
(1.08302 -0.0349126 -1.18694e-21)
(1.08248 -0.0350713 6.65826e-21)
(1.0707 -0.04205 2.61447e-21)
(1.06997 -0.0424859 1.8695e-21)
(1.06981 -0.0415326 0)
(1.00516 -0.0767713 1.65143e-21)
(1.0028 -0.0764335 -1.40946e-21)
(1.00459 -0.0742993 -4.38553e-22)
(0.913705 -0.393003 -1.90681e-20)
(0.794955 -0.344874 -2.41344e-20)
(0.694335 -0.285986 -1.18284e-20)
(1.00003 -0.000113368 -1.04231e-22)
(1.00005 -0.000151791 -7.39248e-21)
(1.00003 -9.60128e-05 -5.49213e-21)
(1.15263 -0.0592781 -4.61259e-23)
(1.15722 -0.0627724 -4.86485e-20)
(1.17288 -0.0589745 -3.54392e-20)
(1.07753 -0.0267936 -2.61008e-21)
(1.07799 -0.0267471 0)
(1.07784 -0.0271668 3.92627e-21)
(1.07759 -0.0329347 4.6802e-21)
(1.07775 -0.032821 1.15669e-21)
(1.07764 -0.0329786 1.15605e-20)
(1.10475 -0.0274083 -5.69673e-21)
(1.10289 -0.0272299 1.94293e-20)
(1.10651 -0.0259569 6.47531e-21)
(0.454264 -0.00298259 -5.88687e-21)
(0.43428 -0.00270019 1.9758e-21)
(0.428465 -0.00292549 -5.51944e-21)
(1.01484 -0.014056 0)
(1.01437 -0.0141764 2.30814e-21)
(1.0144 -0.0135834 -2.52435e-21)
(0.0411868 0.00680296 3.19207e-20)
(-0.00171505 0.00917027 0)
(0.0690451 0.00896973 -1.89233e-20)
(1.05366 -0.0216708 1.16904e-21)
(1.05301 -0.021141 1.07247e-21)
(1.08154 -0.0341369 3.02094e-21)
(1.08131 -0.0339664 -2.98031e-21)
(1.08121 -0.034314 -2.89626e-21)
(0.45381 0.0134728 1.5692e-21)
(0.446954 0.0139925 1.98201e-21)
(0.496687 0.01325 7.64482e-22)
(1.06278 -0.0866985 1.69697e-21)
(1.0638 -0.0848046 1.70188e-21)
(1.06467 -0.0875171 -2.08066e-22)
(0.449449 -0.0031997 3.38212e-22)
(0.474696 -0.00325737 1.30021e-22)
(0.454791 -0.00394951 6.70415e-21)
(1.00001 -7.35091e-05 7.50225e-21)
(1.00003 -0.000135366 8.40479e-21)
(1.19596 -0.139767 1.70735e-20)
(1.21894 -0.143883 -2.67132e-20)
(1.21895 -0.138327 -5.59477e-21)
(0.160322 0.0266623 -1.12301e-20)
(0.181334 0.0270107 -1.16586e-20)
(0.22433 0.0255293 -2.46842e-20)
(0.992863 -0.0274052 0)
(0.993825 -0.0269173 -6.0779e-21)
(0.99372 -0.0280601 0)
(0.322555 0.0214097 0)
(0.366672 0.0224263 0)
(0.330799 0.0212593 -1.08738e-20)
(0.473822 -0.00255767 0)
(0.480085 -0.00299061 0)
(-0.233571 0.0135773 -3.65155e-20)
(-0.23483 0.0117142 1.92233e-20)
(1.02835 -0.376696 -1.05535e-20)
(1.0281 -0.387522 -3.57993e-20)
(1.01516 -0.386473 -1.30589e-20)
(0.499067 -0.00088736 -6.30097e-22)
(0.49236 -0.000610722 -5.4479e-21)
(0.46925 -0.00160208 -5.12276e-21)
(1.00579 -0.0192362 4.09881e-21)
(1.0052 -0.0189762 -2.95033e-21)
(1.00565 -0.0184804 8.05441e-21)
(1.02296 -0.00144454 -1.08763e-21)
(1.02296 -0.00105176 1.65935e-21)
(1.08148 -0.0312931 3.43673e-21)
(1.08172 -0.0313508 2.16066e-21)
(1.08155 -0.0310677 2.19048e-21)
(1.01741 -0.054381 -3.80553e-22)
(1.01662 -0.0524973 2.23819e-21)
(1.01855 -0.0531523 1.72264e-21)
(0.97595 -0.0011488 -1.92605e-21)
(0.974523 -0.00104128 1.1062e-21)
(-0.05771 0.013002 1.83804e-20)
(-0.0548255 0.0116096 3.63384e-20)
(-0.0873973 0.0108102 4.91153e-20)
(0.969323 0.0071019 -1.08952e-22)
(0.970543 0.00657028 9.79891e-21)
(0.969344 0.00577127 -5.31698e-22)
(1.08351 -0.0299164 -2.10997e-22)
(1.0834 -0.0294139 2.83505e-21)
(1.06426 -0.0253517 -1.17411e-21)
(1.06489 -0.0255803 1.39008e-21)
(1.06481 -0.0249859 1.34547e-22)
(0.224338 -0.00625853 -2.57907e-21)
(0.242273 -0.00494529 0)
(0.221152 -0.00608989 0)
(0.992106 -0.0280288 -4.78766e-21)
(0.992132 -0.0268058 1.65241e-21)
(1.08174 -0.0338368 1.42496e-20)
(1.08182 -0.0342453 1.42056e-20)
(0.311715 0.0225651 -9.53023e-21)
(0.285282 0.0186116 -1.41699e-20)
(1.0833 -0.0342626 -7.69322e-23)
(1.08873 -0.0349644 -2.96675e-21)
(1.0892 -0.035138 -1.7953e-21)
(0.108787 0.00207256 -7.33723e-21)
(0.118131 0.0018997 -9.65375e-22)
(0.130889 0.00352402 6.53757e-22)
(0.99945 -0.003818 1.06861e-21)
(0.999575 -0.00388364 0)
(1.07916 -0.032963 -1.85725e-21)
(1.07888 -0.032859 5.28809e-21)
(0.994989 0.00580597 -2.43158e-22)
(0.994947 0.00533253 4.36447e-21)
(0.994451 0.00578761 4.66967e-21)
(1.01628 -0.0550777 -1.0287e-21)
(1.01796 -0.0555536 -3.2774e-23)
(0.82829 -0.366406 3.21957e-20)
(0.849644 -0.36217 -2.10732e-23)
(0.835584 -0.347303 -2.20476e-20)
(0.804712 -0.370374 2.03143e-21)
(0.821805 -0.392418 6.24783e-21)
(0.0986344 0.000350155 -7.29274e-21)
(0.0843391 -0.00118206 -1.24103e-20)
(0.69195 -0.0564077 0)
(0.684904 -0.0716482 -1.83496e-20)
(1.00455 -0.033741 5.18823e-22)
(1.00357 -0.0334548 -4.27882e-21)
(1.00441 -0.0327314 -4.22273e-21)
(-0.0667251 -0.00215483 -4.15173e-20)
(-0.107757 0.00342976 3.14023e-20)
(-0.0905177 0.0021125 -3.42368e-20)
(-0.03582 0.0164677 -2.64176e-20)
(-0.074505 0.0185916 3.2562e-20)
(-0.036517 0.0146842 1.25222e-20)
(1.07394 -0.0424463 -5.40237e-21)
(1.07409 -0.0431706 -5.18708e-21)
(1.07481 -0.0426897 -8.83563e-22)
(0.986453 -0.0135853 -1.87889e-21)
(0.985829 -0.0130117 9.58714e-23)
(0.985609 -0.0140139 8.01414e-21)
(0.122978 0.00188582 -9.69467e-22)
(0.0981003 -0.000866442 -4.59621e-21)
(1.06576 -0.028348 3.03694e-21)
(1.06512 -0.0285053 2.51994e-21)
(1.06568 -0.0288872 -2.82176e-21)
(0.99475 -0.0602343 1.4598e-21)
(0.993193 -0.0587344 4.79753e-22)
(0.995206 -0.0580509 4.86678e-21)
(-0.182115 0.0134195 2.33288e-22)
(-0.164909 0.0141289 -1.90304e-20)
(1.0184 -0.00954416 -2.72665e-21)
(1.01797 -0.009765 -3.47537e-21)
(1.01869 -0.0101245 6.92547e-22)
(1.15039 -0.0560026 3.74036e-20)
(1.14273 -0.0589305 4.44388e-20)
(0.999291 -0.0121539 7.59858e-23)
(0.999382 -0.011636 4.945e-21)
(0.998955 -0.0116933 -1.26529e-20)
(1.00557 -0.0341977 2.82327e-22)
(1.00467 -0.0349524 2.45955e-21)
(1.1392 -0.0940333 5.16367e-21)
(1.13882 -0.0909136 0)
(1.14211 -0.093469 -1.92088e-20)
(1.06059 -0.0861622 0)
(1.06121 -0.0888384 0)
(0.183105 -0.00357758 3.85136e-21)
(0.191086 -0.0028702 -5.21661e-21)
(0.204128 -0.000540525 -9.31999e-21)
(0.126542 0.00139723 7.19102e-22)
(0.143883 0.00362838 -6.56554e-21)
(-0.0206145 0.014143 -5.6435e-21)
(-0.00560557 0.013429 3.61045e-20)
(0.0403047 0.0100481 2.58875e-20)
(1.00619 -0.0791035 9.34781e-21)
(1.00765 -0.0767543 -5.0114e-21)
(0.286633 -0.0105375 0)
(0.263373 -0.0116623 5.94252e-21)
(0.289604 -0.0106005 4.16121e-21)
(0.988278 -3.04556e-05 6.56337e-21)
(0.988624 -0.000678207 -8.20705e-21)
(0.988975 -1.82082e-05 -1.77858e-20)
(0.068304 0.0012544 2.83706e-20)
(0.00609881 0.00851596 -1.88225e-20)
(0.967419 0.00772523 -9.15024e-21)
(0.969183 0.00883739 -1.80202e-20)
(1.05365 -0.0221409 2.33377e-21)
(1.05425 -0.0221429 -1.90257e-21)
(-0.130529 0.0102081 2.29386e-20)
(-0.129005 0.00811277 -7.91786e-21)
(-0.0367799 0.0137853 -2.54774e-20)
(-0.0689196 0.0148802 5.41598e-21)
(0.143978 0.0277204 -5.59552e-21)
(0.125836 0.0248538 6.64e-22)
(0.104042 0.0223863 1.7417e-20)
(1.02039 -0.357864 1.11619e-20)
(1.01339 -0.342562 4.85406e-21)
(1.003 -0.352859 -2.22542e-21)
(1.0013 -0.0182133 -3.04493e-21)
(1.0007 -0.017979 -9.33649e-21)
(1.00094 -0.0188404 7.56704e-21)
(1.08258 -0.0309665 -1.75463e-21)
(1.08282 -0.0307206 8.96597e-22)
(1.08248 -0.0306228 -1.01216e-20)
(0.0118434 0.0101921 2.76156e-21)
(0.0139832 0.00928077 8.05447e-21)
(-0.0117806 0.0071889 -1.55929e-22)
(1.11158 -0.159456 3.48697e-22)
(1.11679 -0.159563 -1.87946e-20)
(1.114 -0.164556 3.35324e-20)
(1.08238 -0.0312137 2.67342e-21)
(1.08268 -0.0312924 2.79837e-21)
(0.794904 -0.0676657 -5.21592e-20)
(0.79414 -0.0576274 -4.93969e-20)
(0.804104 -0.0630459 3.18272e-20)
(0.798889 -0.0987209 2.73019e-20)
(0.798124 -0.0881163 4.16341e-20)
(0.787312 -0.0944913 -1.63406e-20)
(0.981356 -0.0128059 1.00948e-20)
(0.982094 -0.0133839 -9.92155e-21)
(0.981032 -0.0139942 -6.37435e-21)
(1.00829 -0.0198801 1.04759e-20)
(1.00851 -0.0206407 -6.2662e-22)
(1.00885 -0.0200496 -1.04254e-21)
(1.07342 -0.0485184 -2.44069e-21)
(1.07371 -0.0494118 -1.12746e-20)
(1.07453 -0.048385 4.60799e-21)
(1.0081 -0.0190829 3.32986e-21)
(1.0076 -0.0196466 -9.2375e-21)
(-0.0353373 0.0158158 -6.12171e-21)
(0.0109038 0.0126138 -9.68914e-20)
(1.05296 -0.0221681 2.06488e-21)
(1.05366 -0.0226539 -7.19558e-23)
(1.0222 -0.0243216 0)
(1.02278 -0.02392 0)
(0.988425 -0.101414 4.65835e-22)
(0.989304 -0.105015 5.59289e-21)
(0.985472 -0.103457 -2.2006e-21)
(1.00642 -0.0196038 -3.06958e-21)
(1.006 -0.0201549 -7.21805e-21)
(1.1089 -0.058448 -5.44776e-21)
(1.10825 -0.0568929 0)
(1.11011 -0.0576121 0)
(1.0847 -0.0689212 0)
(1.08313 -0.0680924 5.51545e-21)
(1.08319 -0.0699093 0)
(1.08038 -0.0332385 5.95808e-21)
(1.08029 -0.0331344 8.80535e-21)
(1.08048 -0.0331177 1.20318e-20)
(1.06364 -0.0250599 0)
(1.06367 -0.0255983 -7.77906e-22)
(1.01054 -0.00834004 -1.02059e-21)
(1.01024 -0.00848044 -1.0634e-21)
(1.01072 -0.00874123 -3.67872e-21)
(1.01199 -0.00093445 5.52604e-21)
(1.01199 -0.00140105 2.59383e-22)
(-0.178976 0.00443934 0)
(-0.155552 -0.000363115 0)
(-0.0301753 -0.00642641 2.36738e-20)
(-0.0085101 -0.00739864 3.58932e-21)
(1.03774 -0.283102 0)
(1.03046 -0.29168 0)
(1.04226 -0.292301 -2.52124e-21)
(1.01986 -0.0204118 -2.28171e-22)
(1.01912 -0.0199589 4.36754e-21)
(1.01971 -0.0197002 2.106e-21)
(0.999963 -0.0317309 1.46461e-21)
(1.00059 -0.0325445 -1.24523e-20)
(0.999561 -0.0326759 -8.4706e-21)
(0.21576 0.00728483 -1.40781e-21)
(0.233797 0.00933819 -4.18052e-21)
(0.213605 0.00833597 -5.0478e-21)
(1.09274 -0.0339077 -3.04504e-21)
(1.09368 -0.0339642 -9.79816e-21)
(1.09315 -0.0329506 -1.62188e-20)
(0.594391 -0.125192 -4.73278e-20)
(0.617006 -0.119327 -2.63485e-20)
(0.61239 -0.147496 2.09271e-20)
(1.00192 -0.018582 0)
(1.00168 -0.0176779 0)
(1.05954 -0.130417 1.62431e-22)
(1.05859 -0.126184 4.10943e-22)
(1.05606 -0.129715 5.66566e-22)
(0.354506 0.0162324 -2.0355e-21)
(0.321508 0.0156791 3.17013e-22)
(0.348821 0.0165682 -2.02604e-21)
(1.07224 -0.0384932 -7.16956e-22)
(1.07287 -0.038459 -5.39958e-22)
(1.07232 -0.0390547 9.23567e-22)
(1.00042 -0.0755159 2.60666e-21)
(1.00075 -0.0782694 3.10373e-21)
(1.04844 -0.0718121 -2.0734e-21)
(1.04973 -0.0702011 7.04893e-21)
(1.04747 -0.0702569 4.28869e-21)
(1.17107 -0.139558 2.90322e-20)
(1.17158 -0.135249 2.42587e-20)
(0.467476 0.0125086 2.78429e-21)
(0.422725 0.0138889 8.33695e-22)
(1.0847 -0.0985351 -2.09931e-21)
(1.08321 -0.0958663 -7.90874e-21)
(0.143149 0.0274554 1.14204e-20)
(0.109141 0.0280666 2.41138e-20)
(0.0971157 0.0276597 -1.62555e-20)
(0.708644 -0.0558552 -5.95969e-20)
(-0.000173107 0.0139195 1.29565e-20)
(-0.042629 0.0163579 -2.66031e-21)
(0.840839 -0.0440123 2.57313e-20)
(0.83211 -0.0417702 -1.24685e-20)
(0.837626 -0.0354724 -1.23007e-20)
(1.07207 -0.0371271 2.51559e-21)
(1.07148 -0.0368431 -1.10484e-20)
(1.07216 -0.03648 -2.74856e-21)
(1.13963 -0.0976185 -2.04934e-21)
(1.13603 -0.0947256 4.69768e-20)
(0.962314 -0.0238956 8.86677e-21)
(0.962923 -0.0220698 0)
(0.96433 -0.0233277 -1.60376e-20)
(0.987821 0.000526595 1.10935e-20)
(0.987467 -0.000211457 1.1956e-20)
(0.724712 -0.225049 2.49854e-20)
(0.708601 -0.237582 4.02153e-20)
(0.729987 -0.241651 -6.16629e-21)
(1.14274 -0.0417593 -1.39769e-20)
(1.16132 -0.0428567 -1.35893e-20)
(1.1599 -0.0407953 3.68091e-21)
(0.985229 -0.0540661 -5.60341e-21)
(0.984346 -0.0555974 -2.35443e-21)
(0.982945 -0.0540902 -2.69889e-21)
(1.01878 -0.00934113 -1.18979e-21)
(1.01814 -0.00907639 -2.71584e-21)
(-0.0560184 0.013651 -1.63767e-20)
(0.342255 -0.00301317 2.05839e-21)
(0.345302 -0.00171104 2.02636e-21)
(0.323234 -0.00358125 -8.17341e-22)
(1.06145 -0.133616 -5.27866e-21)
(1.06323 -0.129991 0)
(1.08218 -0.0311566 2.82063e-22)
(1.08226 -0.0314438 -4.03869e-23)
(1.1095 -0.060365 4.08601e-21)
(1.10738 -0.0594043 -6.31404e-21)
(1.08622 -0.0697122 0)
(1.0861 -0.0679191 0)
(1.09815 -0.0363273 -1.7934e-20)
(1.09915 -0.0368999 -9.27666e-22)
(1.09793 -0.0374766 -6.29629e-22)
(0.966636 -0.00181824 8.8902e-21)
(0.96691 -0.00332993 1.76658e-20)
(0.965167 -0.00282349 1.10065e-20)
(0.980905 0.00596847 -1.37694e-21)
(0.980539 0.00680551 6.43311e-21)
(0.981574 0.00663502 1.65286e-20)
(1.00004 -0.00354637 0)
(0.999938 -0.00355282 3.57542e-21)
(0.999984 -0.00329757 -9.97669e-21)
(0.142599 0.0250646 -1.19332e-20)
(0.111922 0.0234567 0)
(1.07058 -0.0374837 6.11242e-21)
(1.07087 -0.0370324 -2.40823e-21)
(1.07029 -0.0369971 1.02425e-20)
(1.04911 -0.0258124 6.99529e-22)
(1.04976 -0.0258089 -6.83012e-22)
(1.04954 -0.0263601 1.34879e-21)
(1.00006 -0.000274778 4.21508e-21)
(1.00007 -0.000242084 -1.70841e-20)
(1.0001 -0.000331025 -1.10234e-20)
(0.441436 -0.00427037 -1.54359e-21)
(0.437444 -0.00315723 8.13354e-21)
(0.464162 -0.00363639 -3.19455e-21)
(1.0733 -0.0474463 -7.68966e-22)
(1.07228 -0.0483955 5.45598e-21)
(1.0812 -0.0312413 -7.99109e-21)
(1.08137 -0.0315039 5.33417e-21)
(0.209538 -0.00209398 6.82792e-21)
(0.190997 -0.00422865 5.18845e-21)
(0.431856 0.00420739 4.56537e-21)
(0.40859 0.00448346 -3.76082e-21)
(0.435387 0.00316049 3.06934e-21)
(0.424837 0.00452211 5.09102e-22)
(0.458768 0.0043262 1.54874e-21)
(-0.0634467 0.0133642 -3.04044e-20)
(-0.0344806 0.0151428 3.42359e-22)
(0.991441 -0.0992682 -1.99885e-21)
(0.987833 -0.0977896 0)
(0.891846 -0.00176909 0)
(0.905747 -0.0022858 0)
(0.832847 0.00188123 2.12384e-20)
(0.999423 -0.00358336 3.96009e-21)
(0.999405 -0.00333679 -8.89291e-22)
(0.999517 -0.00339701 1.05257e-20)
(1.0109 -0.00822701 3.547e-22)
(1.01038 -0.00791368 -1.20527e-21)
(1.07957 -0.0514389 -3.92291e-21)
(1.07976 -0.0525827 1.08137e-21)
(1.07856 -0.0521172 0)
(1.00071 -0.000247905 -1.90465e-21)
(1.00063 -0.000316098 -4.30306e-21)
(1.00059 -0.000206704 -3.70844e-21)
(0.156373 0.0276371 2.51782e-21)
(0.189586 0.0278031 -1.81715e-20)
(1.07755 -0.0315095 -7.17635e-22)
(1.07994 -0.0318514 8.15197e-21)
(1.07771 -0.0316764 2.8704e-21)
(1.08117 -0.0322271 -1.37466e-21)
(1.08104 -0.0323259 1.37929e-21)
(1.08118 -0.0323825 -2.18321e-21)
(1.01124 -0.00812712 1.35792e-21)
(1.01137 -0.00852042 4.13548e-21)
(1.06585 -0.0273251 5.59498e-22)
(1.0658 -0.0278874 1.27988e-21)
(1.06524 -0.0274518 -6.17906e-21)
(1.08133 -0.0321024 2.07493e-21)
(1.08112 -0.0320344 5.30224e-21)
(1.09174 -0.0335182 1.85489e-20)
(1.092 -0.0346628 9.70646e-21)
(1.0405 -0.364521 2.60794e-21)
(0.993988 -0.0969432 -3.18228e-22)
(0.993231 -0.0936183 8.02936e-21)
(0.996356 -0.0946312 1.78127e-21)
(1.07212 -0.0377044 6.23563e-21)
(1.07141 -0.0382727 0)
(-0.220638 0.0101508 1.31219e-20)
(-0.219221 0.012397 6.74431e-21)
(0.356529 -0.00216543 7.57448e-21)
(0.336991 -0.00457541 3.36421e-21)
(1.08111 -0.0338699 -2.6886e-21)
(1.08134 -0.0337181 5.54716e-21)
(0.881451 -0.0257808 4.49384e-21)
(0.877712 -0.0216009 1.48091e-21)
(0.875874 -0.0275238 1.56515e-20)
(0.970125 -0.00554989 1.45749e-21)
(0.969953 -0.00421096 -5.73571e-21)
(0.971412 -0.0046624 -1.24856e-20)
(1.01127 -0.0161215 -2.69367e-21)
(1.01107 -0.0166156 1.60511e-21)
(1.01177 -0.0166433 1.4134e-21)
(1.12558 -0.0420761 -1.47486e-20)
(1.12421 -0.0409312 1.36801e-20)
(1.07072 -0.0380265 5.19933e-22)
(1.06997 -0.0378727 3.45674e-21)
(0.17614 -0.00466152 -3.91001e-21)
(0.162475 -0.00565921 1.91323e-21)
(1.04629 -0.0497798 1.59784e-21)
(1.04724 -0.050962 -1.50629e-21)
(0.986027 -0.0521939 -2.57676e-21)
(0.987534 -0.0538304 3.6767e-21)
(1.08304 -0.0304864 5.87087e-21)
(1.0833 -0.0302088 -1.56874e-21)
(1.08293 -0.0300448 5.25582e-21)
(1.0809 -0.0338176 -6.26698e-21)
(1.08084 -0.0340844 7.17589e-21)
(1.0342 -0.0242861 8.29234e-22)
(1.0346 -0.0249045 1.91091e-22)
(1.03378 -0.0247702 -9.89431e-22)
(1.02417 -0.0330215 -1.51353e-21)
(1.02323 -0.032542 2.52107e-21)
(1.02409 -0.0321198 1.19917e-22)
(0.690162 -0.0851453 -5.47879e-20)
(0.70921 -0.0895354 -9.4682e-21)
(0.698334 -0.101166 -2.21018e-20)
(1.14039 -0.100681 -6.8898e-21)
(1.14063 -0.10433 0)
(1.13697 -0.101696 -3.45558e-20)
(0.175194 0.0254824 -7.69643e-21)
(0.197287 0.0261486 -1.34321e-20)
(0.212458 0.0262837 2.0644e-20)
(0.290022 0.0232648 4.37056e-21)
(0.278708 0.0233805 -1.22378e-20)
(0.32708 0.0236801 9.93358e-21)
(1.06694 -0.0367207 1.00938e-20)
(1.06771 -0.036488 0)
(0.879446 -0.577963 2.48826e-21)
(0.881438 -0.628693 6.77981e-21)
(0.92577 -0.625292 -6.67285e-22)
(0.143005 0.0254521 -5.7342e-21)
(0.15815 0.0253019 2.1683e-22)
(0.931174 0.00761892 2.93917e-20)
(0.93391 0.00818153 -1.39118e-20)
(0.931657 0.0106616 -2.84877e-20)
(1.07201 -0.0333473 -5.0184e-22)
(1.07185 -0.0337953 -6.00866e-22)
(1.07149 -0.0333048 9.15835e-23)
(0.354001 0.0044218 3.78672e-23)
(0.37247 0.00505046 3.33509e-21)
(0.346212 0.00440571 3.13706e-21)
(1.04029 -0.0538139 -4.13955e-22)
(1.04051 -0.0548939 -1.46108e-21)
(1.0392 -0.0544305 6.87431e-22)
(1.08427 -0.0289743 4.84434e-22)
(1.08456 -0.0287401 3.30613e-22)
(1.08462 -0.0292578 -1.57839e-22)
(0.999466 -0.0311335 7.20279e-21)
(1.00028 -0.0311393 3.9352e-21)
(1.14317 -0.0997136 -2.30718e-20)
(0.999966 -0.000761207 5.12684e-21)
(0.999959 -0.000917796 -1.72184e-21)
(0.999937 -0.000902408 5.15791e-21)
(1.06546 -0.0828833 8.01105e-22)
(1.06689 -0.0816075 4.03739e-21)
(1.06719 -0.0843302 -5.0385e-21)
(0.994851 -0.0649484 7.72763e-21)
(0.99666 -0.0657618 1.33024e-21)
(0.994985 -0.0671239 8.48701e-21)
(0.976874 -0.000437571 -3.63631e-21)
(0.977336 -0.00150307 9.94075e-21)
(1.08454 -0.0327924 5.39435e-21)
(1.08446 -0.0324535 1.27691e-20)
(1.0849 -0.0324665 1.41247e-21)
(1.02986 -0.0295599 5.9177e-22)
(1.02941 -0.028741 -2.64012e-22)
(1.0305 -0.0289527 -3.97708e-24)
(0.160846 -0.435358 7.32432e-20)
(0.113559 -0.475585 -9.82642e-21)
(1.01113 -0.00767243 -3.631e-23)
(1.01165 -0.00802617 -2.76104e-21)
(1.08339 -0.0350779 -1.48743e-21)
(1.08378 -0.0352841 1.0642e-20)
(1.08322 -0.0354833 -9.48837e-21)
(0.176857 -0.00304787 1.39909e-23)
(0.158465 -0.00504321 4.93465e-21)
(0.12525 0.025639 -1.4293e-20)
(0.116298 0.0274805 2.20832e-20)
(0.16528 0.026456 2.04255e-20)
(0.885982 -0.0350863 3.34288e-20)
(0.890908 -0.0348775 1.64467e-20)
(0.888386 -0.0394943 0)
(1.07212 -0.0329263 -2.46811e-23)
(1.07246 -0.033389 7.13332e-23)
(0.999989 -0.000514244 -8.31992e-22)
(0.999988 -0.000388099 3.96221e-21)
(0.99999 -0.000380153 -7.22449e-21)
(0.734699 -0.21272 -2.34616e-20)
(0.716216 -0.206314 1.07936e-20)
(0.997887 -0.00723921 -9.66612e-21)
(0.998118 -0.00686651 1.00017e-20)
(0.998226 -0.00731064 3.79258e-21)
(1.06348 -0.0819475 0)
(0.186601 -0.0592203 5.1857e-20)
(0.0468252 -0.035982 1.28662e-20)
(0.0997808 -0.0421861 1.33101e-20)
(0.883418 -0.0308429 2.04367e-20)
(0.886105 -0.0254557 -4.7039e-21)
(1.03986 -0.0523892 0)
(1.04135 -0.0528079 0)
(0.996243 0.00672924 1.70585e-23)
(0.995804 0.00679059 8.01303e-22)
(0.258936 0.0230323 -1.41612e-20)
(0.296551 0.0221371 -5.64181e-21)
(1.01543 -0.014468 -2.26586e-21)
(1.01534 -0.0138297 0)
(1.03633 -0.426931 2.01541e-20)
(1.0936 -0.464719 6.22629e-20)
(0.271773 0.0231543 -9.90162e-21)
(0.262391 0.0228148 5.23496e-21)
(0.306659 0.023248 5.55382e-21)
(1.10612 -0.159076 -1.09781e-20)
(1.10917 -0.154305 -1.31606e-20)
(1.00006 -0.000305913 8.68835e-21)
(1.00004 -0.000219361 5.2515e-21)
(1.14345 -0.252614 5.0699e-22)
(1.15202 -0.247352 1.08493e-20)
(1.15324 -0.258028 -4.47887e-20)
(0.130899 0.00105404 0)
(0.137366 0.000960299 0)
(0.152746 0.00393036 0)
(0.531492 -0.000904802 4.97494e-21)
(0.504587 -0.00150018 -1.34555e-21)
(1.08388 -0.0287689 5.85518e-21)
(1.06323 -0.0459236 0)
(1.06288 -0.0469845 0)
(1.06208 -0.0458577 2.72647e-21)
(0.698352 -0.268083 4.2558e-21)
(0.69199 -0.250667 0)
(0.675496 -0.264266 3.65568e-20)
(1.08419 -0.0330984 -1.24034e-21)
(1.08462 -0.0331659 -7.06302e-21)
(1.0664 -0.0271813 -2.86392e-21)
(1.06582 -0.026796 3.15435e-21)
(1.02285 -0.333 5.33715e-21)
(1.00895 -0.330074 1.79527e-21)
(1.00328 -0.108771 -2.15681e-21)
(0.999761 -0.108096 -2.42535e-21)
(1.0023 -0.105534 -6.50144e-21)
(0.259021 -0.0088675 -2.04386e-21)
(0.242784 -0.00862694 -5.06592e-22)
(0.241121 -0.00935261 -2.99082e-21)
(1.09016 -0.0395289 -3.87296e-21)
(1.08941 -0.0388404 -1.46826e-20)
(1.08923 -0.0400158 -5.92082e-21)
(1.00779 -0.000566099 3.79382e-21)
(1.00833 -0.000823293 -6.30659e-21)
(1.00788 -0.0011716 2.61319e-21)
(1.05255 -0.0403155 -2.84475e-21)
(1.05178 -0.0396752 -1.03503e-21)
(1.0515 -0.0405529 1.17589e-22)
(1.08312 -0.0308615 5.9658e-21)
(0.440902 -0.00437803 -6.14065e-22)
(0.4208 -0.00328591 -1.10789e-20)
(0.320447 -0.0118385 2.38199e-21)
(0.337282 -0.0109537 2.44663e-21)
(0.326224 -0.0121796 1.97539e-21)
(1.01084 -0.0156573 -2.05466e-21)
(1.01148 -0.0157353 -2.62473e-21)
(0.575289 -0.137089 3.5994e-20)
(0.988955 -0.00124087 -4.08333e-23)
(0.989306 -0.00179025 1.6284e-22)
(0.989641 -0.00118027 0)
(1.08152 -0.0328095 2.16782e-21)
(1.08169 -0.0328142 8.00824e-21)
(1.08159 -0.032971 -4.12625e-23)
(1.09456 -0.0345386 0)
(1.09547 -0.0349069 1.4228e-20)
(1.09426 -0.0353711 0)
(1.05311 -0.0409549 -1.72879e-21)
(1.05334 -0.0401808 9.97351e-22)
(1.07328 -0.0466304 1.56161e-21)
(1.07419 -0.0467228 -5.51626e-22)
(1.09099 -0.0399281 1.10662e-20)
(1.09093 -0.0387255 2.18089e-20)
(0.991599 -0.01418 7.9491e-21)
(0.99195 -0.0149893 -4.32425e-21)
(0.992328 -0.0140545 -1.00067e-20)
(0.79637 -0.0771522 -3.94817e-20)
(0.785724 -0.0717364 -9.86524e-20)
(1.08042 -0.0312275 2.14118e-21)
(1.0807 -0.0311974 -3.57743e-21)
(1.08048 -0.0309824 -2.00611e-21)
(1.09533 -0.0275944 -5.88623e-21)
(1.09717 -0.0274336 -2.50733e-21)
(1.08862 -0.0276338 6.24034e-21)
(0.995782 -0.00127254 4.66699e-21)
(0.996179 -0.001292 1.49683e-21)
(0.996028 -0.000895817 3.83886e-21)
(0.977653 0.000187467 4.42961e-21)
(0.976318 0.000460466 -4.88944e-22)
(0.880503 -0.0361343 -1.77369e-20)
(0.4275 0.00805947 -1.00126e-23)
(0.434643 0.00733979 -8.20491e-21)
(0.463826 0.00820594 1.60575e-21)
(-0.207099 0.00943871 1.33676e-20)
(-0.241748 0.0122341 -4.14972e-20)
(-0.208835 0.00854719 -9.16993e-21)
(1.07246 -0.0409619 -1.20365e-21)
(1.07186 -0.0411036 -2.58405e-21)
(1.07246 -0.0416104 -6.77373e-21)
(1.02051 -0.0207942 -1.87551e-21)
(1.01993 -0.0211026 -1.65849e-21)
(1.09118 -0.0333474 5.11482e-21)
(1.09143 -0.0327874 1.69109e-20)
(1.0972 -0.0358045 -1.3101e-20)
(1.09629 -0.0353204 6.77863e-21)
(1.09605 -0.0363342 -5.68604e-21)
(1.08032 -0.0337171 5.3294e-21)
(1.08014 -0.0335214 -2.50137e-21)
(1.08001 -0.0337472 -3.23541e-22)
(1.07322 -0.0456552 0)
(1.0723 -0.0464363 5.35479e-21)
(0.421312 0.00790649 -3.41086e-21)
(0.397153 0.00635808 8.00033e-21)
(0.0450595 0.00724071 6.82071e-21)
(0.0477878 0.0060446 -1.90725e-21)
(0.0240566 0.00502166 3.92846e-20)
(1.05209 -0.0447662 3.64865e-22)
(1.05179 -0.0456129 3.00219e-23)
(1.05283 -0.0452266 2.64309e-22)
(1.06503 -0.0367077 2.92232e-21)
(1.06574 -0.0370026 3.28159e-21)
(1.06549 -0.0362607 4.95851e-21)
(1.23033 -0.178857 1.62405e-20)
(1.22838 -0.170582 4.28386e-20)
(1.22333 -0.17332 0)
(1.01068 -0.0199583 7.80313e-22)
(1.01076 -0.0207669 3.08837e-21)
(1.00996 -0.0199924 1.72739e-21)
(1.00013 -0.00351076 -2.00475e-22)
(1.00022 -0.00347382 -1.94922e-22)
(1.00014 -0.00325213 1.18364e-23)
(1.08047 -0.0338381 5.63425e-21)
(1.08053 -0.0336019 -4.82679e-21)
(1.07237 -0.108244 7.60435e-23)
(1.07145 -0.105343 -1.44038e-22)
(1.06929 -0.107643 -1.32358e-22)
(1.01603 -0.0148106 -2.10074e-21)
(1.01656 -0.0151564 1.71764e-21)
(1.01643 -0.0145717 -2.55419e-21)
(0.999989 -0.000976308 2.25626e-21)
(0.999971 -0.000943721 -4.32433e-21)
(0.999979 -0.000817062 5.19302e-21)
(0.997664 -0.00749652 -1.20823e-20)
(0.997611 -0.0070508 -1.12294e-20)
(1.00273 -0.000528074 -7.42444e-22)
(1.00295 -0.000553907 -1.2683e-22)
(1.00273 -0.000316094 -8.52025e-21)
(1.063 -0.0421205 -7.72169e-21)
(1.06378 -0.04264 5.7837e-23)
(1.06397 -0.0417412 -9.64786e-21)
(1.00011 -0.00379775 0)
(0.360237 0.00401227 -6.9247e-21)
(0.385332 0.00444977 -3.0897e-22)
(1.07151 -0.0423312 6.85658e-21)
(1.07119 -0.0415225 6.85267e-22)
(1.00005 -0.0248242 5.46734e-21)
(0.999424 -0.0244545 5.56831e-21)
(0.999593 -0.0253718 4.82817e-21)
(0.42708 -0.00586579 1.22917e-21)
(0.213061 0.00740487 -7.19092e-22)
(0.198417 0.00704149 -1.38094e-21)
(0.968997 0.00149369 3.02129e-21)
(0.969239 3.49128e-05 -6.05457e-21)
(0.970494 0.000883029 5.28666e-21)
(1.08348 -0.0346366 9.15654e-21)
(-0.0240918 0.0108659 5.85993e-21)
(-0.050237 0.00869513 2.67082e-21)
(-0.0210247 0.00959259 -2.56264e-21)
(0.960374 -0.0245514 -1.11042e-20)
(0.962265 -0.0257083 6.96342e-21)
(0.968654 0.00294026 -6.14069e-22)
(0.967182 0.00193596 -5.83891e-22)
(1.07195 -0.042998 -5.27053e-21)
(1.07232 -0.0422798 -1.68838e-21)
(0.164159 -0.00335905 -2.64213e-23)
(0.161514 -0.00222366 4.23509e-22)
(0.181951 -0.00119689 -5.04286e-21)
(0.578489 -0.021494 -7.78688e-21)
(0.482317 -0.0109816 9.46606e-21)
(0.563235 -0.0215529 0)
(1.08049 -0.0473248 -2.29711e-21)
(1.0815 -0.0476289 3.88115e-21)
(1.0806 -0.0481327 4.24064e-21)
(1.00151 -0.000358658 6.85613e-22)
(1.00143 -0.000507609 -3.91423e-21)
(0.883527 -0.00185796 -8.6702e-21)
(0.951614 -0.00718651 1.83432e-20)
(0.999313 -0.00376253 5.78727e-21)
(1.08248 -0.0478788 1.10821e-21)
(1.08285 -0.0488815 1.18603e-20)
(1.08368 -0.048033 -4.8141e-22)
(-0.029643 0.0115622 1.56177e-21)
(-0.00260523 0.0142541 1.83744e-22)
(1.09317 -0.0276219 1.57183e-21)
(1.09399 -0.0276989 -1.23605e-20)
(1.0867 -0.0278117 -4.78435e-21)
(1.04833 -0.025918 1.60854e-21)
(1.04854 -0.0253562 -1.39768e-21)
(1.22571 -0.186502 -1.23214e-22)
(1.19951 -0.174669 -4.42262e-21)
(1.16512 -0.14185 -2.34331e-20)
(1.16371 -0.139627 1.07814e-20)
(1.16447 -0.145381 2.72895e-20)
(-0.000446421 0.0134371 5.24205e-21)
(0.0137899 0.013985 -3.79086e-20)
(0.0554551 0.0105702 -6.44569e-20)
(1.11011 -0.061977 1.23999e-21)
(1.1087 -0.0631749 5.14776e-21)
(1.11076 -0.0637874 -1.0147e-21)
(0.774437 -0.0457267 2.17365e-20)
(0.775683 -0.0349402 3.52629e-20)
(0.763437 -0.0381084 5.21994e-20)
(0.177036 0.0274823 0)
(0.190539 0.0276042 -2.27176e-20)
(0.253412 0.0117237 -5.11897e-21)
(0.273592 0.0130519 0)
(0.249471 0.0116704 -2.46183e-21)
(1.09748 -0.0275015 -1.49526e-20)
(1.1085 -0.0273006 -5.60904e-21)
(1.02503 -0.0335214 -2.08134e-21)
(1.02412 -0.0340199 2.05706e-21)
(-0.195556 0.0169988 1.28736e-20)
(-0.171544 0.0157375 -2.65293e-20)
(-0.159578 0.0167257 -2.87529e-20)
(0.208602 -0.0106506 3.01698e-22)
(0.209929 -0.0110405 6.19688e-21)
(0.463617 -0.360186 5.34561e-20)
(0.430643 -0.333891 6.91335e-20)
(0.432338 -0.379843 9.23099e-20)
(0.492929 -0.340642 2.07326e-20)
(0.502428 -0.381592 -7.14958e-20)
(0.929108 0.00679755 5.32936e-20)
(0.930295 0.0050528 2.68144e-20)
(1.0813 -0.0501652 -3.29819e-21)
(1.08046 -0.0507675 8.49935e-21)
(1.08162 -0.051144 3.93985e-21)
(0.921438 -0.0812561 1.76233e-20)
(0.924995 -0.0778643 -1.11076e-20)
(0.926491 -0.0830573 -1.69013e-20)
(0.298997 -0.00976188 1.34218e-21)
(0.279838 -0.0112131 -9.43345e-22)
(0.776699 -0.0905979 -2.20929e-20)
(0.775939 -0.0779444 -3.03377e-20)
(0.762544 -0.085483 5.16703e-20)
(1.00589 -0.00153479 2.78826e-21)
(1.00583 -0.00182966 -9.85638e-22)
(1.00618 -0.00174424 3.80185e-22)
(1.02273 -0.00177427 -4.25859e-22)
(1.0225 -0.00143012 3.04881e-21)
(1.02742 -0.0740323 -1.70959e-21)
(1.02914 -0.0750541 -1.13644e-21)
(1.027 -0.0758613 1.28854e-21)
(-0.0445836 0.0105991 3.96754e-20)
(-0.0154816 0.013187 8.15546e-20)
(0.227804 -0.465333 4.77626e-20)
(1.01129 -0.0199686 -1.55145e-21)
(1.01063 -0.0193584 -2.56371e-21)
(0.0911961 0.0269897 -5.18853e-22)
(0.91207 -0.0771033 0)
(0.91719 -0.0796127 2.78189e-20)
(0.91597 -0.0739443 -5.79245e-21)
(1.04742 -0.0731882 -3.48098e-21)
(1.04947 -0.0729779 -1.5711e-22)
(1.05036 -0.0260099 1.01687e-21)
(1.05005 -0.0254814 -1.24499e-21)
(0.163496 -0.00351662 6.34264e-21)
(0.143296 -0.00275793 -3.84991e-21)
(1.09021 -0.0331105 -9.73044e-21)
(1.09054 -0.0340693 -7.16519e-21)
(1.08362 -0.0303825 -6.87988e-21)
(0.994814 -0.0623933 -7.03705e-21)
(0.992919 -0.0635581 -3.01657e-21)
(1.03941 -0.0512415 0)
(1.03846 -0.0520574 0)
(0.490838 -0.00450203 0)
(0.494005 -0.00497293 0)
(0.472666 -0.00490978 0)
(0.968996 -0.00652496 -1.40226e-20)
(0.970523 -0.00689678 6.86057e-21)
(1.09816 -0.0351898 6.11895e-21)
(1.05126 -0.0440623 5.93495e-22)