/*--------------------------------*- C++ -*----------------------------------*\
| =========                 |                                                 |
| \\      /  F ield         | OpenFOAM: The Open Source CFD Toolbox           |
|  \\    /   O peration     | Version:  v2012                                 |
|   \\  /    A nd           | Website:  www.openfoam.com                      |
|    \\/     M anipulation  |                                                 |
\*---------------------------------------------------------------------------*/
FoamFile
{
    version     2.0;
    format      ascii;
    class       volScalarField;
    location    "550";
    object      nut;
}
// * * * * * * * * * * * * * * * * * * * * * * * * * * * * * * * * * * * * * //

dimensions      [0 2 -1 0 0 0 0];


internalField   nonuniform List<scalar> 
13917
(
0.000351683
0.00195822
0.00657638
0.00275774
0.00672537
3.60311e-05
0.00669345
0.00528945
0.00955509
0.000224875
0.000678246
0.00116508
0.00288966
0.00168369
0.000549076
0.000727417
0.00206457
0.000439386
0.00125055
0.00672337
0.00672617
0.0078893
0.0067249
0.0062382
0.00673505
0.00652474
0.000159412
0.000108623
3.01278e-05
0.000250038
0.000369914
0.000652137
0.000219733
0.000563926
0.00553736
0.00083493
0.00672484
0.0109254
0.00236415
0.00252728
0.00673948
0.00672629
0.00672379
6.94973e-05
0.00312821
0.000467806
0.000512504
0.000485501
5.51569e-05
0.00672127
0.00118287
0.0018897
5.39916e-05
0.000509017
0.00183862
0.000967127
0.000670017
0.00319366
0.00106256
0.0030969
0.00726916
0.00230847
0.000367468
0.00672331
3.58113e-05
0.00242714
0.00672523
0.00642151
0.000414983
0.000326541
0.00672512
0.00915752
0.0105791
0.00626661
4.84589e-05
0.00152968
0.00602063
0.00194183
0.00660508
0.00672581
0.00672532
0.00672484
3.59027e-05
0.0116048
0.0100183
0.00212202
0.00672499
0.00124497
0.00115519
0.00672489
0.0118278
0.000235055
0.00452005
0.00113287
0.00187127
3.79611e-05
0.000598653
0.000505736
0.00113899
5.59807e-05
0.00672406
0.000253545
6.77379e-05
0.00187591
0.00673548
0.00994695
3.88313e-05
0.000547116
0.00193768
0.00032629
0.0114895
0.00293626
0.00114833
0.0122909
0.00120332
5.12266e-05
0.00672825
3.8758e-05
0.00478722
0.00051623
0.00672622
0.000530577
0.00604441
0.000127801
0.00672612
0.00123503
0.00298472
0.00672694
0.00672026
3.61371e-05
0.0097724
0.00116133
0.00287251
0.00672624
0.00149222
0.00592713
0.000352684
5.26388e-05
0.00672544
0.000545526
0.000616421
0.00675397
0.00148589
5.71936e-05
0.00519899
0.00758677
3.92447e-05
0.00178524
0.00674601
0.000555546
0.00067225
4.86312e-05
0.000840802
0.000262563
0.00078442
0.00428581
0.000369502
0.000204687
0.00360199
0.0017815
0.000779968
0.000161552
0.0067258
0.000573841
0.00111085
0.00116767
0.00194513
0.000596344
0.00402176
0.00025252
0.000241282
0.00375768
0.00116886
0.00149683
0.00572628
0.000218191
0.0100564
4.16172e-05
0.00796576
0.00438227
0.00023467
0.000363765
0.00675414
0.00672497
0.000391208
0.00535997
0.000383402
0.0041446
0.000589434
0.000989049
0.000522201
0.0102919
0.000284508
0.00672507
5.41633e-05
0.000159714
0.00356808
0.00422126
4.35836e-05
0.000376591
0.001676
0.00672121
0.000709011
0.00079714
0.00860583
0.000592256
0.00663727
0.0033799
0.000528268
0.00543824
0.00155452
0.0070542
0.00463281
0.000997681
0.00673419
2.68037e-05
0.000577804
0.00496491
0.00673347
0.00853138
0.00500671
0.000283209
0.00673103
0.0116786
0.0105212
0.000697214
0.000170921
0.000772981
0.00673364
0.000574844
0.00125982
0.000624788
0.00518112
0.00282487
0.00672224
0.000604673
0.0128662
0.00780921
0.00672577
0.00672431
0.00316695
0.000510258
0.00672562
0.000738168
0.000383246
0.000159068
0.000426465
0.0067257
0.000188374
0.00392955
0.00464983
0.000204583
4.75727e-05
0.0031064
0.00339916
0.00086879
0.0057027
0.000759078
0.00032267
0.000604955
0.00672572
0.00385294
0.00946246
0.000708817
0.00673334
0.00949874
0.004141
0.000333818
0.00738718
0.00150577
0.00672555
0.00672216
0.000525192
0.0103613
0.000406922
0.00115506
0.000639373
0.00170581
0.00671918
0.00812738
0.00672286
0.00619194
0.00156368
0.00672543
0.000523942
0.00024606
0.000166313
0.000649328
0.000325385
0.003797
0.000145951
0.00532608
0.00839702
0.00673297
0.000852012
0.0067241
0.00373539
0.00672762
3.22843e-05
0.00672111
0.000286124
0.000424447
0.00432812
0.000639791
0.00135982
5.21405e-05
0.000240889
0.00023995
0.00548215
0.00367992
0.0104817
0.00513794
0.00672869
0.00672787
0.00765953
0.00427106
0.011643
0.00571103
0.012112
0.00375244
0.000223137
0.000898577
4.78293e-05
0.00078003
0.000340054
3.41737e-05
0.000572532
0.000477442
4.58947e-05
0.00192822
0.010067
5.56593e-05
0.00554318
0.000624486
0.00284534
0.000565716
0.0131042
4.00573e-05
7.24222e-05
7.42373e-05
0.00577639
0.00672562
0.000255087
0.0127816
0.00245712
0.00102212
0.00460618
4.02895e-05
0.0017182
0.000551469
2.96528e-05
0.0067227
0.00365946
0.000630696
0.00672289
0.00672923
0.00672418
0.00674597
0.000269869
0.00692342
3.10193e-05
0.0120596
0.0067309
0.000203344
0.00125598
0.000733475
0.00804101
0.0115758
0.0110569
0.00672476
0.000891858
0.0067295
0.00793724
0.00317951
4.58601e-05
0.000327575
0.00221245
0.00672537
0.000548905
0.000225823
0.000453177
1.32369e-05
0.0124044
0.00250547
0.000176355
0.00023492
0.00672386
0.00842603
0.0074393
0.00274437
0.000273135
0.00672961
0.000547981
0.00424122
0.00672573
0.00123804
0.00658728
0.0012874
0.00660853
0.00212464
0.000782193
3.22958e-05
0.0019721
3.0121e-05
3.05087e-05
0.0067251
4.12683e-05
0.00230679
0.00657813
0.000274006
0.00672549
0.00645548
0.00672908
0.000442803
0.00672595
0.0037175
0.00428387
0.000958429
0.000285116
0.00803153
0.00510906
0.000787765
0.00672956
0.000349064
0.00236842
0.000574081
0.00672532
0.00763756
0.00576158
0.00335654
0.000683187
0.000359407
0.000715002
0.00235724
0.000448881
0.00133003
0.000714996
0.00196461
0.00672257
0.0128902
0.00982913
0.0100169
0.000161569
0.000523646
0.010729
0.0137278
0.00577069
0.00672037
0.000520438
0.00129217
0.0027997
0.000475708
0.000534764
0.00678536
0.000373351
0.00076066
0.00543594
0.00672528
0.000501007
0.000722819
0.000261708
0.00566702
0.00672606
0.00317027
0.00685168
0.000348673
0.00672448
0.00470644
3.44171e-05
0.000362762
0.00759755
0.000976942
0.000638707
0.0145329
3.27019e-05
0.000782032
0.000633631
0.000531398
0.000338656
0.000350763
0.00106674
0.000848901
3.88582e-05
0.0012798
0.000501613
0.00676932
0.0010337
0.00107161
0.00676101
0.000376243
0.00197613
0.00632426
0.0102489
0.00503348
0.00672485
0.00467732
0.00300313
0.00672547
0.00362187
0.00251048
0.000245785
0.00497807
0.00769654
0.000161411
0.000622249
0.00198992
0.00841798
0.000250168
0.00172328
0.00672569
0.00491815
5.14212e-05
0.00786733
0.00676261
0.00932194
0.0118938
0.000875866
0.00672947
0.00197321
0.00169338
0.000354865
0.00677449
0.0067279
0.006721
0.00672113
0.00750192
0.000592612
0.000954628
0.000379194
0.00673792
0.00672363
0.000365293
0.0145616
0.000621554
0.00371891
0.0067329
0.00672928
0.00863327
0.0105246
0.00672466
0.00672979
0.000818677
0.00111598
0.000970168
0.00287168
0.00119522
0.000643575
0.000532803
4.60507e-05
0.000535245
0.000339542
0.000407895
0.000455918
0.000245592
0.00673205
0.005413
0.00672864
0.000883886
0.00187457
0.00109856
0.000106437
0.00672605
0.000265781
0.000249176
0.000434836
0.000397564
0.000211274
0.000815556
0.00672506
0.013123
0.000286878
0.0100238
0.00220927
0.000817343
0.000541152
0.0120092
0.000346679
0.000490882
0.000160303
0.000673439
0.0011292
0.00302979
0.000116951
6.71053e-05
0.00250872
0.000603958
4.89783e-05
0.00918412
0.00225537
0.000957614
0.000594233
0.000274009
0.000551408
0.00158117
2.70431e-05
0.00934948
0.0082786
0.000333983
0.00672108
0.0043388
0.00151962
0.00673694
0.000607253
0.000628088
0.000222442
0.000260997
0.00680779
0.000357835
0.00119444
0.0125089
0.00167148
0.00394256
0.00672587
0.00672461
0.000776876
0.0107838
3.37953e-05
0.00169128
0.0015015
0.00672911
0.00162748
5.1748e-05
0.00124892
0.00107096
0.000805634
0.000561062
0.00456186
0.000170379
0.00122973
0.000751021
0.00673587
0.0003552
0.00187033
0.00155209
0.000243017
0.000112238
0.000719913
0.00672165
0.00675402
0.00285325
7.12279e-05
0.000365848
0.000611947
1.38396e-05
0.000617082
0.00672251
0.000346712
3.04134e-05
0.000795779
0.0047482
0.000456865
0.00672778
0.00164258
0.00107381
0.0144418
0.00672578
0.000206061
0.00172325
0.000784998
0.000218736
0.0104547
0.000116142
0.00207121
0.00953165
0.000650331
0.00297709
0.0020667
0.000404787
0.000261748
0.00042916
0.00672485
0.00207659
0.000152502
0.00221447
0.000417995
0.000919477
0.00675598
0.00074674
0.00637654
0.00549207
0.00313308
0.00672114
0.00472339
0.00672613
0.000741263
0.00451771
0.00101871
0.0086249
0.000785123
0.000196899
0.00672123
0.000175203
0.00672706
0.000345759
0.00672138
0.000131647
0.00296659
0.000759282
1.70333e-05
0.0147787
0.00683343
0.00672523
0.000255432
0.000347595
0.00657607
0.0125002
0.000487636
0.00670159
0.00065762
3.25664e-05
0.000895279
0.000547116
0.000564592
0.00588005
0.000352518
0.00177669
0.000300859
4.93492e-05
0.000496596
3.185e-05
0.000472083
0.00243525
0.000639033
0.000536055
0.00678266
0.00181956
0.000329027
0.000561261
0.00672766
0.00673052
0.000586138
0.00201465
0.00037521
0.0060079
0.00672855
0.00672619
0.00121268
0.00672853
0.000806728
0.0067213
0.00719769
0.00123705
3.80491e-05
0.00672377
0.00672575
0.000124948
0.000353689
0.00130162
0.0095281
0.000180747
0.00645334
0.00167251
0.000358515
0.00254355
0.00672618
0.006721
0.00125946
0.00244776
0.00672581
0.00132043
0.000725207
0.00167889
0.000151845
0.000177231
0.000732333
0.00673227
0.00672625
0.00138146
0.00499751
0.00162479
0.00813678
0.00143094
0.00672432
0.000783484
0.00672354
0.0067309
0.000615452
0.000401616
0.00429437
0.000434941
0.00500984
0.00673363
0.012666
8.12974e-05
0.00212039
0.00238992
0.00876393
0.000311322
0.00268887
0.000231486
0.00239572
0.0067224
0.00672883
0.00121409
0.000399334
0.000563891
0.00057024
0.00940596
0.00209997
0.000885904
0.00208176
0.00672951
0.00111843
0.0034845
0.00672229
0.000335713
0.000147752
0.00219735
0.0106202
0.00478673
0.000226982
0.00673309
0.00673733
0.00103245
0.00159979
0.00672547
0.000367499
0.0067357
0.000358805
0.00679524
0.00616266
0.000265572
0.00374876
0.000246371
0.000425008
0.00672615
0.00672533
0.0033
0.00658034
0.00317709
2.36927e-05
0.00524661
0.00653953
0.0100748
0.00754598
0.00126366
0.000321816
0.000461321
0.00123005
0.00675534
0.000392504
0.0077003
0.000123602
0.00672527
0.00226727
0.0125654
0.000725062
0.0134589
0.00672613
0.0011887
0.00361663
0.000795241
0.00215404
0.00214781
3.83336e-05
0.00673927
0.000302947
0.00672109
0.0035869
0.00672446
0.0109787
0.00672748
0.00514958
0.00675619
0.000156188
0.00224736
0.000221175
8.97229e-05
0.00616359
0.000250697
0.00672443
0.0124047
0.00672506
0.00483589
0.00672452
0.00110193
0.00672433
0.000362719
0.00278025
0.00460947
0.000457844
0.000573429
0.00615328
0.00373277
0.00304671
0.00747605
0.00771241
0.008154
0.0104852
0.000254772
0.000301471
0.00206781
0.00757445
0.000851233
0.00816221
0.00675856
0.00458493
0.00228278
0.00672437
0.00120249
0.000288415
0.00674202
0.00475267
0.00672795
0.00175819
5.09635e-05
0.00339083
0.000227808
0.000693469
0.00273541
2.30964e-05
0.000167882
0.000822899
0.00252514
0.00296813
0.00304196
3.92961e-05
0.00679304
0.000276906
0.000261387
0.00735517
0.0105945
0.00132088
0.00437923
0.00247422
0.00204504
0.00672346
0.00126403
0.00671883
0.000671936
0.000317486
0.00815214
0.000435849
0.00525267
0.000362835
0.0140244
0.000344231
0.00190787
0.00468193
0.00436003
0.00184925
0.00018233
0.00728808
0.00672392
0.00670815
0.00734456
0.000555798
0.000315544
0.000414148
0.000640041
0.00673657
0.00034727
0.00183841
0.00672526
0.00183122
0.00545833
0.00456833
0.0065758
0.00672617
0.0032572
0.000281457
0.0014589
0.000808371
0.00575068
0.00177994
0.000374369
0.0059175
0.000346903
8.58482e-05
0.00993951
0.00320519
0.000125524
0.000880116
0.00954562
0.0135776
0.00667068
0.0101247
0.00045114
3.87332e-05
0.0067242
0.00706015
0.00672514
0.000948416
0.000324945
0.000406195
0.00492601
0.000733271
0.00124927
0.00955585
0.00672187
0.000595252
0.00632794
0.000568129
0.00729977
0.00266037
0.00672543
0.00155384
0.00258636
0.0083163
0.00672883
0.00672488
0.000814296
0.000360612
0.000659179
3.36011e-05
0.00142318
0.00241448
0.00164339
0.000650683
0.00173726
0.00835147
0.00121228
0.00567571
0.00764173
0.00158005
0.00584739
0.00760346
0.000892713
0.00184529
0.000338891
0.00061606
0.00342341
0.00122787
0.00243207
0.000319002
0.00672628
0.000588255
5.32367e-05
0.00672869
0.000378371
0.00535691
0.000135365
0.00672147
0.000506758
0.000511607
0.00195133
0.00336712
0.0061203
2.71399e-05
0.000207188
0.00767092
0.00531278
0.00236481
0.000593363
0.00363067
0.000302046
0.000209416
0.00413548
0.000368827
0.00598101
0.00813187
0.00198856
0.00125426
0.00572932
0.000582333
0.00673697
0.00103883
0.00219068
0.00672517
0.00672781
0.00860478
0.0124523
0.000725884
0.00127765
0.00672316
0.00345352
0.0054367
0.00144494
0.00673256
0.000574962
0.00588216
0.000220739
0.00672532
0.00673126
0.00230645
0.0013136
0.00780361
0.00240855
0.00189316
0.00673591
0.000582633
0.00672157
3.48674e-05
0.000381865
0.0067257
0.00696789
0.000168645
0.000544389
0.0108764
3.22825e-05
0.00677227
0.00191264
0.00292149
3.42648e-05
0.000535745
0.00778686
0.0055046
0.000821792
0.0082428
4.40355e-05
0.000610823
0.00129802
0.000126512
3.57372e-05
0.00489298
0.000108621
0.000128332
0.0117954
0.00109118
0.000713362
0.00879683
0.000100521
0.00676092
0.001716
0.00632779
0.000293112
0.00520369
0.000167752
0.000296988
0.000377057
0.00872879
0.00101732
0.00912748
0.00166661
0.00091893
0.000347426
0.000288235
0.000742586
0.00611716
0.00155446
0.00511568
0.0067283
0.000757768
0.00675441
0.00119971
0.00453787
0.000235002
0.00089949
3.99245e-05
0.000155663
9.88742e-05
0.00289896
4.73022e-05
0.00456801
0.000282502
0.00445956
0.00674208
0.00672813
0.000727061
0.00333659
0.00672556
0.000407197
7.3995e-05
0.000238573
0.00346737
0.00262755
0.00514534
0.000353806
0.000248032
0.00672131
0.000867629
0.00596914
0.000202313
0.00033513
0.000973039
0.000652343
0.00108148
0.00122756
0.00233424
0.000503949
0.00131092
2.09945e-05
0.000642979
0.00672625
0.00428777
0.00254835
0.00480639
0.00136685
0.000192324
0.00673667
0.000682922
0.00672349
0.000754924
0.00662333
0.000182003
0.000820844
0.000205409
0.00393441
0.000265624
0.0042323
0.00191363
0.00673041
0.000565116
0.00672526
0.000583612
0.0089815
0.00114424
0.00673837
0.000464865
0.00314033
0.000560278
0.0120302
0.00375827
0.0017293
0.000381603
0.000620277
0.00807456
0.00673718
0.000405833
0.00277912
0.00672719
0.000281282
0.0016666
0.00672271
0.000868679
0.00491847
0.000997664
0.000555904
0.00748511
0.000477334
0.00825031
0.00106236
0.00672271
0.000343772
0.00306792
0.00267603
0.000299253
0.000932257
0.000251978
0.00673928
0.000655965
0.000373159
0.000410758
0.00674147
0.0067251
0.00123903
0.00166813
0.00672631
0.000235325
0.00675666
0.000702443
0.000649178
0.000797527
3.81237e-05
0.0068
0.00217936
0.000739089
0.000763881
0.00169181
0.00110527
3.3951e-05
0.00326459
0.000614362
0.00626143
0.000945766
0.000637331
0.000581974
0.00676396
0.00672554
0.00672493
0.00284868
0.00035905
0.00649817
0.00080735
0.00141522
0.00156754
0.00026202
0.0107612
0.00031327
0.00151768
0.0115009
0.00212802
0.00374897
0.00203117
0.000111509
0.00673925
0.00446266
0.00484367
0.00301096
0.00267912
0.00594626
0.000333092
0.00220886
0.00672152
0.00506484
0.00898387
0.00228256
0.000138224
0.000954903
0.00672874
0.000427108
0.000609507
0.00672593
0.00672542
0.00700909
0.00549579
0.00235225
0.00164227
0.00302672
0.000645933
0.000212948
0.00526806
0.00132625
3.01091e-05
0.000468146
0.00090062
0.000579754
0.00245518
0.00141454
4.40896e-05
0.000347711
0.00672801
0.000860017
0.0112976
0.000924079
0.000128601
0.00688196
4.11404e-05
3.87827e-05
0.00057768
0.00202893
0.00672536
0.00672897
0.00327248
0.000605894
0.00187774
0.00249942
0.00117789
0.00672623
0.00384331
0.00541769
0.000798736
0.00154708
0.00655908
0.00015255
0.00179877
0.00705999
0.000374369
0.000577341
0.00672417
0.00045046
0.00315556
0.0023048
0.00109226
0.000646904
0.000435021
0.000108027
0.00419901
0.000590983
0.0043918
0.010261
0.00672445
0.00267192
0.000159026
0.00672613
0.0045812
0.000476661
0.00943376
0.00547173
0.00330209
0.00234519
0.00677211
0.00114438
3.28831e-05
0.000567325
0.00220347
0.0061957
0.00143336
0.000638197
0.00843792
0.00672509
0.000127178
0.00672153
0.00250517
0.000408928
0.00543239
0.00505885
0.00053908
7.46558e-05
0.00672632
0.00413572
0.000372924
3.41052e-05
0.00280083
8.6655e-05
0.00441371
0.00651573
2.56807e-05
0.00258484
0.00033864
0.000102813
0.00672506
0.0070352
0.000968285
0.000448583
0.000401998
6.74648e-05
0.000213993
0.000176083
0.00157465
0.00682482
0.000331691
0.00261295
0.000342083
0.000831086
0.00340162
0.000380991
0.00359618
0.0016498
0.00480893
0.00158286
0.00674802
4.89803e-05
0.00206477
0.000329513
0.00210103
0.00397806
0.000811627
0.000399141
0.00672833
0.00672908
0.00672547
0.00672106
0.000353618
0.000132693
0.000178483
0.000756979
0.0067227
0.000852343
0.00184537
0.000432068
0.000850655
0.00410656
0.00114885
0.000628288
0.00177723
3.92218e-05
0.00992812
0.000175109
0.00359736
0.00483268
0.00674019
8.13867e-05
0.00628303
3.72792e-05
0.0067243
0.00212063
0.000690445
0.00546159
0.00382988
0.000310902
0.00385904
0.000146225
0.000648434
0.00850217
0.000545624
0.000880293
0.000576994
0.000932808
0.000214601
0.00142124
0.00672429
0.000283062
0.00940267
0.00672484
8.62235e-05
0.00672568
0.00356588
0.00774451
0.0123585
0.00672316
0.00364924
0.00185375
0.00508669
0.000204053
0.000430549
0.00307552
0.00672505
0.00672336
0.00120428
0.000677974
0.000653634
0.0002567
0.00525087
0.0131701
0.0021297
0.0124857
4.94255e-05
0.000397763
0.000311113
0.000778742
0.00697603
0.000326691
0.00322344
0.00167337
0.0120998
0.00771475
0.00672245
0.00672695
0.000238332
0.0129888
0.00851871
0.0060841
0.00304941
0.00981244
0.000613952
0.00223103
0.00107123
0.000773225
4.24836e-05
0.00216928
0.0107745
0.00490394
0.000598491
0.000361752
0.00327341
0.00673835
0.00672158
0.00050799
0.00825856
0.000941347
0.00160191
0.00138182
0.000121988
0.00336491
0.00120416
0.0079116
0.00275765
0.00472754
3.84054e-05
0.0067293
0.00672417
0.00364758
0.00672613
0.006759
0.00114952
4.67146e-05
0.000666584
0.00437729
0.000284468
0.0067292
0.0127304
0.000437939
0.00451581
0.00265073
4.44718e-05
0.00060346
0.00364476
0.00102443
0.0141864
0.0067246
0.00944999
0.000710459
0.0105398
0.000294043
0.000186579
0.00482199
0.00200253
0.000155658
0.00103411
0.00327889
0.000454082
0.000858664
0.000526982
0.00114352
0.00037505
0.00390231
0.00134466
0.0126622
0.00268282
0.00672897
0.00445859
0.00077593
0.0028821
0.000663264
0.00672984
0.000387654
0.00183325
4.66332e-05
0.000132916
0.00489213
0.00672239
7.01598e-05
0.00317489
0.000612206
0.00101637
0.00040711
0.00382951
0.00162975
0.00122909
0.00216406
0.00647387
0.0136357
0.0067257
0.00672154
0.00189641
0.00133842
0.00673127
0.00184477
0.000425658
0.000642382
0.000546664
0.00676073
0.0144226
0.00647534
0.00672604
0.00205713
0.000656217
0.00117139
3.96514e-05
0.00192023
0.00775429
0.00037425
0.00104494
0.000804649
0.00672553
0.000892556
0.00348026
0.002927
0.000295781
0.00674771
0.00823267
0.0067256
0.00672266
0.00127085
0.00326603
0.000314612
0.00155357
0.000315089
0.00179745
0.0107925
0.00278551
0.00927959
0.00672746
0.0127722
0.00214966
0.00672575
0.0101147
3.30354e-05
5.98621e-05
0.000561286
0.00013814
0.0006538
0.00571408
0.00722253
0.00672952
0.00673057
6.65556e-05
0.00134491
0.00468692
0.0091009
0.000347302
0.0106019
0.000290201
0.000187275
0.00677976
0.00116323
0.00117109
0.0135019
0.000649187
0.0133899
0.00644
0.00346133
0.00334689
0.00313515
0.000190234
4.04896e-05
0.00168761
0.00672528
0.00060776
0.000688146
0.000679066
0.000567674
6.89195e-05
0.00672249
3.07623e-05
0.000278976
0.00288706
0.000409718
0.00108958
0.00122672
0.0130208
0.00672136
0.000310512
0.00546366
0.00135202
0.000799227
0.000418256
5.24341e-05
0.00124896
0.00367006
0.00117994
0.000625665
0.00155564
0.000355477
0.00242347
0.0136995
0.00672496
8.29499e-05
4.33543e-05
0.0131576
0.000455309
0.000279317
0.00158981
0.000134313
0.00672584
0.0130731
0.00124917
0.00371742
0.000784437
0.00672307
0.00672573
4.62854e-05
0.00672748
0.00672338
0.00288897
0.00055057
0.00205647
0.000440858
0.000650716
0.000232913
0.000284518
0.00672549
5.38067e-05
3.03125e-05
0.000296938
0.000280393
0.000438157
0.000395014
0.00439236
0.000296865
0.00672607
0.00740381
0.00439418
0.00672604
0.00120145
0.00672336
3.72501e-05
0.000234031
0.00353184
3.93599e-05
0.0132847
0.00672457
0.0020985
0.00502315
0.00728045
0.00137066
0.00672812
0.00549671
0.00771656
4.59109e-05
0.00672701
0.0137033
0.00135856
8.63819e-05
0.0117411
0.00102887
0.00672404
0.000733756
0.000257456
0.000800937
0.00510517
0.0147199
0.00669285
0.00892487
3.37487e-05
0.00805666
0.00672804
0.000115536
0.0019086
0.00466099
0.0118069
0.000610364
0.000599882
0.000182936
0.000409604
0.000463826
0.00683207
0.0142718
0.00343866
0.00653923
0.00221211
0.000267281
0.00550863
0.000601873
0.00916006
0.00935274
0.00046503
0.00207425
0.00377835
0.0130289
0.000615768
0.000543673
0.00674713
0.00119029
0.000266586
0.000907634
0.000439661
2.69257e-05
0.00672402
0.000654267
0.0068384
0.000144647
0.00783016
0.00288494
0.00672697
0.00672639
0.00128353
0.000543427
0.00222398
0.0105908
0.0135624
0.00642513
0.00672904
0.00672471
0.0067243
2.35519e-05
0.00677563
0.00486105
0.000319398
0.00146557
0.00473204
0.000263155
0.0149596
0.000775183
3.959e-05
0.00907129
0.00183268
0.00403455
0.000251151
0.000210186
4.28605e-05
0.00393934
0.00778639
0.00123353
0.00674052
8.02357e-05
0.00677566
0.000600583
0.0020646
0.00388067
0.00029584
0.000264573
0.000751368
0.000480964
0.00672481
0.000287042
0.00103865
0.00672577
3.95039e-05
0.00672012
0.00174441
0.000664109
0.00227887
0.00927597
0.00105211
3.59854e-05
0.00117798
0.00672862
0.0107701
0.010699
0.000726615
0.000250437
0.00113324
0.000284949
0.000934611
0.00164044
0.000545461
0.00121207
0.000737052
0.000593301
0.00354917
0.000121632
0.000605895
0.00143916
0.00234737
0.0109049
0.0067188
0.00550442
0.000735844
0.0130427
0.00167362
0.0041494
0.00622167
0.000609022
8.44786e-05
0.00373503
0.00967724
7.88749e-05
0.00502945
0.00279615
0.00717122
0.0009872
0.00193053
0.000519653
0.000569806
0.000913299
0.0071715
0.006726
0.00166465
0.0010821
0.00035203
0.00672408
0.000814729
0.00673377
0.00382904
0.000846616
0.00028286
0.000613192
0.000603992
0.000167026
0.000457204
0.000266227
0.00674649
7.26811e-05
0.00849815
0.00340344
0.00288381
0.00268457
0.000817563
4.48452e-05
0.00672948
0.000729478
0.0117085
0.00131476
0.00542425
0.00362655
0.000234362
0.0136191
0.00301644
0.00673469
0.00266257
8.98428e-05
0.000764466
0.0101778
0.000695495
0.000150186
0.000384388
0.000269625
0.00246624
0.00649195
0.0060793
0.00135053
0.000590101
0.0010083
0.000263742
0.00581733
0.000812385
0.00191063
0.000190942
0.00673236
3.321e-05
0.00677383
0.00301901
0.00514469
0.000821533
0.00275956
0.0137631
0.00672363
0.000768624
0.0067258
0.00206689
0.00102032
0.000148227
0.00911657
0.000349305
0.00672242
0.000325342
0.00122414
0.00327878
0.000449741
0.00667889
0.00816958
0.0133676
0.000493489
7.20034e-05
0.00672326
0.000981648
0.000767818
0.000588343
0.00655699
0.00293401
0.00672303
0.000810407
0.00672493
0.00088588
0.00270286
0.00557122
0.0132189
0.00454041
0.000744544
0.00164394
0.00672619
0.0102007
0.00469975
0.000369256
0.0128441
0.00134717
0.00308086
0.00334577
0.0139956
0.00134022
0.0107628
0.0010529
0.000615147
0.00373181
0.000631214
0.000750474
0.000830465
0.000342745
0.0132392
0.000268438
0.000173469
0.000543432
0.000682001
0.000194945
2.66799e-05
0.000633221
0.00390061
0.00423084
0.000777765
0.000176374
0.000344027
0.000578558
0.00469721
0.00879426
6.11433e-05
0.00319671
0.00106839
4.02879e-05
0.00160292
0.000743152
0.00293523
0.00345164
0.00447993
0.00187385
0.00475038
0.0012286
0.0079093
0.000112569
0.00673039
0.00446647
0.0035623
0.00467228
0.000837482
0.00116979
0.000391724
0.00070096
0.00227341
0.00109102
7.00966e-05
0.000153616
0.000601289
0.0103689
0.00991196
0.00542169
0.00672691
0.00442142
6.63522e-05
0.00264761
0.000141102
0.00256855
0.0101408
0.00672736
0.00604042
0.00832535
0.000344052
0.00673042
0.00644265
0.000471757
0.00479743
0.00589868
0.000796293
0.000417689
0.00672563
0.000588011
0.000739599
5.06953e-05
0.000269053
0.00017644
0.00173859
0.000482674
0.000540612
0.00131193
0.00288218
0.000788868
0.00598092
0.000688627
0.00306668
0.00672492
0.0116184
0.000275367
0.000391218
0.00672486
0.00672877
0.00026558
0.0088122
0.000101376
0.00458119
0.00645549
0.00140399
0.0126742
0.00129371
0.00677269
0.0012118
0.000548506
0.000417491
0.00672563
0.0088731
0.00835744
0.00410208
0.000227336
0.00620149
0.000273522
0.00300211
0.00594641
0.00210122
0.00159469
0.000299203
0.000646941
7.28485e-05
0.000279202
0.00673998
0.00226261
0.0034199
0.00524136
0.000294666
0.000477242
0.00423533
0.000453424
0.00672788
0.000880251
0.00066091
0.00672419
0.0100244
0.00672998
0.000358801
0.0100222
0.00032277
0.00215108
0.00672629
0.0139979
0.00672494
0.00101267
0.0018552
0.000148177
0.000354403
0.000620839
0.0105389
0.000179997
0.000292377
0.00143392
0.000646804
0.00546343
0.00672519
0.00417154
0.0108487
0.000270879
0.00109707
0.000551436
0.000582782
0.00857888
0.0132502
0.000689253
0.000456981
0.0067225
0.0124888
0.00397921
0.00344226
0.000602328
0.000758524
0.000400566
4.08461e-05
0.000157445
0.000380788
0.000694054
0.0136364
0.0012095
0.00672498
0.00299153
0.000139106
0.00673893
0.00779884
0.00672231
0.00672522
0.000385185
0.000140474
0.00361575
0.00673999
0.000654116
0.00663572
3.47263e-05
0.00498585
3.47592e-05
0.000141786
0.00983177
0.0071047
0.000499757
0.000311548
0.0101434
3.62397e-05
0.00672564
0.000349922
0.000158036
0.00030891
3.95242e-05
0.0109583
0.0121366
0.00904923
4.83997e-05
0.00222612
0.000568127
0.00672169
0.00442419
0.000857352
0.0024776
0.00118995
0.00181543
0.00519814
0.000453264
0.0125233
0.00672521
0.00124458
0.00672156
0.00915153
0.00132531
0.0141718
0.00369628
0.000180667
0.00672586
0.00495077
0.00853755
3.75707e-05
0.00672513
6.16854e-05
0.0067258
0.000174222
4.36093e-05
0.000365114
0.000717408
0.00506768
0.00674783
0.005584
0.00083233
0.00773035
0.000617345
0.000221489
0.00475739
0.00143342
0.00656416
0.00672465
0.00147487
0.00415459
0.00137887
0.0106966
0.000294761
0.00147705
0.0140645
0.000320883
0.0067248
0.000939536
0.00673175
3.92577e-05
0.00371474
0.000713793
0.00523108
0.00672824
0.00601925
9.45775e-05
0.00285896
3.22233e-05
0.00675814
0.000253741
0.00685389
3.79685e-05
0.00672622
0.000817515
0.0012043
0.000172925
0.0117563
0.00672939
0.00706911
0.00026076
0.000181811
0.00679191
0.00673454
0.00825944
0.000616656
0.00369257
0.00414902
0.000545892
0.000594735
0.000176599
0.0119473
0.00128472
0.000595477
0.0009706
0.00672829
0.00578293
0.0030401
0.00717189
0.00459229
0.00170543
0.00672513
0.00955546
0.00977234
0.00672726
3.85083e-05
0.000700966
0.00672189
0.00434163
0.00674623
3.99656e-05
0.0128736
0.000271692
0.00216825
0.000461304
0.0067267
0.0031409
0.00129393
0.00672403
0.000414799
0.00321078
0.00101798
0.000252623
0.000474668
0.00671975
0.00163819
0.000558705
0.00672636
0.000211466
0.000863771
0.000315907
0.000656929
0.00711965
0.000371584
0.00324998
0.00027219
0.000281928
0.00116448
0.0137289
0.00103603
0.00186687
0.000250268
0.00429012
0.000136025
6.63461e-05
0.000139645
0.00672791
0.00395879
0.00672414
0.000251226
0.000951294
0.000866548
0.00841026
0.00691827
0.00389982
0.00672613
4.30892e-05
0.00945805
0.0129099
0.00495747
0.00291455
0.000639476
0.00672661
0.000793097
0.000947739
0.000364575
0.00732233
0.000341341
5.80901e-05
0.000376013
0.00833956
0.000108011
0.00673526
0.000207227
0.000525756
0.00220988
0.00274947
0.00128647
0.0136392
0.000268643
0.00527555
0.00102839
0.00260834
0.00262391
0.000251678
0.00768162
0.00220861
0.000834236
0.0118896
0.00368581
0.000347846
0.00167773
0.000904392
0.00170027
6.83164e-05
0.000929232
0.000366826
0.0131407
0.00674806
0.00344338
0.000186823
0.000668553
0.0067217
0.00672396
0.000877787
3.8557e-05
0.00420742
0.000392213
7.79293e-05
0.000171772
0.0034845
0.00689223
0.0147412
0.0134152
0.000598089
0.00674802
8.47098e-05
0.00556292
0.00793784
0.00391386
3.37873e-05
5.8005e-05
3.22672e-05
0.00380909
0.00672605
2.8735e-05
0.000728141
0.00273077
3.22738e-05
0.0047866
0.00672923
4.27035e-05
0.0133428
0.0021284
9.18757e-05
0.000368708
0.00673037
0.00041551
0.00973568
3.91312e-05
0.00672601
0.00316906
0.000405164
0.00209827
0.00672247
0.00207203
0.00220987
0.00288005
0.00219691
0.000271636
0.000217144
0.00017117
3.58361e-05
0.000921787
0.0104271
0.000612477
0.00185944
0.000567193
0.00241261
0.000100539
0.00664647
0.000521542
0.000403137
0.000600514
5.97555e-05
0.00317252
0.000175592
0.00137136
0.00685288
0.00041036
0.00353107
0.00464214
0.00391377
0.000282281
0.00111085
3.97673e-05
3.90316e-05
3.83123e-05
0.000468249
0.000324052
0.00510136
0.00246819
0.00946823
0.000319173
0.000115688
0.00358538
0.00413281
0.000434875
0.0142816
0.00672215
0.0059752
0.000161991
6.81382e-05
0.00025525
0.00477107
0.00672458
0.000823124
0.00273328
0.00253455
0.00147508
8.35453e-05
0.000261113
0.00355161
0.0026899
0.00247951
0.00672525
0.011258
0.00188117
0.00946415
6.6775e-05
0.00384171
3.67538e-05
0.000420389
0.00875877
0.00241408
0.00178296
0.00612538
0.00672521
0.0025822
3.59519e-05
3.73547e-05
0.0125206
0.00672509
0.0029
4.91103e-05
0.00672542
0.000713077
0.000848771
4.46037e-05
4.37561e-05
0.000195044
0.000231034
0.00674149
0.0004728
0.000253216
5.04365e-05
6.78447e-05
0.000195215
0.00672504
7.67985e-05
0.00531795
0.000338403
0.00885882
3.79388e-05
0.00301617
6.46739e-05
0.00308216
0.000557858
0.00164422
0.00294413
0.000368004
0.00247315
0.006309
7.40245e-05
0.000194485
6.38352e-05
0.000164621
0.00456107
0.0141503
0.000413425
0.012852
0.000118187
0.00490361
0.000109637
0.0142041
6.40831e-05
0.00672586
0.000383304
3.44822e-05
0.000378848
0.0030599
0.00275891
0.000300173
0.00672536
0.005063
0.0012906
0.000698152
0.00672565
0.00589296
0.0130002
0.000690706
0.00754575
3.64217e-05
0.0143433
0.000475017
0.00673761
0.00097537
0.00675276
0.000152351