/*--------------------------------*- C++ -*----------------------------------*\
| =========                 |                                                 |
| \\      /  F ield         | OpenFOAM: The Open Source CFD Toolbox           |
|  \\    /   O peration     | Version:  v2012                                 |
|   \\  /    A nd           | Website:  www.openfoam.com                      |
|    \\/     M anipulation  |                                                 |
\*---------------------------------------------------------------------------*/
FoamFile
{
    version     2.0;
    format      ascii;
    class       volScalarField;
    location    "550";
    object      ddt0(omega);
}
// * * * * * * * * * * * * * * * * * * * * * * * * * * * * * * * * * * * * * //

dimensions      [0 0 -2 0 0 0 0];


internalField   nonuniform List<scalar> 
13917
(
0.000340735
-5.34852e-07
-0.011015
4.48345e-05
-2.32641e-06
0.0213667
0.03914
0.0533975
0.173531
0.000587341
0.0031955
0.0010184
4.78282e-05
-0.0737437
4.21723e-05
3.26924e-05
-1.25224e-07
0.000744912
0.000992632
-4.14566e-06
-4.67522e-07
0.0454398
-4.09112e-06
0.0975638
-5.2603e-06
0.0567046
-0.0030827
0.000654887
0.00872932
0.000453879
0.000322088
0.000114829
-0.000328119
-2.93947e-05
-3.22342e-06
0.00599578
-4.17746e-06
0.0262132
8.20519e-05
-0.00610219
-6.47767e-06
1.02901e-07
5.66198e-07
0.00091647
2.24445e-06
0.000344288
0.000730385
0.00116439
-0.0294874
-6.84285e-06
0.000123333
-3.40719e-06
-0.0869008
-0.000341927
-5.53975e-07
0.000117069
0.00318833
-4.72166e-06
6.83612e-05
3.19008e-07
0.0191168
-6.74766e-07
0.261808
-4.65917e-06
0.0251418
0.99018
-1.8335e-07
-8.71631e-07
0.00318163
0.000252894
-1.96402e-06
0.230887
-0.040373
-3.98625e-06
-0.00275813
0.00119083
-0.0266895
9.04583e-06
0.0307251
-5.49771e-07
-1.98745e-06
-1.0722e-07
0.0109848
0.0352506
-0.178783
-1.07949e-05
-2.9327e-06
-0.136094
0.000120864
1.51548e-06
-0.0326798
0.00145247
-3.74078e-06
3.71866e-06
1.07089
-0.00880014
0.00241062
0.00105184
0.00230359
-0.0142755
-5.55216e-06
-0.000430165
0.000936165
3.03787e-05
-5.01135e-06
0.265336
0.00128265
0.00118726
-1.83452e-07
0.000397272
-0.112877
-0.0141395
0.00140058
0.237785
-1.28646e-05
0.0355235
-5.19143e-06
0.0122547
0.0220612
-0.000459904
1.29215e-07
0.00319434
0.0184768
0.000283461
-6.99272e-06
1.81515e-06
6.23987e-07
-7.2542e-06
-6.28599e-07
-0.0110116
0.0120586
-1.13225e-05
2.98755e-06
-1.29435e-07
0.00671036
0.0878014
0.000293951
-0.00363611
-1.72394e-07
-1.61195e-05
0.00602117
-1.96719e-06
-1.57745e-06
-0.000180479
-8.64481e-07
0.488535
0.0164065
-2.60279e-06
-1.57199e-06
0.000122874
0.000913329
0.0148496
0.0016159
0.00017103
0.000109192
-0.189574
0.000248276
0.00639437
-0.00933401
0.00384727
-9.33923e-07
0.000117527
-3.73459e-07
0.00220372
0.00137794
0.00227763
2.95892e-05
0.00102412
-8.70041e-07
3.0163e-05
0.000766691
-0.00409512
0.00153158
4.01752e-06
0.154004
0.000350418
0.0119018
-0.00552658
0.36706
-5.42426e-06
0.0112695
0.0003082
-1.64163e-06
-3.20113e-06
-4.57523e-05
0.0736028
0.00782789
-0.312456
0.000377772
0.00222236
0.00529691
-0.235464
0.00532354
-4.06384e-06
-0.0177832
-0.00144154
6.89382e-06
-4.60349e-06
0.00144078
-0.217672
0.000102867
-6.91642e-06
0.000894707
0.000899035
-0.016532
0.00874121
-3.32429e-06
-4.88588e-06
0.00104868
0.0206895
-1.88177e-06
0.0298205
0.0979067
0.00223063
-4.69818e-06
0.0167077
0.000874998
-0.0229636
-5.41929e-06
0.233452
-5.71281e-06
0.000551069
-6.98229e-06
0.0281426
0.240658
3.69202e-05
0.184776
0.000125775
-5.06164e-06
0.00533309
0.0014791
0.000364681
0.0665741
0.291107
-5.60542e-06
0.000125091
-0.0405391
-0.115474
-1.91241e-06
-5.92581e-06
-0.00128527
0.00263251
-6.16107e-07
0.00497107
0.0018799
-1.23189e-05
0.000299401
-1.32728e-06
-9.59919e-05
-0.192112
1.08766e-05
0.00404421
-0.000142402
7.80304e-07
-4.95486e-06
0.00117474
0.00873564
0.00149744
-2.06506e-05
4.03255e-05
-3.28311e-07
0.00188425
0.522926
0.00557909
-5.46517e-06
-0.0365973
-0.024094
0.00275011
0.0259274
0.00129018
-1.24404e-06
-7.74277e-06
0.000799193
0.0078911
0.00233678
6.19614e-05
0.0125782
0.000466894
-5.21986e-07
0.671399
-4.38953e-06
0.186265
9.31234e-05
-1.51337e-06
5.74349e-05
3.55499e-05
-0.00335583
0.00487648
-0.000198387
8.96851e-06
0.00729394
0.0631616
0.289966
-5.38865e-06
-0.0117907
-2.80528e-07
9.18779e-06
-5.05417e-06
0.0296525
-5.5579e-06
0.00125243
0.000292735
-6.77916e-07
0.000900116
1.67831e-05
-0.0158731
0.00022184
0.00104986
4.2366e-07
-4.8527e-06
-0.0938748
0.00711101
-5.08505e-06
-7.43463e-06
1.20396
-5.10784e-06
-0.0530774
8.1571e-08
0.0328542
2.27578e-05
0.0139725
0.000296663
0.0141714
7.76665e-08
-0.00327233
-0.0198988
6.61808e-05
0.00261702
0.00834927
-2.51925e-06
0.0195088
0.00692787
-0.0236031
-0.000238131
0.0127394
0.000146215
-0.195871
-0.00767415
-0.00147113
-0.00155528
-0.0162699
-1.14084e-06
9.26167e-05
-0.13446
-3.83445e-06
1.25679e-05
-0.00051864
0.00107161
4.0235e-06
0.00465338
-0.00113035
-6.08193e-06
0.0276754
0.00663729
-4.81648e-06
-5.75525e-06
4.17577e-07
-2.06704e-06
0.00390172
0.255884
-0.0907582
-0.122728
-4.59197e-06
0.00595182
-0.049846
0.000542571
0.0372031
0.0102743
0.20148
-5.2109e-06
0.00514974
-6.40337e-06
0.54738
3.15376e-07
0.0221479
0.00203147
6.66298e-05
-1.78008e-06
0.000930683
-0.000819119
0.00113167
-0.132181
-0.164766
0.0553662
6.89556e-05
0.00122453
-6.00503e-06
-0.14284
0.052073
-4.55015e-06
0.00199592
-3.17903e-06
0.00601384
2.27589e-05
-1.17784e-06
1.68733e-05
0.0249563
1.68335e-05
0.0100568
-0.387374
0.00276334
0.0321446
-2.56832e-06
0.00590251
0.0194497
-5.03178e-06
0.00138365
-3.67556e-06
-3.4233e-06
-0.00121555
-9.83514e-07
-3.25142e-06
-5.20758e-06
0.00912587
-5.09561e-07
0.00624553
0.052076
-0.0721659
0.00574738
0.00615403
-0.0133103
0.000527314
-4.53088e-06
0.0032523
7.69417e-05
0.000151157
-3.9695e-06
0.400811
0.0493652
0.136591
3.10508e-05
0.00205442
-5.44937e-05
9.21364e-05
0.00111541
1.04608e-05
0.00497992
-3.79938e-07
-5.2095e-06
-0.0751685
0.0101176
0.00960514
0.00187563
-0.0667784
0.0262579
-0.127118
-0.0221516
-1.89441e-06
0.000943914
1.14331e-05
-4.03999e-06
0.0135586
0.000762166
1.21058e-05
0.00103128
0.000473239
0.00696999
-4.88393e-06
0.00225313
-0.322951
0.0366483
0.0183568
-4.92124e-07
-5.34244e-06
6.66666e-06
0.000155679
-4.55609e-06
0.131056
0.0021671
3.11279e-05
-0.182569
0.000116933
0.00224468
-0.140641
0.0166292
0.002696
0.00658755
0.00227112
0.000749142
0.00323888
0.000515669
0.00303895
0.0183031
0.000651345
0.00149852
2.14188e-08
0.013165
0.000143834
3.00848e-06
0.000123552
-3.14067e-06
-0.0302387
0.219021
-5.10969e-06
-4.26121e-07
0.0386507
0.0524165
-1.27516e-06
0.0133946
2.71262e-05
0.00283489
-5.74449e-06
0.00813793
-0.00351822
0.000117864
7.02732e-06
0.00536437
0.00486282
-0.0581727
-2.64135e-07
-0.0191899
-0.0324879
0.93678
1.99388e-06
-0.136625
0.0719092
0.000549546
-5.56755e-06
-1.105e-06
0.00120238
0.00830306
1.21102e-05
-5.84659e-06
-6.48288e-06
-6.49928e-06
-0.0102264
0.0132833
0.000527165
0.00701261
-6.42868e-06
-5.73255e-06
0.00188269
0.0133319
0.000281474
-1.37541e-06
-3.80296e-06
-3.87343e-07
0.862359
-0.278409
-2.6622e-06
-1.62328e-06
0.00509695
0.000512982
0.000294439
-5.00243e-06
1.59401e-05
8.63071e-05
0.00156575
0.0201327
0.00773764
0.00322941
0.00155758
0.0114781
0.00239842
-5.28295e-06
-0.121155
-2.27975e-07
1.89929e-05
5.54289e-05
0.010428
0.0010028
-6.41976e-06
0.00111983
0.00161387
-0.767888
0.00175167
-0.00129575
0.000524778
-1.79291e-06
0.202538
0.00347851
0.0339048
-1.3083e-06
0.000181353
0.00779498
0.0113836
0.161732
0.00118512
0.000522225
2.98081e-05
4.11353e-05
-4.33286e-06
-0.00386273
0.000962106
-2.08519e-06
0.000874394
0.00205531
0.0238823
-0.0612739
2.88516e-05
0.0021854
-0.000859271
6.18257e-05
-2.07042e-06
-0.00703615
0.45249
0.436476
0.00502127
-1.16574e-06
0.0198478
0.00115029
-6.62263e-06
0.000208665
0.00145132
1.18882e-05
0.00283558
0.0340349
0.00322616
0.000384229
0.186021
2.9251e-05
-0.0228079
-1.0204e-06
-2.83878e-06
-0.0104715
0.439112
0.0340823
2.86637e-05
3.61756e-06
-1.54524e-06
0.000488492
0.014195
0.0021391
4.73467e-05
0.00246738
0.000915687
-5.04998e-06
-0.00905826
0.00201449
0.00336471
-5.80547e-06
0.00293122
-2.97625e-06
-0.426162
0.000785014
-0.000316867
0.000192155
-6.8417e-06
1.65502e-06
1.97387e-06
-0.000170521
0.000394704
0.000523833
-0.0523644
0.00102289
-6.16106e-06
0.00276919
0.0338569
0.00782276
9.46293e-06
-0.000107571
-5.56348e-06
0.000161998
7.77827e-05
0.0665684
-1.18281e-06
-0.033189
0.0001592
0.00316197
0.00289192
-0.0412121
-0.00107129
-2.25619e-06
-0.00273239
0.485437
-4.18644e-06
5.16953e-05
0.00986836
0.0056535
0.00223137
-1.97487e-06
7.61679e-06
0.00155383
7.06081e-05
0.00120487
0.00106293
3.14236e-06
0.000876256
-0.00496936
1.03439e-05
3.42627e-05
-6.22072e-06
0.012384
-1.09347e-07
1.95469e-05
-0.0219383
8.707e-06
0.455709
0.00011343
-0.000292448
-6.10785e-06
0.000501571
-4.84702e-06
0.000883871
-7.05387e-06
0.00310751
2.77467e-05
-0.111902
0.0370789
0.0115228
4.29448e-06
-1.5762e-06
0.00113059
0.000576564
0.00926755
0.0961804
0.000803632
-4.01761e-06
0.0073562
0.0115763
0.00326921
0.00796502
0.000795409
0.0305368
0.000203267
0.000417284
0.00303653
0.00262624
0.000812471
-0.0175539
0.000835509
4.32738e-05
0.00157763
8.12355e-05
4.80207e-06
0.000162827
0.000402441
0.000102266
-4.67559e-06
-6.49772e-06
0.000970634
3.73081e-05
0.00128636
-3.29305e-06
-3.11763e-06
-1.37648e-07
1.53112e-05
3.55253e-06
6.80895e-05
-6.26952e-06
0.00558006
0.000988665
0.0282669
-5.20668e-06
-9.09624e-07
2.85857e-05
0.000751011
1.8826e-05
0.501315
0.000432313
0.838909
0.000165309
0.00327523
1.45576e-05
-2.90578e-07
-6.95491e-06
1.70721e-05
-0.0389041
-6.44358e-07
-0.00441263
7.03776e-05
-0.0549676
-7.00314e-05
0.000593451
0.00303225
-1.65014e-06
2.02125e-07
0.00101389
-1.54322e-06
-1.14786e-06
0.592834
5.87278e-06
-1.5631e-06
0.000140242
-5.91289e-06
-1.52227e-06
0.000111015
-0.00282815
-0.0373164
0.000292807
1.03729e-05
-6.74614e-06
0.0135003
-8.40447e-05
-1.69068e-06
-7.22114e-07
0.924568
-0.010305
0.00770611
-0.000503613
4.31941e-05
-5.65098e-06
-1.39342e-06
0.000681243
0.000287977
0.00452322
-2.21818e-06
0.0174183
1.61638e-06
8.9127e-06
0.0228738
-3.02825e-06
0.000151307
-5.1281e-06
-5.49025e-06
0.00030176
-0.00237776
-1.88454e-05
0.468381
0.00540571
0.00262663
-5.22324e-06
2.59161e-06
0.00215135
0.00668756
-1.2025e-06
0.00687963
2.09549e-06
0.00033027
9.89839e-06
3.22692e-06
0.00967602
5.43448e-06
-0.00703727
0.000377066
7.50039e-08
-3.08767e-07
-2.11961e-06
-6.17558e-06
3.19796e-05
0.00577161
8.64191e-06
1.36919e-06
0.114195
0.473482
0.000416361
0.00045664
0.00116084
7.5708e-05
-1.66165e-06
0.000326574
-0.01715
0.00233914
-2.46996e-06
3.45642e-06
0.118001
0.000368646
-0.161888
-5.14669e-07
-1.10497e-05
0.00966088
0.000309766
-5.36136e-06
-0.0545866
0.00999938
-5.81528e-06
0.00315487
-6.94284e-06
5.28338e-06
-5.14225e-06
-0.0610565
4.1623e-06
1.38168e-05
-1.61055e-06
0.00211784
6.72986e-05
0.00257412
-0.0106572
5.98159e-06
-0.000244592
-2.96702e-06
-0.137287
-5.6257e-06
8.69875e-06
-1.48425e-06
0.00222789
-1.23355e-06
0.00328188
-0.00358651
0.0388363
-0.000131305
0.00641146
-0.0491757
-5.04254e-06
0.0253944
-0.0684499
-0.0697996
0.004993
0.086231
0.0773483
0.0027146
-7.48577e-07
0.0304684
0.000307938
0.0433887
1.55593e-06
-3.88436e-06
-4.29428e-06
-3.55832e-06
9.78171e-05
-0.000456229
0.00528617
-3.58234e-06
-1.76277e-06
-0.0552379
-0.0120968
-1.42254e-06
0.00139361
0.000182897
8.52974e-06
0.040325
0.000819076
6.36981e-06
6.64205e-05
-0.00625887
0.0212537
-0.0127395
8.86283e-06
0.00437904
0.00228875
-0.0819062
0.17273
0.00145037
-6.27834e-06
1.4407e-05
2.24124e-06
4.75106e-06
1.74237e-05
-1.50199e-06
8.81936e-05
0.00019577
-0.225578
0.00263722
1.3759e-05
0.00260226
-0.131109
0.000397769
-3.06918e-06
-0.0391704
-1.70138e-06
-2.07514e-06
0.000510315
-0.250677
-5.99858e-07
-5.73092e-06
0.0203844
0.00426311
0.01382
0.00172665
0.00602237
-5.43911e-06
0.00320508
-2.89342e-06
-5.9056e-06
-2.73075e-06
0.0884669
-0.0249196
2.42157e-06
1.13614e-07
-4.75491e-06
-0.0142998
1.0561e-05
0.000190956
-1.52201e-06
8.98806e-07
0.00315371
8.09169e-06
0.000771815
0.0141898
0.00848608
-7.8557e-07
0.00268321
2.73483e-05
-0.0282808
-0.124627
-3.86072e-06
-0.090852
0.00127038
0.00478226
-9.35523e-07
0.022305
-1.87741e-06
0.000114264
0.000304415
0.00181107
0.0366159
0.00339842
0.00256989
0.432342
-6.90592e-06
0.00610273
5.47855e-06
7.80886e-05
0.0168507
-3.81993e-06
-1.79893e-06
1.23533e-05
6.35027e-06
-0.185221
-1.56466e-06
-4.28688e-06
0.000900886
0.000458914
0.000806425
0.033682
0.00209229
-0.046078
0.000983938
0.000344848
0.000397725
-0.0045119
0.000447344
2.53638
0.0534307
8.58003e-05
8.00742e-06
0.0120274
0.00353315
-1.8025e-06
0.00231313
0.000297449
1.85763e-05
0.000105394
9.28149e-06
0.000301768
4.74378e-07
0.000743299
-0.00183892
-6.01382e-06
0.000852039
1.33653e-06
-0.000274977
-6.90846e-06
-0.000655165
0.000932459
3.95699e-05
9.75156e-06
2.80491e-06
-0.00285186
0.000616994
0.376724
-3.20057e-06
-1.29614e-06
0.00103782
-5.15939e-06
0.00238759
0.000506822
1.86441e-05
0.00120522
2.8011e-06
1.49611
6.38956e-06
0.000372849
-0.00862306
0.0050351
-6.31479e-06
1.6734e-05
-0.00248894
-5.17107e-06
-5.92677e-06
-0.0951061
-0.086787
0.000115146
0.00249131
-4.46995e-06
9.36832e-06
0.103216
1.43201e-05
-1.62642e-06
0.00452419
2.48456e-06
0.00700947
-2.20992e-06
-2.27311e-06
-3.422e-06
0.00212603
0.00588168
-4.5884e-06
-3.44923e-06
-5.59445e-06
4.56145e-05
-5.84509e-06
-0.0142589
0.000836327
-2.6559e-07
0.261049
0.000360422
0.0078258
0.0304558
-0.00402916
3.02486e-06
-2.1967e-06
-4.2952e-06
0.0126715
4.74087e-05
0.00727852
-0.0350638
4.06865e-06
0.0270725
0.0123353
0.000692544
0.00228846
-0.00086024
0.0132691
0.0119728
0.0018757
0.0201743
0.0440367
0.00102908
3.34769e-05
0.000175533
0.000142257
2.97952e-06
3.45284e-05
0.144111
-0.000143713
-5.04652e-06
0.000228061
0.00161699
0.000256347
0.00343531
2.16359e-05
0.533741
0.000403543
0.00309349
0.00151737
0.00329903
0.000166209
1.68039e-06
4.3188e-06
-0.0169027
-5.31718e-06
6.32995e-06
-2.097e-06
1.65042e-05
-3.23012e-06
0.000361621
0.00292357
0.0074938
-0.000200175
0.00358774
0.19145
-0.0280242
-2.25051e-06
-0.00748777
0.122707
-3.58021e-06
-6.03096e-06
0.000213588
-0.0435903
-8.75043e-07
0.00108428
0.0111094
0.000583601
-3.38873e-06
3.50115e-05
3.2717e-06
0.00228978
-0.000144889
-6.19191e-06
0.101922
0.0314986
0.000149637
0.00918641
0.00103579
1.1801
1.0419e-05
8.36795e-05
0.0285753
-0.00712432
0.00147742
0.0152884
0.000125631
-1.08841e-07
6.25577e-06
-4.96151e-07
-3.55668e-06
-7.26961e-07
0.000197306
-5.85748e-06
0.00255388
-6.00419e-06
0.000157976
7.29245e-06
0.000883643
0.00242906
0.044279
-4.97696e-06
0.0032097
6.11988e-06
-0.0108273
-3.02125e-06
0.00025304
-2.88534e-06
0.00387761
-0.0155158
0.00247064
-6.04223e-06
0.00263852
-4.06353e-06
0.000150055
-0.06725
2.34095e-06
-5.17178e-06
0.000508896
0.00021281
0.0311718
-5.99334e-06
-8.84972e-05
3.60291e-05
-4.55355e-06
-0.00117164
1.04267e-06
-4.72194e-06
3.80454e-06
-0.136959
4.87275e-05
0.00567529
0.342172
0.000911798
0.0040811
4.13166e-05
-4.6957e-06
0.000475823
0.0932985
3.93854e-05
-8.89938e-05
0.000528402
0.693602
-5.91484e-06
-0.0969727
0.00097382
0.00130898
-2.66976e-06
-9.33971e-07
0.00245342
-2.76351e-06
-9.71506e-08
-5.06494e-05
3.03982e-06
5.06549e-06
0.000140125
0.00124623
0.0136007
0.0512096
7.74989e-05
0.0013275
-0.00322752
0.00164695
0.000387078
0.00059577
-0.0494951
0.000457928
0.835128
4.28924e-06
2.39733
-0.0751711
4.21358e-06
-9.87732e-07
-5.86907e-06
2.33432e-05
0.000540498
7.49779e-06
-4.02435e-05
0.00145741
3.03142e-05
7.27963e-05
-0.0300977
-1.5815e-05
5.42914e-05
0.174188
-4.93324e-06
0.0168614
5.59801e-05
-0.00137974
-5.67307e-06
0.0675616
-0.0307031
-4.13648e-06
2.51528e-05
0.0274718
0.000125051
-0.0620129
-6.08684e-06
2.6932e-06
0.0262561
2.22618e-05
-0.000875329
-0.236742
-1.70785e-06
0.000794535
0.00014753
-2.95669e-07
-7.54128e-06
0.0254415
-0.0420801
1.21507e-06
4.02917e-05
-4.21947e-06
7.91846e-05
-0.00324702
-0.0398936
-1.49657e-07
0.00633186
-0.00551394
0.00304746
2.33707e-05
2.07309e-05
0.00199648
0.00156028
0.000152886
-3.04476e-06
0.000994922
-0.00814027
3.42669e-06
0.000347445
0.106545
-0.0373313
-0.0280424
0.000105523
-2.23419e-06
-5.82332e-07
-9.0992e-07
-0.0127662
0.000923495
4.76947e-05
2.622e-05
5.34012e-05
9.61e-08
-5.28476e-06
-2.16155e-06
0.00130073
0.000369822
0.221068
0.00282705
-0.276858
0.0108964
0.000739701
0.000721852
-5.53717e-06
6.0541e-05
0.103833
-1.82426e-06
1.95997e-05
0.000792763
0.00221128
0.00753016
0.0403984
0.00429117
-1.60648e-06
0.0208514
6.97023e-07
1.20342e-05
0.00167629
-1.10737e-07
1.05005e-05
0.00305573
0.320636
2.59931e-06
0.210083
-2.05688e-06
2.7392e-06
2.15615e-05
0.0018294
0.000134805
5.66187e-05
-0.00594347
1.50454e-05
0.00447505
0.00608605
-1.2575e-06
0.00373361
-6.01586e-06
-0.00379253
0.00124504
-1.59399e-06
0.076585
0.000878181
0.000592667
4.6299e-07
-0.0108828
0.000112111
0.0397487
3.23805e-05
0.000311163
0.0536997
1.2748e-06
-0.0215132
-3.96142e-06
0.000755332
-0.000233901
-1.31979e-06
-0.0925134
1.29268e-05
0.00219631
0.000782985
-0.00108621
0.000342025
0.00114371
-8.47361e-07
0.0955926
-0.000965885
0.0164516
-0.000108227
0.00108626
-1.53703e-06
0.000438383
-3.13475e-06
0.00105352
-0.0350112
6.06052e-06
-4.48298e-06
0.0192029
8.21038e-06
-0.00678376
1.34463e-05
0.165271
0.00319727
0.000308118
-5.62696e-06
-6.12106e-06
-1.35805e-06
-1.214e-06
0.00143174
-0.00230531
0.000171129
6.8782e-05
-4.72966e-06
0.0133014
4.09014e-05
0.00021407
0.00184164
-3.22113e-06
-0.418815
0.0008118
0.000178241
-0.0124803
-0.0118976
0.0241526
-0.0260301
-0.0859759
-6.14066e-06
0.012495
-0.0645105
-0.0205447
-2.91983e-06
-1.26687e-05
0.00235031
0.0490666
0.0125229
0.014542
2.0241e-05
0.00263604
0.000477864
0.00371908
-0.0882831
0.00053071
0.00252572
2.56159e-05
0.000520442
0.00144806
-3.31688e-06
0.000805136
0.906858
-1.44531e-06
-0.00383079
-5.75344e-07
5.005e-06
-0.00232051
-0.00990507
-5.96307e-06
2.2988e-05
8.95309e-06
2.47535e-06
0.000297739
0.00305004
3.47657e-05
-5.70469e-06
-4.14715e-06
0.000451419
0.00011992
0.000110799
0.0148898
-3.06884e-06
-0.0468416
-0.0626406
0.0399363
0.00159251
0.000710367
0.0131758
0.000294798
0.0229078
0.00367852
0.379413
1.0778e-06
-0.0266382
0.00623952
-5.2495e-06
-4.62275e-06
0.0078594
-0.170084
1.26116
8.22854e-06
-4.10642e-06
0.00805729
0.131209
0.245561
3.73167e-05
2.75283e-05
-0.0156161
-3.4327e-06
0.0289421
-0.247636
0.0083269
0.167145
-2.91099e-06
-6.28159e-06
-6.69457e-06
9.67736e-05
0.0136517
0.000476079
8.81683e-05
1.87599e-06
0.00307393
-0.0280657
0.000449369
0.173634
-0.0598425
0.0257692
0.00889124
-3.03736e-06
-2.6634e-06
0.0763767
-1.85502e-06
3.19048e-06
6.11311e-06
-0.114888
0.00040597
-0.344823
0.00245738
-4.43418e-06
0.0650906
0.000371193
-3.00031e-06
-0.061885
0.00329316
0.000490225
1.23989e-05
-0.117892
-0.164986
-9.58665e-07
0.556694
-0.00153639
-0.274918
-0.267866
0.000990288
-5.56184e-06
8.52157e-06
0.0556153
8.05055e-05
-0.0570555
0.000424876
0.0557018
0.00476503
-4.50108e-06
1.08467e-05
-5.26925e-06
-8.34967e-07
-0.187805
0.0149787
-1.22852e-06
-0.071459
0.000550579
-4.46163e-06
1.95931e-05
-5.94497e-06
0.00280772
7.45973e-06
0.0159505
0.000443445
-5.61975e-06
-7.44014e-06
0.0220153
-0.125208
0.000448925
2.59687e-05
0.000434009
-3.23231e-06
2.63743e-05
0.000124039
0.0158872
0.0136283
-0.173358
-3.38352e-06
-6.80346e-06
1.44033e-07
0.00204277
-5.39245e-06
1.07211e-06
0.00316495
0.000996422
0.00826003
4.03576e-06
-0.144196
0.0128957
-7.63825e-07
-0.0387425
0.00232752
0.000379254
0.0118196
-9.61945e-07
-0.151237
4.61673e-05
3.07308e-06
3.35092e-07
-1.54398e-06
0.00484918
6.59372e-06
2.88824e-05
0.000473139
0.00869937
0.00481257
-8.94143e-07
-7.33915e-06
2.72151e-05
-1.03446e-06
0.00219335
-4.15808e-06
0.00118855
3.92486e-05
-0.00469693
2.46713e-05
0.0353654
-3.02738e-06
0.0275101
1.01161e-05
-9.22521e-07
-0.270064
-0.0173446
-0.0414889
0.00772493
0.000153192
0.000508042
-2.10675e-06
-0.0427621
-1.15207e-06
-5.14337e-06
-0.00697983
0.000964543
-0.333254
-0.0972326
0.00318995
0.305935
0.00238418
0.00411992
1.18145e-05
6.99184e-05
0.000149104
-0.0835053
-4.95909e-05
-0.115155
0.0182603
1.4406e-05
-1.81719e-06
-5.04553e-06
0.278532
0.045109
3.60696e-05
-3.62594e-06
3.65575e-05
0.000126077
0.000431762
0.0110611
-0.00270545
-5.07871e-06
-0.0958908
0.0018062
0.260292
0.00132062
1.88036e-05
3.70002e-05
0.047378
-7.06832e-06
0.00197763
-0.0169743
2.65777e-06
6.01864e-05
0.00308981
0.00542208
6.6676e-07
0.00109757
5.20706e-05
0.00606172
0.000426438
0.000150514
2.46304e-05
-0.158452
-5.98525e-06
0.00157054
-0.00155958
-0.206388
0.000619634
0.0011103
9.04267e-05
0.000172498
-3.8165e-07
-0.22164
0.000111714
5.51566e-06
0.000190344
-4.45473e-06
-3.54897e-07
-0.213334
-3.12762e-06
-3.63661e-06
-4.45746e-06
0.00264433
-2.88117e-06
0.000217447
0.00126714
0.00336458
0.0013455
-8.03842e-07
0.00051764
0.00262781
0.00495811
0.00186475
0.000547776
0.00288336
0.0410662
0.0119914
-3.57304e-07
0.435336
0.169235
-2.76454e-07
4.22083e-05
-1.78132e-06
-0.0382893
0.00504628
1.12838e-05
-0.00639995
-0.102285
-6.46252e-06
-3.16268e-06
0.0279576
0.0162126
0.00100094
-1.64651e-06
0.468775
0.0134047
0.0135168
-4.68729e-06
-0.0786978
0.0013213
0.000407877
-0.132538
9.98139e-05
-1.80134e-06
0.000199077
0.00388303
0.000258635
0.0543643
-0.14142
-4.40413e-06
0.410166
0.00307545
-0.0884778
-2.69331e-06
-0.00457333
-3.75338e-06
-5.55371e-06
0.0409895
0.0236379
0.0042162
-0.00708786
-0.000453435
0.000636131
2.88034e-06
-0.193047
0.0130174
-1.44573e-06
3.21177e-06
0.000392436
7.86805e-06
0.000731405
0.0104049
0.55893
0.000702401
1.24445e-05
1.34418e-05
0.022362
1.99745e-05
0.000854109
-3.78174e-06
7.67758e-06
0.00674347
0.0188838
0.00609081
0.0133948
-2.7607e-06
0.00526742
4.52899e-06
0.00038669
0.225585
-0.054278
-2.98339e-06
6.55047e-07
0.000334042
2.87954e-05
-5.07713e-07
0.0431783
-0.0994952
-3.00534e-07
5.12045e-06
-1.02073e-06
-5.53853e-06
0.0124721
5.73308e-06
0.046708
0.00234836
0.00095197
-2.57522e-06
0.000812903
-0.1463
0.000310358
0.00301311
-0.26146
-2.75391e-06
0.130414
-2.62759e-05
0.00050476
0.00313028
0.0287724
-0.0833222
0.000937279
-6.10051e-06
0.00796174
5.15638e-06
0.000397426
-3.5065e-06
0.0560214
-0.000307737
0.0826728
0.0059714
0.000695679
-1.97244e-06
0.0051474
0.000124643
-9.66523e-08
0.057587
-4.50606e-07
0.000361796
0.000306595
-2.7496e-06
-1.3369
1.25504e-05
0.096875
1.93067e-06
-5.8762e-06
-0.262784
0.0255897
-1.00159e-05
-0.000380176
0.000436754
0.000979166
0.000946459
0.000105037
4.58092e-05
7.80563e-05
0.00475395
-7.08245e-07
0.141235
-0.00062191
0.00597056
0.00196154
2.0329e-05
0.0436401
-1.10092e-06
0.014312
7.42503e-05
-0.145257
0.0692123
0.175042
0.180766
0.00702203
0.0014151
8.5287e-06
0.0313752
0.00107167
-2.00559e-06
-0.00477685
0.370502
1.83757e-06
4.72851e-05
0.00018741
0.000188199
0.000270053
0.0207386
-6.36788e-07
0.0001824
0.000330773
0.000625847
-3.23878e-06
0.00151935
1.0807e-06
0.200336
4.96228e-06
0.00209437
0.000221972
0.000469341
0.00185664
0.00771544
0.00237345
-4.91241e-06
-0.00666298
0.0285531
0.0662915
1.74014e-05
0.131183
0.000173975
0.0280523
-1.09662e-06
2.21183e-05
0.0451822
0.000749557
-0.0671321
0.0145719
0.000280806
-0.0202012
-4.78917e-06
1.93158e-06
0.056847
0.00170109
2.44625e-05
0.152289
9.86035e-05
0.000845341
0.000383053
0.00126925
9.96279e-07
0.113329
0.236185
-0.0534684
0.00490658
7.72289e-05
0.000699889
-0.0654218
1.76396e-05
-2.17741e-06
0.00100538
-1.28466e-06
-0.0026895
-0.302192
0.0162232
-0.00145959
0.000888848
1.83489e-05
-0.0486338
2.41714e-07
0.00135926
-1.29516e-06
-0.17158
2.69074e-05
-0.000844881
0.0131837
0.00166251
-5.48249e-06
0.00154907
-0.270594
-1.86092e-06
0.00285254
-2.34122e-06
-1.2425
-0.116418
0.00232367
-0.0269898
-6.0494e-06
0.00305678
0.00274694
0.000467639
-2.23994e-06
2.12392e-05
-4.73148e-06
0.000874717
-1.77975e-06
0.00155296
-1.75513e-06
-2.27149e-07
-0.0353757
-2.10341e-06
9.631e-05
7.69747e-05
1.11743e-07
0.0172085
-3.81517e-06
9.9929e-05
0.0198687
0.000666066
0.121048
-2.29288e-06
-0.169729
0.000723668
0.110793
1.7734e-05
0.0024852
1.57549e-05
0.000522711
0.00242575
0.00226556
0.00561816
-0.0853482
0.0042171
-0.194546
-0.000132982
0.00222925
0.000436206
0.0100605
1.18595e-05
1.51135e-05
-3.56754e-06
0.000816563
0.000414886
0.00494129
0.000863167
-0.0322837
0.286729
-0.00643675
-4.93413e-06
0.0117757
0.00349423
-1.5039e-06
6.03373e-06
-4.09542e-06
0.0316479
-3.05452e-06
0.0196217
-2.75073e-06
0.000125477
-0.0529267
-0.00062947
-4.11397e-06
-3.51121e-06
-0.216953
-4.43136e-06
1.86403e-05
7.78532e-05
7.46958e-05
0.000117371
-2.86083e-06
0.0024718
-0.0066518
-0.000234666
0.00559019
-0.122308
0.0148708
0.0291494
-3.72259e-06
-5.00865e-06
0.00109961
1.8549e-05
-0.00103762
0.239546
0.021018
-1.22829e-06
-2.07666e-06
0.00844239
0.00441623
-2.08747e-06
-4.62262e-06
-0.000227602
-0.318573
0.0535002
9.7238e-05
0.000189047
-1.84503e-06
0.0251863
0.00242732
-0.00108855
0.000575279
0.000390732
-2.55378e-06
0.000401526
0.00994943
-7.02762e-07
4.74194e-06
9.47645e-05
0.00283728
2.31781e-05
-0.0420539
-3.83427e-06
0.0404061
6.7355e-05
-0.00105906
-4.78997e-06
-5.8848e-06
0.00752997
0.654466
-0.00125807
0.00447087
-0.283403
-7.47048e-07
-0.0141168
0.00220631
-5.64491e-07
-0.00671611
0.00488311
0.00229871
-3.60907e-07
0.00121029
-0.0916008
7.10875e-06
0.00106947
0.0177254
0.000293608
-4.82849e-06
-1.0696e-06
9.42851e-06
4.92326e-05
0.00148626
0.00791058
-0.00569965
0.000958441
-1.49645e-06
-2.92658e-06
0.0442401
-3.80703e-06
0.000352497
-2.82993e-05
1.8423e-05
0.000581833
-4.48957e-06
1.40507e-05
0.0069671
-5.49373e-06
-0.080626
-4.03801e-06
0.487164
0.0158073
0.00250499
-5.18821e-07
5.89177e-07
-0.0979165
-1.56669e-06
4.23507e-05
-4.2411e-06
0.00316077
0.000261163
0.000300643
0.0229974
0.00057625
0.0160799
-1.07217e-05
0.00127981
2.62836e-06
-2.91544e-06
-0.0683992
0.0281864
-0.0440223
3.16041e-05
0.00129832
0.00118481
-0.145849
-0.0176033
0.00467286
0.000411459
4.49944e-07
-0.0793132
1.17704e-06
9.68672e-07
0.00460571
0.00220982
-4.32361e-05
0.00511487
0.000909451
0.000140778
0.000123905
0.0210298
5.63385e-05
-5.71408e-06
-0.0530966
0.00047042
-2.09532e-06
0.00550504
-5.23753e-06
-3.59805e-06
0.00281909
0.00232015
-0.384641
-3.16042e-06
1.57088e-05
-6.09377e-06
0.0185098
-4.78493e-06
-0.0470794
-0.00456856
0.00739742
0.0085756
0.197996
-4.49073e-05
-0.042213
0.0111231
-1.92431e-06
0.000449137
-0.000443636
3.82929e-05
-0.00513571
-0.0125743
-0.146284
0.00184689
0.0195661
-3.71813e-06
0.0023821
-5.53129e-06
-0.0717823
0.000165506
3.64264e-05
4.27041e-05
1.51066e-05
-5.03902e-06
0.00227117
-0.15797
-3.98618e-06
3.42155e-05
-6.87267e-06
-0.0474172
3.05895e-05
-0.0199286
0.045661
0.0278678
-2.01928e-06
-5.22553e-06
0.00551777
-0.0641529
-2.2022e-06
-0.00628964
-1.0197e-06
0.00342301
0.0025458
0.00136306
0.000825575
0.521676
-3.70282e-06
5.30549e-06
0.00436475
0.010149
0.000157632
0.000230766
-5.54244e-06
-0.00430162
-4.51812e-06
-7.40776e-06
2.20075e-05
-5.06108e-06
-0.164635
0.0115331
0.00490609
0.00089253
-0.1063
0.012851
-2.06556e-06
0.000238587
-2.39094e-06
-0.00227865
7.81253e-06
2.51828e-05
-4.54502e-06
-6.1206e-06
2.65038e-06
0.00135036
2.96809e-05
0.00762993
6.73283e-06
-0.000838518
2.21414e-05
0.00488447
-4.64027e-06
0.000252015
0.000332226
0.000463295
-0.110794
-6.05744e-06
0.0161669
0.000846934
0.000481622
1.25384e-05
-5.88339e-06
0.00296453
-0.0741011
7.7968e-06
-7.11574e-07
0.00434342
0.00441868
0.00391438
0.0492196
2.43132e-06
0.00518975
0.000241395
-2.74936e-06
0.14795
3.56869e-05
0.0355005
-3.03369e-06
1.09961e-05
-3.72577e-06
0.00650947
0.00726267
-1.89381e-06
-0.0183168
0.0040645
-5.33914e-06
-2.90698e-07
-6.14373e-06
-0.0138912
0.0110244
0.00109229
6.05809e-05
0.00047639
-4.81071e-06
-4.07463e-06
3.45846e-05
-5.32248e-06
0.00320329
-3.64108e-06
0.00104549
0.0164227
0.000329452
-1.42811e-06
0.208054
0.00134467
-4.70255e-06
-0.00108492
0.000223795
0.00604016
-8.60053e-05
0.0031036
0.000751781
-4.81823e-06
0.00141383
0.00120485
6.29522e-05
0.00604534
0.000969769
0.000182348
0.00884304
-5.13646e-06
0.00262097
0.000975514
0.00252257
-6.03054e-06
-5.44986e-06
-1.21925e-06
0.00377195
0.000892142
0.00088758
0.304182
-0.0821021
0.051881
-3.538e-07
-0.000387278
0.0187117
0.0211695
-4.54227e-06
-4.10699e-06
0.000903902
0.056738
1.61937e-05
0.000343601
0.13584
-0.0166827
0.0684066
0.00275302
0.00292
0.00749162
-0.00607474
1.92509e-06
-0.741511
0.00448136
6.2124e-06
1.44042e-05
7.58474e-06
-0.19604
0.00372945
0.105665
3.56388e-05
0.17782
2.87862e-07
0.00258158
0.0108989
-3.48227e-06
0.000319671
-0.074763
0.0343672
0.000650807
1.78955e-05
1.3337e-05
-3.08656e-06
-0.0119106
0.00238261
-0.136633
0.0127129
-2.35879e-06
-0.0643547
0.00401689
0.00504216
-5.468e-06
-3.12304e-06
0.00304739
-0.0205425
-5.48105e-06
0.000630109
-0.000912344
0.000235195
0.206426
-0.00221101
-0.176432
-0.030533
3.8661e-05
1.22014e-06
0.00178101
0.0218311
0.0982745
4.83517e-06
-0.00315932
0.00989425
0.0101928
2.42347e-05
-7.33606e-07
-0.0266848
0.01326
0.17817
0.0234457
0.00537586
-5.32728e-06
0.0850116
-0.0389853
-2.68824e-06
0.00200556
0.00204995
-2.18066e-06
0.00303814
0.0781845
0.0241929
-3.45161e-07
-0.00113087
0.00237789
-0.376263
3.71939e-06
4.73749e-05
-9.5419e-07
3.77679e-05
-2.21408e-06
0.000430417
0.000409857
-0.000830004
0.00138344
0.000313057
-0.00921026
2.08013e-05
0.000161863
0.00011066
0.0431528
0.00165697
-0.0657811
9.75265e-05
-4.39817e-05
-0.120849
-0.0024758
-2.00901e-06
-0.000287471
0.00943971
0.242901
0.00968828
-5.30865e-06
-5.34288e-06
-4.9658e-06
0.0156562
1.02199e-05
0.0112505
-0.00944928
-0.0203917
0.000210324
0.0039874
-0.0441083
-2.32685e-06
0.543825
-0.000433096
-0.000101076
-3.54403e-06
4.81692e-06
0.000806048
-0.129125
-5.00206e-06
-0.0660377
0.0104461
-0.0189129
0.0037264
-4.22216e-06
-5.19602e-06
0.000208078
3.2145e-05
0.301853
-0.154356
0.00163375
0.0142111
-5.00417e-06
-9.25467e-08
8.78654e-07
-9.62153e-07
-0.0670416
3.40485e-05
-0.0880448
0.00162866
2.57655e-05
-0.0637388
-0.0453491
0.00078949
-0.00816452
4.11356e-05
8.30433e-06
-2.13617e-06
4.4732e-05
0.0176736
0.00541869
0.0578568
-1.97516e-06
1.95629e-05
0.00167554
-1.32709e-06
0.00470929
1.47807e-05
0.00188341
0.00358387
-0.000132576
0.000104737
-3.20209e-06
0.000642096
0.000416652
0.00527721