/*--------------------------------*- C++ -*----------------------------------*\
| =========                 |                                                 |
| \\      /  F ield         | OpenFOAM: The Open Source CFD Toolbox           |
|  \\    /   O peration     | Version:  v2012                                 |
|   \\  /    A nd           | Website:  www.openfoam.com                      |
|    \\/     M anipulation  |                                                 |
\*---------------------------------------------------------------------------*/
FoamFile
{
    version     2.0;
    format      ascii;
    class       volScalarField;
    location    "550";
    object      p;
}
// * * * * * * * * * * * * * * * * * * * * * * * * * * * * * * * * * * * * * //

dimensions      [0 2 -2 0 0 0 0];


internalField   nonuniform List<scalar> 
13917
(
-0.0688472
0.0047586
-0.0464856
-0.0339053
0.03062
0.461056
-0.047585
-0.0455569
-0.0823028
-0.118473
-0.0614273
-0.0586899
-0.0344838
-0.0375577
0.0527872
0.0307331
0.0110444
-0.0908419
-0.0584484
0.0142538
0.0236919
-0.0453335
0.0191958
-0.0496396
0.0308488
-0.0498781
0.222962
0.234421
0.0974055
-0.158025
-0.0810308
-0.0313685
0.176657
0.115594
0.0354857
-0.0555634
0.0192095
-0.0402882
-0.0395842
-0.0567727
0.00376273
0.022414
-0.00833473
0.260276
-0.0150965
0.13235
-0.0887106
-0.0844614
0.513864
0.00894111
-0.0508016
0.0627087
0.516474
0.119812
0.0124143
-0.0507947
-0.0620178
0.0305305
-0.0395377
-0.0140251
-0.384255
0.00328784
-0.0385353
0.0143982
0.452312
-0.393197
0.0312148
0.0391016
-0.0806816
-0.0390173
0.0302086
-0.0845574
-0.103385
0.030108
0.501643
-0.0584773
-0.0661961
-0.0266945
-0.0546294
0.0234975
0.0206443
0.0306334
0.438326
-0.0404993
-0.414788
-0.0260362
0.0186482
-0.342574
-0.0495956
-0.00869282
-0.0693371
-0.150423
-0.0017189
0.0534777
-0.357904
0.453767
-0.0704776
-0.0870074
-0.0594852
0.33483
0.00230294
0.17391
0.268946
-0.0332165
0.000104308
-0.0959885
0.0667593
-0.0857758
0.00932108
-0.0838539
-0.279045
-0.0564846
-0.0594453
-0.0920373
0.079744
0.512873
0.0216715
0.503245
-0.0470094
0.118343
0.0224978
-0.0818308
-0.0409753
0.22835
0.00731265
0.0520191
-0.010488
0.00755728
-0.00619935
0.461283
-0.0466053
0.0773656
-0.0151412
0.0239602
-0.189433
-0.0487054
-0.0668018
0.349336
0.0315906
0.117585
-0.0568309
-0.00680017
0.0657087
0.295003
0.0397749
-0.0821178
0.0382226
0.0608562
-0.00654412
-0.0272068
-0.0686767
0.507667
-0.0641067
-0.00997987
-0.0445258
-0.421409
-0.0344943
-0.060507
-0.0652955
-0.19419
0.0867811
0.223451
0.021264
-0.0700035
-0.0594931
-0.0594464
-0.032388
-0.0761581
-0.0104257
0.179475
-0.0289167
-0.331008
-0.0593182
0.0141154
-0.0708117
-0.00381041
-0.0444048
0.510373
-0.08215
0.0101091
-0.154951
-0.0858692
-0.00741438
0.0189001
0.0845093
-0.0517167
-0.24579
-0.417096
-0.0755976
-0.0595436
-0.0590734
-0.415528
-0.250334
0.0229064
0.367295
0.214845
-0.000272903
-0.00160922
0.0488247
-0.333127
-0.0457696
0.00922976
-0.0722971
-0.0679219
-0.101273
-0.132002
0.0351322
0.0314388
-0.0848929
-0.0480959
0.0635779
-0.0467085
-0.101788
-0.0596892
0.000530748
0.321675
-0.0802648
-0.244467
0.0195212
-0.370131
0.0101963
-0.144064
0.00422406
-0.0389616
-0.100324
0.0300233
-0.289328
-0.047106
0.00108369
-0.0560272
-0.0592169
-0.0741993
-0.0465896
-0.104412
0.000303201
-0.0343041
-0.070419
-0.422989
0.0217036
0.00980368
-0.060911
-0.0718074
0.0122984
-0.0569634
-0.115043
0.21615
-0.0643177
0.0209593
0.0293669
-0.0858135
-0.0216527
-0.177376
0.350343
-0.0105554
0.0311169
-0.0630931
-0.0593096
-0.0639927
0.0831642
0.0493079
0.0125829
-0.0403704
-0.189627
-0.0570064
0.00163097
-0.148473
-0.0379384
-0.0595432
-0.0520952
-0.0587768
0.0210369
0.00619273
-0.0871578
-0.047165
-0.0950553
-0.0382389
-0.135478
-0.0529145
-0.00623771
-0.28491
0.0131204
-0.068232
-0.0445948
0.0122471
0.0245575
-0.00513309
0.223614
-0.0567242
0.0230134
-0.0219824
-0.192815
-0.0477934
-0.187811
0.0197661
-0.0629503
0.0282447
-0.0221696
0.0212499
0.00387637
0.0108374
-0.148731
-0.0602057
-0.0103931
-0.0720323
-0.00995632
0.519693
-0.00200695
-0.144134
-0.010982
0.0302901
-0.291232
-0.0413427
0.0213848
0.00532159
-0.285437
0.00618012
-0.100622
-0.0103216
-0.0404085
-0.0275084
-0.248021
-0.0615414
0.483912
0.0831085
-0.197777
0.354564
0.0223678
-0.0730735
-0.0659576
0.0308684
-0.0412358
0.363519
-0.0377802
0.104733
-0.0500499
-0.0397492
-0.365976
0.350203
0.0419094
0.0300644
-0.0472358
0.0246355
-0.0351156
-0.282251
0.0447125
0.0249174
-0.0387243
0.0435761
0.00925915
-0.0598471
0.133148
0.004054
-0.044001
-0.0567041
0.0132295
0.00787341
0.028038
-0.00700769
-0.186538
-0.0782592
0.412405
-0.294977
0.0265258
-0.184167
-0.415573
-0.0677438
-0.0449545
-0.049396
-0.0960717
-2.39169e-05
-0.0573095
0.00625864
-0.369706
-0.0131522
0.474726
-0.118269
-0.039518
0.0250235
-0.0835197
-0.161336
-0.10006
-0.0897442
-0.362249
-0.246217
0.0236868
-0.11135
0.00994341
-0.424305
-0.0472689
0.0262942
-0.193475
0.0301441
-0.139112
-0.0273618
0.02458
-0.00553528
-0.060483
-0.0038678
-0.0605012
-0.405686
-0.0608843
0.389571
0.0290236
0.33797
0.37188
0.0175213
0.0734319
0.043203
0.0315846
-0.158482
0.0126644
0.0323463
0.0058956
-0.183561
0.0234579
-0.0500965
-0.057388
-0.409642
-0.247139
-0.0547738
-0.206691
-0.0665601
0.0260077
-0.143999
-0.0391766
-0.0391338
0.0229806
-0.077912
-0.0494333
-0.0586807
0.0417422
-0.114939
0.10151
-0.0403948
-0.0980288
0.0077686
-0.0575022
0.00818367
0.010917
-0.102403
-0.0455411
-0.0455297
-0.177476
-0.409987
-0.0408675
-0.208118
-0.0514299
-0.00527061
-0.0864956
0.0059695
0.0340596
-0.13905
-0.0887133
-0.00887751
-0.111395
-0.0676186
-0.0469411
0.0174345
-0.0800882
-0.4078
-0.281419
-0.0489449
0.0237679
0.0275351
-0.000626226
-0.0296885
-0.000125547
-0.0524472
0.420015
0.0211396
-0.422795
-0.0501747
-0.068706
-0.210528
0.0296755
-0.0608447
-0.05661
-0.0792453
-0.113834
-0.127274
-0.0581
-0.0591273
0.451175
-0.0570006
-0.0828707
-0.00316622
-0.170426
-0.0530171
-0.0144155
-0.0252282
-0.0286963
-0.049112
-0.094738
0.00657846
-0.00610813
-0.0506451
-0.20842
0.0124779
-0.0484114
-0.0322708
-0.226335
0.00779247
-0.124448
-0.0823397
-0.0297178
-0.0111412
-0.0538686
-0.235305
-0.424301
0.0127933
-0.0952551
0.516191
-0.295965
-0.0143625
-0.418744
-0.188012
-0.0662092
0.00726316
0.017215
-0.0584557
-0.13928
-0.00907633
0.00805919
0.00767076
0.00739686
-0.145243
-0.142777
-0.0660181
-0.239507
0.00596928
0.00266114
-0.111691
-0.132046
-0.0686124
-0.0112464
0.0311315
0.0345759
-0.292813
-0.412641
0.0171523
0.0346078
-0.0575498
-0.0582874
-0.060868
0.0286327
-0.00145254
-0.016488
-0.0813656
-0.0467703
-0.248124
-0.144013
-0.0970147
-0.128308
-0.141672
0.0208641
-0.0890394
0.0341762
0.0242102
-0.0395459
-0.165212
-0.0052933
0.00249452
-0.277995
-0.166025
-0.398048
-0.0989243
0.125647
-0.0689119
0.0252815
-0.18867
-0.260394
-0.0438282
0.00851335
-0.0591944
-0.242768
-0.049313
-0.145786
-0.0883502
-0.186352
0.034597
-0.0266016
0.0298461
0.105861
0.287705
0.0541822
-0.078408
0.353466
-0.0427085
-0.424941
-0.00378068
-0.0682067
-0.0815716
0.019608
0.0598484
0.36478
-0.125288
-0.0695104
-0.228908
-0.0059842
-0.0438696
-0.0583037
0.0024792
-0.0601411
-0.071463
0.168699
-0.153693
-0.0523239
-0.124419
-0.0561207
-0.180713
-0.0298265
-0.0514033
0.0220485
0.0173379
-0.0615793
-0.118756
0.429017
-0.0303669
0.0126143
0.034165
-0.0534193
0.510491
-0.0595092
-0.0285619
-0.0610306
-0.0815726
0.00829227
-0.273634
-0.059572
-0.0593096
0.0174568
-0.119086
-0.0279216
-0.406357
-0.123192
-0.0133011
-0.0601565
0.00488602
-0.0121003
-0.0114173
-0.000355256
0.133564
-0.203586
0.102902
-0.0766749
0.00450029
-0.131744
0.42335
-0.0554289
-0.0210631
0.124227
0.00865113
-0.0478166
-0.041421
-0.187644
0.0238956
-0.319291
-0.0480082
-0.0612873
-0.151264
-0.114068
-0.0351718
0.017525
-0.0515593
-0.148477
0.018814
-0.0389372
-0.0905246
-0.222717
-0.0932472
0.0123227
-0.0122856
-0.23053
-0.0401278
-0.100815
-0.0629337
-0.0126321
-0.0666511
-0.0482976
-0.0210106
-0.0316904
0.00829246
-0.0404482
0.0243333
0.0417956
-0.337635
0.0334115
-0.117761
-0.0436138
0.180542
0.00799901
-0.0151915
0.0215857
-0.114045
0.00503884
-0.088943
-0.0318606
-0.401364
0.204835
-0.137573
0.00029578
0.024981
-0.135313
-0.0957613
-0.0382478
-0.107799
-0.0926907
0.033857
-0.177588
0.446558
-0.0591102
-0.200567
-0.0832402
-0.05615
-0.061109
-0.0523357
-0.146752
0.0699475
-0.0917092
0.443544
-0.0932594
-0.0350825
-0.0718547
0.0182797
-0.0163031
-0.0474932
-0.0845773
-0.023226
0.0237484
0.00562178
-0.0791157
-0.0352692
-0.103265
0.0330896
0.0309955
0.0245616
0.00301583
-0.01091
-0.020595
0.00889786
-0.125554
-0.058089
0.377727
0.00112243
0.0186093
0.196055
-0.116577
0.0745332
-0.271176
-0.12497
-0.351803
-0.0482116
-0.119553
-0.0264987
0.021842
0.00703243
-0.00831845
-0.382515
0.0183014
-0.124684
-0.0214418
-0.417111
0.0353678
-0.131726
-0.0613294
-0.00664103
0.0123842
-0.0583819
0.0393148
0.0417711
-0.255029
0.0132252
0.0280882
-0.0518167
0.00878782
-0.00485813
-0.0289748
0.138895
-0.0372909
-0.0534446
-0.0211598
0.00333524
-0.0504031
0.00917111
0.0239172
0.00746032
-0.267322
-0.0861879
-0.283499
0.119448
-0.0355691
0.000745172
-0.00504512
-0.0575609
-0.0576847
-0.0626055
0.108225
-0.0427416
-0.00271113
0.0617267
-0.292322
0.0304636
-0.0537919
0.0195522
0.0105039
-0.0786273
0.230798
-0.0228743
-0.113344
-0.0561064
-0.153891
0.0205728
-0.0114879
-0.0595835
-0.128103
0.0129011
-0.118949
-0.0111035
-0.0802435
-0.0183888
-0.0165839
-0.142059
-0.0179501
-0.0618547
-0.0806808
0.0250764
-0.00750688
0.0462454
0.0111821
-0.0311706
0.256996
-0.0198296
-0.012743
-0.060422
-0.079443
-0.0568752
-0.0907775
-0.093292
-0.0443553
-0.00632949
0.135576
-0.0975301
-0.0994065
0.0272322
-0.0101321
-0.103312
-0.07126
-0.302382
0.0248828
0.0768079
-0.0396395
-0.0652974
-0.0247298
-0.407433
0.478741
0.010622
-0.143548
0.00674746
-0.0171311
0.000945094
-0.145078
-0.0107267
-0.0217706
-0.00692248
-0.0615064
-0.0385157
-0.229693
0.280553
-0.0174533
0.172952
0.0165217
-0.300221
0.0115801
-0.0203975
0.0280556
-0.059577
0.0282278
-0.12201
-0.0601514
-0.0486947
0.120218
-0.0571207
-0.345815
0.0289104
-0.0429857
-0.399063
-0.34296
-0.0535725
-0.0585763
-0.408317
-0.129697
0.0155532
-0.0528058
-0.0649415
-0.0478338
-0.0137457
-0.00265928
0.0225042
0.0167418
-0.0481603
0.127941
-0.0380918
-0.00283064
0.03326
-0.421741
-0.0470265
0.0460322
0.200535
-0.0581611
-0.020647
0.140649
0.204955
0.0747502
-0.0385784
-0.0555854
-0.297058
0.501441
-0.0180094
-0.233677
-0.161039
-0.401872
-0.102187
-0.0591243
0.00668157
-0.0271292
-0.00136716
-0.0091277
0.000335959
-0.0052623
-0.0182024
-0.0574349
-0.422601
-0.0807437
-0.0219594
-0.11649
-0.197182
-0.0744201
0.0554112
-0.0561285
-0.00946768
0.0407986
0.192976
-0.424173
0.0280284
0.0181885
-0.0444994
-0.0580781
-0.0779074
-0.0964057
-0.0557811
0.013047
-0.137925
0.0563042
0.0150461
0.0586022
-0.0513778
-0.282269
-0.0140982
-0.00789125
0.0197979
-0.0878936
0.00388677
-0.0600527
0.0383645
0.00991964
-0.139138
-0.0180308
-0.116178
-0.156465
-0.0459353
-0.00959121
-0.0729072
-0.00379937
-0.120919
-0.191282
0.0314756
-0.284663
-0.094725
0.482432
0.0282629
-0.0601065
0.0266624
-0.0494632
-0.0697531
-0.0979452
-0.0496768
-0.0584869
-0.0596933
-0.13336
0.00414662
-0.110622
-0.0167791
0.0156809
-0.0460606
0.0335398
0.0266769
-0.0102168
-0.0188048
-0.420791
-0.00585008
0.0195679
-0.067586
-0.0957003
-0.0754491
0.448918
-0.0599717
-0.396225
-0.057301
-0.0697211
-0.0518009
-0.0530945
-0.0576018
-0.392499
-0.0479406
-0.0444263
-0.0185605
-0.0595086
-0.0587517
0.0602426
-0.119438
-0.0704458
-0.0273038
-0.0491911
-0.0196283
-0.0713465
0.0132143
-0.0813377
0.309268
0.00682827
-0.112252
-0.0140903
0.0328518
0.0048465
0.121058
-0.0886051
-0.0361834
-0.0225874
-0.0138361
0.301324
-0.138587
-0.109451
0.0323556
1.6127e-05
-0.0784192
0.020556
-0.138505
-0.141293
-0.0270308
-0.114625
-0.0138042
-0.353772
0.058383
-0.0552783
-0.038946
-0.105206
0.0146723
0.0185979
-0.0570194
0.0146975
0.00968129
-0.399838
-0.147244
0.0977891
-0.0602126
0.0138644
-0.022663
-0.0524499
-0.00979975
-0.00627282
-0.0794375
-0.0153295
-0.0672268
0.0206281
-0.00575002
0.0257657
-0.0598623
-0.0493355
0.0429779
0.0339225
0.0133057
0.0456234
0.0103683
0.431778
-0.107941
0.0130478
-0.0741588
0.0269012
-0.112703
-0.0419337
0.407222
-0.0136942
0.0532577
0.0213772
0.0810197
0.0574482
-0.0488572
-0.323142
0.0804943
-0.0451987
0.496932
-0.0793731
-0.060132
-0.02825
0.436553
-0.0495803
0.0245121
-0.313813
-0.0412278
-0.0598079
0.0383606
-0.0497809
0.228206
-0.013746
-0.0340991
-0.400112
-0.0146653
0.00588024
-0.0233461
-0.142174
-0.0617337
-0.0431608
0.0065926
-0.131843
-0.0530759
-0.0604787
-0.127664
-0.240383
-0.0559953
-0.0130747
0.0104119
-0.0487131
0.0190925
0.0777822
-0.00280434
-0.00347277
-0.00537464
0.0879096
-0.0592581
0.459305
0.133863
0.272439
-0.0580459
-0.0609966
-0.00786193
-0.0838951
-0.0539924
-0.00647828
0.00908917
-0.062246
-0.384266
0.0268151
-0.108116
-0.146434
-0.0642082
0.0432612
-0.0337049
-0.016706
-0.122312
-0.00862968
0.00861105
-0.397376
-0.0556747
0.0258407
-0.12172
-0.0596591
-0.341831
0.0310204
-0.0456649
-0.0528262
-0.110108
-0.0592147
0.255746
-0.0364294
0.0216028
-0.0196063
0.00259505
0.0376304
0.067329
-0.0353571
0.0160578
-0.0642611
0.00908037
-0.0538522
-0.0161943
-0.131999
-0.0608244
-0.300464
0.0282415
-0.242387
-0.0192472
-0.0511497
0.0306218
0.114634
0.0270499
-0.0644971
-0.116523
-0.0594433
0.0153584
-0.0825952
0.0141572
-0.0408509
-0.116082
-0.0156596
0.0595895
-0.0919254
-0.0599038
-0.0453783
0.0167499
0.0404072
-0.0324431
0.0233326
0.13315
0.0141673
-0.000729626
0.0743639
-0.0848252
-0.0245787
-0.0617231
-0.0733235
-0.0941041
-0.0499178
-0.0225153
-0.000541465
0.0462058
-0.160663
-0.0342587
-0.00896082
-0.0627773
-0.32182
0.00927485
-0.405354
-0.113752
-0.105092
-0.00666433
-0.00681594
-0.0598477
0.0585173
0.0254829
0.179902
-0.0129058
0.0881927
-0.0449211
-0.0635937
0.439538
-0.0484389
-0.0392921
-0.0668079
-0.0602395
-0.0576517
-0.0569388
0.182867
-0.397759
-0.0766302
-0.40337
0.0933917
-0.370706
-0.407943
-0.0150557
0.0134947
0.011076
-0.0298094
-0.0901911
-0.0168869
0.0944673
-0.0591094
-0.0299472
0.082842
-0.0731532
0.133551
-0.0398739
-0.0770539
-0.0240664
-0.0479096
-0.0395687
0.11551
0.0079665
-0.132785
-0.315417
0.0131585
-0.0308777
-0.0598489
0.131079
-0.422901
0.00982363
-0.0160724
-0.0448455
-0.0304306
0.162304
-0.40803
0.0338242
-0.102011
-0.0421584
-0.00721234
0.00486569
-0.0551591
-0.353226
-0.00774197
-0.0359369
0.0329612
-0.0202459
0.193877
-0.0526345
0.0537761
0.426319
-0.0612916
-0.0596733
-0.112192
-0.0295924
-0.0598585
0.0969329
0.125252
0.0302951
-0.0632007
-0.0567045
0.0713728
0.18724
-0.0481598
0.43766
0.425646
0.111975
0.0323433
0.0268889
0.0344169
-0.320782
-0.0779734
-0.0384466
-0.0316798
-0.0362246
0.0207695
0.020283
0.0388824
-0.0671745
-0.0523938
-0.0714996
0.138294
-0.408884
-0.0595739
0.0403269
-0.0812411
0.00186267
0.0164181
-0.128787
0.00601957
0.00292193
-0.0751218
-0.0913287
0.267133
-0.0602086
-0.0583185
-0.00864784
-0.0425636
-0.00805965
-0.0211456
0.076681
0.0255552
-0.0215877
-0.0850798
-0.17358
-0.0153605
-0.0538961
0.00127754
-0.0139571
0.00259798
0.448459
-0.0354219
-0.0391292
-0.409308
-0.0117399
-0.0636473
-0.0551337
0.0124404
0.132981
0.00953846
-0.062136
-0.108122
0.0399424
-0.0540351
-0.0848353
0.248256
0.0210304
-0.307466
0.0995125
0.409212
-0.0314718
0.157685
-0.164936
-0.0131304
0.330714
0.0417371
-0.115035
0.216175
0.0122946
-0.421871
0.0332123
-0.0897424
-0.105344
0.346748
0.0311925
0.0785309
0.0526685
-0.0473353
0.0687169
-0.0500767
0.0910229
-0.0634187
-0.00763449
-0.0861791
0.0411224
-0.0577053
-0.0486726
0.0108055
-0.000331551
0.495623
-0.0285017
-0.0611525
-0.020583
-0.0525527
-0.0598783
-0.0510649
0.018573
0.0127972
0.0305368
-0.0055824
-0.125917
0.0524863
0.207868
-0.0223989
0.0127715
-0.139334
-0.0366242
-0.0465714
-0.0602975
0.0395157
-0.407066
-0.0771258
-0.0474191
0.501724
-0.0605485
-0.202405
-0.0507884
-0.319207
0.00845148
-0.158071
-0.392711
0.445495
0.0158953
0.0569423
-0.064623
-0.0559508
-0.0492863
-0.288208
-0.0262672
0.12381
-0.077491
-0.0546871
-0.406025
-0.063925
-0.0737955
0.00488396
-0.135384
-0.059193
0.0161005
-0.146128
-0.260221
0.0293134
-0.0660999
0.0169625
-0.0165434
-0.0411779
-0.0580073
0.00391443
-0.0269572
-0.0141568
-0.0148212
-0.0313554
-0.0887662
-0.0334778
0.0132337
0.0147156
-0.0568508
-0.041852
-0.0375816
-0.195867
0.0364116
-0.0744416
-0.415832
-0.0426023
0.114484
-0.103911
-0.0750448
-0.0665374
-0.0576661
-0.0598821
-0.338301
0.0119047
-0.282385
-0.0560254
-1.54486e-05
0.0225851
-0.162236
-0.340851
-0.341165
-0.01803
0.0163699
-0.0449826
-0.330541
-0.328146
-0.0186894
0.0933799
0.503006
0.0345901
-0.0423677
-0.42031
-0.0558665
-0.32818
0.0438385
0.0139106
0.00515789
0.113231
-0.0385576
-0.0620255
-0.0441612
0.0724466
-0.0840389
-0.351309
-0.0564574
-0.109416
-0.421329
-0.0465893
0.462655
0.0314565
0.0152942
-0.0528666
-0.00575944
-0.013417
0.0313659
0.520785
-0.073118
-0.418584
-0.154079
0.0260466
-0.10821
-0.07882
-0.00451422
-0.425169
0.228046
0.1106
-0.023919
-0.408539
-0.26661
0.0279013
-0.225395
-0.0598476
-0.409471
-0.330051
-0.138428
0.0129711
-0.0218514
-0.272699
-0.0425143
-0.0509448
-0.0848388
-0.326153
-0.0816073
0.0707802
0.0800594
0.00921288
0.0579328
-0.375809
-0.0469771
0.0344631
-0.424344
-0.0650487
0.017671
0.0779227
0.0127327
-0.111489
-0.0129939
0.509509
0.100906
0.011186
0.00433661
0.334014
-0.0541078
-0.0774036
0.00192319
-0.0869338
0.0407998
-0.0285473
-0.0513866
-0.326464
-0.0485133
-0.307718
-0.00276239
0.00442152
0.0155638
-0.0596542
0.00646214
0.0138314
-0.0835419
-0.0747151
-0.0608447
-0.0146003
-0.227029
-0.0491939
0.0124388
-0.365955
-0.0779876
-0.0573013
0.485813
0.0141417
-0.424114
0.0924448
0.0559806
0.0872236
-0.00569751
-0.0570159
0.000796094
-0.0308957
0.161468
-0.0573836
-0.0492195
0.0172455
0.00873321
-0.0232045
-0.00855618
-0.129983
0.0618934
-0.13035
-0.0364579
-0.0549627
-0.0306533
-0.0439419
-0.00312219
-0.148685
-0.0184347
-0.00649522
-0.413422
0.332104
0.356524
-0.0558354
0.168672
-0.0743095
0.0379646
-0.246472
0.0348586
0.00706943
0.335399
-0.057726
-0.419749
-0.386912
-0.121228
-0.183791
-0.154908
-0.244274
-0.00870868
-0.0425725
-0.0527213
-0.0991901
0.10807
-0.177096
-0.0425818
-0.0254883
0.0466992
0.0211613
-0.279742
0.454412
-0.034743
0.0223811
0.032107
-0.0407706
-0.0745595
-0.224786
-0.128972
0.0121933
0.395819
-0.144289
-0.105988
-0.105685
0.0040297
-0.0303694
-0.106699
0.005127
-0.134355
-0.0483984
0.0377362
-0.0214542
-0.0868074
0.34822
0.0578908
-0.0391187
-0.035233
-0.107295
-0.0532353
0.0621918
-0.0312737
-0.278076
0.00461314
0.0725555
0.506453
-0.369075
-0.0955312
-0.127668
-0.0448544
0.115179
0.0266388
-0.37687
-0.049315
-0.0197418
-0.0608327
0.0136192
0.0133463
0.52085
0.0298954
0.0116897
0.0238175
-0.0713233
0.059087
-0.0391856
-0.0682499
-0.233095
-0.150593
0.026799
-0.0215566
0.229163
-0.215363
-0.145222
0.133026
-0.106459
-0.0500371
-0.285365
0.013364
-0.24146
-0.0540132
0.0130614
-0.0333309
-0.00560276
0.437659
-0.166461
-0.0229298
0.496407
-0.143132
0.00159924
0.0572022
-0.0603684
-0.0431685
-0.0580246
-0.00628654
-0.357002
-0.0596986
0.457081
0.0223286
-0.0934447
-0.0588837
0.144595
-0.353268
-0.0485105
-0.0052277
-0.0604764
-0.20808
-0.0645945
-0.0562226
-0.21595
-0.00106024
-0.13874
0.0134775
-0.391487
-0.00345661
0.256197
0.0617034
0.0120729
-0.0409341
-0.0952247
-0.100282
-0.0643661
0.0450564
-0.0946495
0.00299152
-0.309778
-0.0463759
0.0378608
-0.00882669
0.167151
-0.0191417
-0.0791802
-0.0436965
-0.22916
-0.0957438
-0.0196829
-0.0249056
-0.0506817
0.0775667
-0.0850203
-0.00225283
0.0292473
-0.292161
-0.100178
-0.078304
0.35417
0.0147328
-0.134952
0.00131223
0.103405
-0.364772
-0.408276
0.029253
0.0227394
-0.0545766
0.10664
0.055217
-0.043371
-0.122677
-0.0102059
-0.00898492
0.0276449
0.0117899
0.306627
-0.0148038
-0.0573898
-0.121949
-0.0574297
-0.00545315
-0.0657602
-0.228348
-0.0663993
-0.00724853
-0.421285
0.0353443
-0.108907
0.167325
0.190831
0.00717043
-0.215466
-0.389457
-0.0582289
0.00976974
-0.141081
-0.0146118
0.109839
0.0524383
-0.0608674
0.0744486
-0.319686
-0.0568049
-0.0900853
0.0297278
-0.243361
-0.0513168
0.0136932
0.432529
-0.00656762
-0.051188
-0.0717677
0.0506232
-0.345581
0.0198135
0.441943
0.0531068
0.0122373
-0.413017
-0.0421508
0.0887074
0.17372
-0.0577222
-0.107838
-0.0624646
-0.0462282
0.0421297
-0.0442746
-0.0581042
0.0906672
-0.0573277
0.0449022
-0.0564398
-0.0599285
-0.0298259
-0.0438538
-0.00600546
-0.0491286
0.096908
-0.289284
-0.31288
-0.323467
-0.248511
-0.142498
0.0957813
-0.0222271
-0.0426024
0.101804
0.0395845
-0.30384
-0.070508
0.070842
-0.0379134
-0.0503318
-0.0527505
-0.0610583
-0.104134
0.0123196
-0.0480706
-0.0572784
0.052385
0.0155017
-0.0619191
-0.00987907
-0.0560695
0.0642754
-0.160626
-0.0627347
-0.0782427
-0.172589
-0.0923289
-0.148401
0.00115502
-0.114409
-0.0444919
-0.417512
-0.0275919
-0.0548325
-0.057942
0.49032
0.0348407
0.0450923
-0.0417134
-0.0571926
-0.411533
-0.253449
0.16482
-0.126681
0.00888972
-0.0105157
-0.210287
0.288164
0.0384127
-0.0639764
-0.0356062
0.0954348
0.060749
-0.133438
-0.00788659
-0.0832231
-0.0515977
-0.420073
-0.10223
-0.0423692
-0.1104
-0.401058
0.0386192
0.0415414
-0.138485
-0.00442496
0.224884
-0.421002
-0.0461212
-0.0387292
-0.0659306
-0.0283759
-0.0754458
-0.00769227
-0.0687357
0.022806
-0.405262
-0.00185591
0.0448935
-0.0429006
-0.126794
0.0113591
0.0460701
-0.409139
0.0478543
-0.0804302
-0.00631483
-0.323422
-0.203409
-0.0745066
0.319029
0.00889919
-0.06044
-0.0613682
-0.0789677
-0.00569593
-0.0291053
0.0114148
-0.0650501
0.0293389
-0.0621815
0.0515411
-0.00965629
-0.278565
-0.00704491
-0.0371127
-0.0433245
0.0203328
-0.0424614
-0.00374526
-0.0204896
-0.0499644
-0.056299
-0.0593052
0.0450705
-0.291966
-0.0567273
-0.0635689
0.00565262
-0.0658782
-0.0256117
-0.0758975
-0.0623101
-0.0610861
-0.193149
-0.106362
-0.189249
-0.294579
0.123243
-0.0642264
0.04613
-0.242305
0.0875541
-0.0248898
0.0391797
-0.0661894
1.91117e-05
-0.106676
-0.0806521
-0.049254
-0.17091
0.343935
0.0186441
-0.102405
0.194403
0.062614
0.0813347
0.0405281
-0.051585
0.03974
-0.0443924
-0.00628588
-0.0505733
-0.252312
-0.0280991
0.0313228
0.038025
-0.0913534
-0.00103605
0.0416908
-0.0446773
-0.016225
-0.0457137
0.0164539
-0.0594274
0.333939
0.122778
-0.219132
-0.38857
-0.0427815
-0.149262
-0.00226244
0.0280531
0.061206
-0.0281977
0.152959
-0.0557227
-0.0399407
-0.00621
0.0372763
-0.0558455
-0.0791718
-0.0059564
0.00071825
0.117466
-0.418422
-0.0526514
-0.0407768
-0.0436832
0.0243724
-0.21596
-0.0617541
0.336186
0.167496
0.0415846
0.0629279
-0.0776963
-0.15092
0.0697765
-0.0175438
-0.0356273
-0.0472328
0.069671
-0.366894
0.0196183
-0.0417805
-0.00231703
0.13765
0.000368567
0.0111012
-0.256804
-0.24648
0.278619
-0.0596961
-0.420853
0.0484868
-0.0598873
-0.05993
-0.00236567
-0.065
-0.058373
-0.0772181
0.0267224
-0.0500004
-0.397942
-0.0204493
0.0275934
-0.0459394
-0.0624296
0.0251182
-0.00897338
-0.0174535
-0.0387852
-0.135555
-0.118077
0.324096
-0.139345
-0.00408913
0.0316005
-0.0494399
-0.00315616
-0.0816195
0.125651
-0.0247984
-0.0968126
0.0243416
0.0415575
-0.169332
0.0133536
-0.254875
0.027431
-0.341262
-0.0462912
-0.122752
0.0226481
0.0139129
-0.108052
-0.00607508
-0.0208171
0.0611261
-0.217654
-0.254493
-0.0701388
-0.0432852
0.0704593
-0.075543
0.0703052
-0.0720294
-0.0170701
0.0256655
-0.4245
-0.0409917
-0.310909
-0.0147323
-0.0815287
-0.0763938
-0.422959
-0.0607915
-0.14954
-0.0786574
-0.00759101
-0.120823
-0.0141871
-0.0128778
-0.117876
-0.0625788
0.0951547
0.290438
0.0850195
0.012889
-0.0444245
-0.123087
-0.0377132
0.0137838
-0.406947
0.0675913
-0.00646972
-0.0527205
0.0113002
0.023333
-0.108954
-0.184095
-0.416066
-0.00544762
0.0815793
0.0126832
0.413088
0.000656713
0.458297
-0.0665234
-0.0472148
-0.0571934
-0.404281
0.155849
-0.154744
0.479893
0.0243254
0.0678927
0.114496
0.132556
0.497138
-0.0596362
-0.359061
-0.0512002
0.510143
0.0353015
-0.0746327
0.0104216
-0.423544
-0.0573702
-0.0344969
-0.0322654
-0.0208596
0.00441152
-0.0863176
-0.349506
-0.0023217
-0.0271025
0.00432376
-0.0847293
-0.0264467
-0.207795
-0.0609421
-0.315499
0.0306337
0.00489185
-0.0414343
0.433784
0.0275657
-0.0993397
0.02246
-0.194382
0.174998
-0.110084
-0.0711338
-0.346499
-0.00286087
-0.017962
-0.0574532
-0.0574046
-0.0469616
-0.0576376
0.0147977
-0.0609036
0.0292189
0.0066452
-0.0200426
0.0287463
-0.408063
-0.0450532
-0.0668927
-0.0570602
-0.119014
-0.171867
-0.00526857
-0.0600569
-0.00539067
0.487224
-0.0206351
0.0580171
0.0303059
0.0101382
-0.0142875
-0.171711
-0.0317202
0.440728
-0.0149573
0.170003
-0.00457525
0.494033
0.0211703
-0.063398
-0.0568953
-0.101183
-0.361397
0.0104845
-0.0416585
-0.130785
0.00893902
-0.00853172
0.0174245
-0.0513329
-0.35291
-0.0210745
-0.0112265
-0.0825296
-0.0604767
0.208423
-0.0416898
0.0399054
-0.0583075
-0.0594807
-0.00395059
-0.0670074
-0.0316773
-0.0515247
0.0383682
-0.0176822
0.0231941
-0.0453671
-0.0464148
-0.00538004
0.391663
-0.0587822
0.0109888
-0.0109348
0.00293702
0.41163
-0.0520982
-0.124878
-0.0384379
-0.0810742
0.0212046
0.0367258
-0.0295737
0.0131679
-0.0927797
0.0415829
-0.060493
-0.298263
-0.0671893
-0.0056056
-0.0579924
-0.0783704
0.0214921
-0.144195
-0.0615548
-0.0649362
0.104661
-0.392196
-0.109251
0.0149474
-0.146132
-0.140405
-0.0390664
-0.208488
-0.060218
-0.0469233
-0.0651599
0.0101356
-0.176254
0.291167
-0.165028
0.0123172
0.0211886
-0.00599383
0.176231
-0.0621179
-0.0637446
-0.137366
-0.412072
-0.060283
0.0222127
0.500029
-0.0479834
-0.0518738
0.0310678
0.0153652
-0.0762074
-0.0490021
0.044863
-0.0618325
-0.397014
-0.0586139
-0.372525
0.347789
-0.114247
-0.0555337
-0.247388
-0.0103018
-0.316859
-0.106068
-0.0162001
-0.026146
0.0101619
-0.343134
-0.151558
-0.0544099
-0.016802
-0.329817
-0.0092492
-0.115812
-0.0464199
0.0358676
-0.0638539
-0.156271
-0.0494455
-0.109619
-0.0238259
0.0442208
0.0624906
-0.0921679
-0.0599656
-0.329537
-0.0529386
-0.00668322
-0.423782
-0.204148
-0.0599361
0.0101485
0.014924
-0.0617475
0.424512
0.0188483
-0.101621
0.312219
0.200856
-0.0564918
-0.0478322
-0.269238
-0.0661755
0.052623
-0.0113304
0.301161
-0.0468244
-0.341051
-0.0179862
0.200268
0.330401
0.382899
-0.0280399
0.0216286
0.381812
-0.0972395
-0.288024
0.421298
-0.0585436
0.0153833
0.420804
-0.0697652
0.0517473
0.289696
-0.116372
-0.00557271
-0.092975
-0.0501999
0.429162
0.0230747
-0.0598035
-0.0969021
-0.401634
-0.0101162
-0.037343
0.00750712
-0.0325019
0.00815928
-0.104514
0.0402842
0.105067
0.389174
-0.0633931
-0.058143
0.0851354
-0.0461631
-0.0207068
-0.248134
0.279599
-0.378974
-0.00644227
0.118019
-0.363244
0.338841
0.0459283
0.0880261
-0.105566
-0.0541849
-0.14736
0.0149647
0.00925635
0.00518881
-0.0913191
0.0235071
0.478683
0.495029
0.408753
-0.0376867
-0.213682
-0.362047
0.00964469
-0.212002
0.038556
0.231876
0.00134328
-0.0179922
-0.0998893
-0.180775
0.0115286
-0.404806
-0.21634
0.333982
-0.207267
-2.1239e-06
0.0154894
-0.060768
-0.0323501
-0.404713
-0.402216
0.0495838
-0.239779
0.0117997
-0.00818352
-0.0114762
0.0268383
-0.359698
-0.0343963
-0.322783
0.304544
-0.0285007
0.447091
-0.332293
-0.0515678
-0.347857
-0.0361013
-0.0174326
0.0278697
-0.0342922
0.469353
0.36392
-0.150156
0.0268559
-0.0284368
0.138621
0.0123328
-0.0569454
0.0838117
0.186301
0.250726
0.0557653
0.0189826
-0.0059918
-0.0923753
0.016104
0.0235548
0.33055
0.0608481
0.00510113
-0.120732
0.00630305
-0.318549
-0.0513363
0.489136
0.0378504
0.321303
0.0259309
-0.0870802
-0.0263136
-0.0308245
0.123384
-0.317239
-0.0516404
0.323852
-0.0132262
-0.0839325
-0.108861
-0.057156
-0.145356
0.0345197
-0.152355
-0.195404
-0.00385376
0.274986
-0.0952737
0.339999
0.0242269
-0.1076
0.42682
-0.121724
-0.0535803
-0.0195959
-0.0702728
0.0314175
0.0147298
-0.0561425
-0.0581388
0.0142882
-0.050489
-0.379362
-0.0567065
-0.389859
0.420733
-0.314355
-0.220057
-0.00538063
-0.031615
-0.0128749
0.139869
-0.134337
-0.145987
0.0573193
0.0132595
-0.014106
-0.271962
-0.0676068
-0.097688
-0.0494925
0.356395
-0.422243
-0.234048
0.0190559
-0.415572
0.0303941
0.115197
0.148938
-0.0482451
-0.0625652
0.114095
-0.0329167
0.294517
-0.0574178
-0.0497497
-0.407755
0.169364
-0.0601892
-0.0565321
0.0265938
0.478715
-0.123531
0.0674461
-0.363461
-0.414733
-0.0615089
0.110794
-0.0593455
-0.413871
0.0201923
-0.0116724
-0.00533627
-0.00271937
0.0631968
-0.423703
0.058043
-0.0459763
0.00849653
-0.018458
0.449411
-0.0221507
-0.00884522
0.0214819
0.0324167
-0.0782396
-0.0104528
-0.423966
-0.0217499
-0.0333516
-0.0210912
0.0553969
0.36979
-0.0107672
0.0157958
-0.00766622
-0.048939
0.30666
-0.0417519
-0.0491203
0.00936442
0.0964229
-0.0605441
-0.15443
0.0747783
0.0200926
-0.0177607
-0.00929933
-0.232728
0.00953047
-0.0120956
-0.0412414
-0.308994
0.00768779
0.183972
0.0528377
0.024493
-0.0491435
-0.419293
-0.0571449
-0.0494235
-0.0428588
-0.0601277
0.0498968
0.353453
-0.175006
-0.0267588
-0.0691425
-0.0605311
-0.0500791
0.0573264
0.0313495
0.484423
-0.0395558
-0.251793
-0.0511995
-0.0145393
0.0268805
-0.420947
-0.0608445
-0.0620856
0.0635942
0.0217541
-0.419674
-0.0865768
-0.010334
0.0146138
-0.0190345
0.0206619
0.0227611
0.0383093
0.184563
-0.0672615
0.0238992
0.0500778
0.455058
0.0168732
-0.246859
0.0616154
-0.0245672
-0.0519172
0.0120997
-0.178495
0.0675687
0.252681
0.0212754
-0.0138564
-0.28626
-0.362936
0.0116209
-0.0633071
0.210222
0.0296942
0.0891514
0.0140911
-0.0311802
-0.288055
-0.218773
-0.0529196
-0.0523767
-0.0292225
-0.404702
-0.0895991
-0.0150787
-0.142091
0.0680299
-0.0435207
-0.0551582
-0.0526733
-0.301459
-0.0959024
-0.0493308
-0.0159329
-0.0400529
0.105389
-0.0125013
-0.0154166
-0.0588196
0.310932
-0.0126642
0.116066
-0.0654629
0.0793871
0.421088
-0.0572527
-0.0512841
-0.294753
-0.314267
0.176956
0.107372
-0.0594211
-0.422064
-0.0423767
0.081157
-0.0137081
0.00302678
-0.00758555
-0.0628083
-0.0406844
-0.197759
-0.0179614
-0.242247
0.0129337
-0.060685
-0.0548378
0.320465
-0.20011
0.324516
0.38508
0.0648285
0.171546
0.00576539
0.129099
0.0208643
-0.0183313
-0.0658872
-0.0592654
0.0205997
0.101808
-0.0882571
0.00203249
-0.0122998
0.120826
-0.423824
-0.150945
-0.06608
0.209593
0.0137534
-0.0603379
0.200174
-0.0246649
0.0357497
0.0163895
-0.0128009
0.0387554
-0.0459074
-0.0536898
0.0153926