/*--------------------------------*- C++ -*----------------------------------*\
| =========                 |                                                 |
| \\      /  F ield         | OpenFOAM: The Open Source CFD Toolbox           |
|  \\    /   O peration     | Version:  v2012                                 |
|   \\  /    A nd           | Website:  www.openfoam.com                      |
|    \\/     M anipulation  |                                                 |
\*---------------------------------------------------------------------------*/
FoamFile
{
    version     2.0;
    format      ascii;
    class       volScalarField;
    location    "300";
    object      p;
}
// * * * * * * * * * * * * * * * * * * * * * * * * * * * * * * * * * * * * * //

dimensions      [0 2 -2 0 0 0 0];


internalField   nonuniform List<scalar> 
13917
(
-0.102178
0.0103719
-0.0692793
-0.0108155
0.00808774
0.010078
-0.0237742
0.0188369
-0.0254633
-0.123266
0.0173236
-0.00531524
-0.000669272
0.0389386
0.00735035
-0.100345
0.000519182
0.0154254
-0.0601177
-0.111592
-0.00144605
0.0037198
-0.0388161
0.00377779
-0.0107994
0.00129865
-0.0135607
-0.123913
0.00891844
-6.98436e-05
-0.124191
-0.0485464
-0.00872409
-0.0918997
0.00269605
0.0193027
-0.00162173
0.00201787
-0.0243906
-0.0116612
0.00133139
0.000607816
-0.0214435
-0.0583861
-0.0581043
-0.053134
-0.00207912
-0.119704
0.0098588
0.00271756
-0.00505852
-0.0507492
-0.0788057
-0.00077005
-0.00149218
-0.0519854
-0.120181
-0.038299
0.000597298
-0.0514685
-0.0883119
0.0026026
9.02681e-05
-0.0105817
-0.09016
0.000762298
0.0110723
0.0189155
0.0167093
-0.0845651
-0.0837649
-0.0912404
-0.00750541
0.000646145
-0.00199203
-0.00827147
0.00673549
0.000625936
-0.0081822
-0.0090255
0.00229541
0.000831619
-0.00719195
-0.0768669
-1.38443e-05
0.0211953
-0.0477868
9.50142e-05
-0.0105808
0.000451524
0.000561486
-0.0220371
0.013065
0.00222613
-0.000355415
0.0100767
-3.28853e-05
0.0015463
5.25495e-05
-0.00581432
-0.000323888
-0.000427215
0.00221533
0.00173192
0.00653445
-0.063533
-0.112441
0.00237899
0.000573532
-0.0152192
0.000542681
-0.0929712
0.00784547
-0.123979
-0.0889265
-0.00714621
-0.0589187
0.00015056
-0.0673372
-0.00563062
0.0010019
0.00076408
0.0122179
-0.0534253
-0.0739147
-0.0777222
-0.0107162
-0.0014699
0.0031606
-0.0542063
-0.0337634
-0.0316826
-0.0677146
-0.00663662
-0.0518739
-0.0126406
-0.0742177
-0.0641847
0.00303635
0.00180101
0.0199444
0.000661609
-0.0628795
0.00210401
-0.00640279
0.00028694
-0.0826389
0.00545322
-0.125271
-0.000922845
-0.0100952
-3.49351e-05
-0.00608066
-0.00562286
-0.000380915
0.00508567
0.00169028
-0.0672014
-0.000180151
5.58537e-05
0.000584867
-0.100714
0.0022833
0.0185881
-0.108028
-0.00545207
-0.0796271
-0.114973
-2.62148e-05
0.00383151
0.00423809
-0.0748295
-0.0252529
-0.0778055
-0.0362562
-6.43146e-05
-0.0111416
-0.0515223
-0.033175
0.0027434
-0.020923
0.00407045
-0.00480163
-0.0649775
-0.0681772
-0.0303055
-0.00455739
-0.0641938
-9.50568e-05
0.0191954
-0.035172
-0.0567875
-0.0611687
-0.105275
0.00227625
-0.0760714
-0.0151732
-0.06717
0.00272424
0.00488921
-0.0030797
-0.0874882
-0.0650554
0.000135274
-0.0191023
0.00667183
-0.0109625
0.000735612
-0.0522013
0.00265947
0.00257446
0.00881363
0.00912967
-0.123669
-0.0512082
0.00191789
-0.101221
0.0012613
0.000280454
0.000249798
-0.118512
-0.0628086
-0.0657462
-0.000887224
-0.000245782
-0.013359
-0.0781191
0.000430826
0.000427841
-0.000273546
0.000219079
0.000187802
-0.092426
-0.117219
0.00315296
-1.901e-05
-0.0440861
-0.0859992
0.000201722
-0.0008322
-0.0191274
-0.0615727
-0.0645038
-0.102298
-0.0400138
0.00201943
-0.109919
-0.0453688
0.00701664
-0.0509734
-0.00017175
-0.123336
-0.00609131
-0.0226527
-0.0350354
0.00355775
0.00109583
-0.0109474
0.00683138
0.00218312
-0.0744986
0.0252179
0.00107037
0.000419627
0.00526564
0.000454977
-0.00608383
-0.000945608
-0.0298122
0.00102479
-0.0614187
-0.110878
-0.00281713
0.00660659
-0.0510996
-0.00013563
-0.0055536
-0.0743924
-0.000110796
-0.0849809
0.002113
-0.0968028
-0.000259473
0.00658497
0.0037564
0.00242279
-0.0656061
0.00197261
-0.00536624
-0.0145601
0.025035
0.000380473
-0.0191581
-0.0613204
0.000225304
-0.0394884
0.00723783
-0.00601553
0.00759765
-0.00873574
0.00219103
0.00188314
-0.0486278
0.00643168
-0.0219474
-0.00865619
-0.000843014
-0.0660038
-0.0875814
0.00296112
-0.000777927
-0.00653911
0.00684705
-0.0575937
-0.109944
-0.076583
0.000337824
-0.0313487
0.00634303
-0.0768626
0.00913954
-0.0685503
-0.000139708
0.00722012
-0.0163506
0.00468674
0.0111098
-0.0564324
8.8423e-05
-0.0759278
5.04517e-05
-0.0397336
-0.00046516
-0.110452
0.00215144
-0.02217
0.00659352
4.74518e-05
0.000570533
-0.0511984
-0.0658048
-0.000876695
0.00478234
-0.0918363
-0.0645603
-0.0834797
0.0404719
-7.68378e-05
0.00249327
-0.0603993
-0.0330904
-6.86704e-05
0.00751111
-0.00294872
0.00087231
-0.0226745
-0.0566896
-0.0314607
-0.00379453
-0.0394893
-0.100273
0.00326724
-0.00121246
0.00848121
-0.0692697
1.29237e-05
-0.103926
-0.0391076
-0.0021086
-0.00140608
-0.0330841
-0.000792343
0.00918688
0.000423682
-0.0663151
-0.052776
0.00769215
-0.00289277
-0.0812417
-0.000561896
-0.10499
-0.0627824
0.000376749
0.0080371
0.00457533
-0.00119132
0.00179735
-0.115717
-0.00169481
-0.00346403
-0.0170163
-0.00334746
-0.00019658
-0.0972734
-0.0566499
-0.00419246
-0.0662663
0.00177037
-0.00167537
-0.0688829
2.88508e-05
-0.0249039
-0.00914273
0.00216582
0.00177655
0.00331448
-0.0783275
-0.00784217
-0.0013413
0.00342294
0.00350637
-0.0360554
0.0179444
-0.000323781
-3.5232e-05
-0.0573572
-0.0311705
0.00243937
-0.00352265
-0.0749441
0.0101586
0.00078903
-0.0609657
-0.0755663
1.80317e-05
-0.000277082
-0.000330623
0.00175147
-0.000305019
0.00334472
-0.000265064
1.04981e-05
-0.115093
0.00170156
-0.0139041
-0.0618646
-0.0385051
0.00263462
-0.00576633
-0.0978353
-0.00220102
-0.072442
-0.000423812
-0.00184458
-0.000582964
0.000167149
-0.00144856
0.00498812
-0.0695569
7.18965e-05
-0.062342
-0.00176951
-0.0345142
0.00020101
0.00263889
-0.0409332
-0.0816667
-0.00298867
0.00727342
0.00267702
0.00169737
0.00341224
0.00442954
0.00246827
0.000588219
-0.0664897
-0.0833532
0.00241863
-0.0209542
-0.0579669
-0.000360355
-0.0403978
-0.0481007
-0.102775
-0.0266821
-0.0646792
-0.00156741
-0.00214375
0.00487363
0.000302679
0.000312309
6.85501e-05
-0.07864
0.000489559
-0.000896342
-0.000717123
-0.0251327
-0.00478332
-0.0669299
-0.0435598
0.000425621
0.00678451
0.0145032
-0.0171078
-0.00109596
0.0389013
-0.0317713
-0.0151797
-0.0997993
-3.54899e-05
-0.0173859
-0.0528929
0.00201179
-0.0643273
0.00162613
0.000127771
-0.0371689
-0.000421926
0.00138749
-0.0465291
-0.0607806
-0.0201481
0.000533022
-0.0134345
0.000654928
-0.0732615
-0.0455819
-0.000905569
-0.00125735
0.000567226
-0.0347883
0.000505328
0.00319203
1.21343e-06
0.00474111
0.00205997
0.00459611
-0.0209642
0.000495048
-0.0437141
0.00198863
0.0033694
-0.00912642
-0.106884
0.00102364
-0.0188052
0.00224869
-0.0337524
-0.0451527
0.0064754
-0.0362775
-0.00820047
-0.00758339
0.0131497
-0.0676384
-0.114857
-0.0618689
0.00275009
0.00344917
0.0003578
-0.0028347
-0.0876842
-0.000154912
0.00894144
-0.0156183
-0.0727504
-0.00699287
-0.0214108
-0.12466
0.0024041
-0.0465722
0.00147906
0.00186349
-0.0734644
-0.000380316
-0.0645476
-0.000222735
-0.000412318
0.00352058
-0.065934
0.00453105
0.000561908
-0.0580663
-0.0393993
0.00653078
-0.0806203
-0.0653822
-0.102218
0.001041
-0.0788188
-9.73462e-05
-0.0831003
0.00856038
0.0018374
-0.000828032
0.000283814
-0.0310716
-0.0203978
-0.000368574
0.00182798
0.000279342
-0.0791896
0.000195355
-0.0466279
-0.000712335
0.000544274
5.39077e-05
-0.0533259
-0.0906548
-0.121217
-0.0497051
-0.0212931
-0.0784255
-0.0845631
0.00179636
-0.0812812
-0.000690873
-0.0516624
-0.00272116
-0.0803581
0.00206022
0.00491704
-0.00670017
0.00561349
-0.0308959
-0.0928876
0.000668353
-0.0292227
0.00307236
6.80241e-05
-0.101448
-0.000720016
0.00306038
-0.0581231
-0.00089623
0.00158621
-0.000169013
-0.100236
0.000105616
0.00705634
-0.00018571
0.00302282
-0.0688959
-0.000600995
-0.0580856
0.00114413
0.00211818
-0.0877486
-0.047386
-0.00078594
-0.0620926
-0.0637157
0.0151936
-0.0522807
0.00236385
0.00785844
-0.108353
-0.0601637
-0.000902762
-0.00211686
0.00509
0.0014129
0.00333622
0.000813394
-0.0461805
-0.0120705
-0.103873
-0.0317595
0.0180986
-0.0482031
0.0066618
-0.0239183
-0.0612342
-0.0861244
0.00224525
0.00606637
0.000345153
0.00208812
0.00104624
-0.000219413
0.000609668
0.00113208
-0.0813888
-0.035889
0.00190909
-0.0552273
0.000730267
-0.108452
0.00205159
0.00314967
-0.0615992
-0.0442343
-0.00199556
-0.00809488
-0.000672191
0.00294769
-0.0113512
-0.0261908
0.00267133
-0.0674889
-0.0155498
0.00346574
-0.00141048
0.00608781
-0.063065
-0.0134058
0.00183739
0.00309773
-0.074954
-0.0180177
-0.0153631
-0.07118
0.0051664
0.0021765
0.00304507
-0.000787251
-0.0654891
-0.00333532
-0.0306956
-0.0109601
-0.018813
-0.0517424
0.00618298
-0.0566701
-0.0360494
-0.000222326
-0.00889688
0.00174721
-0.0256033
0.00668785
-0.057018
-0.00521096
0.00121267
-0.0689768
-6.49291e-05
0.00736461
-0.00239345
0.00841322
-0.0175931
-0.0600601
0.000755209
-0.0455892
-0.0881967
-0.000722034
-0.00318328
-0.00583421
0.000985914
-0.00198771
-0.00640029
0.0098895
0.000238767
-0.0518192
-0.0581029
0.0022913
-0.0581059
-0.0250581
-0.0253087
-0.0597597
0.00269139
-0.0466776
-0.00298665
0.000739062
-0.0443643
-0.0358562
-0.0355326
0.00289071
0.00253399
0.00331898
-0.0856556
-0.00819688
0.00196197
-0.039276
0.00271627
0.00273777
-0.0516591
-0.00277711
0.0111755
0.0105914
0.000241995
-0.0592466
-0.00650679
0.00713547
-0.0777466
0.00177752
0.00198376
0.000414492
0.00108379
-0.00763743
-0.00432097
0.00636673
0.00286907
-0.000786936
0.00450208
0.00952178
-0.00288489
-0.0266888
-0.000471239
-0.0515362
0.00673008
-0.0938225
0.0116593
0.000947379
-0.108355
-0.00863996
-0.0754807
-0.0197379
0.0133953
0.00603832
0.00254414
-0.00305238
-0.0802677
-0.0249096
0.0164788
0.0168254
-0.00187953
-0.0358025
2.83638e-06
0.00254029
-0.0021346
-4.17606e-05
-0.112594
-0.0195217
0.0135683
-0.0580098
0.00470875
0.000804484
0.00136435
-0.0319882
0.00234499
-0.000308039
-0.00478538
0.00346492
-0.0395368
0.000799846
0.0154882
0.000170143
-0.0951027
-0.0735161
0.0108487
-0.0612182
0.00255501
-0.0958658
0.00634003
0.00216643
0.00143335
-0.0048335
-0.00657572
0.000615712
-0.0255716
0.000573687
0.0189562
-0.000452036
-0.0743602
-0.0080448
-0.0329397
-0.0269536
0.00271433
-0.0117469
-0.00839402
0.00209295
-0.0203012
-0.000570533
-0.0609086
-0.0474251
-0.000589243
0.00293734
-0.00179305
0.00440813
0.00465112
-0.100523
0.00218531
-0.00294486
0.00196319
-0.00290349
0.00696191
0.00164323
-0.0461297
0.00246313
0.00221507
-0.00227451
-0.081079
0.00158064
-0.0516555
0.00227243
-0.00337598
-0.000668247
0.0046245
-0.100974
0.00125576
-0.0111495
-0.0547868
-0.0998308
-0.00069857
0.00408739
-0.0799026
0.000499374
0.00574006
0.0035599
-0.0755448
-0.00170205
-0.0591376
-0.00542752
-0.063181
0.00690969
-0.0403326
0.00342543
-0.000368435
-0.00345084
0.000453978
-7.0912e-05
-0.0668397
-0.00213042
0.00198447
0.00887578
0.000439646
0.0013432
-0.0464412
-0.00376579
-0.0887048
-0.013876
-0.0484626
-0.0502713
-0.0181937
-0.067083
0.000270229
-0.0453743
-0.00223352
-0.0662713
-0.00316914
-0.00881765
-0.00065897
0.00200407
-0.00110778
-0.000628706
0.0004136
0.00125132
-0.00299936
-0.0202568
0.000719049
-0.00230292
-0.0501673
-0.107509
-0.0970998
-0.053543
0.00438438
-0.00401269
0.000593345
-0.0769424
-0.000830475
-0.0621759
4.10943e-05
0.00219172
-0.000510072
0.00122571
4.6237e-05
-0.000567295
-0.000570871
-0.0244233
0.00193561
-0.122778
0.00683879
0.00236262
-0.0803725
-0.00237825
0.00333588
0.0024391
-0.10094
-0.0159683
-0.000126175
-0.000937956
0.00264927
0.00334037
-0.0593132
0.00150674
0.00856396
-0.0116691
0.0147438
0.00263708
0.000914086
-0.0038891
0.00597542
-0.00766369
-0.0843333
0.00255059
0.00198972
0.00600478
-0.00222826
0.00247311
-0.05333
-0.0355081
-0.0115064
-0.0746385
-0.121174
0.00624856
-0.054099
0.00114318
-0.0679777
0.000831456
-0.0726938
-0.0357027
-0.0254028
-0.00689155
-0.0409102
-0.0168553
-0.0613409
-0.000725086
0.00428924
-0.000607172
0.000442567
-0.0362048
0.000298307
-0.00512557
-0.0273898
-0.0890521
0.000851827
-0.0287095
-0.0835686
-0.000279366
4.25497e-05
0.00821507
-0.105689
-0.00655956
-0.000160893
-0.0232769
-0.0054715
0.00321318
0.0100755
0.0030912
-0.00461366
0.0029404
-0.000764203
-0.000540875
-0.00100382
0.00263118
-0.068849
-0.00844679
-0.00759159
-0.00140697
-0.103419
-0.0010993
-0.000849915
-0.000683916
-0.0105908
-0.0119162
-0.000716257
-0.0939614
0.00112014
0.00501347
-0.0431886
0.00217279
0.00129345
-0.0501957
-0.0570991
-0.045247
-0.0665146
-0.00216112
-0.0680361
-0.0814587
0.00156809
-0.0674946
5.00579e-05
-0.0333807
-0.0436874
0.000821333
-0.0179521
0.00191675
-0.0158288
0.0185687
-0.0006831
-0.100497
-0.0269918
-0.0375347
-0.0835301
0.000967033
-0.0521844
-0.00411352
0.00114946
0.00404842
-0.000761005
-0.000433466
0.0021588
-0.00730042
-0.0618201
0.00209192
-0.00163766
-0.0203575
-0.000105311
-0.00228049
-0.029731
-0.047333
0.00498364
0.0028305
0.0136382
-0.00169392
0.00946906
-0.0668514
-0.00809127
-0.00220779
-0.0101796
0.00203214
-0.00143013
-0.0828225
-0.067954
0.00886141
-0.0315468
0.000935014
-0.0692239
0.00119236
-0.00523379
-0.08197
0.00310229
-0.0463167
-0.1054
-0.0677361
0.00242058
0.00852175
-0.000144673
0.00333558
-0.000638445
-0.00238967
0.00356388
-0.0577267
0.00133044
-0.0336184
0.00144604
-0.0446142
-0.101502
-0.00327276
-0.0727858
0.0103464
-0.00250652
-0.0486404
0.00407925
-0.0035849
-0.0018735
-0.0651961
-0.0489515
-0.089037
-0.00929549
-0.108642
-0.0348575
-0.000651101
0.0113848
-0.0282599
-0.000793045
0.00173775
-0.0456742
-0.00198005
-0.00496564
0.000194214
0.0029405
-0.0109709
-0.0440362
-0.0379722
0.000517493
-0.0428057
0.0144853
-1.57123e-05
0.000786912
0.000353522
-0.0594676
-0.0761428
0.00233687
-0.0322309
-0.000835868
0.0054714
-0.0623544
-0.00489687
0.00184994
-0.000191301
-0.00210338
0.000905851
-0.000572792
-0.0601657
0.00477433
-0.0196564
-0.000977453
-0.000723791
-0.0529306
-0.104002
-0.105405
-0.0084639
0.00194911
0.00185959
-0.00200786
-0.0474814
-0.0602475
-0.000999247
-0.0284944
-0.00181833
-0.0421058
-0.019751
-0.00070557
-0.00396757
-0.0576851
0.00241124
0.00220671
-0.000621155
0.00203411
-0.00786956
-0.0895599
-0.0352829
-0.000929205
-0.109786
-0.0437944
0.00298135
-0.0488077
0.00161547
-0.000481896
-0.0824045
0.00307534
0.00233641
0.00897954
-0.0575473
-0.00943399
-0.00901609
0.000703897
0.00073213
0.00256432
-0.00185842
-0.0210899
-0.0179504
-0.0678105
-0.0103281
-0.0197831
-0.0320318
-0.0332131
0.00271606
-0.00370689
-0.0631593
-0.0586538
-0.11181
0.000608697
0.000699198
-0.0653703
0.00177702
-0.000206214
-0.0116938
-0.0129125
-0.00316813
0.00173777
-0.0682159
-0.0178959
0.00151092
-0.00164949
-0.0334913
-0.0740241
-0.0827362
0.00435913
0.0030238
0.00602827
-2.06203e-05
-6.99e-05
-0.0250171
0.0017502
-0.0101195
-0.0302383
-0.00879098
-0.0650707
-0.000919299
0.00624842
-0.010938
0.000680253
-0.0579214
-0.000890711
0.0025037
-0.0288824
-0.0455604
-0.031977
-0.0649179
-0.000418581
-0.0282
0.00273823
0.00287225
0.00607719
-0.000531169
-0.00276203
-0.0574031
-0.00463997
-0.0431149
0.00391381
0.000323505
-0.00578079
-0.000722397
0.00327094
-0.0624903
-0.000405718
0.0167093
-0.0491902
-0.000568198
-0.0429704
-0.0304719
-0.0285555
-0.00113914
0.00242657
0.00247161
0.00199549
-0.00141111
0.00903991
0.000607704
0.00181587
0.00275902
-0.000559812
0.0141605
0.00208256
-0.101042
-0.0346324
0.000950995
-0.000928851
0.00157307
-0.0333697
-0.000265918
-0.00392782
0.00226921
0.000708838
0.000210935
-0.0382582
0.00410179
-0.0926974
0.00140219
-0.000387448
-0.0105073
-0.000681051
0.00163813
-0.0904331
0.00146399
0.00183528
-0.026772
-0.0480409
-0.0688282
-0.00027678
-0.0169047
-0.0270234
-5.76479e-05
0.000359977
-0.0939968
-0.00241963
-0.000343834
-0.0373843
0.001411
-0.09191
-0.00038545
0.00196675
-0.00313836
0.000365267
-0.0656841
0.000270218
0.000681499
-0.0507509
-0.000471647
0.00268168
-0.000688144
9.82671e-05
-0.0404889
-0.00682196
0.00622064
0.00210634
-0.0180755
0.00604882
0.00213895
0.00216411
-0.00617763
-0.000861434
-0.0194343
0.00442217
0.00191609
-0.00726726
0.000162999
-0.00216535
-0.00302637
0.0126916
0.00152606
-0.0510538
0.00369978
0.0116371
0.00223484
-0.00283258
0.00251436
-0.000397299
-0.00900906
0.00671075
-0.0238383
-0.0329209
-0.00131947
-0.0670969
-0.104895
-0.0517818
-0.0600129
0.0032112
-0.00293921
-0.00814992
-0.067915
-0.000563289
-0.0806805
0.00184294
-0.055806
0.0035547
-0.0182385
-0.050815
0.0408542
-0.0235214
0.0012047
-0.0412601
0.00239366
-2.42541e-05
-0.019126
-0.0836237
-0.111361
-0.00380467
0.00639684
-0.0176962
0.000506918
-0.0694294
0.00137717
-0.00469452
0.00151697
0.00159052
-0.071403
0.000298666
-0.0325958
0.00190406
-0.00805453
-0.0457053
-0.000810965
0.0022958
-0.0648661
0.00275221
-0.00242651
-0.0100479
0.00220409
-0.0676812
0.00829032
-0.024754
-0.0688109
-0.00195458
0.00230486
-0.00718
0.00223468
-0.0327156
-0.00116854
0.00213556
-0.0252
-8.13295e-05
0.00171432
-0.0209311
-0.000964513
-0.0756528
-0.00369372
0.00229602
0.000382222
-0.00204878
0.00164579
0.00136286
-0.0648041
0.00749069
0.00387753
0.00250841
-0.000933253
0.0032147
-0.000443823
-0.0612594
0.00128464
0.00688391
-0.00293369
0.0020378
-0.0689356
0.000105771
0.000686606
-0.0719206
-0.0584276
-0.0927894
0.00204383
-0.0719938
0.0198483
0.00151816
-0.080466
0.00157672
0.00595977
-0.105237
0.00341822
0.00866874
-0.0979851
0.0036546
-0.0478469
-0.00544276
-0.0654928
-0.00263385
0.00263844
-0.000964026
-0.0881514
-0.00272309
0.000133184
0.00582022
0.00673539
0.00261748
-0.00117595
-0.0166145
0.0361462
-0.000707749
-0.00227102
-0.0740721
0.0170176
-0.0433022
-0.0422367
0.00219226
-0.0567419
0.00857868
0.00176181
-0.0794962
-0.000386784
-0.0594136
-0.0908336
0.00264799
-0.0635091
-0.000998924
-0.0712531
-0.0648478
-0.0068547
0.00631175
-0.00066932
0.00688701
-0.00145605
-0.0111687
0.00222331
0.000486128
-0.0788331
-0.0335527
-0.0650694
0.00412113
-0.0154789
-0.0902439
0.00144347
0.00211912
-0.0605971
-7.71915e-05
-0.00198215
-0.0632146
-0.066035
-0.0389737
0.00797269
-0.0558725
-0.00744269
0.0126107
-0.0771058
-0.105689
0.000665256
0.00154776
-0.047325
-0.0322457
-0.0328733
-0.00211764
-0.0256385
-0.0309122
0.000276556
0.00604587
0.000503749
0.0288043
-0.0712308
0.00508338
-0.00187152
-0.00207659
0.0143735
0.0024896
-0.0657695
-0.0150684
-0.000712538
-0.0449253
0.000460095
0.00213298
-0.0279636
-0.0273195
-0.00252116
-0.0643058
0.000707166
-0.0615899
0.00200091
-0.085429
-0.0737794
-0.0640876
-0.000419248
-0.00847952
0.00358308
0.0165558
-0.0398091
-0.0486525
-0.0795147
0.00747057
-3.32534e-05
-0.0115868
0.00210844
-0.0594773
-0.0751907
-0.00018578
0.00206912
-0.00663543
-0.0429675
0.0188269
0.00219184
-0.0166119
-0.041444
0.00185316
0.000418107
-2.548e-05
-0.0624983
0.00740005
0.00119495
-0.0600613
-0.0239988
0.00188502
-0.0793952
0.000932
0.0059095
-0.110881
-0.000529606
-0.000267066
-0.0334409
-0.0454675
-0.0629179
-0.0734052
-0.00517567
0.0116978
0.00959383
0.00145378
-0.0581547
-0.0437886
-0.0307261
-0.0761412
-0.0191454
0.00461413
-0.0497781
-0.110961
-0.0107171
-0.0468937
-8.42329e-06
-0.0077717
-0.00267172
0.00240666
-0.0679941
0.00440732
-0.000429191
0.0110735
-0.0623139
0.000981535
0.00311784
-0.0917348
-8.50383e-05
-0.000287179
-7.52386e-05
0.000497846
-0.0402751
-0.00268558
-0.109236
-0.0268462
-0.0416847
0.00402204
-0.0312791
0.0122544
0.0082955
0.0295903
-0.00230514
0.000348177
-0.00041271
0.00212109
-0.0724271
-0.0515534
-0.00183238
-0.101838
0.00424839
0.00238267
0.00424644
0.00194283
0.00117802
-0.0142319
-0.0166406
-0.096854
-0.029351
-0.0803917
-0.00530849
-0.0596898
-0.000841303
-0.065774
0.00209426
-0.0632278
-0.0422233
0.00150783
-0.040809
-0.0818351
-0.00172903
0.000459858
-0.000139765
-0.006664
-0.081672
0.00213338
-0.00783131
0.00209128
0.00174871
-0.0611133
-0.000673237
-0.0154158
0.00027278
0.00182665
-0.0800856
-0.0264194
0.00593369
-0.0595651
0.0137493
-0.082594
0.0102215
0.00093558
0.00243552
-0.110099
-0.00189412
-0.0470087
-0.00630608
-0.0761955
0.00368227
0.00456888
0.00835675
-0.0962745
-0.00177647
0.00209337
0.00137628
-0.0540691
-0.11852
-0.0456562
-0.00103331
0.00377918
0.00204691
-0.0658113
9.33988e-05
-0.0790601
-0.0451448
0.00422933
-0.0566778
0.00815826
-0.00128286
-0.011329
-5.07003e-05
-0.0155291
0.0072685
-0.0235452
-0.00718937
0.00020694
0.00355146
-0.0995602
0.0015154
-0.000862327
-0.0758229
-0.00244701
0.00159849
-0.0170608
0.0030602
0.00218467
0.00567112
-0.0191778
0.0387186
-0.00216838
-0.00025293
0.0199098
-0.00346993
-0.0481671
-0.0229526
-0.000663202
-0.000399613
-0.000253881
-0.00257367
0.00825479
-0.0415801
-0.0609464
-0.108789
0.00251435
0.000102168
-0.00864506
-0.0732367
-0.00291769
0.00132529
-0.0748587
-0.075283
0.00191223
-0.0110648
-0.00743181
0.00545923
-0.076518
-0.000698993
-3.61913e-06
-0.0275032
-0.114224
-0.00656164
-0.0119268
0.001766
-0.055141
-0.0783774
0.0015312
-0.100537
0.00811289
-0.00175581
-0.0781516
-0.0449828
0.0182395
0.00898274
-0.00391029
0.00609823
-0.000256848
0.00152191
0.000642134
0.0146394
-0.00339618
0.00198573
-0.0176107
-0.067883
-0.0347412
0.0020901
-0.0379765
-0.0543607
0.00617779
0.00190463
-0.0044352
-0.00104602
-0.0742498
0.0148277
0.00293347
-0.0529147
-0.0470146
-0.000290284
-0.0701473
-0.00881373
0.00231613
-0.0493997
0.00354926
0.00285947
0.00241361
-0.000208944
0.00398771
0.00133072
-0.0891464
-0.000394399
0.000842892
-0.0497035
-0.0232558
0.00261989
-0.062264
-0.000392744
-0.00128634
-0.00440157
-0.00343063
0.0011339
0.000516032
-0.0721134
0.0105922
0.00971769
0.00361824
0.00876383
-0.101391
-0.0366981
-0.0929742
0.00255813
0.0043301
-0.00317121
0.00173952
0.00206325
0.00168718
-0.0575881
-0.0456125
-0.000308154
0.00114834
-0.00194485
-0.0443149
-0.00707039
0.000962542
0.000350202
-0.0623181
-0.0147552
-0.0883739
-0.00492982
-0.00162572
8.47857e-05
0.00446492
0.00409492
-0.0395007
0.00206204
-0.0481172
-0.0953963
-0.00577042
-0.0674158
0.0082061
0.00192301
-0.0159939
-0.00344083
-0.0436696
-0.000429171
0.0019454
-0.000266805
-0.10764
-0.00022118
0.0139101
0.00653035
-0.0460338
0.0339602
0.0317348
-0.0477165
-0.0635119
0.000115701
0.00132145
-0.00154712
-0.0638672
-0.00210502
-0.00539831
0.0103189
0.00150793
-0.0553686
-0.000251484
-7.23633e-05
-0.0033076
-0.00447877
-0.0432722
-0.103075
-0.0954516
-0.0176969
0.00183944
-0.0154941
-0.00761102
-0.0326058
0.00237511
-0.0606999
-0.0527582
0.000657668
0.00232336
-0.000260212
-0.0282246
0.0119952
-0.0605148
-0.0712707
-0.01402
-0.0754623
-0.0501206
-0.0545181
-0.0744448
-0.000985605
-0.107634
-0.00693024
-0.0608901
-0.0689105
-0.108672
-0.0821327
0.000678111
-0.0314224
-0.00180293
0.00373687
-0.096645
-0.000245132
-0.0039307
-0.023904
-0.00880661
-0.0303442
-0.0588882
-0.0640032
-0.101713
-0.0164979
-0.00504559
-0.00333621
0.0043796
-0.00675098
-0.042626
-0.0535661
-0.0648874
-0.0213697
-0.000434034
0.00227076
0.00401263
-0.0577077
0.00103989
0.0048467
-0.00994862
-0.00475772
-0.0310208
0.00621191
0.0103732
-0.105528
-0.0132651
-0.0317877
-0.00295983
-0.0243516
-0.0447963
0.00116559
-0.00114988
0.0018972
-0.0784454
-0.0261741
0.00287377
-0.0354439
-0.0953603
0.00174351
-0.00310301
0.00153894
-0.0988674
0.000544052
0.00180904
-0.000454706
-0.0352527
-0.0807795
0.00185191
-0.0681853
-0.0871811
-0.000192121
0.0102189
-0.0328103
-0.0617833
-0.014003
-0.0767009
0.00116912
0.00165505
0.000348144
-0.0678205
-0.0293951
0.00189626
-0.0861241
-0.000619371
-0.00311841
0.0253234
-0.0625396
0.0121695
-0.0471264
-0.0213815
-0.0109379
-0.0803967
0.00275213
-0.000375638
-0.00505874
-0.0318999
-0.00270916
0.0073113
-0.000489871
0.0012078
-0.0700379
-0.0101487
-0.0882506
-0.000519773
-0.0857028
-0.0703261
-0.00489596
-0.00683898
-0.0226218
0.0048063
-0.0582797
-0.0422348
-0.0945234
-0.102176
0.0124297
0.00285297
-0.0631169
-0.111008
0.0112861
-0.077573
0.000380246
0.00344071
-0.00462936
0.00136273
-0.000417151
-0.0324523
-0.0887895
0.00860268
-0.00147745
-0.115257
-0.059001
-0.076078
-0.0814017
0.00805281
-0.0694099
-0.0551624
-0.0502719
0.00202794
0.0037681
-0.0486705
-0.0703609
0.00522414
-0.090481
-0.0858833
0.00268121
-0.00561349
0.00195647
-0.0182757
0.000756294
-0.0445757
-0.107661
0.00201634
-0.000328631
0.00263025
-0.00688755
-0.0549096
-0.0943717
0.00174528
-0.0670849
-0.0408146
0.000320151
-0.00237809
-0.0299423
0.000398601
-0.0710819
-0.0721752
-0.0608072
-0.0414956
-0.0787866
0.00353048
-0.0731991
-0.0873108
-0.0453236
-0.0740302
0.0021698
-0.000936832
-0.00639613
-0.0179067
-0.0744918
-0.0406777
-0.00634289
-0.0148592
-0.00212724
-0.0813671
0.00279982
-0.000706674
-0.0642399
-0.0835009
-0.0074226
-0.00590221
-0.0478418
-0.00157939
-0.00156592
-0.0412397
0.00110896
-0.0581228
-0.00251722
-0.0715168
0.00205429
-0.0116107
-0.0644719
0.00287005
-0.00035063
-0.0355872
-0.0438084
0.00451297
0.00863032
-0.0604883
-0.0589031
-0.072274
-0.0651344
-0.0104128
-0.00294144
-0.0020478
-0.0214081
0.000204199
0.0170042
0.00120955
-0.00040484
-0.0960716
-0.00669348
-0.0449232
-0.0178788
0.00567546
0.00253254
0.000950604
-0.00968124
-0.0104213
-0.0747761
-0.0175263
-0.0636784
-0.0657186
-0.0202468
-0.0485048
-0.0788928
-0.0705996
-0.0728102
-0.000616885
-0.0187634
-0.0223853
-0.00991666
-0.0531703
-0.0025456
-0.0100221
-0.068454
-0.0730558
-0.00778492
-0.0545515
-0.049574
-0.056007
-0.0574242
-0.0116663
-0.0587568
-0.0600078
-0.0611769
-0.0622616
-0.0568707
-0.0509844
0.00708968
0.000871406
-0.028606
-0.0546112
0.00177264
-0.0632333
-0.0670199
-0.0484616
-0.092541
-0.000325639
0.00174493
0.00191668
-0.0860098
-0.010188
0.000687892
-0.0464118
-0.0979727
0.00824975
-0.000727673
0.00608849
-0.0159755
-0.125817
-0.00221937
-0.0208226
-0.0765347
-0.0833554
-0.0570344
-0.0810178
-0.0470084
0.00228221
-0.0685509
-2.49577e-05
-0.0652908
-0.071952
-0.00259406
-0.0337702
-0.0372532
0.00625044
0.00244833
0.00259342
0.0178143
0.000836664
0.000871362
-0.0601321
-0.0700143
-0.0351588
-0.00241665
-0.0669605
-0.0579039
-0.0853074
-0.0646683
-0.00536763
-0.00165779
-0.00972646
0.00126844
-0.0791674
0.00667203
-0.0968103
-0.0530916
-0.06999
0.00296998
0.00171838
0.00149942
-0.0794903
0.00206391
-0.0726293
-0.000192316
-0.0795387
-0.0109272
0.00145624
0.000806718
0.00147879
-0.0589708
-0.000809244
6.93381e-05
0.00308336
-0.0111897
-0.0583661
-0.0880708
-0.0420856
-0.0852005
0.00118968
0.00196491
-0.0244157
-0.0335778
-0.0610128
-0.0988369
-0.0344658
-0.0659267
-0.0606246
-0.0830109
-4.24228e-05
0.00183147
0.00206018
0.00205295
-0.075071
0.0152656
9.21237e-05
-0.00699401
-0.0636105
0.00255752
-0.0016701
0.0237107
-0.124446
-0.000971265
-0.010855
-0.000217464
-0.0849565
-0.00114302
0.00585262
-0.0746231
-0.0600391
-0.0698562
-0.000261986
-0.0340531
-0.0433763
-0.0754686
-0.0710866
-0.00055007
-0.0618702
0.0024064
0.00376266
-0.0154599
0.0104703
-0.0393015
0.00252248
-0.0321717
-0.025707
-0.0689582
-0.0786655
-0.0768033
-0.0701322
0.00285624
-0.0383948
0.00400779
-0.0624871
0.00238841
-0.0369024
0.00467113
-0.0365735
-0.00252549
-0.000186609
0.00180657
-0.00261539
-0.0735104
-0.0545753
0.00427783
0.0180663
-0.0539199
0.00153648
0.00428864
-0.0731048
-0.0198421
-0.0394192
-0.0748548
0.00184385
-0.0967871
0.00200298
-0.089038
-0.0984918
0.00667605
-1.51654e-06
-0.0258637
-0.0584333
-0.056316
-0.0765186
0.0124032
-0.0094805
-0.0764295
0.0115236
-0.0639977
-0.0046059
-0.108676
-0.0390541
-0.0721057
-0.0257007
0.0324949
-0.00632351
-0.0983842
-0.0464299
-0.0800702
-0.0680991
0.00159074
-0.000231712
-0.0824434
-0.0664399
0.00287627
-0.00835601
-0.00779732
0.00819122
-0.0853422
0.0156106
-0.070296
-0.00861798
-0.0672624
-0.0405972
0.0128162
-0.00901881
-0.0624112
-0.0987324
0.0017161
-0.0519849
-0.000282051
-0.0167345
-0.00599702
-0.00257751
0.00140912
-0.00559803
-0.0701626
-0.0730166
0.00198203
-0.0643725
-0.00762951
0.00370494
-0.00146101
0.00243393
-0.00769419
-0.0699726
-0.0716185
0.00159388
0.0113352
-0.0489835
-0.0420881
-0.080205
-0.0535612
-0.00933991
-0.0330467
-0.000932142
-0.00290953
0.00594417
-0.0623293
0.000414288
-0.0738747
-0.0772239
-0.0412656
-0.0617287
-0.0647733
0.00216736
-0.0785756
-0.0362488
-0.0471932
0.0108865
0.00263526
0.006573
-0.0567273
-0.00541486
0.00970573
-0.000227917
-0.0726566
-0.0616874
-0.0620859
-0.0592324
-0.0608125
-0.071671
-0.0020435
0.00240776
-0.0473695
-0.00620974
-0.00696118
-0.00734034
-0.00688795
0.00259579
-0.000468585
-0.00580794
-0.00321877
-0.00660154
-0.00341453
0.000280336
0.0101548
-0.0527451
-0.00695727
-0.0697976
-0.00806081
-0.000832251
-0.0550059
-0.0396093
0.00133116
0.0027738
0.014132
-0.0191473
-0.0786924
-0.0197519
-0.0489256
-0.00153615
0.00368199
0.00123707
-0.0658055
-0.0499529
-0.000438597
7.69108e-05
-0.0827859
-0.00633723
-6.96646e-05
-0.0515056
-0.0180784
-0.0591033
-0.0752599
-0.0567411
0.00810212
-0.00908235
-0.0893083
0.0026843
-0.00463358
-0.0306697
-0.0024668
-0.0464588
-0.0460171
-0.0967643
-0.00538874
-0.00418198
-0.0243326
-0.0678458
-0.0453011
-0.0057266
-0.0564097
-0.0531837
-0.0425062
-0.0077886
-0.00586816
-0.0620303
-0.0393053
-0.0636371
0.000468494
0.00435162
-0.0492738
-0.0073877
-0.0406204
-0.0638406
-0.00190458
-0.0607476
-0.000721536
-0.0422353
0.0137448
-0.00486256
0.00300419
-0.000933129
-0.0711047
-0.0658866
-0.0024828
-0.00105289
-0.057781
-0.00702675
0.00328055
-0.0241713
-0.0659778
-0.0615301
-0.0727456
-0.0301438
-0.0317792
-0.0730936
-0.0590418
-0.0308164
0.00826538
-0.0531513
0.00942908
-0.0037881
-0.0526804
-0.0602296
-0.00465533
0.0173501
-0.0148489
0.0123777
-0.00757351
-0.061332
0.00251875
-0.0641524
-0.0220448
0.00205528
0.00169375
0.00226727
-0.00412718
-0.00541836
0.0025174
-0.0208594
-0.00174805
-0.00391577
-0.00228031
-0.0520817
-0.0103049
-0.0409589
-0.010476
-0.000795735
0.000867071
-0.041076
0.00561247
-0.0744069
-0.00515648
-0.0049726
-0.0303775
-0.0403827
-0.00431292
-0.00389202
-0.0428264
-0.0191697
-0.0355194
-0.040002
0.00399859
-0.12047
-0.0197082
-0.00580255
-0.0127778
-0.0612673
0.00200491
-0.0371092
0.00076946
-0.0242271
0.00280706
-0.0041688
0.000539338
-0.00522956
0.00822391
-0.0415513
-0.125645
-0.0342045
-0.00353502
-0.00560277
-0.0615498
0.00121314
-0.0590572
-0.0572648
-0.00605809
-0.0308542