/*--------------------------------*- C++ -*----------------------------------*\
| =========                 |                                                 |
| \\      /  F ield         | OpenFOAM: The Open Source CFD Toolbox           |
|  \\    /   O peration     | Version:  v2012                                 |
|   \\  /    A nd           | Website:  www.openfoam.com                      |
|    \\/     M anipulation  |                                                 |
\*---------------------------------------------------------------------------*/
FoamFile
{
    version     2.0;
    format      ascii;
    class       volScalarField::Internal;
    location    "300";
    object      V0;
}
// * * * * * * * * * * * * * * * * * * * * * * * * * * * * * * * * * * * * * //

dimensions      [0 3 0 0 0 0 0];


value           nonuniform List<scalar> 
13917
(
0.00162885
0.0420585
0.00427026
0.0430342
0.089786
0.0534737
0.0224336
0.043611
0.0209692
0.00125976
0.0470781
0.0618264
0.174952
0.0444132
0.0625209
0.00135898
0.16298
0.046797
0.00634013
0.00165274
0.0321397
0.106156
0.0116157
0.116804
0.0322389
0.0330522
0.0212053
0.0013613
0.0416401
0.163294
0.00131662
0.00753618
0.045015
0.00169107
0.140725
0.0444855
0.0500487
0.171724
0.0204248
0.0278473
0.200336
0.140236
0.0307644
0.00549372
0.00656561
0.00832974
0.0393813
0.00326581
0.0512948
0.113352
0.0614537
0.00929262
0.00142883
0.0784339
0.0771665
0.00691651
0.00120955
0.0130534
0.150185
0.0103719
0.00768985
0.123239
0.161789
0.036891
0.0024377
0.153383
0.040638
0.0415309
0.0419274
0.00128069
0.00366487
0.00125746
0.0718541
0.149202
0.0319635
0.0380797
0.074562
0.156556
0.0435987
0.032919
0.0841348
0.179479
0.0769429
0.00343676
0.148123
0.0367497
0.00819321
0.167915
0.0291388
0.137654
0.15144
0.0276939
0.0605573
0.148925
0.0679044
0.0406826
0.0289146
0.174178
0.138322
0.0266284
0.170369
0.131373
0.0706906
0.151154
0.0971501
0.00281564
0.00262778
0.136906
0.139238
0.0200379
0.169092
0.0019467
0.0383183
0.00332002
0.00269109
0.0378812
0.00719806
0.167369
0.00470846
0.0718674
0.171786
0.157493
0.0385503
0.00815913
0.00147034
0.00208061
0.0331213
0.0312133
0.134246
0.00653088
0.0126047
0.0118893
0.0020824
0.0424198
0.00647739
0.0210828
0.00828331
0.00138257
0.0365432
0.182606
0.0620812
0.15605
0.00306119
0.0978079
0.0677622
0.151884
0.00339195
0.121291
0.00223366
0.0887684
0.0263642
0.199809
0.0694438
0.061212
0.0242819
0.0954428
0.143657
0.00170949
0.182865
0.156332
0.137143
0.00374896
0.0542977
0.0702327
0.00455738
0.0236194
0.00122377
0.00453569
0.17335
0.0361081
0.10372
0.00229859
0.0243892
0.00791769
0.0102084
0.167509
0.0387313
0.0096957
0.0157395
0.0506832
0.0306381
0.113784
0.0510354
0.00550359
0.00455122
0.0140358
0.0585115
0.00761842
0.168953
0.0383741
0.0134899
0.00650947
0.00676062
0.00148635
0.11348
0.00149942
0.0262351
0.00212644
0.138953
0.101352
0.0344199
0.00137011
0.00119475
0.0512095
0.0161619
0.0428528
0.025322
0.152613
0.00881852
0.0830981
0.142344
0.0754239
0.0734145
0.00295077
0.0064723
0.030655
0.00289067
0.16797
0.151676
0.144056
0.0043087
0.00766478
0.00752271
0.149116
0.167929
0.0217693
0.00147127
0.130451
0.145513
0.152165
0.146695
0.150882
0.00112025
0.00300445
0.0760684
0.169093
0.0111132
0.0014314
0.158837
0.151553
0.0207653
0.00268782
0.00548959
0.0025958
0.0109096
0.0863215
0.00497054
0.00975516
0.0332359
0.00846413
0.0506667
0.00236601
0.0583974
0.0144182
0.0142062
0.0834547
0.179478
0.0315619
0.101333
0.129886
0.00144121
0.0375821
0.157583
0.143046
0.0953153
0.138715
0.0667313
0.176811
0.0157692
0.157333
0.0013192
0.00276394
0.0936447
0.0954784
0.0103709
0.158787
0.0226889
0.00146749
0.154072
0.00126788
0.134575
0.00451669
0.180716
0.066035
0.070444
0.123719
0.00512769
0.168328
0.0222416
0.0254392
0.0390805
0.124493
0.0206091
0.00132907
0.139122
0.0122978
0.101228
0.0393608
0.0968793
0.0356699
0.141222
0.171264
0.011696
0.101889
0.0170168
0.0358944
0.1239
0.00178864
0.00109531
0.135109
0.166991
0.0366636
0.0842683
0.00493468
0.00276757
0.00673645
0.188963
0.0141209
0.0922414
0.00322445
0.0846699
0.00362469
0.138862
0.0594146
0.0191452
0.0956021
0.040388
0.00640119
0.178098
0.00186681
0.145885
0.00999197
0.161468
0.00165792
0.127137
0.0151063
0.0382843
0.179422
0.187227
0.00725187
0.00304099
0.0699707
0.0936948
0.00185998
0.00290703
0.00541913
0.0428442
0.164202
0.0758604
0.00261243
0.0118598
0.174839
0.120039
0.0569858
0.0289054
0.0132086
0.00768585
0.014707
0.0238832
0.00893741
0.00164159
0.124415
0.0716863
0.0644768
0.00480286
0.170231
0.00124398
0.0106047
0.118417
0.0596039
0.0144813
0.166149
0.0546996
0.128037
0.00677065
0.00896728
0.0432804
0.082049
0.00358878
0.159051
0.00501019
0.00611388
0.1262
0.052366
0.0783566
0.132483
0.135492
0.00157868
0.126474
0.042199
0.0201392
0.02641
0.0574534
0.00607793
0.00396822
0.0438895
0.00547918
0.076351
0.0263969
0.00448762
0.125943
0.0195498
0.0298246
0.13346
0.12958
0.134285
0.00767977
0.0231074
0.0587522
0.130567
0.103652
0.0138349
0.0456104
0.164827
0.190422
0.00576702
0.016317
0.101704
0.0507487
0.00658054
0.0291488
0.144123
0.00580282
0.00301837
0.145222
0.163131
0.0366867
0.132169
0.162584
0.0649342
0.137475
0.142111
0.00408281
0.0727697
0.0213274
0.00136649
0.0122169
0.135088
0.070569
0.00553217
0.0394143
0.00123114
0.165727
0.0856276
0.152432
0.144832
0.0481601
0.0803879
0.00818789
0.145086
0.00240692
0.0935262
0.0131401
0.134263
0.0715171
0.0103839
0.00667071
0.0552534
0.0234239
0.133647
0.142666
0.101826
0.0791211
0.141422
0.156036
0.00186564
0.00646277
0.141146
0.0172274
0.00484221
0.14828
0.0120764
0.00659159
0.00384038
0.0178595
0.00275004
0.131776
0.131675
0.0742522
0.156527
0.133407
0.0556617
0.00602704
0.140578
0.074992
0.0576431
0.0199671
0.0270187
0.0042394
0.00807164
0.126228
0.0953967
0.0408317
0.0201654
0.0549801
0.0349013
0.0128693
0.0248525
0.00520071
0.126951
0.0168908
0.00827523
0.133001
0.00164345
0.11878
0.132636
0.0118323
0.15478
0.168325
0.0122157
0.00171331
0.0205619
0.127886
0.0308169
0.116678
0.00685554
0.00963508
0.0603192
0.0852872
0.115814
0.0143739
0.108044
0.12628
0.197325
0.103821
0.115428
0.107131
0.017095
0.157597
0.00774593
0.13669
0.106532
0.0322195
0.0018707
0.135471
0.025864
0.13004
0.0149442
0.0108235
0.028343
0.0117011
0.0224482
0.0429968
0.0411297
0.00207104
0.00373487
0.00141953
0.138966
0.103066
0.119921
0.0758702
0.00281042
0.14697
0.0823256
0.0271883
0.00245786
0.0217385
0.026652
0.00144057
0.143426
0.00623282
0.178465
0.139517
0.0016218
0.167336
0.0032282
0.176384
0.137742
0.101105
0.00444446
0.106683
0.117894
0.00562405
0.0121779
0.100538
0.00329388
0.002095
0.00371669
0.12214
0.00108451
0.160753
0.00703701
0.110694
0.129472
0.155556
0.132188
0.013608
0.0279158
0.16252
0.135707
0.151796
0.00365025
0.0916529
0.00794283
0.0758512
0.122515
0.166542
0.00793084
0.00409352
0.0017776
0.00921665
0.0162598
0.00467803
0.00132727
0.13371
0.00628585
0.146036
0.00596017
0.0718278
0.00348716
0.116279
0.101389
0.0583681
0.0937846
0.0159048
0.00258752
0.153002
0.0150228
0.119657
0.134955
0.00156345
0.0263506
0.102842
0.0073242
0.110722
0.134499
0.177611
0.00163048
0.108856
0.0929797
0.124004
0.0994705
0.00418238
0.189067
0.00681572
0.168373
0.140141
0.00712695
0.00658099
0.0788924
0.00114784
0.00305052
0.048953
0.00677829
0.146482
0.0543837
0.00161432
0.00289188
0.0362873
0.0405359
0.0841878
0.136236
0.111192
0.155337
0.00960713
0.0265003
0.00513032
0.0158222
0.0470132
0.00921701
0.0963007
0.0152472
0.00659883
0.00124469
0.136146
0.0868914
0.132495
0.133818
0.12588
0.183593
0.109795
0.148903
0.000961611
0.0135355
0.160366
0.00617275
0.121763
0.00227111
0.13487
0.127462
0.00163975
0.00909164
0.139018
0.0496018
0.157158
0.129895
0.031753
0.0113007
0.115042
0.00119625
0.0224506
0.112333
0.138732
0.0847121
0.00153163
0.0297731
0.1327
0.108698
0.00145417
0.0174307
0.0231612
0.00136628
0.0871114
0.132044
0.132374
0.0480891
0.00258215
0.140351
0.0142138
0.0368506
0.0234345
0.00479173
0.0945098
0.00742989
0.0117851
0.0664841
0.0264173
0.131281
0.017673
0.0961371
0.00305825
0.0402249
0.12218
0.00129263
0.168586
0.0857319
0.0460221
0.0480892
0.0210559
0.00296949
0.173254
0.00757878
0.00376862
0.168995
0.0807531
0.0365883
0.145747
0.0781216
0.069407
0.0609843
0.143756
0.00807761
0.00681938
0.138145
0.00330225
0.0172538
0.0161938
0.00705511
0.0755732
0.00631996
0.0225429
0.134021
0.00962397
0.0119831
0.0109637
0.0956213
0.136847
0.0922032
0.00114849
0.0501356
0.142658
0.0112417
0.113929
0.134096
0.00593351
0.0232277
0.0612456
0.0280644
0.0305053
0.00245962
0.0498015
0.0621202
0.00423861
0.130094
0.13226
0.151818
0.14863
0.0540867
0.0368106
0.026112
0.0939349
0.15905
0.105688
0.0843714
0.0419666
0.0162763
0.146658
0.00671421
0.0597367
0.00447143
0.05901
0.141276
0.00215041
0.0324583
0.00147834
0.0297987
0.0628762
0.0929581
0.13212
0.0783018
0.00157353
0.0189621
0.0472082
0.0268453
0.0846787
0.0103892
0.179084
0.115135
0.115301
0.135157
0.00445975
0.0258745
0.057452
0.00631737
0.0844169
0.151664
0.126975
0.014567
0.136455
0.0753773
0.0440053
0.105009
0.00962935
0.121991
0.0314858
0.0635085
0.00123598
0.00142423
0.070818
0.00238087
0.0217402
0.00123227
0.0864881
0.145809
0.129136
0.0763376
0.0423227
0.112487
0.0174036
0.0941281
0.0339811
0.0729455
0.00306282
0.0466711
0.0144602
0.015142
0.130469
0.0231185
0.0309679
0.134454
0.0203262
0.159451
0.0018753
0.00872385
0.148991
0.12899
0.0888031
0.101762
0.10397
0.00510991
0.140925
0.0236018
0.11336
0.160179
0.0702412
0.0976508
0.00516729
0.0923684
0.145766
0.140035
0.00535946
0.0555233
0.00670199
0.138282
0.026215
0.161113
0.10207
0.00134836
0.1325
0.0337295
0.00674725
0.0014354
0.15674
0.0841046
0.00432387
0.146636
0.0867219
0.101914
0.00298776
0.104023
0.00509505
0.0494647
0.00171793
0.0597766
0.0116723
0.118572
0.163245
0.143498
0.162476
0.168987
0.00214518
0.0514386
0.12855
0.0793037
0.137445
0.130585
0.00882486
0.0435135
0.00241978
0.0216012
0.00692793
0.00804827
0.0246656
0.00129821
0.0612729
0.00937935
0.0912121
0.00123473
0.136928
0.0454248
0.163052
0.134115
0.049782
0.153539
0.139128
0.136515
0.0829837
0.0177795
0.136876
0.0520996
0.00719886
0.0045344
0.00396844
0.00688473
0.0892475
0.118172
0.108966
0.0042065
0.10776
0.00112584
0.121036
0.144386
0.157282
0.0782051
0.126662
0.149108
0.108826
0.0145728
0.129524
0.00142859
0.0830582
0.122502
0.00176329
0.0868291
0.103848
0.118082
0.00166404
0.0180411
0.156383
0.137221
0.148471
0.125333
0.00296744
0.132965
0.0273982
0.0368777
0.0615036
0.146621
0.139693
0.0246648
0.0864309
0.0274731
0.0014587
0.0948186
0.121454
0.0801247
0.0918492
0.136079
0.00541103
0.0121048
0.0241136
0.00149003
0.00175689
0.0883135
0.00533693
0.139967
0.00146276
0.133585
0.00791223
0.012695
0.0176962
0.0361891
0.0107621
0.0164466
0.00272246
0.165279
0.102067
0.159215
0.08384
0.012299
0.0642467
0.0483886
0.0127086
0.000786958
0.140768
0.0183949
0.00136506
0.175244
0.12316
0.0773567
0.00264798
0.0394036
0.165145
0.0161093
0.0692973
0.124846
0.0603589
0.0384942
0.0848381
0.111462
0.164403
0.14346
0.11323
0.0960949
0.00143094
0.0475481
0.0470394
0.12846
0.00138778
0.139102
0.155436
0.037592
0.0451562
0.0271554
0.159689
0.0048695
0.118745
0.095941
0.00850815
0.0965489
0.182869
0.00834341
0.00467722
0.00735357
0.00707689
0.139417
0.00749464
0.00189419
0.17924
0.00666239
0.105639
0.0135241
0.0102545
0.111839
0.0218283
0.130393
0.0238003
0.0425237
0.0535645
0.00563088
0.0152744
0.0115928
0.00581118
0.106024
0.00523203
0.040858
0.0769736
0.096327
0.13525
0.155769
0.135882
0.0276801
0.00271195
0.130856
0.050023
0.0269358
0.0606336
0.0580653
0.0142751
0.00603489
0.0877301
0.132914
0.0289401
0.113299
0.0480512
0.00135869
0.0496932
0.0959128
0.0234027
0.142559
0.0494255
0.00195285
0.00132132
0.060723
0.0147283
0.0400437
0.00106748
0.0254181
0.0251251
0.00343377
0.127208
0.00788374
0.00293627
0.00426319
0.108523
0.0519354
0.145603
0.10261
0.144653
0.066425
0.0925589
0.00284642
0.134914
0.0124476
0.141951
0.00808933
0.0044794
0.0478798
0.00672876
0.0246413
0.0906362
0.00637714
0.0527578
0.0480971
0.0902768
0.00142551
0.00939869
0.00113753
0.0262972
0.0052619
0.01309
0.153264
0.0717018
0.0154105
0.146621
0.0879551
0.0104187
0.0659544
0.0355871
0.0336618
0.0402976
0.0426498
0.0089839
0.0109156
0.105725
0.0110535
0.0515117
0.07509
0.110786
0.133424
0.00275229
0.00518155
0.141748
0.0147318
0.154432
0.0852154
0.00121648
0.0576856
0.138723
0.134838
0.0793194
0.151354
0.0474167
0.00277724
0.102847
0.0195335
0.137699
0.156991
0.0068613
0.00283747
0.00554072
0.0509838
0.174278
0.138961
0.052171
0.00708788
0.00185144
0.148249
0.0141882
0.035909
0.0099911
0.0272979
0.153651
0.0364317
0.00543004
0.0934687
0.025185
0.150211
0.13047
0.056294
0.00178244
0.014698
0.14295
0.00461439
0.0107551
0.128549
0.00944561
0.126552
0.13408
0.00527865
0.104453
0.100674
0.0572163
0.00613016
0.0258912
0.0427483
0.142966
0.10269
0.140234
0.090155
0.0181434
0.0184349
0.00113644
0.0248455
0.0219408
0.0137039
0.0135722
0.131577
0.0328318
0.00716467
0.00385054
0.00255093
0.0580267
0.122934
0.00132958
0.114977
0.119458
0.031388
0.0198358
0.0506615
0.142756
0.00323222
0.0192294
0.0533794
0.0875599
0.0115796
0.00326514
0.00136852
0.106798
0.0957773
0.0507297
0.148971
0.138148
0.0148416
0.108691
0.0260925
0.0134017
0.0461246
0.00286425
0.116428
0.0640877
0.0442129
0.148366
0.00352943
0.112292
0.142232
0.0130926
0.00753217
0.012882
0.00404834
0.105012
0.014227
0.122557
0.127305
0.083236
0.162434
0.0525145
0.0038125
0.0479693
0.012491
0.0970898
0.134759
0.0686993
0.150531
0.135799
0.00143764
0.157479
0.0466136
0.00699997
0.150424
0.00930265
0.0104423
0.0137394
0.0736316
0.115475
0.121122
0.135548
0.151027
0.0476397
0.109376
0.129547
0.139472
0.126253
0.0372305
0.0981096
0.00293117
0.0123513
0.141094
0.114996
0.126294
0.0128526
0.133324
0.0245685
0.103715
0.154497
0.131624
0.0114398
0.0584596
0.00361623
0.128069
0.156822
0.0275127
0.159193
0.147758
0.00177481
0.0810521
0.132597
0.0140743
0.00987907
0.00102639
0.155026
0.0225271
0.014552
0.132282
0.144609
0.00433143
0.0960381
0.180545
0.011739
0.126572
0.00181005
0.157798
0.115291
0.0807669
0.131028
0.00238051
0.133785
0.146393
0.00744329
0.0880629
0.130479
0.147764
0.125399
0.00981564
0.0597268
0.0938071
0.150768
0.0179463
0.0860879
0.147775
0.145888
0.0445594
0.12975
0.0233699
0.102798
0.135998
0.0577689
0.157388
0.0521125
0.0752732
0.0356854
0.133374
0.00643826
0.0898107
0.0346147
0.141064
0.0432908
0.106493
0.157392
0.0245585
0.0651726
0.0211395
0.0105475
0.128309
0.00151108
0.00292608
0.00625871
0.00233464
0.092143
0.0789494
0.0213417
0.00840414
0.11961
0.0013535
0.140124
0.00466668
0.0834713
0.0196836
0.00656316
0.0314151
0.0144319
0.140837
0.00944909
0.120254
0.124793
0.0179984
0.00190715
0.00160994
0.047683
0.0878557
0.0178587
0.141433
0.00688258
0.152387
0.0408986
0.145327
0.121157
0.00142741
0.119525
0.0131643
0.0733712
0.0207331
0.0114583
0.0749247
0.137652
0.0027943
0.128115
0.0915211
0.0461662
0.136546
0.00692252
0.0633516
0.0174345
0.00147784
0.0929708
0.0227927
0.0659376
0.117607
0.0135112
0.126323
0.140649
0.0132155
0.125707
0.134364
0.027455
0.0746632
0.00559573
0.0479241
0.137656
0.114568
0.152904
0.128608
0.114295
0.00777138
0.080297
0.100994
0.12817
0.110917
0.0864353
0.0693656
0.00268813
0.139684
0.0247869
0.048275
0.127761
0.00338977
0.0783172
0.14385
0.00146342
0.00611709
0.00177606
0.12313
0.00219808
0.0267188
0.0830471
0.00142038
0.0801573
0.064395
0.00519662
0.055836
0.0363966
0.00145703
0.0404956
0.00835674
0.0737339
0.00278135
0.0917447
0.114001
0.108494
0.00143833
0.0876364
0.147797
0.0887229
0.0794843
0.130153
0.117593
0.0149013
0.0294257
0.103296
0.0345019
0.00139688
0.0494288
0.0105475
0.0106638
0.137821
0.00710291
0.025413
0.0609279
0.00369771
0.158276
0.00754123
0.00120217
0.129714
0.00125207
0.119526
0.00237443
0.00709814
0.0379742
0.072468
0.113258
0.0822887
0.10395
0.0339691
0.140016
0.0763281
0.00151841
0.0141345
0.00301038
0.105877
0.0199732
0.00176926
0.107828
0.0847933
0.00270494
0.0999138
0.104597
0.00400548
0.00857453
0.0113497
0.0839529
0.00363926
0.0265586
0.062203
0.00180175
0.00453615
0.108014
0.147062
0.00595012
0.0129584
0.0134334
0.0750394
0.0186586
0.0143371
0.0246279
0.0796987
0.132488
0.0357659
0.00147099
0.0317127
0.101
0.0960686
0.0480581
0.130839
0.00166553
0.0211521
0.119144
0.0103286
0.136122
0.145518
0.0152543
0.0112173
0.0874287
0.00249039
0.105856
0.00177586
0.133054
0.00144236
0.00333003
0.0041806
0.154139
0.0288549
0.0369747
0.0293388
0.0116313
0.00740302
0.00195737
0.0253021
0.145755
0.0270425
0.130405
0.00589139
0.0013419
0.16277
0.149452
0.0444434
0.0105488
0.0285547
0.155674
0.0178283
0.0110187
0.13836
0.133815
0.0469406
0.00162108
0.0671168
0.131856
0.00256626
0.0177073
0.0414312
0.00443783
0.110073
0.032895
0.0025801
0.15202
0.023479
0.0144942
0.00797496
0.00812283
0.00243482
0.0709835
0.0536828
0.0260528
0.120984
0.00443006
0.0102636
0.0142916
0.00581186
0.0167834
0.0830259
0.0085785
0.00269627
0.0245299
0.00519037
0.132058
0.0542698
0.072313
0.124321
0.00351765
0.0250826
0.152862
0.0389813
0.00386498
0.114366
0.104615
0.00194034
0.125404
0.0728511
0.151503
0.058037
0.00979675
0.0707327
0.00509196
0.0128964
0.010869
0.0568855
0.0133598
0.0692851
0.0498178
0.0367851
0.0830484
0.0585653
0.15365
0.137454
0.00169894
0.00534609
0.0351783
0.00546368
0.104055
0.0690907
0.0388901
0.134977
0.133299
0.0177108
0.023178
0.00151625
0.0131147
0.00707152
0.0733616
0.00830197
0.0985211
0.00286811
0.146472
0.00394566
0.00778581
0.138513
0.011145
0.00129633
0.0427772
0.121524
0.135631
0.0268538
0.00670364
0.137448
0.0480594
0.128287
0.158671
0.00312773
0.126138
0.0237676
0.122026
0.18077
0.00429074
0.0153861
0.0610867
0.00470305
0.0491279
0.00196402
0.0555019
0.139579
0.0486841
0.0013611
0.0721432
0.00838721
0.043982
0.0026544
0.111677
0.10343
0.0577122
0.00378577
0.103461
0.139451
0.145157
0.00426132
0.00153648
0.0104774
0.106063
0.0559901
0.118777
0.00138628
0.13943
0.00362863
0.00753447
0.106912
0.00911386
0.0478274
0.153163
0.0330491
0.114363
0.0226974
0.0260748
0.0152194
0.0571694
0.066683
0.111823
0.00177317
0.141308
0.171029
0.0024632
0.0487744
0.107501
0.0230917
0.127894
0.138155
0.101778
0.0278264
0.030034
0.152453
0.154026
0.0277015
0.0504158
0.0100169
0.0158496
0.134009
0.156687
0.154229
0.0742897
0.0541087
0.00884112
0.00141657
0.00274035
0.119962
0.13609
0.027771
0.00314294
0.0850991
0.133466
0.00243447
0.00302109
0.123304
0.0332837
0.0474819
0.0872785
0.00168013
0.113645
0.12456
0.0157886
0.00510575
0.0597237
0.0297275
0.0528328
0.00420661
0.00373129
0.135743
0.00399725
0.0609452
0.103825
0.00596657
0.00811253
0.0267877
0.0551405
0.0258115
0.0630188
0.136923
0.0382597
0.0655856
0.0419031
0.0270128
0.134683
0.0219004
0.00336838
0.0107808
0.139746
0.011603
0.00845568
0.0142703
0.134294
0.0557509
0.149822
0.00300065
0.0470952
0.108448
0.00919931
0.00492933
0.157196
0.00130186
0.0253662
0.081446
0.0103848
0.100331
0.100863
0.131328
0.15182
0.100059
0.120593
0.00213807
0.152916
0.130758
0.00714354
0.0220305
0.0578744
0.00438196
0.0756285
0.103879
0.0430144
0.0488283
0.146855
0.156447
0.00328429
0.0540011
0.053738
0.112841
0.0680626
0.00293769
0.00910631
0.0027467
0.148954
0.0420254
0.0802917
0.0830739
0.134135
0.133627
0.00379671
0.00681698
0.0312094
0.110818
0.103141
0.00799664
0.0499038
0.0678522
0.0765501
0.00142538
0.0191862
0.00102125
0.085114
0.153984
0.0650157
0.104402
0.086076
0.0100469
0.11518
0.00711356
0.00168555
0.0256687
0.00126349
0.099128
0.159191
0.0144453
0.13292
0.0110509
0.15438
0.133509
0.15258
0.00270973
0.15217
0.0467613
0.0868511
0.00735368
0.0358682
0.037966
0.0075018
0.00226514
0.117386
0.150065
0.131494
0.00266157
0.0771528
0.0730537
0.0549786
0.139817
0.00930016
0.125248
0.147478
0.0378423
0.0721187
0.0119837
0.00165046
0.00175849
0.02206
0.169467
0.0173083
0.0356884
0.0134545
0.126689
0.00438247
0.0056198
0.0679635
0.0812944
0.15535
0.0137993
0.0699246
0.00307984
0.00639576
0.0230493
0.0033588
0.00613667
0.00491819
0.00236293
0.0955798
0.00274186
0.0412578
0.00144139
0.00327294
0.00275771
0.00218082
0.145572
0.0136988
0.131273
0.101247
0.00117867
0.0765341
0.0740956
0.0161951
0.0435475
0.0143274
0.00307759
0.00274002
0.00531267
0.02235
0.0258736
0.0485817
0.102194
0.0617372
0.010702
0.00631021
0.00799778
0.0187411
0.156126
0.137723
0.0966144
0.00346335
0.0521815
0.0803104
0.0270202
0.020383
0.0141584
0.0283885
0.0595809
0.00292164
0.0227318
0.0134655
0.0828866
0.0163894
0.010338
0.126253
0.0293857
0.137327
0.00629957
0.0153369
0.110025
0.0138727
0.00169689
0.131727
0.0361887
0.140777
0.00508381
0.0666811
0.115047
0.154342
0.0117465
0.00393522
0.158566
0.00700237
0.00328696
0.139495
0.0522508
0.0131154
0.00135228
0.0214231
0.00132988
0.0673463
0.124371
0.0962751
0.0021407
0.0129926
0.134981
0.00171275
0.0789996
0.0499436
0.0268793
0.00298401
0.0495529
0.00954024
0.0225904
0.0353066
0.00336442
0.11118
0.107719
0.0716519
0.012869
0.0865463
0.0496759
0.153326
0.131626
0.00259642
0.0440513
0.00142035
0.153551
0.00161023
0.00135765
0.071798
0.0530634
0.0210456
0.0246539
0.00365647
0.0103534
0.00170778
0.00308456
0.0264731
0.110589
0.002723
0.00138756
0.0686934
0.00337931
0.0744901
0.106186
0.0737458
0.0574756
0.145099
0.0131562
0.00129862
0.0448828
0.15364
0.00323094
0.00268196
0.00741683
0.00224
0.0648494
0.00205304
0.00767848
0.0055072
0.146315
0.102932
0.00737206
0.00132342
0.0899101
0.0043996
0.00182567
0.0950879
0.0643441
0.124915
0.0174643
0.0673307
0.0103433
0.00263952
0.140869
0.0930877
0.137717
0.0427885
0.00485861
0.00199039
0.0339266
0.00257425
0.011524
0.0928452
0.155168
0.0155194
0.151687
0.00320756
0.0029785
0.0081221
0.0107058
0.00155791
0.104811
0.00275948
0.00150573
0.00980998
0.00258852
0.155216
0.0501855
0.0372607
0.026479
0.00244808
0.0106699
0.0511547
0.0226021
0.138021
0.00146194
0.108248
0.151372
0.00179165
0.00191035
0.0585076
0.028241
0.0110189
0.110321
0.105351
0.0109558
0.110215
0.00282178
0.158192
0.00235118
0.115032
0.0201422
0.0053203
0.111257
0.147292
0.0121343
0.0105885
0.101104
0.0497335
0.00847548
0.00363047
0.00214903
0.00718066
0.0288494
0.154456
0.139518
0.0170032
0.120569
0.0450715
0.135972
0.152052
0.00145097
0.0267353
0.00969492
0.0232776
0.0864313
0.129386
0.118072
0.0427594
0.0359232
0.00639555
0.0237725
0.00721145
0.000879601
0.0213079
0.00790806
0.00589688
0.00219634
0.00659036
0.154832
0.0203762
0.0168406
0.0275161
0.00713871
0.139223
0.0432466
0.00670179
0.00144447
0.0272699
0.00579159
0.0074752
0.00549851
0.00521028
0.0325864
0.00479843
0.00448459
0.00423164
0.00402274
0.00469411
0.00687545
0.0904234
0.128119
0.0144789
0.00573969
0.111238
0.00725375
0.00214299
0.0106231
0.00179134
0.153674
0.132355
0.121941
0.00291688
0.0373196
0.0524797
0.00588832
0.00634576
0.0545119
0.0772589
0.0453102
0.0233812
0.0019377
0.155298
0.0231854
0.00453695
0.00149583
0.00600165
0.00197283
0.00862569
0.130783
0.00206051
0.12541
0.00208955
0.00147193
0.0507307
0.0149917
0.0120594
0.0622922
0.130293
0.0253401
0.0411
0.139345
0.130113
0.00804108
0.00305323
0.0122763
0.0599835
0.00341891
0.00776003
0.00178358
0.00157458
0.0652407
0.103765
0.0410413
0.172752
0.00193782
0.0529442
0.0029654
0.00619358
0.00330704
0.108045
0.141767
0.14088
0.00144563
0.136975
0.00228019
0.122777
0.00213099
0.0375283
0.0598518
0.0836752
0.142066
0.00581622
0.113044
0.145564
0.0545302
0.035612
0.00352482
0.00132149
0.0108078
0.00165237
0.175961
0.146331
0.0217682
0.0126921
0.00196381
0.00589237
0.0129862
0.0034527
0.00522386
0.00317784
0.170876
0.132591
0.138898
0.143236
0.00433675
0.0423352
0.124619
0.0249808
0.00410233
0.113052
0.105024
0.0304755
0.001416
0.105704
0.0349501
0.151204
0.00154739
0.120095
0.0720469
0.00458105
0.00568188
0.00345603
0.15108
0.0122765
0.010669
0.00389461
0.00305679
0.112275
0.00441002
0.0716218
0.106992
0.0177381
0.0538116
0.0113494
0.0776184
0.013661
0.0147826
0.00770096
0.00142831
0.00232851
0.00231606
0.128031
0.011106
0.106828
0.00429336
0.110732
0.0117611
0.0675786
0.012111
0.153143
0.113139
0.156083
0.0241251
0.00149836
0.00420213
0.0638911
0.0271413
0.00501903
0.153145
0.105218
0.00243369
0.0187648
0.0111881
0.00344942
0.129657
0.00129718
0.152915
0.0028054
0.00168483
0.0526712
0.0234796
0.0161566
0.00547382
0.00601759
0.002137
0.0493985
0.0420617
0.00325294
0.0512732
0.00719504
0.0325071
0.00510066
0.0113524
0.00287688
0.0175632
0.038714
0.0388912
0.00153585
0.0106828
0.00329348
0.00113741
0.105486
0.151769
0.0015013
0.0021522
0.0942587
0.0447145
0.0217562
0.0577743
0.00267698
0.0417265
0.00145249
0.029084
0.00143635
0.0110728
0.0611366
0.0436779
0.00725361
0.00549817
0.155774
0.00579677
0.152863
0.0230428
0.063284
0.154752
0.0988116
0.0770249
0.00203814
0.00268502
0.147356
0.00241519
0.0438673
0.0976469
0.0909333
0.125222
0.0520719
0.0030898
0.0018011
0.139267
0.0260086
0.00733193
0.00867343
0.00395883
0.00601068
0.0276877
0.0159886
0.119197
0.155611
0.0459911
0.00194847
0.14081
0.0025136
0.00338305
0.0105791
0.00278226
0.00140842
0.132011
0.00142007
0.0117063
0.00832879
0.0709882
0.110371
0.0872662
0.00372524
0.0661426
0.070104
0.119724
0.00241207
0.00423251
0.00788101
0.00380361
0.0038448
0.00231549
0.0750048
0.0969547
0.00742469
0.0401471
0.0550517
0.0525747
0.0285927
0.111657
0.107517
0.0425809
0.027006
0.0376612
0.0341667
0.147098
0.0611122
0.00487163
0.0368702
0.00224651
0.0385485
0.0988562
0.00559629
0.00946865
0.124938
0.112213
0.0267456
0.0282457
0.00139719
0.0266137
0.00997725
0.0957078
0.104916
0.0253221
0.00202479
0.0071611
0.0359103
0.148837
0.00174308
0.0616239
0.108956
0.00657474
0.0194569
0.00782876
0.00148722
0.00639049
0.0262058
0.0249085
0.00140424
0.0916429
0.0604574
0.0136513
0.153386
0.00764822
0.00942957
0.00530494
0.0318864
0.063149
0.0186308
0.00352653
0.0071116
0.0644962
0.00540463
0.00530816
0.0102241
0.0576901
0.0601857
0.00842587
0.0109246
0.00278521
0.112375
0.0626228
0.00919577
0.055247
0.00897259
0.00733554
0.0667744
0.00882483
0.153444
0.00989198
0.0557975
0.0703546
0.0984469
0.115733
0.00204895
0.00351198
0.0465583
0.0248309
0.00496805
0.0585099
0.101247
0.014566
0.00217512
0.00748768
0.00152574
0.0151618
0.0138759
0.00322958
0.00466467
0.0141974
0.097143
0.00561221
0.0951513
0.0671507
0.00518455
0.00435791
0.0462572
0.0271824
0.0201596
0.0292272
0.0277251
0.00413202
0.114093
0.0015316
0.022797
0.134911
0.134358
0.134838
0.0458639
0.0444723
0.127922
0.0237725
0.0665351
0.0485534
0.152733
0.00636434
0.0429176
0.0105718
0.0269417
0.155673
0.132825
0.00950314
0.0946177
0.00305011
0.0685254
0.0705151
0.0136505
0.0110099
0.0614963
0.0635558
0.0114294
0.0263607
0.0125713
0.0107176
0.104662
0.00214149
0.0252663
0.0432151
0.0181817
0.00191438
0.132805
0.0113885
0.145686
0.0240827
0.107679
0.033217
0.0910838
0.0687486
0.0896801
0.0107423
0.00127879
0.0123993
0.0709067
0.0280038
0.00142312
0.0326429
0.00378242
0.00574217
0.0756569
0.013684
0.0732631
0.00364541
0.0276707
0.0279863
0.00136925
0.136672
0.0430979
0.057877
0.0135764
0.0422777
0.0069414
0.00179188
0.0760462
0.0886728
0.0632626
0.00182917
0.0496192
0.0387209
0.00989598
0.00157534
0.11613
0.0224687
0.00821804
0.0141346
0.145897
0.0128824
0.140085
0.0353106
0.1111
0.050144
0.00494216
0.0068971
0.113166
0.0451612
0.00477338
0.0711139
0.0556208
0.0194382
0.0552143
0.0772595
0.024569
0.0523431
0.0529846
0.111977
0.00761644
0.00486281
0.00388489
0.114354
0.00783499
0.00139547
0.00102496
0.153384
0.0734631
0.0196789
0.0062456
0.0527857
0.11279
0.0903835
0.134636
0.0538768
0.018599
0.1432
0.00744393
0.0370955
0.125687
0.0468956
0.00768251
0.0131086
0.00475515
0.0444246
0.0294586
0.00137561
0.0430299
0.0221116
0.00132674
0.00143868
0.00517246
0.00832969
0.00367504
0.104879
0.141545
0.0471133
0.00338155
0.101253
0.11858
0.00273393
0.134916
0.152592
0.00791444
0.0443229
0.00122056
0.0163087
0.015152
0.0360661
0.0135827
0.0441187
0.0256115
0.0372814
0.127352
0.0232128
0.00143148
0.0795623
0.0969054
0.0222247
0.00142815
0.0454781
0.0456376
0.00187658
0.135423
0.0352065
0.00780582
0.133481
0.0019141
0.0235273
0.0513395
0.0150408
0.0068171
0.00326287
0.0264194
0.0115445
0.0137232
0.00949823
0.00826435
0.0739111
0.0141173
0.00606114
0.0421697
0.0100027
0.0508871
0.0283032
0.00166411
0.136219
0.0103005
0.00982527
0.0828082
0.014627
0.022105
0.0380237
0.0246392
0.00556817
0.0373518
0.0143736
0.0463131
0.00783688
0.105405
0.00142226
0.0121078
0.121349
0.0467491
0.116427
0.136455
0.133237
0.0780695
0.0727439
0.022656
0.0240355
0.0593473
0.147979
0.14863
0.147119
0.00765309
0.136815
0.0620965
0.0398743
0.039911
0.0184064
0.101952
0.0288228
0.0255098
0.0362915
0.049485
0.0605935
0.00487307
0.081057
0.0116308
0.0218775
0.00550972
0.0182111
0.0813555
0.00795531
0.013554
0.0014017
0.00172526
0.0232041
0.0502371
0.0258001
0.0151077
0.00968082
0.152626
0.121719
0.0120923
0.153156
0.0403727
0.0547132
0.040526
0.0474434
0.0108484
0.0387237
0.0508044
0.114743
0.15744
0.00452731
0.0357561
0.0882113
0.00587502
0.0076317
0.105135
0.0186973
0.102925
0.06061
0.0766361
0.0445293
0.0745811
0.103338
0.0858242
0.0729486
0.00378921
0.127214
0.105029
0.0814477
0.043407
0.00376277
0.0017663
0.0421308
0.0374985
0.00138751
0.0774092
0.100342
0.0877769
0.0151918
0.137639
0.063117
0.0665247
0.00952546
0.0806849
0.0208751
0.0629904
0.036103
0.00149102
0.101102
0.0414166
0.00997893
0.0195248
0.0183541
0.118315
0.0549349
0.022143
0.028355
0.0272414
0.0375555
0.0123726
0.00775119
0.138886
0.00892685
0.0530844
0.131336
0.0458623
0.00217106
0.104175
0.135009
0.0283758
0.0672995
0.0419198
0.101527
0.0479955
0.027045
0.0555122
0.0390023
0.0174466
0.0369827
0.152505
0.00311704
0.00320376
0.0735399
0.0992787
0.00619067
0.140317
0.0512183
0.0687186
0.0073235
0.167553
0.145334
0.0205571
0.0409908
0.00268989
0.0628243
0.148956
0.0265899
0.135803
0.00174215
0.066038
0.0416037
0.0458913
0.013611
0.00926133
0.0255227
0.0526016
0.00956762
0.0742641
0.138046
0.0298459
0.0465229
0.0255772
0.09761
0.0629247
0.0438135
0.0812505
0.0127419
0.00808013
0.00211851
0.0781353
0.0438328
0.126819
0.00297283
0.00196335
0.0676592
0.0773717
0.0259933
0.0229706
0.0067667
0.0666162
0.0232103
0.021642
0.0140472
0.14616
0.00811408
0.0110942
0.0484487
0.0477775
0.0587593
0.0133053
0.0519861
0.15106
0.0229761
0.0125673
0.153527
0.0464294
0.00977327
0.152033
0.0728949
0.0558414
0.0204552