/*--------------------------------*- C++ -*----------------------------------*\
| =========                 |                                                 |
| \\      /  F ield         | OpenFOAM: The Open Source CFD Toolbox           |
|  \\    /   O peration     | Version:  v2012                                 |
|   \\  /    A nd           | Website:  www.openfoam.com                      |
|    \\/     M anipulation  |                                                 |
\*---------------------------------------------------------------------------*/
FoamFile
{
    version     2.0;
    format      ascii;
    class       volScalarField;
    location    "200";
    object      nut;
}
// * * * * * * * * * * * * * * * * * * * * * * * * * * * * * * * * * * * * * //

dimensions      [0 2 -1 0 0 0 0];


internalField   nonuniform List<scalar> 
13917
(
0.00164395
0.00541637
0.00123194
0.00529699
0.00598989
0.00565616
0.00332346
0.00231944
0.00288172
0.000348418
0.00263185
0.00678128
0.00428371
0.00276649
0.00592556
0.00115031
0.00728479
0.00224008
0.00203769
0.000855165
0.00270601
0.00680198
0.00271178
0.00680275
0.00471215
0.0025021
0.000216904
0.000160255
0.00208566
0.00705434
0.000165061
0.0032551
0.00605294
0.0047525
0.00685528
0.00277224
0.00462311
0.00699732
0.00303945
0.00274602
0.00733333
0.00688409
0.00302159
0.00212342
0.00214215
0.00123665
0.00281937
0.00200476
0.00997957
0.00685463
0.00677549
0.00202991
0.000335531
0.00677568
0.00678643
0.00202034
1.23962e-05
0.00294331
0.00687092
0.00125704
0.00360008
0.00690835
0.00739024
0.0046473
0.000657367
0.00531028
0.00212219
0.0029346
0.00225194
0.00168316
0.000567498
0.00445332
0.00676705
0.00688346
0.00258089
0.00436608
0.0068049
0.00688184
0.00453079
0.00660621
0.00684343
0.00720139
0.00676383
0.000769895
0.00670416
0.00199446
0.00325496
0.00675059
0.00257474
0.00717238
0.00681648
0.00296418
0.0104559
0.00684425
0.00683817
0.00205837
0.00140554
0.00712369
0.00673998
0.0022059
0.00744396
0.00742024
0.00684593
0.00685837
0.00680358
0.000709113
0.00411317
0.00685631
0.00685414
0.00166494
0.00672245
0.00482223
0.002118
0.00315252
0.000409304
0.00383033
0.00216248
0.00689226
0.00138599
0.00674802
0.00714709
0.00690817
0.00205462
0.00246415
0.00203191
0.000170495
0.00486917
0.00247354
0.00677176
0.0024272
0.00271917
0.00149739
0.00341275
0.00431743
0.00282066
0.00146673
0.0043212
0.00232014
0.00234276
0.00698866
0.0162008
0.00690297
0.000787757
0.00672233
0.00675442
0.00668568
0.000639439
0.0163574
0.00153543
0.0067815
0.00271963
0.00740866
0.00675027
0.00674907
0.00016852
0.00685569
0.00685028
0.00411016
0.00732425
0.00704515
0.00670644
0.0026956
0.00423722
0.0175203
0.00401254
0.00180651
9.45381e-05
0.00288947
0.0068014
0.0022281
0.0068226
0.00338207
0.00295854
0.00385893
0.00246675
0.00735636
0.00538681
0.00185828
0.0027908
0.00407627
0.00310861
0.00680938
0.00677633
0.00135492
0.00136639
0.00150267
0.00677147
0.00136708
0.00705431
0.00194086
0.00268931
0.0022989
0.00169
0.00175236
0.00683858
0.00212142
0.00367569
0.00246726
0.00685056
0.00685059
0.00290877
0.0017361
0.00170222
0.0052001
0.000407052
0.0031024
0.00264261
0.00690242
0.00188934
0.00684542
0.00673392
0.00576064
0.00529971
0.00160907
0.00289431
0.00240746
0.00340491
0.00688614
0.00683264
0.00683306
0.00319158
0.00153099
0.00122682
0.00670845
0.00740287
0.00385326
0.00166571
0.00680248
0.00679511
0.00730645
0.0068491
0.00684929
0.00397324
0.00159793
0.00681593
0.00688288
0.00281571
0.00407683
0.00731773
0.00670854
0.000308813
0.000713485
0.00145536
0.00361711
0.00246371
0.00672278
0.00224059
0.00257487
0.00223642
0.00295609
0.0054065
0.00139975
0.00675168
0.00316148
0.00265141
0.0068293
0.00730992
0.00469905
0.00662602
0.0068702
0.00379042
0.0193991
0.00691145
0.00678249
0.0068624
0.00678451
0.00675226
0.00687851
0.00284116
0.00691855
0.00357892
0.00428495
0.00674298
0.00678153
0.0010509
0.00688071
0.00201401
0.00466405
0.0068782
0.00262422
0.00686929
0.0024175
0.00735325
0.00571376
0.00683864
0.00672326
0.00160958
0.00698636
0.00139487
0.00322641
0.021615
0.00672615
0.00100377
0.00216192
0.00701765
0.00289709
0.00659305
0.00402385
0.00653952
0.00455794
0.00685732
0.00692408
0.00189126
0.00527824
0.00287399
0.00480682
0.00670818
0.00357577
0.000981232
0.00677195
0.00605962
0.00419799
0.00445777
0.00183624
0.00452549
0.0042246
0.00570374
0.00173548
0.00678829
0.00078142
0.0040375
0.00123162
0.00685786
0.00581017
0.000382701
0.00684508
0.00493865
0.00232561
0.00724304
0.00325545
0.00671016
0.00233797
0.0069685
0.000262439
0.00670857
0.00296027
0.00270672
0.00589648
0.00715493
0.00294427
0.000819666
0.00683104
0.0068455
0.00491725
0.000806408
0.00163722
0.00186631
0.00686154
0.00680841
0.000650164
0.00171712
0.00685938
0.00655269
0.00677399
0.00191742
0.00289484
0.0020631
0.00259596
0.00217615
0.00236514
0.0039892
0.00677516
0.00682905
0.00590088
0.00140611
0.0072786
0.0013536
0.00287684
0.0155563
0.00679312
0.0020297
0.0061272
0.00675148
0.00679456
0.00121793
0.0010535
0.00248313
0.00674653
0.000883648
0.00697135
0.00399076
0.00157719
0.00678678
0.0074701
0.00686043
0.0110703
0.00678523
0.00121809
0.0113786
0.00459251
0.00445009
0.00202751
0.00577201
0.00394016
0.00122557
0.00512418
0.00157533
0.0067935
0.00184127
0.00124693
0.00671286
0.00328426
0.00481032
0.00671913
0.00670263
0.00677672
0.00627111
0.00179892
0.00681164
0.00679175
0.00678076
0.00307659
0.00268785
0.00693718
0.0067967
0.00186412
0.00206431
0.00672604
0.0055046
0.00288315
0.00127653
0.00607363
0.00193475
0.000853236
0.00691237
0.00691809
0.00291806
0.00670232
0.00693174
0.00682465
0.00691568
0.00691259
0.00195509
0.0067993
0.00265108
0.00416774
0.00269657
0.00673483
0.00674737
0.00369871
0.00298159
0.00150162
0.00696118
0.00671293
0.0069754
0.00686552
0.00464839
0.00686638
0.00247083
0.00627949
0.00071875
0.00671254
0.00315707
0.00574034
0.00684044
0.00251097
0.00147792
0.0067689
0.00599511
0.00673455
0.00674861
0.0067765
0.00685869
0.00673067
0.00680539
0.00387593
0.00336544
0.00673019
0.000996294
0.00189688
0.00677047
0.00280117
0.00277159
0.00436087
0.00294995
0.000802285
0.0157413
0.0166003
0.00686271
0.00561478
0.00541841
0.00557874
0.000644135
0.00685555
0.00676834
0.00683544
0.00337189
0.00270261
0.0014983
0.00309361
0.00710037
0.00671451
0.00208698
0.00272877
0.00681244
0.00511428
0.00342956
0.00320597
0.0040904
0.00670492
0.00266712
0.00169044
0.00670498
0.00543566
0.00675836
0.00686666
0.00272952
0.00695522
0.00684456
0.00193475
0.00433765
0.010489
0.0067057
0.00479459
0.00669302
0.000687394
0.000347372
0.00679957
0.00678077
0.00670413
0.00287015
0.0133432
0.00679124
0.00730051
0.00684256
0.00671593
0.00672535
0.0032258
0.00694685
0.00318457
0.00670588
0.00678405
0.00492734
0.00457302
0.0067359
0.00389622
0.00686486
0.00281278
0.00294961
0.00179348
0.00289756
0.00206544
0.00476539
0.00211135
0.00195498
0.0021337
0.00505894
0.00677312
0.00677255
0.00739387
0.00672699
0.000625082
0.00689412
0.0178539
0.0034927
0.000560718
0.00243258
0.00338803
0.000750752
0.00673191
0.00244643
0.00703562
0.00684294
0.00114482
0.00694467
0.00126111
0.00743027
0.00681386
0.00677698
0.00154033
0.00669899
0.00675749
0.00210007
0.00351952
0.0165803
0.000915029
0.00304195
0.00435296
0.0067361
0.00171397
0.00706727
0.00380021
0.0148856
0.00677794
0.00595569
0.00745801
0.00298027
0.00321826
0.00694196
0.00702895
0.0068831
0.000871398
0.00670893
0.0034323
0.00676307
0.00675281
0.00727756
0.0014019
0.000541064
0.000743942
0.00314198
0.0032481
0.000906107
0.00434544
0.00679489
0.000380849
0.00687016
0.00226499
0.00672678
0.000883576
0.00671459
0.00670847
0.00675831
0.0164782
0.0030898
0.00117083
0.00690808
0.00292158
0.00683884
0.00744283
0.00425646
0.00192408
0.00685948
0.00190621
0.00670807
0.00690457
0.00740264
0.00466655
0.00670928
0.00660449
0.00689774
0.00685216
0.0014093
0.00738837
0.00203253
0.00718789
0.0067071
0.00423851
0.00341563
0.00679152
0.000311679
0.00128421
0.00308958
0.00166983
0.0067314
0.00571008
0.00424046
0.00119665
0.00304584
0.00489114
0.0066829
0.00712237
0.00676216
0.00645534
0.00277629
0.00392127
0.00301578
0.00284674
0.00206405
0.000254522
0.00537065
0.00294348
0.00172882
0.0031844
0.00685182
0.00612385
0.00594711
0.00670621
0.0069082
0.00730912
0.00729589
0.00684962
0.00176999
0.00246112
0.00678305
0.00247975
0.0068951
0.00455681
0.00687576
0.00677535
0.00492988
0.00305706
0.0158235
0.0067788
0.00681956
0.00679096
0.00559239
0.00305873
0.00672632
0.00179972
0.00313089
0.0128371
0.0155045
0.00617312
0.00288109
0.00483971
0.00696736
0.00684524
0.00491364
0.00793072
0.00360262
0.00177523
0.0174666
0.00670859
0.00677522
0.00479625
0.000823787
0.0156597
0.00316749
0.00569951
0.00367492
0.00220201
0.00683292
0.00207278
0.00241935
0.00683309
0.00513979
0.00699137
0.00302449
0.00671619
0.00116175
0.00391553
0.00667317
0.00185783
0.00685435
0.0174278
0.00478015
0.00482528
0.00360646
0.00123075
0.00716825
0.00281877
0.000216071
0.0145589
0.00672916
0.00406741
0.00689508
0.00671631
0.00675418
0.00437329
0.00609497
0.00142929
0.00202439
0.0067327
0.00108384
0.00282435
0.00298642
0.00185103
0.00681867
0.00284709
0.00145002
0.00673585
0.00292319
0.00271407
0.00264188
0.00673807
0.00672942
0.00676294
0.00123498
0.00567309
0.00688387
0.00246128
0.00672909
0.00674152
0.00213631
0.00141585
0.00402508
0.00137903
0.00200902
0.000618567
0.00675443
0.00659952
0.00101385
0.006788
0.00354693
0.00717073
0.00690654
0.00677641
0.00384565
0.0016728
0.00673886
0.00449693
0.00683409
0.014454
0.00435579
0.00303005
0.00696479
0.0029341
0.00572983
0.0023651
0.00373122
0.00737279
0.00446541
0.00540155
0.00342588
0.0033576
0.00422147
0.00685627
0.00677389
0.00672633
0.0030472
0.0031188
0.00296905
0.000996124
0.00671575
0.00259442
0.00687571
0.00628486
0.0144797
0.0068989
0.00247753
0.00359953
0.00407817
0.00221298
0.0025257
0.00678842
0.00687467
0.00238698
0.00673346
0.006771
0.00536108
0.00676865
0.00239406
0.00678431
0.00175589
0.00683594
0.00154504
0.00331792
0.002356
0.000621713
0.00579906
0.00105324
0.00367542
0.00671295
0.00692445
0.00674534
0.00573827
0.00670472
0.00321917
0.00671489
0.00272266
0.00677698
0.000844005
0.00589631
0.00244945
0.00271995
0.00679159
0.00277334
0.00509217
0.0067614
0.00372379
0.00698824
0.00270578
0.00293393
0.0060787
0.00677581
0.00672
0.00683184
0.00684048
0.00409864
0.00671191
0.00189411
0.00671226
0.0162173
0.00571292
0.00671943
0.00256574
0.00715617
0.00671209
0.0149246
0.000442477
0.00550534
0.00293004
0.00674125
0.00221778
0.00683267
0.00683764
0.0032926
0.00698638
0.00536404
0.00252207
0.00283004
0.00684651
0.0103695
0.000901472
0.00682057
0.00686845
0.0067736
0.00085184
0.00671738
0.00197229
0.00676527
0.00534756
0.00577915
0.00100063
0.00678797
0.00695795
0.0117986
0.0068805
0.00685418
0.000871899
0.00574019
0.00670438
0.0127981
0.00679838
0.00692261
0.00290934
0.00530592
0.000649782
0.0026967
0.00286278
0.00173979
0.00426816
0.0052323
0.00684396
0.00288675
0.00671569
0.00430203
0.0167201
0.00678698
0.00683657
0.00683914
0.00679929
0.0069498
0.00689741
0.00691224
0.00672388
0.0032382
0.00673522
0.00592026
0.00309465
0.00379453
0.00293162
0.00269736
0.00683117
0.0128553
0.00671106
0.0010262
0.0133884
9.1628e-05
0.00687455
0.00671284
0.00674984
0.00676737
0.0068714
0.00694863
0.00671248
0.00294509
0.00670402
0.000532913
0.00999153
0.00671261
0.00266304
0.00671689
0.00677489
0.00666
0.00472961
0.00262614
0.00721365
0.0168173
0.006837
0.00678678
0.00100564
0.00690879
0.000426597
0.00552844
0.00419731
0.00673266
0.00691356
0.00316655
0.000401288
0.00554135
0.00482423
0.00790815
0.00695608
0.00685525
0.00672075
0.00672878
0.00247299
0.00235536
0.00386503
0.00531782
0.000716975
0.00134574
0.00235933
0.00691029
0.00530144
0.00690745
0.00411652
0.00274157
0.00293987
0.0051317
0.00306707
0.013285
0.0008139
0.00682209
0.015484
0.00694399
0.00671524
0.00237126
0.00682937
0.00676157
0.00122347
0.00274079
0.00691491
0.00247162
0.00403114
0.00745434
0.00684967
0.0181132
0.0043837
0.00598004
0.00716754
0.00317199
0.00674484
0.00678654
0.00418993
0.00468331
0.00674138
0.0117585
0.00684187
0.00984651
0.014151
0.0074638
0.00439219
0.00678379
0.00652438
0.0050663
0.00271936
0.00870185
0.00594978
0.00290323
0.00565241
0.00502452
0.00681683
0.002766
0.00696604
0.00685521
0.00309463
0.00672032
0.013831
0.0030189
0.00200966
0.00267845
0.00103312
0.016127
0.00106374
0.0047494
0.0070097
0.00105876
0.0068577
0.00270172
0.00268908
0.013274
0.00368228
0.00682166
0.00362483
0.00262006
0.00577062
0.0042618
0.00302122
0.00268811
0.00402993
0.00690786
0.00228932
0.00490372
0.00677327
0.00671729
0.00800912
0.00697494
0.00673511
0.00537168
0.000809736
0.00670594
0.00565397
0.00349863
0.00683945
0.00675057
0.00269372
0.00283131
0.00685428
0.00677592
0.00167983
0.00406773
0.00563872
0.00485131
0.00678781
0.00671733
0.00843658
0.00687524
0.00547436
0.0044538
0.00470488
0.00489396
0.00282477
0.00402073
0.00118235
0.00195624
0.00299235
0.000741599
0.0067864
0.00240274
0.00429582
0.00134027
0.00799777
0.00389854
0.00691262
0.00678021
0.0068987
0.00675392
0.00679232
0.00114693
0.00696983
0.0029536
0.00674583
0.00264566
0.00406973
0.005016
0.000721366
0.00458975
0.00671867
0.00291826
0.00501266
0.0054814
0.00671743
0.00524384
0.00320354
0.00312691
0.00334784
0.00393082
0.00278062
0.00683164
0.00110032
0.00303447
0.00660504
0.00672191
0.0013176
0.00671789
0.00391591
0.00248686
0.00523078
0.005566
0.00316713
0.000918837
0.00670755
0.00155942
0.00423692
0.0067722
0.00670992
0.0066477
0.000828354
0.00105308
0.00677613
0.00248308
0.00581028
0.00278501
0.00160609
0.00675426
0.00671172
0.00691131
0.00672091
0.00697203
0.00512627
0.000805236
0.00684567
0.00359226
0.00701908
0.00581724
0.00273411
0.00417073
0.003324
0.00678228
0.00681034
0.00670637
0.00607117
0.00259431
0.00155255
0.00560602
0.00263444
0.00305521
0.00302804
0.0034727
0.00749563
0.00394435
0.00216652
0.00683108
0.00203194
0.00681828
0.00677936
0.00677415
0.00480974
0.00303367
0.00549102
0.00380774
0.00199493
0.00678658
0.00107404
0.0069491
0.00670883
0.000410187
0.013002
0.00683289
0.004829
0.00223878
0.00282611
0.00573629
0.00678423
0.00671074
0.00673628
0.00671508
0.00317614
0.00275533
0.00291107
0.00278927
0.0034437
0.00279469
0.00280744
0.006777
0.00261078
0.00127909
0.00126111
0.00415127
0.00629322
0.00678668
0.00455316
0.00672241
0.00834795
0.00482312
0.0025393
0.00680245
0.00672679
0.0010441
0.00358216
0.00669215
0.00671848
0.00395695
0.00100638
0.00427308
0.0068235
0.00677183
0.00476765
0.0070372
0.00690869
0.00214313
0.012229
0.00351735
0.00281045
0.00612488
0.000807154
0.00670704
0.00650835
0.00532212
0.00678097
0.00127105
0.00670764
0.00673552
0.00117372
0.00317877
0.00256018
0.00127392
0.00670473
0.00345502
0.00673997
0.00678664
0.00686156
0.00679896
0.00676346
0.00135798
0.00675386
0.00288714
0.00674033
0.00625576
0.00674761
0.00668474
0.00677081
0.00534895
0.00696943
0.00261261
0.00324136
0.00683388
0.00313507
0.00267891
0.00316944
0.00675132
0.0063215
0.00671604
0.00678349
0.0177079
0.00492853
0.00733212
0.00683629
0.00683865
0.00676586
0.00196165
0.00671908
0.00373347
0.00285328
0.0069216
0.00670753
0.00678292
0.00290603
0.00324132
0.0098176
0.00282213
0.0133323
0.00626753
0.00257053
0.00621316
0.000856769
0.00674646
0.0069574
0.00390629
0.0116328
0.00678365
0.00493518
0.00676905
0.00685875
0.00207191
0.00129686
0.00108407
0.00540762
0.00350866
0.00184153
0.0042384
0.00689854
0.00108489
0.00671685
0.00739349
0.000443272
0.00677245
0.00473054
0.0040077
0.00671133
0.00672654
0.00689828
0.00233481
0.0074406
0.00678629
0.00302202
0.00670518
0.00674073
0.00688457
0.0069078
0.0028685
0.00676794
0.00682554
0.00671534
0.00109399
0.00358274
0.00671404
0.00671396
0.00601115
0.00670739
0.00350932
0.00682552
0.00688231
0.00677157
0.00673606
0.00625831
0.00674219
0.00187453
0.00678568
0.00292195
0.00679195
0.00357157
0.0067771
0.00675986
0.00672413
0.0069551
0.00265773
0.00576315
0.00316666
0.00302462
0.00341345
0.00453622
0.0042659
0.00289888
0.000510614
0.00678124
0.00673841
0.00129744
0.00372823
0.00674195
0.00422009
0.00678154
0.00197957
0.0168188
0.00361492
0.00286903
0.00129805
0.0135672
0.00689656
0.00287967
0.00671335
0.00799062
0.00380477
0.00431538
0.00104172
0.00677503
0.00560307
0.00126961
0.0073303
0.000745988
0.0102734
0.00508474
0.00670182
0.00444121
0.004802
0.00690226
0.00279338
0.00681081
0.00135963
0.00190764
0.00675722
0.00678052
0.000849283
0.00678692
0.00671864
0.00554991
0.00673592
0.000952281
0.00534787
0.00318231
0.00546026
0.00671536
0.00172777
0.00676397
0.00527804
0.00277247
0.00838509
0.00677815
0.0034655
0.00711753
0.00692224
0.00333473
0.00674706
0.000658772
0.00574108
0.00673911
0.00670769
0.0161895
0.00670151
0.0141645
0.00104278
0.0176496
0.0067895
0.00677856
0.00670844
0.00960682
0.00679252
0.000810964
0.0069118
0.00152896
0.00561502
0.0067957
0.00108545
0.0067666
0.00715183
0.00460682
0.00219475
0.00487639
0.00686205
0.000514509
0.000981959
0.00676286
0.00480957
0.00678311
0.00596866
0.00252014
0.00635136
0.00262581
0.00304241
0.00364502
0.00322147
0.00674386
0.000804061
0.00671879
0.0126884
0.00670774
0.0025904
0.00672014
0.00673177
0.00685101
0.0144065
0.00677765
0.00336647
0.0029455
0.00654508
0.00671384
0.00317991
0.00245038
0.00291688
0.00102686
0.0026263
0.00678134
0.0021993
0.00152804
0.00545891
0.00090402
0.00696985
0.00175482
0.00132243
0.00678708
0.00167582
0.00670744
4.15182e-05
0.000966577
0.00458249
0.0068436
0.0143113
0.0177609
0.00671617
0.00477077
0.00674035
0.00676237
0.000243275
0.0027713
0.00108023
0.0068137
0.00329628
0.00462789
0.00719634
0.00818871
0.000835872
0.00670397
0.00671394
0.00139184
0.0028429
0.000318571
0.0169517
0.00135395
0.00253616
0.00365731
0.00172342
0.00434651
0.0125479
0.00670186
0.00273524
0.00290791
0.00285335
0.00673688
0.00295479
0.00284457
0.00204654
0.0175175
0.00683175
0.00201771
0.00533145
0.00221749
0.00671495
0.00671622
0.00311424
0.00679289
0.00383123
0.00335466
0.0067364
0.00151406
0.00633506
0.00671531
0.0029361
0.00285882
0.0067397
0.00113935
0.00752715
0.00248401
0.00684589
0.00493997
0.00103433
0.00135581
0.00696797
0.00359388
0.00345097
0.00207099
0.00222232
0.00331271
0.000235541
0.00154061
0.00695542
0.00392186
0.00682059
0.00198437
0.00156047
0.00710878
0.00671697
0.00549232
0.00107712
0.00211943
0.00683631
0.00269396
0.00154181
0.00670339
0.00726568
0.00508163
0.00230846
0.00564532
0.00788624
0.000810907
0.00318507
0.00495401
0.00090575
0.00670967
0.00219311
0.00411745
0.00555383
0.0018409
0.00241232
0.00311852
0.00233285
0.000527117
0.00674132
0.0152797
0.00160082
0.006771
0.00185506
0.00284018
0.00231076
0.000668465
0.00122128
0.0167384
0.00228906
0.00430801
0.00358927
0.0027927
0.00714466
0.00677351
0.00674787
0.00671392
0.00106797
0.00190395
0.00696548
0.00411999
0.00147395
0.00670889
0.00938972
0.00116803
0.00704557
0.00678686
0.00722601
0.00684131
0.00288751
0.00671872
0.00312414
0.00298455
0.00276989
0.00539539
0.00280628
0.00390751
0.00579685
0.00219347
0.00674011
0.00658592
0.00696521
0.00682149
0.00176508
0.00240264
0.00331964
0.00421039
0.00681978
0.00683008
0.00332518
0.00678048
0.00691452
0.00258838
0.00363363
0.00400087
0.002897
0.00387283
0.00674423
0.0049099
0.00671359
0.000991621
0.00671684
0.00177406
0.002858
0.00675935
0.00111651
0.00397543
0.00294691
0.0068264
0.00701593
0.00339325
0.00130473
0.00673717
0.00678301
0.00692756
0.00699541
0.00137518
0.00682553
0.00356782
0.00670335
0.00704413
0.000906443
0.00305045
0.00676284
0.00197974
0.00320122
0.00378992
0.00915163
0.00690667
0.00685118
0.00412305
0.00674032
0.00328886
0.00675171
6.347e-05
0.0068781
0.0068335
0.00599404
0.00239643
0.00671285
0.00678256
0.00674595
0.00170403
0.000585713
0.0021326
0.0067153
0.00616448
0.00670564
0.00545459
0.00740378
0.00086693
0.00311744
0.00681732
0.00137157
0.00513182
0.0105066
0.00498848
0.00691191
0.00323166
0.00280149
0.00211458
0.00677246
0.00681425
0.0068745
0.00476799
0.00677497
0.00680307
0.000511225
0.00539642
0.00640237
0.00378802
0.0067716
0.00686293
0.0152216
0.00356863
0.00200111
0.0166383
0.0068741
0.000473443
0.00680116
0.00229216
0.00288491
0.00680217
0.00696506
0.0068717
0.00671803
0.0112187
0.00284104
0.0052814
0.00450486
0.00671686
0.00714816
0.00256579
0.000877128
0.0067219
0.0103487
0.000521791
0.000513565
0.00679804
0.00478698
0.00676429
0.00342333
0.00180715
0.00676455
0.00672811
0.0031226
0.00356707
0.00676275
0.00475097
0.00650855
0.00202155
0.000959831
0.00674183
0.00371952
0.00544939
0.00671403
0.000418294
0.00319451
0.000285897
0.00705423
0.00284293
0.0057892
0.00682106
0.00406284
0.00683213
0.00255538
0.00218706
0.00687326
0.00374882
0.00117445
0.00248851
0.00673638
0.00232
0.00429171
0.000318383
0.00688307
0.00674737
0.0176652
0.00085482
0.00366627
0.0067331
0.00790779
0.00291934
0.00691349
0.00288727
0.00338781
0.00679012
0.00130422
0.00676935
0.0077503
0.00677948
0.00681427
0.00679474
0.00674643
0.000327719
0.00695747
0.00671627
0.0030141
0.00312342
0.00547873
0.00183383
0.00675375
0.00671632
0.00542216
0.00624157
0.0128346
0.0138953
0.000971221
0.0125706
0.00548257
0.00884261
0.00538788
0.00359014
0.0039985
0.000867963
0.00672666
0.00362781
0.00672345
0.00676438
0.00683776
0.00688243
0.00139109
0.00294937
0.00240225
0.00670788
0.00671384
0.0025714
0.00678094
0.00680945
0.00675653
0.00576608
0.00307346
0.00106535
0.00674147
0.017449
0.00682047
0.00682805
0.00684554
0.00282562
0.00671163
0.00278969
0.0048119
0.00242935
0.00434548
0.0148695
0.00711498
0.00319612
0.0136511
0.00221856
0.00696277
0.00683911
0.00688374
0.00452554
0.00683331
0.00382528
0.00530892
0.0030411
0.000848531
0.000376211
0.00343669
0.00128022
0.00690754
0.00673356
0.00856009
0.000807032
0.00673336
0.00674365
0.00261067
0.00670349
0.00147162
0.00684452
0.00740134
0.0039894
0.00673766
0.00265022
0.00468742
0.00426211
0.00374563
0.00684825
0.00288509
0.00561493
0.00277433
0.00671325
0.00178382
0.00252224
0.00680871
0.00678392
0.0068891
0.00211148
0.0039668
0.00136302
0.000927412
0.00317585
0.000745187
0.00305573
0.00211805
2.22319e-05
0.00671506
0.00449117
0.00591612
0.0057572
0.00106082
0.00448103
0.000256267
0.00723307
0.00288224
0.00920064
0.00677878
0.00298822
0.00674928
0.00673973
0.0035988
0.00621702
0.00291735
0.0010803
0.00085994
0.00282882
0.00369029
0.00243046
0.00607531
0.00682988
0.0067582
0.00195101
0.00266618
0.00401762
0.00270644
0.00696509
0.00673462
0.00683676
0.00124345
0.00516526
0.00685695
0.00393152
0.00199678
0.00289801
0.00231092
0.00495779
0.00431188
0.00311091
0.0029627
0.00672217
0.00324265
0.00109608
0.0119503
0.00215221
0.0067844
0.000301398
0.00304066
0.0067304
0.0027212
0.00482192
0.0168195
0.00266981
0.00670642
0.00429921
0.00681521
0.0067027
0.00697242
0.000295633
0.000892364
0.00716378
0.000772571
0.000263265
0.00694382
0.00546476
0.00284187
0.00271367
0.00310752
0.00178253
0.00682042
0.0025672
0.00675815
0.000831141
0.0032199
0.00682411
0.00482541
0.00674583
0.00649348
0.00316946
0.000808597
0.00428498
0.00106341
0.00335392
0.00515208
0.000870251
0.00672797
0.0067058
0.00673989
0.00290351
0.00672062
0.00515229
0.00617729
0.013575
0.000832923
0.00585381
0.00304119
0.00691096
0.00505541
0.00449991
0.00673884
0.0067749
0.00317801
0.00152105
0.00137846
0.00271248
0.00486743
0.00436907
0.00162147
0.00686359
0.000808267
0.00358699
0.00419767
0.000879991
0.00676777
0.00676225
0.0067388
0.00684753
0.00671679
0.00279742
0.00433642
0.005828
0.0170227
0.00154976
0.000804121
0.00396889
0.00351985
0.00535183
0.00184251
0.00223995
0.00302597
0.00671853
0.00678227
0.00331079
0.00330238
0.00685999
0.00106177
0.00418847
0.00673326
0.00675066
0.00686727
0.00290117
0.00682545
0.00273507
0.00451579
0.00673752
0.00670971
0.00672702
0.00604783
0.00234691
0.00472486
0.00258072
0.000828705
0.00226723
0.00670886
0.017447
0.0020417
0.00723158
0.000975897
0.00086285
0.0035866
0.00103828
0.00398781
0.00676605
0.000853006
0.00491056
0.00170665
0.000774079
0.00682708
0.00552503
0.00467101
0.00380022
8.78949e-05
0.00274499
0.00677103
0.00339544
0.0182978
0.00496313
0.0068523
0.00669172
0.00450083
0.00339404
0.00676888
0.00336284
0.00231367
0.00671079
0.00671303
0.00243115
0.00670867
0.00117715
0.0172574
9.62594e-05
0.00671078
0.00236138
0.00171091
0.00672972
0.00695482
0.00664834
0.000325066
0.00683641
0.00619853
0.00155326
0.00129025
0.00296067
0.000804859
0.00384969
0.017908
0.0156666
0.0029555
0.00670319
0.00285573
0.00674246
0.00696952
0.00393306
0.00258302
0.00245427
0.00371303
0.0066953
0.00678775
0.00679343
0.00593383
0.00551075
0.000361994
0.00379144
0.000969983
0.0018384
0.00300111
0.0030977
0.0012988
0.000691211
0.000263017
0.00686946
0.00360695
0.00304059
0.00384462
0.00151511
0.0160226
0.00638796
0.000951263
0.00488874
0.00360382
0.00251662
0.00306277
0.00232186
0.0021441
0.00476098
0.00194792
0.00179724
0.00165434
0.00152113
0.00207244
0.00282764
0.00669506
0.00670842
0.00295206
0.00254377
0.00671022
0.00106267
0.00211393
0.00147997
0.00453364
0.00693595
0.00679967
0.00184075
0.000317276
0.00550645
0.00541331
0.00270647
0.00586726
0.00531418
0.00674791
0.00412272
0.00374768
0.00167703
0.0174549
0.00338844
0.00104851
0.00494521
0.00231668
0.00230473
0.00242557
0.0143381
0.00229435
0.00680497
0.00099901
0.00543886
0.00628762
0.00290629
0.00252196
0.00580139
0.00677437
0.00147138
0.0201837
0.00689681
0.00690271
0.00266168
0.00093673
0.00276969
0.00678144
0.00118837
0.00188888
0.00448692
0.0041887
0.00674634
0.00671191
0.00571913
0.00692101
0.00120913
0.00330314
0.00209537
0.00270788
0.00107622
0.00935033
0.00694373
0.00671407
0.0049669
0.00682825
0.00167895
0.007385
0.00274754
0.00544329
0.00684451
0.0130306
0.00676879
0.00210971
0.0154547
0.00686248
0.00627125
0.00541536
0.00142097
0.00409991
0.00173844
0.0049814
0.00696341
0.00706555
0.00329597
0.00279872
0.00119415
0.0034907
0.00256235
0.00126786
0.00192607
0.000792576
0.00682897
0.00684066
0.00673841
0.00671839
0.00115442
0.00257845
0.00683727
0.00245514
0.00165199
0.00672273
0.0151622
0.00185035
0.0023847
0.00671441
0.00478713
0.00682181
0.00508848
0.00407001
0.0127471
0.00117448
0.00197292
0.00110802
0.00688613
0.00295785
0.00178722
0.00113183
0.000952666
0.00674248
0.00180898
0.00682345
0.00686036
0.00256858
0.0117636
0.00104672
0.00680074
0.00286763
0.00156131
0.0040076
0.00201107
0.000434712
0.000121165
0.00677171
0.00282981
0.00681066
0.00174893
0.00684021
0.00226197
0.00684666
0.00273841
0.0170054
0.014973
0.00699796
0.00206209
0.00541583
0.00199628
0.00670897
0.00362802
0.00215355
0.0071483
0.0068612
0.000106422
0.00328263
0.00199244
0.00102194
0.0111892
0.00272281
0.00712108
0.00032489
0.004771
0.00807622
0.00145239
0.00308466
0.00217115
0.00238689
0.000461742
0.00423121
0.00592631
0.000872091
0.00494943
0.00109502
0.00340466
0.00275326
0.00109395
0.0008171
0.00295967
0.00378252
0.00457559
0.00426361
0.00174478
0.000870982
0.00128063
0.00670162
0.00684239
0.00481692
0.000922137
0.00763102
0.00638129
0.00244639
0.00617465
0.000263114
0.0032142
0.00545596
0.00363153
0.00545923
0.00204012
0.0147195
0.00620365
0.00126332
0.00321871
0.00696931
0.00264747
0.00690156
0.00383896
0.00675343
0.0180692
0.00671666
0.00674649
0.00213294
0.000856588
0.00672003
0.00125895
0.00603996
0.00678053
0.00671504
0.00678839
0.00677513
0.000957532
0.00346471
0.0067853
0.00167017
0.0032747
0.00292252
0.000893767
0.00263317
0.00377292
0.00256306
0.00670703
0.017808
0.00437679
0.00104601
0.00696718
0.000443028
0.000920723
0.00269223
0.000842386
0.00542184
0.0067095
0.00368429
0.00279895
0.00320355
0.00406674
0.00672776
0.00536638
0.0013717
0.00674631
0.00295496
0.00671035
3.2766e-05
0.00167744
0.000969558
0.00143974
0.00148362
0.00199418
0.00675769
0.00684507
0.00347737
0.00530342
0.00677428
0.00677904
0.00349942
0.00672171
0.00670663
0.00551209
0.00230116
0.00493559
0.00353424
0.00685961
0.00483156
0.00224986
0.00455312
6.10637e-05
0.00466915
0.00671253
0.00243647
0.00274071
0.0069011
0.00672591
0.00164404
0.00340942
0.00478798
0.00341506
0.00214938
0.00671155
0.00677538
0.0017948
0.00260229
0.00314077
0.00263325
0.00679815
0.00460803
0.00675705
0.00670551
0.00290103
0.00367118
0.00171904
0.00538411
0.00234924
0.00207277
0.00257037
0.00272717
0.00676133
0.00675971
0.00282756
0.0177131
0.00338015
0.00240586
0.00415748
0.00341256
0.00675153
0.00317636
0.00120443
0.00286169
0.00674897
0.00224947
0.00232482
0.00285367
0.00677265
0.00674921
0.00141798
0.00278459
0.000835856
0.0117809
0.00646197
0.00317579
0.00676991
0.00279011
0.000816891
0.00677681
0.00156512
0.00534648
0.0025408
0.0176832
0.00674002
0.00675126
0.00670652
0.00176247
0.00128214
0.00514786
0.00187017
0.00207603
0.00676542
0.00676119
0.00155168
0.000992496
0.00140968
0.00532829
0.00181145
0.0027443
0.00098932
0.0019133
0.00283418
0.00469249
0.00253871
0.00617021
0.00674405
0.0023067
0.00175787
0.00620448
0.00179933
0.00274736
0.0017112
0.00356562
0.00161314
0.00672063
0.00379338
0.00322745
0.00670727
0.00686567
0.00672907
0.00576717
0.00596453
0.00676521
0.00342914
0.00676472
0.00642946
0.0174736
0.00283059
0.00615594
0.00284635
0.00400904
0.00669918
0.00678686
0.00305665
0.00661776
0.000851527
0.00674251
0.00673989
0.00287149
0.0013443
0.00675622
0.00674816
0.00217744
0.00358999
0.00262047
0.00283197
0.00680245
0.00132426
0.00351283
0.00613648
0.00267559
0.00140233
0.00695804
0.00282028
0.00690024
0.0029648
0.00684695
0.00352306
0.00671197
0.00674213
0.00556186
0.00290524
0.000352992
0.00285081
0.00674082
0.00327104
0.00585852
0.00199273
0.00139938
0.00228749
0.00675031
0.00279982
0.00964444
0.00139062
0.000371355
0.00363675
0.00519331
0.0152895
0.00397169
0.0067686
0.002916
0.0059743
0.00294395
0.00437279
0.00675925
0.00295478
0.0067909
0.00471907
0.00520243
0.00561195
0.00284276
0.00503154
0.0139814
0.00397861
0.00299835
0.00316978
0.00672153
0.00393762
0.00674647
0.00273732
0.00670653
0.00522949
0.00419492
0.00305581
0.00703786
0.00439558
0.0011946
0.00675472
0.00680541
0.0032727
0.00498859
0.00673591
0.00396386
0.00549637
0.0068197
0.00671205
0.00339177
0.00217472
0.00141285
0.00670176
0.00330274
0.00479723
0.00313423
0.00686777
0.00676429
0.00295753
0.0025161
0.00683044
0.00671994
0.00671809
0.00682953
0.00522518
0.00323337
0.00696494
0.00335114
0.00461298
0.00679227
0.00507165
0.00339564