/*--------------------------------*- C++ -*----------------------------------*\
| =========                 |                                                 |
| \\      /  F ield         | OpenFOAM: The Open Source CFD Toolbox           |
|  \\    /   O peration     | Version:  v2012                                 |
|   \\  /    A nd           | Website:  www.openfoam.com                      |
|    \\/     M anipulation  |                                                 |
\*---------------------------------------------------------------------------*/
FoamFile
{
    version     2.0;
    format      ascii;
    class       volScalarField;
    location    "950";
    object      ddt0(omega);
}
// * * * * * * * * * * * * * * * * * * * * * * * * * * * * * * * * * * * * * //

dimensions      [0 0 -2 0 0 0 0];


internalField   nonuniform List<scalar> 
13917
(
0.000190719
2.84763e-05
-0.147966
0.000113755
1.68689e-06
0.00889878
-0.148106
-0.146066
-0.0986862
0.000169553
0.193659
-0.000386102
0.000113954
-0.369005
-0.000141952
3.24941e-05
2.70378e-05
-5.56208e-05
-2.991e-05
6.40012e-06
-6.44249e-07
-0.14346
5.59908e-06
-0.145766
7.93144e-06
-0.147122
-0.000233848
0.000907497
-0.152283
-0.00275183
-0.000339632
5.79415e-05
-0.000535155
0.000244046
4.09121e-06
-0.0108928
5.63258e-06
-0.0773447
0.00015331
0.0906642
1.64548e-05
-1.27848e-06
1.32616e-05
0.000312729
3.14816e-05
5.67449e-05
-0.000428061
-0.00124427
-0.00239697
1.2146e-05
7.26631e-05
2.74814e-06
-0.00357237
0.000114245
2.6314e-05
5.05518e-05
0.0536074
1.20012e-05
5.75108e-05
3.08682e-05
-0.00619543
2.55352e-05
-0.436686
7.24097e-06
0.00307809
-0.0293618
-3.11891e-06
-2.55984e-06
0.0371797
0.000167575
1.13493e-06
-0.100647
-0.0914553
6.32011e-06
-0.00260482
-0.000230804
-0.116379
4.86365e-05
-0.144068
-4.82004e-07
2.05227e-06
-3.17258e-06
-0.0406876
-0.0829106
-0.0420387
4.69119e-05
3.53818e-06
-0.048043
5.50465e-05
1.19102e-05
-0.0844613
-0.000144827
2.04181e-05
1.8649e-05
-0.0541031
-0.00669049
0.00336056
0.000677664
-0.0130583
0.0429222
1.2514e-05
1.88195e-05
0.000713774
5.32455e-05
1.45137e-05
-0.0921238
0.0319435
-0.00116632
2.77844e-05
-8.11282e-05
-0.0749849
0.0614845
0.000974895
-0.0922514
3.33287e-07
0.00582484
8.19203e-06
0.00995526
-0.0496816
-1.1031e-05
-1.31766e-06
-0.126873
-0.0597074
0.00414211
1.33048e-05
1.66364e-05
2.92319e-05
1.36997e-05
8.24328e-06
0.00351606
-0.0779692
-1.80835e-07
3.21252e-05
-9.91688e-07
-0.0426757
-0.145031
0.000484264
0.0582245
-3.31901e-06
8.36617e-05
-0.000190007
1.62099e-05
7.04901e-06
-1.95292e-05
-2.29279e-06
-0.102995
-0.153462
2.36457e-06
1.373e-05
6.77075e-05
-0.000340928
0.0148874
-0.00179138
0.000717289
4.78815e-05
-0.00697102
0.00010072
-0.0497458
-0.165142
-0.0425772
8.52086e-06
0.00286602
-4.28513e-07
0.00153959
0.000104209
-0.00798864
4.98947e-05
-0.000281428
2.5029e-05
0.000325888
-0.00104216
-0.111022
0.00182899
2.92724e-05
-0.111258
3.62572e-05
-0.0846696
-0.00378196
-0.104979
1.74476e-05
0.00126601
-0.000145844
1.65644e-05
3.81509e-06
-0.000230826
-0.151498
0.11041
0.013969
3.05402e-05
0.00506368
-0.0214875
-0.0342631
0.00575578
5.30151e-06
0.017343
-0.000960893
2.794e-05
2.15552e-05
0.00185233
-0.123922
9.69741e-05
1.22348e-05
-0.00016018
-0.000378497
-0.0994937
-0.0425266
4.15019e-06
1.28601e-05
0.000391869
-0.151758
6.32029e-06
-0.144842
-0.134415
0.00400147
1.33738e-05
0.0638081
-0.000269976
-0.113883
1.02118e-05
-0.00475388
1.67935e-05
0.00217184
1.59476e-05
-0.0814664
-0.0896457
1.51146e-05
1.02045
4.57602e-05
1.38365e-05
-0.00479956
0.00130687
4.62427e-05
-0.14624
-0.186142
1.34892e-05
5.93578e-05
-0.0834749
-0.0396771
1.77951e-06
1.08407e-05
0.0764775
-0.00254312
9.71203e-07
0.044399
-0.000607332
0.00387048
5.17509e-05
1.03618e-06
0.000113356
-0.146796
2.80129e-05
-0.00191499
-0.0382468
2.76913e-05
1.1536e-05
2.60416e-05
-0.0270561
-0.0016786
-4.9818e-05
0.00032121
4.48927e-07
-0.0744039
-0.0685148
0.0312091
1.41364e-05
-0.0952967
-0.135353
-0.0613799
-0.138329
0.000145569
9.23126e-07
1.46974e-05
-0.000654709
-0.0838555
0.000751801
4.88453e-05
-0.044363
-1.34516e-05
9.1582e-06
-0.0365606
6.98303e-06
-0.114664
9.40585e-05
2.54049e-06
0.000221993
3.39508e-05
-0.00213989
0.0162428
0.00055057
2.47371e-05
-0.0294169
-0.146415
-0.0672938
1.00248e-05
-0.0720403
-1.36699e-06
2.05382e-05
7.95217e-06
0.256153
9.52152e-06
0.000407474
6.53779e-05
2.33054e-05
-0.000237182
3.94171e-05
0.00107041
-0.00101636
-0.000901038
2.27185e-05
1.11028e-05
-0.0767337
-0.0679238
8.28016e-06
1.52865e-05
-0.0368968
1.79643e-05
-0.0873501
1.99393e-05
-0.0845738
5.9845e-05
-0.0430359
9.11287e-07
-0.00177796
5.85136e-05
-0.0395558
0.0888126
9.61857e-05
-0.000869419
-0.187189
1.82755e-05
-0.0734652
-0.00854677
-0.134832
-0.000115523
-0.0193789
6.76392e-05
-0.0546966
-0.0816892
-0.000482152
-0.000998433
-0.147544
3.69159e-08
-0.000444383
-0.0714748
9.89581e-06
3.00797e-05
-0.129371
0.0278451
2.96299e-05
-0.0105764
-0.115228
1.24718e-05
-0.0681091
-0.0177647
7.70905e-06
1.20715e-05
-2.00361e-06
1.45159e-05
-0.0236469
-0.106272
0.0416704
-0.0716966
7.45901e-06
-0.00181528
-0.0498997
-0.000279244
-0.142502
-0.0817493
-0.0903081
1.3165e-05
0.0576078
1.36852e-05
-0.00888502
3.01663e-05
0.000120206
-3.32448e-05
0.000117916
1.03684e-06
0.000197402
-0.000183654
-0.00154827
-0.093789
-0.0583674
-0.152706
-0.000706659
0.0015177
1.0792e-05
-0.037786
-0.141911
1.52021e-05
-0.0383806
4.35175e-06
-0.00388686
6.06324e-05
9.85368e-08
4.23552e-05
-0.129616
3.9019e-05
-0.048683
-0.0208472
-0.0185932
-0.183423
1.91057e-05
0.188177
-0.0659861
7.99944e-06
0.00323793
1.02776e-05
5.14918e-06
-0.00228406
1.53865e-06
5.24728e-06
1.20072e-05
0.0148519
-6.1111e-07
-0.0184463
-0.134484
-0.0411206
-0.0130249
-0.0723647
-0.119664
-0.000210315
7.24802e-06
-0.0131695
0.000151575
6.65198e-05
5.26302e-06
-0.107024
-0.150912
-0.123843
0.000120216
-0.000269028
1.23502e-05
0.000155309
-0.00253295
3.30835e-05
0.0615752
2.86768e-05
8.95241e-06
-0.0839943
-0.0802247
-0.0875297
-0.00116396
-0.0468314
-0.0820064
-0.0759464
-0.121845
1.01976e-05
0.000102091
3.42524e-05
1.16996e-05
-0.0432973
-0.000465801
1.55433e-05
0.000817147
-0.000170595
-0.13717
7.85985e-06
0.00229031
0.0526461
0.0746617
-0.0346454
-5.80578e-07
1.59835e-05
2.77249e-05
0.0001283
1.20343e-05
-0.148536
0.0287452
-1.04847e-05
-0.0279963
5.04264e-05
0.00331737
-0.0731215
-0.092174
-0.0138253
-0.011331
0.00255466
-0.00118156
-0.0283657
-0.000174391
0.163713
-0.00453287
0.000129323
-0.00493935
1.86307e-05
-0.0380124
4.55321e-05
-2.29764e-07
7.48865e-06
5.45683e-05
-0.119115
-0.0946127
1.68676e-05
9.96007e-06
-0.149454
-0.150893
2.08416e-06
-0.0238397
6.80774e-05
-0.00434605
1.86333e-05
-0.104077
-0.0536824
7.06745e-05
3.5276e-05
-0.0880514
-0.0355345
-0.0574857
3.23811e-07
-0.131082
0.00314769
-0.03437
2.18089e-05
-0.0452302
-0.0692637
-0.000147734
1.20124e-05
2.26076e-05
0.000504145
-0.0536757
1.50199e-05
1.20332e-05
1.18402e-05
1.19454e-05
-0.102268
-0.043044
-0.000176922
0.301281
1.43066e-05
1.25252e-05
-0.000833095
-0.0791229
9.75539e-06
2.64714e-05
5.83093e-06
-4.72923e-06
-0.0360367
-0.0292127
3.48645e-06
-2.52463e-07
0.0619667
-0.000148223
3.17606e-06
1.42139e-05
4.16431e-05
5.59736e-05
-0.00386265
0.183706
0.490286
0.00510669
7.63058e-05
-0.0437567
0.00114852
9.50333e-06
-0.125752
-2.61419e-07
3.24071e-05
0.000100601
-0.037979
-0.000529564
1.50347e-05
-1.92806
-0.00224299
0.0120831
1.78727e-05
-0.00183014
-0.000115991
1.06137e-06
-0.0686482
0.14131
-0.122285
2.64613e-05
2.53205e-05
-0.861306
-0.0822989
-0.34133
0.00137519
0.000291709
2.65022e-05
5.36248e-05
1.35436e-05
0.00360136
-0.00113314
-2.26623e-06
-0.000494776
-0.0181527
-0.124587
-0.0562221
4.42002e-05
0.0027533
-0.0453168
-0.00041495
5.82257e-06
0.0021694
-0.0858204
-0.109804
0.135037
8.94593e-06
-0.0562746
0.000279017
1.70426e-05
4.25853e-05
-0.00225761
0.000416099
-0.00289882
-0.142096
0.00401446
-5.97832e-05
-0.0692554
5.34723e-05
-0.160468
4.27576e-07
3.73654e-06
-0.0789334
-0.0872955
-0.236345
5.41839e-05
3.01874e-05
1.87627e-07
-1.97989e-05
-0.00224948
0.0092771
5.24341e-05
-0.000220277
-0.000518216
1.7647e-05
5.16992
0.00361093
0.0817207
1.18404e-05
0.00248099
5.4328e-05
0.0129012
0.00108779
-0.000609764
2.60608e-05
1.34968e-05
9.04816e-06
3.09181e-05
0.000402819
0.000143605
-0.0689577
-0.0107039
-0.000587106
1.24318e-05
0.0113531
0.471601
-0.0223465
-1.73768e-05
-4.26746e-05
1.12085e-05
9.4713e-05
6.43213e-05
-0.0704068
3.35435e-07
-0.480802
0.000101871
0.0810008
-0.00382218
-0.090507
-0.00218151
2.3089e-05
-0.0908995
-0.347518
1.73167e-05
0.000100873
-0.046545
-0.00956401
0.000856837
3.29216e-06
2.91901e-05
-0.0236961
0.000115967
-0.00101654
9.81632e-06
2.12274e-05
-0.000392595
-0.147799
2.00946e-05
8.91941e-05
1.11881e-05
-0.0738762
-1.23989e-06
4.32729e-05
-0.101347
2.77725e-05
-0.0896884
4.81745e-05
-0.000518249
1.11239e-05
0.00264164
7.42381e-06
-0.000659058
1.38365e-05
-0.0016068
6.55692e-05
0.0763412
0.0580274
-0.0781493
2.4741e-05
5.78596e-07
0.000732141
0.000155622
-0.085918
-0.0857171
5.36851e-05
5.45871e-06
0.042965
-0.0328908
0.0952534
-0.0105317
-4.22451e-06
-0.141454
3.74851e-05
0.000111665
-0.00352045
-0.0042849
-0.000103958
0.0407724
-6.80019e-05
9.75222e-05
-0.00268695
-6.27177e-05
5.14872e-05
0.00010666
-0.00027528
5.76908e-05
7.19126e-06
1.39687e-05
-0.00114508
6.19578e-05
4.5806e-05
4.36717e-06
3.7836e-06
-9.88946e-07
3.52423e-05
5.43337e-06
5.01817e-05
1.10866e-05
-0.105902
3.48685e-05
-0.0793355
1.24962e-05
4.6693e-07
-7.06846e-05
-0.00103127
2.9915e-07
-0.0413621
-0.00328083
-0.0127751
8.82311e-05
-0.00238231
4.59629e-05
-6.67689e-07
1.28846e-05
3.95866e-05
-0.0970117
1.46227e-07
-0.0513016
5.181e-05
-0.0479861
-0.00208972
-0.00220245
0.0508923
1.13286e-05
-4.39293e-07
8.3937e-05
-5.1069e-07
1.5583e-05
-0.0419366
2.8985e-05
5.1217e-07
4.10956e-05
1.09059e-05
1.23567e-05
6.00557e-05
-0.00179479
-0.112926
7.54829e-05
2.10488e-05
1.61828e-05
-0.0849624
0.000225688
1.91331e-05
2.76052e-05
-0.0399896
-0.0459311
-0.13773
-0.00285066
0.000100424
1.35993e-05
1.15893e-05
0.000302171
9.13106e-05
0.000864134
-3.0294e-05
-0.0683761
3.79128e-05
2.48476e-05
-0.143266
4.03796e-06
3.60225e-05
1.56902e-05
9.472e-06
1.66962e-05
-0.00142682
4.26297e-05
-0.0893256
-0.0042267
-0.00364639
9.52683e-06
1.30531e-05
0.00945716
-0.0482359
1.89877e-06
-0.0424984
1.38102e-05
-0.000221802
2.48857e-05
4.24764e-05
-0.052749
2.8547e-05
0.0193557
7.94815e-05
-1.34758e-06
5.99372e-06
-9.03575e-07
1.42891e-05
8.46755e-05
0.0173136
-1.49219e-05
1.52941e-05
-0.104419
-0.103608
-2.80728e-05
0.000122896
-0.000919864
6.48324e-05
1.58478e-05
0.000189833
-0.105506
-0.00070946
2.38604e-06
3.7879e-05
-0.0872007
-5.23802e-05
-0.0665878
-7.06485e-07
-1.33346e-06
-0.0985865
-2.4498e-05
4.62389e-05
-0.0814879
0.00556335
1.37137e-05
-0.00126683
1.29157e-05
2.76895e-05
1.25791e-05
-0.0864317
4.05449e-06
3.72205e-05
1.66442e-05
0.000967661
0.000139002
-0.00449565
-0.023074
4.02832e-05
0.000661213
4.08106e-06
-0.0697016
1.00916e-05
3.14453e-05
3.74519e-07
0.00139262
-3.6946e-07
0.0071972
0.00144387
-0.145987
-6.41765e-05
-0.0162922
-0.0881277
1.15782e-05
-0.0680133
-0.00662759
-0.0806284
-0.0715672
-0.103635
-0.0421953
0.00698711
2.43319e-05
-0.138952
-4.10959e-05
-0.136691
4.47136e-05
2.08349e-05
1.98265e-05
5.04744e-06
6.40851e-05
0.000645998
-0.0678877
2.02237e-05
5.59032e-07
-0.0530802
0.00958989
-2.17099e-06
0.00121352
2.31192e-05
3.2362e-05
0.0841995
0.00121688
4.35911e-05
0.000133468
0.0282582
-0.133637
0.00858195
1.83307e-05
-0.0123673
-0.00235331
-0.0622957
-0.0878358
-0.000137484
1.97784e-05
4.80368e-05
3.93415e-05
2.81952e-06
3.77006e-05
9.70213e-06
5.66063e-05
-6.19832e-05
-0.0265558
-0.000350974
3.68844e-05
-0.00139316
-0.0760405
2.45464e-05
7.91969e-06
-0.15073
2.33779e-05
1.50488e-05
0.000164797
-0.0108713
-1.03629e-06
1.16207e-05
-0.141837
-0.00439009
-0.0412654
-0.000289045
-0.0108941
1.20902e-05
-0.0061163
8.46056e-06
9.85165e-06
5.56817e-06
-0.150179
-0.110832
7.8355e-06
9.07357e-06
1.65113e-05
-0.0508562
3.48299e-05
2.03726e-05
-5.37971e-07
2.8333e-05
0.00902599
1.76209e-05
-0.00120181
0.0763953
-0.0909292
2.82522e-05
0.00219062
4.40935e-05
-0.0926429
-0.0770724
5.74932e-06
-0.0795763
-0.00117405
-0.0118181
-6.82137e-07
-0.127122
2.27656e-06
5.29229e-05
-7.20982e-05
-0.00031176
-0.151525
0.0541121
0.254454
-0.0822993
1.39865e-05
-0.00264704
4.22958e-05
-0.000109104
-0.139312
1.23374e-05
2.74766e-06
4.48727e-05
3.51994e-05
-0.0331437
1.02783e-05
6.07383e-06
-0.00039332
-0.000133946
-0.000379858
-0.0813375
-0.00534107
-0.0872307
-0.00016582
-4.49344e-05
8.96575e-05
-0.0979436
-0.000106962
-0.00718203
-0.142982
7.71079e-05
1.38996e-05
-0.0751192
0.0774938
3.09923e-06
6.62633e-05
-5.0171e-06
4.65935e-05
5.93513e-05
3.52103e-05
0.000746388
-1.03985e-06
2.52329e-05
0.0128609
1.27813e-05
0.000243408
2.51e-05
0.000548587
1.36708e-05
-0.000189972
-0.00049999
6.70445e-05
3.15525e-05
1.79533e-05
-0.0594728
0.000987577
-0.0923955
5.26656e-06
2.52585e-05
-0.00096487
1.54009e-05
-0.00112025
0.00236219
5.4395e-05
-0.00100179
1.41628e-05
-0.0163055
3.33563e-06
-5.0366e-05
-0.10785
0.0250972
1.32845e-05
3.31783e-05
0.111365
8.8399e-06
1.1751e-05
-0.0588034
-0.0825772
5.0728e-05
0.132107
6.99508e-06
2.99469e-05
-0.150325
4.63976e-05
1.13693e-05
-0.0293768
3.65248e-05
-0.0441436
2.50429e-06
1.15515e-05
1.85852e-05
-0.00620547
-0.0540348
1.07081e-05
1.77335e-05
1.21888e-05
0.000155343
1.01162e-05
0.18239
0.000952373
3.0006e-07
-0.108725
-0.00400804
-0.0227506
-0.0895234
-0.00528491
2.7656e-05
6.61456e-06
1.64639e-05
-0.188303
0.000133501
-0.0547745
-0.0997647
-1.15231e-05
-0.136465
-0.0101946
-0.000175735
-0.013376
-0.00284483
-0.0679842
-0.150276
0.00112803
-0.0760097
-0.0877518
-0.000312971
1.25819e-05
-0.095391
-0.00303272
1.27965e-05
6.2555e-05
0.00304361
-0.000152339
1.66897e-05
0.00216959
-0.000720253
0.000210169
-0.0852266
3.93573e-05
-0.082223
0.000158673
0.149746
0.00768957
0.00509266
3.25323e-05
1.76849e-05
2.98638e-05
-0.149338
8.9442e-06
-9.34138e-05
1.66247e-05
4.22611e-05
2.17913e-05
-0.0010648
0.0873323
0.0220456
-0.00432705
0.0161697
-0.115248
-0.157202
2.23429e-05
-0.0494189
-0.146255
1.61612e-05
1.19845e-05
2.05402e-05
-0.0878645
-1.53317e-07
-0.000223851
0.578685
-0.00071418
4.74243e-06
8.44747e-05
1.15154e-05
-0.00056418
0.00171065
1.10507e-05
0.0719217
-0.142437
0.00168242
-0.0437308
-0.000553331
-0.0488652
2.77903e-05
5.93681e-05
-0.124664
-0.0453008
0.000314548
-0.119907
5.62567e-05
-8.55617e-07
2.44021e-05
2.37773e-05
4.89927e-06
6.2774e-06
-0.000235192
1.2235e-05
0.000429207
1.08948e-05
3.97114e-05
2.82371e-05
-0.0014247
0.00227577
0.0101828
1.11549e-05
3.18856e-05
2.54042e-05
-0.121681
4.25261e-06
-0.000117656
3.06018e-06
0.0493889
-0.0972891
-0.0416986
1.27702e-05
0.00189693
1.88679e-05
7.51568e-05
-0.0856439
2.63244e-05
5.37864e-06
0.000138538
5.91933e-05
-0.139315
1.24761e-05
0.000112156
9.79881e-05
6.85009e-06
0.000242438
2.82335e-05
1.21623e-05
7.26642e-05
-0.137648
5.24048e-05
-0.0100533
-0.109907
-1.58364e-05
-0.062598
5.06203e-05
1.21836e-05
0.000288092
-0.164845
9.73974e-05
0.000135815
-0.000175802
-0.0610995
1.41799e-05
-0.004118
0.000523791
0.000751846
1.4105e-05
7.54324e-06
0.19607
7.16623e-06
-1.12668e-06
0.00158096
2.27022e-05
5.45274e-06
4.8409e-05
-0.000348219
-0.00729742
-0.148572
0.000143904
0.000626412
0.0243035
0.28812
-3.70316e-05
0.0306405
-0.079346
-0.000104075
-0.00355046
8.92705e-07
-2.31603
-0.0440659
4.80094e-06
1.33468e-06
1.0628e-05
0.000116648
0.000494544
7.06675e-06
-6.13023e-07
-8.63149e-05
5.14947e-05
-0.00169588
-0.0871993
-0.000204089
6.80599e-05
-0.0976035
4.51967e-05
-0.0336229
0.000101081
0.00139323
1.42905e-05
-0.137116
-0.101483
1.90862e-05
0.000100365
-0.132106
-8.77297e-05
-0.0623537
1.04591e-05
4.16308e-05
-0.12831
4.99937e-05
3.58093e-05
0.0126054
5.69628e-07
0.000181369
6.34843e-05
6.52607e-06
1.5331e-05
-0.138998
-0.0910559
2.92707e-05
6.30774e-05
1.16929e-05
5.09077e-05
-0.0035836
-0.127884
9.38325e-06
-0.00861612
-0.0701365
0.105851
-0.0485369
4.95757e-05
0.00627422
-0.00479377
0.000241178
3.72935e-06
-0.00029286
-0.0840094
-2.79424e-05
4.06025e-05
-0.14212
-0.00159969
0.0716748
-7.93684e-05
1.67765e-05
-9.077e-07
-2.25034e-06
-0.118809
-0.000603042
7.81377e-05
6.27001e-05
5.8884e-05
-1.18022e-06
1.47324e-05
7.7369e-07
0.000181235
5.65848e-05
-0.111692
-0.000905832
-0.0305476
-0.0587149
-0.000180589
-1.24804e-05
1.25365e-05
-0.000129258
-0.159085
2.49457e-05
4.15757e-05
-0.000256471
0.000548725
0.0107165
-0.128189
-0.00248741
2.26853e-05
-0.0759557
1.22055e-05
3.48464e-05
0.000678799
-1.11141e-06
1.82985e-05
0.0935972
-0.0689106
3.57276e-05
-0.133033
3.21089e-05
2.18948e-05
4.11861e-05
-8.40762e-05
7.20472e-05
0.000102994
0.00213535
4.79801e-05
0.00789569
-0.0975717
2.06316e-06
-0.000198885
1.04407e-05
0.0420759
0.000864874
-5.86009e-07
-0.147807
-8.35852e-05
0.000848686
-1.70586e-06
-0.113847
-2.34036e-05
-0.0069921
8.20986e-05
1.33634e-05
-0.138039
1.75947e-05
-0.128865
9.85301e-06
-0.00100304
-0.000239296
2.20216e-06
-0.0458045
2.87025e-05
0.000335433
0.000614237
0.000216053
0.00025605
-0.00209494
1.35657e-05
-0.142576
0.000134721
-0.0238921
-0.000281379
-0.000223431
2.67187e-05
0.00040335
5.35729e-06
4.50388e-05
-0.149927
3.0623e-05
1.60839e-05
-0.00791484
5.46802e-05
0.0198287
4.22687e-05
-0.142644
0.100321
7.73549e-05
9.34331e-06
1.18199e-05
1.1145e-07
9.27967e-06
-8.89462e-05
-0.00203347
-0.000289078
5.4601e-05
7.61976e-06
-0.0434612
6.48827e-05
7.95827e-05
0.0362864
4.95322e-06
0.0626777
-0.000396981
0.000140022
0.000117214
-0.0908304
-0.0250771
-0.141204
-0.0227427
1.50524e-05
-0.0748477
-0.0698485
0.00366281
4.08199e-06
2.92535e-06
0.00424831
-0.147556
-0.0239357
0.0226565
5.74551e-05
0.00141066
-9.82337e-05
-0.0879645
-0.0283167
-0.000159864
0.000175986
3.92347e-05
0.00344294
-0.000307934
4.71256e-06
0.000719891
-0.0424155
4.40878e-07
-0.0548391
9.63821e-08
2.77017e-05
-0.0929151
-0.0836336
1.25098e-05
5.96969e-05
3.60295e-05
3.328e-05
0.00235337
0.0255504
7.9166e-05
9.78034e-06
6.31205e-06
-7.48125e-05
4.1264e-05
4.46212e-05
-0.0298098
4.11987e-06
-0.0832395
-0.0732774
-0.0989153
-0.00261227
-0.0010321
-0.0413068
-2.01539e-05
-0.138849
-0.0395986
-0.0209947
2.72496e-05
-0.0550947
-0.0623593
1.31017e-05
6.97442e-06
0.000810682
-0.0612369
-0.0217459
-2.3319e-05
1.77215e-05
-0.0817216
0.0429506
-0.0244091
4.9279e-05
-2.02524e-06
0.00675892
1.50194e-05
-0.0920975
-0.0025008
-0.0220195
-0.0661451
4.83052e-06
1.36304e-05
1.30916e-05
-7.40103e-05
-0.0668828
-0.000103508
8.43376e-05
1.27327e-07
9.63772e-05
-0.102065
-8.26148e-05
-0.0885916
-0.0470433
-0.044588
0.0116233
3.69541e-06
3.81656e-06
-0.139304
9.7347e-06
1.5766e-05
2.68116e-05
0.00155839
-6.50218e-05
0.0153331
-0.00360526
7.00184e-06
-0.0845956
-0.00015344
2.13137e-05
-0.0584626
-0.00144943
3.66608e-05
0.000114992
-0.0355933
-0.0690228
-3.61605e-07
-0.0563118
-0.0748619
-0.0276009
-0.0547327
0.000582638
1.55502e-05
4.437e-05
-2.11692
6.02123e-05
-0.137145
0.000100809
-0.0352276
-0.0136146
1.04708e-05
-0.00021153
1.76146e-05
1.60173e-05
-0.0535742
-0.0389545
-1.16636e-06
-0.0490087
-0.000139586
1.78665e-05
-0.000120517
1.16573e-05
-0.0602703
3.58476e-05
-0.00131989
0.00471779
1.58998e-05
1.49506e-05
-0.0387169
-0.175791
-8.56544e-05
4.1237e-05
-0.000325423
5.0483e-06
4.47985e-05
4.46011e-05
-0.128733
-0.0410315
-0.0650187
1.14458e-05
1.36113e-05
2.42592e-05
0.0106926
1.21469e-05
2.55333e-05
0.0074065
-8.83199e-05
-0.0292011
1.2331e-05
-0.0724856
-0.0420104
1.21952e-06
-0.111878
0.00220234
-4.43759e-05
-0.00240608
2.5134e-05
-0.0319752
-0.000134998
1.49368e-05
5.7358e-05
6.78616e-06
0.0645277
2.64806e-05
7.60085e-05
-0.000738587
-0.0427794
-0.0617079
4.91787e-07
1.31066e-05
4.64203e-05
2.79173e-05
0.00459322
7.03607e-06
-0.00180008
6.79319e-05
-0.0854285
8.82916e-05
-0.125739
1.14313e-05
-0.0766577
4.00805e-05
6.24224e-06
-0.017616
0.1416
0.0621627
-0.0180081
-7.27837e-05
-0.000183178
6.76763e-07
-0.0958733
-5.29456e-06
1.16467e-05
-0.00370157
-0.000417802
0.0147345
-0.062143
1.61253e-05
-0.067825
-0.00224398
-0.018719
1.60115e-05
6.49182e-05
4.69057e-05
-0.0824655
-4.96111e-05
-0.0778546
-0.0522249
-1.13053e-05
-5.29282e-07
1.60651e-05
-0.652834
-0.000492283
6.13924e-05
4.74014e-06
3.49985e-05
5.07699e-05
-7.18577e-05
0.60332
0.103195
8.34634e-06
0.031149
-0.00309708
-0.166126
0.00114145
3.98857e-05
3.5725e-05
-0.0856135
1.37993e-05
-0.00219688
-0.151501
2.0995e-05
5.10215e-05
0.136096
-0.025241
1.41524e-05
-0.099672
5.80983e-05
-0.0142231
6.25551e-05
-1.65357e-05
5.29937e-05
-0.0690346
1.24621e-05
-0.000353935
0.00106499
-0.0530803
-0.000320441
0.000701508
8.63128e-05
-0.00234629
-6.62607e-07
-0.0495918
6.31269e-05
2.87444e-05
3.1389e-05
7.0439e-06
3.83739e-07
0.00246803
3.75513e-06
6.28538e-06
1.62601e-05
-0.00172262
1.86241e-06
8.87035e-05
-8.43073e-05
-0.00472016
-6.6923e-05
-5.90313e-07
-0.0499073
0.00390703
0.000568256
-0.00459065
0.000739401
-0.026904
-0.141739
0.0838829
3.77201e-07
-0.0435821
-0.144445
3.08332e-07
5.33079e-05
1.22403e-05
0.0659409
0.000335185
1.19666e-05
0.0126284
-0.0804455
1.52072e-05
1.85927e-06
-0.132305
-0.0559566
-0.000222879
1.07088e-05
-0.0147148
-0.0837329
-0.000312582
7.16226e-06
-0.0822227
-0.00013555
8.57217e-05
-0.063722
5.41067e-05
1.12262e-05
8.3916e-06
-0.00373407
-7.22209e-06
-0.142807
-0.0722345
1.66026e-05
-0.0803596
-0.0343526
-0.0634311
1.11608e-05
0.00217036
-1.25714e-06
1.6106e-05
-0.0957401
-0.0494263
0.0536025
-0.0577909
6.66207e-05
-0.000542906
2.11846e-05
-0.0624469
-0.0348322
-5.76398e-07
3.37636e-05
-0.000829198
-1.8926e-05
-0.000367404
-0.124821
-0.057104
-0.000591637
4.20822e-05
8.6456e-05
-0.0914768
0.000142393
-0.000224007
1.55875e-05
2.6973e-05
1.56256
-0.0518145
-0.0356247
0.0146217
4.00224e-06
-0.0382783
2.39214e-05
0.000439494
-0.0160358
-0.0750357
3.63347e-06
-1.95893e-06
1.57218e-05
0.000165568
2.9443e-06
-0.104624
-0.0814783
1.9034e-05
4.32435e-06
-3.5268e-07
9.90794e-06
0.0326983
3.31748e-05
-0.135186
-0.000804067
-0.000119185
2.06106e-05
-0.00111931
-0.0707692
-4.21217e-05
0.0111221
-0.0268105
1.59151e-05
-0.147958
0.000270216
-0.00080492
-0.0226834
-0.133103
-0.0661666
0.000197306
1.46915e-05
-0.00265793
2.59322e-05
9.44519e-05
6.72201e-06
-0.127181
0.00035375
-0.0294048
0.0286919
-4.71295e-05
1.0369e-06
0.0238896
5.94017e-05
-2.00942e-07
-0.0101066
7.78423e-06
9.88637e-05
-4.28229e-06
6.58508e-06
-0.0204672
3.47002e-05
0.0058688
1.5136e-05
1.12786e-05
-0.0331176
-0.0849766
2.37438e-06
-8.48635e-05
-7.69562e-05
3.78129e-05
-0.000629337
9.56534e-05
-2.84123e-05
6.05215e-05
0.0411961
4.06447e-05
-0.1283
-0.000328247
-0.00347232
0.00221712
5.31403e-05
-0.108773
9.52536e-06
-0.152032
6.26632e-05
-0.0694083
-0.0250018
-0.0223208
-0.0401042
0.107852
3.26578e-05
6.82919e-06
-0.117986
-0.000199741
4.42502e-07
-0.123504
-0.11253
-2.48033e-05
7.89163e-05
7.45871e-05
7.25639e-05
-3.91237e-05
-0.109219
1.00788e-06
0.000130899
-4.32383e-05
-0.00037698
4.67761e-06
0.0010492
7.81712e-06
-0.134117
5.9961e-06
-0.000366083
3.6842e-05
-8.66164e-05
-0.000298994
-0.0522601
-0.00465983
1.60964e-05
-0.00284517
-0.133164
0.0499296
1.9045e-05
-0.120758
2.21044e-05
0.00805022
-1.8232e-06
-3.48492e-05
-0.0901663
-0.000231331
-0.0626228
-0.127363
0.000624851
-0.080776
2.02368e-05
1.20076e-05
-0.153734
0.0020616
3.03089e-05
-0.104463
4.85113e-05
-0.00170515
-8.82188e-05
0.000566713
3.1648e-05
-0.0999546
-0.135504
-0.0536926
0.00870106
5.58855e-05
-0.000496722
-0.0670258
2.68355e-05
1.43648e-05
0.00244118
1.21958e-05
-0.0202768
0.00266281
-0.038395
-0.0842099
-0.00037135
2.52969e-05
-0.0842177
7.27118e-06
-0.000378924
7.80141e-07
0.0724461
4.31796e-05
0.00280598
-0.0672125
-0.00286195
9.19561e-06
-0.00110801
0.0173682
-6.92561e-07
-0.0322187
1.77445e-05
-0.0246437
-0.0776219
0.00408041
0.0106991
1.10071e-05
0.235655
-0.013131
-3.48542e-05
1.70992e-05
6.88341e-05
8.06167e-06
-0.000284857
9.74298e-07
5.69884e-05
-2.28e-06
1.94742e-05
-0.0566914
2.18426e-05
4.98451e-05
8.27163e-05
-1.08157e-06
-0.0807107
2.06863e-05
0.000259868
-0.0873801
-0.000443831
-0.113577
3.78828e-06
-0.0664888
-0.000574149
-0.101437
3.92794e-05
-0.0019131
4.87848e-05
-8.24012e-05
0.00124479
0.00384146
-0.0245487
-0.0829979
0.000625993
-1.00322
-5.03628e-05
0.00393318
0.00493988
-0.0335957
-0.00011141
4.50542e-05
5.00422e-06
-0.00016098
-0.00246393
-0.0468554
-0.000124996
-0.147842
-0.0639084
0.0112849
1.68114e-05
-0.0573634
0.00776558
6.39861e-06
-3.61694e-05
8.73554e-06
-0.125912
3.82442e-06
-0.0559275
2.08346e-05
6.1762e-05
-0.0915011
-0.00164828
5.73594e-06
5.08597e-06
-0.155219
1.99418e-05
2.57331e-05
6.04968e-05
0.000522548
4.18307e-05
2.20794e-05
0.0687188
-0.00954184
-0.000642295
-0.482849
-0.0580293
-0.076605
-0.120686
1.18407e-05
1.04745e-05
-0.00045916
3.41024e-05
-5.39104e-05
-0.1193
-0.0730183
8.63546e-06
7.77608e-07
-0.0998147
-0.0417417
1.14632e-05
1.63834e-05
-0.00012357
0.0280036
-0.146044
5.22746e-05
8.09884e-05
1.38876e-06
-0.145768
0.000845943
-0.000424206
-0.000204267
0.00499518
1.21771e-06
4.17777e-05
-0.0293195
5.40879e-06
3.56724e-05
4.99112e-05
-0.148901
7.42113e-06
-0.0999605
4.87718e-06
-0.0850981
8.20643e-05
-0.00030361
1.22094e-05
1.15997e-05
0.253845
-0.0444076
-0.00194943
-0.0101608
0.00637209
1.40658e-05
-0.0835754
0.00538215
1.87965e-05
-0.0768847
-0.015134
0.00263065
-6.72695e-07
-0.0745094
-0.0609667
2.79334e-05
-0.000645206
-0.0418471
-0.000831136
1.63781e-05
1.86749e-05
3.99341e-05
6.58201e-05
0.0017709
-0.0135335
-0.0010988
-0.00293407
1.36564e-05
1.64696e-05
-0.139051
1.92792e-05
0.000847259
-0.000130587
5.78862e-05
-0.000439702
7.06611e-06
2.68423e-05
0.125234
9.23553e-06
-0.0815379
6.2262e-06
1.75731
-0.104276
0.000708166
2.04752e-05
-1.31036e-06
-0.081764
6.68498e-06
4.94857e-05
3.8365e-06
-0.0217782
-0.0382303
-1.357e-05
-0.0910665
-0.00299647
-0.0435642
4.44845e-07
-0.00130386
1.4467e-05
3.09772e-06
-0.0520881
-0.080331
-0.02771
4.84435e-05
-0.00255393
0.00155726
-0.0378935
-0.0848473
-0.576771
6.63174e-05
1.00827e-05
-0.0835588
2.38659e-05
2.66248e-05
0.0531736
0.00336186
-9.57115e-05
-0.00685974
0.00139831
0.000396175
4.52824e-05
-0.0807385
5.48783e-05
9.67284e-06
-0.0770836
0.00300099
1.31277e-05
-0.0616774
8.8347e-06
4.5326e-06
-0.0952394
-0.00144216
0.0313933
1.41064e-05
-0.000148648
1.37426e-05
0.00736787
1.8825e-05
0.0137498
-0.0629945
-0.0946153
-0.0524778
-0.554454
0.000816831
-0.0898399
-0.000245068
1.36534e-06
-0.000294835
-0.000847783
-0.000170474
-0.000634267
-0.0856817
-0.0601503
-0.107005
0.0268099
1.39502e-05
0.00223976
9.32469e-06
-0.0474987
2.74176e-05
8.2649e-05
5.32817e-05
4.54543e-05
1.73655e-05
0.000219227
-0.0613632
1.20689e-05
3.17557e-05
1.38342e-05
-0.099781
1.93288e-05
-0.0682225
-0.116384
-0.0688739
1.35081e-06
1.77995e-05
-0.0863029
-0.0563056
1.74612e-06
-0.084527
2.86557e-07
-4.32703e-05
-0.00208954
-0.000913537
-0.000202249
-0.0165517
1.5878e-05
6.99355e-05
0.126112
-0.0710636
6.03357e-05
-0.000150858
1.4989e-05
0.0292067
7.17909e-06
1.43354e-05
5.12278e-05
1.08024e-05
-0.0318164
-0.0812513
-0.0404191
3.02118e-05
-0.0806189
-0.032132
8.89784e-06
4.58645e-07
1.19852e-05
0.00493877
2.5595e-05
-3.92915e-05
8.20308e-06
1.19569e-05
1.45359e-05
-15.9711
8.1182e-05
-0.0478889
1.3631e-05
-0.000367962
4.27981e-05
-0.00705093
6.89364e-06
-1.41649e-07
-4.7348e-05
0.00117851
-0.0419202
1.21542e-05
-0.0577033
-0.000217527
-0.00267681
1.83479e-05
1.15793e-05
-0.06797
-0.165504
2.79265e-05
2.3838e-05
-0.000770916
0.0276763
0.00211462
-0.0953085
2.04604e-05
-0.0213005
1.99457e-05
1.16445e-05
-0.113564
9.68446e-05
-0.1406
3.9114e-06
4.47654e-05
4.6308e-06
-0.0861825
-0.0855467
1.07062e-05
0.114616
0.104096
8.83696e-06
2.32675e-05
1.73985e-05
0.0804361
-0.0857914
-0.000787231
0.000115317
1.14115e-05
7.30619e-06
9.91436e-06
7.37851e-05
8.87813e-06
-0.104538
6.75335e-06
-0.000234485
0.941859
6.9719e-05
9.95314e-06
-0.0936096
0.00102462
7.02486e-06
-0.00283312
1.17547e-05
-0.0358974
3.03496e-05
-0.00224178
-0.00162703
1.80815e-05
-0.00104267
0.00213388
4.76411e-05
-0.0674676
0.00011004
0.000133542
-0.043436
1.76415e-05
-0.00227309
-0.00188574
-0.00145024
1.1377e-05
1.44052e-05
9.96913e-06
0.00199051
-0.000340287
-0.000403399
-0.0764869
-0.0582791
-0.123191
-6.68175e-07
-0.00556916
-0.116083
-0.0927333
8.39075e-06
1.8292e-05
-0.000448577
-0.145378
1.22603e-05
-5.41145e-05
-0.854859
-0.104887
28.4469
-0.00687371
0.0277086
-0.091583
-0.0174684
8.59582e-06
-23.8109
0.0929652
3.98177e-05
4.49889e-05
3.08525e-05
-0.0577101
-0.00187014
-0.134383
4.89049e-05
-0.0215889
3.23947e-05
-0.0438684
-0.0525817
1.53112e-05
-3.74579e-05
-0.0837075
-0.138571
-0.000154574
4.17503e-05
2.45719e-05
3.53752e-06
0.00628906
0.00454968
-0.0430266
-0.0894056
1.56482e-05
-0.0510824
-0.00122234
0.0556125
9.30634e-06
4.59164e-06
0.0506764
0.0232644
1.429e-05
-0.000218335
-0.000584253
0.000564743
-0.127546
-0.145848
-0.0661165
-0.0844529
-3.77263e-05
3.58794e-06
-0.00170027
-0.0370166
-0.018123
2.94475e-05
0.181231
-0.02242
-0.0187122
7.3375e-05
8.74603e-08
-0.120385
-0.0558907
-0.0307674
-0.018814
-0.0129531
9.93202e-06
0.00985502
-0.0837721
7.56523e-06
0.0022806
7.36578e-05
1.13383e-05
-0.106767
-0.114318
0.000115046
-7.37186e-07
0.0362573
0.000409089
0.051602
3.44193e-06
7.77344e-05
2.49827e-05
0.000104579
2.43064e-05
-0.000649568
-0.00039841
0.000629018
-0.0107909
-2.95062e-05
-0.0878279
0.000181119
0.000164382
5.53514e-05
-0.146788
0.00277332
-0.0739831
3.89748e-05
-8.87641e-06
-0.171417
0.0153394
4.02519e-06
0.00148157
-0.0539307
-0.128076
-0.00813475
1.76647e-05
1.63874e-05
2.02443e-05
-0.0392169
3.22776e-05
0.00107992
0.00549573
0.0942238
7.82591e-05
0.0231678
-0.0862566
2.38042e-05
-0.0583384
0.00144445
-0.00126577
2.16968e-05
2.85616e-05
-0.000534968
-0.0758234
8.14375e-06
-0.064916
-0.0112683
0.0121365
-0.00329839
1.93752e-05
8.40945e-06
9.83241e-06
7.99151e-05
0.0470292
0.101305
-0.000198447
-1.16613
1.83903e-05
3.03849e-05
3.46127e-05
-4.34021e-07
-0.037682
6.21478e-05
-0.0762057
-0.00297955
7.46507e-05
0.00414773
-0.0566641
-0.0825312
-0.120475
6.3292e-05
8.11305e-06
1.76783e-06
0.000109288
0.00611976
0.0161205
-0.0761353
1.47855e-06
-2.35883e-07
-0.00307454
2.2042e-06
0.0438681
-1.74639e-05
0.00173173
-0.00346125
-0.00241886
0.0027355
1.51205e-05
-0.000400387
0.00191033
-0.00610754