/*--------------------------------*- C++ -*----------------------------------*\
| =========                 |                                                 |
| \\      /  F ield         | OpenFOAM: The Open Source CFD Toolbox           |
|  \\    /   O peration     | Version:  v2012                                 |
|   \\  /    A nd           | Website:  www.openfoam.com                      |
|    \\/     M anipulation  |                                                 |
\*---------------------------------------------------------------------------*/
FoamFile
{
    version     2.0;
    format      ascii;
    class       volScalarField;
    location    "750";
    object      ddt0(k);
}
// * * * * * * * * * * * * * * * * * * * * * * * * * * * * * * * * * * * * * //

dimensions      [0 2 -3 0 0 0 0];


internalField   nonuniform List<scalar> 
13917
(
0.00043375
6.40714e-07
-0.000121965
2.70673e-07
8.21606e-07
6.28851e-07
4.53462e-07
1.65413e-07
3.54899e-07
-3.22061e-05
6.8137e-07
2.5168e-07
3.12467e-07
0.000847269
7.84075e-07
0.000373021
1.92638e-07
6.34653e-07
1.89634e-06
0.000336108
7.0441e-07
3.42792e-07
6.51937e-07
3.4173e-07
3.83766e-07
7.42937e-07
0.000745523
-2.64751e-05
7.72679e-07
-5.5615e-08
-1.47828e-05
8.11792e-07
2.98149e-07
0.000685134
2.20849e-07
1.12433e-06
4.81885e-07
1.60431e-07
4.45988e-07
7.25461e-07
8.69847e-07
-3.18929e-08
2.97825e-07
1.90844e-06
1.87307e-06
3.51877e-05
6.83982e-07
0.000351789
-0.000333099
2.24537e-07
2.50486e-07
1.41228e-06
0.000493025
3.12902e-07
3.0521e-07
1.44266e-06
4.57162e-05
6.60699e-07
-4.84777e-08
0.000131108
0.00086052
5.81982e-07
-1.86171e-06
3.66513e-07
0.0022878
6.81856e-05
7.62863e-07
9.87525e-07
7.44614e-07
0.000398405
0.00296944
0.000611905
1.84263e-07
-6.37807e-08
7.20826e-07
4.31479e-07
6.11974e-07
-6.0009e-08
4.14277e-07
3.05478e-07
4.29734e-07
2.05196e-07
1.78002e-07
0.00329699
7.76227e-08
2.12483e-06
7.97438e-07
1.16296e-07
7.27753e-07
1.58668e-07
5.42756e-08
3.03067e-07
-0.00040521
1.91676e-07
3.71195e-07
7.9641e-07
2.99661e-05
1.73587e-07
1.05187e-07
1.86068e-06
-3.70232e-07
-4.52345e-07
4.27443e-07
7.77918e-08
5.76805e-07
0.00365826
0.000709663
5.47162e-07
-1.92068e-07
0.000407561
4.16742e-08
0.000742141
8.07986e-07
0.000144605
0.00234822
4.499e-07
1.45108e-06
-1.31084e-08
-2.23148e-05
1.48128e-07
1.21906e-07
7.67743e-08
7.77958e-07
1.24071e-06
0.000371006
0.00312686
3.52233e-07
7.46613e-07
2.49882e-07
1.27886e-06
4.6039e-07
-2.96747e-06
0.00126926
4.50979e-07
9.61252e-07
0.000409752
0.000849719
0.000266745
7.69968e-07
1.87751e-07
0.000963205
3.19258e-08
0.00372767
2.7292e-07
1.8229e-07
-7.92561e-07
0.00300799
-0.00100698
0.000347456
3.11927e-07
7.02326e-07
-7.66332e-07
1.70668e-07
1.50167e-07
9.27808e-05
3.67e-07
7.59915e-08
0.00104595
4.10868e-07
1.44219e-08
1.37944e-07
0.00166344
5.76265e-07
0.000855053
0.000947689
1.45984e-06
-6.84447e-05
0.000670371
-1.10787e-07
7.9471e-07
3.57932e-07
0.00133279
3.45589e-07
0.00108934
9.08537e-07
-1.11098e-08
2.67667e-07
1.39705e-06
4.78808e-07
5.93246e-07
3.06484e-07
3.40487e-07
2.51041e-07
-2.36759e-05
-2.19401e-05
-5.00598e-06
2.50796e-07
-2.56729e-05
2.7387e-08
1.35575e-06
9.29791e-07
1.47449e-06
2.89273e-06
0.000427137
1.92788e-07
0.000367416
4.80248e-07
0.00150948
2.08364e-07
3.57584e-07
6.37952e-07
0.00040446
0.00041934
4.77337e-07
0.000278514
6.9277e-07
7.07779e-07
3.40611e-08
1.46504e-06
4.30226e-07
1.60361e-07
1.00754e-06
1.19495e-06
0.000459128
8.41563e-07
7.71024e-07
0.00147992
1.16401e-07
9.70577e-08
9.54834e-08
0.000558033
3.8564e-06
8.68748e-06
4.93576e-08
-1.98893e-06
0.000413326
0.000391237
8.32064e-08
7.89619e-08
8.42784e-07
1.02597e-07
1.00261e-07
0.000564706
0.000607576
3.87355e-07
-1.23535e-07
9.96678e-07
0.000532372
1.98883e-07
4.86762e-08
0.000223669
0.00372538
3.99048e-06
0.00140342
1.11986e-06
2.69444e-07
0.000755122
1.04056e-06
7.81647e-07
9.96274e-07
4.61476e-07
0.000532142
1.5535e-07
7.17842e-07
8.41484e-07
4.05605e-07
8.63682e-07
3.64866e-07
5.50525e-07
1.75406e-07
0.000411363
9.54807e-05
1.28547e-07
7.79659e-08
3.87697e-07
7.75485e-08
1.55521e-07
3.37066e-07
6.40777e-07
1.03775e-07
0.000152692
0.000802723
2.61452e-07
5.32118e-07
-0.00678017
6.52035e-08
1.37044e-06
0.000450912
6.82611e-08
0.000444977
1.75685e-07
0.00169009
1.50206e-07
7.50061e-07
4.16501e-07
2.58548e-07
6.70772e-06
1.01139e-07
1.51778e-06
5.52094e-07
-5.96362e-05
-7.71894e-07
-5.05221e-05
4.88249e-05
1.83215e-08
7.33243e-07
6.22863e-07
4.69461e-07
7.25269e-07
4.10135e-07
1.84042e-07
7.58872e-08
1.12469e-06
3.93052e-07
7.03166e-07
3.99273e-07
5.06708e-08
0.00119635
0.000306505
2.37408e-07
2.72431e-06
4.70602e-07
-1.17179e-05
1.9776e-06
0.000848858
0.00116525
5.18506e-05
2.70337e-06
4.86096e-07
0.00330818
-3.44438e-05
-0.001247
3.30028e-07
7.96736e-07
0.00103499
3.75047e-07
5.81305e-07
1.46146e-06
3.03243e-07
0.00141161
8.02708e-08
5.06695e-07
5.34609e-08
0.000256325
7.95108e-08
6.90777e-07
7.12031e-07
1.5401e-05
5.13599e-08
9.4612e-07
0.00379323
3.51663e-07
3.68428e-07
0.000836134
0.00383948
0.00190812
0.000597904
6.57738e-08
3.78911e-07
0.00365711
3.77199e-06
7.00071e-08
7.15964e-07
2.69635e-07
9.79632e-07
6.98787e-07
1.58873e-06
1.17271e-06
1.3619e-06
5.27857e-07
0.000638368
2.53255e-07
3.52712e-07
8.68781e-07
-9.19953e-06
4.16408e-07
0.000355637
5.26284e-07
0.000449358
3.16036e-07
1.04835e-06
4.12771e-06
-0.00045557
-1.62864e-07
2.89648e-05
0.000858511
7.12566e-07
2.5816e-07
0.00270081
1.02088e-07
0.000920136
7.3343e-06
-2.00796e-07
-0.000378129
4.66635e-07
0.000106229
1.34455e-07
0.000469384
0.000285822
4.47398e-07
0.000493483
1.29602e-06
4.4113e-07
0.00138086
0.00026562
4.149e-07
7.27433e-06
3.56958e-07
1.30813e-06
0.000370986
7.99736e-08
4.09532e-07
3.9416e-07
2.45163e-07
9.19189e-08
2.57079e-07
0.000612844
-1.85942e-06
3.26945e-07
2.57964e-07
3.17512e-07
7.34465e-07
-8.52777e-07
4.30643e-08
-1.12798e-07
2.27963e-06
1.09002e-06
2.74895e-07
4.37352e-07
0.00150673
0.000213195
0.000234973
1.78947e-06
0.0033699
1.51631e-07
4.60823e-08
6.59293e-07
8.67163e-08
4.27523e-08
3.99963e-07
5.14222e-08
1.53011e-07
0.000693049
3.63865e-07
7.41374e-07
0.000201956
7.36995e-07
1.72971e-07
1.77112e-07
0.00144733
6.42131e-07
0.000362896
3.45907e-08
1.15918e-07
4.70414e-08
1.07927e-07
4.76475e-07
4.89381e-07
0.00158382
-9.53195e-07
0.00355119
1.18408e-07
6.5502e-07
-6.98524e-07
4.25656e-07
1.09887e-06
0.00182885
2.62617e-07
0.000385399
1.885e-07
1.03179e-07
3.08762e-07
4.69672e-07
1.38417e-07
1.85991e-07
0.00112976
0.000992257
1.28512e-07
-5.69295e-05
2.44488e-06
1.00322e-07
7.58641e-07
7.16157e-07
0.00115908
4.18063e-07
0.00360008
-1.32429e-05
-0.000327632
4.92991e-07
3.6792e-05
-5.88676e-07
4.58861e-07
0.00233719
6.62947e-08
3.03196e-07
3.72587e-07
3.85141e-07
6.86575e-07
-2.93304e-06
7.0657e-07
-1.29259e-07
5.43997e-07
7.92584e-07
8.2597e-07
3.29232e-07
0.000856997
6.24225e-07
5.51343e-07
0.000979634
7.80555e-08
8.49618e-07
1.18579e-06
7.55542e-08
0.000620485
1.068e-07
1.07048e-07
7.51368e-07
2.61121e-08
1.27812e-07
1.05609e-06
0.000817711
0.000362168
1.30385e-07
2.64632e-07
1.24965e-07
0.00184819
0.00110815
3.27263e-07
3.10559e-07
1.14871e-07
7.97422e-07
-0.00122997
2.47355e-07
2.24652e-07
3.41256e-07
2.29275e-07
4.64438e-07
5.2615e-07
1.05802e-07
7.06704e-07
7.47011e-08
3.28449e-07
3.8415e-07
0.000831098
5.74916e-08
3.35632e-07
1.80136e-07
5.70229e-07
8.75823e-07
1.03354e-06
8.67801e-07
2.65038e-06
3.75796e-07
7.05321e-07
0.00170044
0.000707529
0.000245245
2.22928e-07
2.99651e-07
-1.16819e-07
2.422e-07
0.00232479
6.39518e-08
-0.000290506
4.76818e-07
0.00231071
1.14775e-06
3.01043e-07
-0.000144233
1.29103e-07
6.78188e-07
1.54525e-07
1.96335e-07
0.00204287
3.6489e-08
2.66963e-05
-1.38337e-06
1.90049e-07
3.05682e-07
-9.94528e-07
4.75913e-07
6.58664e-08
1.49985e-06
7.69117e-07
0.000888321
0.00315986
0.00126677
0.00107222
5.77097e-08
0.000399721
-7.08161e-07
0.00093139
3.39732e-05
2.03215e-07
7.20204e-06
-4.42795e-07
6.2086e-07
2.99585e-07
4.31977e-08
1.5565e-07
3.03011e-07
0.00310721
1.5248e-07
6.93652e-07
3.05158e-07
6.32471e-08
-1.20958e-07
-6.40493e-05
0.00231901
-5.31401e-05
9.15301e-07
5.23929e-07
0.00170176
0.000552125
1.45192e-07
0.00221322
2.8121e-07
1.16025e-06
2.49122e-07
0.00235341
2.12853e-07
4.15933e-07
1.78378e-07
0.00103554
6.35168e-07
0.00196556
7.81838e-08
6.38495e-07
2.46938e-07
-1.77429e-07
0.000686977
4.83021e-06
2.56082e-07
2.35313e-06
5.03776e-08
1.99176e-07
-8.04414e-07
0.000772662
1.53013e-07
6.1433e-07
6.14782e-08
2.47153e-07
-7.84576e-06
-7.18761e-07
1.41688e-06
2.13104e-07
7.70837e-08
0.000770971
7.4683e-07
3.24521e-07
-0.000586136
-1.22636e-05
-5.55527e-07
6.18222e-06
1.20641e-07
8.28196e-07
0.000735433
0.000184657
6.3633e-07
4.78927e-07
4.17123e-07
1.60775e-07
2.617e-07
0.000349932
9.66757e-07
4.64687e-07
0.000900425
6.37115e-07
2.28436e-07
0.00149218
3.97718e-07
6.70611e-07
3.02362e-06
0.00047552
1.87046e-07
3.88653e-07
0.000341477
7.79313e-08
8.30783e-08
-1.90952e-07
2.62635e-07
1.67779e-07
0.000423535
4.59947e-07
8.35492e-08
1.31148e-06
8.73866e-08
0.00096366
1.72046e-07
2.48866e-07
0.000692126
8.3929e-07
0.000654953
2.01724e-07
5.83072e-07
2.36332e-07
2.34926e-07
4.81564e-07
2.60479e-07
0.000407399
6.04465e-07
-0.00283957
0.000822461
3.95715e-07
0.00125954
2.67292e-07
8.69695e-08
2.49637e-07
0.00048787
0.000412822
4.95335e-07
0.000362212
-0.000807309
8.42653e-08
2.4429e-07
4.858e-07
0.00366187
0.000109815
6.4073e-07
2.3572e-07
3.38433e-07
1.37332e-06
4.76166e-07
1.56287e-06
4.39962e-07
3.76609e-07
3.1146e-07
9.81863e-08
4.86313e-07
5.37594e-07
0.00148888
4.89756e-07
4.16601e-07
0.000380802
2.36255e-06
-0.000663836
4.59762e-07
6.93564e-07
4.58081e-07
1.64963e-05
1.20686e-07
6.21892e-07
0.00230797
-2.78829e-05
2.41005e-07
4.90511e-07
1.30534e-07
1.71268e-07
1.70401e-07
1.32723e-06
-8.8953e-07
-1.47206e-05
1.41014e-06
1.12917e-07
0.00312807
3.52382e-07
3.88618e-07
2.3013e-06
3.92092e-07
6.87785e-07
0.000153422
5.80374e-08
8.41288e-07
1.01563e-06
4.66971e-07
2.34146e-07
1.48054e-07
2.60792e-07
0.000366638
2.97392e-07
1.67928e-07
5.21441e-07
2.71752e-07
2.01458e-07
1.48444e-06
-1.10709e-05
1.71445e-06
0.000307394
9.03131e-07
0.0036067
1.69202e-07
6.42047e-07
0.00103517
2.13307e-07
7.10258e-07
1.66425e-07
8.61988e-08
2.07258e-07
5.14278e-07
1.05365e-06
2.343e-07
6.85905e-07
3.15939e-07
0.000862061
4.57956e-07
4.16333e-07
5.15158e-08
1.00972e-06
7.44372e-07
0.0018019
1.85918e-06
2.17774e-07
0.000818852
3.23617e-07
0.000399722
2.81724e-07
2.5143e-06
4.68927e-07
2.03709e-07
2.34951e-07
0.00149039
4.92898e-07
-4.99349e-07
0.000362411
1.56563e-07
4.57577e-07
-1.1888e-07
3.03736e-07
0.000700258
-1.19936e-07
0.000777598
3.32064e-07
2.78753e-06
1.21279e-06
9.07753e-07
8.67772e-08
8.92989e-08
1.21792e-06
1.21506e-07
3.18312e-07
3.97492e-07
2.91675e-07
5.25244e-07
8.4451e-08
1.61437e-06
3.83607e-07
0.000433057
0.000387826
3.30704e-06
0.00347527
0.000366373
0.000285171
-8.88406e-07
7.52163e-08
1.81971e-07
2.13026e-07
3.40591e-07
1.23237e-07
4.87982e-07
2.24424e-07
-8.33704e-07
3.1691e-07
0.00338585
2.87493e-07
4.59324e-07
1.07589e-06
2.23431e-07
7.47718e-07
3.2615e-07
1.61618e-07
4.52464e-07
1.12822e-07
0.00119833
9.85937e-07
-7.78602e-06
2.37564e-07
9.80632e-08
3.60862e-07
3.25679e-07
0.00100903
8.04361e-08
3.17645e-06
1.96071e-07
0.0003673
7.71743e-07
2.64634e-07
6.46326e-07
6.9475e-07
8.4478e-08
0.00107489
0.00236726
5.08776e-07
9.60463e-07
1.2354e-07
1.44335e-06
2.6445e-07
3.268e-07
0.000563714
1.29454e-07
2.78827e-07
1.32475e-06
0.000515543
6.59636e-07
-9.72984e-05
0.00195551
-1.56711e-07
5.04562e-07
2.9608e-07
0.00333994
9.24095e-08
1.79678e-06
2.27561e-07
0.000650366
7.61231e-07
0.00153069
2.58544e-07
-1.98612e-08
0.000325813
1.60489e-07
1.47282e-06
0.00202528
4.12092e-07
1.01377e-07
4.41928e-05
-1.70754e-07
1.72224e-07
9.79856e-07
4.1186e-07
0.00219526
7.2322e-07
7.5023e-07
3.35087e-06
3.38503e-07
0.000754803
3.96827e-07
8.88489e-07
1.22952e-07
0.000339077
-3.92508e-05
2.00275e-07
2.91914e-07
1.78531e-07
3.21336e-07
2.14917e-07
1.21661e-07
1.27955e-07
2.17764e-07
5.46781e-07
5.78478e-08
3.97963e-07
9.04716e-07
0.000871094
0.00162257
1.00746e-06
3.65268e-07
0.000166637
1.81994e-07
0.000989292
-0.000321471
0.000483342
9.3849e-08
7.93152e-08
1.06642e-07
3.27346e-07
8.89127e-08
-1.61576e-08
1.72099e-07
6.75328e-07
1.01891e-07
0.000303426
3.52005e-05
1.45835e-07
0.00161731
1.29822e-07
2.58717e-07
3.74669e-07
0.000831195
8.86294e-07
-1.44897e-08
0.000848292
2.14063e-07
2.55656e-07
0.0039544
1.97479e-07
6.91916e-05
2.82068e-07
8.63034e-07
1.71354e-07
6.44311e-08
6.40521e-07
6.50332e-07
3.70344e-07
0.000612083
9.34167e-07
1.17259e-07
5.32702e-07
1.12812e-07
1.37096e-07
1.19892e-06
4.84233e-07
4.58915e-07
0.000538336
0.000416968
6.66963e-07
1.1586e-06
1.27389e-07
0.000412582
7.92156e-08
0.00126736
8.34117e-07
4.05611e-07
3.57867e-07
0.001397
0.000344997
0.00422569
1.90601e-07
0.000517
2.05165e-07
2.23236e-07
4.82779e-07
3.75633e-07
2.29105e-07
9.64287e-07
0.000451618
7.89657e-08
3.86922e-07
0.000514619
-1.42706e-06
7.45682e-08
-0.000329668
0.00115717
3.28193e-07
-1.02205e-06
4.42155e-07
1.82518e-07
2.50685e-07
1.34391e-06
5.86118e-07
2.12125e-07
-0.00125536
8.41941e-07
-2.17e-05
-0.000159774
8.11679e-07
0.000384837
2.03474e-07
2.85177e-07
2.0435e-05
0.000530474
2.68628e-05
6.69713e-06
6.74866e-07
1.96072e-07
2.85086e-07
6.77965e-07
0.00167971
4.52847e-07
3.77859e-07
6.75061e-07
2.56719e-07
-0.000194688
9.87975e-07
1.78388e-06
6.13224e-07
0.000134581
-0.000264355
0.00175604
0.000988142
1.66348e-07
0.000203177
7.81866e-08
7.92828e-07
9.77579e-07
0.00142124
4.0254e-07
1.90003e-07
4.54813e-07
-3.48551e-06
4.34979e-07
0.00117456
6.33549e-07
1.03558e-06
0.00131097
9.10374e-08
1.21716e-06
4.28715e-07
3.31814e-07
5.88147e-07
-2.00157e-05
1.39598e-08
1.00037e-07
3.56151e-07
0.00412901
1.08768e-07
4.18596e-07
2.97593e-07
3.89444e-07
2.69016e-07
1.13315e-06
6.97692e-07
3.8381e-07
2.30644e-07
1.5435e-06
5.7229e-05
6.92997e-07
0.000868441
2.25305e-07
1.06963e-07
0.00035689
1.70769e-07
4.34807e-07
0.00107899
0.000385502
1.06113e-06
7.92459e-07
5.74249e-07
0.00042765
5.63464e-06
6.6846e-07
0.00296475
2.45287e-07
1.03718e-06
0.000954209
-5.34476e-05
-0.000373031
-0.000293593
1.35167e-07
3.20003e-07
3.03397e-07
2.65203e-07
3.37038e-07
0.00155407
1.15308e-07
6.87872e-07
6.78996e-08
5.67837e-07
0.00132828
4.16032e-07
0.00224368
0.000387654
1.22247e-07
7.24101e-07
6.09804e-07
3.92774e-07
1.86531e-07
0.000347646
9.15757e-07
0.00049555
5.47428e-07
0.000658576
1.02996e-06
5.64176e-07
1.67381e-06
6.31572e-07
1.10564e-06
2.73723e-07
-0.00013537
1.86297e-07
5.12427e-07
7.35742e-07
5.8283e-07
1.95712e-07
7.02744e-07
0.00146909
1.4658e-07
2.37948e-06
-2.32508e-07
3.19378e-07
1.72821e-07
-8.21025e-07
0.00434794
0.000428926
1.82164e-07
4.33601e-07
-2.81186e-06
3.29561e-06
5.04931e-06
2.19525e-07
7.94654e-08
1.32853e-07
1.1351e-07
9.42362e-08
4.77119e-07
0.00429528
3.39741e-07
3.65643e-07
-1.73179e-05
-2.14964e-07
1.05874e-06
0.001264
0.000743602
2.00708e-07
8.84515e-08
7.72348e-08
3.9307e-07
6.8682e-07
0.00150901
-2.37416e-05
1.143e-06
6.32115e-07
6.34034e-07
2.97392e-07
-7.31141e-06
5.08453e-07
1.60457e-06
2.01924e-07
1.18595e-06
-1.00139e-05
1.51167e-07
1.85433e-07
0.000972555
7.08433e-07
-1.85638e-05
0.000855475
1.10965e-06
2.38829e-07
0.000891257
1.03176e-07
6.93147e-08
0.00209255
-0.00233644
1.99105e-07
1.05718e-06
1.5067e-06
6.74934e-07
2.93285e-07
8.42931e-08
1.84414e-07
1.62489e-07
1.4797e-07
5.45253e-07
7.91845e-07
0.000367703
6.83269e-07
4.39742e-07
5.0514e-07
1.02397e-06
2.22755e-07
6.94796e-07
1.69856e-05
2.86772e-05
0.000747999
4.31874e-07
8.41915e-08
0.000327859
8.60433e-08
-6.74523e-05
3.35845e-07
7.50238e-07
3.01301e-07
8.80941e-08
0.00252024
4.73368e-07
4.4345e-07
9.2431e-08
0.00117015
0.00237768
0.000532384
3.07171e-07
3.20208e-07
-0.000147739
-7.07701e-10
1.57844e-07
1.0011e-06
-0.00193985
5.25213e-07
5.94005e-07
2.85913e-07
0.00398683
9.35399e-08
6.63847e-07
1.93729e-07
8.18165e-08
0.0001507
1.04962e-07
1.50713e-07
-1.86374e-05
6.48842e-07
0.00128234
3.18132e-06
8.3727e-08
5.16485e-07
1.9933e-07
2.32255e-07
5.24821e-07
1.83601e-07
2.67467e-07
-4.63077e-05
2.22557e-07
9.23963e-07
6.06077e-07
-1.55335e-06
1.7763e-07
9.62401e-07
2.5478e-07
0.000283251
4.14967e-08
4.73752e-07
8.48978e-07
2.08144e-07
6.58671e-07
5.8502e-07
5.30879e-07
2.87894e-07
3.46794e-07
1.48963e-07
1.5281e-07
-0.00202775
6.83295e-07
5.40011e-07
6.44662e-08
2.23169e-07
-1.75939e-07
9.36963e-07
2.51633e-07
0.00139008
6.86651e-07
6.56606e-08
5.57802e-08
1.10257e-07
6.90897e-07
3.62056e-06
0.00035986
7.271e-07
-0.000207598
-1.29844e-06
1.08844e-06
5.61405e-07
0.0021062
6.88781e-08
2.65627e-08
4.59963e-07
0.000349943
1.16338e-07
0.000867452
3.29896e-07
8.1892e-08
8.55135e-07
2.1528e-05
0.000396237
-1.56151e-05
4.53847e-07
5.07416e-06
3.62193e-06
1.35038e-07
0.00205744
1.27822e-07
-2.28204e-08
0.000873514
9.29989e-08
0.00101152
-1.86353e-05
1.82696e-07
2.28178e-07
1.2422e-07
0.00152128
1.00945e-07
8.4883e-08
9.15037e-07
8.8956e-08
1.87668e-07
1.09879e-06
1.41198e-07
5.9812e-07
2.09057e-07
4.80282e-07
6.71007e-08
-0.000319959
1.37519e-06
7.11132e-08
7.38504e-08
3.26455e-07
5.81076e-08
3.34052e-07
3.20045e-07
1.70177e-07
2.05692e-07
1.04514e-07
3.78087e-07
2.58027e-07
8.20954e-07
1.11905e-07
9.98623e-07
3.2942e-07
5.66453e-07
1.71226e-07
2.59177e-07
2.61094e-07
3.67835e-08
7.11917e-07
7.65549e-07
3.51523e-07
0.0012828
-1.36062e-05
0.000968661
0.00122371
9.61391e-07
0.00339381
3.28592e-07
2.64922e-07
-0.000692695
0.00135548
-1.21457e-07
0.000503704
1.32793e-07
1.36392e-06
-0.00102327
3.4179e-07
1.11729e-06
0.00072401
0.000320503
9.80769e-08
5.98487e-07
1.55989e-07
-2.26318e-05
3.65295e-07
0.00112942
0.000406002
2.64537e-07
9.70784e-07
-1.06492e-05
2.0991e-07
0.00154303
-0.00116107
4.10013e-07
8.09517e-08
-2.62825e-05
0.000431559
1.35054e-07
5.18803e-07
3.77772e-07
3.80111e-06
6.3244e-07
2.95466e-07
1.83624e-07
0.00410035
2.25523e-07
1.22319e-07
2.55341e-07
1.06656e-07
0.000879304
9.30734e-07
4.96829e-07
0.000450396
1.45985e-07
9.90444e-07
1.74146e-07
0.000334633
7.54056e-07
-1.9554e-05
1.60869e-07
4.66518e-07
-1.93923e-07
9.97301e-08
2.94321e-07
2.91161e-07
0.00228816
3.78516e-07
1.22789e-07
1.45014e-07
-0.00238939
8.47409e-08
0.00202865
0.0017991
0.000579348
2.8937e-07
2.03714e-07
1.12273e-07
-7.1097e-05
3.29734e-07
0.00406481
1.02412e-07
5.48964e-07
4.12869e-07
1.67075e-07
0.00497378
3.19113e-07
1.66719e-07
0.000420318
1.5873e-06
0.000904791
1.75864e-07
0.00247346
0.000245953
3.231e-07
0.000559574
3.45105e-07
7.03443e-07
0.000814764
5.28446e-07
7.0037e-07
0.000551885
6.43977e-07
8.62485e-07
1.71975e-07
0.00398402
1.3893e-07
0.00204614
1.00801e-07
0.000465223
1.42135e-07
5.34106e-08
4.40603e-07
0.000741863
2.13544e-07
-1.13408e-05
9.30735e-07
0.000618984
1.83232e-07
6.09869e-07
0.00165886
-7.01516e-07
0.000384709
9.59528e-07
1.72461e-07
1.54976e-06
1.52534e-06
5.10698e-07
0.00150568
3.45077e-09
2.51523e-06
0.000392577
2.17832e-07
0.000215093
5.6316e-08
0.00281157
0.000578857
4.30668e-07
5.51128e-07
0.00171253
-0.000591233
8.56367e-08
3.33835e-07
1.148e-07
3.17653e-07
0.00294461
8.35196e-07
0.00231134
2.90095e-07
5.20276e-07
0.00105276
2.34759e-07
-6.74307e-05
0.00431056
7.90361e-08
1.00705e-07
-1.32238e-05
0.00148946
0.00132285
-0.000915022
-4.59797e-05
7.34657e-07
1.973e-06
0.00186289
0.00105682
-0.00124972
8.17404e-08
1.02889e-06
6.90342e-07
9.04481e-07
2.78132e-07
3.82978e-07
7.91247e-07
9.04734e-07
0.000180217
-1.63413e-07
3.55108e-06
0.000472285
7.86106e-07
9.36597e-08
1.05755e-07
-7.13994e-07
2.08183e-07
0.00107405
5.38126e-07
-1.0075e-06
3.56817e-06
-7.69534e-06
6.99019e-08
6.42e-07
5.00748e-07
2.68966e-07
0.00178465
2.76438e-07
0.00133498
1.84782e-07
0.000660463
0.00165127
-1.81065e-05
3.87978e-08
5.20201e-07
6.58205e-07
2.40412e-06
1.31595e-06
8.04523e-07
0.00290173
-2.68901e-06
-1.41986e-07
4.84515e-07
1.81118e-07
1.22848e-06
0.000367414
-4.3559e-07
6.54412e-08
3.60897e-07
-0.000275079
4.10813e-06
1.88395e-07
7.92555e-07
5.49087e-06
9.59024e-08
-1.68881e-06
4.86753e-07
0.00140517
8.45692e-07
-9.21175e-06
0.00403593
4.96632e-07
5.2036e-07
0.00176765
1.75043e-07
7.91789e-07
0.000734556
2.99464e-07
1.30654e-06
4.66573e-07
6.55209e-07
0.0015837
0.00250662
1.80469e-07
-0.0013765
-1.52073e-08
9.18139e-08
2.29911e-06
8.78968e-07
1.23683e-06
0.00201815
-3.0924e-05
-0.000920172
1.3025e-06
0.000827882
5.21382e-07
6.63786e-07
-1.40733e-06
1.94461e-07
2.6128e-07
1.37836e-07
0.00175894
1.04634e-06
1.84781e-08
5.69107e-07
4.38526e-06
1.63962e-07
-0.000793951
0.00205367
-2.36392e-07
3.27961e-07
-1.72156e-06
4.0894e-07
5.89394e-07
1.3973e-07
0.000701651
5.05467e-07
9.12859e-07
5.97652e-07
8.87096e-07
1.85599e-06
7.36033e-07
2.86001e-05
2.73452e-07
4.14206e-07
-4.5187e-09
1.9008e-07
0.00182676
1.19613e-06
6.01407e-07
0.00069972
2.97422e-07
4.05872e-07
6.73747e-07
1.41852e-07
1.26734e-07
1.02927e-06
4.40242e-07
0.00061863
0.00119915
0.0010684
1.54068e-07
0.000921107
1.78123e-07
0.00317661
6.7106e-08
3.47828e-06
0.00145198
1.13919e-07
-1.21201e-05
0.000489318
6.68533e-07
1.70218e-07
-1.26853e-08
5.62308e-07
0.00195039
1.00557e-07
2.19692e-07
9.00032e-08
1.42733e-07
-3.1829e-05
2.01352e-07
4.59697e-07
8.03098e-08
1.00677e-07
0.0017508
6.22104e-07
6.29598e-07
1.32043e-06
-4.4641e-07
0.00128252
-0.00226111
1.53983e-07
4.44989e-07
0.000721773
2.80529e-07
8.41348e-07
1.62552e-07
0.00305079
3.27299e-07
3.33334e-07
8.63795e-07
0.0017038
9.1604e-08
1.62545e-07
6.53398e-08
8.67381e-06
0.000290929
1.26628e-06
7.38428e-08
5.56208e-07
1.08909e-07
0.000381737
-2.08773e-06
0.00308336
6.57201e-07
2.98633e-07
5.56198e-05
7.0278e-07
0.000320222
1.94948e-07
1.48589e-07
5.81158e-07
7.25503e-07
9.37169e-07
2.09013e-07
3.57633e-07
3.11787e-07
0.000926441
1.16972e-07
1.62355e-07
0.00253681
4.17539e-07
4.24796e-07
4.03747e-07
2.44477e-07
1.8191e-07
-0.000797248
2.84154e-07
0.000697882
-0.00191911
-1.85801e-08
7.89441e-05
2.96916e-07
1.2686e-06
7.4282e-07
1.85724e-07
3.81419e-08
-3.00017e-08
1.37935e-07
-0.00100895
5.90203e-07
0.000246005
0.000951991
1.60078e-07
-2.36065e-06
7.29298e-07
0.0033026
1.96263e-07
-8.87263e-07
0.00233632
0.00330716
8.65314e-08
3.49609e-07
2.75529e-07
5.15401e-07
0.0018178
-5.00898e-07
5.1011e-08
5.35311e-07
0.00060535
2.02888e-07
3.48122e-07
4.65392e-07
1.44207e-06
0.0020451
6.71251e-08
0.00143468
9.09357e-07
8.9087e-08
0.00222032
6.69624e-07
0.000111223
-0.00200476
6.6079e-07
6.96428e-07
1.69499e-07
5.76549e-07
3.84413e-07
5.87214e-07
8.38095e-07
1.72605e-07
3.89296e-07
-0.0108692
0.00137456
9.4581e-08
1.22624e-06
0.00101828
0.000108638
1.68954e-07
2.22913e-07
-0.00220801
0.00345337
7.22927e-08
2.67682e-07
0.000612108
6.84661e-07
-7.20686e-10
0.000383984
5.41878e-07
3.54692e-07
0.000150045
2.87942e-07
9.33355e-07
1.94091e-07
-5.13052e-08
2.95172e-07
6.61842e-08
0.00225347
3.49579e-08
9.02479e-08
9.85298e-07
3.51251e-07
5.40102e-07
2.54605e-06
2.99606e-07
8.1612e-08
3.91895e-07
3.60697e-07
-0.000623089
-0.000107598
0.00323878
-0.00201487
1.06489e-06
0.00126776
1.09547e-06
0.00144597
0.00121515
0.00211569
1.57302e-07
6.57073e-07
2.0033e-07
3.23678e-07
1.8571e-07
2.08412e-07
-4.90631e-05
6.1264e-07
7.51357e-07
1.55742e-07
9.96948e-08
5.80251e-07
2.29944e-07
3.64182e-07
3.08432e-07
0.00032421
6.02506e-07
0.000338039
1.51476e-07
-0.00197781
3.60515e-07
3.18842e-07
4.26207e-07
5.85906e-07
1.84012e-07
1.04865e-06
0.000776947
7.6313e-07
0.000367047
0.000307752
3.23497e-07
5.15809e-07
0.000561921
1.16599e-06
5.60228e-08
1.82855e-07
-2.56437e-08
0.000929479
-6.67417e-08
1.3269e-07
5.02355e-07
1.02937e-06
0.000156705
0.000253553
7.76397e-07
0.00166237
1.41042e-07
5.63236e-08
8.80796e-05
0.00404087
2.81299e-07
1.70126e-07
-0.000406657
8.1647e-08
-4.50267e-06
2.16255e-07
-2.01972e-06
5.1098e-07
2.19416e-07
9.21724e-07
0.000852458
0.000635678
4.07257e-07
9.58625e-08
1.07376e-06
3.41653e-07
9.4292e-07
1.29081e-07
1.69964e-06
1.16831e-06
3.59437e-07
3.45388e-07
-2.48532e-09
1.01828e-06
2.21101e-06
-4.12251e-05
0.00132302
5.75481e-07
0.00334368
9.38851e-07
1.25475e-06
0.00288837
1.89524e-07
0.00103841
3.25487e-07
0.000284159
0.00193812
0.000974194
0.00270288
2.29746e-07
7.55814e-07
8.67302e-05
2.83176e-07
0.000508509
3.00006e-07
2.3557e-07
3.99531e-07
2.7445e-07
5.03352e-07
0.00355129
0.0042111
0.000866269
4.58674e-07
7.58504e-07
3.74627e-07
3.05508e-07
1.77071e-07
6.2113e-07
1.05967e-06
0.00129087
7.34558e-07
4.20902e-08
1.13365e-07
4.08341e-07
0.000140062
5.01573e-07
4.4172e-07
4.67072e-07
1.2644e-06
5.22442e-07
7.54018e-07
1.19968e-06
0.0011911
5.72892e-07
5.59529e-07
1.89607e-07
3.95996e-07
-1.73911e-05
-1.05097e-06
8.47231e-07
1.43287e-07
0.00213997
6.00147e-07
2.58763e-07
7.10254e-07
0.000938771
0.000163415
6.75684e-07
8.17677e-08
0.00112151
3.63358e-07
9.70097e-08
6.03323e-08
0.00117704
0.00224566
3.38787e-07
0.00199512
0.00267823
2.90358e-07
1.12243e-06
7.90026e-07
0.00126139
5.99461e-07
0.00194004
3.79805e-07
4.1743e-06
-7.4851e-07
0.00220357
5.93477e-07
1.77139e-07
0.00096346
1.02399e-07
3.56811e-07
0.00045899
0.00404728
6.85147e-07
0.00054168
3.42231e-07
3.22412e-07
0.00301267
2.62767e-07
1.03283e-07
1.71396e-07
6.92682e-07
1.85201e-07
7.10316e-07
2.94339e-07
-1.40471e-05
0.00368906
2.70679e-07
0.000483477
3.01349e-07
0.00079204
0.000400137
1.92283e-07
2.21987e-07
3.92363e-07
-3.51302e-06
-6.07197e-05
8.81232e-07
0.000870578
0.00117916
-1.10226e-06
2.84494e-07
0.00408528
0.000646964
1.89241e-06
0.00315222
3.2037e-07
2.78871e-07
1.60931e-07
4.21854e-07
7.70003e-08
5.5347e-07
0.000593162
8.93343e-07
-0.00223423
0.000564229
0.00435139
0.00117223
0.00135343
9.38074e-07
0.00182247
1.521e-06
8.94463e-07
6.38461e-08
2.91521e-07
8.50004e-07
0.00038062
3.89388e-07
0.00200003
0.00118201
1.88025e-07
2.0172e-07
1.75971e-07
1.04887e-06
3.77994e-07
9.2943e-07
0.00101161
8.98004e-08
4.17707e-08
1.67835e-07
3.13204e-07
1.32815e-06
0.000713203
7.25024e-07
0.00378041
1.2658e-06
1.53871e-07
-0.000701224
9.70714e-07
1.91139e-07
0.00220537
0.00345821
0.00139076
0.000420097
0.000475098
2.81224e-07
0.00348348
0.000685416
6.75125e-06
0.00342763
1.93359e-07
4.39972e-07
4.37624e-07
3.08172e-07
0.00306328
8.58929e-07
2.24222e-07
5.12287e-07
-0.00166201
0.00060662
2.74801e-07
2.22792e-07
0.000901578
0.00140815
1.95244e-07
5.68999e-07
1.28703e-06
9.99327e-08
8.15894e-08
0.00146044
1.6565e-07
0.00096044
-0.00125348
0.00301393
1.71633e-07
1.04793e-06
4.28061e-06
2.49409e-07
-6.13355e-09
0.000831792
0.00144354
3.14262e-07
7.61096e-07
2.70029e-06
-3.19889e-05
0.00147027
0.00131405
4.86838e-07
-1.18541e-05
0.00052368
6.47775e-07
8.03278e-08
5.11092e-07
6.15743e-08
3.02628e-08
0.000572704
7.26744e-07
1.11748e-06
3.85264e-07
4.05708e-07
2.09115e-07
9.42662e-08
2.68343e-07
2.91945e-07
0.00214995
3.73169e-07
0.00064008
0.000460141
7.28118e-07
9.55344e-07
0.00182735
0.00240684
0.00209892
3.25444e-07
3.99468e-07
6.5515e-07
4.79684e-07
-2.02833e-06
0.00198743
2.59595e-07
0.000856807
0.000457263
5.25722e-07
1.14065e-06
9.50853e-07
1.33036e-06
1.27659e-06
3.23189e-07
1.73922e-06
1.89339e-06
5.65652e-06
6.65266e-06
1.96313e-06
1.07805e-06
6.04668e-07
8.47023e-08
5.86467e-07
1.19201e-06
1.79645e-07
2.44719e-05
0.00160979
-6.40904e-06
0.00109006
-1.06613e-08
1.46724e-07
3.88871e-06
0.00272824
2.80748e-07
4.89653e-07
6.43347e-07
0.000574356
-0.00111771
2.94148e-07
6.80702e-07
4.36896e-07
-8.78952e-05
-0.000750046
3.2998e-07
0.000662879
0.000634027
1.43473e-06
0.00174812
1.17318e-06
-4.26078e-06
0.00157399
-1.09288e-07
0.00202335
0.000515418
3.74847e-07
9.04805e-07
1.13523e-06
7.06836e-07
1.93206e-07
-8.05155e-06
-0.000517137
9.92946e-08
9.93494e-08
0.0015145
0.00367688
9.45044e-07
2.87226e-07
-0.00494269
2.1834e-06
0.00108511
0.000293173
1.9146e-07
8.7782e-08
2.80214e-07
1.12986e-07
0.0021615
-0.000439221
0.00174079
1.04817e-06
0.000751535
-0.000110964
1.12255e-07
8.70274e-08
0.000577057
1.88576e-07
0.00191761
-1.94587e-06
0.00158929
3.06658e-07
4.1781e-07
-0.000405783
1.17629e-07
2.04316e-06
0.00259289
3.23231e-07
5.21775e-07
3.20413e-07
-4.03048e-05
0.000550418
5.08176e-06
0.000886292
9.6861e-08
1.01509e-07
4.71494e-07
9.26953e-07
0.00178336
0.000799877
1.14787e-06
-8.52933e-05
1.26618e-06
0.00288364
7.80202e-07
1.78113e-07
9.46881e-08
6.49958e-08
0.000108521
4.64767e-07
9.33716e-06
7.59462e-07
1.14955e-06
2.49496e-07
0.000653059
2.70632e-07
-9.79876e-05
6.93213e-08
3.38115e-07
-4.90362e-08
0.000733004
4.71173e-06
0.0014084
2.59959e-05
1.50924e-06
0.00051876
-1.40231e-08
6.08461e-07
4.85066e-06
0.000329105
0.00341033
9.7548e-08
3.16743e-06
4.00935e-07
3.04719e-07
1.17863e-06
-0.00174617
0.000271233
3.6975e-07
1.03378e-06
-6.30174e-06
0.0011417
0.00041035
0.00241571
0.00296463
2.30802e-07
7.96992e-07
2.83175e-07
5.37282e-06
1.98257e-07
1.23608e-06
5.52088e-07
7.05394e-07
8.91145e-05
0.00231676
2.37969e-07
1.60959e-06
0.000549528
1.63032e-06
5.63655e-07
0.000428919
1.32747e-06
1.78536e-07
3.27366e-07
0.00303964
5.27348e-07
9.30965e-07
0.00202593
-6.10693e-06
0.000495686
3.27726e-07
0.00246995
0.000807659
-0.00115597
-6.60154e-06
5.69077e-07
1.60318e-06
1.34863e-06
0.00261125
5.59052e-07
2.73089e-07
0.00316401
1.2074e-06
8.93374e-05
5.66096e-07
0.000842535
-3.9223e-06
0.00356369
3.87697e-07
-0.00526653
4.49461e-07
0.000669819
5.96402e-06
0.00291524
0.000431034
8.53657e-08
-6.53895e-08
0.000587954
0.00213809
8.56431e-07
2.71416e-07
7.63616e-07
8.55964e-07
0.00277521
3.48901e-07
0.000482494
5.04348e-07
0.000415975
1.08583e-06
-0.000694773
2.69803e-07
1.19771e-06
0.000951045
1.4917e-07
9.08926e-07
2.16189e-09
3.90675e-07
1.96856e-07
0.000451147
2.46714e-07
1.63648e-07
0.00166336
0.00352376
6.24398e-08
0.0019298
3.13583e-07
2.96022e-07
1.72682e-07
2.01059e-07
2.03863e-07
0.00317095
0.0013515
1.1714e-07
-1.89187e-06
8.2516e-07
5.86542e-07
0.00219007
1.03484e-06
4.85746e-07
4.96425e-07
5.76575e-08
0.000403311
6.67895e-07
0.00181007
1.73218e-07
0.00333103
0.00242715
9.01783e-07
0.00425229
0.000350068
7.848e-08
0.000435921
7.64342e-07
8.664e-07
1.5419e-06
2.699e-07
5.55224e-07
3.97393e-05
1.97851e-07
2.91952e-06
3.94197e-08
0.00285049
3.74735e-06
0.00170966
-2.26036e-05
-1.26615e-05
0.0017038
2.74612e-07
1.93903e-07
7.72375e-07
3.80466e-07
2.19288e-07
2.20846e-07
5.48272e-07
2.36827e-07
1.08583e-07
3.60704e-07
7.95373e-07
3.97633e-07
5.6312e-07
2.01281e-07
1.2134e-06
1.35797e-06
4.14138e-07
0.00275364
3.94021e-07
1.6267e-07