/*--------------------------------*- C++ -*----------------------------------*\
| =========                 |                                                 |
| \\      /  F ield         | OpenFOAM: The Open Source CFD Toolbox           |
|  \\    /   O peration     | Version:  v2012                                 |
|   \\  /    A nd           | Website:  www.openfoam.com                      |
|    \\/     M anipulation  |                                                 |
\*---------------------------------------------------------------------------*/
FoamFile
{
    version     2.0;
    format      ascii;
    class       volVectorField;
    location    "750";
    object      ddt0(U);
}
// * * * * * * * * * * * * * * * * * * * * * * * * * * * * * * * * * * * * * //

dimensions      [0 1 -2 0 0 0 0];


internalField   nonuniform List<vector> 
13917
(
(-0.0200568 -0.00122611 3.44506e-18)
(-0.000116164 0.00205671 -1.86524e-19)
(0.00724353 0.00541626 -1.08658e-17)
(0.00102537 0.000680509 3.56649e-18)
(-0.000377981 -0.000489841 -1.02558e-18)
(-0.000211114 0.00203403 -3.52219e-19)
(0.00192956 0.00122951 6.57903e-18)
(0.000794159 0.00180049 -4.62208e-19)
(0.00216274 0.000528462 -8.89476e-18)
(-0.000205011 0.0005686 4.81042e-18)
(0.000693962 0.00185499 -2.42856e-19)
(0.000564839 0.000646438 -4.22358e-18)
(0.000245421 6.77312e-06 1.82712e-19)
(-0.00321604 -0.00162966 4.61208e-19)
(-0.000606245 0.00131687 -2.44644e-18)
(-0.0197261 -0.00118677 -8.54043e-19)
(-0.000349954 8.20462e-06 3.31536e-21)
(0.000485288 0.00180525 -9.77654e-20)
(0.00337408 0.00363223 1.39503e-18)
(-0.0192311 -0.00191942 -1.09244e-17)
(0.000450637 0.00186552 -5.01631e-18)
(-0.000256143 0.00027334 1.13404e-18)
(0.00274791 0.00213416 -1.99135e-17)
(-0.000252365 0.000254708 -1.51013e-18)
(0.000973754 0.00110269 -7.50956e-18)
(0.000354982 0.00186018 2.98954e-18)
(-0.00177052 0.00504708 5.94597e-20)
(-3.11834e-05 0.00022838 -4.88178e-19)
(0.000245977 0.00182106 2.11513e-19)
(-0.00171444 0.000562779 -3.17137e-20)
(-0.000848267 0.000471372 -6.0229e-18)
(0.00393688 0.00231492 -4.85348e-18)
(0.000833662 0.00082772 1.38037e-17)
(-0.0204197 -0.00114436 1.82531e-17)
(-2.93132e-05 -0.000101347 6.10279e-20)
(0.00105334 0.00183884 1.9342e-19)
(0.000320939 0.00127575 -1.57955e-18)
(-9.6641e-05 2.5541e-06 -9.73484e-19)
(0.00196691 0.00121579 -7.00263e-18)
(0.000884233 0.00222223 5.56678e-18)
(-0.000470837 1.29135e-05 -2.5995e-19)
(0.00049998 3.60893e-05 -1.11768e-19)
(0.00180492 0.000428766 1.74598e-17)
(0.00393542 0.00348196 -3.00649e-18)
(0.0038915 0.00345961 -1.55648e-18)
(0.00354702 0.00339993 -2.22933e-18)
(0.000476657 0.00182955 1.67546e-18)
(-0.012074 -0.000921 8.7378e-18)
(0.00619791 0.0054745 -3.13698e-19)
(-4.47792e-05 -0.000101387 -4.83728e-19)
(0.000533612 0.000629535 6.18887e-18)
(0.00218605 0.00315374 -5.3518e-18)
(-0.0188284 -0.00121319 1.03388e-17)
(0.000145478 0.000644016 -1.76994e-18)
(0.000213941 0.00069661 1.88122e-18)
(0.00221685 0.0031614 2.21842e-18)
(0.00184842 -0.000248953 6.22252e-18)
(0.00268696 0.00215236 7.88614e-18)
(0.000452164 0.000121491 8.86063e-20)
(0.00376543 0.00332063 6.13509e-19)
(-0.0151129 -0.00307218 1.37842e-18)
(0.000615347 -0.00143072 1.12699e-19)
(-0.00124204 7.56232e-06 -2.13852e-21)
(0.000958806 0.00106904 -1.55891e-17)
(-0.0223163 0.000113012 -1.02294e-17)
(0.0109759 0.00232499 1.49357e-19)
(0.00028117 0.00180478 7.24215e-19)
(0.00109706 0.00202367 5.32992e-19)
(0.000562962 0.00174118 1.39429e-19)
(-0.0198724 -0.00129149 -1.10435e-17)
(-0.0211564 0.000970853 -1.099e-17)
(-0.0202733 -0.00119143 -1.54779e-18)
(0.000836633 0.000316238 -4.92377e-18)
(0.000360703 0.00012859 6.22985e-19)
(0.000471254 0.00190994 2.65923e-18)
(0.000789384 0.00124306 5.99022e-18)
(-0.000465433 -4.1051e-05 4.47581e-19)
(0.000312726 0.000181797 -3.70118e-19)
(0.000785619 0.00120834 1.87693e-18)
(0.000859615 0.00085054 2.41926e-18)
(-0.000135077 0.000723525 3.27444e-18)
(-0.000296943 5.12847e-06 1.29681e-19)
(0.000796081 0.00029699 2.70691e-18)
(-0.0232965 0.000335937 -5.23481e-18)
(0.000104725 0.000104975 -4.77712e-18)
(-0.000104231 0.00112064 1.04492e-19)
(0.00388524 0.00224587 1.46731e-17)
(0.000104335 4.93334e-05 -1.64815e-18)
(0.000841157 0.00217678 -4.28765e-18)
(-0.000392035 1.17479e-05 1.80088e-20)
(-0.000474142 3.86598e-05 5.29639e-19)
(0.00189407 0.00042532 4.36311e-18)
(0.00834303 0.00600039 -1.99116e-19)
(-4.13706e-05 -3.82709e-05 4.0356e-19)
(0.000131511 0.000865557 8.68965e-18)
(0.000250819 0.00180187 -3.18243e-19)
(-0.000595358 0.00423814 5.65519e-18)
(-0.000229891 -1.52862e-07 1.73295e-18)
(0.000108267 5.68711e-05 -2.13565e-18)
(1.43662e-05 0.00344754 -5.1825e-20)
(-0.000869365 9.59473e-06 1.27444e-19)
(-0.000960941 2.10228e-05 -1.48574e-19)
(-0.00012408 0.000759919 -5.02135e-18)
(-0.00025291 -1.35252e-07 -2.15973e-19)
(-0.000417983 -5.08125e-05 -2.57534e-18)
(-0.0266721 -0.00228438 1.33778e-17)
(-0.0189268 -0.00149564 -4.06483e-19)
(0.000986099 -0.00142957 -7.06456e-19)
(0.00062527 4.96737e-06 -3.37173e-19)
(-0.00353905 0.00520483 3.89144e-18)
(0.000337251 1.97873e-05 3.72645e-18)
(-0.020474 -0.00111174 -2.10705e-17)
(0.000232775 0.00183058 1.0871e-19)
(-0.00717392 7.06687e-05 -5.50994e-18)
(-0.0223396 0.000229234 8.25823e-18)
(0.000697687 0.00131875 4.47924e-19)
(0.00336893 0.00352643 -2.14411e-18)
(-0.000686789 4.43219e-05 5.56229e-20)
(0.00365727 0.00442083 1.76079e-18)
(0.000716047 0.000174148 -2.11047e-17)
(-0.000320706 6.89098e-06 -7.82545e-19)
(0.000161155 0.000122419 -4.76932e-19)
(0.000301905 0.00177291 -2.25794e-19)
(0.00266929 0.00318087 -3.09053e-19)
(-0.0195238 -0.00127565 6.11848e-19)
(-0.0239389 7.28328e-05 4.56373e-18)
(0.000973267 0.00101327 -7.01652e-18)
(0.000444469 0.00194325 -5.24779e-18)
(-0.000174264 1.9857e-05 4.58222e-19)
(0.00273806 0.00322603 1.94149e-18)
(0.00247183 0.00111509 1.15287e-17)
(0.00187183 0.00365292 -6.15267e-20)
(-0.0231242 -0.00222465 -1.45468e-17)
(0.000662021 0.00131956 -5.70304e-18)
(0.00421896 0.0026934 -1.74786e-17)
(-0.00373562 0.00519038 -3.31851e-18)
(-0.0137981 -0.00337939 -5.69283e-18)
(-0.0178837 -0.00128926 -2.20615e-17)
(0.000310399 0.00186302 4.83803e-18)
(-1.96546e-05 2.43003e-06 3.11287e-18)
(-0.00786693 -0.00900967 9.14455e-20)
(0.000240793 0.000169691 4.96072e-19)
(-0.0264935 -0.00232483 -1.10674e-17)
(-0.000137125 0.000232849 -1.63523e-19)
(0.000733628 0.000318138 7.79132e-18)
(0.0017197 0.000168025 3.86233e-19)
(-0.0211254 0.000887623 1.34384e-17)
(0.00600675 -0.00589834 5.12193e-19)
(-0.0133825 -0.00112581 -1.52427e-17)
(0.000160757 0.000671461 2.91842e-18)
(0.000841544 0.00206631 -6.21477e-18)
(-0.00107618 1.92571e-05 6.37498e-20)
(0.000715836 0.000296036 -4.26035e-18)
(0.000728472 0.000159935 -8.1989e-18)
(-0.00184829 0.00442684 -1.6506e-18)
(-0.000219014 4.01331e-05 -2.74839e-18)
(-0.000253937 1.25203e-08 6.92208e-19)
(-0.0224547 -0.00235218 -1.75802e-17)
(-0.000618383 1.78608e-05 -1.47639e-19)
(-0.000671888 3.78731e-05 3.70272e-20)
(6.38956e-06 0.000210767 -9.12108e-19)
(-0.0194291 -0.000824897 -7.77142e-18)
(0.000107542 0.00143505 -2.55026e-18)
(-0.00673152 -0.00980427 -9.74755e-21)
(-0.0179046 -0.00191089 7.02904e-18)
(-0.000461628 0.00380787 -4.93082e-19)
(-0.0137248 -0.00120587 7.95789e-19)
(-0.0161435 -0.00235528 1.24719e-17)
(-0.00153563 6.56296e-05 -1.43748e-21)
(0.000286549 0.00187726 7.21648e-19)
(-0.000263728 0.000218984 -2.46657e-18)
(-0.023151 -0.00161727 -1.69259e-17)
(0.00215714 0.000480814 1.18337e-17)
(-0.015546 -0.00234393 -1.16915e-18)
(0.00196439 0.00286673 3.53918e-19)
(-0.000856291 2.22606e-05 1.73007e-19)
(0.00105225 0.000661685 -1.36322e-17)
(0.00230774 0.00317992 -3.67728e-18)
(0.00256485 0.00107192 -1.61318e-17)
(0.000100127 0.0014668 2.36709e-18)
(0.00179182 0.000494624 -1.58453e-17)
(-0.000252555 0.000227128 3.11285e-18)
(0.000510544 0.000641313 -6.17085e-18)
(0.00244104 0.00327485 -6.79428e-18)
(0.00405458 0.00460958 -6.86608e-18)
(0.00196055 0.00378634 2.61611e-18)
(0.000492993 0.000626175 8.45997e-18)
(0.00242188 0.00329785 -1.27363e-17)
(-0.00165422 0.000522907 -2.60486e-21)
(2.25645e-05 0.00125729 3.85291e-19)
(0.00190925 0.00288941 -2.5954e-18)
(0.00406488 0.00333446 -2.26109e-17)
(0.0025075 0.00340342 2.34101e-18)
(-0.0199234 -0.00135355 3.03962e-17)
(-4.81027e-05 -4.32809e-05 6.71875e-19)
(-0.0197251 -0.00129905 1.48127e-17)
(0.00123782 0.00147181 8.42019e-19)
(-0.0238149 -0.0022717 4.13632e-18)
(-3.33756e-05 -8.95253e-05 2.3336e-19)
(-0.000224605 6.6707e-05 1.02424e-18)
(0.00051805 0.00175627 3.0057e-18)
(-0.0198064 -0.00130893 -2.64292e-18)
(-0.0177125 -0.00111133 6.06141e-19)
(0.000163255 0.00117194 -1.02278e-18)
(-0.00150601 0.00493746 2.84879e-18)
(0.00017094 0.00178208 -8.77351e-19)
(0.000876049 0.00210925 7.25651e-18)
(0.000220016 0.000115008 -9.1123e-19)
(0.00231456 0.00316772 1.92819e-18)
(-0.000168105 0.000702207 -7.27436e-19)
(-0.000186974 1.95606e-05 -1.80045e-19)
(-0.000157501 -0.000847834 -8.88699e-20)
(-0.000135302 -0.00094801 4.12827e-19)
(-0.0145906 -0.00129159 4.55659e-19)
(0.00410234 0.00259106 1.76627e-19)
(0.000335198 0.0018835 -2.57289e-18)
(-0.0202039 -0.000634752 5.82337e-18)
(-7.29459e-05 1.27581e-05 -2.1778e-18)
(-0.000327329 0.000266305 -3.98056e-19)
(-0.000339098 0.000274362 1.22391e-19)
(-0.0148608 -0.00208587 -5.42604e-18)
(0.00171125 0.00333109 1.14013e-17)
(0.00389246 0.00335798 9.6803e-18)
(0.000330039 8.87306e-05 3.54235e-18)
(-0.00107344 1.64758e-05 1.38764e-20)
(-0.00410287 0.00493853 -5.15931e-19)
(-0.0195711 -0.00131586 6.55916e-18)
(-0.000348793 0.000224671 -1.59635e-20)
(-0.000364065 0.000217011 2.37469e-19)
(-0.000416834 2.27603e-05 -1.64416e-19)
(-0.000329996 0.000294851 -9.83173e-19)
(-0.00034175 0.000303328 -1.42964e-19)
(-0.0202067 -0.00119421 4.42823e-18)
(-0.0180728 -0.00164098 2.33613e-18)
(-0.000221929 0.000473428 5.36513e-18)
(-0.00160596 0.000133789 -2.56699e-20)
(0.00232018 0.00290679 9.50927e-18)
(-0.0202549 -0.00126351 -3.44533e-18)
(-0.00053848 1.65697e-05 2.07518e-19)
(0.000326075 8.27424e-05 -2.76162e-18)
(-0.00234797 0.00480755 -2.60027e-18)
(-0.0266602 -0.00261528 1.06659e-17)
(0.00140688 0.00318815 8.63647e-18)
(-0.0201656 -0.000684722 -7.32674e-18)
(0.00199583 0.00311092 -5.53304e-18)
(-0.000133262 0.000242752 -1.70972e-18)
(-0.017556 -0.00229495 5.87379e-18)
(0.00235418 0.00293846 -1.19486e-17)
(0.000244683 0.00183847 -5.89306e-19)
(0.00326348 0.00288793 -7.5958e-18)
(0.000181343 0.00113811 3.12098e-18)
(-0.017571 -0.00154421 1.04933e-17)
(0.000744613 0.000209058 -2.09368e-18)
(0.0014711 0.00234601 7.38762e-18)
(0.0019594 0.0027808 6.05145e-19)
(-0.000255856 0.000449682 6.53737e-19)
(-0.000256717 6.78371e-06 4.72039e-19)
(0.000991766 0.00104663 1.09743e-17)
(-6.12755e-05 -0.000326197 1.1449e-18)
(7.40898e-05 -2.85017e-05 1.42332e-19)
(-0.0199513 -0.00138612 7.38392e-18)
(0.00489486 -0.00106785 1.53264e-18)
(7.4818e-05 3.4769e-06 6.85727e-19)
(-0.000360795 0.000197928 1.02252e-18)
(-0.000232066 3.32929e-05 2.39772e-18)
(-0.000349702 0.00019277 -3.70391e-19)
(0.000748203 0.000194942 8.38893e-18)
(0.000304761 1.27341e-05 8.37653e-19)
(0.00206197 0.00202901 -1.70591e-18)
(0.000101395 -1.86234e-05 -8.86942e-19)
(-0.0178463 -0.00110491 1.48896e-17)
(-0.0188776 -0.00142719 2.63902e-18)
(0.000339948 0.000507691 8.56661e-18)
(-0.000202659 -0.000205018 -1.0399e-18)
(0.00198722 0.00308005 -1.30919e-18)
(-0.000553394 0.000432842 -1.67222e-19)
(0.000129169 0.00317848 5.01502e-19)
(-0.0201335 -0.00144494 -1.12378e-18)
(-0.000537781 0.000422828 -2.41158e-19)
(-0.020045 -0.00128178 2.92274e-18)
(4.83264e-05 -2.04248e-05 -8.2518e-19)
(-0.0191204 -0.000794919 5.44892e-18)
(-0.000778623 1.72272e-05 -6.80022e-20)
(-0.000577812 0.0011066 9.8663e-19)
(-0.000283266 0.000456268 -7.49443e-19)
(-0.000163311 0.000188311 1.4296e-18)
(0.00269396 0.00388551 -1.21197e-17)
(-0.000176045 1.8801e-06 7.75891e-19)
(-0.000317308 0.00402905 -2.44847e-18)
(0.00113781 0.00173035 -5.79898e-18)
(0.00529159 -0.00238673 1.67101e-19)
(0.00194184 -9.19189e-05 -4.06372e-19)
(0.00164586 0.00498529 -1.03797e-19)
(-0.0175327 -0.00101065 7.22807e-18)
(-0.000601241 3.12033e-05 5.06981e-20)
(0.00249979 0.00246229 -8.53112e-18)
(-0.000161069 -0.000382449 3.07311e-19)
(0.000626599 0.00136958 -3.8396e-18)
(-0.000304424 -0.000434909 9.7949e-19)
(0.000826471 0.0011913 1.02544e-17)
(-1.13909e-05 -3.4188e-05 4.2992e-19)
(-0.000196065 2.25737e-06 1.14499e-18)
(0.00226031 0.00319137 1.11032e-17)
(0.000806379 0.00100349 1.11325e-18)
(0.00146143 0.00230855 -8.69243e-19)
(0.000817132 0.00116003 6.46332e-19)
(0.00031635 8.28858e-05 9.60261e-18)
(-0.0229452 -0.00237576 1.706e-17)
(-0.0196358 -0.00136386 3.9741e-19)
(-0.000168074 6.1779e-07 8.4477e-19)
(0.0019636 0.000897043 -5.38059e-22)
(0.000660669 0.00136938 4.44349e-18)
(0.00289173 -0.00110382 1.80043e-19)
(0.00548095 0.00324704 -3.57626e-17)
(-0.0191951 -0.00134783 9.06178e-18)
(-0.0157638 -0.00211699 -3.83734e-18)
(0.00967211 0.0105545 1.87043e-20)
(0.00174201 0.00359662 1.45263e-18)
(-0.000173739 -0.000174112 6.13027e-19)
(-0.0221432 0.000658542 -4.00022e-18)
(0.00391903 -0.00158198 -3.60907e-19)
(0.00758941 0.00520346 6.60038e-18)
(0.000308892 1.10481e-05 6.39001e-19)
(-0.000627871 0.0012387 3.22944e-18)
(-0.000571667 0.00484592 -2.90506e-19)
(-0.000280706 0.00015347 -2.11658e-18)
(-5.64884e-05 0.00211609 -2.47454e-19)
(0.00385942 0.00332202 1.23058e-17)
(-0.000395105 1.31096e-05 2.47649e-19)
(-0.0233077 -0.00156059 -6.36458e-18)
(0.000113639 8.01314e-05 -1.47517e-18)
(0.00354431 0.000986456 3.3233e-17)
(-0.000826281 0.000695141 2.35754e-19)
(-0.0179541 -0.0021171 1.68803e-18)
(-0.00019311 3.22109e-05 -2.05116e-18)
(0.00149913 0.00222214 -2.35491e-18)
(0.000201959 0.00179356 -1.74976e-19)
(0.00745138 0.0114039 -1.0486e-20)
(-0.000448347 1.46978e-05 -2.86134e-19)
(0.00336566 0.00284955 2.35629e-17)
(-0.0257579 -0.00147305 -3.47451e-18)
(0.000172258 0.000839933 -3.24686e-19)
(-0.000269265 0.000130495 -1.11472e-18)
(-0.0206738 -0.00105136 1.42332e-17)
(-0.0263019 -0.00189138 -2.08663e-17)
(-0.0167432 -0.000808677 -4.4712e-19)
(-0.0021046 -0.00138463 -6.00157e-19)
(-0.000537449 0.000389256 5.27887e-19)
(-0.000162861 0.000542793 5.99924e-18)
(-0.0267274 -0.0028413 5.5543e-18)
(0.00178936 0.0035167 -9.77636e-19)
(-0.00051433 0.000383594 -1.21483e-19)
(-0.000200205 -0.000451127 -9.82479e-19)
(0.000347376 0.00065981 -2.22803e-18)
(0.000239936 0.00218997 -8.30268e-19)
(0.00152531 0.00226509 -8.89366e-18)
(0.00241493 0.00327936 7.82329e-19)
(0.00171869 0.00320302 -3.44201e-19)
(5.88535e-05 0.00308134 -3.89431e-20)
(0.00342364 0.00120703 2.50531e-17)
(-0.0200404 -0.00121874 -4.68785e-18)
(-0.000166864 2.17058e-05 -9.18359e-19)
(0.000201162 0.000845348 1.17172e-18)
(-0.000375009 -0.000578768 -1.86142e-18)
(0.00260058 0.00414653 -2.45089e-18)
(-0.000454571 1.37764e-05 -3.81707e-20)
(-0.0198759 -0.0012313 -2.91258e-17)
(0.00343853 0.00115364 -1.67181e-17)
(0.0115513 0.0441415 1.12675e-18)
(0.000221063 0.000719222 -3.13105e-18)
(0.00187312 0.00340755 -7.66135e-19)
(0.00165073 0.000191346 1.41356e-20)
(0.00698353 0.00743694 -4.42849e-19)
(0.00052012 0.000413828 1.7758e-20)
(0.00357487 0.00335902 1.42522e-18)
(0.00251781 0.00330002 1.68162e-18)
(0.000208551 0.00181303 7.68403e-19)
(0.000345872 0.000529155 -4.27837e-18)
(-0.0159158 0.00215516 3.96133e-18)
(-0.000934801 0.000724039 -1.5673e-19)
(-0.0177224 -0.00207852 -1.90383e-18)
(0.00194769 0.00338235 -3.58091e-18)
(0.000505696 0.000525729 5.43739e-19)
(0.00509227 0.00680472 4.07789e-19)
(-0.000365132 0.000425526 2.66825e-18)
(-0.0128184 -0.00836794 2.56395e-20)
(-0.000138364 4.53853e-06 1.03296e-18)
(-0.0193404 -0.00182915 4.34331e-18)
(-0.0124492 -0.00968435 -3.09941e-19)
(0.000438304 0.00121336 -9.0142e-19)
(-0.00433486 0.00473987 7.19424e-19)
(0.000123969 0.00281932 -2.98463e-19)
(0.000162733 0.00106768 -4.17566e-18)
(-0.0176944 -0.00150419 6.61142e-18)
(0.00720969 0.00237889 -2.39111e-17)
(0.000486992 0.00114177 2.62887e-18)
(0.00245599 0.0038587 2.77648e-18)
(-9.37901e-05 0.000566931 6.80878e-18)
(-5.95009e-06 0.00276523 4.24243e-20)
(0.00757045 0.00514813 1.20711e-17)
(0.000110908 7.00333e-05 -2.25696e-18)
(0.0020629 0.000959611 -1.47184e-17)
(0.000855731 0.00114477 6.0372e-18)
(-0.000145898 0.000198295 1.50977e-18)
(-0.000130029 8.29438e-05 2.17455e-18)
(-0.000173206 3.18443e-05 -2.55383e-18)
(-0.0122675 -0.00391504 6.85757e-19)
(-0.000168107 0.00387879 4.43044e-19)
(0.000198005 0.000782308 -2.18255e-18)
(-0.00016388 1.69947e-05 9.58794e-19)
(-0.000220305 0.000252839 8.02938e-19)
(0.00223103 0.00246567 1.00832e-17)
(0.00127554 0.00287163 5.89629e-19)
(-0.000681504 0.000574845 -2.42788e-20)
(-0.00152154 6.26708e-05 -8.47234e-21)
(0.00498096 0.00319211 3.11052e-17)
(0.0017744 0.00340684 -6.15651e-20)
(-0.00016077 0.000199634 -1.53653e-19)
(0.000447153 0.00118898 3.90797e-18)
(-0.0148461 -0.00103756 1.24808e-18)
(-0.00351162 0.00331106 8.85258e-19)
(0.00952396 0.0023629 7.41341e-21)
(0.00347166 0.00371526 -1.38683e-17)
(-0.020664 0.00103423 -2.23559e-18)
(-0.000238564 0.000417304 -2.68483e-20)
(-0.000648346 0.000526757 1.04605e-19)
(0.00038803 0.00174083 1.39421e-18)
(-0.0001269 7.86907e-05 5.1328e-18)
(-0.000654759 0.000569495 -2.37925e-19)
(-0.000233015 0.000478046 1.01271e-18)
(-0.000621203 0.000522362 -1.77873e-19)
(-0.000248153 0.000412367 2.31728e-19)
(-0.0176398 -0.00206438 1.09899e-17)
(-8.62798e-05 0.000596546 -4.86335e-18)
(0.000990186 0.00231159 2.95297e-18)
(-0.018185 -0.00127179 -1.18166e-17)
(0.00243808 0.00243665 -4.88082e-18)
(-0.000182762 2.15453e-05 6.57059e-19)
(0.000692071 0.000297498 9.2337e-18)
(-0.0178736 -0.00133674 -3.23641e-18)
(0.000473994 0.00175279 2.71394e-18)
(-0.0191513 -0.0012233 -6.03397e-18)
(-0.000770866 0.000664663 2.27429e-19)
(0.000335979 0.000218209 4.48925e-18)
(-0.000947986 0.00076818 1.17743e-19)
(-0.000332799 0.000325873 4.43277e-19)
(0.000300507 0.00124022 4.82334e-18)
(-0.0004022 0.000374665 1.92144e-18)
(-0.0144557 -0.00074057 5.3028e-19)
(0.000950763 0.00245878 -2.59191e-19)
(-0.0266846 -0.00254476 -4.53796e-18)
(0.000324013 0.000219252 -1.89471e-18)
(0.00324323 0.00157978 6.9627e-20)
(0.0018761 0.00220703 -1.95954e-19)
(-0.000173652 0.000662736 -7.09959e-19)
(0.00202812 0.00308169 2.35489e-18)
(-0.0165269 -0.000901218 -1.92109e-19)
(0.000349959 0.000637567 2.17377e-18)
(-0.0030983 0.00410684 1.31704e-18)
(-0.000182632 2.90867e-05 6.5234e-19)
(-0.00012895 2.25729e-05 -8.71654e-19)
(-0.000219898 0.000238279 -2.61276e-18)
(-0.000357052 0.000461642 7.37523e-18)
(-0.00018876 1.65924e-05 -1.00453e-18)
(3.66731e-05 2.98296e-05 2.82639e-18)
(-0.0227211 -0.00228201 3.41356e-18)
(-0.0156993 -0.00273885 5.82014e-19)
(-0.000193126 1.53428e-05 1.60719e-18)
(0.00154283 0.00510105 -2.60728e-19)
(0.0046439 0.00331268 1.35013e-17)
(0.000331383 2.26923e-05 1.19518e-17)
(0.00246299 0.00257291 1.79116e-17)
(0.00455582 0.00151805 -2.94632e-17)
(-0.0179356 -0.00156329 4.68229e-18)
(0.00219253 0.000973032 -7.90849e-18)
(-0.02649 -0.00205994 2.57204e-17)
(0.00913596 0.0174347 5.91653e-20)
(0.00745405 0.0141186 4.3658e-20)
(-0.000399879 0.000413894 -4.31756e-18)
(0.0107269 0.00534912 -9.69892e-21)
(0.00246855 0.00224143 -1.46652e-19)
(0.000149794 0.00110169 2.30857e-18)
(-0.0145068 0.000517746 8.25888e-19)
(-0.000460651 3.45457e-05 5.1435e-19)
(0.000157019 0.000619489 -1.64931e-18)
(0.000163706 0.000872005 -2.53447e-18)
(0.00212117 0.00078233 9.54681e-18)
(0.000586934 0.00190971 -4.39302e-18)
(0.00303513 0.00424395 1.84634e-17)
(0.00313577 0.00230369 1.89675e-17)
(0.000990319 -0.00071752 5.2736e-19)
(-0.000178087 -0.000262439 -4.71423e-19)
(0.000396544 0.00174715 1.19404e-19)
(0.00106766 0.00267443 -2.3131e-18)
(0.000182972 0.000768464 9.50019e-18)
(-0.00321056 -0.00197212 -1.66921e-18)
(0.00228742 0.00192673 4.88105e-18)
(0.00118172 0.00171638 -5.01894e-18)
(-0.0172991 -0.00220492 -4.5693e-18)
(0.000124884 9.35319e-05 7.91923e-18)
(0.00107266 0.0027359 -4.93205e-19)
(0.00218039 0.00318134 2.34916e-18)
(-0.000168287 3.86179e-05 3.35531e-18)
(-0.0209913 -0.00229171 3.96187e-18)
(-0.000123427 2.31708e-05 -2.21071e-18)
(-0.000344666 0.000333426 3.73493e-19)
(0.00227861 0.00249257 -1.01558e-17)
(-0.000738177 0.000665466 -1.02701e-19)
(-8.64722e-05 1.43981e-05 -2.17305e-19)
(0.00220925 0.0031818 -7.73226e-18)
(-0.0217868 -0.00259488 -6.98934e-18)
(-0.0035919 0.00454847 -1.58502e-18)
(1.87272e-05 0.000199764 -2.82051e-18)
(0.00124007 0.000576799 2.75226e-18)
(0.000259489 -0.000705683 2.99533e-19)
(-0.0116764 0.000853305 -2.65586e-19)
(-0.00707384 0.00209728 -2.81145e-18)
(0.000160703 0.000720502 -9.18013e-19)
(0.000190145 0.000673154 1.59644e-18)
(1.51383e-05 0.000177096 -1.35028e-18)
(0.001999 0.00268991 -1.12286e-18)
(-0.00339373 0.00721745 6.62975e-19)
(-0.000159231 -3.43991e-06 3.79424e-19)
(-0.000519635 1.93948e-05 -1.27645e-20)
(-0.000213573 6.88551e-05 2.56571e-19)
(-0.000132004 0.000194422 -1.23974e-18)
(-0.00017862 0.000236628 -1.75002e-19)
(0.00158995 0.00164679 8.65235e-18)
(-0.000475588 2.85112e-05 -5.93542e-19)
(0.00306705 0.00234253 2.40331e-18)
(-0.00016716 3.59443e-05 -1.87691e-18)
(-0.000222299 0.000293037 -8.60433e-18)
(0.000845856 0.00111504 -7.60249e-18)
(-0.0196054 -0.0012924 -8.48079e-19)
(-0.00031274 3.98203e-05 7.86921e-19)
(0.00162648 0.000768147 1.54129e-17)
(6.70873e-05 -4.31367e-05 8.42699e-19)
(0.00271766 0.00149459 3.45714e-18)
(0.00255221 0.00278053 -3.5785e-18)
(0.000121558 0.0019674 -2.64856e-18)
(0.00198115 0.00282252 2.36782e-18)
(0.000118846 0.00367435 -6.08914e-20)
(0.000730702 0.00107529 1.5779e-18)
(0.000357089 0.00179718 -4.99557e-19)
(-0.0242633 -0.00217672 -1.39273e-17)
(-0.0180873 -0.00187007 -4.96733e-18)
(-0.0184965 -0.00140756 -5.81532e-18)
(-0.000159638 -1.33418e-05 7.04861e-19)
(-0.000216004 0.000207125 1.4431e-18)
(0.00117533 -0.000944648 2.63997e-19)
(0.000373109 0.000376615 3.68469e-18)
(-0.0228072 6.27388e-05 3.25222e-18)
(-0.00054927 0.000465797 3.73966e-19)
(-0.00245148 -0.0041842 -2.8499e-19)
(0.00127532 0.00145269 -9.91743e-18)
(-0.0245538 -0.0011243 -9.19067e-18)
(0.000118497 0.00332317 -3.42811e-19)
(0.00180309 0.000481043 2.95443e-17)
(-0.000439982 0.000178576 -2.85601e-18)
(-0.000189821 1.20452e-05 1.53178e-18)
(0.00424724 0.00158709 9.37839e-19)
(-0.000256575 2.22356e-07 8.0825e-20)
(7.17347e-05 0.000168919 6.65824e-19)
(-0.0241681 -0.00120509 -7.84181e-18)
(-0.00072211 0.000622373 8.33568e-20)
(0.00952331 0.0053457 -1.33139e-17)
(-0.000989967 1.31532e-05 8.52879e-21)
(0.000332599 1.57761e-05 -4.99224e-18)
(-0.000221066 0.00021899 -1.00877e-18)
(0.00309845 0.00420147 -8.59557e-18)
(-0.000248608 0.000257403 -3.23062e-20)
(-0.00035822 0.00014496 -6.05451e-19)
(0.00408822 0.00340813 -1.19745e-17)
(0.00241189 0.00254803 -2.19546e-17)
(-0.000167956 -0.00897773 2.51762e-18)
(-0.0201992 0.00119161 -9.22539e-18)
(-0.0231904 -0.00251338 -1.66322e-17)
(-0.0179448 -0.00162677 -2.86967e-18)
(-0.000310034 3.57443e-05 -5.45682e-19)
(-0.0197433 -0.0011743 2.02992e-18)
(-0.00131982 3.55693e-05 -3.11332e-20)
(-0.0145557 -0.00314564 1.61067e-18)
(0.00791595 -0.00434846 -1.64083e-20)
(6.10225e-05 0.000258412 1.18792e-18)
(0.00132307 -0.00109446 -3.03267e-21)
(-0.000964257 1.03145e-05 3.93742e-20)
(0.00224064 0.00189811 6.60807e-18)
(0.00178589 0.000459073 -1.96874e-17)
(-0.000691155 0.000619414 -1.08852e-19)
(-0.000245268 -3.22598e-07 -5.91099e-19)
(0.000261481 1.49839e-05 6.80133e-19)
(-0.0186531 0.00152631 -3.73428e-18)
(4.87514e-05 0.000247242 6.13284e-18)
(0.00383772 0.00207604 -1.51638e-17)
(0.000136132 0.000596942 -6.30621e-19)
(-0.00037095 0.000141719 4.79493e-19)
(-0.000672175 2.32434e-05 1.62123e-19)
(0.00265676 0.00328734 2.3735e-18)
(-0.0182654 1.12289e-05 5.89105e-20)
(-0.00702008 -0.00134805 -3.72316e-18)
(0.0032091 0.00279975 -1.6933e-17)
(0.00162569 0.00161614 -4.04633e-18)
(-0.0085838 0.00262136 -5.15514e-18)
(-0.0203247 -0.00127394 -4.58416e-18)
(-0.000127129 2.80866e-06 -5.13099e-19)
(-0.0158114 -9.71368e-05 1.58894e-18)
(0.000259071 1.30405e-05 5.90818e-18)
(0.00524024 0.00200034 3.14012e-17)
(0.000355488 0.00038459 -7.1355e-18)
(-0.0149272 0.00229722 8.35548e-19)
(-0.000135284 0.000182594 2.23677e-18)
(-9.34257e-05 0.000292466 3.387e-19)
(0.000746442 0.000318992 -5.23914e-18)
(8.96924e-05 -0.0104333 -2.54206e-18)
(0.00214999 0.00199832 -1.19331e-17)
(-0.0216028 -0.000128217 -1.17264e-18)
(-0.000402925 2.1093e-05 -7.12046e-19)
(0.00206237 0.00196448 2.25991e-18)
(-0.00010687 -6.51735e-05 4.80958e-19)
(-0.000791414 2.15767e-05 5.13682e-21)
(-0.0200442 -0.00121096 7.35867e-18)
(-0.000755702 0.00346719 -1.08975e-19)
(-7.99592e-05 -0.000103163 2.57342e-18)
(0.00242583 0.00332905 -1.96995e-18)
(0.000315961 8.93933e-05 -1.83358e-18)
(-3.19593e-05 4.58559e-05 5.9937e-19)
(-0.000940109 1.56245e-05 2.89446e-21)
(-0.0201323 -0.00114417 4.26074e-18)
(6.29643e-05 0.000245311 -3.42485e-18)
(-7.8638e-05 -0.000382254 -7.01128e-19)
(-0.000569095 0.000473373 -1.74689e-19)
(-9.05173e-05 -9.15201e-05 -1.09399e-18)
(0.00223616 0.00404833 1.53316e-17)
(-0.00100464 1.52463e-05 -8.91266e-20)
(0.00257179 0.00337763 4.44825e-19)
(-0.000263699 2.72675e-06 1.06159e-18)
(-0.000189761 3.70969e-05 -1.39684e-18)
(-0.0143251 -0.0033242 -2.02614e-18)
(0.00397772 0.00213381 -8.91413e-18)
(0.00014861 0.000693606 1.51612e-18)
(-0.0174619 -0.00100523 2.79453e-17)
(0.00954948 0.00511631 1.46335e-17)
(0.000555106 0.00335315 -2.12857e-19)
(0.00211911 0.00317751 -5.40245e-18)
(-0.000192595 1.11776e-05 4.83765e-20)
(-0.000667669 0.0013777 3.46726e-18)
(-0.0195194 -0.00141577 4.41952e-19)
(0.00534575 0.00330426 1.90102e-17)
(0.000407845 0.0017079 -4.54564e-18)
(0.000353164 0.00127447 -3.48571e-18)
(-1.74137e-05 0.000340146 -1.14138e-19)
(-0.000280947 3.48611e-06 -2.16355e-19)
(-0.000183064 6.06902e-05 -1.61869e-18)
(0.00906733 0.0120309 -3.99753e-20)
(0.00252505 0.002859 -3.46564e-18)
(0.00103612 0.00140216 -1.00625e-17)
(-0.0172806 -0.00249897 2.98016e-18)
(0.00222548 0.00201916 1.39529e-17)
(0.00157982 0.00350448 1.35548e-19)
(-0.00925961 0.00165798 1.29934e-19)
(0.000949125 0.000745145 -3.28355e-19)
(0.00164015 0.00212366 -5.24062e-18)
(0.00258637 0.00343142 -4.14412e-18)
(-0.0201151 -0.00127579 -9.36712e-18)
(-1.90636e-05 -4.15084e-05 -1.55575e-18)
(0.000589686 0.000121584 8.8928e-19)
(0.00886748 0.015914 7.80342e-20)
(-0.000186839 3.95425e-05 1.08495e-18)
(-0.000340535 1.13035e-05 1.29643e-18)
(-0.000706626 2.43393e-05 2.2346e-19)
(0.000265592 -0.000920295 -1.85354e-19)
(-3.54721e-05 2.09091e-05 3.07436e-18)
(-0.0198864 -0.00126886 -7.14679e-18)
(0.00286904 0.000910316 2.56634e-17)
(-0.000234105 1.99893e-06 4.95945e-19)
(0.00390879 0.00320958 -4.26081e-18)
(-0.00040115 2.33374e-05 1.59702e-19)
(-0.0192741 -0.00125513 -1.28822e-17)
(4.70686e-05 -9.19177e-06 -2.89654e-19)
(-0.000170046 1.17883e-05 2.2438e-18)
(-0.0212226 -0.00243463 4.12402e-17)
(0.00260199 0.00268881 3.53192e-18)
(0.0019908 0.0302593 -3.61331e-19)
(0.000848905 0.000407333 -1.99649e-17)
(-0.000701996 0.000541473 2.94156e-20)
(-0.000150191 -2.03587e-05 7.37773e-21)
(0.00107068 0.000500978 -3.08875e-19)
(0.00203316 0.00139137 5.10647e-18)
(-0.00017831 0.000156079 2.16406e-18)
(-0.0188839 -0.00140852 2.8218e-18)
(0.00118297 0.00187038 5.82782e-18)
(0.00913667 0.017445 -2.72778e-20)
(-0.00359653 0.0197109 -9.71878e-20)
(0.00057463 0.000210419 -6.68192e-19)
(-0.0232639 -0.00256582 -2.87702e-18)
(0.00122909 0.000604661 2.7898e-18)
(-0.000248172 -1.83152e-06 -3.97413e-19)
(-0.000100361 -8.1246e-05 -3.13301e-20)
(-0.0203106 -0.00145899 6.03144e-18)
(-0.00412136 0.00451894 1.16029e-18)
(0.00124384 0.00151592 5.48278e-18)
(-0.0192994 -0.00131157 8.20698e-18)
(-0.000606698 0.00214552 -1.7245e-19)
(-0.000191479 3.57607e-05 -2.24238e-19)
(-0.000166033 2.16414e-06 3.71922e-19)
(0.000257617 0.0012419 -6.52702e-19)
(-0.0263492 -0.00177771 3.09144e-18)
(0.000879002 0.0139581 -9.9641e-20)
(0.0021085 0.00204717 5.8832e-19)
(0.00104923 0.000501313 -4.01854e-18)
(0.00161758 0.000799835 -3.21863e-18)
(0.00534175 0.00201327 -3.46675e-17)
(-0.000197395 -0.000127338 1.0024e-18)
(0.00248635 0.00330059 -1.06697e-18)
(0.00272406 0.000962361 -1.34712e-17)
(0.000112289 0.000828837 -6.75734e-18)
(0.000845737 0.000865976 -4.3508e-18)
(-0.000241582 -2.04216e-06 -7.48808e-20)
(0.0020076 0.00138467 -2.01591e-18)
(-0.000109308 -0.000269051 2.07707e-19)
(-0.0014822 0.00110231 9.84631e-18)
(0.000581721 0.00141287 5.08086e-19)
(-0.00054832 -0.00015804 -3.77994e-19)
(-0.0190324 -0.00146515 -2.22576e-17)
(-0.000124303 0.000785258 6.87977e-21)
(-0.000951962 0.000367796 -1.23787e-19)
(0.000367675 0.00123505 6.8229e-19)
(-0.000155504 0.00181057 -1.23279e-18)
(0.00142246 0.00138626 -4.13053e-18)
(0.00927631 0.00409378 -9.49493e-18)
(-0.000336798 8.38023e-06 2.52573e-19)
(0.00420403 0.00144718 2.29373e-17)
(-0.0178728 0.000297925 4.93841e-18)
(-0.0009347 -0.00897816 2.42826e-19)
(0.000405496 0.000377989 -5.57942e-18)
(0.000618788 0.00141162 -4.42494e-18)
(-3.54638e-05 1.38542e-05 -6.08579e-18)
(0.000309567 0.000295322 1.02489e-17)
(0.00074415 0.000273251 8.87559e-19)
(-0.00142987 0.000183758 1.43956e-19)
(0.00148582 0.00265218 1.8453e-19)
(0.00186591 0.00317754 -5.34353e-19)
(0.00251287 0.00336437 4.96335e-18)
(-0.000193921 8.13176e-06 1.14573e-18)
(-0.0121455 2.01208e-05 2.44253e-17)
(0.00213797 0.000555948 -4.29e-18)
(0.00211309 0.000816464 -2.12685e-17)
(0.00249503 0.00339438 3.14191e-18)
(-0.000182968 0.000557532 -2.61806e-18)
(0.00420622 0.00164382 -1.85957e-18)
(-5.1766e-05 0.00439934 -4.57281e-18)
(-0.000348843 8.77198e-05 -1.13749e-19)
(0.00265232 0.00266901 2.8681e-18)
(0.00187434 0.00304086 1.50567e-18)
(0.00277981 0.0010066 4.50734e-18)
(-0.00018624 5.52692e-05 1.05468e-18)
(-0.000186833 2.26165e-05 1.3671e-18)
(-0.000180847 5.53846e-05 2.13169e-18)
(-0.0197085 -0.00130568 4.34744e-18)
(0.00079558 0.000816232 3.72826e-18)
(6.5921e-05 1.88191e-05 8.89466e-19)
(0.00348008 0.00103577 -1.32098e-17)
(-0.000181911 0.000165953 -8.12984e-19)
(-0.000183781 1.92645e-05 -5.12158e-19)
(0.00226504 0.00314736 7.57533e-18)
(-0.00054389 0.0040026 -5.27908e-19)
(-0.00171365 -0.000470831 2.18401e-19)
(-0.00358154 0.00376314 -4.3746e-18)
(0.000297763 0.00215364 6.62288e-19)
(-0.026745 -0.00304079 -1.11314e-17)
(0.000759094 0.00025651 2.76984e-18)
(-0.000488366 -7.71158e-05 2.41245e-19)