/*--------------------------------*- C++ -*----------------------------------*\
| =========                 |                                                 |
| \\      /  F ield         | OpenFOAM: The Open Source CFD Toolbox           |
|  \\    /   O peration     | Version:  v2012                                 |
|   \\  /    A nd           | Website:  www.openfoam.com                      |
|    \\/     M anipulation  |                                                 |
\*---------------------------------------------------------------------------*/
FoamFile
{
    version     2.0;
    format      ascii;
    class       surfaceVectorField;
    location    "750";
    object      Uf_0;
}
// * * * * * * * * * * * * * * * * * * * * * * * * * * * * * * * * * * * * * //

dimensions      [0 1 -1 0 0 0 0];


internalField   nonuniform List<vector> 
20580
(
(1.04946 -0.0286223 -1.10509e-21)
(1.04936 -0.028375 -4.67008e-21)
(1.04923 -0.0286755 -3.66956e-21)
(1.02868 -0.0331568 2.92456e-22)
(1.02853 -0.0336894 -4.35084e-22)
(1.0293 -0.0336112 4.477e-22)
(1.02882 -0.032489 -1.41891e-23)
(1.02804 -0.032621 1.74441e-21)
(-0.138081 -0.00988542 -6.62816e-21)
(-0.0967128 -0.0152595 -4.16093e-20)
(-0.134404 -0.0105484 -4.45281e-20)
(1.00095 -0.000262204 1.94271e-22)
(1.00085 -0.000238572 -1.4957e-21)
(1.00089 -0.000143794 -4.73514e-21)
(1.0298 -0.0407332 5.76579e-22)
(1.0293 -0.0415675 -1.09064e-22)
(1.02871 -0.040649 1.03108e-21)
(1.03676 -0.0208198 5.74326e-22)
(1.03715 -0.0208934 5.94348e-22)
(1.00881 -0.000816954 0)
(1.0085 -0.000800795 5.71429e-21)
(1.00796 -0.000488012 0)
(0.578749 -0.00664446 8.90548e-22)
(0.58237 -0.00701592 8.22088e-22)
(0.552078 -0.0067227 3.04814e-21)
(0.987992 0.00882583 -9.62615e-21)
(0.988618 0.00915398 4.00751e-21)
(0.988866 0.00828299 1.05827e-20)
(1.06136 -0.0735649 1.09799e-21)
(1.05882 -0.0738302 0)
(1.06061 -0.076202 2.24249e-21)
(0.998926 -0.00215956 -4.61766e-21)
(0.998931 -0.00236119 5.20573e-21)
(0.99878 -0.00225159 -1.10106e-20)
(0.974026 0.00560387 -1.10264e-21)
(0.973287 0.00495162 0)
(0.974552 0.00460801 8.85305e-23)
(0.372827 -0.0102071 -3.00358e-21)
(0.357314 -0.0127263 2.4305e-21)
(0.379495 -0.0089831 -4.64836e-21)
(1.04369 -0.0310134 -6.14922e-22)
(1.04401 -0.0312532 1.64844e-21)
(1.04355 -0.0313815 -1.95098e-21)
(1.05249 -0.0291714 0)
(1.05272 -0.0289877 8.82163e-23)
(1.05269 -0.0294001 -2.02434e-21)
(-0.172783 0.0110263 3.52839e-20)
(-0.213629 0.0103109 2.97906e-20)
(-0.187079 0.0142376 1.9059e-20)
(1.01496 -0.0201323 1.16647e-22)
(1.01543 -0.0204558 -2.49726e-21)
(1.01489 -0.020747 -2.69017e-21)
(1.06097 -0.0226132 -5.77248e-22)
(1.06188 -0.0225871 -6.36386e-21)
(1.06106 -0.0216269 -1.04854e-20)
(1.04967 -0.0285391 4.36426e-21)
(1.04956 -0.0288098 4.59028e-21)
(1.04555 -0.0337657 -1.07571e-21)
(1.04519 -0.0340722 -7.3733e-22)
(1.04505 -0.0335067 -8.77257e-22)
(0.996472 -0.0620821 -2.52149e-21)
(0.994384 -0.0618149 -8.36573e-22)
(0.996024 -0.0599343 1.24878e-20)
(1.01951 -0.409262 5.30243e-20)
(0.918571 -0.372799 5.25313e-20)
(0.836772 -0.319255 2.82085e-20)
(1.00002 -8.16357e-05 8.11467e-23)
(1.00004 -0.000109092 7.10351e-23)
(1.00002 -6.9349e-05 -6.69749e-21)
(1.09647 -0.0224873 -1.90455e-21)
(1.09797 -0.0228188 -1.41491e-20)
(1.09553 -0.0205517 -3.88248e-20)
(1.04952 -0.0259749 2.80559e-21)
(1.04979 -0.0260164 7.5626e-22)
(1.04962 -0.0262465 -2.41387e-21)
(1.04798 -0.0313691 -1.45268e-21)
(1.04849 -0.031519 -4.28297e-22)
(1.04863 -0.0316556 2.43702e-21)
(1.05059 -0.0192187 5.03253e-21)
(1.0507 -0.0197256 1.52809e-21)
(1.04563 -0.0186466 -3.74174e-21)
(0.665704 -0.0128054 3.42927e-21)
(0.639183 -0.0114099 4.18237e-21)
(0.632733 -0.0116603 -1.60107e-22)
(1.01017 -0.0113797 0)
(1.00978 -0.0114246 3.77152e-22)
(1.00989 -0.0109713 0)
(0.176677 -0.00419598 -4.14435e-20)
(0.105712 -0.00088557 -1.52177e-20)
(0.225212 0.000422827 -6.36491e-21)
(1.03667 -0.0211185 -1.1398e-21)
(1.03635 -0.0207429 1.5563e-22)
(1.04881 -0.0288616 -5.36584e-22)
(1.0487 -0.0289201 -4.83169e-21)
(1.04884 -0.0289894 2.14854e-22)
(0.733642 -0.00414511 -1.7268e-21)
(0.725721 -0.00332334 1.73673e-21)
(0.790613 -0.00574992 2.89636e-21)
(1.04423 -0.067125 -3.0573e-21)
(1.04486 -0.0654415 -3.9289e-21)
(1.04584 -0.0675709 -2.618e-21)
(0.654529 -0.0118655 -3.94798e-21)
(0.687107 -0.0131105 -3.53167e-21)
(0.660067 -0.0128403 4.58369e-22)
(1.00001 -5.32246e-05 -7.5037e-25)
(1.00002 -9.74025e-05 2.03912e-24)
(1.14932 -0.0905286 4.47534e-20)
(1.1577 -0.092348 -6.27219e-21)
(1.15675 -0.0879643 1.63837e-20)
(0.396489 0.0306103 -3.00868e-21)
(0.431215 0.0307192 1.39004e-20)
(0.499666 0.0292698 1.97623e-20)
(0.988886 -0.0196419 -8.81392e-21)
(0.989847 -0.0193105 -3.74904e-21)
(0.989607 -0.0202748 2.66921e-20)
(0.583197 0.00913486 1.32294e-21)
(0.645286 0.00792657 -3.78963e-21)
(0.5922 0.00798144 -3.57106e-21)
(0.691589 -0.0133541 3.41719e-21)
(0.698504 -0.0139188 1.86983e-21)
(-0.246679 0.0074864 3.24775e-20)
(-0.248236 0.00544742 4.9689e-20)
(1.03437 -0.345962 1.74872e-20)
(1.03841 -0.358463 2.16286e-21)
(1.02133 -0.356159 1.33632e-20)
(0.729117 -0.013636 -8.22756e-22)
(0.721735 -0.0134682 6.77388e-22)
(0.691016 -0.0131109 -1.51656e-21)
(1.00183 -0.0144318 5.3374e-21)
(1.00136 -0.0141601 0)
(1.00182 -0.0138305 -7.35902e-21)
(1.01908 -0.00149253 -1.5373e-21)
(1.01909 -0.00109938 6.39313e-21)
(1.05027 -0.0296928 2.78902e-21)
(1.05042 -0.0298391 1.2595e-21)
(1.05042 -0.0295648 2.77659e-21)
(1.00767 -0.0432875 2.32135e-21)
(1.00711 -0.0417272 -2.56237e-21)
(1.00868 -0.0422975 5.87274e-22)
(0.974709 0.00632298 -1.53697e-20)
(0.973312 0.00661695 8.73268e-21)
(0.0704908 0.00977979 6.48701e-21)
(0.0744479 0.007636 -3.81444e-22)
(0.0399167 0.0063504 -1.10776e-20)
(0.968447 0.0153305 2.81277e-23)
(0.969669 0.0146337 -2.07979e-20)
(0.96838 0.01401 -6.79785e-21)
(1.05222 -0.0293145 3.27789e-21)
(1.05227 -0.0289376 0)
(1.04243 -0.0240087 -2.76811e-22)
(1.04277 -0.0241722 -2.21693e-22)
(1.04276 -0.023815 1.11427e-21)
(0.393202 -0.0117422 1.08063e-21)
(0.416754 -0.010892 1.58511e-21)
(0.390044 -0.011484 0)
(0.988134 -0.0201228 -8.71004e-21)
(0.988284 -0.0190755 -6.91007e-21)
(1.04874 -0.0286907 0)
(1.04895 -0.0287764 0)
(0.569852 0.0108629 2.94601e-21)
(0.531106 0.00770912 -4.22447e-22)
(1.05104 -0.0326544 -1.96078e-21)
(1.05171 -0.0329563 0)
(1.05146 -0.0329582 2.35785e-21)
(0.27398 -0.00553855 2.30472e-21)
(0.286321 -0.00577132 1.69476e-21)
(0.304152 -0.00401834 1.20362e-21)
(0.998942 -0.00196325 -9.445e-22)
(0.999061 -0.00206725 -4.89716e-21)
(1.04766 -0.0311941 -7.35354e-22)
(1.04748 -0.0310707 -7.12903e-21)
(0.994811 0.00895301 -3.60055e-22)
(0.994768 0.00848009 -4.23283e-21)
(0.994268 0.00909001 -3.33306e-21)
(1.00669 -0.0438421 5.78455e-22)
(1.00804 -0.0442474 0)
(0.835634 -0.345383 2.50113e-20)
(0.856622 -0.34029 2.33152e-20)
(0.842078 -0.326176 3.08367e-21)
(0.812322 -0.350133 -2.61275e-20)
(0.830117 -0.371474 4.48912e-21)
(0.260467 -0.00657761 9.36357e-22)
(0.238613 -0.00919751 -1.28751e-21)
(0.693154 -0.0427137 1.14862e-19)
(0.686271 -0.0579274 -3.01927e-21)
(0.998639 -0.0259208 -8.40425e-22)
(0.997835 -0.0256041 4.98112e-21)
(0.99867 -0.0250924 5.25873e-21)
(-0.0152996 -0.0105458 -1.50238e-20)
(-0.0741118 -0.00285286 2.73369e-20)
(-0.0488698 -0.0044586 -3.51312e-20)
(0.0550809 0.0170966 1.14691e-20)
(-0.00531804 0.0213186 1.12636e-20)
(0.0541535 0.0169675 -3.65228e-20)
(1.04732 -0.0337403 -7.15815e-21)
(1.04748 -0.0341451 1.67741e-21)
(1.04782 -0.0337872 -3.01996e-21)
(0.98432 -0.00687518 -8.77105e-21)
(0.983764 -0.00628372 6.27669e-21)
(0.983444 -0.00713184 -7.23968e-21)
(0.291771 -0.00568743 7.31009e-23)
(0.257947 -0.00817484 -3.35355e-21)
(1.04303 -0.0258394 0)
(1.04267 -0.0258994 0)
(1.04295 -0.0261494 5.5049e-22)
(0.987882 -0.0478058 -2.67791e-21)
(0.986558 -0.0464775 8.78549e-21)
(0.988391 -0.0459327 -6.18479e-21)
(-0.152445 0.0113968 0)
(-0.128246 0.0131643 0)
(1.01375 -0.00819099 2.78037e-21)
(1.01335 -0.00833076 3.80085e-21)
(1.0139 -0.00868711 0)
(1.09451 -0.0215841 1.46539e-20)
(1.09878 -0.0247 1.7293e-20)
(0.997203 -0.00803028 -1.14937e-20)
(0.997387 -0.00764895 -6.97671e-21)
(0.996964 -0.0076069 -5.2075e-21)
(0.999492 -0.0263613 -4.90862e-21)
(0.998633 -0.0269153 -1.31383e-20)
(1.10967 -0.0574842 -1.33783e-21)
(1.10829 -0.054556 -1.68373e-20)
(1.11193 -0.0558521 -4.87092e-22)
(1.04246 -0.0669112 4.12339e-21)
(1.04321 -0.0690222 -1.44895e-21)
(0.355116 -0.0111865 2.32836e-21)
(0.365056 -0.00994928 -1.91162e-21)
(0.381707 -0.00748924 9.55055e-22)
(0.295839 -0.00641264 -3.23727e-21)
(0.319296 -0.00405413 -2.31996e-21)
(0.0756682 0.0106935 -5.19275e-20)
(0.101316 0.0101104 -5.44302e-20)
(0.179555 0.00374857 -1.03883e-20)
(0.99733 -0.0640687 -7.25685e-21)
(0.998619 -0.0620321 -1.64746e-21)
(0.4529 -0.0143485 3.27005e-21)
(0.420853 -0.0156241 3.45687e-21)
(0.457426 -0.0148202 1.56508e-22)
(0.987442 0.00515863 0)
(0.987753 0.00445592 4.70128e-23)
(0.988176 0.00499067 -4.80021e-21)
(0.219234 -0.0113042 1.52319e-20)
(0.118229 -0.00140532 0)
(0.966564 0.0161485 9.68406e-21)
(0.96841 0.0170588 7.31831e-21)
(1.03661 -0.0213957 3.17262e-24)
(1.03698 -0.0214604 -3.3324e-22)
(-0.0470348 0.00586725 -1.41598e-20)
(-0.0432016 0.00313199 4.50673e-21)
(0.0492224 0.00821649 2.26564e-21)
(-0.000939736 0.0105551 5.70936e-21)
(0.364769 0.0307326 1.06026e-20)
(0.335384 0.0264625 -6.7585e-21)
(0.299633 0.0223665 -6.86028e-21)
(1.02548 -0.327821 -1.22383e-20)
(1.01801 -0.313068 -1.07205e-20)
(1.00824 -0.323807 -1.21864e-20)
(0.998011 -0.0130815 -4.61293e-21)
(0.997508 -0.0128316 -1.07413e-20)
(0.997586 -0.0135541 -2.94396e-21)
(1.05122 -0.0298199 -2.6104e-21)
(1.05147 -0.0297181 1.35648e-21)
(1.05127 -0.0295496 -5.30109e-21)
(0.164022 0.00331864 6.1389e-21)
(0.16623 0.00224998 2.65697e-21)
(0.13207 0.00013857 2.01422e-21)
(1.09743 -0.124773 -1.18026e-20)
(1.10229 -0.124079 -1.6038e-21)
(1.1004 -0.129271 -5.48389e-21)
(1.05098 -0.0299458 -4.06862e-21)
(1.05118 -0.0301157 0)
(0.795229 -0.0528414 6.3476e-20)
(0.794372 -0.0429867 6.42115e-20)
(0.804262 -0.0482511 1.52526e-20)
(0.799449 -0.0832899 1.81279e-20)
(0.798577 -0.0729256 -6.37812e-20)
(0.788038 -0.0792735 8.92613e-21)
(0.979294 -0.0054162 9.68354e-21)
(0.979995 -0.00603433 -1.89553e-20)
(0.978882 -0.00646337 -2.10042e-20)
(1.00386 -0.0151967 -6.56675e-21)
(1.00394 -0.015807 -5.73914e-21)
(1.00432 -0.015382 1.37615e-20)
(1.04769 -0.0375096 -1.72282e-21)
(1.048 -0.0380323 -2.53953e-23)
(1.04839 -0.0372977 -5.1436e-22)
(1.00381 -0.0145612 1.6859e-21)
(1.0033 -0.0149382 -2.029e-21)
(0.054685 0.0149536 -3.08948e-21)
(0.13425 0.0114127 3.45456e-20)
(1.03619 -0.0213447 -6.19529e-22)
(1.03656 -0.0216915 6.14797e-22)
(1.01449 -0.0198445 2.94797e-21)
(1.015 -0.0195907 2.81948e-21)
(0.981497 -0.0840718 -5.60859e-21)
(0.98232 -0.0872845 -1.408e-21)
(0.978819 -0.0859946 -5.02915e-21)
(1.00232 -0.0147868 -6.5649e-21)
(1.00188 -0.0151693 -2.65763e-21)
(1.07369 -0.0365396 4.94181e-21)
(1.07272 -0.0354522 -3.61359e-21)
(1.07432 -0.0353929 -6.73152e-21)
(1.05852 -0.0500194 2.46308e-21)
(1.05725 -0.0496481 3.35013e-21)
(1.0576 -0.0510163 8.42657e-21)
(1.0484 -0.0293023 1.01411e-21)
(1.0484 -0.0293565 -2.90421e-21)
(1.04834 -0.0293205 1.30002e-21)
(1.04211 -0.0238001 4.09564e-22)
(1.04208 -0.0241166 1.54076e-22)
(1.00745 -0.00662309 -1.45567e-21)
(1.00719 -0.00671408 -1.47159e-21)
(1.00755 -0.00695102 5.22014e-21)
(1.00918 -0.000755784 0)
(1.00917 -0.00113582 0)
(-0.175219 -0.00497823 -1.76016e-20)
(-0.145545 -0.0111044 7.24965e-20)
(0.0395722 -0.0163645 3.18208e-20)
(0.0737205 -0.0176989 4.65354e-20)
(1.03824 -0.252336 0)
(1.03165 -0.26142 3.33247e-21)
(1.0436 -0.261259 4.29754e-21)
(1.01322 -0.0166801 5.15437e-22)
(1.01271 -0.0162694 -1.56721e-22)
(1.01322 -0.0161286 4.96852e-22)
(0.994841 -0.0239236 -5.93904e-21)
(0.995303 -0.0246261 5.36769e-21)
(0.99438 -0.0246509 -3.46102e-21)
(0.410674 -0.00156263 -6.24637e-22)
(0.435219 0.000191392 -1.4429e-21)
(0.409156 -0.000198195 1.97002e-21)
(1.05466 -0.0245256 -8.6996e-22)
(1.05529 -0.0242667 -8.02743e-23)
(1.05478 -0.0238707 0)
(0.596962 -0.112194 7.09437e-21)
(0.619377 -0.106026 -9.13061e-20)
(0.615263 -0.134114 2.81341e-20)
(0.998505 -0.0134489 6.27477e-21)
(0.998451 -0.0127035 6.71606e-21)
(1.04603 -0.10501 -8.4048e-21)
(1.04477 -0.101291 2.33447e-21)
(1.04288 -0.104805 4.4864e-21)
(0.604906 0.00290497 6.67217e-22)
(0.559771 0.00366453 2.74085e-21)
(0.598613 0.00341203 4.45334e-23)
(1.04613 -0.0316491 6.02525e-22)
(1.04643 -0.031595 -2.27881e-22)
(1.04619 -0.0319551 3.54304e-22)
(0.992319 -0.0610412 1.29103e-20)
(0.992577 -0.0634119 6.94564e-21)
(1.03199 -0.0564876 2.39626e-22)
(1.0329 -0.0551391 -8.00626e-22)
(1.03116 -0.0553243 0)
(1.14794 -0.094315 2.76859e-20)
(1.14617 -0.0889476 4.82724e-21)
(0.749987 -0.00541098 -1.74472e-21)
(0.690293 -0.0012636 -1.71566e-21)
(1.06349 -0.0737701 -6.89317e-22)
(1.06189 -0.0717694 8.01165e-22)
(0.366659 0.029304 1.40842e-20)
(0.311241 0.0310713 0)
(0.292554 0.0305708 4.29785e-21)
(0.709737 -0.0419374 7.16487e-20)
(0.110901 0.0117412 -2.59599e-20)
(0.0421357 0.0143818 -2.73575e-20)
(0.840311 -0.0295651 0)
(0.831712 -0.0273548 0)
(0.83713 -0.0211755 0)
(1.046 -0.0309132 1.31513e-21)
(1.0457 -0.0307849 -1.37521e-23)
(1.04602 -0.0305738 5.1453e-24)
(1.11099 -0.0605726 -1.74884e-21)
(1.10697 -0.0588728 1.60494e-22)
(0.959782 -0.0136394 6.72308e-21)
(0.960484 -0.0119765 -3.70919e-21)
(0.961786 -0.0132914 -1.42429e-20)
(0.987 0.00577358 0)
(0.986582 0.00515289 0)
(0.728689 -0.209011 -4.09212e-21)
(0.712894 -0.221629 -6.75787e-20)
(0.734282 -0.225172 1.62225e-20)
(1.07746 -0.0158762 8.37674e-21)
(1.0736 -0.014236 8.14674e-21)
(1.0716 -0.0140989 -1.46758e-20)
(0.979618 -0.0421939 7.19696e-21)
(0.978711 -0.043504 -2.98607e-21)
(0.977521 -0.0421292 -9.7647e-21)
(1.0141 -0.00807014 1.71941e-21)
(1.01361 -0.00779228 5.25876e-21)
(0.0190239 0.00674652 4.17199e-20)
(0.53299 -0.0100594 -7.19318e-22)
(0.537865 -0.00921999 -3.3918e-21)
(0.508195 -0.010258 1.31592e-21)
(1.04807 -0.107755 -1.18834e-20)
(1.04925 -0.104238 -1.19718e-20)
(1.05082 -0.0298205 1.30607e-21)
(1.05079 -0.0300897 -3.22446e-21)
(1.07467 -0.0377467 -2.56758e-21)
(1.07284 -0.0376265 -2.12162e-21)
(1.05978 -0.0503477 -6.01712e-21)
(1.05935 -0.0490216 -5.85643e-21)
(1.05886 -0.0242255 8.10515e-22)
(1.05972 -0.0242515 -2.56984e-21)
(1.05923 -0.0250074 -6.04112e-21)
(0.965297 0.00685709 -1.22783e-22)
(0.965494 0.00536257 -2.57518e-20)
(0.96377 0.00604514 -1.5703e-20)
(0.980193 0.0124982 6.1898e-21)
(0.979882 0.0133924 -2.9275e-21)
(0.980926 0.0130324 9.54103e-21)
(0.9996 -0.00206847 2.26786e-22)
(0.999496 -0.00203068 -6.33749e-21)
(0.999588 -0.0018896 0)
(0.367385 0.0279023 -2.34457e-20)
(0.317398 0.0254218 -1.07131e-22)
(1.04528 -0.0311575 1.28148e-21)
(1.04541 -0.0308964 0)
(1.04512 -0.0308918 0)
(1.03339 -0.0232529 5.10314e-22)
(1.03381 -0.0232925 3.63868e-22)
(1.03361 -0.0236307 7.35157e-22)
(1.00005 -0.000195457 -1.95704e-21)
(1.00005 -0.000172752 3.4806e-22)
(1.00007 -0.000235024 3.27124e-21)
(0.646356 -0.0134625 1.84014e-22)
(0.642305 -0.0119864 1.95728e-21)
(0.676093 -0.0137184 -3.65162e-21)
(1.04754 -0.0368202 4.34991e-21)
(1.04697 -0.0375099 -4.63375e-21)
(1.05011 -0.0295398 2.476e-21)
(1.05008 -0.0297824 3.17835e-21)
(0.386211 -0.00905153 6.06689e-22)
(0.363676 -0.010797 2.51037e-21)
(0.663157 -0.00889233 -2.75311e-21)
(0.631719 -0.00692959 -1.44625e-21)
(0.666696 -0.00914428 -3.33531e-21)
(0.655195 -0.00821255 1.24023e-21)
(0.698925 -0.00986484 1.12306e-21)
(0.0623699 0.0102859 -2.79496e-21)
(0.0992344 0.0132347 1.86971e-22)
(0.98421 -0.0820851 4.94891e-21)
(0.980939 -0.0808453 0)
(1.08938 -0.0139055 0)
(1.09103 -0.0133942 0)
(1.08249 -0.0131763 -5.28738e-21)
(0.998959 -0.00179396 4.92701e-21)
(0.99898 -0.00161466 -3.39251e-21)
(0.99909 -0.00171708 -7.66723e-21)
(1.00777 -0.00656567 4.73868e-22)
(1.00738 -0.0062851 -1.36742e-21)
(1.0519 -0.0385221 -4.44122e-21)
(1.0522 -0.0392313 -4.59599e-21)
(1.05138 -0.03912 -7.64403e-21)
(1.0005 -0.000176858 -2.69069e-21)
(1.00045 -0.000225038 -2.71576e-21)
(1.00042 -0.000147378 -2.97555e-21)
(0.38348 0.029589 5.65572e-21)
(0.440964 0.0288169 -4.90865e-21)
(1.04644 -0.0289711 -3.715e-22)
(1.04641 -0.0290142 3.55925e-21)
(1.04646 -0.0292082 3.26832e-21)
(1.04953 -0.0302406 -2.03755e-21)
(1.04935 -0.0302485 -6.12557e-22)
(1.04944 -0.0304278 2.27647e-21)
(1.00805 -0.00651133 -1.1673e-21)
(1.0081 -0.00682509 1.75049e-21)
(1.04315 -0.0252463 6.79659e-22)
(1.04308 -0.0255742 0)
(1.04281 -0.0252887 0)
(1.04974 -0.0302369 -4.2594e-22)
(1.04961 -0.0300529 1.42333e-21)
(1.05399 -0.024612 -1.17129e-21)
(1.05461 -0.0251161 4.0049e-22)
(1.04573 -0.333246 -1.74908e-20)
(0.986473 -0.079943 3.08228e-22)
(0.985764 -0.0770061 1.2536e-20)
(0.988567 -0.0778325 2.0293e-21)
(1.04603 -0.0312329 1.49036e-21)
(1.0457 -0.0315619 -1.53376e-21)
(-0.217154 0.00520497 -1.27372e-20)
(-0.216858 0.00814837 -3.45198e-21)
(0.550694 -0.0094362 0)
(0.525819 -0.0114921 2.1807e-21)
(1.04864 -0.0289905 -7.68234e-23)
(1.04858 -0.0288836 -5.25111e-21)
(0.880394 -0.0121261 3.06942e-20)
(0.876691 -0.00799543 -4.06598e-20)
(0.874867 -0.0137773 -2.60236e-20)
(0.968579 0.00285091 -1.5931e-21)
(0.968494 0.00416637 -6.35532e-21)
(0.96993 0.00355251 -2.1711e-21)
(1.00694 -0.0126178 0)
(1.00671 -0.0129796 0)
(1.00727 -0.0130618 3.37763e-21)
(1.08337 -0.0178229 0)
(1.08133 -0.0173271 0)
(1.04535 -0.0314496 2.95447e-22)
(1.04497 -0.03138 1.32343e-21)
(0.345532 -0.0118106 2.57078e-21)
(0.323981 -0.0126467 1.16969e-21)
(1.03006 -0.0397544 1.33616e-22)
(1.03073 -0.0406171 4.7645e-22)
(0.980454 -0.0405752 -3.72891e-21)
(0.981741 -0.0420628 1.4292e-20)
(1.05171 -0.0296103 1.50501e-21)
(1.05198 -0.0294736 8.33236e-22)
(1.05176 -0.0292693 -5.50986e-21)
(1.04857 -0.0290474 9.05897e-22)
(1.04868 -0.0291011 8.98833e-21)
(1.02351 -0.0208746 -2.00657e-21)
(1.02371 -0.0213551 3.60287e-21)
(1.02313 -0.0211969 -2.014e-21)
(1.01489 -0.0266055 -1.97038e-21)
(1.01423 -0.0261829 6.76984e-21)
(1.01495 -0.0259133 -4.84825e-21)
(0.691707 -0.0712953 -5.51389e-20)
(0.710501 -0.0751961 0)
(0.700183 -0.0868091 0)
(1.11257 -0.0632526 0)
(1.11379 -0.0665423 0)
(1.10969 -0.0650909 0)
(0.399867 0.0218848 -3.53519e-21)
(0.434348 0.0218329 -3.706e-21)
(0.455776 0.0216201 7.6034e-22)
(0.544278 0.0116972 4.14543e-21)
(0.529308 0.0125278 -2.59625e-21)
(0.597644 0.0112689 -1.02248e-21)
(1.04334 -0.0307573 0)
(1.04378 -0.0306192 -5.10633e-22)
(0.892931 -0.551806 0)
(0.896408 -0.60291 4.38872e-21)
(0.939462 -0.596259 -2.38407e-20)
(0.350386 0.0227141 4.66571e-21)
(0.372854 0.021707 -2.63344e-22)
(0.930135 0.0189747 6.76191e-21)
(0.9329 0.0193647 9.54083e-21)
(0.930704 0.0219688 -9.82841e-22)
(1.04599 -0.0289254 -3.0171e-23)
(1.04589 -0.0291557 -1.94137e-21)
(1.04574 -0.0288864 -4.09453e-21)
(0.567078 -0.00549016 1.05219e-21)
(0.593038 -0.005806 -1.0435e-21)
(0.557656 -0.0054992 -1.52349e-21)
(1.02562 -0.0428585 7.77648e-22)
(1.02577 -0.0436795 1.42738e-21)
(1.02479 -0.0433393 -2.03374e-21)
(1.05301 -0.0288238 1.43051e-22)
(1.05331 -0.0287275 -5.72119e-21)
(1.05322 -0.029122 4.40952e-23)
(0.994472 -0.0233731 -2.18839e-21)
(0.995245 -0.0234805 5.69174e-23)
(1.11474 -0.0614089 0)
(0.999932 -0.000367731 2.56245e-22)
(0.999912 -0.000454154 -1.38696e-21)
(0.999892 -0.000420429 -5.69095e-21)
(1.04604 -0.0637576 1.31631e-22)
(1.04694 -0.0625333 0)
(1.04754 -0.0646583 -2.34356e-21)
(0.987733 -0.0518793 -5.36423e-21)
(0.989307 -0.0526042 9.28155e-21)
(0.987769 -0.0537662 7.68373e-22)
(0.975698 0.00688993 3.08372e-21)
(0.976107 0.00575688 -1.62212e-20)
(1.04949 -0.0267881 -2.90363e-22)
(1.04918 -0.0266621 -2.82471e-21)
(1.04945 -0.0264709 -6.31364e-22)
(1.01964 -0.0243602 1.67277e-21)
(1.0194 -0.0237218 0)
(1.02019 -0.0239539 5.15816e-23)
(0.164022 -0.430023 -1.17927e-19)
(0.115781 -0.470766 7.47492e-22)
(1.00801 -0.00614823 3.28493e-21)
(1.0084 -0.00645999 1.01645e-21)
(1.04991 -0.0284878 -1.35601e-21)
(1.05018 -0.0284346 5.46648e-22)
(1.05004 -0.0287187 -4.36422e-21)
(0.347675 -0.0104206 1.08252e-22)
(0.323915 -0.0124847 1.91847e-21)
(0.335724 0.0270331 -9.61533e-21)
(0.321842 0.0300039 7.28509e-21)
(0.400872 0.0275648 4.42609e-21)
(0.884849 -0.0211913 2.30294e-20)
(0.889644 -0.0210869 -1.81191e-20)
(0.887124 -0.025496 -1.91422e-20)
(1.04607 -0.028706 4.21019e-21)
(1.0462 -0.0289661 3.14972e-21)
(0.999973 -0.000264572 -3.38987e-24)
(0.999981 -0.000205778 6.28082e-21)
(0.999981 -0.000190718 -6.59302e-21)
(0.738257 -0.196477 -1.5788e-20)
(0.719707 -0.190703 3.20165e-20)
(0.996729 -0.00391535 0)
(0.997029 -0.00369316 -6.12635e-21)
(0.997055 -0.00405802 5.21618e-21)
(1.04441 -0.0631453 -3.06117e-23)
(0.345563 -0.0925962 1.13223e-20)
(0.156004 -0.0586762 5.57437e-21)
(0.229816 -0.0678949 2.35057e-20)
(0.88231 -0.0170528 3.84504e-20)
(0.884955 -0.0119167 2.98388e-20)
(1.02533 -0.0417791 2.99136e-22)
(1.02643 -0.0420814 -5.43899e-22)
(0.996159 0.00945256 4.41435e-21)
(0.995707 0.00967529 -7.72475e-22)
(0.499251 0.0134854 2.68029e-21)
(0.552133 0.0111315 4.86113e-21)
(1.01059 -0.0117407 0)
(1.01061 -0.0112483 4.59091e-21)
(1.11097 -0.423454 2.53726e-21)
(1.14119 -0.449797 1.17505e-21)
(0.52078 0.0131222 -9.82986e-22)
(0.508823 0.0136595 3.16462e-21)
(0.572506 0.0119883 2.23505e-22)
(1.0923 -0.125213 -7.28644e-21)
(1.09449 -0.120245 1.10717e-22)
(1.00004 -0.000217272 -2.19411e-21)
(1.00002 -0.00015664 -1.03457e-20)
(1.14268 -0.212632 2.18255e-20)
(1.1481 -0.205556 6.88608e-20)
(1.14808 -0.216066 -1.68305e-21)
(0.300749 -0.00678852 -1.53644e-21)
(0.308988 -0.00611037 6.79869e-21)
(0.329252 -0.0032254 -1.0828e-21)
(0.76986 -0.0147733 2.92815e-21)
(0.734915 -0.0142188 8.39184e-22)
(1.05279 -0.0285912 -9.67399e-24)
(1.04135 -0.0366076 6.78163e-23)
(1.04116 -0.0373279 0)
(1.04061 -0.0366044 7.73523e-22)
(0.703158 -0.252373 1.2917e-20)
(0.69684 -0.234905 -3.23784e-20)
(0.680383 -0.248544 3.86082e-20)
(1.04955 -0.0270987 6.19385e-21)
(1.04982 -0.0269548 1.62608e-22)
(1.04347 -0.0251944 6.36654e-22)
(1.04317 -0.0249424 -4.58686e-22)
(1.02687 -0.303013 3.96729e-21)
(1.01281 -0.300895 -3.24263e-21)
(0.994966 -0.0901377 2.30086e-21)
(0.991808 -0.0896942 -2.86661e-21)
(0.994035 -0.0873004 2.81927e-21)
(0.427357 -0.0141818 0)
(0.406728 -0.0131102 0)
(0.403382 -0.0139186 2.10398e-22)
(1.0551 -0.0287767 -1.11221e-21)
(1.05447 -0.0285781 -5.26471e-22)
(1.05473 -0.0292791 -3.84038e-21)
(1.0058 -0.000428436 -1.055e-20)
(1.00622 -0.000630898 1.40059e-21)
(1.00585 -0.000905412 3.32826e-22)
(1.03455 -0.0330114 8.76251e-23)
(1.03407 -0.0325664 6.54704e-23)
(1.03386 -0.033164 -1.19769e-22)
(1.05165 -0.0299176 2.962e-21)
(0.644621 -0.0129275 -1.18985e-21)
(0.619329 -0.0108303 -2.28349e-21)
(0.48499 -0.0146054 1.3782e-22)
(0.505718 -0.0142323 8.09481e-21)
(0.491268 -0.0150783 6.74895e-22)
(1.00665 -0.0122268 0)
(1.00718 -0.0123422 5.63108e-21)
(0.578073 -0.124337 -1.69362e-20)
(0.988056 0.00384285 3.24916e-24)
(0.988381 0.00324685 -2.19951e-22)
(0.988776 0.003739 -4.87349e-25)
(1.04799 -0.0285281 1.98915e-22)
(1.04808 -0.0283718 2.1801e-22)
(1.04819 -0.0285398 1.64728e-21)
(1.05597 -0.0243484 -8.37897e-23)
(1.05667 -0.0242266 0)
(1.05622 -0.0249189 0)
(1.0349 -0.0334538 5.02902e-24)
(1.03508 -0.0329197 -2.676e-24)
(1.04738 -0.0363361 1.9628e-21)
(1.04794 -0.0362474 8.2137e-21)
(1.05574 -0.0287902 6.83445e-25)
(1.0554 -0.0281082 -1.97988e-22)
(0.989361 -0.00824032 6.85149e-21)
(0.989613 -0.00898331 0)
(0.990093 -0.00824125 -6.31951e-21)
(0.796741 -0.0621625 3.88711e-21)
(0.786198 -0.0568841 2.47088e-20)
(1.0497 -0.029218 1.6849e-21)
(1.04985 -0.0293121 -2.9412e-21)
(1.04985 -0.0290944 0)
(1.0497 -0.021926 4.91941e-21)
(1.04985 -0.0214083 -4.08711e-21)
(1.05099 -0.0221044 -2.35196e-21)
(0.995271 0.00178205 6.69009e-21)
(0.9957 0.00161833 -3.9458e-21)
(0.995568 0.00202471 6.8269e-21)
(0.976526 0.00736484 1.28281e-20)
(0.975213 0.00783303 1.70873e-20)
(0.879466 -0.0221607 -4.63764e-21)
(0.672023 -0.00594829 -1.02592e-22)
(0.680047 -0.00660316 1.99929e-21)
(0.719962 -0.00723577 2.0676e-21)
(-0.210598 0.00124016 9.63438e-21)
(-0.255065 0.00456028 0)
(-0.212358 0.000410593 -6.82468e-20)
(1.04639 -0.0330171 3.06178e-22)
(1.04611 -0.0331409 3.3837e-21)
(1.04644 -0.0333748 2.26986e-21)
(1.01367 -0.0170206 3.25927e-21)
(1.01317 -0.0172045 -5.20937e-21)
(1.05354 -0.0247452 6.78631e-22)
(1.05362 -0.0242739 2.93007e-21)
(1.05808 -0.0242054 7.2476e-21)
(1.05732 -0.0242146 6.66123e-22)
(1.05765 -0.0249063 2.3755e-23)
(1.04854 -0.0292437 6.13438e-22)
(1.04851 -0.0292695 -2.27283e-21)
(1.04857 -0.0292851 -2.34697e-21)
(1.04725 -0.0357343 -3.14053e-22)
(1.04679 -0.0362971 -4.37161e-21)
(0.665299 -0.00629593 -3.74864e-21)
(0.630887 -0.00637029 1.05112e-21)
(0.203699 -0.000297672 0)
(0.206935 -0.00120896 0)
(0.172443 -0.00238638 0)
(1.03415 -0.0360914 -1.45579e-23)
(1.03394 -0.0366878 1.71813e-23)
(1.03465 -0.0364068 -1.20443e-23)
(1.04226 -0.0307561 1.37005e-22)
(1.04267 -0.030929 -2.08383e-22)
(1.04252 -0.0304829 4.65673e-22)
(1.17617 -0.125446 1.63147e-21)
(1.17811 -0.119395 2.4458e-21)
(1.21043 -0.127532 2.90813e-20)
(1.00584 -0.0154782 -2.31044e-21)
(1.00581 -0.0161085 9.05655e-21)
(1.00525 -0.0154659 4.08149e-21)
(0.99969 -0.00208357 2.20519e-22)
(0.999778 -0.00209712 0)
(0.99975 -0.00193466 -1.16503e-20)
(1.04858 -0.0292094 3.96271e-21)
(1.04849 -0.0291874 2.93849e-21)
(1.05465 -0.0839487 1.36073e-20)
(1.05354 -0.0815801 -5.18953e-21)
(1.05197 -0.0837883 3.8622e-21)
(1.01101 -0.0120582 4.2292e-21)
(1.01139 -0.0123745 -1.12219e-21)
(1.01138 -0.011915 7.89314e-21)
(0.999935 -0.000525103 -1.78639e-21)
(0.999922 -0.000487479 1.00589e-20)
(0.999946 -0.000437086 3.39417e-21)
(0.996446 -0.00405537 -5.4843e-21)
(0.996469 -0.00368367 0)
(1.00196 -0.000388135 -7.39794e-21)
(1.00212 -0.000409171 0)
(1.00197 -0.000233691 -5.7893e-21)
(1.04109 -0.034139 -8.2859e-22)
(1.04157 -0.0344497 1.0815e-21)
(1.04166 -0.0338721 -2.43736e-21)
(0.999621 -0.00225395 -7.52015e-21)
(0.574339 -0.00610442 -6.96205e-22)
(0.607834 -0.0067421 -2.02523e-22)
(1.046 -0.0338782 -9.74486e-22)
(1.04576 -0.0334221 3.40603e-22)
(0.995851 -0.0182446 3.31119e-21)
(0.995344 -0.01787 1.24408e-21)
(0.995358 -0.0186462 2.99538e-21)
(0.625689 -0.0139797 1.60829e-21)
(0.405867 -0.000936613 3.0986e-22)
(0.387363 -0.00048937 1.63573e-22)
(0.967827 0.0098067 -3.09085e-21)
(0.968008 0.00835074 3.25894e-21)
(0.969327 0.00903148 -5.48119e-21)
(1.04979 -0.0282377 0)
(0.116918 0.00560709 3.4114e-22)
(0.0868908 0.00269194 1.09299e-20)
(0.120902 0.00388164 3.59949e-21)
(0.957858 -0.0141012 6.18919e-21)
(0.959639 -0.0152908 -3.85383e-21)
(0.967572 0.0112527 6.68053e-22)
(0.966036 0.0104543 5.05505e-21)
(1.04627 -0.0342309 2.12216e-21)
(1.04643 -0.0337732 0)
(0.333625 -0.0106554 -4.4342e-23)
(0.330997 -0.00875417 -1.64376e-22)
(0.356454 -0.00848053 1.55193e-21)
(0.901705 -0.0184064 6.55391e-21)
(0.799535 -0.00831944 0)
(0.884105 -0.0191693 2.14522e-20)
(1.05168 -0.0357174 -6.64164e-21)
(1.05233 -0.0357158 3.81672e-22)
(1.05193 -0.036218 -1.0935e-21)
(1.00108 -0.00025822 4.76532e-21)
(1.00102 -0.000364179 5.38281e-21)
(1.08929 -0.0141121 -4.04944e-21)
(1.0788 -0.0145263 0)
(0.998809 -0.00185866 9.11618e-21)
(1.05298 -0.0356992 1.34729e-21)
(1.05339 -0.0362822 2.81786e-21)
(1.05375 -0.0355809 0)
(0.109826 0.00607617 -2.54144e-20)
(0.144137 0.00976298 -1.08112e-20)
(1.0494 -0.0226808 -7.86344e-23)
(1.04968 -0.0222915 5.63884e-21)
(1.05039 -0.0229101 0)
(1.03289 -0.023257 -6.29218e-23)
(1.03308 -0.0229163 -1.99485e-22)
(1.17413 -0.129867 1.51736e-21)
(1.1612 -0.123827 -6.69737e-22)
(1.14897 -0.0984472 1.57725e-20)
(1.14777 -0.0965701 6.04906e-21)
(1.14914 -0.102636 1.57897e-20)
(0.117462 0.0178956 -3.57524e-20)
(0.141585 0.0177777 6.30048e-20)
(0.213735 0.0123074 1.81866e-20)
(1.07562 -0.0388047 -1.66635e-21)
(1.07487 -0.0401193 1.19923e-20)
(1.07666 -0.0399873 -3.5267e-22)
(0.774736 -0.0313725 -1.89067e-22)
(0.775865 -0.0207022 2.39732e-20)
(0.763756 -0.0238973 2.46192e-20)
(0.421914 0.0291297 6.5724e-21)
(0.443654 0.029058 1.35567e-20)
(0.462827 0.00219202 -3.13886e-21)
(0.491645 0.00267987 -1.61586e-21)
(0.459251 0.00194027 2.38505e-21)
(1.05287 -0.0195026 3.66139e-21)
(1.05019 -0.018783 1.43437e-21)
(1.0155 -0.0270313 1.48275e-21)
(1.01475 -0.0273645 8.12881e-22)
(-0.182924 0.0130989 -2.82359e-20)
(-0.150463 0.0112495 2.13767e-21)
(-0.133469 0.0134519 -5.84829e-20)
(0.337343 -0.0123207 -1.46827e-21)
(0.338134 -0.0134196 -9.92898e-23)
(0.470347 -0.349717 0)
(0.436446 -0.323855 0)
(0.439316 -0.37024 -9.07853e-20)
(0.499387 -0.329249 0)
(0.509981 -0.37045 0)
(0.928047 0.0182801 -8.4456e-21)
(0.929245 0.0163981 1.877e-20)
(1.05272 -0.0373953 -1.89525e-21)
(1.05233 -0.0379356 1.65553e-22)
(1.05311 -0.0379479 2.45658e-21)
(0.918891 -0.065949 -2.54654e-20)
(0.922312 -0.0627754 1.43507e-21)
(0.923715 -0.067664 4.27061e-21)
(0.468297 -0.0135037 -2.29552e-22)
(0.443714 -0.0144291 2.66761e-21)
(0.77752 -0.0755576 2.37152e-20)
(0.776618 -0.063074 -2.31122e-20)
(0.763437 -0.0706406 -2.16881e-20)
(1.00429 -0.0011716 -1.37504e-21)
(1.00424 -0.00139588 -2.77229e-21)
(1.00451 -0.00133625 4.91523e-22)
(1.01883 -0.0018134 -1.03532e-21)
(1.01861 -0.00145063 1.20138e-21)
(1.01532 -0.0592919 -2.29401e-21)
(1.01674 -0.0600719 -8.69084e-22)
(1.01497 -0.0608166 5.49256e-23)
(0.0442161 0.0116055 -9.97114e-22)
(0.0908465 0.0172432 -1.34405e-20)
(0.232613 -0.459661 2.61833e-21)
(1.00634 -0.0155565 -2.02007e-21)
(1.00591 -0.015025 -3.69668e-21)
(0.282484 0.0308376 -1.45372e-20)
(0.909885 -0.0619566 -8.33075e-21)
(0.914815 -0.0643659 -1.46881e-20)
(0.913655 -0.0589814 -2.55103e-20)
(1.03127 -0.0576315 2.52745e-22)
(1.03287 -0.0573322 1.97989e-22)
(1.03416 -0.0234798 3.34537e-22)
(1.03403 -0.0231219 1.37558e-22)
(0.331721 -0.0107057 2.0336e-21)
(0.305156 -0.00874348 0)
(1.05288 -0.0248862 -5.22612e-22)
(1.05349 -0.0253256 1.09247e-21)
(1.05217 -0.0296892 9.07465e-22)
(0.987814 -0.0496594 2.70701e-21)
(0.986067 -0.0506414 1.33351e-21)
(1.02503 -0.0409082 -8.34619e-22)
(1.0243 -0.041538 6.9512e-22)
(0.69713 -0.0138745 -4.98411e-22)
(0.700022 -0.0144288 9.64198e-21)
(0.67371 -0.0132086 1.64023e-21)
(0.967387 0.00205494 -2.82434e-21)
(0.968906 0.00151081 -1.36897e-20)
(1.05865 -0.0234763 6.43763e-21)
(1.03359 -0.0356009 0)
(1.03443 -0.0353668 4.15596e-23)
(1.04615 -0.0346241 1.81191e-21)
(1.04664 -0.0344382 -8.12792e-22)
(0.906674 -0.0658236 2.32303e-20)