/*--------------------------------*- C++ -*----------------------------------*\
| =========                 |                                                 |
| \\      /  F ield         | OpenFOAM: The Open Source CFD Toolbox           |
|  \\    /   O peration     | Version:  v2012                                 |
|   \\  /    A nd           | Website:  www.openfoam.com                      |
|    \\/     M anipulation  |                                                 |
\*---------------------------------------------------------------------------*/
FoamFile
{
    version     2.0;
    format      ascii;
    class       pointVectorField;
    location    "300";
    object      pointDisplacement;
}
// * * * * * * * * * * * * * * * * * * * * * * * * * * * * * * * * * * * * * //

dimensions      [0 1 0 0 0 0 0];


internalField   nonuniform List<vector> 
14324
(
(0 0 0)
(0.0288829 0.192986 0)
(0 0 0)
(0.0288829 0.192986 0)
(0 0 0)
(0 0 0)
(0 0 0)
(0 0 0)
(0 0 0)
(0 0 0)
(0 0 0)
(0 0 0)
(0 0 0)
(0 0 0)
(0 0 0)
(0 0 0)
(0 0 0)
(0 0 0)
(0 0 0)
(0 0 0)
(0 0 0)
(0 0 0)
(0 0 0)
(0 0 0)
(0 0 0)
(0 0 0)
(0 0 0)
(0 0 0)
(0 0 0)
(0 0 0)
(0 0 0)
(0 0 0)
(0 0 0)
(0 0 0)
(0 0 0)
(0 0 0)
(0 0 0)
(0 0 0)
(0 0 0)
(0 0 0)
(0 0 0)
(0 0 0)
(0 0 0)
(0 0 0)
(0 0 0)
(0 0 0)
(0 0 0)
(0 0 0)
(0 0 0)
(0 0 0)
(0 0 0)
(0 0 0)
(0 0 0)
(0 0 0)
(0 0 0)
(0 0 0)
(0 0 0)
(0 0 0)
(0 0 0)
(0 0 0)
(0 0 0)
(0 0 0)
(0 0 0)
(0 0 0)
(0 0 0)
(0 0 0)
(0 0 0)
(0 0 0)
(0 0 0)
(0 0 0)
(0 0 0)
(0 0 0)
(0 0 0)
(0 0 0)
(0 0 0)
(0 0 0)
(0.0210916 -0.128827 0)
(0.0211502 -0.126407 0)
(0.0212088 -0.123988 0)
(0.0212674 -0.121568 0)
(0.021326 -0.119148 0)
(0.0213845 -0.116729 0)
(0.0214431 -0.114309 0)
(0.0215017 -0.111889 0)
(0.0215603 -0.10947 0)
(0.0216189 -0.10705 0)
(0.0216774 -0.10463 0)
(0.021736 -0.102211 0)
(0.0217946 -0.0997911 0)
(0.0218532 -0.0973715 0)
(0.0219118 -0.0949518 0)
(0.0219703 -0.0925322 0)
(0.0220289 -0.0901126 0)
(0.0220875 -0.0876929 0)
(0.0221461 -0.0852733 0)
(0.0222047 -0.0828536 0)
(0.0222632 -0.080434 0)
(0.0223218 -0.0780143 0)
(0.0223804 -0.0755947 0)
(0.022439 -0.0731751 0)
(0.0224976 -0.0707554 0)
(0.0225562 -0.0683358 0)
(0.0226147 -0.0659161 0)
(0.0226733 -0.0634965 0)
(0.0227319 -0.0610769 0)
(0.0227905 -0.0586572 0)
(0.0228491 -0.0562376 0)
(0.0229076 -0.0538179 0)
(0.0229662 -0.0513983 0)
(0.0230248 -0.0489786 0)
(0.0230834 -0.046559 0)
(0.023142 -0.0441394 0)
(0.0232005 -0.0417197 0)
(0.0232591 -0.0393001 0)
(0.0233177 -0.0368804 0)
(0.0233763 -0.0344608 0)
(0.0234349 -0.0320412 0)
(0.0234934 -0.0296215 0)
(0.023552 -0.0272019 0)
(0.0236106 -0.0247822 0)
(0.0236692 -0.0223626 0)
(0.0237278 -0.0199429 0)
(0.0237864 -0.0175233 0)
(0.0238449 -0.0151037 0)
(0.0239035 -0.012684 0)
(0.0239621 -0.0102644 0)
(0.0240207 -0.00784474 0)
(0.0240793 -0.00542509 0)
(0.0241378 -0.00300545 0)
(0.0241964 -0.00058581 0)
(0.024255 0.00183383 0)
(0.0243136 0.00425347 0)
(0.0243722 0.00667312 0)
(0.0244307 0.00909276 0)
(0.0244893 0.0115124 0)
(0.0245479 0.013932 0)
(0.0246065 0.0163517 0)
(0.0246651 0.0187713 0)
(0.0247236 0.021191 0)
(0.0247822 0.0236106 0)
(0.0248408 0.0260303 0)
(0.0248994 0.0284499 0)
(0.024958 0.0308695 0)
(0.0250166 0.0332892 0)
(0.0250751 0.0357088 0)
(0.0251337 0.0381285 0)
(0.0251923 0.0405481 0)
(0.0252509 0.0429677 0)
(0.0253095 0.0453874 0)
(0.025368 0.047807 0)
(0.0254266 0.0502267 0)
(0.0254852 0.0526463 0)
(0.0255438 0.055066 0)
(0.0256024 0.0574856 0)
(0.0256609 0.0599052 0)
(0.0257195 0.0623249 0)
(0.0257781 0.0647445 0)
(0.0258367 0.0671642 0)
(0.0258953 0.0695838 0)
(0.0259538 0.0720034 0)
(0.0260124 0.0744231 0)
(0.026071 0.0768427 0)
(0.0261296 0.0792624 0)
(0.0261882 0.081682 0)
(0.0262468 0.0841017 0)
(0.0263053 0.0865213 0)
(0.0263639 0.0889409 0)
(0.0264225 0.0913606 0)
(0.0264811 0.0937802 0)
(0.0265397 0.0961999 0)
(0.0265982 0.0986195 0)
(0.0266568 0.101039 0)
(0.0267154 0.103459 0)
(0.026774 0.105878 0)
(0.0268326 0.108298 0)
(0.0268911 0.110718 0)
(0.0269497 0.113137 0)
(0.0270083 0.115557 0)
(0.0270669 0.117977 0)
(0.0271255 0.120396 0)
(0.027184 0.122816 0)
(0.0272426 0.125236 0)
(0.0273012 0.127655 0)
(0.0273598 0.130075 0)
(0.0274184 0.132494 0)
(0.027477 0.134914 0)
(0.0275355 0.137334 0)
(0.0275941 0.139753 0)
(0.0276527 0.142173 0)
(0.0277113 0.144593 0)
(0.0277699 0.147012 0)
(0.0278284 0.149432 0)
(0.027887 0.151852 0)
(0.0279456 0.154271 0)
(0.0280042 0.156691 0)
(0.0280628 0.159111 0)
(0.0281213 0.16153 0)
(0.0281799 0.16395 0)
(0.0282385 0.166369 0)
(0.0282971 0.168789 0)
(0.0283557 0.171209 0)
(0.0284142 0.173628 0)
(0.0284728 0.176048 0)
(0.0285314 0.178468 0)
(0.02859 0.180887 0)
(0.0286486 0.183307 0)
(0.0287072 0.185727 0)
(0.0287657 0.188146 0)
(0.0288243 0.190566 0)
(0.0264633 0.193044 0)
(0.0240436 0.193103 0)
(0.021624 0.193161 0)
(0.0192043 0.19322 0)
(0.0167847 0.193278 0)
(0.014365 0.193337 0)
(0.0119454 0.193396 0)
(0.00952576 0.193454 0)
(0.00710612 0.193513 0)
(0.00468648 0.193571 0)
(0.00226684 0.19363 0)
(-0.000152805 0.193689 0)
(-0.00257245 0.193747 0)
(-0.00499209 0.193806 0)
(-0.00741173 0.193864 0)
(-0.00983137 0.193923 0)
(-0.012251 0.193981 0)
(-0.0146707 0.19404 0)
(0 0 0)
(0 0 0)
(0 0 0)
(0 0 0)
(0 0 0)
(0 0 0)
(0 0 0)
(0 0 0)
(0 0 0)
(0 0 0)
(0 0 0)
(0 0 0)
(0 0 0)
(0 0 0)
(0 0 0)
(0 0 0)
(0 0 0)
(0 0 0)
(0 0 0)
(0 0 0)
(0 0 0)
(0 0 0)
(0 0 0)
(0 0 0)
(0 0 0)
(0 0 0)
(0 0 0)
(0 0 0)
(0 0 0)
(0 0 0)
(0 0 0)
(0 0 0)
(0 0 0)
(0 0 0)
(0 0 0)
(0 0 0)
(0 0 0)
(0 0 0)
(0 0 0)
(0 0 0)
(0 0 0)
(0 0 0)
(0 0 0)
(0 0 0)
(0 0 0)
(0 0 0)
(0 0 0)
(0 0 0)
(0 0 0)
(0 0 0)
(0 0 0)
(0 0 0)
(0 0 0)
(0 0 0)
(0 0 0)
(0 0 0)
(0 0 0)
(0 0 0)
(0 0 0)
(0 0 0)
(0 0 0)
(0 0 0)
(0 0 0)
(0 0 0)
(0 0 0)
(0 0 0)
(0 0 0)
(0 0 0)
(0 0 0)
(0 0 0)
(0 0 0)
(0 0 0)
(0.0210916 -0.128827 0)
(0.0211502 -0.126407 0)
(0.0212088 -0.123988 0)
(0.0212674 -0.121568 0)
(0.021326 -0.119148 0)
(0.0213845 -0.116729 0)
(0.0214431 -0.114309 0)
(0.0215017 -0.111889 0)
(0.0215603 -0.10947 0)
(0.0216189 -0.10705 0)
(0.0216774 -0.10463 0)
(0.021736 -0.102211 0)
(0.0217946 -0.0997911 0)
(0.0218532 -0.0973715 0)
(0.0219118 -0.0949518 0)
(0.0219703 -0.0925322 0)
(0.0220289 -0.0901126 0)
(0.0220875 -0.0876929 0)
(0.0221461 -0.0852733 0)
(0.0222047 -0.0828536 0)
(0.0222632 -0.080434 0)
(0.0223218 -0.0780143 0)
(0.0223804 -0.0755947 0)
(0.022439 -0.0731751 0)
(0.0224976 -0.0707554 0)
(0.0225562 -0.0683358 0)
(0.0226147 -0.0659161 0)
(0.0226733 -0.0634965 0)
(0.0227319 -0.0610769 0)
(0.0227905 -0.0586572 0)
(0.0228491 -0.0562376 0)
(0.0229076 -0.0538179 0)
(0.0229662 -0.0513983 0)
(0.0230248 -0.0489786 0)
(0.0230834 -0.046559 0)
(0.023142 -0.0441394 0)
(0.0232005 -0.0417197 0)
(0.0232591 -0.0393001 0)
(0.0233177 -0.0368804 0)
(0.0233763 -0.0344608 0)
(0.0234349 -0.0320412 0)
(0.0234934 -0.0296215 0)
(0.023552 -0.0272019 0)
(0.0236106 -0.0247822 0)
(0.0236692 -0.0223626 0)
(0.0237278 -0.0199429 0)
(0.0237864 -0.0175233 0)
(0.0238449 -0.0151037 0)
(0.0239035 -0.012684 0)
(0.0239621 -0.0102644 0)
(0.0240207 -0.00784474 0)
(0.0240793 -0.00542509 0)
(0.0241378 -0.00300545 0)
(0.0241964 -0.00058581 0)
(0.024255 0.00183383 0)
(0.0243136 0.00425347 0)
(0.0243722 0.00667312 0)
(0.0244307 0.00909276 0)
(0.0244893 0.0115124 0)
(0.0245479 0.013932 0)
(0.0246065 0.0163517 0)
(0.0246651 0.0187713 0)
(0.0247236 0.021191 0)
(0.0247822 0.0236106 0)
(0.0248408 0.0260303 0)
(0.0248994 0.0284499 0)
(0.024958 0.0308695 0)
(0.0250166 0.0332892 0)
(0.0250751 0.0357088 0)
(0.0251337 0.0381285 0)
(0.0251923 0.0405481 0)
(0.0252509 0.0429677 0)
(0.0253095 0.0453874 0)
(0.025368 0.047807 0)
(0.0254266 0.0502267 0)
(0.0254852 0.0526463 0)
(0.0255438 0.055066 0)
(0.0256024 0.0574856 0)
(0.0256609 0.0599052 0)
(0.0257195 0.0623249 0)
(0.0257781 0.0647445 0)
(0.0258367 0.0671642 0)
(0.0258953 0.0695838 0)
(0.0259538 0.0720034 0)
(0.0260124 0.0744231 0)
(0.026071 0.0768427 0)
(0.0261296 0.0792624 0)
(0.0261882 0.081682 0)
(0.0262468 0.0841017 0)
(0.0263053 0.0865213 0)
(0.0263639 0.0889409 0)
(0.0264225 0.0913606 0)
(0.0264811 0.0937802 0)
(0.0265397 0.0961999 0)
(0.0265982 0.0986195 0)
(0.0266568 0.101039 0)
(0.0267154 0.103459 0)
(0.026774 0.105878 0)
(0.0268326 0.108298 0)
(0.0268911 0.110718 0)
(0.0269497 0.113137 0)
(0.0270083 0.115557 0)
(0.0270669 0.117977 0)
(0.0271255 0.120396 0)
(0.027184 0.122816 0)
(0.0272426 0.125236 0)
(0.0273012 0.127655 0)
(0.0273598 0.130075 0)
(0.0274184 0.132494 0)
(0.027477 0.134914 0)
(0.0275355 0.137334 0)
(0.0275941 0.139753 0)
(0.0276527 0.142173 0)
(0.0277113 0.144593 0)
(0.0277699 0.147012 0)
(0.0278284 0.149432 0)
(0.027887 0.151852 0)
(0.0279456 0.154271 0)
(0.0280042 0.156691 0)
(0.0280628 0.159111 0)
(0.0281213 0.16153 0)
(0.0281799 0.16395 0)
(0.0282385 0.166369 0)
(0.0282971 0.168789 0)
(0.0283557 0.171209 0)
(0.0284142 0.173628 0)
(0.0284728 0.176048 0)
(0.0285314 0.178468 0)
(0.02859 0.180887 0)
(0.0286486 0.183307 0)
(0.0287072 0.185727 0)
(0.0287657 0.188146 0)
(0.0288243 0.190566 0)
(0.0264633 0.193044 0)
(0.0240436 0.193103 0)
(0.021624 0.193161 0)
(0.0192043 0.19322 0)
(0.0167847 0.193278 0)
(0.014365 0.193337 0)
(0.0119454 0.193396 0)
(0.00952576 0.193454 0)
(0.00710612 0.193513 0)
(0.00468648 0.193571 0)
(0.00226684 0.19363 0)
(-0.000152805 0.193689 0)
(-0.00257245 0.193747 0)
(-0.00499209 0.193806 0)
(-0.00741173 0.193864 0)
(-0.00983137 0.193923 0)
(-0.012251 0.193981 0)
(-0.0146707 0.19404 0)
(0.0221194 -0.0863854 0)
(0.0231732 -0.0428507 0)
(0.0242206 0.000396853 0)
(0.0252811 0.0442251 0)
(0.0263423 0.0880227 0)
(0.0273897 0.131301 0)
(0.0284492 0.175118 0)
(0.0258131 0.0661759 0)
(0.0215915 -0.108187 0)
(0.0247582 0.0226078 0)
(0.0226486 -0.0645181 0)
(0.0279186 0.153155 0)
(0.0237 -0.0210981 0)
(0.0268621 0.109518 0)
(0.00310947 0.193613 0)
(0.0226194 0.193129 0)
(-0.0138108 0.19402 0)
(0.00102827 0.00563263 0)
(0.000806132 0.00959014 0)
(0.00121341 0.00450947 0)
(0.00121989 0.0014375 0)
(0.000657117 0.0110492 0)
(0.000465655 0.012384 0)
(0.0287228 0.186828 0)
(0.000725228 0.00481276 0)
(0.00066614 0.00657892 0)
(0.000237137 0.0128816 0)
(0.00116343 -0.00067274 0)
(0.000536241 0.00479182 0)
(0.0276885 0.143631 0)
(0.0234629 -0.030874 0)
(0.0270974 0.119237 0)
(0.0224035 -0.0746687 0)
(0.0255143 0.0538375 0)
(0.0261107 0.0784656 0)
(0.0249845 0.0319665 0)
(0.021825 -0.0985419 0)
(0.0244657 0.0105316 0)
(0.0229322 -0.0528243 0)
(0.0282105 0.16524 0)
(0.0213534 -0.118014 0)
(0.0239874 -0.00924841 0)
(0.0265731 0.0975863 0)
(0.0131127 0.193362 0)
(0.000571267 0.00420086 0)
(0.000763919 0.0104772 0)
(0.00110519 0.00513503 0)
(0.00119258 0.00279522 0)
(0.000373591 0.00312982 0)
(0.000423825 0.00328892 0)
(-0.00627907 0.193837 0)
(0.000212927 0.00170542 0)
(0.000602384 0.0118066 0)
(0.000352428 0.0125353 0)
(0.000706143 0.00770906 0)
(0.00126904 0.00386451 0)
(0.00111228 0.000334482 0)
(0.00132846 -0.00208133 0)
(0.000729868 0.00435621 0)
(0.000820582 0.00576367 0)
(0.000605085 0.00565838 0)
(0.000472366 0.00406852 0)
(0.000238385 0.00195805 0)
(8.82496e-05 0.000714399 0)
(0.0181343 -0.070247 0)
(0.0180754 -0.0661865 0)
(0.0184165 -0.0639156 0)
(0.0183459 -0.0599312 0)
(0.0187294 -0.0571214 0)
(0.0185929 -0.0527447 0)
(0.0189752 -0.0495852 0)
(0.0188826 -0.0455344 0)
(0.019223 -0.0424233 0)
(0.019103 -0.0387311 0)
(0.0194375 -0.0354498 0)
(0.0193163 -0.0320579 0)
(0.0196333 -0.0285454 0)
(0.0195039 -0.0254051 0)
(0.0198218 -0.0213388 0)
(0.0196663 -0.0185559 0)
(0.0199897 -0.0141139 0)
(0.0198255 -0.0115352 0)
(0.0201316 -0.00699096 0)
(0.019947 -0.00454203 0)
(0.0202554 0.000110281 0)
(0.0200495 0.00239602 0)
(0.0203517 0.00714717 0)
(0.0201473 0.00919367 0)
(0.0204216 0.0140296 0)
(0.0202067 0.015725 0)
(0.0204749 0.020731 0)
(0.0202466 0.0221559 0)
(0.0205046 0.0271759 0)
(0.0202672 0.0283165 0)
(0.0205096 0.0335307 0)
(0.0202526 0.0342759 0)
(0.0204791 0.039615 0)
(0.0202182 0.0401455 0)
(0.0204275 0.0453468 0)
(0.0201653 0.0458597 0)
(0.020369 0.0510885 0)
(0.0200857 0.0513953 0)
(0.0202925 0.0569623 0)
(0.0199868 0.0568129 0)
(0.0201806 0.0624253 0)
(0.0198745 0.0619238 0)
(0.0200435 0.0672624 0)
(0.0187752 -0.0416174 0)
(0.0197123 -0.0022248 0)
(0.019996 0.0348784 0)
(0.0197289 0.0664911 0)
(0.0198801 0.0717168 0)
(0.0195604 0.070831 0)
(0.0196942 0.0759777 0)
(0.019393 0.0654638 0)
(0.0193732 0.0749258 0)
(0.0194864 0.0799783 0)
(0.019154 0.0785202 0)
(0.0192549 0.0836438 0)
(0.0189135 0.0818067 0)
(0.0189985 0.0870346 0)
(0.0186491 0.0849686 0)
(0.0187177 0.0902146 0)
(0.0206143 0.0566015 0)
(0.0207437 0.0259765 0)
(0.0198244 0.0813961 0)
(0.0183607 0.0880417 0)
(0.0184134 0.0930612 0)
(0.0180527 0.0907627 0)
(0.0180887 0.0955022 0)
(0.0184442 0.0979061 0)
(0.0180991 0.100125 0)
(0.0184468 0.10263 0)
(0.0180812 0.104718 0)
(0.0177379 0.102009 0)
(0.0176961 0.106417 0)
(0.0173659 0.103656 0)
(0.0173041 0.107813 0)
(0.0176016 0.110644 0)
(0.0172083 0.111785 0)
(0.0174904 0.114708 0)
(0.0169173 0.109166 0)
(0.0202926 -0.00963435 0)
(0.0170827 0.115603 0)
(0.0173432 0.118604 0)
(0.0169258 0.119244 0)
(0.0171711 0.12224 0)
(0.0167391 0.122683 0)
(0.0169814 0.125831 0)
(0.0165144 0.125938 0)
(0.0167263 0.129102 0)
(0.0193475 -0.0462173 0)
(0.0162421 0.12895 0)
(0.0164294 0.132078 0)
(0.0159284 0.131695 0)
(0.0157687 0.128325 0)
(0.0160921 0.134847 0)
(0.0155787 0.13425 0)
(0.0157182 0.137463 0)
(0.0172226 0.128974 0)
(0.0151928 0.136593 0)
(0.0152939 0.139788 0)
(0.0147686 0.138659 0)
(0.0148268 0.141749 0)
(0.0143046 0.140458 0)
(0.014323 0.143566 0)
(0.0182915 0.0827328 0)
(0.0138148 0.142065 0)
(0.0137677 0.145126 0)
(0.0137643 0.139139 0)
(0.0132901 0.143327 0)
(0.0131789 0.146344 0)
(0.0127053 0.144339 0)
(0.0153537 0.142869 0)
(0.0125585 0.147336 0)
(0.012075 0.145242 0)
(0.0130455 0.14928 0)
(0.0123811 0.150194 0)
(0.0128868 0.152103 0)
(0.0121864 0.152938 0)
(0.012672 0.154819 0)
(0.0119805 0.155475 0)
(0.0123765 0.157292 0)
(0.0116835 0.157773 0)
(0.0120668 0.159595 0)
(0.0113151 0.159975 0)
(0.0109341 0.157807 0)
(0.011733 0.161855 0)
(0.0109126 0.162082 0)
(0.0113063 0.163941 0)
(0.010464 0.163981 0)
(0.0108437 0.165816 0)
(0.0117067 0.165713 0)
(0.0112305 0.167554 0)
(0.0121233 0.167377 0)
(0.0103407 0.167543 0)
(0.0106909 0.169239 0)
(0.00977404 0.169134 0)
(0.0100875 0.170769 0)
(0.00913428 0.170552 0)
(0.00940161 0.172151 0)
(0.00841624 0.17181 0)
(0.00864267 0.173393 0)
(0.00762665 0.172939 0)
(0.00746653 0.171308 0)
(0.006641 0.172316 0)
(0.00966904 0.173698 0)
(0.00676083 0.173937 0)
(0.00574841 0.173218 0)
(0.00580013 0.174808 0)
(0.0047916 0.173964 0)
(0.00471145 0.175479 0)
(0.00362742 0.174351 0)
(0.00356772 0.175986 0)
(0.00262981 0.175041 0)
(0.00242974 0.176402 0)
(0.00160857 0.175387 0)
(0.00126898 0.176638 0)
(0.00658279 0.170633 0)
(0.00333912 0.177412 0)
(0.00175063 0.174166 0)
(0.0206289 -0.118064 0)
(0.0206692 -0.114503 0)
(0.0208158 -0.113276 0)
(0.0208566 -0.109732 0)
(0.0209952 -0.108441 0)
(0.0210351 -0.104934 0)
(0.0211709 -0.103469 0)
(0.0212089 -0.10002 0)
(0.0213374 -0.0984404 0)
(0.0213776 -0.09504 0)
(0.0214924 -0.0935988 0)
(0.0215377 -0.0901351 0)
(0.0214268 -0.0913543 0)
(0.0215815 -0.0866646 0)
(0.0205042 -0.115687 0)
(0.021696 -0.085143 0)
(0.0217395 -0.0817929 0)
(0.021855 -0.0800076 0)
(0.0218965 -0.0767666 0)
(0.0220082 -0.074894 0)
(0.0220495 -0.0715954 0)
(0.0221566 -0.0697924 0)
(0.0222016 -0.0664098 0)
(0.0223022 -0.0646895 0)
(0.0223491 -0.0613016 0)
(0.0224466 -0.059544 0)
(0.0224924 -0.0563014 0)
(0.0225888 -0.0543934 0)
(0.0226299 -0.0513332 0)
(0.0227265 -0.0493087 0)
(0.0227659 -0.0462464 0)
(0.0228606 -0.0442544 0)
(0.0229028 -0.0410931 0)
(0.0229906 -0.0392773 0)
(0.0230356 -0.0360327 0)
(0.023117 -0.0344018 0)
(0.0231673 -0.0309683 0)
(0.0230723 -0.0330017 0)
(0.0232064 -0.0278991 0)
(0.0224135 -0.0574042 0)
(0.0216198 -0.083122 0)
(0.023303 -0.0257551 0)
(0.0233425 -0.0226458 0)
(0.0234396 -0.0204147 0)
(0.0234766 -0.017344 0)
(0.0235747 -0.015021 0)
(0.0236096 -0.0120261 0)
(0.0237073 -0.00965726 0)
(0.0237405 -0.00676465 0)
(0.0238375 -0.00436418 0)
(0.0238703 -0.00151383 0)
(0.0239645 0.000807351 0)
(0.0239977 0.0037289 0)
(0.0240898 0.00599191 0)
(0.0241208 0.00889154 0)
(0.0242112 0.0110812 0)
(0.0242402 0.0139669 0)
(0.024329 0.0160822 0)
(0.0243607 0.0191001 0)
(0.0242598 0.0166504 0)
(0.0243837 0.0219892 0)
(0.0236423 -0.00905704 0)
(0.0244964 0.0246365 0)
(0.0245068 0.0273606 0)
(0.0246115 0.0300177 0)
(0.0246254 0.0326841 0)
(0.0247256 0.0351089 0)
(0.0247393 0.0378545 0)
(0.024841 0.0402831 0)
(0.0248509 0.0429349 0)
(0.0249562 0.0454865 0)
(0.024959 0.0480329 0)
(0.0250671 0.0507292 0)
(0.0250631 0.0531592 0)
(0.025174 0.0559531 0)
(0.0251675 0.058358 0)
(0.0252795 0.0611528 0)
(0.0252691 0.0635651 0)
(0.0253812 0.0663081 0)
(0.0253672 0.0687941 0)
(0.0252483 0.065934 0)
(0.0253436 0.071318 0)
(0.0247555 0.0409952 0)
(0.0254651 0.0741805 0)
(0.0254351 0.0767162 0)
(0.0255588 0.0795871 0)
(0.0255206 0.0819415 0)
(0.0256462 0.0849486 0)
(0.0255971 0.0871181 0)
(0.0253967 0.0794069 0)
(0.0257264 0.0902748 0)
(0.0256635 0.092289 0)
(0.0257986 0.0955604 0)
(0.025725 0.0975303 0)
(0.0258614 0.100794 0)
(0.0257762 0.102736 0)
(0.0259134 0.105971 0)
(0.0258152 0.107849 0)
(0.0256739 0.104506 0)
(0.0256997 0.109584 0)
(0.0258423 0.112975 0)
(0.0257124 0.114611 0)
(0.025854 0.118059 0)
(0.0257055 0.119511 0)
(0.0258461 0.122994 0)
(0.0256765 0.124288 0)
(0.0255411 0.120589 0)
(0.0254824 0.125159 0)
(0.0256244 0.128945 0)
(0.0254078 0.129795 0)
(0.0255452 0.133447 0)
(0.0253119 0.134191 0)
(0.0254464 0.137844 0)
(0.0251911 0.138445 0)
(0.0253176 0.142066 0)
(0.0252562 0.125801 0)
(0.0250394 0.142431 0)
(0.0251505 0.145963 0)
(0.0248633 0.146084 0)
(0.0249524 0.149623 0)
(0.024646 0.149412 0)
(0.0247067 0.152936 0)
(0.0245874 0.14606 0)
(0.0243853 0.152433 0)
(0.0244181 0.15582 0)
(0.0240869 0.155142 0)
(0.0240968 0.15847 0)
(0.0237484 0.157587 0)
(0.0249379 0.0425142 0)
(0.025387 0.0638573 0)
(0.0237266 0.160874 0)
(0.0233633 0.15978 0)
(0.0241701 0.00793642 0)
(0.0236778 -0.0124459 0)
(0.0258545 0.093351 0)
(0.0231028 -0.0301526 0)
(0.0242749 0.0193219 0)
(0.025587 0.141543 0)
(0.0229391 -0.0426707 0)
(0.0224021 -0.0627857 0)
(0.0233021 0.162934 0)
(0.0229335 0.161683 0)
(0.0230078 0.158543 0)
(0.0225694 0.160385 0)
(0.0226571 0.157247 0)
(0.0247358 0.156438 0)
(0.0214471 -0.096681 0)
(0.0228353 0.164669 0)
(0.0207748 -0.1168 0)
(0.0232159 0.165946 0)
(0.0222025 0.159065 0)
(0.0223099 0.15589 0)
(0.0226961 0.16748 0)
(0.0230794 0.168813 0)
(0.0225119 0.170088 0)
(0.0121477 -0.0285701 0)
(0.0228896 0.171453 0)
(0.0222794 0.172488 0)
(0.0226549 0.173877 0)
(0.0218472 0.15759 0)
(0.0219705 0.154434 0)
(0.0117172 -0.0256189 0)
(0.0122425 -0.0236477 0)
(0.0219917 0.174694 0)
(0.0223481 0.176099 0)
(0.023039 0.175236 0)
(0.0117904 -0.0209386 0)
(0.0123199 -0.0187473 0)
(0.0127628 -0.0213518 0)
(0.0128377 -0.0162543 0)
(0.0123745 -0.0139135 0)
(0.0128905 -0.0112086 0)
(0.012407 -0.00915202 0)
(0.0129187 -0.00619645 0)
(0.0124143 -0.00446938 0)
(0.0129212 -0.00124925 0)
(0.0123943 0.000132473 0)
(0.0128983 0.00357412 0)
(0.0216469 0.173333 0)
(0.0216317 0.176697 0)
(0.0219746 0.17809 0)
(0.0211867 0.178464 0)
(0.0215042 0.179851 0)
(0.0132696 -0.0187589 0)
(0.0206549 0.180025 0)
(0.0209198 0.181366 0)
(0.01235 0.00465234 0)
(0.0128487 0.0082275 0)
(0.0200212 0.181399 0)
(0.0202282 0.1827 0)
(0.0192683 0.182579 0)
(0.0193757 0.183823 0)
(0.0191497 0.181344 0)
(0.0134077 0.0021834 0)
(0.0122795 0.00900474 0)
(0.012774 0.0127124 0)
(0.0215193 0.155985 0)
(0.0216346 0.152902 0)
(0.0183738 0.183554 0)
(0.0184063 0.184696 0)
(0.0017025 0.122615 0)
(0.00200864 0.126578 0)
(0.00223329 0.122892 0)
(0.00255994 0.126631 0)
(0.00275722 0.123086 0)
(0.00311076 0.126692 0)
(0.00327256 0.123044 0)
(0.0121835 0.013165 0)
(0.0126727 0.0169994 0)
(0.012064 0.0171348 0)
(0.012546 0.0210382 0)
(0.0131351 0.021064 0)
(0.013 0.0251279 0)
(0.0123981 0.0248126 0)
(0.0128435 0.0289116 0)
(0.0122272 0.0283391 0)
(0.0126641 0.0324162 0)
(0.012034 0.0315997 0)
(0.0124711 0.0356938 0)
(0.00368108 0.126744 0)
(0.00379096 0.122725 0)
(0.0118238 0.0345629 0)
(0.012244 0.0386984 0)
(0.0218138 0.181213 0)
(0.0173455 0.184378 0)
(0.0173169 0.185571 0)
(0.0115867 0.0371533 0)
(0.0119827 0.041294 0)
(0.0211832 0.154512 0)
(0.0212978 0.151379 0)
(0.0217273 0.149488 0)
(0.0213936 0.148042 0)
(0.0217725 0.145937 0)
(0.0214593 0.144519 0)
(0.021816 0.142286 0)
(0.0215007 0.140847 0)
(0.0218659 0.138322 0)
(0.0042493 0.126386 0)
(0.00431114 0.122243 0)
(0.00332794 0.11903 0)
(0.0113218 0.039378 0)
(0.011709 0.0435163 0)
(0.0134129 0.0292551 0)
(0.0123502 0.0456211 0)
(0.0120663 0.047776 0)
(0.0114218 0.0454401 0)
(0.0117667 0.0496226 0)
(0.0111195 0.0470632 0)
(0.0114509 0.0511483 0)
(0.0120748 0.0538018 0)
(0.0117484 0.0552405 0)
(0.0111197 0.0523754 0)
(0.0114089 0.0564242 0)
(0.0107723 0.0532996 0)
(0.0110436 0.0572675 0)
(0.0104123 0.053949 0)
(0.010667 0.0577773 0)
(0.01125 0.0611787 0)
(0.0108803 0.0615726 0)
(0.0102866 0.0580232 0)
(0.0104947 0.0616724 0)
(0.011051 0.0652213 0)
(0.010668 0.0652015 0)
(0.0111455 0.0680926 0)
(0.0109021 0.0691953 0)
(0.010258 0.0648665 0)
(0.0103739 0.0681956 0)
(0.0109357 0.072555 0)
(0.0104345 0.0713004 0)
(0.00990228 0.0671301 0)
(0.00996281 0.0700709 0)
(0.0104739 0.0743519 0)
(0.00998586 0.0728446 0)
(0.0104592 0.0770844 0)
(0.00996378 0.0753648 0)
(0.00951524 0.0711569 0)
(0.0103997 0.0795567 0)
(0.00990475 0.0776755 0)
(0.0103089 0.0818721 0)
(0.0097981 0.0797148 0)
(0.0101815 0.0839848 0)
(0.00966094 0.0815935 0)
(0.0100179 0.085854 0)
(0.00950119 0.0832782 0)
(0.00981828 0.0874497 0)
(0.00913192 0.0791035 0)
(0.00930565 0.0846675 0)
(0.00958735 0.0887909 0)
(0.00908522 0.0858299 0)
(0.00933285 0.0899456 0)
(0.00881442 0.0865 0)
(0.00903598 0.0907309 0)
(0.0085002 0.0868203 0)
(0.00870359 0.0911263 0)
(0.00827143 0.0821925 0)
(0.0215201 0.137059 0)
(0.0218668 0.13418 0)
(0.0161487 0.185053 0)
(0.0158357 0.186093 0)
(0.00479307 0.125797 0)
(0.00481056 0.12151 0)
(0.00415751 0.130403 0)
(0.0106941 0.0860502 0)
(0.00530521 0.124958 0)
(0.00528406 0.120557 0)
(0.00579205 0.123933 0)
(0.00573622 0.119446 0)
(0.00523292 0.115924 0)
(0.00565091 0.1147 0)
(0.00617881 0.118255 0)
(0.00606857 0.11342 0)
(0.0208396 0.153039 0)
(0.0206832 0.156371 0)
(0.00816921 0.086974 0)
(0.0098349 0.0928158 0)
(0.0118762 -0.00318211 0)
(0.0147837 0.185554 0)
(0.014318 0.186538 0)
(0.00660243 0.116983 0)
(0.0215194 0.133104 0)
(0.0218363 0.130021 0)
(0.00553294 0.109659 0)
(0.0059246 0.108355 0)
(0.0154739 0.187112 0)
(0.0136811 0.187422 0)
(0.0126808 0.186854 0)
(0.0118701 0.187684 0)
(0.0129139 0.188301 0)
(0.0108656 0.18844 0)
(0.00999459 0.18786 0)
(0.00884801 0.188532 0)
(0.00970749 0.189147 0)
(0.00750485 0.189113 0)
(0.00678288 0.188511 0)
(0.00538425 0.18905 0)
(0.00606611 0.189709 0)
(0.00363645 0.18952 0)
(0.00343577 0.188836 0)
(0.00156045 0.189229 0)
(0.0193863 0.18501 0)
(0.00169364 0.189919 0)
(-0.000359555 0.189562 0)
(-0.000305043 0.18883 0)
(-0.00217833 0.189081 0)
(-0.00197682 0.188303 0)
(-0.00375872 0.188467 0)
(-0.00407844 0.189259 0)
(0.0151425 0.184519 0)
(0.0203455 0.154412 0)
(0.0211697 0.139631 0)
(0.0201188 0.157336 0)
(0.0214997 0.12899 0)
(0.0217926 0.125779 0)
(0.0221269 0.126582 0)
(0.022059 0.122224 0)
(0.0223858 0.122797 0)
(0.0222977 0.118336 0)
(0.0226132 0.118709 0)
(0.0225072 0.114155 0)
(0.0228115 0.114276 0)
(0.022689 0.109667 0)
(0.0229828 0.109564 0)
(0.0228446 0.104913 0)
(0.0231298 0.104531 0)
(0.0229702 0.0998704 0)
(0.0232351 0.0990652 0)
(0.0230637 0.094531 0)
(0.0233067 0.0934648 0)
(0.0231315 0.0889743 0)
(0.0233615 0.0876969 0)
(0.0231768 0.0831183 0)
(0.0233962 0.0816489 0)
(0.0232073 0.0771945 0)
(0.023409 0.0753835 0)
(0.0232026 0.07117 0)
(0.0233921 0.0690016 0)
(0.023173 0.064842 0)
(0.0233537 0.0625257 0)
(0.0231422 0.0584537 0)
(0.0233015 0.0559514 0)
(0.0230902 0.0520374 0)
(0.0232336 0.0493907 0)
(0.0230176 0.0454892 0)
(0.0231499 0.0427643 0)
(0.0233621 0.0465843 0)
(0.0232668 0.0398648 0)
(0.0230532 0.0360994 0)
(0.0231579 0.0330934 0)
(0.022944 0.0294139 0)
(0.0230363 0.0262677 0)
(0.0228234 0.0226992 0)
(0.0229032 0.0193449 0)
(0.0226879 0.0158912 0)
(0.022758 0.0122838 0)
(0.0225367 0.00902656 0)
(0.0225977 0.00525042 0)
(0.011559 0.0134208 0)
(0.0223755 0.00216333 0)
(0.0224288 -0.00161866 0)
(0.0226338 0.00115129 0)
(0.0224655 -0.00551863 0)
(0.0222545 -0.00840687 0)
(0.0222839 -0.0122802 0)
(0.00538022 0.104272 0)
(0.00572654 0.102866 0)
(0.0217356 0.12135 0)
(0.0232422 0.030057 0)
(0.0220699 -0.0151844 0)
(0.0220888 -0.0191339 0)
(0.011368 0.030813 0)
(0.0228251 0.0954343 0)
(0.0259949 0.121476 0)
(0.0224816 -0.00939831 0)
(0.0218735 -0.0219868 0)
(0.0218895 -0.0260497 0)
(0.00582369 0.128159 0)
(0.0236047 0.0799824 0)
(0.0198196 0.155492 0)
(0.0195545 0.158438 0)
(0.0216673 -0.0287827 0)
(0.0216836 -0.0329228 0)
(0.0219189 -0.0299443 0)
(0.0216882 -0.0370697 0)
(0.0214657 -0.0396625 0)
(0.02147 -0.0439194 0)
(0.0212401 -0.0462981 0)
(0.0212346 -0.0507441 0)
(0.0210035 -0.0528261 0)
(0.0209902 -0.0573559 0)
(0.0217176 -0.0408876 0)
(0.0207553 -0.0592547 0)
(0.0207379 -0.06379 0)
(0.0209693 -0.0619475 0)
(0.0207155 -0.068302 0)
(0.0204781 -0.070069 0)
(0.0204538 -0.0745079 0)
(0.0202088 -0.0761823 0)
(0.0201782 -0.0807286 0)
(0.0199243 -0.0822068 0)
(0.019881 -0.08691 0)
(0.0196243 -0.0881157 0)
(0.0195675 -0.0928806 0)
(0.0193115 -0.0938145 0)
(0.0101174 0.0500848 0)
(0.025555 0.106143 0)
(0.0223961 0.109482 0)
(0.00519922 0.098556 0)
(0.00551086 0.0971083 0)
(0.0227232 0.0256053 0)
(0.0197913 0.0516091 0)
(0.0122324 0.142225 0)
(0.0116017 0.143011 0)
(0.0117544 0.140007 0)
(0.0201526 -0.0857116 0)
(0.0112513 -0.0228621 0)
(0.0199658 -0.0776352 0)
(0.0199556 0.0170837 0)
(0.0180263 -0.0627072 0)
(0.0193162 -0.0230844 0)
(0.0229734 0.0781978 0)
(0.0229558 0.0605184 0)
(0.0165057 0.119507 0)
(0.012348 0.0577995 0)
(0.0131335 0.15691 0)
(0.0192673 0.156364 0)
(0.0189469 0.159213 0)
(0.020945 -0.0664556 0)
(0.00604986 0.101295 0)
(0.00579466 0.0954842 0)
(0.0234793 0.097702 0)
(0.011139 0.140599 0)
(0.0112875 0.137577 0)
(0.00486537 0.0998741 0)
(0.0046922 0.0938448 0)
(0.00437054 0.0950597 0)
(0.0187032 0.156946 0)
(0.019029 0.154209 0)
(0.0216452 -0.0246396 0)
(0.0223108 0.00586021 0)
(0.0183318 0.159593 0)
(0.0185434 0.161957 0)
(0.0231147 0.114268 0)
(0.00419763 0.0886649 0)
(0.00388633 0.089791 0)
(0.0178313 0.118124 0)
(0.00193427 0.159975 0)
(0.00212653 0.157803 0)
(0.00271337 0.159433 0)
(0.00285966 0.157198 0)
(0.00350428 0.158783 0)
(0.00359759 0.156436 0)
(0.00428239 0.158009 0)
(0.00431279 0.155501 0)
(0.00364229 0.153894 0)
(0.0181225 0.15734 0)
(0.0219699 -0.0780356 0)
(0.00633612 0.0995052 0)
(0.00604914 0.0937102 0)
(0.0207673 -0.054739 0)
(0.0106969 0.137978 0)
(0.0108376 0.134936 0)
(0.0105147 0.140901 0)
(0.0222219 0.140118 0)
(0.021045 -0.127875 0)
(0.0210859 -0.125519 0)
(0.0211383 -0.124395 0)
(0.0211805 -0.122105 0)
(0.0212299 -0.120943 0)
(0.0212728 -0.118675 0)
(0.0213212 -0.11746 0)
(0.0213647 -0.1152 0)
(0.0214132 -0.113898 0)
(0.0214566 -0.111681 0)
(0.0214079 -0.112913 0)
(0.0215008 -0.109403 0)
(0.021547 -0.108193 0)
(0.021592 -0.105919 0)
(0.0216355 -0.104744 0)
(0.0216822 -0.102444 0)
(0.0217235 -0.101295 0)
(0.0217711 -0.0989891 0)
(0.0218106 -0.097856 0)
(0.0218588 -0.0955536 0)
(0.0218976 -0.094401 0)
(0.021946 -0.0921117 0)
(0.0219844 -0.0909304 0)
(0.0220333 -0.0886473 0)
(0.0219931 -0.0898406 0)
(0.0220815 -0.0863595 0)
(0.0221215 -0.0851347 0)
(0.0221699 -0.0828621 0)
(0.0222086 -0.0816529 0)
(0.0222574 -0.0793842 0)
(0.0222944 -0.0782111 0)
(0.0223447 -0.0758987 0)
(0.0223065 -0.0770635 0)
(0.0223955 -0.073531 0)
(0.0224331 -0.0723571 0)
(0.0224841 -0.0700039 0)
(0.0225207 -0.0688379 0)
(0.0225711 -0.0665256 0)
(0.0226066 -0.0653786 0)
(0.0226575 -0.0630613 0)
(0.0226923 -0.0619193 0)
(0.022744 -0.0595799 0)
(0.0227783 -0.058434 0)
(0.0228309 -0.0560745 0)
(0.0227953 -0.0572295 0)
(0.0228828 -0.0537133 0)
(0.0229188 -0.0525194 0)
(0.0229695 -0.0502212 0)
(0.0230051 -0.0490101 0)
(0.0230553 -0.0467553 0)
(0.0230881 -0.0456395 0)
(0.0231408 -0.0433005 0)
(0.0231732 -0.0421959 0)
(0.0232263 -0.0398342 0)
(0.0232604 -0.0386374 0)
(0.0233126 -0.03633 0)
(0.0232784 -0.0374866 0)
(0.0233653 -0.0339728 0)
(0.0233987 -0.032832 0)
(0.0234518 -0.0304701 0)
(0.0234846 -0.0293369 0)
(0.0235362 -0.0270501 0)
(0.0235694 -0.0258727 0)
(0.0236191 -0.0236765 0)
(0.0235105 -0.0278675 0)
(0.0236523 -0.0224909 0)
(0.0237023 -0.0202839 0)
(0.0237353 -0.0191089 0)
(0.0237866 -0.0168488 0)
(0.0238178 -0.0157385 0)
(0.02387 -0.013443 0)
(0.0238367 -0.0146054 0)
(0.0239225 -0.0111128 0)
(0.0239478 -0.0102607 0)
(0.0240023 -0.0078574 0)
(0.0239763 -0.00869344 0)
(0.0240614 -0.00523767 0)
(0.0240832 -0.00459792 0)
(0.0241478 -0.00172612 0)
(0.0241787 -0.000678551 0)
(0.0242347 0.00182002 0)
(0.0242639 0.00280777 0)
(0.0243198 0.00529154 0)
(0.0243475 0.00622532 0)
(0.0244051 0.00877675 0)
(0.0243745 0.00775471 0)
(0.0244607 0.0112724 0)
(0.0244907 0.0122793 0)
(0.0245465 0.0147753 0)
(0.0245755 0.0157479 0)
(0.0246319 0.0182663 0)
(0.0246014 0.0172806 0)
(0.0246888 0.0208425 0)
(0.024717 0.0217462 0)
(0.0247753 0.024372 0)
(0.0248039 0.0252985 0)
(0.0248612 0.0278783 0)
(0.0247463 0.0234911 0)
(0.0248917 0.0288957 0)
(0.0249466 0.0313742 0)
(0.024978 0.0324329 0)
(0.025032 0.0348659 0)
(0.0250634 0.0359267 0)
(0.0251174 0.0383594 0)
(0.0250866 0.0373753 0)
(0.0251722 0.0408659 0)
(0.0252022 0.0418291 0)
(0.0252575 0.0443567 0)
(0.0252864 0.0452771 0)
(0.025343 0.0478525 0)
(0.0253125 0.0469168 0)
(0.0254006 0.0505259 0)
(0.0254287 0.051363 0)
(0.0254884 0.0541103 0)
(0.025515 0.0548917 0)
(0.0255725 0.0575235 0)
(0.0256005 0.0583978 0)
(0.0256561 0.0609582 0)
(0.0256856 0.0618919 0)
(0.0257427 0.0645317 0)
(0.0257061 0.0634168 0)
(0.0257988 0.0671844 0)
(0.0258292 0.0680771 0)
(0.0258849 0.0707101 0)
(0.0258528 0.0698239 0)
(0.0259395 0.0733881 0)
(0.0259711 0.0742341 0)
(0.0260273 0.0769886 0)
(0.0259921 0.0760831 0)
(0.0260811 0.0797372 0)
(0.0261154 0.0805968 0)
(0.0261692 0.0833457 0)
(0.0262041 0.0842142 0)
(0.0262578 0.0869649 0)
(0.0262976 0.0879561 0)
(0.0263468 0.0906149 0)
(0.0263908 0.0918548 0)
(0.0264346 0.0942491 0)
(0.0263926 0.0931904 0)
(0.0264823 0.0969048 0)