/*--------------------------------*- C++ -*----------------------------------*\
| =========                 |                                                 |
| \\      /  F ield         | OpenFOAM: The Open Source CFD Toolbox           |
|  \\    /   O peration     | Version:  v2012                                 |
|   \\  /    A nd           | Website:  www.openfoam.com                      |
|    \\/     M anipulation  |                                                 |
\*---------------------------------------------------------------------------*/
FoamFile
{
    version     2.0;
    format      ascii;
    class       surfaceVectorField;
    location    "850";
    object      ddtCorrDdt0(Uf);
}
// * * * * * * * * * * * * * * * * * * * * * * * * * * * * * * * * * * * * * //

dimensions      [0 1 -2 0 0 0 0];


internalField   nonuniform List<vector> 
20580
(
(-0.00929187 -0.00185894 7.81002e-19)
(-0.00939856 -0.00191131 -1.44384e-17)
(-0.00924629 -0.00193487 -1.18395e-17)
(-0.0036823 0.000262819 2.89878e-18)
(-0.00370698 0.000320685 8.05003e-19)
(-0.00378043 0.000261887 1.49599e-18)
(-0.00364782 0.00017666 7.41147e-19)
(-0.00357316 0.000241292 1.42394e-18)
(0.00338288 -0.00436462 6.10948e-18)
(0.00410868 -0.00524691 -4.03314e-17)
(0.00239227 -0.00425169 -9.26308e-19)
(-8.74305e-05 2.1853e-05 6.2575e-19)
(-7.86269e-05 2.02807e-05 -1.11144e-18)
(-8.16044e-05 1.20367e-05 2.85066e-19)
(-0.00422172 0.000925118 6.86893e-19)
(-0.00421483 0.00105061 2.01588e-18)
(-0.0040849 0.000983297 2.23158e-19)
(-0.00283048 -0.00224424 -1.48219e-18)
(-0.00286963 -0.00233024 -7.54056e-20)
(-0.00046698 1.83755e-05 1.27265e-19)
(-0.000461144 2.03762e-05 -2.01115e-20)
(-0.000450031 1.31353e-05 -1.60248e-19)
(0.0207962 -0.000749005 4.09371e-18)
(0.0208011 -0.000767819 3.70428e-18)
(0.0206034 -0.000693272 7.32161e-18)
(-0.000138322 0.00119784 -3.33624e-19)
(-0.000128359 0.00116765 2.37274e-19)
(-0.000138488 0.00115363 2.65857e-18)
(-0.00628642 0.00383735 6.03463e-18)
(-0.00618309 0.003777 9.81251e-18)
(-0.0061835 0.00390398 -1.07729e-17)
(-0.000147694 0.000440877 1.67344e-18)
(-0.000160196 0.000456239 6.14003e-19)
(-0.000157012 0.000467304 7.89528e-19)
(-0.000353721 0.0018337 7.58934e-19)
(-0.000370773 0.00186068 -1.01414e-17)
(-0.000371982 0.00181214 -8.17659e-18)
(0.0201621 -0.000492846 2.12296e-18)
(0.0197494 -0.00051739 4.82566e-18)
(0.0200612 -0.000370305 -1.70876e-17)
(-0.00592101 -0.00136191 -5.12191e-18)
(-0.0060342 -0.00132682 1.84511e-19)
(-0.00590831 -0.00125075 1.0565e-17)
(-0.00605716 -0.00627838 1.04165e-18)
(-0.0057625 -0.00641123 6.93219e-19)
(-0.007557 -0.00638876 1.05447e-17)
(0.00631194 -0.000281947 -1.35765e-17)
(0.00554288 -0.000112018 -2.15331e-18)
(0.00590724 -0.000210334 -4.56248e-18)
(-0.00171878 0.00033472 8.55337e-19)
(-0.00176127 0.000322393 3.69126e-19)
(-0.0017626 0.000369844 4.23676e-20)
(-0.0117219 -0.000429886 6.01058e-19)
(-0.0118304 -0.000362244 1.9568e-17)
(-0.012668 -0.000432891 -4.93086e-18)
(-0.00933376 -0.00174947 5.17233e-18)
(-0.00916683 -0.00180696 2.1884e-17)
(-0.00657401 -0.000707307 -1.39627e-18)
(-0.00647177 -0.000626334 -7.28108e-18)
(-0.00643126 -0.0007661 -1.01587e-18)
(-0.00282637 0.00289353 6.73533e-19)
(-0.00272395 0.00290727 1.23529e-19)
(-0.00275553 0.00279619 4.69991e-19)
(0.029554 -0.00810939 2.62189e-17)
(0.0372222 -0.0079409 -1.89131e-17)
(0.0389044 -0.00907688 1.4867e-17)
(-2.23347e-06 7.88577e-06 5.15977e-20)
(-3.63872e-06 1.04761e-05 -2.32898e-18)
(-2.22504e-06 6.60888e-06 -2.32044e-18)
(0.058053 0.00468822 5.94563e-18)
(0.0584919 0.00502105 1.53135e-17)
(0.0569179 0.00576031 1.97184e-17)
(-0.00635999 -0.00452037 -4.63247e-18)
(-0.0063934 -0.00461447 4.61944e-18)
(-0.00647592 -0.00453754 -5.01421e-19)
(0.0284541 -0.00650817 5.25652e-18)
(0.0287982 -0.00614502 -7.56651e-19)
(0.028479 -0.00623578 3.08842e-18)
(0.040466 -0.00499982 8.31873e-19)
(0.0402116 -0.00504343 -1.23828e-17)
(0.0405511 -0.00461692 -1.99173e-17)
(0.0208522 -0.00112605 -4.64622e-18)
(0.0207606 -0.00105849 -1.62454e-18)
(0.0207747 -0.00103717 5.67949e-18)
(-0.000941514 0.000263812 9.73498e-20)
(-0.000936263 0.000289806 4.87648e-20)
(-0.000909764 0.000266833 1.63781e-19)
(0.0130852 0.00439249 1.76271e-17)
(0.0120146 0.00342857 7.17144e-18)
(0.0148947 0.00410942 1.83288e-17)
(-0.00289463 -0.00219764 3.32114e-18)
(-0.0027905 -0.00217933 -9.47406e-19)
(-0.00918509 -0.0022251 -6.73257e-19)
(-0.00915919 -0.00233716 5.18825e-18)
(-0.00903247 -0.00222602 -1.35112e-18)
(0.0230468 -0.000757273 7.26265e-18)
(0.022906 -0.000699873 -7.20691e-18)
(0.0238405 -0.000849303 1.73146e-17)
(-0.00554643 0.00308395 5.66717e-18)
(-0.00562804 0.00300412 5.96353e-18)
(-0.00563175 0.00315024 2.8855e-18)
(0.0206585 -0.00119048 1.65782e-18)
(0.0207667 -0.00129686 3.49992e-18)
(0.0206345 -0.00122667 1.05872e-17)
(-7.14835e-07 5.08518e-06 7.8652e-19)
(-2.2111e-06 9.44974e-06 1.11301e-18)
(0.0268533 -0.00941973 -2.47053e-17)
(0.0469721 -0.0102513 -1.83702e-17)
(0.0474437 -0.0122353 -2.05324e-17)
(0.0147929 0.0028703 9.77086e-19)
(0.0157342 0.00292076 8.92694e-18)
(0.0165497 0.0031299 1.29865e-17)
(-0.00112878 0.00162591 -4.12115e-18)
(-0.00112214 0.00158399 -2.68517e-18)
(-0.0011644 0.00161825 -5.44556e-19)
(0.02078 -3.92543e-06 -3.71107e-18)
(0.0216385 -6.17861e-05 2.06481e-17)
(0.0209265 -2.08331e-05 1.37523e-17)
(0.0210838 -0.00118503 3.7123e-18)
(0.0210461 -0.0012549 -7.11948e-18)
(0.00196153 0.000482849 -2.57222e-18)
(0.00239177 0.000331603 -1.62234e-17)
(-0.0043441 0.00721521 9.16148e-18)
(-0.00281079 0.00811371 9.67664e-19)
(-0.00294416 0.00658115 6.16752e-18)
(0.0215198 -0.00118843 2.08455e-18)
(0.021488 -0.00116393 2.44067e-18)
(0.0212392 -0.00109505 7.85818e-18)
(-0.000975677 0.000854478 1.14983e-18)
(-0.000947174 0.000868535 -1.20651e-18)
(-0.000942771 0.000825893 -1.0159e-19)
(-0.000304655 -9.20529e-05 8.80072e-19)
(-0.000295173 -7.02535e-05 -1.27629e-19)
(-0.00866458 -0.00514753 5.11826e-18)
(-0.00819193 -0.00542748 1.28296e-17)
(-0.00869678 -0.00523765 9.12339e-18)
(-0.00272935 0.00184546 -4.0154e-19)
(-0.00264766 0.00179232 -5.20691e-19)
(-0.00273628 0.00177431 7.78651e-21)
(-0.000337711 0.00179764 5.75832e-18)
(-0.00033041 0.00184537 8.95068e-18)
(0.0139753 0.000197954 1.5649e-17)
(0.0141301 0.000132043 1.92861e-17)
(0.0136707 9.14247e-05 3.71106e-17)
(-0.000199358 0.00201069 -9.33328e-19)
(-0.000203036 0.00196803 1.35779e-18)
(-0.000231628 0.00201291 -9.42204e-18)
(-0.0061276 -0.00623078 3.48864e-18)
(-0.00678809 -0.00612361 -1.55908e-17)
(-0.00438204 -0.00289886 -3.69634e-18)
(-0.00448561 -0.00292997 -1.3094e-18)
(-0.00440034 -0.00300668 -2.28061e-18)
(0.0202148 -0.000298479 -3.98838e-18)
(0.0200993 -0.000382243 -1.438e-17)
(0.0202559 -0.000338492 -1.5317e-17)
(-0.00113589 0.001662 -7.29549e-19)
(-0.00109525 0.00162819 -5.05781e-19)
(-0.00930264 -0.00224474 -1.12646e-17)
(-0.00920932 -0.00214163 8.39533e-19)
(0.0205843 2.08635e-05 -5.2217e-18)
(0.0201338 -1.18794e-06 -6.5959e-18)
(0.0259795 -0.006229 -1.15502e-18)
(0.026175 -0.00599329 1.59274e-18)
(0.0265076 -0.0058024 -3.10788e-18)
(0.0187317 -0.000153446 9.23169e-18)
(0.0189322 -0.00013839 -5.2057e-18)
(0.0184618 6.02243e-05 -1.95595e-18)
(-0.000141061 0.000425973 9.9429e-19)
(-0.000139266 0.000420127 3.61202e-19)
(0.0277196 -0.00695124 -5.20028e-18)
(0.0281616 -0.00684858 1.68842e-18)
(-3.2971e-05 0.000777977 -7.78171e-18)
(-4.01671e-05 0.000776609 -5.33185e-19)
(-3.91347e-05 0.000818041 -2.72981e-18)
(-0.00271094 0.00190014 -3.01174e-19)
(-0.0027943 0.00188001 -1.46e-19)
(-0.000993535 0.00744788 -3.83539e-19)
(-0.00123313 0.00746116 6.85819e-19)
(-0.00110779 0.00725989 6.2445e-18)
(-0.000762273 0.00741534 2.58211e-18)
(-0.000881473 0.00769731 -3.2635e-18)
(0.0185539 -0.000251963 1.55807e-17)
(0.0187421 -0.000260662 3.39712e-18)
(2.74087e-05 0.00514035 -6.61959e-17)
(6.26923e-06 0.00520641 -6.88946e-18)
(-0.0015937 0.00142816 -4.25177e-19)
(-0.0015553 0.00145662 -3.93764e-21)
(-0.00154092 0.00139559 3.41581e-19)
(9.41041e-06 -0.00222099 -4.389e-17)
(-0.000786281 -0.00190227 -2.28812e-17)
(-0.000748039 -0.00121571 -2.50009e-17)
(0.0125783 -0.000525766 4.66779e-18)
(0.0111121 -0.000328836 -3.80877e-18)
(0.0124113 -0.000880868 1.43608e-17)
(-0.00705813 -0.00068586 3.85814e-18)
(-0.00707542 -0.000570372 -3.20777e-18)
(-0.00719424 -0.000645521 8.86101e-19)
(-0.000613668 0.00153064 4.27555e-18)
(-0.000594277 0.0015427 -1.01169e-18)
(-0.000626012 0.00157219 -3.58452e-18)
(0.0191061 -0.000135737 -1.3878e-19)
(0.0193226 -0.000268735 1.3713e-17)
(-0.00492923 -0.0026123 -2.26174e-18)
(-0.00486708 -0.00252526 6.54187e-18)
(-0.00497851 -0.00252176 4.21862e-18)
(-0.00216199 0.00253339 -2.64582e-19)
(-0.00209063 0.00251697 -7.49154e-19)
(-0.00212411 0.00245707 1.00252e-18)
(0.00687311 -0.000478443 -2.64499e-17)
(0.00693425 -0.000612591 -9.40627e-20)
(-0.000772696 -1.54814e-05 2.38416e-19)
(-0.000782385 4.77428e-06 -4.02368e-19)
(-0.000805036 -1.77576e-05 -2.60272e-19)
(0.0576701 0.00403398 -1.61155e-17)
(0.0433745 0.00680312 -1.24325e-17)
(-0.000545103 0.00085707 -8.4829e-19)
(-0.000519751 0.000831102 -1.9621e-19)
(-0.000522259 0.000857804 1.37316e-18)
(-0.00163231 0.00141003 -2.76394e-19)
(-0.00163779 0.00146854 1.0833e-18)
(-0.0025992 0.00325342 5.69464e-19)
(-0.00218856 0.0042697 -3.04669e-17)
(-0.00153465 0.00284751 -2.21572e-17)
(-0.00543319 0.00303991 -1.26295e-18)
(-0.00544262 0.00317484 -3.18194e-18)
(0.0208859 -0.000383267 4.97509e-18)
(0.0208041 -0.00030198 1.26626e-18)
(0.0209817 -0.000427297 -6.73112e-18)
(0.0192722 -0.000180909 -3.3736e-18)
(0.0192877 -4.99778e-05 1.24536e-17)
(0.0123152 0.00205766 2.05239e-18)
(0.0133373 0.00147015 -1.37942e-17)
(0.0149604 0.00188632 1.21813e-17)
(-0.0028866 0.00296736 -2.22004e-19)
(-0.00291634 0.00286529 -1.8122e-20)
(0.0204533 -0.000485009 7.17942e-18)
(0.0199904 -0.000357688 1.33068e-17)
(0.0206645 -0.000559738 9.17014e-18)
(-0.000230734 0.00123892 -1.79268e-18)
(-0.000237675 0.00122126 -4.28087e-19)
(-0.000217186 0.00119744 1.45382e-18)
(0.0136238 0.00504964 -1.23754e-17)
(0.0110548 0.00459393 2.53596e-17)
(-0.000188439 0.00206394 -6.54482e-18)
(-0.00016273 0.00200728 1.36905e-17)
(-0.0029591 -0.00214799 2.91821e-18)
(-0.00298903 -0.00222653 4.61625e-18)
(0.00888098 0.000180397 -6.51068e-18)
(0.00911959 0.000146255 2.28712e-17)
(0.011417 0.00257829 -1.61295e-17)
(0.0105413 0.00194888 -4.30256e-17)
(0.0177868 0.00112097 -1.02803e-17)
(0.0168561 0.00141722 -1.1602e-17)
(0.0164396 0.000539624 8.08695e-18)
(-0.00352527 0.00739174 1.05486e-18)
(-0.00313544 0.00733501 4.3509e-18)
(-0.00317904 0.00778533 4.24733e-18)
(-0.000844802 0.000999973 5.34112e-19)
(-0.000830013 0.00101679 -4.91513e-19)
(-0.000874799 0.00102806 1.35947e-18)
(-0.0068047 -0.00606554 9.71229e-19)
(-0.00664365 -0.00616093 -5.24239e-18)
(-0.00718565 -0.00591224 1.98822e-17)
(0.0162933 -0.000123306 -4.65717e-18)
(0.0163606 -0.000142525 9.95031e-18)
(0.0162149 -0.000136127 7.14136e-18)
(-0.00759309 0.0068623 -5.80123e-18)
(-0.00803723 0.00705466 2.53082e-18)
(-0.00761678 0.00735984 -2.60299e-18)
(-0.00725818 -0.00593558 1.38131e-18)
(-0.00957083 -0.00597333 -7.92245e-18)
(-0.000361097 0.00476831 -6.34946e-18)
(-0.000314711 0.00472037 7.92136e-18)
(-0.000378029 0.00469082 -1.93752e-19)
(-0.000513735 0.00495499 -8.68123e-18)
(-0.000466297 0.00486631 1.77996e-17)
(-0.000417337 0.00497402 3.14591e-17)
(-0.000594001 0.00172346 2.0205e-18)
(-0.000616766 0.00170204 3.8617e-18)
(-0.000635632 0.00175638 -5.89944e-18)
(-0.00106249 0.000776002 6.64666e-19)
(-0.00109878 0.000798473 5.47681e-19)
(-0.00108002 0.000759374 -1.03672e-18)
(-0.00694384 0.000190746 -1.47299e-18)
(-0.00696615 0.000305787 9.17393e-18)
(-0.00707812 0.000183185 8.60388e-18)
(-0.00102245 0.000751787 6.13017e-19)
(-0.00103745 0.000796689 -1.09152e-18)
(0.012691 -5.97801e-05 -8.06183e-18)
(0.0146039 -0.000678441 9.42317e-18)
(-0.00291096 -0.00207134 -5.86448e-19)
(-0.00302091 -0.00208634 -1.49973e-19)
(-0.00167808 0.000351301 2.95454e-19)
(-0.00167653 0.000303546 -6.25702e-19)
(-0.00267483 0.00377336 1.9805e-18)
(-0.00273763 0.00386578 -4.18328e-19)
(-0.00262921 0.00384262 -1.68859e-19)
(-0.00100124 0.000840892 -3.76587e-19)
(-0.00101956 0.00087996 8.07489e-19)
(-0.0107594 0.0035913 -1.57866e-18)
(-0.0109264 0.00329771 6.28728e-19)
(-0.0111509 0.00373169 4.86702e-18)
(-0.00741674 0.00254229 7.05014e-18)
(-0.00733352 0.00242397 7.37883e-18)
(-0.00725772 0.00255707 1.07856e-17)
(-0.00904699 -0.00291634 1.10349e-17)
(-0.00903088 -0.00301005 -1.88645e-18)
(-0.00914007 -0.00296336 -8.70139e-19)
(-0.00427715 -0.00286746 1.27483e-18)
(-0.00435152 -0.00279923 9.83928e-19)
(-0.000605333 0.000215959 -1.82081e-19)
(-0.0006045 0.000228032 4.28953e-19)
(-0.000626012 0.000222889 4.88409e-19)
(-0.000473392 1.46588e-05 -1.51151e-19)
(-0.000472778 2.23774e-05 -1.04567e-19)
(0.00269504 -0.00324977 2.22833e-17)
(0.0041557 -0.00378957 4.85765e-18)
(0.00139797 -0.00372281 -1.00848e-17)
(0.00166888 -0.0025619 3.51727e-18)
(-0.00301171 0.00678205 4.34474e-18)
(-0.00302083 0.00679978 -1.21154e-18)
(-0.00308093 0.00679595 -6.82286e-18)
(-0.00139255 0.000290742 -7.03518e-20)
(-0.00134513 0.000306217 2.86107e-19)
(-0.00134624 0.000267521 2.92888e-19)
(-0.00141092 0.00151848 8.34757e-19)
(-0.00145026 0.00152628 -1.94894e-18)
(-0.00143734 0.00156567 -2.04713e-18)
(0.0196566 -0.000247776 -4.35365e-18)
(0.0198062 -0.000317836 5.09798e-18)
(0.0197008 -0.000261478 -9.08152e-18)
(-0.00965812 -0.000767553 1.07603e-17)
(-0.00988355 -0.000843907 1.16553e-17)
(-0.0107337 -0.000705578 -9.11313e-18)
(0.000169791 0.00562548 6.86404e-18)
(9.72681e-05 0.00558249 8.49679e-18)
(0.000116523 0.00570855 -1.70954e-17)
(-0.000874311 0.000997155 8.24235e-19)
(-0.00083231 0.000965042 -2.32748e-19)
(-0.00512304 0.00480846 2.06037e-18)
(-0.00511583 0.00466023 -6.02971e-18)
(-0.00499897 0.00476313 -1.41011e-18)
(0.0213403 -0.000346185 -4.69524e-18)
(0.020826 -0.00031254 9.03036e-19)
(0.0212195 -0.000298669 9.5018e-18)
(-0.00674764 -0.00134664 1.10694e-17)
(-0.00685731 -0.00137131 1.65529e-17)
(-0.0067751 -0.00124285 7.05575e-18)
(-0.00262439 0.00290673 -1.58082e-18)
(-0.00268538 0.00299929 4.26065e-19)
(-0.00472519 0.00223896 4.07377e-18)
(-0.00479684 0.0021426 -1.87545e-19)
(-0.00466122 0.00215618 -2.7711e-18)
(-0.00183379 -0.00229821 1.27334e-17)
(0.00281243 -0.00620161 -1.91582e-18)
(0.0233439 -0.000839244 9.63227e-18)
(0.0225364 -0.000690602 2.65737e-18)
(-0.00638043 0.00389853 1.45505e-17)
(-0.00636313 0.00378392 -4.25541e-18)
(0.0168011 0.00171798 5.13304e-18)
(0.0160379 0.00158811 -7.65568e-18)
(0.0155489 0.00165934 -1.08884e-18)
(-9.64881e-06 0.00508618 -8.25666e-18)
(0.0137769 0.00104848 -2.95632e-17)
(0.0120764 0.00118786 -1.08685e-17)
(-0.000451487 0.00432792 1.1324e-18)
(-0.000391728 0.00438363 -2.67336e-18)
(-0.000364868 0.00430776 1.22505e-17)
(-0.00667992 -0.00159796 -5.7736e-18)
(-0.00656673 -0.00162733 -3.93195e-18)
(-0.00667256 -0.00172385 7.23639e-18)
(-0.00303711 0.00225893 3.50267e-17)
(-0.00354824 0.0035319 1.72977e-17)
(-0.000813537 0.00246985 -1.55321e-18)
(-0.0007804 0.00242993 1.45876e-18)
(-0.000816116 0.00240627 5.7736e-19)
(-0.000222464 0.00125375 -2.16773e-18)
(-0.00024276 0.00128082 -2.08454e-18)
(-0.000328895 0.00600944 1.58012e-17)
(-0.000217129 0.00611146 6.17913e-18)
(-0.000367998 0.00615026 -1.28234e-17)
(0.0531488 -0.00609605 -2.92101e-17)
(0.0539694 -0.00485444 8.98332e-18)
(0.0530018 -0.00566691 -1.5954e-17)
(-0.00179831 0.00253757 -2.37612e-18)
(-0.00182554 0.00259466 2.63029e-18)
(-0.00175818 0.00258948 -6.28007e-18)
(-0.000762342 -3.49947e-05 4.34465e-19)
(-0.000743191 -1.31362e-05 8.05637e-19)
(0.0100892 0.00304722 1.38677e-17)
(0.0203662 -0.000683009 1.15876e-17)
(0.0203723 -0.000681442 -5.49039e-18)
(0.0202352 -0.000660255 4.52228e-18)
(-0.00515944 0.00492067 8.83516e-18)
(-0.00525761 0.00481574 2.42256e-18)
(-0.00753836 -0.00571356 2.26242e-18)
(-0.0071729 -0.00576595 6.01151e-18)
(-0.0105574 0.0039824 4.06379e-18)
(-0.0103691 0.00353179 -1.37224e-17)
(-0.00748395 0.00266693 -1.33289e-17)
(-0.00756934 0.002528 -3.14188e-18)
(-0.010218 -0.000690239 1.2826e-17)
(-0.0103938 -0.000599238 6.50931e-18)
(-0.0102249 -0.000485388 2.38691e-17)
(-0.000368251 0.00211956 8.70019e-19)
(-0.000397942 0.00211958 -9.22094e-19)
(-0.000390558 0.00217172 6.76638e-19)
(-0.000167404 0.00157371 -9.55049e-19)
(-0.000144146 0.00158865 3.47697e-18)
(-0.000145069 0.00153923 -1.0053e-18)
(-0.000117687 0.000341824 -2.54958e-19)
(-0.000118033 0.000353135 -2.32774e-18)
(-0.000105817 0.00032884 -3.44351e-18)
(0.0139656 0.0027786 -1.83624e-17)
(0.013501 0.00241995 -1.6076e-17)
(-0.00643845 -0.00146219 1.14411e-18)
(-0.00646987 -0.00156551 -1.21185e-18)
(-0.00637245 -0.0015349 2.73676e-18)
(-0.00304578 -0.0013433 -2.72422e-18)
(-0.00308765 -0.00139086 1.309e-18)
(-0.00312746 -0.00132162 -2.00717e-18)
(-4.91066e-06 1.94392e-05 -4.69536e-19)
(-5.11261e-06 1.6974e-05 1.77741e-18)
(-7.64689e-06 2.32719e-05 5.77877e-19)
(0.0207334 -0.00110998 -3.43003e-18)
(0.0207515 -0.00108101 2.42993e-18)
(0.0208025 -0.00120727 1.09448e-17)
(-0.00693984 5.42088e-05 -1.01111e-17)
(-0.00681118 0.000174177 -1.43964e-17)
(-0.00856812 -0.00501249 6.64853e-19)
(-0.00875571 -0.00500949 -5.01845e-18)
(0.0199902 -0.00028256 1.47343e-17)
(0.0203482 -8.25847e-05 3.77187e-18)
(0.0213834 -0.000947049 1.67511e-18)
(0.021134 -0.000845614 8.44736e-18)
(0.0213782 -0.00092672 -1.04911e-17)
(0.0213461 -0.000942245 2.23227e-18)
(0.0217334 -0.00104791 9.37078e-18)
(0.0137182 0.000219254 -3.48097e-17)
(0.0141917 0.000345168 -1.62393e-17)
(-0.00271798 0.00369868 3.12049e-19)
(-0.00261591 0.00368371 1.38089e-18)
(0.0395168 -0.00370674 1.82822e-18)
(0.0403176 -0.00392947 3.02711e-17)
(0.0369411 -0.0033086 4.53154e-18)
(-0.000122237 0.000420336 -2.42229e-18)
(-0.000116611 0.000404086 -4.22573e-19)
(-0.00011655 0.000398782 -1.69134e-18)
(-0.000607687 0.000200266 -1.33683e-19)
(-0.000584874 0.000205207 9.59329e-20)
(-0.00762089 0.000658959 2.02082e-17)
(-0.00760965 0.000802888 1.41127e-18)
(-0.00749547 0.000722147 3.07564e-18)
(-4.76038e-05 1.59525e-05 2.39853e-19)
(-4.31029e-05 2.04614e-05 7.35351e-19)
(-4.01025e-05 1.34062e-05 1.95795e-18)
(0.0180911 0.000957765 -1.12828e-18)
(0.0188117 0.00109056 -3.80551e-19)
(0.0310736 -0.00643298 -1.04476e-18)
(0.0299432 -0.00661699 2.25005e-18)
(0.0306509 -0.00639932 9.09273e-18)
(-0.00813266 -0.00489781 6.23313e-18)
(-0.00813384 -0.00476895 8.86559e-18)
(-0.0113648 -0.00448735 1.55773e-17)
(-0.000611485 0.000187049 -2.21052e-19)
(-0.00063065 0.000196099 -1.37999e-20)
(-0.00482341 -0.00277837 4.63365e-18)
(-0.00488054 -0.00268912 -1.02437e-17)
(-0.0047606 -0.00269694 -5.17983e-18)
(-0.00802087 -0.00509387 -2.87709e-18)
(-0.00826005 -0.00481843 -3.42404e-18)
(-0.00955507 -0.000760289 2.35987e-18)
(-0.00956374 -0.000688513 -7.07474e-18)
(-0.00392311 0.00688272 -1.69738e-17)
(-0.00276339 0.00362118 -1.28525e-18)
(-0.00270902 0.00352811 2.13015e-18)
(-0.00281005 0.00353535 3.61309e-19)
(-0.00670333 -0.00148692 -1.38366e-17)
(-0.00660501 -0.00135695 -4.02677e-18)
(0.0044282 -0.000212773 -1.75204e-17)
(0.00456477 -0.000201954 -7.36068e-19)
(0.0204559 -0.000711818 -8.81566e-21)
(0.0203568 -0.000719354 -1.56505e-18)
(-0.00911023 -0.00241311 -2.64811e-19)
(-0.00923759 -0.00242043 1.48793e-17)
(-0.000466402 0.00385519 7.17855e-19)
(-0.000429136 0.0038516 -9.32419e-18)
(-0.000458668 0.00390905 3.6257e-17)
(-0.000445103 0.00202954 -1.14766e-18)
(-0.000412395 0.00203132 4.71613e-19)
(-0.000418996 0.00198431 9.42935e-19)
(-0.000956056 0.000493822 -3.35508e-19)
(-0.000972334 0.000520944 -4.42464e-20)
(-0.000993789 0.000494997 8.41178e-19)
(0.0523023 -0.0063395 2.523e-18)
(0.0513524 -0.00759569 7.59868e-18)
(-0.00648178 -0.00137256 2.3908e-18)
(-0.00635271 -0.00136807 -1.96592e-18)
(0.0198432 -0.000353154 1.46094e-17)
(0.0203395 -0.000456463 1.02519e-17)
(-0.00421058 0.000832523 2.13513e-18)
(-0.00430688 0.000887188 -1.29346e-18)
(-0.00176748 0.00247649 2.72191e-18)
(-0.00183543 0.0024882 -1.1603e-19)
(-0.00652768 -0.00631544 -1.11539e-17)
(-0.00637687 -0.00634252 2.98834e-18)
(-0.00705036 -0.00611872 -8.43936e-18)
(-0.00906759 -0.00246964 9.25737e-19)
(-0.00897945 -0.00239046 9.12235e-18)
(-0.00211416 -0.000324153 -2.9446e-18)
(-0.00217905 -0.000312462 1.62664e-18)
(-0.00213497 -0.000267301 -2.65645e-18)
(-0.00220302 0.000671222 8.08937e-19)
(-0.002139 0.000686765 3.18883e-19)
(-0.0021524 0.000630145 -4.75049e-19)
(-5.25516e-05 0.00524828 2.43161e-17)
(-0.000141827 0.0052915 1.52308e-17)
(-5.94899e-05 0.00536113 -1.6721e-17)
(-0.00365338 0.00152757 6.14014e-18)
(-0.00444393 0.0008362 -3.10585e-17)
(-0.0045248 0.0021312 -1.33226e-17)
(0.0186755 -5.63787e-05 -6.71038e-18)
(0.0191769 -6.95209e-05 6.27366e-18)
(0.0194821 -0.000124438 9.80856e-18)
(0.0202478 -6.04386e-05 8.80403e-18)
(0.0200419 -0.000116233 -1.56126e-17)
(0.0209921 -0.000155404 6.17806e-18)
(-0.00580779 -0.00139672 1.32883e-18)
(-0.00591467 -0.0014809 -8.34284e-19)
(-0.00284063 0.0116307 -3.70691e-18)
(-0.000454773 0.0167414 -1.08187e-18)
(-0.00673198 0.0133583 -9.86494e-19)
(0.0179677 1.69147e-05 4.9226e-18)
(0.0182736 -5.35243e-05 -2.20735e-17)
(-0.000241437 0.00295352 -1.73374e-17)
(-0.000224228 0.0028976 1.18822e-17)
(-0.000196144 0.00294423 1.7554e-17)
(-0.00643029 -0.00234675 -9.67928e-19)
(-0.00644671 -0.0022502 -4.46534e-18)
(-0.00634953 -0.00231403 -5.10617e-18)
(0.0207542 -0.000697514 -5.35449e-19)
(0.0209795 -0.000755178 -5.50626e-19)
(0.0207149 -0.000674237 6.93807e-18)
(-0.00390161 0.00126813 1.20145e-18)
(-0.00395278 0.0013249 -1.26131e-18)
(-0.00384985 0.00133524 -1.53852e-18)
(-0.005652 -0.00643486 9.54932e-20)
(-0.00585509 -0.00654016 -4.8467e-19)
(-0.00791176 -0.00634935 -1.04553e-18)
(-0.00137892 0.00151807 1.52434e-18)
(-0.00138908 0.00148485 2.38391e-18)
(-0.00279325 0.0008854 1.47255e-17)
(-1.02037e-05 0.00010212 4.00176e-18)
(-1.32963e-05 0.000119169 8.20159e-19)
(-1.36358e-05 0.000124027 1.00253e-18)
(-0.00573474 0.00291302 -2.19347e-18)
(-0.00584056 0.00286697 -5.50089e-18)
(-0.00581506 0.00301402 -1.19028e-17)
(-0.00227341 0.0026645 -3.37517e-18)
(-0.00234008 0.00266037 -3.11222e-18)
(-0.00232589 0.00272981 9.68992e-19)
(-0.000318476 0.00176761 4.48084e-19)
(-0.000332699 0.001748 -6.22942e-18)
(-0.0094409 -0.00184382 8.11579e-18)
(-0.00955078 -0.00199705 5.48538e-18)
(-0.00970519 -0.00190933 -5.05473e-18)
(-0.00226121 0.000223789 -7.70145e-19)
(-0.0022034 0.000203533 1.18374e-18)
(-0.00225655 0.00016624 -1.75473e-18)
(-0.000188717 0.00599687 1.87902e-17)
(-0.000479068 0.00626883 -3.75099e-18)
(-0.000593744 0.000176087 1.89402e-20)
(-0.00061658 0.000172603 3.20483e-19)
(-0.00935779 -0.00165937 -9.32453e-19)
(-0.00938624 -0.00155077 1.23796e-18)
(-0.00922882 -0.00160238 8.92329e-18)
(0.0206188 -0.000383552 1.14454e-19)
(0.0212137 -0.000453068 7.96916e-18)
(0.0167308 0.00146224 8.11927e-18)
(0.0163436 0.00147703 -4.62816e-18)
(0.01773 0.00153605 1.4414e-17)
(-0.000560003 0.00385851 4.34933e-19)
(-0.000600368 0.00376496 9.61677e-18)
(-0.000649657 0.00387424 8.64061e-18)
(-0.00640886 -0.00245071 -6.25693e-18)
(-0.00650714 -0.00237999 4.38739e-18)
(-4.50358e-06 6.5353e-05 -5.62264e-18)
(-2.27393e-06 4.83172e-05 1.71426e-18)
(-2.72758e-06 5.00177e-05 -1.26734e-18)
(-0.00037963 0.0059258 2.64181e-18)
(-0.00027722 0.00588906 3.43148e-18)
(-0.000316682 0.000746456 -6.12245e-20)
(-0.000288529 0.00071047 -2.44316e-18)
(-0.000317573 0.00071741 -1.00314e-18)
(-0.00562928 0.00285431 -1.04181e-18)
(0.0152137 -0.0113954 -1.90197e-17)
(0.0107906 -0.00986963 2.07353e-17)
(0.013257 -0.00977453 2.22118e-18)
(-0.00053797 0.00387393 3.40185e-18)
(-0.000495654 0.00378944 -6.84309e-18)
(-0.00383277 0.00119052 1.30596e-18)
(-0.00394456 0.00117427 -5.8162e-18)
(-5.88113e-06 0.000676456 -2.5898e-18)
(-1.09948e-05 0.000715235 -1.84393e-18)
(0.0197259 3.70318e-05 1.95685e-17)
(0.0203251 -2.52986e-05 1.27906e-18)
(-0.000973451 0.000257348 -1.2815e-20)
(-0.000941514 0.000235446 -3.71847e-20)
(0.0184358 -0.00196692 1.0294e-17)
(0.0106178 -0.00124494 -1.21422e-17)
(0.0199045 -0.000166206 -5.49045e-18)
(0.019758 -0.000192419 -4.32017e-18)
(0.0205927 -0.000269217 3.37194e-18)
(-0.00719125 0.00668895 2.04391e-18)
(-0.00754617 0.00643889 4.67098e-19)
(-4.81444e-06 2.17359e-05 2.30552e-19)
(-2.75761e-06 1.551e-05 8.45616e-19)
(-0.00244002 0.010619 -1.35353e-17)
(-0.00264744 0.0131962 -1.05902e-17)
(-0.00283453 0.0107418 -1.13808e-17)
(0.0193412 -0.000259576 -3.23514e-18)
(0.0193889 -0.000247757 5.06435e-18)
(0.0193687 -0.000258205 -1.25328e-18)
(0.0218853 -0.00130904 -8.90508e-18)
(0.0215439 -0.00122048 -7.40661e-18)
(-0.00633458 -0.0063331 -4.39056e-18)
(-0.00566964 -7.40403e-06 -2.56686e-19)
(-0.00565311 0.000120159 -2.1881e-18)
(-0.00554927 1.03584e-05 4.59656e-18)
(-0.000135966 0.0063466 8.63543e-18)
(-0.000156237 0.00620895 1.66936e-18)
(8.77677e-06 0.00623517 -4.8128e-18)
(-0.00978157 -0.00181129 1.37303e-18)
(-0.00986479 -0.00169612 5.1594e-18)
(-0.00487622 -0.00286208 1.27335e-17)
(-0.00475587 -0.0028642 -4.03172e-18)
(-0.00327392 0.00714998 3.72879e-19)
(-0.00301339 0.00714534 -1.42211e-18)
(-0.00315198 0.00390863 -6.00372e-19)
(-0.00304579 0.00389913 -9.12218e-20)
(-0.00309024 0.00381643 -3.76731e-19)
(0.0202555 -0.000718003 3.84563e-18)
(0.0202056 -0.000610874 -1.19038e-18)
(0.0201876 -0.000705211 -3.01959e-18)
(-0.00958113 -0.000374885 1.58428e-18)
(-0.00954593 -0.000481272 -8.20925e-18)
(-0.00943661 -0.000364024 5.30898e-18)
(-0.000376283 1.97352e-05 4.44989e-19)
(-0.00039168 2.633e-05 2.1551e-19)
(-0.000376057 3.91875e-05 5.99239e-19)
(-0.00437109 -0.000191125 4.90281e-18)
(-0.00426616 -0.00021796 -3.55959e-19)
(-0.00428699 -0.00011788 6.59179e-18)
(-0.00853782 -0.00616716 5.35589e-18)
(0.0206914 -0.0011137 -1.44975e-17)
(0.0207028 -0.0010213 -8.40802e-18)
(0.0202612 -0.0003721 -1.12264e-18)
(0.0202844 -0.000494053 1.68155e-17)
(0.0201839 -0.000487986 3.17076e-18)
(-0.000925407 0.000489979 -3.03574e-19)
(-0.000942458 0.000470238 -1.41356e-19)
(0.000166731 0.00569379 4.55087e-17)
(-0.000245101 0.00120937 3.26917e-18)
(-0.000254073 0.00119696 4.67542e-18)
(-0.000236931 0.00117285 4.89397e-18)
(-0.00888677 -0.00265616 -5.01956e-19)
(-0.00895342 -0.00258667 -1.54812e-19)
(-0.008778 -0.00256502 1.194e-18)
(-0.00979491 -0.000812733 -3.27627e-18)
(-0.00995318 -0.000828867 6.83408e-18)
(-0.00975754 -0.000684177 1.64401e-18)
(-0.00444547 -0.000149167 4.61368e-18)
(-0.0044299 -0.000230379 -2.49167e-18)
(-0.00694388 -5.79549e-05 5.3864e-19)
(-0.00705966 -4.38372e-05 2.71762e-18)
(-0.00964072 -0.000298693 5.31919e-18)
(-0.00971921 -0.000422372 1.43843e-17)
(-0.000627011 0.00131716 3.25207e-19)
(-0.00066417 0.00132297 1.61783e-19)
(-0.000623534 0.00127564 6.8283e-19)
(-0.000415663 0.00481141 4.97393e-18)
(-0.000336938 0.00484759 1.58195e-18)
(-0.00829591 -0.00458614 -1.18174e-17)
(-0.00836435 -0.00474106 5.47408e-19)
(-0.0081837 -0.00468187 2.09789e-18)
(0.0384093 -0.00527942 -2.49981e-18)
(0.0388412 -0.00515071 1.37807e-17)
(0.0382463 -0.00570148 1.20147e-17)
(-0.000140448 0.000741064 -2.26121e-18)
(-0.00013251 0.000708723 2.38819e-18)
(-0.000126737 0.000712952 -9.76518e-19)
(-0.000303582 0.00173021 8.72752e-19)
(-0.00029285 0.00177981 5.21741e-18)
(-0.000574495 0.0039007 7.02903e-18)
(0.0218371 -0.000913997 -8.41381e-19)
(0.021874 -0.000939262 1.39131e-18)
(0.0223859 -0.00101675 -4.67151e-18)
(0.000149475 -0.00203836 5.68665e-19)
(-0.000849254 -0.00122938 3.82436e-18)
(-0.000584967 -0.00186755 5.08615e-17)
(-0.00683196 -0.000914355 9.86384e-19)
(-0.00674249 -0.000876393 -1.09885e-17)
(-0.00684264 -0.000805669 -6.84297e-18)
(-0.00143373 0.000279344 -8.4919e-20)
(-0.00143315 0.000319635 -4.57429e-19)
(-0.00959621 -0.000723673 5.01942e-18)
(-0.010735 -0.000572223 4.92035e-18)
(-0.0101467 -0.000756263 -6.18619e-18)
(-0.00997791 -0.000792777 5.30082e-18)
(-0.00997808 -0.00062214 3.2072e-18)
(-0.0088697 -0.00266109 -8.96046e-18)
(-0.00882454 -0.00278637 1.3626e-18)
(-0.00873833 -0.00268641 4.12063e-18)
(-0.00694336 -0.000192987 -1.45192e-18)
(-0.0068246 -8.53148e-05 1.62408e-18)
(0.0218553 -0.000879251 -4.17557e-18)
(0.0214348 -0.000801022 9.79985e-18)
(0.0169961 -0.000208507 -1.23357e-17)
(0.0170703 -0.000220538 1.23559e-18)
(0.0170168 -0.000225933 1.57135e-17)
(-0.0045082 0.000236217 3.16061e-18)
(-0.00451227 0.000324322 5.2276e-18)
(-0.00460063 0.000249948 3.11133e-18)
(-0.00554897 -0.00128271 -3.16369e-20)
(-0.00564755 -0.00128096 -3.78754e-18)
(-0.00557606 -0.00137448 -9.95739e-19)
(0.0509473 0.000764155 -1.85706e-18)
(0.0524124 -0.000332097 5.23462e-18)
(0.0599156 -0.00120474 2.82682e-18)
(-0.00112656 0.000681933 3.05274e-20)
(-0.00116345 0.000706534 4.2915e-19)
(-0.00110991 0.000708164 8.00564e-19)
(-0.000116549 0.000327923 1.84741e-18)
(-0.000114961 0.000315557 5.0124e-19)
(-0.00010361 0.000304934 1.35628e-18)
(-0.00890114 -0.00257616 -9.05115e-18)
(-0.00898729 -0.0026664 -1.06788e-17)
(-0.00578557 0.00408777 -3.02799e-18)
(-0.0057782 0.00397073 8.2452e-19)
(-0.00566515 0.00403742 -1.05867e-18)
(-0.00100577 0.000244186 5.9745e-20)
(-0.00103325 0.000232825 9.78625e-20)
(-0.0010006 0.000217358 1.33907e-19)
(-1.49768e-05 0.00011473 1.20455e-18)
(-1.35529e-05 0.000116772 -1.91498e-18)
(-9.30972e-06 9.73634e-05 -2.4112e-19)
(-0.000331476 0.000771081 5.73249e-18)
(-0.000311236 0.000759742 4.69569e-19)
(-0.000167092 2.75283e-05 -6.19313e-19)
(-0.000178691 2.81066e-05 1.48216e-18)
(-0.00016492 1.61976e-05 -1.18349e-18)
(-0.00554667 -0.000458746 -1.4474e-17)
(-0.00565018 -0.000419869 6.60818e-19)
(-0.00564561 -0.000538649 -7.93539e-18)
(-0.000129954 0.000352981 9.73153e-19)
(0.0207843 -0.000727016 -1.11007e-18)
(0.0210406 -0.00080795 6.3948e-18)
(-0.00670323 -0.000678087 1.75949e-18)
(-0.0066409 -0.000798312 -4.22708e-18)
(-0.00111801 0.00128637 2.32124e-18)
(-0.00109677 0.00130605 3.67807e-18)
(-0.00114221 0.00131608 1.62561e-20)
(0.0206334 -0.00109794 -6.94529e-18)
(0.0196925 -0.000296323 -7.0869e-18)
(0.0195742 -0.000260634 -7.25855e-18)
(-0.000307218 0.00202677 -2.57968e-18)
(-0.000329013 0.00202444 3.0889e-18)
(-0.000308324 0.00198287 3.1272e-18)
(-0.00947127 -0.00170999 -7.31044e-18)
(0.0154143 -5.05085e-06 6.53084e-19)
(0.0152338 -8.26516e-05 -3.95248e-17)
(0.0155483 -8.37546e-05 -1.54665e-17)