/*--------------------------------*- C++ -*----------------------------------*\
| =========                 |                                                 |
| \\      /  F ield         | OpenFOAM: The Open Source CFD Toolbox           |
|  \\    /   O peration     | Version:  v2012                                 |
|   \\  /    A nd           | Website:  www.openfoam.com                      |
|    \\/     M anipulation  |                                                 |
\*---------------------------------------------------------------------------*/
FoamFile
{
    version     2.0;
    format      ascii;
    class       volScalarField;
    location    "200";
    object      p;
}
// * * * * * * * * * * * * * * * * * * * * * * * * * * * * * * * * * * * * * //

dimensions      [0 2 -2 0 0 0 0];


internalField   nonuniform List<scalar> 
13851
(
-0.00940302
0.013667
-0.0320591
-0.00920507
-0.0527642
0.00293393
-0.0452792
-0.0397778
-0.00292792
-0.0161291
-0.00391319
0.00680035
-0.0562604
-0.0482623
-0.033564
-0.0278039
-0.0441823
-0.0124321
-0.0515926
-0.00310912
-0.00952966
-0.0342612
-7.97573e-05
-0.00364948
5.72899e-05
-0.0379269
-0.0611631
-0.072236
-0.010093
-0.0215691
0.00359184
-0.0442773
-0.0313099
-0.010611
-0.00377722
-0.0829793
-0.0733602
-0.0349027
-0.0147716
-0.0102834
-0.0161334
0.00015338
-0.0716821
-0.000233157
0.00112047
-0.0741863
0.00289326
0.000709621
-0.0621227
-6.22221e-06
-0.0713949
-0.0617995
-0.0699141
-0.0327856
-0.0187337
0.000157609
-0.00101049
-0.0722301
-0.0216089
-0.0446494
-0.0327814
-0.0477443
-0.00492056
-0.0541945
0.00133256
-0.00713192
-0.0718738
0.00279054
-0.0692215
-0.0119782
-0.0514544
-0.0730349
0.00895128
-0.0331367
-0.0170271
-0.00233787
-0.0354969
-0.0555194
-0.0566324
-0.0547879
-0.0456206
0.000631905
-0.0317554
-0.0721736
-0.00458408
0.0040263
0.000559935
0.000537965
-0.0533536
0.000499193
-0.0828782
-0.000228529
0.00342651
-0.0565511
-0.0546199
-0.00117854
-0.0535845
-0.0625469
-0.000229307
-0.00110202
-0.0700333
-0.0655835
-0.0161052
-0.0742813
-9.8773e-06
-0.000181108
-0.0684127
7.89586e-05
-0.0708873
0.00296852
-0.00237216
0.000489733
-0.000533866
-0.00347521
-0.00245612
0.00505361
-0.0630207
0.000200548
-0.00925475
-0.0172377
-0.0713736
-0.0726809
-0.0573304
-0.00532715
0.000800421
0.000277353
0.00372361
-0.0607671
-0.00933949
-0.0470686
-0.0162857
-0.00679611
-0.0525642
-0.0320154
0.00377188
-0.00757389
0.000183414
-0.0711338
-0.02509
-0.00659996
-0.0708254
-0.0180538
-0.000747979
0.00025369
-0.0364949
0.000247667
-7.29301e-05
-0.0455088
-0.044466
0.00101991
-0.0983422
-0.0162413
-0.0486061
-0.000858103
-0.0489344
-0.0357602
-0.007981
-0.0250573
-0.0606835
-0.0699511
2.87984e-05
-0.0682391
-0.0722604
-0.0065351
-0.0202686
0.000237198
0.000108384
-0.0711002
-0.00968756
-0.0663241
-0.0552301
-0.00178708
-0.00827057
-0.00861737
-0.0065622
-0.00280901
-0.059799
-0.00122251
-0.0527951
7.41326e-05
-0.0428474
-0.0687479
-0.0326097
-0.0349327
-3.11425e-05
-0.000113899
-0.00746847
-0.0173224
-0.0487943
-0.0100656
0.00296207
-0.0704803
0.00054807
-0.0625919
-0.0441029
-0.0470381
-0.00091851
-0.0105615
-0.00123181
-0.00239749
0.00019196
-0.0706384
-0.0111671
-0.0248876
-0.0147415
-0.032987
0.000813753
-0.0470549
-0.0523605
3.24941e-05
-0.0562341
-0.0163282
-0.0184181
4.98365e-05
0.00024121
-0.0033866
-0.00489565
-0.0734982
-0.0330674
-0.052555
-0.0467177
-0.0465458
-0.0585
-0.0556261
-0.0550579
9.06353e-05
-0.0565419
-1.27011e-05
-0.070901
3.1594e-05
-0.0370293
0.00464652
-0.00177462
0.000558228
-0.0755484
-0.00815492
0.00168885
0.00174373
0.000197462
-0.0252761
0.00278514
-0.00904195
-3.53913e-05
-0.0137089
3.94458e-05
-0.0544815
-0.0638679
-0.0203611
-0.0339838
-0.0341886
3.76135e-05
-0.0090651
-0.0360965
-0.0348903
-0.0790024
-0.0044159
-0.0102983
-0.069401
-0.06394
-0.0366632
0.000230286
-0.0121517
0.0132968
0.000421651
-0.0503691
-0.0460752
-0.0364144
-0.0570355
-0.0590548
0.00128276
0.000191484
-0.0477841
0.00838112
-0.0571389
-0.0273924
-0.00675549
0.00155585
0.00107624
-0.0615261
-0.00388546
-4.00385e-05
1.45555e-05
-0.000232609
-0.0792966
0.00961281
-0.0098065
-0.00292787
-0.0355624
0.00793855
-0.000977865
-0.0452486
-0.0225274
-0.0446513
-0.0659349
0.000130504
-0.0514982
-0.0231063
0.0151537
-0.0068812
-0.0536216
-0.0684762
-0.0426494
-0.0604252
-0.0217668
0.000568667
-0.057135
-0.00301738
-0.0763117
-0.0548328
-0.0224754
-0.0255247
-0.0224213
-0.033784
-0.0626937
0.000188567
-0.0346325
0.000114476
-0.0642668
-0.0872736
-0.0332907
-0.0701239
-0.0346275
-0.0621327
0.00102798
4.71e-05
-0.00645786
-0.0857877
-0.0565935
-0.0506791
-0.0355389
-0.0221538
-0.03313
-0.00216681
-0.062644
-0.0638716
-0.00878323
-0.0596152
-0.0282208
-0.0332383
-0.0612083
-0.0437539
1.88685e-05
-0.00445271
-0.0652431
-0.0512812
-0.00124513
0.00536268
-0.0549004
-0.0337477
-0.00238228
-0.00254542
-0.0132157
-0.051611
-0.00358302
-0.0710283
-0.00819541
0.00219549
-0.00629692
-0.0346012
-1.13628e-06
8.38312e-05
-0.008563
-0.055088
-0.0066139
-0.0264623
-0.0764837
0.000111069
0.016914
-0.021099
-0.00375228
-0.0651109
-0.0260457
-0.00412845
-0.0519061
-0.00638846
-0.0155413
0.000147696
0.000434732
-0.0715304
-0.0168886
-0.022292
0.000187263
-0.0649467
-0.0687702
-0.00529676
-0.00501612
-0.000278341
-0.00834417
-0.033783
-0.00931456
-0.0720294
-0.0448889
-0.073891
-0.0575747
-0.0545469
0.000153812
-0.0371613
-0.0654024
-0.0530883
0.00387251
-0.0616388
0.000684849
-0.0520651
-0.000615797
-0.0292199
-0.00220689
-0.0291602
-0.000396371
-0.0417188
-0.000114028
-0.00290742
0.000225491
-0.0556342
-0.00663736
-0.0619913
-0.0108678
-0.069952
-0.00201642
-0.0103943
-0.0316713
-0.01092
-0.0423855
-0.00103243
0.000170737
-0.00299475
-4.86443e-05
-0.0302648
0.00123396
-0.0532207
-0.00244444
-0.0578475
-0.00869162
0.000169061
-0.0165671
-0.0775268
-0.0156631
-0.00586714
-7.04601e-05
-0.00266887
-0.00161434
-0.0298129
-0.0520882
-0.00101212
0.00279147
-0.00102385
-0.0706984
-1.08502e-05
-0.0518932
-0.0577973
0.00120224
-0.00229017
-0.0319269
-0.0989188
-0.0628466
-0.00920003
0.0073891
4.17995e-05
-0.00624875
-0.0721618
-0.0192247
2.99079e-05
-0.00114847
-0.00814949
-0.00913088
-0.00291642
-0.0132486
-0.0243004
4.47484e-05
-0.000981182
-0.0603468
-0.0319617
-0.0728352
-0.00777991
-0.00221852
0.00239837
-0.00410274
-0.0126765
-0.00363522
-0.00337473
-0.00827265
-0.0377772
0.00122713
-0.0329028
-0.00059225
-0.064051
-0.0516798
-0.0340045
-0.00192238
-0.0324472
-0.00763123
-0.0757945
-0.00650112
-0.0052487
-0.0160116
-0.0469286
-0.042306
-0.071019
0.000139955
-0.0694932
-0.00939445
0.000175188
-0.00191929
-0.0637475
-0.0354789
-0.00627161
-0.00954233
-0.00382349
-0.0191158
-0.00548567
-0.00639021
-0.0429093
-0.0548242
-0.0692281
-0.0697789
-0.0570421
-0.00519124
3.11135e-05
-0.0531424
-0.000263199
-0.0441456
-0.0665813
-0.00631663
-0.00308205
-0.0548841
-0.031594
-0.0713397
-0.0733996
-0.0727157
-0.0211426
-0.00165277
0.00228589
0.00244687
-0.00430772
-0.0136583
0.000703874
-0.0242132
-0.00201295
-0.0611542
0.000146478
0.00251405
-0.0706069
-0.0502497
-0.0329272
-0.0268417
-0.00807079
-0.0201553
-0.0505085
-0.0104177
-0.00453767
0.00589279
-0.00507813
-0.0717216
-0.0551738
0.000407338
0.000720117
-0.0711795
-5.43855e-05
-0.00287846
0.00122556
-0.055077
-0.0501696
-0.0895663
-0.0771686
0.00014433
-0.000797782
0.00144034
-0.0154052
-0.0615387
-0.0548233
-0.0628667
-0.0158515
-0.0423823
0.000762461
-0.0556236
-0.0793721
-0.075798
-0.00444838
8.97894e-05
-0.0195691
-0.00315148
0.000128607
-0.0320758
6.90268e-05
-0.00976292
-0.0599775
-0.0530973
-0.00312622
0.000123
-0.0217361
-0.00971878
-0.00753792
-0.000489691
0.000344996
-0.0336236
-0.0725053
-0.0196779
-0.0211002
-0.073908
-0.00780989
-0.0762156
-0.0497303
-0.0508178
-0.0010795
-0.0675591
-5.40968e-05
-0.00023658
-0.0313866
-0.0597464
0.00731038
-0.0881089
-0.0452108
-0.00304249
-0.0252918
-0.000311057
-0.00661517
-0.06508
-0.032583
-0.00883091
-0.00239529
-0.0595503
-0.0520032
-0.0438087
-0.0152045
-0.0220235
-0.0384891
-0.0511337
-0.028838
-0.0564427
-0.0230355
-0.0802188
-0.00310205
0.00147354
0.000646147
-0.0738739
-0.0170222
-0.0015169
-0.0720899
-0.0174858
-0.0697427
-0.0539563
-0.0736884
-0.000871452
-0.00233283
-0.0741564
6.2936e-05
-0.00922518
0.000128126
-0.00981018
1.13065e-05
-0.0101007
-0.0139092
0.000126295
-0.0161174
-0.00921879
-0.0188162
-0.00718008
9.11584e-05
0.000138576
-0.0423116
-0.0370378
-0.0882503
-0.0589528
4.44398e-05
-0.00066439
-0.00518697
-0.00727191
-0.0636792
0.00875544
-0.0380649
8.92751e-05
-0.0434464
-0.00757211
-0.00516208
-0.0710853
-0.0259944
-0.0638446
-0.0021859
-0.0153076
-0.0688879
-0.0697357
-0.0675983
0.0144329
-0.0445886
-0.0125315
-0.0870401
-0.0113926
-0.014443
-0.0336288
-0.00104261
0.000275058
-0.0908299
-0.0524997
-0.00156723
-0.0168942
-0.00483509
-0.0054522
-0.0427995
0.00584197
-0.0180773
-0.0638895
-0.0482641
-0.00650652
7.17441e-05
-0.0072965
-0.0642704
-0.0784416
-0.00727793
-0.0535675
-0.00140401
-0.0343719
0.000178466
-0.00931946
-0.0664499
-0.0241677
-0.0127084
0.000871997
-0.0568879
0.000142962
-0.0709083
-0.00633284
-0.0593061
0.000148139
-0.0384687
-0.0516358
-0.0719214
-0.0836754
-0.000518589
-0.0605103
-0.0327027
-0.000869746
-0.0249539
-0.0285547
-0.0352876
-0.0748671
-0.000418357
0.000277093
-0.0728611
-0.00167253
-0.0113879
-0.024245
-0.00297133
-0.0725702
-0.0359263
-0.0628498
-0.00357799
0.00187814
-0.00317843
0.00750261
-0.00644479
-0.00033242
0.0001
-0.014971
-0.0135599
-0.054583
-0.00844584
0.000237584
0.00273346
-0.0431733
-0.0523481
0.000118427
-0.000637552
-0.0809617
-0.00272252
-0.00771095
-0.00431458
0.00632276
-0.0618033
-0.0373399
-0.0566711
-0.0891569
-0.00288092
0.00145688
-0.0718055
0.00414589
-0.0308758
-0.00521466
0.000103759
-0.00205411
-0.0252017
-0.0102795
-0.0228731
0.00178693
-0.0320111
-0.000556148
-0.0972161
-0.00520838
-0.0476592
0.0105879
-0.0380438
-0.0481835
-0.0715397
-0.0642516
-0.0233203
0.00450076
-0.0566328
-0.0439357
-0.0685384
-2.09162e-05
-0.051028
-0.0207763
-0.0594299
-0.00613386
-0.0286183
-0.00301372
-0.00914504
-0.0723719
-0.072833
-0.0054381
-0.000340087
-0.0738683
0.00117771
0.00022279
-0.0707312
-0.00145188
-0.0286614
-0.0720402
-0.0523741
-0.00551523
-0.0090457
-0.0347372
-0.0718063
-0.063751
-0.0803573
-0.00236488
-0.0623839
-0.0175993
-0.0371535
-0.0671062
-0.0747546
-0.032536
-0.0424187
0.00977224
-0.0963224
-0.0542273
0.000585679
-0.0725794
-0.0723122
-0.0543949
-0.0548647
-0.0361873
-0.0775974
-0.00734161
-0.0237743
-0.0164568
0.0103758
-0.0331433
-0.0549561
0.000228016
-0.0802228
-0.017944
-0.0212816
-0.077072
-0.075474
-0.0622367
-0.081095
-0.0119308
-0.00336471
-0.0779588
-0.00630614
-0.00343171
-0.030264
-0.0525598
0.000417587
-0.0195878
-0.00437796
-0.030489
-0.0590777
-0.0707839
-0.0529939
-0.00698169
0.000523696
-0.00650076
-0.0597666
-0.0328877
0.00529445
-0.0518663
-0.00774735
-0.0607082
-0.0324607
-0.00948628
0.00487045
-0.0344757
-0.000933629
0.00662396
-0.0514615
-0.0602371
-0.0310213
-0.00297492
-0.00509219
-0.0724567
-0.0705046
0.000227708
-0.0288898
-0.00588589
-0.0111079
-0.00450176
-0.000736589
-0.00607648
-0.00416375
-0.0282674
-0.000779477
-0.00635076
-0.0250744
-0.0491247
-0.0650697
-0.0535456
0.0045964
-0.0183077
-0.0505287
-0.0063292
-0.00609708
-0.0243722
-0.0275657
-0.0497311
-0.0337983
-0.0842581
-0.0360229
-0.0318186
-0.00338877
-0.0723155
-0.00902816
-2.42847e-05
-0.00989844
-0.0598749
-0.0364248
-0.043481
-0.0516684
-0.0611926
-0.00910709
0.0101493
0.0130085
-0.0690784
-0.0449591
-0.000496039
-0.0172415
-0.0806898
-0.0673071
0.00499939
-0.00430305
-0.00503741
-0.00708759
-0.00740521
-0.0400489
0.000271571
-0.0535234
-0.0354874
-0.00660498
-0.00123846
-0.00706497
-0.0350361
-2.96637e-05
-0.0439928
-0.0750015
-0.00796416
-0.0625524
-0.072332
-0.0156043
-0.0193559
-0.0417416
-0.00622051
-0.000200072
-0.0197252
-0.00697543
-0.0771396
-0.0534401
-0.00335835
-0.0130252
0.000168538
-0.0558262
0.00822768
-0.0040398
-0.0614442
-0.06559
-0.0192538
-0.00472159
-0.0465749
-0.00830854
0.000504556
-0.0011327
0.00216576
-0.0175551
0.00236533
-0.00820193
-0.0713494
-0.00228784
-0.0557017
-0.0361311
-0.0562058
-4.02793e-05
-0.00161728
0.00793609
-0.000542406
-0.014158
-0.00167729
-0.0301475
0.00292003
-0.0312005
-0.00558564
-0.00491367
0.00899261
-0.0551003
-0.00289614
-0.000263253
-0.0233301
-0.00401278
-0.00222432
-0.0707649
-0.0238881
-0.0456538
-0.0544292
-0.00283866
0.00570224
-0.00317957
-0.0626375
-0.0587467
0.00577722
-0.0574325
-0.0343666
0.000360308
-0.012633
-0.00473922
-0.00479936
-0.00219853
-0.00605593
-0.00160718
-0.070746
0.000264441
-0.00170449
-0.0464199
-0.0596297
-0.066624
-0.00936367
-0.00980236
-0.0140229
-0.0966524
-0.0479897
-0.0603017
-0.0664526
-0.0222951
-0.0801997
0.000317822
-0.0777169
-0.0265753
0.000264614
-0.0128521
-0.055818
-0.0834328
0.00029985
-0.0722005
0.000287641
-0.0290582
-0.000159022
-0.0194206
-0.00505283
0.00793363
-1.764e-05
-0.058225
-0.00557001
-0.0511818
-0.00384181
0.00838461
-7.56066e-05
-0.00568684
-0.0214523
-0.0567121
-0.0954261
-0.0756437
-0.026052
-0.0548952
-0.00315944
-0.0675801
-0.000501946
-0.00743405
0.000263834
-0.0311145
-0.0712444
-0.0348064
-0.0532167
-0.0378285
-0.0532793
-0.0062393
-0.0569591
-0.00460193
-0.0338218
-0.0560222
-0.0239966
0.000367655
-0.00843023
0.00561254
-0.0198812
0.0128799
-0.0156786
-0.0624197
-0.00210105
-0.00118182
-0.0608023
-0.0038219
0.000354513
-0.0522981
-0.0718148
-0.0345394
0.00403088
-0.0473899
0.000950627
0.000312489
-0.0607988
-0.00826877
-0.0556072
-0.0551302
-0.0558098
-0.00515657
-0.048262
0.00139892
-0.0163819
-0.00256229
-0.0297507
-0.0692347
-0.0075283
-0.0534659
-0.00171534
-0.0701282
-0.0720742
-0.0433455
-0.0552976
-0.0617562
0.000355508
-0.0036016
-0.0530802
-0.00334402
-0.0651517
-0.0242326
-0.0234264
-0.0494113
-0.0454148
-0.0720789
-0.0252916
-0.0430629
-0.0271687
-0.0531935
-0.0851255
-0.0430244
-0.000871105
-0.0259311
0.000619064
-0.0605929
-0.0132297
-0.0364834
-0.0609212
-0.056262
-0.0123437
-0.0691604
-0.0409802
-0.0456277
-0.00657799
-0.0723074
-0.0566537
0.000306425
-0.014554
-0.00311806
0.000417034
0.000507141
-0.0158127
0.000345099
-0.0223208
-0.0829103
0.00909934
-0.0605513
-0.047019
-0.07007
-0.00371098
-0.0100832
-0.0557513
-0.00231873
0.001401
-0.0220656
-0.0210201
-0.00447791
-0.0342121
0.000372284
0.00303954
-0.0148844
-0.0757004
-0.00677611
0.000232981
-0.0612478
-0.026317
-0.00467247
-0.0376707
-0.00120361
-0.00644904
-0.0724798
-0.0637321
-0.0661179
-0.00732296
-0.067427
0.00298504
-0.0183702
-0.00147824
-0.0551933
-0.064222
-0.0251058
-0.0674119
-0.0052748
0.00544604
-0.065353
-0.0679013
0.00186426
-0.00372609
-0.00360269
0.00944016
-0.0643164
6.09442e-05
-0.0738706
-0.0211464
-0.0179136
0.00554126
-0.0536349
-0.0184659
-0.0484263
-0.000676184
-0.061244
-0.000585358
0.00030308
-0.0183734
0.000263281
-0.00195623
0.000730161
-0.0477363
-0.0589125
-0.0616874
0.0136214
-0.0557136
-0.0169265
-0.0575693
-0.0556043
-0.0707778
-0.0252901
-0.0102256
0.00011393
-0.0141598
-0.0644361
-0.0224853
-0.0465399
-0.0183504
-0.0519599
-0.0606378
-0.0703299
-0.0118044
-0.0609007
-0.0235513
-0.018746
-0.0167381
0.000106261
-0.0726312
-0.0305872
-0.0511407
0.00693364
-0.00124939
-0.0793901
-0.0350695
-0.019867
-0.0245212
-0.0907387
-0.00129002
-0.0396037
-0.0120361
-0.0156978
-0.071213
-0.0490762
-0.0333368
0.000778092
-0.0320298
-0.0204888
-0.0493733
-0.00883438
-0.0623367
-3.10544e-05
-0.00450429
0.000412089
-0.0443014
-0.00596917
-0.0780201
-0.0607226
-0.0327722
-0.000314857
-0.0169861
0.00194766
-0.0352802
-0.00179557
-0.000818542
-0.0582024
-0.052872
-0.00754996
-9.62502e-05
0.000174884
-0.0993971
-0.0607811
-0.0469001
-0.0643439
-0.0308065
6.20905e-05
4.74519e-05
-0.0029029
-0.0568718
-0.0545407
0.00018595
-0.0177377
-0.00210644
-0.0628041
-0.0458899
-0.0456786
-0.0570676
-0.0430626
-0.000696955
-0.0647017
-0.0651467
-0.0218227
0.000725927
-0.0258499
-0.0531112
-0.094061
-0.039101
-0.0746644
-0.0701538
-0.0553414
-0.0606176
0.00581802
-0.0134074
-0.049151
-0.078405
-0.0291775
-0.0725251
-0.0383024
-0.0055376
-0.00161929
-0.0562961
0.000368065
-0.0760047
-0.0365396
-0.061532
-0.0871417
-0.010301
-0.0682487
-0.0597219
0.00181678
-0.0515648
-0.0915477
-0.0425108
-0.070403
-0.020964
-0.000447902
-0.0145134
0.000222858
-0.00169069
-0.00450614
-0.0151917
-0.0255601
0.00596811
-0.00749317
-0.0423461
0.000991182
2.25979e-05
0.000102429
-0.0195188
-0.0343672
0.00335699
-0.0612739
-0.0289395
-0.0153445
-0.0445801
0.00946939
-0.0044136
-0.0579961
-0.00847336
-0.00404484
-0.0666756
-0.0688017
-0.0699555
0.00180465
-0.00467443
-0.0630102
0.00142274
-0.00163264
-0.0676549
-0.0113043
-0.0729128
-0.0733935
0.00136376
-0.0710035
-0.0694945
-0.0490826
-0.0463175
-0.0564279
-0.0361584
-0.00328475
-0.0322368
-0.070907
-0.0569004
-0.0858872
2.47551e-05
-0.0257449
0.000660771
-0.0299884
-0.0574362
-0.0641743
-0.0723154
-0.0667778
-0.0597184
-0.0209814
-0.0162317
0.000290821
-0.0178621
-0.00182062
-0.0593508
-0.012711
-0.057414
-0.0176418
-0.00538394
-0.0345314
-0.0746136
-0.0520291
-0.059999
-0.0710567
0.000244211
0.00106799
-0.059495
-0.0593362
-0.0546379
-0.010054
-0.00160916
-0.0356999
-0.0375034
-0.0788719
0.00690699
-0.0636694
-0.0015773
-0.0950829
-0.000437769
-0.0484718
-0.0166482
-0.0145579
-0.0622099
-0.0135668
-0.064583
0.000289292
-0.0554779
0.000344476
-0.0627495
-0.0076005
-0.0340427
-0.00471179
-0.0577051
-0.0639822
-0.0719704
-0.0624097
-0.0519214
-0.0441358
-0.0187752
-0.0596916
-0.0712666
-0.00533604
0.000342151
0.00254486
0.000102081
-0.0553168
3.1303e-05
-0.00916706
-0.0269772
-0.00718273
-0.0133037
-0.00704282
-0.0446081
-0.086147
-0.0564471
-0.0216713
-0.00224335
-0.0557414
-0.0205717
-0.00413814
-0.0195605
-0.0626391
-0.0816386
-0.0095507
-0.0293933
-2.15031e-05
-1.69302e-05
-0.0736398
-0.0728559
0.0034582
5.42261e-05
0.00170993
-0.00609998
-0.0480079
0.00145148
-0.0573705
-0.0719328
-0.029533
0.00701949
-0.00613548
-0.0189376
-0.0193978
-0.0429322
-0.0514042
-0.0327478
-0.0883325
-0.00627317
-0.0182323
-0.0063359
-0.028262
-0.0599419
-0.0711101
-0.032591
-0.0717541
-0.0555066
0.000118499
-0.0298101
-0.00109372
-0.00204131
-0.0548143
-0.077626
-0.0279273
-0.0200366
0.00647296
-0.0264422
-0.0638876
-0.0701138
-0.0328059
-0.0553668
-0.0865479
-0.0111719
-0.0293126
-0.00587476
-0.0609326
-0.00611131
-0.00146044
-0.0520659
-0.0324682
-0.0438592
-0.00061519
-0.0492156
0.000429126
-0.0725308
-0.0677323
-0.00569988
-0.000184757
-0.0545094
-0.030429
-0.0108543
-0.0353187
-0.00189291
-0.0704743
-0.0366457
-0.0696075
-0.0236443
-0.0456521
-0.000161725
-0.0542468
0.0010666
-0.0667226
-0.0720521
-0.0177999
0.00732034
-0.0557764
-0.00530338
-0.00120677
-0.049999
-0.072035
-0.0716124
-0.0216669
-0.00115448
-0.0170375
-0.00986272
-0.0054315
-0.0331874
-0.071132
-0.00929153
-0.0493731
-0.0442846
-0.00138955
-0.00305143
-0.0541544
-0.00683489
-0.0714099
-0.0020721
-0.00484287
0.00225648
-0.054476
-0.0192117
-0.0739772
-0.060864
-0.0372669
-0.00628148
-0.0354545
-0.0500649
-0.0563584
-0.05812
-0.032798
-0.0497458
-0.051474
-0.0101362
-0.0229047
-0.0674097
-0.00987407
0.000505122
-0.0704361
-0.0192731
-0.0384955
-0.0126582
-0.0722634
-0.021876
-0.0487647
-0.00865053
0.0129661
-0.0514767
-0.0207481
-0.0507689
-0.0709557
0.00134013
-0.0258221
-0.0167413
-1.27751e-05
-0.0346016
-0.0358899
-0.0407066
-0.0599584
-0.0630237
-0.0109005
-0.0571098
-0.0560172
-0.0444065
0.00355341
0.009512
-0.0040038
-0.0504807
-0.0519087
-0.0799551
-8.70061e-05
-0.0886608
-0.0705228
-0.0360721
-0.0145013
-0.00248296
0.00861619
-0.0491166
-0.00305042
-0.0559564
-0.0167824
-0.093932
-0.0202502
-0.0507727
0.000271054
-0.0106712
-0.0171723
-0.0157246
-0.0687118
-0.0626082
-0.0949512
-0.0418593
-0.00153185
0.0141708
-0.00741839
0.000681524
-0.0883396
-6.71272e-05
-0.0658131
-0.0293682
-0.0185703
-0.0196271
0.00107303
-0.00177334
-0.00657979
-0.000289085
-0.0198748
-0.0576358
-0.012545
0.00762731
0.00684071
-0.0048477
-0.0315872
-0.0310846
-0.051623
-0.0400111
-0.0111276
-0.00269852
-0.0809203
-0.00200579
-0.00444032
-0.0141017
-0.0419704
-0.000853008
-0.0619072
-0.0349387
-0.0168407
-0.0595308
-0.0687889
0.0158484
-0.0565444
-0.0923943
-0.00827207
-0.0318925
-0.0364056
-0.050403
-0.00103885
0.000370653
-0.0666503
-0.0724066
-0.0559658
-0.0598646
-0.0353935
-0.0725962
0.000898219
-0.053263
0.000240221
-0.0589678
-0.033542
-0.0612291
-0.0319266
-0.0633448
-0.0714397
-0.00221661
0.000339956
-0.045664
-0.00249174
-0.0438428
-0.0578957
-0.0189731
-0.000382798
-0.0723032
-0.0567655
-0.00433738
-0.0617792
-0.0716499
-0.0712326
2.68996e-05
-0.0717455
-0.0724886
0.00075862
0.01141
-0.0634424
0.00513801
-0.00399472
-0.00422193
-0.00263408
-0.0592062
-0.00156985
-0.0104482
-0.0547935
-0.0714512
-0.0730693
0.000360952
-0.0564835
-0.0342849
-0.0391471
0.000281889
-0.0303376
-0.055581
-0.00437047
-0.0705662
-0.0626587
0.00435133
-0.0406751
-0.0718928
-0.0329495
-0.0923372
-0.0718436
-0.0568839
-0.00858369
-0.0720145
-0.00101473
0.00017563
-0.0298947
-0.000296641
0.000345723
-0.0715788
-0.00697354
0.00234847
-0.0112102
-0.0726323
-0.0712464
-0.00242101
-0.0042212
-0.0164727
-0.0187183
-0.0710823
-0.00361545
-1.33999e-05
-0.0228788
0.00498877
-0.00741312
0.000263904
-0.0714706
-0.0658853
-0.0347692
-0.00411872
-0.00209264
-0.0451369
-0.0569138
-0.000886175
-0.0720561
-0.0814073
-0.0377904
-0.0715735
-0.072242
-0.000231305
-0.0970198
-0.0342262
-0.0726945
3.90669e-05
0.0024802
0.00323093
-0.041729
-0.0149676
-0.0622414
0.000501389
-0.000740146
-0.00234921
-0.0839521
-0.0690939
-0.0728576
-0.0627488
-0.0372397
-0.0503719
-0.0474808
-0.0523716
-0.0594624
-0.0712469
-0.0141567
-0.0558242
-0.0124663
-0.0448772
0.00060895
-0.0869414
-0.0705324
-0.0604612
-0.0478584
-0.000254711
-0.0735032
0.00238654
-0.0242489
-0.0332914
-0.0095486
-0.0527315
-0.0537838
-0.040055
-0.0492309
-0.0452381
0.000755492
-0.0509888
-0.078791
-0.0549716
-0.00305131
-0.0716283
-0.0205368
-0.0494875
-0.0251846
-0.0684418
-0.0353206
0.00103775
-0.0088491
-0.05471
0.00129755
-0.00408277
0.00025729
-0.0390951
0.000477828
-0.0342231
-0.0698083
-0.0761377
-0.0683357
-0.0714563
-0.0131018
-0.0628681
-0.0577877
-0.0746493
-0.0716734
-0.0539974
-0.0116132
-0.0719076
-0.0601525
-0.0780951
-0.0642971
-0.0511901
0.000382967
-0.050428
-0.0129621
-0.034261
0.00232238
-0.0615529
-0.0619477
-0.048106
-0.0279277
-0.0413743
-0.0200039
-0.0565647
-0.0720833
-0.023004
-0.0936005
0.000403531
-0.0364964
-0.031273
-0.0587793
-0.042823
-0.0311995
-0.0366813
-0.0580732
-0.0201586
0.00585667
-0.0507038
-0.0022859
-0.0288817
-0.00448374
-0.0466365
-0.0020995
-0.0507727
-0.0368875
-0.0245411
-0.0580032
-0.0565144
-0.0187383
0.00188836
-0.0326124
-0.0523265
-0.00730971
0.000555399
-0.024015
-0.00279045
0.0048003
-0.0188589
-0.00267858
-0.024678
-0.027389
0.0064229
-0.05362
-0.0369785
-0.0228506
-0.0560782
-0.0147391
-0.0595232
-0.00379682
-0.0381179
-0.00247249
-0.0307694
-0.00461803
-0.0419105
-0.0310077
-0.0556963
0.000279445
-0.0385624
-0.0385007
0.000343155
-0.0201593
0.00799634
-0.00576292
-0.0668803
-0.0720166
-0.00436044
-0.0429042
-0.0317283
-0.0367807
-0.0093782
-0.0411399
-0.0176012
-0.0114668
-0.0595056
-0.00311567
-0.0544664
-0.0557616
0.0020429
-0.0165344
-0.0110053
-0.0648271
-0.000866781
-0.00954643
-0.00783461
-0.0696286
-0.00557062
0.000530804
-0.0545591
0.000255275
-0.000570071
-0.00049438
0.000275693
-0.00759629
-0.00121998
-0.0013684
-0.0554106
-0.00153391
-0.0390075
0.000656997
-0.00360287
-0.00192619
-0.0672656
-0.0602819
-0.0713632
-0.0493548
-0.00640746
-0.0586904
-0.0737853
-0.000167606
-0.049801
0.000388345
0.00411923
-0.0113778
-0.0409764
-0.00443684
-0.000296719
0.00278013
-0.0056965
-0.00442454
0.00152976
-0.0310361
-0.000622255
0.000296169
-0.0028256
-0.0661136
-0.0589198
-0.00370009
-0.0285889
-0.000161288
-0.0742613
-0.0392309
-0.0542087
-0.0251622
-0.0679132
-0.0101353
-0.0702583
-0.0555959
0.0041972
-0.0205667
-0.0287692
2.61871e-05
-0.017088
-0.0142533
-0.0120719
-0.0408136
-0.0561958
-0.067456
-0.0514236
0.000334057
-0.0222955
-0.0850569
-0.0291627
-0.000392115
-0.000207678
-0.00050976
-0.0489131
-0.00519899
-0.0121796
-0.00546498
-0.054493
-0.069882
-0.0713057
-0.0381139
-0.0561176
-0.0561031
-0.0202033
-0.0016328
-0.0068013
-0.0261399
-0.00021537
-0.00423202
-0.0549331
-0.0641372
-0.0314741
-0.0337131
-0.000736819
-0.0320913
-0.0178157
-0.00107928
-0.0108604
-0.0585891
0.000164987
-0.00751581
-0.0309202
0.00709601
-0.0427276
-0.0680419
-0.0350794
-0.0196572
-0.0570162
-0.0642526
-0.0510386
0.000317575
-0.0280766
-0.00620077
-0.0316902
-0.0667664
0.000396481
-0.0723315
-0.00035582
-0.00645356
-0.0366174
-0.0557683
-0.0675488
-0.0595145
-0.00645585
-0.00173774
-0.0151389
-0.0727005
-0.0180956
0.000429616
-0.00374695
-0.0236975
-0.00619228
-0.0040919
-0.00216203
-0.0570912
-0.0578775
-0.0537225
-0.00430492
-0.0538383
-0.0711982
-0.0901838
-0.0575835
-0.0407218
0.000266337
0.000261815
0.000114498
-0.0210121
-0.0569219
-0.0563716
0.000486587
-0.0724243
-0.0566828
-0.0819264
-0.00299599
-0.0301684
-0.0399373
-0.0586348
-0.0544187
-0.00239886
-0.0534735
0.000103796
-0.053582
-0.0494961
-0.000494686
-0.0650805
-0.0320047
-0.0823627
-0.0719304
-0.0215748
-0.0359636
-0.0190024
-0.00251745
-0.0715729
-0.0538304
-0.08983
-0.0336573
-0.0570493
-0.0900664
-0.055295
-0.0540471
-0.0568195
-0.071213
-0.0438972
-0.0332798
-0.0028432
-0.0674199
-0.0502155
-0.00164649
-0.0518613
-0.00347473
-0.0284746
-0.0116252
-0.00329325
-0.0586254
-0.0333769
-0.0722122
-0.0529668
-0.0338696
0.00452324
-0.0043252
-0.0550036
-0.0420631
-0.0248097
-0.0028815
-0.00653667
-0.0566845
-0.000342286
0.000315927
-0.0593252
-0.0478782
-0.0525714
-0.0537716
-0.0248163
-0.0433873
-0.00142157
-0.0159081
-0.0329708
-0.0720951
0.000807072
-0.00492633
-0.0578758
-0.0523362
-0.00256327
-0.0729827
-0.0609631
-0.0330903
0.00441571
-0.0422351
-0.0560096
-8.62454e-05
0.000500699
-0.093538
-0.0339603
-0.0570946
-0.0523968
-0.0680071
0.000442101
-0.00708828
-0.0385521
0.000261438
-0.0682496
-0.00817205
-0.0637852
-0.0968951
-0.0110977
-0.00282661
-0.0386199
-0.03012
-0.0561819
-0.0551485
-0.000575981
-0.0709721
-0.0905088
-0.0329347
-0.00603927
-0.0572843
-0.0494775
-0.0660906
-0.0357004
0.000466227
-0.0563156
-0.0272248
-0.00647798
-0.00833612
0.00243133
-0.00426213
-0.00375506
-0.00446332
-0.000323356
-0.0173571
-0.0764779
-0.0549794
0.00710686
-0.0594533
-0.0529049
0.000176434
-0.0653975
-0.0653477
-0.0504568
-0.00161783
-0.0297705
-0.049027
-0.0731095
-0.082485
-0.0481353
0.00343864
-0.0587298
-0.0955901
-0.0589204
-0.00420617
-0.0689904
-0.0929848
-0.0316736
-0.0842181
-0.0696376
-0.000524886
-0.0725376
-0.0771427
-0.0228839
-0.00600973
-0.00262851
-0.0319782
-0.00346583
-0.00120662
-0.00434673
-0.0628355
-0.0708668
-0.00999907
-0.0548785
-0.00386222
-0.0179738
-0.0703055
-0.0521733
-0.0706163
-0.0786967
-0.0517155
-0.00577502
-0.000882604
-0.0684732
-0.0541392
-0.082182
-0.0515667
-0.0695022
-0.0490873
-0.00382889
-0.0316998
-0.0507199
-0.0647549
-0.067781
-0.0678151
-0.039168
-0.0578306
-0.0576334
-0.00156777
-0.0723459
-0.0353702
-0.0491127
-0.00338811
-0.0356126
0.00052042
-0.0483646
-0.0522083
-0.0481242
-0.0521277
-0.00103049
-0.0944195
-0.0404361
-0.0244702
-0.0669985
0.016537
-0.0566961
-0.0068078
-0.0951213
-0.054823
-0.0872413
-0.0896179
0.00149408
-0.042483
-0.0645909
-0.0579247
-0.00137267
-0.0467471
0.000500549
-0.0105403
-0.0296003
-0.037583
-0.0618172
-0.0516446
0.00321838
-0.0728115
-0.038435
-0.000118229
-0.0103871
-0.0325448
-0.013976
-0.0621115
-0.0582732
-0.0572175
-0.0917601
0.00607538
-0.0199183
-0.0356302
-0.00565827
-0.0550216
-0.00410981
-0.00703086
-0.0183819
-0.0574707
0.00251497
-0.051491
-0.0355878
-0.0713581
-0.0340759
-0.0641626
-0.0617851
-0.0612604
0.00271004
-0.00609299
-0.0329166
-0.0338269
-0.0587535
-0.0698364
-0.042355
-0.0357535
-0.0595285
-0.0226463
-0.0318763
-0.00675011
-0.00800808
-0.0134328
-0.0910883
-0.0170505
-0.0514009
-0.0303909
-0.0416763
-0.0331885
-0.0727215
-0.0736272
-0.0233705
-0.0291831
-0.0536934
-0.0208145
-0.00266039
0.0122692
-0.0461074
0.0018954
-0.0708177
-0.0318363
-0.052446
-0.0373533
-0.01111
-0.0284289
-0.0518227
-0.0198766
-0.0596338
-0.0705561
-0.0319236
-0.00492391
-0.0773931
0.00853374
-0.0830592
-0.00112199
-0.0156528
-0.0913492
4.94208e-05
-0.0562025
-0.00538147
-0.0141183
5.52582e-05
-0.0191204
-0.0620474
-0.0331967
-0.0894263
-0.0903037
-0.0356783
-0.0176419
-0.0649128
-0.0689826
0.000302407
-0.062537
0.000203281
0.00807166
-0.0656821
-0.0868342
0.00788511
-0.0952776
0.00526746
-0.000240143
-0.0287521
-0.00993707
-0.0170438
-0.0205158
-0.0586307
0.00227085
-0.0328733
-0.0158308
-0.0573943
-0.0726539
-0.0649698
0.0101699
-0.0846098
-0.0693386
-0.0726269
-0.00622892
-0.0470099
-0.0925842
-0.0344312
-0.00379111
-0.0589662
-0.0553547
-0.00403694
-0.0134591
-0.0769116
-0.007285
-0.00153689
-0.0284977
-0.0602948
-0.00219954
-0.0302829
-0.0206159
-0.034169
-0.0404134
-0.0110838
-0.0112573
-0.000748895
-0.0564936
-0.0119455
0.000935738
-0.0665413
-0.000107529
0.000308894
-0.0580881
-0.0414646
-0.0599748
-0.0331768
-0.0455802
-0.0111886
-0.000317225
-0.00948185
-0.00301417
-0.0451435
-0.0566058
-0.0851225
-0.0566514
-0.0636531
-0.0220774
-0.0406925
-0.0127865
-0.0055664
-0.0790716
-0.0512524
0.00623012
-0.0642737
-0.019553
-0.0202349
-0.0516137
-0.00292429
0.00037015
0.00956351
-0.0294603
-0.00532052
-0.0301754
-0.0466243
-0.00148136
-0.0380726
-0.0670539
-0.0724614
-0.0115926
-0.0509483
-0.0273397
-0.0532007
-0.00681124
-0.0645478
-0.0675305
-0.0213283
-0.0057579
0.00212188
-0.0755528
0.0040261
0.000420746
-0.0593369
-0.0509761
-0.0638792
-0.00103402
0.00663603
-0.0494892
0.00779865
-0.00435978
0.00112292
-0.00426912
-0.00554537
-0.0170309
-0.00776757
0.00371781
-0.0544675
0.0125557
-0.0556184
-0.0108839
0.0071347
-0.0353991
-0.059213
-0.0334712
-0.00545628
-0.0167226
-0.00502309
-0.0112996
-0.0709649
-0.0471097
-0.0521378
0.000364172
-0.0174049
-0.0685963
-0.0967514
-0.0351264
-0.0621559
-0.051172
-0.0318405
-0.00833534
-0.0131367
-0.0702545
-0.0730327
-0.00476001
-0.0295353
-0.041808
-0.0246994
-0.00785386
-0.0907726
0.00164146
-0.0721271
-0.0631011
-0.0731283
0.00528008
0.000542858
0.00899121
-0.082817
0.0098058
-0.0233344
-0.0213708
-0.00589548
-0.0193933
0.00276049
-0.00267587
-0.0488938
-0.020836