/*--------------------------------*- C++ -*----------------------------------*\
| =========                 |                                                 |
| \\      /  F ield         | OpenFOAM: The Open Source CFD Toolbox           |
|  \\    /   O peration     | Version:  v2012                                 |
|   \\  /    A nd           | Website:  www.openfoam.com                      |
|    \\/     M anipulation  |                                                 |
\*---------------------------------------------------------------------------*/
FoamFile
{
    version     2.0;
    format      ascii;
    class       volScalarField::Internal;
    location    "200";
    object      V0;
}
// * * * * * * * * * * * * * * * * * * * * * * * * * * * * * * * * * * * * * //

dimensions      [0 3 0 0 0 0 0];


value           nonuniform List<scalar> 
13851
(
0.0940319
0.0504159
0.0155544
0.0944514
0.0129663
0.0875205
0.0778049
0.0210207
0.16769
0.0234622
0.17342
0.0181067
0.0051555
0.00650623
0.170248
0.0353417
0.0448511
0.0597037
0.0082964
0.167855
0.107488
0.0171549
0.165508
0.188269
0.158084
0.0241955
0.0320172
0.000976799
0.0918922
0.0644874
0.0859646
0.0426193
0.0191402
0.105218
0.206942
0.0054343
0.00435101
0.0113834
0.0197108
0.134595
0.10252
0.171099
0.00131341
0.162877
0.159459
0.0029829
0.155613
0.111599
0.0305017
0.145961
0.0113761
0.00694062
0.00138372
0.151163
0.174554
0.169865
0.170087
0.00213002
0.0749875
0.076743
0.0127775
0.00547529
0.0666011
0.00944908
0.0428431
0.0827738
0.00344941
0.165866
0.0216903
0.0626805
0.0012856
0.00339787
0.047882
0.171965
0.173121
0.11994
0.0114784
0.00167431
0.0166148
0.00138107
0.0741378
0.166364
0.122989
0.00268599
0.0626251
0.016699
0.0890845
0.0272502
0.0393503
0.183599
0.005307
0.109579
0.128872
0.025175
0.0418719
0.156233
0.0123071
0.00301704
0.125808
0.185258
0.00377146
0.0149597
0.0803201
0.0294215
0.163091
0.0944624
0.013394
0.183608
0.00290706
0.0845906
0.158348
0.185976
0.107422
0.195517
0.16351
0.0680405
0.00391171
0.135181
0.173218
0.155009
0.00135519
0.0365661
0.00520108
0.107884
0.103361
0.176002
0.106964
0.0132474
0.0904608
0.00806919
0.115058
0.162789
0.00133599
0.128443
0.0698753
0.167287
0.16628
0.00334972
0.00675069
0.0101815
0.00336231
0.1896
0.137622
0.16263
0.0539967
0.157117
0.186973
0.0107842
0.0921343
0.160271
0.00849566
0.168112
0.00520743
0.150291
0.0391498
0.0607687
0.123977
0.0600932
0.00696398
0.0120692
0.173098
0.0200703
0.00166449
0.14678
0.0643492
0.169991
0.197716
0.020614
0.0917686
0.00299217
0.0013675
0.145121
0.120601
0.00907718
0.151408
0.105166
0.0171901
0.106637
0.00791464
0.180931
0.0356947
0.00313833
0.114557
0.0120787
0.170554
0.165661
0.0796115
0.156353
0.0120182
0.0290108
0.149806
0.00151287
0.1538
0.0190089
0.00684095
0.0489674
0.136434
0.132554
0.127309
0.120012
0.17526
0.00385171
0.169983
0.114684
0.024066
0.11659
0.00926402
0.0411981
0.0019356
0.178707
0.00250867
0.0936146
0.139078
0.192683
0.178769
0.164912
0.0675191
0.00281777
0.128245
0.00193019
0.0331647
0.0657562
0.00254717
0.00762189
0.00221044
0.178656
0.027194
0.163592
0.00138248
0.178432
0.025112
0.0450041
0.142932
0.151792
0.0108856
0.0488458
0.00851014
0.0351952
0.17741
0.102168
0.0878795
0.135115
0.194636
0.021578
0.162304
0.00164413
0.0140733
0.12712
0.0569913
0.0456499
0.121198
0.126877
0.0569745
0.0531893
0.0136515
0.0656578
0.0338064
0.00311346
0.00126717
0.123259
0.166912
0.0737399
0.0782379
0.175599
0.00672639
0.0424272
0.0564045
0.0250212
0.00263423
0.142149
0.120157
0.044365
0.0886624
0.0168417
0.0381427
0.151217
0.171697
0.154895
0.00225209
0.148309
0.14669
0.191185
0.162558
0.0135689
0.0903862
0.0975424
0.154341
0.127634
0.0898245
0.187514
0.00858728
0.0571475
0.0649803
0.0200693
0.14272
0.00700216
0.0372028
0.0178537
0.142285
0.0017711
0.019292
0.0404054
0.00229199
0.0798787
0.0939496
0.00249893
0.152791
0.0146467
0.0302467
0.0619433
0.00772845
0.0296404
0.057406
0.00292993
0.165466
0.0392256
0.176135
0.00264583
0.00620211
0.124689
0.0132387
0.13271
0.00180257
0.120767
0.172889
0.110533
0.00703406
0.0271348
0.0381779
0.129006
0.0840511
0.0668013
0.195984
0.00415157
0.003884
0.0661494
0.00267033
0.00672695
0.149969
0.0183722
0.00849876
0.0895889
0.0408004
0.00656456
0.00746213
0.109649
0.0734577
0.00205638
0.163045
0.150948
0.151118
0.0121028
0.0377567
0.039909
0.00140659
0.119594
0.0784202
0.110925
0.141659
0.169264
0.169308
0.134535
0.00214273
0.177826
0.0876256
0.0175672
0.168283
0.0162358
0.0364127
0.0926311
0.00360107
0.0853125
0.0396658
0.0288256
0.107856
0.122034
0.133707
0.09944
0.00298583
0.186148
0.00835847
0.100911
0.00593106
0.00318142
0.155846
0.159611
0.0969637
0.140449
0.147003
0.0678579
0.0106079
0.00588942
0.0209139
0.00254092
0.0022951
0.126343
0.0981969
0.00369178
0.00135641
0.0424196
0.0036667
0.105183
0.0267712
0.168059
0.00752998
0.133989
0.0270106
0.104262
0.0840736
0.167665
0.142238
0.126506
0.00844958
0.0461352
0.00162223
0.0689295
0.0119619
0.0843914
0.11805
0.0445888
0.0139514
0.0409638
0.161632
0.175042
0.148335
0.164023
0.0105219
0.128584
0.00917432
0.0794367
0.00155993
0.101713
0.0904915
0.176776
0.0084787
0.121415
0.122805
0.180416
0.0161372
0.141719
0.0184079
0.00155096
0.127771
0.16195
0.160008
0.00371278
0.185473
0.0252576
0.0146538
0.131747
0.140762
0.0654884
0.00873684
0.00704765
0.0634923
0.0172041
0.188038
0.108946
0.00168058
0.0562213
0.181193
0.0238483
0.134338
0.0802387
0.144842
0.0462107
0.0606285
0.167766
0.127886
0.00370553
0.106114
0.0183404
0.161131
0.0768856
0.167282
0.169088
0.108623
0.180227
0.173115
0.100713
0.0648703
0.0930075
0.113738
0.176626
0.00407672
0.00137575
0.101543
0.0872402
0.0421556
0.128549
0.00277303
0.0918885
0.159657
0.116741
0.0117515
0.0753911
0.00169671
0.174473
0.00121381
0.0297605
0.163638
0.0878071
0.00300885
0.0210427
0.138043
0.165898
0.111224
0.180474
0.145956
0.152186
0.08485
0.00138047
0.0116681
0.00658291
0.00411501
0.0627925
0.183267
0.00623159
0.13212
0.0325135
0.023753
0.110786
0.110985
0.00284947
0.148915
0.00211901
0.00282565
0.00331447
0.0405057
0.0672834
0.114968
0.164061
0.0751431
0.129012
0.0150731
0.0588426
0.0149824
0.00349246
0.172132
0.159454
0.0115905
0.00130053
0.0527752
0.125756
0.13005
0.0928397
0.0116723
0.0475629
0.0311073
0.0170455
0.155955
0.00182086
0.00167476
0.0945546
0.141056
0.0196364
0.1283
0.145881
0.153564
0.00580571
0.0294516
0.00721966
0.00433365
0.165709
0.0830569
0.105053
0.0145313
0.00914576
0.00132648
0.00304411
0.110471
0.0833505
0.0254847
0.00206377
0.00566277
0.0170501
0.0629664
0.167362
0.129367
0.0140884
0.175741
0.0539426
0.17841
0.150109
0.00275711
0.0105633
0.0854613
0.158623
0.00757847
0.128878
0.139856
0.143255
0.165905
0.153546
0.002858
0.122747
0.130905
0.00365815
0.114139
0.0195818
0.00123285
0.00147014
0.077511
0.0199103
0.127314
0.173765
0.0297742
0.00398937
0.0776575
0.00767438
0.0272178
0.146598
0.0391263
0.126335
0.131128
0.00967511
0.117601
0.0665847
0.138618
0.0233707
0.00742778
0.0811982
0.111614
0.0327288
0.0629942
0.0113369
0.0109078
0.00626165
0.0389235
0.00532473
0.144163
0.0524514
0.103107
0.00292213
0.100716
0.172243
0.002832
0.0663943
0.00193824
0.0018904
0.00263669
0.0263254
0.129353
0.0030416
0.127837
0.151191
0.165911
0.149473
0.146456
0.0693314
0.0502781
0.161936
0.00990148
0.0283847
0.00829597
0.128561
0.157837
0.138911
0.0102604
0.00644364
0.0107822
0.0235021
0.13054
0.142708
0.154935
0.0932981
0.00406837
0.0136611
0.062208
0.171749
0.0817956
0.128908
0.0162691
0.00155714
0.0356703
0.00407598
0.111226
0.117231
0.0074759
0.00301532
0.0201729
0.0155813
0.0736868
0.0630116
0.0117487
0.0690224
0.1358
0.109821
0.130676
0.184353
0.0159766
0.00166267
0.130759
0.0616319
0.0644327
0.143967
0.0378592
0.0871886
0.00686614
0.010125
0.00712389
0.144414
0.169701
0.132585
0.00444842
0.00412505
0.0472804
0.00193006
0.15677
0.13637
0.170098
0.118477
0.00354161
0.0484256
0.0829402
0.156913
0.039987
0.123143
0.00199239
0.0487812
0.00170056
0.15618
0.0669734
0.00126447
0.00122268
0.0049804
0.122014
0.00258319
0.126991
0.162896
0.0146438
0.0186225
0.0432249
0.00273
0.0884266
0.128089
0.00439852
0.172567
0.174726
0.060007
0.132142
0.00200839
0.0243253
0.00928596
0.0731919
0.15608
0.144305
0.0842554
0.179388
0.110285
0.162154
0.111799
0.156012
0.00187044
0.13066
0.13264
0.0953762
0.0818214
0.00131408
0.15307
0.125377
0.00655671
0.0160671
0.134916
0.155711
0.078788
0.0044268
0.0578533
0.0028468
0.0176872
0.133075
0.104303
0.00118429
0.093933
0.0434712
0.150072
0.166539
0.162175
0.0168047
0.0312415
0.0503379
0.103495
0.135119
0.123892
0.00673503
0.127449
0.0117007
0.0762906
0.0779879
0.0113123
0.00655672
0.00228816
0.0530461
0.00988216
0.00443409
0.0938622
0.00259622
0.0518373
0.00516552
0.00702778
0.00255011
0.129984
0.0283978
0.144579
0.0662591
0.00217738
0.00224159
0.120186
0.176514
0.0119325
0.154754
0.13088
0.00130299
0.152573
0.0971311
0.00176947
0.00145673
0.117192
0.118776
0.137844
0.00108707
0.00344959
0.00630414
0.106558
0.00385298
0.0122866
0.00661917
0.0136495
0.0159496
0.0541476
0.0768472
0.0400004
0.0106173
0.000793892
0.0987034
0.0227296
0.00203637
0.00479188
0.00143541
0.0887284
0.0195269
0.142377
0.036369
0.0599483
0.011215
0.194324
0.00171262
0.118487
0.00751153
0.106795
0.0142999
0.0162678
0.0205895
0.00300823
0.0142802
0.0431213
0.166594
0.00834712
0.0930482
0.0575745
0.0561722
0.00115879
0.169132
0.00719718
0.148432
0.0789509
0.00176149
0.00289589
0.0014372
0.138198
0.121791
0.114159
0.00169363
0.173977
0.0649607
0.00159435
0.13359
0.0401142
0.00971245
0.13806
0.0107463
0.0737054
0.129187
0.0289185
0.00184197
0.00876762
0.0423129
0.10156
0.151162
0.00200809
0.00730582
0.128219
0.0264225
0.145822
0.12048
0.157871
0.140921
0.0133949
0.126131
0.0915538
0.122513
0.106904
0.0601287
0.0013033
0.0029526
0.0282087
0.00782068
0.0999659
0.025461
0.109546
0.146744
0.0890731
0.0961473
0.00128357
0.0908439
0.0116594
0.0871207
0.0455621
0.156831
0.00121868
0.128871
0.0248701
0.0269954
0.00421806
0.0217551
0.0217926
0.00122406
0.0255738
0.048372
0.0140783
0.076748
0.00131199
0.0176795
0.178366
0.0863246
0.0176799
0.0132938
0.00903472
0.144848
0.00954472
0.132817
0.127519
0.00565638
0.163699
0.00655907
0.035726
0.14198
0.0715529
0.132121
0.125574
0.135988
0.0655344
0.00393765
0.12978
0.00382889
0.00187571
0.0286872
0.00670692
0.078773
0.178618
0.156929
0.0913525
0.128797
0.0085367
0.048943
0.118298
0.0790927
0.175306
0.00149361
0.0132374
0.0595691
0.00331787
0.00425764
0.0906977
0.100651
0.0232936
0.128389
0.139169
0.0929059
0.101319
0.153129
0.157383
0.134961
0.00199277
0.141252
0.00476585
0.0317413
0.0381795
0.165859
0.148669
0.0130399
0.051017
0.0927632
0.13294
0.104531
0.100543
0.0726878
0.0149046
0.147045
0.0397872
0.00560407
0.128044
0.161766
0.0960589
0.0443319
0.0806756
0.0338198
0.0125522
0.0157324
0.0508445
0.103383
0.0152034
0.108993
0.00158123
0.00403875
0.0621675
0.00580241
0.127533
0.158036
0.0967173
0.120184
0.141732
0.138667
0.149061
0.137157
0.00969127
0.135078
0.137676
0.0576035
0.0188777
0.00368313
0.0478298
0.0589852
0.162984
0.0103054
0.00679666
0.0498162
0.00187496
0.00961141
0.00727054
0.142151
0.00941747
0.0935408
0.137993
0.0995379
0.00133336
0.00734882
0.127154
0.0318905
0.153231
0.110897
0.147127
0.0873616
0.0964956
0.0685891
0.131567
0.0170844
0.0519639
0.00129045
0.187782
0.0325284
0.134434
0.00685635
0.0190414
0.00281722
0.00631306
0.00696917
0.0108763
0.00161281
0.123333
0.00380116
0.147244
0.0206661
0.138572
0.0531279
0.0204327
0.07572
0.00152843
0.0321958
0.0317217
0.147042
0.00592812
0.0990809
0.136975
0.0373446
0.044545
0.167375
0.0675408
0.0285678
0.11146
0.0419699
0.111279
0.0248967
0.100231
0.109619
0.00391681
0.0359593
0.151475
0.0575933
0.00242909
0.0225448
0.0150208
0.0060298
0.112472
0.141418
0.00355422
0.0686944
0.0170672
0.0267201
0.00246918
0.11277
0.00793934
0.045874
0.0583448
0.0737024
0.0963335
0.00122837
0.046218
0.00151348
0.160449
0.0228222
0.00511023
0.040362
0.00254814
0.00364212
0.149792
0.0256286
0.00165966
0.0246846
0.00280645
0.131299
0.0932152
0.00111212
0.00696314
0.00207397
0.148166
0.0860804
0.0995235
0.00148079
0.00512314
0.0631766
0.0915848
0.0156518
0.0115193
0.00345703
0.0918494
0.117235
0.00265036
0.0325686
0.107355
0.00560394
0.0061768
0.0489741
0.136807
0.00102423
0.00265194
0.151953
0.136716
0.0109544
0.147996
0.164039
0.110184
0.102654
0.0924904
0.0107427
0.0400929
0.00372339
0.0538286
0.00123912
0.0989682
0.00991659
0.00538569
0.00762519
0.10949
0.114827
0.0103647
0.12856
0.113801
0.155509
0.0878828
0.104784
0.00378274
0.134718
0.122161
0.00163278
0.0199587
0.013225
0.0517367
0.13457
0.14594
0.021357
0.00299646
0.00302868
0.124204
0.0113242
0.139835
0.0874701
0.145941
0.00169511
0.0188708
0.0337359
0.00676863
0.00896124
0.0664951
0.00322936
0.00281544
0.110729
0.141079
0.155652
0.0208202
0.0114044
0.154166
0.00567846
0.114955
0.163494
0.0122497
0.00161046
0.0691515
0.00535609
0.0513681
0.00184887
0.0905825
0.0791012
0.0901707
0.0506968
0.152386
0.133226
0.0506237
0.00231547
0.00216322
0.0345476
0.00270614
0.0436606
0.00185904
0.00228521
0.021147
0.116345
0.112979
0.134539
0.114669
0.00399006
0.156163
0.0406796
0.0640464
0.00634079
0.00242141
0.00312336
0.0895221
0.00326058
0.0532958
0.0510355
0.121946
0.127644
0.00181037
0.0402825
0.00144929
0.0286104
0.0914793
0.00630354
0.145662
0.0367451
0.0842491
0.00458219
0.101224
0.0457128
0.0892169
0.121406
0.00444821
0.0476791
0.0248983
0.119148
0.0228646
0.0121498
0.00120566
0.115199
0.0117563
0.11567
0.0615559
0.150213
0.00637384
0.0217604
0.0178417
0.0360701
0.137057
0.110268
0.110591
0.161307
0.135638
0.12582
0.128479
0.00210037
0.0358523
0.0769569
0.103771
0.160452
0.00907928
0.00335178
0.0068617
0.0194268
0.0911056
0.135543
0.155806
0.121071
0.00567053
0.0016557
0.164753
0.0466998
0.031652
0.00320951
0.0625267
0.0432017
0.0013114
0.0403994
0.142642
0.00329896
0.00232897
0.0901349
0.147135
0.0965244
0.00156321
0.00542125
0.0247948
0.00624651
0.00350267
0.0411256
0.00233669
0.0144704
0.0938307
0.00664287
0.00724423
0.146438
0.00192993
0.0784829
0.114092
0.148673
0.00564661
0.11224
0.00487459
0.0551917
0.0464928
0.0172546
0.119788
0.00376164
0.00228594
0.145348
0.0523993
0.00495191
0.012639
0.0015213
0.0204268
0.154544
0.11297
0.0966297
0.144068
0.0843138
0.0438806
0.0997761
0.010194
0.0185885
0.0213611
0.120915
0.141992
0.132671
0.0262668
0.0257508
0.0947127
0.0114402
0.0189995
0.0303438
0.0126113
0.0144165
0.0623085
0.0023375
0.113746
0.130215
0.0046068
0.00337201
0.00103469
0.0896343
0.166239
0.00151922
0.145628
0.126723
0.0258548
0.144343
0.0154304
0.0117789
0.148505
0.00134569
0.00374754
0.0513118
0.00713525
0.00124107
0.12774
0.0406499
0.00473446
0.00162907
0.0373447
0.00833518
0.140351
0.160406
0.140609
0.0448929
0.00221222
0.00364492
0.00153548
0.00339275
0.0380006
0.0381197
0.0294647
0.128518
0.15526
0.130698
0.003827
0.121452
0.00296381
0.0391946
0.0622006
0.0107793
0.0038606
0.000808109
0.0029972
0.0155619
0.100495
0.126147
0.0031426
0.00356069
0.0344765
0.1435
0.151364
0.0171596
0.0339242
0.00547355
0.0125862
0.0403334
0.150242
0.00562805
0.134808
0.00124003
0.0543182
0.129133
0.0097236
0.0954219
0.00155005
0.16004
0.00175431
0.144896
0.0424136
0.0658787
0.140323
0.0633495
0.0175241
0.0150622
0.00194614
0.00239591
0.0317761
0.0250309
0.0842553
0.003312
0.00198643
0.129075
0.150123
0.140741
0.166255
0.00142383
0.17889
0.0537357
0.019705
0.0469383
0.0498115
0.0730701
0.0786355
0.00886204
0.00219261
0.110678
0.0693792
0.00491712
0.0551311
0.0210103
0.0408655
0.00184938
0.0262347
0.0159255
0.114615
0.148695
0.146478
0.00197087
0.00215093
0.0129168
0.152844
0.110829
0.129766
0.000937974
0.142559
0.00237368
0.00213593
0.0415889
0.0143026
0.0789508
0.0397703
0.0712594
0.0774112
0.00130888
0.0442843
0.00900575
0.15693
0.0852966
0.14606
0.0781813
0.00478261
0.00388023
0.0308454
0.00238881
0.00525449
0.165052
0.102357
0.143968
0.104635
0.00188662
0.00388487
0.0452266
0.144853
0.0724652
0.0175983
0.018226
0.000960398
0.0335554
0.00221908
0.0150805
0.0626068
0.107869
0.147651
0.0103835
0.124623
0.142885
0.00153346
0.0198862
0.00554726
0.104383
0.0323179
0.134212
0.00157015
0.00356986
0.11182
0.0877715
0.0368186
0.0890247
0.132027
0.109285
0.135274
0.00109145
0.0317513
0.000986221
0.0375483
0.00617901
0.0166351
0.00167076
0.11952
0.0263976
0.0016124
0.0407933
0.037476
0.00129647
0.141236
0.114303
0.0297935
0.00288377
0.00132314
0.0364671
0.0903148
0.122357
0.148973
0.0461444
0.195204
0.00324837
0.145151
0.0391926
0.0764136
0.142357
0.0198652
0.00817606
0.0863082
0.00622944
0.101234
0.152537
0.0201088
0.00155394
0.0217292
0.0212509
0.00442339
0.00591864
0.129072
0.0979404
0.0349313
0.00261104
0.00233065
0.110293
0.00122468
0.0491734
0.112297
0.0829829
0.00363457
0.014717
0.116177
0.000754086
0.0692249
0.0479705
0.120852
0.00195493
0.119924
0.00520005
0.0677709
0.0369398
0.0567759
0.114697
0.00800861
0.000678436
0.139223
0.0313542
0.0108969
0.152706
0.0810379
0.0949665
0.0156529
0.0118047
0.0114916
0.0464163
0.00282976
0.0337346
0.012042
0.0425004
0.0156177
0.112073
0.00137084
0.00150931
0.0265575
0.114481
0.0092726
0.00250227
0.067031
0.0262253
0.128389
0.0351109
0.00115386
0.0379607
0.00215045
0.068961
0.0114316
0.0702949
0.00127693
0.141155
0.144338
0.1059
0.0243527
0.00332867
0.00368496
0.00884703
0.0309278
0.14462
0.0402624
0.0672098
0.126527
0.00525538
0.135199
0.0153639
0.0935734
0.0438122
0.147312
0.150847
0.139849
0.0672242
0.051397
0.0256947
0.00151829
0.099863
0.0426327
0.0243119
0.144943
0.0937219
0.0556886
0.0562614
0.0210055
0.134247
0.11369
0.00682273
0.162655
0.0610632
0.0933899
0.0594339
0.142116
0.00273204
0.0712853
0.117757
0.00516225
0.0316545
0.0377497
0.00241437
0.00751315
0.0799996
0.0293301
0.0536771
0.0523701
0.0764205
0.148506
0.0317525
0.00140435
0.0017661
0.00308132
0.0539764
0.001874
0.070051
0.0527059
0.156997
0.00293659
0.114003
0.0356662
0.124298
0.00268838
0.00282852
0.10749
0.162807
0.0391774
0.113899
0.0933439
0.00699988
0.0901769
0.114236
0.0014143
0.00234089
0.141911
0.0332582
0.0419116
0.00358245
0.150733
0.00255754
0.00173702
0.109689
0.0555636
0.00389841
0.0148761
0.0979483
0.104178
0.113649
0.0423858
0.146185
0.123215
0.00244837
0.0015177
0.00208034
0.137752
0.00270495
0.0770493
0.00698439
0.146063
0.0539092
0.0417117
0.141169
0.0032927
0.0442754
0.0112668
0.00567731
0.00244989
0.0223048
0.0112567
0.00265497
0.00252664
0.124393
0.000964625
0.138573
0.119561
0.107727
0.114966
0.139243
0.00193608
0.0679244
0.140139
0.0448147
0.00164691
0.00217603
0.0330543
0.148945
0.0289289
0.0220031
0.00303961
0.116164
0.125888
0.163924
0.0138536
0.0989452
0.140149
0.00158821
0.0161595
0.0177667
0.110537
0.128116
0.0636352
0.00200345
0.132338
0.00156315
0.0173096
0.0805993
0.00188212
0.00245537
0.15168
0.00884851
0.0416718
0.00195748
0.133741
0.0435243
0.139574
0.0632741
0.0295345
0.00392677
0.150705
0.114197
0.112225
0.00737128
0.0205999
0.00184828
0.00177596
0.0743965
0.00141516
0.0490639
0.0173615
0.00405752
0.00134865
0.0447501
0.00162496
0.014669
0.0733761
0.141518
0.00424811
0.0211358
0.0424694
0.00603285
0.147156
0.00231862
0.13745
0.0147325
0.138942
0.0609847
0.00146028
0.0173873
0.00693094
0.0458053
0.0398969
0.0458798
0.00512914
0.0203122
0.00217505
0.0769908
0.00204108
0.0828773
0.00564466
0.00937802
0.00364733
0.11118
0.126269
0.0982934
0.00231086
0.112738
0.131435
0.137321
0.0610936
0.147288
0.114417
0.00347196
0.00319849
0.00234101
0.00233495
0.125081
0.00403642
0.00255619
0.00579222
0.0016266
0.00158111
0.0462701
0.00223242
0.0368481
0.022118
0.0026516
0.00602651
0.160171
0.00270205
0.087523
0.086534
0.0129741
0.00172245
0.00238924
0.000961207
0.0398456
0.0616806
0.1447
0.00270826
0.0024486
0.117169
0.0119269
0.114742
0.0905997
0.0785244
0.00354626
0.00352378
0.0548598
0.107563
0.0451419
0.067553
0.0981828
0.0571102
0.123994
0.0446668
0.0265168
0.00554604
0.089598
0.00612551
0.0752315
0.0507483
0.00172677
0.00257612
0.0505815
0.0416231
0.126861
0.0198514
0.0669688
0.149313
0.0210768
0.12275
0.0799093
0.0420193
0.115475
0.0514829
0.00871515
0.0214989
0.00153308
0.0897052
0.181574
0.00256864
0.106607
0.0335763
0.115509
0.102208
0.151831
0.0775421
0.135559
0.0321703
0.0994934
0.00170235
0.0822604
0.0617767
0.0396046
0.148323
0.0872733
0.0299043
0.10544
0.0104045
0.00174587
0.0629926
0.0542612
0.126152
0.0818912
0.110342
0.063968
0.124692
0.0341506
0.00404956
0.106713
0.00896179
0.00144693
0.136657
0.107627
0.138879
0.034329
0.0102776
0.10367
0.0146475
0.0036801
0.0616126
0.133173
0.00123243
0.159541
0.113548
0.147216
0.176117
0.0965789
0.135401
0.0782967
0.0042263
0.0523681
0.0230073
0.0192077
0.0673672
0.0667257
0.0209921
0.00159589
0.00176763
0.00869078
0.00981455
0.00340019
0.00650936
0.134766
0.0561051
0.142456
0.0201793
0.115133
0.0398097
0.0106714
0.1325
0.0195603
0.0218498
0.130934
0.118614
0.0818518
0.115248
0.144767
0.139678
0.00458184
0.00416925
0.0603118
0.0826416
0.147163
0.0114766
0.00562956
0.0016408
0.014174
0.00340897
0.120995
0.00245226
0.00132116
0.0762318
0.0701532
0.0819737
0.13686
0.0662064
0.0950173
0.101478
0.0419856
0.0016777
0.0094639
0.00151275
0.116717
0.0107817
0.0041996
0.116706
0.126579
0.122808
0.148973
0.0582486
0.105028
0.0104169
0.0833653
0.0025465
0.0337154
0.00243447
0.0084591
0.00225203
0.00109352
0.0875113
0.132314
0.128381
0.079841
0.149723
0.114082
0.00167392
0.00322515
0.088012
0.0740848
0.087583
0.0221417
0.0106718
0.137917
0.0698366
0.00438222
0.12665
0.0973421
0.0243078
0.0122353
0.0616134
0.00385025
0.00561355
0.0381452
0.00277658
0.00728595
0.00130232
0.149834
0.0453921
0.130078
0.0338721
0.0034894
0.132884
0.00144176
0.127219
0.173836
0.109769
0.00193864
0.0147723
0.00829537
0.105654
0.14898
0.0311805
0.0019495
0.0266834
0.12081
0.0969417
0.0851063
0.0476904
0.120256
0.125551
0.00196692
0.00240319
0.00200321
0.0223996
0.00619745
0.00224241
0.00849138
0.00217815
0.0118729
0.154875
0.134671
0.164766
0.0695799
0.00265243
0.00272185
0.143467
0.00151503
0.00178395
0.021876
0.107068
0.133528
0.00661537
0.00391781
0.00164302
0.0250041
0.00163158
0.159356
0.00613166
0.0100509
0.139779
0.00248662
0.117068
0.00645862
0.00199418
0.0384517
0.00557006
0.0756352
0.137806
0.00210506
0.00161146
0.00789142
0.0280395
0.00127208
0.0053167
0.00169184
0.0018709
0.00173019
0.00671616
0.00662133
0.0749576
0.0945665
0.0148426
0.00143155
0.138841
0.00133538
0.161793
0.0132671
0.0309971
0.132143
0.00308857
0.11227
0.00585756
0.00152979
0.115535
0.0120937
0.00974391
0.00175261
0.00659858
0.0105304
0.111928
0.0777339
0.0026313
0.128313
0.137143
0.0171059
0.0390868
0.00149856
0.0346056
0.136855
0.039571
0.137637
0.0106134
0.054081
0.00655431
0.142204
0.147821
0.001508
0.00958539
0.110727
0.00192212
0.00445573
0.13932
0.0464116
0.0542378
0.00186111
0.11627
0.143839
0.0057333
0.0536324
0.0024309
0.00170174
0.011166
0.0452263
0.070618
0.0972458
0.0146296
0.0308566
0.0944596
0.00344371
0.0136873
0.12818
0.0878403
0.0112234
0.0559451
0.00140915
0.0051028
0.132774
0.00228554
0.00907702
0.018692
0.117481
0.00240007
0.00110949
0.00383049
0.108343
0.150881
0.0122206
0.0358567
0.130488
0.0912803
0.115299
0.121507
0.028468
0.126956
0.131586
0.0152128
0.00637858
0.00124981
0.0409566
0.00387526
0.00158962
0.106112
0.00360219
0.00351278
0.00136485
0.157877
0.0113115
0.0011697
0.00229869
0.00644126
0.00705902
0.0809976
0.00234527
0.0116914
0.00465647
0.144945
0.016521
0.012969
0.114958
0.0101418
0.00337571
0.11413
0.00238226
0.00331178
0.116613
0.131096
0.0811064
0.114056
0.0579936
0.146282
0.130233
0.00278242
0.00395397
0.0514375
0.00850263
0.200739
0.0205992
0.00138179
0.0015213
0.0014624
0.0273201
0.00165383
0.0778777
0.137552
0.0338737
0.0015606
0.00359855
0.00666002
0.00394875
0.0465913
0.127149
0.115427
0.0547683
0.0352346
0.00269171
0.0032069
0.0310367
0.00277538
0.00137937
0.114779
0.00347271
0.0872632
0.0229038
0.0641146
0.0975034
0.150801
0.0292336
0.0332865
0.00385653
0.00152859
0.141034
0.0140917
0.027202
0.0195713
0.0038072
0.0143461
0.00247448
0.101598
0.00776102
0.00209686
0.00701994
0.00584093
0.116849
0.00647841
0.00234548
0.00204514
0.147647
0.00652579
0.147362
0.068891
0.0968991
0.0167461
0.00244158
0.00118674
0.115804
0.00233763
0.0170593
0.152095
0.146143
0.0755128
0.160101
0.0191993
0.00226252
0.00184676
0.00757435
0.098466
0.0810088
0.0184114
0.144846
0.00168835
0.0391446
0.101251
0.0145156
0.00785381
0.0207426
0.00129735
0.0102109
0.00128815
0.0416765
0.00396839
0.00435996
0.00278825
0.141638
0.0798001
0.0194721
0.079255
0.00401636
0.00120792
0.0178506
0.00767111
0.00500009
0.00652315
0.0185391
0.0219476
0.0485748
0.136653
0.00573625
0.0267312
0.0339009
0.020074
0.0223612
0.0296377
0.00198995
0.00491614
0.0607913
0.0414258
0.0192469
0.0398365
0.10908
0.014052
0.0115777
0.135262
0.00188403
0.0880682
0.00144902
0.105729
0.0682186
0.0527808
0.00147213
0.0350906
0.00151677
0.00333315
0.0189609
0.0631207
0.00618699
0.0152816
0.00583138
0.0478602
0.179517
0.0123205
0.137754
0.00143811
0.140194
0.143266
0.12484
0.0363902
0.0316414
0.0432157
0.0121358
0.013822
0.0659699
0.0416932
0.00381725
0.00283962
0.0299092
0.0166557
0.137655
0.0110274
0.0205309
0.009198
0.0733133
0.0122811
0.0217504
0.148683
0.149294
0.0743726
0.0429161
0.103952
0.00141588
0.142219
0.00807905
0.0413321
0.0027375
0.00391391
0.0289837
0.0136079
0.0101918
0.00404289
0.00213649
0.0477567
0.0385417
0.0133789
0.0186051
0.0895008
0.00441675
0.00122725
0.140436
0.135576
0.00384646
0.0164544
0.0206162
0.108237
0.0188528
0.116481
0.0368072
0.0106058
0.032855
0.0295274
0.128517
0.145362
0.020143
0.00153868
0.0923513
0.0204512
0.00452049
0.151722
0.130806
0.0014498
0.0108333
0.00786207
0.111297
0.0359382
0.0220726
0.168554
0.114839
0.00825476
0.022264
0.00143052
0.00645185
0.0266146
0.00240768
0.0145497
0.00786949
0.128588
0.126192
0.0193246
0.0292078
0.0193892
0.0166046
0.0922606
0.0178317
0.0391989
0.0941753
0.150774
0.0383716
0.0953981
0.0377956
0.00803611
0.0108932
0.135424
0.00778303
0.020973
0.00373039
0.015554
0.00134433
0.0132749
0.00156096
0.146043
0.00883922
0.0269105
0.123796
0.130379
0.0162587
0.0256923
0.0716296
0.13128
0.00989897
0.00133034
0.0323778
0.116112
0.0662869
0.00460143
0.0150072
0.0254932
0.147153
0.130382
0.0378184
0.0401573
0.0842637
0.0215018
0.00168689
0.0142596
0.00175379
0.146426
0.0379643
0.110116
0.0400842
0.0809565
0.121454
0.0144421
0.0376808
0.114092
0.0018496
0.0327581
0.00135948
0.128402
0.0270648
0.0213463
0.00877969
0.0226017
0.00785836
0.0283666
0.0116694
0.0209034
0.126913
0.00272592
0.00383272
0.0639903
0.139377
0.0257976
0.110365
0.111597
0.0090856
0.138216
0.00180645
0.00485327
0.00536374
0.0719334
0.139335
0.0373694
0.00963797
0.0159806
0.038003
0.0378031
0.127812
0.0395711
0.103925
0.0649661
0.00141218
0.0634824
0.0806029
0.00412144
0.0214144
0.0406328
0.0740511
0.0367138
0.139185
0.0404997
0.00180043
0.132976
0.0251623
0.00250199
0.00692102
0.0128052
0.0286975
0.0302476
0.00192951
0.00639482
0.0373931
0.0209641
0.0477914
0.0528985
0.0273019
0.0805553
0.124305
0.00199634
0.120896
0.0438508
0.133635
0.0684189
0.0238692
0.13311
0.14183
0.0168141
0.104471
0.0516923
0.0186436
0.0268342
0.0143901
0.0322524
0.129353
0.0292211
0.0109644
0.0356433
0.0190099
0.0230471
0.0192334
0.0272867
0.00172479
0.107451
0.00391661
0.011005
0.00441436
0.022056
0.0137705
0.00932366
0.0421546
0.012293
0.0116588
0.0337033
0.0330033
0.110371
0.112519
0.154807
0.0442874
0.0013785
0.146845
0.00767477
0.0734583
0.0323863
0.0483181
0.00706014
0.0350199
0.0217756
0.0756092
0.0472621
0.0434795
0.136584
0.0395547
0.0358612
0.140175
0.0415689
0.0487024
0.129406
0.0207812
0.0318585
0.003263
0.0434505
0.00421413
0.0119406
0.0301789
0.106174
0.0178933
0.132621
0.0263026
0.0197959
0.00376605
0.0419107
0.0297258
0.0222422
0.138461
0.0159789
0.0409331
0.00284813
0.129615
0.0574104
0.00502743
0.0376928
0.0389538
0.150087
0.115665
0.146695
0.0206348
0.00350205
0.0333631
0.0570937
0.0434805
0.0196423
0.117612
0.0552746
0.0447983
0.037905
0.0491247
0.16418
0.00529883
0.142178
0.00282136
0.162711
0.00327042
0.139869
0.142841
0.00718468
0.0556934
0.0400959
0.0115288
0.0406791
0.0223284
0.128845
0.132883
0.0768147
0.0451189
0.00149054
0.116717
0.0372514
0.0528152
0.0502988
0.0761913
0.0591336
0.0101395
0.0212808
0.0430747
0.0315482
0.0402559
0.155282
0.062966
0.0145521
0.0821829
0.0643325
0.00748487
0.129485
0.0346337
0.0142374
0.0390977
0.00256444
0.150238
0.0407769
0.170935
0.0212097
0.0231664
0.0684663
0.0027412
0.145397
0.0690866
0.0394201
0.145726
0.00325013
0.152191
0.0823035
0.0170082
0.015878
0.0383723
0.148168
0.0287066
0.0216151
0.00161374
0.0736298
0.0296699
0.145576
0.140302
0.0402271
0.00795695
0.00249033
0.0763674
0.125064
0.13249
0.0834039
0.0370085
0.00370894
0.00269167
0.0825809
0.139689
0.122523
0.0382195
0.00481502
0.00276477
0.0576407
0.00669716
0.154299
0.0973857
0.0160506
0.108807
0.0824885
0.0213558
0.00631342
0.00571508
0.0377558
0.0460411
0.0052118
0.0170085
0.0468523
0.0297717
0.00579095
0.0808257
0.0666231
0.0351757
0.119338
0.0825094
0.133633
0.150915
0.0230231
0.0345623
0.0484077
0.0132493
0.0128893
0.0825434
0.0373752
0.150424
0.0969851
0.0455838
0.0368436
0.0165321
0.0337831
0.00335409
0.0515673
0.0472156
0.0540246
0.00443538
0.00193025
0.0276779
0.152552
0.0105466
0.0411175
0.0978756
0.106382
0.0423725
0.132352
0.130021
0.0566856
0.0532409
0.00668787
0.0534103
0.0947492
0.0455975
0.0026821
0.00145333
0.119663
0.0614893
0.0385943
0.0373695
0.00339303
0.0553756
0.00431109
0.0115947
0.101636
0.0534366
0.00132977
0.0769905
0.0636655
0.0345286
0.0433341
0.0811047
0.0631601
0.0791271
0.00988879
0.121911
0.0208112
0.0474173
0.0397027
0.0792046
0.107112
0.097919
0.0591057
0.0641463
0.119122
0.151891
0.0804274
0.0645585
0.0656913
0.03309
0.0920179
0.0957627
0.0822505
0.0647559
0.0298504
0.115163
0.138067
0.00167172
0.0450268
0.00261796
0.0143217
0.133297
0.0568217
0.0159775
0.150136
0.0964798
0.15635
0.0492626
0.0605922
0.012673
0.0591763
0.110983
0.00659393
0.00368229
0.0175275
0.146947
0.0025181
0.0605164
0.132133
0.0153225
0.151148
0.0811583
0.00290114
0.131094
0.0109318
0.0881007
0.00691323
0.00661201
0.0368249
0.100879
0.130057
0.00886496
0.0515904
0.0501972
0.0437615
0.00418596
0.120497
0.00753654
0.0629525
0.00125742
0.0832222
0.108677
0.114125
0.0608907
0.052396
0.0512726