/*--------------------------------*- C++ -*----------------------------------*\
| =========                 |                                                 |
| \\      /  F ield         | OpenFOAM: The Open Source CFD Toolbox           |
|  \\    /   O peration     | Version:  v2012                                 |
|   \\  /    A nd           | Website:  www.openfoam.com                      |
|    \\/     M anipulation  |                                                 |
\*---------------------------------------------------------------------------*/
FoamFile
{
    version     2.0;
    format      ascii;
    class       surfaceScalarField;
    location    "1000";
    object      phi;
}
// * * * * * * * * * * * * * * * * * * * * * * * * * * * * * * * * * * * * * //

dimensions      [0 3 -1 0 0 0 0];
oriented        oriented;


internalField   nonuniform List<scalar> 
20642
(
-0.0097561
0.0124563
-0.00270064
0.296028
-0.0524403
-0.243579
-0.108738
0.0943936
0.0143483
-0.359869
0.147036
0.212861
0.360366
0.0554349
-0.415783
-0.055973
0.352012
-0.232444
0.0220595
0.210403
-0.024844
0.249091
-0.224243
-0.254169
0.22975
0.0244334
0.0020505
0.000728685
-0.264725
0.239887
0.226425
0.141762
-0.368147
0.597365
-0.597179
0.232807
-0.0119912
-0.220813
0.290817
0.0567777
-0.347577
-0.0117961
0.00203999
0.57319
-0.57815
0.00503462
0.0757259
-0.291507
0.215788
-0.0341727
-0.0880466
0.122225
-0.00102895
0.0130569
-0.0120286
-0.0969593
-0.192388
0.289358
0.630996
-0.382871
-0.248082
0.213945
-0.154866
-0.0590713
0.354113
0.276931
-0.0594449
-0.18867
0.248135
0.0819653
-0.278824
0.196869
0.0250889
-0.166439
0.141351
0.00204952
0.115954
-0.30288
0.186935
-0.704017
0.402942
0.301075
0.00107799
0.000970624
0.0254726
-0.114442
0.0889762
0.0506639
0.256074
-0.30671
5.38018e-05
0.015228
-0.0152811
-0.645778
0.461143
0.184678
0.388888
-0.139793
0.265577
-0.373797
0.108242
0.611087
-0.0985249
-0.512367
-0.0226575
-0.20977
0.237981
0.00353788
-0.241509
-0.766876
0.60065
0.166276
0.39135
0.133799
-0.525126
-0.139741
0.259318
-0.119564
0.137563
-0.119644
-0.017915
0.0169671
0.120602
0.172272
-0.0809611
-0.0913098
0.226112
-0.323058
0.00178022
-0.0129913
0.0112087
0.413216
-0.298592
-0.114625
-0.406345
-0.239398
0.352909
-0.126446
-0.167243
0.0535246
0.113722
0.00559734
-0.000338054
-0.00526075
-0.306676
-0.101499
0.408221
0.0236276
0.358624
-0.382207
-0.0914091
-0.0758308
0.00107582
0.17759
0.036366
-0.148453
0.539828
0.0558777
0.116395
-0.0144092
0.0271583
-0.0127511
0.541723
-0.483283
-0.0584267
0.478276
-0.622786
0.144515
-0.272439
0.213017
-0.0438648
0.0403684
0.00349859
0.121554
0.467956
-0.589512
-0.302085
0.103649
0.198444
0.165629
0.223264
-0.188993
-0.00122873
0.00872333
-0.00749453
-0.0736779
0.0480383
0.0256428
0.0103388
-0.0102844
-0.265055
-0.142014
0.407113
0.371189
-0.519612
0.0915497
-0.283927
-0.0642448
-0.182441
0.246708
0.409416
-0.0880333
-0.321364
-0.157012
0.528233
-0.271024
0.206804
0.244053
-0.193368
-0.373385
0.450256
-0.0768323
-0.592516
0.565479
0.0271288
-0.427104
0.162089
0.012273
0.0430469
-0.0553176
-0.233347
-0.297206
0.530699
-0.022354
-0.217266
0.239625
-0.100201
0.125683
-0.635669
0.602726
0.0331258
-0.0364965
0.274489
0.473279
0.0999769
-0.568604
0.398174
0.170492
0.119724
0.286098
0.127118
-0.601533
0.2091
0.39248
-0.420911
0.282245
0.138702
-0.186124
0.00355
-0.190147
0.186599
0.576946
-0.576478
-0.00033529
-0.135639
-0.499885
-0.164505
-0.11022
0.274729
0.528929
-0.534119
0.00521395
0.545499
-0.0165529
0.013902
-0.387255
0.508513
-0.579757
0.0713629
-0.024945
0.434387
-0.0511217
0.0483572
0.00276572
0.0199235
-0.0256888
0.00576409
0.397929
0.143809
0.51833
-0.384508
0.134595
-0.109505
0.534414
0.0740231
-0.00271851
0.0179476
-0.128169
-0.174705
-0.036366
-0.00749594
0.400213
-0.181689
-0.218507
0.107711
-0.141877
0.415142
0.158371
-0.57346
0.116628
-0.096485
-0.0201389
-0.473171
0.283788
0.189397
-0.092395
-0.500032
0.163912
-0.557282
0.393403
0.285352
-0.181696
-0.143086
0.150991
-0.00789882
-0.00688881
-0.000816505
0.00770951
0.0330679
-0.0207939
0.0833502
-0.278761
0.195432
0.274946
-0.183386
-0.408792
0.546745
-0.137894
-0.107216
-0.0358656
-0.0604064
0.165215
-0.104798
0.203221
-0.0669195
-0.1363
-0.00591376
-0.0170489
0.0229631
0.181435
0.218796
-0.0740337
0.133058
-0.059016
0.0210246
0.113572
0.00791444
-0.028384
0.0204687
0.00618489
-0.00565016
-0.000534834
0.0682841
-0.264842
0.196569
0.611294
0.293058
0.0380373
-0.331097
-0.53933
0.382348
-0.039696
-0.0114238
-0.537837
0.247857
0.290042
-0.157889
-0.23294
0.390867
-0.365884
0.555308
-0.189409
-0.0392048
-0.0344702
-0.0762232
0.0147625
-0.0113165
-0.00344841
-0.466224
0.159598
-0.201723
-0.0385976
0.240332
0.573368
-0.701047
0.1277
0.247714
-0.405564
-0.137967
0.141519
-0.14924
-0.319665
0.468937
0.529884
-0.021259
0.0148471
-0.0201377
0.00529103
-0.608178
0.600771
0.00745871
0.562411
-0.147224
-0.182205
-0.323626
0.50594
0.0497591
-0.0364767
-0.013283
0.0804156
-0.322963
0.242566
0.376439
0.032338
-0.0227367
-0.00960314
0.039698
-0.228351
0.188657
0.00558636
-0.0105839
-0.00717558
0.0177575
-0.381078
-0.232073
0.613151
0.260104
-0.191811
0.0426332
0.319021
-0.361609
0.0276482
-0.0252502
-0.00239926
-0.0735235
-0.0243334
-0.0137868
0.0381188
0.204285
-0.109369
-0.0949106
0.599727
-0.106986
-0.492709
-0.145024
-0.21482
-0.167391
0.0241514
0.143243
-0.203178
0.142785
-0.229489
0.309922
-0.169867
-0.0878548
0.25774
0.396797
0.248087
0.104853
0.152397
-0.0751771
-0.0772183
0.110363
0.00626887
0.17534
0.027883
-0.111205
0.359329
0.0485742
0.103825
-0.407851
-0.296165
0.226628
-0.248977
0.147298
0.0569928
0.137565
-0.120592
0.0142106
-0.126027
0.11182
-0.011619
0.000434162
0.0111856
-0.252497
-0.349001
0.00857771
-0.0012809
-0.00729962
-0.283945
0.116594
0.167367
0.0201179
-0.026031
0.496794
-0.035608
0.342624
-0.491827
0.298278
-0.242279
-0.0559848
0.0078128
-0.00850105
0.000688662
0.00630643
-0.000121557
-0.0980673
-0.230618
0.328709
0.15733
-0.032089
-0.12524
-0.267344
0.318763
-0.0514078
-0.23821
-0.375387
-0.113864
0.302138
0.148157
-0.414085
-0.1234
0.537568
-0.0244513
0.327383
-0.302918
0.291537
-0.315976
0.00176923
0.0540211
-0.128049
-0.182869
-0.0343139
0.0324467
0.00186823
0.627901
-0.249654
-0.378059
0.705778
-0.404192
-0.301553
0.332531
0.373278
-0.016687
-0.0176159
-0.116002
0.133621
-0.136723
0.0398076
0.0969166
0.368129
0.183905
-0.551925
0.564551
-0.0862704
-0.0975755
0.118601
0.00822823
0.1257
0.312456
-0.438117
-0.36318
0.488921
-0.312163
-0.454675
0.709877
-0.377315
0.30045
0.409458
-0.00444974
0.014789
-0.0166649
0.0182025
-0.00153963
0.0999937
0.292408
-0.392366
0.491785
0.0852921
-0.577075
-0.121885
0.161351
-0.039459
-0.0121434
0.00132768
0.010816
0.0121757
-0.506219
0.494096
0.528592
-0.160344
0.143805
0.0135256
0.047536
-0.0373787
-0.0101569
-0.0927905
-0.029383
-0.00493009
-0.166172
0.140659
0.0255178
-0.34603
-0.191754
-0.0255053
0.0183278
-0.174434
0.0525556
-0.268256
0.140095
0.00750212
0.123857
-0.131351
0.229209
-0.327252
-0.0148973
-0.475727
0.220795
0.254955
0.0564946
0.104999
-0.161486
-0.0453784
-0.144508
0.189894
-0.00033785
-0.346444
0.346823
0.600691
-0.189068
-0.312553
-0.132247
0.444822
0.359355
-0.546452
0.187131
-0.00172422
0.00961339
-0.00790054
0.0841174
-0.232957
0.148839
0.1714
-0.552854
0.381493
-0.650387
0.287251
-0.464319
0.144687
-0.27536
-0.374985
-0.191913
0.0628355
0.534722
-0.0240093
-0.169632
0.193653
0.567435
-0.396002
0.000877747
0.00565841
0.0230414
-0.00311887
0.0887212
-0.410069
0.32141
0.297088
0.13773
-0.434794
-0.145909
0.114071
0.0318379
-0.726132
0.293604
0.432556
0.290148
-0.101351
-0.188794
0.00922576
-0.0109423
-0.332255
-0.393851
0.00841326
-0.00964166
0.560362
-0.200974
0.00178641
0.0479723
0.602272
-0.00251171
-0.297786
0.397941
-0.100135
0.292411
-0.292718
-0.321147
0.518144
-0.196921
0.120025
-0.00895366
-0.111067
0.538237
-0.577105
0.0390375
0.210285
-0.170584
-0.290704
0.100777
0.18994
-0.518215
0.152343
-0.189733
0.186763
0.00297149
0.00546838
-0.432249
0.44447
0.168681
-0.0185171
-0.150154
-0.320691
0.460061
-0.139346
-0.368277
0.168132
0.200163
0.492379
-0.131993
-0.0839829
-0.187019
-0.583089
0.214393
0.368737
0.0494714
0.488939
0.172167
-0.00517102
-0.166993
-0.517386
0.196459
0.320937
-0.142002
0.198506
-0.25694
0.172978
-0.361412
-0.171885
0.533401
0.0215983
-0.00675057
0.00924614
-0.00143311
-0.410002
0.547268
-0.137205
-0.659599
0.167061
0.492543
-0.186825
-0.30043
0.441437
-0.141002
0.105355
0.0157524
-0.121104
0.0101965
-0.0245982
0.0144017
-0.03711
0.0127755
0.520793
-0.607094
0.0862989
-0.22861
0.161692
-0.134699
0.431809
-0.0111045
0.0541537
0.161819
-0.46225
-0.0682088
-0.0405262
-0.204997
-0.392038
-0.0680666
0.358901
-0.0226337
0.515172
-0.174331
-0.340805
-0.261129
0.208696
0.0160569
0.121514
-0.479862
0.560029
-0.0800899
0.00660991
0.0210381
-0.360616
-0.247655
0.608434
0.139151
0.0292143
-0.637688
0.455629
0.182079
0.00850927
-0.00953864
-0.386536
0.550002
-0.163366
0.000452028
0.161546
-0.161989
-0.00998007
-0.257353
0.673838
-0.153046
0.184117
-0.663896
0.13655
-0.122266
-0.0142769
-0.0392133
-0.00876766
0.0479817
-0.497738
0.207073
0.290701
0.19718
0.318026
-0.0185985
0.0158811
-0.0336146
0.0476337
-0.0140226
0.0739226
-0.0399165
-0.0340071
-0.0174803
0.25029
-0.690138
0.357917
0.11331
0.291531
-0.404803
0.0457771
-0.0365877
-0.00918964
-0.116919
-0.111689
-0.327935
-0.362167
0.171713
-0.198239
-0.187394
0.385667
-0.0269396
0.237563
-0.210617
-0.141541
0.0254312
-0.14275
0.117323
0.00842307
0.167403
-0.175822
0.0596801
0.230472
-0.153203
0.164069
-0.010861
0.0135915
0.00117125
-0.0147617
0.112125
-0.520859
-0.274085
-0.223617
0.319074
-0.263628
0.129123
-0.10124
-0.0278799
0.605829
-0.0552058
-0.550564
0.000837114
-0.151351
-0.00184501
-0.398668
0.0548396
0.301616
-0.277951
0.196468
-0.0317546
-0.164711
-0.49454
-0.165054
-0.394612
0.262184
0.132429
0.516753
-0.382844
-0.133887
-0.0881473
-0.0900311
0.287788
-0.297758
0.372471
-0.283695
-0.0717913
0.0616183
0.0101754
-0.439722
0.6187
-0.178962
0.0239459
0.00839036
-0.101788
0.124252
0.392524
-0.108515
-0.490331
0.229285
0.261075
0.231574
0.257817
-0.489389
0.13655
-0.542691
0.406199
0.014511
-0.00145439
-0.190907
0.422485
-0.0136494
0.240881
-0.227211
0.00613799
-0.103712
0.263522
-0.256962
-0.00655654
0.115493
-0.354334
0.238868
-0.0502127
0.0141684
0.0360426
0.013739
0.0794471
0.236969
0.0640955
-0.30104
0.0131804
0.106848
-0.299405
-0.100062
0.399507
0.21605
0.0474755
-0.00573495
0.100133
-0.496125
-0.204358
0.0220471
0.182327
-0.100665
-0.156257
-0.126198
-0.437469
0.563749
0.11611
0.335368
-0.451369
0.228714
-0.579674
0.351019
-0.0508661
-0.177482
0.457265
-0.120202
-0.337034
-0.56562
0.418833
0.146838
0.352189
-0.482204
0.130067
-0.144766
-0.0325569
0.177333
-0.347113
0.152715
0.194404
-0.744569
0.311078
0.433514
-0.684245
0.30317
0.115835
-0.0104759
-0.00352604
0.199998
-0.49016
0.169077
-0.284573
0.27095
0.0560681
-0.0501662
-0.00590248
-0.145329
0.173259
-0.0279299
-0.416129
0.537683
0.0464643
-0.134505
0.0450884
-0.0561906
0.266029
-0.498248
0.232245
0.319724
-0.691879
0.37218
-0.0852538
-0.210221
0.295488
-0.344353
0.460578
-0.424824
-0.246418
-0.361176
-0.330681
0.49953
-0.233476
-0.0221351
0.016233
0.00590037
0.100032
-0.399399
-0.0409517
0.22308
-0.18212
-0.00157453
0.0072327
-0.0205171
0.189208
-0.541462
0.127458
0.402396
-0.154641
-0.0107269
-0.0394871
0.215235
0.0830578
-0.00755739
0.000663574
-0.695876
0.251774
0.444121
0.529713
-0.20517
-0.32448
-0.586208
0.146502
0.643143
-0.342662
0.336525
-0.0709258
-0.490423
0.210224
0.280227
-0.00634738
0.0624148
-0.410913
0.528225
-0.1173
0.00784112
0.186118
0.343665
0.0036548
-0.143068
0.139425
-0.38489
0.55276
-0.167859
-0.108709
0.410879
-0.134183
-0.0319846
0.0517276
0.0221938
0.16581
-0.364015
-0.122182
0.100641
0.0215413
0.334553
0.213583
-0.548057
-0.622834
0.198912
0.424071
0.480333
-0.128096
-0.286391
-0.20391
0.414551
-0.546108
0.13164
0.435529
-0.616355
0.181016
0.00454968
-0.0281968
0.562873
-0.14824
-0.153769
-0.0359615
-0.0196863
-0.0926397
0.11233
0.362186
0.210726
-0.572783
0.161268
0.0287865
-0.190045
0.131836
0.00432791
0.0279872
0.00145436
-0.0294431
-0.223366
0.197456
0.025924
0.0147437
-0.195851
-0.255796
0.451649
-0.464009
0.268159
-0.261111
-0.139139
0.147847
-0.532727
0.344729
0.00647406
0.0636286
-0.0701022
-0.406551
-0.161996
0.297836
-0.39929
-0.213808
0.216534
-0.181251
-0.0352667
-0.0956996
0.268789
-0.17308
-0.0860012
-0.026338
0.112343
0.140131
-0.0203677
-0.119755
0.0928243
0.342882
-0.435688
0.435419
-0.297668
-0.0797438
-0.211758
-0.00335869
-0.184646
0.188012
0.105464
0.351829
-0.153572
0.141582
0.0829248
-0.16855
0.0856366
-0.103062
-0.187629
0.00868739
-0.0339975
0.0253085
-0.480859
0.154591
-0.157942
0.145957
-0.121804
0.132721
0.327697
-0.460304
-0.0170238
0.0149122
0.00211204
-0.26846
-0.354249
0.381231
0.26194
0.0319833
-0.17674
-0.292181
-0.403677
0.498977
0.129113
0.17787
-0.00569925
0.00495497
0.0130367
-0.0760784
-0.0189849
0.0950641
0.3004
-0.482496
0.287512
-0.0860257
-0.201467
0.123322
0.352878
-0.476186
0.086354
-0.0721512
-0.0142025
-0.0871594
0.0932201
-0.00606018
0.252298
-0.407108
0.154843
-0.107551
0.158591
0.319742
-0.478231
-8.8438e-05
0.163346
-0.163249
0.479387
-0.342138
-0.137252
-0.538469
0.394256
0.144266
0.0770402
0.528854
0.466899
-0.124238
0.364427
-0.490548
0.467728
-0.426762
-0.0409469
-0.210374
0.176384
0.0340022
0.582356
0.0175448
0.122593
-0.342661
0.475503
0.38136
0.0455539
-0.426862
0.163107
-0.263754
0.000610603
0.0180402
-0.0186501
-0.492667
-0.0182108
0.510941
0.275435
-0.199259
-0.0761574
-0.173358
-0.373062
0.162501
-0.158833
0.0521293
-0.194053
0.141931
-0.18005
-0.0953035
0.275358
-0.154742
-0.215367
-0.176804
-0.168315
0.345143
0.205616
-0.00640216
0.0265203
-0.0145956
-0.00754153
0.00711554
-0.00869007
-0.420769
0.556972
-0.136143
-0.350889
0.481349
-0.130411
-0.33395
0.426785
0.420962
-0.140773
-0.280138
0.0445071
-0.0114308
-0.0330733
0.635423
-0.341792
-0.332443
0.45654
-0.1241
-0.0722192
-0.211709
0.00385683
-0.032727
0.0288698
-0.211568
0.0894628
0.000841638
0.00104768
-0.00189085
0.413672
0.149283
0.15752
-0.089542
-0.0679741
0.51142
0.0656526
0.151106
-0.569457
0.418374
-0.0168683
0.0207244
-0.729171
0.437012
-0.0616825
-0.024915
0.0865998
0.6242
-0.569111
-0.0550782
0.495703
-0.133387
0.129492
0.0329965
-0.118994
0.0139613
0.453784
0.416343
-0.499065
0.0827621
0.0102382
0.106255
-0.116488
0.156354
0.00492381
0.479623
-0.370845
0.00732084
-0.0465225
-0.0253214
0.0164294
0.00889246
-0.00710251
0.0350884
-0.507679
0.0150704
0.0102993
-0.00712055
-0.00318083
0.595395
-0.486373
-0.109011
-0.0190976
-0.00928803
-0.44672
0.370493
0.530447
-0.379321
0.607785
-0.151858
-0.45592
0.315706
0.229811
-0.0950445
0.17798
-0.251155
0.163322
-0.418073
-0.204941
-0.371431
-0.757809
0.29151
0.466479
0.0575899
-0.0502654
-0.42789
0.431146
-0.0031847
-0.00111689
0.122036
-0.120913
-0.114367
0.412247
0.508917
-0.0925321
-0.485855
-0.122275
0.0367271
-0.117687
-0.0428466
-0.0148035
0.0576503
-0.00670771
0.00754745
0.14396
-0.136449
-0.165778
-0.044584
0.000876285
0.0698675
-0.0707418
-0.00256058
-0.0095824
0.530859
-0.394255
-0.0573179
-0.0103684
0.0676863
-0.44587
-0.311775
-0.101293
-0.0184234
0.119718
0.131346
0.289665
-0.017331
-0.0544575
-0.137071
0.501575
-0.167356
-0.259387
-0.369533
0.136622
0.112973
-0.174874
0.19213
-0.0172455
-0.0435143
0.0349658
0.00855001
-0.61086
0.086682
0.524246
0.162737
-0.186734
0.118135
0.323464
-0.441559
0.484954
-0.169232
-0.00174824
0.0153411
-0.255984
0.220103
0.0358852
-0.0689943
-0.343575
0.412599
-0.111009
0.136444
0.167267
0.549936
-0.405749
-0.144164
-0.0142837
0.58767
0.0155268
-0.0172736
-0.0839508
-0.343852
0.147529
0.365094
0.270353
-0.408866
0.339901
0.0955023
0.0336239
-0.39124
-0.309787
0.14262
-0.027744
-0.114871
-0.567598
0.538552
0.0291436
-0.589327
0.443349
0.146087
0.00805917
-0.10131
0.411941
0.00318912
-0.000279997
-0.0029093
0.0179713
-0.0796527
-0.239398
0.339611
-0.100208
0.119178
0.0267816
0.540785
-0.127027
0.311522
-0.25473
-0.0143408
0.0149523
0.0347728
0.0394511
-0.0742212
-0.295137
0.209897
-0.176932
-0.196848
-0.380166
0.212829
-0.204845
-0.362674
0.55878
-0.302253
-0.256476
0.512358
-0.42606
0.037094
-0.167805
0.130717
0.191424
0.0378519
-0.22926
-0.0185209
0.0272065
0.0248328
-0.199694
-0.354594
0.240512
0.114085
-0.0906856
0.0035267
-0.260636
-0.256741
0.0141255
0.163881
-0.177997
-0.0217915
-0.104232
0.00974104
-0.373951
0.519265
-0.323476
-0.195774
-0.078166
0.590522
-0.223305
-0.365916
-0.428423
0.336093
0.497645
0.103176
0.448575
-0.32524
0.402486
-0.588942
0.186635
0.00457404
0.005723
0.185215
-0.0426082
-0.142628
-0.620694
0.445896
0.174934
0.132036
-0.115973
-0.223731
-0.387077
0.023921
-0.0137246
0.176533
0.383863
0.150562
0.39624
-0.0109571
0.0159124
-0.187611
0.0691181
0.118499
0.33653
-0.539478
-0.212545
-0.127135
0.339711
-0.60499
0.160805
0.444196
-0.547049
0.402183
0.14492
0.181032
0.0971021
-0.278118
0.181451
-0.00817827
-0.173265
-0.363253
0.501832
-0.138512
-0.000849287
0.00597923
-0.00512972
-0.0933737
0.23025
-0.136864
-0.359761
0.520013
-0.160255
0.535501
-0.198975
0.210939
0.30834
-0.0175324
-0.00778858
0.0900175
0.197512
-0.639734
0.263724
0.376118
-0.290696
-0.0025138
0.0117366
-0.06994
0.243538
-0.12693
-0.00520779
-0.0023513
-0.480573
0.167713
0.312857
-0.554916
0.168485
0.138333
-0.548276
0.242178
0.0943696
0.00841727
-0.539621
0.199079
0.340541
0.0225078
-0.111152
0.292206
0.198799
0.0766527
0.0209231
-0.437642
0.302969
-0.117251
-0.0254938
0.158577
0.0266264
0.403807
-0.121527
0.281963
-0.0378939
-0.359401
-0.280229
0.213742
-0.0322784
0.303193
0.0690406
-0.349083
0.133696
0.215405
0.132732
0.334213
-0.46693
0.00560589
0.000241985
-0.00584857
0.523019
0.0704357
-0.593454
-0.321003
-0.159573
-0.388508
0.211596
0.0782784
0.236094
-0.31436
0.0572513
0.169617
-0.226855
-0.0417134
0.0764908
0.484369
0.0811993
0.00857539
-0.128076
0.119512
-0.0572978
0.0144517
0.307624
0.248692
-0.556319
-0.142797
-0.291119
0.43397
-0.180935
0.51073
-0.108067
0.0953163
0.272478
-0.367735
-0.411775
0.207412
0.204399
0.399188
-0.116348
-0.282829
0.141859
-0.087858
0.124587
0.0253724
-0.388177
0.54958
-0.161325
-0.0126017
0.073097
-0.0604941
0.0669831
0.162781
0.212598
0.00394789
-0.132797
0.397778
-0.284431
0.0782342
0.0792877
-0.0192162
-0.170929
0.389531
0.127635
-0.517115
-0.133766
-0.053838
-0.141909
0.182647
-0.0407336
0.164367
-0.00579784
0.54337
-0.394135
-0.149184
0.400175
-0.523494
0.347915
0.210909
0.000222575
-0.104747
0.360854
-0.587174
0.363741
0.223464
0.170725
-0.0315675
-0.526661
0.163474
-0.558055
0.406986
0.15114
0.0157273
-0.107133
0.191071
-0.27478
0.397205
-0.122414
0.0332294
-0.178558
0.21828
-0.245211
0.04214
-0.299585
-0.112164
-0.304683
0.216667
0.0112988
-0.0825591
0.0712629
0.386859
0.14361
-0.566185
0.174976
0.391221
-0.368161
-0.295669
0.513381
-0.518638
0.00533112
0.242388
-0.349823
0.107468
-0.318225
0.198341
0.1199
0.0753119
-0.255357
0.390221
0.153199
0.568454
-0.159818
-0.408634
-0.340869
-0.141216
0.482123
-0.427007
-0.0197178
-0.147608
-0.166514
-0.0568395
-0.385897
0.138205
-0.0143417
-0.365835
-0.0391147
0.0490695
-0.0099554
0.10568
-0.380449
-0.468136
0.100038
-0.00476551
-0.0198328
0.292595
-0.1028
-0.189775
0.00833673
0.0997996
0.172354
-0.338697
-0.0326926
0.371398
0.140213
0.301695
-0.441882
0.540584
-0.402058
-0.13847
-0.423647
0.280902
0.00985074
-0.0216436
0.0117934
-0.183539
0.209645
-0.0260919
0.10402
-0.343412
0.143739
0.0295201
-0.302006
0.397385
0.0214427
0.142932
0.681599
-0.189814
-0.38767
0.486101
-0.0984175
-0.49109
0.159165
0.331922
0.491487
-0.406194
-0.00927463
0.272168
-0.102517
-0.169632
0.00246046
-0.341148
0.12399
-0.0162734
-0.110704
-0.304412
0.415122
0.28443
-0.502195
0.217819
0.315702
-0.505096
0.189468
0.175098
-0.166671
0.152686
-0.296175
0.416679
-0.120461
0.0844816
0.228442
-0.3129
-0.350645
0.499075
-0.14838
0.0193804
0.478654
-0.194181
-0.0719626
-0.195156
0.267121
0.278017
0.125824
0.0108409
-0.00120423
-0.0096363
-0.00870971
-0.431969
0.239578
0.192397
0.00839812
-0.0904157
-0.0317661
-0.000955202
0.12751
0.313933
-0.403535
0.556044
-0.15241
0.530144
-0.424577
-0.105544
-0.108458
0.386257
-0.277749
-0.0796149
-0.245273
0.324912
0.459088
0.0302153
-0.508043
0.356052
0.152055
-0.222181
-0.124928
0.112089
0.0118785
-0.0637294
0.0518535
0.227874
-0.332592
-0.0318221
-0.158179
0.190064
-0.174664
-0.0207454
0.195414
-0.544388
0.398935
0.145507
-0.198527
0.202074
0.265925
0.0266878
0.541009
-0.183149
-0.357838
-0.00964116
-0.183873
0.193529
0.159899
0.458816
-0.00529894
0.0228416
0.156935
-0.119835
-0.559318
0.148184
0.411137
0.157356
0.389969
0.238034
0.230213
-0.530561
0.356271
-0.46812
0.127289
-0.0100534
-0.389318
0.551305
-0.161888
-0.0673249
0.356376
-0.493371
-0.183293
0.516094
-0.332803
-0.424816
0.153355
0.27148
0.113319
0.326305
-0.43956
-0.0809621
-0.37137
-0.111903
0.159412
-0.548627
0.359751
-0.0508434
0.299881
0.0335217
-0.333379
0.0052058
-0.549027
0.400738
0.148363
0.207408
0.196552
-0.654303
0.457764
-0.337994
-0.130089
-0.0102029
0.0113756
0.473106
-0.15733
-0.149644
0.296704
-0.00416149
0.136204
-0.0129026
0.647129
-0.450567
-0.441862
0.302335
0.139531
0.0777269
-0.0664256
0.53702
-0.389019
-0.147978
0.106723
0.290074
-0.396767
0.130753
0.0569697
-0.166886
-0.305605
0.472545
-0.0968237
0.107067
0.291161
-0.356141
0.0650115
-0.0115501
-0.00547326
0.283698
0.11426
0.0790716
0.00464742
-0.0837181
-0.336858
-0.469555
-0.10355
0.573122
-0.569408
0.378504
-0.0982072
0.533938
0.675828
-0.152808
0.0237216
-0.0301237
-0.099939
0.339325
-0.23936
-0.60577
0.239324
0.366544
0.296347
-0.420199
0.123857
0.154199
0.129869
0.400299
-0.115668
0.316514
-0.0795224
0.00814371
-0.222177
0.181234
-0.125444
-0.00420695
0.129661
0.114009
0.24061
-0.0417927
-0.00385979
0.0143898
-0.0105292
-0.390125
0.129711
0.260445
-0.124928
-0.24647
0.416843
-0.170313
-0.00835334
0.00164583
0.00670745
-0.439088
0.20279
0.120257
-0.323024
-0.198904
-0.455386
-0.206338
-0.335125
0.541487
-0.620176
0.421286
0.580307
-0.170878
-0.409399
0.548989
-0.421334
-0.127623
0.133002
0.295308
-0.428254
-0.178891
-0.0355444
0.214447
0.5279
-0.13832
0.244201
-0.344113
-0.0145799
-0.121287
0.135874
-0.0168226
0.0320136
-0.0151933
-0.0420757
0.00296027
0.134517
-0.138672
-0.211504
-0.356698
-0.212707
0.477748
-0.332199
-0.145464
-0.0136735
-0.0688826
0.338551
0.140834
0.00318901
0.146972
-0.409957
0.263013
0.14787
-0.00922391
0.512319
-0.502933
-0.298323
0.421197
-0.12283
-0.271811
0.418808
-0.427818
-0.158375
-0.369062
-0.140268
0.509412
-0.156542
0.170677
-0.245026
-0.360646
0.0106866
-0.0116779
0.000989975
0.458168
-0.36431
0.52186
-0.157466
-0.0160513
0.0259028
-0.424358
0.177943
-0.26765
-0.311979
-0.108677
0.506619
-0.0019427
0.0174713
-0.0519816
0.206578
-0.201717
0.576484
-0.37473
-0.190526
-0.448983
-0.157901
0.606935
0.531009
-0.0167544
0.0662462
-0.049491
0.125382
-0.0213456
-0.180671
0.202018
0.193581
-0.343203
-0.361363
0.363831
-0.206823
0.570216
-0.428118
-0.142071
-0.059902
-0.182367
0.314335
-0.42503
0.0615377
-0.238325
0.0117518
-0.0143122
0.276433
-0.423046
0.146627
-0.426947
0.328553
0.381227
-0.27448
-0.516125
0.355466
0.1607
-0.145854
0.00634664
-0.115069
0.108728
0.0278604
0.144166
0.234061
-0.0426221
-0.0131502
0.0106417
0.0138576
-0.00317252
-0.123914
0.438257
-0.107547
0.113898
-0.401394
-0.151427
0.00191606
0.00923847
-0.0111543
-0.434607
-0.122649
0.0408989
0.00963267
-0.0505324
-0.144588
0.0111712
-0.215515
-0.290406
0.316773
-0.0263459
-0.0787225
0.0604764
0.0182464
0.0105336
-0.0574369
0.0469033
-0.641816
0.20022
0.441604
0.206133
-0.422845
-0.460264
-0.305025
-0.20296
0.175087
0.391036
-0.112985
-0.0816613
0.372852
-0.143245
-0.0218798
0.165127
-0.00913879
-0.000125137
0.00926416
0.135636
0.200911
-0.0116237
0.00204208
0.527622
0.0965876
-0.179481
0.455794
-0.276288
-0.402869
0.0249249
-0.0290947
0.00416953
0.21871
-0.298301
0.020653
0.574753
-0.143967
0.166039
-0.259739
-0.145188
0.404967
-0.387855
0.261343
0.137856
0.0430733
0.197362
-0.240421
0.300759
-0.409162
-0.107005
-0.45155
-0.190258
0.388304
0.134854
-0.523152
-0.152543
-0.135013
0.411458
-0.00917027
0.00112042
0.00805022
-0.334973
0.122457
-0.111211
0.339115
-0.374466
0.534706
-0.160235
0.011811
-0.315508
0.573328
0.113251
-0.309185
0.098977
-0.19528
-0.122721
0.318022
0.222881
-0.0292835
0.460102
0.187038
0.0383418
0.456845
-0.324101
-0.486203
0.150961
0.335277
0.0162515
-0.136348
0.120105
-0.438012
0.000601488
0.545926
-0.238304
-0.106327
-0.0328049
0.139139
0.0889772
-0.10866
-0.0176748
-0.110393
-0.113406
0.0208355
0.092571
-0.211372
-0.32825
0.0609633
-0.0673111
0.0183813
0.00398096
-0.0223624
0.521936
0.0895567
-0.0735967
0.237554
-0.417014
-0.0125884
0.175942
0.143691
0.0176666
0.461336
-0.302177
-0.0684065
0.236308
-0.167886
-0.382527
-0.18691
0.250484
-0.180875
-0.0695939
-0.201876
-0.248885
-0.105424
-0.0254841
0.0396506
-0.163027
-0.0248027
0.187841
0.0355277
-0.177432
-0.0455017
0.0359023
0.00959876
0.0850121
-0.00966353
0.115106
-0.10544
-0.220455
-0.416134
0.117854
0.338861
0.108398
-0.447243
0.523481
-0.13517
-0.588437
0.459773
0.12868
-0.389773
0.533971
-0.14412
-0.228853
-0.0424621
0.0529952
-0.589793
0.423705
0.166184
0.0919607
0.247389
-0.151333
-0.251393
-0.111849
-0.235096
0.346982
0.18569
-0.0182822
-0.144519
0.041774
0.102753
-0.288991
0.118281
-0.538991
-0.240512
0.168554
0.0877114
-0.462173
-0.311995
0.256033
0.0121781
-0.0160374
-0.109806
-0.221764
0.331601
0.153555
0.313772
-0.46727
0.107848
-0.0127841
-0.410612
0.337786
-0.245801
0.0223758
-0.00399412
-0.00725415
0.396496
-0.117502
-0.278982
0.193592
-0.175822
-0.0177626
0.32407
-0.100917
-0.223139
-0.0064639
0.00125425
-0.0269242
0.247031
-0.250683
0.154993
-0.00931249
0.0573543
0.532642
-0.0667072
-0.107722
-0.0239262
-0.102216
-0.492314
0.327288
-0.373534
0.246422
0.127112
0.497563
0.00199346
-0.10079
-0.0110829
0.516983
-0.505715
0.248403
-0.36021
-0.337276
0.0564407
0.268336
-0.153997
0.172942
-0.0189346
0.574008
-0.177714
-0.396226
0.121864
-0.0380344
0.252508
0.064031
0.0710087
0.0153453
0.13387
-0.449545
0.131281
0.318317
0.0063967
0.231777
0.14024
-0.372
-0.0902629
0.327914
-0.237625
-0.500833
0.319968
0.180931
0.00190746
0.00815164
-0.0100591
-0.0154049
0.159374
-0.0135882
0.199491
-0.276773
0.0772943
0.0122198
-0.0189639
0.160147
0.022505
-0.144878
-0.253383
-0.178581
0.187884
-0.0251354
0.418294
-0.570145
0.40552
-0.292145
-0.134759
-0.0120786
0.146839
-0.228308
-0.184512
-0.185068
-0.0937457
-0.209681
0.252768
-0.317528
0.122268
-0.126738
0.142998
-0.00657281
0.0856448
-0.470699
0.14716
-0.1456
0.165993
-0.0203912
-0.0889741
-0.272383
0.294848
0.121874
-0.347205
0.489648
-0.142356
0.176325
0.378997
0.0571469
-0.0449055
-0.0122405
0.0866611
-0.0857826
0.569825
-0.419666
-0.150103
0.160905
-0.622511
0.163078
0.459438
0.127561
-0.431967
0.00518821
0.358574
-0.4402
-0.15534
-0.335335
0.490802
0.015238
0.482348
-0.278054
0.0350075
-0.493879
0.459074
0.330928
-0.0887294
0.0457568
0.0113908
0.128943
0.172411
-0.234446
0.0620478
0.392651
0.130838
-0.455445
-0.00168945
0.136213
-0.0060997
0.0310245
0.0201546
-0.00793647
-0.132152
-0.489378
0.539013
0.336912
-0.49212
-0.102896
0.347124
0.0200758
-0.416363
-0.142951
0.0110292
-0.0798893
0.010212
0.134787
-0.144991
-0.0973813
0.260721
-0.594926
0.159559
0.435371
0.310006
-0.111648
-0.0133848
0.449051
-0.380877
-0.0681409
-0.210709
0.245944
-0.0352317
-0.431845
0.546769
-0.409253
-0.137463
-0.369804
0.227821
0.00305457
0.0171807
-0.0202341
-0.191056
0.15851
-0.125017
0.517675
-0.140043
0.164597
-0.0245509
-0.38964
-0.00993859
0.124011
-0.458841
0.209335
0.398239
0.167569
-0.565669
-0.0502852
-0.466771
0.085299
0.363786
0.260657
0.13585
-0.107137
-0.0172494
0.124392
-0.189532
0.258324
-0.0687822
-0.0991644
-0.207518
0.473232
0.00547202
0.130624
0.417246
0.120404
-0.543976
0.242037
-0.218335
0.0394567
0.181169
0.00801353
-0.189175
0.00573684
-0.00658603
-0.228119
0.197202
-0.206826
-0.15163
0.168226
-0.0165843
-0.0193694
0.179521
0.167207
0.389822
0.165591
0.103211
0.125123
-0.0282045
-0.0918742
0.073945
0.0179316
0.0190994
0.00394083
-0.129286
0.371584
-0.242271
0.27509
-0.483921
0.208872
-0.00644596
-0.619244
0.284023
-0.462093
0.14659
0.196898
0.0861166
-0.282995
0.0245605
-0.358677
0.138838
0.219868
-0.420192
0.065294
0.0181037
-0.083396
0.216101
-0.158836
0.107394
-0.363866
0.256497
-0.187659
0.417916
0.00434839
0.0615174
-0.0658658
0.0619164
-0.0720757
0.0101623
-0.00954689
-0.0020758
0.346002
-0.487176
0.115921
-0.431166
0.315293
-0.11135
0.450216
0.112237
-0.471867
-0.0263563
-0.166074
0.192935
-0.0268573
0.180303
0.339707
-0.279889
0.0939624
0.185939
-0.207835
0.162388
0.0454577
-0.323573
0.224438
0.043201
-0.0519724
0.135126
0.360442
-0.49547
-0.137382
0.388839
-0.251438
-0.131203
-0.186304
-0.217824
0.492962
-0.015787
-0.0760853
0.117609
-0.476766
0.359252
0.548967
-0.167067
0.0238238
0.115271
-0.131273
0.0160072
-0.0756825
0.0838917
-0.00820908
-0.0147545
0.0909735
-0.0762159
-0.153331
-0.277067
0.430494
0.111508
0.0848374
-0.196335
-0.344408
0.520519
0.0792473
0.302004
-0.529245
0.520221
-0.199157
0.365
0.0860953
-0.10188
0.0311879
0.327416
0.144831
-0.184283
0.437414
-0.0985381
-0.544333
0.388364
0.155981
0.142697
-0.474916
-0.121441
0.596364
-0.169776
-0.00219291
0.00930843
0.452714
-0.586203
0.133508
0.344537
0.117505
-0.132078
-0.540139
-0.126125
-0.0931508
-0.114675
-0.0729308
0.184451
0.286202
0.124239
-0.410396
-0.496333
-0.158716
-0.360165
0.518959
0.400559
0.146267
-0.485078
0.387591
0.0974875
-0.233705
-0.138467
0.470438
-0.331962
0.317252
0.212732
0.0529994
-0.501936
-0.413648
-0.0948072
0.508468
-0.107348
0.29998
-0.192627
-0.190096
0.00363521
0.028812
0.0156089
-0.169597
0.139344
-0.356626
0.529561
-0.172836
0.539009
-0.433241
-0.105719
0.154743
0.0182082
-0.520047
0.144289
0.375764
0.0874163
-0.290408
-0.275768
-0.227535
-0.317285
-0.367996
0.176191
-0.376527
0.250093
0.126457
-0.0543353
0.039532
0.429741
0.144326
0.582648
-0.129916
0.258406
-0.0672119
-0.191178
-0.555156
0.146872
0.408287
0.610035
-0.189653
-0.420326
-0.015543
0.307751
0.113491
-0.31593
0.0173804
-0.183452
-0.144696
-0.000859775
0.152094
-0.0646187
0.234251
0.191773