/*--------------------------------*- C++ -*----------------------------------*\
| =========                 |                                                 |
| \\      /  F ield         | OpenFOAM: The Open Source CFD Toolbox           |
|  \\    /   O peration     | Version:  v2012                                 |
|   \\  /    A nd           | Website:  www.openfoam.com                      |
|    \\/     M anipulation  |                                                 |
\*---------------------------------------------------------------------------*/
FoamFile
{
    version     2.0;
    format      ascii;
    class       surfaceVectorField;
    location    "1000";
    object      Uf;
}
// * * * * * * * * * * * * * * * * * * * * * * * * * * * * * * * * * * * * * //

dimensions      [0 1 -1 0 0 0 0];


internalField   nonuniform List<vector> 
20642
(
(0.226648 -0.0134084 -1.87796e-20)
(0.23366 -0.012603 1.83143e-20)
(0.244197 -0.0102354 7.85436e-21)
(1.04526 0.0623371 4.56425e-22)
(1.04607 0.0630563 1.42124e-22)
(1.04624 0.0620499 5.40482e-22)
(1.06846 0.0399439 1.38296e-20)
(1.07289 0.041075 1.35112e-21)
(1.02601 0.0405851 1.37732e-20)
(1.06335 0.0117108 0)
(1.06374 0.0127006 -1.26285e-21)
(1.0624 0.0122366 0)
(1.00767 0.0421205 4.88506e-22)
(1.00757 0.0431571 -1.01475e-21)
(1.00857 0.0428716 6.37644e-22)
(1.04438 0.0613227 -2.85762e-22)
(1.04405 0.0624898 2.3199e-22)
(1.09779 0.0187759 3.04282e-21)
(1.09623 0.0188231 -4.81037e-21)
(1.09725 0.0200405 -5.65709e-21)
(1.05061 0.0670376 -1.52777e-21)
(1.05051 0.0664007 2.89984e-22)
(1.05008 0.0672893 -1.29557e-21)
(1.0993 -0.00235193 -5.56281e-21)
(1.09902 -0.0012353 -9.43062e-21)
(1.10052 -0.00163323 -1.72107e-20)
(-0.000558165 -0.0542896 -1.1032e-20)
(0.006694 -0.0540682 1.59233e-21)
(1.05051 0.0674366 7.09935e-23)
(1.05051 0.0667291 5.98677e-22)
(1.0469 0.0166236 -1.22278e-21)
(1.04776 0.0173438 5.53848e-21)
(1.04784 0.0163795 1.243e-21)
(1.01902 0.000195093 8.94864e-22)
(1.01918 0.000109551 -6.73256e-22)
(0.845958 0.0445822 -3.26428e-21)
(0.772802 0.0372688 3.85962e-21)
(0.843201 0.0530409 5.17158e-21)
(1.0343 0.0522564 -3.42257e-24)
(1.03489 0.0534765 0)
(1.03573 0.0524685 5.0371e-23)
(0.217291 -0.0149544 -3.01537e-20)
(0.202351 -0.0180106 -6.99789e-21)
(0.98677 -0.000333867 1.325e-22)
(0.986639 -0.000318095 2.21562e-22)
(0.988918 -0.000169949 0)
(1.05085 0.0680012 7.54364e-22)
(1.05147 0.0682115 -1.13127e-21)
(1.05105 0.0672731 7.54134e-22)
(1.15777 0.0437307 -8.48494e-21)
(1.15929 0.0440605 -4.35019e-21)
(1.15805 0.0453672 -5.62976e-21)
(0.22703 -0.00155277 8.06358e-21)
(0.25097 0.00182742 -1.60643e-20)
(0.251355 0.000276875 -2.53944e-20)
(1.06777 0.0583439 1.79201e-21)
(1.06868 0.0597008 9.97172e-22)
(1.06714 0.0594351 3.3349e-22)
(1.01521 0.0276815 5.9316e-23)
(1.01586 0.0273606 1.44413e-22)
(1.0159 0.0285391 1.78243e-22)
(1.12661 0.0318754 3.0129e-21)
(1.12688 0.0305253 0)
(1.12822 0.0321445 0)
(1.01446 0.0279147 -1.66058e-22)
(1.01461 0.0268283 -5.9771e-22)
(1.06764 0.0258692 0)
(1.06889 0.0261358 0)
(1.06789 0.0267064 9.81468e-22)
(1.06465 0.0626382 -6.54197e-22)
(1.06544 0.0615752 1.41155e-22)
(1.06383 0.0612322 -1.89546e-21)
(0.755056 0.0625897 2.77079e-21)
(0.813313 0.0677791 4.35425e-21)
(0.826145 0.0732114 5.33072e-21)
(0.000246565 -0.0514114 1.82929e-20)
(1.05628 0.0678275 1.61803e-22)
(1.05746 0.0674061 -6.96186e-23)
(1.05609 0.0663737 -1.20166e-22)
(1.04459 -0.0127157 1.37999e-23)
(1.04539 -0.012307 1.1788e-23)
(1.04412 -0.0119516 -3.93577e-22)
(0.0014874 -0.0405383 -4.97878e-21)
(0.0126341 -0.0447496 4.11399e-20)
(1.14846 0.0223372 1.61933e-20)
(1.1497 0.0217327 1.47732e-20)
(1.14933 0.0232429 -2.18059e-20)
(1.05987 0.0196116 4.58181e-21)
(1.05858 0.0192749 -2.32463e-21)
(1.05938 0.018629 1.58432e-21)
(0.272559 -0.00313658 6.35777e-21)
(0.287661 -0.000333444 1.42757e-20)
(0.285013 -0.000618943 -2.46031e-21)
(0.99069 0.0166417 -1.07743e-22)
(0.990327 0.0161994 8.49108e-24)
(0.990202 0.0167793 -8.09032e-23)
(1.05069 0.0657165 1.3273e-21)
(1.04903 0.0651609 -6.59346e-22)
(1.05255 0.0405599 -3.04396e-23)
(1.05369 0.0406258 2.44972e-21)
(1.05329 0.0417166 1.32864e-21)
(0.999334 0.000346567 -1.05374e-22)
(1.00038 0.000658792 9.08538e-23)
(0.999537 0.000290521 -6.36333e-22)
(1.09942 0.0187857 -5.92166e-21)
(1.09821 0.0175948 7.40275e-21)
(1.08563 0.0598121 -3.81095e-21)
(1.08716 0.0609721 9.27485e-22)
(1.08718 0.0590706 2.67253e-21)
(0.998592 -0.000372961 2.47634e-22)
(0.99884 -0.000235837 7.45361e-22)
(0.999493 -0.00080934 7.84917e-22)
(0.974071 0.00442466 -2.52313e-22)
(0.973538 0.00513129 -1.04712e-22)
(0.974366 0.00536084 -9.32551e-23)
(1.09036 -0.00341792 -1.14964e-21)
(1.08954 -0.00212243 4.00259e-21)
(1.08862 -0.00360565 1.80514e-21)
(1.16119 0.0354239 1.88233e-20)
(1.16129 0.0341354 1.33112e-20)
(1.16342 0.0353908 -2.01821e-20)
(1.15946 0.0354831 -1.46903e-22)
(1.1606 0.0370266 -6.58987e-21)
(0.982745 0.0689725 3.97003e-21)
(1.01805 0.0694857 7.75916e-21)
(0.958533 0.0700005 5.02628e-21)
(1.06697 0.0567248 -2.07748e-22)
(1.0686 0.0569357 3.05066e-21)
(0.119913 0.0231796 -3.36812e-20)
(0.164173 0.0243983 -2.38776e-21)
(0.159457 0.0267684 -9.58779e-22)
(1.06561 0.0831986 -1.22472e-22)
(1.05559 0.0723957 1.09494e-21)
(1.07737 0.0846066 -3.83706e-22)
(0.991031 0.0166168 5.15173e-22)
(0.990887 0.0171379 -1.22707e-22)
(1.04602 0.0169684 -3.9662e-21)
(1.04604 0.0160265 -2.38399e-21)
(1.13528 0.065445 0)
(1.13488 0.0669512 1.75406e-20)
(1.1336 0.0656376 -7.06157e-21)
(0.109988 -0.0134424 7.77508e-21)
(0.146431 -0.0133266 0)
(0.107352 -0.0140916 -1.13658e-21)
(1.03558 0.0243654 2.95076e-22)
(1.03486 0.0235723 0)
(1.03458 0.024393 7.53779e-22)
(1.03845 0.0250175 -4.36679e-21)
(1.03763 0.0243049 -5.61563e-22)
(1.03855 0.0240423 2.48375e-21)
(1.13638 0.0643421 0)
(1.13622 0.0656615 0)
(0.0867387 -0.0175807 -4.47489e-20)
(1.12613 0.0331809 -5.21645e-21)
(1.12501 0.0316226 8.0663e-21)
(0.974621 0.00369411 2.63732e-22)
(0.973837 0.0033774 1.68351e-22)
(0.934319 0.0670903 -6.59936e-21)
(1.00312 0.0681964 -7.07023e-21)
(0.227727 0.0426633 -2.44516e-21)
(0.18725 0.0421993 1.12593e-20)
(0.176673 0.0448338 2.73317e-21)
(0.986036 0.0217466 -2.11796e-22)
(0.98619 0.0222594 4.96252e-22)
(0.986513 0.0218439 -1.92971e-22)
(1.01616 -0.000597703 -9.68905e-22)
(1.01671 -0.000539527 7.43184e-23)
(1.0191 -0.000744182 3.51432e-22)
(1.06737 0.0247992 -5.59064e-23)
(1.06632 0.0254639 0)
(0.553885 0.0324697 -2.105e-21)
(0.554208 0.0336022 -1.34628e-20)
(0.528003 0.0325398 -1.17885e-20)
(1.02836 0.00340737 5.82766e-22)
(1.04491 0.00172572 0)
(1.04396 -0.000467333 -6.16782e-22)
(1.05519 0.0680764 2.11902e-22)
(1.0542 0.0683389 -6.33957e-22)
(1.05416 0.0670696 0)
(1.05107 0.065982 -7.36774e-22)
(1.05124 0.0651702 0)
(1.05056 0.0685784 -7.63952e-22)
(0.20116 -0.0117779 -1.73338e-22)
(0.188877 -0.0132002 4.97823e-21)
(0.184905 -0.0132836 -3.13085e-21)
(0.669564 0.0384499 7.53973e-21)
(0.686037 0.0387982 1.9151e-20)
(0.639514 0.0361341 -6.57978e-21)
(0.261465 -0.00505974 -7.76818e-21)
(0.259023 -0.00499064 1.2686e-20)
(1.05115 0.00137179 1.28434e-21)
(1.05242 0.00129421 6.84686e-22)
(1.05155 0.00209622 5.97733e-21)
(0.975176 0.00311215 5.53296e-23)
(0.975417 0.00407405 1.98554e-22)
(1.06959 0.0611601 -3.0378e-21)
(1.07037 0.0599249 0)
(1.06482 0.032785 -2.61767e-21)
(1.06604 0.033151 2.30552e-21)
(1.0648 0.0336031 0)
(1.01192 0.0388954 1.93702e-22)
(1.01214 0.0397801 -3.14417e-22)
(1.01292 0.0392384 1.51666e-22)
(0.975712 0.00252521 -2.26943e-22)
(0.974987 0.00205387 1.91282e-22)
(1.06487 0.0315853 5.07585e-21)
(1.0634 0.032242 -1.20569e-21)
(1.06032 0.0201496 -3.26703e-21)
(1.061 0.01961 8.11225e-22)
(1.0318 0.0337222 -4.97543e-22)
(1.03069 0.0335395 3.79703e-22)
(1.03109 0.0325945 -3.40368e-22)
(0.985918 -0.000108513 1.50472e-22)
(0.985868 -0.00013118 -5.98132e-23)
(0.988166 -6.53687e-05 1.46044e-22)
(1.05076 0.000601434 5.81289e-22)
(1.04984 0.00136912 1.16691e-21)
(0.629839 0.031668 1.79751e-20)
(0.670719 0.0331253 9.4656e-22)
(0.662736 0.032563 1.33811e-20)
(1.01969 0.0040849 7.77548e-22)
(1.0199 0.00458172 1.36353e-21)
(1.01924 0.00445156 1.94067e-21)
(1.04469 0.0802608 2.33222e-22)
(1.0435 0.0836112 3.63713e-21)
(1.04192 0.0794935 -2.80484e-21)
(1.14741 0.0210456 -1.21429e-21)
(1.1469 0.0227633 0)
(1.01914 0.00229185 -7.774e-22)
(1.01862 0.00235044 -1.23082e-21)
(1.01834 0.00171023 0)
(1.08433 0.0583456 -5.67736e-21)
(1.08398 0.0602527 -3.47335e-21)
(0.987014 -0.000337494 -6.9728e-24)
(0.986465 -0.000498355 1.22902e-22)
(0.98768 -0.00111126 0)
(0.987856 -0.00111735 2.19213e-22)
(0.98811 -0.00137298 0)
(1.09197 -0.00282459 7.87215e-21)
(1.07533 0.0933722 8.70392e-21)
(1.04352 0.0865094 -1.13053e-20)
(0.988495 0.0133373 3.42064e-23)
(0.988013 0.0134254 -1.06068e-24)
(0.988101 0.0128704 7.30596e-23)
(1.04064 0.0312626 0)
(1.03953 0.0311295 0)
(1.04032 0.032136 -8.7843e-22)
(1.05641 0.0692926 1.34277e-22)
(0.920762 0.0988671 -1.27653e-21)
(0.983409 0.104277 -2.28431e-21)
(0.983724 0.107765 8.27497e-22)
(0.988145 0.00041082 -6.79724e-24)
(0.988373 0.000418587 0)
(0.989856 0.000191796 -2.03552e-23)
(1.01947 0.00272366 -4.98538e-23)
(1.01955 0.00218069 4.0953e-22)
(1.10209 0.100043 0)
(1.09448 0.09614 2.24612e-21)
(1.09551 0.100265 1.27091e-21)
(1.00781 -0.000732743 -7.96689e-22)
(1.00732 -0.000786141 1.33491e-22)
(1.0052 -0.00037879 1.43294e-22)
(1.00843 -0.000785307 -2.95697e-22)
(1.00982 -0.00137418 -4.27039e-22)
(1.03252 0.0346455 -1.7733e-21)
(1.03275 0.033704 -1.29675e-23)
(0.989533 0.00104693 1.47819e-22)
(0.989789 0.00102003 3.30492e-23)
(0.989502 0.000753471 1.24084e-23)
(1.01171 0.0377296 -2.67962e-22)
(1.01091 0.0382505 0)
(0.617077 0.0253038 1.69769e-21)
(0.614937 0.0262354 2.13541e-20)
(0.580038 0.0277742 1.7758e-20)
(0.315517 0.0181236 8.29398e-21)
(0.310822 0.0162536 -1.27855e-20)
(0.294349 0.0161222 2.70722e-21)
(0.985989 0.0212912 7.59941e-23)
(0.985648 0.0215754 0)
(0.97269 0.00487708 1.56112e-22)
(0.973025 0.00586777 -2.19198e-22)
(0.702337 0.058046 0)
(0.688099 0.0510483 0)
(1.02717 -0.000323651 -1.45261e-21)
(1.02722 -0.000497002 -1.42978e-21)
(0.304702 0.00267445 1.5005e-20)
(0.292252 0.000339263 2.52734e-22)
(1.0586 0.0670008 -2.06977e-22)
(1.05884 0.0685703 3.93399e-22)
(0.548688 0.0323775 -1.09823e-20)
(0.583199 0.034554 -5.716e-21)
(1.06417 0.036749 -2.15268e-21)
(1.06549 0.0370288 2.42303e-21)
(1.06441 0.0356749 2.37221e-22)
(1.15606 0.0434532 8.37602e-21)
(1.15729 0.0421822 -1.65799e-21)
(0.994667 -0.00161398 -3.44359e-22)
(0.995181 -0.00215142 -5.16316e-22)
(0.994269 -0.00176813 5.00145e-23)
(1.14858 0.0426111 3.65864e-21)
(1.14714 0.0412927 4.52616e-21)
(1.16713 0.0410076 2.84486e-22)
(1.04665 -0.00315678 2.57653e-21)
(1.04721 -0.00250899 1.27741e-21)
(1.04602 -0.00257663 -1.05862e-21)
(0.985395 -8.84795e-05 2.22473e-22)
(0.986033 -9.77087e-05 0)
(0.977074 0.00322262 -7.4741e-25)
(0.977744 0.00348991 2.42952e-23)
(0.977584 0.00262538 -1.78422e-22)
(1.05327 0.0683348 -2.6018e-23)
(1.05418 0.0695205 -1.89839e-22)
(1.14511 0.0518114 2.32528e-21)
(1.14389 0.052904 1.15017e-20)
(1.14342 0.0509993 3.45754e-21)
(0.152486 -0.0118383 1.51212e-20)
(0.169058 -0.0101118 3.12713e-23)
(0.156271 -0.012027 2.95452e-21)
(0.605843 0.0320251 -1.53651e-20)
(0.599246 0.0325439 5.76187e-21)
(1.06712 0.0238825 -2.19198e-21)
(1.06686 0.0229362 -4.35227e-21)
(1.06588 0.0234819 -2.18346e-21)
(1.06879 0.0623009 -1.20025e-21)
(1.07052 0.0626303 -6.11501e-22)
(0.998427 0.0172558 1.23102e-22)
(0.997906 0.0168747 2.48467e-23)
(0.998393 0.0166401 2.43935e-23)
(1.14582 0.0504797 -6.44478e-21)
(1.14662 0.0522866 -1.98939e-20)
(1.11856 0.00945476 2.90572e-21)
(1.11916 0.0106615 8.84589e-21)
(1.12014 0.00941992 1.14435e-20)
(1.08177 0.0746243 -5.05332e-21)
(1.10739 0.076519 -2.47974e-21)
(1.06923 0.0727443 2.00055e-22)
(0.379762 0.0153276 -7.1194e-21)
(0.355599 0.013649 5.46346e-21)
(0.361692 0.0137558 -1.46076e-20)
(1.06397 0.0379423 1.95794e-21)
(1.0629 0.0366283 -1.5671e-21)
(1.15362 0.0255374 -1.34993e-20)
(1.15385 0.0268042 1.77959e-20)
(1.15523 0.0256713 0)
(0.650486 0.0535329 0)
(0.716124 0.0649177 -2.07896e-21)
(0.1525 0.0277757 1.10367e-20)
(0.200514 0.0311274 -5.18749e-21)
(0.207226 0.0258711 1.06187e-21)
(0.121272 -0.00899233 0)
(0.118678 -0.00912968 2.04025e-21)
(0.135118 -0.00762374 -1.10713e-20)
(1.06278 0.0644919 -8.75577e-22)
(1.06389 0.0635264 2.14172e-22)
(1.06212 0.0631206 2.21545e-22)
(0.998991 0.000357065 0)
(0.972726 0.0226484 -1.04316e-20)
(0.982893 0.0250819 3.24227e-21)
(0.971829 0.0282773 -8.14047e-22)
(0.976406 0.00290596 -1.43822e-24)
(0.976282 0.00193612 1.22403e-22)
(0.609329 0.0260428 -4.86363e-21)
(0.656042 0.0257866 -2.54496e-20)
(1.01438 0.0176895 5.95213e-22)
(1.01379 0.0171811 -1.14843e-22)
(1.01383 0.0179809 1.87042e-22)
(1.04764 0.00246293 7.04779e-21)
(1.04869 0.00256484 -1.68381e-21)
(1.04811 0.00320889 3.60379e-21)
(0.967756 0.00682416 0)
(0.967358 0.00566133 0)
(0.968497 0.00595997 0)
(0.692389 0.0386131 -9.43444e-21)
(0.648945 0.0384411 7.31103e-21)
(0.934448 -0.0317045 -5.11868e-21)
(0.173775 0.0241346 7.19582e-21)
(0.187925 0.0241312 -7.2313e-21)
(0.14678 0.0197031 -1.70518e-20)
(1.03664 0.0243717 7.25887e-22)
(1.03634 0.0252381 -7.6751e-22)
(1.08321 0.0571655 1.45884e-21)
(1.08205 0.0560117 6.04905e-22)
(1.08166 0.0575431 6.58425e-21)
(1.01057 -0.000825477 -6.091e-23)
(1.01063 -0.00091472 0)
(1.01308 -0.00130098 0)
(1.04662 0.00238753 -1.60957e-21)
(1.04717 0.00175855 4.48497e-22)
(0.864988 0.0917337 2.55048e-21)
(0.866153 0.0925948 -1.49498e-21)
(1.00835 0.0298403 5.01728e-23)
(1.00838 0.0306877 5.42134e-23)
(1.00768 0.0300863 1.88215e-23)
(0.98923 0.00107151 -3.53255e-23)
(0.989699 0.00135832 -2.14439e-23)
(0.343661 0.013557 8.06949e-22)
(0.337125 0.0125537 1.15619e-20)
(0.322672 0.0112565 8.80357e-21)
(0.995986 -0.000957614 -5.2064e-22)
(0.996473 -0.000949622 -2.23519e-22)
(0.996305 -0.000461944 -2.11301e-22)
(0.994983 -0.00144108 -1.43204e-22)
(0.994137 -0.00115327 5.66891e-22)
(1.01824 0.0102017 1.32558e-21)
(1.01861 0.0107983 -1.42322e-23)
(1.01779 0.010651 -2.15311e-21)
(0.481935 0.0405674 -8.18074e-21)
(0.491339 0.0403768 0)
(0.458308 0.0373437 6.38683e-21)
(1.04988 0.0491678 -1.36308e-21)
(1.05042 0.0481585 1.01509e-21)
(1.04887 0.0480878 -6.20423e-22)
(0.968486 0.0160056 -2.95909e-21)
(0.308956 0.0409611 -1.33431e-21)
(0.305776 0.040365 -3.20069e-21)
(0.33714 0.0398676 -1.81104e-20)
(1.09561 0.109605 4.59574e-22)
(1.11048 0.106026 6.28358e-22)
(1.10721 0.107514 -2.21039e-21)
(0.112613 -0.0134694 6.57441e-21)
(0.165904 0.0421112 -1.11631e-20)
(0.203575 0.0426898 -2.91308e-20)
(0.16747 0.0443322 -7.73603e-21)
(1.02681 -0.00316488 -2.06439e-23)
(1.02723 -0.00350136 -2.20732e-22)
(1.02729 -0.00313639 2.13027e-23)
(1.06163 0.0652596 -9.88906e-22)
(1.06341 0.0659574 5.88884e-22)
(1.01403 0.0285051 0)
(1.01368 0.0289986 9.43754e-24)
(1.01478 0.0292983 0)
(0.39062 0.0151558 -2.06016e-21)
(0.392063 0.0161719 9.65405e-21)
(0.368341 0.0135055 4.73926e-21)
(1.0981 -0.00335023 7.96949e-21)
(0.314153 0.0395583 -4.5366e-21)
(0.270024 0.0414728 -1.33117e-20)
(0.287391 0.0386526 7.20809e-22)
(1.12116 0.0604385 -4.81621e-21)
(1.12146 0.059342 1.16612e-21)
(1.12246 0.0604195 3.8036e-21)
(1.00352 -0.00096927 -6.53318e-22)
(1.00454 -0.0014193 -2.14067e-22)
(1.00269 -0.000899596 1.06603e-22)
(1.06449 0.0112364 0)
(1.06316 0.0108238 -4.91614e-22)
(1.13555 0.0683513 4.4491e-21)
(1.14014 0.0699236 -4.49162e-21)
(1.13361 0.0685705 -6.52648e-21)
(1.11779 0.00821997 -5.75592e-21)
(1.11694 0.00948881 -5.32464e-21)
(1.05083 0.0501847 4.1365e-22)
(1.04936 0.0500363 0)
(1.08898 -0.00109461 -3.91124e-21)
(1.08743 -0.00118615 7.39521e-22)
(1.08825 0.000121379 -3.74713e-21)
(1.01341 0.0278094 0)
(1.04534 0.0172112 3.10616e-22)
(1.04611 0.0177812 2.09647e-22)
(1.075 0.0696765 -1.89524e-22)
(1.09948 0.0692535 -9.55171e-21)
(1.05631 0.069788 9.03023e-21)
(1.14811 0.0437799 -1.20831e-20)
(1.11245 0.0438736 -2.56861e-20)
(1.08922 0.0755583 -1.06754e-21)
(1.03449 0.0714287 -6.24324e-21)
(1.04448 0.0166469 -1.02473e-22)
(1.04451 0.0175017 -2.50815e-21)
(1.03583 0.0704284 0)
(1.088 0.0691189 2.52607e-21)
(1.04486 -0.0134626 1.57449e-23)
(1.04342 -0.0130258 4.5261e-24)
(1.04751 0.0781331 0)
(1.04883 0.0809689 0)
(1.11982 0.0608875 5.22687e-22)
(1.12106 0.0619633 -5.7436e-22)
(1.15798 0.0354173 9.10621e-21)
(1.15847 0.0340446 -5.63289e-21)
(1.1538 0.0659327 6.5881e-21)
(1.1521 0.0640381 6.85255e-21)
(1.15025 0.0649794 -7.99485e-24)
(0.238078 -0.0116704 -1.05678e-20)
(0.253085 -0.00789593 -1.11997e-20)
(0.241644 -0.0104846 5.72367e-21)
(0.988762 0.0138115 -3.12799e-23)
(0.988814 0.0133023 -5.85781e-24)
(0.164213 -0.0112579 0)
(0.176755 -0.0098008 1.15347e-20)
(0.159986 -0.0117736 0)
(1.08197 0.0333035 -6.31578e-21)
(1.08201 0.0344565 3.0307e-21)
(1.08073 0.0337004 6.63453e-21)
(0.405218 0.0171076 7.18843e-21)
(0.399073 0.0167326 -3.50628e-21)
(0.98981 0.0158261 -1.00341e-22)
(0.990303 0.0156697 1.53851e-22)
(1.00832 0.02897 0)
(1.00903 0.0295353 0)
(1.0668 0.0541395 2.38817e-21)
(1.06824 0.0539624 -1.91856e-21)
(1.06708 0.052738 2.08001e-21)
(0.192786 -0.0139381 -3.4169e-21)
(0.191394 -0.0134793 2.61168e-21)
(0.207366 -0.0120536 -6.51862e-21)
(0.122054 -0.00973286 -1.17571e-20)
(0.102592 -0.010446 0)
(1.04705 0.0395298 1.03956e-21)
(1.04783 0.0405076 4.63166e-22)
(1.04655 0.0404194 -4.57867e-22)
(0.792022 0.060758 -1.10616e-20)
(0.843828 0.0643058 -3.60594e-21)
(0.779586 0.053675 -3.41964e-21)
(1.05422 0.0608562 2.89995e-22)
(1.05306 0.0605437 2.76631e-23)
(1.05373 0.0596655 -9.72647e-23)
(1.08475 0.0567092 -6.99373e-21)
(0.976608 0.00386624 1.7131e-22)
(1.13759 0.0682473 9.00031e-21)
(1.02957 0.0332377 -2.51405e-22)
(1.03016 0.0342965 8.25513e-22)
(0.997054 0.0120303 -2.71868e-23)
(0.996998 0.0114958 1.33696e-22)
(0.996551 0.0117322 0)
(1.0051 0.0450556 7.23638e-22)
(1.00498 0.0441366 1.97243e-22)
(1.00594 0.0447331 1.62654e-22)
(1.00455 0.0453426 4.00663e-22)
(1.00537 0.0459728 1.72585e-21)
(0.206087 0.0255122 1.62132e-20)
(1.15216 0.025306 -1.29836e-21)
(1.15349 0.02434 3.37419e-21)
(1.06547 0.0640145 7.17655e-23)
(0.432985 0.0278176 0)
(0.431511 0.0283148 9.85752e-21)
(0.456863 0.0303 1.11465e-20)
(1.00731 0.00148311 -9.72954e-22)
(1.00682 0.00113064 1.10121e-21)
(1.00843 0.00169157 -6.03984e-22)
(0.985197 -0.00807472 5.18883e-22)
(0.98471 -0.00786628 3.68961e-22)
(0.985173 -0.00741049 2.00037e-22)
(0.985259 -0.00871828 -3.8244e-22)
(0.98565 -0.00827518 6.05311e-22)
(0.165142 0.0393747 1.54876e-20)
(1.13053 0.0674536 -9.99212e-21)
(1.15115 0.0670455 0)
(1.14679 0.0679022 0)
(0.996888 0.0698405 2.58294e-21)
(0.953746 0.0687962 5.49494e-21)
(1.01081 0.0692454 -3.70215e-22)
(1.028 0.00126961 1.16713e-22)
(1.02838 0.00143727 0)
(1.02827 0.00109905 1.74863e-21)
(1.01573 -0.000525022 -3.20292e-23)
(1.01181 -0.000376171 -1.21506e-23)
(0.584506 0.0430096 2.4901e-21)
(0.596447 0.0499944 6.15296e-24)
(0.167774 -0.0112296 1.55098e-20)
(0.985974 -0.00631642 -2.53003e-22)
(0.985802 -0.00670336 -4.21861e-23)
(0.98553 -0.00623155 0)
(0.986087 -0.00587048 -7.10883e-24)
(0.9864 -0.00634057 5.27753e-22)
(0.998408 -0.00053041 0)
(0.998465 -0.000239073 0)
(0.985308 -0.00941148 -2.94201e-22)
(0.984763 -0.00924547 -6.21927e-22)
(0.985419 -0.0101954 2.28622e-22)
(0.985805 -0.00964858 4.48441e-22)
(0.247654 -0.00776832 -2.46024e-20)
(0.258779 -0.00577874 -4.78347e-21)
(0.232166 0.027748 -9.71982e-21)
(0.229021 0.0291206 -2.71451e-21)
(0.259287 0.0280643 9.63368e-22)
(1.02292 0.0305747 -5.9053e-22)
(1.02234 0.0297316 -2.03324e-22)
(1.02333 0.0300029 2.9765e-22)
(1.03018 -0.00547766 -5.86931e-23)
(1.03071 -0.00589118 1.32492e-23)
(1.0299 -0.00582142 5.40111e-23)
(1.13182 0.0550098 0)
(1.13041 0.0558651 0)
(1.13028 0.0543879 0)
(0.239521 -0.00598435 1.55524e-21)
(0.229188 -0.00798927 9.90967e-21)
(0.243406 -0.00575394 1.06883e-20)
(0.992109 -0.00101531 0)
(0.991838 -0.00067328 1.64519e-23)
(0.992254 -0.0006874 2.75074e-22)
(1.02776 0.00144652 -7.02059e-23)
(1.02769 0.00112847 1.14481e-22)
(0.802935 0.0641312 -1.68526e-21)
(0.730714 0.0523733 1.08148e-21)
(0.604301 0.0258739 5.58015e-21)
(0.597404 0.0254856 -2.50885e-20)
(0.642592 0.0257966 -2.4058e-20)
(1.11077 0.0679288 -1.05538e-20)
(0.435955 0.0275859 -1.31639e-20)
(0.412836 0.0250821 0)
(1.1262 0.0661017 2.2243e-21)
(1.1251 0.0666157 -5.46025e-21)
(1.12606 0.0673227 8.30882e-23)
(1.01482 0.0174354 9.79164e-22)
(1.01492 0.0182009 1.49716e-21)
(0.240532 0.0414026 1.82593e-20)
(0.241865 0.0425548 1.3858e-21)
(1.13315 0.0546071 -1.10057e-20)
(1.13289 0.0561508 0)
(1.05963 0.0664844 4.41968e-23)
(1.05817 0.0657415 2.26774e-22)
(1.14541 0.0376023 -2.16365e-20)
(1.14636 0.0386973 0)
(1.14711 0.0373233 -6.88458e-23)
(1.04626 0.0386228 5.81024e-22)
(1.0475 0.0386179 -6.56429e-22)
(0.240626 0.0260554 1.51667e-20)
(1.04772 -0.00195652 -5.56525e-21)
(1.04716 -0.00145434 -1.00782e-21)
(1.0482 -0.00132354 -1.79771e-21)
(1.1014 0.0534765 -6.00146e-21)
(1.10207 0.0544549 7.42933e-21)
(1.10279 0.0533824 -2.43129e-21)
(1.12073 0.0582777 7.3604e-22)
(1.1202 0.0566906 -1.39242e-20)
(1.11917 0.0578857 -4.47063e-21)
(1.02199 0.0317419 3.93731e-22)
(1.02251 0.0310632 -3.33087e-23)
(1.02142 0.0309386 8.82098e-22)
(0.999067 -0.000187678 -6.97873e-23)
(1.06837 0.0242354 5.17845e-21)
(1.0046 0.0384351 -2.56826e-22)
(1.00477 0.0374972 -5.15009e-22)
(1.00381 0.0375316 8.53605e-22)
(0.98622 0.0143931 -4.50185e-24)
(0.986609 0.0148272 2.82735e-23)
(0.986165 0.0149394 -3.20662e-24)
(0.19788 -0.0063615 -1.14614e-20)
(0.187692 -0.00804385 -2.1397e-22)
(0.183585 -0.00808869 -1.42888e-20)
(0.803074 -0.0100422 -2.23865e-21)
(0.827568 -0.000974686 -2.20812e-21)
(0.867304 0.00705892 2.6636e-21)
(0.979175 0.0065226 0)
(0.979794 0.00668461 0)
(0.979516 0.00593673 -3.10049e-25)
(0.985901 -0.00529055 5.06923e-22)
(0.986263 -0.00540714 1.86508e-22)
(1.0091 0.0313067 -3.49033e-23)
(1.00836 0.0315542 -2.71595e-22)
(0.985553 -0.00518816 3.86937e-22)
(0.985799 -0.00481008 3.3969e-23)
(1.04841 -0.00246676 -8.88301e-21)
(1.02424 0.000297159 -4.18836e-21)
(1.0183 0.00020984 -1.12032e-21)
(1.11009 0.0370599 0)
(1.11151 0.0376721 0)
(1.11043 0.0385986 -9.46028e-21)
(0.97855 0.00643564 0)
(0.978867 0.00723419 1.05627e-25)
(0.121994 -0.00723043 0)
(0.13656 -0.00550578 9.2876e-21)
(0.317983 0.0198906 -1.41277e-21)
(0.335177 0.0205507 5.63069e-21)
(1.03775 0.0158805 -1.80762e-22)
(1.03771 0.0150694 -1.65904e-21)
(1.03679 0.0154295 -7.50362e-23)
(1.00653 0.0363215 -1.89754e-23)
(1.00649 0.0372767 7.66342e-22)
(1.00735 0.0371426 -4.96701e-22)
(0.889789 0.0651547 -2.9402e-21)
(0.903806 0.062977 2.08532e-22)
(0.837542 0.0601299 5.50577e-21)
(0.993497 -0.0159734 -5.32983e-22)
(0.994026 -0.0168547 -2.85416e-22)
(0.994161 -0.0158782 -6.78662e-22)
(1.09132 0.0928456 -1.29077e-21)
(1.09237 0.0945702 -3.14463e-22)
(1.09441 0.0905044 -2.23042e-22)
(0.212591 -0.0042982 5.24683e-21)
(0.208236 -0.00460625 -5.36733e-21)
(0.99304 -0.0151754 -2.53421e-22)
(0.992815 -0.0161331 -3.36184e-22)
(0.215876 -0.00983545 3.17549e-21)
(0.211513 -0.0100685 3.15171e-21)
(0.985834 0.013939 2.86721e-23)
(0.98628 0.0138326 4.70117e-23)
(0.515183 0.0432063 -1.84447e-20)
(0.479597 0.0407467 9.17897e-21)
(1.00399 -0.000939115 -1.8926e-22)
(1.0021 -0.000478709 -1.7822e-22)
(1.03336 0.049715 3.4835e-24)
(1.03204 0.0492943 0)
(1.0328 0.0483554 1.02021e-22)
(1.0217 0.0322657 -2.01477e-22)
(1.02271 0.0324335 -3.14382e-22)
(1.01152 0.0177099 2.28201e-22)
(1.01079 0.0173364 -6.88398e-22)
(1.01128 0.0170097 -2.62402e-23)
(1.16424 0.0570967 5.19937e-21)
(1.16171 0.0554385 3.74271e-25)
(1.16569 0.0556388 -1.74718e-20)
(0.996929 0.000885697 -2.43285e-22)
(0.99738 0.000848651 2.0356e-22)
(0.996727 0.000420682 -6.44971e-22)
(1.07363 0.109766 -2.02917e-21)
(1.06997 0.105653 1.93724e-21)
(1.0843 0.0417993 3.25614e-21)
(1.08428 0.0431745 0)
(1.08296 0.0421337 1.82371e-21)
(0.968136 0.00780631 0)
(0.967041 0.00750394 -3.57691e-23)
(0.904856 0.069342 -2.155e-21)
(0.904292 0.0703717 -3.58045e-21)
(0.974608 0.0767865 7.88415e-24)
(0.109881 -0.00863298 2.10902e-21)
(0.992155 -0.00135523 0)
(0.99264 -0.00136776 -2.25827e-22)
(1.12572 0.0417662 -2.11936e-22)
(1.12733 0.0420528 -1.09085e-20)
(1.12654 0.0404384 -2.08495e-20)
(1.00609 0.0401515 -8.33802e-22)
(1.00529 0.0392882 -8.69734e-22)
(1.00632 0.0392281 -1.16163e-21)
(1.06385 0.0389268 3.15999e-21)
(1.06362 0.0399685 -1.21711e-21)
(1.06259 0.0388075 1.50621e-21)
(1.00693 0.0412212 9.46488e-22)
(1.0079 0.0409857 -3.76647e-22)
(1.06488 0.0306531 6.9355e-21)
(1.06608 0.0311097 -7.7004e-22)
(0.987595 0.0135298 3.55484e-23)
(0.98716 0.0136271 -1.03192e-23)
(0.987216 0.0130678 -6.86505e-23)
(0.997114 0.00127343 -2.59063e-23)
(0.996352 0.000835013 -2.19171e-22)
(1.1314 0.0689812 0)
(1.13939 0.0703702 0)
(1.13217 0.0686848 8.82962e-21)
(0.994149 0.0290291 0)
(0.994334 0.0287843 0)
(0.994253 0.028911 0)
(1.101 0.0519076 -6.26773e-21)
(1.09998 0.05314 1.17056e-21)
(1.06492 0.0296383 -3.51225e-23)
(1.06369 0.0301342 1.44579e-21)
(1.02753 0.00155053 -1.232e-21)
(1.02726 0.00137681 -1.21544e-22)
(1.02727 0.0016508 -1.10751e-21)
(0.350403 0.0136769 -9.38085e-21)
(0.367185 0.0148033 -2.46058e-20)
(0.189752 -0.0150168 -2.40794e-22)
(0.170787 -0.0144675 1.40859e-20)
(0.996485 0.0157853 1.40793e-23)
(0.996003 0.0154203 1.65649e-23)
(0.996463 0.0152057 -5.23669e-23)
(1.0432 -0.0569962 -1.84521e-22)
(1.04326 -0.0552977 2.15653e-22)
(1.0471 -0.0501379 5.79658e-23)
(1.06516 0.0390771 2.50807e-22)
(1.00373 0.0501403 -1.97952e-21)
(1.0026 0.0506562 4.46277e-22)
(1.00295 0.0492704 4.00522e-22)
(1.17029 0.0228183 9.08972e-22)
(1.16992 0.0233267 7.52681e-22)
(1.17077 0.0217449 -8.2565e-22)
(0.340606 0.017883 1.39462e-20)
(0.327881 0.0153011 7.77014e-21)
(0.32064 0.0154074 -1.59706e-20)
(0.335629 0.0405377 0)
(0.354848 0.0381979 5.64259e-21)
(1.04594 0.000841999 0)
(1.04615 0.00196635 0)
(1.03129 0.0030876 0)
(1.12683 0.0753981 4.24693e-21)
(1.13174 0.0751273 2.23213e-21)
(1.00662 0.0354205 5.11743e-24)
(1.00579 0.0355331 4.65852e-22)
(0.710862 0.0350869 -8.94362e-21)
(0.677493 0.0342405 -1.14085e-20)
(1.00487 0.050845 -9.24498e-22)
(1.00479 0.0493934 -2.3345e-21)
(1.05515 0.0392201 0)
(1.09982 0.037826 1.38301e-20)
(1.02376 0.000465956 -1.4242e-21)
(1.01732 0.000101994 -1.45336e-21)
(1.03382 0.050983 4.38126e-23)
(1.03298 0.0519453 1.56707e-22)
(0.873749 0.0742861 -1.41457e-21)
(1.01172 0.0301008 -4.56951e-23)
(1.01233 0.0297055 4.10631e-24)
(1.01245 0.0306867 1.30852e-23)
(1.04707 0.0634344 -2.14186e-22)
(1.04622 0.0637772 2.14964e-22)
(1.15641 0.0354065 8.52184e-21)
(1.15753 0.0369093 9.82141e-22)
(0.98788 -0.000465746 -9.04351e-23)
(0.988396 -0.000410512 1.90431e-22)
(0.989809 -0.000243437 -2.22443e-22)
(0.409852 0.0171962 -1.65373e-20)
(0.385767 0.0146904 -5.16042e-21)
(1.01941 0.00313605 2.10279e-22)
(1.01953 0.00367747 -1.71913e-21)
(1.019 0.0034661 -6.75975e-22)
(1.13404 0.00324735 1.15433e-20)
(1.13566 0.00287751 1.06275e-20)
(1.00322 -0.0277818 -1.70022e-22)
(1.00439 -0.0277152 1.24172e-22)
(1.00405 -0.0289825 -9.75071e-23)
(0.179702 -0.00244736 6.99919e-21)
(0.184773 -0.00608482 1.04271e-20)
(0.999458 0.00686721 8.02724e-23)
(0.999011 0.00664104 2.78786e-22)
(0.99937 0.00635429 -2.28726e-22)
(1.10082 0.0507867 -3.94087e-21)
(1.09945 0.0504094 -5.20356e-21)
(1.10057 0.0495305 0)
(1.05467 0.0618485 3.33088e-22)
(1.0554 0.0609901 6.27796e-23)
(1.04757 -0.00112287 -1.33037e-24)
(1.05565 -7.29057e-05 -4.12768e-23)
(0.987589 -0.000899686 3.0099e-23)
(0.987448 -0.000652103 -8.30661e-23)
(1.14777 0.0361304 7.08192e-21)
(1.14857 0.0349745 -2.31966e-21)
(1.14696 0.0349504 1.44683e-20)
(0.64571 0.0271769 4.19974e-21)
(0.689204 0.0282173 -2.08343e-20)
(0.651573 0.0274486 -1.53601e-20)
(1.0411 0.0296348 -1.71055e-21)
(1.04089 0.0305136 0)
(1.04005 0.0293999 -9.39447e-22)
(1.01109 0.0304293 -3.01599e-23)
(1.01105 0.0294867 -1.14797e-23)
(0.317209 0.00464778 2.041e-21)
(0.321683 0.0054005 0)
(0.630738 0.0287382 0)
(0.640011 0.0277248 2.23658e-20)
(0.676915 0.0279293 0)
(0.524833 0.0495809 5.09341e-21)
(0.548239 0.0499771 3.80333e-21)
(0.505337 0.0498948 1.53384e-21)
(0.922021 0.0528323 -1.98186e-21)
(0.855275 0.039464 -9.47693e-21)
(0.992526 -0.0143708 -5.02683e-22)
(0.993237 -0.0142444 -5.00608e-22)
(1.02582 0.0300091 0)
(1.02523 0.0291434 6.27568e-22)
(1.02623 0.0293784 7.05579e-22)
(0.591178 0.0254402 9.8948e-21)
(0.584965 0.0254623 1.10771e-20)
(0.629403 0.0255238 2.45722e-20)
(1.13036 0.0755182 1.62206e-21)
(1.12206 0.0738095 -3.48134e-21)
(0.991757 -0.0145483 -3.21296e-22)
(0.991905 -0.0135669 -2.00794e-22)
(1.00577 0.0412299 7.38149e-22)
(1.04085 0.0202905 1.27824e-21)
(1.04171 0.0209158 2.0307e-21)
(1.04069 0.0209348 1.1899e-21)
(1.07276 0.0738739 -8.89787e-22)
(1.07184 0.075417 2.33738e-23)
(1.07408 0.0756851 2.38886e-23)
(1.10211 0.0509984 -4.65567e-21)
(1.14412 0.0606449 5.7669e-21)
(1.14473 0.0590574 1.13073e-21)
(1.14333 0.0598406 7.42916e-21)
(1.11999 0.0712382 3.1751e-21)
(1.1186 0.070724 -4.3968e-22)
(1.11967 0.0698197 5.67923e-21)
(1.08925 0.0904418 -1.4464e-21)
(1.08879 0.0944757 -1.57851e-21)
(1.13271 0.00709184 -9.26225e-21)
(1.1324 0.00820481 -1.8941e-20)
(1.13384 0.00765186 -8.99916e-21)
(0.285019 -0.000848742 -1.03061e-20)
(0.270778 -0.00415717 -8.40035e-21)
(0.280884 -0.00197348 9.57354e-22)
(0.998487 0.0178325 -3.53903e-23)
(0.998937 0.0175945 -2.5341e-23)
(1.04223 0.0298788 1.07659e-21)
(1.04133 0.0287446 -1.43698e-21)
(1.00686 0.0433786 -3.78153e-22)
(1.00765 0.0441056 -7.91779e-22)
(1.1415 0.0542982 1.23384e-21)
(1.15102 0.0529051 -6.13605e-21)
(1.11347 0.0529097 1.76773e-21)
(0.991037 -0.000625464 -4.07321e-22)
(0.992283 -0.000286256 -3.24207e-23)
(0.990558 -0.000604349 -4.22799e-22)
(0.21745 -0.0149847 0)
(1.13302 0.005769 1.04534e-20)
(1.13146 0.00645135 -1.23539e-20)
(0.982459 -0.0516262 3.36196e-22)
(0.970103 -0.061116 1.74374e-22)
(1.03847 0.0257531 -1.43165e-21)
(1.03936 0.0254621 7.63015e-22)
(1.12152 0.073412 -9.97471e-22)
(1.12815 0.0740327 -1.00178e-21)
(1.12088 0.0725551 2.61646e-21)
(1.03806 -0.0643917 1.36964e-21)
(1.04074 -0.0572536 -1.79019e-22)
(1.07658 0.103337 -7.4378e-21)
(1.07513 0.109003 1.66946e-22)
(1.06648 0.110716 4.11394e-21)
(0.971781 0.00062435 0)
(0.971954 0.00169391 0)
(0.972612 0.000961018 -2.34497e-22)
(0.980605 0.0694199 0)
(0.867896 0.0651242 -5.27786e-21)