/*--------------------------------*- C++ -*----------------------------------*\
| =========                 |                                                 |
| \\      /  F ield         | OpenFOAM: The Open Source CFD Toolbox           |
|  \\    /   O peration     | Version:  v2012                                 |
|   \\  /    A nd           | Website:  www.openfoam.com                      |
|    \\/     M anipulation  |                                                 |
\*---------------------------------------------------------------------------*/
FoamFile
{
    version     2.0;
    format      ascii;
    class       volScalarField::Internal;
    location    "750";
    object      V0;
}
// * * * * * * * * * * * * * * * * * * * * * * * * * * * * * * * * * * * * * //

dimensions      [0 3 0 0 0 0 0];


value           nonuniform List<scalar> 
13917
(
0.001622
0.0422906
0.00436339
0.0436456
0.0901978
0.0537601
0.0228667
0.0437728
0.0212725
0.00125236
0.0472827
0.0626442
0.177639
0.044501
0.0629424
0.00136084
0.163982
0.0470081
0.00649313
0.00164638
0.0324236
0.106979
0.0118125
0.11772
0.0327258
0.0333239
0.0212559
0.00134168
0.04189
0.163335
0.00129937
0.00769935
0.0456363
0.00170692
0.141569
0.0446225
0.0505541
0.174729
0.0207959
0.0281355
0.200995
0.140715
0.0310139
0.0055984
0.00672126
0.00836424
0.0397596
0.00322157
0.0513413
0.114029
0.0622139
0.00940532
0.00143225
0.0793575
0.0780748
0.0070024
0.00116407
0.0132947
0.150679
0.010415
0.00765299
0.123612
0.161882
0.0374286
0.00249172
0.153394
0.0408595
0.0416635
0.0421154
0.00128361
0.00373939
0.00127008
0.0726977
0.149797
0.0322494
0.0386189
0.0749912
0.157154
0.0442227
0.0334002
0.0849345
0.180873
0.0776906
0.00350153
0.150617
0.0368886
0.0084053
0.170965
0.0294454
0.138521
0.152324
0.0280275
0.0606291
0.149809
0.068627
0.0409059
0.0290121
0.176053
0.140711
0.0267609
0.170712
0.131622
0.0713552
0.152851
0.0977197
0.00284487
0.00261296
0.137337
0.139704
0.0200814
0.17026
0.00196995
0.0385421
0.00327306
0.00275917
0.0383013
0.0073561
0.168109
0.00482242
0.0722771
0.173118
0.158138
0.0387574
0.00830201
0.00147117
0.00212483
0.0336095
0.0314874
0.135287
0.00665415
0.0128939
0.0119321
0.00208838
0.0428884
0.00665856
0.0211398
0.0082677
0.00138336
0.0368364
0.185775
0.0621209
0.156647
0.00311381
0.0989234
0.0684557
0.152271
0.00346212
0.121328
0.00218889
0.0897896
0.0266641
0.200124
0.070139
0.0615827
0.0243562
0.096084
0.145259
0.00172012
0.183566
0.156952
0.13905
0.00374952
0.0547957
0.0702807
0.00452646
0.0237184
0.00122702
0.00449918
0.17336
0.0363788
0.104593
0.00231705
0.0247413
0.00789733
0.0103409
0.167958
0.0392947
0.00978557
0.0160098
0.0511341
0.0310135
0.114743
0.0516655
0.00555412
0.00465822
0.0141005
0.0592594
0.00769031
0.168994
0.0385285
0.0136618
0.00664759
0.00685429
0.00150624
0.11415
0.00150127
0.026632
0.00214214
0.139776
0.102069
0.0347707
0.00138012
0.00119634
0.0517327
0.0161867
0.0431536
0.0256055
0.153198
0.00890913
0.083884
0.143668
0.0757191
0.0736676
0.00291455
0.00660961
0.0308944
0.00292259
0.171097
0.152287
0.144637
0.00427807
0.00776185
0.00757626
0.150768
0.167999
0.021804
0.00147527
0.131101
0.146218
0.152666
0.147267
0.15147
0.00112977
0.0029681
0.0767774
0.169141
0.0112983
0.00143555
0.159569
0.153366
0.0208083
0.0027212
0.00556098
0.00261945
0.0110249
0.08729
0.0049362
0.00991649
0.03346
0.00867108
0.0512067
0.00233733
0.058803
0.0146092
0.0144124
0.0842521
0.180035
0.0320391
0.101804
0.130555
0.0014409
0.0376244
0.15831
0.143774
0.0959584
0.139422
0.0671786
0.179572
0.0160401
0.157965
0.00131775
0.00275212
0.0948557
0.0959765
0.0104031
0.159257
0.0227982
0.00147123
0.154527
0.00127044
0.13526
0.00452185
0.181195
0.066469
0.071042
0.125052
0.00524073
0.170925
0.0223295
0.0257555
0.0391071
0.124837
0.0206686
0.00132906
0.139764
0.0125293
0.101745
0.0397999
0.0973195
0.036185
0.142012
0.173889
0.0117946
0.102175
0.0172629
0.036406
0.125529
0.00179144
0.00110178
0.136153
0.167152
0.0370731
0.0844444
0.00500687
0.00277692
0.00672284
0.188972
0.0141941
0.0927231
0.00329506
0.0848476
0.00371141
0.14094
0.0598242
0.0191807
0.0962909
0.0406071
0.00653945
0.179123
0.00188161
0.14862
0.0101696
0.161815
0.0016529
0.12874
0.0153332
0.0385697
0.179433
0.18831
0.00742256
0.00305783
0.0707152
0.0943781
0.00188399
0.00290278
0.00541179
0.042934
0.16477
0.0765926
0.00263435
0.0119253
0.175448
0.120618
0.0576978
0.0291087
0.0134255
0.00780408
0.01484
0.0240251
0.00911029
0.00166609
0.125438
0.0724389
0.0647315
0.00489703
0.171055
0.00124103
0.0108505
0.118429
0.0604031
0.0145801
0.166308
0.0547751
0.128456
0.00682074
0.00898872
0.0435635
0.0831262
0.00365391
0.15935
0.00498308
0.00620397
0.126615
0.0524297
0.0789512
0.132553
0.136439
0.00157569
0.126565
0.0426761
0.0201821
0.0265423
0.058055
0.0060587
0.00401033
0.0444266
0.00558416
0.07714
0.0265326
0.00459254
0.128135
0.0199114
0.0302619
0.13494
0.131427
0.135338
0.00766262
0.023206
0.0593447
0.131499
0.104648
0.0140821
0.0457567
0.165232
0.190477
0.00585898
0.0164355
0.102858
0.051368
0.0065783
0.0291946
0.144142
0.00594048
0.00308107
0.145695
0.163586
0.03702
0.134111
0.162983
0.0655787
0.137858
0.142585
0.00405237
0.073516
0.0215633
0.00136391
0.0124464
0.136383
0.0713125
0.00551743
0.039804
0.00122497
0.166101
0.0867103
0.152731
0.145402
0.0486662
0.0809738
0.00818648
0.145404
0.00244567
0.0947174
0.0134269
0.134559
0.0721853
0.0105002
0.00666145
0.0559417
0.0234587
0.134936
0.145104
0.102726
0.0797218
0.142793
0.159097
0.00186645
0.00645406
0.142492
0.0172938
0.00494761
0.150129
0.0123073
0.00665852
0.00381718
0.0181499
0.00277836
0.131861
0.131743
0.0747855
0.156535
0.133697
0.0562371
0.00605643
0.141394
0.0758937
0.0582678
0.0203114
0.027283
0.00434349
0.00825835
0.126622
0.0958417
0.0409972
0.0203692
0.0555683
0.0349409
0.0131308
0.0251722
0.0051758
0.129345
0.0170831
0.00835519
0.13491
0.00164717
0.120812
0.133159
0.0120406
0.155128
0.171457
0.0123345
0.00171108
0.0205925
0.129773
0.0312427
0.117038
0.00687967
0.00965871
0.0609939
0.0862714
0.117563
0.01459
0.108121
0.127223
0.198218
0.104552
0.116803
0.107545
0.0173838
0.158488
0.00791604
0.138678
0.107528
0.0326664
0.00189125
0.136473
0.0262836
0.130699
0.015254
0.0109947
0.028511
0.0118519
0.0225708
0.0435595
0.041353
0.00208299
0.0036983
0.00142167
0.140011
0.103989
0.120199
0.076846
0.00288086
0.147431
0.0823685
0.0276076
0.00248635
0.0218565
0.0268711
0.00141193
0.144798
0.00633724
0.180315
0.140043
0.00163689
0.167739
0.00329248
0.176538
0.13963
0.102004
0.00454779
0.107077
0.118546
0.00574541
0.0124132
0.100621
0.00336723
0.00210432
0.00369912
0.123068
0.00108542
0.160928
0.00700571
0.110762
0.129945
0.15572
0.132437
0.0138651
0.02836
0.162911
0.137214
0.154466
0.00374017
0.0929087
0.00810025
0.0767389
0.123194
0.167186
0.00798932
0.00411238
0.00174241
0.00942521
0.0165459
0.00474116
0.00133173
0.134616
0.00630243
0.148487
0.0060362
0.0727338
0.00356033
0.117649
0.101789
0.0588951
0.0938592
0.016175
0.00262607
0.154007
0.0153003
0.120431
0.135194
0.00159309
0.0264571
0.103445
0.00743777
0.112045
0.135008
0.177874
0.00166118
0.110392
0.0934558
0.124394
0.100044
0.00426346
0.189369
0.00693638
0.169819
0.141905
0.00710071
0.00677547
0.0798009
0.00114596
0.00310643
0.0491093
0.0068385
0.147885
0.0547272
0.00163616
0.00293181
0.0366349
0.0409386
0.084578
0.137427
0.112121
0.155339
0.00977829
0.0268848
0.00509915
0.0161276
0.0471376
0.00923726
0.0965677
0.0154874
0.00670169
0.00124513
0.136893
0.0872042
0.132488
0.135523
0.126862
0.184282
0.110127
0.151776
0.000961602
0.0137936
0.162368
0.00631625
0.122547
0.00227547
0.135554
0.128456
0.00164825
0.00924553
0.139051
0.0501814
0.15738
0.130844
0.0321001
0.0114883
0.116237
0.00119807
0.0227614
0.1124
0.138771
0.0850123
0.00153885
0.0301776
0.134239
0.109362
0.00145749
0.0174502
0.0235215
0.00135966
0.0871642
0.133699
0.133408
0.0485967
0.00257798
0.14043
0.0144467
0.0373105
0.0238145
0.00486619
0.0950551
0.00755539
0.012025
0.0671942
0.0267946
0.132797
0.0179759
0.0965943
0.00310531
0.0406657
0.122563
0.00129449
0.168627
0.0857771
0.0464972
0.0483992
0.0213943
0.00301592
0.174587
0.00773161
0.00379295
0.168996
0.081748
0.0369937
0.148587
0.0791648
0.0700574
0.0612558
0.144079
0.00813813
0.00693068
0.139449
0.00333848
0.0175318
0.0164556
0.00716391
0.0762927
0.00642955
0.0225947
0.134875
0.00979031
0.0121106
0.0111918
0.0965091
0.138212
0.0929789
0.00115569
0.0508304
0.143314
0.011467
0.115091
0.135254
0.00602181
0.0233168
0.0614927
0.0281141
0.0307359
0.00247444
0.0502685
0.0625135
0.00431037
0.130574
0.13261
0.152697
0.14976
0.054712
0.0372242
0.0262706
0.0948047
0.159142
0.106424
0.0844184
0.0424126
0.0165592
0.146974
0.0068656
0.0601524
0.00447169
0.0592509
0.142103
0.00215597
0.0329009
0.00147607
0.0301588
0.0630722
0.0935017
0.133114
0.0792767
0.00158862
0.0193148
0.0473722
0.0268955
0.0857593
0.0105951
0.179108
0.115518
0.11539
0.135183
0.00441866
0.0262855
0.0576505
0.00646758
0.0845978
0.152515
0.128109
0.0146905
0.137769
0.0762359
0.0445487
0.105928
0.00984483
0.122665
0.0315989
0.0641823
0.00124543
0.00142808
0.0709745
0.00240528
0.0217648
0.00123338
0.0866734
0.147488
0.129626
0.0772856
0.0428631
0.114191
0.0177059
0.0952515
0.0340875
0.073799
0.00312888
0.047298
0.0146838
0.0152631
0.131414
0.0233677
0.0313648
0.134965
0.0206853
0.159748
0.00188346
0.00888438
0.149082
0.129994
0.0892712
0.102537
0.104708
0.0050799
0.14258
0.0236868
0.114733
0.160217
0.0706818
0.0988079
0.00526326
0.0926406
0.147494
0.140079
0.00538422
0.0560418
0.00685317
0.13953
0.0263351
0.16137
0.102788
0.00138019
0.133617
0.0342394
0.00690189
0.0014566
0.15696
0.084255
0.0043962
0.147096
0.0873435
0.102827
0.00305493
0.104809
0.00521413
0.0501079
0.00172325
0.0601623
0.0117012
0.119422
0.163558
0.143591
0.16572
0.169028
0.00215694
0.0520263
0.130176
0.0794356
0.13788
0.131092
0.00899627
0.0440333
0.00247973
0.0218492
0.00702477
0.00812137
0.0250827
0.00130218
0.0619218
0.00954076
0.0922212
0.00123567
0.136979
0.0458453
0.163311
0.134675
0.0503571
0.153807
0.139644
0.137132
0.0839876
0.0180701
0.137716
0.0526956
0.0073597
0.00449471
0.00396576
0.00703703
0.0899287
0.118269
0.110423
0.00428673
0.107841
0.00112529
0.121518
0.146079
0.159841
0.0790553
0.127113
0.1494
0.110278
0.0148024
0.131149
0.00140549
0.0832003
0.123905
0.00178286
0.0877399
0.104661
0.118453
0.00170441
0.0182178
0.156907
0.137248
0.149434
0.12626
0.00300093
0.133467
0.0274563
0.037395
0.0616759
0.148034
0.14022
0.0249256
0.0866472
0.0278674
0.00146465
0.095173
0.123542
0.0806299
0.0924433
0.137399
0.00552314
0.0123166
0.0244541
0.0014914
0.00173191
0.0885324
0.00545738
0.140587
0.00146222
0.134097
0.00790462
0.0129058
0.0180035
0.0366778
0.0107731
0.0164655
0.00274206
0.165482
0.102118
0.15949
0.084856
0.0125079
0.064933
0.0490069
0.0127602
0.000791448
0.1413
0.018658
0.00137193
0.175386
0.1236
0.0773956
0.00265222
0.0399288
0.165321
0.016393
0.070043
0.125776
0.0606396
0.0388697
0.0858687
0.1115
0.164604
0.14369
0.11331
0.0964315
0.00143065
0.0480877
0.0476832
0.128586
0.0014157
0.139199
0.155597
0.0379334
0.0455458
0.027516
0.159914
0.00486548
0.119083
0.0966244
0.00871875
0.0976047
0.18288
0.00851953
0.00477049
0.00749272
0.00711848
0.139493
0.00749977
0.00189836
0.182301
0.00670904
0.106027
0.0137162
0.010411
0.1119
0.0221928
0.130876
0.0241764
0.042625
0.0541261
0.00560454
0.0155441
0.0117179
0.00580622
0.106847
0.00532326
0.0413651
0.0778067
0.0966933
0.135489
0.156065
0.13715
0.0280339
0.00274062
0.132445
0.0505811
0.0273925
0.0612793
0.0587831
0.0143978
0.00616121
0.0883518
0.133946
0.0290894
0.113416
0.0483387
0.00136514
0.050321
0.0967991
0.0234203
0.143197
0.0499646
0.00196159
0.00132249
0.0610206
0.0149222
0.0404109
0.00106884
0.0255221
0.0253798
0.00351978
0.128156
0.00801692
0.00292233
0.00436084
0.108561
0.0520188
0.146078
0.103609
0.1474
0.0672489
0.0933411
0.00289546
0.136052
0.0126836
0.143008
0.00822816
0.0044589
0.0484388
0.00674731
0.0246678
0.0915061
0.00643947
0.0532013
0.0486767
0.0914446
0.00142749
0.00961614
0.00114376
0.026608
0.00524427
0.0132218
0.153478
0.0718608
0.015697
0.1468
0.0889771
0.0104731
0.0668006
0.035991
0.0339493
0.0406622
0.043007
0.00918974
0.0109338
0.107243
0.0111217
0.0516435
0.0759406
0.112272
0.133769
0.00277596
0.00525085
0.142757
0.0149478
0.154569
0.0853972
0.00121683
0.0583785
0.140867
0.135273
0.0798564
0.154508
0.0479036
0.00279986
0.103572
0.0198287
0.137945
0.157132
0.00702015
0.00284435
0.0055086
0.0515632
0.176803
0.141135
0.0527663
0.00722016
0.00186239
0.148337
0.0143034
0.0362561
0.0102063
0.027678
0.153779
0.036842
0.00553386
0.0940649
0.025297
0.150334
0.131399
0.0568691
0.00180872
0.014954
0.14319
0.00457548
0.0108546
0.129488
0.00949128
0.128918
0.136395
0.0052841
0.104515
0.101294
0.0575004
0.00626978
0.0261675
0.0433554
0.143753
0.104067
0.141542
0.0913226
0.0184379
0.0186334
0.00113618
0.0251401
0.0223367
0.0139781
0.0137116
0.132577
0.033161
0.00722483
0.00390522
0.00253473
0.0586105
0.123593
0.00132973
0.116841
0.119562
0.0318452
0.0200414
0.0512987
0.145067
0.00329576
0.0195644
0.0539059
0.0881366
0.01159
0.00333909
0.00137576
0.107583
0.0967135
0.0508055
0.149561
0.138601
0.0149359
0.108759
0.0264143
0.0136686
0.0467576
0.00290823
0.11812
0.0645217
0.0445806
0.149169
0.00357914
0.113929
0.143541
0.0131468
0.00769305
0.0128945
0.00413498
0.106646
0.0144934
0.123613
0.128251
0.0837603
0.165476
0.0531778
0.00386153
0.048574
0.0126891
0.0974524
0.135086
0.0694107
0.150703
0.136922
0.00143991
0.157817
0.0467403
0.00715945
0.153295
0.00953348
0.0106527
0.0140208
0.0745262
0.115864
0.122447
0.136525
0.151076
0.0479301
0.109672
0.130991
0.140348
0.126528
0.0374049
0.0991809
0.00295323
0.0125802
0.141634
0.116589
0.127125
0.013082
0.133565
0.0246021
0.103975
0.154497
0.131939
0.011557
0.0589558
0.0036332
0.129007
0.157147
0.0278963
0.159271
0.148701
0.00179712
0.0819251
0.134081
0.0141695
0.00993586
0.00102761
0.155114
0.0228914
0.014634
0.132518
0.145137
0.00434463
0.0970479
0.18101
0.0117674
0.127452
0.0018398
0.157912
0.116684
0.0817795
0.131505
0.00238743
0.134228
0.147178
0.00759022
0.0895786
0.131632
0.147969
0.125839
0.0100251
0.0604419
0.0943475
0.152462
0.0179862
0.0863349
0.149466
0.14757
0.0451535
0.131669
0.0237271
0.10356
0.136685
0.058424
0.160381
0.052717
0.0762669
0.0358827
0.134281
0.00658287
0.0906001
0.0348119
0.142056
0.0438294
0.10764
0.157739
0.0248348
0.0655697
0.0214495
0.0105667
0.128481
0.00152115
0.00294287
0.0064042
0.00235078
0.0930053
0.0799489
0.0214091
0.00839318
0.119871
0.00135739
0.141113
0.00476203
0.0835316
0.0199923
0.00670792
0.0314442
0.0144392
0.142092
0.00965391
0.121627
0.125
0.0182887
0.00192901
0.00159933
0.04831
0.0881011
0.0179253
0.142323
0.00690702
0.152388
0.0414132
0.147573
0.121157
0.00143114
0.11998
0.0133963
0.0740981
0.0208165
0.0115624
0.0758116
0.138632
0.00282832
0.129047
0.0924162
0.0467567
0.137831
0.00695543
0.0637287
0.0177528
0.00147814
0.0941632
0.0229467
0.0665917
0.117616
0.0137074
0.126529
0.141621
0.0134907
0.126054
0.135815
0.0278362
0.0755775
0.00561158
0.0485049
0.138898
0.116206
0.15296
0.130547
0.114334
0.00777981
0.0803713
0.101813
0.129141
0.112528
0.0865879
0.0701549
0.0027178
0.140949
0.0248755
0.0488248
0.128241
0.00346269
0.0792048
0.144772
0.00146603
0.00625409
0.00180264
0.123731
0.0022255
0.0267632
0.083921
0.00142468
0.0809936
0.0648518
0.00516398
0.0563297
0.0366314
0.00147643
0.0408189
0.00854085
0.0744286
0.00281689
0.0927281
0.114035
0.110109
0.00143912
0.0885243
0.149202
0.0892517
0.0795244
0.13115
0.117771
0.0150299
0.0294517
0.104656
0.0348492
0.00140964
0.0495871
0.0105835
0.0108199
0.138785
0.00723827
0.0254823
0.0614947
0.00373933
0.158597
0.00764942
0.00120298
0.130655
0.00125435
0.12111
0.00240196
0.00713273
0.0384886
0.0729354
0.113326
0.0823366
0.104723
0.0344798
0.141257
0.077185
0.00154833
0.0143289
0.00305429
0.10665
0.0202603
0.00179858
0.108117
0.0849409
0.00272366
0.101727
0.105719
0.00409143
0.00857513
0.0113775
0.0839733
0.00368612
0.0268164
0.0624359
0.00181968
0.00452128
0.108087
0.149439
0.00605531
0.0131875
0.0135922
0.075997
0.0189734
0.0145189
0.02475
0.0797757
0.132932
0.0358504
0.0014728
0.0319448
0.101918
0.0970211
0.0482163
0.131774
0.00167631
0.0214694
0.11937
0.0103951
0.136389
0.147184
0.0155253
0.0114132
0.0885477
0.00250467
0.106171
0.00178188
0.133863
0.00144978
0.00341299
0.00426816
0.154479
0.0292206
0.0372936
0.0294476
0.0117334
0.00757879
0.00199579
0.0253911
0.145768
0.0274259
0.13096
0.0059913
0.00134344
0.163108
0.151112
0.0450416
0.0105935
0.0286624
0.156609
0.0180206
0.0110833
0.140281
0.134084
0.0474207
0.00162767
0.0675433
0.132021
0.00258798
0.0180361
0.0418095
0.00449857
0.11154
0.0331093
0.00257165
0.154975
0.0236199
0.0147228
0.00814259
0.00812399
0.00246206
0.0716863
0.0537291
0.026137
0.121815
0.0045062
0.0104533
0.0144022
0.0058394
0.01686
0.0830815
0.00867792
0.00268109
0.0248337
0.00528028
0.1321
0.0548262
0.0732292
0.125727
0.00359008
0.0251963
0.153154
0.0391839
0.00394161
0.115877
0.104642
0.00197435
0.125433
0.0736637
0.151527
0.0586459
0.0100136
0.0714692
0.0050566
0.0131357
0.0110458
0.0573451
0.0135174
0.0695167
0.0501258
0.0368803
0.0840984
0.0591841
0.153934
0.138323
0.00170965
0.00543573
0.0355266
0.00543936
0.104822
0.0697657
0.0391876
0.135941
0.133904
0.0178469
0.0235441
0.00153856
0.0131343
0.0070579
0.0740101
0.0083002
0.0998447
0.002919
0.148115
0.00403919
0.00778771
0.14097
0.0111888
0.00130091
0.0431674
0.123901
0.136164
0.0271728
0.00670445
0.138728
0.0486996
0.130279
0.161508
0.00318903
0.128184
0.0241341
0.124098
0.183099
0.00434221
0.0156518
0.061533
0.00478599
0.0492832
0.00199229
0.0555431
0.142357
0.0491328
0.0013665
0.0730258
0.00857918
0.0443449
0.00270172
0.112294
0.104206
0.057954
0.00378825
0.104565
0.140427
0.146229
0.00431704
0.00151159
0.0105898
0.106738
0.0564648
0.12025
0.00138636
0.139468
0.00371524
0.00770237
0.107698
0.00918143
0.0481297
0.153235
0.0333305
0.114718
0.0230439
0.0262414
0.0153139
0.0578087
0.0674071
0.11244
0.00180702
0.143736
0.173646
0.00249735
0.049328
0.107818
0.0234693
0.128891
0.138884
0.101846
0.0281659
0.0300735
0.152509
0.154377
0.0277584
0.0510562
0.0101464
0.0160322
0.136096
0.157049
0.154564
0.0750883
0.0541566
0.00901126
0.00141927
0.00273155
0.121284
0.136389
0.028043
0.00321278
0.0861094
0.133641
0.00246376
0.00307084
0.124832
0.0337859
0.048105
0.0874614
0.0016992
0.113861
0.125739
0.0161104
0.00506937
0.0604365
0.0301711
0.0533432
0.00428768
0.00380182
0.136869
0.00398934
0.0613022
0.104857
0.00598127
0.00828955
0.0268532
0.0552099
0.0260763
0.0634753
0.138797
0.0385979
0.0662808
0.0421007
0.027238
0.135355
0.0222564
0.00343926
0.0107954
0.141023
0.0117085
0.00844687
0.0142964
0.134931
0.056435
0.14987
0.00305798
0.0472698
0.109532
0.00919493
0.0050131
0.157555
0.00130561
0.0256837
0.0822556
0.0104479
0.101212
0.101204
0.132307
0.152147
0.100876
0.121485
0.00218241
0.153244
0.133098
0.00728773
0.0223475
0.0583843
0.00447527
0.076524
0.104656
0.0435358
0.049418
0.14686
0.156456
0.00335476
0.0540463
0.0540143
0.112865
0.0683052
0.00294844
0.00912173
0.00278928
0.150423
0.0423609
0.0812109
0.0839453
0.134948
0.134144
0.00384988
0.00694555
0.0314831
0.112303
0.104249
0.0081383
0.0505432
0.068572
0.0774253
0.0014275
0.0194481
0.0010277
0.0856761
0.154033
0.0657301
0.105179
0.0868093
0.0102567
0.116568
0.0072256
0.00170907
0.0259046
0.00126494
0.0991878
0.161319
0.0146529
0.133016
0.0111585
0.154708
0.134303
0.152927
0.0027056
0.152461
0.0469283
0.0871282
0.00749331
0.0359448
0.0380381
0.00766923
0.00227927
0.117797
0.151323
0.131678
0.00269766
0.0781325
0.0737517
0.0550651
0.14207
0.00937473
0.127689
0.147537
0.0382635
0.0729512
0.0121868
0.00168776
0.00177999
0.02242
0.171538
0.017449
0.0361465
0.0136027
0.128123
0.00447529
0.00574097
0.0686902
0.0821006
0.155736
0.0138929
0.0701617
0.00314024
0.0064286
0.0233606
0.00342195
0.0062475
0.00501101
0.00239667
0.0968565
0.00273632
0.0418132
0.00144506
0.00333807
0.00274494
0.00222825
0.146647
0.0139015
0.131453
0.102113
0.00118277
0.0774378
0.0750253
0.0164654
0.044133
0.0145985
0.00310943
0.00277383
0.00528971
0.0227027
0.026114
0.0491629
0.102904
0.0623072
0.0107952
0.00645406
0.00799508
0.0189891
0.156436
0.139021
0.0974267
0.00350077
0.052684
0.0809311
0.0273901
0.0205119
0.0144391
0.0286066
0.0598598
0.00291992
0.0230398
0.0137416
0.0838832
0.0166475
0.0103835
0.126496
0.0296169
0.138312
0.0063149
0.0156144
0.111118
0.0141303
0.00173227
0.131863
0.0365377
0.143024
0.00506185
0.0673999
0.116642
0.154662
0.0117778
0.00398977
0.160673
0.00702413
0.00335076
0.142303
0.0524849
0.0132846
0.00135791
0.0217127
0.00134342
0.0680381
0.124642
0.0965403
0.0021546
0.0132337
0.135816
0.00173164
0.0803986
0.0505438
0.0269087
0.00301853
0.0497348
0.00958544
0.0229493
0.0358222
0.00343644
0.112336
0.109347
0.0722966
0.0130859
0.0876032
0.0500012
0.156357
0.131799
0.00264026
0.0446267
0.00141959
0.156542
0.00162211
0.00135699
0.0725587
0.0537048
0.0214271
0.0247353
0.00370942
0.0105353
0.0017357
0.003075
0.0265629
0.11109
0.00275461
0.00138484
0.0689329
0.00345687
0.0753265
0.107114
0.074309
0.0580508
0.147686
0.0134221
0.00130669
0.0451493
0.153699
0.00319219
0.00270342
0.00739502
0.00227195
0.0652251
0.00206348
0.0078079
0.00560002
0.147933
0.103806
0.00753768
0.0013236
0.0905095
0.004404
0.00185146
0.0960021
0.0651105
0.125513
0.0175782
0.0680287
0.0105133
0.00263827
0.142131
0.0939544
0.139084
0.0433586
0.00496624
0.0020162
0.034194
0.00260578
0.0116303
0.094136
0.155215
0.0156243
0.152545
0.00327971
0.00304282
0.00811589
0.0107423
0.00155997
0.105743
0.00281547
0.00151241
0.00988344
0.00263394
0.156226
0.0507234
0.0377582
0.0268622
0.00248699
0.0108453
0.0517912
0.0229231
0.138091
0.00146703
0.108742
0.151548
0.00179666
0.00193896
0.0591674
0.0285701
0.011152
0.111724
0.106349
0.0109772
0.111671
0.00286137
0.15824
0.00238057
0.116417
0.0202923
0.0054268
0.112354
0.147589
0.0121398
0.0106188
0.101809
0.0500431
0.00856816
0.00368408
0.00216583
0.00720411
0.029245
0.154493
0.139573
0.0172616
0.122582
0.045274
0.136966
0.152367
0.00146366
0.0269972
0.00981789
0.0236644
0.0868284
0.130306
0.118812
0.0433457
0.0364292
0.00640827
0.0241653
0.00724299
0.0008806
0.0215741
0.00807668
0.00589693
0.00222038
0.00660213
0.155077
0.0207049
0.0170959
0.0278851
0.0071955
0.13929
0.0437968
0.00673703
0.00144728
0.0276073
0.00593211
0.00763602
0.00562598
0.00533506
0.0330905
0.0049061
0.00458607
0.00432527
0.00410755
0.00479469
0.00701852
0.0908714
0.130371
0.0147656
0.00588813
0.112637
0.00729566
0.00216003
0.0106932
0.00182566
0.154006
0.13326
0.122201
0.00298085
0.0378273
0.0530155
0.00599822
0.00631929
0.0545798
0.0781935
0.045642
0.0237513
0.00190512
0.155347
0.0235317
0.00461245
0.00150033
0.00614286
0.00200244
0.00874488
0.130957
0.00207176
0.125443
0.00210181
0.00147429
0.0513285
0.0151811
0.0121746
0.0627364
0.131276
0.0254315
0.0411363
0.139946
0.13071
0.00804525
0.00311282
0.0124147
0.060706
0.00349288
0.00787038
0.00180551
0.00157543
0.0659854
0.104957
0.0416105
0.175969
0.00196575
0.0530197
0.00299778
0.00634367
0.00337658
0.108087
0.14428
0.14324
0.00144893
0.137845
0.00229391
0.122848
0.00215991
0.0380466
0.0604479
0.0837744
0.144633
0.00596278
0.113118
0.14714
0.0550124
0.036152
0.00358023
0.00132975
0.0108858
0.00166842
0.179338
0.148342
0.0221927
0.0128397
0.00197879
0.00586302
0.0131052
0.0035258
0.00534923
0.0032533
0.170916
0.133372
0.140167
0.144833
0.00441767
0.0425379
0.124768
0.0252091
0.00420429
0.114279
0.105038
0.0305734
0.00138314
0.106455
0.035467
0.151545
0.00155646
0.120263
0.0720941
0.00465697
0.00582309
0.00353537
0.151442
0.0125383
0.0107493
0.00396851
0.00311927
0.114199
0.00451603
0.0723215
0.107598
0.0178478
0.0538603
0.0113852
0.0783547
0.0137946
0.0148532
0.00769468
0.00143061
0.00236008
0.00234249
0.129029
0.0112868
0.107604
0.004393
0.111373
0.0118634
0.0681113
0.0123378
0.153162
0.113208
0.15871
0.0242744
0.00149916
0.0042797
0.0644086
0.0271645
0.00511195
0.154718
0.105831
0.00246734
0.0190546
0.0112769
0.00352763
0.129834
0.00130817
0.155054
0.00285599
0.00171925
0.0527294
0.0235604
0.0164444
0.00561222
0.00616537
0.00216829
0.0495749
0.0426318
0.00332726
0.0514765
0.00724063
0.0328612
0.00506539
0.0113977
0.00293278
0.0178594
0.0387938
0.0393828
0.00156334
0.0107683
0.00337406
0.00113969
0.107071
0.152074
0.00150596
0.0021631
0.0946089
0.0453239
0.0219753
0.0581279
0.00273795
0.0419004
0.00145436
0.0294516
0.00143553
0.0111662
0.0611917
0.044277
0.00730876
0.00547216
0.15859
0.00591451
0.153215
0.0234139
0.0640199
0.154779
0.100019
0.0777145
0.00204924
0.00273397
0.148959
0.00242932
0.0444956
0.0984773
0.0921355
0.126143
0.052689
0.00315363
0.00181464
0.140146
0.026086
0.00749846
0.00883967
0.00403077
0.0061508
0.0280555
0.0162745
0.120847
0.155639
0.0463205
0.00196122
0.143751
0.00255519
0.00346644
0.0107409
0.00280498
0.00141091
0.133675
0.0014201
0.0118971
0.00850862
0.0712732
0.111493
0.0875433
0.00377375
0.0669112
0.0702985
0.120825
0.00244241
0.00433807
0.00789093
0.00386822
0.00391709
0.0023261
0.075931
0.097516
0.00759914
0.040667
0.0557306
0.0532371
0.0289287
0.112853
0.109069
0.0431283
0.0272383
0.0381578
0.0345382
0.149993
0.0613992
0.00495854
0.0373584
0.00227004
0.0390795
0.100203
0.00572566
0.00965121
0.127367
0.113369
0.0268154
0.0285948
0.00139971
0.0269713
0.0101031
0.0969915
0.105802
0.0254502
0.00203301
0.00733294
0.0362374
0.149424
0.00175537
0.0623236
0.110595
0.0067346
0.0197745
0.00792928
0.00148993
0.00653344
0.0263094
0.025162
0.00140821
0.0925565
0.0612065
0.0138173
0.153423
0.00781469
0.00954997
0.00528224
0.0322371
0.0639445
0.0189791
0.0036128
0.00724817
0.065212
0.00552397
0.00540993
0.0104157
0.058287
0.060675
0.00851258
0.011104
0.00281675
0.11243
0.0631385
0.00939561
0.0558643
0.00916578
0.00735791
0.0675887
0.00893529
0.153556
0.0100209
0.0558567
0.071151
0.0994105
0.117427
0.0020592
0.0035896
0.047114
0.0249617
0.00507661
0.059194
0.102195
0.0146356
0.00218608
0.00755581
0.00152727
0.0152543
0.0141453
0.0033003
0.00476488
0.0144715
0.0973033
0.00573747
0.0953071
0.0679845
0.00528306
0.00445034
0.0468383
0.0272595
0.0203968
0.029376
0.0280523
0.0042175
0.115313
0.00153097
0.0231565
0.136751
0.135105
0.136177
0.0464287
0.045039
0.128954
0.0241376
0.0673551
0.049151
0.152752
0.00651391
0.0434874
0.0107592
0.0273181
0.15585
0.133568
0.00970646
0.095007
0.00311574
0.0692671
0.0711634
0.0138042
0.011065
0.0622933
0.0643641
0.0115326
0.0267291
0.0126918
0.0109013
0.105463
0.00209803
0.0256405
0.0437802
0.0183191
0.00192859
0.134618
0.0115743
0.146321
0.0244976
0.108337
0.0335814
0.0923594
0.0693158
0.0900024
0.0109349
0.00126034
0.0126018
0.0717941
0.0283123
0.00142621
0.0328732
0.00384104
0.0058743
0.0764321
0.0138767
0.0733761
0.00373482
0.0277335
0.0283419
0.00137025
0.136718
0.0434356
0.0585614
0.0137158
0.04285
0.00708339
0.00181808
0.0769339
0.0888724
0.0640286
0.00187044
0.0498734
0.0392745
0.0100933
0.00158877
0.116272
0.0228395
0.00838824
0.0144126
0.147462
0.0128913
0.14117
0.0356189
0.11262
0.0505682
0.00492419
0.00704867
0.113408
0.0455086
0.00484524
0.0719879
0.0562867
0.0197509
0.0556868
0.0782434
0.0249649
0.0528031
0.0536104
0.113335
0.00779309
0.00496036
0.00396864
0.116116
0.00801546
0.00140407
0.00102621
0.153625
0.0743171
0.0199751
0.00638338
0.0534077
0.113999
0.0915073
0.13548
0.0543129
0.0189389
0.146202
0.00761871
0.0375959
0.126425
0.0474299
0.00784301
0.0133196
0.00483788
0.045015
0.0297829
0.0013776
0.0433669
0.0224394
0.00132654
0.00144009
0.00526812
0.00851223
0.00375163
0.10576
0.141645
0.0474817
0.003338
0.102299
0.120366
0.0027647
0.136827
0.152647
0.00791119
0.0449091
0.00119777
0.0166005
0.0154061
0.0364464
0.0137291
0.0444581
0.026007
0.0373465
0.128786
0.0235554
0.00143456
0.0800935
0.0978183
0.0225195
0.00142968
0.0460784
0.0462313
0.00190451
0.137621
0.0355811
0.00796086
0.134385
0.00188548
0.0239239
0.0519484
0.0151437
0.00695441
0.003322
0.0268027
0.011583
0.0139861
0.00963082
0.00826508
0.0747978
0.0143855
0.00615723
0.0427655
0.0100356
0.0514972
0.0286448
0.0016874
0.137509
0.0105185
0.00995031
0.0829012
0.0149151
0.0224439
0.0385884
0.0249879
0.0056628
0.0378123
0.0146383
0.0465122
0.0079905
0.106178
0.00142396
0.0123677
0.122065
0.0472997
0.118189
0.137182
0.134143
0.0789393
0.0736393
0.0229481
0.0244236
0.0596725
0.148634
0.149833
0.147309
0.00781271
0.138477
0.0624372
0.0400609
0.0402511
0.0186932
0.102908
0.0291614
0.0258685
0.0365648
0.0498543
0.0610735
0.00486152
0.0818674
0.0116446
0.0222322
0.00561664
0.0183282
0.0822408
0.00811146
0.0138168
0.00140438
0.00175065
0.0235971
0.0508747
0.0261526
0.0153584
0.00988092
0.153181
0.121948
0.0122912
0.153356
0.0405779
0.0550032
0.0407118
0.0477961
0.0109042
0.0388535
0.0512043
0.114881
0.159573
0.0046309
0.0362636
0.0894248
0.00599863
0.00778672
0.10626
0.0188941
0.103819
0.0613474
0.0775701
0.0451123
0.0754851
0.10436
0.0868861
0.073634
0.0038797
0.129686
0.10622
0.0820721
0.0439649
0.00381071
0.00179931
0.0423105
0.0379747
0.00138769
0.0783767
0.101484
0.0879755
0.0154801
0.140399
0.0637652
0.0673413
0.00958872
0.0815147
0.0212314
0.0636455
0.0364179
0.00149076
0.101892
0.0416271
0.010162
0.0198754
0.0185733
0.118656
0.0556143
0.0223367
0.0284289
0.0276173
0.0378549
0.0123978
0.00789534
0.13949
0.00892878
0.0536843
0.131367
0.0460552
0.00219558
0.105062
0.136396
0.0287261
0.0676068
0.0422235
0.102595
0.0485847
0.0272949
0.0562298
0.0393339
0.0177685
0.0370075
0.152796
0.00318643
0.00327761
0.0738246
0.100244
0.00628722
0.141172
0.0518458
0.0695672
0.00748322
0.168146
0.145895
0.0208265
0.0411631
0.00273723
0.0635195
0.149277
0.0269808
0.136537
0.00177496
0.0665681
0.0421432
0.0464962
0.013791
0.00945904
0.0259326
0.0530783
0.00978041
0.0750742
0.139534
0.0303207
0.0471604
0.0256734
0.0988202
0.0632735
0.0443434
0.0822467
0.0129527
0.00819765
0.00214131
0.0790705
0.0440146
0.127001
0.00299959
0.00199412
0.0679665
0.0782945
0.0263606
0.0232625
0.0067811
0.0673608
0.0235714
0.0219457
0.0142913
0.146826
0.00829808
0.0113174
0.0484771
0.048418
0.059482
0.0134296
0.0520204
0.151624
0.0233441
0.0128307
0.153839
0.0470043
0.00998023
0.152173
0.0738184
0.056545
0.0207867
0.00708474
0.0179255