/*--------------------------------*- C++ -*----------------------------------*\
| =========                 |                                                 |
| \\      /  F ield         | OpenFOAM: The Open Source CFD Toolbox           |
|  \\    /   O peration     | Version:  v2012                                 |
|   \\  /    A nd           | Website:  www.openfoam.com                      |
|    \\/     M anipulation  |                                                 |
\*---------------------------------------------------------------------------*/
FoamFile
{
    version     2.0;
    format      ascii;
    class       volScalarField;
    location    "500";
    object      k_0;
}
// * * * * * * * * * * * * * * * * * * * * * * * * * * * * * * * * * * * * * //

dimensions      [0 2 -2 0 0 0 0];


internalField   nonuniform List<scalar> 
13917
(
0.0216479
0.000191865
0.00145467
0.000151622
0.000201466
0.000190747
0.000166897
0.00745568
0.00016148
0.00684637
0.00331136
0.000148403
0.000166908
0.0151737
0.000168782
0.0186656
0.000153724
0.00163743
0.000302172
0.0218071
0.000189284
0.000151384
0.000201612
0.000151558
0.00015575
0.000197331
0.00127141
0.00509178
0.000269075
0.000139666
0.00444716
0.000221269
0.000151431
0.0333817
0.00014594
0.00703327
0.000156577
0.000166001
0.000166858
0.000199124
0.000153633
0.000158681
0.00015762
0.00027979
0.000281466
0.000391929
0.000183226
0.0106184
0.0150801
0.000146193
0.000148136
0.000307607
0.0144371
0.000147086
0.000147541
0.000308977
0.00504034
0.000201963
0.000157102
0.000381314
0.0615453
0.000291914
0.000147531
0.000155069
0.0158442
0.000558346
0.000319795
0.00560652
0.00497275
0.0223695
0.0126506
0.0313374
0.000148909
0.000153322
0.000192226
0.00015704
0.000172363
0.00015218
0.00015634
0.000151789
0.000150407
0.000154087
0.000148796
0.0322189
0.000141723
0.0164445
0.000218698
0.000145059
0.000198571
0.000152228
0.000140274
0.000157893
0.0165597
0.000143357
0.00014959
0.000336462
0.015438
0.000152402
0.000144379
0.000604546
0.000153028
0.000151275
0.000150471
0.000144402
0.00017246
0.0659961
0.0149856
0.000278562
0.000165243
0.00101388
0.000145505
0.0334958
0.000271089
0.0112384
0.0164797
0.000158434
0.000288857
0.000141069
0.000392478
0.000147836
0.000151903
0.000147826
0.000674452
0.000280022
0.0267058
0.0336109
0.000154437
0.000199952
0.000145114
0.000279986
0.000176477
0.000347659
0.0656611
0.000158185
0.000236825
0.0033157
0.0597474
0.0293135
0.00020767
0.00016546
0.00773872
0.000149504
0.0661345
0.000144306
0.000148127
0.00023535
0.0140506
0.0142667
0.0114538
0.000147348
0.00019135
0.000150135
0.000147848
0.000147882
0.016794
0.000160785
0.000143886
0.0668393
0.000148561
0.000143255
0.000142054
0.002841
0.000161715
0.00665073
0.0044218
0.00160895
0.00683025
0.0253357
0.000130701
0.000222589
0.000153162
0.0578611
0.000161159
0.0421049
0.000239821
0.00014925
0.000151644
0.000321152
0.000175161
0.00016326
0.000157461
0.000152268
0.000148048
0.000425425
0.000379359
0.000364336
0.000147823
0.000424122
0.000139802
0.0197631
0.000240703
0.000269705
0.000359482
0.0217571
0.000143347
0.0266872
0.000164957
0.0669092
0.000145504
0.000158387
0.000176836
0.0219179
0.0249929
0.000154656
0.000731436
0.000189444
0.000192166
0.000149582
0.000321332
0.000150618
0.000141063
0.000232498
0.00024091
0.0106244
0.000233021
0.000206048
0.0122173
0.000154832
0.000137827
0.000137638
0.0228619
0.000387523
0.000461776
0.000143566
0.000149155
0.00520771
0.023378
0.000136906
0.000136667
0.000153035
0.000138097
0.000137938
0.0295499
0.00871249
0.000150476
0.000130951
0.000248981
0.0312978
0.000149676
0.000143533
0.000933233
0.0693728
0.000401575
0.0140921
0.000271434
0.000144349
0.0109368
0.00025333
0.000239802
0.00024387
0.000153916
0.00968792
0.000148096
0.000201837
0.000231883
0.000151635
0.000153508
0.000155001
0.000198494
0.000146969
0.0340384
0.00879457
0.000147271
0.000136632
0.000161778
0.00013668
0.000148107
0.000167452
0.000190343
0.00014907
0.0353559
0.0135327
0.000145943
0.000182823
0.000412813
0.000136207
0.000521012
0.0382452
0.000136302
0.0265639
0.000146512
0.0023027
0.000150954
0.000163908
0.00015224
0.000144451
0.000365454
0.00015772
0.00152357
0.000172317
0.0105602
0.000246723
0.000584406
0.0289022
0.000143961
0.000213236
0.00019946
0.000159231
0.000199769
0.000156228
0.000144134
0.000153634
0.000310819
0.0076962
0.000199577
0.000155612
0.000143362
0.06716
0.0186469
0.000143753
0.000325839
0.000159424
0.000414089
0.000289111
0.0168924
0.0225518
0.000362021
0.000329045
0.00018062
0.0280561
0.000467057
0.00180921
0.000166178
0.000168635
0.000937718
0.000156477
0.000204018
0.000270198
0.000152595
0.0568477
0.000142045
0.000184676
0.000141309
0.0139878
0.000139608
0.00019472
0.000193794
0.000342468
0.000150144
0.000242446
0.0580154
0.000149139
0.000156665
0.0350128
0.0616237
0.00102478
0.0147448
0.000135959
0.000149397
0.0721325
0.000319562
0.000136118
0.000201765
0.000147368
0.000285999
0.000196478
0.000311686
0.000269228
0.000477091
0.000186266
0.0277507
0.000145707
0.000149164
0.000211486
0.00038314
0.000151797
0.0201443
0.00018554
0.00709234
0.000147777
0.000299223
0.000332352
0.0174933
0.000162742
0.00045882
0.000420609
0.000205061
0.000146172
0.00104154
0.000145309
0.00586502
0.000377579
0.000165163
0.0168802
0.000155207
0.00713704
0.000139808
0.0215749
0.00648542
0.000155312
0.00236289
0.000396261
0.000152661
0.00201034
0.0321171
0.000154025
0.000374275
0.000148283
0.000554316
0.000949529
0.000142224
0.000164529
0.000155596
0.000143877
0.000140816
0.000146614
0.0560153
0.000675033
0.000148365
0.000147232
0.000150061
0.000212211
0.00178779
0.00013768
0.000130858
0.000286021
0.000295265
0.000144792
0.000154824
0.00177751
0.0193925
0.000530151
0.000308799
0.0252196
0.000144824
0.000136971
0.000178834
0.000140705
0.000137743
0.000150896
0.000137037
0.000143749
0.00766647
0.000148509
0.000204957
0.0383472
0.000213169
0.000141338
0.00014757
0.00199021
0.000176969
0.0234637
0.000139754
0.000143636
0.000145983
0.000138337
0.000155978
0.000156916
0.00164679
0.000498083
0.0691638
0.000143576
0.000183341
0.000107527
0.0001505
0.000269139
0.0010053
0.000147212
0.0229932
0.000141833
0.000144048
0.000149738
0.00015483
0.000140455
0.000149174
0.0655757
0.0537496
0.000140218
0.000588628
0.000287419
0.000149072
0.000220321
0.000211414
0.00318433
0.000166206
0.0644536
0.0105138
0.0102581
0.000156488
0.000435372
6.11733e-05
0.000153294
0.000639011
0.000141764
0.000146825
0.000149568
0.000163031
0.000186291
0.000353337
0.00021167
0.000215896
0.000187458
0.00230007
0.000227974
0.000148346
0.0162735
0.000188275
0.000172355
0.00835952
0.000141775
0.00023122
0.000338673
0.000139941
0.0623793
0.000144895
0.000138274
0.000214835
0.000139781
0.000152642
0.000303377
0.0713309
0.00791567
0.000141956
0.00015268
0.000196024
0.000617519
0.000542901
0.000147927
0.000147308
0.000141757
0.000225343
0.00929731
0.000145553
0.000150035
0.000157654
0.000143409
0.000194476
0.000172486
0.000144032
0.000212944
0.000139949
0.000150033
0.000155037
0.0217325
0.00013699
0.000157553
0.000146847
0.000181221
0.000235311
0.000550176
0.000235594
0.000706565
0.000153854
0.000566441
0.0661899
0.00657057
0.0434859
0.0001426
0.000149602
0.000232428
0.000144851
0.0208313
0.000136619
0.00151319
0.00016496
0.0545548
0.000569741
0.000157666
0.0140806
0.000140105
0.000206764
0.000150828
0.000163214
0.0550178
0.000138639
0.00733467
0.000151476
0.000156066
0.000149946
0.000341744
0.000209883
0.000136177
0.000276883
0.000218669
0.00611344
0.0123583
0.0699703
0.0033797
0.000137036
0.0236712
0.000141278
0.0609324
0.0126477
0.000181966
0.00042157
0.000152566
0.000187348
0.000156685
0.000138686
0.000150889
0.000165063
0.0101832
0.00014233
0.000212355
0.000146573
0.000135996
0.000147922
0.000365601
0.00097385
0.014576
0.000236866
0.000171997
0.000546401
0.0331035
0.000140264
0.000747348
0.000163425
0.000233542
0.000144798
0.00124106
0.000143189
0.00021882
0.000148418
0.00878683
0.000190416
0.0137567
0.000144787
0.000187773
0.000146531
0.000154093
0.0278085
0.00575849
0.000148292
0.000328638
0.000143361
0.000161719
0.000152505
0.0288128
0.000142344
0.000201919
0.000136566
0.000147233
0.000386559
0.000151047
0.000314686
0.000154186
0.000139754
0.0619236
0.000214471
0.00014763
0.0126717
0.00620492
0.00535288
0.000337722
0.000139891
0.000173913
0.0219514
0.0276252
0.00017521
0.000156658
0.000234556
0.000151868
0.000146821
0.000285943
0.00024326
0.000161963
0.0188712
0.000191214
0.00673199
0.000579255
0.00508695
0.000190785
0.000353154
0.0280967
0.000144154
0.000308334
0.000274045
0.000139859
0.000145593
0.000148007
0.000205854
0.000151696
0.0240062
0.000177485
0.0001423
0.00026058
0.000143793
0.0158873
0.000146603
0.000144974
0.0687576
0.000229175
0.00330284
0.000149327
0.000159454
0.000144033
0.000151178
0.000170794
0.000144788
0.0262953
0.000178098
0.00829004
0.00400414
0.000263043
0.0708676
0.00015273
0.000149325
0.000147216
0.0401425
0.00268679
0.000166219
0.0261977
0.001987
0.000139751
0.000144256
0.000155945
0.0607744
0.00646823
0.000191289
0.000150999
0.000157581
0.000233981
0.000174648
0.000311678
0.000178258
0.000149265
0.000151883
0.00015028
0.0001707
0.000191431
0.0378541
0.00016038
0.000198884
0.0259254
0.000174395
0.00207409
0.000155777
0.000176413
0.000164452
0.0225982
0.000151831
0.000201898
0.000917505
0.00684413
0.000145137
0.000160479
0.000157934
0.000143753
0.000148218
0.000223733
0.000350698
0.000356138
0.000314826
0.000139558
0.0441519
0.000161385
0.000163324
0.000334606
0.000149834
0.000207231
0.00997129
0.000136136
0.000229208
0.000253891
0.00017805
0.00014376
0.000140809
0.000146655
0.0196399
0.000151147
0.000148758
0.000184554
0.000145135
0.000142056
0.000300509
0.00644861
0.000231085
0.0211491
0.000263351
0.0745219
0.000148222
0.000175424
0.000515456
0.000185492
0.000711585
0.000150519
0.000145023
0.000149118
0.000161728
0.000566961
0.000143672
0.00520715
0.000156348
0.0144955
0.000155979
0.000165904
0.00014115
0.000246386
0.000164046
0.00149192
0.000237734
0.000155568
0.018882
0.0001522
0.0317957
0.000155961
0.00498978
0.00016999
0.000141605
0.000144916
0.0491405
0.000170717
0.00375833
0.017742
0.000143645
0.000178972
0.00013077
0.000197757
0.00839685
0.00013109
0.0062354
0.000157723
0.0068684
0.00028663
0.000334284
0.000138191
0.000144673
0.000276062
0.000139776
0.000146926
0.000153348
0.00014939
0.000185375
0.000138033
0.0197731
0.000149349
0.021035
0.0317994
0.000439507
0.071949
0.0221315
0.0186477
0.00039374
0.000139111
0.000161015
0.00014676
0.000151826
0.000141842
0.000170886
0.000143093
0.00244937
0.000147176
0.017369
0.000150779
0.000171332
0.000267341
0.000142845
0.000206094
0.000152173
0.000163736
0.000165223
0.00014515
0.0750099
0.000251484
0.00609281
0.000143618
0.000145307
0.000154522
0.00015726
0.00445357
0.000139357
0.00132723
0.000142821
0.0105902
0.000164483
0.000143888
0.000204254
0.000338731
0.000139509
0.00347501
0.00071331
0.000155586
0.000244226
0.00013954
0.00114912
0.000158302
0.000157109
0.0259067
0.000147528
0.000151988
0.000260999
0.0249873
0.000158206
0.000380337
0.000624914
0.000163146
0.000161822
0.00014978
0.0206804
0.000145015
0.000292027
0.000147927
0.0642393
0.000164335
0.000743308
0.000147356
0.000139069
0.00843931
0.000155573
0.00016919
0.0665238
0.000152448
0.00014092
0.000626087
0.000165063
0.000161167
0.000242935
0.000153478
0.0200901
0.00019967
0.00021377
0.000324139
0.000157381
0.061194
0.000150167
0.000235489
0.000144103
0.0378395
0.0105892
0.0001497
0.000158155
0.000156106
0.000147918
0.000150752
0.000144679
0.000147647
0.000144773
0.000173955
0.000136133
0.000151845
0.000231333
0.00490998
0.00179699
0.000251136
0.000154394
0.00936156
0.000142603
0.000523121
0.00934465
0.00801398
0.00013747
0.000139233
0.000146217
0.000147129
0.000137153
0.000146187
0.000142805
0.000192796
0.000140977
0.0189888
0.000509071
0.000141779
0.0486087
0.000144234
0.000146833
0.000252629
0.0279165
0.000242305
0.000146319
0.00388727
0.000144427
0.000146505
0.0487291
0.000161841
0.0201723
0.000152399
0.00967172
0.000141457
0.00014846
0.000177944
0.000334656
0.000153538
0.0361003
0.000873686
0.000158812
0.000163446
0.000145382
0.000140547
0.000241799
0.000175393
0.000161337
0.0438739
0.0186549
0.000322363
0.000248402
0.000147241
0.0444595
0.000147849
0.0176647
0.000228514
0.00016461
0.000152713
0.00104268
0.00851553
0.0606636
0.00017172
0.0151231
0.000151249
0.000143091
0.000176967
0.000149048
0.000147665
0.000413063
0.0250223
0.000148453
0.000164775
0.0316084
0.000150392
0.000136216
0.00150521
0.0110358
0.000151364
0.00014293
0.000165819
0.000147253
0.000145687
0.000222736
0.000159579
0.000146485
0.00585887
0.000174422
0.00700632
0.00786497
0.000551937
0.0379038
0.000149531
0.000150469
0.00290634
0.0246696
0.00517309
0.000409306
0.000181016
0.000150456
0.000152516
0.0001589
0.00146399
0.000218372
0.000158924
0.000207815
0.000144022
0.00670101
0.000245432
0.000271367
0.00020003
0.000502494
0.00632962
0.0010117
0.0464573
0.000166281
0.000493816
0.000136465
0.000222215
0.000249938
0.00909903
0.000160668
0.000163241
0.000163383
0.00312296
0.000152631
0.002752
0.0001864
0.000259334
0.00471972
0.000144901
0.000236086
0.000154692
0.000147382
0.000269674
0.0063867
0.000140768
0.00013897
0.000152911
0.0637921
0.000141008
0.000152461
0.000156588
0.000150089
0.000146212
0.000264156
0.000207453
0.000158592
0.000143016
0.0191522
0.00277492
0.000183463
0.0633653
0.000149524
0.000144748
0.0122156
0.00014863
0.000153151
0.0460407
0.0401446
0.000191757
0.000222407
0.000162832
0.0220013
0.008794
0.000182386
0.00914302
0.000144908
0.000253038
0.00452474
0.000430292
0.00685811
0.0144424
0.00014304
0.00014978
0.000165465
0.000146411
0.000150543
0.0390162
0.000147621
0.000202436
0.00013758
0.000198268
0.00229675
0.000153525
0.000632884
0.0219955
0.000144796
0.000213685
0.000160459
0.000152357
0.000143797
0.0444907
0.000236931
0.0270539
0.000168339
0.054518
0.000256993
0.00015731
0.000517221
0.000186535
0.000257759
0.00014417
0.000343878
0.000143869
0.000161778
0.000196508
0.000158971
0.000150611
0.000211127
0.000671703
0.000142171
0.000317314
0.00995094
0.000147036
0.000142481
0.000258721
0.0639137
0.000493463
0.00014084
0.000169934
0.000257211
0.00034597
0.0250103
0.000147291
0.000140842
0.000142978
0.000145425
0.000168003
0.000155322
0.0639423
0.000157965
0.000159443
0.00619956
0.000364174
0.00025136
0.00918518
0.0550281
0.00014952
0.00014588
0.000140444
0.000151366
0.000207475
0.0762667
0.00566389
0.000271954
0.000175173
0.000203249
0.000156477
0.00115775
0.000160648
0.000274323
0.000143232
0.00510874
0.000338765
0.00014005
0.000149222
0.0375486
0.000208304
0.00534436
0.00537014
0.000293891
0.000144178
0.000389945
0.000162007
0.000142345
0.000799567
0.00694038
0.000143312
0.00019142
0.000288237
0.000185688
0.000151402
0.000137856
0.000142598
0.000140964
0.00014366
0.000174874
0.000218767
0.0314188
0.000186834
0.00016392
0.000174917
0.000252679
0.000142489
0.000186604
0.000440585
0.0235584
0.0123832
0.000151694
0.000137704
0.0399445
0.00014174
0.00511031
0.000154226
0.000205939
0.000148378
0.000142161
0.0214533
0.000165519
0.000151521
0.000145188
0.00141134
0.00513146
0.033358
0.000154509
0.000149015
0.0164423
0.000143078
0.000145524
0.000311938
0.00936149
0.000166451
0.000181621
0.000151095
0.0555784
0.000142537
0.000162306
0.000150589
0.000137471
0.0227298
0.000142535
0.000140704
0.000422393
0.000207409
0.000769556
0.00383641
0.000141982
0.000174332
0.000142162
0.000143535
0.00016505
0.00015238
0.000146928
0.0150441
0.000147163
0.000241293
0.00024555
0.000320446
0.000147536
0.000233827
0.000145827
0.0461429
0.000139549
0.00907117
0.000225318
0.00015512
0.000206224
0.000181318
0.000175214
0.00014601
0.000202616
0.00014167
0.000140103
0.00494671
0.000178204
0.000258791
0.000143478
0.000145013
0.000148829
0.00441086
0.000143881
0.0112771
0.000203688
0.000149112
0.000143052
0.000139323
0.000203665
0.00667247
0.0162632
0.000899738
0.00634328
0.000323681
0.000265577
0.000155222
0.0013758
0.000137567
0.000139207
0.000160859
0.00658482
0.000139485
0.0365563
0.000147386
0.000144508
0.00031728
0.000357934
0.0218517
0.00597852
0.000163798
0.000334682
0.00632545
0.000144065
0.00151868
0.00014435
0.00014966
0.000498738
0.000138634
0.0350859
0.00341682
0.000142634
0.000144976
0.000144633
0.0701408
0.000150119
0.00013788
0.000231233
0.000142049
0.000141697
0.000162617
0.000144616
0.000194816
0.000148571
0.000173166
0.000138669
0.000684384
0.000308124
0.000138878
0.000138983
0.000151027
0.000142899
0.00015777
0.000155034
0.000146496
0.000148867
0.00014387
0.00015087
0.000145939
0.00101289
0.000139376
0.000246899
0.000150877
0.000210419
0.000140524
0.00014683
0.000144471
0.000139318
0.000191849
0.000164089
0.000160747
0.00081846
0.00378741
0.0637349
0.0120099
0.0002431
0.0743707
0.00014956
0.000145682
0.00144523
0.0118983
0.000150001
0.0336934
0.000139733
0.000266042
0.00105106
0.000157473
0.000254358
0.00982647
0.00127147
0.000144902
0.000197105
0.000142024
0.000559193
0.000159155
0.0437218
0.0208451
0.00014768
0.000297671
0.00053351
0.000154967
0.000605317
0.00486194
0.000153946
0.000140848
0.000502253
0.04024
0.000144125
0.000175417
0.000148868
0.00141318
0.000302874
0.000146305
0.000140835
0.0488995
0.00014293
0.000144869
0.000150996
0.00013916
0.000553826
0.000176635
0.000170972
0.0464952
0.000143696
0.000329959
0.000148785
0.000281049
0.00021834
0.000535275
0.000140264
0.000168316
0.000144245
0.000146497
0.000156861
0.000145733
0.000635594
0.000151829
0.00013964
0.000142191
0.00573377
0.000140758
0.00666912
0.000948827
0.000650946
0.000151117
0.000141567
0.000142615
0.000402876
0.000147723
0.0668389
0.000145324
0.0192617
0.000153013
0.000163999
0.0113829
0.000146785
0.00015225
0.0382044
0.000290401
0.0343625
0.000152072
0.0559563
0.0148253
0.000147138
0.0372012
0.000147956
0.000160831
0.0209787
0.000154075
0.000207876
0.0259614
0.000170869
0.000230088
0.000147308
0.0519783
0.000144674
0.00771439
0.000142606
0.0258911
0.000144934
0.000146023
0.00016867
0.0151802
0.000141994
0.00302868
0.000248965
0.00499208
0.000142965
0.000171984
0.0565687
0.000801113
0.000419151
0.000247355
0.000140538
0.000300045
0.0190591
0.000155085
0.000552943
0.000139391
0.000349672
0.0211032
0.000142419
0.0252546
0.000143079
0.0549358
0.000527082
0.000156523
0.000166633
0.00940759
0.00256126
0.000144933
0.000153822
0.000139326
0.000146666
0.0335018
0.000230102
0.0267334
0.00015283
0.000168648
0.0365375
0.000638956
0.000358536
0.060643
0.000141714
0.00014405
0.00172391
0.00200434
0.000517904
0.00724795
0.0171852
0.0001982
0.00177278
0.0495193
0.00354627
0.00984132
0.000140856
0.000252244
0.000202335
0.000239013
0.00014526
0.00016291
0.000224883
0.00411552
0.00026055
0.000165865
0.0150273
0.0443294
0.000222566
0.000144496
0.000144594
0.0090536
0.000141927
0.0681922
0.000170439
0.000175509
0.000327006
0.00217695
0.000138751
0.000187658
0.000173277
0.000145593
0.0711345
0.000220038
0.0737888
0.000142945
0.0371029
0.00331379
0.00140763
0.000139589
0.000164949
0.000172857
0.016195
0.000281038
0.000225257
0.0320851
0.0183591
0.000131555
0.000163351
0.000156684
0.000317279
0.0235151
0.000144212
0.000138483
0.000152727
0.000379938
0.0146536
0.000142955
0.000216159
0.000321196
0.000140842
0.00173199
0.000155311
0.0723519
0.000168624
0.00585892
0.0698059
0.00017064
0.000156362
0.00056554
0.00014248
0.000243014
0.0163907
0.000166314
0.000421205
0.000171659
0.000208646
0.00173269
0.0522356
0.000146987
0.0181672
0.0185501
0.000138628
0.000291567
0.000233807
0.000285659
0.000614057
0.000548745
0.00128701
0.000289298
0.0109781
0.000166544
0.000205936
0.000141163
0.000149127
0.000146168
0.000141404
0.0162621
0.0107831
0.000140648
0.000199856
0.000572702
0.000142352
0.0065616
0.0146536
0.0001406
0.00014747
0.000143143
0.00015067
0.000193379
0.000144634
0.0435881
0.000172867
0.000239154
0.000159541
0.000235453
0.00107625
0.000179091
0.0152079
0.00014559
0.000151127
0.000140395
0.000142013
0.0568815
0.000230217
0.000170449
0.059946
0.000153712
0.000149834
0.000176106
0.000139878
0.000147674
0.000279026
0.000162648
0.0286342
0.000756224
0.0506832
0.000147518
0.051272
0.000143003
0.0316085
0.000138538
0.000325109
0.00155505
0.000145234
0.000363603
0.0317823
0.000181193
0.000151027
0.000142254
0.000168443
0.000932435
0.000138893
0.000149332
0.000155026
0.000166924
0.00460231
0.000155352
0.0001635
0.000141551
0.000153791
0.000560011
0.000183995
0.000160463
0.000317636
0.00987327
0.0442815
0.0092715
0.00015759
0.000151191
0.0195412
0.000145464
0.000228947
0.00014809
0.0398208
0.000156567
0.00015577
0.000214958
0.00181152
0.000144044
0.000140301
0.000137462
0.000256064
0.0192048
0.000290382
0.000144929
0.00015484
0.000141064
0.0467245
0.000149343
0.00725211
0.000207048
0.000153706
0.00039219
0.000176274
0.00662398
0.000150801
0.000145158
0.00017587
0.000210166
0.000330777
0.000148857
0.000148411
0.00015449
0.0281477
0.000146433
0.000152939
0.0485
0.000153007
0.000202504
0.000160314
0.000144396
0.000145132
0.00778647
0.00015584
0.00567204
0.00554573
0.000135344
0.0116713
0.000148429
0.000285789
0.000211154
0.000153607
0.000139625
0.000135224
0.000144498
0.0177892
0.000196579
0.0457148
0.0107904
0.000141951
0.000980731
0.000197729
0.0183285
0.00014466
0.00896513
0.050857
0.0376059
0.000143256
0.000154388
0.000150151
0.000363581
0.0540336
0.000175628
0.0001457
0.000175274
0.0437964
0.000148332
0.0001548
0.000152126
0.000261855
0.000777458
0.000137552
0.00225936
0.000176039
0.000144353
0.0007372
0.000208413
0.0141546
0.0106494
0.000180546
0.000160887
0.0001543
0.000162778
0.000149193
0.000936032
0.000229909
0.000146364
0.000159728
0.0066582
0.000839172
0.00013872
0.000275333
0.0474744
0.0201103
0.000148376
0.000146725
0.00530002
0.0308173
0.00104056
0.000145511
0.0432137
0.000207714
0.000136324
0.0310147
0.000167494
0.00014874
0.00035861
0.000149486
0.00185923
0.000141175
0.000133909
0.000151679
0.000137451
0.0136686
0.000139238
0.000142099
0.000246612
0.000160479
0.000156047
0.000321014
0.000146124
0.000144999
0.000152848
0.000150875
0.00585903
0.00681238
0.0144378
0.0176373
0.000229918
0.00667592
0.000249735
0.00839002
0.00285427
0.0081223
0.000141316
0.000170749
0.000144903
0.000147386
0.000142756
0.000162725
0.0109017
0.000204753
0.00020041
0.000142213
0.000144113
0.00019803
0.000149016
0.000148478
0.000146373
0.050698
0.000178149
0.0179652
0.000147285
0.00510219
0.00014868
0.000155201
0.000153317
0.0001911
0.000142639
0.000261114
0.0318885
0.000206755
0.0379893
0.0097921
0.000161003
0.00016865
0.0051712
0.000283277
0.000140916
0.000142649
0.000135411
0.0134542
0.000134098
0.00136806
0.000276351
0.000248608
0.0142229
0.014813
0.000221137
0.073071
0.000144319
0.000137198
0.00492784
0.0595334
0.000145016
0.000147323
0.00801747
0.000140936
0.000370426
0.000154634
0.000148775
0.000160616
0.000146239
0.000241306
0.0255051
0.030003
0.000160765
0.00014542
0.000284201
0.000152439
0.000247298
0.000141173
0.000305985
0.000238799
0.0001483
0.000148499
0.000135634
0.000301546
0.000382015
0.00663122
0.000566341
0.000174424
0.0337113
0.000229932
0.000251902
0.0472583
0.000143173
0.00904265
0.000151378
0.0503867
0.0158729
0.00842763
0.0291833
0.000155112
0.000216154
0.00524423
0.000150219
0.0260528
0.000145851
0.000146123
0.000163467
0.000150738
0.000174071
0.0444777
0.0491883
0.0361268
0.000164001
0.000204077
0.000151358
0.000155353
0.000148424
0.000295478
0.000249587
0.0166297
0.00020514
0.000140877
0.000139454
0.000152931
0.0279692
0.000155457
0.000156471
0.000160971
0.000426223
0.000175809
0.000215868
0.00022942
0.00846507
0.000173471
0.00017839
0.000144719
0.000163561
0.000370019
0.00945197
0.000233087
0.000139943
0.000749795
0.000181075
0.000145075
0.000207204
0.0320644
0.00914591
0.000183441
0.000141054
0.0033128
0.000148555
0.000140906
0.000141257
0.000506965
0.000605947
0.000160902
0.000622337
0.00948085
0.000166661
0.000228504
0.000224972
0.0725941
0.000176863
0.0506405
0.000148821
0.00792304
0.000237151
0.0650967
0.000181428
0.00014175
0.0412275
0.000146104
0.000150427
0.0165059
0.0634635
0.00847613
0.000390942
0.000159059
0.000153318
0.00621524
0.00014483
0.000142103
0.000147035
0.000203431
0.000144474
0.000172201
0.000166606
0.00918198
0.0343162
0.000151294
0.0275221
0.000165776
0.0399009
0.0379548
0.000146713
0.000148773
0.000162303
0.0176352
0.0108466
0.000234072
0.0329536
0.00363792
0.0168429
0.000155782
0.0600854
0.0191757
0.000295878
0.0043562
0.000146927
0.000148666
0.000147035
0.000150593
0.000142842
0.000178792
0.031988
0.000180654
0.00565343
0.0083684
0.0670393
0.043308
0.0458863
0.000175233
0.0638152
0.000296676
0.000229355
0.000138312
0.000150619
0.000228011
0.0332287
0.000161228
0.0010895
0.041085
0.000141982
0.000147423
0.000151277
0.000287531
0.000148915
0.000242114
0.0115675
0.000138495
0.000144015
0.000141587
0.000151055
0.000253372
0.0319685
0.000193207
0.0540701
0.000278353
0.00014231
0.00516177
0.000307633
0.000151566
0.0152986
0.024014
0.0113605
0.000425398
0.0336163
0.000149124
0.0318875
0.0361643
0.000312972
0.0385385
0.000142288
0.000153175
0.000156505
0.000156036
0.0442091
0.000233273
0.000148468
0.000167839
0.00941424
0.0385521
0.000154087
0.000239481
0.0673618
0.0427611
0.0001489
0.000168597
0.000285794
0.000143388
0.00014429
0.000919301
0.000142347
0.033978
0.00516917
0.0522743
0.000142443
0.000287729
0.000347087
0.000144642
0.000138115
0.00203438
0.000546326
0.000156334
0.0001811
0.00038227
0.0180871
0.0593581
0.000591701
0.000162918
0.00532183
0.00569144
0.000185795
0.00014155
0.00103656
0.000137145
0.000139517
0.028881
0.000196247
0.000269919
0.000159636
0.00020524
0.00014196
0.000138749
0.000151027
0.000152017
0.000717158
0.000158821
0.000533266
0.02711
0.000203655
0.000238262
0.000991339
0.0593137
0.000739702
0.00015416
0.000160946
0.000187034
0.000162133
0.000357204
0.00615146
0.000150987
0.0005406
0.0403035
0.000164954
0.000254032
0.000245027
0.00026239
0.000273243
0.000153689
0.000290215
0.000298415
0.00027388
0.00042159
0.000271779
0.000256381
0.000191057
0.000141579
0.000180554
0.000256215
0.000142518
0.000480315
0.0683522
0.000339592
0.0338176
0.000137146
0.000140374
0.00819161
0.00673193
0.000151679
0.000154697
0.000204447
0.059569
0.00763094
0.00014578
0.000171224
0.000162095
0.0134314
0.0102347
0.000158219
0.000500014
0.0378392
0.000275336
0.0438313
0.000273451
0.00928314
0.0647619
0.000130635
0.0701699
0.0461717
0.000150879
0.000236517
0.0002687
0.000161227
0.000141182
0.0155148
0.0136546
0.000145841
0.000146346
0.00167118
0.025328
0.0002483
0.000147511
0.00736373
0.000330015
0.0421333
0.0389542
0.000147132
0.000143889
0.000151376
0.000157493
0.0445891
0.0111651
0.00881627
0.000246716
0.0107101
0.0083351
0.000158208
0.000141618
0.0391338
0.000142104
0.0582307
0.000147833
0.0457365
0.000152761
0.000150231
0.000205801
0.000145929
0.00028356
0.00966571
0.00016666
0.00015376
0.000153295
0.00707631
0.0308029
0.000306215
0.0415721
0.000166869
0.000156706
0.000168695
0.000243884
0.0759326
0.060162
0.000267654
0.00324825
0.000306249
0.00560551
0.000168739
0.000142561
0.000138655
0.000138344
0.000460623
0.000628907
0.00343181
0.000205265
0.000322189
0.000144185
0.00715534
0.0125273
0.0146674
0.0001448
0.00015388
0.000134107
0.039533
0.00125024
0.0143535
0.000453318
0.000300091
0.00679953
0.000135519
0.000187398
0.000304478
0.000488719
0.0199414
0.000145786
0.000312574
0.000149652
0.000154218
0.000346464
0.0130717
0.000407913
0.000149147
0.000257132
0.000377195
0.0499897
0.0267154
0.0471865
0.0560314
0.000143122
0.00022612
0.000151893
0.000315658
0.000143875
0.000279607
0.000155664
0.000208123
0.00563113
0.00929897
0.000165722
0.000886868
0.0458595
0.000261939
0.000155044
0.0188355
0.000249288
0.000153082
0.000159824
0.0483629
0.000172069
0.000292232
0.00270156
0.00854342
0.0246208
0.000162248
0.00742236
0.030031
0.0151075
0.0110178
0.000178205
0.000282157
0.000273907
0.0446371
0.00746974
0.000151025
0.00761555
0.00301774
0.000479519
0.000167378
0.00861977
0.000379885
0.0284962
0.000163233
0.0137234
0.000157412
0.0290005
0.000313699
0.00420868
0.0231158
0.000140808
0.000134341
0.036638
0.0677718
0.00119017
0.000150462
0.000208009
0.00017696
0.0146386
0.000573922
0.0463638
0.000163502
0.0466248
0.000288491
0.0167089
0.000150746
0.000441507
0.0344386
0.000166439
0.000234189
0.00013617
0.000159396
0.000147754
0.00528222
0.000143492
0.000147634
0.0623918
0.0358897
0.000138156
0.0722626
0.000151414
0.00015044
0.000143379
0.000141565
0.000149114
0.0205089
0.0603135
0.000139492
0.0171215
0.000226804
0.000197064
0.000800864
0.000247833
0.000162217
0.000174439
0.000142908
0.00564839
0.000169554
0.0742551
0.000167657
0.0422008
0.00284419
0.000240056
0.0571111
0.0466601
0.000139504
0.0316658
0.00021922
0.000230576
0.00022474
0.000145098
0.000268507
0.0140847
0.000147166
0.000321335
0.000144139
0.0511516
0.000291052
0.000982949
0.00435567
0.00129847
0.059669
0.000146492
0.000143861
0.000219136
0.000153298
0.000148792
0.000149066
0.000166728
0.000143904
0.000142208
0.000152281
0.000215243
0.000154389
0.000166115
0.000154348
0.000226623
0.000239694
0.000155668
0.0584273
0.000154981
0.00014287
0.000255538
0.000189491
0.000157235
0.000144104
0.0149259
0.000155762
0.0375826
0.00015653
0.000296856
0.000143246
0.000149689
0.00278137
0.0686971
0.000232282
0.000189582
0.000135083
0.0444207
0.000148068
0.00014198
0.000239596
0.000158217
0.000353742
0.0454553
0.000276729
0.0179115
0.000205547
0.0254431
0.000148134
0.000147437
0.000231114
0.00500263
0.000214988
0.000279031
0.00584542
0.000167407
0.000146919
0.000169352
0.00418739
0.000203112
0.000147468
0.000264877
0.000242102
0.000232774
0.000149121
0.000147861
0.000408044
0.000230802
0.0530875
0.00922632
0.000155337
0.000237941
0.000148911
0.000192862
0.000605388
0.000147259
0.000379606
0.00311012
0.000256671
0.0158987
0.000146609
0.000147794
0.000142539
0.0612069
0.00208171
0.000154302
0.000589178
0.000274869
0.000148635
0.000148736
0.000406536
0.0689332
0.000408078
0.0441409
0.000321117
0.00017243
0.00920822
0.000294473
0.000173139
0.00878749
0.00024172
0.00904384
0.000146324
0.000238985
0.000298328
0.000150938
0.0119418
0.000197703
0.0129823
0.000166677
0.000252932
0.000143899
0.0358924
0.000159241
0.000139628
0.000143752