/*--------------------------------*- C++ -*----------------------------------*\
| =========                 |                                                 |
| \\      /  F ield         | OpenFOAM: The Open Source CFD Toolbox           |
|  \\    /   O peration     | Version:  v2012                                 |
|   \\  /    A nd           | Website:  www.openfoam.com                      |
|    \\/     M anipulation  |                                                 |
\*---------------------------------------------------------------------------*/
FoamFile
{
    version     2.0;
    format      ascii;
    class       volVectorField;
    location    "650";
    object      cellDisplacement;
}
// * * * * * * * * * * * * * * * * * * * * * * * * * * * * * * * * * * * * * //

dimensions      [0 1 0 0 0 0 0];


internalField   nonuniform List<vector> 
13917
(
(0.018101 0.168298 0)
(0.00278937 0.130327 0)
(0.0172524 0.148193 0)
(0.0121963 0.078904 0)
(0.0011537 0.106706 0)
(0.00277531 0.129427 0)
(0.0140839 0.103497 0)
(0.00156874 0.138375 0)
(0.0165208 0.067862 0)
(0.0142005 0.174601 0)
(0.00181162 0.137865 0)
(0.00957799 0.0817149 0)
(0.000365099 0.00169061 0)
(-0.000775332 0.144132 0)
(0.00331596 0.120689 0)
(0.0181326 0.167566 0)
(-3.89618e-06 0.00283182 0)
(0.00229912 0.137905 0)
(0.0157061 0.148073 0)
(0.0170233 0.173853 0)
(0.00624701 0.134509 0)
(0.00330914 0.0915221 0)
(0.0147287 0.128522 0)
(0.00319842 0.0908207 0)
(0.0107944 0.104049 0)
(0.00553178 0.135423 0)
(0.00164938 0.156177 0)
(0.0147159 0.174638 0)
(0.00372497 0.137361 0)
(-2.30837e-05 0.00187618 0)
(0.0159905 0.174637 0)
(0.0169526 0.122003 0)
(0.0108182 0.0902433 0)
(0.0182064 0.161327 0)
(0.000405713 0.0637728 0)
(0.00128853 0.138203 0)
(0.00708335 0.117139 0)
(0.000155342 0.0038922 0)
(0.014263 0.102758 0)
(0.0079097 0.139147 0)
(-7.16682e-06 0.000861562 0)
(-0.000243544 0.0442545 0)
(0.0161154 0.0603544 0)
(0.0166836 0.139872 0)
(0.0165294 0.140613 0)
(0.0087104 0.161937 0)
(0.00649214 0.133418 0)
(0.00925034 0.172902 0)
(-0.000790429 0.134526 0)
(0.000442337 0.0644575 0)
(0.00943973 0.080865 0)
(0.0111544 0.157163 0)
(0.0186932 0.142103 0)
(0.00672279 0.0909151 0)
(0.0071993 0.092465 0)
(0.0114488 0.156964 0)
(0.0168939 0.174686 0)
(0.0145676 0.128973 0)
(-0.000234199 0.0431378 0)
(0.00835638 0.161893 0)
(0.00412829 0.169121 0)
(-0.000254621 0.0728906 0)
(-3.13552e-06 0.000290629 0)
(0.010816 0.102522 0)
(0.0167106 0.165059 0)
(-3.98737e-05 0.00284649 0)
(0.00325219 0.137619 0)
(0.00122575 0.137538 0)
(0.00204842 0.138413 0)
(0.0184263 0.154312 0)
(0.0168492 0.161166 0)
(0.0182306 0.161358 0)
(0.012299 0.048001 0)
(-0.000213182 0.0426543 0)
(0.00628445 0.135499 0)
(0.00953116 0.112001 0)
(0.00197938 0.10446 0)
(-0.00020522 0.0415414 0)
(0.00958241 0.110615 0)
(0.010841 0.091757 0)
(0.00514774 0.102825 0)
(4.36933e-06 0.00328882 0)
(0.0122259 0.0458218 0)
(0.0178713 0.151498 0)
(0.00257405 0.0271976 0)
(0.00152471 0.143893 0)
(0.0168999 0.121281 0)
(0.00130858 0.0140941 0)
(0.00781338 0.138404 0)
(-5.6369e-06 0.00338547 0)
(-1.62768e-05 0.00551492 0)
(0.0162505 0.0602019 0)
(-0.000912255 0.133872 0)
(0.000312801 0.05575 0)
(0.00664697 0.10315 0)
(0.00347266 0.138034 0)
(0.00156769 0.15289 0)
(4.9998e-05 0.00454966 0)
(0.00149856 0.015705 0)
(0.00372198 0.151423 0)
(-8.19142e-06 0.000827067 0)
(-1.00357e-05 0.00100641 0)
(0.0052341 0.10398 0)
(0.000116349 0.00826977 0)
(0.0019504 0.103376 0)
(0.0189371 0.124267 0)
(0.0149823 0.172604 0)
(-0.000293007 0.0721866 0)
(-0.000265718 0.0447178 0)
(0.00119675 0.156545 0)
(0.00267156 0.00489053 0)
(0.0181446 0.162559 0)
(0.00394791 0.13777 0)
(0.0083259 0.173078 0)
(0.0168059 0.1642 0)
(0.00903029 0.115677 0)
(0.0157146 0.146731 0)
(-2.28545e-05 0.00347831 0)
(0.0168806 0.148489 0)
(0.0122043 0.0311392 0)
(6.97419e-06 0.00408282 0)
(-0.000152873 0.040988 0)
(0.00300196 0.138236 0)
(0.013875 0.150706 0)
(0.0187781 0.138192 0)
(0.0179033 0.152226 0)
(0.0110334 0.0995639 0)
(0.00606839 0.136481 0)
(0.001269 0.0669858 0)
(0.0140553 0.150753 0)
(0.0164177 0.0960962 0)
(0.00591007 0.158306 0)
(0.0189137 0.129701 0)
(0.0088471 0.116018 0)
(0.0169563 0.127773 0)
(0.000860658 0.156121 0)
(0.00312739 0.168228 0)
(0.019142 0.121492 0)
(0.00507556 0.13621 0)
(8.16238e-05 0.00211276 0)
(-0.00139542 0.117546 0)
(-0.000185481 0.0410144 0)
(0.0189636 0.122846 0)
(0.00346632 0.071696 0)
(0.0116087 0.0485246 0)
(-0.000369246 0.0456704 0)
(0.0169897 0.160187 0)
(-0.00138065 0.0934751 0)
(0.0105302 0.173096 0)
(0.00685736 0.0921763 0)
(0.00794907 0.136421 0)
(-9.16446e-06 0.000892524 0)
(0.0115115 0.0463003 0)
(0.0123465 0.0291373 0)
(0.00122232 0.153301 0)
(0.00203219 0.0932968 0)
(0.000128911 0.00950618 0)
(0.0190154 0.125776 0)
(-1.24332e-05 0.00167796 0)
(-1.8988e-05 0.00284994 0)
(0.00382065 0.052568 0)
(0.0131941 0.16947 0)
(0.00558876 0.122755 0)
(-0.00151041 0.117111 0)
(0.00883153 0.170635 0)
(0.00298119 0.152534 0)
(0.018671 0.143129 0)
(0.00659196 0.171415 0)
(-4.27134e-06 0.000388128 0)
(0.00485312 0.137006 0)
(0.00299782 0.0928675 0)
(0.0186568 0.13992 0)
(0.016631 0.0649161 0)
(0.00500001 0.168438 0)
(0.0105139 0.150218 0)
(-1.29621e-05 0.00142558 0)
(0.0123603 0.0773587 0)
(0.0106252 0.15844 0)
(0.0164164 0.094345 0)
(0.00542938 0.123839 0)
(0.0157853 0.0643717 0)
(0.00303837 0.0915372 0)
(0.00925656 0.0822153 0)
(0.0120672 0.161533 0)
(0.0167737 0.150023 0)
(0.00554501 0.158254 0)
(0.00911986 0.0814263 0)
(0.0117521 0.161715 0)
(-2.85173e-05 0.00231937 0)
(0.00181128 0.143391 0)
(0.0102459 0.15047 0)
(0.0164911 0.139326 0)
(0.0127975 0.158578 0)
(0.0180107 0.170637 0)
(0.00034585 0.0564471 0)
(0.018721 0.140803 0)
(0.0110468 0.117352 0)
(0.0189111 0.129279 0)
(0.000406962 0.0624544 0)
(0.00214577 0.092352 0)
(0.00694622 0.13094 0)
(0.0183713 0.156829 0)
(0.0191188 0.122554 0)
(0.00644143 0.114769 0)
(0.00228619 0.15742 0)
(0.00424694 0.132357 0)
(0.00803894 0.137148 0)
(-0.000172462 0.041625 0)
(0.0109717 0.158106 0)
(0.00495429 0.103028 0)
(0.00110282 0.0525288 0)
(0.000682277 0.107827 0)
(0.000573578 0.108489 0)
(0.0102573 0.172916 0)
(0.0169736 0.126334 0)
(0.0053304 0.136313 0)
(0.0157042 0.1696 0)
(0.000517034 0.00943276 0)
(-0.000112533 0.0232669 0)
(-0.000116127 0.0229268 0)
(0.00656026 0.171752 0)
(0.0123876 0.160084 0)
(0.0111546 0.162792 0)
(0.00467271 0.0195239 0)
(-2.12096e-06 0.000196452 0)
(0.000398115 0.156384 0)
(0.0186912 0.142183 0)
(-8.95508e-05 0.0211773 0)
(-8.40995e-05 0.0203494 0)
(-6.54917e-06 0.000798825 0)
(-0.000126742 0.0236501 0)
(-0.000129938 0.0232991 0)
(0.0182196 0.162247 0)
(0.0107149 0.172464 0)
(0.0042176 0.0965048 0)
(-9.30639e-06 0.000827566 0)
(0.0122214 0.149847 0)
(0.0183907 0.155412 0)
(-1.29656e-05 0.00223834 0)
(0.00429692 0.0185191 0)
(0.00193052 0.157203 0)
(0.019055 0.11962 0)
(0.0123341 0.160838 0)
(0.0159624 0.169708 0)
(0.00961479 0.155083 0)
(0.00357471 0.0722249 0)
(0.00740875 0.171191 0)
(0.0123772 0.150395 0)
(0.00417316 0.137113 0)
(0.015416 0.139729 0)
(0.0065777 0.113495 0)
(0.0109198 0.172687 0)
(0.0121992 0.035564 0)
(0.00996889 0.140145 0)
(0.0107954 0.148316 0)
(0.00398529 0.0978238 0)
(-3.17344e-06 0.000378565 0)
(0.0110123 0.101167 0)
(0.00103747 0.10141 0)
(0.00012784 0.0584053 0)
(0.0187561 0.139121 0)
(-0.0014161 0.138496 0)
(-9.52631e-05 0.0440452 0)
(-7.54823e-05 0.019909 0)
(0.00203766 0.0946981 0)
(-7.24463e-05 0.0203588 0)
(0.0123258 0.0335878 0)
(0.000670867 0.00329023 0)
(0.0128241 0.130233 0)
(-0.00011741 0.0447685 0)
(0.0192494 0.116578 0)
(0.0147771 0.172295 0)
(0.00800165 0.0750611 0)
(0.00141293 0.101008 0)
(0.00754315 0.162554 0)
(-0.000146131 0.0184795 0)
(0.00428039 0.15016 0)
(0.0187591 0.138897 0)
(-0.000145514 0.0187952 0)
(0.0184245 0.154281 0)
(0.000133342 0.0570201 0)
(0.0128872 0.169218 0)
(-1.03891e-05 0.00112971 0)
(0.00352005 0.117695 0)
(0.00392999 0.0990298 0)
(0.0030276 0.0703962 0)
(0.0147786 0.156174 0)
(0.00019581 0.00641727 0)
(0.00262747 0.153042 0)
(0.0100799 0.126408 0)
(-0.00167472 0.138384 0)
(-0.000385638 0.0465328 0)
(0.00311666 0.157079 0)
(0.0192428 0.116889 0)
(-1.79303e-05 0.00308235 0)
(0.0135915 0.138249 0)
(0.00110881 0.103404 0)
(0.00851382 0.118089 0)
(0.00118687 0.105485 0)
(0.00981949 0.109597 0)
(0.000239149 0.0560299 0)
(0.000232463 0.00791034 0)
(0.0100529 0.158325 0)
(-0.000215727 0.0903122 0)
(0.0100114 0.139209 0)
(0.00987953 0.108152 0)
(0.0039482 0.0187322 0)
(0.0189841 0.12686 0)
(0.0183529 0.157725 0)
(0.00106374 0.0629821 0)
(-0.000204357 0.0157755 0)
(0.00870559 0.117762 0)
(-0.00044284 0.109317 0)
(0.0180211 0.125893 0)
(0.0158345 0.172106 0)
(0.00563099 0.16828 0)
(-2.47371e-05 0.00176996 0)
(0.00634624 0.15766 0)
(0.00142446 0.0996737 0)
(0.0177466 0.152386 0)
(-0.000544778 0.11024 0)
(0.0173508 0.146635 0)
(0.000609935 0.00264735 0)
(0.00331408 0.119657 0)
(0.00200338 0.156455 0)
(0.00262333 0.0940616 0)
(0.00262984 0.131091 0)
(0.0163318 0.140023 0)
(-8.02504e-06 0.00250394 0)
(0.0186124 0.141289 0)
(0.00205655 0.0218691 0)
(0.0177945 0.0885089 0)
(-0.00018532 0.0180165 0)
(0.0169165 0.17424 0)
(0.00101021 0.0340923 0)
(0.0103449 0.137313 0)
(0.00426609 0.133201 0)
(-1.82316e-05 0.00131232 0)
(-1.0203e-05 0.00340457 0)
(0.0157519 0.137549 0)
(0.0187383 0.130072 0)
(0.00692673 0.101138 0)
(0.00250362 0.0936624 0)
(0.018108 0.162205 0)
(0.018839 0.126945 0)
(0.00945699 0.167788 0)
(-0.000640271 0.143396 0)
(-0.000137153 0.0182731 0)
(0.00471173 0.0964609 0)
(0.0191386 0.116549 0)
(0.00665008 0.157801 0)
(-0.000136947 0.0186997 0)
(0.00106468 0.104705 0)
(0.00808714 0.08702 0)
(0.00488795 0.142694 0)
(0.0102832 0.138312 0)
(0.0130282 0.155599 0)
(0.00809507 0.154161 0)
(0.00418878 0.149623 0)
(0.0173177 0.0963384 0)
(0.0179686 0.16848 0)
(0.00130001 0.0685833 0)
(0.00710478 0.100826 0)
(0.00102643 0.107337 0)
(0.0155668 0.156306 0)
(-1.01957e-05 0.00198885 0)
(0.0180668 0.169819 0)
(0.0173855 0.0941852 0)
(-0.000359709 0.0230513 0)
(0.00716639 0.0941943 0)
(0.00728669 0.156665 0)
(-0.000208943 0.0162416 0)
(-0.000853675 0.132299 0)
(-0.000265812 0.0414337 0)
(0.0115259 0.162595 0)
(0.00795376 0.162577 0)
(0.00404755 0.134109 0)
(0.00805482 0.0770032 0)
(0.0155748 0.162965 0)
(-0.000196789 0.0181935 0)
(0.00813334 0.170543 0)
(0.0127299 0.159451 0)
(-0.00027475 0.0409363 0)
(-0.000738836 0.13299 0)
(0.00353185 0.101661 0)
(-0.000287965 0.0206729 0)
(0.00026921 0.0418245 0)
(0.0167386 0.173676 0)
(-0.000289159 0.0205422 0)
(0.00782576 0.114272 0)
(0.000263391 0.157068 0)
(0.00447698 0.148182 0)
(0.00660048 0.111094 0)
(0.00985515 0.169508 0)
(0.0190424 0.110988 0)
(0.00822532 0.110687 0)
(0.0145981 0.157061 0)
(0.00512989 0.0946498 0)
(0.00414252 0.148178 0)
(0.0171052 0.148778 0)
(0.00184532 0.0192628 0)
(0.0151366 0.0908672 0)
(0.0100981 0.107217 0)
(0.00315648 0.0684031 0)
(0.00181085 0.0388843 0)
(0.00141133 0.0707232 0)
(0.00231912 0.168422 0)
(0.00332138 0.152813 0)
(0.00715523 0.0975814 0)
(0.00127311 0.0714155 0)
(0.00326818 0.0878924 0)
(0.012599 0.140484 0)
(0.000699138 0.135894 0)
(-0.000166485 0.0179965 0)
(-4.87271e-06 0.000444258 0)
(0.0179203 0.126732 0)
(0.00714354 0.156087 0)
(0.00311752 0.0722119 0)
(0.00789821 0.112934 0)
(0.00664673 0.167086 0)
(5.65254e-05 0.151989 0)
(-3.87739e-05 0.00274349 0)
(0.0158665 0.148126 0)
(0.0177109 0.151472 0)
(-0.000215197 0.0288951 0)
(-0.000159436 0.0179318 0)
(0.0061585 0.131481 0)
(0.001711 0.0365724 0)
(-0.000167159 0.0183426 0)
(0.00415382 0.0977192 0)
(-0.000160292 0.0183053 0)
(-0.000206872 0.0281989 0)
(0.00818694 0.171656 0)
(0.00523589 0.0958943 0)
(0.00814983 0.140506 0)
(0.0192258 0.117645 0)
(0.0134183 0.138175 0)
(0.00114968 0.0542412 0)
(0.0112673 0.0466215 0)
(0.0104771 0.169505 0)
(0.00668435 0.13122 0)
(0.0187996 0.137214 0)
(-0.000179675 0.0180583 0)
(0.00671475 0.0412898 0)
(-0.000204805 0.018832 0)
(-0.000140857 0.0239219 0)
(0.00702671 0.116091 0)
(0.00326855 0.102354 0)
(0.00655071 0.16665 0)
(-0.000401163 0.0417579 0)
(0.0190233 0.121164 0)
(0.00656648 0.0417409 0)
(0.0155322 0.110651 0)
(-0.000412141 0.0432284 0)
(0.0048818 0.10166 0)
(0.00995605 0.154749 0)
(0.00900927 0.167696 0)
(0.00811395 0.0853818 0)
(-0.000803141 0.1535 0)
(0.00126328 0.0564162 0)
(0.000656314 0.0148758 0)
(0.00320506 0.0863457 0)
(0.00366596 0.102028 0)
(0.0010052 0.0490031 0)
(0.000843565 0.0110886 0)
(0.0189493 0.128487 0)
(0.00484564 0.168932 0)
(0.000958449 0.0472402 0)
(0.00310978 0.157682 0)
(0.017704 0.12995 0)
(0.00154719 0.00587134 0)
(0.0132692 0.141507 0)
(0.0184358 0.0999859 0)
(0.0104907 0.17035 0)
(0.0154792 0.090957 0)
(0.0188809 0.126149 0)
(-0.000331906 0.0225494 0)
(-0.000329826 0.0226655 0)
(0.0033949 0.102761 0)
(-3.32172e-05 0.00238542 0)
(-0.000428481 0.0440341 0)
(0.00648204 0.112443 0)
(0.0109962 0.166211 0)
(-1.41342e-05 0.00535789 0)
(0.00677476 0.0890845 0)
(0.00683314 0.102884 0)
(0.0157274 0.0814898 0)
(0.00701197 0.134425 0)
(0.0165028 0.150154 0)
(0.0154483 0.128992 0)
(-0.000347204 0.048497 0)
(0.00128374 0.101625 0)
(0.00252615 0.138373 0)
(0.0076992 0.145865 0)
(0.00702657 0.0971784 0)
(-0.00110662 0.144303 0)
(0.0136684 0.126058 0)
(0.0102913 0.125722 0)
(0.00740393 0.170033 0)
(0.00237148 0.0246444 0)
(0.00753093 0.146732 0)
(0.0104357 0.159339 0)
(0.00106954 0.0293083 0)
(0.0191078 0.122434 0)
(0.000679086 0.0149415 0)
(-0.000142532 0.0234555 0)
(0.0127616 0.140841 0)
(-0.000180912 0.0184261 0)
(0.00054313 0.0102633 0)
(0.00986718 0.157792 0)
(0.0192385 0.116136 0)
(-0.000544517 0.156901 0)
(0.00372648 0.050273 0)
(0.0135606 0.0698896 0)
(-0.000310835 0.0505396 0)
(0.0101171 0.165526 0)
(0.00567563 0.163031 0)
(0.00686707 0.0953335 0)
(0.00705675 0.0914285 0)
(0.00342434 0.0461472 0)
(0.0111956 0.146334 0)
(-0.00106295 0.0824565 0)
(0.00107361 0.0674574 0)
(-1.28657e-05 0.00240457 0)
(0.00212941 0.0909014 0)
(0.0031497 0.0663412 0)
(0.000215165 0.0838857 0)
(0.0120034 0.121267 0)
(-1.43988e-05 0.0045833 0)
(0.0153021 0.130607 0)
(0.000988258 0.0269882 0)
(0.00349751 0.0893943 0)
(0.0101672 0.105749 0)
(0.0168066 0.171747 0)
(2.70475e-05 0.0131155 0)
(0.0143648 0.0817018 0)
(0.000161596 0.0590401 0)
(0.0155054 0.109365 0)
(0.0134975 0.144983 0)
(0.00399969 0.141815 0)
(0.0107505 0.149296 0)
(0.00367019 0.152296 0)
(0.00969376 0.105105 0)
(0.00278013 0.137781 0)
(0.0188697 0.130581 0)
(0.00894881 0.171753 0)
(0.0192312 0.117371 0)
(0.000879513 0.0590336 0)
(0.00300744 0.0846629 0)
(-0.000368635 0.0488498 0)
(0.00801606 0.0610862 0)
(0.0171099 0.162931 0)
(-0.000154386 0.0189689 0)
(-0.00145522 0.110914 0)
(0.0112507 0.11632 0)
(0.0185121 0.14181 0)
(0.004079 0.150966 0)
(0.0159396 0.0637752 0)
(0.0134293 0.174223 0)
(0.00090681 0.0470564 0)
(0.0180368 0.102848 0)
(5.7422e-05 0.00554358 0)
(-0.000137604 0.0580828 0)
(0.0185299 0.142135 0)
(-0.000173414 0.0180546 0)
(0.0180305 0.13619 0)
(-4.03984e-06 0.000378877 0)
(0.00111752 0.00439664 0)
(0.0030676 0.0862165 0)
(0.0165369 0.148968 0)
(0.000151271 0.0835777 0)
(-4.64318e-05 0.017942 0)
(0.0169469 0.137262 0)
(0.0130967 0.141286 0)
(-0.00147167 0.0991218 0)
(0.0170421 0.158826 0)
(0.0190578 0.123494 0)
(0.00998643 0.170513 0)
(2.95338e-05 0.0124696 0)
(0.0185967 0.146536 0)
(-9.61329e-06 0.000906299 0)
(0.00371936 0.168441 0)
(-0.00127354 0.0935875 0)
(-0.000177123 0.0586405 0)
(-0.000222025 0.0172629 0)
(-8.95235e-06 0.000891735 0)
(0.0136231 0.125214 0)
(0.015775 0.0620757 0)
(-0.000174424 0.018418 0)
(6.30661e-05 0.00543138 0)
(0.000666616 0.00406796 0)
(0.0169746 0.158187 0)
(0.00444344 0.0559958 0)
(0.0169923 0.11787 0)
(0.00663153 0.0879626 0)
(-4.62548e-05 0.0170768 0)
(-1.50737e-05 0.00208153 0)
(0.00910904 0.161413 0)
(0.012741 0.167679 0)
(0.0140095 0.174103 0)
(0.0153768 0.13855 0)
(0.0121846 0.120064 0)
(0.0139093 0.164006 0)
(0.018418 0.154085 0)
(0.0002559 0.0430192 0)
(0.0101979 0.16695 0)
(0.000664 0.00389212 0)
(0.0186085 0.10615 0)
(0.00789865 0.0623537 0)
(0.0157689 0.162153 0)
(0.0030316 0.0645639 0)
(0.000230522 0.0851732 0)
(0.011825 0.0483613 0)
(-0.00142391 0.0982788 0)
(0.0131961 0.128948 0)
(0.0163495 0.166973 0)
(-5.43462e-06 0.00495626 0)
(0.01289 0.128625 0)
(0.000671147 0.0670428 0)
(-6.23472e-06 0.000619137 0)
(0.0178531 0.169263 0)
(0.00270066 0.151457 0)
(0.000539878 0.0681421 0)
(0.012957 0.156638 0)
(0.00431184 0.0199242 0)
(-0.000137728 0.0550625 0)
(-6.67738e-06 0.00064769 0)
(0.0177972 0.168667 0)
(0.00448613 0.0548931 0)
(0.000998066 0.102625 0)
(-0.000153696 0.0185697 0)
(0.000577848 0.0673118 0)
(0.0153898 0.156555 0)
(-8.73581e-06 0.000856837 0)
(0.0137419 0.154452 0)
(1.32405e-05 0.00351714 0)
(0.0010718 0.0334651 0)
(0.00353127 0.168898 0)
(0.0170285 0.11883 0)
(0.00677911 0.0940357 0)
(0.0192173 0.118053 0)
(0.0180541 0.134839 0)
(0.000840446 0.133513 0)
(0.0100992 0.159606 0)
(0.000861717 0.0453012 0)
(0.00312731 0.121457 0)
(0.0168612 0.172241 0)
(0.0186813 0.122526 0)
(0.00636739 0.130407 0)
(0.00728423 0.116872 0)
(0.00018104 0.0859822 0)
(1.74938e-05 0.00415526 0)
(0.00174201 0.0721207 0)
(-2.41863e-05 0.00171557 0)
(0.0132213 0.147262 0)
(0.0103472 0.116204 0)
(0.00669542 0.170301 0)
(0.0133363 0.129181 0)
(0.000285842 0.135393 0)
(0.00573172 0.163553 0)
(-0.000180876 0.0911815 0)
(0.0110866 0.134644 0)
(0.0131059 0.157961 0)
(0.0183944 0.155533 0)
(0.000274538 0.0566454 0)
(0.000124821 0.0927836 0)
(-1.7858e-05 0.00126088 0)
(0.00111035 0.0334121 0)
(9.48067e-06 0.00551116 0)
(-1.51745e-05 0.00200255 0)
(-0.000335567 0.0508848 0)
(0.000619108 0.00994712 0)
(0.0185735 0.147581 0)
(0.017276 0.08704 0)
(0.000213853 0.011243 0)
(0.0163056 0.1387 0)
(-4.46379e-06 0.00543809 0)
(0.0157623 0.171674 0)
(0.000101845 0.056392 0)
(0.00119245 0.066624 0)
(0.0192334 0.11657 0)
(0.0137502 0.14261 0)
(-0.00058554 0.0377562 0)
(0.0121078 0.0573274 0)
(-0.000193007 0.0162111 0)
(0.000894749 0.0634554 0)
(0.0131363 0.0645802 0)
(0.014144 0.109157 0)
(0.00269652 0.0701051 0)
(0.018953 0.130203 0)
(0.00990777 0.130087 0)
(-0.00115451 0.0860512 0)
(-0.000568105 0.0371916 0)
(0.000107999 0.0919423 0)
(0.0190926 0.121983 0)
(0.0134304 0.0719996 0)
(0.000101835 0.00669049 0)
(0.000634007 0.0678693 0)
(0.0187314 0.140071 0)
(-0.000180335 0.157299 0)
(0.010952 0.118941 0)
(0.0188315 0.135765 0)
(-0.00141763 0.108251 0)
(0.00108456 0.0360983 0)
(0.00109306 0.0646223 0)
(0.00679335 0.116511 0)
(0.0187887 0.129028 0)
(-0.000554191 0.0381293 0)
(0.0129657 0.130498 0)
(0.0129772 0.0647461 0)
(0.0142347 0.0837835 0)
(0.0186904 0.10515 0)
(0.00155067 0.0990448 0)
(0.0133001 0.154874 0)
(0.0171675 0.0895994 0)
(0.00655411 0.101903 0)
(0.0107369 0.0931033 0)
(0.000106878 0.00673741 0)
(0.0140254 0.109199 0)
(0.00117201 0.10088 0)
(0.0190573 0.111533 0)
(0.00816574 0.119993 0)
(-0.000312484 0.0556594 0)
(0.0188972 0.132764 0)
(-4.11618e-05 0.00314506 0)
(-0.00138014 0.109179 0)
(0.00745308 0.115391 0)
(0.00344186 0.128322 0)
(0.0119809 0.112903 0)
(0.0186325 0.122931 0)
(3.60391e-06 0.00397315 0)
(0.0180744 0.0996142 0)
(0.0130001 0.167232 0)
(-2.59761e-05 0.00168416 0)
(0.00838079 0.0603818 0)
(0.00837177 0.119656 0)
(0.000449209 0.00735624 0)
(0.00697297 0.0531782 0)
(0.0119124 0.0434946 0)
(0.00159813 0.115818 0)
(-0.000416164 0.042576 0)
(0.00919538 0.160799 0)
(0.0134986 0.155233 0)
(0.00077162 0.0434028 0)
(0.019015 0.114217 0)
(0.0163667 0.0694506 0)
(0.0156285 0.0838072 0)
(0.0131767 0.156987 0)
(0.00463758 0.0978389 0)
(0.017935 0.104639 0)
(0.00193369 0.153234 0)
(-1.32361e-05 0.0150212 0)
(0.0139416 0.141649 0)
(0.00955534 0.15289 0)
(0.0170085 0.091015 0)
(0.00161891 0.0640482 0)
(0.0011124 0.0509207 0)
(0.00167229 0.0714365 0)
(0.0184037 0.155376 0)
(0.0106397 0.0899377 0)
(3.39618e-05 0.0565023 0)
(0.017637 0.0901175 0)
(0.00277984 0.0718729 0)
(0.00117454 0.057494 0)
(0.0116333 0.15627 0)
(0.00228565 0.15274 0)
(0.00101295 0.115772 0)
(-0.000124749 0.152684 0)
(0.00511868 0.141844 0)
(0.0192175 0.113524 0)
(0.0120676 0.0414976 0)
(0.0018922 0.105349 0)
(0.0149333 0.162414 0)
(-0.000200618 0.0579654 0)
(-0.000391672 0.0736269 0)
(-9.00036e-06 0.00334476 0)
(1.38782e-05 0.00568503 0)
(0.011631 0.0619161 0)
(0.00780007 0.121767 0)
(0.00393855 0.142657 0)
(0.00156106 0.063115 0)
(-0.000213542 0.0153819 0)
(0.00184923 0.0870637 0)
(-0.00123669 0.0944205 0)
(0.00762824 0.11535 0)
(0.0156057 0.0886239 0)
(-0.000186665 0.0183874 0)
(0.0152867 0.141263 0)
(0.00351994 0.118815 0)
(0.0113831 0.168926 0)
(0.000940348 0.116735 0)
(-6.18202e-06 0.00247019 0)
(0.0162292 0.172121 0)
(0.0105299 0.0954991 0)
(0.0187242 0.140604 0)
(0.0158961 0.0569543 0)
(0.000464447 0.118431 0)
(0.00179601 0.0990073 0)
(0.000716561 0.0551058 0)
(0.00826156 0.0583542 0)
(0.018381 0.148914 0)
(0.0136984 0.111232 0)
(0.000717736 0.13437 0)
(-0.000233 0.151501 0)
(0.00680431 0.0514684 0)
(0.0169152 0.093315 0)
(-6.72682e-06 0.000599905 0)
(-0.000187036 0.0695853 0)
(-0.00103195 0.079698 0)
(-9.39787e-06 0.00083171 0)
(0.00817463 0.171308 0)
(0.0146783 0.0790403 0)
(0.000411203 0.119291 0)
(0.0155238 0.146901 0)
(-0.000417283 0.105607 0)
(-2.70564e-05 0.0260018 0)
(3.49724e-05 0.00687254 0)
(0.00783975 0.155006 0)
(0.000813934 0.0451712 0)
(0.00640916 0.0903777 0)
(0.00852525 0.108435 0)
(0.00281941 0.0829058 0)
(0.0175448 0.092548 0)
(-2.69175e-05 0.0249461 0)
(0.00224438 0.144991 0)
(0.00636138 0.102299 0)
(0.0181807 0.165302 0)
(0.0187828 0.13794 0)
(-0.000329458 0.111029 0)
(0.0191052 0.118167 0)
(-0.000552646 0.153982 0)
(0.0181647 0.166215 0)
(-0.000511439 0.108425 0)
(0.000803281 0.0325914 0)
(-0.000150693 0.0533478 0)
(0.00977031 0.0630201 0)
(0.00954371 0.099849 0)
(0.0035241 0.0484266 0)
(0.0138501 0.111143 0)
(0.00466454 0.0660936 0)
(0.000777199 0.136552 0)
(0.00653167 0.091579 0)
(0.0175458 0.151408 0)
(0.0106442 0.0879702 0)
(0.0172414 0.0787535 0)
(0.0074956 0.153173 0)
(0.000734997 0.0595032 0)
(0.00773905 0.140287 0)
(0.0104005 0.096656 0)
(-0.000101012 0.060674 0)
(0.0129118 0.108831 0)
(-0.000194941 0.0178021 0)
(0.0192417 0.115437 0)
(0.0131812 0.148486 0)
(-0.000193407 0.0138911 0)
(0.000997001 0.0626172 0)
(0.00911306 0.0196743 0)
(0.00274527 0.0928655 0)
(0.00186776 0.08852 0)
(0.008087 0.170142 0)
(0.000901313 0.0344479 0)
(0.00302619 0.151713 0)
(0.00301537 0.0625947 0)
(-0.000345819 0.0230025 0)
(0.00319352 0.115893 0)
(0.00387599 0.070597 0)
(0.0181055 0.100466 0)
(-0.000269137 0.0738777 0)
(0.000963793 0.0362974 0)
(-0.000560367 0.0364781 0)
(0.0107471 0.16676 0)
(0.00584129 0.116478 0)
(0.0156136 0.139153 0)
(0.000682543 0.0446424 0)
(0.00341662 0.151122 0)
(-0.000201744 0.0174327 0)
(0.00198428 0.0889947 0)
(0.018012 0.168873 0)
(2.77122e-05 0.00566791 0)
(0.0121959 0.080938 0)
(0.0161437 0.139279 0)
(0.0180865 0.167761 0)
(-0.000207449 0.017632 0)
(-0.000731187 0.107545 0)
(0.0149196 0.163321 0)
(-0.000266434 0.0430603 0)
(0.00258444 0.101735 0)
(0.00287679 0.0845005 0)
(0.0175828 0.152285 0)
(0.00847581 0.0221344 0)
(0.0169821 0.138337 0)
(0.00984649 0.0740458 0)
(0.0191361 0.121087 0)
(0.00333973 0.117462 0)
(0.00410999 0.163278 0)
(0.00135032 0.0718784 0)
(-0.000135239 0.0128334 0)
(-0.000297236 0.020866 0)
(0.000621057 0.00836671 0)
(-3.53784e-05 0.00271848 0)
(0.0188646 0.130123 0)
(0.00744669 0.109388 0)
(0.0017608 0.0427396 0)
(-0.000819027 0.111118 0)
(-0.000276162 0.0424764 0)
(-0.000172763 0.0527997 0)
(0.013446 0.146384 0)
(0.00810023 0.109908 0)
(0.017007 0.163933 0)
(0.00831165 0.139406 0)
(0.0182533 0.103881 0)
(0.00988199 0.159165 0)
(0.0140532 0.084365 0)
(0.0189768 0.128111 0)
(0.00634843 0.105049 0)
(0.0137065 0.144049 0)
(0.00745574 0.0404502 0)
(0.0190373 0.126274 0)
(-0.00034294 0.0230817 0)
(0.0126225 0.054675 0)
(-0.000204491 0.0178449 0)
(-4.88633e-05 0.0588487 0)
(0.00702043 0.0953516 0)
(-0.000198704 0.0176357 0)
(-0.000168169 0.0337823 0)
(-6.15188e-05 0.0462832 0)
(0.00825161 0.0548082 0)
(0.0116212 0.123633 0)
(-1.43705e-05 0.0140774 0)
(0.00754723 0.107871 0)
(0.0164871 0.129632 0)
(0.00953369 0.171147 0)
(0.0116076 0.169308 0)
(0.0161116 0.137922 0)
(0.00286071 0.0933993 0)
(-0.000304933 0.0213584 0)
(0.00432064 0.0606316 0)
(0.0151714 0.161639 0)
(-0.0010785 0.0815168 0)
(0.019193 0.119172 0)
(-0.000151632 0.0220693 0)
(0.000860008 0.0343789 0)
(0.00169564 0.0127013 0)
(0.00531072 0.0899222 0)
(-0.000145866 0.0214385 0)
(-0.000206458 0.0192289 0)
(0.00539048 0.0576383 0)
(0.0110219 0.135834 0)
(0.00182109 0.0427922 0)
(0.0152401 0.173949 0)
(-0.000713245 0.110242 0)
(0.00190035 0.0536915 0)
(0.018348 0.149048 0)
(0.00771694 0.0410469 0)
(0.00148471 0.0713774 0)
(-0.000266311 0.0710252 0)
(0.0176528 0.169208 0)
(0.00718632 0.147116 0)
(-1.65207e-05 0.00202579 0)
(-0.000593655 0.0384818 0)
(0.000516438 0.0618166 0)
(0.00124777 0.0698198 0)
(0.0189709 0.117013 0)
(-0.000161101 0.0544893 0)
(0.000829997 0.152125 0)
(0.0123591 0.0814173 0)
(0.000210568 0.119688 0)
(0.00121795 0.0545655 0)
(-0.000128794 0.043027 0)
(0.00704981 0.131577 0)
(-0.000274941 0.105494 0)
(0.00978169 0.103649 0)
(0.0184128 0.153891 0)
(-0.000249925 0.0770591 0)
(0.000282181 0.00706117 0)
(0.00246342 0.102551 0)
(0.00931558 0.0235044 0)
(0.00106064 0.0491547 0)
(0.017609 0.123142 0)
(0.0175126 0.0814297 0)
(0.0102329 0.115748 0)
(0.0187339 0.139782 0)
(0.0150899 0.173746 0)
(-0.000204497 0.104483 0)
(0.0176588 0.123954 0)
(-7.68355e-05 0.0445994 0)
(0.0189611 0.129648 0)
(-0.000138592 0.0414508 0)
(0.00529471 0.167413 0)
(0.0111102 0.147429 0)
(0.0152993 0.0898764 0)
(0.00961026 0.102205 0)
(0.00339471 0.16407 0)
(-0.000956296 0.157178 0)
(0.0189658 0.120508 0)
(-0.00020549 0.0165421 0)
(-0.00137234 0.095764 0)
(-0.000201053 0.0180393 0)
(0.00476937 0.0656872 0)
(0.0175569 0.0826716 0)
(0.00626957 0.101094 0)
(0.00966999 0.0736455 0)
(0.00473741 0.158155 0)
(0.0182474 0.162118 0)
(-0.000143975 0.0426298 0)
(0.0170187 0.0690747 0)
(0.0184495 0.152892 0)
(-4.55752e-06 0.000426139 0)
(-0.000131219 0.0190002 0)
(-0.00156736 0.111716 0)
(0.0148851 0.171019 0)
(0.00960632 0.0980612 0)
(-8.00632e-06 0.000752634 0)
(0.0140349 0.102294 0)
(0.0108985 0.0492101 0)
(0.00114558 0.0678635 0)
(0.0014808 0.115319 0)
(0.00523959 0.120862 0)
(0.00966794 0.0610316 0)
(-0.00130154 0.0867105 0)
(-0.000209839 0.0170197 0)
(-0.000459074 0.039515 0)
(-0.00102051 0.0806581 0)
(-0.000221545 0.0761463 0)
(0.0189269 0.131319 0)
(0.0122941 0.0572253 0)
(0.0104729 0.0875247 0)
(-0.000263931 0.0200088 0)
(0.0179662 0.170206 0)
(-0.000277399 0.0201373 0)
(-0.000217543 0.0167925 0)
(0.00618915 0.132483 0)
(0.0139372 0.0443352 0)
(0.0123172 0.0832613 0)
(-0.000204398 0.0172183 0)
(0.0108403 0.168997 0)
(-0.000342212 0.0559942 0)
(0.00227338 0.0942337 0)
(0.0157471 0.125452 0)
(0.00326077 0.0699606 0)
(-2.10056e-05 0.00137284 0)
(0.0149638 0.142035 0)
(0.0176805 0.128831 0)
(0.0181746 0.0968886 0)
(0.0105079 0.163704 0)
(-0.000560753 0.0388365 0)
(0.0070718 0.166198 0)
(0.0184062 0.150962 0)
(0.000142118 0.00381886 0)
(0.0109226 0.163549 0)
(-0.000136544 0.0196442 0)
(0.0110038 0.145973 0)
(0.0119177 0.150594 0)
(-0.00109813 0.0795788 0)
(0.0128845 0.101861 0)
(-0.00011237 0.0587202 0)
(0.0115208 0.113403 0)
(0.000409694 0.13603 0)
(0.00681511 0.110768 0)
(0.00935093 0.169915 0)
(0.0123477 0.129617 0)
(0.00968157 0.153532 0)
(0.00680706 0.168267 0)
(1.30279e-05 0.00626474 0)
(0.0184374 0.109842 0)
(0.00814179 0.112122 0)
(0.00542508 0.0912393 0)
(1.03948e-05 0.0817906 0)
(-0.000443896 0.0388059 0)
(-0.00015238 0.0142082 0)
(0.000613745 0.0396946 0)
(0.00973672 0.102477 0)
(0.0189829 0.120856 0)
(0.00176296 0.0452428 0)
(0.00723329 0.109896 0)
(0.0159324 0.0588976 0)
(0.00654108 0.104759 0)
(0.00763397 0.0802397 0)
(0.00796894 0.153558 0)
(0.0182957 0.100385 0)
(0.00239057 0.094699 0)
(0.000907269 0.060648 0)
(0.00253336 0.144505 0)
(-0.000263453 0.0201787 0)
(0.00300646 0.128688 0)
(0.0189789 0.127761 0)
(0.0115718 0.0679786 0)
(0.00829001 0.0302173 0)
(-0.000422403 0.156234 0)
(6.35959e-05 0.0571585 0)
(0.00712689 0.111355 0)
(0.0183593 0.1519 0)
(0.0189579 0.129872 0)
(0.00174021 0.112407 0)
(0.0105468 0.1463 0)
(0.00606896 0.12358 0)
(0.018849 0.134979 0)
(0.00274911 0.150681 0)
(0.00720893 0.133416 0)
(0.0166765 0.161187 0)
(0.00104924 0.0658635 0)
(0.0126224 0.149969 0)
(0.0100192 0.170927 0)
(0.0170525 0.147789 0)
(-0.00126117 0.0839674 0)
(-0.000802834 0.130775 0)
(-0.00020519 0.0274105 0)
(0.00341496 0.0879656 0)
(0.000516105 0.00368332 0)
(0.00772586 0.0816657 0)
(0.00344698 0.0908298 0)
(0.0190014 0.113691 0)
(2.41239e-05 0.00559573 0)
(0.012761 0.136237 0)
(0.000151699 0.0262732 0)
(0.0181458 0.0957394 0)
(0.0107213 0.169911 0)
(0.00788209 0.110623 0)
(0.00961494 0.165636 0)
(-0.000603174 0.152853 0)
(0.00847661 0.0340186 0)
(0.0183573 0.102631 0)
(0.00488324 0.121285 0)
(0.00808485 0.107509 0)
(0.00690181 0.0560776 0)
(0.0190707 0.124676 0)
(0.0151866 0.138902 0)
(0.0182528 0.161616 0)
(0.0088915 0.125598 0)
(0.00504464 0.170738 0)
(0.00921555 0.153237 0)
(-0.000196125 0.0166253 0)
(-0.00027964 0.111851 0)
(0.0127263 0.128489 0)
(-0.000218096 0.0171911 0)
(0.00388555 0.0722966 0)
(0.00774274 0.160748 0)
(0.00701558 0.0552949 0)
(0.00801339 0.121464 0)
(0.00578002 0.135474 0)
(0.00530537 0.119902 0)
(0.0141228 0.0436684 0)
(0.0157766 0.126639 0)
(0.00411582 0.162717 0)
(0.00401012 0.0543927 0)
(0.00795493 0.159459 0)
(0.000180923 0.120514 0)
(0.0062293 0.0909102 0)
(0.00404391 0.0594624 0)
(-0.000375467 0.0449648 0)
(0.0191028 0.115452 0)
(0.0139282 0.163213 0)
(0.000574049 0.0513059 0)
(0.017212 0.0770691 0)
(-0.000203133 0.0153763 0)
(-0.000494334 0.106575 0)
(0.0192178 0.118031 0)
(0.00958468 0.0715298 0)
(0.000833979 0.0205312 0)
(-0.000211188 0.0273126 0)
(0.00935821 0.0215957 0)
(0.000267313 0.00382301 0)
(0.00673119 0.115503 0)
(0.0190613 0.117307 0)
(0.00200524 0.0904405 0)
(0.0139896 0.0911056 0)
(-0.000443709 0.0381588 0)
(-0.000208149 0.0158509 0)
(0.0159477 0.138369 0)
(0.0146122 0.17072 0)
(0.00516362 0.170374 0)
(0.0124425 0.0547971 0)
(0.000319249 0.0109219 0)
(0.00093641 0.0231039 0)
(0.0074323 0.106892 0)
(0.0184024 0.0987812 0)
(0.0192392 0.115194 0)
(-0.000199229 0.0143803 0)
(0.00758783 0.153802 0)
(0.00661701 0.13025 0)
(0.0158769 0.122187 0)
(0.0155906 0.0631691 0)
(-0.000200426 0.0148988 0)
(0.00773391 0.120739 0)
(0.0167942 0.137983 0)
(0.000440607 0.0575601 0)
(0.00315099 0.149348 0)
(-0.000205982 0.0153958 0)