/*--------------------------------*- C++ -*----------------------------------*\
| =========                 |                                                 |
| \\      /  F ield         | OpenFOAM: The Open Source CFD Toolbox           |
|  \\    /   O peration     | Version:  v2012                                 |
|   \\  /    A nd           | Website:  www.openfoam.com                      |
|    \\/     M anipulation  |                                                 |
\*---------------------------------------------------------------------------*/
FoamFile
{
    version     2.0;
    format      ascii;
    class       volScalarField;
    location    "750";
    object      k_0;
}
// * * * * * * * * * * * * * * * * * * * * * * * * * * * * * * * * * * * * * //

dimensions      [0 2 -2 0 0 0 0];


internalField   nonuniform List<scalar> 
13917
(
0.000165176
0.000149013
0.003443
0.000152879
0.000148675
0.000192184
0.00887807
0.00371913
0.0622406
0.000173181
0.000222022
0.000189497
0.000153055
0.0165129
0.000155137
0.000154135
0.000149401
0.000178313
0.000188919
0.000148676
0.000149778
0.00943254
0.000148567
0.0020241
0.000148167
0.00914473
0.000161584
0.000164271
0.000212937
0.000187963
0.000166835
0.000158132
0.00016001
0.000154506
0.000148322
0.00028245
0.000148626
0.0471402
0.000156489
0.0118437
0.000147537
0.000149903
0.000144911
0.000168218
0.00014858
0.00015583
0.000178054
0.00018835
0.000384164
0.000147996
0.000158642
0.000149774
0.000421331
0.000154827
0.000149462
0.000158102
0.000221641
0.000148449
0.000155157
0.000148405
0.0919294
0.000149021
0.0101427
0.000148597
0.000190776
0.049094
0.000148647
0.000148506
0.000224932
0.000162736
0.000148721
0.0546354
0.064359
0.000148185
0.000398899
0.000194212
0.0450245
0.000150793
0.0113507
0.000149571
0.000149341
0.000148689
0.000189576
0.0491239
0.0488151
0.000150515
0.000149166
0.0306202
0.000158228
0.000144855
0.0663573
0.000180934
0.00014757
0.000151084
0.037882
0.000188985
0.000209224
0.000185235
0.000213995
0.000170318
0.00014663
0.000158622
0.000168028
0.00015183
0.000146626
0.0643311
0.000196722
0.000189803
0.000149426
0.000167747
0.0677245
0.012385
0.000197392
0.0660816
0.000151128
0.000409067
0.000148043
0.000260597
0.0211779
0.000154739
0.000149824
0.00022373
0.0265234
0.000163654
0.000147832
0.000150753
0.000148455
0.000147903
0.000145057
0.000191074
0.0328217
0.000150965
0.000148701
0.000149828
0.00780155
0.00200124
0.000165274
0.00017096
0.000148598
0.000154605
0.000264883
0.00014658
0.000150277
0.000170578
0.000148516
0.0306825
0.000218256
0.000149619
0.000146283
0.000158529
0.000183319
0.000392369
0.000198079
0.000163402
0.000157776
0.0237003
0.000161917
0.000295678
0.0375083
0.00905435
0.00015295
0.000161714
0.000149569
0.000207696
0.000196799
0.000213373
0.000151756
0.000184385
0.000147786
0.000159069
0.000164012
0.0335993
0.00020009
0.000150264
0.00605675
0.000164588
0.0326306
0.000301316
0.0227049
0.000147783
0.000182698
0.000167827
0.00014653
0.000149106
0.000157823
0.00411468
0.000276254
0.0278555
0.000168122
0.000210947
0.000280117
0.0525675
0.000238511
0.000148637
0.000171393
0.000161237
0.000153881
0.000147638
0.000182892
0.00925927
0.000157862
0.000148099
0.000182357
0.000183125
0.0569853
0.000601457
0.000148324
0.000148533
0.000184763
0.00235867
0.000150057
0.00996244
0.0429428
0.000211087
0.000146664
0.000202563
0.00018127
0.0428831
0.000147822
0.0930366
0.000147729
0.000187156
0.000147315
0.0540486
0.0699596
0.000154485
0.000504251
0.000158218
0.000146698
0.000278157
0.000199363
0.000167904
0.000897164
0.0360362
0.000146285
0.00015869
0.0714014
0.0366259
0.000149516
0.000147568
0.0118817
0.000214327
0.000149758
0.000250689
0.000194637
0.00016147
0.000164406
0.000149514
0.000163926
0.0393118
0.000147872
0.000188113
0.000173597
0.000148335
0.000148407
0.000190817
0.0161709
0.000196102
0.000158
0.000155389
0.00014979
0.0212229
0.0867319
0.000252594
0.000146738
0.0621456
0.0293245
0.000292725
0.0124684
0.000196179
0.000149419
0.00014744
0.000178589
0.0531635
0.000205862
0.000154703
0.000860846
0.000175478
0.000144995
0.0796201
0.000148505
0.0059047
0.00015713
0.000149722
0.000156468
0.000163351
0.000161868
0.000253763
0.000159735
0.000148396
0.000176884
0.00122142
0.0939638
0.000147822
0.000294172
0.000149093
0.000148376
0.000148086
0.000237008
0.000148575
0.000189687
0.000163738
0.000147663
0.000182764
0.0001515
0.000329498
0.000164248
0.00017921
0.000147034
0.00014834
0.0628639
0.0262645
0.000148011
0.000147404
0.076743
0.000147679
0.068803
0.000146968
0.0558943
0.00014968
0.000248647
0.000166825
0.000420064
0.000152553
0.00142611
0.000185994
0.00015651
0.000214187
0.000205619
0.000149339
0.0377935
0.000171326
0.0337603
0.000153679
0.0148988
0.000159502
0.0713667
0.000182462
0.00017365
0.000172859
0.00696345
0.000149435
0.000164574
0.0737223
0.000149093
0.000151979
0.029234
0.000186475
0.000150092
0.000263442
0.00020813
0.00014691
0.0194812
0.000274439
0.000148461
0.000147251
0.000149146
0.000146242
0.000192402
0.0149612
0.000200209
0.0696077
0.000148126
0.000191634
0.00811451
0.000174957
0.0105948
0.057668
0.0718643
0.00014627
0.000249772
0.000147109
0.0921428
0.000148389
0.000452745
0.000194413
0.000155167
0.000149306
0.000183334
0.00018509
0.00018717
0.000592169
0.0666243
0.033395
0.000164379
0.000172188
0.000147617
0.0397547
0.0115961
0.000148542
0.000414253
0.000148283
0.0002746
0.000149668
0.000149504
0.000151508
0.0129761
0.00015143
0.0176424
0.00971499
0.000217155
0.000194412
0.000149273
0.000195214
0.000191877
0.000148194
0.000188463
0.000149025
0.00014826
0.000187701
0.00014972
0.000148213
0.000147076
0.000279451
0.000149648
0.0161683
0.00350651
0.00484148
0.000239181
0.0218477
0.0443599
0.000174586
0.000148146
0.000217499
0.000156138
0.000159829
0.000148592
0.0231051
0.00614824
0.000838707
0.000154025
0.000199382
0.000153314
0.000157287
0.000187175
0.000150996
0.000250636
0.000149397
0.000148546
0.0752541
0.0320124
0.0315863
0.000185524
0.00315497
0.0391143
0.0819141
0.0415438
0.000145266
0.000181588
0.000151094
0.000148683
0.000382693
0.000178869
0.000148049
0.000179447
0.000172828
0.0388369
0.000148168
0.000207026
0.00865322
0.000285757
0.020473
0.0001497
0.000148569
0.000153755
0.000161941
0.000146279
0.00233513
0.000197511
0.000159715
0.0371673
0.000158043
0.000208423
0.0879858
0.000220432
0.000215594
0.000269349
0.000207077
0.000177616
0.000216569
0.000175847
0.000221397
0.00020569
0.00017988
0.000193573
0.000147775
0.00251111
0.000159663
0.000145687
0.000161157
0.000151086
0.04183
0.0629178
0.000147625
0.00014521
0.00128768
0.0369302
0.000149721
0.0167811
0.000151087
0.000213646
0.000147723
0.0548486
0.00027434
0.00015856
0.000149489
0.0223589
0.000226149
0.0119403
0.000149777
0.0441737
0.00033316
0.0807441
0.000145773
0.0447162
0.104421
0.000175208
0.000147205
0.000149391
0.000194135
0.000256696
0.000147432
0.000147277
0.000147577
0.000147541
0.0549109
0.000467434
0.000174777
0.000277094
0.000148005
0.000146675
0.000199132
0.0980379
0.000164995
0.000147865
0.000148216
0.000148462
0.0854155
0.0570417
0.000149118
0.000148458
0.000247131
0.00017554
0.000166834
0.000148544
0.000151629
0.000156856
0.000193044
0.000197693
0.000279863
0.00021864
0.00019804
0.000491236
0.000179018
0.00014788
0.0454053
0.000148473
0.000152424
0.000154404
0.00251612
0.000170057
0.000146765
0.000299886
0.00019222
0.007672
0.000198245
0.000160132
0.000174314
0.000149239
0.0965306
0.000259494
0.0250693
0.000149125
0.000161457
0.000275817
0.0601706
0.0164503
0.000186533
0.000189717
0.000153939
0.000153485
0.000148561
0.000165068
0.000169017
0.000149241
0.000181038
0.000172899
0.023235
0.0142316
0.000153083
0.000207385
0.000276028
0.000157413
0.000149831
0.000404915
0.060758
0.0256905
0.000258522
0.000145168
0.0211267
0.000193502
0.000147206
0.000162502
0.000192552
0.000159466
0.000187892
0.0114082
0.000215786
0.000171691
0.0956967
0.000151772
0.0361758
0.000149577
0.000149072
0.000287863
0.0622834
0.000208629
0.000151767
0.000150096
0.000148467
0.000176097
0.000432733
0.00021079
0.000153864
0.000212231
0.000182936
0.000147765
0.000573257
0.000209753
0.000248983
0.000147735
0.000214799
0.000150966
0.0106106
0.000173916
0.0001698
0.000161795
0.000147047
0.00014582
0.000148585
0.000174457
0.000156074
0.000280902
0.000502153
0.000183809
0.000146973
0.000213505
0.000210012
0.00029678
0.000147767
0.000155652
0.000147331
0.000161881
0.000155412
0.104292
0.000149518
0.0023335
0.00016152
0.000221744
0.000180414
0.0643456
0.000170702
0.000149245
0.0522467
0.0167152
0.000148438
0.000154272
0.000327778
0.000222122
0.000206061
0.000149544
0.000149576
0.000218403
0.000155424
0.000186587
0.000189079
0.000145835
0.000183266
0.00401885
0.000147655
0.000151441
0.000147717
0.0250738
0.000149769
0.000153574
0.0365643
0.000151706
0.0537741
0.000157804
0.000160228
0.000147667
0.000165955
0.000148136
0.000176276
0.000147081
0.000173538
0.000151082
0.0194164
0.000329951
0.0987775
0.000152488
0.000149355
0.000177873
0.00016965
0.0332811
0.0871346
0.000177726
0.0001483
0.000278222
0.000210216
0.000247841
0.000273183
0.00017809
0.00964717
0.000164453
0.000173879
0.000208376
0.000179172
0.000177302
0.000239928
0.000176387
0.000152851
0.000194222
0.000156641
0.000146444
0.000161586
0.000167922
0.000157925
0.000148194
0.00014753
0.000183457
0.00015235
0.000186667
0.000148294
0.000148371
0.000149821
0.000151438
0.000144607
0.000155694
0.000147859
0.0529056
0.000188864
0.000186735
0.000146443
0.000149634
0.000163354
0.00017805
0.000150654
0.0902861
0.000174972
0.0844204
0.000161699
0.000204054
0.000149867
0.000149791
0.000147419
0.000151493
0.0231448
0.000149688
0.00166326
0.000156168
0.00980046
0.000164886
0.000175657
0.000220796
0.000145659
0.000149935
0.000189434
0.000148488
0.00014975
0.0739998
0.000150454
0.000149153
0.000159115
0.00014751
0.000145711
0.000158118
0.000156699
0.0267529
0.000162955
0.000147649
0.000147247
0.0631166
0.00017477
0.000149063
0.000149112
0.0811513
0.000289623
0.0317524
0.000160105
0.000152869
0.000146367
0.000145547
0.000180541
0.000163603
0.000254549
0.00015399
0.0367005
0.000149387
0.000152098
0.026071
0.000148333
0.000159916
0.000148205
0.000148432
0.000167074
0.000162052
0.000150018
0.0546584
0.015715
0.000181308
0.00014787
0.000145034
0.000209961
0.00204871
0.000149718
0.000349049
0.000145029
0.000166921
0.000146311
0.000146853
0.000231405
0.000148153
0.000293808
0.000167049
0.000149819
0.000145151
0.000148768
0.000147542
0.000151217
0.000411116
0.000147452
0.000146682
0.0501647
0.0389034
0.000172967
0.000168841
0.000186136
0.00015575
0.000146713
0.000156357
0.0537818
0.000174377
0.000148832
0.000149304
0.0832615
0.000168981
0.0767236
0.000149774
0.000150841
0.0229934
0.000166779
0.000150251
0.0192154
0.000277044
0.000147491
0.000204093
0.000147402
0.000148045
0.000146365
0.0679611
0.000144551
0.000147748
0.000146664
0.000260737
0.000155288
0.00021325
0.000165323
0.000146762
0.000158777
0.000149112
0.0710341
0.000147688
0.000147542
0.000149166
0.000211426
0.000149108
0.000216017
0.0119664
0.000505118
0.000155278
0.000272802
0.043572
0.000148313
0.0183092
0.0869934
0.0494919
0.0224705
0.0512813
0.00926816
0.000210002
0.000149465
0.0127257
0.000166592
0.0149954
0.000145716
0.000147551
0.000149097
0.000149065
0.000157188
0.000158128
0.0313628
0.00014747
0.000148469
0.011155
0.000189967
0.000148755
0.000160825
0.000161141
0.000149081
0.000321025
0.000160845
0.000152341
0.000155144
0.0127435
0.0321847
0.000253352
0.000146179
0.000228423
0.000192356
0.0401043
0.0767626
0.000199244
0.000147706
0.000150068
0.000149389
0.000144423
0.000151616
0.000145192
0.000156965
0.000163975
0.0412921
0.000212419
0.000147812
0.00020346
0.0843337
0.000166081
0.000149549
0.0390564
0.000147556
0.000149537
0.000160535
0.0409964
0.000149096
0.000147762
0.011221
0.000255182
0.000280634
0.000201578
0.000282578
0.000147585
0.000219292
0.000149647
0.000147927
0.000149688
0.00318867
0.0400107
0.000146618
0.000145127
0.000148313
0.000290433
0.000151172
0.000161801
0.000148466
0.000149765
0.000217501
0.000146903
0.000177113
0.000202541
0.0306041
0.000148207
0.000172497
0.000153308
0.0611599
0.0813552
0.000148202
0.0622351
0.000187998
0.000260917
0.000149096
0.0148292
0.000149607
0.000157806
0.000166064
0.000201523
0.00164582
0.000254188
0.00022435
0.0688944
0.000146922
0.000271645
0.000146766
0.000156607
0.0130679
0.000148717
0.000149664
0.00015078
0.000149
0.0404015
0.000145598
0.000148503
0.0001836
0.000169976
0.000179318
0.000205498
0.000212909
0.0215456
0.000189105
0.000168176
0.000173124
0.0490414
0.000173796
0.0842182
0.00998955
0.000156555
0.000146921
0.0195834
0.000249537
0.000149625
0.000199506
0.000165526
0.000149442
0.000157806
0.000149158
0.000166264
0.000149943
0.000177718
0.00017114
0.000147162
0.000178602
0.000147086
0.000166927
0.000147056
0.000154942
0.000182026
0.000152683
0.000148647
0.000146722
0.000296992
0.000177267
0.0419081
0.000148214
0.000148821
0.000184218
0.000148207
0.000189541
0.000177365
0.000149446
0.000195053
0.000146931
0.094953
0.000149506
0.000171298
0.0329306
0.000269672
0.000147635
0.000152195
0.0108963
0.000147947
0.000147416
0.0449494
0.0748382
0.000153003
0.000221519
0.000148608
0.000148626
0.00324132
0.000151243
0.000145741
0.00028275
0.000147114
0.000293205
0.000149298
0.000145754
0.000149092
0.000214036
0.0241152
0.000148899
0.000149354
0.000147582
0.000154956
0.000148397
0.000231103
0.000178452
0.000149774
0.0148602
0.000164913
0.000272948
0.0383237
0.000425231
0.000146484
0.0001494
0.00014848
0.000213871
0.000155359
0.0245912
0.0423497
0.000152487
0.0149877
0.000325419
0.000178347
0.000218016
0.000169458
0.000190054
0.0016603
0.000167495
0.000433165
0.0484911
0.000188859
0.00015423
0.0494081
0.000164262
0.000145823
0.000152195
0.0836358
0.00016271
0.000147564
0.000166285
0.000192039
0.00016435
0.0452163
0.00015249
0.0591317
0.000173324
0.000245284
0.000203987
0.000233331
0.000160452
0.000146841
0.00015018
0.00201658
0.000147946
0.000152728
0.000147017
0.000151654
0.000147519
0.000160219
0.00022038
0.000289401
0.000162823
0.000164514
0.000555437
0.000195312
0.00014748
0.000286672
0.00183954
0.000146137
0.000147355
0.0001625
0.0270636
0.000149679
0.000184531
0.000219938
0.000166659
0.000148651
0.000151859
0.000147218
0.000199358
0.000162897
0.000147798
0.0302592
0.0100778
0.000163481
0.000381171
0.000189318
0.0104143
0.00015159
0.000156241
0.000176923
0.000398172
0.000199606
0.000274749
0.000158721
0.000149841
0.000147972
0.00014898
0.000148396
0.000150382
0.000166678
0.000147691
0.000211655
0.000147503
0.000159765
0.000146552
0.000175832
0.000211386
0.000353466
0.000148233
0.000230843
0.000147965
0.00021952
0.000148264
0.000154427
0.000148789
0.0002444
0.0589707
0.000216483
0.000147676
0.00021244
0.000148376
0.000159957
0.0714047
0.000147913
0.000149733
0.000169171
0.000162512
0.0126792
0.000147709
0.000158031
0.000151818
0.000148247
0.000158624
0.000149914
0.000146107
0.000152123
0.0430175
0.000153915
0.000269348
0.0244731
0.000177129
0.0247044
0.000153503
0.000146148
0.000158669
0.03689
0.000152356
0.000161967
0.00017517
0.00254324
0.000147411
0.00353065
0.000179568
0.000185439
0.000146064
0.000145259
0.000222467
0.000149871
0.000149905
0.00015919
0.000145795
0.000153124
0.000159236
0.000191677
0.000181827
0.00691421
0.000156113
0.00019294
0.000296777
0.00967358
0.000171556
0.00018325
0.0251086
0.000170912
0.0878625
0.000152286
0.0165224
0.00296617
0.000145667
0.000149724
0.000147618
0.00015036
0.000168548
0.000146568
0.000152664
0.000199127
0.000152055
0.000160169
0.0621681
0.000157585
0.000154056
0.0636756
0.000150263
0.0173213
0.000154573
0.000165079
0.000147333
0.0430301
0.0392014
0.000148385
0.000150716
0.00949359
0.00015721
0.0153257
0.000148022
0.000147109
0.0208765
0.000150697
0.00016246
0.00630182
0.000148446
0.000177124
0.000159603
0.000145233
0.000147263
0.0117708
0.0401387
0.00014908
0.000152658
0.000148568
0.000156481
0.000160211
0.0404032
0.000150405
0.000327769
0.000287776
0.000245998
0.000480523
0.000150534
0.000210107
0.000179702
0.000156953
0.000148395
0.000186436
0.0602389
0.000151759
0.000163008
0.00378226
0.000449527
0.000182748
0.000154087
0.000149335
0.00014962
0.000148477
0.0319435
0.000181773
0.000153456
0.000151026
0.000154152
0.000149799
0.000148118
0.000148465
0.000192389
0.000171845
0.00945386
0.000163403
0.00808939
0.0186212
0.000158417
0.000178704
0.000146579
0.000157457
0.0368929
0.000148833
0.000152218
0.00018006
0.000206261
0.000164608
0.00379567
0.00025793
0.000147579
0.0455103
0.000144988
0.000149261
0.000163747
0.00014982
0.00014786
0.000224819
0.0700539
0.000147161
0.000323462
0.000148749
0.000146384
0.000152035
0.000347389
0.000159309
0.000154533
0.0854733
0.000151025
0.000255248
0.0220284
0.000149608
0.000163593
0.000147942
0.0113417
0.000185351
0.000148511
0.00440595
0.000180084
0.000168119
0.000149857
0.0364113
0.000157106
0.000186501
0.000151283
0.000167778
0.043558
0.000146595
0.000257246
0.000148849
0.000178812
0.000163946
0.000149601
0.0332121
0.000152139
0.000205887
0.000178371
0.000169899
0.000162641
0.000163007
0.000150255
0.00325915
0.000158922
0.0145345
0.000157747
0.000188584
0.00014809
0.000167903
0.000148569
0.0001908
0.000855098
0.000150575
0.000147006
0.000439832
0.000150997
0.000291732
0.000149985
0.000488872
0.000248
0.000162857
0.000147925
0.000147577
0.000148699
0.000145218
0.000195713
0.000165984
0.00016108
0.000155653
0.000148458
0.00118493
0.000152871
0.00016218
0.000293306
0.000148475
0.0104481
0.00017965
0.000163092
0.000254478
0.056507
0.000145077
0.000278596
0.0658206
0.000147374
0.000204433
0.0379248
0.000189159
0.000149105
0.000149385
0.000208592
0.00657901
0.0168341
0.000283268
0.000149322
0.000164285
0.000171494
0.0228901
0.00234757
0.000175008
0.000212077
0.000152751
0.000176779
0.00019935
0.000149049
0.000193003
0.08465
0.000148824
0.000286732
0.000149672
0.00014804
0.0419324
0.0650281
0.000146846
0.00014959
0.000149919
0.000147135
0.000166065
0.000226169
0.000151791
0.000147859
0.000148578
0.000174043
0.000158515
0.000158069
0.000192009
0.00014835
0.073648
0.0175418
0.0526516
0.000176444
0.00017438
0.000285651
0.000166182
0.0130776
0.000298043
0.0580565
0.000149746
0.104321
0.0214518
0.00014625
0.000148208
0.000187971
0.0720771
0.0920715
0.000146775
0.00014841
0.031149
0.0087193
0.0364439
0.000153126
0.0001526
0.000289931
0.000149109
0.0368353
0.0289909
0.000292066
0.0059621
0.000148686
0.000147606
0.000147087
0.000154943
0.0346502
0.000173703
0.000156703
0.00015049
0.000173379
0.0304441
0.00017407
0.0316881
0.0147416
0.0211315
0.0003076
0.00014835
0.000149094
0.000531412
0.000145496
0.000145803
0.000151188
0.000402498
0.000169687
0.0342699
0.000202338
0.000148177
0.0920826
0.000167031
0.000147535
0.0165546
0.0001767
0.000154054
0.000148645
0.00449097
0.0831123
0.000149162
0.0840996
0.000287346
0.0617918
0.00483479
0.000176519
0.000147789
0.000150234
0.000506462
0.000156063
0.000316897
0.000167911
0.0137392
0.000279378
0.00015091
0.000157223
0.000147812
0.000150494
0.0674216
0.0150269
0.000148472
0.0224189
0.000175614
0.000148445
0.000153665
0.000147557
0.000219369
0.000149862
0.000333245
0.000164626
0.000147733
0.000147006
0.000169663
0.0328973
0.000170355
0.000152943
0.000168482
0.000148534
0.000151707
0.000159508
0.0243568
0.0221727
0.0775659
0.000145925
0.000146946
0.000149589
0.000210669
0.000147142
0.000149708
0.000225326
0.000184202
0.000295297
0.000145553
0.0863684
0.021729
0.000149885
0.0223662
0.000207315
0.000171153
0.000305316
0.00014941
0.0371646
0.000157458
0.000151185
0.000152552
0.000145461
0.000247508
0.000153837
0.000150918
0.000157943
0.018382
0.0251677
0.000149623
0.000148049
0.000152365
0.000148209
0.000206492
0.000149915
0.000187377
0.000152811
0.0576989
0.000150625
0.0228948
0.000145956
0.101266
0.000149766
0.000145344
0.0614053
0.00018633
0.000171277
0.00028787
0.000162351
0.00017259
0.000148452
0.0522739
0.000148459
0.000147186
0.000168864
0.00018868
0.0407905
0.049202
0.000203837
0.078378
0.000201155
0.000910812
0.000147979
0.000155326
0.000160301
0.07891
0.000153755
0.0804962
0.0262402
0.00014901
0.000148765
0.000148348
0.000382156
0.000404363
0.000152394
0.000148692
0.000154922
0.000158648
0.000170233
0.000260872
0.000198045
0.000148327
0.000198584
0.00018442
0.0345544
0.00018628
0.000151665
0.000153194
0.0923531
0.000147062
0.000188974
0.00285018
0.000150524
0.000155194
0.00022639
0.000172776
0.000150628
0.0242774
0.000154153
0.000274421
0.000174016
0.000158101
0.00015083
0.0792702
0.000146948
0.000171848
0.000266065
0.071726
0.000174742
0.00017654
0.000156962
0.000163718
0.000149762
0.0717947
0.000158557
0.000148147
0.000161998
0.000148527
0.000149777
0.000402211
0.000148438
0.00014912
0.00014851
0.000213435
0.000149507
0.00016144
0.000192175
0.000214851
0.000197281
0.000149671
0.000185395
0.000195749
0.000221259
0.000183609
0.00015596
0.000218328
0.000637583
0.000289191
0.000149887
0.0655183
0.00164892
0.000149883
0.000153672
0.000145374
0.000213887
0.000188316
0.000148424
0.000257171
0.0793639
0.000146604
0.000149384
0.00761576
0.027756
0.000189404
0.000145506
0.0782544
0.0195815
0.000455652
0.000148155
0.0798438
0.00019658
0.000167734
0.064666
0.000157273
0.000145463
0.000161782
0.000211107
0.000164778
0.005256
0.0894698
0.000146966
0.0572859
0.000202487
0.0444737
0.000145941
0.000163825
0.00014968
0.00014779
0.0539957
0.000376524
0.000265753
0.000289202
0.0001577
0.000175635
0.000151738
0.0826079
0.01701
0.00014847
0.000149262
0.000158402
0.000147123
0.000179168
0.0235804
0.0919594
0.000176379
0.000149991
0.000148843
0.0632519
0.000153934
0.000179222
0.000146771
0.000151059
0.000300908
0.000497592
0.000286357
0.000352238
0.000149081
0.000274257
0.000152573
0.000163765
0.0967636
0.0221027
0.000148463
0.000149959
0.000169732
0.000154552
0.000149286
0.0471962
0.0804996
0.000146826
0.000144664
0.000149236
0.000147703
0.000335513
0.000146394
0.00473169
0.000196328
0.000188505
0.000147431
0.000166721
0.0918942
0.000166708
0.000198162
0.0479051
0.000149306
0.040585
0.000158943
0.000159825
0.00019257
0.0399637
0.0440859
0.000186884
0.00014745
0.00019308
0.000146504
0.000154123
0.000149281
0.0031114
0.000158869
0.00819419
0.00025442
0.000175444
0.00014878
0.000237877
0.000158729
0.000149786
0.00018254
0.000145018
0.000171776
0.000165997
0.000149163
0.0960557
0.000151833
0.000202653
0.000150752
0.000147557
0.0572686
0.0378159
0.000152824
0.000158675
0.000173218
0.000171657
0.000185755
0.000158033
0.000155051
0.000155897
0.00024834
0.000153979
0.000915099
0.000166692
0.000263053
0.000208801
0.0001506
0.0435731
0.000145074
0.00340421
0.000152953
0.0747033
0.0290584
0.0582944
0.0589974
0.000270956
0.000168714
0.000148292
0.0294473
0.000170137
0.000148499
0.0291467
0.0189417
0.000151585
0.000153419
0.00016118
0.000161255
0.000165806
0.0520464
0.000149882
0.0001633
0.000169193
0.000159263
0.000149041
0.000198012
0.000145184
0.00113764
0.000152227
0.000201654
0.000163126
0.000171016
0.000185569
0.000342499
0.000184873
0.000147053
0.000190224
0.0173264
0.0619456
0.00014977
0.000292648
0.000160972
0.0002862
0.00014846
0.000153436
0.0465917
0.000182431
0.0312261
0.037016
0.000159077
0.0964858
0.000148131
0.000145106
0.0331818
0.000165155
0.00015332
0.0498398
0.000157369
0.000163323
0.000157636
0.000177849
0.00014896
0.0111757
0.00339202
0.00926464
0.000272651
0.000155988
0.000171672
0.0346086
0.000152844
0.000149529
0.000176913
0.000145886
0.000185725
0.0462256
0.0166955
0.0282002
0.000183847
0.000150004
0.0779833
0.000145023
0.000192823
0.000149561
0.0406602
0.000152667
0.00016431
0.0326262
0.000201798
0.000148076
0.00015922
0.00752009
0.00014882
0.000217382
0.00014682
0.0885053
0.0798485
0.000207412
0.000167753
0.000147572
0.000237503
0.000216771
0.000170556
0.00014686
0.000150117
0.000148898
0.00018343
0.000148778
0.000198265
0.000149084
0.00014699
0.10413
0.000147503
0.000157301
0.000156068
0.000149829
0.0351773
0.000147452
0.000161188
0.0630398
0.000180436
0.00063723
0.000148692
0.0807304
0.000181967
0.0563711
0.000152255
0.000212386
0.000148962
0.000172769
0.000211642
0.000208214
0.000251413
0.0775605
0.000228395
0.000478738
0.000155611
0.000207566
0.000162964
0.00044196
0.000153868
0.000148737
0.00014846
0.000181668
0.000164719
0.000346366
0.000180434
0.000910306
0.0592426
0.000170172
0.000148311
0.000663455
0.000179476
0.000150044
0.000152779
0.000148708
0.000393389
0.000148462
0.0135864
0.000147411
0.000159175
0.0543182
0.000170916
0.000148325
0.000148401
0.0384641
0.000147507
0.000152799
0.000155899
0.000160454
0.000158525
0.000148991
0.000221003
0.000168023
0.000162735
0.000282456
0.0542376
0.0342725
0.0473944
0.000146061
0.000148163
0.000172289
0.000150032
0.000163251
0.000206879
0.0401051
0.000145471
0.000148425
0.0215007
0.000288548
0.000145621
0.000147108
0.000155282
0.0492579
0.00688152
0.000157159
0.00016212
0.000149323
0.00027473
0.000212446
0.000174112
0.000158355
0.000163502
0.000149971
0.000166903
0.000261363
0.000150705
0.000148899
0.000156717
0.00427679
0.000154229
0.0276509
0.000148671
0.0476049
0.000161901
0.000156436
0.000146358
0.000147485
0.000303109
0.0781146
0.000165069
0.014524
0.0519989
0.000150101
0.0673229
0.000216921
0.000148036
0.000304655
0.000269974
0.000207116
0.000149678
0.0258044
0.0446747
0.000148043
0.000162475
0.0227253
0.000166118
0.000148547
0.000146915
0.000149768
0.000153685
0.000185266
0.000272507
0.000167644
0.000181762
0.000146223
0.000149118
0.000225498
0.000147289
0.000167914
0.000155303
0.000148784
0.000175647
0.000148155
0.000152335
0.000281742
0.000147923
0.0625159
0.000148159
0.00869955
0.0296144
0.000193379
0.000149249
0.000149948
0.0830558
0.000145374
0.000153517
0.000149743
0.000215061
0.00212996
0.000165729
0.0352432
0.000162554
0.000283134
0.000150322
0.000190246
0.000147048
0.000148901
0.0220456
0.0418224
0.00233346
0.000152764
0.000188905
0.00018962
0.0405952
0.0707371
0.000284628
0.000166688
0.000144978
0.0741148
0.000147805
0.000148121
0.000274135
0.000208495
0.00015669
0.00017893
0.000163768
0.000159419
0.000158486
0.0963697
0.000154263
0.000147892
0.0231132
0.000163954
0.000146021
0.0217747
0.000148116
0.000148708
0.000219454
0.000189393
0.0341886
0.000146167
0.000153685
0.000147571
0.000313065
0.000147439
0.000199017
0.000280986
0.0296298
0.0191829
0.0172083
0.000157661
0.064641
0.000220233
0.00014939
0.000158266
0.000162741
0.000157743
0.000249973
0.0599135
0.0655181
0.0241354
0.000326486
0.000149005
0.000204206
0.000148156
0.0218481
0.00016054
0.000152029
0.000153668
0.000150624
0.000147494
0.000202893
0.0685656
0.000145952
0.000152731
0.000146936
0.0574847
0.000152463
0.104043
0.00226542
0.0018961
0.000148595
0.000147555
0.043721
0.000190021
0.000148894
0.000194075
0.000149515
0.00019159
0.000178179
0.000195622
0.00018081
0.0724038
0.000146773
0.000147063
0.000239804
0.0203284
0.00016009
0.000166204
0.000147839
0.0097488
0.000148166
0.000147625
0.000151679
0.00014823
0.00604431
0.0530852
0.000294822
0.000186704
0.0840444
0.000208448
0.000145494
0.000164437
0.00014583
0.000245896
0.000148237
0.000153719
0.000148177
0.000147441
0.000146894
0.000398595
0.000151116
0.000279266
0.000145166
0.000158769
0.000156982
0.000264088
0.000148282
0.000164465
0.000169264
0.00017218
0.0884252
0.00014743
0.0284939
0.000176462
0.000164449
0.000148836
0.000147735
0.0238366
0.012091
0.000148305
0.000147655
0.000268877
0.00024775
0.000160714
0.0478153
0.000150609
0.000279696
0.000164768
0.000145865
0.00532687
0.000151624
0.0122664
0.00014842
0.000150582
0.000148767
0.0498563
0.030276
0.000145624
0.000181255
0.00024127
0.000148291
0.000147532
0.000147635
0.00018276
0.064708
0.000175285
0.00015456
0.000167654
0.000148176
0.000148568
0.000152892
0.000147956
0.000228047
0.000148669
0.00018858
0.000152122
0.00016459
0.000145152
0.000162651
0.000191598
0.000148232
0.000178806
0.000163473
0.000295741
0.000153341
0.0875536
0.000176611
0.00014824
0.000185979
0.000186612
0.000154767
0.105777
0.000186702
0.000163232
0.000296256
0.000147928
0.000187742
0.00016921
0.000183456
0.000147576
0.000148119
0.00014534
0.000158972
0.000184384
0.000183527
0.0457316
0.0364789
0.00260819
0.000149776
0.000301904
0.0245607
0.0637953
0.000148208
0.000148414
0.000181317
0.00920644
0.00015298
0.000169163
0.0118226
0.0472048
0.00755961
0.000170994
0.00022082
0.0218424
0.000154445
0.000145185
0.00351955
0.00026369
0.000149538
0.000149641
0.000150769
0.0767189
0.000188878
0.0052092
0.000153142
0.0478886
0.000148834
0.000321561
0.0254836
0.000149201
0.000167664
0.072234
0.000409746
0.00017541
0.000151073
0.000152303
0.000149856
0.000186716
0.000211316
0.0082304
0.0656434
0.00014638
0.0186344
0.000197264
0.000274109
0.000148077
0.000149041
0.000290344
0.00018211
0.000148013
0.000173341
0.000167128
0.000160993
0.000887475
0.00722728
0.0882101
0.0735493
0.000154611
0.000145681
0.000166088
0.0212239
0.0903102
0.000147994
0.000184554
0.00016925
0.000190728
0.000150012
0.000149706
0.00024312
0.000411753
0.0374839
0.000277685
0.0151733
0.000147727
0.00018288
0.0740891
0.000149384
0.00016563
0.000199087
0.000145715
0.000222288
0.0355938
0.00018074
0.000149699
0.0120868
0.000205637
0.0604304
0.000144392
0.000153216
0.000148946
0.00015197
0.000148829
0.000170841
0.000162595
0.000162466
0.000183526
0.000167291
0.0572337
0.000154147
0.000162102
0.000158046
0.030199
0.000164976
0.041469
0.000157604
0.000156252
0.0138325
0.00016961
0.000148742
0.000162643
0.000918755
0.011369
0.000268025
0.000148144
0.000147683
0.000147919
0.000294605
0.000151441
0.000331116
0.000257222
0.000182431
0.000160896
0.000245791
0.0364458
0.000148819
0.0791471
0.000159977
0.000163709
0.000147974
0.000147836
0.000176962
0.0866445
0.000148429
0.034532
0.000232695
0.000170158
0.000210612
0.000147513
0.000148094
0.000162529
0.00015139
0.0642427
0.0335655
0.000169882
0.000291796
0.000148062
0.000148674
0.000149008
0.000149613
0.0924199
0.000152138
0.0571283
0.000168705
0.000150109
0.000191244
0.00738248
0.0246065
0.0263324
0.000152865
0.000146887
0.000148833
0.000152835
0.000203836
0.000181751
0.100759
0.000149002
0.000149915
0.000176887
0.000149709
0.000247244
0.000152248
0.00017539
0.000176998
0.000162526
0.000162676
0.000146156
0.000173892
0.000162133
0.000181965