/*--------------------------------*- C++ -*----------------------------------*\
| =========                 |                                                 |
| \\      /  F ield         | OpenFOAM: The Open Source CFD Toolbox           |
|  \\    /   O peration     | Version:  v2012                                 |
|   \\  /    A nd           | Website:  www.openfoam.com                      |
|    \\/     M anipulation  |                                                 |
\*---------------------------------------------------------------------------*/
FoamFile
{
    version     2.0;
    format      ascii;
    class       pointVectorField;
    location    "750";
    object      pointDisplacement;
}
// * * * * * * * * * * * * * * * * * * * * * * * * * * * * * * * * * * * * * //

dimensions      [0 1 0 0 0 0 0];


internalField   nonuniform List<vector> 
14324
(
(0 0 0)
(0.0316776 0.208814 0)
(0 0 0)
(0.0316776 0.208814 0)
(0 0 0)
(0 0 0)
(0 0 0)
(0 0 0)
(0 0 0)
(0 0 0)
(0 0 0)
(0 0 0)
(0 0 0)
(0 0 0)
(0 0 0)
(0 0 0)
(0 0 0)
(0 0 0)
(0 0 0)
(0 0 0)
(0 0 0)
(0 0 0)
(0 0 0)
(0 0 0)
(0 0 0)
(0 0 0)
(0 0 0)
(0 0 0)
(0 0 0)
(0 0 0)
(0 0 0)
(0 0 0)
(0 0 0)
(0 0 0)
(0 0 0)
(0 0 0)
(0 0 0)
(0 0 0)
(0 0 0)
(0 0 0)
(0 0 0)
(0 0 0)
(0 0 0)
(0 0 0)
(0 0 0)
(0 0 0)
(0 0 0)
(0 0 0)
(0 0 0)
(0 0 0)
(0 0 0)
(0 0 0)
(0 0 0)
(0 0 0)
(0 0 0)
(0 0 0)
(0 0 0)
(0 0 0)
(0 0 0)
(0 0 0)
(0 0 0)
(0 0 0)
(0 0 0)
(0 0 0)
(0 0 0)
(0 0 0)
(0 0 0)
(0 0 0)
(0 0 0)
(0 0 0)
(0 0 0)
(0 0 0)
(0 0 0)
(0 0 0)
(0 0 0)
(0 0 0)
(0.0225504 -0.13948 0)
(0.022619 -0.136861 0)
(0.0226876 -0.134243 0)
(0.0227562 -0.131624 0)
(0.0228249 -0.129005 0)
(0.0228935 -0.126386 0)
(0.0229621 -0.123768 0)
(0.0230307 -0.121149 0)
(0.0230994 -0.11853 0)
(0.023168 -0.115911 0)
(0.0232366 -0.113293 0)
(0.0233052 -0.110674 0)
(0.0233739 -0.108055 0)
(0.0234425 -0.105436 0)
(0.0235111 -0.102818 0)
(0.0235797 -0.100199 0)
(0.0236484 -0.09758 0)
(0.023717 -0.0949613 0)
(0.0237856 -0.0923425 0)
(0.0238542 -0.0897238 0)
(0.0239229 -0.087105 0)
(0.0239915 -0.0844863 0)
(0.0240601 -0.0818675 0)
(0.0241287 -0.0792488 0)
(0.0241974 -0.07663 0)
(0.024266 -0.0740113 0)
(0.0243346 -0.0713925 0)
(0.0244032 -0.0687738 0)
(0.0244719 -0.066155 0)
(0.0245405 -0.0635363 0)
(0.0246091 -0.0609175 0)
(0.0246777 -0.0582988 0)
(0.0247464 -0.05568 0)
(0.024815 -0.0530613 0)
(0.0248836 -0.0504425 0)
(0.0249522 -0.0478238 0)
(0.0250209 -0.045205 0)
(0.0250895 -0.0425863 0)
(0.0251581 -0.0399675 0)
(0.0252268 -0.0373488 0)
(0.0252954 -0.03473 0)
(0.025364 -0.0321113 0)
(0.0254326 -0.0294925 0)
(0.0255013 -0.0268738 0)
(0.0255699 -0.024255 0)
(0.0256385 -0.0216363 0)
(0.0257071 -0.0190175 0)
(0.0257758 -0.0163988 0)
(0.0258444 -0.01378 0)
(0.025913 -0.0111613 0)
(0.0259816 -0.00854251 0)
(0.0260503 -0.00592376 0)
(0.0261189 -0.00330501 0)
(0.0261875 -0.000686257 0)
(0.0262561 0.00193249 0)
(0.0263248 0.00455125 0)
(0.0263934 0.00717 0)
(0.026462 0.00978875 0)
(0.0265306 0.0124075 0)
(0.0265993 0.0150263 0)
(0.0266679 0.017645 0)
(0.0267365 0.0202638 0)
(0.0268051 0.0228825 0)
(0.0268738 0.0255013 0)
(0.0269424 0.02812 0)
(0.027011 0.0307388 0)
(0.0270796 0.0333575 0)
(0.0271483 0.0359763 0)
(0.0272169 0.038595 0)
(0.0272855 0.0412138 0)
(0.0273541 0.0438325 0)
(0.0274228 0.0464513 0)
(0.0274914 0.04907 0)
(0.02756 0.0516888 0)
(0.0276287 0.0543075 0)
(0.0276973 0.0569263 0)
(0.0277659 0.059545 0)
(0.0278345 0.0621638 0)
(0.0279032 0.0647825 0)
(0.0279718 0.0674013 0)
(0.0280404 0.07002 0)
(0.028109 0.0726388 0)
(0.0281777 0.0752575 0)
(0.0282463 0.0778763 0)
(0.0283149 0.080495 0)
(0.0283835 0.0831138 0)
(0.0284522 0.0857325 0)
(0.0285208 0.0883513 0)
(0.0285894 0.09097 0)
(0.028658 0.0935888 0)
(0.0287267 0.0962075 0)
(0.0287953 0.0988263 0)
(0.0288639 0.101445 0)
(0.0289325 0.104064 0)
(0.0290012 0.106683 0)
(0.0290698 0.109301 0)
(0.0291384 0.11192 0)
(0.029207 0.114539 0)
(0.0292757 0.117158 0)
(0.0293443 0.119776 0)
(0.0294129 0.122395 0)
(0.0294815 0.125014 0)
(0.0295502 0.127633 0)
(0.0296188 0.130251 0)
(0.0296874 0.13287 0)
(0.029756 0.135489 0)
(0.0298247 0.138108 0)
(0.0298933 0.140726 0)
(0.0299619 0.143345 0)
(0.0300305 0.145964 0)
(0.0300992 0.148583 0)
(0.0301678 0.151201 0)
(0.0302364 0.15382 0)
(0.0303051 0.156439 0)
(0.0303737 0.159058 0)
(0.0304423 0.161676 0)
(0.0305109 0.164295 0)
(0.0305796 0.166914 0)
(0.0306482 0.169533 0)
(0.0307168 0.172151 0)
(0.0307854 0.17477 0)
(0.0308541 0.177389 0)
(0.0309227 0.180008 0)
(0.0309913 0.182626 0)
(0.0310599 0.185245 0)
(0.0311286 0.187864 0)
(0.0311972 0.190483 0)
(0.0312658 0.193101 0)
(0.0313344 0.19572 0)
(0.0314031 0.198339 0)
(0.0314717 0.200958 0)
(0.0315403 0.203576 0)
(0.0316089 0.206195 0)
(0.0290588 0.208882 0)
(0.0264401 0.208951 0)
(0.0238213 0.20902 0)
(0.0212026 0.209088 0)
(0.0185838 0.209157 0)
(0.0159651 0.209226 0)
(0.0133463 0.209294 0)
(0.0107276 0.209363 0)
(0.0081088 0.209431 0)
(0.00549005 0.2095 0)
(0.0028713 0.209569 0)
(0.000252551 0.209637 0)
(-0.0023662 0.209706 0)
(-0.00498495 0.209775 0)
(-0.0076037 0.209843 0)
(-0.0102225 0.209912 0)
(-0.0128412 0.20998 0)
(-0.01546 0.210049 0)
(0 0 0)
(0 0 0)
(0 0 0)
(0 0 0)
(0 0 0)
(0 0 0)
(0 0 0)
(0 0 0)
(0 0 0)
(0 0 0)
(0 0 0)
(0 0 0)
(0 0 0)
(0 0 0)
(0 0 0)
(0 0 0)
(0 0 0)
(0 0 0)
(0 0 0)
(0 0 0)
(0 0 0)
(0 0 0)
(0 0 0)
(0 0 0)
(0 0 0)
(0 0 0)
(0 0 0)
(0 0 0)
(0 0 0)
(0 0 0)
(0 0 0)
(0 0 0)
(0 0 0)
(0 0 0)
(0 0 0)
(0 0 0)
(0 0 0)
(0 0 0)
(0 0 0)
(0 0 0)
(0 0 0)
(0 0 0)
(0 0 0)
(0 0 0)
(0 0 0)
(0 0 0)
(0 0 0)
(0 0 0)
(0 0 0)
(0 0 0)
(0 0 0)
(0 0 0)
(0 0 0)
(0 0 0)
(0 0 0)
(0 0 0)
(0 0 0)
(0 0 0)
(0 0 0)
(0 0 0)
(0 0 0)
(0 0 0)
(0 0 0)
(0 0 0)
(0 0 0)
(0 0 0)
(0 0 0)
(0 0 0)
(0 0 0)
(0 0 0)
(0 0 0)
(0 0 0)
(0.0225504 -0.13948 0)
(0.022619 -0.136861 0)
(0.0226876 -0.134243 0)
(0.0227562 -0.131624 0)
(0.0228249 -0.129005 0)
(0.0228935 -0.126386 0)
(0.0229621 -0.123768 0)
(0.0230307 -0.121149 0)
(0.0230994 -0.11853 0)
(0.023168 -0.115911 0)
(0.0232366 -0.113293 0)
(0.0233052 -0.110674 0)
(0.0233739 -0.108055 0)
(0.0234425 -0.105436 0)
(0.0235111 -0.102818 0)
(0.0235797 -0.100199 0)
(0.0236484 -0.09758 0)
(0.023717 -0.0949613 0)
(0.0237856 -0.0923425 0)
(0.0238542 -0.0897238 0)
(0.0239229 -0.087105 0)
(0.0239915 -0.0844863 0)
(0.0240601 -0.0818675 0)
(0.0241287 -0.0792488 0)
(0.0241974 -0.07663 0)
(0.024266 -0.0740113 0)
(0.0243346 -0.0713925 0)
(0.0244032 -0.0687738 0)
(0.0244719 -0.066155 0)
(0.0245405 -0.0635363 0)
(0.0246091 -0.0609175 0)
(0.0246777 -0.0582988 0)
(0.0247464 -0.05568 0)
(0.024815 -0.0530613 0)
(0.0248836 -0.0504425 0)
(0.0249522 -0.0478238 0)
(0.0250209 -0.045205 0)
(0.0250895 -0.0425863 0)
(0.0251581 -0.0399675 0)
(0.0252268 -0.0373488 0)
(0.0252954 -0.03473 0)
(0.025364 -0.0321113 0)
(0.0254326 -0.0294925 0)
(0.0255013 -0.0268738 0)
(0.0255699 -0.024255 0)
(0.0256385 -0.0216363 0)
(0.0257071 -0.0190175 0)
(0.0257758 -0.0163988 0)
(0.0258444 -0.01378 0)
(0.025913 -0.0111613 0)
(0.0259816 -0.00854251 0)
(0.0260503 -0.00592376 0)
(0.0261189 -0.00330501 0)
(0.0261875 -0.000686257 0)
(0.0262561 0.00193249 0)
(0.0263248 0.00455125 0)
(0.0263934 0.00717 0)
(0.026462 0.00978875 0)
(0.0265306 0.0124075 0)
(0.0265993 0.0150263 0)
(0.0266679 0.017645 0)
(0.0267365 0.0202638 0)
(0.0268051 0.0228825 0)
(0.0268738 0.0255013 0)
(0.0269424 0.02812 0)
(0.027011 0.0307388 0)
(0.0270796 0.0333575 0)
(0.0271483 0.0359763 0)
(0.0272169 0.038595 0)
(0.0272855 0.0412138 0)
(0.0273541 0.0438325 0)
(0.0274228 0.0464513 0)
(0.0274914 0.04907 0)
(0.02756 0.0516888 0)
(0.0276287 0.0543075 0)
(0.0276973 0.0569263 0)
(0.0277659 0.059545 0)
(0.0278345 0.0621638 0)
(0.0279032 0.0647825 0)
(0.0279718 0.0674013 0)
(0.0280404 0.07002 0)
(0.028109 0.0726388 0)
(0.0281777 0.0752575 0)
(0.0282463 0.0778763 0)
(0.0283149 0.080495 0)
(0.0283835 0.0831138 0)
(0.0284522 0.0857325 0)
(0.0285208 0.0883513 0)
(0.0285894 0.09097 0)
(0.028658 0.0935888 0)
(0.0287267 0.0962075 0)
(0.0287953 0.0988263 0)
(0.0288639 0.101445 0)
(0.0289325 0.104064 0)
(0.0290012 0.106683 0)
(0.0290698 0.109301 0)
(0.0291384 0.11192 0)
(0.029207 0.114539 0)
(0.0292757 0.117158 0)
(0.0293443 0.119776 0)
(0.0294129 0.122395 0)
(0.0294815 0.125014 0)
(0.0295502 0.127633 0)
(0.0296188 0.130251 0)
(0.0296874 0.13287 0)
(0.029756 0.135489 0)
(0.0298247 0.138108 0)
(0.0298933 0.140726 0)
(0.0299619 0.143345 0)
(0.0300305 0.145964 0)
(0.0300992 0.148583 0)
(0.0301678 0.151201 0)
(0.0302364 0.15382 0)
(0.0303051 0.156439 0)
(0.0303737 0.159058 0)
(0.0304423 0.161676 0)
(0.0305109 0.164295 0)
(0.0305796 0.166914 0)
(0.0306482 0.169533 0)
(0.0307168 0.172151 0)
(0.0307854 0.17477 0)
(0.0308541 0.177389 0)
(0.0309227 0.180008 0)
(0.0309913 0.182626 0)
(0.0310599 0.185245 0)
(0.0311286 0.187864 0)
(0.0311972 0.190483 0)
(0.0312658 0.193101 0)
(0.0313344 0.19572 0)
(0.0314031 0.198339 0)
(0.0314717 0.200958 0)
(0.0315403 0.203576 0)
(0.0316089 0.206195 0)
(0.0290588 0.208882 0)
(0.0264401 0.208951 0)
(0.0238213 0.20902 0)
(0.0212026 0.209088 0)
(0.0185838 0.209157 0)
(0.0159651 0.209226 0)
(0.0133463 0.209294 0)
(0.0107276 0.209363 0)
(0.0081088 0.209431 0)
(0.00549005 0.2095 0)
(0.0028713 0.209569 0)
(0.000252551 0.209637 0)
(-0.0023662 0.209706 0)
(-0.00498495 0.209775 0)
(-0.0076037 0.209843 0)
(-0.0102225 0.209912 0)
(-0.0128412 0.20998 0)
(-0.01546 0.210049 0)
(0.0237542 -0.093539 0)
(0.0249889 -0.0464228 0)
(0.0262155 0.000382781 0)
(0.0274585 0.0478175 0)
(0.0287006 0.095216 0)
(0.029928 0.142053 0)
(0.0311693 0.189478 0)
(0.0280811 0.0715744 0)
(0.0231354 -0.117149 0)
(0.0268454 0.0244212 0)
(0.0243744 -0.0698728 0)
(0.0305477 0.165706 0)
(0.0256058 -0.0228813 0)
(0.0293103 0.118482 0)
(0.00377832 0.209542 0)
(0.024892 0.208975 0)
(-0.0145347 0.210014 0)
(0.00112418 0.00609965 0)
(0.000894083 0.0103788 0)
(0.00132176 0.0048953 0)
(0.00132351 0.00158956 0)
(0.000735226 0.0119509 0)
(0.000530263 0.0133891 0)
(0.031491 0.202153 0)
(0.00079464 0.00520649 0)
(0.000735633 0.00711935 0)
(0.00028368 0.0139229 0)
(0.00125989 -0.000686159 0)
(0.000590574 0.00518189 0)
(0.0302776 0.155397 0)
(0.0253285 -0.0334621 0)
(0.0295859 0.128999 0)
(0.0240866 -0.0808565 0)
(0.0277311 0.0582177 0)
(0.0284296 0.0848737 0)
(0.0271108 0.0345505 0)
(0.0234094 -0.106697 0)
(0.0265029 0.0113513 0)
(0.0247061 -0.0572145 0)
(0.0308902 0.178788 0)
(0.0228574 -0.127758 0)
(0.025942 -0.0100541 0)
(0.0289719 0.105569 0)
(0.0146033 0.209256 0)
(0.000626653 0.00454131 0)
(0.000849998 0.0113358 0)
(0.00120641 0.00556681 0)
(0.00129597 0.00304989 0)
(0.000410765 0.00338289 0)
(0.000465229 0.00355412 0)
(-0.00638165 0.209807 0)
(0.000233798 0.00184233 0)
(0.000677321 0.0127669 0)
(0.000407954 0.0135527 0)
(0.000781806 0.00834503 0)
(0.00138063 0.00420316 0)
(0.00120518 0.000397569 0)
(0.00143721 -0.00219911 0)
(0.000798795 0.00471572 0)
(0.000899631 0.0062325 0)
(0.000667219 0.0061211 0)
(0.00051967 0.004398 0)
(0.000261998 0.00211619 0)
(9.69372e-05 0.000771863 0)
(0.019518 -0.0755234 0)
(0.0194633 -0.0711128 0)
(0.0198351 -0.068656 0)
(0.0197674 -0.0643302 0)
(0.0201853 -0.0613024 0)
(0.0200472 -0.0565573 0)
(0.0204648 -0.0531485 0)
(0.0203732 -0.0487545 0)
(0.0207461 -0.0453908 0)
(0.0206241 -0.0413863 0)
(0.0209911 -0.0378409 0)
(0.020867 -0.0341618 0)
(0.0212155 -0.0303685 0)
(0.0210823 -0.0269534 0)
(0.021433 -0.0225568 0)
(0.0212708 -0.0195327 0)
(0.0216278 -0.0147467 0)
(0.0214552 -0.011957 0)
(0.0217942 -0.00706535 0)
(0.0215991 -0.00442499 0)
(0.0219409 0.000588267 0)
(0.0217227 0.00305185 0)
(0.0220584 0.00818696 0)
(0.0218415 0.010401 0)
(0.0221474 0.0156298 0)
(0.0219184 0.0174645 0)
(0.022218 0.0228768 0)
(0.021974 0.0244195 0)
(0.0222627 0.0298473 0)
(0.0220083 0.0310814 0)
(0.0222805 0.0367191 0)
(0.0220039 0.0375233 0)
(0.0222594 0.0432954 0)
(0.0219782 0.0438659 0)
(0.0222149 0.0494898 0)
(0.0219322 0.050041 0)
(0.0221629 0.0556926 0)
(0.0218567 0.056023 0)
(0.0220913 0.0620338 0)
(0.0217601 0.0618696 0)
(0.0219808 0.0679335 0)
(0.0216486 0.067389 0)
(0.0218418 0.0731533 0)
(0.0202653 -0.0445073 0)
(0.0213496 -0.00193419 0)
(0.0217276 0.0381714 0)
(0.0214998 0.0723195 0)
(0.0216735 0.0779609 0)
(0.0213258 0.0770028 0)
(0.0214806 0.0825551 0)
(0.0211343 0.0712072 0)
(0.0211313 0.0814136 0)
(0.0212638 0.0868614 0)
(0.0209011 0.0852793 0)
(0.0210206 0.0908053 0)
(0.0206473 0.0888138 0)
(0.0207498 0.094453 0)
(0.0203674 0.0922145 0)
(0.0204523 0.0978732 0)
(0.0224391 0.0616483 0)
(0.0225189 0.0285475 0)
(0.0216325 0.0883985 0)
(0.0200614 0.0955193 0)
(0.0201287 0.100934 0)
(0.0197337 0.098444 0)
(0.0197824 0.103557 0)
(0.020172 0.10616 0)
(0.0198031 0.108544 0)
(0.0201846 0.111257 0)
(0.0197933 0.1135 0)
(0.0194163 0.110568 0)
(0.0193801 0.115323 0)
(0.0190171 0.112333 0)
(0.0189587 0.116818 0)
(0.0192865 0.119882 0)
(0.0188633 0.121102 0)
(0.0191745 0.124265 0)
(0.018543 0.118267 0)
(0.0219632 -0.00992341 0)
(0.0187353 0.125219 0)
(0.0190232 0.128466 0)
(0.0185731 0.129145 0)
(0.0188445 0.132386 0)
(0.0183782 0.132854 0)
(0.0186466 0.136259 0)
(0.0181417 0.136364 0)
(0.0183771 0.139786 0)
(0.0208725 -0.0495083 0)
(0.0178531 0.139611 0)
(0.0180618 0.142994 0)
(0.0175192 0.142571 0)
(0.0173399 0.138928 0)
(0.0177023 0.145979 0)
(0.0171458 0.145325 0)
(0.0173029 0.148799 0)
(0.0189137 0.139658 0)
(0.0167328 0.147851 0)
(0.0168481 0.151306 0)
(0.0162776 0.150078 0)
(0.0163462 0.15342 0)
(0.0157788 0.152018 0)
(0.0158043 0.155379 0)
(0.0199758 0.0897925 0)
(0.0152516 0.153751 0)
(0.0152061 0.157061 0)
(0.0151917 0.150586 0)
(0.014686 0.15511 0)
(0.0145708 0.158373 0)
(0.0140547 0.156199 0)
(0.0169185 0.154638 0)
(0.0139009 0.159441 0)
(0.0133739 0.15717 0)
(0.0144314 0.161549 0)
(0.0137135 0.162533 0)
(0.0142642 0.164602 0)
(0.0135069 0.165501 0)
(0.0140359 0.167539 0)
(0.0132877 0.168245 0)
(0.0137194 0.170214 0)
(0.0129693 0.17073 0)
(0.0133872 0.172704 0)
(0.0125732 0.173112 0)
(0.0121573 0.170762 0)
(0.0130287 0.17515 0)
(0.0121399 0.175391 0)
(0.0125689 0.177405 0)
(0.0116562 0.177445 0)
(0.0120699 0.179434 0)
(0.0130049 0.179326 0)
(0.0124909 0.181316 0)
(0.0134582 0.181127 0)
(0.0115265 0.181301 0)
(0.0119075 0.183138 0)
(0.0109135 0.183022 0)
(0.0112547 0.184793 0)
(0.0102211 0.184556 0)
(0.0105122 0.186288 0)
(0.00944374 0.185916 0)
(0.00969038 0.187632 0)
(0.00858875 0.187138 0)
(0.00841393 0.18537 0)
(0.00752019 0.18646 0)
(0.0108032 0.187965 0)
(0.00765114 0.188218 0)
(0.00655386 0.187436 0)
(0.00661074 0.18916 0)
(0.005518 0.188243 0)
(0.005432 0.189886 0)
(0.00425836 0.18866 0)
(0.00419518 0.190434 0)
(0.00318024 0.189407 0)
(0.00296499 0.190883 0)
(0.00207647 0.18978 0)
(0.00171024 0.191137 0)
(0.00745571 0.184637 0)
(0.00394941 0.191981 0)
(0.00222911 0.188456 0)
(0.0220846 -0.127578 0)
(0.0221362 -0.123715 0)
(0.0222961 -0.122402 0)
(0.0223484 -0.118554 0)
(0.0224998 -0.117171 0)
(0.0225511 -0.11336 0)
(0.0227001 -0.111787 0)
(0.0227492 -0.108042 0)
(0.0228906 -0.106344 0)
(0.022942 -0.10265 0)
(0.0230682 -0.101104 0)
(0.0231253 -0.0973432 0)
(0.0230037 -0.0986479 0)
(0.0231807 -0.0935743 0)
(0.0219566 -0.124986 0)
(0.0233069 -0.0919421 0)
(0.0233616 -0.0883038 0)
(0.0234896 -0.0863841 0)
(0.0235421 -0.08286 0)
(0.023666 -0.0808481 0)
(0.0237184 -0.0772637 0)
(0.0238375 -0.0753257 0)
(0.0238938 -0.0716519 0)
(0.0240059 -0.0698013 0)
(0.0240642 -0.0661244 0)
(0.0241729 -0.0642352 0)
(0.0242297 -0.060717 0)
(0.0243376 -0.0586656 0)
(0.0243889 -0.0553432 0)
(0.0244972 -0.0531665 0)
(0.0245468 -0.0498366 0)
(0.0246532 -0.0476922 0)
(0.0247063 -0.0442447 0)
(0.0248051 -0.0422807 0)
(0.0248611 -0.0387555 0)
(0.0249526 -0.0369967 0)
(0.0250145 -0.0332741 0)
(0.0249076 -0.0354682 0)
(0.0250637 -0.0299439 0)
(0.0241425 -0.0618966 0)
(0.0232303 -0.089729 0)
(0.0251725 -0.0276335 0)
(0.0252221 -0.0242605 0)
(0.0253317 -0.0218573 0)
(0.0253785 -0.0185258 0)
(0.0254893 -0.0160213 0)
(0.0255337 -0.0127731 0)
(0.0256443 -0.0102177 0)
(0.0256866 -0.00707956 0)
(0.0257965 -0.00448812 0)
(0.0258385 -0.00138854 0)
(0.0259452 0.00111801 0)
(0.0259876 0.00428953 0)
(0.0260921 0.00673138 0)
(0.0261318 0.00987314 0)
(0.0262345 0.0122427 0)
(0.0262719 0.0153648 0)
(0.0263727 0.0176559 0)
(0.0264135 0.0209236 0)
(0.0262987 0.0182654 0)
(0.0264445 0.0240528 0)
(0.0255755 -0.00955587 0)
(0.0265723 0.0269166 0)
(0.0265895 0.0298746 0)
(0.0267084 0.0327426 0)
(0.0267291 0.0356337 0)
(0.026843 0.0382583 0)
(0.0268637 0.0412405 0)
(0.0269792 0.0438701 0)
(0.0269952 0.0467313 0)
(0.0271146 0.0494801 0)
(0.0271227 0.0522252 0)
(0.0272454 0.0551333 0)
(0.0272462 0.0577672 0)
(0.0273723 0.0607854 0)
(0.0273703 0.0633914 0)
(0.0274975 0.0664099 0)
(0.0274912 0.0690229 0)
(0.0276186 0.071988 0)
(0.0276087 0.0746803 0)
(0.0274737 0.0715904 0)
(0.0275882 0.077417 0)
(0.0268879 0.0446421 0)
(0.0277262 0.080517 0)
(0.0276989 0.0832734 0)
(0.0278392 0.0863749 0)
(0.0278025 0.0889267 0)
(0.0279449 0.0921685 0)
(0.0278961 0.0945205 0)
(0.0276628 0.0861902 0)
(0.0280428 0.0979247 0)
(0.0279788 0.100109 0)
(0.0281319 0.103635 0)
(0.0280561 0.105773 0)
(0.0282107 0.10929 0)
(0.0281224 0.111401 0)
(0.0282777 0.114889 0)
(0.0281751 0.11693 0)
(0.028015 0.113323 0)
(0.0280534 0.118811 0)
(0.028215 0.122471 0)
(0.0280773 0.124243 0)
(0.028238 0.127965 0)
(0.0280799 0.129536 0)
(0.0282395 0.133298 0)
(0.0280581 0.134703 0)
(0.0279035 0.130705 0)
(0.0278491 0.135649 0)
(0.028011 0.139739 0)
(0.0277778 0.140662 0)
(0.0279343 0.144602 0)
(0.0276829 0.145407 0)
(0.0278363 0.149348 0)
(0.0275608 0.149998 0)
(0.0277054 0.153904 0)
(0.0276054 0.13635 0)
(0.0274046 0.1543 0)
(0.0275323 0.15811 0)
(0.0272213 0.158241 0)
(0.0273252 0.162058 0)
(0.0269928 0.161829 0)
(0.0270658 0.165629 0)
(0.0269223 0.158214 0)
(0.0267165 0.165085 0)
(0.026759 0.168738 0)
(0.0263986 0.168004 0)
(0.0264162 0.171593 0)
(0.0260367 0.170637 0)
(0.0270888 0.0462716 0)
(0.0276198 0.0693318 0)
(0.0260198 0.174183 0)
(0.0256236 0.172999 0)
(0.026183 0.00882608 0)
(0.0256062 -0.0132431 0)
(0.028188 0.101241 0)
(0.0249469 -0.0323784 0)
(0.0263208 0.0211594 0)
(0.0279963 0.153338 0)
(0.0247413 -0.0459854 0)
(0.0241175 -0.067752 0)
(0.0255638 0.176402 0)
(0.0251615 0.175049 0)
(0.0252356 0.171662 0)
(0.0247641 0.173645 0)
(0.0248527 0.170261 0)
(0.0271047 0.169406 0)
(0.0230121 -0.10445 0)
(0.0250611 0.17827 0)
(0.0222438 -0.126221 0)
(0.0254765 0.179651 0)
(0.0243637 0.172217 0)
(0.0244738 0.168793 0)
(0.0249158 0.181302 0)
(0.0253343 0.182743 0)
(0.0247211 0.184115 0)
(0.0131255 -0.0304312 0)
(0.0251336 0.18559 0)
(0.0244736 0.186703 0)
(0.0248836 0.188203 0)
(0.0239759 0.170623 0)
(0.0241032 0.167219 0)
(0.012664 -0.0272552 0)
(0.0132365 -0.0251083 0)
(0.0241656 0.189083 0)
(0.0245549 0.1906 0)
(0.025303 0.189671 0)
(0.012751 -0.0221963 0)
(0.0133284 -0.0198138 0)
(0.0138044 -0.0226118 0)
(0.0138942 -0.0171049 0)
(0.0133959 -0.0145942 0)
(0.0139603 -0.0116534 0)
(0.0134396 -0.00945279 0)
(0.0139992 -0.00624911 0)
(0.0134551 -0.00441019 0)
(0.0140086 -0.000947536 0)
(0.0134398 0.000525401 0)
(0.0139905 0.0042408 0)
(0.023789 0.187612 0)
(0.0237785 0.191243 0)
(0.0241531 0.192748 0)
(0.0232986 0.193149 0)
(0.0236453 0.194647 0)
(0.0143581 -0.019797 0)
(0.0227237 0.194834 0)
(0.023013 0.196283 0)
(0.0133979 0.00539117 0)
(0.0139445 0.00926577 0)
(0.0220376 0.196317 0)
(0.0222638 0.197722 0)
(0.0212217 0.197591 0)
(0.0213393 0.198935 0)
(0.0210917 0.196256 0)
(0.0145412 0.00275369 0)
(0.0133284 0.0100861 0)
(0.013871 0.0141058 0)
(0.0236175 0.168887 0)
(0.0237364 0.165562 0)
(0.0202513 0.198644 0)
(0.0202873 0.199877 0)
(0.00210138 0.132606 0)
(0.0024402 0.1369 0)
(0.0026763 0.132912 0)
(0.00303696 0.136962 0)
(0.00324384 0.133125 0)
(0.00363343 0.137032 0)
(0.00380173 0.133083 0)
(0.0132315 0.0145804 0)
(0.0137683 0.0187395 0)
(0.0131079 0.0188772 0)
(0.0136373 0.0231002 0)
(0.0142759 0.0231417 0)
(0.0141364 0.027518 0)
(0.0134829 0.0271626 0)
(0.013973 0.0315978 0)
(0.0133033 0.030966 0)
(0.0137845 0.0353753 0)
(0.0130996 0.0344727 0)
(0.0135813 0.0388981 0)
(0.00425103 0.137091 0)
(0.00436239 0.132741 0)
(0.0128773 0.0376559 0)
(0.0133408 0.0421262 0)
(0.0239834 0.196118 0)
(0.0191352 0.199534 0)
(0.0191044 0.200823 0)
(0.0126251 0.0404371 0)
(0.0130624 0.0449125 0)
(0.0232505 0.167295 0)
(0.0233686 0.163915 0)
(0.02383 0.16188 0)
(0.0234657 0.160316 0)
(0.023872 0.158051 0)
(0.0235298 0.156517 0)
(0.0239118 0.154114 0)
(0.0235673 0.152557 0)
(0.0239579 0.149839 0)
(0.00486562 0.136707 0)
(0.00492472 0.132222 0)
(0.00385391 0.128739 0)
(0.0123421 0.042823 0)
(0.01277 0.0472964 0)
(0.0145912 0.031981 0)
(0.0134692 0.0495888 0)
(0.0131657 0.0519004 0)
(0.0124625 0.0493583 0)
(0.0128448 0.0538794 0)
(0.0121381 0.051096 0)
(0.0125056 0.0555122 0)
(0.0131872 0.0583964 0)
(0.0128364 0.059935 0)
(0.0121492 0.0568225 0)
(0.012471 0.0611976 0)
(0.0117749 0.0578059 0)
(0.0120771 0.0620938 0)
(0.0113863 0.0584934 0)
(0.0116705 0.0626308 0)
(0.012309 0.0663183 0)
(0.0119096 0.0667307 0)
(0.0112592 0.062883 0)
(0.0114924 0.0668255 0)
(0.0121022 0.0706711 0)
(0.0116876 0.0706377 0)
(0.0122107 0.0737712 0)
(0.0119498 0.0749541 0)
(0.0112431 0.0702637 0)
(0.011376 0.0738601 0)
(0.0119937 0.0785812 0)
(0.0114487 0.0772136 0)
(0.0108634 0.072697 0)
(0.0109357 0.075874 0)
(0.0114982 0.0805095 0)
(0.0109669 0.0788699 0)
(0.0114885 0.08346 0)
(0.0109488 0.081591 0)
(0.010454 0.0770354 0)
(0.0114298 0.0861285 0)
(0.0108901 0.084085 0)
(0.0113368 0.0886271 0)
(0.0107793 0.086285 0)
(0.0112036 0.0909061 0)
(0.0106351 0.0883114 0)
(0.0110308 0.0929221 0)
(0.0104662 0.0901287 0)
(0.0108185 0.0946429 0)
(0.0100573 0.0856103 0)
(0.0102579 0.0916271 0)
(0.0105718 0.0960884 0)
(0.0100221 0.0928799 0)
(0.010299 0.097332 0)
(0.00973066 0.0935999 0)
(0.00997954 0.0981756 0)
(0.00939139 0.0939412 0)
(0.00962073 0.0985978 0)
(0.0091338 0.0889363 0)
(0.0235807 0.148471 0)
(0.0239505 0.145371 0)
(0.0178357 0.200263 0)
(0.0174956 0.201388 0)
(0.00545332 0.136072 0)
(0.00546416 0.131431 0)
(0.00477362 0.141055 0)
(0.0117627 0.0931489 0)
(0.00600638 0.135167 0)
(0.00597515 0.130402 0)
(0.00653177 0.13406 0)
(0.0064628 0.129203 0)
(0.00591082 0.125388 0)
(0.00636124 0.124066 0)
(0.00694003 0.127917 0)
(0.00681126 0.122684 0)
(0.0228755 0.165702 0)
(0.0227125 0.169295 0)
(0.0090336 0.0941028 0)
(0.0108484 0.100442 0)
(0.0128738 -0.00304472 0)
(0.0163532 0.200805 0)
(0.0158469 0.20187 0)
(0.00739658 0.126544 0)
(0.023572 0.144204 0)
(0.0239091 0.140885 0)
(0.00622358 0.118609 0)
(0.00664537 0.117202 0)
(0.0171023 0.20249 0)
(0.0151547 0.202826 0)
(0.0140686 0.202213 0)
(0.0131878 0.203112 0)
(0.0143212 0.203778 0)
(0.0120969 0.20393 0)
(0.0111524 0.203303 0)
(0.00990945 0.204032 0)
(0.0108416 0.204697 0)
(0.00845544 0.204662 0)
(0.0076726 0.204011 0)
(0.00615813 0.204596 0)
(0.00689766 0.20531 0)
(0.00426758 0.205106 0)
(0.00405047 0.204366 0)
(0.00202352 0.204793 0)
(0.0213516 0.200216 0)
(0.00216757 0.205542 0)
(-5.12071e-05 0.205156 0)
(7.71084e-06 0.204363 0)
(-0.00201495 0.204637 0)
(-0.00179704 0.203792 0)
(-0.00372018 0.203971 0)
(-0.0040653 0.204832 0)
(0.016743 0.199686 0)
(0.0223429 0.167178 0)
(0.0232062 0.15124 0)
(0.0221029 0.170332 0)
(0.0235422 0.139766 0)
(0.0238531 0.136308 0)
(0.0242169 0.137179 0)
(0.0241345 0.132477 0)
(0.0244897 0.133102 0)
(0.024385 0.128288 0)
(0.0247275 0.128697 0)
(0.0246034 0.12378 0)
(0.0249332 0.123917 0)
(0.0247912 0.118938 0)
(0.0251091 0.118828 0)
(0.0249502 0.113811 0)
(0.0252578 0.113403 0)
(0.0250757 0.108381 0)
(0.025361 0.107505 0)
(0.0251662 0.102613 0)
(0.0254276 0.101459 0)
(0.0252285 0.0966124 0)
(0.0254751 0.0952341 0)
(0.0252656 0.0902941 0)
(0.0255001 0.0886979 0)
(0.0252867 0.0838895 0)
(0.0255013 0.081923 0)
(0.0252693 0.0773733 0)
(0.0254699 0.0750206 0)
(0.0252243 0.0705296 0)
(0.025415 0.068016 0)
(0.0251777 0.0636198 0)
(0.0253449 0.0609067 0)
(0.0251083 0.0566815 0)
(0.0252578 0.0538088 0)
(0.0250163 0.049598 0)
(0.0251536 0.0466394 0)
(0.0253909 0.0507612 0)
(0.025274 0.0434939 0)
(0.0250353 0.0394304 0)
(0.0251422 0.0361716 0)
(0.0249035 0.0321994 0)
(0.0249967 0.0287857 0)
(0.0247594 0.0249357 0)
(0.0248386 0.0212971 0)
(0.024599 0.0175682 0)
(0.024667 0.0136433 0)
(0.0244211 0.0101157 0)
(0.0244788 0.00601993 0)
(0.012552 0.0148413 0)
(0.0242328 0.0026893 0)
(0.0242824 -0.00140393 0)
(0.0245089 0.00158034 0)
(0.0243133 -0.00563694 0)
(0.02408 -0.00874979 0)
(0.0241033 -0.0129546 0)
(0.00604745 0.112781 0)
(0.00641994 0.111262 0)
(0.0237824 0.131529 0)
(0.0252269 0.0328741 0)
(0.0238667 -0.0160853 0)
(0.0238788 -0.0203624 0)
(0.012376 0.0336001 0)
(0.0249101 0.103598 0)
(0.0283977 0.131653 0)
(0.0243224 -0.00984454 0)
(0.0236417 -0.0234148 0)
(0.023651 -0.0277933 0)
(0.00657389 0.138635 0)
(0.0257225 0.0868879 0)
(0.0217753 0.168338 0)
(0.0214936 0.171516 0)
(0.0234066 -0.0307213 0)
(0.0234152 -0.0352057 0)
(0.0236748 -0.0319979 0)
(0.0234109 -0.0397045 0)
(0.0231658 -0.0425028 0)
(0.023161 -0.0471237 0)
(0.0229085 -0.0496893 0)
(0.0228925 -0.0545169 0)
(0.0226396 -0.0567597 0)
(0.0226151 -0.0616772 0)
(0.0234339 -0.0438509 0)
(0.0223586 -0.0637196 0)
(0.0223296 -0.0686427 0)
(0.0225822 -0.0666613 0)
(0.0222953 -0.0735401 0)
(0.0220366 -0.075441 0)
(0.0220004 -0.0802596 0)
(0.0217337 -0.0820599 0)
(0.0216905 -0.0869946 0)
(0.0214148 -0.0885831 0)
(0.0213573 -0.0936891 0)
(0.0210791 -0.0949847 0)
(0.0210071 -0.100157 0)
(0.0207305 -0.101158 0)
(0.0110586 0.0543159 0)
(0.0278894 0.115099 0)
(0.0244737 0.118738 0)
(0.00583989 0.106596 0)
(0.00617476 0.105033 0)
(0.0246571 0.0280882 0)
(0.0215385 0.0562504 0)
(0.0135393 0.153907 0)
(0.0128579 0.154752 0)
(0.013018 0.151502 0)
(0.0216514 -0.0924057 0)
(0.012164 -0.024292 0)
(0.0214696 -0.0836208 0)
(0.0216496 0.0189337 0)
(0.0194176 -0.0673359 0)
(0.0208846 -0.0244239 0)
(0.0250352 0.0849791 0)
(0.0249805 0.0658592 0)
(0.0181191 0.129419 0)
(0.0134914 0.0627171 0)
(0.0145389 0.169806 0)
(0.0211786 0.169274 0)
(0.0208368 0.172348 0)
(0.0225458 -0.0715538 0)
(0.00676722 0.109565 0)
(0.00647912 0.10328 0)
(0.025623 0.106026 0)
(0.0123529 0.152137 0)
(0.0125085 0.148867 0)
(0.00548078 0.108019 0)
(0.00528089 0.101497 0)
(0.0049348 0.102809 0)
(0.0205687 0.169896 0)
(0.0209164 0.166945 0)
(0.0233912 -0.0262464 0)
(0.0241704 0.00669796 0)
(0.0201713 0.172751 0)
(0.0204048 0.175306 0)
(0.0252617 0.123912 0)
(0.00473431 0.0958919 0)
(0.0043993 0.0971079 0)
(0.0195503 0.127961 0)
(0.00241193 0.173071 0)
(0.0026169 0.170718 0)
(0.00325383 0.172487 0)
(0.00340912 0.170066 0)
(0.00410871 0.171785 0)
(0.0042069 0.169243 0)
(0.00495043 0.170951 0)
(0.00498046 0.168233 0)
(0.00425221 0.16649 0)
(0.0199404 0.170316 0)
(0.0236172 -0.084265 0)
(0.0070739 0.107632 0)
(0.0067514 0.101363 0)
(0.0223816 -0.0588195 0)
(0.0118698 0.149296 0)
(0.0120169 0.146006 0)
(0.0116775 0.152458 0)
(0.0243472 0.151781 0)
(0.0225045 -0.138345 0)
(0.0225542 -0.135784 0)
(0.0226129 -0.13458 0)
(0.0226638 -0.132091 0)
(0.0227194 -0.130844 0)
(0.022771 -0.128381 0)
(0.0228255 -0.127078 0)
(0.0228777 -0.124623 0)
(0.0229327 -0.123226 0)
(0.0229846 -0.120819 0)
(0.0229297 -0.122139 0)
(0.0230375 -0.118344 0)
(0.0230897 -0.117048 0)
(0.0231437 -0.114576 0)
(0.023193 -0.113316 0)
(0.0232487 -0.110816 0)
(0.0232956 -0.109583 0)
(0.0233523 -0.107078 0)
(0.0233973 -0.105862 0)
(0.0234546 -0.10336 0)
(0.0234988 -0.102123 0)
(0.0235564 -0.0996348 0)
(0.0236003 -0.0983673 0)
(0.0236584 -0.0958854 0)
(0.0236125 -0.0971653 0)
(0.0237157 -0.0933983 0)
(0.0237614 -0.0920838 0)
(0.023819 -0.0896135 0)
(0.0238632 -0.0883152 0)
(0.0239211 -0.0858501 0)
(0.0239635 -0.0845903 0)
(0.0240231 -0.0820779 0)
(0.0239795 -0.0833301 0)
(0.0240835 -0.0795049 0)
(0.0241265 -0.0782436 0)
(0.0241871 -0.075682 0)
(0.024229 -0.0744326 0)
(0.0242888 -0.0719174 0)
(0.0243294 -0.0706893 0)
(0.0243898 -0.0681689 0)
(0.0244295 -0.0669489 0)
(0.0244908 -0.0644088 0)
(0.0245301 -0.0631811 0)
(0.0245923 -0.0606178 0)
(0.0245515 -0.0618576 0)
(0.0246538 -0.0580533 0)
(0.0246951 -0.0567734 0)
(0.0247551 -0.054275 0)
(0.024796 -0.0529785 0)
(0.0248554 -0.05053 0)
(0.0248931 -0.0493336 0)
(0.0249554 -0.0467873 0)
(0.0249927 -0.0456016 0)
(0.0250555 -0.0430372 0)
(0.0250947 -0.0417541 0)
(0.0251562 -0.039253 0)
(0.025117 -0.0404938 0)
(0.0252184 -0.0366965 0)
(0.0252569 -0.0354696 0)
(0.0253194 -0.0329113 0)
(0.0253573 -0.0316905 0)
(0.0254185 -0.0291988 0)
(0.0254569 -0.0279302 0)
(0.0255158 -0.0255355 0)
(0.025389 -0.0300781 0)
(0.0255539 -0.024269 0)
(0.025613 -0.0218688 0)
(0.0256509 -0.0206137 0)
(0.0257114 -0.0181574 0)
(0.0257473 -0.0169689 0)
(0.0258089 -0.014477 0)
(0.0257706 -0.0157225 0)
(0.0258709 -0.0119465 0)
(0.0258998 -0.0110364 0)
(0.0259642 -0.00842599 0)
(0.0259346 -0.00931737 0)
(0.026034 -0.00558211 0)
(0.0260587 -0.0049056 0)
(0.026135 -0.00178351 0)
(0.0261705 -0.000661031 0)
(0.0262368 0.002055 0)
(0.0262703 0.0031113 0)
(0.0263362 0.00580703 0)
(0.026368 0.00680391 0)
(0.026436 0.00957286 0)
(0.0264009 0.00848173 0)
(0.0265018 0.0122849 0)
(0.0265363 0.0133632 0)
(0.0266022 0.0160759 0)
(0.0266355 0.0171169 0)
(0.0267022 0.019851 0)
(0.0266673 0.0187951 0)
(0.0267695 0.0226486 0)
(0.0268019 0.0236151 0)
(0.0268708 0.0264654 0)
(0.0269036 0.0274552 0)
(0.0269713 0.0302571 0)
(0.0268377 0.0255249 0)
(0.0270063 0.0313449 0)
(0.0270714 0.03404 0)
(0.0271074 0.0351717 0)
(0.0271713 0.0378177 0)
(0.0272073 0.0389528 0)
(0.0272713 0.0415971 0)
(0.0272362 0.0405464 0)
(0.0273363 0.0443227 0)
(0.0273706 0.0453515 0)
(0.0274362 0.0480982 0)
(0.0274692 0.049082 0)
(0.0275362 0.0518786 0)
(0.0275013 0.0508765 0)
(0.0276044 0.0547804 0)
(0.0276365 0.0556756 0)
(0.0277072 0.0586569 0)
(0.0277374 0.0594916 0)
(0.0278054 0.0623474 0)
(0.0278375 0.0632832 0)
(0.0279033 0.0660628 0)
(0.027937 0.0670623 0)
(0.0280047 0.0699277 0)
(0.0279629 0.0687343 0)
(0.0280713 0.0728072 0)
(0.0281059 0.0737609 0)
(0.0281719 0.0766191 0)
(0.0281356 0.0756727 0)
(0.0282369 0.0795256 0)
(0.0282727 0.0804282 0)
(0.0283396 0.0834178 0)
(0.0282998 0.0824506 0)
(0.0284039 0.0864018 0)
(0.0284426 0.0873185 0)
(0.0285069 0.0903024 0)
(0.0285463 0.091228 0)
(0.0286104 0.0942126 0)
(0.0286553 0.0952693 0)
(0.0287145 0.0981561 0)
(0.0287645 0.099484 0)
(0.0288173 0.102085 0)
(0.0287698 0.100952 0)
(0.0288747 0.104968 0)
(0.0289185 0.105965 0)
(0.0289781 0.108925 0)
(0.0289306 0.107951 0)
(0.0290346 0.111938 0)
(0.0290814 0.112869 0)
(0.0291372 0.115872 0)