/*--------------------------------*- C++ -*----------------------------------*\
| =========                 |                                                 |
| \\      /  F ield         | OpenFOAM: The Open Source CFD Toolbox           |
|  \\    /   O peration     | Version:  v2012                                 |
|   \\  /    A nd           | Website:  www.openfoam.com                      |
|    \\/     M anipulation  |                                                 |
\*---------------------------------------------------------------------------*/
FoamFile
{
    version     2.0;
    format      ascii;
    class       volScalarField;
    location    "250";
    object      nut;
}
// * * * * * * * * * * * * * * * * * * * * * * * * * * * * * * * * * * * * * //

dimensions      [0 2 -1 0 0 0 0];


internalField   nonuniform List<scalar> 
13851
(
0.00046163
0.00135642
0.0014499
0.00402774
0.00672221
0.00107488
0.00253677
0.00675989
0.0100103
0.00646765
0.000287792
0.00672473
0.00294256
0.0049257
0.00092376
0.00137858
0.00220083
0.0038544
0.000599356
0.000525041
0.000804421
0.000678444
0.00177548
0.00672546
0.00420228
0.00151031
0.000848934
0.000493891
0.00817398
0.00674153
0.010229
0.00306172
0.000606651
0.00995163
0.00039523
0.00782426
0.00672579
0.00420463
0.0150143
0.00264657
0.0114928
0.00781797
0.000183801
0.000236711
0.00757623
0.0051582
0.0067368
0.000986899
0.00129027
0.00266203
0.00355417
0.00266176
0.00130027
0.00179082
0.00443793
0.00262399
0.000530362
0.0126732
0.00084951
0.00551618
0.00672466
0.000872402
0.00672598
0.0011581
4.89323e-05
4.12603e-05
0.00344499
7.64889e-05
0.00255994
0.00622283
0.00963291
0.000658832
0.00351849
0.00418243
0.00151875
0.000948124
0.00351274
0.00673309
0.00310839
0.00673312
0.00228265
0.000519723
0.000395347
0.00573321
0.00594534
0.0102033
0.000706353
0.00254595
0.00587718
0.0100937
0.00193223
0.00256879
0.000280744
0.00929324
0.014487
6.97441e-05
0.00564707
0.001179
0.00399677
0.000185568
0.00113277
0.000153857
0.000130835
0.00292678
0.00582683
0.00051936
0.00487828
0.0101514
0.00262641
0.00403999
0.000405953
0.00561946
0.000328621
0.000359136
0.00066381
0.00186837
0.00672866
0.00674995
0.00334265
0.00689886
9.40912e-05
0.00546195
0.00216292
0.0113498
0.000356911
4.92398e-05
0.00521122
0.000245044
0.0120834
0.000745247
0.000687388
0.000636015
0.00225519
0.0104175
0.000323511
0.0144945
8.80754e-05
0.0099891
0.000203793
0.000910927
0.000473705
0.00139149
0.00571994
5.59384e-05
0.00405108
0.00114013
0.00673217
0.00937942
0.00869821
0.000235615
0.00100049
0.000323131
0.000356415
0.00042894
0.00184056
0.00379471
0.00672419
0.0146641
0.000916241
0.00240444
0.006725
0.00804631
0.000585732
0.00101513
0.00520432
0.00913802
0.00904269
0.00503264
0.000439339
0.00859874
0.00672469
0.00672738
0.000484764
0.00672237
0.0149069
0.000715341
0.000895163
0.0067283
0.00159463
0.00091586
0.000410786
0.000117198
0.00046824
0.000878218
0.000198423
0.00878539
0.000618647
0.000322741
0.0022468
0.00658851
0.00179635
0.000909049
0.00300771
0.000988716
0.00105435
0.00118178
0.000554955
0.0033478
0.00260678
8.46381e-05
0.000490047
0.0147528
0.0136917
0.00101662
6.23772e-05
0.0143085
0.000925466
0.00116531
0.0102231
0.000961366
0.0014451
0.00295552
0.00050419
0.00672561
0.000426736
0.000856972
0.00288293
0.000486595
0.00288708
3.08766e-05
0.00672728
0.000486572
0.00417099
0.0147293
0.000348094
0.00104727
0.00672594
6.43561e-05
0.00672754
0.000383582
0.00523294
0.000348134
0.0010424
0.00672479
0.0137361
0.0067423
0.00109829
0.0135903
0.000174924
0.00672525
0.000239281
0.00619595
0.00636069
0.00146246
0.000863626
4.77304e-05
0.000462296
0.00156259
8.35325e-05
0.000400747
0.00303691
0.000390434
0.00673831
0.00115748
0.00121356
0.00809919
0.00383763
0.006745
5.0463e-05
0.00612578
0.000575956
0.000471209
0.00133476
0.000643927
0.000347501
0.00415043
0.000142119
0.00096032
0.00028297
0.00672627
0.00298581
0.000353311
0.00862892
0.0017298
0.000758365
0.00502046
0.000414904
0.000434719
0.000668743
0.000632168
0.00955443
0.00378369
0.00100472
0.00108422
0.00376737
0.00523194
0.00672396
0.000600262
0.000296798
0.0067458
0.00672554
0.00672794
0.00672255
0.000945982
0.00672407
0.0100405
0.00079122
0.00364646
0.00808164
0.0108215
0.00232845
0.000464605
0.00355495
0.00123005
0.0020489
0.000727415
0.00532433
0.0120849
0.00048718
0.00672126
0.00916509
0.00672474
0.000431432
0.00533735
0.000242713
0.00231151
0.0027443
0.000538608
0.0113934
0.000320059
0.000132092
0.0150768
0.0120378
0.000679518
0.00240867
0.00435372
0.000227535
2.88038e-05
2.88438e-05
0.000728978
0.00049814
0.000355703
0.00295252
0.000112278
0.00672172
0.00672558
0.000696498
0.0106686
2.83021e-05
0.00517822
0.014339
0.000347647
0.000575949
0.00222206
0.00391924
0.0004136
0.00126386
0.000933249
0.00112566
0.00723954
0.00210956
0.000393767
0.00110499
0.000654491
0.00033173
0.00584321
0.00318255
0.000226498
0.00019508
0.00039818
0.000954177
0.00711973
0.000916534
0.0138577
0.000556888
0.00675448
0.000182369
0.000525837
0.00555713
0.000723017
0.00182057
0.00090081
0.00351866
0.000240588
0.00388235
0.00197949
0.000590899
0.000436956
0.000845111
0.00470076
0.000756362
0.014064
0.00119154
0.00184638
0.000429038
0.000257518
0.00383352
0.00113211
0.000266561
0.00151932
0.004862
0.000696574
0.00556072
0.00350722
0.000945481
0.00204079
0.00125021
0.000406387
0.00132869
0.0104095
0.000848682
0.0014887
8.59789e-05
0.000362488
0.000613298
0.00289574
0.00425001
0.000267619
0.00439775
0.000277316
0.000647089
0.00164837
0.00530662
0.000216521
0.0070532
0.00372628
0.00113214
0.000359231
0.000824771
0.0019624
0.00673494
0.0024855
0.000359904
0.00140963
0.000354071
0.0020903
0.00386516
0.00672281
0.0032826
0.000802716
0.00565228
0.00144075
0.000986282
0.00672737
0.00626614
0.000464783
0.000625284
0.00165325
0.00180459
0.00225799
0.00223104
0.00343978
0.0024126
0.000201285
0.00618546
0.000704314
0.000975877
0.00672553
0.00672382
0.00120237
0.00041913
0.00161574
0.00442323
0.00177252
0.000100495
0.00184357
0.0111418
0.00672442
0.00166491
0.00712613
0.000241119
0.00672511
0.00672489
0.0017576
0.00321305
0.00025343
0.0012193
0.000839648
1.53436e-05
0.00125156
0.00672615
0.0107407
0.000899371
0.000214834
0.00319329
0.0119213
0.000227338
0.000116368
0.00280252
0.000610998
0.000241839
0.00130452
0.0124103
0.000753921
0.00289579
0.000821798
0.000321534
0.00417207
0.00822679
0.00152772
0.000559556
0.000726361
0.000961226
0.000229927
0.000474265
0.0067218
0.00191738
0.0116967
0.00853078
0.00119377
0.00122209
0.00720407
0.000389631
0.000393727
0.00672551
0.00051386
0.00655739
0.00569328
0.000318596
0.0151678
0.00157273
0.00137641
0.00012042
0.000505802
0.00579394
0.00906773
0.0062478
0.0106026
0.000241212
0.00673426
0.00200339
0.000390556
0.000169608
0.00674521
0.00686552
0.00133606
0.00677005
0.0134497
0.00048302
0.000469606
0.000933634
0.000345676
0.0054996
0.00677532
0.000523607
0.00261396
0.00480689
0.000262797
0.014084
0.000627312
0.00152767
0.00616467
0.00134698
0.0108893
0.0147928
0.00591304
0.00395989
0.00495411
0.00236194
0.000569252
0.00218145
0.00673469
0.000905023
0.0137545
0.000296475
0.0132384
0.00161499
0.00608976
0.00785121
0.00672545
0.000275102
0.0015391
0.00144098
0.000831195
0.00503926
0.00538923
0.00112036
0.00227117
0.00244665
0.000399116
0.00765627
0.00671258
0.00244402
0.00456592
0.000129371
0.0134978
0.00104285
0.00120712
0.000568245
0.00189779
0.00108867
0.00486699
0.00956543
8.50743e-05
0.0120034
0.000648393
0.00704395
0.00193884
0.000692894
0.000265286
0.00672558
0.000623894
0.0110902
0.000432978
0.000854631
0.00291971
1.40068e-05
0.000182522
0.00360326
0.0038391
0.00672306
0.000455003
0.000483965
0.00672432
0.0148776
0.00672299
0.000670727
0.000803568
0.00161249
0.00291728
0.00518135
0.000274875
0.00373836
0.000581614
0.0141732
0.000630091
0.00672835
0.00676016
0.000469826
0.00181251
0.000340905
0.00147696
0.000238887
0.00085297
0.00672535
0.00260027
0.00672578
0.00171709
0.0030134
0.0070053
0.000355537
0.00304881
0.000113525
0.000192978
0.0132542
0.00498626
0.00966486
0.000356232
0.000784632
0.00158885
9.71344e-05
0.00675807
0.000326303
0.00352243
0.00751424
0.00406767
0.00230294
7.18098e-05
0.00675716
0.006726
0.00672597
0.00141949
0.00175785
0.000327986
0.00184839
0.000396421
0.00191539
0.00485015
0.000832396
0.000370199
0.000206497
0.00672942
0.000873608
0.00015208
0.00150574
0.0013096
0.00109966
0.000187941
0.000457522
0.00100144
0.000701102
0.000698573
9.93176e-05
0.000127451
0.000493844
0.00425536
0.00601119
0.00103736
0.00823936
0.000254297
0.000204807
0.000467868
0.00413714
0.0011079
0.000405585
0.000663485
0.00673227
0.0067311
0.00149429
0.0032657
0.00165782
0.0139309
0.00672879
0.000268602
6.86594e-05
0.00317051
0.000305704
0.000939058
0.00152445
0.00438708
0.000201514
0.000273711
0.000701992
0.00204631
0.000571776
0.00151239
0.000700406
0.000677225
0.000430816
0.00397797
0.00672572
0.000898541
0.00500933
0.00789085
0.00672211
0.000873224
0.009302
0.000279723
0.0149986
0.00490751
0.00068045
0.000251576
0.000382767
0.00672427
0.00324819
0.00673202
0.00576029
0.0067225
0.000403754
0.000326916
0.000137857
0.00048216
0.00111733
0.0101843
0.00672644
0.00485039
0.000408885
0.00672619
0.0067245
0.00737961
0.00101185
4.21221e-06
0.0104405
0.000824716
0.000565188
0.00676737
0.00967595
0.000767616
0.0015601
0.000757052
0.0067244
0.00134798
0.00515086
0.00133464
0.0035771
0.000689037
0.00066857
0.000387364
0.0142836
0.000327489
0.000537729
0.00723706
0.00673096
0.00742858
0.00672411
0.00189621
0.00270038
0.000863528
0.000670021
0.000250394
0.000567572
0.00672524
0.00672638
0.000419405
0.00194265
0.00672534
0.0017005
0.000314598
0.00672242
0.000169062
0.000323223
0.000243642
0.000261297
0.00919763
0.000196617
0.00672425
0.000230919
0.00672914
0.00112806
0.00335408
0.00700255
0.0114321
0.00626727
0.00226114
0.00256242
0.000117258
0.0011796
0.00539655
0.00149385
0.000533047
0.00533936
0.00157829
0.000922174
0.00435398
0.00674201
0.000921142
0.000506705
0.00172577
0.00672552
0.000702705
0.000320663
0.0140255
0.00190319
0.0067237
0.00255898
0.0014425
0.00076368
0.00672639
0.0151962
0.00676106
0.00376003
0.00672774
0.000171661
0.000810966
0.00010428
0.000693368
0.00348304
0.00135507
0.00672198
0.000886485
0.00135666
0.00556445
0.00234713
0.00014761
0.0100195
0.000686183
0.00672142
0.00263083
0.00157396
0.00101318
0.000940952
0.00334042
0.00244418
0.00397911
0.00045078
0.00672606
0.00672198
0.00012553
0.000847609
0.00672498
0.00169967
0.012684
7.49456e-05
0.00781018
0.00674289
0.00896097
0.00672679
0.00672218
0.00196812
0.00671881
0.00672592
0.00892549
0.0041629
0.0027615
0.00672296
0.000613221
0.00508906
0.00358288
0.00023747
0.0066387
0.0151759
0.00159728
0.00103129
0.00672579
0.000781745
8.08189e-05
0.00525055
0.00672435
0.000340014
0.00431264
0.000608412
0.000511008
0.000750762
0.00672578
0.000554403
0.000870583
0.00281446
0.000933713
0.000760023
0.000505024
0.00672529
0.00380183
0.00410088
0.0055251
0.00140588
0.00026147
0.000884135
4.71369e-05
0.00236311
0.000481355
0.000714483
0.00672212
0.00951956
0.00118693
0.00672124
0.00261384
0.00135508
0.0149625
0.000399038
0.00673378
0.000537593
0.00512905
0.00130423
0.000477781
0.000963068
0.000765602
0.0130401
0.00672427
0.000973789
0.000540981
0.00065178
3.06643e-05
0.00139253
0.000534978
0.00148847
0.0124492
0.003695
0.00469031
0.000848383
0.00956356
0.00292692
0.00292803
0.000912164
0.00343951
0.00207054
0.00672604
0.00182355
0.00672501
0.0124039
0.000494894
0.000403225
0.000428203
0.000909678
0.00674086
0.0023518
0.000683294
0.00207259
0.000647798
0.0128286
0.000901205
0.000937219
0.000265068
0.00796015
0.00130183
0.011421
0.00672928
0.000367285
0.00130193
0.00360967
0.000287547
0.00672643
0.00673324
0.000129494
0.00336037
0.000312377
0.00181677
0.000526656
0.000422293
0.000436716
0.000436447
0.00323215
0.0145847
0.00043223
0.00672544
0.000616935
0.00144729
0.0120466
0.00108473
0.000139189
0.000128153
0.00148074
0.000198398
0.00268594
0.00538728
0.00025688
0.000178281
0.00050796
0.00672872
0.00608495
0.000494291
0.00384541
0.00397085
0.000255765
0.00672545
0.000509808
0.000316589
0.0050652
0.0119562
0.00307012
0.000605119
0.00158583
0.00511862
0.000459465
0.00672403
0.00331015
0.000546373
0.00542203
0.00594823
0.00152948
0.00172398
0.0100709
0.00944935
0.00131991
0.0088497
0.00127611
0.00474369
6.37109e-05
0.00673022
0.000675872
0.00553519
0.00672203
0.000972748
0.00194753
0.00877161
0.00294001
0.000809777
0.00510659
0.0105909
0.00036213
0.00344462
0.00202548
0.000470721
0.00570201
0.00677696
0.000391782
0.00348349
0.000979087
0.00673775
0.000404683
0.000705786
0.000432806
0.000430121
0.0067711
0.00673376
0.00228122
0.00257354
0.00184656
0.0113301
0.00111885
0.0067238
0.00522454
0.00595508
0.000845438
0.000668008
0.00657515
0.00830856
0.000335351
0.00672637
0.000444927
0.00318664
0.00240811
0.00820855
0.000304927
0.00520687
0.00804055
0.00885211
0.00137591
0.00098522
0.010024
0.00091435
0.000286918
0.000102262
0.000198258
0.00190375
6.46824e-05
0.00448782
0.00245552
0.00355711
0.00672945
0.000817499
0.000228161
0.000458558
0.000867786
0.0067232
0.00141049
0.000978828
0.00167073
3.85491e-05
0.00672497
0.00186272
0.00352889
0.00405462
0.0010418
0.00172102
0.00672549
0.00708783
0.000574113
0.0148467
0.00695883
0.00672624
0.000881448
0.000764086
0.00188586
0.000911219
0.000928791
0.00672568
0.00100031
0.000547733
0.000680909
0.000806008
0.00354903
0.00103765
0.00125136
0.000119659
0.00047856
0.000450994
0.00546475
0.000442132
0.0105928
0.00117094
0.00869386
0.00308117
0.00942652
0.0089892
0.00526008
0.00639536
0.00377254
0.00104886
0.00149602
0.000454571
0.00181215
0.00370285
0.00672267
0.00595177
0.00113004
0.00673187
0.00133767
0.00100564
0.000399717
0.00117949
0.0067285
0.00672613
0.00376718
0.00672318
0.000248783
0.000829624
0.000301907
0.00561603
0.00673158
0.00501759
0.0119268
0.00988072
0.00275351
0.000382312
0.000131019
0.000301754
0.00672791
0.000167261
0.00129728
0.00672703
0.00226079
0.00508427
0.00206358
0.000473501
0.00101258
0.00318283
0.00388288
0.000493015
0.000571077
0.00672602
0.000248828
0.00387151
0.0010478
0.00672457
0.00284985
0.00101266
7.37268e-05
0.00236635
0.000633869
0.00979326
0.00119776
0.0096309
0.00407732
0.00396262
0.00052595
0.00672863
0.00359626
0.00198231
0.000151669
0.00209684
0.00439379
0.00672352
0.00549463
0.00190908
0.000408677
0.000676864
0.00256897
0.00672563
8.80426e-05
0.00675757
0.00918741
0.0067245
0.000746522
0.00145669
0.00729588
0.000302966
0.00672511
0.000553065
0.00672561
0.00187563
0.000189508
0.000472255
0.0009864
0.006726
0.00106258
7.93151e-05
0.000762349
0.000402513
0.000262917
0.00032485
0.00116593
0.000745662
0.00108393
0.00528207
0.000193643
0.00204255
0.000976712
0.0067241
0.000534611
0.00673024
0.00070373
0.00672946
0.000184317
0.00347024
0.00673091
0.0023791
0.00103457
0.00672391
0.00094903
0.00672137
0.000166043
0.00725372
0.000660312
0.00020613
0.00672376
0.00672593
0.000143216
0.00672567
0.00672522
0.00166528
0.000885264
0.000642074
0.000189926
0.00268279
0.00038656
0.00563192
0.0067259
0.00672559
0.00672849
0.000386771
0.00561132
0.000973722
0.000949842
0.00672967
0.00672407
0.0075105
0.00672541
0.000681723
0.00202771
0.00717097
0.000454094
0.000121352
0.000657961
0.000305616
5.5767e-05
0.00248318
0.000323748
0.000721083
0.00560587
0.00543506
0.000971948
0.000907095
0.00392896
0.000275352
0.00672662
0.00138033
0.000412953
0.00355699
1.26336e-05
0.00233812
0.000125479
0.00786432
0.00561787
0.00672528
0.00142057
7.37048e-05
0.00303964
0.000459602
0.000742105
0.00847596
0.00154833
0.00106517
0.00142294
0.000351849
0.00672633
0.000257211
0.00117289
0.00225079
0.00676281
0.00911731
0.00044278
0.000866242
0.00879301
0.00140837
0.00160025
0.00672639
0.00251031
0.0068414
0.000279045
0.0037311
0.000327558
0.00400644
0.00980005
0.00672526
0.000296354
0.000461955
0.00252675
0.000709382
0.0067266
0.0129487
0.0106152
0.00677057
0.000573821
0.00146027
0.00111872
0.000474826
0.00134293
0.000888956
0.00141035
0.000919176
0.00124628
0.00672522
0.00126344
8.06434e-05
0.000371355
0.00672648
0.000537311
0.000462859
0.00152407
0.00672605
0.0107689
0.00132403
0.000873858
0.00557157
0.000379412
0.000443901
0.000125462
0.00672506
0.00147708
0.000255782
0.000226002
0.000303527
0.00672483
0.00130506
0.00136465
0.000378978
0.00672529
0.000214195
0.00313143
0.000258592
0.00651674
0.00178439
0.00366772
0.000549052
0.00482607
0.00072575
0.00672486
0.000811064
0.00119431
0.000767314
0.000347083
0.00124731
0.000264168
0.000284574
0.00069105
0.000905752
0.00673113
8.05348e-05
0.00146768
0.000393676
0.000396389
0.00074068
0.00043055
0.00673225
0.0045734
0.000215159
0.00281321
0.00144335
0.000961533
0.00541805
0.000271112
0.00136933
0.0072156
0.000510204
0.000315557
0.000408297
0.000971649
0.00673208
3.47006e-05
0.00677732
0.000458963
0.00360168
0.00711557
0.000590161
0.000377926
0.00672482
0.00400237
0.00673191
0.00100347
0.000641272
0.000356774
0.00957985
0.00231921
0.00672124
0.000552832
0.000143755
0.00672932
0.00899449
0.00672856
0.000912994
0.00146066
0.00208257
0.000644301
0.000945473
0.00406302
0.000413202
0.000424976
0.000801197
0.000316803
0.00672982
0.00509312
0.00673109
0.00672182
0.00087869
0.000682995
0.000355868
0.00329754
0.00672197
0.00135101
0.000434862
0.011254
0.00672781
0.00672409
0.000561033
0.000182244
0.00672153
0.000348604
0.00035938
0.000314999
0.000443652
0.000573536
0.000574503
0.00672767
4.9599e-05
0.00672644
0.00471413
0.000629071
0.00673307
0.00194733
0.000296937
0.00672353
0.00310312
0.000435422
0.00427098
0.00323633
0.00541902
0.00672487
0.00672772
0.000482965
0.00672612
0.00538822
0.0101352
0.00672621
0.000736167
0.000918407
0.0124992
0.000375288
0.00611045
0.000748667
0.00040582
0.00672368
0.00360909
0.00672585
0.000788332
0.00672552
0.000950533
0.000718582
0.00676434
0.00676081
0.000721749
0.000653241
0.000879169
0.000141464
0.000318079
0.00104817
0.00987383
0.00019624
0.00193645
0.00107217
0.000186714
0.000337784
0.00109859
0.00171601
0.00592437
0.000349342
0.00463495
0.00150057
0.00358153
0.000494427
0.000228785
0.00632822
0.00329844
8.60625e-05
0.00672554
0.00207939
0.00672631
0.00673074
0.00221928
0.00343323
0.00326775
0.00672129
0.00598714
0.00672383
0.000132521
0.00189522
0.000679342
0.000150775
0.0032101
0.00452434
0.000733396
0.00672575
0.00100103
0.00601085
0.000352032
0.00387488
0.0056782
0.000926114
0.000612564
5.71659e-05
0.00390102
0.000490535
0.000934717
0.000433152
0.000260471
0.00332628
0.00193297
9.73079e-05
0.000424006
0.00360128
0.00674853
0.00688187
0.00249612
6.8661e-05
0.0080577
0.000448372
0.000556193
0.000748266
0.000795977
0.000745106
0.0117379
0.000600005
0.00672279
0.000260317
0.000360983
0.00125044
0.00673124
0.00672332
0.0149834
0.00672609
0.000532722
0.00941294
0.000591412
0.00435093
0.000260548
0.000824717
0.00107121
0.00672314
0.00472841
0.00672723
0.000523615
0.00220389
0.00314136
0.000842581
0.010451
0.00505806
0.00672551
0.00293263
0.00403507
0.00261228
0.00296656
0.0122947
0.00549319
0.000787188
0.00672608
0.00643281
0.00881309
0.000401671
0.000103239
0.000440034
0.00411983
0.00672493
0.00524795
0.00672266
0.00102874
0.00676264
0.0017409
0.00672535
0.00529062
0.00672804
0.00118584
0.00675839
0.000199468
0.000251551
0.00653261
0.000242969
0.0110066
0.000771692
0.000114856
0.000534885
0.000222273
0.000923417
0.000752466
0.000394093
0.000208058
0.00431677
0.00168643
0.00039485
0.00336774
0.00532955
0.00702187
0.000646017
0.00044042
0.000528007
0.000444288
0.00772068
0.00651181
0.0067559
0.000282572
0.0104613
0.000395378
0.000292823
0.000332036
0.00672873
0.0105615
0.00766571
0.00839165
0.00672441
0.0060462
0.00960295
0.000260483
8.07993e-05
0.0104029
0.000958832
0.000664601
0.000298844
0.00056398
0.00385186
0.00073267
0.000586184
0.00672999
0.0078068
0.00672537
0.000509662
0.000796743
0.000491516
0.000143451
0.000270133
0.00192041
0.00131754
0.000494673
7.16604e-05
0.0148241
0.000406737
0.00165937
0.000565034
0.000417313
0.00015053
0.00672545
0.000467683
0.000117534
0.000289561
0.00401695
0.000360413
0.000852626
0.000265785
0.000499451
0.000908677
0.00102432
0.00015261
0.00742133
0.0023285
0.00136889
0.00845256
0.000421381
0.00103564
0.00121375
0.00672538
0.000180521
0.00181308
0.00762117
0.000325622
0.00151705
0.00672466
8.22429e-05
0.000492871
0.000474268
0.00488126
0.00644995
0.00672761
0.000608436
0.00672491
0.00127595
0.00129546
0.0016404
0.000538572
0.00528248
0.000822773
0.00228372
0.00115733
0.000355172
0.00672585
0.00622683
0.00148939
0.00672713
3.5932e-05
0.000176953
0.000206603
0.00125913
0.000595068
0.00104753
7.63732e-05
0.000966323
0.00150235
0.00672438
0.00357877
0.00222669
0.000215256
0.0014319
0.00495642
0.00672682
0.000181258
0.00529423
0.000649998
0.00101041
0.000143198
0.00673118
0.000491865
0.00213813
0.0110957
0.00672822
0.000248238
2.67878e-05
0.00247918
0.000355416
0.00144095
0.00196225
0.000199863
0.000379501
0.000620616
0.000778346
0.000920533
0.00672466
0.00524521
0.000285421
0.00672543
0.00253934
0.000264022
0.00672602
6.58536e-05
0.00534937
0.014215
0.00525395
0.000914239
0.000627118
0.0103249
0.00254183
0.00672536
0.0108038
0.00675325
0.00613731
0.00672884
0.00015889
0.00978675
0.00416775
0.000445097
0.00398998
0.00127881
0.000288822
0.00545076
0.00672197
0.000481089
0.0142203
0.00672534
0.00672452
0.007538
0.00104105
0.00266223
0.00672989
0.00679169
0.0106901
0.00366338
0.000545563
0.00672587
0.0113758
0.000164448
0.00303624
0.00438191
0.00226036
0.00451344
0.00597208
0.00404723
0.00672596
0.00672611
0.00939747
0.0048672
0.000149644
0.000958224
0.00282575
0.00177517
0.000296151
0.000546948
0.000469486
0.00990709
0.0126076
0.00672161
0.00139308
0.00129235
0.00150011
0.00600939
0.00672785
0.00383782
0.000377403
0.0010539
0.00120221
0.00672188
0.000373361
0.000474385
0.0039274
0.00672534
0.000331313
0.0021494
0.000565495
0.00154274
0.0112072
0.000249131
0.000170385
0.00142177
0.00418538
0.00087705
0.000607071
4.87165e-05
0.00904702
0.0111465
0.00672339
0.000361909
7.41263e-05
0.0154101
0.00226466
0.000457926
0.000557892
0.00292418
0.00602697
0.00672602
0.000831842
0.00632283
0.0137062
0.000398394
0.0108851
0.000522459
0.000607149
0.00675629
0.0119348
0.000548616
0.00441595
0.00675662
0.00256748
0.00673054
0.00672808
0.000846447
0.00033667
0.000322449
0.0033998
0.00813317
0.0013231
0.00503672
0.000427187
0.00647993
0.000152237
0.00420744
0.0132241
0.000912418
0.00124162
0.00153088
0.00672269
0.000370977
0.00672885
0.00368488
0.000136491
0.00192066
0.00670338
0.000451033
0.000631851
0.00675675
0.00267497
0.000484858
0.000433728
0.0067666
0.000273744
0.006725
0.000205074
0.00143149
0.000143119
0.00145289
0.00791011
0.000215168
0.0104704
0.000290368
0.000503147
0.0067379
0.00445184
0.000131953
0.000298467
0.000102429
0.00672514
0.000380157
0.000271967
0.000498743
0.000961459
0.0117195
0.00815215
0.00161681
0.00698275
0.000440115
0.000289998
0.00672577
0.0030273
0.0067291
0.00056283
0.000476964
0.00029338
0.014398
0.00616181
0.00672489
0.00134021
0.000376109
0.00110611
0.00674786
0.0148872
0.00120949
0.00132111
0.00212435
0.00394278
0.000415274
0.00862955
0.000138408
0.000755519
0.000306834
0.00672602
0.00129227
0.000504548
0.000336027
0.00289168
0.00672124
0.00315548
0.0104429
0.007907
0.00509272
0.000328195
0.000441456
0.00328026
0.00672421
0.00274063
0.00995535
6.36428e-05
0.000417057
0.00204304
0.00158088
0.00289265
0.000210999
0.000420746
0.00198809
0.000784952
0.00673154
0.000147568
0.000308364
0.0049869
0.00495038
0.0130458
0.013197
0.00384368
0.00914979
0.00936947
0.0103542
0.00100337
0.00571106
0.00771797
0.00829912
0.00393597
0.00271807
0.000731045
0.00447128
0.00499447
0.0006477
0.0123012
0.000647981
0.00672822
0.00075239
0.00053239
0.000562325
0.00840995
0.000720751
0.000871813
0.00672124
0.0110981
0.000766278
0.000428683
0.00149225
0.000661032
0.00232215
0.00673252
0.000548996
0.000522852
0.000895399
0.0010924
0.00109963
0.000732217
0.00108293
0.00748459
0.000325851
0.0011787
0.0109289
0.00108282
0.00672501
2.7381e-05
7.05229e-05
0.00463774
0.000498254
0.00278179
0.000921962
0.000705139
0.000392284
0.00672333
0.000242159
0.00118769
0.000941299
0.00019242
0.00672487
0.00149161
0.00811642
0.00570054
0.0151146
0.000484634
0.00109024
0.00672726
0.00509374
0.000794808
0.00675256
0.0117089
0.0052912
0.00672621
0.00673504
0.00534994
0.00127031
0.00163915
0.000799232
0.000622635
0.000276746
0.000752048
0.000221434
0.000835001
0.000501986
0.00429491
0.00120761
0.00925681
0.000455954
0.0149813
0.000704794
0.00672109
0.00673596
0.000515717
0.000428128
0.00672503
0.000240684
0.000728243
0.000350581
0.00047264
0.00415435
0.000786963
0.00672621
0.000157396
0.000408098
0.000427447
0.00673286
0.000316737
0.000978035
0.00582143
0.000103988
0.00036776
0.00672683
0.00556339
0.000403225
0.00733015
0.00799845
0.00107445
0.000853554
0.000354634
0.00162487
0.000275058
0.0109126
0.000383541
0.00353989
0.000436449
0.00507137
0.00858532
0.000725659
0.000585205
0.000634895
0.0152263
0.0040007
0.00401233
0.0100504
0.000472237
0.0108069
0.000244413
0.00672973
0.000513935
0.000528313
0.000157211
0.000518334
0.000433445
0.00025535
0.000963126
0.00672593
0.00422254
0.000322935
0.001347
0.000137682
0.00399647
0.00308615
0.000283796
0.00167234
0.00286308
0.00672597
0.000469683
0.000270574
0.00118387
0.000563357
0.000515087
0.000396246
0.00292648
0.000176468
0.000779762
0.000632343
7.98636e-05
0.00203504
0.000143124
0.00014732
0.00541547
0.000707801
0.0083863
0.0070613
0.00315129
0.000296775
0.00712948
0.00441307
0.00127663
7.18003e-05
0.00936466
0.000441692
0.00716174
0.000557894
0.0042167
0.000833608
0.00672756
0.00113811
0.000429392
0.00437246
4.72037e-05
0.00103603
0.000508083
0.00392608
0.0120466
0.00254762
0.0099557
0.00636029
0.000823249
0.011836
0.00672571
0.0067219
0.00692672
0.002627
0.00672638
0.000607504
0.00613854
0.000398791
0.00156956
0.0107326
0.00672259
0.00471592
0.00857841
0.00672419
0.000682436
0.00214142
0.0104379
0.00762177
0.00875017
0.00670142
0.00673297
0.000981336
0.00045733
0.000652576
0.00672687
0.00114548
0.00673165
0.00885946
0.000644986
0.00014581
0.000855999
0.00890523
0.00067139
0.000932212
8.68695e-05
0.00242509
0.000423782
0.00161064
0.00672817
0.000761316
0.000315801
0.00675051
0.011973
0.00490354
0.000643076
0.00253553
0.0112034
0.00176599
0.00568718
0.000361436
0.000423063
0.000242932
0.00599555
0.00945754
0.000282199
0.0015849
0.0016412
0.00100087
0.00138343
0.000450365
0.00117429
0.00672494
8.09835e-05
0.000546676
0.000423152
0.00631454
0.000676548
0.000287024
0.000205312
0.000424882
0.00119558
0.00567234
0.000303475
0.00673735
0.000489926
0.000860643
0.00950332
0.00672676
0.000523112
0.00540626
0.00201167
0.000329702
0.00165301
0.000533841
0.00828958
0.000570204
0.000884051
0.00220781
0.00672562
0.00539942
0.00672487
0.0018611
0.000606063
0.00768284
0.000466522
3.11568e-05
0.000116331
0.00138683
0.00258671
5.41927e-05
0.000490781
0.0145967
0.00051496
0.000346301
0.000444864
0.00145823
0.000823835
0.000147806
0.000479039
8.05331e-05
0.000607673
0.00028285
0.00109952
0.00406937
0.000440027
0.0038135
0.000758081
0.00672816
0.000772994
0.000790481
0.000655388
0.00986575
0.00107831
0.000412714
0.00671805
0.0023847
0.00672527
0.00672487
0.00190523
0.00672988
0.000790033
0.00374715
0.000728465
0.00070017
0.00177992
0.00293634
0.000932796
0.00318688
0.000429675
0.00104626
0.00569442
0.000925357
0.000451921
0.00163562
0.00672551
0.000361007
7.08648e-05
0.000414357
0.0116964
0.000816704
0.0128463
0.000981822
0.00672462
0.00672502
0.00700243
0.00428732
0.00102278
8.33277e-05
0.000541533
0.00224574
0.00982799
0.00672439
0.000778099
0.00420058
0.00138346
5.077e-05
0.000922824
0.00231832
0.00145256
0.000221592
0.000724145
0.000973088
0.000104416
8.11764e-05
0.00028866
0.00123652
0.00215934
0.00145429
0.00110597
0.00735716
0.00980415
0.00613783
0.0012227
0.00200379
0.00110071
0.00198475
0.00672796
0.00143752
0.00672527
0.00162183
0.00386923
0.00568473
0.00591202
0.000432862
0.00073535
0.00126819
0.000348602
0.00268357
0.0044945
0.000432059
0.0148791
0.000320031
0.00293993
0.00490828
9.11757e-05
0.00379964
0.000151187
0.00672598
0.000167475
0.000698298
0.000100363
0.0119035
0.000271024
0.00388495
0.00673459
0.0113812
0.00283137
0.000988944
0.00158094
0.000415795
0.00672346
0.000135912
0.00612309
0.000124664
0.00054775
0.000434021
7.89334e-05
0.00413409
0.00679131
0.00207296
0.000818843
0.00153318
0.0118963
0.00750735
0.000190046
0.00672566
0.000215119
0.000253683
0.000370775
0.00279745
0.00874124
0.00409354
0.00672528
0.00465978
0.00218591
0.00299887
0.00390301
0.00581457
0.00584067
0.000308109
7.27647e-05
0.00611407
0.00953095
0.00210886
0.0113882
0.0036527
0.000296717
0.00153183
8.2518e-05
0.00299122
0.000571536
0.00612443
0.00187207
0.000836169
0.00165384
0.000224103
0.000891139
0.000747044
0.000163448
0.000457862
0.00384652
0.000172984
0.000689088
0.00184139
0.00146038
0.00510268
0.00627638
0.00672399
0.00191412
0.00250049
0.000635374
0.00484382
0.000888817
5.93548e-05
0.00124568
0.00144337
0.00188974
0.0153082
0.0114789
0.00156026
0.00176095
0.00730652
0.00759724
0.000747523
0.000658524
0.00101393
0.00541712
0.00260768
0.000749769
0.00992423
0.000168869
8.32652e-05
0.000386528
0.0019554
0.00676378
0.000202063
0.00672633
0.00379757
6.78369e-05
9.38847e-05
0.00672032
0.000712665
0.000158973
0.000921582
0.00672636
0.00672212
6.44283e-05
0.00218324
0.00317469
0.00154912
0.0137047
0.00138961
0.000186371
0.00672602
5.29027e-05
7.56283e-05
0.00231515
0.000586885
0.00672923
0.0111637
0.00817855
0.000399465
0.00107268
0.000368638
0.000464583
0.00672485
0.00128916
0.0067528
0.00214419
0.00672575
0.00423298
0.0067437
0.00166076
0.000208412
0.000546637
0.00101876
0.00673478
0.0148515
0.000316117
0.00295445
0.00681144
0.000285221
0.000480695
0.00621356
0.000525449
0.000878952
0.00192984
6.12495e-05
0.000222261
0.000746516
0.013474
0.00673054
0.00388225
0.000159852
0.00638582
0.00672095
0.000713211
0.0151473
0.00672613
0.00453866
0.000578722
0.00475943
0.00672258
0.00284876
0.000323439
5.07056e-05
0.00183341
0.000376124
0.00598127
0.00281086
0.00702008
0.00651379
0.0069506
0.00141776
0.00417679
0.00157444
0.00672484
0.00030744
5.13528e-05
0.00761036
0.000205295
0.000519132
0.000585808
0.00672201