/*--------------------------------*- C++ -*----------------------------------*\
| =========                 |                                                 |
| \\      /  F ield         | OpenFOAM: The Open Source CFD Toolbox           |
|  \\    /   O peration     | Version:  v2012                                 |
|   \\  /    A nd           | Website:  www.openfoam.com                      |
|    \\/     M anipulation  |                                                 |
\*---------------------------------------------------------------------------*/
FoamFile
{
    version     2.0;
    format      ascii;
    class       surfaceScalarField;
    location    "700";
    object      meshPhi;
}
// * * * * * * * * * * * * * * * * * * * * * * * * * * * * * * * * * * * * * //

dimensions      [0 3 -1 0 0 0 0];
oriented        oriented;


internalField   nonuniform List<scalar> 
20642
(
0.00087632
0.000305816
-0.00118267
-0.00251794
0.00468987
-0.00215739
-0.000819335
-0.000650342
0.00147543
-0.000912068
0.00276178
-0.00181069
-0.00337738
0.00527165
-0.00187044
-0.00484866
0.00234868
0.000774424
-0.00255895
0.00181197
-0.00589182
0.0035035
0.0023989
-0.00129014
-0.000334057
0.00164439
-0.00110819
-7.48716e-05
-0.00275311
-0.00312566
-0.00331839
0.00334864
2.19444e-05
0.000143433
4.11343e-05
-0.00333459
0.005252
-0.00191155
-0.00359162
0.0051874
-0.00156967
-5.60193e-05
0.000932368
0.000110456
6.89609e-05
-0.000118776
0.00580691
-0.00275319
-0.00304022
-0.00218252
0.00132203
0.000869818
0.00123456
-0.000549843
-0.000685312
-0.00406926
0.00236457
0.00172246
-0.000340972
-0.00320322
0.00359502
-0.000691534
-0.0012465
0.00195028
0.00356103
-0.0038455
-0.00376832
0.00162567
0.00217323
0.00434521
-0.001984
-0.00234414
0.00390256
-0.00233075
-0.00156861
-0.0010085
0.00519798
-0.00214453
-0.00303751
-1.45713e-06
9.53498e-05
-9.21506e-05
-0.000995376
-1.428e-05
-0.00219567
0.000560373
0.00164543
0.00351646
-0.00190351
-0.0015736
0.00111517
-0.000420168
-0.000694061
-4.2345e-05
-0.00284936
0.00294203
-0.000193735
0.0037061
-0.00305772
-0.000841336
0.00393078
-8.76382e-05
0.000376972
-9.93205e-05
0.00235838
-0.00156032
-0.00222572
0.00386566
-0.00162217
-4.09554e-06
-2.72597e-05
7.12346e-05
-0.00168106
0.00269072
-0.000981611
0.00180585
0.000235656
-0.00202417
-0.00057435
-0.000928264
0.00150908
-0.00178165
0.00121683
0.000909133
-0.00208064
0.00117326
-0.00326028
-0.00078527
0.00163762
-0.00110847
-0.000532189
0.00253557
0.00202391
-0.00455675
-0.00238735
0.0023854
0.000145871
-0.00341544
-0.00104984
0.00249513
-0.00143867
0.000688514
-0.000912401
0.000224067
0.0032468
-0.00430398
0.00111581
0.00450273
-0.00296406
-0.00148095
-0.00217191
0.00112713
-0.000885406
0.00140343
-0.00208002
-0.00275474
0.00110264
0.00238649
-0.00147516
-0.00266243
0.00150999
0.00114988
0.00163377
0.00198974
-0.00360268
-1.19771e-05
-1.76647e-06
1.9372e-05
-0.00174676
-0.00198778
-0.00125417
5.77602e-05
0.00119975
0.000180695
-0.000109886
-7.11698e-05
-0.00238453
0.00509691
-0.00269825
-0.00343699
0.00325183
0.0030659
-0.00102918
0.000738263
0.00029102
-0.000592257
-0.000784539
0.00138151
0.000921729
0.000194179
-0.0028803
0.00191575
0.00101911
-0.00194741
-0.000772101
0.0041725
-0.00179006
-0.00480837
0.00214101
0.00270111
-0.00295295
0.00483201
-0.00185326
-0.00277309
0.000861164
-0.00222543
-0.00254391
0.00253326
0.00101361
0.00277695
0.00195975
-0.00468666
0.000106518
0.00013126
-0.000152587
-0.000966966
-0.00186437
0.00154814
-0.000728735
-0.000815335
-0.0019135
0.00151426
0.000562727
-0.00530648
0.00209008
0.00322549
-0.00142309
-0.000759446
0.000394092
0.000553899
-0.000748553
-0.00368082
0.00147408
-5.66847e-05
0.000219672
-8.82515e-05
-0.000217191
0.000359105
0.00173355
-0.00277568
0.00531552
-0.000523928
0.00308414
-0.00250766
-0.00125737
-0.00300418
0.00430717
0.00282772
0.0050306
-0.0028412
-0.00218322
0.000203986
0.000115664
-0.000204639
0.000989462
-0.000438518
0.0024047
-0.00424842
0.00185194
3.90535e-05
2.4006e-05
-4.21583e-05
-8.15812e-06
6.22978e-05
0.00442756
-0.00160877
0.000459832
2.63884e-05
-0.000381792
-0.00517414
0.00225522
-0.0010949
0.000118947
0.000977696
-0.000879941
-0.000392265
0.00127096
-0.00256579
0.00422382
0.000927965
0.00179001
0.0019557
0.00194961
-4.50402e-05
0.000559859
-0.00123159
0.000812824
-0.00493406
0.00280381
0.000155988
-0.00140594
0.000814307
0.00224238
-0.00303039
-0.000982471
-0.00119044
-0.000183164
0.000234489
-6.62226e-06
0.00122373
0.000494344
-0.00171104
-0.000297726
0.00160581
-0.00127992
0.000316883
-0.000129024
0.0027309
-0.00110165
-0.00159082
0.00221369
0.00289652
0.000988854
0.00110463
-0.00208488
0.000458027
-0.000944865
0.000486765
0.000806896
0.000744073
0.00335437
-0.00153143
-0.0017922
0.00164649
0.00254318
0.00282714
0.000962941
-0.00372679
-0.000978433
0.0019747
-0.00223618
0.000962147
0.0012926
0.00122718
-0.00257044
0.00134563
-0.00105423
0.000514063
0.000540393
0.00330624
-0.00246256
-0.00204544
0.000820669
0.00123602
0.00407008
-0.00211072
0.00258655
-0.00144797
-0.00113967
0.000575772
0.00018733
-0.000763198
0.00495344
-0.00217606
-0.00275891
0.000112685
0.00457851
-0.00456801
-9.33398e-06
-0.00107099
-0.00166665
0.000133708
-0.00122531
0.000411816
-0.00306382
0.00272259
-0.00250644
0.00175094
0.000800731
0.00216652
0.000607863
-0.00275211
-0.00136995
0.000782131
-0.00505694
-0.000183978
-0.000842323
0.00102325
-0.00125118
0.00456286
0.00240804
-0.00376857
0.00137912
-3.5083e-05
-1.44574e-05
6.86522e-05
-0.00158097
-0.000880047
0.00184591
0.00318944
-0.00449586
0.00337157
0.00116288
-4.44439e-05
0.000602694
-0.000498034
-0.000392663
0.000891212
4.54383e-05
7.24731e-05
-7.55683e-05
-5.63888e-06
-0.000140049
-0.00361026
0.00255145
0.001182
-0.000364505
-0.00106131
0.00142551
0.00535523
-0.00224672
-0.00307712
5.6212e-05
0.00102758
0.000861083
-0.00189093
0.0042171
-0.00233288
-0.00187805
-8.93759e-05
0.000893617
-0.00200854
0.00111241
-2.91984e-05
2.7654e-05
1.85768e-06
0.00205402
0.00291657
-0.00613264
0.00385623
0.00233013
-0.000148701
-0.000848893
0.000998684
-0.00203532
-0.0028147
0.00173789
0.00107524
0.000977123
-0.0023559
0.00138671
-3.78865e-05
0.000108583
-4.33866e-05
0.00172698
-0.00260306
-0.00139079
0.00246754
-0.00107158
-0.00107153
-0.00114698
0.0027165
0.00266713
0.00161849
-0.00223859
0.00064507
-0.00251242
-0.00275185
0.00293817
0.000750814
-0.00171886
0.000970869
-0.000308455
0.00153879
-0.00151932
0.00275026
-0.00335524
0.000651276
0.00213153
-0.00137667
0.000133802
-0.000133455
-0.00264118
-0.00265532
-0.00172377
0.00271118
-0.00073386
-0.00103933
0.00227531
-0.00128413
-0.0009857
0.000586341
-0.00116567
0.000580497
0.0020306
-0.00251475
0.000578405
-0.000962322
0.000383898
-0.00129276
0.00317423
-0.00185667
-0.000479846
-0.000573561
0.00089355
-0.00369406
-0.00341249
-0.0010399
0.00205553
0.00188791
-0.00392155
0.000938097
0.000136138
-0.00107366
-4.7363e-05
0.000623136
-0.00458201
0.00308956
0.00152524
0.00269445
-0.00330263
0.000609643
0.00293111
0.00141057
-0.00432275
-0.00125522
0.0016947
0.00110962
-0.00299867
0.00500759
0.00238385
-0.00310487
0.000802682
0.00555349
-0.00223278
-0.00330408
0.00391394
0.00165327
-0.00129494
-0.0013594
-0.000677522
0.00218422
0.000429877
0.000922543
-0.00135062
0.000237824
-0.00052448
0.000486992
0.000161122
0.000966488
-0.00109044
0.00106524
-0.000868709
-0.00104624
0.00241518
-0.00147628
-0.000933258
-0.00115983
0.00228534
-0.0011226
-0.00127097
0.00152309
-0.000136967
2.84507e-06
-1.04956e-05
0.00201571
0.00205663
-0.000333896
-0.00141923
0.000972007
0.000486792
-0.000875463
-0.000500889
4.64135e-05
-2.01544e-05
0.000137112
0.000962955
0.00110403
-0.000931207
0.000588545
0.000333741
0.000582947
0.000896957
-0.00148244
0.00480027
-0.00258581
-0.00217042
-3.46195e-05
5.62255e-05
-1.90897e-05
0.00160493
0.00125289
-0.00284673
-0.000603548
0.00103089
-0.000427186
0.000175089
-6.62516e-05
-6.46537e-05
0.000227331
-0.00137276
-0.00114732
0.00384444
0.000815213
0.000245876
-0.0010591
0.000700477
-0.000830463
0.00126163
-0.00137326
-0.00133167
0.00271174
-0.00231301
0.00278626
-0.00102681
-0.000984177
-0.000678627
0.00229319
-0.00206669
-0.00285314
-0.00229835
0.00183973
0.000471264
-0.00295355
-0.00159462
-0.000714012
-0.000452951
-0.00103844
0.00151855
-0.00325465
0.00261105
0.000655223
0.00293333
-0.00204977
-0.000871161
0.00533145
-0.00242302
-0.00285895
6.63184e-06
0.00163761
0.00401637
-0.00539683
0.00140766
-0.00221549
-0.000983236
0.00323801
-0.000935727
0.000498768
0.000436775
0.00446167
-0.00114737
-0.00331153
0.00294444
-0.00106644
-0.00183478
8.72633e-05
-0.000918455
-0.00124048
0.00465075
0.000965104
-0.000834858
0.00118316
0.000389414
-5.68453e-05
-0.00273766
0.00163463
0.00111973
0.00134587
0.00163587
0.000743427
-0.000362495
0.000608985
-0.00148995
0.00457195
-0.00193343
-0.00256035
-0.00355669
0.00540618
-0.00182031
-0.00126236
-0.00125998
0.00252391
-0.00019714
0.000948767
-0.000723249
-0.00110503
0.00318912
-0.0020773
-0.000421874
-0.000513735
-0.000923156
0.000753545
-0.000397438
-0.000631595
0.00101424
-0.00318949
-0.00159933
0.0012348
4.31964e-05
-5.19343e-05
0.00321176
0.00162138
-0.00480644
0.0034849
0.0018837
0.00310128
0.00107844
-0.0040957
0.0015748
-0.00180299
0.000235004
0.00030625
0.000152388
-0.00029592
0.00234028
0.00188231
-0.00139168
0.00315738
-0.00174611
-0.000139558
0.0023259
0.00157848
0.00180347
-0.00337832
0.00043217
0.000106862
0.000107075
-0.00125888
0.00265219
-0.00137914
0.00449202
0.000655477
-0.00511695
-0.00110812
0.00351173
-0.00237609
0.0015629
-0.00491485
-0.00411928
0.00192605
-0.000973512
0.00320506
-0.00218471
0.000672577
-0.000202055
-0.00123432
0.00268819
-0.00144822
-0.00131171
0.00423969
-0.00291284
-0.00198775
-0.00125189
-0.0014537
-0.00263351
0.000899341
-0.00116396
0.000376284
0.000426491
-0.000924485
0.000195714
0.000742722
0.00259602
0.000989474
-0.00352209
-0.000339179
0.000992022
-0.000643661
0.00222375
0.00366118
0.00120203
-0.00485476
-0.00105872
0.00138451
-0.000321314
-0.00136054
-1.2153e-05
0.00137301
-0.000878917
-0.0019369
-7.9816e-05
-4.83288e-05
0.000127525
-0.000615179
-0.00195105
-0.00509826
0.00156974
-0.00147996
0.000755633
0.00467664
-0.00100677
0.000621506
-0.00143546
0.000261578
-7.70463e-05
-0.00467341
0.00110719
-0.00347585
0.00102334
-0.00417119
0.00318972
0.000339983
0.00436377
-0.00174218
0.00101681
0.000141826
5.13797e-05
-0.000131388
-0.000843386
0.000695564
-0.00134393
0.00112156
0.000402131
-0.000477089
0.00160045
-0.000297134
-0.000762181
0.00107986
0.00102654
0.000207568
0.00143201
0.000418707
-0.00175028
0.00311572
-0.00120861
-0.00189328
0.00453321
-0.00158409
1.22134e-05
-9.25014e-05
0.000247073
-3.99102e-05
0.00130499
0.000687852
-0.00198236
0.000761137
-0.00125799
0.000497751
-0.00127373
0.00386864
-0.00254773
0.00415706
-0.00309207
-0.000724514
-0.000505633
0.000885083
0.000269293
-0.00115479
0.00059651
-0.00170223
0.00110486
-0.00465087
0.0013223
2.08183e-05
-0.00090928
0.0047134
-0.00258901
-0.00207861
0.000678217
0.000311672
-0.000988714
-0.00231892
0.00170752
0.00103619
-0.000978339
0.00608872
-0.00364076
0.00246816
0.00121805
-0.00438448
0.00284054
0.00155681
0.00114121
0.00232716
-0.00132458
-0.000995579
0.00322585
-0.00163135
-0.00158661
-0.00314537
0.00204926
-0.00157304
0.000216962
0.00136715
-0.000504751
0.00120797
-0.00070173
0.00371818
-0.000828744
0.00270105
-0.00392724
0.00332137
0.00196457
-0.000347862
-0.00117021
0.00152376
9.72921e-05
-8.81215e-05
4.0799e-05
0.000891914
0.000175159
-0.00173251
0.000327062
-0.00148959
0.00235479
0.00219869
-0.00130348
0.00303417
-0.00172493
0.000680571
-0.00101074
-0.00186843
-0.00301736
0.00489027
0.000955919
0.00141049
-0.00234178
0.000974437
0.00112504
0.00319509
0.00135612
0.00241933
0.00222212
-0.000840711
-0.000699593
0.00154422
0.000801477
0.000317127
-0.00110092
-0.000997245
0.0020228
0.000804316
0.002295
-0.00131464
-0.00464032
-0.000620344
0.00394194
-0.00328476
0.00130182
-0.000889468
-0.000408902
0.00246081
-0.00100707
-0.00139645
0.000532221
-0.00108241
0.00116445
0.000142143
-0.00486152
0.00308685
0.00180455
0.00395276
-0.00193428
0.00212735
0.00144317
-0.00356224
0.0048262
-0.0018972
-0.00289126
-0.00139778
0.00229571
-0.000899604
0.00130179
-0.000534087
-0.00236685
0.00421713
-0.00181666
0.00198979
-0.000408705
0.00273052
-0.00456443
0.00188346
-0.00176021
0.00389606
-0.00161407
0.000970224
-0.000210347
0.000871309
-0.00230576
0.00145773
-0.00353663
0.00211038
-0.00385221
0.00259517
0.00135058
-0.00265001
0.00173212
0.00103566
0.00363596
-0.000231737
-0.00333988
-0.00426003
0.00193327
-0.000739179
0.00315011
-0.00237343
-0.00106389
-0.00271401
0.0038343
-0.00318432
-0.00135801
0.00460425
0.00159866
-0.00293928
0.00135568
-0.000362426
0.00424974
-0.00387805
-0.000205618
0.00095082
-0.000720824
-5.04661e-06
-2.10187e-05
0.000638015
-0.001691
-0.00313122
0.00183473
-0.000296571
0.00347078
-0.00198205
-0.00284072
-0.00102037
-0.00111132
0.00213123
0.00245126
0.001831
-0.00427912
0.000129039
5.18939e-05
0.00178973
-0.000459316
-0.000690306
-0.000785742
-0.00190126
0.000329265
0.00160037
0.000936262
-4.75899e-05
-0.000861144
-0.00421881
0.00279486
0.00144484
-0.00155251
-0.000973632
0.0007546
0.00241724
0.000767109
-0.000791592
-0.000382919
-0.00148991
-0.000981015
-0.000873691
0.00185255
0.00443861
-0.00166118
-0.00357339
0.00201569
0.00157219
-0.000759561
0.000396777
-0.00231787
0.00107306
-0.000614666
0.00307858
0.000957512
-0.00248988
-0.00199981
0.000600672
-0.00257988
0.00465977
-0.000307153
0.000764678
-0.000239545
0.00102328
-0.000761379
-0.000439653
0.00187519
-0.00136325
-0.000330629
0.00114979
-9.73126e-06
0.0011485
0.00105422
-0.00408025
-0.0010308
0.00420233
-0.00313543
-0.0023732
0.00135238
0.00186683
0.000610378
-0.00245895
0.000951339
-0.00193803
0.00157779
-0.00260021
0.000845296
0.0017731
0.0018012
0.000495158
-0.00227946
-0.00437384
0.00141703
0.00126316
-0.00262951
-0.00130618
0.00190163
-0.0026087
-0.000988073
-0.00169672
-0.00213092
0.00383003
-0.00283006
0.00303217
-0.000122414
-6.32099e-05
0.000856082
-0.000637841
0.00123212
-0.00436041
0.00334767
-0.00393081
-0.0021059
-0.000734236
0.00292502
-0.000439447
-0.000175175
0.000813513
0.000940457
-0.000925289
0.000608451
-0.00263093
-0.00155467
0.00313722
-0.00159147
0.000771659
0.000826348
-0.000318879
0.000515629
-6.6861e-05
-0.00132504
0.00240295
-0.00106391
0.000633776
-0.00129721
0.00191922
-0.0017758
-0.000145192
-0.00119786
-0.000809634
0.00202634
0.00100571
-0.00141763
0.0011057
0.000316182
-0.000416447
-0.000998002
0.00294399
-0.000158739
0.00240897
-0.000591236
0.00190868
0.00228476
-0.00124687
-0.00103648
0.000226175
-0.000264959
-0.00281535
-0.00143132
0.00265077
0.00162117
0.000607281
-0.00220598
-0.00360363
0.00120038
0.00241971
-0.00186665
0.00131767
0.000555396
0.00130575
-0.00206139
0.000767198
0.00314631
-0.00190909
-0.00121428
0.00186836
0.00356339
-0.00519764
0.0024551
0.00379908
-0.00205036
-0.00173627
-0.00287017
0.0021681
0.00201285
0.00324185
-0.00267378
0.000584981
0.00210502
-0.00306641
0.00169456
0.00202512
-0.00102168
-0.00100532
-0.000634373
0.00223383
0.00157703
0.00140235
0.00106982
-0.00197778
0.00131947
0.000779079
-0.000559054
-0.000209865
0.000768971
0.000661022
-0.000594935
0.00101253
-0.000990379
0.00250004
-0.000888685
-0.000974949
0.000756231
-0.000350751
0.000789208
0.00147461
-0.00270198
0.000862005
-0.000458857
-0.00239354
0.0038234
-0.0014278
-0.00222669
-0.00126094
0.00103856
-0.00221275
0.00120157
0.00282451
-0.00172843
-0.00107535
0.00112827
0.00108446
-0.00221165
0.00121507
0.00142656
-0.00264045
-0.00356728
0.000479001
0.0031311
-0.0041527
0.00292395
-0.00191896
-0.000891174
0.00316575
-0.00144629
-0.00170643
0.00131791
0.00277232
-0.00408791
-0.00102726
-0.00258804
0.00367243
0.00021096
-5.97264e-05
0.00139379
-0.00476222
-0.00254169
-0.0012232
0.00353426
0.000822194
-0.00433326
-0.0013228
-0.00129425
0.00263502
8.38498e-05
0.00199383
-0.000677563
-0.00110392
-0.000748136
-0.00312303
0.00524335
-0.00205826
-0.00243212
-0.00107644
0.00125307
-0.000329533
-0.000922395
-0.00062618
0.000766268
-7.86541e-05
0.00146784
0.000903445
-0.00234436
-0.00321473
0.00227009
-0.00116443
-0.00141609
0.00233151
-0.00115886
-0.00116231
0.00264941
-0.00378531
0.00114669
0.000586462
-0.0018477
-0.00356156
0.00270966
0.000887292
-0.00296964
-0.00103746
0.000558219
0.00079644
-0.00178001
-0.000337904
-0.000421658
0.00238371
0.00100913
-0.00332949
0.00309722
0.00128885
-0.0043287
0.00155322
0.00160891
0.0014163
-0.00310036
0.001748
0.00109836
-0.00147515
0.000381194
6.23835e-05
0.000914304
0.00322009
0.00155404
-0.00477325
-0.00300867
0.00174214
0.0012493
-0.00068381
-0.000563765
-0.00105195
0.00186937
-0.00119785
0.00108774
0.000108183
-0.00206066
0.00275409
-3.97834e-05
-0.00104258
0.0010889
-0.000137217
0.000454528
0.00327047
-0.00119607
-0.00204408
0.00047943
0.000770761
-0.000185031
-0.000765701
-0.00142568
0.00114859
0.000281053
1.53483e-05
1.18532e-05
-1.77561e-05
7.59703e-05
-0.000263799
0.00438517
-0.0012657
-0.00059462
0.00414195
-0.000585529
-0.00060993
-0.000303462
0.000953131
0.00179536
-0.000781848
-0.00100606
0.00136056
-0.00267128
-0.00222017
-0.00227908
-0.00176975
0.000404435
-0.000284293
-0.000632094
0.000916779
0.00125667
0.000661157
1.15588e-05
-0.000580693
4.21099e-05
-0.000626718
0.000584613
-2.33058e-05
-3.01997e-05
6.41335e-05
0.000777264
-0.0022274
-0.00219487
-0.00286074
0.00115833
0.00213928
0.000337952
-0.00107327
0.000744686
-4.22526e-05
4.9206e-05
-0.00202642
-0.000631376
-0.000990801
-0.0012186
0.000789259
0.000365024
-0.000157164
-7.34481e-05
0.0003498
-9.56487e-05
-0.00073347
-0.00103069
-0.00249142
-0.000236264
0.0028093
0.0019953
-0.00088491
-0.00110055
-0.0040992
0.00134038
0.000313993
-0.000882574
-6.78819e-05
0.000152167
-0.00259804
0.000520676
-0.00188785
0.00140692
0.000481804
-0.000847718
-0.000352515
-0.000936163
-0.00134941
0.00123216
-0.00253713
-0.0019653
0.00154015
0.000428814
-0.000997267
0.000393856
0.000932625
0.00158282
-0.00144511
0.00221808
-0.000772372
-0.000128118
0.000219988
0.00088044
-0.00147743
0.000601759
0.0030641
-0.00158841
-0.00156363
0.000727378
-0.00359078
0.00113601
0.00461578
-0.00377115
-0.000453121
0.00223883
-0.00415214
0.00187079
0.000843566
-0.00269763
-0.000631455
-0.000613026
0.0012468
0.000111179
-0.000224648
0.000174536
-0.00137681
-0.00134373
0.00433983
-0.0024921
-0.0018013
2.21451e-06
-2.99358e-05
-0.00114616
0.00064324
-0.00201922
-0.00199632
0.00402223
-0.00379676
0.00237686
0.0014557
0.00103597
0.00129793
0.00121845
0.00110844
0.00197542
-0.00305442
-3.1695e-05
1.2626e-05
-0.000464079
-0.000680176
-0.00364896
0.00125761
0.00469998
0.000813792
-0.000727776
-0.00193196
-0.00183082
0.00100137
-0.00134434
4.97331e-05
-4.5793e-05
0.00113012
-0.00205792
0.00093502
9.4102e-05
0.000153408
-0.000159006
-0.000428798
-0.0013521
0.00189149
0.00228545
0.000584237
0.00105311
0.000451051
-0.000667438
0.000216184
-0.00125339
-0.000168856
0.00349256
0.00130658
-0.00478951
-0.00069246
0.00209826
0.00075571
-0.00272963
0.00222126
0.00298718
0.000359503
0.000894809
-0.00116825
0.00109612
7.45958e-05
-0.00156428
-0.00263275
-0.00335002
0.00253397
0.00141757
0.00322031
0.000288632
-0.000121722
4.99998e-05
0.00310798
-0.00310077
6.17504e-05
6.48715e-05
0.00240537
-0.00137056
-0.00102451
-0.0022573
0.0034408
-0.00115956
0.00102657
0.000996306
0.00264312
-0.000753469
-0.00113437
-0.00334929
0.00449145
-0.00134596
0.00256199
0.00292713
-0.00422478
0.00295358
-0.00120339
-0.00173551
-0.00228742
0.00100938
0.000633406
0.00215474
-0.00127783
-0.0024873
0.00378242
6.8899e-05
-8.43926e-06
-0.00174008
0.00141855
9.84546e-05
0.000278554
-5.33219e-05
0.000167316
0.00103313
0.00181048
-0.000448434
-6.02793e-05
0.000693656
-0.000518175
0.00056024
0.00139769
-0.0019924
0.00061151
-0.000169419
-0.000434917
0.000728012
-0.00067774
-0.00105566
0.000293852
-0.000134874
-0.000289872
-0.00107061
0.00315574
-0.00210133
0.00361213
-0.00258875
0.000429206
0.000433169
-0.00110813
0.00213768
-0.00102019
-0.00155774
-0.00065128
0.00172403
-0.0024017
0.000715109
-0.000340196
0.00102512
-0.000671852
-0.00103684
-0.00240294
0.00349718
-0.00160897
0.00209609
-0.000464687
-0.00137682
0.00177698
-0.000388272
0.00276362
0.00112382
-0.00381231
-0.000837286
0.000585283
0.000252038
-0.00338383
0.00085917
0.00254386
0.00300888
0.00128207
-0.00428939
0.00062474
-0.00218147
-0.00367045
0.00240915
-0.000775143
0.000491166
0.00225824
-0.00119369
-4.87858e-05
0.000360798
-0.000217163
0.00244742
-0.00091927
0.00049746
0.00156051
0.000950022
0.00224668
0.000577356
-0.000885035
-0.00160543
0.00480574
-0.00319906
-0.000527558
0.00206335
0.0035899
-0.000930981
-0.00310971
0.00419575
0.00103003
-0.00068386
0.00219771
-0.00151039
0.00249257
-0.00238589
0.000806797
-0.000751659
0.00224387
0.00113936
-0.00141444
-0.00365142
0.000922415
-0.0022395
-0.000300243
0.00171345
0.00128975
-0.00424918
0.000493465
0.00206364
-0.000265432
0.000309886
0.00104034
-0.002398
-0.00350209
0.000739415
-0.00117064
0.00373186
-0.00253361
0.00336005
-0.00206595
-0.00127202
0.000714367
-0.00088479
0.000170463
-0.000131434
0.000214241
-8.12391e-05
0.00318791
-0.00479248
-0.000283035
-0.00303715
0.00493263
-0.00318652
-0.00172669
0.00283135
-0.00180137
-0.00100877
-0.00117009
4.71351e-06
-0.000112751
0.000325311
0.00162788
-0.000945929
-0.000672458
-0.000525745
-0.00136086
-0.000101743
8.0547e-05
2.0077e-05
-0.00316499
0.00180667
0.00142352
0.00236646
0.00011277
-0.000378855
-0.00300007
0.00189271
0.00117606
-0.000477904
0.0022799
-0.00175921
0.00170825
-0.00439145
0.00269893
0.0023805
-0.00221419
-0.000380443
0.00205915
0.00183474
0.000716637
-0.00247097
-0.00123834
0.000657223
0.00058333
-0.0014854
0.00116973
-2.55879e-05
0.00166386
-0.00124502
0.00186015
0.00289838
-0.00112433
0.00109137
-0.00415913
0.00132122
-0.000682183
0.000868031
-0.000133573
0.00102299
-0.00212097
0.00136727
0.00139723
-0.00275692
0.00135035
-0.00163583
-0.000471043
-0.00207408
0.00259989
-0.00210691
-0.000913439
0.00259109
-0.00249328
0.000874814
-0.00346851
0.00160901
-0.000986812
-0.00220963
0.00323486
0.00135128
-0.00181391
-0.000926836
0.00376364
-0.000908072
-0.00225793
0.00323711
-0.0021301
-3.65798e-05
-0.00181325
0.0030919
0.00118537
-0.00426341
0.00392871
-0.00147407
-0.00226205
-0.00210792
0.000578429
-0.00170246
0.00125538
0.000492262
0.00436336
0.00177339
-0.000956225
-0.000812889
-0.00207073
0.00325672
-0.000820873
0.00381362
-0.00297354
-0.000149633
0.000162776
0.000183882
0.000175781
-0.000290543
-0.00183268
-0.000875822
0.00274885
-0.00129918
-0.00249939
0.00382445
0.00371613
-0.00105655
0.00202656
-0.00244391
0.000323154
-0.000986586
0.000668081
0.00330678
-0.00447687
0.00121459
0.00146923
-0.00366341
0.00283173
0.000778109
-0.00195755
0.000744944
0.000125871
0.0017231
-0.00143592
0.000732767
0.00108518
-0.00181829
0.00429842
-0.00119296
2.76642e-05
-0.000127424
0.00105976
-0.00107177
0.00225094
-0.0033345
0.00111154
-0.000463831
0.0020806
-0.00110726
0.0028909
-0.00449429
0.0016139
0.00509327
-0.003373
-0.00168793
0.00104219
0.00208902
-0.00307102
-0.00139778
-0.00170314
-0.00103706
0.000177123
0.000860877
0.00135873
0.00131135
-0.00264785
0.00454555
-0.00104277
-0.00217952
0.00401391
-0.00170847
-0.00122015
0.00173022
-0.000366575
6.39373e-06
-3.99574e-05
0.00251753
0.00114488
-0.00364073
-0.00138262
0.0041381
-0.00275249
2.81682e-05
2.92456e-05
-0.00190339
0.00120566
-0.00236367
0.00118454
0.0043922
-0.0014902
0.00105258
-0.00202592
-0.00493596
0.00352087
0.00142376
-0.00143371
-0.00027964
0.00176469
-0.000351707
5.22545e-05
0.00036891
0.00181886
0.00141431
0.00267165
0.00297266
0.00117664
-0.00409474
0.00401513
-0.00255815
-0.00142289
0.0029883
0.00125924
-0.00419052
0.00154021
-0.000154583
-0.00123845
-0.00459004
0.00209273
0.00250467
-0.00282045
0.00415268
0.000876591
-0.000988601
0.000112537
-0.00050795
-0.00118953
-0.00323608
0.00443323
0.000925504
0.00197501
-0.00367
0.00082057
0.00488208
-0.00367111
0.00165462
0.000281473
-0.00183113
0.00105617
0.00184554
-0.00287341
-0.00358953
0.00193866
0.00171259
-0.00336964
0.00223192
0.00117175
0.000808022
0.00241818
-0.000953405
-0.0021194
0.00314519
-0.00330016
0.00294451
0.00414264
0.00146642
-0.000812179
-0.000650142
-0.00205957
-0.00136919
-0.00174571
0.00079759
0.000963175
0.00156103
-0.00303571
0.0014819
-0.00103798
-0.00222063
0.00331572
0.0011976
0.00268343
-0.000418519
0.00269452
0.00130439
-0.00354872
0.00227376
-0.00289874
0.00106796
0.00185341
0.00108638
-0.000751642
-0.000844704
0.000521236
0.00153294
0.000882093
-0.000275644
0.000845073
-0.000564788
0.00345188
-0.00240139
0.00129109
-0.00107623
-0.00065768
-0.00346638
-0.00129473
0.0046461
-0.00202116
0.00170934
0.000297064
-0.00190273
-0.00389199
-0.00231445
-0.00118892
-0.00164489
0.00062373
0.00102236
-0.0018186
0.00498049
-0.00313496
0.00396079
-0.00243635
-0.0014505
0.000591251
-0.00139728
0.00340223
0.00224562
-0.000427772
-0.0014994
0.000840844
-0.00281742
0.00469016
-0.00184029
0.00178552
-0.000735514
-0.00179866
0.00261085
-0.00203255
0.00103821
-0.000309602
-0.000713518
0.00331138
-0.00456273
0.000493407
0.000716504
9.39664e-06
-0.00029268
0.00179531
0.000998922
-0.00178416
0.00111592
-0.000688011
0.000344752
0.000706322
-0.00124411
-0.00348629
0.00473729
0.00112279
0.000654913
0.00113412
0.00160274
-0.00270995
0.00533713
-0.00379908
-0.00150014
0.00433378
0.000780315
-0.0016193
0.00100734
0.000668531
0.000670974
0.00113171
-0.00127977
-0.00149806
0.00281917
0.000326935
-0.000885842
-0.00281339
0.00445843
-0.00148104
0.00305602
-0.00157336
0.00262359
0.000615894
-0.000834946
0.00023803
0.000451728
0.00071746
-0.000482559
0.000253234
4.1602e-05
-0.000171471
-0.000493791
-0.000543088
-0.00433733
0.00164117
0.00273305
-0.000516142
0.00225853
-0.00163908
-0.0035903
-0.00127824
0.00487436
0.00257018
0.00295092
-0.00186527
0.000971314
0.00160222
-0.00393651
0.00125809
-0.00173002
-0.00182812
0.000709094
-0.00148325
0.000780092
0.00199996
0.0017578
-0.00248278
-0.000830032
0.000435754
0.00039441
-0.0015746
0.00436811
-0.00275268
0.00098862
0.00194594
0.000534932
-0.00241299
-0.000430367
0.000772273
-0.000341981
-0.000537074
-0.00181936
0.00218718
-0.000340414
-0.00106169
0.000767349
-0.00341259
0.00237716
0.00106794
-0.000323265
-0.000722582
0.000894487
-0.00191954
0.00105602
0.000968068
0.00164915
-0.00258084
0.00305471
-0.00176066
-0.00122781
0.0013476
-0.00271041
0.00138086
0.000127795
-0.000758543
-0.00262911
-0.0016708
-0.0018569
0.000869218
0.000997695
-0.00209408
0.00104509
0.00104615
-0.000988938
0.0017212
-0.000614962
-0.00115984
0.00324008
-0.000582898
0.00103963
0.000780309
0.00266336
-0.0033495
-0.00176615
0.000814767
-0.00271535
0.00403588
-0.000196437
-0.00149614
0.000431928
0.00109393
0.0020576
-0.000828311
0.000515214
0.000483566
0.0027314
0.00156165
-0.00423924
-0.00114871
-0.000319887
0.000827153
-0.00114055
0.00202512
-0.00315193
0.00122169
0.0012463
0.0017213
-0.00216228
0.00174925
-0.000565077
-0.00045979
0.00102324
0.00109287
0.00218308
0.00086217
-0.00295705
-0.000836815
-0.000199027
-0.000310255
0.00231791
0.00267296
-0.00285512
-0.00366322
0.00111827
-0.00117788
0.000716305
0.00337875
-0.00113411
-0.000108391
4.32489e-05
9.70391e-05
-0.00222414
0.0025196
-0.00337899
0.000916819
0.00106017
-0.00122913
0.000652273
0.000578791
0.002983
-0.00405203
0.00193228
0.00212361
0.00270721
-0.000878869
0.00215532
0.0022461
-0.00335724
0.00125625
0.00124242
-0.00246762
0.00363306
-0.00172891
-0.00349542
-0.00142957
-0.00261366
-0.000923146
-0.000424526
-0.000572478
-0.00340952
-0.000247691
0.00367786
0.000118985
0.000390301
0.00213623
0.00323122
-0.000687943
-0.00077665
0.00150735
-0.00275944
0.00156601
-0.0011002
-0.000458851
0.00172014
-0.000611465
0.000746236
-0.0029823
-0.000475503
-0.000443811
0.000613274
-0.00118011
-0.00485848
0.00137421
0.000447525
0.00112595
0.00157119
-0.00260093
0.00083686
-0.000385707
-0.000451324
0.00119956
-0.00227098
-0.00135672
0.00237725
-0.00102131
0.00112871
0.00196977
-0.00107857
0.00122195
0.00171985
-0.00291107
-0.000213015
-0.00215302
0.00236655
0.00108559
-0.000634331
-0.000450277
-0.000295449
0.00104311
-0.000735809
-0.0042702
-0.000302003
0.000779336
0.00194713
-0.00283496
0.00113228
0.00145271
-0.00422998
-0.00259922
0.00135943
0.00153021
-0.00281547
0.00128829
-0.000937304
0.000694947
0.000242636
0.00248719
0.000988136
-0.000627997
0.00102221
-1.01513e-05
3.41158e-05
0.00115091
-0.000121346
-0.00100264
-0.00160598
-0.000645902
-0.000778982
0.0014249
-0.00242747
-0.000909072
-3.8025e-05
2.53951e-05
-0.00203135
-0.00050956
0.00157931
-0.00250357
0.000973063
0.00264121
-0.00271132
0.0044359
-0.00466399
0.00344633
0.00124131
-0.00208871
-0.00143362
-0.00439527
0.000772068
-0.00105584
-0.00171925
0.00232399
-0.000591845
-0.00409553
-0.00384187
0.000451783
-0.00048946
0.0008826
-0.000393291
-0.00061615
0.00237504
-0.00335599
0.00133722
-0.00104057
2.14438e-05
0.00102612
-0.000447466
-0.00113761
0.000253183
0.00102771
-0.00142392
0.00424018
0.0013496
-0.00197113
0.000647026
0.000229355
0.00250092
-0.000679804
0.00103769
-0.000915277
0.00132135
0.00205802
-0.00104306
0.00441953
-0.003335
0.002168
-0.0014364
-0.000718537
-0.000825246
0.00348738
2.14872e-06
-0.000104457
0.00157275
-0.00230893
0.000746928
-0.000763868
-0.000821818
-0.00159729
0.000659988
-0.00115165
0.00224142
-0.0010876
-0.00225514
0.00157454
-0.00115756
-0.00121569
-0.000621866
0.0010368
-0.000414738
-8.32497e-05
0.000389052
0.00113622
0.000889562
0.000285155
-0.00283585
0.00140114
-0.00124409
0.00250631
0.00129708
0.00284237
-0.0025862
0.000967494
0.00164169
0.00199099
-0.00315935
0.00122255
0.00174126
-0.00294026
0.00312176
0.00257256
-0.00443454
0.00123104
0.0010626
0.00136261
-0.00275951
0.00141352
0.00273272
-0.00135803
-0.000856664
-0.00118627
0.00204234
0.000332735
-0.00137508
0.000802716
0.000578082
0.00226681
-0.00155802
0.00434214
-0.00332962
0.00381035
-0.000459961
0.000399239
-0.002105
-0.000257095
-0.000611828
0.00088682
0.00164547
0.000700494
-0.00226794
-0.00136943
0.000316386
0.000770817
-0.000791273
-0.00159273
0.00248429
0.00425345
-0.00257728
0.00111991
0.00277321
0.00361008
-0.00231686
-0.00124712
0.00137929
-0.00300335
0.000266505
-0.0011846
0.00092584