/*--------------------------------*- C++ -*----------------------------------*\
| =========                 |                                                 |
| \\      /  F ield         | OpenFOAM: The Open Source CFD Toolbox           |
|  \\    /   O peration     | Version:  v2012                                 |
|   \\  /    A nd           | Website:  www.openfoam.com                      |
|    \\/     M anipulation  |                                                 |
\*---------------------------------------------------------------------------*/
FoamFile
{
    version     2.0;
    format      ascii;
    class       surfaceVectorField;
    location    "700";
    object      Uf;
}
// * * * * * * * * * * * * * * * * * * * * * * * * * * * * * * * * * * * * * //

dimensions      [0 1 -1 0 0 0 0];


internalField   nonuniform List<vector> 
20642
(
(0.514723 0.0105321 4.48982e-21)
(0.520513 0.0106026 -1.27511e-21)
(0.539565 0.0118127 7.94224e-21)
(1.05974 -0.0340453 -2.93413e-22)
(1.05932 -0.0359701 3.22937e-21)
(1.05714 -0.0342398 1.20649e-21)
(1.05388 -0.000456015 4.5278e-21)
(1.0537 9.73979e-05 -6.8278e-21)
(1.05475 -2.22496e-05 4.84699e-21)
(1.03358 -0.0106004 -3.15488e-22)
(1.03383 -0.0106412 7.27722e-22)
(1.03356 -0.0105266 0)
(1.07978 -0.0153541 0)
(1.0817 -0.0176426 4.75023e-22)
(1.07804 -0.0173127 5.76358e-22)
(1.05963 -0.0314664 -5.74082e-22)
(1.06179 -0.0326483 -1.36308e-21)
(1.03841 -0.0110783 -1.80358e-21)
(1.03823 -0.0111807 2.21366e-21)
(1.03832 -0.0110851 4.0781e-22)
(1.03601 -0.0618825 2.92271e-21)
(1.02316 -0.0622088 1.37031e-20)
(1.02552 -0.058678 -1.20035e-20)
(1.03904 -0.0126659 -6.17203e-22)
(1.03896 -0.0125537 -2.23897e-21)
(1.03925 -0.0125394 -5.69358e-21)
(0.00394813 -0.0399359 -3.32631e-22)
(0.0132072 -0.0417889 -7.55939e-21)
(1.02964 -0.0537694 2.68649e-21)
(1.03745 -0.059613 -1.01457e-21)
(1.03341 -0.00912957 1.75924e-23)
(1.03371 -0.00931986 1.6181e-23)
(1.03333 -0.00920101 -7.69358e-23)
(1.0157 -0.000207629 1.95691e-23)
(1.01548 -0.000217105 1.21615e-21)
(0.542252 0.0303359 -5.33712e-22)
(0.520933 0.0366702 -7.28687e-22)
(0.54698 0.0453022 -4.48573e-22)
(1.05729 -0.0199574 -6.37685e-22)
(1.058 -0.020519 -6.08762e-22)
(1.05685 -0.020478 -3.19076e-22)
(0.5031 0.0101089 3.91863e-21)
(0.467 0.00781615 2.741e-21)
(1.00417 0.000779375 0)
(1.00454 0.000795669 -3.17165e-22)
(1.00329 0.000386164 0)
(1.02877 -0.0473958 0)
(1.03125 -0.0431849 0)
(1.03518 -0.0471323 0)
(1.04539 0.00110427 -7.8283e-21)
(1.04602 0.00137817 -6.22445e-22)
(1.04537 0.00182247 -2.40734e-21)
(0.445549 0.0114209 0)
(0.511626 0.0138124 -4.84927e-22)
(0.51771 0.0175243 0)
(1.04019 -0.0193643 -2.8929e-22)
(1.03995 -0.0193517 -5.1567e-23)
(1.04017 -0.0198111 -1.54603e-21)
(1.04961 -0.00649185 -3.4697e-22)
(1.04891 -0.00664067 4.49688e-22)
(1.05 -0.00703799 1.61417e-22)
(1.04002 -0.00711133 -1.74987e-21)
(1.04027 -0.00719217 -2.83478e-21)
(1.04026 -0.00681989 5.31448e-21)
(1.05034 -0.00622985 -5.59554e-22)
(1.04928 -0.00591969 -3.1681e-22)
(1.03694 -0.0119577 2.97785e-22)
(1.03701 -0.012016 2.24228e-22)
(1.03713 -0.0121005 0)
(1.0397 -0.0213039 1.05936e-21)
(1.03995 -0.0208132 -2.83698e-21)
(1.04021 -0.0214103 9.07491e-22)
(0.619382 -0.0304774 4.6993e-21)
(0.676596 -0.0297039 0)
(0.681565 -0.0285726 0)
(0.0136741 -0.0356849 -3.39959e-22)
(1.03597 -0.0293498 0)
(1.03677 -0.0277065 0)
(1.03804 -0.0294769 0)
(0.978051 -0.0134783 7.69862e-23)
(0.978286 -0.0150297 0)
(0.97921 -0.0141184 6.15106e-23)
(-0.00812446 -0.0205192 -3.95171e-22)
(0.0119933 -0.0265347 0)
(1.04519 -0.00560408 -5.41623e-22)
(1.04547 -0.00559955 -2.68699e-21)
(1.0453 -0.00541819 -2.12925e-21)
(1.03515 -0.0108066 1.9711e-22)
(1.03497 -0.0106681 8.98066e-24)
(1.03483 -0.0106706 1.11353e-22)
(0.587694 0.0127704 0)
(0.604132 0.0136792 9.58769e-21)
(0.60422 0.013384 0)
(1.04835 0.0163422 0)
(1.0474 0.0167318 -1.51694e-23)
(1.04904 0.0175367 1.90415e-22)
(1.00666 -0.0669802 3.33542e-21)
(0.97989 -0.0644049 4.45705e-21)
(1.04248 -0.0158493 2.97298e-22)
(1.04216 -0.0158182 2.71277e-22)
(1.04262 -0.0162802 -8.54304e-22)
(1.0188 6.02613e-05 9.69543e-22)
(1.02523 0.000273137 1.05483e-23)
(1.01781 5.72218e-05 -1.35191e-21)
(1.03861 -0.0109935 4.59054e-22)
(1.03848 -0.0110875 -4.01843e-22)
(1.03863 -0.0168343 2.70423e-22)
(1.0385 -0.0169538 2.99087e-21)
(1.03841 -0.0166211 5.24208e-22)
(0.995755 0.000299787 -1.38043e-22)
(0.996366 0.000195542 -6.88411e-22)
(0.993452 0.000231216 -3.81807e-23)
(1.0206 0.0286595 -1.30746e-22)
(1.0212 0.0297083 2.79977e-22)
(1.02172 0.0290645 0)
(1.03726 -0.0130013 -1.30423e-21)
(1.03711 -0.0127769 1.99594e-21)
(1.03688 -0.0130122 2.35838e-22)
(1.04729 -0.00145802 -1.70811e-21)
(1.04743 -0.00182739 4.54127e-21)
(1.04781 -0.00137465 -4.58008e-23)
(1.04674 -0.00154171 -1.13465e-22)
(1.04701 -0.000970925 -1.81671e-21)
(1.00691 0.00447397 2.63941e-21)
(1.0108 0.00474168 8.24496e-22)
(1.00648 0.00794711 -1.37233e-21)
(1.04047 -0.0192241 -2.97199e-22)
(1.04024 -0.0188751 2.79922e-21)
(0.162469 0.0153992 0)
(0.254487 0.0235758 1.18358e-20)
(0.252105 0.0309319 -1.00384e-20)
(0.64541 -0.0805042 -3.1654e-21)
(0.634043 -0.0916378 8.83226e-22)
(0.673917 -0.0822788 2.07638e-22)
(1.0482 0.0154602 0)
(1.04956 0.0162076 -1.86564e-22)
(1.03351 -0.00905869 0)
(1.03311 -0.00894105 -1.33285e-22)
(1.02752 0.00214375 -1.95858e-21)
(1.02583 0.00243215 -1.02833e-21)
(1.02649 0.000751948 3.90336e-22)
(0.364863 0.00886826 0)
(0.467017 0.00794211 -7.19336e-21)
(0.361786 0.00833894 0)
(1.03833 -0.00942195 0)
(1.03796 -0.00910729 0)
(1.03856 -0.00931046 -5.32202e-22)
(1.03824 -0.0099417 0)
(1.03793 -0.00966416 0)
(1.03762 -0.00970648 2.62216e-22)
(1.02861 0.00193758 -1.78197e-21)
(1.02821 0.00356161 8.78215e-22)
(0.142204 0.00122723 -1.16596e-20)
(1.03972 -0.00710734 3.17819e-22)
(1.03982 -0.00747258 -1.49807e-21)
(1.01995 0.0276051 1.99441e-22)
(1.01947 0.028196 -1.34282e-22)
(0.985288 0.00681967 1.77172e-21)
(1.00973 0.000266681 -2.08072e-21)
(0.410358 0.109386 -1.42682e-21)
(0.349816 0.116133 -8.39263e-22)
(0.344393 0.11911 2.05872e-21)
(1.07385 0.0379087 -1.77244e-21)
(1.0761 0.0359934 -1.65675e-22)
(1.07277 0.0344827 4.29158e-23)
(0.989964 -0.000296127 6.14518e-24)
(0.989351 -0.000443722 1.39647e-22)
(0.988702 -0.000670892 -2.18876e-22)
(1.0367 -0.0118224 1.40109e-22)
(1.0368 -0.0118744 8.24503e-23)
(0.889159 0.0153558 -9.56317e-21)
(0.885861 0.0173207 -1.32967e-20)
(0.860315 0.0194152 -1.30548e-20)
(0.928395 -0.00452075 3.91863e-22)
(0.931104 -0.00912786 3.07005e-21)
(0.934071 -0.00543397 1.70653e-21)
(1.03524 -0.0314085 1.36794e-21)
(1.03432 -0.0335591 2.69964e-21)
(1.03704 -0.0335998 -1.6411e-22)
(1.02775 -0.0703958 0)
(0.984419 -0.0674835 0)
(1.02384 -0.0478199 1.61101e-22)
(0.518172 0.009596 -1.22033e-20)
(0.498988 0.0100888 -4.23351e-21)
(0.497273 0.0097572 1.26336e-21)
(1.00518 0.00865766 4.48377e-21)
(1.01451 0.00761936 -4.20737e-22)
(0.978932 0.0104848 -1.13109e-20)
(0.573633 0.0120235 -4.33988e-21)
(0.57376 0.0124455 -7.63324e-21)
(1.02856 -0.00938302 1.13845e-22)
(1.02891 -0.00961298 -5.57253e-22)
(1.0289 -0.00938631 -2.95937e-22)
(1.01935 0.0266511 1.48776e-22)
(1.02049 0.0270444 1.77807e-22)
(1.03971 -0.0193051 -1.1965e-22)
(1.03979 -0.0189656 -6.76242e-23)
(1.03842 -0.0131755 1.49094e-23)
(1.0384 -0.0132251 -2.67117e-22)
(1.03863 -0.0133903 5.59623e-22)
(1.06636 -0.0123013 0)
(1.06688 -0.0132208 -2.27318e-22)
(1.06517 -0.0128685 9.69341e-22)
(1.01877 0.025693 -1.32319e-22)
(1.01821 0.0262073 3.46869e-22)
(1.03817 -0.0129581 1.81244e-22)
(1.03838 -0.0130755 2.73934e-23)
(1.03539 -0.0109183 1.85559e-22)
(1.03524 -0.0109115 -1.97794e-22)
(1.04598 -0.0121776 1.08239e-22)
(1.04635 -0.0119591 6.08913e-22)
(1.04551 -0.0116575 8.81116e-22)
(1.00823 0.000951337 -6.62518e-23)
(1.00781 0.000935106 -6.26812e-23)
(1.00619 0.000455044 0)
(1.02822 -0.00938264 3.73685e-22)
(1.02819 -0.009156 1.745e-22)
(1.00531 0.0023716 1.46507e-20)
(1.03251 -4.39572e-05 5.14918e-21)
(1.03134 -0.000318559 1.20705e-21)
(1.02737 -0.00135163 7.06579e-22)
(1.02744 -0.00154201 -3.49416e-22)
(1.02761 -0.00142558 9.86547e-22)
(1.00288 -0.0156721 1.4189e-20)
(0.983726 -0.00394259 6.3112e-22)
(0.970049 -0.0100863 7.74464e-21)
(1.04508 -0.00592821 1.96041e-21)
(1.04482 -0.00564329 2.64813e-21)
(1.02734 -0.000641018 1.37068e-22)
(1.02752 -0.000600048 -3.11846e-22)
(1.02688 -0.000451677 6.93951e-22)
(1.03871 -0.0167164 -2.05909e-21)
(1.0388 -0.0170124 -8.63638e-22)
(1.00365 0.000731793 -3.19669e-22)
(1.00448 0.00117211 0)
(1.00322 0.00197257 -4.29411e-22)
(1.00264 0.00180876 -8.53951e-24)
(1.00299 0.00233064 -1.06275e-22)
(1.03757 -0.0128826 -1.34477e-21)
(0.65764 -0.0665899 1.96685e-21)
(0.627888 -0.0781692 -6.42695e-21)
(1.04017 0.0173158 0)
(1.04027 0.0182777 0)
(1.03907 0.0174601 -1.229e-22)
(1.04142 -0.0121354 0)
(1.04166 -0.011997 3.32816e-22)
(1.04202 -0.012413 0)
(1.03398 -0.0287945 0)
(0.736071 -0.0125384 1.27639e-21)
(0.799208 -0.0152312 -8.80758e-22)
(0.790057 -0.00829882 2.13524e-22)
(1.01782 0.00108758 2.67924e-22)
(1.01828 0.00105159 4.50058e-22)
(1.01473 0.000620165 -1.04891e-26)
(1.02732 -0.00079853 -5.4871e-22)
(1.02717 -0.00061527 -5.59998e-22)
(1.05211 -0.026317 -2.37827e-21)
(1.05234 -0.023284 1.14618e-21)
(1.05383 -0.0225858 7.62009e-22)
(0.9895 7.80852e-05 8.73959e-22)
(0.989606 0.000140168 1.15109e-22)
(0.992186 3.74811e-05 1.21974e-22)
(0.98923 7.77936e-05 -2.52999e-22)
(0.988102 0.000331126 -1.75906e-22)
(1.04636 -0.0126148 -6.11413e-22)
(1.04557 -0.0122907 -7.17285e-22)
(1.02245 0.00185096 -2.4284e-22)
(1.02276 0.00170641 2.26925e-22)
(1.0215 0.00135689 1.81004e-22)
(1.06551 -0.0109956 0)
(1.06732 -0.0111748 0)
(1.05092 -0.00938977 4.32193e-21)
(1.04854 -0.00869412 5.74976e-23)
(1.03038 -0.00699145 1.26351e-21)
(0.602363 0.0255046 0)
(0.597367 0.0231141 9.05935e-21)
(0.581441 0.0229942 0)
(1.0708 0.0391628 1.50002e-21)
(1.07313 0.0411946 -6.71551e-22)
(1.02067 0.0303346 4.26063e-22)
(1.02183 0.0307857 -9.41336e-23)
(0.568767 -0.0325819 4.68624e-21)
(0.561954 -0.0337307 3.93382e-21)
(1.01934 -0.00108435 -2.70414e-22)
(1.01926 -0.00140413 1.08284e-21)
(0.623145 0.0145871 1.00813e-20)
(0.606217 0.0142214 1.8077e-22)
(1.03735 -0.0262372 2.12833e-24)
(1.03594 -0.0257729 1.60623e-21)
(0.887274 0.0156896 1.44808e-20)
(0.920451 0.0146932 1.55811e-20)
(1.03927 -0.0141175 3.30387e-22)
(1.03916 -0.0141379 2.53118e-22)
(1.03905 -0.0138412 0)
(1.04478 0.000790365 0)
(1.04537 0.000515682 -2.62444e-21)
(0.995008 0.00116769 -1.28476e-22)
(0.994973 0.00157254 1.80151e-22)
(0.995406 0.00131245 2.9137e-22)
(1.05155 0.00111775 -4.3436e-22)
(1.05176 0.00054064 6.0263e-21)
(1.05112 0.000743862 6.0847e-21)
(1.02597 -0.00916191 -1.30945e-22)
(1.02632 -0.00915518 -4.34437e-23)
(1.02594 -0.00890911 -1.43852e-22)
(1.00951 0.00140386 7.13971e-22)
(1.00858 0.000894211 -1.00669e-22)
(1.01977 0.0245761 -2.70003e-22)
(1.0202 0.0239603 0)
(1.0191 0.0236264 0)
(1.03351 -0.0364064 -1.02913e-21)
(1.03159 -0.0332002 1.50733e-21)
(1.03873 0.00154329 -1.82649e-21)
(1.03786 0.00158351 3.58598e-21)
(1.03832 0.000669329 3.37371e-21)
(0.489141 0.0055329 4.46253e-21)
(0.511121 0.0068816 0)
(0.492155 0.00601967 0)
(0.983218 0.0043037 -6.8424e-21)
(0.981519 0.00471587 8.75868e-21)
(1.0365 -0.0116911 -1.4973e-22)
(1.03629 -0.0115783 1.88379e-22)
(1.03636 -0.011606 0)
(1.03959 -0.0196701 3.00089e-21)
(1.03949 -0.0191878 1.0251e-21)
(1.04561 0.00557579 0)
(1.04522 0.0060228 0)
(1.04455 0.00551218 0)
(1.03941 0.00128007 -4.06211e-21)
(1.03923 0.00209728 -1.00837e-21)
(1.04161 -0.0102257 -8.20958e-23)
(1.0416 -0.0100406 -2.7593e-21)
(1.04185 -0.0101228 1.85936e-21)
(1.00449 -0.0300421 5.38041e-21)
(1.01304 -0.02898 2.57793e-21)
(1.00157 -0.0279849 8.20613e-21)
(0.808308 0.00591253 0)
(0.777717 0.00686579 0)
(0.781346 0.00675887 -2.35777e-21)
(1.03948 -0.0144131 3.24694e-22)
(1.0394 -0.0141526 -8.03739e-23)
(1.046 -0.00456686 0)
(1.04597 -0.00423805 6.09894e-21)
(1.04638 -0.00443789 -1.91091e-21)
(0.524123 -0.0355441 3.91832e-21)
(0.576647 -0.0303917 0)
(0.282055 0.113168 1.65341e-22)
(0.349579 0.106479 -2.74421e-21)
(0.346908 0.102482 2.2497e-22)
(0.476446 0.00653614 -1.67122e-21)
(0.47518 0.00605307 6.64797e-21)
(0.497734 0.00668049 1.91433e-20)
(1.0391 -0.0225244 -8.74787e-22)
(1.03946 -0.021837 -6.20219e-22)
(1.03977 -0.022728 -9.56215e-22)
(1.01871 0.000135197 3.54871e-22)
(0.763482 -0.146297 1.75756e-22)
(0.739967 -0.134321 1.39675e-21)
(0.747348 -0.137012 -1.06997e-21)
(1.0193 0.0251438 -2.68772e-22)
(1.01821 0.0247339 0)
(1.05048 -0.00949362 -5.2604e-21)
(1.0568 -0.00982959 5.72423e-21)
(1.03892 -0.00345906 1.70755e-22)
(1.0387 -0.00318361 -1.88007e-22)
(1.03938 -0.0033253 -4.63168e-22)
(1.02796 -0.00864705 0)
(1.02825 -0.00884761 1.52075e-22)
(1.02833 -0.00868609 0)
(1.02029 0.0359437 0)
(1.01904 0.0351632 0)
(1.01987 0.03467 1.26849e-22)
(1.02454 0.00653969 -2.77668e-21)
(0.991539 0.00953299 -4.5192e-21)
(0.820888 -0.0570478 -3.53219e-22)
(0.276339 0.0249251 1.85252e-20)
(0.30848 0.0278119 -1.49021e-20)
(0.205305 0.0106392 6.48616e-21)
(1.03814 -0.00955516 0)
(1.03876 -0.00978824 0)
(1.03879 -0.0166198 -3.62875e-22)
(1.03889 -0.0165599 6.84981e-22)
(1.03894 -0.0168493 2.91155e-22)
(0.988984 7.3676e-05 -7.81865e-22)
(0.988624 7.50582e-05 4.93258e-22)
(0.987266 2.0046e-05 -4.40108e-22)
(1.02769 -0.00844946 0)
(1.02762 -0.00860345 0)
(0.691906 -0.0167611 3.52436e-21)
(0.684376 -0.0118692 1.48978e-21)
(1.05863 -0.00374768 -5.2946e-22)
(1.05993 -0.0040821 1.27256e-24)
(1.05973 -0.00330409 3.62717e-23)
(1.02217 0.00197106 -3.53091e-22)
(1.02266 0.00215757 -3.66451e-22)
(0.769517 0.00721402 4.99676e-21)
(0.764505 0.0063251 -5.02844e-22)
(0.741754 0.00724958 1.42561e-21)
(0.994208 0.00055499 2.06664e-22)
(0.993899 0.000542474 1.57749e-22)
(0.995673 0.000256281 -1.3516e-22)
(0.99472 0.000984233 -1.62332e-23)
(0.995326 0.000794663 -2.3875e-23)
(1.03129 -0.0028031 -1.07222e-21)
(1.03163 -0.00301433 9.07996e-22)
(1.03172 -0.00283784 9.80417e-23)
(0.758862 0.0459935 -7.28025e-21)
(0.772682 0.0431972 5.14858e-21)
(0.736066 0.0452933 -8.75482e-21)
(1.04636 -0.0202149 -6.70586e-22)
(1.04578 -0.0195889 1.72014e-22)
(1.04654 -0.0196918 -1.21579e-21)
(0.776624 -0.145288 7.71356e-22)
(0.565014 0.0922575 -3.8241e-21)
(0.568348 0.0894414 -1.07564e-20)
(0.593266 0.0845185 -1.66957e-20)
(0.961658 -0.0227066 -1.7967e-21)
(1.00905 -0.0251665 -2.1716e-22)
(1.01058 -0.0210589 -1.05861e-21)
(0.36518 0.00778977 7.49651e-21)
(0.326349 0.100777 -8.89677e-22)
(0.412321 0.108907 8.55676e-21)
(0.33584 0.110075 -8.285e-21)
(0.989098 -0.00367319 5.13613e-23)
(0.988996 -0.00407912 -5.69954e-24)
(0.989467 -0.00402788 -6.57406e-24)
(1.03873 -0.0233871 1.06726e-21)
(1.03849 -0.0221816 1.06508e-21)
(1.05152 -0.00631521 4.64208e-22)
(1.05268 -0.00637691 9.12824e-22)
(1.05202 -0.00687551 -3.96154e-22)
(0.789661 0.00867196 -4.93847e-21)
(0.795529 0.0084716 0)
(0.762537 0.00890492 7.66794e-21)
(1.03882 -0.0128439 2.22397e-21)
(0.504513 0.0892817 1.61073e-23)
(0.45978 0.100208 -1.6753e-21)
(0.467421 0.0951463 -2.2622e-21)
(1.03031 -0.0100359 7.86575e-23)
(1.03084 -0.00961763 7.37988e-23)
(1.03009 -0.00914243 -1.90776e-22)
(0.99071 0.00033182 7.00795e-23)
(0.989526 0.000510695 -1.91807e-22)
(0.991208 0.000298995 7.43019e-23)
(1.03365 -0.0106827 8.14375e-22)
(1.03338 -0.0105576 -2.96585e-22)
(1.02447 0.00285648 -8.8822e-22)
(1.02287 0.00329086 4.2433e-22)
(1.02334 0.00146716 -1.54737e-23)
(1.04158 -0.0104018 3.06416e-21)
(1.04137 -0.0103438 0)
(1.04616 -0.0207174 4.09291e-22)
(1.04696 -0.0208582 -2.84774e-22)
(1.03703 -0.0126512 8.7198e-22)
(1.03669 -0.0126716 -2.56136e-21)
(1.03688 -0.0124984 -2.39349e-21)
(1.05093 -0.00585401 7.19214e-22)
(1.03361 -0.00900579 -9.02096e-23)
(1.03389 -0.00920553 0)
(1.03046 0.0148253 2.68486e-21)
(1.03277 0.013765 2.31018e-21)
(1.03085 0.0160376 -3.37982e-21)
(1.05132 0.00167856 -5.7372e-21)
(1.05242 0.0015614 1.57635e-21)
(1.00514 -0.0318497 -1.1935e-21)
(0.967826 -0.0285772 -1.45164e-21)
(1.03332 -0.00880815 -2.29457e-24)
(1.03373 -0.00894757 -1.58536e-22)
(1.02842 0.0164557 1.87553e-21)
(1.02843 0.0137584 9.51146e-22)
(0.977056 -0.0126645 4.82191e-24)
(0.978274 -0.0119919 1.04736e-21)
(1.01405 -0.0220455 6.14103e-21)
(1.0194 -0.0154376 4.32675e-21)
(1.03032 -0.0109961 -1.03091e-22)
(1.02941 -0.010539 8.97847e-22)
(1.04629 -0.00170228 1.79313e-21)
(1.04656 -0.00205518 -2.76176e-21)
(1.03465 0.00982672 4.36273e-21)
(1.03543 0.00874053 -6.53476e-23)
(1.034 0.00862555 -2.31909e-22)
(0.522586 0.0110586 -2.96815e-21)
(0.54208 0.0129211 1.78012e-22)
(0.52274 0.012371 -1.73175e-21)
(1.04127 0.0173375 0)
(1.0402 0.0165975 2.66205e-23)
(0.497549 0.00806139 -7.36695e-21)
(0.515988 0.0078651 -1.34749e-20)
(0.494586 0.00674801 0)
(1.03788 -0.0126819 2.00322e-22)
(1.03796 -0.0128439 4.25425e-22)
(1.03793 -0.0128153 2.11785e-22)
(0.839658 0.00468646 0)
(0.836502 0.00440061 8.09331e-21)
(1.04658 0.0172434 -8.57968e-23)
(1.04561 0.016178 -1.38062e-22)
(1.05733 -0.003398 -2.7888e-22)
(1.05747 -0.00411275 -1.00996e-21)
(1.04066 -0.0185988 2.5823e-22)
(1.04043 -0.0182212 7.77908e-22)
(1.04062 -0.0181819 1.0562e-22)
(0.497352 0.00957432 -1.76835e-21)
(0.499186 0.0100626 -2.13308e-21)
(0.519148 0.0100102 -3.06708e-22)
(0.475013 0.00659385 -1.27061e-20)
(0.439984 0.00667352 -7.6035e-21)
(1.04386 -0.015549 2.73081e-22)
(1.04397 -0.0159557 -2.78806e-22)
(1.0444 -0.0159281 -1.47737e-21)
(0.673513 -0.0261692 -5.52101e-21)
(0.725432 -0.0295112 6.6891e-21)
(0.670427 -0.0278481 -4.06921e-21)
(1.04403 -0.0279807 7.97532e-22)
(1.04513 -0.0286835 2.73323e-22)
(1.04477 -0.0271196 1.72813e-21)
(1.03861 -0.0164052 -1.74641e-22)
(1.02043 0.0255512 4.10346e-23)
(1.02549 0.00417354 2.93885e-22)
(1.04662 -0.0117001 -2.93349e-22)
(1.04715 -0.0122182 -3.09923e-22)
(1.03734 0.00545314 8.99292e-23)
(1.03655 0.00530236 -2.9829e-22)
(1.03696 0.00576552 -4.42983e-22)
(1.09394 -0.0220704 2.01185e-22)
(1.09392 -0.0184184 2.88e-21)
(1.09108 -0.0219045 -4.17196e-23)
(1.10077 -0.0241552 -4.82973e-24)
(1.09482 -0.0278556 -2.00596e-22)
(0.378606 0.0354996 1.00936e-20)
(1.04568 -0.00468269 0)
(1.04603 -0.00482284 1.18869e-21)
(1.03924 -0.0210445 1.0814e-21)
(0.734977 0.0272608 -1.65947e-21)
(0.730555 0.028679 -1.76561e-21)
(0.760784 0.0277812 3.20557e-22)
(1.02846 0.00022787 -4.33469e-22)
(1.02699 0.000367389 -1.14545e-21)
(1.0289 -4.41867e-05 -3.91893e-22)
(1.00489 0.0131402 5.84333e-22)
(1.00542 0.0135673 0)
(1.00524 0.0127916 4.79633e-23)
(1.00454 0.0134639 -3.58749e-23)
(1.00442 0.0127222 -1.3764e-23)
(0.31701 0.0899152 1.50997e-20)
(1.03404 0.0124444 -1.48702e-21)
(1.03402 0.0109029 8.51518e-22)
(1.03231 0.0110349 -1.90687e-21)
(1.02722 0.0177043 1.86393e-21)
(1.02664 0.0189699 -1.28748e-21)
(1.02495 0.0164643 3.8238e-22)
(1.02234 -0.00230439 -1.46349e-22)
(1.02249 -0.00257806 5.67852e-22)
(1.0221 -0.00243229 2.17376e-22)
(0.990571 -0.000273235 2.44356e-23)
(0.992608 -0.000113107 1.30004e-22)
(0.473055 -0.0417485 -9.97016e-22)
(0.481951 -0.0396737 -3.45193e-21)
(0.499222 0.00867447 7.08102e-21)
(1.00504 0.011181 0)
(1.005 0.0115537 -4.5657e-23)
(1.00558 0.0115908 0)
(1.00517 0.0107138 -2.89933e-22)
(1.00454 0.0107539 0)
(0.994261 0.00048317 -1.0382e-22)
(0.997056 0.000166018 0)
(1.00418 0.0137952 -8.28748e-22)
(1.00469 0.0142423 4.39938e-23)
(1.0038 0.0141243 -5.37477e-22)
(1.00373 0.0133878 3.92119e-22)
(0.557486 0.0111992 -4.13242e-21)
(0.568624 0.0121455 4.21732e-21)
(0.462489 0.0469863 -1.15569e-20)
(0.458508 0.0527014 -2.49035e-21)
(0.524771 0.0518691 -1.96971e-20)
(1.04774 -0.00958177 1.5334e-21)
(1.04728 -0.00915864 -3.74789e-22)
(1.04702 -0.0094529 6.31817e-22)
(0.987893 -0.00644109 1.22003e-22)
(0.987529 -0.00675665 7.87947e-23)
(0.987393 -0.00611235 -6.58019e-23)
(1.03332 -0.00341379 2.27849e-21)
(1.03271 -0.00401733 3.94989e-22)
(1.03346 -0.00414204 1.72517e-22)
(0.563582 0.0113688 0)
(0.549914 0.0108587 0)
(0.565485 0.0116461 -6.70631e-21)
(0.996992 0.000835255 -2.02668e-22)
(0.997571 0.000515843 1.89443e-23)
(0.997177 0.000508219 -2.90102e-22)
(1.02257 -0.00220616 -8.53948e-22)
(1.02224 -0.00207816 -5.10794e-22)
(0.674934 -0.0281462 -4.81494e-21)
(0.611135 -0.0283545 3.18709e-22)
(1.05009 -0.00974624 -5.98298e-21)
(1.04947 -0.00990765 9.23942e-21)
(1.05616 -0.0100898 6.31024e-21)
(1.03511 0.0134956 -8.35724e-22)
(0.740981 0.0261969 0)
(0.712657 0.0262024 0)
(1.02477 -0.00827301 9.01149e-22)
(1.02459 -0.0096412 -7.00517e-22)
(1.02341 -0.00881501 1.86573e-21)
(1.03857 -0.00356781 6.23915e-22)
(1.03916 -0.00373254 -3.26904e-22)
(0.48718 0.101468 -4.15354e-21)
(0.485688 0.106008 2.77477e-21)
(1.03389 -0.00276241 -1.66063e-21)
(1.03301 -0.00255744 -2.85384e-22)
(1.03785 -0.0251949 -1.39074e-21)
(1.03857 -0.0265816 1.82765e-21)
(1.04253 -0.00268964 5.90211e-21)
(1.04259 -0.00230952 3.18116e-22)
(1.04299 -0.00248655 -2.0605e-21)
(1.04373 -0.0151748 1.58049e-21)
(1.04334 -0.0151857 5.36388e-22)
(0.483749 0.0423203 -8.95358e-21)
(1.02663 -0.00919097 2.29063e-22)
(1.02658 -0.00898401 -1.07924e-22)
(1.02693 -0.00920749 7.03845e-23)
(1.03642 -0.0139921 -1.39529e-22)
(1.03617 -0.0142055 1.87625e-23)
(1.03613 -0.0137875 1.88482e-22)
(1.03164 -0.00957684 -1.47311e-22)
(1.03237 -0.0095154 2.16945e-23)
(1.03194 -0.0101933 -1.62684e-22)
(1.04934 -0.00989319 -5.38281e-22)
(1.04844 -0.00973173 7.84285e-22)
(1.04894 -0.00947376 -1.18043e-21)
(0.996191 6.8335e-05 3.84964e-22)
(1.03662 -0.0117735 -3.56275e-22)
(1.08001 -0.00428908 5.37791e-23)
(1.07745 -0.00389473 -2.28558e-22)
(1.07923 -0.00186678 7.18608e-23)
(1.04197 0.0228299 -2.3901e-22)
(1.04325 0.0226798 1.05656e-22)
(1.04329 0.0237035 -2.18612e-22)
(0.545404 0.0086116 6.77493e-21)
(0.531135 0.008352 -6.43263e-21)
(0.528512 0.00804196 6.67413e-21)
(0.609768 -0.121796 5.90084e-21)
(0.586658 -0.109692 8.15956e-21)
(0.588596 -0.113236 1.1109e-20)
(1.02444 0.02437 0)
(1.02479 0.0237023 0)
(1.02361 0.0234431 1.52619e-22)
(1.00562 0.0104932 -2.83064e-22)
(1.00517 0.0100385 8.63505e-22)
(1.06009 -0.00487536 -1.78718e-22)
(1.0613 -0.00446528 -2.41108e-22)
(1.0061 0.0109333 0)
(1.00601 0.0102711 9.67957e-23)
(1.02669 -0.0093859 -9.26036e-23)
(1.02052 -0.000401725 -4.04391e-22)
(1.0154 -0.000166598 -3.63981e-22)
(1.0379 -0.0100742 2.61085e-21)
(1.03785 -0.0098086 1.94959e-22)
(1.03764 -0.0100564 4.03504e-22)
(1.02412 0.0250821 -1.50066e-22)
(1.02533 0.0253748 1.44828e-22)
(0.490026 0.00543119 3.73795e-21)
(0.508872 0.0062543 -3.52316e-21)
(0.605201 0.0284731 0)
(0.622515 0.0286272 -1.68011e-20)
(1.03283 -0.00764709 2.98658e-22)
(1.03237 -0.00749369 -2.48679e-22)
(1.03259 -0.00741752 -1.10882e-22)
(1.07179 -0.00560427 -4.41748e-22)
(1.07387 -0.00645145 -6.35475e-22)
(1.07194 -0.00729043 -1.65995e-22)
(0.960467 0.00976214 -3.10244e-21)
(0.96218 0.0050503 -1.87339e-21)
(0.917552 0.0132986 -2.32149e-21)
(0.997124 0.0123345 -6.8014e-22)
(0.996755 0.0126185 7.86066e-23)
(0.996714 0.0119371 1.00136e-22)
(1.04833 -0.0202539 -2.75568e-22)
(1.0492 -0.0217709 -7.27395e-22)
(1.0468 -0.0215836 3.18274e-21)
(0.56267 0.00940064 0)
(0.559842 0.00899941 6.35117e-21)
(0.997478 0.0120681 -5.3105e-23)
(0.997546 0.0127637 -2.72137e-22)
(0.535169 0.0103137 -7.95837e-21)
(0.532625 0.00992905 2.47944e-21)
(1.04068 0.0229104 -3.64189e-22)
(1.04065 0.021949 3.38671e-23)
(0.790505 0.0452772 4.26327e-21)
(0.751808 0.0490843 -5.86047e-21)
(0.990549 0.000311725 0)
(0.993086 0.000151023 -1.62142e-22)
(1.05599 -0.0188964 -3.42478e-22)
(1.05632 -0.018496 1.30227e-21)
(1.05539 -0.0183162 -5.87494e-22)
(1.05015 -0.0100849 1.11788e-22)
(1.04961 -0.0103236 -4.14109e-22)
(1.0401 -0.00251912 4.80624e-22)
(1.03999 -0.00217163 -5.51328e-22)
(1.03939 -0.00231351 -1.14228e-21)
(1.04417 0.00754827 4.19432e-21)
(1.04396 0.00656799 6.41348e-21)
(1.04506 0.00692206 1.75879e-21)
(1.02643 0.000554951 -8.38345e-23)
(1.02639 0.000452301 0)
(1.02295 0.000317438 -4.44756e-22)
(0.910728 -0.0189844 1.85496e-21)
(0.910215 -0.0239364 -1.08772e-21)
(1.03823 -0.0138141 -8.77932e-23)
(1.03827 -0.0140227 -8.16699e-23)
(1.03832 -0.013987 -3.86984e-23)
(1.02142 0.0367034 4.45375e-22)
(1.02045 0.03719 0)
(0.796548 -0.0271066 -3.68345e-21)
(0.786864 -0.0302121 4.95922e-21)
(0.856424 -0.0319017 2.60632e-21)
(0.470043 0.00567944 1.47837e-20)
(0.997029 0.00117842 0)
(0.996582 0.0011244 -1.4791e-22)
(1.03775 -0.00651891 2.92795e-21)
(1.03794 -0.00615399 2.82636e-21)
(1.03815 -0.00642958 -6.53018e-22)
(1.08064 -0.00937007 1.81744e-23)
(1.08066 -0.00674584 -1.07486e-22)
(1.07815 -0.00850142 1.58062e-23)
(1.03972 -0.0146688 -9.46672e-22)
(1.03994 -0.0149783 -4.25328e-22)
(1.03989 -0.0147291 -6.32445e-22)
(1.08057 -0.0125766 0)
(1.07765 -0.0131819 0)
(1.03795 -0.0127448 -5.81493e-23)
(1.03798 -0.0128341 -1.72415e-22)
(1.04043 0.0191707 -2.49611e-22)
(1.04052 0.0200634 -2.51467e-22)
(1.03928 0.0193081 -3.94767e-23)
(1.02764 0.000684375 -8.08458e-23)
(1.02613 0.000544736 3.3772e-22)
(1.02116 -0.00141141 -4.78297e-23)
(1.02065 0.000198658 0)
(1.0223 -1.52744e-05 -1.69396e-23)
(1.05839 -0.00459117 1.35948e-21)
(1.05977 -0.00961222 -6.80806e-22)
(1.06257 -0.00625092 6.28245e-22)
(1.03656 -0.0137223 4.40412e-24)
(1.03662 -0.0140937 -2.43116e-22)
(1.03773 -0.0125552 -3.63659e-24)
(1.0379 -0.0126384 1.08618e-22)
(1.02274 -0.00211336 1.28103e-22)
(1.02266 -0.00187724 4.01034e-22)
(1.02293 -0.00201438 1.26922e-21)
(0.77475 0.00717259 0)
(0.800403 0.0059201 -7.83917e-21)
(0.488171 0.00892282 0)
(0.451985 0.0107287 7.2981e-21)
(1.04386 0.00725875 0)
(1.04339 0.00767857 4.1012e-22)
(1.0428 0.00711189 -4.48739e-22)
(0.981253 0.0216145 6.14386e-23)
(0.980331 0.0222737 5.96927e-23)
(0.980242 0.0209763 1.11422e-22)
(1.03961 -0.0146685 0)
(0.976705 -0.0615762 1.26784e-22)
(1.00165 -0.0426395 3.30052e-21)
(1.03069 -0.0465271 3.20556e-21)
(1.0497 -0.00491116 6.30851e-21)
(1.05 -0.00487771 9.90873e-21)
(1.04977 -0.00516818 1.45409e-20)
(0.629911 0.0245531 -7.03833e-21)
(0.616636 0.0224891 -4.48005e-21)
(0.608228 0.0223262 7.32712e-21)
(0.531584 0.0878437 1.96656e-21)
(0.541123 0.0814923 2.69413e-22)
(0.924903 -0.0200777 -6.91881e-23)
(0.928813 -0.0140207 -4.34305e-22)
(0.920776 -0.0145651 -2.00324e-22)
(1.01626 -0.0259952 3.46419e-22)
(1.01862 -0.0278427 -1.24779e-21)
(1.07002 -0.00501461 2.98719e-22)
(1.0715 -0.00397923 2.99577e-22)
(1.04962 -0.000395252 1.21604e-20)
(1.03372 0.000729069 -6.41494e-21)
(0.920633 -0.0764422 -3.20819e-21)
(0.949332 -0.0773848 -4.18707e-21)
(1.05428 -0.000952456 -9.21159e-22)
(1.05305 -0.000753572 6.77871e-21)
(1.01919 -9.45504e-05 -3.21316e-22)
(1.01367 -0.000139431 -7.92665e-23)
(1.05665 -0.0194437 -3.25275e-22)
(1.05765 -0.0194859 -1.43242e-21)
(0.736543 -0.0293382 0)
(1.0556 -0.00590945 1.4116e-23)
(1.0545 -0.00606097 4.54911e-22)
(1.05564 -0.00655897 -6.91096e-23)
(1.05802 -0.0378938 1.58096e-21)
(1.06104 -0.0378862 5.85366e-22)
(1.04583 -0.00181565 -3.707e-21)
(1.04604 -0.00126761 5.39504e-22)
(1.00179 0.00076791 -1.97864e-22)
(1.00128 0.000666724 -2.78526e-22)
(1.00123 0.000367039 -2.29851e-22)
(0.811922 0.00919326 3.38433e-21)
(0.780667 0.00927892 -5.69676e-22)
(1.02737 -0.000958841 -2.30251e-23)
(1.02735 -0.00117119 4.71514e-22)
(1.02754 -0.00103743 2.29773e-22)
(1.04451 -0.00962599 4.5102e-21)
(1.04477 -0.00952973 -8.18474e-22)
(0.99145 0.0149109 -1.92721e-22)
(0.990947 0.0145281 -8.41568e-23)
(0.991016 0.0151821 -8.11074e-23)
(0.327327 0.0132901 0)
(0.347931 0.0113948 -1.30586e-20)
(1.03129 0.00217533 1.46664e-22)
(1.03104 0.00228435 -4.82222e-22)
(1.03086 0.00204611 -4.97261e-22)
(1.03667 -0.0134867 1.61415e-22)
(1.03686 -0.0136068 -2.16293e-22)
(1.0368 -0.0132832 2.85015e-23)
(1.04304 -0.0285037 0)
(1.04311 -0.0270489 0)
(0.923215 -0.0280212 -1.12489e-21)
(0.931136 -0.0247118 1.10242e-22)
(1.00223 0.00132693 3.24182e-22)
(1.00237 0.000953842 -2.03306e-22)
(1.04336 -0.00267866 -2.91225e-21)
(1.04376 -0.00285067 -3.46782e-21)
(1.04335 -0.00309401 0)
(1.05435 -0.00838773 -2.48392e-21)
(1.05775 -0.00808649 1.13765e-20)
(1.05489 -0.00794879 4.3904e-21)
(1.04044 -0.0116268 5.98974e-24)
(1.04094 -0.0118964 1.27688e-22)
(1.04056 -0.011454 1.33735e-22)
(1.05667 -0.0057432 2.9391e-22)
(1.05543 -0.0052875 -8.94186e-23)
(0.640307 0.0146631 -1.37018e-21)
(0.642175 0.0151979 0)
(1.05278 -0.00873311 -1.61088e-21)
(1.05378 -0.0085099 -1.22562e-20)
(1.05803 -0.00877129 -6.76242e-21)
(0.738489 0.0633741 -4.27949e-21)
(0.767069 0.057947 -3.09325e-21)
(0.724526 0.0672304 2.01259e-21)
(0.576256 0.0250947 2.49891e-21)
(0.541069 0.0136581 -2.4831e-23)
(0.997895 0.0118426 2.19038e-23)
(0.997399 0.011405 1.06819e-22)
(1.04579 -0.00989975 6.60803e-22)
(1.04532 -0.00947637 3.00415e-22)
(1.04507 -0.00972909 8.75454e-22)
(1.04848 -0.00995962 8.82265e-21)
(1.04802 -0.0100006 1.52484e-21)
(1.05544 -0.0104332 6.54859e-21)
(1.01653 -0.0232169 -4.81422e-23)
(1.01417 -0.0245505 1.24197e-21)
(0.998367 0.0123219 -1.80563e-22)
(0.998354 0.0116919 3.72709e-22)
(1.0844 -0.0111273 -2.47608e-23)
(1.03525 -0.0090301 -3.00494e-22)
(1.03553 -0.00928479 2.1996e-22)
(1.03561 -0.00916956 7.36165e-23)
(1.03856 -0.0177171 1.2046e-21)
(1.03825 -0.0172832 -5.09452e-22)
(1.03891 -0.017149 2.30997e-22)
(1.03646 -0.0133384 1.02638e-22)
(1.03516 0.00539325 -3.25521e-21)
(1.03586 0.00456386 -1.06996e-21)
(1.03472 0.00427952 -2.38592e-22)
(1.0248 -0.0185226 2.79673e-21)
(1.02637 -0.0185633 1.18411e-21)
(1.02571 -0.0171004 -3.0067e-22)
(1.04671 -0.018784 3.61234e-21)
(1.04915 -0.0181178 1.12925e-21)
(1.044 -0.0092962 -5.9776e-22)
(1.04384 -0.00916865 -3.05393e-21)
(1.04408 -0.00909114 -2.93724e-21)
(0.583455 0.015223 9.30003e-22)
(0.567742 0.0139882 -1.43601e-20)
(0.581856 0.0146792 -1.29654e-20)
(1.0467 0.00565962 0)
(1.04596 0.00516603 -4.11969e-22)
(1.04032 -0.0118123 -1.24206e-22)
(1.03992 -0.0113562 -2.19829e-22)
(1.08492 -0.018169 -6.97347e-22)
(1.08286 -0.0204805 3.39319e-22)
(1.04844 0.00670433 -1.88889e-21)
(1.04874 0.00587756 3.93752e-22)
(1.04981 0.00693025 -6.86824e-22)
(0.998327 0.000593054 1.48656e-22)
(0.99891 0.00024685 -3.01417e-22)
(0.998636 0.000591399 2.08175e-22)
(0.483582 0.0112648 4.45866e-22)
(1.04412 -0.00941823 -5.57908e-22)
(1.04385 -0.00943812 0)
(0.888405 0.000918994 1.17272e-22)
(0.907199 -0.000449189 8.78655e-22)
(1.03875 -0.0101809 3.95494e-22)
(1.0384 -0.0101769 0)
(1.02059 -0.0217961 0)
(1.01816 -0.0216297 -1.53881e-21)
(1.02015 -0.0196248 1.70002e-21)
(0.982231 0.0222266 0)
(0.982062 0.0209952 -3.69184e-23)