/*--------------------------------*- C++ -*----------------------------------*\
| =========                 |                                                 |
| \\      /  F ield         | OpenFOAM: The Open Source CFD Toolbox           |
|  \\    /   O peration     | Version:  v2012                                 |
|   \\  /    A nd           | Website:  www.openfoam.com                      |
|    \\/     M anipulation  |                                                 |
\*---------------------------------------------------------------------------*/
FoamFile
{
    version     2.0;
    format      ascii;
    class       volVectorField;
    location    "150";
    object      ddt0(U);
}
// * * * * * * * * * * * * * * * * * * * * * * * * * * * * * * * * * * * * * //

dimensions      [0 1 -2 0 0 0 0];


internalField   nonuniform List<vector> 
13851
(
(0.00244415 0.00339331 -1.18847e-17)
(0.00123522 0.00026396 4.40128e-18)
(0.00132048 0.000266963 -4.75749e-18)
(-0.00322892 -0.00553126 -4.89533e-17)
(-0.000267256 -8.5409e-06 5.12633e-19)
(0.0016615 9.11239e-05 7.18167e-18)
(0.0011267 0.000794807 -1.07003e-17)
(-0.0001005 -7.23104e-06 2.89975e-19)
(-0.0105578 0.00277668 -2.05406e-18)
(5.58122e-06 -0.000640549 1.30696e-17)
(0.0037625 -0.000742224 -5.62111e-18)
(-0.000117269 -0.000231519 2.453e-18)
(0.000128577 -0.000963472 -6.1587e-18)
(-0.0113631 0.00140286 1.31538e-18)
(0.00183622 0.00140447 3.2073e-18)
(0.000753692 0.00255538 5.19709e-18)
(-0.00901435 -0.00266618 -5.28074e-17)
(0.000598573 -7.03955e-05 -3.95557e-18)
(0.00697871 0.00205687 8.07103e-18)
(0.00262542 0.00334752 8.74494e-18)
(0.0022232 0.00142194 1.55413e-17)
(0.00115567 -0.00116716 -9.10029e-20)
(-0.0131214 0.0109044 2.0981e-17)
(-5.19534e-05 -3.83461e-06 1.99763e-18)
(0.00496491 0.0148031 -2.10013e-17)
(0.000997974 0.00197657 2.38977e-18)
(0.000898597 0.0035441 -7.64729e-18)
(0.00352838 0.00839315 7.39425e-18)
(-0.00723553 0.00249423 1.18111e-17)
(0.000191884 -0.000107569 5.51249e-19)
(-0.00241016 0.00152414 -4.712e-17)
(0.0012299 0.000784275 -5.34915e-19)
(0.00183825 0.00326136 7.42233e-18)
(-0.0128607 0.00234221 -1.36774e-18)
(0.00318745 -0.000513896 -1.06072e-17)
(-0.00707685 0.00270744 7.80094e-18)
(-1.49433e-05 -3.44927e-06 -1.69465e-18)
(0.00379737 -0.0172924 2.7763e-17)
(-0.0151525 0.0108732 -6.812e-17)
(0.000265471 -0.000737398 3.27594e-18)
(-0.0179973 0.00861127 1.30523e-17)
(-0.00719154 0.00265863 -2.02987e-18)
(0.00317593 -0.00054249 7.84684e-18)
(0.00100568 -0.00565789 -2.89388e-17)
(-0.00734833 0.00278925 -3.67572e-18)
(0.000129924 -0.000364146 -1.66203e-19)
(0.000359592 2.67844e-05 -2.74039e-18)
(0.000880534 0.00276473 -2.57087e-18)
(0.000972773 -0.000602177 2.45728e-18)
(0.000162391 -0.000965604 5.39082e-18)
(-0.0100665 -0.00229467 1.58253e-17)
(9.23316e-05 -0.00107254 -1.42644e-17)
(0.000748807 0.00255585 -8.15019e-18)
(0.00149025 0.0012154 6.03683e-18)
(-0.00972448 0.00147845 8.77204e-18)
(0.000266216 -0.000752581 2.02071e-18)
(0.001937 0.00333078 -8.35412e-18)
(-0.0187402 0.00816961 -9.04458e-18)
(-0.000132284 0.00320037 -1.45991e-17)
(-0.0125152 0.00124258 1.32843e-17)
(-0.000127316 -0.000219753 3.75122e-18)
(0.000648389 0.00349165 -4.60355e-18)
(-4.85247e-05 -0.000443201 -5.02262e-18)
(0.000935563 -0.000625678 -8.06325e-19)
(0.000765203 -0.00403986 4.18597e-18)
(0.000632095 -0.0040134 1.49725e-18)
(-0.0122248 0.00115133 -1.70314e-17)
(0.000472233 -0.00315355 -3.92487e-17)
(0.000468865 -0.000601118 -1.30936e-18)
(-0.0111618 -0.000764699 -2.3457e-17)
(-0.00224411 -0.00765707 5.17868e-17)
(0.0024907 0.00166832 -1.69546e-17)
(0.000109701 -0.000766032 -9.50858e-20)
(-0.0121025 0.00112765 -3.42136e-18)
(0.00164377 0.00128661 -6.10365e-19)
(0.000777462 -0.0010849 -2.92892e-19)
(-0.00852871 -0.00376899 -6.01602e-18)
(0.000239733 4.89721e-06 -1.73117e-18)
(0.00242857 0.0122702 1.83513e-17)
(-2.68641e-05 -0.000393618 7.64141e-19)
(0.000468359 -0.000596564 1.48221e-19)
(0.0105615 0.000147842 -2.93684e-17)
(0.00287026 -0.000541853 6.5539e-18)
(-0.0115243 0.00128721 3.3324e-19)
(-0.0122191 0.00119943 1.4935e-18)
(-0.000994665 -0.00248158 -5.46117e-17)
(0.00123464 -0.00116411 -1.8013e-19)
(-0.00723437 0.00151234 4.17788e-19)
(-8.10858e-06 -0.000651528 -5.92481e-18)
(-0.00292837 0.00285539 -4.9557e-17)
(0.000112494 -0.00109559 9.77945e-19)
(0.00124854 0.000798122 2.80798e-18)
(-0.00144246 -0.000612949 2.25133e-17)
(0.000521842 -0.00118832 3.41933e-17)
(-0.0089631 -0.00772643 -7.83179e-18)
(0.00160006 -0.00516457 6.45652e-18)
(0.00010701 -0.000437526 6.52734e-18)
(0.000646351 0.00269153 -7.18554e-18)
(-0.0229519 0.000623421 -5.42731e-18)
(0.00353801 -0.00253329 -5.13732e-17)
(0.00062661 0.00275086 1.32485e-17)
(0.000556965 -0.0027656 4.89862e-18)
(0.000662128 -0.00288278 -1.83104e-17)
(0.000165265 -0.000866471 -3.4503e-18)
(0.000222299 -0.000320971 9.70674e-20)
(0.00272632 0.00132095 -1.36132e-17)
(0.000184932 -0.000323578 -2.1271e-19)
(-0.00211109 -0.00692824 -3.79223e-17)
(0.00125015 0.000783888 6.05833e-19)
(0.00052338 -7.02586e-05 1.85702e-18)
(0.00127188 -0.00173229 -8.00679e-19)
(0.000155259 -0.000362718 1.79584e-19)
(0.00398915 0.00139459 -6.84072e-20)
(0.003555 0.000599475 -1.27959e-17)
(0.00158888 0.00313227 1.05355e-18)
(0.00132726 0.00119041 -1.13687e-17)
(-1.71009e-06 -9.24393e-05 -2.28492e-21)
(-7.70056e-05 -7.59278e-06 -5.59429e-20)
(-0.00149914 -0.00498543 4.56254e-17)
(-0.0120334 -0.00162827 -1.31721e-17)
(0.00268386 -0.00471399 -4.25228e-18)
(0.000375702 -8.40863e-05 -2.82877e-18)
(0.000386437 -0.000662211 -9.19561e-19)
(-0.0124378 0.00148891 7.0047e-18)
(0.00492204 0.0043414 7.94094e-18)
(0.000526001 -0.00354764 4.44108e-18)
(5.50436e-05 -0.000435452 -3.98094e-18)
(0.00285035 -0.00171742 -5.28702e-18)
(-0.0132804 0.00240033 4.60317e-19)
(0.00201887 0.00173668 -1.0193e-17)
(0.00114225 -0.0012156 7.46113e-20)
(0.00207861 -0.000297557 1.00322e-17)
(0.00383545 -0.0146503 9.73552e-18)
(-0.0130701 0.00235103 7.39622e-19)
(0.0039309 -0.000594178 4.69387e-18)
(-0.0069192 -0.00296598 9.24803e-18)
(0.000438409 -0.00309928 4.54656e-17)
(-0.000285134 -0.00400861 3.27037e-17)
(0.000475115 -0.00249494 2.38814e-17)
(0.00198395 0.0017401 -4.24298e-18)
(0.0103728 -0.000438173 3.0283e-17)
(0.000336572 -0.00125309 7.10443e-18)
(4.07757e-06 -0.000672568 6.27216e-18)
(0.000783326 -0.003605 -3.09754e-17)
(-0.00541429 -0.00229066 1.28992e-17)
(0.000693498 -0.00118205 -7.94781e-19)
(0.000245531 9.78621e-06 2.09118e-18)
(0.000189189 0.000262509 -1.77171e-17)
(-0.00852533 0.00209644 -4.39444e-18)
(0.00306585 -0.00176549 1.28747e-17)
(0.000623055 0.00275813 -1.39469e-17)
(0.00424549 0.00145663 -3.21626e-19)
(0.00369428 0.000651455 2.39465e-17)
(0.00594823 0.00269916 -1.03648e-17)
(0.000172374 -0.00112951 -9.28021e-18)
(5.91939e-05 -0.00084811 -4.15005e-18)
(-0.000131587 -0.000170491 -4.95971e-18)
(-0.013823 0.0100997 5.94719e-17)
(0.00201308 0.00162176 4.53808e-18)
(0.00120994 0.000629852 7.89605e-18)
(-6.94031e-05 -9.19559e-06 -1.86163e-18)
(-0.00694776 0.0025798 1.36847e-17)
(0.00232406 0.00131698 1.36219e-17)
(0.000920389 0.00277355 5.38248e-18)
(-0.0113445 0.00139975 -9.11701e-19)
(-0.00946667 0.00333887 1.03941e-17)
(-0.00944185 0.00343164 -4.68607e-18)
(-0.0089958 -0.00290838 -7.48592e-18)
(0.00126908 -0.00166893 -7.17994e-19)
(0.0108557 0.0121736 -7.31696e-18)
(-0.000119495 -0.00020705 1.53422e-18)
(-1.88397e-05 -8.67948e-05 7.71274e-20)
(0.00326821 0.00133847 1.35808e-17)
(-0.000233542 -7.8559e-06 4.27458e-19)
(-0.0107422 -0.00832278 2.64297e-18)
(0.00135659 0.00381234 5.35685e-18)
(0.000565076 0.00301626 2.76255e-18)
(-1.75617e-05 -8.16683e-05 2.96629e-20)
(0.00174268 0.00129772 5.21563e-18)
(0.00109214 0.00296043 2.80997e-18)
(0.00423263 0.00423546 -1.0087e-17)
(0.00150457 -0.0056272 1.01507e-17)
(0.00129804 -0.00154841 1.13337e-19)
(0.00190539 0.00170371 4.54469e-18)
(-0.00262929 -0.00130753 1.95247e-17)
(-0.00848126 0.0020957 -6.93309e-19)
(0.00179239 0.0032699 1.98145e-18)
(0.000419313 -0.00217963 -2.60781e-18)
(0.000189394 -0.0010552 -5.56821e-18)
(0.000152238 -0.000204289 -7.8058e-21)
(-0.0030109 -0.00186556 1.58623e-17)
(0.00205144 0.0016029 1.3171e-17)
(-0.0112469 0.00125663 -5.4506e-18)
(0.0016624 0.000145272 2.12916e-18)
(0.000676917 -0.0011404 6.80544e-19)
(0.000711149 0.00262603 -7.48679e-19)
(0.00184302 0.00321288 3.01873e-18)
(0.000781952 0.000209025 -3.76579e-18)
(0.000665797 -0.000156807 -1.71808e-18)
(0.000523938 -0.00323759 -1.47886e-17)
(0.00991099 -0.00207792 -8.73244e-18)
(-0.0277729 -0.00603114 4.47725e-18)
(-0.0220653 0.00944443 -3.23517e-18)
(0.00181807 0.00140159 -5.91559e-18)
(-0.000423506 -0.00444725 4.18034e-18)
(-0.0265312 -0.00515804 -3.53431e-18)
(0.000221913 -0.00162474 -9.39082e-18)
(0.00175127 0.0017756 -7.82675e-19)
(-0.0109547 0.00277726 -6.03838e-18)
(0.00169278 -0.000112773 7.66041e-19)
(0.000390297 0.00247805 -4.59791e-18)
(0.000394829 -0.000654502 1.53017e-18)
(0.0107681 -0.00159002 -1.65994e-17)
(-1.89297e-05 -5.65669e-05 -9.3787e-20)
(0.00310106 -0.000328047 1.72302e-17)
(0.000918793 -0.00115638 9.08641e-20)
(0.000147733 -0.000935241 1.72723e-17)
(0.00235157 0.00415739 7.94106e-18)
(0.000640412 4.39693e-05 -2.04776e-18)
(0.000860434 -0.00479085 -2.91681e-17)
(1.10246e-05 -7.56249e-05 -6.19743e-21)
(0.00270624 0.0033838 1.96835e-17)
(-0.0114796 0.0012057 -3.18077e-18)
(-0.00812106 -0.0054298 -1.13551e-17)
(0.000472621 -0.00214381 1.44357e-17)
(0.00177365 0.0017959 2.28053e-18)
(-1.90107e-05 -2.70036e-05 1.17908e-19)
(0.000735786 -0.00352385 -1.61299e-17)
(-7.90032e-05 -0.000361788 2.08152e-18)
(0.00321346 -0.000381728 -1.87703e-17)
(-0.00774714 -0.00946806 -3.19029e-17)
(0.000407591 -0.0021455 7.338e-18)
(0.00147169 -6.69215e-05 -2.93885e-18)
(5.23601e-06 -0.000397169 2.56964e-18)
(-0.0212046 0.00862773 1.55532e-18)
(0.000205343 -9.69899e-05 1.39843e-19)
(-0.0135453 0.00727615 5.82459e-17)
(-0.0241192 0.00900748 -6.00086e-18)
(0.00351035 -0.00252884 -5.76139e-18)
(-3.26848e-05 -8.76515e-06 2.47208e-18)
(0.0116496 -0.00217543 1.73292e-17)
(-0.0120124 0.00112709 2.27557e-18)
(-0.00700304 0.00288541 -2.74211e-18)
(0.000723823 0.00248575 3.70661e-18)
(0.00266178 0.000863598 4.40443e-18)
(0.00072245 -0.00376099 1.72634e-17)
(0.00247503 0.00403128 1.2477e-17)
(0.00164706 0.00131121 4.00807e-18)
(0.00183779 -0.00508474 1.74e-17)
(0.00147437 -0.0016589 -6.01509e-19)
(-0.00827908 0.00139935 -9.39337e-18)
(0.00361494 0.00294633 -4.43722e-18)
(-0.000185978 -1.08076e-05 1.04276e-20)
(0.00160656 0.000562102 -3.83813e-18)
(0.0006347 0.00269504 1.01577e-17)
(-0.00722583 0.00251854 -9.90479e-18)
(-0.00624628 0.00174915 -2.76719e-18)
(0.000162205 -0.000196384 2.57362e-20)
(0.000403216 -0.00354116 -6.67884e-18)
(1.25413e-05 -0.000634304 -2.89788e-18)
(0.00187374 0.00360638 1.46864e-17)
(0.00553566 0.00381986 5.03559e-18)
(0.00168318 0.000590702 -1.38711e-17)
(0.00229534 0.0014067 -8.82643e-18)
(0.00410467 0.00295783 8.03311e-18)
(8.6523e-05 -0.000628051 6.61861e-18)
(0.000634705 -0.00284493 -6.59462e-19)
(0.000897097 0.00268225 9.25122e-18)
(0.00246016 0.00685516 -2.15182e-17)
(-9.16635e-05 -0.000387049 -2.74337e-18)
(0.000155184 -0.000932786 -1.84389e-17)
(0.000435114 -0.00216294 -1.00772e-17)
(-0.0111023 0.0033712 -5.82987e-18)
(-0.00343655 -0.00218564 2.49342e-17)
(0.0023126 0.00160825 -1.82963e-17)
(0.000419098 -8.34491e-05 1.2053e-18)
(0.00401296 0.00449873 5.43599e-18)
(0.00573034 0.00331398 9.18431e-19)
(0.00166779 0.00303808 -3.02639e-18)
(0.00243105 0.0014087 7.97432e-18)
(-0.0113582 0.00314438 4.41353e-18)
(-0.0206586 0.00153761 -9.73887e-18)
(0.00163674 0.000470008 -4.0201e-18)
(0.00184335 0.00127266 9.36075e-18)
(-0.00164467 -0.00285719 -2.37974e-18)
(0.000176675 -0.000282565 5.65147e-20)
(-0.00013332 -0.000156483 -1.2633e-18)
(0.00175593 0.00309748 -7.03491e-18)
(0.00335776 -0.00110982 2.88799e-17)
(0.000249921 -8.53345e-05 -1.27284e-19)
(-6.67595e-05 -5.29862e-05 1.55713e-18)
(-9.52671e-05 -0.000373379 -6.08293e-18)
(-0.000298134 -1.09187e-05 1.75107e-18)
(0.00196722 0.00103263 -3.82653e-18)
(-0.000137157 -0.000169941 1.38173e-18)
(-0.0106811 0.00288207 -1.64912e-18)
(0.00237312 0.00148916 -1.09496e-17)
(0.000193395 -0.000562906 -1.55457e-18)
(-0.00709971 0.00255971 -5.89091e-18)
(-0.0124582 0.00139189 -4.97324e-18)
(0.000124676 -0.00106856 -2.7247e-18)
(0.00271047 0.0034466 -1.36817e-17)
(-0.0165192 -0.00300479 -2.99097e-17)
(0.00036597 -0.00128693 1.58276e-19)
(0.000155041 -0.00109209 -8.92503e-18)
(0.00230151 0.00152711 1.13417e-17)
(-0.0114915 0.00113615 2.79364e-18)
(-0.0309872 -0.0143016 1.2163e-17)
(0.00323996 0.00170113 1.98498e-17)
(-0.000274282 -1.12344e-05 5.0909e-20)
(0.014714 0.0131693 2.32794e-17)
(-0.000108958 -0.000219399 -3.85184e-18)
(0.00335889 0.00172784 -1.36058e-17)
(-0.0187755 -0.00335129 1.53677e-17)
(0.00203821 0.00617347 6.94357e-18)
(0.00115885 0.000612836 -1.73625e-18)
(-0.00172649 -0.00287795 -1.64533e-17)
(0.000792817 -0.00960207 -1.83498e-17)
(-0.0079268 -0.0109023 3.90592e-17)
(0.00424406 0.00160723 -1.79708e-18)
(0.000485444 -0.00281467 -1.58697e-17)
(-0.00802888 -0.00285816 -3.19263e-17)
(-0.012965 0.00175196 -1.8459e-18)
(0.00436046 0.00823078 1.1587e-17)
(0.000706593 -0.000153716 -1.02231e-18)
(0.00208375 -0.00195329 -9.61345e-18)
(-0.00440098 0.000861843 -1.23339e-17)
(0.0007928 -0.00431063 2.46999e-17)
(0.000813886 -0.00434384 -2.4514e-17)
(0.000249175 -0.00164123 1.59253e-17)
(0.00336955 0.0014911 1.25498e-17)
(0.000767236 -0.00207294 -1.29207e-17)
(-0.00728281 0.00152909 3.90977e-18)
(0.000712063 -0.00301068 8.70075e-18)
(-0.000232276 -2.71936e-05 1.20983e-18)
(0.000348262 2.91839e-05 2.14774e-18)
(0.00155984 -0.000793414 -9.66541e-18)
(-0.00693529 -0.00980856 -1.44685e-17)
(0.000907261 -0.00491204 -7.32625e-18)
(0.000183302 -0.00026782 -1.23009e-19)
(-0.0076409 -0.00609955 1.97382e-17)
(0.000710827 -0.00213201 2.47404e-18)
(0.00205888 -0.000349971 7.85331e-18)
(0.00121304 0.000653892 -6.27255e-18)
(-0.011482 0.00110424 -7.74825e-18)
(0.00395282 0.00442553 -4.89721e-18)
(0.000747575 0.00262617 2.79172e-18)
(0.000854726 -0.00113836 4.27021e-19)
(0.00135156 -7.87032e-05 8.37414e-18)
(-0.00580283 0.00300401 -1.62669e-17)
(0.000206958 -0.00107026 -5.11805e-19)
(0.00606385 0.00311279 -1.90824e-18)
(0.00155128 0.000483126 -3.00422e-18)
(0.00236833 0.00150414 -8.32816e-18)
(0.000728019 -0.00215214 -1.24647e-17)
(6.41708e-06 -0.000653271 3.81963e-18)
(0.000210765 -0.000557262 2.35549e-18)
(0.00651682 6.29796e-05 5.18561e-18)
(0.00359379 -0.00276355 2.8529e-17)
(0.00351133 0.00315057 -2.05933e-17)
(-6.25495e-05 -0.0110899 -3.87462e-17)
(-0.00587642 0.00307465 1.45452e-17)
(0.000726906 -0.00119212 1.43682e-18)
(-0.0229991 0.00850482 -2.09526e-18)
(0.0017169 0.00381296 5.77907e-18)
(0.000414415 4.72807e-05 1.26451e-18)
(0.00117274 0.00601418 -7.88888e-18)
(0.00258271 0.00275701 3.41976e-18)
(-0.0233006 0.000391751 -1.22502e-19)
(0.00144477 -0.000766295 -4.98292e-18)
(0.00071181 0.0018923 5.32012e-18)
(0.00218645 0.00322108 3.57094e-18)
(0.0282619 -0.00629879 2.51576e-17)
(0.00673107 -0.00065311 -6.86936e-17)
(-0.0075786 0.00153985 4.31058e-18)
(0.000803987 -0.000307232 4.50406e-18)
(0.00131134 0.00385537 -1.15603e-17)
(0.00417963 -0.000364154 -4.71459e-17)
(0.00197566 0.00055717 -1.13604e-17)
(-0.00829538 0.00154959 2.89106e-18)
(0.00218829 0.000583075 -1.71535e-17)
(-0.0268494 0.00927084 1.7624e-17)
(0.0017056 0.00121288 -1.58859e-17)
(0.00134938 0.00143676 1.23439e-17)
(0.00454159 0.00264912 -1.39417e-17)
(0.00381289 -0.00406524 1.72191e-17)
(6.74594e-05 -0.00085 -3.24479e-18)
(0.00163563 0.000332919 -7.47938e-19)
(0.00339281 -0.00115172 -1.87902e-17)
(0.00167977 0.00131455 -7.117e-18)
(0.000140681 -0.000418998 -3.59358e-19)
(0.00241564 0.00166163 2.27919e-17)
(-0.00394824 0.00290137 2.01395e-18)
(0.000115326 -0.000751539 4.96268e-18)
(0.00178266 0.00178121 5.6331e-18)
(0.00316625 -0.00252814 -6.19558e-17)
(0.00127742 -0.00010478 1.04008e-17)
(0.00117355 -0.00848742 -2.14677e-17)
(0.00142962 0.00166673 -1.19725e-18)
(-0.0316802 -0.013332 6.79025e-18)
(0.00172412 -0.000127169 1.46052e-18)
(0.00105514 0.0019558 3.7251e-18)
(-0.000459274 -0.0042585 -7.72203e-18)
(0.00527613 0.00408978 2.94413e-19)
(0.00298093 0.00117458 1.86946e-17)
(-0.00613687 0.00160553 -5.68536e-19)
(-0.0119646 0.0010703 -1.07535e-18)
(0.00926941 -0.00255831 -4.12524e-17)
(8.71954e-05 -0.000639954 -2.92699e-18)
(0.00573051 0.000231334 6.00846e-18)
(0.00259907 0.000443809 1.56011e-17)
(0.000756433 0.00191251 1.36874e-17)
(0.000369418 -0.0001354 1.63408e-19)
(0.00226851 -0.00120581 -1.67136e-17)
(-0.00692333 0.00419639 -2.38772e-18)
(0.0241634 0.00839428 3.54815e-17)
(0.00135015 -4.52264e-05 -5.15859e-18)
(0.00424662 0.00275425 1.59208e-17)
(0.00127993 0.0036141 -6.01162e-19)
(-0.00314488 -0.0028554 -2.88589e-17)
(0.000373624 9.4447e-05 -1.60123e-18)
(0.00231524 -0.00126851 3.50495e-17)
(0.00506964 -0.0049533 -2.88534e-17)
(-0.00207607 0.00393473 -1.12564e-16)
(0.0015936 -0.00166698 2.67925e-18)
(0.0107188 0.00185984 1.06426e-19)
(6.54338e-05 -0.000806388 -7.24152e-18)
(-0.000238845 -6.70324e-06 -3.93783e-19)
(-0.00939291 0.00137292 -9.46202e-18)
(0.00122701 0.00366652 5.31168e-18)
(1.65404e-05 -0.000660813 4.21345e-18)
(0.00125425 0.000233929 1.08971e-18)
(0.00181309 0.00180682 -3.29437e-18)
(-5.26652e-05 -0.000112594 -5.63516e-21)
(-0.00344306 0.00446078 -2.26621e-18)
(0.00339666 0.00157085 3.41307e-18)
(0.00256373 0.00271165 -2.5079e-18)
(0.00151575 0.000778032 -2.13929e-18)
(0.000768814 -0.000277567 -4.5837e-18)
(0.000110235 -0.00108342 -1.95233e-17)
(0.0238767 -0.00737205 7.49515e-17)
(0.000175462 -0.000577584 2.82488e-18)
(9.82401e-05 -0.00106278 2.23287e-17)
(0.0014391 0.0031708 1.2577e-17)
(-0.00223845 0.00282542 -2.48752e-18)
(0.00104891 -0.00120423 -4.37933e-21)
(0.000530287 0.00319076 1.16892e-18)
(-3.01023e-06 -0.000429749 3.16052e-18)
(-0.00015119 -0.00015591 1.26621e-18)
(0.00132682 -9.88976e-05 -2.02641e-18)
(0.00356949 0.00319263 2.61711e-17)
(0.00138937 0.00160886 -2.69672e-18)
(0.000186181 -0.000448417 -2.78147e-18)
(0.00101714 -4.66696e-05 -5.14081e-19)
(0.00288813 -0.00457345 1.28285e-17)
(0.0011859 0.000284474 -2.31765e-19)
(-0.0316419 -0.018142 6.05319e-17)
(-0.00014546 -0.000207244 -3.00979e-18)
(0.00138307 0.0010133 1.1018e-18)
(-0.00733914 0.00286415 4.6325e-18)
(0.000927222 -0.0024474 2.46399e-18)
(0.000199571 1.84955e-05 -5.84795e-19)
(-0.000132822 -0.000204824 -1.92038e-18)
(0.00170321 0.000752698 5.59364e-19)
(0.000903861 0.000259366 -1.19183e-18)
(0.00796193 -0.00689247 2.04569e-17)
(0.000640822 0.00326009 -3.01404e-18)
(0.00205075 0.000912445 6.18654e-19)
(0.00181304 -0.00627067 8.23308e-18)
(0.00133994 -5.42901e-05 -2.45152e-19)
(-0.000106509 -0.000336299 -7.39696e-19)
(-0.0129338 0.00198184 1.43519e-18)
(0.00308 0.00325944 -6.44744e-19)
(0.000684519 -0.00249805 3.97379e-18)
(0.000159752 -0.000774891 -5.87955e-18)
(-0.0126655 0.00159516 4.01137e-18)
(0.000519036 -0.00248238 -3.05586e-17)
(-0.00994717 -0.000124611 -4.25368e-18)
(0.000142087 -0.000864422 8.77952e-19)
(0.00224368 -0.000176914 5.9051e-18)
(0.00656389 -0.000441057 5.45759e-17)
(0.00140178 0.00139618 -2.65338e-18)
(-0.0130999 0.00191736 4.17642e-18)
(0.00104175 0.0036143 1.42519e-18)
(0.0229464 0.00623903 -4.1726e-17)
(0.000578284 -0.00147406 4.51568e-18)
(0.00422862 0.00158138 9.3779e-18)
(8.33138e-05 -0.000625538 1.4661e-18)
(-0.00712932 0.00244643 -1.71293e-17)
(0.00131068 0.00165857 8.22324e-20)
(0.00177416 0.00320251 3.41082e-18)
(0.00213855 0.000480141 -9.44611e-18)
(0.000856403 -0.00109345 4.97188e-19)
(0.000962534 -0.00236283 6.27264e-18)
(0.00329557 0.00143361 -1.40848e-17)
(-0.000253134 -1.02799e-05 2.27166e-19)
(-0.00560277 0.000355958 1.16419e-16)
(-0.0128843 0.00182932 2.74111e-18)
(-0.032811 -0.017808 -2.48142e-17)
(-0.00301417 0.00373231 2.95241e-17)
(0.00113753 0.00313376 -2.36017e-18)
(-0.0172054 0.00215762 3.21354e-17)
(0.00587254 0.00366821 -2.5419e-18)
(0.000505483 -0.00207988 1.62237e-17)
(-5.50197e-05 -0.00013523 6.48614e-18)
(-0.00804465 -0.00634862 -1.99158e-17)
(3.12808e-05 -0.000634007 -1.68619e-17)
(0.000156139 -0.000412118 9.92812e-19)
(0.000591951 -0.00220585 -8.27777e-18)
(-0.0141087 -0.0107588 -1.41513e-17)
(0.00130288 0.000369925 -6.89896e-18)
(0.000298039 -0.00127435 -1.67059e-18)
(0.00240364 -0.0034259 -1.29393e-19)
(0.00320092 0.000681032 7.28297e-19)
(2.89263e-05 -0.000688467 4.07807e-18)
(-0.00778968 0.0176394 2.44188e-17)
(0.000111679 -0.00044808 5.67132e-19)
(-0.0132719 0.00211746 2.53332e-18)
(0.0074105 -0.00590482 -5.68198e-17)
(-6.99083e-06 -0.000398864 -1.34123e-18)
(0.00111918 0.000473144 -1.71157e-18)
(0.00773774 -0.00436666 1.38538e-17)
(0.00178718 0.00670461 7.68357e-18)
(0.000240978 -9.80112e-05 -6.73817e-19)
(-0.0036854 -0.0192535 -4.59072e-17)
(-0.0174906 0.00139297 2.28524e-17)
(0.000494469 0.000193736 3.44002e-18)
(-0.0268697 -0.000641172 4.25349e-17)
(0.0067011 0.00245761 -2.19368e-17)
(0.0027951 0.00338968 -3.03615e-18)
(0.000544639 -0.00146694 1.89658e-17)
(0.00103098 0.00310772 -5.40373e-18)
(-0.0162633 0.00218613 -1.56804e-17)
(0.000535311 0.000197064 -1.18979e-18)
(0.002683 0.000857037 3.86683e-17)
(0.000444914 -0.000632333 8.49858e-19)
(0.000118176 -0.000453054 -3.69991e-18)
(0.000714904 0.00327708 -1.25984e-17)
(-0.0276787 0.00885136 8.50404e-18)
(0.00277025 0.000578867 1.35021e-18)
(0.00133054 0.00157357 4.25932e-18)
(2.40388e-05 -0.000653022 -6.48502e-18)
(0.000762644 0.0019492 6.7867e-18)
(-0.013295 0.00231046 7.07861e-18)
(-0.00941637 0.00515256 -9.93068e-18)
(0.000576284 0.000178155 1.21189e-18)
(-0.0151299 -0.00225629 -7.98253e-17)
(0.000129714 -0.000439572 2.94921e-18)
(0.00049273 -0.000629777 9.56918e-19)
(0.00278337 0.00123985 -2.8132e-17)
(0.00136456 0.00102513 6.90662e-18)
(0.000361121 0.000103083 6.28523e-19)
(0.000742477 -0.00110509 -1.19645e-18)
(-0.0277437 0.00273107 -6.71384e-17)
(0.00420219 -0.00392336 4.81114e-17)
(-0.0262813 0.00103453 -1.38869e-17)
(0.00118777 0.000338053 -2.87357e-18)
(2.36747e-06 -0.000635303 -8.62545e-19)
(-0.0104893 0.00354578 -2.88159e-18)
(-9.76942e-05 -0.00018175 -1.7607e-18)
(0.00575393 0.000805059 -4.25378e-17)
(0.00154514 0.000959432 -7.43201e-18)
(0.00152848 0.00129395 -5.86871e-18)
(0.0023964 0.000779617 -9.0153e-18)
(-0.00591603 0.00302284 9.67431e-18)
(-0.0215289 0.00190948 9.56444e-19)
(0.00159162 0.000225736 7.77643e-18)
(0.00246858 -0.00017475 -1.95721e-19)
(0.0011137 0.000560487 -2.11798e-18)
(0.00337815 0.00117097 -3.78822e-19)
(-0.0071784 0.00269507 -4.92674e-18)
(-0.00988784 0.00170281 -6.58255e-18)
(0.000354142 -0.000711368 -6.79122e-19)
(0.000101549 -0.000639605 -1.38121e-18)
(0.000686591 -0.00289756 1.66941e-17)
(-0.0269124 0.00297992 8.83441e-17)
(0.000320187 0.00293375 4.44385e-18)
(0.000983141 0.00191389 -2.73279e-18)
(-0.00770493 -0.00136904 -6.46303e-17)
(0.00138247 0.00103859 -5.013e-18)
(0.001783 0.00118328 1.1718e-17)
(-0.0232363 -0.00866723 -3.36805e-17)
(-0.00812436 0.0232559 3.76327e-17)
(0.00239882 -0.00419932 6.29739e-18)
(-0.0132217 0.00198594 8.94428e-19)
(0.00126361 0.0033553 -6.27453e-18)
(-0.00628557 0.00308806 -7.40239e-18)
(0.000775353 -0.000334608 -2.05778e-18)
(0.0026506 0.00324294 1.36506e-17)
(0.0103407 0.00155943 -5.05668e-18)
(-0.000115864 -0.000309928 -1.37041e-19)
(-0.00242164 -0.000397979 -2.47388e-17)
(-0.0202737 -0.0186063 -2.92079e-17)
(0.00125401 -0.00161324 1.2107e-18)
(0.00192094 0.00175487 1.23304e-17)
(0.000223406 -0.000755401 2.98713e-18)
(0.000772564 -0.00479728 4.61943e-18)
(0.00334245 -0.00222454 -2.43468e-17)
(-0.0336086 -0.00356375 -5.51978e-18)
(0.000215829 -0.000586838 -1.35655e-18)
(-0.000173952 -9.20242e-06 1.67999e-18)
(0.000351792 -0.00196236 -1.96055e-17)
(0.00310067 0.000607894 5.5486e-18)
(-0.000162082 -0.000196165 2.70929e-18)
(-0.0124841 -0.00958331 2.24412e-17)
(-0.000175545 -1.1127e-05 -9.64425e-19)
(0.00136493 0.0033518 5.47549e-18)
(0.000557526 -0.00151123 1.845e-18)
(0.000744103 0.00196307 -1.02844e-17)
(0.000125378 -0.000838801 -2.39433e-18)
(3.0839e-05 -0.000705145 -3.49339e-19)
(0.00216504 -0.00187003 -8.57405e-18)
(-0.0157578 -0.00208256 -2.48103e-18)
(0.00301311 0.00104953 8.53133e-18)
(-0.00657737 -0.00422813 -3.55578e-18)
(0.00214788 -0.000229424 9.52046e-19)
(-1.35614e-05 -0.000128607 -6.60464e-19)
(0.000526831 3.34769e-05 1.74229e-19)
(0.00331235 0.00130822 -9.91819e-18)
(0.00102392 -7.94574e-05 6.96515e-19)
(0.00414278 0.00112876 -1.53093e-17)
(0.0013743 0.000378353 1.53256e-17)
(0.000653122 -0.00245945 -2.63804e-18)
(0.0019287 0.00319072 1.34249e-17)
(-4.78562e-05 -0.000188398 1.06342e-18)
(-0.00541327 0.00165745 1.93525e-18)
(-1.66756e-05 -3.69967e-05 3.61774e-18)
(0.000790848 0.00214037 1.17956e-17)
(0.00187411 0.00049479 -1.70751e-17)
(-0.00847465 0.00334701 -2.13869e-19)
(0.000282839 -0.00215097 -1.25395e-17)
(-0.0293712 -0.00101421 -1.07431e-17)
(0.00219819 -0.00329722 1.30314e-18)
(0.00400506 -0.0016634 7.32553e-17)
(-0.0217494 -0.0188301 7.89649e-18)
(0.000595968 0.000186949 -3.03159e-18)
(-0.00823129 0.0192273 -2.03732e-17)
(0.000724218 -0.0021189 -1.66748e-17)
(0.00215562 0.000580852 -5.2021e-18)
(-0.00140309 0.00476295 1.51911e-17)
(-0.0024619 0.000406756 8.62559e-18)
(0.000312442 4.32171e-05 -1.50423e-19)
(0.00408783 0.00108227 1.27714e-17)
(0.000756163 0.000216086 -4.15249e-18)
(-0.00648816 0.00291216 3.44411e-18)
(-0.00305345 -0.00103279 -1.76185e-17)
(0.000483417 -0.000589227 -3.34438e-20)
(0.000485962 -0.00320284 1.10731e-17)
(-0.00481336 0.00921651 -1.59147e-18)
(-2.49515e-05 -4.15987e-05 -7.19517e-19)
(-2.40362e-05 -5.51967e-05 5.76986e-19)
(0.000960423 0.00197617 -2.37382e-18)
(-0.00522092 0.001542 4.02408e-18)
(-0.000216291 0.00317458 1.19565e-17)
(0.000149116 -0.00108605 1.11827e-17)
(0.00463188 0.00236234 1.24202e-17)
(0.00115511 0.000266071 3.01626e-18)
(1.62148e-05 -0.000741254 -4.42024e-18)
(0.0010582 0.00316401 1.04686e-17)
(0.00474173 0.00251841 -1.26662e-17)
(0.00389786 -0.00277844 1.23501e-17)
(0.000235189 8.18451e-05 -6.53433e-19)
(0.00094679 0.00269837 1.40537e-18)
(0.000941083 -0.00286668 -4.57036e-18)
(0.00105632 0.00184922 1.04208e-17)
(0.00019344 -0.00135325 -1.03845e-17)
(0.000629966 -0.00112383 -8.37444e-19)
(0.00311079 -0.00219276 2.49564e-17)
(0.000354348 -0.00192589 5.04043e-19)
(0.00113703 0.00272408 -9.97468e-18)
(0.00239248 0.00167 3.16998e-18)
(0.00252761 0.00160556 5.98581e-18)
(0.00231323 -0.00398082 -1.19922e-17)
(0.00334227 -0.0114147 -2.26595e-17)
(0.0067783 0.00162211 -8.69973e-18)
(-0.000342922 0.00461259 3.512e-18)
(0.00947508 -0.018761 9.0813e-17)
(0.000713511 0.00273644 -1.60821e-18)
(-0.0115665 0.00146871 -2.35471e-18)
(0.0014854 -0.00225404 3.85675e-19)
(0.000708394 0.0033923 1.48809e-17)
(0.00273854 0.00346428 -2.67024e-20)
(0.000484763 -0.000132902 -2.54075e-19)
(0.00174355 0.00116728 2.2804e-18)
(0.00627093 0.00168705 -2.01651e-17)
(0.00141582 -0.000976317 -1.38164e-19)
(-3.35802e-05 -0.000377031 2.22298e-18)
(-4.1525e-05 -0.000348158 2.18453e-18)
(0.000691136 0.00221032 -1.24865e-17)
(-0.00734764 0.00150257 3.12075e-18)
(0.00138498 0.00103101 -8.18352e-18)
(-0.0247254 0.00781625 9.5311e-18)
(-3.27726e-05 -0.000136102 1.13091e-19)
(-8.71883e-05 0.00313487 -7.37453e-18)
(0.00132287 -0.00408479 3.72806e-18)
(-0.0181639 -0.00192845 -1.48518e-17)
(0.00413978 0.00101823 -3.96228e-19)
(0.00182718 -9.99748e-05 4.43415e-19)
(0.00130698 0.0003066 -2.07404e-18)
(-0.0172097 -0.00255403 2.72935e-17)
(0.00409681 -0.00286705 1.65469e-17)
(0.00144039 -0.00217175 -2.53427e-18)
(0.00123564 0.00367561 -1.44131e-17)
(0.000795154 -0.000261739 1.36752e-18)
(-0.000293864 -0.00846659 9.73809e-18)
(0.000809656 0.00220528 1.29815e-17)
(0.00143661 0.00340059 -5.08402e-18)
(0.00261415 0.000193251 2.19309e-17)
(0.00676173 -0.00690216 5.78132e-17)
(8.10038e-05 -0.000787969 9.5364e-19)
(-1.82506e-05 -4.50873e-05 2.01778e-18)
(0.000209435 -0.00158067 1.56425e-18)
(3.31287e-05 -0.000757402 3.4588e-18)
(-0.00740367 0.00262471 -1.99418e-19)
(-0.000298315 -1.35513e-05 -1.62948e-18)
(0.000462169 0.00311049 -1.49885e-17)
(-0.0111112 0.00332982 8.27007e-18)
(0.00425204 0.00103256 2.08778e-18)
(-0.00860194 0.00224055 -6.80644e-18)
(-0.0233849 0.000847431 8.71768e-18)
(0.00144847 0.00344177 2.34131e-18)
(0.00380725 -0.00132804 -7.72739e-17)
(0.000293763 -0.00213466 -1.93323e-18)
(-3.33576e-05 -0.000229701 -1.97808e-18)
(0.000146407 -0.000900035 1.84548e-17)
(0.000211563 -7.80882e-06 7.87848e-20)
(0.00047397 2.37514e-05 5.17656e-19)
(-0.000193482 -1.03847e-05 -1.15342e-18)
(0.00340783 0.00132904 5.57675e-19)
(0.00410521 0.00125078 -1.88327e-17)
(0.000951428 -0.00294224 7.36334e-18)
(0.00357187 0.00789509 -8.77157e-18)
(0.00083978 -0.00092176 9.19554e-20)
(-0.0107832 0.00270019 3.2514e-18)
(1.17731e-05 -1.18597e-05 1.20134e-17)
(-0.00295934 -0.00654652 -3.64096e-17)
(0.00267982 -0.000691883 -1.25664e-17)
(-2.51848e-05 -2.54788e-05 -1.2118e-17)
(-7.07534e-06 -0.000351265 3.77163e-18)
(-0.00900229 0.00343033 -2.5891e-18)
(0.00166419 6.9278e-05 -8.66046e-18)
(0.000791208 0.00382217 7.75883e-18)
(-0.020779 -0.0192026 -4.09551e-18)
(0.00184249 0.00168966 -1.33978e-17)
(0.00303493 0.00222828 2.06826e-18)
(0.000536104 0.000203822 1.26341e-18)
(-0.0132154 0.00217851 -4.83693e-18)
(0.00061863 -0.00149936 -9.38865e-18)
(0.00128444 0.000357903 8.30848e-18)
(0.00106079 0.00317149 -1.1437e-17)
(-3.66108e-05 -0.000225759 -7.44143e-18)
(0.00032457 -0.00125197 -8.84881e-18)
(0.000578203 7.17827e-05 7.33145e-19)
(0.001482 0.00168488 9.7564e-18)
(-0.00798634 0.00150686 -5.17074e-18)
(0.002047 -0.000227381 -1.87452e-17)
(0.00201524 0.000331169 2.87417e-17)
(0.00438597 -0.0051942 2.40689e-17)
(-0.00891028 0.00515157 -2.61582e-17)
(0.000443988 -0.00218582 -8.62884e-18)
(0.000826767 -0.00170601 -8.37805e-19)
(-0.00667034 0.00289329 3.08821e-18)
(0.00022917 -7.00601e-06 1.86362e-19)
(-0.00673058 0.00287341 -1.04618e-17)
(-0.000124023 -2.38576e-05 1.47515e-18)
(0.00118378 0.000322952 -2.90728e-18)
(-0.00115391 0.00983401 -2.68758e-17)
(0.00145146 0.00250977 -1.37048e-18)
(0.00165238 0.00312269 -1.80397e-18)
(0.00469987 -0.000634383 -3.28741e-18)
(0.00309216 0.00111436 9.36796e-18)
(2.63185e-05 -0.000125473 -1.17215e-18)
(1.61018e-05 -1.08732e-05 -2.96065e-18)
(0.00361053 0.00123325 1.36137e-17)
(0.000796766 -0.000315654 -1.53507e-18)