/*--------------------------------*- C++ -*----------------------------------*\
| =========                 |                                                 |
| \\      /  F ield         | OpenFOAM: The Open Source CFD Toolbox           |
|  \\    /   O peration     | Version:  v2012                                 |
|   \\  /    A nd           | Website:  www.openfoam.com                      |
|    \\/     M anipulation  |                                                 |
\*---------------------------------------------------------------------------*/
FoamFile
{
    version     2.0;
    format      ascii;
    class       volScalarField;
    location    "650";
    object      ddt0(omega);
}
// * * * * * * * * * * * * * * * * * * * * * * * * * * * * * * * * * * * * * //

dimensions      [0 0 -2 0 0 0 0];


internalField   nonuniform List<scalar> 
13917
(
-0.0273442
-0.000732547
0.00876481
7.02069e-05
-0.000294404
-0.000702991
0.000472106
-0.002289
0.000411768
3.24576e-05
-0.00290937
2.77489e-05
-2.14318e-06
-0.183809
0.000142966
-0.0514499
0.000236056
-0.00124642
0.00543545
-0.102225
0.000381753
-3.30599e-05
0.0019721
-3.41335e-05
0.000138334
0.000318779
-0.0819004
0.0610947
-0.00016938
-3.49986e-06
0.610642
0.00328127
6.87006e-05
0.00495923
-8.89498e-05
-0.0072108
0.000128976
-0.000425336
0.000476311
0.000803884
6.60694e-05
-6.40674e-05
0.000254407
0.00497116
0.0050958
0.00615507
0.000365253
0.252179
-0.0514269
-9.14691e-05
2.58023e-05
0.00433171
0.183621
1.14405e-05
1.89408e-05
0.0042818
-7.42209
0.0019712
-2.09337e-05
0.00620985
0.0569854
0.000265666
8.96663e-06
0.000127516
0.02422
0.0199883
-0.000361724
-0.0136228
-0.00286267
-0.00871158
0.0539885
0.00218276
2.49904e-05
-3.02635e-05
0.000408511
0.000152592
-7.99479e-05
2.50906e-06
0.000142734
7.39078e-05
1.7396e-05
0.000194012
2.34569e-05
0.0493148
-6.4296e-06
-0.00454406
0.00309795
-1.54028e-05
0.000743875
0.000197888
2.9794e-05
0.00027393
-0.0128224
-5.97469e-05
3.7495e-05
-0.000315528
0.0126779
-8.24035e-06
-1.23257e-05
0.000721792
-5.83782e-05
-4.83447e-05
2.39854e-05
-2.5403e-05
-9.86225e-05
-0.0505311
0.014347
-0.00193494
-3.27717e-05
-0.1989
1.99402e-06
0.00310745
-8.55486e-05
0.805024
0.0327082
0.000171561
0.00497613
9.69422e-05
0.00905675
1.7142e-05
0.000134779
-3.46353e-05
-0.000698209
0.00359623
0.0206338
0.0569273
0.00011711
0.00045374
-5.33582e-05
0.00368468
0.00110048
0.00154111
-0.114392
0.000167312
0.00371301
-0.292844
0.335804
-0.00211311
0.00027915
-0.00042699
0.00722267
-2.00471e-05
-0.0477239
-2.10855e-05
1.95606e-05
0.00041549
0.0524183
-0.0089002
0.253029
1.61275e-05
0.000636273
-5.55237e-05
1.78339e-05
1.71802e-05
-0.080258
-8.12067e-05
-2.02983e-05
-0.0737296
0.00015049
0.000127587
-9.84343e-06
-0.103885
0.000150395
0.0140323
0.00194708
0.00239444
0.309733
-0.162292
-2.17055e-05
0.000282887
-3.79455e-05
-0.0713185
0.000408681
0.00478171
0.00247564
1.3455e-05
7.03653e-05
0.00471906
0.00102707
0.000152985
0.000239603
-3.99577e-05
2.55567e-05
0.00339648
0.00965808
0.00183153
2.35095e-05
0.00336211
-3.13965e-05
-0.000473683
0.0024582
0.0047287
0.00382544
-0.0366661
-5.93505e-05
0.0164383
0.000314998
-0.121811
-8.25525e-05
-6.99198e-05
0.000321583
-0.0257558
0.00831729
9.94232e-05
-0.0549685
-1.39501e-06
0.000694232
-2.51838e-05
0.00473443
1.64949e-05
-2.43429e-05
-0.000842339
-0.00247201
0.185735
0.00360882
0.000341233
-0.0828948
-0.000117752
9.59923e-06
9.85075e-06
0.116165
0.00339389
0.0068781
-1.18935e-06
1.20612e-05
-0.217552
0.0249493
1.20909e-06
-2.91253e-07
7.69699e-05
1.53713e-05
1.59755e-05
-0.0066684
-0.0365657
-1.21256e-05
-2.65565e-05
0.00295058
0.00963399
0.000234592
-1.5168e-06
-0.0672746
-0.0349675
0.00394814
-0.0661523
0.00294224
-2.06674e-05
-0.327917
0.00309598
3.11323e-05
0.00353601
9.45977e-05
-0.137352
1.84359e-05
0.001264
0.00234434
-1.50065e-05
4.21797e-05
0.000126812
-0.000469304
-7.70642e-05
0.0401718
0.0653625
-6.13404e-05
-3.40667e-06
-8.25936e-05
-3.14112e-06
1.87131e-05
-1.13229e-06
0.0012295
-7.26954e-05
0.00284556
0.01804
9.27682e-06
-0.000243256
0.0031647
2.87156e-05
0.00119568
0.04885
2.81824e-05
-0.0069377
-7.27211e-05
-0.097837
-5.26217e-06
0.000142532
-1.2735e-05
-2.49059e-05
0.00513486
-0.000170667
-0.00956297
0.000445503
0.0517568
0.000611534
0.00907588
-0.0136481
0.000135889
0.00218963
-0.000530921
0.000179795
-0.000346996
0.000142185
-6.32508e-05
-0.000115854
0.0044817
0.0353815
0.0011577
0.000132543
-1.8903e-06
-0.0991111
0.00948344
-5.02629e-05
-2.91294e-09
0.00018286
-0.0271708
0.00463119
0.00678499
0.00679917
0.0348214
0.0025793
-0.000247221
0.0365249
-0.0271851
0.00783543
1.01169e-05
0.000156506
-0.0682308
-5.43234e-05
-0.00118588
0.00479639
0.000253385
-0.0563083
-7.26303e-06
0.00196259
5.33682e-05
-0.18823
-7.9791e-06
0.00106619
5.79682e-05
0.0306417
0.00020547
0.00357635
-0.0726648
3.47601e-05
-5.51111e-05
0.00538363
-0.0359435
-0.122089
-0.304795
2.45568e-05
-4.12135e-06
0.000793186
0.00246042
2.3336e-05
-0.000471172
2.07292e-05
0.000669086
0.00113139
0.00383527
0.00241147
0.00120299
0.00188394
-0.00936035
-5.52932e-05
3.58412e-05
-0.00048169
0.0077928
0.0002645
-0.0490367
0.00189214
0.067503
2.03115e-05
0.0022704
2.58058e-06
0.0462085
8.02272e-05
0.0060589
0.000617746
-2.6403e-05
1.07469e-05
0.00728211
5.70238e-05
-0.00479875
0.00332351
0.000100203
-0.0221146
-1.28655e-05
0.00168807
-2.17702e-05
-0.0884303
0.000559995
0.000116392
-0.151214
0.00103818
7.89097e-05
0.00108197
0.0151507
0.000101588
0.00458086
2.12847e-07
0.00112396
0.00955093
-7.15601e-06
0.000450361
0.000133285
-2.22199e-05
-1.21003e-05
-5.61282e-05
0.292339
0.00105119
2.73704e-05
-6.49622e-05
-3.28033e-05
0.00202334
-0.00419769
4.2652e-05
-1.84917e-05
0.00455647
0.00234309
-2.46887e-05
0.000112615
-0.041095
-0.306277
0.0304155
0.00583328
0.0133862
9.06957e-05
3.84565e-05
0.00026448
-1.16372e-05
4.342e-05
-1.11289e-05
3.91596e-05
8.22911e-05
-0.373598
2.64563e-06
0.000961503
0.00692665
0.00213266
-2.57516e-05
1.64071e-05
-0.00611679
0.000319826
0.0263808
5.10864e-05
9.2352e-08
6.3364e-05
2.4909e-05
0.000119032
-1.86265e-05
-0.106047
0.000873443
-0.0536503
-9.13361e-08
0.00130111
0.000813965
8.46309e-06
0.00311858
-0.100918
1.84268e-05
0.0105036
-2.7628e-05
-2.54065e-05
-3.30411e-05
-1.05499e-05
-2.02279e-05
-3.70393e-05
-0.081284
-0.00358403
-1.85636e-05
0.00897234
0.00461118
3.2866e-06
0.00235455
0.00400596
0.013505
0.000528778
-0.0541329
0.00215029
0.000279014
-1.4035e-05
0.0264035
0.000673822
8.41216e-05
0.0126601
4.68172e-05
1.09562e-05
3.79282e-05
0.000430062
0.000445454
0.00900268
0.00246155
-0.000171457
-0.000229933
-0.000798192
0.00141876
2.6197e-05
-0.00456989
0.00124896
0.00044785
-0.00129382
-6.67004e-06
0.00157744
0.00551474
-8.34625e-06
-0.0282566
-3.07609e-05
2.57721e-05
0.00210998
5.18682e-05
-8.5299e-05
0.00403551
-0.0263316
-0.0108501
-9.44823e-06
9.12786e-05
-0.000293356
0.0184969
-0.00867459
2.05174e-05
1.6889e-05
-9.25536e-06
0.00220228
-0.010205
-6.35224e-05
0.000256198
-6.96322e-05
-2.05971e-05
-0.000829347
0.000541713
9.60311e-05
0.00249376
-8.07725e-06
-2.88536e-05
0.000124831
0.000309495
-1.217e-05
0.00020936
-7.07391e-05
0.00118926
0.0028098
0.000179534
0.0024543
0.000922041
0.000105695
-0.000894785
-0.199577
-0.154814
0.0100151
-4.57429e-05
-3.58695e-05
0.000653917
5.11884e-06
0.00697574
3.45341e-05
-0.0238576
0.000317255
-0.32144
0.00128456
0.000253536
0.538493
-1.84474e-05
0.0032177
-2.4031e-05
-0.000109014
-0.427858
4.66296e-05
0.00150258
-1.87233e-05
9.49767e-06
-3.55914e-05
0.00837906
-0.00126064
-9.74095e-06
0.00480498
0.00229258
-0.00243163
0.0506453
-0.0557749
0.0125137
-1.20366e-05
0.0201877
-6.66429e-06
0.145635
-0.015015
-0.000109327
-1.33382e-05
-6.24055e-05
0.00117217
0.000213363
4.77327e-05
-3.89586e-05
-2.8844e-05
0.0365901
-8.09669e-06
0.00292787
8.67661e-06
-8.97928e-06
0.000170886
0.00859433
-0.263828
0.510467
0.00325971
0.000539345
-0.00130463
0.0179489
-2.55846e-05
-0.0951753
-2.24442e-05
0.00565162
4.67943e-06
0.00961898
-2.06979e-05
-0.000143274
2.15409e-05
0.00760328
0.00128465
-0.0640515
6.62872e-05
0.00110072
-9.51667e-05
-7.09334e-05
-0.00602233
0.0023007
-0.000120552
0.00397273
-1.58306e-06
-0.000161328
-4.92454e-05
-0.00259555
-7.89857e-06
-0.000514039
3.4128e-05
-0.000106244
0.00733737
-4.50921e-05
0.00382344
0.000147991
-8.11832e-06
0.248474
0.0030062
1.64632e-05
0.16365
0.000518343
0.00547773
0.00568151
-1.70066e-05
0.000139875
0.00110867
0.00586623
0.000280818
0.000131225
0.00163526
9.21866e-05
-4.83137e-05
0.0280784
0.00295506
0.000242293
-0.162948
0.00132081
0.0941096
-0.0312174
0.0334908
0.00101152
0.00352873
-0.000147793
-6.31939e-05
-0.0027944
0.000569161
-8.54872e-06
4.74018e-05
0.00015202
-0.000432035
-2.73159e-05
0.0180443
0.00137156
-1.80858e-05
0.00442073
5.61984e-05
0.00381127
-7.30013e-05
-5.4271e-05
-0.0382031
0.00270374
0.0476526
3.11256e-05
-5.02931e-06
-5.89454e-05
6.23336e-05
0.000620039
-2.77584e-05
0.0231033
0.000548089
-0.0112212
0.0283751
-0.00264031
-0.016153
9.12618e-05
-5.34387e-05
-0.000104064
0.047828
-0.108205
0.000336563
0.0286642
-0.0258781
-9.21721e-06
-5.25493e-05
0.000117493
-0.0763088
-0.00793405
0.00127252
5.87381e-05
0.000208233
0.0060031
-0.000131209
0.00377948
0.00137135
3.14256e-05
7.48869e-05
-6.09525e-05
0.000603108
-0.000211084
0.0139531
0.000189605
-0.000523181
0.0216008
0.000332603
-0.0351113
0.000123066
-0.000101092
0.000325624
0.00430454
0.000142693
0.00304173
-0.0981986
-0.00987677
6.6176e-06
0.000190938
-0.000180229
2.43554e-07
1.96332e-05
0.000727478
0.000878476
0.00650592
0.00381779
-1.52209e-05
0.0114465
0.00040352
0.000431544
0.00393273
-2.71722e-06
0.00324663
0.0126684
-1.39693e-05
0.00269841
0.00261831
0.00133504
-3.42514e-05
-2.18418e-05
-4.88547e-05
-0.0206286
6.47526e-05
-7.71088e-05
0.0019183
-2.78682e-05
-3.01497e-05
0.00408616
0.000537638
0.00185743
-0.194334
0.000626973
0.0408258
1.9428e-05
-8.84285e-05
-0.000414443
-0.000150437
0.0811142
0.000196856
4.00735e-05
2.89498e-05
0.000198923
0.000362082
-3.44349e-05
-0.000203105
-7.4172e-05
-0.0104534
0.000126498
0.000529659
5.46608e-05
0.00349554
0.000140968
-0.0818925
0.00205264
0.000299238
0.00539115
7.99101e-05
0.0376105
0.000195326
0.0205433
-0.000115692
-3.97295e-05
5.17524e-06
0.0190284
0.000581715
0.00196516
-0.211364
1.04199e-07
0.00135196
-2.92429e-05
-0.000180275
-0.0018352
-2.53468e-05
-0.18489
0.000220135
0.00914554
0.00482383
0.0115126
-9.70149e-06
8.52954e-06
0.00258587
-1.69112e-05
7.21795e-06
9.47733e-05
-3.81815e-05
0.00190681
-9.16629e-06
-0.00264993
2.91123e-05
-0.0367245
0.0374625
-0.14836
-0.0315808
-0.045011
0.00473679
-0.00959479
-6.01009e-06
-0.000196383
1.43644e-05
7.49509e-05
-9.65782e-06
0.000601592
-9.61668e-06
-0.00208299
1.08963e-05
0.0037151
5.90665e-05
0.000988424
0.00237545
-5.25953e-05
0.000919519
7.95785e-05
-6.52763e-05
0.000372028
5.8104e-05
0.127004
0.00309397
-0.000555977
-5.06372e-05
4.06967e-06
-4.62866e-05
-7.48454e-05
0.000413879
-7.42823e-06
0.00193133
-1.91526e-05
0.0284401
0.000134665
-1.71548e-05
0.00320324
0.00102712
-8.69984e-06
0.0780538
-0.0555163
0.000105744
0.00357011
-1.74702e-05
5.13331e-05
6.91972e-05
-7.19998e-05
-0.0169177
4.81521e-05
7.64959e-05
0.00438607
-0.0241075
4.88035e-05
0.0559946
0.00352637
4.43358e-05
-4.47957e-05
-3.8305e-05
-9.68126e-06
2.72739e-06
0.00499131
2.2822e-05
-0.0294704
0.00014216
-0.371864
-6.36237e-05
4.01317e-05
-0.000720053
-9.22131e-05
0.000262797
0.0389093
7.98477e-05
-1.35389e-05
0.0369839
5.28724e-05
-0.000209957
0.00293633
9.50976e-05
0.00919799
0.000883535
0.00387678
0.00466766
0.000201431
-0.00728153
4.1642e-05
0.0028026
1.6789e-06
0.0298594
0.00728115
3.69483e-05
5.63328e-05
-7.43717e-05
2.17927e-05
4.68616e-05
3.93296e-05
-7.84634e-05
4.58145e-06
0.000562428
-1.41407e-05
7.4916e-05
0.00340427
-0.00171141
-0.040258
0.00399829
-4.52635e-05
-6.41123e-05
-1.0009e-05
0.000776813
-0.00634585
0.48005
2.83963e-05
-7.10263e-06
-6.36436e-06
-3.73035e-06
2.67552e-05
6.21555e-05
-4.64128e-06
0.00110893
-1.34656e-05
-0.130152
0.0130965
-1.91868e-05
-0.06484
2.41926e-06
-5.55968e-05
-0.00178438
-0.00434771
0.0015015
9.09257e-05
0.030355
-7.49375e-05
-6.33695e-05
0.00675522
-0.000182598
-0.0841297
8.37001e-05
0.0552298
-2.59882e-05
-5.34164e-05
0.000350545
-0.0550686
0.000100502
0.0222276
0.000348247
-0.000133044
-4.63794e-05
4.12271e-06
-2.01023e-05
0.00420662
0.00129354
0.000232358
0.0521561
-0.0823475
-0.055714
0.00427094
-6.73596e-05
0.0399777
-3.70897e-05
0.00680747
0.00227965
0.000457352
8.74396e-05
-0.103834
0.0625467
0.0280927
9.08906e-05
-0.00826754
5.2752e-05
-8.72239e-06
0.00142159
2.74086e-05
2.12439e-05
-0.00246471
-0.0212252
-5.19318e-05
0.000606451
0.0163552
-1.81878e-05
1.9333e-05
-0.025648
-0.0130058
6.87037e-05
-7.86061e-06
0.000423035
1.52133e-05
-6.24307e-05
0.000722408
0.000127553
1.27954e-05
-0.0585811
7.98571e-05
0.00161739
-0.00624046
-0.000237455
0.0405357
3.42729e-05
5.43271e-05
0.000163421
-0.023055
0.00134312
-9.80742e-07
0.000306432
4.97531e-05
8.57913e-05
3.23127e-05
-0.0467848
-0.00107582
-6.75044e-05
0.00240466
-2.15819e-05
-0.00543849
0.0033352
0.0042491
0.00300705
0.00369811
-0.0069653
-0.214734
0.0432337
-0.000444475
0.00372782
2.14084e-05
0.0021141
0.0029662
-0.0109067
0.000259346
-9.70037e-05
0.000292203
0.0164863
7.85266e-05
0.00846893
0.00101071
0.00271842
0.000771855
4.12719e-05
0.00524915
0.000111128
-2.27487e-06
-0.00101061
0.0012811
4.48428e-05
-1.2249e-05
9.02732e-05
0.0145987
-1.44626e-05
7.95127e-05
0.000213631
4.25476e-05
1.0225e-05
0.00244018
0.00363794
-6.39808e-05
-4.81082e-05
-0.000154611
5.91425e-05
-0.000273154
-0.0332788
3.56671e-05
2.53254e-06
-0.0342606
-7.44587e-05
8.76489e-05
0.0437816
0.0383455
0.000202123
0.00204327
0.00017025
0.0336247
0.00162933
0.000414477
0.0439014
-6.06929e-05
0.00308593
0.0161255
0.00873198
-0.0634734
0.0933664
8.23604e-05
-2.98172e-05
-5.37508e-05
1.17285e-05
-2.95178e-05
0.012732
4.79533e-05
0.00170461
-9.40256e-06
0.00283779
0.00298109
9.47484e-05
0.024359
-0.0628143
3.09106e-06
0.00396156
0.000129043
8.11876e-05
6.19519e-07
0.0280812
0.0031901
-0.0180204
0.00032379
0.0263015
0.00256092
2.58434e-05
-0.219663
0.00105895
4.42025e-06
-1.74744e-05
0.00173248
9.63376e-07
0.000200411
0.000368651
0.000121453
5.23576e-05
0.00251626
-0.202555
-9.73929e-06
0.00153197
0.0544157
6.50809e-06
-1.10511e-05
0.000440218
-0.010509
-0.00177717
-3.38206e-05
0.00089459
6.28758e-05
0.00743978
-0.0182336
1.82656e-05
-1.10941e-05
8.2414e-05
4.12532e-06
-0.000272009
0.000109563
0.0191573
-7.28156e-05
0.000253348
0.00213632
0.000130531
0.00394185
-0.0241791
-0.0523308
3.35762e-05
-4.15599e-05
-9.69718e-06
6.67659e-05
0.00363426
0.386741
0.000188339
0.00234855
0.000282195
0.00226345
0.000203027
-0.000400753
0.000181864
0.00484614
-6.06255e-05
-0.000723437
-0.000195831
-2.60802e-05
2.85947e-05
0.012637
0.00191425
0.00155866
-0.00732259
0.00343433
-5.83947e-05
-0.00674417
-0.000205995
-4.65083e-06
-0.242521
0.00400985
-6.08325e-05
0.000179307
0.00456351
0.000541435
6.79207e-05
-8.76401e-06
-1.07734e-05
-2.4322e-05
3.22639e-07
0.000592439
0.00135358
0.0227195
0.000595206
0.000340412
0.000955002
0.00247831
-4.55323e-05
0.000436206
0.00753322
0.0091766
0.0204622
5.81995e-05
-7.23264e-06
0.0260418
-1.47279e-05
0.000766541
0.000114543
0.000942391
3.00672e-05
-1.69483e-05
0.00552104
0.000350764
4.78543e-05
3.31348e-06
-0.0648462
0.0189212
0.0236128
-6.68732e-05
-2.50197e-05
0.0194963
0.000122995
9.06522e-05
0.00227916
-0.0128844
0.000299653
0.000989927
6.3277e-05
-0.0268512
-3.12862e-06
3.83106e-05
5.28656e-05
-7.57077e-06
0.0105573
-3.31021e-06
-2.29184e-05
-0.000143662
0.00276641
-0.14461
0.00305412
-5.23062e-06
0.000742779
-3.06565e-05
-5.56532e-05
-6.12572e-05
-1.39215e-05
1.64756e-05
0.0091145
1.7614e-05
0.00281114
-0.000890165
0.000588858
1.6652e-05
-0.000155153
-5.36721e-05
0.0123526
4.19433e-05
0.0746552
0.0032805
-2.14315e-05
0.00237367
0.000994114
0.000784331
6.07616e-06
-0.000691956
-2.05391e-05
-2.55965e-05
-0.00744163
-0.000234027
-1.46822e-05
-1.60019e-05
-8.19766e-05
0.000101145
-0.00186632
-2.01866e-05
-0.0553178
0.00178856
-6.95456e-05
-2.26031e-06
-1.78341e-05
0.00173084
0.000963052
0.0173487
0.0751938
0.00315919
0.000408923
0.00286586
6.93837e-05
-0.516875
-9.35577e-06
4.1058e-05
0.000219508
-0.00274895
-1.88953e-05
0.00745334
-5.45102e-06
-2.71205e-05
0.00239524
0.00396626
0.0543119
0.000113906
0.000308678
0.00340064
0.00102471
4.83044e-05
-0.288594
2.48012e-06
-1.41371e-06
-0.0389466
-1.43284e-05
-0.000727052
-0.000598208
-1.84721e-05
5.60369e-06
4.1331e-05
-0.0342197
0.000110637
-7.49842e-06
0.00342363
-5.14887e-06
-2.96219e-05
4.23922e-05
6.91953e-05
0.00205604
2.47387e-05
-0.000147323
-3.41242e-06
0.0136592
-0.187495
-4.62508e-06
-5.55021e-06
6.41921e-05
-2.69595e-06
0.000219717
-6.1779e-05
-7.42345e-05
2.67899e-05
-1.26283e-05
5.92082e-05
9.83871e-06
-0.000338125
-1.78498e-05
0.0034849
-3.2841e-05
-0.000832583
-3.10447e-05
1.55389e-05
-2.5236e-05
4.45126e-05
0.000635728
0.000135628
0.000349186
-0.10392
3.82208e-05
-0.0498459
-0.0217907
0.00364144
0.00320434
-2.53355e-05
8.18847e-06
0.0105092
-0.0312311
0.000111132
0.0283365
-2.20194e-05
0.00464902
-0.0137965
0.000201607
0.00340194
-0.00999701
-0.0316623
1.56954e-05
0.00216277
-2.05071e-05
0.0762702
0.000243248
0.0385468
-0.100281
2.30863e-05
-0.13759
-0.00427105
0.000269077
0.0208876
-0.0016982
0.000102376
-1.11895e-05
-0.00343644
0.0470533
4.85691e-05
0.000991499
4.36966e-06
-0.00131783
0.00396254
6.63757e-06
-3.2937e-05
0.0138479
-5.22058e-05
3.05416e-06
5.98875e-05
-1.36599e-05
0.0153115
0.000207272
0.000579032
0.042774
5.02872e-07
0.000540268
2.36296e-05
0.00874428
0.00197213
0.0833782
-2.83284e-05
0.000523279
3.37046e-05
-3.09176e-05
0.000227269
4.64173e-06
0.0189096
7.46067e-05
-1.76596e-05
-9.07163e-06
-0.00291869
-1.12487e-05
-0.0171188
-0.0467815
-0.0102241
-5.08826e-05
-3.91648e-05
-3.24488e-06
0.0479486
1.58517e-05
0.0179369
1.16333e-05
0.007684
8.76832e-05
-7.39438e-05
0.00920599
2.95386e-06
0.000185239
0.0476144
0.00473576
-0.00123409
-7.29552e-05
-0.0924539
-0.314409
-8.10768e-06
0.0332433
-2.59443e-06
0.000109157
-0.253673
6.56743e-05
-0.000127034
-0.0216277
0.00014658
0.00302666
1.47357e-05
0.00129456
3.16945e-06
-0.019721
-3.17044e-06
-0.0138217
3.7449e-06
1.09602e-06
-0.000112049
-0.0086263
-4.21598e-05
5.3185e-05
0.00149362
0.0840544
-3.62319e-06
0.000284729
-0.189759
-0.00698363
0.0104531
0.00286416
-2.99831e-05
0.00370067
0.00249112
9.66347e-05
-0.00468303
4.05473e-05
0.00409794
-0.0331335
-4.87685e-05
-0.0119536
-2.00752e-06
0.0437523
0.00925335
0.000142392
-6.14336e-05
-0.00664408
-0.00445584
2.23501e-06
0.000107015
-1.60031e-05
-9.38319e-07
-0.024203
0.00225377
0.000197301
-6.83838e-05
0.000390646
0.00378038
0.00034307
0.0507131
0.00324155
-6.61628e-06
1.01245e-06
0.00183435
-0.0724487
-0.0532372
0.124415
0.0130927
0.000649076
0.00516596
-0.226649
0.0169419
-0.0134547
-1.13902e-05
0.00311642
0.00164758
0.00232136
5.89856e-06
0.000443276
0.00201612
-0.00023931
-0.0204559
-5.18253e-06
0.00140241
0.0491246
0.000192008
1.6864e-06
2.05656e-06
0.0148933
-4.52868e-05
-0.0831104
0.000416689
0.000160756
0.00346016
0.000794179
-4.16442e-06
0.00105364
0.000706722
8.008e-06
0.272163
-0.000763864
0.0837155
-5.19377e-05
0.0208057
0.0165995
0.00264985
4.43257e-05
0.000262703
0.000156992
-0.0016542
0.00292174
0.00318724
-0.00692743
-0.00397371
-3.62754e-05
0.000262854
-3.52949e-05
0.00395209
0.023842
3.19577e-06
-2.37294e-06
8.69567e-05
-0.00235966
-0.00161274
-5.43275e-05
0.00130001
0.00243573
-1.27443e-05
0.000891775
0.000107111
0.0189245
0.00017573
0.158298
0.0269946
0.00056027
0.000109314
-0.00228718
-1.18007e-05
7.2342e-05
0.00848734
-8.42413e-05
0.000927541
0.00100936
0.00271311
-0.154494
-0.210947
1.34307e-05
-0.0456682
-0.00458927
-1.4228e-05
0.00461782
0.00270717
0.00247891
0.0128576
0.000519595
-0.0119688
0.00377357
0.0226245
0.000302976
0.00339483
-3.93534e-06
2.81347e-05
1.05474e-05
-1.87136e-05
0.00629927
-0.00102367
4.27941e-05
-0.000790503
0.00305126
-1.20706e-05
-0.0558022
-0.0685642
-7.23037e-05
1.35155e-05
3.29636e-06
4.57409e-05
0.00202421
2.96731e-06
-0.114456
0.000692908
0.00273294
0.000120278
0.00220262
0.00406186
-8.436e-05
0.0161245
7.23185e-06
5.23433e-05
4.17519e-05
-4.6803e-05
-0.291323
0.00499288
0.000256136
0.0329448
-6.89864e-05
6.93509e-06
0.000134977
-2.40406e-05
-7.5108e-05
0.00166412
0.000286882
-0.00982518
-0.118911
0.0292549
1.46124e-05
0.350048
-3.40493e-06
-0.00368416
-3.05157e-06
0.00688324
-0.123897
-3.30661e-05
-0.0120288
0.0225153
0.000313063
-4.68117e-05
0.000111426
0.000297256
-0.120142
-1.21766e-05
3.21978e-05
-0.000137167
-0.00043571
0.00255743
-1.28247e-05
0.000290733
-7.55052e-06
-0.000103818
0.00105576
0.000917643
3.03577e-05
0.00397571
0.0103346
0.0415843
-0.0280077
-0.000114104
2.80421e-05
0.00496453
6.33022e-06
0.00291731
1.84884e-05
0.0333731
-0.000184591
-6.16376e-05
-0.000785484
-0.0781093
6.02348e-07
-2.76292e-05
-9.86182e-06
0.00839202
-0.067658
0.00367238
1.93444e-06
6.95091e-05
-1.4485e-05
0.030526
1.63955e-05
0.0259757
0.00268588
-6.64653e-05
0.00923843
-0.000100928
-0.00131694
5.6608e-05
8.61805e-05
0.000525519
-7.12472e-07
0.00230158
2.67338e-05
1.89538e-05
-0.000177831
-0.00701649
-4.25052e-05
-5.29927e-07
-0.317356
8.71864e-05
-0.00119502
0.000245035
-5.19403e-05
-6.52811e-05
-0.0084604
0.000186122
0.0230881
-0.00547281
3.58712e-05
-0.0662929
3.10889e-05
0.00378236
0.00145887
-6.46219e-06
4.71984e-05
3.65942e-05
2.75694e-06
0.0773546
0.00221343
0.00794849
0.00980808
-2.19556e-05
0.000921244
0.00065771
0.00286527
3.95961e-06
0.0607289
-0.397913
0.0281161
-2.33386e-05
0.000116857
4.93864e-05
-0.00496623
-0.279912
0.000140518
6.16576e-07
0.00076202
0.0691771
2.28605e-05
0.000125171
5.4187e-05
0.0049505
0.00552106
-8.09052e-06
-0.0102862
0.00021281
1.18658e-06
-0.0673295
0.00263826
-0.203088
0.0431069
0.000373731
0.000115652
5.39577e-06
0.00016814
2.37421e-05
-0.00136708
0.000695543
-7.33149e-05
0.000238275
0.00501103
-0.136877
-1.09306e-05
0.00282579
0.232658
-0.144454
-8.24964e-05
1.47379e-05
0.000183076
0.0182236
-0.0169155
-3.16717e-05
0.380984
0.00335225
3.75132e-05
0.0308263
0.00030361
-7.85098e-06
0.00401019
-4.02891e-05
-0.00233318
-3.61256e-05
3.56403e-05
-5.12328e-05
-9.96282e-06
0.0188467
4.24433e-05
-1.21205e-05
0.00321299
0.000332222
0.000100762
0.0065687
3.58897e-06
2.16601e-06
8.7996e-05
6.05123e-05
-0.000262311
-0.00153671
0.0151258
-0.0208048
0.00030322
-0.0422479
-0.0017362
-0.0643926
-0.050236
-0.195805
-2.33007e-05
0.000144719
4.84829e-06
-8.8493e-06
-5.15362e-05
-0.000147819
0.00783187
0.00288421
0.000397189
-1.29964e-05
9.55892e-07
0.00276659
3.06018e-05
1.3742e-05
7.0139e-07
0.00757548
0.000545987
-0.0336693
1.38897e-05
-0.00578786
2.36856e-05
-6.4504e-05
-1.90526e-05
0.00192374
-1.97179e-05
0.00326188
-0.0011792
0.000691426
0.0354785
-0.0107019
-0.000320035
0.000391294
0.000483765
0.00347649
4.90378e-05
-4.87844e-05
3.7128e-05
0.00507789
3.67504e-05
-0.0189411
-0.0433221
0.00302208
-0.393477
-0.1844
0.00302239
0.321671
6.70557e-05
-8.46116e-06
0.000427631
-0.0161485
4.59966e-06
1.4777e-05
0.08016
-1.12335e-05
0.00560931
-3.41714e-05
1.78141e-05
0.000180121
1.12968e-05
0.00282577
-0.00305055
-0.00483617
0.000258842
-3.86188e-05
0.00171172
8.35801e-05
0.00238213
-1.73568e-05
0.00555515
0.00416181
1.43532e-05
-9.67644e-06
3.53032e-05
0.00229916
0.000636418
0.0031334
0.0166535
0.000477624
0.0416688
0.00343304
0.00478228
0.0123277
-2.5826e-06
0.00467475
6.88637e-05
0.000730588
0.00841548
0.0133474
-0.165158
0.000226179
0.00192455
0.000623718
-4.74087e-05
-0.0207752
1.84799e-06
1.10627e-05
0.000399978
5.76102e-05
0.000835691
0.00968367
0.0162974
-0.152983
0.000309425
0.000595229
6.72445e-05
-7.63235e-05
2.12636e-05
0.00326086
0.00403051
-0.0033063
0.00128995
4.40752e-05
-1.51404e-05
-2.19749e-05
0.0128266
0.000104863
-3.22155e-05
0.000216976
0.00127995
0.000914046
7.00113e-05
0.000658166
-0.0100839
0.000442571
0.000997979
4.08508e-06
0.000409985
-0.0117167
-0.0498124
0.000569529
-2.36037e-05
-0.065811
0.000831358
-3.10727e-05
0.00190432
-0.00730575
0.160313
0.000372382
-1.14876e-05
0.0138305
1.81638e-05
-1.28366e-05
4.57863e-05
-0.0413153
0.00387079
-0.000303427
0.0237502
0.0111834
-0.000129096
-0.000261491
0.00210697
0.0789945
0.000503833
-0.267935
1.62084e-05
-0.0106073
0.000595431
0.199668
0.000941693
-4.12819e-05
0.0286297
-5.03783e-06
5.41003e-05
-0.0109929
0.00595211
-0.00563248
-0.00159142
0.000272836
9.74364e-05
0.0217149
-2.85591e-05
-5.08653e-06
1.29011e-05
0.0016655
3.17629e-06
1.50022e-05
-0.000106471
0.0293773
-0.0130223
6.50359e-05
-0.0117634
-7.52594e-05
0.0228485
0.0450428
1.22997e-05
2.72023e-05
0.000353623
-0.00743335
0.00644474
0.00266332
-0.00189313
0.00809357
-0.0023402
-0.000151372
0.0141331
0.00236874
0.000568455
0.0125102
2.30713e-06
-4.13452e-05
1.25718e-05
3.81101e-05
-5.66068e-06
0.00104338
0.00400535
9.42285e-05
-0.00293842
-0.261621
0.00883657
0.0192936
0.0380404
0.000221818
-0.254782
0.00362226
0.00341822
-1.95352e-06
-4.5454e-05
0.00316668
0.0310864
-7.83732e-05
-0.336606
0.0316568
-2.79279e-05
1.77517e-05
-8.68549e-05
0.00195884
2.19213e-05
0.00288699
0.00276346
-9.79449e-06
-8.86847e-07
-2.44501e-05
6.4318e-05
0.00437779
0.000299086
0.000292706
-0.0680898
0.00310409
-8.81275e-06
-0.0317692
0.00228401
0.000250992
0.00854434
-0.000693998
-0.0478037
0.0145241
0.0284312
-4.19873e-05
-0.00563614
0.0147592
0.00358328
0.00658845
-4.87538e-05
8.78184e-05
0.000141013
0.000173257
0.0481015
0.00258561
2.54876e-05
0.000361993
0.00791434
0.0329799
-0.000130574
-0.000188604
-0.0610583
0.0408156
2.56572e-05
0.000296091
0.00363891
-6.77222e-07
8.31318e-07
-0.150599
-1.27903e-05
0.0112261
-0.00414072
0.0280305
-1.88529e-05
0.00152389
0.00594211
-3.1109e-05
3.96321e-05
-0.044952
-0.0411797
-7.71174e-05
-4.87721e-05
0.00469845
0.00616583
-0.0985057
0.019799
0.000250063
-0.130399
0.00302405
0.000836192
-7.44977e-06
-0.0019889
-1.13653e-05
4.05216e-05
-0.00832545
0.000575107
0.00335537
0.000238933
-1.5461e-05
-4.5308e-05
-1.22226e-05
6.13031e-05
7.70235e-05
-0.0336003
0.000222471
0.0134297
0.00624313
0.00121494
0.00305887
-0.102994
0.00772095
-0.0325465
5.78992e-05
0.000273546
0.000878089
0.000235647
0.0053444
0.00139874
5.96585e-05
0.0114092
0.0496115
0.00026172
0.0042815
0.0032039
0.00453455
0.00467534
0.000104241
0.00479844
0.00503451
0.00480699
0.00358437
0.00431964
0.00342746
-0.000289522
-1.08326e-05
0.000912837
0.00429853
-1.73227e-05
0.00547768
-0.115491
0.00519818
-0.00758936
3.90734e-05
-2.56744e-05
-0.00929088
0.00195784
7.15616e-05
9.94929e-05
0.00330984
0.147177
0.0515493
3.3304e-06
9.54793e-05
0.000270621
0.328525
0.028621
0.000248022
-0.000842865
0.0268905
0.00468452
-0.0287035
0.00348779
0.0459967
-0.17097
-2.07774e-05
0.455795
0.0512559
5.96288e-05
0.00232908
0.00270729
0.00010985
-3.66711e-05
-0.00047082
0.0502272
-2.3497e-05
-3.1535e-05
-0.114756
0.0024859
0.00253156
2.17085e-05
0.00430455
0.00406994
0.0335223
0.0189228
1.5643e-05
1.2801e-07
6.68528e-05
-0.000150171
-0.352125
0.0322851
-0.151681
0.00393884
0.0102437
-0.0505622
-0.00013334
-1.35159e-05
0.0377644
-4.63653e-05
-0.316649
3.08096e-06
-0.0150836
8.87914e-05
3.16016e-05
0.0123242
-3.75153e-05
0.00523466
-0.00673595
4.20724e-05
6.49136e-05
9.75739e-05
0.00563251
0.00426653
0.00298746
0.027485
-0.000367789
-0.000139911
0.000525307
0.00241273
0.606714
0.0265596
0.00252119
0.00307415
0.00576237
0.036179
0.000246108
-4.68473e-05
-1.08974e-05
-2.31104e-06
0.00583293
-0.00236801
0.145855
0.000689959
0.00713298
-2.5771e-05
0.086417
-0.0112096
0.255752
1.53717e-06
0.000107445
3.56439e-05
0.0247488
2.62724e-05
-0.00644111
0.00164494
0.00581344
0.0111267
3.63041e-05
0.00135869
0.00290858
0.00981552
0.00854265
-4.60612e-06
0.00639929
4.01534e-06
-0.000148149
0.00192478
-0.0501545
0.0138594
-6.32911e-06
0.00241962
0.00271968
0.0381638
0.013985
-0.430599
0.0365897
-4.77314e-05
0.00237167
-7.02149e-05
0.00672651
-6.57209e-05
0.00270589
3.31647e-05
0.00196748
-0.0618153
-0.00801363
-0.000450505
0.000853504
0.0528898
0.00553505
5.0874e-05
-0.0669388
0.00499289
1.6004e-05
-0.000136106
0.0210677
0.000513887
0.00276774
0.018307
0.0902971
-0.0257299
-0.00035292
0.0409946
-0.00315444
0.0624816
-0.00538652
0.000764727
0.00513807
0.00455365
-0.294417
-0.0159041
6.1483e-05
0.0134051
-0.00484708
0.00530183
0.000268114
-0.189245
-0.00199746
-0.00752002
0.000441026
-0.500994
0.000154692
-0.00708491
0.00364698
0.0193938
0.0180484
-1.14767e-05
3.76848e-05
0.0283593
0.308524
0.00163651
5.3254e-05
0.000782239
0.000143752
0.0110768
-0.00363102
0.0474198
0.000247039
0.036636
0.00289856
0.0798896
5.71235e-05
0.00867869
-0.100972
-0.000427098
0.00401025
3.61731e-05
0.000225801
1.87943e-05
-0.119069
-1.52736e-05
1.5859e-05
-0.216868
-0.00112097
-1.58601e-06
0.436442
6.91175e-05
-4.31524e-05
-1.06937e-06
-4.21156e-05
2.87707e-05
0.00286594
-0.0780323
-1.87246e-05
0.00401925
0.00323212
0.00227437
0.00662858
0.00405445
0.000232753
0.00102849
-2.3682e-06
-0.0992238
7.59687e-05
0.610026
-0.000211338
0.00525383
0.0146307
0.00271108
0.0136208
0.0241113
-7.64871e-06
0.0325936
0.00213235
0.00295055
0.00108847
-2.71196e-05
-0.0173253
0.0108571
1.56594e-05
-0.347413
-7.9944e-07
0.0337876
0.0054606
-0.300636
0.00442344
0.00343752
-0.256283
1.20014e-05
-6.49797e-05
0.00298516
9.64897e-05
2.75154e-05
2.95345e-05
0.000279372
-2.6128e-05
-4.84231e-06
8.04882e-05
0.00060107
0.00011187
0.000243287
-4.72659e-05
0.000814253
0.00519157
0.000131286
0.0593557
0.000122496
-3.43183e-06
0.00437769
0.00194124
-0.000143374
-2.88106e-05
0.00168605
0.000186256
0.0390995
0.000201936
0.00415319
-1.08259e-06
-4.87879e-05
0.0007681
-0.0636508
0.00335338
0.000356699
1.08727e-05
0.0387712
2.07189e-05
-6.45819e-06
0.0036452
0.000215053
0.00431862
0.0524534
0.00447486
0.000887125
0.000773253
-0.0179693
-2.19116e-05
1.96533e-05
0.00214322
-0.101736
0.00285346
0.00357026
0.00146999
0.000269555
1.58485e-05
0.000528715
0.00614974
0.00286008
1.7032e-05
0.00459345
0.00463919
0.00263763
2.7938e-05
1.72905e-05
0.00443484
0.0024777
0.0270855
-0.0181767
5.66131e-05
0.00316608
2.58649e-05
0.00208178
0.0214218
1.81082e-05
0.00429496
-0.000420996
0.0030327
0.0808022
1.26981e-05
-2.99258e-05
-3.01474e-06
-0.282247
0.00500076
0.000104308
0.000943326
0.00465624
2.38995e-05