/*--------------------------------*- C++ -*----------------------------------*\
| =========                 |                                                 |
| \\      /  F ield         | OpenFOAM: The Open Source CFD Toolbox           |
|  \\    /   O peration     | Version:  v2012                                 |
|   \\  /    A nd           | Website:  www.openfoam.com                      |
|    \\/     M anipulation  |                                                 |
\*---------------------------------------------------------------------------*/
FoamFile
{
    version     2.0;
    format      ascii;
    class       volScalarField;
    location    "650";
    object      omega;
}
// * * * * * * * * * * * * * * * * * * * * * * * * * * * * * * * * * * * * * //

dimensions      [0 0 -1 0 0 0 0];


internalField   nonuniform List<scalar> 
13851
(
0.0221631
1.63599
0.0655614
0.0220048
0.0679924
0.0366755
0.0215507
0.0382887
0.0205389
0.0741619
0.296453
2.95736
0.274131
1.19538
0.0213901
0.0280722
0.0233173
0.0244913
0.232581
0.0205408
0.0219294
0.0638968
0.0250705
0.0225244
0.0260187
0.0386894
0.0230871
7.05787
0.0220896
0.0226678
0.0415045
0.0235002
0.062584
0.429728
0.0222852
0.144895
0.256251
0.158258
0.0826188
0.424528
0.0211398
0.0198287
2.66841
0.270456
0.26847
4.35927
0.279864
0.535678
0.0232356
0.0796794
0.0638351
0.117002
2.60512
0.0215172
0.0221794
0.0198331
0.0216473
1.31946
0.0225599
0.0215539
0.157131
3.48364
0.0354594
0.0797583
0.0980834
0.0228481
0.286297
0.291887
0.0297683
0.0243858
7.86095
0.258248
1.4564
0.0216239
0.0209795
0.0206319
0.0613075
5.72304
0.0398798
7.20181
0.0216651
0.224251
0.0213025
4.33954
0.0370933
2.91331
0.0305796
1.55742
0.0237214
0.0205532
0.145226
0.0250295
0.294889
0.025171
0.0236007
0.0232926
0.070139
2.89056
0.115556
0.0235081
1.15075
0.0432908
0.0216296
0.0230369
0.0263824
0.0304743
0.0482048
0.0197365
0.377526
0.0382645
0.023205
0.0205961
0.0246384
0.0235219
0.0230445
0.816796
2.87599
0.0197454
0.0225912
0.0225636
2.9447
0.0229423
0.42892
0.592805
0.331593
0.0213311
0.339403
0.0415421
0.0218344
0.115532
0.0211278
0.0206579
6.48204
0.0213068
0.804421
0.0207915
0.019747
0.256597
2.27385
1.30044
1.12194
0.0221205
0.0214287
0.0201042
0.0223441
0.273553
0.0301555
0.117484
0.021537
0.265543
0.0678095
0.0221687
1.20104
0.0216316
0.0222413
0.0222877
0.0208456
0.0221699
0.116594
0.0626019
0.0198831
0.02535
1.38376
0.0206451
0.0245619
0.0199724
0.0320043
0.0301507
0.0217762
4.72145
6.82106
0.0203649
0.0208601
1.29352
0.0206411
0.526343
0.0401729
0.0214388
0.237536
0.0197553
0.0239334
0.251717
0.0213126
0.0685498
0.0200029
0.0239292
0.0229427
0.02158
0.0771662
0.0674647
0.2847
1.95339
0.0207368
0.0296584
3.06576
0.0221451
0.0213169
0.416621
0.0213468
0.0206482
0.0214253
7.67085
0.0234789
0.0211858
0.0559028
0.0213205
4.33069
0.0234364
3.40032
0.0197869
3.03036
0.0215827
0.426824
0.0197139
0.0200435
0.298241
0.0363008
3.0287
0.0213292
3.36668
0.0235324
0.0216919
2.84136
0.112846
3.49398
0.0250003
0.0264612
0.0270554
1.24665
0.0197158
0.0376642
0.0908154
0.0203613
0.0206815
0.0566974
0.0321786
4.41801
0.10961
0.02009
0.0211978
0.0388981
0.334181
0.0202111
0.0606417
0.024521
3.52634
0.0442387
0.427445
0.022323
0.0237229
0.0237968
0.331711
0.0216246
0.0223774
0.0453185
0.0722765
0.0644446
0.256036
23.9954
0.021411
0.0200587
0.0239228
0.846458
0.0203518
0.243149
0.0221338
0.0216074
0.0248522
2.66835
0.0356824
0.0237449
0.0222307
0.152758
0.0377247
0.0274415
0.0206623
0.223832
0.103463
3.58822
0.295694
0.0202363
0.0197514
0.0262337
0.0433233
0.868396
0.671334
0.0205927
0.0214298
0.189764
0.228287
0.13012
0.0224168
0.0215542
0.031483
0.231447
0.259937
0.0242748
2.87852
0.0206756
3.4912
0.0250826
0.0232178
3.47079
0.0213745
0.0316023
3.16944
0.0205862
0.0372853
0.0252394
0.0223115
2.83452
0.0243771
0.0215807
2.89099
0.0198707
0.0238628
0.0221654
3.37698
0.107639
0.021329
0.0449546
0.0213634
11.0152
0.0249673
0.0243448
0.0209562
0.105044
0.0260011
0.0222064
0.0214337
0.0213634
0.0215549
0.280554
1.32394
3.90647
0.0255987
3.28994
2.21538
0.0213506
0.0300681
0.130804
0.0259053
0.0399219
0.102684
0.23681
0.0226781
0.821712
3.2965
0.0214039
0.122759
0.130743
0.193372
0.0222028
0.0420704
1.18681
0.0208747
0.785682
0.0209469
0.0213763
0.0236996
0.0197363
0.0208243
3.21655
0.334645
0.0212636
0.0359368
0.0199168
2.83285
0.031839
0.665754
3.90544
0.0212662
0.038845
0.0252543
0.681668
0.021078
0.019762
0.0241906
1.24017
0.0212555
3.29832
0.0258619
0.110177
9.58754
0.276245
0.279148
0.0227754
0.0207223
0.0219809
0.0250333
0.0445266
1.21983
0.030258
3.35068
3.20163
0.0199275
0.0214177
4.69324
5.37986
0.0812084
2.87282
0.0244256
0.0256461
0.0241836
1.69807
0.0204409
0.027665
0.0225357
0.0214874
0.0269181
0.0205694
0.0199618
0.07746
0.0378766
6.91155
0.0245709
0.0474972
0.0260637
0.331759
0.0242185
0.201388
0.0230735
0.298395
0.0197301
0.0205628
0.024813
0.203489
0.415429
0.109835
0.0257225
9.31953
0.433534
0.0293715
0.0228013
0.058141
0.0210689
0.345308
0.0257855
0.645756
0.379704
0.057944
3.46986
0.0214679
0.122884
0.377238
1.38946
0.0197021
0.026545
0.0409963
0.0465262
0.0204208
0.0215543
0.0635537
0.109745
0.0264778
1.51869
0.0248329
0.0209908
1.51166
0.0249593
0.0197335
2.17028
0.0207144
0.0221465
0.020481
0.0318477
0.0219717
0.0197646
0.0213849
2.79038
0.0213092
0.0318426
0.0207423
0.0238551
0.255802
0.0235124
0.0210749
0.0235686
0.0236862
0.506158
0.0216029
0.0326404
0.0213154
0.0235243
1.13365
3.59034
0.0213422
0.0240837
0.0243252
0.365913
3.72797
0.0210034
0.330833
0.0210974
0.0676027
0.0215055
1.09563
0.0198734
2.97848
0.0631352
0.0198413
0.0240735
3.01026
0.0384145
0.297753
0.0223144
0.575399
0.0225305
0.0205902
0.020658
0.0215074
4.26744
0.0565656
0.115621
0.239671
0.0347166
0.019915
1.86584
0.399082
0.0240507
0.0254487
0.338781
0.586326
2.77534
0.0222601
1.08614
5.31725
5.74671
0.024767
0.0243034
0.620935
0.135936
0.0657355
0.416581
1.83353
0.0222578
1.86545
0.243408
0.0197251
0.0845772
0.0582256
4.42147
0.0224127
0.0211952
0.0208339
0.0211497
0.0755883
0.030415
1.07974
1.58059
0.0206645
1.68849
3.34012
0.0419591
0.389816
0.0313245
0.0197009
0.0205472
0.161999
2.23436
0.0222969
0.0802727
0.143128
0.0198213
0.0281347
0.590649
0.180627
0.101448
4.13737
0.250905
0.0211086
0.0214989
1.94709
3.20052
0.113763
0.0301938
0.0383169
0.0197545
0.0210575
0.919876
0.0198016
0.0223565
0.0197453
0.0207528
0.27121
0.0760091
0.0248146
0.0197925
4.01415
0.411007
0.0207043
0.0213235
0.0203852
0.0218895
1.23868
0.426796
0.427258
4.61991
0.568893
0.02888
6.39739
3.54175
0.0228708
0.0300475
0.0196962
0.0219648
0.0291584
2.56118
0.886874
0.0789881
0.0257151
0.0205186
0.0276712
0.0213929
0.295166
0.0631972
0.0213094
0.026016
0.0204244
0.0247342
0.112132
0.0215348
0.0210503
0.0320289
0.0214811
0.0691183
0.193881
0.107571
0.0279055
0.117981
0.0205157
0.0652792
0.0243273
3.52284
0.0215497
0.0231333
0.364721
0.0223417
10.4449
3.379
1.72318
2.21803
0.0204425
0.252574
0.0203617
0.0207413
0.0198476
0.0207585
0.0218508
0.0248945
0.0305168
0.0197747
2.20753
0.0658467
2.30672
0.0207798
0.0202429
0.0228355
0.127148
2.99704
0.0468031
0.0249194
0.0203818
0.0235479
0.0213289
0.0208585
0.20072
1.66804
0.0214656
0.019766
0.0215184
0.0208618
0.217462
1.64936
0.0281267
2.85924
0.58134
0.0210426
0.114045
1.31919
0.0311431
3.01238
0.0216496
0.0240441
0.045867
0.0241523
0.421306
0.0213339
0.603025
0.0262958
0.0277602
3.3199
0.0206582
0.0220357
0.0365565
0.020594
0.0236636
0.530965
1.26448
0.0612509
0.239954
0.296192
0.0197251
0.0207704
1.14294
0.140285
0.0341422
3.34003
0.0204391
0.0240524
0.019746
0.560665
0.272852
0.0235177
0.0213988
0.250114
0.0231337
0.0225969
1.97183
0.0848009
3.09009
0.0198568
0.0214645
5.77121
3.46885
0.132639
0.021276
0.702861
0.0213184
0.284134
0.115965
0.0620481
0.0233032
2.29459
0.0232356
0.0217465
0.244098
0.022893
0.0234252
0.0220468
0.0205004
1.88184
0.0274159
0.102757
0.0246253
0.144104
0.0205347
0.628507
0.0223952
0.0231856
0.0205499
0.021018
0.0212225
3.16219
0.0208334
0.0198076
0.0890456
0.0215134
4.15791
0.0263008
0.0213768
0.0620129
0.273929
0.339668
0.02074
0.0552231
2.82474
0.0216198
2.89839
0.0275109
0.0204841
0.0258224
2.2395
0.0504297
0.02377
0.020741
0.0197461
0.384936
0.0698172
0.0443559
0.0240492
0.025979
0.022007
0.0213159
0.0797645
0.401759
0.0749946
0.903382
0.0214506
0.0690029
0.0740437
3.20808
0.0234093
3.03184
0.239775
0.021526
10.1112
0.0584093
2.64551
1.26547
3.01012
0.343622
0.0334443
0.0204979
0.024736
1.22367
6.62997
0.0208925
0.0242371
0.0585498
0.259234
0.0198577
2.5586
0.0204292
0.0212884
1.56305
5.72907
0.306336
0.0207289
0.0213911
2.7868
0.194134
0.106315
0.0220558
2.93738
0.177799
2.56329
0.0472697
0.0351978
0.0215752
0.0215029
1.28609
0.0440466
6.30975
0.0250181
0.029859
2.49908
2.68621
3.63782
0.0213849
0.0277846
0.0206926
0.0284017
0.0219886
2.82888
0.0240941
3.6072
0.0198539
0.060435
0.0210538
0.136621
0.0293678
0.0274548
2.88541
0.0376579
0.0333341
0.0227819
0.0602414
0.663427
0.042403
0.0223884
6.82635
0.0203057
1.29955
0.335201
0.0214387
3.19263
1.20212
3.83935
0.343122
0.0246359
0.0209062
3.09464
0.0241441
0.858764
3.42036
0.0207942
0.0222101
0.197593
0.412423
2.2573
0.0214226
0.0207922
1.34255
3.35565
0.101958
0.0235262
0.0217663
0.331681
1.39659
0.0765364
0.0198146
0.0338331
0.0206111
0.0229481
0.1996
0.0243017
0.783942
0.35311
0.0212892
0.0215045
0.0209188
0.0220861
6.52887
3.0257
0.0263285
3.19804
0.0210554
0.0262787
0.0208807
0.0206232
0.0213579
0.0212765
4.22557
0.021341
0.0457627
0.0213847
0.023887
0.226267
3.17033
0.0223687
2.07916
0.0467445
0.248725
0.0279379
0.0283891
8.59583
0.0247631
0.0308292
2.82288
0.898504
2.2445
0.0338154
0.273237
0.021495
0.0360036
0.0444264
2.46282
0.0212098
1.41698
0.020756
0.0207942
1.21225
0.0211829
0.238744
0.0234482
0.0206715
0.0272063
0.0206885
0.0213974
0.0206079
0.0216209
0.20662
0.0208089
0.192243
1.30403
0.0495087
1.27001
0.0214891
0.0225754
0.022894
0.0211504
0.0206743
0.0707593
0.0217365
0.0206371
0.0214321
0.0255057
4.03496
1.54971
0.0401826
2.91649
0.210295
0.021046
0.574669
0.0256112
0.0208093
0.341497
0.0321975
0.444638
0.0210259
0.273219
0.406032
1.04568
0.0203942
0.327115
0.0269348
0.0229656
0.0207537
0.0204498
2.49893
0.0545337
0.683855
0.020631
0.0212679
0.209931
0.0214533
0.249763
0.341832
1.16608
0.239533
0.358351
0.0238767
0.0212153
0.0390976
0.0239503
0.0229999
0.124451
0.0351917
0.0217606
0.0217045
1.36159
0.0206401
3.7665
0.245308
0.868739
0.163231
0.0222041
0.0201764
0.0213294
0.290291
0.39243
0.020391
0.0234321
0.0206146
0.0685293
0.0199197
0.0205965
0.0217107
0.028766
0.270036
0.0317197
0.0259266
0.0212726
0.0464051
0.536423
0.0219509
11.8545
0.666317
0.071995
0.0200175
0.0383986
0.0211852
0.0246203
0.0212955
5.42147
0.107522
0.420962
0.02306
0.286567
0.0212405
0.0266594
0.0213566
0.561825
0.123834
0.0198605
0.0284662
0.0395733
3.75515
0.0235661
2.00581
0.0219975
4.18163
0.063825
2.43846
0.0811123
0.0706768
0.200057
3.29076
0.359041
7.93025
0.0216917
0.121799
0.019907
0.0224468
0.0245092
0.0214605
3.36045
0.0260558
0.0250596
0.342403
0.14336
0.434153
0.0213455
0.022739
0.0237528
0.0202266
0.025234
1.52317
0.566535
1.36917
0.0209164
0.0248505
0.0222213
0.592433
2.78607
0.0387622
0.0201619
0.0216965
1.12069
0.0374243
1.79869
2.45014
0.0296168
0.0200021
0.2445
0.0249305
0.0369993
0.02572
2.99585
0.28827
0.108447
0.0674513
0.0216709
0.0235024
0.0213013
2.30958
0.0352177
3.41342
0.213082
0.0243535
0.127357
0.022094
2.90257
0.200303
0.0236702
0.146794
3.29178
0.156948
0.301906
0.0215181
0.02123
6.2405
0.567788
1.17813
0.0225294
0.0215093
0.0212773
3.93638
0.127334
0.021604
0.0356407
0.0737032
3.58368
0.241777
0.711711
0.0213946
0.588495
0.0233434
0.0210602
0.124608
3.39179
0.0215506
0.0207414
3.80557
2.78428
0.0210883
0.0208981
1.36635
0.0230822
0.190998
0.0209193
0.587221
0.0212172
0.0465357
1.21077
2.73653
0.0220113
3.39282
0.366818
2.1721
0.238695
4.06349
0.0269507
0.0211103
0.451046
0.0235158
0.0213616
0.0202099
0.443356
0.0210259
0.242589
0.0207554
0.021821
5.4229
0.0550532
0.493742
0.0221445
0.0259068
0.0206553
0.0288774
0.263179
1.13234
0.0207621
0.0580608
0.33216
0.0213252
0.0204499
3.19668
0.0299949
0.0290679
0.114636
1.32715
0.15719
0.264218
0.311765
0.0280074
0.300344
0.386004
0.830087
0.0577755
0.0214522
0.112236
0.0210946
0.0210617
1.40309
3.25586
0.0221375
1.29313
0.0572008
4.08565
0.0383859
0.03241
0.0211115
0.0617008
0.0469159
0.020664
0.0220726
3.08962
3.02128
2.01126
2.60044
0.0307092
3.67795
3.1369
0.0284331
0.0216149
0.0209043
0.226515
0.0209352
0.202073
0.0221176
0.0217703
0.0222319
0.640925
3.04157
1.06348
0.0214004
0.244424
0.0232112
0.0254043
0.0209567
0.0235082
1.40379
0.0244316
3.56658
1.18422
0.0332688
0.102734
0.0214646
0.0323622
0.0213807
0.125423
0.021379
0.0221076
0.0213588
0.0220942
0.133959
0.0218179
0.0293184
0.0207101
0.0296704
0.144343
6.4193
0.0208875
0.0411889
0.027193
0.0394806
0.0223534
2.30491
0.126236
0.0283684
0.0228535
0.0223101
0.0629748
0.0211121
0.195473
0.0214138
0.0206595
0.0212588
2.99081
0.0247505
0.0226327
0.0242594
0.0259405
0.0574901
2.91787
0.226312
0.0310644
0.0213136
0.0342984
0.0215481
0.0207364
0.160402
3.57523
0.0261205
0.025896
0.0709677
0.250613
0.0216428
0.0217556
3.6043
0.0220363
0.0544001
0.212183
2.78895
0.02122
0.0231452
0.0211942
3.49323
0.11649
0.0347019
0.105023
1.0827
0.0220173
2.40965
2.04889
0.021274
0.66397
0.0720427
0.022232
1.39457
0.021448
0.0209131
0.020421
0.141413
0.0433598
0.137269
0.0221021
0.0219914
0.0274766
0.337391
0.235859
2.95291
0.316236
0.0217758
0.117261
0.115562
1.50128
0.0613023
0.257498
0.0209486
0.0242263
0.0204603
0.0809155
0.0293564
0.0211892
1.38613
0.12456
0.0280283
0.0234237
0.0197915
0.0259984
0.0425006
0.0289662
0.119403
0.0576367
0.0553451
0.0474028
0.101267
2.65364
0.0387611
3.04243
0.0208886
0.0206597
0.186303
1.16176
1.8042
0.0357557
0.0225792
5.87162
0.322163
0.020679
0.024582
0.0207931
0.0358041
0.0619199
0.0406318
1.93278
0.229091
0.0221113
2.61034
6.92279
0.0213934
0.059544
1.97257
1.5321
0.0228594
0.0669044
0.0197094
0.022822
0.0206475
0.0234102
3.27257
2.93342
2.13429
8.97571
0.022165
0.0281771
0.0422945
0.0242295
0.0216555
0.0204603
2.41638
0.0208955
2.60183
0.0295383
0.0331285
0.126131
0.200553
5.14769
0.237017
0.0351009
0.0199416
0.0217232
0.237903
0.245479
0.0234097
0.0207567
0.0205088
0.0525689
0.0265311
0.127
2.49622
0.0221696
0.0204291
0.108585
0.0308617
7.20685
1.377
0.0209074
0.0629153
0.0212436
3.60494
0.0200558
3.64558
0.0207271
0.0221231
0.025475
0.0218843
0.03762
0.0267762
0.0402952
1.11592
3.00848
0.0236725
0.0264276
0.021111
0.237216
1.03817
0.0215573
0.0200916
0.337526
0.0197141
4.15472
0.0268457
0.0269193
0.0574827
0.10886
0.0300151
0.0217113
0.0215396
0.062637
3.02313
0.0211068
0.0705416
1.30907
1.36891
0.151418
0.0277452
3.87508
0.0241743
0.171962
0.0212441
0.310248
0.314198
2.29387
1.36101
3.22351
0.0213493
0.0306738
0.0207265
9.25642
0.344147
3.09914
1.1716
0.0243328
2.34923
0.753963
0.0285117
0.0219575
0.0215233
3.66097
0.0236437
0.062255
0.0234604
0.0213527
0.020629
0.0213805
2.8215
0.197868
0.026869
1.1097
0.257293
0.0209938
0.021265
0.0204304
0.023519
3.64285
0.210862
0.0235231
0.0241398
0.0956472
0.0643406
0.0380682
3.66557
0.026378
3.17
0.0276313
0.0248925
0.0212478
0.0234802
0.0610376
0.408947
0.315416
3.51442
0.0584777
4.74109
0.0222425
0.0231354
0.0256704
1.89742
1.22649
0.575126
0.0340691
0.0226782
0.0213141
0.0209512
0.0214095
0.020471
2.28709
0.0258021
2.3689
0.027197
2.57258
0.708008
3.45486
0.0258102
0.0243013
1.13091
0.0312909
0.406893
3.71554
0.0205792
0.0429006
0.0248349
1.39199
2.78443
0.028696
0.0372858
0.425498
0.0227191
0.0364553
0.0239558
1.79043
0.335345
0.0228952
0.0215309
0.317143
0.166039
0.113397
0.747106
0.112338
0.0236497
0.0209996
1.79046
3.57487
0.0638852
0.0277704
2.82712
1.2266
0.0207408
0.0213697
0.0230325
3.02491
2.87679
0.0213126
4.55455
0.0217981
0.0209162
0.0213728
9.57187
0.182133
0.041637
1.90036
0.0220302
0.022076
0.0209015
4.5829
0.0220196
4.30409
0.0223142
1.82988
0.021681
0.0210907
0.108747
2.38854
0.336549
0.0296241
1.84916
0.0201069
0.0214036
0.0213765
0.0366143
0.0558144
0.0560015
0.0286547
2.04226
0.0231948
0.109404
0.0781073
2.42218
0.0209902
3.64864
3.41469
0.0238915
0.543001
0.0584688
1.08595
0.0214641
0.0538676
0.0207563
0.265758
8.37592
0.05613
3.10064
0.0222992
0.0434039
0.0218142
4.22146
0.0199943
0.0207752
0.550962
0.0718038
1.11314
0.264521
0.0573403
0.0255227
0.0204093
1.57217
0.0251394
0.0206859
0.129657
0.0205511
0.0371097
0.0213018
1.26083
0.0222952
0.271751
0.328883
0.0253707
0.0644711
0.0437683
3.59067
0.0210954
1.11468
1.30902
0.0206291
0.0213075
0.0221187
0.0216969
0.0329116
0.0210808
0.1023
0.0678461
0.273001
0.0406928
0.0212283
0.0216432
0.0203892
0.237133
0.0214177
0.0211293
0.200198
0.0230401
1.92441
2.96979
0.0790935
0.0224364
0.028412
0.0220339
0.0217841
0.0259032
0.0201319
0.0231041
1.87337
3.67301
0.248738
0.0219954
1.50276
0.0772548
0.0217172
0.215768
2.48749
0.0213291
0.0227449
0.0212966
0.255712
1.21117
0.572203
0.0201188
0.0228815
0.0218539
0.0215252
0.114339
0.0213113
0.0335831
2.79167
2.90813
0.0205457
0.0229724
0.0228202
1.72073
0.0197889
1.15192
1.67932
0.0809353
0.959523
4.50178
2.00574
0.0216422
0.553783
0.134549
0.0220364
0.0204024
0.0208099
3.0514
1.54171
1.63855
0.0251088
3.24357
0.0214436
0.132122
0.0203546
0.0222897
0.0219746
0.0205415
1.28426
0.0221025
1.67223
1.20574
1.16412
0.03827
0.0463338
1.2275
2.99424
0.0215547
2.85495
0.020398
0.0197718
0.0212603
0.0378853
0.0204768
1.08641
0.0248598
0.182191
0.0293408
1.67299
1.04848
0.0642985
0.0205262
0.0432706
0.0613554
1.3112
0.0209922
0.020325
0.0226235
1.33784
0.0211876
0.322201
1.16448
0.0355527
0.0504046
0.0210204
0.366034
0.0216201
3.67674
0.020262
1.84267
0.0282932
0.0214335
1.10672
1.19697
0.0202034
0.0588789
0.0230581
1.69884
0.036673
0.0931993
0.187074
0.0216025
0.0428638
2.81174
0.0207004
0.0357358
0.0217854
0.0687084
0.0288
1.5301
3.19874
0.0214373
3.68907
0.0219754
0.0370424
2.6949
1.21483
0.028709
3.25428
0.171358
0.0215424
0.326031
0.113954
0.0277098
0.0220547
2.56011
0.0202218
1.56348
0.105608
0.093737
0.0213362
0.0254587
3.45882
0.0376174
2.55566
0.0217945
0.022761
0.0615636
2.51706
0.024592
3.11573
0.753825
1.05689
0.0213616
2.36855
0.427368
1.36906
0.0213754
0.0214793
0.0210387
3.18909
0.0239109
0.362411
0.362881
0.0216021
0.0202414
0.0213454
1.41388
0.252164
1.14637
1.06569
0.0208997
2.88467
2.65887
0.116335
1.43117
3.32407
0.0278167
1.68658
0.0226386
0.0243309
0.268967
0.7811
0.0214095
1.28159
0.0213578
0.0213506
3.76642
3.25276
1.9853
9.96282
0.0267542
0.0216186
0.0227692
2.24934
1.22224
0.0211257
0.0412033
0.528543
0.0213897
0.0213932
1.92115
2.01488
0.0222004
0.0214143
0.0219837
0.0218783
0.123833
0.0216802
0.0207769
0.0236383
0.113
2.89154
0.0459067
2.66103
0.0214409
0.0230272
3.11481
2.83428
0.0247091
0.0704117
0.0213157
0.0307847
0.0217216
0.0217417
0.0546005
0.0207611
0.88433
0.0272855
0.0206255
0.0228553
0.62512
1.31534
3.84276
0.0213979
0.0241952
2.84312
0.558551
0.0230439
0.0209542
0.0214625
0.295778
0.0213981
0.0217456
0.0251524
0.021294
3.17266
0.0362996
0.0215759
0.0229174
0.0200754
0.0213189
1.20975
0.225415
0.0617404
1.33174
0.036013
0.0216634
0.0212955
0.0214235
0.021024
0.021579
0.0233426
0.0561839
2.74461
0.0215925
0.0966914
3.67779
0.120971
0.0210978
0.0207904
0.0227467
2.63805
0.0210009
0.194816
0.242637
0.0319164
0.0211676
6.68475
0.0200997
0.0374037
0.0203819
0.0201224
0.0212195
0.0205714
0.0254485
0.557166
0.0594069
0.0323087
0.741047
0.0557772
0.0894797
0.0283583
3.27853
1.35353
0.0949366
2.25182
2.02933
0.101636
0.37002
0.021681
0.0204825
2.34693
0.0209101
0.0229925
4.06262
0.0369138
2.72656
0.124795
0.0206384
0.0220964
0.0213756
0.0306486
0.020337
0.0693163
1.14106
2.47542
0.906226
0.0213569
0.0202381
0.0639252
1.29346
3.23051
0.0992017
0.273228
0.0208057
0.280107
3.91653
0.0414298
0.0225186
0.0213755
0.0200674
0.0221947
0.0212021
0.0211047
0.0228663
3.16809
0.0675913
3.51062
0.0542108
0.211877
0.14543
0.0212394
0.0212977
0.0211915
0.0205073
0.0216593
0.282818
1.86009
0.732389
3.27514
0.0227568
1.06086
0.121794
3.08809
3.68051
0.0212956
0.0205802
0.273592
0.0213377
0.02021
0.557577
3.2015
0.264756
0.0213264
0.0214088
0.0220313
0.031513
0.70232
0.0204083
0.0225013
0.239643
0.0234385
0.432201
0.0311381
3.84212
0.0216196
0.223517
1.27147
0.029052
2.14677
0.0998165
3.61796
0.0200808
0.0233112
0.0207175
0.0260687
8.96741
0.025395
1.61921
0.0210987
0.0213209
0.0214274
3.35727
0.0380478
0.0987537
0.533969
0.020547
0.0343569
1.30211
0.043559
0.0205124
0.02175
0.0213199
0.0334595
0.0209285
0.0206404
3.58152
2.7822
3.26883
0.164458
0.23538
1.0362
0.0629825
3.33343
0.109582
0.020034
0.0242284
0.0197303
0.0213819
2.35249
2.51685
0.0202811
1.97924
3.69039
0.0269656
0.0215336
0.0244636
2.5179
1.75819
3.22605
0.334936
3.26141
0.0197181
0.197307
0.0886338
0.319747
0.292727
0.0212991
0.115055
1.11489
0.0274432
1.23308
0.0214596
0.0866896
1.05567
3.54354
0.0670304
0.0270679
5.54131
0.115797
3.627
3.48451
3.14348
0.101417
1.80832
0.0214152
0.0225051
0.0404304
4.53225
0.327034
3.74219
0.0221705
0.0990183
0.0544204
0.0226709
2.11202
0.0213258
0.115756
4.07805
0.021341
3.55342
2.37649
3.61204
2.36354
0.208696
0.133551
0.0208664
2.4426
0.0210485
0.0205779
0.0353601
0.0228407
3.51289
0.0230197
0.0243842
0.022947
0.0205752
1.69551
0.02217
0.104514
0.326703
0.020563
4.11269
0.0889639
0.0215894
1.56469
0.203419
0.0213354
0.0907209
0.0217624
3.64632
0.0708893
0.0203048
0.10454
0.0222186
2.60897
3.32354
0.0636804
1.03041
0.0231677
0.0214681
3.97729
0.0231538
0.0210296
0.264889
0.0362197
0.0208228
0.0206227
0.114976
0.022075
4.00815
0.199913
0.0327714
1.07601
0.0469255
0.0521413
0.0208817
2.69601
6.86297
1.20798
0.0213798
0.0202243
0.0627441
0.0263869
0.402033
0.0210471
0.535575
0.0208978
0.113187
0.0216327
0.035099
0.139226
0.102189
3.89327
1.10737
2.50586
3.28708
0.0197794
0.266428
0.269654
4.86859
0.021157
0.155551
6.6388
1.51877
0.103748
0.228466
0.884768
2.85997
0.0403085
0.196309
0.0205304
0.0410366
0.0377932
0.0212905
0.0622278
1.08725
0.051208
1.29262
0.287793
0.0211202
0.0207035
0.0246862
0.0212955
0.922465
0.0204285
0.0206479
3.17
0.192187
0.0268437
0.0898971
0.0227511
0.0698667
1.48536
3.44466
1.31755
0.024264
3.38774
0.021798
0.0204879
0.0226527
3.37737
0.214244
0.193193
0.193817
0.0219533
0.0206607
0.0212925
0.0216977
0.0247658
1.1231
0.2762
0.0256312
2.16985
4.04186
0.103302
9.24698
0.0213729
0.0265377
0.0442262
0.0213722
0.0250687
0.0246425
0.0229625
3.33102
3.47781
0.0204194
0.0354252
0.0262515
0.0569166
1.53373
3.26474
2.97715
0.0211892
0.0737956
3.19822
0.0725929
0.104094
0.0588956
2.5054
2.28598
3.45946
0.0204178
1.49951
0.0202659
0.0219906
0.0212795
0.0508842
2.54249
7.071
0.51914
2.00672
0.0475561
0.0201727
0.0207721
0.0214015
0.0227417
0.0375609
3.11452
3.65499
0.069107
0.26803
0.0213782
0.0470789
0.0206055
3.61119
0.0514068
0.0211467
0.117667
0.0903823
2.1348
3.88756
0.114431
2.45646
0.0232116
1.28649
0.190192
0.242709
0.340609
0.0217543
0.0465294
0.0213902
2.33148
1.75609
0.0338436
2.77072
0.185452
2.08568
0.0558519
0.119772
0.0312612
0.020863
0.108065
0.0471286
0.0230789
0.0460673
0.0270977
0.0279295
1.32557
0.13493
0.0222123
0.026344
0.0313657
0.0270312
0.0216522
3.21267
0.0973361
0.311912
7.2976
0.0213261
3.55078
0.0214449
0.022611
0.0224298
3.47817
0.0307042
3.74252
8.68959
0.0499083
0.0317262
0.10567
1.58493
0.119795
1.02199
0.0237292
0.0402552
0.0205904
3.68088
0.437291
0.0236714
0.0240164
0.0300583
0.0243171
0.0229745
0.043493
0.0353167
0.0214686
0.0280441
8.19575
1.21296
0.0837259
0.0354452
0.0198837
1.56705
0.0287456
0.0570423
0.0767732
0.0382783
2.69572
0.020229
0.024078
0.0225503
0.0275472
0.021127
3.76417
0.308505
0.564789
0.0299503
2.25386
0.196527
0.0241913
1.70331
0.0583414
0.188503
3.28214
0.0323997
0.0229468
0.0361432
0.0567604
0.0223266
0.241648
4.12147
0.327601
0.0208672
0.204824
0.183844
0.742805
0.0212287
0.0378843
0.0207555
0.0265977
1.70564
0.0259147
0.0258722
0.0208275
0.0208163
0.25827
3.30536
0.0211271
1.00335
0.181914
0.0201791
0.0226872
3.71833
0.100375
0.0910312
0.0213291
0.0247973
0.085539
0.0237498
0.0209019
3.73834
0.026175
3.72171
0.0740074
0.0243754
2.14094
0.099445
0.130576
0.0208765
0.416499
0.0274141
0.0245583
1.76018
0.0348888
0.0213322
0.069753
0.0232647
0.0226186
0.0201424
0.713847
0.0212894
0.048024
0.389529
0.0879258
0.020592
0.215587
0.0276634
2.73113
0.14154
3.74725
0.0932841
3.511
0.0206474
0.0668885
0.0240772
0.0210849
0.406658
1.06604
0.0238592
0.0574621
0.0223958
0.0627698
3.79668
0.0243889
0.0663919
0.232292
3.4063
1.41056
0.119098
0.0272716
0.020625
0.0498767
0.0289495
0.721481
2.62534
3.57887
3.20628
3.38305
0.0207925
0.165555
0.0213795
0.0220735
0.0214346
0.434058
0.12921
0.0578427
0.0209192
13.9876
0.0249591
3.87915
0.0205969
0.0494855
0.0273763
0.0624594
0.0350202
0.0918343
0.0222698
0.147626
0.103861
0.0208947
1.11874
0.202243
0.0336313
0.0225165
0.0265355
0.0214946
0.0208756
0.0572203
0.0315089
1.35173
0.170348
0.0747275
0.0648364
0.0207821
1.43529
0.056872
2.69615
0.0262637
0.0264878
0.412135
0.0267052
0.0305308
0.0419807
4.69972
0.0223731
0.0213758
2.6236
0.0283205
0.0227014
0.0238654
0.0260971
0.0203782
0.0240912
3.63203
0.0215151
0.0351323
2.94287
0.100009
0.0616115
0.15562
0.361641
3.59901
1.24856
1.70173
0.0456036
0.944019
0.022087
0.0237802
0.0213941
0.0209184
1.21974
0.422593
0.0268606
0.0206167
0.0656595
0.0734565
0.0208298
0.0506671
0.0443936
0.021137
0.0222481
1.45188
0.0247888
0.0334491
0.0303214
0.0208294
0.0649474
0.0566245
0.0259282
0.169195
0.0633728
0.248806
0.118235
3.15482
0.0219441
7.66408
0.131609
0.130412
0.0544551
1.39393
0.0661653
0.0240165
0.0433723
0.0575029
0.0228058
0.0555188
0.0209743
0.0212225
0.0201318
0.0231903
3.69554
0.0203158
0.0924612
0.0226598
0.0229123
0.0228786
0.223814
0.0226949
0.0503058
0.0214068
0.022961
0.0233141
0.0205069
0.0795246
0.0227978
0.0204009
0.0220128
0.0251243
0.0206567
2.61044
0.0248295
1.17469
0.103461
1.95162
0.0507795
0.0553515
0.028838
0.0354482
0.0229988
0.0239657
2.56745
1.44151
0.115496
0.0489687
0.0285009
0.0208539
2.05742
0.0318136
1.21608
0.0209629
1.28452
0.12665
1.48668
1.83353
0.0201237
0.0213926
0.0202848
0.0267688
1.50594
0.0362457
1.25807
0.0237429
0.0267102
0.020895
0.0216826
0.027856
0.0227935
0.0227333
0.0206199
0.194422
0.305462
0.246516
0.0242549
0.267645
0.0204943
0.0202382
0.093022
0.0216962
0.0230103
0.0562671
0.0229137
0.056397
0.0213996
0.0226589
0.0214663
0.0230482
3.70855
0.0207796
0.0227336
0.0220605
0.0226697
0.887827
0.021643
0.0430612
1.41064
0.0231372
0.0261942
0.0220562
0.0234316
0.0216005
0.109865
0.0213224
0.0237025
1.31433
0.0206482
0.0257834
0.0431968
0.0438439
1.09205
0.0201078
0.0227556
0.0223769
0.0274368
0.0823517
0.293414
3.8927
0.0202487
0.0244169
0.0554793
0.0234271
0.287972
0.0200305
0.0214867
0.276086
0.0349729
0.0227825
0.0200758
0.0941886
0.0987275
1.28023
0.021493
0.150072
0.0200573
0.0204947
0.0226552
0.068914
2.66598
0.0214288
0.0208168
0.352814
0.0213421
0.0225862
0.22999
1.27301
0.0213032
0.0203997
0.0225929
0.0268028
0.181177
1.34843
0.0216458
0.0934439
0.021494
0.0212892
1.77507
0.0218549
0.0214666
0.0273268
0.186795
0.116919
0.0226332
0.0219258
0.268681
0.0347173
0.0219942
0.116325
4.16617
0.0213804
0.0215606
0.022606
0.0213438
0.0213612
0.0205848
0.0202027
0.032879
0.0225583
0.0328362
0.0412925
3.21614
0.870775
0.0265945
0.0200942
0.0211603
0.0219421
0.0225439
0.0347853
0.0256432
0.26663
0.0225332
0.0554962
0.0227696
3.30801
1.19925
0.0258751
0.0227327
0.108081
0.0228133
0.0231484
0.0213635
0.0219923
0.0210878
0.0400344
0.0314503
0.0342771
0.0940582
0.0223264
0.0227475
0.0219615
1.48882
2.08747
0.370632
0.0242328
0.0695033
0.0625323
2.82975
0.0217384
0.250123
0.0556401
0.0213659
0.0216805
1.6933
0.0213829
0.021868
0.0226483
1.05568
0.0214009
0.021604
0.0230731
1.31364
0.0207648
0.042187
1.08513
0.0227131
0.0214417
0.0209997
0.0213872
0.021644
0.0215632
0.0278228
0.0223841
0.0214108
0.021561
0.0215594
0.0255133
0.0213161
0.293494
0.0214969
0.021566
0.0314908
0.0272181
0.0292287
1.33793
1.15076
1.65574
0.0335181
0.020588
0.0292108
1.01952
0.0201875
0.22356
0.0234158
1.03852
0.0222735
0.0381207
0.0216457
0.0213623
0.10074
0.189569
2.06881
0.292184
2.6755
0.0216078
0.0206121
3.15475
0.0201696
0.0214212
1.09017
0.020981
3.1823
0.0214046
0.140203
0.0946206
0.0228411
0.334404
0.0234824
0.0661008
0.113391
0.259973
0.465124
1.18316
0.172108
2.36432
0.0214364
1.49311
0.0213515
0.0212789
0.0206793
0.0216151
1.00853
0.0219936
7.33826
0.0213649
0.0213611
0.0215166
0.0496366
0.0210131
0.0205719
0.0409773
0.0229507
0.0235357
0.0239476
0.0253933
0.191345
0.243364
0.0800922
0.269663
0.0852475
0.02201
0.251411
0.0214318
0.0241836
0.0479201
2.62065
0.0311025
1.79052
0.0213709
0.826647
3.79128
0.128963
3.53209
0.260698
0.0228637
0.0212837
0.0226417
0.0213324
0.0212776
3.57443
2.45043
0.0209645
0.215398
0.0213964
0.0951468
0.020887
0.172239
0.0233135
0.0226873
0.0206358
0.0470959
1.1847
0.338463
0.0205458
0.0206434
0.0241904
0.0217789
0.0219671
0.179263
0.0607872
0.0410396
0.214921
0.0318621
0.0216599
0.0257235
0.0488317
0.0216661
2.67504
0.045986
0.239421
0.0221476
0.0231629
0.0202389
0.0197832
0.021342
0.0239363
0.0207579
1.53984
0.0300185
0.0492014
0.0211895
0.0303022
0.0212934
0.0417191
0.0304197
0.0449498
1.60998
0.0236629
0.0212886
0.023207
0.0216593
1.96492
0.0512953
0.0309132
0.0454963
1.92013
1.04203
0.0953445
0.0412498
0.021357
0.0221791
0.0225938
0.0295066
0.0731695
0.0239909
0.0214067
0.510045
0.217824
0.0215752
0.0226982
0.0464133
0.0218261
0.0208191
0.0297221
0.0211825
0.0217005
0.0208814
0.0227987
0.0217748
0.0330231
1.54592
0.0214447
0.248491
0.0850449
0.0957431
0.0208819
0.0209285
0.0721196
0.0246186
0.021414
0.0422291
0.0212759
0.0379051
0.0214405
0.0304746
1.7225
0.0444794
0.0220444
0.0484476
0.340962
1.55586
0.02141
0.0314069
3.75718
0.0208791
0.021493
0.0693413
10.5087
3.51784
0.0229141
0.0212319
0.0263488
0.0209907
0.0220353
0.0242602
0.0215627
2.00605
0.0216425
0.12862
0.0213131
0.0214497
0.0340347
0.0213501
0.0214695
0.0243357
0.801524
0.0205304
0.0258713
0.0216992
0.0208532
0.0214228
0.0252636
0.0236329
0.0567824
0.0222753
0.0215773
0.0216607
0.0340404
0.0220356
3.53625
0.0217515
0.096534
0.0295678
0.0227251
0.0250389
0.986709