/*--------------------------------*- C++ -*----------------------------------*\
| =========                 |                                                 |
| \\      /  F ield         | OpenFOAM: The Open Source CFD Toolbox           |
|  \\    /   O peration     | Version:  v2012                                 |
|   \\  /    A nd           | Website:  www.openfoam.com                      |
|    \\/     M anipulation  |                                                 |
\*---------------------------------------------------------------------------*/
FoamFile
{
    version     2.0;
    format      ascii;
    class       volScalarField;
    location    "650";
    object      ddt0(k);
}
// * * * * * * * * * * * * * * * * * * * * * * * * * * * * * * * * * * * * * //

dimensions      [0 2 -3 0 0 0 0];


internalField   nonuniform List<scalar> 
13917
(
-3.62408e-07
-1.34509e-07
-0.00192575
-3.96157e-07
-2.81292e-09
9.67855e-08
-0.00176448
-0.0020117
-0.000120053
-5.67838e-07
-2.53088e-06
-1.62621e-06
-4.01511e-07
-0.000348789
-1.23836e-07
-1.49998e-07
-1.29419e-07
-7.89166e-07
-1.61865e-06
-1.30113e-08
-2.75853e-09
-0.00170839
-1.97739e-08
-0.00251866
-4.2877e-08
-0.00207662
-2.55663e-08
7.48407e-08
-1.43641e-06
-7.74507e-07
-4.49374e-07
-3.05844e-07
-3.47616e-07
1.80222e-08
-2.75898e-08
-0.00891608
-1.87925e-08
-0.000126935
-5.55736e-07
-0.00104455
-7.37683e-08
-1.02283e-09
-2.1446e-08
1.15359e-07
-1.74336e-07
-2.29144e-08
-7.79971e-07
-7.96788e-07
1.32937e-06
-1.8482e-08
-5.44087e-07
-9.83323e-09
1.35672e-05
-2.05045e-08
-1.27662e-07
-4.35409e-07
-9.86666e-07
-7.44689e-08
-3.37565e-07
-1.67968e-07
-0.00785311
-1.36584e-07
1.29527e-05
-1.49549e-08
-4.98169e-07
-0.000441013
1.16151e-08
1.71984e-08
-2.5054e-06
-2.93745e-07
-3.38967e-09
-0.000588669
0.000105496
-3.92522e-08
1.16246e-06
-2.02042e-06
9.27608e-05
-2.4536e-07
-0.0022505
-3.22536e-09
-6.56823e-09
1.09484e-08
-3.82176e-06
-0.000154908
0.00094207
-2.36873e-07
-9.24593e-09
-5.79034e-05
-4.95816e-07
-2.09283e-08
-8.1603e-05
-5.6087e-07
-1.31053e-07
-8.50139e-08
-0.000135196
-1.15918e-06
-5.90622e-07
-8.19521e-07
-5.78949e-06
5.03593e-07
-4.5988e-08
3.20472e-08
3.32768e-07
-2.96632e-07
-8.55496e-08
-0.00085005
1.04048e-07
-9.25666e-07
-1.31369e-07
-3.849e-07
0.000625022
-0.00124075
-1.92673e-06
-0.000529478
-3.83192e-09
1.42036e-07
-4.12177e-08
-2.12259e-06
-0.000748694
2.91861e-08
-1.12011e-09
-1.86079e-06
-0.000609218
2.10237e-09
-3.05353e-08
-7.62336e-08
-1.56496e-07
-3.15097e-08
-1.34208e-08
1.61053e-06
-0.000900893
-4.02163e-09
-1.73731e-07
-1.84634e-09
-0.00300735
-0.00260648
-3.86236e-07
2.60057e-07
1.25445e-08
2.57675e-08
-0.00519405
-1.62021e-07
-3.28982e-08
2.09801e-07
1.63686e-08
-0.00260509
-2.18583e-06
-9.93363e-09
-1.13653e-07
-3.03443e-07
-8.71988e-07
-2.15082e-06
-1.18252e-06
-1.65096e-07
-4.12779e-07
0.00127614
-2.85038e-07
-0.0070741
0.000224209
0.00432995
-4.55523e-08
3.17901e-08
-2.64747e-09
-6.63538e-07
-1.91296e-06
-3.45499e-06
-2.92671e-07
-9.31773e-07
-1.48788e-07
1.04107e-07
-2.09748e-07
0.000451838
-2.01167e-06
-1.30262e-07
-0.00331958
-2.10524e-07
-0.000970619
-1.07572e-07
-0.00311093
-1.10372e-07
-9.38628e-07
-4.61237e-07
-1.74809e-07
-1.02566e-08
2.49079e-08
-0.00226691
-2.05409e-06
0.00216553
-6.43247e-07
-2.68149e-06
-0.00254034
0.00124656
-1.21998e-06
-1.8539e-08
-1.43618e-07
-8.15618e-07
-2.81336e-07
-1.32847e-07
-2.0558e-08
2.66516e-05
-5.42802e-07
-1.76086e-08
-7.80891e-07
-9.30704e-07
6.17504e-05
-0.000642155
-2.52263e-08
-7.46575e-08
-7.68413e-07
-0.00219179
-2.90277e-08
-0.00162945
4.76231e-05
-2.69544e-06
-8.28191e-08
-2.43564e-06
-8.65055e-07
0.000393549
-6.30837e-08
-0.0105424
-1.0716e-07
-9.63219e-07
-5.07049e-08
-4.17466e-05
-0.000883317
-1.46564e-07
-6.26631e-08
-4.18061e-07
-8.13352e-08
-0.00882561
-1.957e-06
-6.44801e-07
-0.00273989
4.7056e-05
-4.15191e-08
-3.2703e-07
-9.11349e-05
0.000573178
-6.03038e-09
-3.61172e-08
-0.00133186
-2.82622e-07
-1.39432e-09
-0.0029386
-1.08379e-06
-4.86905e-07
-4.58144e-07
-4.74233e-09
1.23057e-07
6.16082e-05
-1.86363e-07
-7.7105e-07
-3.0116e-07
-1.53372e-07
-7.15024e-08
-1.14312e-06
-0.00148995
-1.20847e-06
-3.31024e-09
-1.70562e-07
-9.10077e-10
-0.00059676
-0.00649556
-0.00772093
-7.96336e-08
0.000359066
-0.000147636
-0.00747394
-0.00218224
-2.15732e-06
-4.93491e-09
-2.97114e-08
-7.5519e-07
5.71024e-05
-1.87073e-06
-3.27903e-07
-0.000916522
-1.31902e-06
-9.22043e-09
-0.00761785
-1.39001e-08
-0.00322258
-5.10081e-07
-3.24741e-09
-1.96435e-07
-2.01504e-07
-5.47394e-07
-0.00525574
-1.75469e-07
-1.95489e-07
-8.03271e-05
-0.00278621
-0.00544176
-6.13255e-08
-0.00537061
3.17352e-09
-1.94246e-07
-3.98367e-08
3.56872e-06
-1.23875e-08
-8.56359e-07
-4.29274e-07
-1.45939e-07
-8.19669e-07
-1.82826e-07
-6.07625e-07
-1.59188e-07
-2.509e-07
-1.30782e-07
-6.95332e-08
0.000590251
-0.00045901
-4.5887e-08
-3.70296e-08
-0.0099554
-1.16952e-07
0.000119402
-9.4447e-08
-7.80733e-05
3.22006e-08
-1.24028e-06
-7.49448e-07
-7.57194e-07
-4.95669e-08
-0.00662054
8.59301e-07
-1.91695e-07
-5.69265e-07
-1.8515e-06
-9.61365e-08
-0.000525999
-1.21786e-06
-8.67195e-05
-8.38745e-08
-0.000731957
-3.53583e-07
0.00101872
3.32786e-06
-4.54791e-07
-1.49888e-07
-0.00159398
-5.03665e-09
-2.13116e-07
0.000679602
-5.59052e-08
-1.33661e-07
-0.000160741
5.65347e-07
-1.38416e-07
-0.000295914
-3.89852e-07
-3.77694e-08
-0.000598083
-0.00650161
-1.54283e-08
-6.02588e-08
4.16658e-09
-1.13486e-07
-5.13917e-05
-0.00320434
2.54926e-06
0.000645575
-4.44434e-08
-8.6285e-07
0.000140472
-9.70922e-07
-0.00157912
-2.21276e-05
-0.000544871
-5.45868e-08
-0.00660011
-6.37367e-08
-0.00694991
-1.65282e-07
1.98832e-06
-1.05572e-06
-4.77231e-07
-6.64017e-09
-8.4895e-07
-5.48735e-07
-9.26097e-07
-2.09927e-06
0.000864303
0.0003194
5.74329e-09
-5.50622e-07
-3.35517e-08
0.000739817
-0.0017645
-8.59131e-08
0.000338235
-2.50556e-08
-1.71242e-05
-7.35258e-08
-4.99713e-09
-1.77674e-07
-0.00229083
-1.74166e-07
-0.00162397
0.00132074
-2.38199e-06
-4.61781e-06
-9.50324e-08
3.52795e-08
-2.83328e-06
-2.97143e-08
-3.10234e-07
-5.67809e-08
-3.49979e-08
-6.64142e-07
-2.22112e-09
-3.6802e-08
-6.3393e-08
1.7219e-06
-3.04696e-09
-0.000983295
-0.00265515
0.000271839
-1.22063e-06
-0.0016284
0.000316845
-9.49919e-07
-3.90895e-08
-1.55666e-06
-5.36279e-07
-3.44164e-07
-2.00947e-08
-0.00266691
-0.00194604
-0.00283481
-1.23962e-07
-1.18223e-06
4.05501e-08
-5.78883e-07
-9.02749e-07
-1.50769e-07
-0.00666832
-1.34088e-07
-1.25452e-08
0.000199042
-0.00099173
-0.00106556
-5.72827e-07
0.000146099
-0.000561815
0.000673554
0.000215464
-2.20776e-08
-8.81266e-07
-1.54815e-07
-7.14523e-08
-0.000108592
-7.65312e-07
-3.27351e-09
-6.70796e-07
-8.95747e-07
0.000219761
-3.04374e-08
-1.20227e-06
0.00132394
-1.32185e-06
-0.00105793
-2.88766e-09
-8.76518e-08
-2.93222e-07
-2.8856e-07
-4.67926e-08
-0.00256199
-3.44211e-06
-1.90623e-07
0.00111535
-4.3295e-07
-5.74616e-07
0.000676223
-2.03091e-06
-2.08099e-06
-0.00609024
-9.52033e-07
-6.21143e-07
-1.59194e-06
-1.18749e-06
-5.63618e-06
-4.09519e-08
-1.32734e-06
-1.0108e-06
-1.20367e-07
0.000132455
-5.4528e-07
-1.58042e-07
-2.78951e-07
-2.65477e-07
0.000190166
-0.000663163
-1.15692e-07
-1.56406e-08
-0.00264179
0.000222661
-2.78237e-09
-0.000919064
-2.97915e-07
-8.7356e-07
-1.15434e-07
0.000145218
-0.00445561
-3.06692e-07
-1.66634e-07
-0.0017316
-1.28724e-06
0.000116549
-8.2531e-10
6.79528e-05
-3.09754e-07
-0.00969849
-1.52137e-07
0.000651805
-0.0015309
-9.71391e-07
-5.99294e-08
-1.18686e-07
-2.05997e-06
4.72599e-05
1.77325e-08
-5.47637e-08
-2.23227e-08
-2.33498e-08
0.000253503
1.69922e-05
-9.73538e-07
-1.17561e-06
-4.92938e-08
-4.38094e-08
-1.22704e-06
0.000574828
-5.48287e-07
-1.52222e-07
-3.7541e-08
1.43274e-08
-0.0104209
0.00134443
-8.66905e-09
3.1557e-09
-0.00658603
-1.16441e-06
-7.52397e-07
-8.36447e-08
-1.76867e-07
-2.59236e-07
-1.01244e-06
-5.71827e-07
-2.67967e-06
-1.15537e-06
-1.11958e-06
-0.000597728
-5.04352e-07
-5.59789e-08
3.75094e-05
1.49625e-08
-1.3947e-07
-4.31068e-07
-0.00020925
-2.871e-07
-4.64534e-08
-1.25534e-06
-9.54494e-07
0.000314821
-1.22081e-06
4.27559e-07
-9.42981e-07
-6.72662e-09
-0.00418323
-1.2421e-06
-0.00083826
-1.30239e-07
-5.13505e-07
-2.59323e-07
-5.7192e-05
-0.000117836
-8.52345e-07
-4.73584e-07
-1.45322e-07
-2.60231e-07
-7.9302e-08
-3.88155e-07
3.625e-07
1.445e-08
-9.11429e-07
-4.1784e-07
-0.000856052
0.000134876
-1.98767e-07
-6.83515e-07
-0.0034015
-2.46458e-07
-3.4022e-08
-2.90552e-06
-0.00569054
-0.00185515
-1.54084e-06
-1.9577e-08
-0.000668021
-1.96438e-06
-7.47632e-08
-4.75109e-07
-8.74805e-07
-6.38365e-07
-9.51289e-07
-0.00218733
-1.4481e-06
-1.06258e-06
-0.0040653
-2.73682e-07
0.000298828
-4.17704e-09
-9.2704e-09
-0.00574997
-0.00503821
-4.0275e-06
-2.75331e-07
-1.31682e-07
1.57617e-09
-1.338e-06
3.26783e-06
-3.53697e-06
-2.71848e-07
-1.55303e-06
-7.51101e-07
-1.13471e-07
-5.98806e-06
-3.10085e-06
-0.00594979
-7.18492e-08
-1.24942e-06
-2.59124e-07
0.00124359
-2.86962e-07
-3.25994e-07
-5.07035e-07
-3.26204e-08
-1.43912e-07
-1.62756e-07
3.07567e-08
3.41787e-08
-4.17614e-06
5.8964e-06
-8.0182e-07
-3.61949e-08
-1.22365e-06
1.11799e-07
-0.00897904
-1.80397e-07
-4.74355e-08
-5.21891e-08
-7.41033e-07
-3.47642e-07
-0.00132745
-4.77972e-09
1.50199e-05
-7.08029e-07
-1.51846e-06
-4.8787e-07
0.000188278
-2.70142e-07
-1.16785e-07
7.02728e-05
0.000454967
-1.03014e-07
-4.27776e-07
-0.00380297
-1.22558e-06
-1.93213e-06
-4.25706e-09
-1.74736e-07
-1.36567e-06
-4.9561e-07
-9.21162e-07
-1.17212e-06
-1.47699e-07
-1.00708e-06
-0.00203927
-1.83428e-07
-3.23923e-07
-2.06761e-08
-0.000444019
-2.07509e-09
-1.19269e-07
0.000452206
-1.21332e-07
-0.00564149
-3.66054e-07
-1.3325e-08
-2.12404e-08
-1.03664e-07
-3.73018e-08
-5.89232e-07
-3.17759e-08
-3.14578e-07
-2.9571e-07
-0.000308817
-1.06246e-05
0.00055317
-2.8989e-07
-5.71338e-09
-5.74479e-07
-4.56188e-07
-0.000186896
0.000391927
-7.96626e-07
-2.90267e-08
-1.30975e-05
2.72337e-06
-0.00576366
1.46009e-06
-8.29458e-07
-0.00236575
-3.61021e-07
-1.2851e-06
-1.51417e-06
-3.91859e-07
-7.72079e-07
1.25291e-06
-7.3091e-07
-3.78853e-07
-9.01041e-07
-1.91182e-07
-1.43365e-07
-7.1422e-07
-4.27459e-07
-2.82786e-07
-3.50249e-08
-3.69434e-08
-8.95173e-07
-3.30162e-07
-9.23698e-07
-2.47422e-08
-1.95429e-08
-1.88071e-09
-1.58826e-07
-2.5151e-08
-2.69327e-07
-1.95642e-08
0.000179875
-1.63023e-06
-1.52359e-06
-4.63979e-08
-3.24692e-09
8.24795e-08
-6.43022e-07
9.75096e-10
-0.0106272
-4.22166e-07
-0.00337881
-7.09722e-07
-1.32799e-06
-2.37102e-07
-2.08794e-09
-2.54689e-08
-1.84476e-07
0.000303608
-2.59102e-09
-0.00467198
-2.70725e-07
0.000159665
2.71137e-07
-4.21414e-07
-2.40368e-06
-6.61575e-08
2.96282e-10
-1.64841e-06
2.03328e-09
-7.8245e-08
-0.00718719
-1.3257e-07
-1.30529e-09
-4.227e-07
-3.27562e-08
-3.78795e-08
-3.06582e-07
-2.12029e-06
-0.000270003
-4.05861e-07
-1.82515e-07
-6.09985e-08
-0.000132483
-2.58874e-08
-1.028e-07
-1.31848e-07
-0.0121798
-0.0035573
0.000400321
2.46519e-09
-3.79543e-07
-4.21576e-08
-3.14851e-08
-1.30372e-06
-4.29314e-07
-1.11182e-05
-1.01736e-07
-0.000460653
-1.51278e-07
-8.43184e-08
0.000408365
-2.46238e-08
-5.4879e-07
-9.57027e-08
-1.36289e-08
-3.17169e-07
7.48545e-07
-2.18063e-07
-0.00507841
-0.00131036
-7.64606e-07
-5.90398e-08
-6.87571e-08
-2.71841e-06
-0.00391837
-2.73454e-09
-0.000349593
-6.18092e-08
-4.18798e-07
-1.37866e-07
-1.50895e-07
0.000114737
-1.77326e-07
-0.00377626
-5.53419e-07
-1.4183e-09
-3.38169e-08
9.59461e-09
-9.33605e-08
-3.10467e-07
3.32312e-06
-1.71698e-07
-1.49626e-07
-0.000766514
-0.00158821
-1.10675e-06
-4.433e-07
-8.5873e-07
-4.03943e-07
-1.51388e-07
7.36085e-08
3.67768e-05
-3.60264e-07
-1.16472e-08
-1.68479e-07
0.000173325
-7.12231e-07
0.000751207
-3.06019e-09
1.15302e-09
-0.000413085
-6.55357e-07
-2.29203e-07
0.000246179
-1.10651e-06
-9.23956e-08
-8.16601e-07
-2.59106e-08
-1.68725e-07
-5.17783e-08
0.000422066
-1.73589e-08
-1.71056e-07
-1.5796e-07
-0.00352943
-4.91158e-07
-7.59078e-07
3.85725e-07
-1.51198e-07
2.23646e-07
-8.76542e-09
0.00067894
-3.66305e-08
-1.7622e-07
-2.02408e-09
-2.86671e-06
-6.42404e-10
-1.50212e-06
-0.00132977
-0.00300962
-4.5134e-08
-0.00458305
0.000463514
-7.28331e-08
-0.00058888
-0.00377407
0.000498965
-0.00158582
-0.000754737
-8.09465e-05
-1.61311e-06
-1.21381e-07
-0.00214142
-6.6238e-07
-0.00163134
-1.60655e-07
-1.3168e-07
-1.01967e-07
-1.04087e-08
-4.6032e-07
-4.13164e-07
-0.00037306
-1.32023e-07
-2.3338e-09
0.000133737
-5.39602e-07
1.22693e-08
-2.83454e-06
-4.57309e-07
-2.03476e-07
-8.94458e-06
-9.14821e-07
-6.59026e-08
-4.79778e-07
-0.0011242
0.00045011
4.34992e-07
-1.37053e-07
-9.71017e-07
-9.67093e-07
0.000453775
-0.000681407
-2.05113e-06
-1.18005e-07
-2.44336e-07
-1.48889e-07
3.8061e-08
-1.67918e-07
-1.71734e-08
-2.64993e-07
-3.38755e-07
0.00140845
-1.22611e-06
-1.76953e-07
-1.2975e-06
0.000698616
-3.7921e-07
-3.34085e-08
0.000228794
-1.44717e-07
-7.81147e-08
2.00909e-07
0.00165186
2.98211e-09
-7.36383e-08
-0.00148386
0.00173218
-0.00253658
-1.44414e-06
-0.0085202
-7.69467e-08
-1.66481e-06
-3.99216e-08
-3.61128e-08
-3.10042e-08
-0.0023792
0.000428783
-1.4502e-07
-3.52577e-08
-9.81311e-08
-0.0043347
-1.57939e-07
-5.26682e-07
1.71667e-09
-1.2949e-07
-1.34377e-06
-1.51938e-07
-6.0587e-07
-8.30759e-07
-0.00114863
-1.52816e-07
-3.37156e-07
-1.95961e-07
0.000200207
0.000689413
-3.86885e-08
0.000564284
-8.9708e-07
-1.18707e-06
1.31772e-09
-0.00223185
-3.68383e-09
-4.21343e-07
-3.47356e-07
-1.63572e-06
-0.00237488
-0.00641672
5.44492e-05
-0.00556764
-3.48992e-08
-3.03594e-05
-1.51307e-07
-1.93426e-07
-0.00134341
-7.40519e-08
-2.76782e-09
-1.81234e-07
-1.91492e-07
0.00107241
-5.42316e-08
-2.16086e-08
-9.71722e-07
-4.95743e-07
-8.38229e-07
-2.09585e-07
-4.44741e-06
0.000278136
-1.81391e-06
-6.91747e-07
-1.26213e-06
0.000110285
-1.1137e-06
-0.00236339
-0.0020235
-4.81699e-07
-1.53322e-07
-0.00178093
-0.00606164
-1.66334e-08
-1.16459e-06
-5.63203e-07
-2.40182e-07
-4.77554e-07
-1.96338e-07
-3.60495e-07
6.76205e-10
-8.5056e-07
4.10294e-08
-6.16254e-08
-6.49743e-07
-1.52692e-07
2.33761e-07
-3.18851e-08
-5.89354e-08
-8.36975e-07
-3.39227e-07
-2.01902e-07
-1.4883e-07
-8.51622e-06
-4.40916e-07
-0.00564339
-3.89333e-08
-1.37991e-07
-8.30608e-07
-9.39464e-08
-7.42979e-07
-4.00992e-07
-2.38113e-07
-1.09903e-06
-1.47295e-07
-0.00788664
-1.83023e-08
-1.03768e-06
-0.000110412
7.28844e-06
-8.38265e-08
-1.51122e-07
-0.00101075
-3.46638e-08
-5.29615e-08
0.000554688
0.000537794
-5.87829e-09
2.53046e-05
-1.39711e-08
-2.03351e-07
-0.00243726
-1.873e-07
-6.82343e-08
3.30787e-05
-1.55208e-07
-0.00476434
-7.38102e-09
-6.56258e-08
-9.87845e-08
-3.19643e-06
-0.00124967
-5.26935e-08
-8.93632e-08
-7.41118e-08
-1.3559e-07
-1.39918e-08
9.11907e-06
-6.7813e-07
-8.90585e-10
-0.0028694
2.03206e-08
-3.778e-05
-0.000634118
-2.30736e-06
-1.48404e-07
-3.8054e-08
-9.82032e-08
-1.43812e-06
-1.39618e-07
-0.00119822
0.000460451
-5.53685e-08
-0.00131454
2.72596e-08
-8.3737e-07
2.0355e-06
-1.0213e-07
-4.87366e-06
-0.00252306
3.98017e-09
1.43419e-05
-0.000205792
-1.43789e-06
-1.5592e-07
0.000116418
5.56308e-08
-1.51484e-07
-3.05079e-07
-0.00600772
-2.5989e-07
-1.16433e-07
7.11369e-08
-8.38581e-07
-3.5148e-07
4.90637e-05
-1.69412e-07
-0.00693103
-1.26469e-06
-0.00528413
-1.49011e-06
-7.64464e-07
-4.50372e-07
-1.43758e-07
-1.41849e-07
-0.00246633
-4.61319e-08
-7.51711e-08
-1.02019e-07
-1.77198e-07
-1.37124e-07
-3.26626e-07
-1.87101e-06
-5.58482e-06
1.11746e-06
-3.09309e-07
-0.00295138
-1.08645e-06
-1.41287e-07
-0.00404496
-0.00265218
-9.63467e-08
-5.37212e-08
-5.06537e-07
0.000324173
-2.42231e-09
-7.53769e-07
-1.09773e-06
-2.75593e-07
-2.93168e-08
-3.32593e-07
-1.57833e-07
-1.13763e-06
-2.86607e-07
-2.0132e-08
-0.00118968
-0.0023153
-1.59769e-07
-0.00052595
-1.51625e-06
-7.25225e-06
-1.21582e-07
-4.11555e-07
-0.00336424
-0.00445723
-2.04721e-06
-9.48736e-06
-3.3359e-07
-1.54212e-09
-1.81556e-07
-1.38134e-07
-3.08792e-08
-3.12406e-08
-1.92679e-07
-7.97148e-08
-3.92545e-07
-3.31853e-08
-4.25421e-07
-1.46043e-07
-3.52535e-07
-1.66422e-06
1.7994e-05
-7.19821e-08
-7.59829e-07
-1.79496e-07
-0.00372702
-2.80037e-08
1.71803e-07
-1.25961e-08
-3.64348e-06
0.000160851
-1.16735e-05
-8.25851e-08
-1.41127e-06
-1.10344e-07
-3.51072e-07
0.000281134
-1.65502e-07
-2.75585e-08
-4.92596e-07
-4.65917e-07
-0.00144393
-7.71025e-08
-8.53645e-08
-3.42697e-07
-3.27472e-08
4.48009e-07
-1.32084e-07
-4.28402e-08
-5.16574e-08
-6.54835e-06
-2.58044e-07
-0.000450443
-0.00208409
-7.67387e-07
-0.00133273
-2.39948e-07
-4.23315e-08
-3.71707e-08
0.000307461
-3.58114e-07
-2.1703e-07
-1.04756e-06
4.88349e-05
-9.0666e-08
3.34559e-05
-6.69088e-07
-8.29054e-07
-9.87699e-08
-3.55189e-08
1.02413e-05
-3.70983e-08
-1.79895e-09
-3.17738e-07
-1.47692e-07
-4.50664e-08
-4.13004e-07
-1.11124e-06
-1.77742e-06
-0.00193542
-5.30951e-07
-9.61875e-07
-0.00442938
-0.00105166
-1.0304e-06
-3.81273e-07
0.000300755
-7.70852e-07
-0.00350051
8.38788e-09
-0.000305254
9.19376e-05
-1.5389e-07
-2.38066e-09
-3.90935e-08
-2.74089e-07
-4.54897e-07
-1.45179e-07
-3.60233e-08
-2.26692e-06
-2.75851e-07
-2.70109e-07
-6.60318e-05
3.25419e-08
-3.66604e-07
-1.38835e-05
-2.26662e-07
-0.000882716
-4.46192e-07
-8.006e-07
-9.43019e-08
0.000158295
0.000445785
-1.10763e-07
-2.83118e-07
-0.00240169
-2.2662e-07
9.51392e-05
-1.81631e-08
-1.56489e-07
-0.000967325
-2.76686e-07
-3.80469e-07
0.000740558
-3.2533e-09
-7.02831e-07
-3.57745e-07
-3.69139e-08
-3.37753e-08
-0.00227467
0.00044396
-1.59441e-07
-3.22633e-07
-6.82381e-08
-2.66694e-07
-1.28307e-07
0.000227108
-6.97171e-08
-8.06505e-07
-0.00602336
-0.00543019
-0.00292484
-2.67924e-07
-2.97324e-06
-3.46119e-07
-2.35297e-07
-1.98706e-08
-1.12671e-06
-4.99191e-05
-6.20315e-08
-1.19035e-07
-0.00246587
-1.84435e-06
2.20764e-06
2.00051e-09
-8.96715e-08
-9.57919e-10
1.0444e-08
0.000421329
-9.01189e-07
-3.7224e-07
-2.96895e-07
-3.11027e-07
-1.21232e-09
-9.25294e-08
-4.5507e-09
-9.57617e-07
-1.19616e-06
-0.00300512
1.0198e-06
0.000788941
-0.00166912
-1.16325e-07
-8.67181e-07
-4.61894e-08
-2.26469e-07
0.000150443
-1.3131e-07
-1.69802e-07
-8.95007e-07
-2.00992e-06
7.64859e-07
-0.00259485
-0.00629208
-1.43825e-07
-9.98055e-05
-2.46636e-08
-2.02791e-07
-4.31333e-07
-1.77759e-09
-1.85854e-07
-1.97755e-06
-0.00802832
-1.5599e-07
-0.00300279
-1.35217e-07
-1.4318e-07
-1.7891e-07
3.21868e-06
-3.31474e-07
-4.4641e-07
-0.00717998
-1.86098e-07
0.000204455
-0.00181593
-2.85134e-09
4.37056e-07
-1.91442e-08
-0.00131478
-8.16228e-07
3.8324e-09
-0.00246912
-8.4972e-07
-1.3362e-07
-2.89587e-10
0.000470555
-2.77467e-07
-4.96651e-06
-3.08385e-07
-8.85911e-08
0.000329772
-1.45812e-07
-5.46619e-06
-5.39532e-08
-6.51832e-07
-7.77555e-08
-2.91709e-09
0.000422771
-1.29517e-07
-1.66699e-06
-7.10398e-07
8.71517e-07
-7.2115e-08
-6.65598e-08
-6.85781e-08
-0.00252567
-1.72398e-07
-0.000844633
1.03072e-07
-1.10213e-06
-1.4615e-07
-4.69507e-07
-3.49744e-08
-1.91069e-06
-0.00256185
-1.38525e-07
-1.22316e-07
3.00477e-06
-2.63223e-07
-0.00390579
-2.08567e-07
-0.00282428
-0.00574466
-4.05514e-07
-4.72557e-08
-5.54165e-08
-2.23888e-09
-1.98624e-08
-9.55423e-07
7.23675e-08
-6.28106e-07
-2.70338e-07
-1.45548e-08
-0.00108886
-3.32782e-07
-3.74957e-07
-0.00462986
-3.40102e-08
0.00116066
-8.12454e-07
-8.10222e-07
2.71147e-06
-7.39346e-06
-4.60357e-07
-0.0030411
-0.000848244
-1.01351e-07
-1.0671e-06
0.000393397
-5.52151e-07
-8.49073e-09
-1.32946e-08
-8.03282e-07
-0.00241493
-0.000925232
-7.78431e-06
-1.09369e-07
-9.14886e-07
-7.8985e-07
-0.00169939
1.00279e-05
-9.9861e-07
-1.05169e-06
-1.72523e-07
-4.06129e-07
-2.16367e-06
-9.81158e-09
-7.07015e-07
-0.00973594
-3.4366e-09
-0.00502577
-2.32464e-09
-1.67355e-07
3.67106e-05
-0.000110824
-4.03153e-08
-1.35196e-07
-1.83221e-07
-1.53865e-07
-2.46549e-07
-2.34536e-06
-3.2884e-07
-3.48082e-08
-1.43111e-08
-1.14711e-06
-3.71853e-07
-3.32333e-07
-0.000114473
-2.74657e-08
-7.41101e-05
0.000220051
-0.000351917
-4.98053e-07
-6.06512e-07
-0.00186864
-6.54886e-07
-0.00220054
-0.00727452
0.00192116
-1.31119e-07
-0.000880087
-0.0015474
-4.22165e-08
-3.36173e-08
-6.11725e-07
0.000845441
-0.00657645
-1.51353e-07
-1.07108e-07
-0.00106905
1.53081e-05
0.00596315
-2.25636e-07
-5.15649e-08
5.95913e-06
-8.10622e-08
-0.000726503
0.00167933
-0.00914665
0.000485535
-3.28819e-08
-8.88327e-08
-3.18172e-08
-8.19221e-08
-0.000380632
-1.00411e-06
-4.9258e-07
-1.28764e-09
-3.38236e-07
0.000404438
-1.15664e-06
-0.00703434
0.000181496
-0.000710217
-2.11987e-06
-2.10442e-08
-7.78404e-09
-0.00297608
-4.44918e-08
-1.56774e-07
-1.18938e-07
1.47187e-06
-7.23373e-07
0.00155418
-1.62114e-06
-3.72937e-08
0.000622616
-5.71953e-07
-1.35631e-07
0.000111561
-7.98664e-07
5.86706e-08
-2.07573e-07
0.000173986
0.000736386
-2.00885e-09
-0.00920322
-0.00659897
0.00103728
-3.70636e-06
-3.20719e-07
-1.02023e-07
-2.16547e-07
-1.0049e-05
-3.63362e-07
-0.00313641
-5.41867e-07
-0.00012949
0.000238712
-3.60227e-08
-1.11252e-07
-1.11709e-07
-6.21415e-08
0.000954781
-0.000803754
5.80627e-09
0.000216409
-9.91397e-07
-1.05664e-07
-9.80547e-08
-6.01835e-08
-1.67499e-06
-1.82168e-07
2.19344e-06
-5.10442e-07
-1.06277e-07
-3.47185e-08
3.59071e-07
0.000351829
-7.43014e-07
-1.81971e-07
-5.45465e-07
-3.23132e-08
-2.61856e-07
-5.36054e-07
0.000410555
-0.00109572
0.000790144
-4.85413e-08
-3.39401e-08
-1.22463e-07
-3.1659e-06
-6.73717e-08
-1.24294e-07
-2.15262e-06
-8.70094e-07
-0.00350708
-1.40393e-07
0.000662377
-0.00113762
-1.71146e-09
0.000324422
-8.22577e-07
-9.88248e-07
6.51451e-07
-1.24572e-07
0.00088729
-1.59111e-07
-8.26838e-08
-4.3975e-08
-4.13359e-08
-0.0035974
-3.00789e-07
-2.88628e-07
-3.44462e-07
-0.00156919
-0.00127502
-3.06934e-09
-2.06221e-08
-2.38962e-07
-1.4804e-07
-1.588e-06
-2.76797e-08
-7.53977e-07
-3.36921e-07
-1.73037e-05
-2.80536e-07
-0.000950144
-5.45679e-08
0.000188337
-1.96149e-07
-3.87389e-08
0.000950281
3.55326e-07
9.04445e-07
-0.00937511
1.29244e-08
-8.34967e-07
-2.67339e-09
0.000464926
8.81061e-09
-6.42236e-08
4.24984e-07
-1.65469e-06
0.00095643
0.000532129
-1.41542e-06
-0.00735913
-1.20495e-06
0.000102624
-7.59052e-09
-3.74891e-07
-5.31338e-07
0.000225295
-1.91636e-08
0.000655186
-0.000681717
-2.21006e-07
3.48509e-09
-9.70912e-08
-9.25873e-06
-1.4902e-06
-3.15975e-07
-1.80286e-08
-1.45818e-07
-3.59168e-07
-7.38107e-07
-6.85828e-06
-9.37473e-07
-1.61297e-08
5.04742e-06
-5.96516e-07
0.000157616
-9.01737e-07
-1.68136e-07
-2.75752e-07
0.000664635
-3.18064e-08
-7.64189e-07
-0.00215551
-9.60507e-08
-2.63301e-07
-2.30466e-06
5.90116e-07
-6.52561e-08
-0.000320866
-3.05821e-07
-3.59515e-06
-1.27853e-06
-1.76819e-07
-2.8319e-07
0.000732865
-4.74418e-08
-4.1205e-07
5.16702e-07
0.00107982
-6.72728e-07
-5.74317e-07
-4.98498e-07
3.50249e-07
-1.87669e-09
0.00111262
-5.20082e-07
-1.89506e-07
-5.31491e-07
-1.46033e-08
-1.13228e-09
-1.30957e-06
-1.81058e-08
-7.84225e-09
-9.2354e-08
-2.46645e-07
-7.15753e-09
-3.48477e-07
-9.30029e-07
-9.45953e-07
-1.0337e-06
-9.54213e-10
-1.53088e-07
-1.15477e-08
-1.2038e-06
-5.20727e-07
4.00144e-07
-1.5557e-06
-0.00313575
-4.74154e-06
-1.00083e-09
-0.00898049
-0.00273243
-7.99507e-10
-2.92115e-07
-3.36783e-08
-2.73173e-06
-5.45614e-07
-1.97461e-07
9.72006e-07
0.000589094
-4.48461e-08
-8.94943e-09
-0.00246609
-0.00073668
-1.65954e-06
-5.09543e-08
-0.00113801
-0.00184533
1.23041e-06
-3.72286e-08
0.000176316
-2.13578e-06
-6.81958e-08
0.000711293
-4.19061e-07
-3.54188e-08
-4.8293e-07
-1.45703e-06
-6.26545e-07
-0.00251801
0.000662094
-1.30976e-07
-0.00743717
-9.27131e-07
0.000474046
-5.55894e-08
-2.75594e-07
-2.79781e-10
-1.0404e-07
-0.000256785
-0.0038265
2.54469e-05
-0.00540894
-1.4759e-07
-6.5954e-07
-3.11068e-07
0.000870762
-0.000878817
7.16644e-09
-1.61903e-07
1.89356e-07
-1.60991e-07
-8.17703e-07
-0.00084036
-0.00801351
-6.87554e-07
-2.06137e-07
-2.17704e-07
-0.000261244
-7.94431e-08
-8.14372e-07
-1.23363e-07
-1.24793e-07
-1.61646e-06
-0.00600605
-0.00026271
-3.87811e-07
-7.72872e-09
-8.03413e-06
-3.05444e-07
-1.62252e-07
-0.0085079
0.000265162
-1.83519e-08
2.72829e-10
-1.00215e-06
-1.65843e-08
-1.56709e-08
-0.000463387
0.000472239
-2.27831e-07
3.68348e-08
-2.54517e-09
-3.47189e-08
-2.80099e-06
-1.42232e-07
-0.00256015
-1.11196e-06
-1.72443e-06
-1.3623e-07
-3.16693e-07
0.000620569
-6.60936e-07
-4.84663e-07
0.00147852
-8.61231e-08
0.000145356
2.17691e-07
4.42907e-07
4.05732e-08
0.000353158
0.000451653
-1.56084e-06
-9.53413e-08
-8.80841e-07
-1.46488e-07
1.13344e-08
-3.2979e-08
-0.00265838
-1.73235e-07
-0.000287173
-0.00731037
-7.4957e-07
-3.40419e-09
-1.40149e-06
-5.28149e-07
-6.48466e-10
-6.53769e-06
-1.26554e-08
-1.26025e-06
-5.92488e-07
-3.47302e-08
-0.00917032
-1.49295e-07
-2.89121e-06
-7.91935e-08
-5.26856e-08
0.00134802
-0.000656909
-4.28181e-08
1.84271e-07
-1.08218e-06
-4.69156e-07
-1.14285e-06
-5.49474e-07
-1.91009e-07
-3.93205e-07
-0.000686899
-5.86225e-08
-0.00283614
2.11171e-07
-0.00530642
-2.92187e-06
-2.70543e-07
-0.000623997
-1.32598e-08
-0.00203521
-5.73192e-09
0.000701945
0.00235249
-0.000433565
0.000738359
-2.66292e-05
1.42781e-07
-1.95767e-07
-0.000664012
-2.80377e-07
-4.20557e-09
0.000436008
-0.0023411
-5.18737e-08
-3.70062e-07
-3.93881e-07
-3.96397e-07
-7.65576e-07
5.59581e-05
-1.4054e-09
-8.11881e-07
-9.08343e-07
-5.19187e-08
-9.24434e-09
-1.51958e-06
-5.90613e-08
-0.00286177
-9.62558e-08
-9.64419e-07
-4.81155e-07
-7.69189e-07
-6.20719e-07
-0.00557767
-5.55795e-07
-1.19642e-07
-8.48069e-07
-0.00119004
-0.0027733
-2.46995e-07
-0.00321071
-5.00175e-07
-1.10962e-05
8.20037e-09
-1.31991e-07
-0.000261941
-1.44589e-06
0.00034426
0.00040483
5.73961e-09
0.000693964
-1.19119e-07
-6.0122e-08
0.000316966
1.18596e-06
-1.28206e-07
-0.000741996
-3.2934e-07
7.07455e-09
-1.5977e-07
-6.31668e-07
-1.59614e-07
-0.00423236
-0.0038644
0.00011957
1.38627e-05
-3.63178e-07
-4.75476e-07
0.000372606
-1.26805e-07
-7.36662e-08
-5.0815e-07
-4.28597e-08
-1.15307e-07
0.00165635
-0.000804207
-0.000302831
-1.02504e-06
-2.52697e-07
-4.45129e-05
-2.39709e-08
-9.14008e-07
-4.76035e-09
0.000541709
-1.82821e-07
1.6144e-07
-0.000751423
-1.03687e-06
-2.01708e-08
-1.43313e-07
0.00123583
5.59896e-09
-1.73418e-06
-1.48788e-07
-0.00570918
0.000664044
-7.65586e-07
5.15317e-07
-3.21476e-08
-0.00516294
-1.70636e-06
-7.37595e-07
-1.45904e-07
-2.64507e-07
-1.05217e-08
-1.03395e-06
-5.12311e-09
-1.46343e-06
1.42116e-08
-8.3627e-08
-0.000529928
-1.40052e-07
-3.44643e-07
-4.68499e-07
-1.06106e-09
-0.000786363
-1.33743e-07
-2.63872e-07
-0.000173959
-1.36685e-06
-0.00283051
-1.97112e-08
0.000768418
-1.42934e-06
-0.000575787
-1.69586e-07
-3.08393e-07
-2.21732e-07
-8.32528e-07
-8.40647e-07
-2.03931e-06
-4.50943e-07
0.000273891
-2.78139e-06
-1.66187e-05
-3.75951e-08
-9.88502e-07
-2.06412e-07
0.000116077
-8.45354e-08
-2.2607e-07
-3.27729e-08
-9.9294e-07
-2.82414e-07
-0.00206509
-8.16806e-07
-0.00269959
-0.00927213
-1.88955e-06
-1.00722e-07
-0.00990445
-5.23602e-07
-3.3801e-08
-6.03768e-08
-5.09771e-08
-0.00543464
-2.15077e-08
-0.000710171
-1.37458e-07
-5.32802e-07
0.000478368
-3.24161e-07
-2.72918e-08
-3.32714e-08
0.000108931
-1.29257e-07
-1.20875e-07
-3.93329e-07
-2.49337e-07
-3.03821e-07
-1.15818e-07
1.25519e-05
7.52505e-07
-5.91444e-08
1.06206e-06
0.000648676
-0.00080187
0.000172274
-5.48234e-08
-6.95695e-08
-3.77312e-07
-2.53035e-07
7.09572e-07
-0.00311746
-0.000373165
-4.60675e-08
-4.07158e-09
-0.00185693
-0.000400277
-5.78541e-08
-1.25492e-07
-2.70979e-09
-0.00156684
-0.00234598
-2.42456e-07
-3.73114e-07
-7.24868e-09
-1.18143e-05
-1.21615e-06
-3.10709e-07
6.33764e-07
2.16778e-07
-6.81611e-09
-5.74131e-07
-1.99783e-05
-3.50668e-08
-1.8718e-07
-3.06982e-07
-0.00191143
-8.7611e-08
0.00035751
-1.74294e-08
-0.000211899
-1.57738e-07
-8.63229e-07
-5.10825e-08
-5.60892e-08
-1.92521e-06
-0.013022
4.37973e-07
-0.00138721
0.000987154
-7.36149e-08
-0.000128821
3.62859e-06
-1.32687e-07
-0.00474366
-0.00221455
-7.9379e-07
-1.71552e-09
-0.00142962
0.000524827
-1.83585e-07
-3.41069e-08
-0.000972469
-2.52166e-07
-9.19338e-08
-1.20745e-07
-1.94921e-07
-3.60362e-07
-8.42219e-07
3.11715e-06
1.0386e-06
-4.60617e-07
-6.08404e-08
-8.43757e-08
-0.00336096
-1.31342e-07
-2.88016e-07
-7.32016e-08
-3.4821e-07
-6.84856e-07
-3.56275e-08
-1.15898e-07
-1.26732e-05
-3.02924e-08
0.000545378
-3.58478e-08
-0.000124424
-0.00122477
-8.90593e-07
-1.08188e-07
8.21079e-10
0.000381336
-3.78273e-08
-2.39983e-07
-2.27489e-08
-9.93351e-07
7.42636e-05
-5.66376e-07
-0.00083896
-1.71176e-07
-0.00266711
-1.32912e-09
-7.85266e-07
-1.56881e-07
-1.2043e-08
0.000181764
-0.000399243
-1.54161e-05
-2.12723e-07
-8.27125e-07
-8.77665e-07
0.000760364
-0.000173434
2.62657e-06
-5.51877e-07
-1.92906e-08
0.000352672
-1.57124e-07
-1.58154e-07
-6.44741e-06
-1.40113e-06
1.46931e-07
-3.85701e-07
-4.63156e-07
-2.88281e-07
-4.00208e-07
0.00063032
-3.2387e-07
-3.42776e-08
0.000276361
-8.09201e-07
-9.08184e-08
-0.00152778
-1.85756e-08
-1.70409e-08
-1.36336e-06
-5.75497e-07
0.00124303
-9.46689e-08
-9.91026e-08
-9.18588e-08
-5.05392e-06
-1.26982e-07
3.96327e-06
-0.00490256
-0.00123542
-0.00161579
-0.000412178
-4.90332e-07
0.000418521
-3.02298e-06
-6.76538e-09
-1.56371e-07
4.84512e-07
6.0653e-08
7.70043e-08
-4.40818e-05
0.000791204
-0.00168325
4.36676e-08
-7.84691e-08
-7.50042e-07
-1.59986e-08
0.000271515
-4.82855e-07
-3.35305e-07
-2.88358e-07
-2.16799e-07
-1.20319e-07
-1.12066e-06
0.000809503
-4.89965e-08
-2.58893e-07
-3.40411e-08
-9.88915e-06
-2.59837e-07
7.4228e-05
-0.00266143
6.48299e-06
-6.33659e-09
-1.18083e-07
1.41198e-05
8.66215e-07
-8.8209e-09
-6.74339e-07
-4.20534e-09
-4.74309e-07
-4.39833e-07
-1.04164e-06
-8.97933e-07
-0.00453263
-1.26313e-07
-1.5597e-07
-0.000623752
-0.00172361
-4.16736e-07
-2.24766e-07
-9.84004e-08
-0.00104509
-4.28485e-08
-3.10825e-08
-2.25695e-07
-6.99614e-08
0.000454399
2.93691e-05
-0.00228556
-1.63552e-06
0.00051312
1.43897e-06
-3.97828e-08
-7.69914e-07
-6.7408e-08
1.99619e-06
-1.85762e-07
-1.01441e-07
-5.63991e-08
-5.49725e-08
-1.47558e-07
-9.79335e-05
-3.04148e-07
-4.92487e-06
-1.32466e-07
-2.90585e-07
-2.99005e-07
-1.50061e-06
-3.02952e-08
-6.19993e-07
-9.13831e-07
-2.56643e-07
-0.000244881
-5.85729e-08
-0.000657448
-5.47497e-07
-2.69864e-07
-2.64286e-08
-6.88283e-08
-0.00144578
0.00016818
-1.9154e-07
-1.47667e-07
4.14276e-05
0.000110526
-5.66214e-07
-0.00026437
-9.47616e-08
-0.00311483
-7.02638e-07
-5.5965e-08
-0.00335183
-3.44626e-07
-0.0021059
-2.6964e-08
-2.04104e-07
-1.6023e-08
9.62138e-05
-0.00115167
-5.14085e-08
3.25472e-06
2.49204e-05
-1.47697e-08
-1.45198e-07
-9.68846e-08
3.73313e-06