/*--------------------------------*- C++ -*----------------------------------*\
| =========                 |                                                 |
| \\      /  F ield         | OpenFOAM: The Open Source CFD Toolbox           |
|  \\    /   O peration     | Version:  v2012                                 |
|   \\  /    A nd           | Website:  www.openfoam.com                      |
|    \\/     M anipulation  |                                                 |
\*---------------------------------------------------------------------------*/
FoamFile
{
    version     2.0;
    format      ascii;
    class       volScalarField;
    location    "700";
    object      k;
}
// * * * * * * * * * * * * * * * * * * * * * * * * * * * * * * * * * * * * * //

dimensions      [0 2 -2 0 0 0 0];


internalField   nonuniform List<scalar> 
13917
(
0.000165208
0.000149641
0.0541319
0.000156216
0.000148667
0.000194089
0.0509458
0.0553663
0.0622763
0.000172328
0.000193427
0.000180008
0.000156396
0.0105895
0.00015532
0.000154329
0.000150004
0.000172408
0.000179886
0.000148641
0.000149754
0.0499234
0.000148498
0.0552693
0.000148221
0.0485549
0.000161599
0.000164278
0.000198599
0.000179809
0.000166511
0.000157607
0.000160046
0.00015453
0.000148399
0.00818202
0.000148558
0.0344393
0.000159414
0.0164283
0.000147412
0.000149895
0.000145832
0.000168006
0.00014986
0.000155883
0.000172131
0.000177865
0.000358962
0.000147967
0.000158584
0.000149869
0.000615391
0.000154838
0.00015005
0.000157777
0.000192389
0.000148731
0.000155427
0.00014963
0.0413617
0.000149672
0.00602193
0.000148559
0.000192455
0.00139026
0.000148684
0.000148557
0.000192163
0.000163073
0.000148713
0.062025
0.0333131
0.000148218
0.000368961
0.000183612
0.0235986
0.000152028
0.0462599
0.000149533
0.000149301
0.000148725
0.000189495
0.0377271
0.0432851
0.000151828
0.000149122
0.000674895
0.000158272
0.000145845
0.0360683
0.000176852
0.00014826
0.000151367
0.00115868
0.000189489
0.000187591
0.00017629
0.000190553
0.000170262
0.00014674
0.000158604
0.000167953
0.000153249
0.000146959
0.0629913
0.000188976
0.000178507
0.000150048
0.000167579
0.0399247
0.0179743
0.000184004
0.0630444
0.000151198
0.000396967
0.000148005
0.000268703
0.020459
0.000154809
0.000149807
0.000191444
0.0225685
0.000163654
0.000147733
0.000151112
0.000149497
0.000147792
0.00014569
0.000191829
0.0335132
0.000151025
0.000149918
0.000149809
9.08772e-05
0.0550649
0.000165304
0.00017082
0.000148644
0.000154656
0.00170229
0.000147568
0.000150466
0.000169807
0.000148576
0.0559445
0.000201519
0.000149728
0.000147201
0.000158011
0.00017515
0.000399628
0.00018344
0.000163781
0.000157339
0.0245201
0.000162237
0.0145785
0.0201053
0.000119372
0.000153126
0.000161697
0.000149534
0.000186841
0.000183732
0.000189752
0.000153152
0.000175742
0.000148918
0.000159047
0.000164428
0.0227369
0.000185458
0.000150816
0.0474042
0.000164851
0.0356487
0.00029597
0.052266
0.000148133
0.000177554
0.000167169
0.000147588
0.000149055
0.000158081
0.0502638
0.000197831
0.0352428
0.000164517
0.000188712
0.000557726
0.0487961
0.000195534
0.000148577
0.000171643
0.000161297
0.000153986
0.000148319
0.000179427
0.000398997
0.000158874
0.000148074
0.000174528
0.000174966
0.0291596
0.000119105
0.000148385
0.000148832
0.00017603
0.0524052
0.000150222
0.0509385
0.021536
0.000188761
0.000146965
0.000194838
0.000173859
0.0241108
0.000147843
0.0225896
0.000148053
0.0001789
0.000147237
0.0367063
0.0634891
0.00015466
0.000253025
0.000157649
0.000146966
0.00576839
0.000185188
0.000164374
0.0545701
0.0176075
0.000146463
0.000158039
0.0398112
0.0323392
0.000149475
0.000147533
0.0188479
0.000189524
0.000149757
0.000893367
0.000181349
0.000161443
0.000163672
0.000149476
0.000164171
0.0196504
0.000150527
0.000180589
0.000173254
0.0001494
0.000148659
0.000179603
0.0243895
0.000182418
0.000158267
0.00015549
0.00014979
0.0181055
0.0496273
0.00521375
0.000146975
0.0321908
0.0182503
0.0232638
0.0450745
0.000184739
0.000149377
0.000147413
0.000172394
0.031813
0.000185772
0.000155083
0.000353158
0.0001731
0.000145636
0.00758237
0.000148473
0.0502159
0.000158304
0.000149722
0.000156498
0.000163733
0.000161742
0.000950554
0.000160097
0.000150509
0.000221103
0.0546428
0.0568941
0.000147839
0.0257564
0.000149107
0.000150532
0.000148036
0.000215533
0.000148566
0.000180236
0.000163081
0.000148841
0.000174756
0.000152113
0.000356049
0.000164552
0.000175689
0.000148432
0.000148583
0.0375739
0.0210043
0.000147973
0.000147329
0.00456004
0.000148086
0.0359095
0.000148283
0.0389863
0.000153022
0.000200453
0.000164117
0.000416952
0.000152717
0.00011924
0.00018323
0.000156528
0.000189262
0.000193575
0.000149749
0.0330117
0.0001719
0.0212352
0.000153742
0.0162769
0.000158672
0.0522651
0.000180248
0.000171965
0.000171635
0.0530887
0.000149387
0.000164939
0.0443597
0.00014939
0.000152402
0.0189898
0.000182049
0.000150673
8.38337e-05
0.000196593
0.000146948
0.0175829
0.00194648
0.000148426
0.000147285
0.000149162
0.000147195
0.000218595
0.0500247
0.000211255
0.0421695
0.000148109
0.000182176
0.00717788
0.000169369
0.0499727
0.0354218
0.0634893
0.000146506
0.00399444
0.000147178
0.0140793
0.00014959
0.000438144
0.000181331
0.000157533
0.000149254
0.00017522
0.000178864
0.000177441
0.000667315
0.0473712
0.0189009
0.000164589
0.000171426
0.000147578
0.0359874
0.0484622
0.000148877
0.00019464
0.000148279
0.000211275
0.00015295
0.00014946
0.00015211
0.0438205
0.000152035
0.0274141
0.018842
0.000190539
0.000192618
0.000149721
0.000191864
0.00018954
0.000148128
0.000183166
0.000149287
0.000148258
0.000179735
0.000149719
0.000148282
0.000147148
0.00020445
0.000149614
0.0187597
0.0485674
0.00603709
0.000195439
0.0316282
0.0239366
0.000169064
0.000148117
0.000190212
0.000158965
0.000159062
0.000148524
0.0546105
0.0510273
0.0496067
0.000154167
0.000183432
0.000153394
0.000159892
0.000177365
0.000151551
0.00550785
0.000150026
0.00014853
0.0399008
0.0344368
0.0362801
0.000180006
0.00404694
0.0363264
0.0457537
0.0229027
0.000145824
0.000174205
0.000151634
0.00014897
0.00019241
0.000172628
0.000150227
0.000174133
0.000167782
0.0219663
0.000148102
0.000186194
0.0245931
0.00021352
0.0226476
0.000149669
0.000148922
0.0001539
0.000162276
0.000146506
0.0509611
0.000202003
0.000160076
0.0366994
0.000157721
0.000187367
0.050064
0.000202385
0.000189932
0.00193469
0.000186299
0.000173372
0.000189766
0.000171187
0.00019537
0.000195815
0.000174412
0.000180575
0.000148486
0.000130372
0.000159194
0.000148168
0.000161441
0.000152372
0.0234667
0.0629369
0.000147984
0.000145908
0.0525485
0.0194388
0.000149721
0.018277
0.000153373
0.000190349
0.00014812
0.0277484
0.0013817
0.000157996
0.00015038
0.0345376
0.00019363
0.0111571
0.000149776
0.0222696
0.00036251
0.00742852
0.000148196
0.0383999
0.066913
0.000169632
0.000147254
0.000149908
0.000184028
0.000209985
0.000149506
0.000147297
0.000147554
0.000147517
0.0280037
0.000184596
0.000169308
0.000196861
0.00014776
0.000146768
0.000183097
0.0604772
0.000162456
0.00014905
0.000148238
0.000148515
0.00867773
0.0543044
0.000149082
0.000148491
0.0030754
0.000170719
0.000164125
0.000148838
0.000152193
0.000156621
0.000180133
0.000188969
0.000197821
0.000190512
0.00018268
0.000125927
0.000175525
0.000147885
0.0228846
0.000148532
0.000152788
0.00015637
0.000128278
0.000169326
0.000146827
0.000214009
0.000181699
0.00895445
0.000182711
0.00016024
0.000168826
0.000149189
0.0607765
0.000202666
0.0486125
0.000149731
0.00016009
0.000197533
0.0370624
0.00657047
0.000176997
0.000182038
0.000154177
0.000153983
0.00014888
0.000165235
0.000168509
0.000149255
0.00017369
0.000172423
0.0496845
0.013149
0.000153473
0.000186813
0.00108846
0.000157492
0.000150027
0.00045084
0.0534891
0.0586941
0.000195923
0.000145784
0.0197284
0.000183334
0.000147182
0.000160807
0.000179923
0.000159563
0.000179722
0.0462931
0.000189126
0.000168615
0.0610309
0.000152905
0.0197702
0.000149539
0.000149031
0.0289266
0.0557109
0.000201307
0.000152922
0.000150672
0.000148491
0.000173484
0.000395382
0.000189134
0.000154285
0.000189239
0.000174891
0.000148153
0.00025838
0.000188711
0.0136957
0.000147792
0.000188824
0.00015228
0.0246696
0.000172728
0.000169349
0.000160251
0.000147054
0.000147615
0.000149655
0.000172939
0.000156144
0.000199223
0.000488137
0.000175367
0.000146998
0.0001884
0.000201708
0.0110747
0.000150337
0.000155728
0.000147337
0.000162644
0.000155675
0.0668084
0.000149474
0.00036749
0.0001621
0.000193229
0.00017668
0.033263
0.000170091
0.000149781
0.0298809
0.010514
0.00014885
0.000156305
0.00186382
0.000192829
0.000185754
0.000149544
0.000150508
0.000194529
0.000157779
0.000177128
0.000178889
0.000147767
0.000175153
0.0543323
0.00015044
0.000154653
0.00014769
0.0197639
0.000149746
0.000153853
0.0243045
0.000152094
0.0521629
0.000157326
0.000160278
0.000147641
0.000166168
0.00014808
0.000172714
0.000147087
0.000172278
0.000153325
0.0172356
0.000302839
0.0607621
0.000152365
0.000149309
0.000174812
0.000168861
0.0231632
0.0624856
0.000172091
0.000148352
0.0002039
0.000202379
0.0111909
0.00019714
0.000171863
0.0463473
0.000164746
0.000172098
0.000186942
0.000176803
0.000171826
0.000225959
0.000171371
0.000155554
0.000180862
0.000156661
0.000149025
0.000162426
0.000167586
0.000157477
0.000148145
0.000147412
0.000175169
0.000154066
0.000177315
0.000148332
0.000148361
0.000149803
0.000151958
0.000146003
0.000155697
0.00014783
0.0270574
0.000180144
0.000189025
0.000146606
0.000149613
0.000163321
0.000173625
0.000150698
0.0213802
0.000173727
0.00146142
0.000162344
0.000185343
0.00015165
0.00014977
0.000147401
0.000152103
0.0176711
0.00014967
0.00130578
0.000156045
0.00873534
0.000164953
0.00017421
0.000192901
0.000146473
0.000149934
0.000180236
0.000148551
0.000150119
0.0111356
0.000150992
0.000149152
0.000158334
0.00014748
0.00014634
0.000157607
0.000156597
0.0184703
0.000162402
0.000150459
0.000147187
0.040505
0.000172763
0.000149509
0.000149733
0.0135793
0.00110265
0.0196373
0.000160228
0.000155553
0.000146522
0.000146195
0.000174698
0.000163068
0.000142956
0.000154051
0.0304485
0.000150161
0.000152398
0.0168019
0.000148313
0.000159446
0.000148547
0.000148414
0.000166936
0.000161963
0.000151316
0.0541362
0.0216774
0.000176982
0.000147876
0.000146668
0.000188448
0.00142085
0.000149716
0.000123025
0.000146541
0.000166529
0.000149902
0.000149148
0.000209327
0.000149841
0.0439412
0.000165479
0.000149802
0.000146001
0.00014881
0.000147647
0.000154369
0.000412992
0.000150014
0.000148422
0.0586259
0.0598887
0.000169344
0.000168348
0.000176883
0.000156255
0.000147647
0.000156396
0.027368
0.000172929
0.000148777
0.000150216
0.0630164
0.000165047
0.0481829
0.00014975
0.000150888
0.0175566
0.00016383
0.000151594
0.0160926
0.00029071
0.000147606
0.000185638
0.000147384
0.000149627
0.000146562
0.0353192
0.000145909
0.000151178
0.000147671
0.0466484
0.000158118
0.000190354
0.00016569
0.000149332
0.000158818
0.000149082
0.0436867
0.000147644
0.00015017
0.000149154
0.000188896
0.000149102
0.000189494
0.017652
0.0540142
0.000155358
0.00210496
0.0283337
0.000148551
0.0163433
0.055865
0.0316908
0.0315276
0.0576925
0.00595788
0.000187572
0.000150026
0.0452538
0.00016366
0.0473068
0.000147997
0.000148284
0.00014957
0.000149031
0.000157426
0.000158313
0.0243348
0.000148203
0.000148486
0.0101329
0.000183803
0.000148812
0.000160706
0.000159787
0.000150596
0.000295658
0.000160993
0.000152542
0.000157992
0.0174694
0.0207207
0.000251893
0.000149733
0.000193541
0.000181637
0.0307943
0.0639152
0.000185439
0.000148136
0.00015181
0.000150137
0.000145361
0.000152168
0.000145728
0.000156712
0.000164239
0.0412156
0.000188492
0.000151173
0.000184887
0.0468922
0.000165937
0.000149768
0.0210845
0.000148676
0.000149894
0.000160622
0.0433338
0.00014912
0.000147823
0.0508343
0.000572009
0.000678288
0.000184085
0.00665503
0.00014764
0.000190674
0.000149879
0.000147874
0.000149864
0.0502737
0.0238621
0.000148618
0.000146033
0.000148684
0.00217841
0.000151756
0.000160357
0.000148524
0.000150369
0.000190362
0.000149494
0.000173196
0.000190426
0.0368135
0.000149242
0.000171464
0.000153661
0.0313694
0.0448107
0.00014824
0.0363152
0.000177685
0.000266281
0.000149103
0.0427679
0.000149613
0.000157511
0.000166283
0.000183921
0.0523551
0.0151916
0.000211565
0.0554517
0.000146946
0.000210084
0.000149171
0.000156674
0.0507052
0.000149026
0.000149669
0.000151555
0.000150333
0.0385248
0.000146306
0.000148434
0.000175379
0.000168664
0.000172448
0.000200568
0.000191368
0.0172112
0.000181349
0.000164594
0.000171719
0.0275405
0.000169667
0.00412249
0.0474968
0.000157624
0.000149662
0.0319679
0.0121076
0.000149736
0.000183596
0.000162824
0.000152216
0.000157881
0.000150509
0.000166335
0.000149942
0.000171528
0.000170536
0.0001472
0.000173791
0.000148803
0.000166667
0.000147061
0.000154969
0.000174544
0.000154339
0.000150648
0.000148604
0.000275395
0.000175047
0.0495755
0.000148287
0.000149538
0.000175669
0.000148536
0.000179749
0.000175029
0.000152187
0.000181576
0.000148699
0.0177574
0.000149627
0.000168362
0.0214633
0.000208523
0.000147707
0.000152633
0.0147236
0.000147885
0.000147409
0.0344968
0.039448
0.000153063
0.000205736
0.000148574
0.000150699
0.0509087
0.000151929
0.000146521
0.000161137
0.000149015
0.00405405
0.000149253
0.000146467
0.000149537
0.000192239
0.0281911
0.000149178
0.00014975
0.000147633
0.000155037
0.000148377
0.000220119
0.000173386
0.000149772
0.0524707
0.000165063
0.000213623
0.0382542
0.000430382
0.000148471
0.000149609
0.000148866
0.000199049
0.000155531
0.0279683
0.0269589
0.000152666
0.0496779
0.000336429
0.00017188
0.000199682
0.000169057
0.000189505
0.0527391
0.000167088
0.000233959
0.0399274
0.000179307
0.000154447
0.0283214
0.000164302
0.000148061
0.000153582
0.0251398
0.000163083
0.000147924
0.000166426
0.000181161
0.00016448
0.0280268
0.000152906
0.0482561
0.000171138
0.0131731
0.000185184
0.000194383
0.00015929
0.000148552
0.000150746
0.0542361
0.000147907
0.000152914
0.00014753
0.000152218
0.000148389
0.000160567
0.000194876
0.000289351
0.000162819
0.000164978
0.0500474
0.000187108
0.000148504
0.00201459
0.0501181
0.000147012
0.000147364
0.000160723
0.0206043
0.000149672
0.000176401
0.000200602
0.000166959
0.000148792
0.000154441
0.000149239
0.000183457
0.000163297
0.000147769
0.0104625
0.0462502
0.000163741
8.41595e-05
0.000179655
0.000345096
0.000152005
0.000156562
0.0517864
0.000430334
0.00018556
0.000254203
0.000158014
0.000149825
0.000149955
0.000149669
0.000148492
0.000150573
0.000166862
0.000147752
0.000188928
0.000147473
0.000158816
0.000149011
0.000174344
0.000188931
0.000220955
0.000148463
0.000194334
0.000149909
0.0514046
0.000148268
0.000154461
0.000148733
0.000207941
0.030291
0.000193323
0.000147744
0.000188422
0.00014883
0.000159099
0.037398
0.000149409
0.000149891
0.000167931
0.000160818
0.0498005
0.000147776
0.00015833
0.000155
0.000148186
0.000158777
0.000150468
0.000146352
0.000152335
0.0214646
0.000154276
5.657e-05
0.0574496
0.000171753
0.0300147
0.000153918
0.00014638
0.000158973
0.0192541
0.000155196
0.000162383
0.000169817
0.000267186
0.000147548
0.00330135
0.000174209
0.000176769
0.000146944
0.00014603
0.000209263
0.000150076
0.000149896
0.000159198
0.00014781
0.000153297
0.000158397
0.000179922
0.000185079
0.0503283
0.000158875
0.00018027
0.0394888
0.0138212
0.000168252
0.000179882
0.0199655
0.00016636
0.0169188
0.000152339
0.00132141
0.00386638
0.000148393
0.000149722
0.000147584
0.000152886
0.000167653
0.000149182
0.000152635
0.000185717
0.000153088
0.000160474
0.0331784
0.000157706
0.000155178
0.0624103
0.000151541
0.018339
0.000156665
0.00016531
0.000147488
0.0219185
0.0244829
0.000148854
0.00015308
0.0456134
0.000157347
0.0141651
0.000147991
0.000149078
0.0497123
0.000152655
0.000162657
0.0131452
0.000148467
0.000172269
0.000158729
0.000146056
0.000147221
0.0453331
0.0267383
0.000149961
0.000154038
0.000148846
0.000156281
0.000160311
0.0219931
0.000150707
0.000323599
0.0258211
0.0127996
0.000561025
0.000152467
0.000189605
0.000177152
0.000157116
0.000148376
0.000177485
0.0342924
0.000151978
0.000162686
0.0559361
0.000454449
0.000182868
0.000154103
0.000149715
0.000149615
0.00014852
0.0212758
0.000174139
0.000155176
0.000153393
0.000154653
0.00014978
0.000148412
0.000148521
0.000179952
0.000170196
0.0511475
0.000163381
0.0127412
0.0291179
0.000158728
0.000172223
0.000146704
0.000157519
0.0187661
0.000149455
0.000152681
0.000173014
0.000185928
0.000164526
0.0478984
0.000114111
0.000148648
0.0319522
0.000145878
0.0001507
0.00016395
0.000149804
0.000150541
0.000191813
0.0394248
0.000149002
0.0513459
0.000149427
0.000148485
0.000152547
0.000354361
0.000158573
0.000156713
0.0290368
0.000151785
0.0001516
0.0361512
0.000149607
0.000163605
0.000147912
0.0173263
0.000176736
0.000148568
0.0488883
0.000173233
0.000167784
0.000149841
0.0234949
0.000157401
0.000193742
0.000154326
0.000167231
0.0227587
0.000148438
0.000242087
0.000149094
0.000173938
0.000164031
0.0001496
0.0288583
0.00015249
0.000185672
0.000173165
0.000169405
0.000162974
0.000163217
0.000150565
0.055702
0.000159275
0.0156938
0.000157984
0.00017854
0.000149048
0.000167181
0.000148726
0.000182084
0.0535471
0.000151161
0.000147484
0.00041929
0.000152373
0.0431567
0.000151143
0.0517481
0.0142193
0.000162477
0.000147875
0.000147564
0.00014868
0.000145801
0.000182329
0.000165858
0.00016092
0.00015568
0.000148426
0.000139905
0.000154266
0.000161713
0.0353906
0.000148616
0.0273907
0.000172758
0.000163876
0.000252237
0.0309467
0.00022417
0.0526543
1.00151e-05
0.000147536
0.000190932
0.0282676
0.000185517
0.000149077
0.0001495
0.000187673
0.0480161
0.0186614
0.000209691
0.000152751
0.000164482
0.00016686
0.0343251
0.00291955
0.000169571
0.000188659
0.00015315
0.000174737
0.000185784
0.000149017
0.000181525
0.0155695
0.000148804
0.0128278
0.000149658
0.000149611
0.0259732
0.0379664
0.000146899
0.000153046
0.000150876
0.000148912
0.000166257
0.000192275
0.000154354
0.0001478
0.000148542
0.000170082
0.000157852
0.000157534
0.000221597
0.000148426
0.0411528
0.0153022
0.0483586
0.000174691
0.000171
0.000495544
0.000163275
0.0449277
0.00753784
0.000252505
0.000150323
0.0682365
0.0297343
0.000146441
0.000148153
0.000179984
0.0481521
0.012305
0.000149495
0.000148843
0.034988
0.000337536
0.000287094
0.000153573
0.000152683
0.000305872
0.000149481
0.0387702
0.0322635
0.00840046
0.000260136
0.000148837
0.0001477
0.000147095
0.000155038
0.0273105
0.000168859
0.000157875
0.000150538
0.000172122
0.0211601
0.000170169
0.0415639
0.013057
0.0198963
0.000313257
0.000148353
0.00014907
0.0519472
0.00014617
0.000147923
0.000151618
0.000414606
0.000165489
0.0427949
0.000185221
0.000148143
0.0615152
0.000165323
0.00014836
0.0151376
0.000175277
0.000154057
0.000151052
0.00616758
0.0502634
0.000149141
0.0331325
0.0285564
0.0578301
0.000240327
0.000174724
0.000148056
0.000151398
0.000249254
0.000156122
0.0526304
0.000166417
0.000258885
0.000172284
0.000151149
0.000157466
0.000148177
0.000150783
0.0504257
0.0155275
0.000148517
0.0197153
0.000169979
0.00014887
0.000153795
0.000147555
0.000190421
0.000150813
0.000315466
0.000164606
0.000148013
0.000147017
0.000169317
0.0179344
0.000166014
0.000153329
0.00016689
0.000148671
0.000152752
0.000159365
0.0172879
0.024497
0.0494237
0.000146331
0.00014697
0.000150134
0.000189422
0.000147227
0.000150288
0.000192187
0.000175607
0.00163366
0.000148149
0.0498306
0.0247058
0.000149885
0.0165217
0.000186389
0.000167847
0.000317413
0.000149971
0.0352083
0.000157689
0.000151475
0.000152701
0.000146123
0.000780131
0.000153654
0.000153927
0.000157916
0.0273097
0.0296756
0.000149606
0.000147997
0.000153047
0.000149203
0.000186257
0.000150118
0.000178663
0.000154256
0.0328946
0.000153064
0.0486817
0.000146404
0.0633995
0.000150879
0.000146089
0.0592815
0.000183082
0.000170934
0.00779908
0.000162598
0.000167489
0.000148508
0.0293623
0.000148505
0.000147253
0.000168775
0.00018036
0.0477961
0.0356365
0.000185099
0.0431495
0.000184774
0.000217544
0.000150069
0.000155746
0.000159879
0.0424605
0.000153776
0.043499
0.023634
0.000151564
0.000148832
0.000148714
0.000246747
0.000418363
0.000153775
0.000148619
0.000155077
0.000157971
0.000165935
0.000203619
0.000187616
0.000148293
0.000209203
0.000177815
0.0176337
0.000177133
0.000152188
0.000153801
0.0599495
0.000147071
0.000179392
0.0530647
0.000150939
0.000155272
0.000192467
0.000173173
0.000150921
0.0177544
0.000154614
0.000210196
0.000171594
0.000158398
0.00015289
0.0481341
0.000147
0.000170555
0.000257124
0.0535752
0.000170527
0.000173742
0.000158019
0.000163697
0.000149752
0.0555116
0.000158739
0.000150044
0.000160404
0.000148492
0.000149775
0.000410103
0.000148411
0.000149117
0.000148868
0.0001891
0.000149602
0.000161131
0.000179847
0.000190871
0.000183254
0.00014967
0.000180919
0.000189358
0.000192101
0.000177572
0.000156041
0.00019005
0.0538328
0.000210467
0.000149887
0.00826252
0.0506956
0.000149882
0.000154221
0.000145993
0.000209365
0.000180289
0.000150737
0.000251308
0.0422021
0.0001467
0.000149488
0.0464928
0.0256163
0.000180483
0.000146253
0.00203234
0.0334306
0.000476516
0.000148104
0.0435856
0.000184686
0.00016714
0.0429792
0.000157197
0.000146047
0.000160238
0.000189173
0.000162413
0.0480686
0.0515056
0.000147495
0.0448828
0.000192174
0.0325947
0.00014642
0.000164045
0.000149722
0.000148074
0.0462365
0.00265536
0.00020676
0.0167789
0.000157941
0.000171001
0.000150792
0.0539738
0.0177282
0.000148522
0.000150144
0.000158423
0.0001498
0.000172476
0.0515419
0.0418243
0.000171373
0.000151124
0.000151447
0.0458463
0.000154061
0.000172712
0.000147347
0.000151519
0.000213808
0.00302216
0.000125608
0.000343208
0.00014906
0.000208367
0.000152165
0.000163744
0.0341459
0.0186125
0.000148429
0.000149954
0.000167495
0.000154659
0.000149403
0.0503882
0.0429979
0.000148178
0.000145701
0.000149215
0.000147665
0.000310024
0.000148663
0.0477293
0.000182531
0.000180607
0.000148311
0.000167014
0.0541902
0.000163692
0.000189583
0.0472039
0.000149705
0.020924
0.000159063
0.000159823
0.000185861
0.0221359
0.031941
0.00017891
0.000147598
0.00018505
0.000148655
0.000154186
0.000149486
0.0484277
0.000159206
0.00024106
0.00430738
0.000170518
0.00014877
0.000195049
0.000158574
0.000149784
0.000181497
0.00014567
0.000170889
0.000163138
0.000149362
0.018945
0.000152261
0.000199753
0.000151028
0.00014754
0.0530573
0.0369819
0.000152969
0.000158763
0.000169218
0.000170922
0.000177101
0.000159009
0.000155099
0.000156235
0.000157187
0.000154174
0.0497899
0.00016646
0.00129159
0.000189115
0.000152471
0.052517
0.000145664
0.0524454
0.000153039
0.0455771
0.000135078
0.000205722
0.001819
0.000211166
0.000168033
0.000150578
0.0493101
0.000169092
0.000148555
0.0191402
0.0565911
0.000151807
0.000155168
0.000160016
0.000160053
0.000163425
0.0264345
0.000149883
0.000163933
0.000166418
0.000159579
0.000149014
0.000183493
0.000146438
0.0504476
0.000152536
0.000184996
0.000161226
0.000166577
0.000179902
0.00267754
0.000178041
0.000147455
0.000183593
0.0494614
0.0279127
0.00015198
0.0512821
0.000159741
0.000289737
0.000148506
0.000153627
0.0404667
0.000176198
0.0251801
0.0218145
0.00015924
0.0577842
0.0001486
0.000146488
0.0183926
0.000164864
0.000153607
0.0601956
0.000157014
0.000163402
0.000157918
0.000174693
0.000149877
0.0448411
0.0564495
0.00844758
0.00020968
0.000156119
0.000170899
0.0265578
0.000153166
0.000149865
0.000174991
0.00014648
0.000181426
0.0502345
0.0167919
0.0208358
0.000175573
0.000152136
0.0451391
0.000145862
0.000180111
0.000149524
0.0243
0.000153097
0.000164517
0.0304294
0.00018442
0.000148037
0.000159575
0.0180334
0.000148876
0.000190104
0.000147781
0.00828903
0.0441577
0.000186439
0.000167433
0.00014754
0.00643663
0.000190353
0.000166307
0.000147732
0.000152588
0.000148889
0.000175345
0.000148754
0.000183713
0.0001491
0.000148252
0.0683365
0.000148478
0.000156976
0.000157297
0.000149814
0.0350279
0.00014823
0.000161491
0.0425628
0.000175164
0.0494804
0.000148813
0.0504394
0.000176018
0.0584573
0.000152704
0.000189142
0.000151736
0.000167681
0.00018893
0.000187709
0.000195357
0.0412867
0.000193255
0.00025127
0.000155679
0.000187206
0.000163217
0.000218084
0.000154009
0.000151565
0.000148574
0.000174236
0.000164971
0.000264482
0.000173357
0.0536677
0.0275666
0.000170217
0.000148699
0.00440893
0.000177101
0.000150232
0.000152959
0.00014893
0.0508343
0.000148554
0.0131676
0.000148337
0.000159187
0.0306786
0.000170058
0.00014832
0.00014852
0.0193989
0.000148151
0.00015312
0.000156246
0.000160713
0.000157887
0.000149517
0.00020438
0.000168076
0.000162826
0.000198325
0.0401174
0.033626
0.0237033
0.000146445
0.000148353
0.000171006
0.000152129
0.000163352
0.0509346
0.0325812
0.000146195
0.000148478
0.0364188
9.32094e-05
0.000146357
0.00014755
0.000155341
0.0493938
0.048124
0.000156859
0.000161788
0.000149264
0.000201643
0.000189302
0.000173473
0.000158371
0.000163709
0.000150046
0.000164679
0.000212947
0.000150908
0.000150236
0.000156501
0.0525858
0.00015436
0.0204487
0.000148603
0.0386541
0.000162284
0.000156436
0.000146564
0.000147478
0.000213454
0.0116112
0.000164776
0.021994
0.0545293
0.00015045
0.0393363
0.000199105
0.000148635
0.0277716
0.000453775
0.000186312
0.000149665
0.033062
0.0337994
0.000150119
0.000162856
0.0237535
0.000166383
0.000148919
0.000148111
0.000150864
0.000154911
0.000177916
0.000214472
0.000167804
0.000176525
0.000146859
0.000149503
0.0529531
0.000148018
0.00016798
0.00015532
0.000152231
0.000171026
0.000148126
0.00015268
0.000202913
0.000147872
0.035533
0.00014816
0.000893227
0.0397006
0.000181027
0.000149724
0.000149947
0.0451501
0.000146065
0.000153925
0.000149882
0.000193117
0.000216476
0.000162937
0.038011
0.000162791
0.000536037
0.000150368
0.000178862
0.000149286
0.000148837
0.0193249
0.0357711
0.000228889
0.000153251
0.000178102
0.000178489
0.0367095
0.0429098
0.000199252
0.000165261
0.000145783
0.0389002
0.000149213
0.000149348
0.000202886
0.000187743
0.00015693
0.000176645
0.000163961
0.000159705
0.000157864
0.0597951
0.000154812
0.000147835
0.0189276
0.000164172
0.000146877
0.029868
0.00014808
0.000148639
0.000190804
0.000182099
0.0464661
0.000146926
0.000153819
0.000147669
0.000295347
0.000147996
0.000196866
0.0181842
0.0372843
0.028694
0.006457
0.000157681
0.0335398
0.000225672
0.000149339
0.000158559
0.000162831
0.000157926
0.000250237
0.0333757
0.0456148
0.0388545
0.000329516
0.000149355
0.00018543
0.000148127
0.0193519
0.000159409
0.00015428
0.000154198
0.000151661
0.000147884
0.000184632
0.0462503
0.000146334
0.000153389
0.000146959
0.0298804
0.000153237
0.0642256
0.048484
0.000227602
0.000148584
0.000147954
0.0275621
0.000187902
0.000148843
0.000185797
0.000149472
0.000182732
0.000176498
0.000181747
0.000173516
0.00105203
0.000147377
0.000149474
5.55672e-05
0.0316176
0.000159089
0.000166518
0.000148084
0.0140375
0.000148187
0.00014756
0.000152491
0.000148429
0.00932364
0.0327974
0.00287796
0.000179771
0.0455173
0.00021614
0.000146105
0.000162455
0.000146513
0.000251276
0.000150185
0.00015396
0.00014828
0.000147432
0.000148753
0.000313438
0.000153821
0.000264059
0.000148173
0.000158713
0.00015874
0.000278657
0.00014821
0.000162226
0.000166487
0.000171462
0.0675899
0.000147438
0.0249695
0.000174065
0.000164708
0.000151139
0.000147766
0.0308196
0.00845536
0.000150299
0.000148871
0.000217837
0.000137459
0.000160736
0.0429626
0.000151008
0.00118433
0.000162769
0.000146381
0.0491953
0.000155022
0.0460551
0.000148521
0.000151522
0.000148701
0.0298888
0.0355783
0.000146274
0.000179621
0.000141411
0.000148264
0.000148773
0.000147524
0.000181111
0.0418504
0.000173128
0.000157117
0.000165624
0.000148115
0.000148813
0.000153625
0.000147904
0.000192878
0.000148878
0.000179026
0.0002144
0.000163231
0.000145731
0.0502746
0.000179378
0.000148168
0.000175665
0.000161586
0.00263046
0.000153378
0.0510775
0.000172579
0.000148651
0.000178455
0.0001786
0.000155165
0.066687
0.000178116
0.000164256
0.00344984
0.000148332
0.000181349
0.000168544
0.000179085
0.000147555
0.000148402
0.000146
0.00015884
0.000176215
0.000175508
0.0350127
0.0292897
0.0484954
0.000149755
0.000305669
0.0418078
0.0471488
0.000148334
0.000148861
0.000173866
0.048695
0.000153308
0.000165807
0.0105918
0.025536
0.00092425
0.000171416
0.000191219
0.0349599
0.000217865
0.000146548
0.000650969
0.000200264
0.000150622
0.000151556
0.00015131
0.0527038
0.00018001
0.056946
0.000153587
0.000111879
0.000149809
7.05648e-05
0.0272413
0.000149591
0.000164534
0.0380418
0.0530398
0.000171984
0.000152104
0.000152652
0.00015001
0.00018174
0.000188842
0.000263009
0.0452007
0.000147317
0.0166473
0.000185136
0.0266614
0.000148048
0.000149017
0.0361455
0.000183198
0.000148278
0.00017037
0.000167158
0.000161091
0.0503296
0.052488
0.0546254
0.0434396
0.00015467
0.000147285
0.000166083
0.0222021
0.00644916
0.000149736
0.000180735
0.000168916
0.000195614
0.000153498
0.000149678
0.000231227
0.00344773
0.000138244
0.000256961
0.0221417
0.000147697
0.000180792
0.042479
0.00014957
0.000165464
0.000183173
0.000146404
0.000191503
0.0562482
0.00018036
0.000149671
0.0179417
0.000185652
0.0138794
0.000145526
0.000155157
0.000149558
0.000155318
0.000149431
0.000170147
0.000162887
0.000162607
0.000188433
0.000164272
0.0319648
0.000154281
0.000163507
0.000157657
0.0179756
0.000164827
0.0292659
0.000157499
0.000156368
0.00948365
0.000169819
0.000148876
0.000162922
0.00423189
0.0582854
0.000213697
0.000148526
0.000148007
0.000148422
6.55644e-05
0.000151878
0.000345854
0.000254417
0.000180771
0.000160432
0.000194834
0.0248059
0.000149421
0.0316197
0.000160368
0.000163803
0.000148613
0.000149673
0.000172093
0.0476413
0.000148404
0.0271746
0.000200629
0.000169725
0.000189023
0.000148116
0.000148035
0.000160921
0.000154133
0.0150292
0.0204188
0.000169398
0.000213562
0.000148474
0.000149609
0.000150038
0.000149614
0.0666448
0.000153642
0.035512
0.000168649
0.000153614
0.000186971
0.000250501
0.0337491
0.0185535
0.000154132
0.00014933
0.000148785
0.00015603
0.000222411
0.000179469
0.0653132
0.000148949
0.000152279
0.000175048
0.000149709
0.000752377
0.00015241
0.000174169
0.000175178
0.00016284
0.000162996
0.000146967
0.000169741
0.000162511
0.000178749
0.00016817
0.000163205
0.000147053
0.000183888
0.000147845
0.000266143
0.041369
0.000224421
0.00014895
0.000170828