/*--------------------------------*- C++ -*----------------------------------*\
| =========                 |                                                 |
| \\      /  F ield         | OpenFOAM: The Open Source CFD Toolbox           |
|  \\    /   O peration     | Version:  v2012                                 |
|   \\  /    A nd           | Website:  www.openfoam.com                      |
|    \\/     M anipulation  |                                                 |
\*---------------------------------------------------------------------------*/
FoamFile
{
    version     2.0;
    format      ascii;
    class       pointVectorField;
    location    "850";
    object      pointDisplacement;
}
// * * * * * * * * * * * * * * * * * * * * * * * * * * * * * * * * * * * * * //

dimensions      [0 1 0 0 0 0 0];


internalField   nonuniform List<vector> 
14324
(
(0 0 0)
(-0.019509 -0.194145 0)
(0 0 0)
(-0.019509 -0.194145 0)
(0 0 0)
(0 0 0)
(0 0 0)
(0 0 0)
(0 0 0)
(0 0 0)
(0 0 0)
(0 0 0)
(0 0 0)
(0 0 0)
(0 0 0)
(0 0 0)
(0 0 0)
(0 0 0)
(0 0 0)
(0 0 0)
(0 0 0)
(0 0 0)
(0 0 0)
(0 0 0)
(0 0 0)
(0 0 0)
(0 0 0)
(0 0 0)
(0 0 0)
(0 0 0)
(0 0 0)
(0 0 0)
(0 0 0)
(0 0 0)
(0 0 0)
(0 0 0)
(0 0 0)
(0 0 0)
(0 0 0)
(0 0 0)
(0 0 0)
(0 0 0)
(0 0 0)
(0 0 0)
(0 0 0)
(0 0 0)
(0 0 0)
(0 0 0)
(0 0 0)
(0 0 0)
(0 0 0)
(0 0 0)
(0 0 0)
(0 0 0)
(0 0 0)
(0 0 0)
(0 0 0)
(0 0 0)
(0 0 0)
(0 0 0)
(0 0 0)
(0 0 0)
(0 0 0)
(0 0 0)
(0 0 0)
(0 0 0)
(0 0 0)
(0 0 0)
(0 0 0)
(0 0 0)
(0 0 0)
(0 0 0)
(0 0 0)
(0 0 0)
(0 0 0)
(0 0 0)
(-0.0272994 0.127647 0)
(-0.0272408 0.125228 0)
(-0.0271822 0.122808 0)
(-0.0271236 0.120389 0)
(-0.0270651 0.11797 0)
(-0.0270065 0.11555 0)
(-0.0269479 0.113131 0)
(-0.0268893 0.110711 0)
(-0.0268308 0.108292 0)
(-0.0267722 0.105872 0)
(-0.0267136 0.103453 0)
(-0.026655 0.101033 0)
(-0.0265965 0.0986135 0)
(-0.0265379 0.096194 0)
(-0.0264793 0.0937746 0)
(-0.0264208 0.0913551 0)
(-0.0263622 0.0889356 0)
(-0.0263036 0.0865161 0)
(-0.026245 0.0840966 0)
(-0.0261865 0.0816771 0)
(-0.0261279 0.0792576 0)
(-0.0260693 0.0768381 0)
(-0.0260107 0.0744186 0)
(-0.0259522 0.0719991 0)
(-0.0258936 0.0695796 0)
(-0.025835 0.0671601 0)
(-0.0257764 0.0647406 0)
(-0.0257179 0.0623211 0)
(-0.0256593 0.0599016 0)
(-0.0256007 0.0574821 0)
(-0.0255421 0.0550626 0)
(-0.0254836 0.0526431 0)
(-0.025425 0.0502236 0)
(-0.0253664 0.0478042 0)
(-0.0253078 0.0453847 0)
(-0.0252493 0.0429652 0)
(-0.0251907 0.0405457 0)
(-0.0251321 0.0381262 0)
(-0.0250736 0.0357067 0)
(-0.025015 0.0332872 0)
(-0.0249564 0.0308677 0)
(-0.0248978 0.0284482 0)
(-0.0248393 0.0260287 0)
(-0.0247807 0.0236092 0)
(-0.0247221 0.0211897 0)
(-0.0246635 0.0187702 0)
(-0.024605 0.0163507 0)
(-0.0245464 0.0139312 0)
(-0.0244878 0.0115117 0)
(-0.0244292 0.00909224 0)
(-0.0243707 0.00667275 0)
(-0.0243121 0.00425325 0)
(-0.0242535 0.00183376 0)
(-0.0241949 -0.000585739 0)
(-0.0241364 -0.00300523 0)
(-0.0240778 -0.00542473 0)
(-0.0240192 -0.00784422 0)
(-0.0239607 -0.0102637 0)
(-0.0239021 -0.0126832 0)
(-0.0238435 -0.0151027 0)
(-0.0237849 -0.0175222 0)
(-0.0237264 -0.0199417 0)
(-0.0236678 -0.0223612 0)
(-0.0236092 -0.0247807 0)
(-0.0235506 -0.0272002 0)
(-0.0234921 -0.0296197 0)
(-0.0234335 -0.0320392 0)
(-0.0233749 -0.0344587 0)
(-0.0233163 -0.0368782 0)
(-0.0232578 -0.0392977 0)
(-0.0231992 -0.0417171 0)
(-0.0231406 -0.0441366 0)
(-0.023082 -0.0465561 0)
(-0.0230235 -0.0489756 0)
(-0.0229649 -0.0513951 0)
(-0.0229063 -0.0538146 0)
(-0.0228477 -0.0562341 0)
(-0.0227892 -0.0586536 0)
(-0.0227306 -0.0610731 0)
(-0.022672 -0.0634926 0)
(-0.0226135 -0.0659121 0)
(-0.0225549 -0.0683316 0)
(-0.0224963 -0.0707511 0)
(-0.0224377 -0.0731706 0)
(-0.0223792 -0.0755901 0)
(-0.0223206 -0.0780096 0)
(-0.022262 -0.0804291 0)
(-0.0222034 -0.0828486 0)
(-0.0221449 -0.0852681 0)
(-0.0220863 -0.0876875 0)
(-0.0220277 -0.090107 0)
(-0.0219691 -0.0925265 0)
(-0.0219106 -0.094946 0)
(-0.021852 -0.0973655 0)
(-0.0217934 -0.099785 0)
(-0.0217348 -0.102205 0)
(-0.0216763 -0.104624 0)
(-0.0216177 -0.107044 0)
(-0.0215591 -0.109463 0)
(-0.0215005 -0.111882 0)
(-0.021442 -0.114302 0)
(-0.0213834 -0.116721 0)
(-0.0213248 -0.119141 0)
(-0.0212663 -0.12156 0)
(-0.0212077 -0.12398 0)
(-0.0211491 -0.126399 0)
(-0.0210905 -0.128819 0)
(-0.021032 -0.131238 0)
(-0.0209734 -0.133658 0)
(-0.0209148 -0.136077 0)
(-0.0208562 -0.138497 0)
(-0.0207977 -0.140916 0)
(-0.0207391 -0.143336 0)
(-0.0206805 -0.145755 0)
(-0.0206219 -0.148175 0)
(-0.0205634 -0.150594 0)
(-0.0205048 -0.153014 0)
(-0.0204462 -0.155433 0)
(-0.0203876 -0.157853 0)
(-0.0203291 -0.160272 0)
(-0.0202705 -0.162692 0)
(-0.0202119 -0.165111 0)
(-0.0201534 -0.167531 0)
(-0.0200948 -0.16995 0)
(-0.0200362 -0.17237 0)
(-0.0199776 -0.174789 0)
(-0.0199191 -0.177209 0)
(-0.0198605 -0.179628 0)
(-0.0198019 -0.182048 0)
(-0.0197433 -0.184467 0)
(-0.0196848 -0.186887 0)
(-0.0196262 -0.189306 0)
(-0.0195676 -0.191726 0)
(-0.0170895 -0.194087 0)
(-0.01467 -0.194028 0)
(-0.0122506 -0.19397 0)
(-0.00983106 -0.193911 0)
(-0.00741157 -0.193852 0)
(-0.00499207 -0.193794 0)
(-0.00257258 -0.193735 0)
(-0.000153081 -0.193677 0)
(0.00226641 -0.193618 0)
(0.00468591 -0.19356 0)
(0.0071054 -0.193501 0)
(0.0095249 -0.193442 0)
(0.0119444 -0.193384 0)
(0.0143639 -0.193325 0)
(0.0167834 -0.193267 0)
(0.0192029 -0.193208 0)
(0.0216224 -0.19315 0)
(0.0240419 -0.193091 0)
(0 0 0)
(0 0 0)
(0 0 0)
(0 0 0)
(0 0 0)
(0 0 0)
(0 0 0)
(0 0 0)
(0 0 0)
(0 0 0)
(0 0 0)
(0 0 0)
(0 0 0)
(0 0 0)
(0 0 0)
(0 0 0)
(0 0 0)
(0 0 0)
(0 0 0)
(0 0 0)
(0 0 0)
(0 0 0)
(0 0 0)
(0 0 0)
(0 0 0)
(0 0 0)
(0 0 0)
(0 0 0)
(0 0 0)
(0 0 0)
(0 0 0)
(0 0 0)
(0 0 0)
(0 0 0)
(0 0 0)
(0 0 0)
(0 0 0)
(0 0 0)
(0 0 0)
(0 0 0)
(0 0 0)
(0 0 0)
(0 0 0)
(0 0 0)
(0 0 0)
(0 0 0)
(0 0 0)
(0 0 0)
(0 0 0)
(0 0 0)
(0 0 0)
(0 0 0)
(0 0 0)
(0 0 0)
(0 0 0)
(0 0 0)
(0 0 0)
(0 0 0)
(0 0 0)
(0 0 0)
(0 0 0)
(0 0 0)
(0 0 0)
(0 0 0)
(0 0 0)
(0 0 0)
(0 0 0)
(0 0 0)
(0 0 0)
(0 0 0)
(0 0 0)
(0 0 0)
(-0.0272994 0.127647 0)
(-0.0272408 0.125228 0)
(-0.0271822 0.122808 0)
(-0.0271236 0.120389 0)
(-0.0270651 0.11797 0)
(-0.0270065 0.11555 0)
(-0.0269479 0.113131 0)
(-0.0268893 0.110711 0)
(-0.0268308 0.108292 0)
(-0.0267722 0.105872 0)
(-0.0267136 0.103453 0)
(-0.026655 0.101033 0)
(-0.0265965 0.0986135 0)
(-0.0265379 0.096194 0)
(-0.0264793 0.0937746 0)
(-0.0264208 0.0913551 0)
(-0.0263622 0.0889356 0)
(-0.0263036 0.0865161 0)
(-0.026245 0.0840966 0)
(-0.0261865 0.0816771 0)
(-0.0261279 0.0792576 0)
(-0.0260693 0.0768381 0)
(-0.0260107 0.0744186 0)
(-0.0259522 0.0719991 0)
(-0.0258936 0.0695796 0)
(-0.025835 0.0671601 0)
(-0.0257764 0.0647406 0)
(-0.0257179 0.0623211 0)
(-0.0256593 0.0599016 0)
(-0.0256007 0.0574821 0)
(-0.0255421 0.0550626 0)
(-0.0254836 0.0526431 0)
(-0.025425 0.0502236 0)
(-0.0253664 0.0478042 0)
(-0.0253078 0.0453847 0)
(-0.0252493 0.0429652 0)
(-0.0251907 0.0405457 0)
(-0.0251321 0.0381262 0)
(-0.0250736 0.0357067 0)
(-0.025015 0.0332872 0)
(-0.0249564 0.0308677 0)
(-0.0248978 0.0284482 0)
(-0.0248393 0.0260287 0)
(-0.0247807 0.0236092 0)
(-0.0247221 0.0211897 0)
(-0.0246635 0.0187702 0)
(-0.024605 0.0163507 0)
(-0.0245464 0.0139312 0)
(-0.0244878 0.0115117 0)
(-0.0244292 0.00909224 0)
(-0.0243707 0.00667275 0)
(-0.0243121 0.00425325 0)
(-0.0242535 0.00183376 0)
(-0.0241949 -0.000585739 0)
(-0.0241364 -0.00300523 0)
(-0.0240778 -0.00542473 0)
(-0.0240192 -0.00784422 0)
(-0.0239607 -0.0102637 0)
(-0.0239021 -0.0126832 0)
(-0.0238435 -0.0151027 0)
(-0.0237849 -0.0175222 0)
(-0.0237264 -0.0199417 0)
(-0.0236678 -0.0223612 0)
(-0.0236092 -0.0247807 0)
(-0.0235506 -0.0272002 0)
(-0.0234921 -0.0296197 0)
(-0.0234335 -0.0320392 0)
(-0.0233749 -0.0344587 0)
(-0.0233163 -0.0368782 0)
(-0.0232578 -0.0392977 0)
(-0.0231992 -0.0417171 0)
(-0.0231406 -0.0441366 0)
(-0.023082 -0.0465561 0)
(-0.0230235 -0.0489756 0)
(-0.0229649 -0.0513951 0)
(-0.0229063 -0.0538146 0)
(-0.0228477 -0.0562341 0)
(-0.0227892 -0.0586536 0)
(-0.0227306 -0.0610731 0)
(-0.022672 -0.0634926 0)
(-0.0226135 -0.0659121 0)
(-0.0225549 -0.0683316 0)
(-0.0224963 -0.0707511 0)
(-0.0224377 -0.0731706 0)
(-0.0223792 -0.0755901 0)
(-0.0223206 -0.0780096 0)
(-0.022262 -0.0804291 0)
(-0.0222034 -0.0828486 0)
(-0.0221449 -0.0852681 0)
(-0.0220863 -0.0876875 0)
(-0.0220277 -0.090107 0)
(-0.0219691 -0.0925265 0)
(-0.0219106 -0.094946 0)
(-0.021852 -0.0973655 0)
(-0.0217934 -0.099785 0)
(-0.0217348 -0.102205 0)
(-0.0216763 -0.104624 0)
(-0.0216177 -0.107044 0)
(-0.0215591 -0.109463 0)
(-0.0215005 -0.111882 0)
(-0.021442 -0.114302 0)
(-0.0213834 -0.116721 0)
(-0.0213248 -0.119141 0)
(-0.0212663 -0.12156 0)
(-0.0212077 -0.12398 0)
(-0.0211491 -0.126399 0)
(-0.0210905 -0.128819 0)
(-0.021032 -0.131238 0)
(-0.0209734 -0.133658 0)
(-0.0209148 -0.136077 0)
(-0.0208562 -0.138497 0)
(-0.0207977 -0.140916 0)
(-0.0207391 -0.143336 0)
(-0.0206805 -0.145755 0)
(-0.0206219 -0.148175 0)
(-0.0205634 -0.150594 0)
(-0.0205048 -0.153014 0)
(-0.0204462 -0.155433 0)
(-0.0203876 -0.157853 0)
(-0.0203291 -0.160272 0)
(-0.0202705 -0.162692 0)
(-0.0202119 -0.165111 0)
(-0.0201534 -0.167531 0)
(-0.0200948 -0.16995 0)
(-0.0200362 -0.17237 0)
(-0.0199776 -0.174789 0)
(-0.0199191 -0.177209 0)
(-0.0198605 -0.179628 0)
(-0.0198019 -0.182048 0)
(-0.0197433 -0.184467 0)
(-0.0196848 -0.186887 0)
(-0.0196262 -0.189306 0)
(-0.0195676 -0.191726 0)
(-0.0170895 -0.194087 0)
(-0.01467 -0.194028 0)
(-0.0122506 -0.19397 0)
(-0.00983106 -0.193911 0)
(-0.00741157 -0.193852 0)
(-0.00499207 -0.193794 0)
(-0.00257258 -0.193735 0)
(-0.000153081 -0.193677 0)
(0.00226641 -0.193618 0)
(0.00468591 -0.19356 0)
(0.0071054 -0.193501 0)
(0.0095249 -0.193442 0)
(0.0119444 -0.193384 0)
(0.0143639 -0.193325 0)
(0.0167834 -0.193267 0)
(0.0192029 -0.193208 0)
(0.0216224 -0.19315 0)
(0.0240419 -0.193091 0)
(-0.0262753 0.0853517 0)
(-0.0252206 0.0417817 0)
(-0.0241737 -0.00145832 0)
(-0.0231126 -0.0452953 0)
(-0.0220528 -0.0890639 0)
(-0.0210048 -0.132354 0)
(-0.0199431 -0.176157 0)
(-0.0225829 -0.0671667 0)
(-0.0268022 0.107117 0)
(-0.0236368 -0.0236385 0)
(-0.025746 0.0634834 0)
(-0.020474 -0.154275 0)
(-0.0246937 0.0200211 0)
(-0.0215322 -0.110575 0)
(0.00615563 -0.193521 0)
(-0.0133983 -0.193982 0)
(0.0230682 -0.193102 0)
(-0.000818869 -0.00491952 0)
(-0.000440635 -0.00907961 0)
(-0.00105209 -0.00351774 0)
(-0.00118422 -0.000278786 0)
(-0.000247485 -0.0106908 0)
(-1.42955e-05 -0.0121902 0)
(-0.0196509 -0.187854 0)
(-0.000543548 -0.00435219 0)
(-0.000410689 -0.00612762 0)
(0.000230885 -0.0128587 0)
(-0.00121087 0.00180268 0)
(-0.000348165 -0.00441414 0)
(-0.0207059 -0.144695 0)
(-0.0249303 0.029784 0)
(-0.0212972 -0.120279 0)
(-0.0259907 0.0736017 0)
(-0.0228799 -0.0549036 0)
(-0.0222841 -0.0795107 0)
(-0.0234097 -0.033024 0)
(-0.0265682 0.0974509 0)
(-0.0239289 -0.0115742 0)
(-0.025462 0.0517633 0)
(-0.0201815 -0.166353 0)
(-0.0270396 0.116917 0)
(-0.0244085 0.00824591 0)
(-0.0218218 -0.0986128 0)
(-0.00390825 -0.193766 0)
(-0.000410289 -0.00383831 0)
(-0.000369705 -0.0100206 0)
(-0.000917257 -0.00430745 0)
(-0.00110173 -0.00171392 0)
(-0.000249987 -0.00286067 0)
(-0.0002965 -0.00301187 0)
(0.0155251 -0.193294 0)
(-0.000146202 -0.00155936 0)
(-0.000168056 -0.0114981 0)
(0.000102946 -0.0124312 0)
(-0.000410013 -0.00724874 0)
(-0.00113463 -0.00276704 0)
(-0.00111831 0.000741606 0)
(-0.00143644 0.00335973 0)
(-0.000566053 -0.00386518 0)
(-0.000600955 -0.00524357 0)
(-0.000384052 -0.00523929 0)
(-0.00031207 -0.00373124 0)
(-0.000160914 -0.00178496 0)
(-6.00721e-05 -0.000651345 0)
(-0.0214537 0.0823558 0)
(-0.0212128 0.0785876 0)
(-0.0214694 0.0764658 0)
(-0.0212202 0.0727726 0)
(-0.0214964 0.0701749 0)
(-0.0211621 0.0660552 0)
(-0.021421 0.0630748 0)
(-0.0211482 0.059231 0)
(-0.021364 0.0561994 0)
(-0.021079 0.0526521 0)
(-0.0212795 0.0494143 0)
(-0.021007 0.0461584 0)
(-0.0211778 0.0426871 0)
(-0.0209101 0.0397407 0)
(-0.0210566 0.035727 0)
(-0.0207792 0.0331545 0)
(-0.0209137 0.0287351 0)
(-0.0206368 0.0263059 0)
(-0.020748 0.0217369 0)
(-0.0204573 0.019415 0)
(-0.020565 0.0147191 0)
(-0.0202621 0.0125792 0)
(-0.0203583 0.00778499 0)
(-0.0200688 0.00587216 0)
(-0.0201322 0.000970729 0)
(-0.019848 -0.00062481 0)
(-0.0198962 -0.00574348 0)
(-0.0196108 -0.00710049 0)
(-0.0196465 -0.0122882 0)
(-0.0193647 -0.0133944 0)
(-0.0193767 -0.0187669 0)
(-0.0190938 -0.0194755 0)
(-0.0190846 -0.0249818 0)
(-0.0188077 -0.0254944 0)
(-0.0187862 -0.0308947 0)
(-0.0185093 -0.0314111 0)
(-0.0184806 -0.0368543 0)
(-0.0181917 -0.037181 0)
(-0.0181511 -0.0429832 0)
(-0.0178608 -0.0428447 0)
(-0.0178045 -0.0487316 0)
(-0.017529 -0.0482462 0)
(-0.017458 -0.0539094 0)
(-0.0208658 0.0554019 0)
(-0.0201231 0.0172133 0)
(-0.018817 -0.0200655 0)
(-0.0171852 -0.0531606 0)
(-0.0171002 -0.0587571 0)
(-0.0168272 -0.0579006 0)
(-0.0167297 -0.0634149 0)
(-0.0169009 -0.0521791 0)
(-0.0164629 -0.0623887 0)
(-0.0163484 -0.0678311 0)
(-0.0160879 -0.0663906 0)
(-0.0159576 -0.0719346 0)
(-0.0157049 -0.0700956 0)
(-0.0155533 -0.0757859 0)
(-0.0153022 -0.0737098 0)
(-0.0151329 -0.0794522 0)
(-0.0184786 -0.0426138 0)
(-0.0199319 -0.0111569 0)
(-0.0166151 -0.0692427 0)
(-0.0148787 -0.0772663 0)
(-0.014705 -0.0827695 0)
(-0.0144527 -0.0804504 0)
(-0.0142764 -0.0856523 0)
(-0.0145176 -0.0881032 0)
(-0.0140801 -0.0907472 0)
(-0.014308 -0.0933256 0)
(-0.0138576 -0.0958302 0)
(-0.0136425 -0.0930323 0)
(-0.013406 -0.0979163 0)
(-0.0132052 -0.0950598 0)
(-0.0129615 -0.0996721 0)
(-0.0131267 -0.102628 0)
(-0.0126937 -0.104093 0)
(-0.0128392 -0.107163 0)
(-0.0125247 -0.101373 0)
(-0.0210243 0.0242399 0)
(-0.0124043 -0.108353 0)
(-0.012525 -0.111524 0)
(-0.0120931 -0.11243 0)
(-0.0121993 -0.115605 0)
(-0.011763 -0.116292 0)
(-0.0118594 -0.119638 0)
(-0.011405 -0.119963 0)
(-0.0114715 -0.12334 0)
(-0.021659 0.0597615 0)
(-0.0110126 -0.12338 0)
(-0.0110574 -0.126726 0)
(-0.0105931 -0.126513 0)
(-0.0105836 -0.122908 0)
(-0.0106147 -0.12989 0)
(-0.0101482 -0.129441 0)
(-0.0101447 -0.132887 0)
(-0.0119534 -0.122993 0)
(-0.00967863 -0.132141 0)
(-0.00963991 -0.135574 0)
(-0.00918494 -0.134544 0)
(-0.00911071 -0.137866 0)
(-0.00866519 -0.136658 0)
(-0.00855333 -0.14 0)
(-0.0150488 -0.0714682 0)
(-0.00812932 -0.138554 0)
(-0.00795797 -0.141859 0)
(-0.00820161 -0.135427 0)
(-0.00757488 -0.140082 0)
(-0.00734521 -0.14335 0)
(-0.00697331 -0.141356 0)
(-0.00956646 -0.138903 0)
(-0.00671146 -0.144599 0)
(-0.00633262 -0.142519 0)
(-0.00709824 -0.146533 0)
(-0.00642649 -0.147697 0)
(-0.00683207 -0.149598 0)
(-0.0061301 -0.15067 0)
(-0.00651761 -0.152555 0)
(-0.00583228 -0.153418 0)
(-0.00613731 -0.155262 0)
(-0.00545824 -0.155925 0)
(-0.00575144 -0.157782 0)
(-0.00502094 -0.158336 0)
(-0.00474163 -0.156122 0)
(-0.00534545 -0.16025 0)
(-0.0045559 -0.16064 0)
(-0.00485936 -0.162538 0)
(-0.00405616 -0.162721 0)
(-0.00434846 -0.164597 0)
(-0.00517132 -0.164355 0)
(-0.00465027 -0.166379 0)
(-0.0055016 -0.166065 0)
(-0.00380585 -0.166491 0)
(-0.00407621 -0.168233 0)
(-0.00320882 -0.168239 0)
(-0.0034486 -0.169919 0)
(-0.00254951 -0.169801 0)
(-0.00274931 -0.171444 0)
(-0.00182198 -0.171191 0)
(-0.0019862 -0.172816 0)
(-0.00103043 -0.172441 0)
(-0.000929417 -0.170772 0)
(-0.000103345 -0.171896 0)
(-0.0029514 -0.17304 0)
(-0.000168358 -0.173551 0)
(0.00078649 -0.172906 0)
(0.000784012 -0.174526 0)
(0.00173686 -0.173752 0)
(0.00185885 -0.175296 0)
(0.00289209 -0.174244 0)
(0.00299919 -0.175895 0)
(0.00391756 -0.17502 0)
(0.00416116 -0.176397 0)
(0.00497715 -0.175445 0)
(0.00536369 -0.176712 0)
(-0.000101011 -0.170175 0)
(0.00326874 -0.177346 0)
(0.00479391 -0.174219 0)
(-0.0263736 0.123156 0)
(-0.0262443 0.119967 0)
(-0.026342 0.118471 0)
(-0.0262145 0.115294 0)
(-0.0262991 0.11372 0)
(-0.0261727 0.110582 0)
(-0.0262444 0.108804 0)
(-0.0261193 0.10573 0)
(-0.0261764 0.103843 0)
(-0.0260564 0.100825 0)
(-0.0261048 0.0990879 0)
(-0.0259872 0.0959864 0)
(-0.0259319 0.0975192 0)
(-0.0258674 0.0928678 0)
(-0.026123 0.121402 0)
(-0.0259103 0.091006 0)
(-0.0257962 0.0879984 0)
(-0.0258261 0.0858561 0)
(-0.0257165 0.0830054 0)
(-0.025738 0.0808157 0)
(-0.025626 0.0779292 0)
(-0.0256453 0.0757943 0)
(-0.0255327 0.0727906 0)
(-0.0255483 0.0707234 0)
(-0.0254377 0.0677077 0)
(-0.0254477 0.0656111 0)
(-0.0253432 0.0627352 0)
(-0.0253442 0.0604921 0)
(-0.0252434 0.0577744 0)
(-0.0252382 0.0554001 0)
(-0.0251363 0.0527057 0)
(-0.0251304 0.0503637 0)
(-0.0250276 0.0476111 0)
(-0.0250228 0.0454471 0)
(-0.0249192 0.042611 0)
(-0.024916 0.0406057 0)
(-0.0248084 0.0375613 0)
(-0.0248166 0.0399401 0)
(-0.0247061 0.0348287 0)
(-0.0253202 0.0641629 0)
(-0.0257386 0.0897046 0)
(-0.0246937 0.0323329 0)
(-0.0245903 0.0295666 0)
(-0.0245741 0.0269972 0)
(-0.0244709 0.0242897 0)
(-0.0244508 0.0216302 0)
(-0.0243493 0.0189912 0)
(-0.0243263 0.0162885 0)
(-0.0242273 0.0137072 0)
(-0.024202 0.0109851 0)
(-0.0241044 0.00842542 0)
(-0.0240801 0.00579759 0)
(-0.0239812 0.00322811 0)
(-0.0239573 0.000658657 0)
(-0.0238572 -0.00190029 0)
(-0.0238346 -0.00440808 0)
(-0.0237335 -0.00695178 0)
(-0.0237132 -0.00936057 0)
(-0.0236082 -0.0120681 0)
(-0.0236322 -0.00933832 0)
(-0.0235009 -0.0146623 0)
(-0.0242467 0.0163599 0)
(-0.0234762 -0.0176859 0)
(-0.0233672 -0.0200162 0)
(-0.0233353 -0.0229935 0)
(-0.023231 -0.025337 0)
(-0.0232053 -0.028083 0)
(-0.0230955 -0.0305822 0)
(-0.0230711 -0.0333169 0)
(-0.0229618 -0.035749 0)
(-0.0229349 -0.0386012 0)
(-0.0228253 -0.0408822 0)
(-0.0227936 -0.0439 0)
(-0.0226839 -0.0460397 0)
(-0.0226489 -0.0492021 0)
(-0.022539 -0.0512993 0)
(-0.0225043 -0.054477 0)
(-0.0223913 -0.0565679 0)
(-0.0223583 -0.0597133 0)
(-0.02224 -0.0618496 0)
(-0.0222718 -0.0585972 0)
(-0.0221126 -0.063988 0)
(-0.0229706 -0.0334545 0)
(-0.0220825 -0.0672479 0)
(-0.021949 -0.069413 0)
(-0.0219193 -0.0727052 0)
(-0.0217854 -0.0747509 0)
(-0.0217515 -0.078157 0)
(-0.0216158 -0.0800398 0)
(-0.021798 -0.0718395 0)
(-0.0215787 -0.0835812 0)
(-0.0214393 -0.0852794 0)
(-0.0214025 -0.0889235 0)
(-0.0212559 -0.0905817 0)
(-0.0212199 -0.0942315 0)
(-0.021064 -0.0958924 0)
(-0.0210298 -0.0995121 0)
(-0.0208649 -0.101134 0)
(-0.0209001 -0.0974034 0)
(-0.020691 -0.102624 0)
(-0.0206547 -0.106398 0)
(-0.0204731 -0.107796 0)
(-0.020433 -0.11163 0)
(-0.020243 -0.112866 0)
(-0.0202 -0.116744 0)
(-0.0199984 -0.11783 0)
(-0.0200553 -0.113735 0)
(-0.0197939 -0.118493 0)
(-0.019738 -0.122702 0)
(-0.0195129 -0.12339 0)
(-0.0194586 -0.12746 0)
(-0.019224 -0.12805 0)
(-0.019167 -0.132126 0)
(-0.0189188 -0.132587 0)
(-0.0188556 -0.13664 0)
(-0.0195702 -0.118948 0)
(-0.0185961 -0.136884 0)
(-0.0185231 -0.140845 0)
(-0.0182651 -0.140859 0)
(-0.0181718 -0.144837 0)
(-0.0179103 -0.144514 0)
(-0.0177904 -0.148495 0)
(-0.0180221 -0.140744 0)
(-0.0175257 -0.147891 0)
(-0.0173862 -0.151738 0)
(-0.0171203 -0.150958 0)
(-0.0169634 -0.154743 0)
(-0.0166922 -0.15374 0)
(-0.0230494 -0.0359266 0)
(-0.0224688 -0.0575834 0)
(-0.0165093 -0.15748 0)
(-0.0162351 -0.156246 0)
(-0.0239354 -0.00164073 0)
(-0.0244217 0.0186501 0)
(-0.0215437 -0.0870502 0)
(-0.0247148 0.0373554 0)
(-0.023529 -0.0116505 0)
(-0.0191123 -0.136274 0)
(-0.0251268 0.0484108 0)
(-0.0255533 0.0684651 0)
(-0.0160242 -0.159839 0)
(-0.0157525 -0.158432 0)
(-0.015974 -0.154855 0)
(-0.0154862 -0.156977 0)
(-0.0157189 -0.153406 0)
(-0.0176422 -0.152456 0)
(-0.0262042 0.101849 0)
(-0.0155177 -0.161834 0)
(-0.0264687 0.121632 0)
(-0.0157982 -0.163272 0)
(-0.0152171 -0.155506 0)
(-0.0154689 -0.151892 0)
(-0.0152552 -0.165039 0)
(-0.0155351 -0.166539 0)
(-0.0149632 -0.168011 0)
(-0.0135332 0.0394333 0)
(-0.0152363 -0.169549 0)
(-0.0146391 -0.170745 0)
(-0.0149092 -0.17231 0)
(-0.0149646 -0.153867 0)
(-0.0152295 -0.150276 0)
(-0.0129736 0.0362046 0)
(-0.0134307 0.0347312 0)
(-0.0142764 -0.173256 0)
(-0.014529 -0.174838 0)
(-0.0151872 -0.173846 0)
(-0.0128589 0.0317091 0)
(-0.0133114 0.0300068 0)
(-0.0138694 0.0329155 0)
(-0.013739 0.0279765 0)
(-0.0131713 0.0252963 0)
(-0.0135881 0.0230351 0)
(-0.0130114 0.0206103 0)
(-0.0134135 0.0180871 0)
(-0.012829 0.0159694 0)
(-0.013215 0.0131856 0)
(-0.0126219 0.0113838 0)
(-0.0129947 0.00833806 0)
(-0.0140311 -0.171726 0)
(-0.0138603 -0.175532 0)
(-0.0141021 -0.177101 0)
(-0.0133811 -0.177536 0)
(-0.0136015 -0.179095 0)
(-0.0142816 0.030777 0)
(-0.012835 -0.179303 0)
(-0.0130118 -0.180807 0)
(-0.0123923 0.00679921 0)
(-0.0127529 0.00356449 0)
(-0.0122058 -0.180854 0)
(-0.0123342 -0.182309 0)
(-0.0114793 -0.18218 0)
(-0.0115231 -0.183566 0)
(-0.011425 -0.180804 0)
(-0.0135702 0.0101376 0)
(-0.0121422 0.00230086 0)
(-0.0124926 -0.00108358 0)
(-0.014742 -0.152084 0)
(-0.0149957 -0.148582 0)
(-0.0106356 -0.183271 0)
(-0.0106196 -0.184536 0)
(0.00292611 -0.12264 0)
(0.00276883 -0.126525 0)
(0.00239728 -0.122742 0)
(0.00221401 -0.126402 0)
(0.00188008 -0.122764 0)
(0.00166793 -0.126289 0)
(0.00136705 -0.122553 0)
(-0.0118752 -0.0020311 0)
(-0.0122146 -0.00554603 0)
(-0.0115913 -0.00619985 0)
(-0.0119194 -0.00981133 0)
(-0.0125165 -0.00934529 0)
(-0.0122106 -0.0136656 0)
(-0.0116114 -0.0138623 0)
(-0.0118928 -0.0177508 0)
(-0.0112901 -0.0176951 0)
(-0.0115637 -0.0215815 0)
(-0.0109572 -0.0212911 0)
(-0.0112288 -0.0252298 0)
(0.00110548 -0.126161 0)
(0.00084219 -0.122056 0)
(-0.010618 -0.0246401 0)
(-0.0108694 -0.0286698 0)
(-0.0138153 -0.180629 0)
(-0.0096783 -0.184185 0)
(-0.00960858 -0.185496 0)
(-0.010266 -0.0276519 0)
(-0.0104928 -0.0317166 0)
(-0.0145044 -0.150462 0)
(-0.0147591 -0.146906 0)
(-0.0152448 -0.144708 0)
(-0.015007 -0.14312 0)
(-0.0154576 -0.140687 0)
(-0.0152365 -0.139129 0)
(-0.0156737 -0.136552 0)
(-0.0154506 -0.134975 0)
(-0.0159105 -0.132068 0)
(0.000531365 -0.125612 0)
(0.000311008 -0.121388 0)
(0.00115753 -0.118477 0)
(-0.00990132 -0.0303019 0)
(-0.0101198 -0.034375 0)
(-0.0124575 -0.0176197 0)
(-0.0106823 -0.0360221 0)
(-0.0103022 -0.0386173 0)
(-0.00974642 -0.0367263 0)
(-0.0099199 -0.040895 0)
(-0.00937092 -0.0387692 0)
(-0.00953521 -0.0428425 0)
(-0.0100555 -0.0451 0)
(-0.00966443 -0.0469604 0)
(-0.00914812 -0.0444835 0)
(-0.0092716 -0.0485625 0)
(-0.00875782 -0.0458126 0)
(-0.00886693 -0.0498141 0)
(-0.00836646 -0.0468548 0)
(-0.00846517 -0.0507131 0)
(-0.00891251 -0.053815 0)
(-0.00852312 -0.0545741 0)
(-0.00807073 -0.0513304 0)
(-0.00813 -0.0550313 0)
(-0.00854405 -0.0583156 0)
(-0.00815916 -0.0586362 0)
(-0.00852055 -0.0612953 0)
(-0.00823052 -0.0626842 0)
(-0.00776009 -0.0586425 0)
(-0.00774046 -0.0620762 0)
(-0.00812664 -0.0662304 0)
(-0.0076749 -0.0653178 0)
(-0.0073099 -0.0613476 0)
(-0.00725148 -0.0644061 0)
(-0.00759057 -0.068518 0)
(-0.0071626 -0.0673158 0)
(-0.00746555 -0.0714207 0)
(-0.00703928 -0.0699914 0)
(-0.00675896 -0.0659113 0)
(-0.0073068 -0.0740782 0)
(-0.00688792 -0.072468 0)
(-0.00712358 -0.0765871 0)
(-0.00670035 -0.0746878 0)
(-0.00691257 -0.0789018 0)
(-0.00648938 -0.0767536 0)
(-0.00667611 -0.0809758 0)
(-0.00626448 -0.0786257 0)
(-0.00641546 -0.0827755 0)
(-0.00606107 -0.0745141 0)
(-0.00601652 -0.0802085 0)
(-0.00613468 -0.0843272 0)
(-0.00575348 -0.0815677 0)
(-0.00583862 -0.0856993 0)
(-0.00546063 -0.0824472 0)
(-0.0055159 -0.086713 0)
(-0.00513885 -0.082984 0)
(-0.00517412 -0.0873368 0)
(-0.00509056 -0.0783242 0)
(-0.01565 -0.130695 0)
(-0.0161102 -0.127397 0)
(-0.00857461 -0.184925 0)
(-0.0082575 -0.186058 0)
(-2.58295e-05 -0.124831 0)
(-0.000208017 -0.120465 0)
(0.000776472 -0.129717 0)
(-0.00734011 -0.0807164 0)
(-0.000560404 -0.123799 0)
(-0.000709001 -0.11932 0)
(-0.00107641 -0.122577 0)
(-0.00119428 -0.118014 0)
(-0.000836922 -0.114617 0)
(-0.00129306 -0.1132 0)
(-0.00167256 -0.11662 0)
(-0.00175035 -0.111716 0)
(-0.0142583 -0.148849 0)
(-0.013957 -0.152629 0)
(-0.00480762 -0.0833531 0)
(-0.00622233 -0.0883747 0)
(-0.012229 0.0142482 0)
(-0.00732341 -0.185468 0)
(-0.00687162 -0.186529 0)
(-0.00213489 -0.115144 0)
(-0.0158381 -0.126239 0)
(-0.016281 -0.122718 0)
(-0.00137074 -0.108099 0)
(-0.00180346 -0.106594 0)
(-0.00789913 -0.187161 0)
(-0.00627099 -0.187471 0)
(-0.00537545 -0.186854 0)
(-0.00461549 -0.187725 0)
(-0.00555274 -0.188397 0)
(-0.0036742 -0.188507 0)
(-0.00288428 -0.187885 0)
(-0.0017975 -0.188571 0)
(-0.00258 -0.189226 0)
(-0.000500596 -0.189152 0)
(0.000169962 -0.188522 0)
(0.00155383 -0.189054 0)
(0.000922303 -0.189736 0)
(0.00330066 -0.189499 0)
(0.00346676 -0.188811 0)
(0.00538001 -0.189175 0)
(-0.0114833 -0.184887 0)
(0.00528434 -0.18986 0)
(0.00737874 -0.189468 0)
(0.00728868 -0.188755 0)
(0.0092815 -0.188966 0)
(0.00904305 -0.188217 0)
(0.0109671 -0.188346 0)
(0.0113362 -0.189096 0)
(-0.00768168 -0.184346 0)
(-0.013738 -0.150475 0)
(-0.0152011 -0.133661 0)
(-0.0133925 -0.153797 0)
(-0.0160155 -0.121613 0)
(-0.0164427 -0.117955 0)
(-0.016717 -0.11881 0)
(-0.0168624 -0.113923 0)
(-0.0171408 -0.11453 0)
(-0.0172722 -0.109538 0)
(-0.0175481 -0.109948 0)
(-0.0176658 -0.104879 0)
(-0.0179404 -0.105054 0)
(-0.0180432 -0.0999658 0)
(-0.0183168 -0.0999302 0)
(-0.0184054 -0.0948318 0)
(-0.0186826 -0.0945247 0)
(-0.0187521 -0.0894188 0)
(-0.01903 -0.0886717 0)
(-0.0190823 -0.0837076 0)
(-0.0193514 -0.0827136 0)
(-0.019397 -0.0778134 0)
(-0.0196632 -0.0766282 0)
(-0.0197032 -0.0716512 0)
(-0.0199673 -0.0703163 0)
(-0.0199966 -0.0655009 0)
(-0.0202586 -0.06386 0)
(-0.0202607 -0.059281 0)
(-0.0205274 -0.0573056 0)
(-0.0205168 -0.0527272 0)
(-0.0207826 -0.0506197 0)
(-0.0207746 -0.0461337 0)
(-0.0210295 -0.0438494 0)
(-0.0210126 -0.039549 0)
(-0.0212603 -0.0371265 0)
(-0.0212368 -0.0328562 0)
(-0.0214785 -0.0303752 0)
(-0.0215019 -0.0345563 0)
(-0.0217135 -0.027753 0)
(-0.0216855 -0.0236128 0)
(-0.0219147 -0.0208976 0)
(-0.0218819 -0.0168263 0)
(-0.0221079 -0.0139301 0)
(-0.0220702 -0.00996882 0)
(-0.0222949 -0.00685648 0)
(-0.0222469 -0.00308174 0)
(-0.022474 0.000247121 0)
(-0.0224096 0.0038203 0)
(-0.0226362 0.00729615 0)
(-0.0112292 -0.00281892 0)
(-0.0225616 0.0106917 0)
(-0.0227822 0.0141752 0)
(-0.0228535 0.01107 0)
(-0.0229924 0.0177619 0)
(-0.0229192 0.0209801 0)
(-0.0231219 0.024533 0)
(-0.00142698 -0.102665 0)
(-0.00181915 -0.101068 0)
(-0.0166004 -0.112992 0)
(-0.0221264 -0.0181565 0)
(-0.0230443 0.0277498 0)
(-0.0232406 0.0313589 0)
(-0.0103126 -0.0210817 0)
(-0.0188233 -0.0845684 0)
(-0.0203931 -0.115441 0)
(-0.0231836 0.0213917 0)
(-0.0231572 0.0344881 0)
(-0.0233563 0.038191 0)
(-0.00094473 -0.126882 0)
(-0.0202291 -0.0688074 0)
(-0.0132019 -0.151772 0)
(-0.012821 -0.155119 0)
(-0.0232583 0.0411829 0)
(-0.0234626 0.0449713 0)
(-0.023563 0.0417287 0)
(-0.0236567 0.0487888 0)
(-0.0235496 0.0516218 0)
(-0.023749 0.0555092 0)
(-0.0236224 0.0581191 0)
(-0.023821 0.0621883 0)
(-0.0236777 0.0645056 0)
(-0.0238728 0.068668 0)
(-0.0238616 0.0522182 0)
(-0.0237153 0.070787 0)
(-0.0239064 0.0749297 0)
(-0.0240636 0.0728744 0)
(-0.0240921 0.0790427 0)
(-0.0239233 0.0809858 0)
(-0.0241039 0.0850337 0)
(-0.023921 0.0868786 0)
(-0.0241 0.0910162 0)
(-0.0238971 0.0926393 0)
(-0.0240701 0.0968904 0)
(-0.0238504 0.0981966 0)
(-0.024012 0.102503 0)
(-0.0237792 0.103527 0)
(-0.00822846 -0.0429979 0)
(-0.0207274 -0.0988012 0)
(-0.0177819 -0.0997157 0)
(-0.0014673 -0.0969126 0)
(-0.00182686 -0.0952814 0)
(-0.021846 -0.0126708 0)
(-0.0178951 -0.0374246 0)
(-0.00660509 -0.139263 0)
(-0.00596756 -0.140307 0)
(-0.00623458 -0.137075 0)
(-0.0243058 0.0955026 0)
(-0.0123859 0.0331202 0)
(-0.0237289 0.088472 0)
(-0.019541 -0.00195076 0)
(-0.021009 0.075353 0)
(-0.0206189 0.0375434 0)
(-0.01974 -0.0663191 0)
(-0.020513 -0.0480019 0)
(-0.0116749 -0.112926 0)
(-0.0101632 -0.0491426 0)
(-0.00687202 -0.154687 0)
(-0.0126505 -0.152839 0)
(-0.0122238 -0.156078 0)
(-0.0242477 0.0769928 0)
(-0.00219469 -0.0993043 0)
(-0.00216546 -0.0934764 0)
(-0.0193136 -0.0873464 0)
(-0.00561845 -0.137916 0)
(-0.0058818 -0.134676 0)
(-0.00109042 -0.0984149 0)
(-0.00114963 -0.0923513 0)
(-0.000788259 -0.0937447 0)
(-0.0121009 -0.153583 0)
(-0.012528 -0.150465 0)
(-0.0230496 0.037402 0)
(-0.0223339 0.00724604 0)
(-0.0116369 -0.156596 0)
(-0.0117268 -0.1592 0)
(-0.0182181 -0.105115 0)
(-0.000860954 -0.0873205 0)
(-0.000512809 -0.0886214 0)
(-0.0130181 -0.110764 0)
(0.00412555 -0.16004 0)
(0.00384914 -0.157832 0)
(0.00331065 -0.159361 0)
(0.00308118 -0.157089 0)
(0.00249513 -0.158567 0)
(0.00231764 -0.156184 0)
(0.00170042 -0.157647 0)
(0.00157876 -0.155102 0)
(0.00217989 -0.153612 0)
(-0.0115434 -0.154123 0)
(-0.025846 0.0835714 0)
(-0.00254198 -0.097327 0)
(-0.00248079 -0.0915249 0)
(-0.0235199 0.0666374 0)
(-0.00529607 -0.135313 0)
(-0.00555241 -0.132065 0)
(-0.00500492 -0.138445 0)
(-0.0161537 -0.134048 0)
(-0.0272596 0.129121 0)
(-0.0271916 0.127049 0)
(-0.0271847 0.125614 0)
(-0.0271211 0.123595 0)
(-0.0271091 0.122131 0)
(-0.0270475 0.120133 0)
(-0.0270314 0.118611 0)
(-0.0269706 0.116606 0)
(-0.0269503 0.115003 0)
(-0.0268917 0.113042 0)
(-0.0269085 0.114592 0)
(-0.0268312 0.111045 0)
(-0.0268131 0.109532 0)
(-0.0267538 0.107536 0)
(-0.0267345 0.10606 0)
(-0.0266757 0.104039 0)
(-0.0266551 0.102585 0)
(-0.026597 0.100556 0)
(-0.026575 0.0991061 0)
(-0.0265178 0.0970825 0)
(-0.026494 0.095612 0)
(-0.0264379 0.0936075 0)
(-0.0264124 0.0921167 0)
(-0.0263572 0.090122 0)
(-0.0263812 0.09162 0)
(-0.0263009 0.0881168 0)
(-0.0262751 0.0865939 0)
(-0.0262197 0.0845959 0)
(-0.0261934 0.0830928 0)
(-0.0261384 0.0810937 0)
(-0.0261122 0.0796311 0)
(-0.0260565 0.0775801 0)
(-0.0260812 0.0790443 0)
(-0.0259985 0.0754733 0)
(-0.0259725 0.0739941 0)
(-0.0259153 0.0718947 0)
(-0.0258887 0.0704243 0)
(-0.0258329 0.0683634 0)
(-0.0258058 0.0669056 0)
(-0.0257504 0.0648431 0)
(-0.0257229 0.0633946 0)
(-0.0256674 0.0613171 0)
(-0.0256392 0.0598645 0)
(-0.0255834 0.0577575 0)
(-0.0256111 0.0592361 0)
(-0.0255269 0.0556505 0)
(-0.0254975 0.0541239 0)
(-0.0254429 0.0520885 0)
(-0.0254131 0.0505802 0)
(-0.0253601 0.0485826 0)
(-0.0253319 0.0471627 0)
(-0.0252771 0.0450736 0)
(-0.0252486 0.0436474 0)
(-0.0251938 0.0415574 0)
(-0.0251629 0.0400589 0)
(-0.0251097 0.0380201 0)
(-0.0251387 0.0394879 0)
(-0.0250543 0.0359216 0)
(-0.0250254 0.0344792 0)
(-0.0249699 0.0323601 0)
(-0.0249411 0.0309408 0)
(-0.0248875 0.0288864 0)
(-0.0248576 0.0274474 0)
(-0.0248062 0.0254744 0)
(-0.0249078 0.02998 0)
(-0.0247757 0.0240223 0)
(-0.0247243 0.0220506 0)
(-0.0246929 0.0205557 0)
(-0.0246406 0.0185425 0)
(-0.0246109 0.0171293 0)
(-0.0245575 0.0150699 0)
(-0.0245873 0.0165182 0)
(-0.0245026 0.0129717 0)
(-0.0244795 0.0118166 0)
(-0.0244235 0.00965885 0)
(-0.0244454 0.0108072 0)