/*--------------------------------*- C++ -*----------------------------------*\
| =========                 |                                                 |
| \\      /  F ield         | OpenFOAM: The Open Source CFD Toolbox           |
|  \\    /   O peration     | Version:  v2012                                 |
|   \\  /    A nd           | Website:  www.openfoam.com                      |
|    \\/     M anipulation  |                                                 |
\*---------------------------------------------------------------------------*/
FoamFile
{
    version     2.0;
    format      ascii;
    class       volVectorField;
    location    "500";
    object      ddt0(U);
}
// * * * * * * * * * * * * * * * * * * * * * * * * * * * * * * * * * * * * * //

dimensions      [0 1 -2 0 0 0 0];


internalField   nonuniform List<vector> 
13917
(
(-0.0233588 -0.000690627 4.06518e-18)
(0.000377997 0.00191806 1.94711e-19)
(0.00144775 0.00771294 9.86038e-18)
(0.00113103 0.000943507 4.08361e-18)
(0.00189882 0.00232112 -3.86209e-19)
(0.000129 0.0018356 -1.17129e-18)
(0.00180616 0.00219066 4.38527e-18)
(0.00506628 0.000778181 8.66812e-19)
(0.00277667 0.00160726 -9.61968e-18)
(-0.000100749 0.000481066 2.99021e-17)
(0.00431902 0.000999816 -1.23788e-18)
(0.00067888 0.000690466 6.36055e-18)
(0.000349629 8.55475e-06 6.99045e-18)
(-0.00595024 -0.0240832 1.13386e-19)
(-9.12728e-05 0.000437007 4.30379e-18)
(-0.0226246 -0.000898355 -2.76568e-18)
(-0.00178556 -7.4605e-07 -3.66146e-19)
(0.00310572 0.000294695 -6.56276e-19)
(0.00131569 0.0063095 8.34928e-18)
(-0.0203167 -9.59354e-05 1.5035e-17)
(8.65009e-05 0.000762192 -3.18376e-18)
(0.000267918 0.000723165 1.43437e-18)
(0.00181178 0.0041071 9.27762e-19)
(0.000255584 0.000746543 -2.60357e-19)
(0.000867939 0.00122776 -1.02656e-17)
(0.000175636 0.000519181 7.10602e-18)
(-0.00152498 0.00427897 -4.51145e-20)
(-0.000159793 0.00017958 -2.47987e-17)
(0.00102605 1.03831e-05 2.43589e-18)
(0.000105993 -0.000985354 -3.0809e-20)
(-0.000202222 0.000221749 -1.15808e-17)
(0.00307786 0.00556768 1.07489e-17)
(0.000871426 0.000952285 4.92182e-20)
(-0.0249704 0.000698921 -7.97698e-18)
(-0.0012877 0.00168873 2.15989e-19)
(0.00631313 0.00146186 -2.44732e-20)
(0.000403029 0.000860363 -6.33544e-18)
(-0.000232775 1.67923e-05 -8.00751e-19)
(0.00186528 0.00222307 5.21481e-18)
(-0.000349237 0.00160459 2.58622e-18)
(-0.000857823 -2.23261e-05 -3.47621e-20)
(-0.00414293 0.000542327 1.34825e-20)
(0.00230805 0.00123023 5.48297e-18)
(0.00189003 0.00667785 -8.274e-18)
(0.0018981 0.00658193 2.32943e-18)
(-0.00148877 0.0061479 4.57467e-18)
(0.000128002 0.000829281 1.94223e-18)
(-0.00341728 -0.00140674 -3.13673e-18)
(0.00216153 0.0316921 -2.94943e-18)
(-0.00123623 0.00168134 -3.97117e-19)
(0.000647116 0.000669035 -2.66531e-18)
(-0.000465385 0.00533617 -1.88396e-18)
(-0.0290014 -0.00147658 -5.37638e-18)
(0.000384031 0.000582726 -1.3338e-18)
(0.000424555 0.000617851 1.7746e-18)
(-0.000334925 0.00539654 5.12991e-18)
(0.00152996 0.00122556 1.47187e-17)
(0.00175486 0.0040442 -1.18916e-17)
(-0.0039432 0.000449726 -1.97847e-20)
(-0.00170307 0.00608892 -2.4064e-18)
(-0.0124497 0.00542011 1.98679e-18)
(-0.00331549 0.00195843 4.19214e-21)
(-8.61615e-05 -6.81198e-05 7.90079e-21)
(0.000866962 0.00119604 1.00263e-17)
(-0.0127209 0.00493338 -2.94226e-18)
(0.00954794 -0.000893351 -1.96556e-19)
(0.00152245 -2.5445e-05 -1.23109e-18)
(0.00620154 0.00257044 4.81994e-19)
(0.00372258 2.71297e-05 -7.17924e-19)
(-0.0265555 -0.000839004 2.13183e-19)
(0.00183108 0.00738156 -4.88295e-18)
(-0.0248702 0.000341692 -2.69491e-18)
(0.00106799 0.000501939 -6.74503e-18)
(-0.00375869 0.000556674 2.48126e-20)
(-4.9463e-06 0.000761641 5.06001e-18)
(0.000638292 0.0011504 2.5525e-18)
(0.0010764 0.00111141 6.92997e-19)
(-0.00362015 0.000492398 -8.44383e-21)
(0.000659879 0.00113004 7.14376e-18)
(0.000887391 0.000977001 -4.13758e-18)
(0.000350778 0.000574037 -1.71443e-18)
(-0.00173599 1.34231e-05 -5.38493e-20)
(0.00100368 0.00047393 5.69164e-18)
(0.00132321 0.00863597 -7.50746e-18)
(0.000212445 0.00013704 2.52318e-18)
(0.00124066 -0.00547288 1.98106e-18)
(0.00314447 0.00544328 1.19349e-17)
(0.000206508 6.50764e-05 -1.23734e-19)
(-0.000303099 0.00151377 -3.27208e-18)
(-0.00194122 -3.41585e-06 4.66899e-19)
(-0.00206033 -3.82067e-05 -4.84758e-20)
(0.00245131 0.00125865 -4.50702e-18)
(0.00282762 0.0333101 9.57864e-19)
(-0.00160037 0.00149512 -1.82372e-20)
(0.000391392 0.000666292 -2.74613e-18)
(0.00120501 -0.000196999 -6.86197e-19)
(-0.0060155 0.00378747 -5.50823e-21)
(-0.00128382 4.06339e-05 1.83644e-18)
(0.000211739 7.41841e-05 9.24243e-22)
(-0.00304717 0.00180873 -7.23596e-21)
(-0.000661806 -4.87121e-05 1.59863e-20)
(-0.000668021 -6.41848e-05 1.36949e-20)
(0.000347381 0.000578223 2.11306e-18)
(-0.00133363 9.17529e-05 -7.68231e-19)
(0.000995235 0.00119716 2.84887e-20)
(-0.00670553 0.0100744 -8.91451e-18)
(-0.0200238 0.00031285 1.34693e-17)
(-0.00331041 0.00136633 -2.92468e-21)
(-0.00438517 0.000386909 -4.73714e-20)
(0.0018061 0.00460491 5.41584e-20)
(0.000467719 3.00765e-05 1.51687e-17)
(-0.0246348 0.000914043 9.25774e-18)
(0.000769855 -5.57292e-05 -5.20954e-18)
(0.00409254 -0.00146755 -4.49637e-18)
(-0.0115561 0.00526868 -1.71472e-18)
(0.000518671 0.00113091 -2.44143e-18)
(0.00136009 0.00624197 -3.04198e-18)
(-0.00169956 -0.000113885 -3.62662e-20)
(0.00121101 0.00728204 -5.71212e-18)
(0.000945821 0.000314143 -7.16607e-18)
(-0.00186809 1.89276e-05 1.27195e-20)
(-0.00337555 0.000704856 -1.52224e-20)
(0.00179226 -0.000278888 1.27589e-18)
(0.000735371 0.00551023 -1.41655e-18)
(-0.0313616 -0.000791649 -2.42761e-18)
(-0.00459482 0.00828478 -6.85948e-18)
(0.000912227 0.00117024 -5.1516e-18)
(-6.79418e-05 0.000680703 4.01572e-18)
(-0.000548771 0.00110798 1.30449e-19)
(0.000814319 0.00559399 1.0741e-18)
(0.00256232 0.00295127 3.94745e-20)
(-0.00272078 0.00358979 -9.21348e-19)
(-0.0334638 0.00380726 8.73033e-19)
(0.000502233 0.00110676 -1.67471e-18)
(0.00259879 0.00602344 9.49803e-18)
(0.00272635 0.00643864 3.8553e-19)
(-0.0104637 0.00531703 -2.67666e-18)
(-0.0357644 -0.00131458 3.25834e-18)
(0.000286403 0.000358761 5.5607e-19)
(-7.98983e-05 1.18919e-05 1.79852e-18)
(0.0134831 -0.023843 -4.58841e-19)
(-0.00351066 0.00056759 1.6846e-20)
(-0.00427427 0.0104249 4.31218e-18)
(5.5461e-05 0.000541436 2.45271e-18)
(0.000927196 0.000470483 4.51701e-18)
(-0.00500008 -0.0020918 9.99749e-20)
(0.00150271 0.00751951 -2.00653e-18)
(-0.0507638 -0.0551636 -2.21502e-20)
(-0.00771035 -0.00130038 -2.52582e-17)
(0.000393332 0.000598404 -1.15118e-18)
(-0.000147285 0.00145612 -1.20121e-18)
(-0.000535677 -7.63894e-05 3.41054e-20)
(0.000907677 0.000438972 5.46553e-18)
(0.000972397 0.000300262 4.71237e-18)
(-0.00711621 0.00477704 -1.90475e-19)
(0.000265796 0.00117615 2.25688e-19)
(-0.00137461 0.000111397 9.01008e-19)
(-0.0354774 0.00309295 -2.2826e-19)
(-0.00137479 -5.21943e-05 -1.12698e-21)
(-0.00165705 -8.56765e-05 -4.8877e-20)
(0.000126876 0.000314248 7.80101e-19)
(-0.0140978 0.00367852 -2.81777e-18)
(0.000365208 0.000812361 6.98135e-19)
(0.00629899 -0.0165508 5.65585e-19)
(-0.014118 0.00300414 6.32836e-18)
(-0.00365676 0.00241726 -1.90934e-19)
(-0.018998 -0.00119644 4.60498e-18)
(-0.0072251 0.00256706 -8.57099e-18)
(7.31503e-05 -0.00036531 3.2848e-21)
(0.000270622 0.000256635 3.28654e-18)
(0.000315724 0.000802705 2.62465e-18)
(-0.0298017 0.00428133 -7.71904e-18)
(0.00279958 0.00153648 -4.49163e-18)
(-0.0148557 0.0063795 6.42286e-20)
(-0.000419 0.00401478 1.05237e-17)
(-0.0010039 -7.96536e-05 4.87413e-20)
(0.0011709 0.000937499 -9.45377e-19)
(-0.000594971 0.00532212 -6.39521e-18)
(0.00273863 0.00285815 1.35124e-17)
(0.000373206 0.00081494 3.25018e-18)
(0.00224031 0.00127429 1.1398e-18)
(0.000274178 0.000794531 -2.52095e-19)
(0.000625626 0.000668599 2.57536e-18)
(5.03174e-06 0.00620272 3.9719e-19)
(0.00115772 0.00723443 1.55786e-18)
(-0.00272325 0.00344958 -8.7108e-19)
(0.000614718 0.000649817 6.12842e-19)
(-7.42531e-05 0.00623923 4.02313e-18)
(9.62536e-05 -0.00106245 -5.98182e-21)
(0.00140251 -0.00451471 1.70383e-18)
(-0.000524074 0.00394235 -2.91484e-18)
(0.00153805 0.00637147 1.15071e-17)
(0.000155738 0.00596026 2.05621e-19)
(-0.0225068 -0.000519728 1.16816e-17)
(-0.0015398 0.00148513 2.59351e-19)
(-0.0306182 -0.000791943 -3.38832e-18)
(0.000810955 0.00170422 1.64295e-18)
(-0.0322768 0.00451062 3.21701e-20)
(-0.00132394 0.00163879 -1.7336e-19)
(0.000246893 0.00111141 -1.44866e-18)
(0.00019714 0.000947987 -2.78812e-18)
(-0.0257064 -0.000863152 -9.66914e-19)
(-0.0353398 -0.00148849 6.06092e-19)
(0.000382771 0.000767317 -4.57702e-18)
(-0.00193769 0.00208243 -3.50333e-21)
(0.000757526 0.000764727 -7.58556e-19)
(-0.000192201 0.00153463 3.88418e-18)
(-0.00351183 0.000686722 -4.70616e-20)
(-0.000530094 0.00545186 -2.22281e-18)
(0.0003556 0.000570068 -4.77237e-18)
(-0.000763398 0.000823541 -5.81067e-19)
(0.00251842 0.00404945 1.693e-19)
(0.00316845 0.00431777 1.2009e-19)
(-0.00879751 -0.00134268 -1.21885e-18)
(0.0027727 0.00594778 -1.07388e-17)
(0.000157974 0.000448436 -1.05649e-18)
(-0.0183943 0.00273391 -1.85196e-18)
(-0.00011303 3.7048e-05 1.6935e-18)
(-0.0027426 -0.000213996 -2.61877e-20)
(-0.00274035 -0.000262731 8.35729e-20)
(-0.00276833 0.00166338 -5.67987e-18)
(-2.65363e-05 0.00602196 4.42307e-18)
(-0.000105275 0.00645073 1.4729e-18)
(0.000460644 0.000114466 -7.54315e-19)
(-7.67034e-05 -4.17469e-05 -2.22009e-20)
(0.00658582 0.00739689 -8.80744e-20)
(-0.0299052 -0.00107969 -1.26198e-18)
(-0.00255138 -0.000181921 -1.93934e-19)
(-0.00250447 -0.000181941 8.57418e-20)
(-0.000809599 3.471e-06 -7.11206e-20)
(-0.00282707 -0.000291173 -9.4225e-20)
(-0.00282375 -0.000346658 -1.20762e-19)
(-0.0246015 0.000142975 4.8694e-18)
(-0.0173485 -0.00110547 -1.15875e-17)
(0.000344269 0.000593888 5.88559e-18)
(1.44681e-05 -0.000587786 4.40327e-21)
(0.000227939 0.0046884 -5.02586e-18)
(-0.0265286 6.70502e-05 -6.31244e-19)
(-0.00167556 -5.02543e-05 8.65589e-20)
(0.000458915 0.000104407 -6.88125e-19)
(-0.00106061 0.00250984 -1.36355e-20)
(-0.00705507 0.0103595 -1.09535e-17)
(-4.20697e-05 0.0060764 1.41987e-17)
(-0.019089 0.00254845 3.33039e-18)
(-0.001066 0.00447215 -5.6991e-18)
(6.76349e-05 0.000532646 4.08058e-18)
(-0.0138646 0.0027112 4.38002e-18)
(0.00025925 0.0048197 5.18647e-18)
(0.000705763 0.000139793 -5.41741e-19)
(0.00183619 0.00550545 -1.47713e-18)
(0.000393967 0.000765269 -4.14999e-18)
(-0.0166827 -0.001363 2.42257e-18)
(0.000985545 0.000360724 5.7819e-18)
(-5.56275e-05 0.00260022 -4.03394e-18)
(-0.000214222 0.00388397 -2.72509e-18)
(0.000379706 0.000603202 -1.70054e-19)
(-0.000488033 -7.01621e-06 2.73553e-20)
(0.000912916 0.00120238 -8.87553e-18)
(0.000317272 0.00239496 -5.96307e-19)
(-0.0017502 0.00180369 4.35591e-19)
(-0.0313093 -0.000230214 7.06986e-18)
(0.0274043 0.0127959 3.68593e-19)
(-0.00314586 0.00116745 -5.94489e-20)
(-0.00246502 -0.000138848 1.09641e-19)
(0.000330436 0.00119149 4.22185e-19)
(-0.00247136 -0.000105412 -1.39894e-19)
(0.000995271 0.00034642 7.85142e-19)
(0.000427925 1.55701e-05 -1.07037e-18)
(0.00106256 0.0031533 4.83729e-19)
(-0.00329544 0.0012324 3.0381e-20)
(-0.0370931 -0.00111621 2.38041e-18)
(-0.0195695 0.000519806 -1.55333e-17)
(0.000490587 0.000520337 -7.47986e-18)
(0.000615808 0.00183205 6.68695e-19)
(-0.00267799 0.00629144 3.30821e-18)
(-0.00232681 -0.00108215 2.35284e-19)
(-0.00265647 0.00147315 -3.25062e-20)
(-0.0315017 0.000168887 -1.47999e-18)
(-0.0023879 -0.00104182 1.5753e-19)
(-0.0267456 -0.000443779 -8.70849e-18)
(-0.00180281 0.00176013 -7.98283e-20)
(-0.0128436 0.00413422 -1.68877e-18)
(-0.000904872 -5.72001e-05 3.4937e-20)
(0.000103862 0.000350863 5.82087e-21)
(0.000385555 0.000602078 1.72538e-18)
(-2.04929e-05 0.000590226 -2.56435e-18)
(0.000711543 0.00630816 1.41827e-18)
(-0.000555075 3.79855e-05 -1.17024e-18)
(-0.00380679 0.00285458 2.49671e-19)
(0.000463995 0.0017616 -1.02817e-17)
(0.0309224 0.00770143 -4.13925e-19)
(-0.00574591 -0.00244368 -9.66843e-20)
(-0.00200724 0.00223468 -2.97255e-19)
(-0.0368727 -0.00143708 1.14085e-17)
(-0.00177858 -7.17353e-05 -1.03055e-19)
(0.00114994 0.0042051 1.15292e-17)
(0.000876586 0.002481 1.19276e-18)
(0.000463021 0.00108632 -8.28125e-18)
(0.00153137 0.0023308 7.86068e-19)
(0.000697351 0.00115963 -3.31564e-18)
(-0.00169423 0.00158883 4.12635e-20)
(-0.000646414 5.47877e-05 1.28104e-18)
(-0.000977364 0.00463062 2.87573e-18)
(0.00400815 6.45012e-05 5.10634e-21)
(1.55684e-05 0.00255736 5.86519e-18)
(0.000705514 0.00113703 1.82107e-18)
(0.000451293 0.000102848 -3.2351e-18)
(-0.0346946 0.00355605 -5.82061e-18)
(-0.024964 -0.00101596 -2.06253e-18)
(-0.000724261 0.00113331 -3.84564e-20)
(0.00145925 -0.00178214 -2.8676e-19)
(0.000481149 0.00111399 5.41688e-18)
(0.00323499 0.0176675 3.91182e-19)
(0.00261443 0.00771014 2.20745e-17)
(-0.0203024 0.000795397 1.25426e-17)
(-0.0129434 0.00623546 -2.96776e-18)
(0.00931157 0.00661464 2.10765e-20)
(-0.00252073 0.00366645 5.603e-19)
(0.000459236 0.00176443 -1.02273e-18)
(0.00295673 0.00855562 2.96714e-18)
(0.00575168 0.0192878 3.3844e-19)
(0.00160224 0.00778387 -1.51385e-17)
(0.000430559 1.38232e-05 -6.78729e-18)
(-3.69676e-05 0.000363949 -3.74139e-18)
(-0.00181214 0.00318286 -2.20847e-20)
(0.000350957 0.000927843 -5.83423e-19)
(0.000520423 0.00210684 1.23186e-18)
(0.00169377 0.00629626 -6.42826e-18)
(-0.00175535 -4.6455e-06 1.71345e-20)
(-0.0291703 0.00460742 4.26413e-18)
(0.000223892 0.000105577 -1.21796e-19)
(0.00423864 0.00361505 -1.95813e-18)
(-0.00143697 -0.00179509 -1.46596e-20)
(-0.0154338 6.41703e-05 5.91696e-18)
(-0.000618462 0.000393195 -9.459e-19)
(0.000169328 0.00254875 8.93448e-19)
(0.00077647 0.00069064 1.12122e-18)
(0.0085217 0.00786156 -3.30406e-20)
(-0.00197665 -3.39134e-05 2.88634e-20)
(0.0020805 0.00561022 5.03465e-18)
(0.00156281 0.0107467 -1.49766e-17)
(0.000404465 0.000671683 -1.19472e-18)
(0.000334463 0.000973528 1.70661e-18)
(-0.0247629 0.00136378 -3.43815e-18)
(-0.000125848 0.0108748 6.15412e-18)
(-0.00652157 0.00675408 5.92844e-18)
(0.00375642 -0.0208465 5.90596e-19)
(-0.00234722 -0.00093452 -3.08477e-19)
(0.000329753 0.000574054 -2.61077e-18)
(-0.0102434 0.00995343 -8.37214e-18)
(-0.00248403 0.00388099 3.06971e-18)
(-0.00241721 -0.000896723 1.88764e-19)
(0.00120637 0.00263124 -1.2101e-18)
(0.000499264 0.000624812 -5.1477e-18)
(-0.000828896 0.000129264 6.13792e-19)
(0.000140738 0.00260218 1.2179e-18)
(0.000268734 0.00566468 9.44053e-19)
(-0.00152481 0.00365818 1.885e-18)
(-0.00266883 0.00122765 -1.11896e-18)
(0.00377074 0.00372529 4.10067e-19)
(-0.0228683 0.000162998 -4.46634e-18)
(-0.000502625 0.0011253 6.26503e-20)
(0.000414967 0.000681068 -3.29962e-18)
(0.00221522 0.00254097 1.5229e-19)
(0.000737269 0.00661085 2.97943e-18)
(-0.00161097 -2.39601e-05 -4.49086e-20)
(-0.0223321 -0.000708478 -1.18322e-17)
(0.00389273 0.0036538 4.61795e-18)
(0.00698981 -0.0057897 1.35183e-19)
(0.000445488 0.000627384 9.62458e-19)
(-0.00204622 0.00383921 -8.99726e-19)
(0.000858543 -0.00235064 -3.46199e-19)
(-0.00981433 0.0279094 -1.84402e-19)
(-0.00361009 4.0003e-06 -2.20035e-20)
(-7.60397e-06 0.00637903 2.0835e-19)
(-0.00237301 0.00632561 9.10521e-19)
(0.000903509 0.00060088 1.16144e-18)
(0.000491704 0.000536533 4.5972e-18)
(7.49313e-05 0.00660666 3.96262e-18)
(-0.0011458 -0.00184253 -7.8407e-20)
(-0.0141475 0.00352497 6.89161e-18)
(0.000106716 0.00603034 -3.75145e-18)
(-0.00343368 -4.0559e-05 5.07635e-20)
(-0.00939125 0.0285397 -8.32266e-19)
(0.00047345 0.000599524 1.75272e-18)
(-0.0135224 -0.00397192 -3.97367e-19)
(-0.00181292 0.000966532 8.97229e-19)
(-0.020952 4.35461e-05 -2.11219e-17)
(-0.0115602 -0.00693332 7.8734e-20)
(0.000458929 0.000905775 -6.74155e-18)
(0.00995358 0.00618355 -5.70873e-19)
(-0.00228863 0.000887717 2.62612e-18)
(0.000393355 0.000738408 9.32522e-18)
(-0.0129182 0.00439545 -7.47449e-20)
(0.00445442 0.0101493 7.8719e-18)
(0.000512303 0.000911981 9.14985e-19)
(0.000606919 0.00628851 -5.4726e-18)
(0.000319347 0.00056804 1.92974e-18)
(-0.00247414 0.000595008 -1.16302e-18)
(0.00148458 0.00756405 -6.43598e-18)
(0.000215219 9.14632e-05 4.35262e-19)
(0.00222618 0.00203077 3.51165e-18)
(0.000742444 0.00115896 4.26217e-18)
(-8.9377e-06 0.000544576 -1.59344e-18)
(-0.000214197 0.000303058 4.78209e-18)
(-0.000427331 0.00111004 1.6125e-20)
(-0.00302353 0.00534513 4.53137e-19)
(-0.00314835 0.00244967 1.45355e-20)
(0.000406065 0.000655906 -1.3904e-18)
(-0.000462971 0.00120168 4.40215e-19)
(0.000209396 0.000723258 -1.64753e-18)
(0.000692603 0.0038796 3.86363e-18)
(0.00558814 0.00766475 -3.37369e-20)
(-0.00191152 -0.00153178 -5.95112e-20)
(5.61012e-05 -0.000333547 7.1598e-21)
(0.0031338 0.00762351 -2.13984e-17)
(-0.0020176 0.00365532 -3.21056e-18)
(1.15402e-05 0.000599625 -5.54452e-19)
(0.000481998 0.00090144 1.44365e-17)
(-0.00831944 0.00729638 -5.61774e-18)
(-0.00512237 0.00228567 8.69441e-20)
(0.00744495 -0.00052122 -2.51002e-20)
(0.00132904 0.00642914 -4.61225e-18)
(0.00342004 0.00863178 2.87635e-18)
(-0.00383533 -0.000314939 -1.1437e-20)
(-0.00201946 -0.0013931 -9.55777e-20)
(0.000265967 0.000775594 -3.9998e-18)
(-0.000217704 0.000288164 1.42372e-18)
(-0.00200009 -0.00153309 4.78638e-20)
(0.000368715 0.000592005 -2.13897e-18)
(-0.00211091 -0.00139186 2.90674e-20)
(-0.00375268 -0.000385193 -5.95181e-21)
(-0.0140254 0.00106483 3.33297e-18)
(0.000328395 0.000571189 2.50735e-18)
(-0.00042138 0.00183085 -4.07318e-18)
(-0.0369858 -0.000910079 -9.39284e-18)
(0.00107956 0.00410016 -6.65651e-18)
(-0.000725141 0.000846201 1.01179e-18)
(0.000877543 0.000431119 -2.39025e-18)
(-0.012898 0.00421234 3.04042e-18)
(0.000210164 0.000889724 -3.80721e-18)
(-0.0313281 -0.000968236 3.53813e-18)
(-0.00161094 -0.00174157 4.76236e-20)
(0.000474611 0.000257849 -4.70915e-18)
(-0.00111773 -0.00197314 8.36523e-20)
(-0.00291548 -0.000394841 1.70517e-19)
(0.000412043 0.000839356 5.98491e-18)
(0.000535482 0.000613822 -4.00653e-20)
(-0.00701884 0.00759418 2.26308e-19)
(0.00134381 -0.00129077 1.8519e-20)
(-0.0101084 0.00987686 1.16189e-17)
(0.000461194 0.00025776 4.93715e-18)
(0.00195218 0.00329272 -5.17249e-18)
(-0.000227635 -0.00378677 2.06643e-22)
(0.00034936 0.000569257 5.15772e-18)
(-0.000908806 0.00455243 6.33304e-18)
(-0.00703716 0.00690783 -1.14605e-17)
(0.000497952 0.000612522 7.2147e-18)
(0.0120921 0.00933316 9.43605e-19)
(-0.000647927 0.000848708 2.52829e-19)
(-0.000297486 9.85234e-05 1.92878e-18)
(0.000166319 0.000726814 2.23025e-18)
(0.000453018 0.000572994 2.90623e-18)
(-0.000827757 0.000776708 -6.43695e-19)
(0.000109758 4.68978e-05 -1.9352e-18)
(-0.0344567 0.00337702 1.93442e-18)
(-0.0156342 0.00574952 7.39416e-18)
(-0.000861787 0.000749676 -2.06324e-19)
(-0.00231448 0.00200774 -8.76519e-19)
(0.00324334 0.00749515 -1.16304e-17)
(0.000465184 3.03315e-05 -2.4577e-18)
(0.000893545 0.00434145 1.37105e-17)
(0.00489259 0.00596464 1.16414e-17)
(-0.0142893 0.00296798 9.13827e-18)
(0.0023852 0.00217866 -2.35038e-17)
(-0.0057549 0.00976681 -1.86802e-18)
(-0.00833284 -0.00290177 -2.19026e-19)
(-0.0115929 -0.000122875 4.84817e-19)
(0.000518602 0.000581556 -1.30827e-18)
(0.0103979 0.00209521 7.375e-20)
(-0.00130903 -0.0056022 5.00138e-21)
(0.000385951 0.000743592 -2.56447e-18)
(0.00203637 0.00705265 -3.79363e-18)
(-0.00206793 -2.75827e-05 -3.36273e-21)
(0.000384137 0.000571225 2.63351e-19)
(0.000402279 0.000677623 1.42718e-18)
(0.00244971 0.00186483 1.32941e-17)
(-1.22828e-05 0.00101083 3.71363e-18)
(0.00110013 0.00699123 8.57619e-18)
(0.00222913 0.00466853 5.36439e-18)
(-0.00664477 0.000701263 1.80662e-19)
(0.000640998 0.00204159 -1.33624e-18)
(0.00261927 -0.000251478 4.69214e-19)
(-0.00093544 0.00219803 2.23951e-18)
(0.000407694 0.000644322 -7.09035e-20)
(-0.0203081 -0.0269907 -1.03689e-19)
(0.00149013 0.00327151 -1.30971e-17)
(0.000516107 0.00180606 5.29694e-19)
(-0.0139397 0.00465525 -2.16101e-18)
(0.000239664 0.000121484 -1.54659e-18)
(-0.00102332 0.00222885 3.86057e-18)
(-0.00101539 0.00546999 4.0666e-19)
(-0.000447036 0.000272938 4.39039e-20)
(-0.0369634 0.00166717 -6.41688e-18)
(-0.000272691 9.45714e-05 1.12538e-18)
(-0.00290382 -0.000457315 -5.11177e-20)
(0.000701386 0.00400887 -6.04166e-18)
(-0.00171139 -0.00177742 1.51952e-19)
(-0.000146796 4.52291e-05 4.04888e-18)
(-0.00139019 0.00534503 1.83507e-18)
(-0.0386511 0.00237982 -2.01194e-18)
(0.0167594 0.00777101 4.72603e-19)
(0.000135985 0.000296559 3.78856e-18)
(0.00143655 0.000975607 1.19854e-17)
(-0.00549852 0.00248289 -1.03292e-20)
(0.0005342 0.00705086 -2.23664e-19)
(-0.00299773 0.006467 1.97746e-18)
(0.000400105 0.000619311 -2.16507e-18)
(0.000406703 0.000603142 -1.72198e-18)
(0.00011877 0.000269571 3.26467e-18)
(1.02229e-05 0.0038247 4.46115e-18)
(0.0489085 0.00706893 -3.48643e-19)
(-0.0006388 0.00124213 8.41471e-19)
(-0.00173202 -3.90729e-05 3.50349e-20)
(0.00019131 0.00110257 6.56317e-19)
(-9.42024e-06 0.000517689 8.56192e-20)
(0.000654094 0.0023746 -1.69927e-21)
(0.00100051 0.00222009 2.40374e-19)
(-0.00203728 -4.06963e-05 9.41659e-20)
(0.0020984 0.00468321 -7.10811e-18)
(-0.000449925 0.000254456 -6.00574e-18)
(0.000239253 0.00068499 -1.07491e-18)
(0.000745017 0.00114282 -2.46336e-18)
(-0.0211566 0.000842847 -9.77338e-18)
(-0.0020224 0.000125642 -1.86246e-19)
(0.00180409 0.00143777 8.61059e-18)
(-0.00169229 0.00176982 2.8713e-20)
(0.00243914 0.00323403 -8.2322e-18)
(0.000845145 0.00477498 -6.60658e-19)
(-0.000263839 -0.000672868 1.55114e-18)
(-0.00029256 0.00397451 -3.22416e-18)
(-0.00298412 0.00219454 4.47764e-19)
(0.000676998 0.00104083 -6.13483e-18)
(0.00221713 5.35789e-05 2.46644e-18)
(-0.0303311 0.00506274 -3.67013e-19)
(-0.0154529 0.000535859 -1.43274e-18)
(-0.0372028 -0.000580285 -6.24854e-18)
(-0.000912842 0.0011415 -9.10013e-19)
(0.0001239 0.000757898 -1.2079e-19)
(-0.00748059 0.000761667 -5.43989e-20)
(0.000521758 0.00041598 2.8338e-18)
(-0.0133377 0.00533437 8.93945e-18)
(-0.00234356 -0.00120435 -1.51374e-19)
(0.0522372 0.0336049 -4.7083e-19)
(0.000864906 0.00172898 -5.66276e-18)
(-0.0214038 0.00661551 -6.4148e-18)
(-0.00278985 0.00165638 -3.14213e-19)
(0.00225926 0.00129258 -5.36099e-18)
(0.00223597 0.000905404 8.31946e-18)
(-0.00090595 0.000771331 6.77689e-19)
(0.00437661 0.00537997 2.32425e-18)
(-0.00144747 5.55831e-05 -7.33459e-19)
(-0.00195324 0.00255703 -6.61334e-20)
(-0.0240539 0.00602946 -7.58024e-19)
(-0.00176736 -0.00165305 -3.284e-19)
(0.00223826 0.00852032 -1.90407e-18)
(-0.000248871 -3.99658e-05 4.7389e-20)
(0.00046381 2.06711e-05 4.38556e-18)
(0.000155736 0.000756757 -9.35853e-19)
(0.00117336 0.00699418 -1.13989e-18)
(0.000680041 0.0026472 -8.71937e-20)
(-0.00232844 -3.8286e-05 4.7088e-20)
(0.00232496 0.00682475 7.11441e-18)
(0.000867898 0.0041347 -1.2115e-17)
(-0.0143092 0.00568559 3.43352e-19)
(0.00397048 0.00785159 -1.21396e-18)
(-0.0354955 0.00375166 -8.36443e-19)
(-0.014245 0.00284565 -3.66057e-18)
(-0.00200388 0.000124755 2.64706e-19)
(-0.028771 -0.000699269 -7.67064e-18)
(-0.000317919 -0.000125555 -6.42095e-21)
(-0.0126115 0.00561434 2.46056e-18)
(-0.0480817 -0.0530071 -7.11137e-20)
(-0.00182698 0.002745 1.02478e-20)
(3.63708e-05 -0.0029834 -6.26057e-20)
(-0.000637159 -6.07681e-05 2.98375e-21)
(0.00145972 0.0032118 1.11343e-17)
(0.00226397 0.00119597 -2.30962e-17)
(-0.00186824 -0.00167101 9.04116e-20)
(-0.00135549 5.37116e-05 -1.14923e-18)
(0.000381311 1.74482e-05 9.97037e-19)
(0.00206817 0.00740285 -2.03832e-18)
(0.000187577 0.000326705 6.82976e-19)
(0.0032304 0.00525127 2.28897e-18)
(0.000365128 0.000559037 -5.34216e-19)
(-0.00230297 -5.7227e-05 7.20107e-20)
(-0.00150912 -7.29998e-05 1.16595e-19)
(-0.00128567 0.00600087 -5.7192e-18)
(-0.00179243 0.00648608 5.86449e-18)
(-0.00206554 0.000559082 -2.76801e-18)
(0.00188303 0.0053924 -1.29486e-18)
(0.00107289 0.00223088 9.63327e-18)
(-0.000816734 0.00626943 -3.00123e-18)
(-0.0269564 0.000228197 -1.87606e-18)
(-0.00184727 0.0010239 -5.91244e-19)
(0.000751601 0.00727241 6.93429e-18)
(0.000376273 1.46022e-05 -1.53849e-18)
(0.00475779 0.00724277 6.83313e-18)
(0.000507141 0.000421481 5.63403e-18)
(-0.000206299 0.00670522 -7.40655e-19)
(-3.53999e-05 0.000510435 -1.34589e-18)
(0.000800466 0.00209551 1.57808e-19)
(0.00094048 0.000481872 -4.76118e-18)
(-0.0245815 -0.011518 -1.22257e-18)
(0.00120158 0.00324177 -7.46631e-18)
(-0.0153843 0.00411787 8.5436e-18)
(-0.00205648 2.02945e-06 3.60143e-19)
(0.00114062 0.00306461 1.12002e-17)
(-0.000922153 0.00156156 -7.16228e-19)
(-0.000537822 -3.0699e-05 1.48912e-20)
(-0.0225935 0.000369302 9.91522e-19)
(-0.00434902 0.00165145 -1.15503e-19)
(-0.00101187 0.00172493 4.54085e-19)
(0.000236559 0.0057617 -8.45241e-18)
(0.000447128 0.000111106 1.0251e-17)
(-0.00247298 0.00255293 3.67734e-20)
(-0.000471335 -4.80456e-05 -4.08007e-21)
(-0.0227545 0.000734153 6.50805e-18)
(0.000202489 0.000318987 -4.83516e-19)
(0.000539932 0.0025999 2.09952e-19)
(-0.00227331 -0.00123077 -4.50501e-20)
(-0.00100703 0.00165951 2.07907e-19)
(0.000689961 0.0065596 -2.96448e-18)
(-0.000559124 -6.53265e-05 -2.27212e-20)
(0.000535108 0.00578894 -5.67787e-18)
(-0.00161285 2.32629e-05 4.00682e-20)
(-0.000554888 0.000363547 -1.32457e-18)
(-0.00966786 0.00553796 -1.70268e-18)
(0.0033606 0.00537784 -1.03078e-17)
(0.00039386 0.000606033 3.08568e-18)
(-0.0353679 -0.00186749 9.12958e-18)
(0.00231949 0.00852199 -7.50882e-18)
(0.000874024 0.00818544 -4.70066e-20)
(-0.00133071 0.0057409 -2.79591e-18)
(-0.000938047 0.00074454 -1.44471e-18)
(-0.00021361 0.000438779 1.97796e-18)
(-0.0211385 0.000590803 2.31071e-18)
(0.00332741 0.00970791 6.77472e-18)
(0.000280106 0.000826688 2.84577e-19)
(0.000404588 0.000878997 -2.0893e-19)
(0.00102094 0.00203312 1.04025e-19)
(-0.00171213 3.11556e-05 3.09621e-19)
(-0.000297897 0.000983846 -9.63937e-19)
(0.00709038 0.00788782 -2.15758e-19)
(0.000685524 0.00486155 1.00173e-18)
(0.000710125 0.00145545 1.57903e-17)
(-0.0151097 0.00478066 2.21271e-20)
(0.00128479 0.00332865 5.09582e-18)
(0.0051684 0.0119193 -7.84507e-20)
(-0.00256297 0.00694419 -1.55986e-18)
(0.00334792 -0.000792192 1.20887e-20)
(0.000434738 0.00266761 3.18143e-18)
(0.000275705 0.00594022 1.03613e-18)
(-0.0264712 -0.000289815 3.14843e-18)
(-0.00163161 0.00156995 -2.15149e-19)
(0.000557117 -0.000411461 -4.2635e-19)
(0.00541961 0.0119121 1.04253e-19)
(-0.000524282 0.00034866 -1.76841e-18)
(-0.00198866 2.99405e-05 3.67193e-19)
(-0.00145367 -7.06583e-05 -9.62506e-20)
(-0.00602995 0.00276593 -5.70451e-20)
(-2.53024e-05 4.36324e-05 -1.15219e-18)
(-0.0287937 -0.00062936 -5.3437e-18)
(0.00335035 0.0029964 1.83544e-17)
(-0.00109816 0.000128964 3.61732e-19)
(0.00151587 0.00613561 -8.84392e-18)
(-0.00207353 6.71978e-06 -5.74091e-19)
(-0.0200913 0.00104683 -2.25324e-18)
(-0.00187435 0.00179735 -7.52541e-20)
(-0.000593867 0.0011496 7.96036e-20)
(-0.0385582 0.00193164 -2.61081e-18)
(0.00102686 0.00467761 -4.77028e-18)
(-0.00913377 0.0284349 -3.87656e-19)
(0.00104759 0.000605677 5.89603e-18)
(-0.000695259 -0.00141697 -1.49481e-19)
(-0.000832022 0.00126336 -6.80162e-19)
(0.00127569 0.00081501 -5.66431e-18)
(0.00179099 0.0024861 -9.01255e-18)
(-8.08893e-05 0.000653443 -1.72956e-18)
(-0.0333876 -0.00120286 9.44674e-18)
(0.000345806 0.00187963 -1.89778e-18)
(0.0366716 0.013195 1.70447e-18)
(-0.00771502 0.0309082 1.45865e-19)
(0.000917198 -0.000244853 5.36555e-20)
(-0.0358902 0.00372074 -4.99486e-18)
(0.00140696 0.000997661 -4.49256e-18)
(-0.00123383 5.94208e-05 -3.422e-19)
(-0.000930872 0.00162022 7.87376e-19)
(-0.0312641 0.00044796 -8.07568e-19)
(0.0140574 0.00634593 -1.07338e-18)
(0.000784123 0.00173326 3.57311e-18)
(-0.0320996 -0.000902501 6.65478e-18)
(0.058097 0.0241334 -5.12787e-19)
(-0.000594812 0.00041636 1.05972e-18)
(-0.0006829 0.00116187 -3.78563e-19)
(0.000401221 0.000820789 -1.17165e-17)
(-0.00246445 0.0104031 1.63137e-17)
(-0.00216685 0.0265605 -1.64964e-20)
(0.0010956 0.00324079 6.31103e-18)
(0.00125366 0.000797764 1.04117e-17)
(0.00176291 0.00146466 3.99295e-19)
(0.00496979 0.00738151 -1.02335e-17)
(0.00046817 0.00161128 4.98469e-20)
(0.000398023 0.00567948 -1.70991e-18)
(0.00305864 0.0030656 -2.76724e-17)
(0.000387268 0.000649798 2.86905e-18)
(0.000862846 0.000982542 -5.18549e-19)
(-0.00117998 5.865e-05 -3.11581e-19)
(0.00175492 0.0024313 7.37573e-18)
(0.000399631 0.00212193 1.2479e-18)
(0.00352976 0.0103024 -5.74454e-18)
(0.000425363 0.00105256 8.32882e-18)
(-0.00326456 0.00434074 9.80757e-20)
(-0.0325815 -0.00112858 3.65435e-18)
(0.0018406 -0.00150379 8.89607e-21)
(0.0520078 0.024684 -3.97398e-20)
(0.00042264 0.0008795 3.60367e-18)
(0.000294778 0.00128123 -1.59498e-19)
(0.00106499 0.00182612 -3.64842e-18)
(0.00351343 0.00952758 -8.28685e-18)
(-0.00191645 1.55855e-05 2.49116e-19)
(0.00455563 0.00514614 -2.83187e-17)
(0.000822258 0.00651384 -7.02682e-19)
(-0.0226549 0.0245442 1.25787e-19)
(0.000553199 0.000424262 -3.10431e-18)
(0.000437122 0.00108435 3.68097e-18)
(-2.65311e-05 2.9142e-05 5.09503e-18)
(0.000451849 0.000331675 -7.15677e-18)
(0.000948444 0.000429212 1.11593e-18)
(0.00167573 -0.00131698 -6.93904e-19)
(0.00157871 -0.00281147 1.03552e-20)
(-0.00137048 0.00585874 4.6397e-18)
(0.000443337 0.0057855 -1.46713e-18)
(-0.00101867 0.000735556 -6.02879e-19)
(0.00207278 0.0102873 5.4869e-18)
(0.00274661 0.00161952 4.19402e-18)
(0.00240073 0.0019093 -8.26547e-18)
(0.000307124 0.0058601 1.66753e-18)
(0.000340354 0.000572995 1.19901e-18)
(0.00422607 0.00539198 -4.16848e-18)
(-0.00439609 0.0036667 -1.66096e-19)
(-0.00217993 4.75106e-05 -7.09914e-20)
(0.00113322 0.0046994 8.71476e-18)
(-0.00091855 0.00404192 1.378e-20)
(0.00312626 0.00305624 1.72896e-17)
(-0.000437051 0.000874551 8.34364e-20)
(-0.000746604 0.000776422 -1.64448e-18)
(-0.000323714 0.000999848 5.57721e-20)
(-0.0257174 -0.00102543 6.77051e-18)
(0.000841509 0.000924843 -5.04124e-18)
(-0.00196356 0.00193831 -4.09113e-20)
(0.00409566 0.00358546 8.55888e-18)
(-5.38978e-05 0.000661049 2.7844e-18)
(-0.000704936 0.000922385 2.18539e-18)
(-0.000233991 0.00532712 -2.65436e-18)
(-0.00454083 0.00290869 5.02591e-19)
(0.00370747 -0.00198262 -6.20807e-19)
(-0.000775186 0.00502892 9.0539e-19)
(-0.000622223 0.000199108 5.8495e-19)
(-0.0130493 0.00942008 -8.31001e-18)
(0.00097607 0.000414604 -1.35552e-17)
(0.00122673 0.00112753 -8.17475e-20)
(-0.000533402 0.00632787 4.72431e-18)
(-0.00198775 0.00297997 -8.61894e-21)
(-0.0049956 0.00106619 -9.11769e-21)
(-0.00192516 -2.95572e-05 1.71581e-19)
(-0.00195178 4.36601e-05 9.75871e-20)