/*--------------------------------*- C++ -*----------------------------------*\
| =========                 |                                                 |
| \\      /  F ield         | OpenFOAM: The Open Source CFD Toolbox           |
|  \\    /   O peration     | Version:  v2012                                 |
|   \\  /    A nd           | Website:  www.openfoam.com                      |
|    \\/     M anipulation  |                                                 |
\*---------------------------------------------------------------------------*/
FoamFile
{
    version     2.0;
    format      ascii;
    class       volScalarField;
    location    "250";
    object      k;
}
// * * * * * * * * * * * * * * * * * * * * * * * * * * * * * * * * * * * * * //

dimensions      [0 2 -2 0 0 0 0];


internalField   nonuniform List<scalar> 
13851
(
0.000159345
0.00711356
0.000205373
0.000158357
0.00019954
0.000178162
0.00014921
0.000189517
0.000139352
0.000215114
0.000543368
0.0441136
0.0532201
0.0220167
0.000144426
0.00017997
0.000163356
0.000171661
0.0394677
0.000139145
0.000157843
0.000203881
0.00015752
0.000149981
0.000160033
0.000190603
0.000160043
0.00140823
0.00015899
0.00016283
0.000181464
0.000164176
0.000204436
0.00814681
0.000149809
0.000249343
0.0418145
0.0129244
0.000218053
0.00766201
0.000148345
0.000136929
0.00423762
0.00154696
0.0023234
0.0165098
0.00471354
0.000214904
0.000160577
0.000882318
0.00019334
0.000183269
0.00632574
0.000146646
0.000153661
0.000137188
0.000150492
0.00811412
0.000162112
0.000150055
0.0129412
0.0386903
0.000188379
0.000202295
0.000249163
0.000162803
0.0474161
0.00536553
0.000174445
0.000171291
0.0189256
0.0554666
0.0148894
0.000147668
0.00014194
0.000142464
0.000202667
0.0238613
0.000186746
0.0208356
0.000151961
0.000451032
0.000145393
0.0127154
0.000189796
0.0443342
0.000173182
0.00309512
0.000163666
0.000159624
0.000280022
0.000180082
0.00539648
0.000167755
0.000163056
0.000156328
0.000199769
0.0459451
0.00237449
0.000156642
0.0158134
0.000186587
0.000155295
0.000158108
0.000142163
0.000175131
0.000188542
0.000134454
0.0604132
0.000179803
0.000153117
0.000160198
0.000178248
0.000152467
0.000152871
0.0205023
0.0486918
0.000134528
0.000150589
0.000156103
0.00412854
0.000157921
0.0542465
0.00643835
0.000227334
0.000172549
0.000218031
0.000186787
0.000157154
0.000152537
0.000147984
0.00013888
0.0233198
0.000145237
0.0198771
0.000140662
0.00013461
0.0543296
0.0307113
0.0181
0.0153596
0.000153523
0.000165067
0.000146062
0.000159091
0.00176169
0.000198454
4.1151e-05
0.00014892
0.00217524
0.000190382
0.000152757
0.0220032
0.000151809
0.000156915
0.000158858
0.000143338
0.000159206
0.000177599
0.000193238
0.000139412
0.000166368
0.00785572
0.000138728
0.000171837
0.000141464
0.000197252
0.000174777
0.000156716
0.0267647
0.0202757
0.000137497
0.000143662
0.0191638
0.000138636
0.000229414
0.00018623
0.000163911
0.043038
0.000135156
0.000166153
0.0569405
0.000144886
0.000205504
0.00013356
0.000161586
0.000163195
0.000149002
0.000203371
0.000218278
0.00470014
0.00714864
0.000165194
0.000175442
0.0406171
0.000156468
0.00016153
0.00662008
0.0001624
0.000142748
0.000173664
0.0232628
0.000154762
0.000144869
0.000209035
0.000145143
0.0496608
0.000163435
0.0390636
0.000136324
0.0583462
0.000154807
0.00681592
0.000133963
0.000144149
0.000252456
0.000190859
0.0161
0.000143711
0.0409033
0.000163887
0.000152229
0.0562053
0.000172472
0.0556253
0.000163303
0.000170846
0.000143552
0.00937397
0.000134049
0.000189708
0.000247469
0.000137378
0.000164315
0.000190428
0.000190998
0.0517274
0.000254189
0.000145689
0.000145063
0.000179806
0.00779609
0.000150622
0.00021217
0.000140386
0.0516074
0.0001876
0.00819375
0.000159335
0.000166566
0.000184112
0.00760392
0.000152927
0.000159552
0.000185223
0.00020706
0.000216465
0.0558408
0.00592946
0.000145045
0.000144522
0.000169318
0.00180504
0.000156162
0.0486698
0.000156448
0.00015268
0.000166872
0.0572588
0.000907629
0.000184518
0.00015696
0.000218476
0.000185168
0.000178893
0.000139006
0.000438668
0.000178788
0.0574307
0.000499788
0.000151365
0.000135182
0.000141153
0.000184245
0.00187135
0.000261131
0.000140529
0.000144488
0.00021153
0.000365426
0.00143462
0.000161136
0.000150212
0.000177314
0.000403097
0.0474013
0.000170469
0.0434216
0.000139254
0.0528779
0.000165763
0.000163198
0.0575772
0.000151747
0.000175299
0.0539361
0.000140226
0.000181108
0.000168104
0.000160387
0.0346006
0.000170878
0.000152701
0.0537884
0.000138116
0.0001671
0.000182225
0.0589802
0.000202712
0.000143821
0.000186596
0.000144063
0.0163645
0.000188121
0.000159101
0.000147697
0.000202519
0.000169788
0.000156397
0.000144484
0.000151566
0.000152474
0.000851732
0.0182396
0.0304862
0.000174496
0.0590965
0.048438
0.00014398
0.000176448
0.0014245
0.000182078
0.000201544
0.000204628
0.0417757
0.000168902
0.0130653
0.0536215
0.000144723
0.000392852
0.00037168
0.0237581
0.000156334
0.000204447
0.00961954
0.000144181
0.0127153
0.000147534
0.000144088
0.000139067
0.000134505
0.000142287
0.0555333
0.000887402
0.000147622
0.000180066
0.000139801
0.0420194
0.000188181
0.000353573
0.029526
0.000148008
0.000194709
0.000168694
0.000429557
0.00014669
0.000134684
0.000179896
0.0150096
0.000145352
0.0378676
0.000182843
0.000180806
0.0218686
0.000567913
0.000621315
0.000182486
0.000139587
0.00015177
0.000172546
0.000185987
0.021302
0.000174306
0.0573842
0.0540672
0.000140084
0.00014521
0.027944
0.0246253
0.000245638
0.0508525
0.000181139
0.000169819
0.000161167
0.0483334
0.000138488
0.000178894
0.000179794
0.000148537
0.000142303
0.000140018
0.000141172
0.000201184
0.000200309
0.0224595
0.00017178
0.000187904
0.000169985
0.00743889
0.000168991
0.0265133
0.000162477
0.000230104
0.000134485
0.000139764
0.000164154
0.02691
0.00200123
0.000154983
0.000169975
0.0166191
0.0082357
0.000172545
0.000158027
0.00019055
0.000146256
0.00715375
0.000144196
0.032559
0.00600254
0.000203354
0.0360874
0.000165067
0.000171595
0.00550604
0.0170257
0.000133133
0.000171915
0.000187125
0.001363
0.000137925
0.000152653
0.000189079
0.000180668
0.000177596
0.0260514
0.000163258
0.0001487
0.00776162
0.000173265
0.000134609
0.00881905
0.000139464
0.000159269
0.000138239
0.000190387
0.00015768
0.000135621
0.000164021
0.0547637
0.000145667
0.000176551
0.000140169
0.000167756
0.000185561
0.000152827
0.00014806
0.000152531
0.000152663
0.000258324
0.000152443
0.000174829
0.000144706
0.00015943
0.0183177
0.0338572
0.000145592
0.000168794
0.00016903
0.00794658
0.0137636
0.000148835
0.00066996
0.00014711
0.000201152
0.000149361
0.0115225
0.0001354
0.00613901
0.000217151
0.000137193
0.000169895
0.035861
0.000191124
0.00331578
0.000150622
0.00192146
0.000156931
0.000138198
0.000139108
0.000148173
0.0298696
0.000191673
0.00018043
0.0414236
0.000189389
0.000140645
0.0533804
0.00275463
0.000166251
0.000166903
0.0079461
0.00431743
0.0594497
0.000154371
0.0120212
0.0154532
0.0222389
0.000172383
0.000170973
0.00411204
0.000174198
0.000204315
0.00653797
0.0427555
0.000159879
0.045073
0.0566003
0.000134619
0.000175284
0.00019194
0.0276752
0.000160004
0.000143593
0.00014291
0.000146545
0.000202337
0.00018834
0.00162885
0.0261296
0.000139851
0.00674214
0.0357905
0.000184918
0.00303016
0.000176175
0.00013363
0.000139602
0.000224165
0.0535495
0.000157201
0.000194843
0.000784639
0.00013693
0.00017256
0.00146997
0.013369
0.000201495
0.0315967
0.0569383
0.000147546
0.000148624
0.0236601
0.0530635
0.000186261
0.00017391
0.000189113
0.000134975
0.000143138
0.0365168
0.000136236
0.000159779
0.000134817
0.000139725
0.057445
0.000201602
0.000167824
0.000136028
0.0420965
0.00655556
0.000139552
0.000148684
0.00015698
0.000150794
0.0139197
0.00757747
0.00744251
0.0233506
0.00302596
0.000172088
0.0224221
0.0354717
0.000170034
0.000175227
0.000133511
0.000180255
0.000181285
0.0558375
0.00693004
0.000194754
0.00017102
0.000138811
0.000179854
0.000160615
0.0033034
0.000194513
0.000144499
0.000175473
0.000137832
0.000166131
0.000155814
0.000149746
0.000145847
0.000188082
0.000150205
0.000200333
0.0211779
0.000201734
0.000180813
0.000181508
0.000138657
0.000224676
0.000185764
0.0221761
0.000154453
0.000155317
0.0596516
0.000160862
0.0198593
0.0521773
0.01455
0.00742888
0.000138323
0.0573467
0.000154891
0.000139626
0.000135294
0.000139779
0.000175574
0.000172502
0.00018783
0.000135448
0.0479074
0.000218696
0.0481651
0.000141778
0.000135825
0.000151558
0.000601037
0.0428181
0.000184659
0.000166635
0.000155168
0.000160187
0.000144742
0.000144318
0.0322548
0.0256187
0.000149929
0.000135177
0.000148283
0.000144169
0.0185746
0.00734841
0.000180517
0.0419262
0.00243007
0.000145453
0.000186738
0.016603
0.000176558
0.0444388
0.000151939
0.000169645
0.000184294
0.000169921
0.00633939
0.000145331
0.00486909
0.000144282
0.000168333
0.0398485
0.000144339
0.00015865
0.000187694
0.000138284
0.00016499
0.000378422
0.0176144
0.000194136
0.0453689
0.000629622
0.000134301
0.000141434
0.018428
3.73892e-05
0.000194679
0.0533697
0.000140395
0.000169348
0.000134763
0.00288097
0.0481045
0.000166992
0.000153223
0.00019058
0.000160855
0.00015128
0.00677802
0.000213835
0.0427894
0.00013778
0.000149778
0.0233251
0.00441945
0.000193748
0.000157556
0.0602606
0.000145385
0.000208684
0.000161819
0.000205331
0.000164541
0.0146618
0.00018541
0.000158006
0.0381993
0.000154309
0.000154967
0.000158325
0.000138561
0.007835
0.00017698
0.000200988
0.000167883
0.000181593
0.000138944
0.000446839
0.000149623
0.000185719
0.000136962
0.000144742
0.000145435
0.0527154
0.000142636
0.000135349
0.000223516
0.000149027
0.0287434
0.00014858
0.000162166
0.000190994
0.0217647
0.00154272
0.000141552
0.000191302
0.044129
0.000152684
0.0577294
0.000167999
0.000138359
0.000213087
0.00508606
0.000187668
0.000167307
0.000140851
0.00013469
0.00498106
0.000209181
0.000205264
0.000169474
0.000208214
0.000151758
0.000160868
0.000193807
0.00457757
0.000203079
0.0069627
0.000149426
0.000201205
0.000196297
0.0596956
0.000166622
0.0364005
0.0386956
0.00014907
0.0153799
0.00021683
0.0432741
0.0166548
0.0511891
0.00261055
0.000188165
0.000138429
0.000171672
0.00880469
0.013138
0.000146479
0.000162133
0.00019138
0.00036862
0.000137101
0.00590474
0.000140023
0.000147371
0.00827818
0.0235101
0.000791952
0.000139508
0.000144203
0.00514819
0.0289442
0.000203471
0.000162836
0.0351941
0.0133456
0.0440192
0.0001884
0.000179854
0.000152818
0.000149176
0.0201953
0.000182207
0.0232912
0.000184972
0.000173982
0.00852902
0.0416715
0.0319093
0.00014652
0.000170143
0.000139416
0.000181552
0.000158363
0.0392821
0.000169669
0.0434551
0.000136769
0.000190763
0.000144091
0.00153823
0.000172818
0.000169834
0.0430591
0.000180768
0.000192748
0.000151177
0.000191105
0.000212922
0.00019535
0.000160205
0.0204179
0.00015412
0.0141739
0.00118382
0.000151204
0.0574491
0.015778
0.0311414
0.00248499
0.000184231
0.000146332
0.0409128
0.000170912
0.0204651
0.039203
0.000141876
0.000155233
0.0241354
0.00562417
0.0298275
0.00014991
0.000145393
0.0190373
0.0392727
0.000202534
0.000166153
0.000159943
0.000883216
0.0110072
0.000197222
0.000135466
0.000188501
0.000138379
0.000153237
0.000414766
0.000160808
0.0375857
0.00688339
0.000147728
0.000166342
0.000146735
0.000158528
0.0216437
0.033981
0.000171077
0.0377803
0.000143934
0.000171495
0.00014552
0.000138496
0.00015104
0.000147502
0.0295365
0.000145752
0.00018477
0.000146812
0.000167545
0.000514522
0.00387904
0.000150574
0.0239873
0.000207002
0.0430871
0.000177809
0.000177365
0.0201466
0.000165919
0.000189202
0.0401039
0.00613872
0.00712843
0.000184588
0.00126864
0.000153869
0.000179495
0.000187015
0.0312483
0.000144049
0.025746
0.000141164
0.00014207
0.0217039
0.000175718
0.0485697
0.000165243
0.000139249
0.000172213
0.000139406
0.000144264
0.000159571
0.000151618
0.0308277
0.000142159
0.0281842
0.0103794
0.000205102
0.0207583
0.000148784
0.000149946
0.000189353
0.000146906
0.000139151
0.000194434
0.0001515
0.000141006
0.000153534
0.000162253
0.0295307
0.0253932
0.000192878
0.0498682
0.0330225
0.000143158
0.00497681
0.000170619
0.000141993
0.000259092
0.000183172
0.00804237
0.000142416
0.00352967
0.00556101
0.0113752
0.000137326
0.0531556
0.000175752
0.000160087
0.000161479
0.000140037
0.0499224
0.000211955
0.000274183
0.00014362
0.000144724
0.000222663
0.000151286
0.023728
0.00177942
0.000223301
0.0430388
0.00252412
0.000162606
0.000147437
0.000196375
0.000167144
0.000158432
0.000349142
0.00018592
0.000151717
0.000159749
0.0245267
0.000141378
0.0284536
0.0497242
0.0201645
0.0179606
0.000154117
0.000148919
0.000152422
0.00382206
0.00640046
0.000137338
0.000153032
0.000143418
0.00019514
0.000138733
0.000142853
0.000152504
0.000174834
0.0449508
0.000190441
0.000175772
0.000145663
0.000183278
0.0499834
0.000153035
0.0166918
0.0441935
0.000194257
0.000142249
0.000181701
0.00014364
0.000159787
0.000151973
0.0237801
0.000203301
0.00254505
0.000158485
0.00019942
0.000144055
0.000143421
0.000151885
0.00426606
0.00019255
0.000138596
0.00017442
0.000201861
0.0331989
0.000152795
0.00062221
0.000175766
0.045878
0.000208817
0.0591126
0.000194174
0.000194775
0.0243302
0.0375777
0.0016799
0.0258923
0.000152357
0.000222655
0.000138439
0.000160439
0.000163613
0.000150706
0.0370572
0.000173355
0.000167962
0.00143948
0.0053833
0.000252651
0.000143927
0.000158932
0.000168123
0.000151136
0.000172752
0.0167393
0.00614152
0.0246439
0.000141156
0.000165952
0.000164114
0.00254845
0.0531209
0.000195577
0.00014863
0.000151044
0.012633
0.00019023
0.0414972
0.0498706
0.000232308
0.000141828
0.0537106
0.00017191
0.000184878
0.000169445
0.0578497
0.00368841
0.000173065
0.000229175
0.000155672
0.000165965
0.000147254
0.00699367
0.000196072
0.0353221
0.000198881
0.000163464
0.000183789
0.000156562
0.0584697
0.0311886
0.000148497
0.000154721
0.0417412
0.000131876
0.0595334
0.000147137
0.00014796
0.0225372
0.0504114
0.0112916
0.00015698
0.000148468
0.000147865
0.0296812
0.000160224
0.000151562
0.000188693
0.000210248
0.0520883
0.0528678
0.000258259
0.000145151
0.0596726
0.000161735
0.000147777
0.000150646
0.0413626
0.000149346
0.000141055
0.00320331
0.058354
0.000168177
0.000141048
0.024602
0.000148533
0.000260141
0.000141155
0.00113195
0.000148047
0.000185182
0.0267926
0.0544328
0.000155443
0.00510275
0.00670601
0.0479759
0.0480298
0.0459889
0.000220254
0.000143511
0.0412546
0.00015279
0.000144053
0.000150757
0.00766842
0.000145114
0.0381182
0.000141316
0.000159256
0.022375
0.00020316
0.0331434
0.000157588
0.000207219
0.000138993
0.000172758
0.0540968
0.0177784
0.000140364
0.00019256
0.000663327
0.000151594
0.00014046
0.0410439
0.000175757
0.0001827
0.000180909
0.0152443
0.00020605
0.0524198
0.0587472
0.000211402
0.000289307
0.00572303
0.000216258
0.000193155
0.000137254
0.000190345
0.000143517
0.000143004
0.024716
0.0405669
0.000159385
0.0178367
0.000210784
0.0277685
0.000184849
0.000178215
0.000146143
0.000216168
0.000551652
0.000170259
0.000155854
0.0555903
0.0457023
0.000332325
0.0593767
0.000187509
0.0463918
0.0564147
0.000172206
0.000148131
0.000143842
0.000411548
0.000142422
0.0305866
0.000153237
0.00015317
0.000160116
0.0516261
0.0598326
0.0147246
0.000153329
0.0545962
0.000165595
0.000175053
0.000141604
0.000149264
0.00763202
0.000169789
0.0356265
0.0227571
0.00018912
0.00020355
0.000144935
0.000189041
0.000151391
0.000189883
0.000162148
0.000157082
0.000152831
0.000152797
0.000217174
0.000153318
0.000181096
0.00017261
0.000182101
0.00552046
0.0223382
0.000144171
0.000186171
0.000144906
0.00018867
0.000167769
0.0503097
0.000201332
0.000171053
0.00015893
0.000154809
0.000181076
0.000147077
0.000180911
0.000144348
0.000143975
0.000160358
0.0530301
0.000167089
0.000161733
0.000176981
0.000155566
0.00018746
0.0513991
0.0467025
0.000177036
0.000147127
0.000368367
0.000137255
0.000144329
0.0145099
0.0440628
0.000148731
0.000176487
0.00023135
0.0555873
0.000151628
0.000153104
0.0412674
0.000156102
0.000645845
0.035298
0.0607056
0.000148375
0.000170451
0.000144494
0.0544478
0.000202709
0.000186703
0.000203568
0.0155373
0.000154383
0.0606701
0.0436426
0.000151615
0.051877
0.000194637
0.000154238
0.00783275
0.000149182
0.000147056
0.00013933
0.00371326
0.000204433
0.000325615
0.000157445
0.00015332
0.000168337
0.00114098
0.0386357
0.059916
0.00148682
0.000152462
0.000202692
7.70415e-05
0.00840716
0.000208199
0.000354552
0.000142612
0.000177418
0.000140105
0.000213151
0.000185441
0.000144381
0.0243277
0.000220259
0.000176784
0.000170918
0.000136446
0.000155369
0.000198888
0.000180459
0.000228846
0.000193836
0.000202327
0.000203711
0.000212519
0.048345
0.000187923
0.0594968
0.000144457
0.000140777
0.025898
0.0174926
0.0076588
0.000177219
0.000150193
0.0222522
0.000705118
0.000144593
0.000164372
0.000140118
0.000180611
0.000192266
0.000168214
0.00690431
0.0357018
0.000155942
0.0430739
0.0200462
0.000144986
0.00022241
0.0285198
0.00794289
0.000159479
0.000191717
0.000133881
0.000160044
0.000167075
0.000165826
0.058243
0.0371323
0.00570429
0.0242494
0.000154996
0.000181815
0.00020024
0.000151717
0.00014911
0.000139748
0.0565327
0.000142021
0.0597925
0.000185111
0.000185543
0.00097476
0.0265446
0.0256729
0.0564729
0.000180405
0.000140617
0.000214462
0.0548968
0.0482032
0.000162404
0.000139741
0.000140965
0.000199085
0.000174672
0.000179003
0.0500795
0.000154514
0.00013964
0.000201412
0.000310715
0.0213732
0.00768206
0.000141165
0.000195149
0.000151135
0.0564967
0.00014434
0.0483182
0.000162704
0.000154272
0.000173013
0.000150591
0.000187451
0.000171368
0.000185645
0.00993946
0.0472651
0.00016366
0.000173019
0.000145824
0.0557335
0.012044
0.000146429
0.000145316
0.000180755
0.000134265
0.0304305
0.000146127
0.00017872
0.000204184
0.000222457
0.000186993
0.000156557
0.000148428
0.000190479
0.0564815
0.000143651
0.000207912
0.0179542
0.00203022
0.000401612
0.000181057
0.0300555
0.000161403
0.0070256
0.000143913
0.00201868
0.00144606
0.00952822
0.0118573
0.0507296
0.000180146
0.000231087
0.000140939
0.0170316
0.000286452
0.0538867
0.00927855
0.00016974
0.0477727
0.0132662
0.000182909
0.000157942
0.000149748
0.0348571
0.000166445
0.000189932
0.000152869
0.000152012
0.000138506
0.000150633
0.0477936
0.0288481
0.000176462
0.0132531
0.0499157
0.000172626
0.00014491
0.000141303
0.000168764
0.0465919
0.031491
0.000166621
0.000170668
0.000205649
0.000206985
0.000184009
0.00504285
0.000175157
0.0584132
0.000168607
0.000172815
0.000144317
0.000152922
0.000194805
0.0045859
0.00197601
0.0383678
0.000202544
0.0391804
0.000176899
0.000161883
0.000159923
0.00632943
0.0185961
0.00413028
0.000183023
0.000158874
0.00014749
0.000142628
0.000144349
0.000139834
0.00641191
0.000173023
0.00682207
0.000178991
0.0462565
0.0306759
0.0529943
0.000194966
0.000163742
0.0112145
0.000188096
0.00029511
0.0362368
0.000138105
0.000242285
0.000167816
0.014495
0.00633102
0.000182609
0.000195041
0.00825882
0.00015153
0.000196604
0.000169423
0.0196532
0.000620118
0.000160646
0.000148606
0.00171121
0.000579253
0.000149245
0.00339339
0.000195816
0.000168528
0.000143177
0.0264578
0.0422035
0.000209885
0.000170644
0.0496782
0.0226863
0.000141202
0.000145702
0.000161327
0.055641
0.0543818
0.000144373
0.0274985
0.00015274
0.000144298
0.000151568
0.0214593
0.00994899
0.000200412
0.00733011
0.000158556
0.000157014
0.000142258
0.00837696
0.000152408
0.0366866
0.000160172
0.0026639
0.000151031
0.000143658
0.000160391
0.00604872
0.000185992
0.000183378
0.0471301
0.000147387
0.00014927
0.000145976
0.000188384
0.000193559
0.000192898
0.000184401
0.0591314
0.000161169
6.62406e-05
0.000241289
0.0464406
0.000150168
0.0338387
0.0408368
0.00016072
0.00675952
0.000188976
0.014743
0.000150468
0.000207934
0.000145438
0.000308748
0.019152
0.000219739
0.0577694
0.000160644
0.000182077
0.00015667
0.029567
0.000142305
0.000139935
0.00539559
0.000214501
0.0167839
0.0536784
0.00018794
0.000171311
0.000139272
0.00218309
0.000172164
0.000169665
0.000150849
0.000159331
0.000182837
0.000147613
0.000852513
0.000154685
0.00265735
0.00244761
0.000172428
0.000213796
0.000199662
0.0565339
0.000148683
0.025919
0.0271466
0.000139595
0.000145918
0.00015816
0.000151259
0.000184582
0.000144175
0.00586806
0.000192906
0.000208057
0.000188912
0.000150848
0.000152329
0.000141169
0.0575635
0.000149667
0.000147731
0.0323587
0.000158878
0.000349592
0.0584742
0.000194246
0.000160871
0.000179875
0.000156888
0.00015275
0.000178223
0.000147055
0.000159422
0.00590871
0.0509152
0.0422728
0.000156744
0.00921497
0.000226413
0.00015126
0.0001908
0.0574823
0.000144417
0.000158387
0.00014347
0.0586508
0.0162429
0.00397732
0.00014678
0.00016113
0.000161364
0.000148893
0.000188694
0.000151275
0.000257383
0.00425667
0.0595721
0.000138091
0.000159423
0.00015743
0.0204727
0.00013629
0.0146603
0.00671127
0.000223819
0.00939989
0.0296593
0.0447974
0.000157839
0.0052996
0.00731257
0.000154066
0.000138987
0.000140817
0.0578525
0.00765644
0.0107574
0.000157493
0.0581881
0.000150455
0.00116319
0.000149573
0.000159493
0.000154027
0.000137993
0.0179705
0.000154068
0.0268613
0.022434
0.0140459
0.000191726
0.000183911
0.0156212
0.056296
0.000146671
0.00455352
0.000140722
0.000134851
0.000144455
0.000257967
0.000152999
0.0103597
0.000170807
0.00390228
0.000185774
0.00652813
0.0123417
0.000227176
0.000137826
0.000200834
0.000209313
0.0173983
0.00015057
0.000134274
0.000158155
0.0227346
0.000151667
0.004694
0.00952863
0.000181678
0.000198096
0.000150704
0.00396713
0.000151368
0.0478617
0.000136617
0.00618885
0.000170425
0.000148772
0.0100935
0.0126813
0.00013773
0.00018804
0.000163519
0.00982132
0.000143875
0.000247008
0.00395848
0.000151773
0.000201283
0.041864
0.00016145
0.000244808
0.000161183
0.000192677
0.000173196
0.00735162
0.0346192
0.000149337
0.0336781
0.000155071
0.000185637
0.0537752
0.00930694
0.000184097
0.0377627
0.00766713
0.000148649
0.00459424
0.000206551
0.000171065
0.000154028
0.0475669
0.000138339
0.0109628
0.00236015
0.00022039
0.000143707
0.000174546
0.0349913
0.000185827
0.0441487
0.000153047
0.000160479
0.000222664
0.050389
0.000162963
0.0557938
0.0144575
0.0109986
0.000151757
0.0509687
0.0428848
0.0197451
0.000144666
0.000204028
0.000148657
0.0563327
0.000182853
0.00321547
0.00529795
0.000152217
0.000151045
0.000144456
0.0193434
0.0558343
0.0166803
0.0130278
0.00014194
0.0373139
0.0581376
0.000186679
0.00817516
0.0373257
0.000182184
0.0108918
0.000157901
0.000162359
0.0578804
0.0531029
0.000165325
0.0180317
0.000152718
0.000146136
0.0516123
0.0348006
0.0608439
0.0177436
0.000177099
0.000152039
0.000159164
0.0595103
0.011957
0.000143502
0.000181139
0.00579679
0.000146146
0.000150166
0.0574335
0.0279115
0.000158802
0.000144939
0.000153704
0.000157263
0.000214989
0.000151241
0.000146248
0.000166937
0.000246566
0.0330035
0.000200268
0.0416165
0.000149596
0.000164607
0.0429969
0.0576809
0.000172585
0.000230674
0.000143581
0.000179098
0.000156519
0.00016789
0.000203809
0.00014517
0.00153842
0.000180179
0.000141695
0.000163579
0.0454484
0.0266099
0.0313904
0.000146442
0.000171523
0.0584295
0.00405179
0.00016004
0.000149504
0.000145395
0.000346452
0.000150369
0.000146833
0.000170141
0.000145684
0.0427655
0.000180145
0.000151894
0.000162217
0.000144854
0.000151188
0.021178
0.00641711
0.000193601
0.00901466
0.000186105
0.000152399
0.000143393
0.000148943
0.00014819
0.00015148
0.000162596
0.000211657
0.0523863
0.000158456
0.000204406
0.031823
0.00257394
0.000146822
0.000140085
0.000157894
0.0514102
0.000147436
0.020006
0.0395376
0.000184213
0.000160368
0.020211
0.000145866
0.000169821
0.000139298
0.000146496
0.000152016
0.000143612
0.000176898
0.0539388
0.000208359
0.00018415
0.0157393
0.000199011
0.000222851
0.000172666
0.0350352
0.00875113
0.000207815
0.0489704
0.0578446
0.000203803
0.00503665
0.000151464
0.00015458
0.0355817
0.000143288
0.000162339
0.0471659
0.000971255
0.040571
0.000209423
0.000139926
0.000231043
0.000149732
0.000191344
0.00014951
0.00226941
0.017936
0.0552719
0.0108032
0.000150002
0.000139841
0.000192667
0.0165946
0.0423286
0.000219026
0.0456476
0.000140851
0.0498805
0.0330393
0.000182875
0.000161967
0.000150411
0.00014615
0.00015981
0.000150335
0.000148994
0.000161644
0.0412438
0.000195577
0.0354715
0.00671539
0.0358396
0.000331031
0.000143738
0.000149316
0.000153513
0.000141251
0.000151216
0.00511808
0.0464966
0.00258129
0.0575199
0.000157385
0.0135077
0.00037206
0.0564461
0.037626
0.000150775
0.000142701
0.00462509
0.000150238
0.000138119
0.00841154
0.0425465
0.0519151
0.000147375
0.000149838
0.000174195
0.000184755
0.0427636
0.000140782
0.000161726
0.0382116
0.000137895
0.00932616
0.000184493
0.0457307
0.000151832
0.0348645
0.017546
0.000183758
0.0593351
0.000205271
0.0351693
0.000145308
0.000165559
0.000140635
0.000174703
0.0243497
0.000160021
0.00678877
0.000152224
0.000145363
0.000144871
0.0560227
0.000183286
0.00020269
0.00617761
0.000141177
0.000193055
0.00850565
0.000200277
0.000156155
0.000158923
0.000150474
0.00019133
0.000148545
0.000142951
0.0553396
0.0599885
0.0553794
0.000967944
0.0389437
0.0124026
0.000189998
0.0580956
8.48161e-05
0.000143754
0.000151805
0.000134433
0.000151999
0.0596564
0.0592661
0.000154305
0.00571535
0.0519773
0.000167984
0.000158155
0.000173864
0.0464668
0.0569247
0.0408246
0.00057613
0.0420503
0.000134415
0.0320028
0.000205999
0.00440669
0.0585173
0.0001447
0.000183851
0.0101505
0.000179988
0.0200549
0.000153256
0.00263179
0.0112806
0.0444973
0.00019121
0.000176554
0.0234025
0.000202935
0.043393
0.0518604
0.042937
0.000204003
0.0510341
0.00015008
0.000163921
0.00018483
0.0289147
0.00204962
0.0342844
0.000150023
0.000219343
0.000210619
0.000151343
0.0582018
0.000144528
0.000187709
0.0289451
0.000144287
0.0503425
0.0504653
0.0486066
0.0493959
0.0331862
0.00469086
0.000144989
0.0597792
0.000151757
0.000152075
0.000182868
0.000160597
0.0399151
0.000160678
0.0001732
0.000161772
0.000143132
0.0456716
0.000158373
0.00020377
0.00479407
0.00013803
0.0320622
0.000205126
0.000159362
0.00763266
0.0332014
0.000143678
0.000249091
0.000153676
0.0522406
0.00752633
0.000155418
0.00020077
0.000158579
0.0599628
0.0413958
0.000193962
0.0214613
0.000164308
0.000145551
0.0488794
0.000159429
0.000148711
0.0512634
0.000177346
0.000140787
0.000141414
7.83203e-05
0.000157959
0.0294222
0.032693
0.000820686
0.0142025
0.000184293
0.000199774
0.000145788
0.0599905
0.0216193
0.0188378
0.000144825
0.000150461
0.000196707
0.000176352
0.00629267
0.000149074
0.00486911
0.000147581
0.000244954
0.000147359
0.00165069
0.00121822
0.000203612
0.0329369
0.023924
0.0569595
0.04023
0.000134931
0.0440834
0.0473562
0.0267416
0.000146833
0.0112209
0.0221594
0.0126365
0.000203143
0.0393246
0.00108095
0.0599839
0.000180446
0.0314418
0.000137913
0.000184862
0.000178996
0.000144124
0.000190594
0.0159126
0.000347069
0.0134973
0.0483109
0.000143275
0.000140403
0.000167201
0.000144334
0.00687654
0.000140797
0.000140194
0.0596579
0.0245346
0.000178977
0.000204313
0.000150593
0.000212418
0.00856598
0.0405439
0.00918578
0.000162072
0.0410374
0.000157451
0.000140709
0.000156952
0.035598
0.0292531
0.0309199
0.0279223
0.000154684
0.00014107
0.000144475
0.00015148
0.000165318
0.0170272
0.0488712
0.000172073
0.0584961
0.0290706
0.00780957
0.0188777
0.000146621
0.00017242
0.000191594
0.000145531
0.000170017
0.000167602
0.00016065
0.0380809
0.0402543
0.000141245
0.000177051
0.000173413
0.00020483
0.0213208
0.0493539
0.059552
0.000151901
0.000192672
0.0576938
0.000193403
0.000200619
0.00750814
0.0473847
0.0609697
0.0571847
0.000139969
0.0514546
0.000152774
0.000158317
0.00014605
0.000197469
0.0606829
0.0199447
0.00397626
0.01154
0.000195873
0.000137255
0.000139913
0.000150022
0.000154538
0.000183888
0.0594404
0.054199
0.000191704
0.0002142
0.000152119
0.000196455
0.00013838
0.0470838
0.000215398
0.000151269
0.000195304
0.000203746
0.0285209
0.0320863
0.000106442
0.00513773
0.000164334
0.0200602
0.0290858
0.0578527
0.000279015
0.000157121
0.000196941
0.00014913
0.0560075
0.00794995
0.000185212
0.0335713
0.0279063
0.0295954
0.000201565
0.000207267
0.000189592
0.000140739
0.000201945
0.000202642
0.000161306
0.000197463
0.000175136
0.00017858
0.00873643
0.000232684
0.000159669
0.000175801
0.000179558
0.000179224
0.00015964
0.048095
0.000204389
0.00540999
0.00967687
0.000147021
0.0379873
0.000145131
0.000162266
0.000160676
0.0387093
0.000186617
0.0429831
0.0223207
0.000198721
0.000182597
0.000203486
0.0254903
0.00018155
0.0206295
0.00016253
0.000180979
0.000149677
0.0387426
0.0069961
0.000159406
0.000162628
0.000185897
0.000164509
0.000163295
0.000182707
0.000177527
0.000150659
0.000182104
0.0273464
0.0176928
0.00024103
0.000182251
0.000138562
0.0254725
0.000173674
0.00018893
0.000200085
0.000179178
0.0396422
0.000138775
0.000170243
0.000161873
0.000181168
0.000145309
0.0362729
0.00492034
0.0465441
0.000186346
0.0587354
0.0256012
0.000163686
0.0257372
0.000189505
0.0235353
0.0104078
0.000189373
0.000161214
0.000177851
0.000200997
0.000161536
0.0387609
0.0309859
0.000371041
0.000140787
0.027376
0.00840657
0.00346902
0.00014392
0.000184556
0.000145788
0.000176202
0.0466724
0.000173827
0.000172371
0.000140964
0.000140652
0.00556387
0.035958
0.00014958
0.0168654
0.0219088
0.000137654
0.000175917
0.0382998
0.000214319
0.00020295
0.000145699
0.000168444
0.000221812
0.000161538
0.000144238
0.0521406
0.00017228
0.0367691
0.000194186
0.000165474
0.0609069
0.000221395
0.00187314
0.000141388
0.00723284
0.000169245
0.000166887
0.0279302
0.000181497
0.000151508
0.000211347
0.000162086
0.000163997
0.000144199
0.000290639
0.000146798
0.000211608
0.0443642
0.000206833
0.000143272
0.0340554
0.000171518
0.0234635
0.000710521
0.033373
0.000220996
0.0431511
0.000138656
0.00019602
0.000163053
0.000142934
0.00627845
0.0334172
0.000161213
0.000208219
0.000172005
0.000195866
0.0327895
0.000164442
0.00629881
0.000179969
0.0341039
0.0250274
0.000248259
0.000172748
0.000139734
0.000213249
0.000184211
0.0017139
0.0362959
0.0473916
0.049137
0.0550608
0.000140438
0.00028563
0.000144593
0.000154365
0.000150454
0.00708123
0.000706064
0.000219845
0.000143661
0.010941
0.000168638
0.0308956
0.000153358
0.000204132
0.000170767
0.000188971
0.000188405
0.000202352
0.000156851
0.00865921
0.00022666
0.000141743
0.0144878
0.0298866
0.000184535
0.000157166
0.000173753
0.000146779
0.000144403
0.000188428
0.000528368