/*--------------------------------*- C++ -*----------------------------------*\
| =========                 |                                                 |
| \\      /  F ield         | OpenFOAM: The Open Source CFD Toolbox           |
|  \\    /   O peration     | Version:  v2012                                 |
|   \\  /    A nd           | Website:  www.openfoam.com                      |
|    \\/     M anipulation  |                                                 |
\*---------------------------------------------------------------------------*/
FoamFile
{
    version     2.0;
    format      ascii;
    class       volScalarField;
    location    "300";
    object      ddt0(k);
}
// * * * * * * * * * * * * * * * * * * * * * * * * * * * * * * * * * * * * * //

dimensions      [0 2 -3 0 0 0 0];


internalField   nonuniform List<scalar> 
13917
(
-7.82812e-05
-1.51486e-06
3.12156e-06
1.49282e-07
-5.8937e-06
-1.42095e-06
6.0316e-07
0.000114207
4.82426e-07
-5.52528e-05
2.97107e-05
-1.62554e-07
-3.52818e-07
-0.00758472
5.6272e-07
8.66074e-06
1.88074e-06
-9.5093e-06
1.75857e-06
2.46618e-05
4.51591e-07
-5.96361e-07
1.18872e-06
-5.88617e-07
3.12366e-07
1.213e-07
-0.00161561
-8.81803e-05
-2.00718e-06
1.0681e-06
5.44799e-06
1.58483e-06
5.16538e-08
-0.000310379
-1.16288e-06
0.000422614
4.37834e-08
-6.55788e-07
5.84368e-07
1.24324e-06
-9.19211e-07
1.52463e-06
3.05553e-07
1.82903e-06
1.84129e-06
7.31622e-06
4.09691e-07
0.000455921
-0.00535566
-1.2527e-06
-1.81312e-07
1.42601e-06
0.000104736
-3.17659e-07
-2.87785e-07
1.46715e-06
-0.000383712
1.21847e-06
1.39615e-06
3.0512e-06
-0.00216123
-2.08292e-05
-5.39874e-07
2.86446e-07
-0.00197782
0.000445069
-2.76358e-06
-0.0113919
-1.03772e-05
-3.69095e-05
-0.000224503
-0.000239674
-5.92843e-09
1.25415e-06
5.19882e-07
2.78697e-07
-2.26145e-06
1.14857e-06
2.65815e-07
8.72165e-08
-3.69379e-07
2.39405e-06
-1.90956e-08
-2.1421e-05
3.64043e-08
-0.000298862
1.60517e-06
-5.23886e-08
1.2758e-06
1.72469e-06
5.51043e-07
3.53081e-07
-0.00722639
-3.24598e-07
-2.64497e-07
-2.39983e-06
0.00144799
1.31331e-06
-4.01487e-08
1.36051e-05
2.5292e-07
1.97325e-07
-3.6025e-07
2.39653e-07
-2.28666e-06
1.60964e-05
-0.000160909
-1.8554e-05
1.66957e-06
0.000554413
-2.32695e-08
-0.000355711
-1.45891e-06
0.000327475
-0.00188258
2.62082e-07
1.66537e-06
3.38856e-07
2.60003e-06
-2.6794e-08
2.29664e-06
9.86608e-07
-4.84375e-06
1.43468e-06
-4.32666e-05
-0.000337996
2.58917e-07
6.48598e-07
-3.67781e-07
1.45207e-06
9.47346e-07
6.6645e-06
-0.00163081
2.53287e-07
1.71361e-06
0.00167941
-0.00310851
5.97231e-05
-1.47006e-07
-6.58164e-07
0.00557211
1.0647e-06
2.04955e-05
-3.10834e-07
-3.58884e-08
1.67022e-06
-0.000300585
0.00540877
0.000426051
-3.11623e-07
1.01765e-06
8.64597e-08
-4.16097e-08
-1.61016e-08
0.00330952
-7.95537e-07
2.22783e-07
-0.00140272
-5.4913e-07
1.40886e-07
-5.47005e-08
-0.000962591
-1.20555e-08
0.0071059
-0.000161975
-0.000107526
9.22079e-05
0.00291692
-3.40165e-07
-1.38848e-07
-6.77871e-07
-0.00149303
4.82069e-07
-0.00213789
1.73421e-06
-2.72921e-07
1.63796e-07
1.39613e-06
8.4901e-07
-3.91297e-08
3.33313e-07
-6.18198e-07
-1.9633e-07
1.19912e-06
2.62281e-06
1.46637e-05
-1.98092e-07
1.31018e-06
1.95071e-06
-2.51167e-05
1.84197e-06
1.7328e-06
1.50778e-06
-6.8369e-05
-3.93668e-07
-5.37144e-05
4.44554e-07
-0.00184045
-1.09451e-06
-7.36724e-07
3.9484e-07
-2.62277e-05
4.28839e-07
-6.49683e-08
-0.00578152
-1.01541e-06
1.02281e-06
1.105e-06
1.5219e-06
-3.89924e-07
-2.023e-07
1.96577e-05
4.33659e-05
0.000804396
1.62192e-06
1.71602e-07
-0.000989973
-2.23699e-07
4.50044e-07
4.61281e-07
0.00356336
1.6377e-06
-3.9822e-06
-4.0446e-09
-6.41363e-07
0.0024932
-4.85191e-06
3.92772e-07
3.78526e-07
-8.93413e-07
4.8551e-07
4.96861e-07
-0.000210275
0.000491405
-4.87316e-07
-4.7222e-07
1.4531e-06
-0.000192372
-8.99534e-08
4.04495e-09
-0.00405555
-9.69667e-05
1.84642e-06
-0.000917673
1.87554e-06
-3.1434e-07
0.000742925
1.51673e-06
-1.19068e-06
1.56566e-06
-6.48986e-08
0.000408543
-1.89894e-08
1.23506e-06
1.70273e-06
-5.23471e-07
-7.79701e-07
2.97908e-07
-2.61112e-07
-4.64799e-08
-0.000120988
0.00850682
1.00394e-06
3.27429e-07
-9.11223e-07
3.35989e-07
-2.07665e-08
-4.25589e-07
1.00851e-06
1.14629e-06
4.21241e-05
-0.000184809
-2.23896e-07
-2.18995e-06
4.5025e-05
5.57868e-07
6.44448e-06
-0.000160462
5.49619e-07
-0.000119379
2.32493e-07
-0.00101441
-1.06922e-07
5.36461e-07
-5.36943e-07
-3.13357e-07
1.80963e-06
3.67627e-07
-0.00159237
5.36166e-07
0.00847858
2.07663e-06
-0.006168
9.14014e-05
2.45624e-07
1.30621e-06
-1.49962e-06
2.46493e-07
-5.32616e-06
2.72253e-07
-2.24816e-07
4.87851e-08
1.4039e-06
-3.7583e-06
1.23384e-06
2.59138e-07
1.07378e-08
-0.00158472
5.06505e-06
-4.23303e-07
6.18496e-06
2.58984e-07
-0.00113057
2.32794e-06
-0.000253119
-0.00196588
-0.0001632
-1.74985e-06
-1.58907e-06
4.78422e-06
-0.00127789
3.2102e-06
-3.75959e-07
5.19681e-07
-0.00358371
-8.73412e-07
-3.70296e-06
1.72779e-06
1.01169e-06
-0.0014999
4.71582e-08
1.2351e-06
-5.53525e-08
8.57193e-05
6.11762e-08
1.13246e-06
-8.85248e-07
-0.000337789
1.16328e-06
1.57173e-06
3.60521e-05
-2.66377e-07
-8.30175e-07
-0.000467305
6.63388e-05
-0.00146155
-0.00808174
5.52141e-07
-4.43919e-07
-7.70788e-05
-7.79812e-07
5.43842e-07
-2.27223e-06
-2.46969e-07
2.65976e-06
1.17923e-06
1.43006e-06
2.5014e-06
7.44369e-06
1.2543e-06
-0.000207453
-3.53365e-07
-2.52977e-07
-2.121e-05
2.17863e-06
8.26403e-08
-1.95014e-05
1.32841e-06
-0.00208653
-2.73526e-07
2.79406e-06
5.0691e-06
-0.00504845
1.21854e-06
-5.44138e-07
5.36053e-05
-1.24173e-06
-2.39172e-07
5.25135e-05
-4.28733e-07
-0.000278365
1.41206e-06
1.15979e-06
-0.0049744
-6.42614e-07
-0.000345489
-1.24607e-08
-2.22366e-05
-0.00198234
7.15841e-08
0.0023383
5.56369e-06
-1.13821e-07
-0.000509007
3.40981e-06
5.80552e-08
1.76767e-06
-4.01098e-07
7.55438e-06
2.99889e-06
3.49676e-08
5.73603e-07
2.68826e-07
-2.81249e-07
6.61183e-08
-3.31055e-07
-0.00528947
-4.16585e-06
-2.86303e-07
-3.51669e-07
-5.23917e-07
1.30426e-06
-0.0156232
4.29483e-07
-3.64556e-07
2.20951e-06
2.2462e-06
-3.34368e-07
7.81372e-08
-0.00205294
0.00442138
-0.000391057
1.81308e-06
8.08407e-05
4.47866e-07
4.90416e-07
1.76036e-07
8.71877e-08
4.34063e-07
-4.93434e-07
4.94512e-07
4.63378e-07
0.00112576
-4.00851e-07
1.53012e-06
6.86806e-05
1.30751e-06
-2.06195e-07
-3.67664e-08
-0.000531892
3.33687e-07
2.92594e-06
2.05501e-07
-2.89304e-08
-7.76093e-07
5.14584e-07
1.70066e-08
-7.74554e-07
-0.00240851
7.24018e-07
-1.96214e-05
-2.92977e-08
1.01868e-06
8.49815e-07
-4.02476e-07
1.71987e-06
-0.00148774
-2.53906e-07
0.00124954
-2.15626e-07
8.54753e-08
-5.1869e-07
-6.19657e-07
-1.44183e-07
-1.89521e-07
-0.00147892
-0.00219531
-1.39577e-07
-0.00550222
2.19918e-06
-4.567e-08
1.35893e-06
1.74065e-06
-0.000304231
6.2729e-07
6.52957e-05
-0.00275524
-0.00161119
-7.3887e-07
0.000492934
5.55225e-07
-9.83767e-08
-0.000607539
6.1448e-07
-3.19611e-07
-2.52592e-07
5.59053e-07
6.83952e-07
2.38897e-06
1.41531e-06
2.43995e-06
-2.58529e-06
-5.545e-06
2.38502e-06
-2.77827e-07
-0.00461814
1.02003e-06
5.58577e-07
-0.000676175
5.22734e-08
2.51701e-06
1.42764e-06
1.13323e-07
-0.000781041
6.83599e-08
5.19591e-07
1.33737e-06
1.90177e-07
-1.74731e-07
1.69449e-06
-0.00137504
0.00155747
-3.41001e-08
2.71721e-07
3.16956e-06
-0.000605829
-0.00283791
-2.98928e-07
-3.0088e-07
-7.65503e-09
1.53307e-06
-0.00331974
-4.55638e-07
1.66101e-07
-6.39192e-07
-2.45294e-07
9.27136e-07
6.53391e-07
6.72864e-07
1.39838e-06
1.13234e-07
-5.22457e-07
2.42763e-07
-0.000296626
-2.58871e-08
3.51327e-07
-2.45335e-07
9.67082e-07
1.36104e-06
8.28795e-07
1.70779e-06
1.34594e-05
1.31398e-07
-5.58767e-06
-0.00194248
0.00096819
-5.82481e-05
-4.36687e-07
-5.05565e-07
2.548e-06
-1.10253e-07
-0.0018468
5.4029e-07
-0.0141676
4.52062e-07
-0.00187835
9.1129e-06
3.0129e-07
0.000216158
-1.32469e-07
1.47897e-06
1.06565e-06
3.11877e-06
-0.0018763
3.27829e-07
3.08965e-06
1.44675e-08
-1.39552e-07
-5.22921e-07
2.32659e-06
-6.86396e-07
2.16149e-07
1.94972e-06
1.29269e-06
0.000241697
1.50136e-05
-0.00173554
-0.000210727
-2.72492e-08
-3.24365e-05
-5.80151e-07
-0.0027337
0.00486634
3.85774e-06
-1.52201e-06
2.82382e-07
9.91056e-07
3.40231e-07
2.99782e-07
9.82848e-07
-4.9015e-07
3.43472e-05
-7.99232e-08
1.52975e-06
-3.26799e-07
2.44656e-07
-3.26416e-07
-4.05663e-06
-0.00167581
0.000300871
1.49395e-06
6.56105e-07
8.35568e-05
-0.000217386
1.44371e-08
-0.00188885
-4.17416e-07
2.12399e-06
-1.24333e-07
3.88747e-05
-2.20949e-07
1.95817e-06
-4.65826e-08
-0.000100164
1.01024e-06
-0.00176272
8.32073e-07
9.8837e-07
-9.86985e-07
3.66287e-07
-0.000237675
-5.45635e-05
-1.4316e-06
1.45072e-06
-1.61269e-09
2.80573e-06
3.55424e-07
-0.00031397
-7.59788e-08
-4.43574e-07
5.42016e-07
-1.26301e-06
2.1207e-06
1.55401e-07
1.50823e-06
2.32064e-06
7.52789e-08
-0.00295316
1.65521e-06
-3.09503e-07
0.000147865
2.98681e-06
-0.00738075
1.40895e-06
-1.26664e-07
6.67671e-07
-0.000224555
3.50026e-06
2.16429e-07
5.89805e-08
5.89377e-06
1.89645e-06
-3.13065e-07
-0.00139993
1.44556e-06
4.06531e-07
-0.00025463
1.04749e-06
-0.0033848
-0.00438377
2.6011e-05
1.02437e-06
1.48871e-06
-0.000148402
-3.14291e-07
-7.0265e-06
-0.00163417
7.91504e-08
8.12041e-07
-4.11875e-07
3.37962e-06
-2.08828e-07
-3.81016e-05
8.73619e-07
6.16815e-08
1.68141e-06
9.07721e-07
-0.0003256
3.0363e-07
-3.89526e-07
-0.0011329
1.328e-06
-0.0044867
-6.58846e-09
-1.49761e-06
-5.21506e-07
1.26689e-07
6.58899e-07
-3.1637e-07
-0.000144189
7.03628e-07
-0.000466077
-0.00420034
-4.55583e-06
-0.00175929
2.70699e-07
5.59287e-07
-1.05089e-06
-0.0002077
0.0024619
4.71218e-07
-3.048e-05
-0.00316972
5.10839e-08
-4.14109e-07
3.55398e-09
4.63062e-05
0.000909415
1.0163e-06
1.18761e-07
3.46527e-07
2.21349e-06
-1.41658e-06
1.47081e-06
9.34456e-07
-2.81616e-07
7.70043e-08
6.64814e-07
6.6962e-07
-2.17624e-06
4.15672e-06
2.49809e-07
6.20294e-06
-3.7747e-05
3.84391e-05
-0.00629365
5.78298e-08
-5.21474e-07
4.49068e-07
3.62558e-06
2.21693e-06
1.54134e-06
-0.00173764
0.000733748
-1.05691e-07
2.69867e-07
-5.67781e-07
-7.15244e-08
-2.62938e-08
-3.39186e-06
5.25979e-07
-1.65926e-06
1.47784e-06
-1.11306e-07
4.57875e-06
4.95101e-07
5.11119e-07
1.45135e-06
-4.40994e-07
1.50772e-06
-0.000940473
8.67688e-08
1.34263e-06
1.90601e-06
9.43785e-07
-2.61185e-07
-1.53927e-07
-3.14843e-07
4.85067e-06
2.97566e-08
6.96926e-07
1.25989e-06
-3.42755e-07
-2.63941e-07
1.50016e-06
-0.00171598
-1.44587e-05
0.00389675
2.06549e-06
1.45777e-05
-2.06124e-08
-2.65531e-06
6.74638e-08
4.43385e-06
-6.85812e-05
1.08871e-06
7.14306e-07
-4.30983e-08
2.50101e-07
1.55382e-06
-2.62605e-07
0.000137817
-2.64205e-07
0.00361082
7.02188e-08
6.2789e-07
-1.14158e-07
1.53101e-06
3.64028e-07
-0.000982558
-1.21641e-05
1.65561e-06
-0.00027713
8.2242e-08
-0.000103459
2.87195e-07
-1.08021e-05
-1.40741e-06
-3.761e-07
-9.85871e-08
-0.00143266
6.79173e-07
-0.00975784
0.00366502
-7.34179e-08
9.93646e-07
-4.14241e-07
-7.47352e-06
-0.0029958
-4.41221e-07
0.000798642
3.59774e-07
8.6394e-05
1.63846e-06
0.0012288
2.95494e-07
3.29307e-07
2.40308e-06
-1.1828e-07
-3.37714e-07
3.06178e-08
-4.8818e-07
1.32425e-06
2.74916e-07
4.61746e-06
-2.95232e-07
-5.32769e-05
-8.6324e-05
-0.000414759
-8.58003e-05
0.00195117
-1.43943e-05
-0.00106754
2.39483e-08
2.54477e-06
-1.04909e-07
7.65781e-10
-2.0099e-08
6.63571e-07
-2.03691e-07
-0.0159436
-3.29158e-07
1.25795e-07
1.594e-09
8.02679e-07
2.56894e-06
-5.04664e-07
1.54088e-06
5.77847e-08
2.94027e-06
5.26444e-07
-7.26939e-07
-0.0018349
1.46171e-06
-9.16622e-05
-4.31122e-07
-2.20959e-08
-7.32316e-07
-3.59647e-07
-0.000499258
2.92957e-08
-4.88484e-05
-1.86057e-07
-0.00260356
7.95665e-07
-2.81394e-07
1.44828e-06
-2.81397e-05
3.04522e-08
-0.00347038
-0.00166304
-9.40568e-08
1.53999e-06
-1.26766e-07
2.04394e-05
-1.07605e-06
-4.40016e-07
-0.000143161
9.47694e-07
1.80262e-07
1.64522e-06
-0.000125834
-1.70007e-06
-0.00148766
9.79496e-05
1.42122e-06
-1.39791e-06
-5.07453e-07
3.41587e-05
-2.42613e-08
2.05952e-06
-1.45507e-07
-0.000847497
8.49994e-07
-0.00547367
-3.22721e-07
8.35525e-08
-0.00218674
-4.39617e-07
2.62783e-05
-0.0020137
-7.25899e-08
3.39432e-08
-0.00452646
1.31754e-06
2.72797e-06
1.44494e-06
1.76421e-08
-0.00197672
1.28202e-06
1.74776e-06
1.2024e-06
3.46729e-07
-0.000840965
-2.64905e-07
1.34794e-06
-3.73009e-08
2.37923e-05
-0.00215135
6.39947e-09
-6.07465e-07
1.88495e-06
-2.85133e-07
-5.191e-07
6.52222e-07
1.05615e-06
-8.56108e-08
6.74976e-07
8.80175e-08
-1.06508e-07
1.54631e-06
4.3737e-05
-0.000740138
1.6532e-06
-7.51646e-07
-0.00223728
-1.33342e-07
8.52764e-08
-0.00235072
0.00015023
5.32947e-07
2.87137e-08
-7.49558e-08
-3.88485e-07
5.40215e-07
-5.63816e-07
-1.02618e-07
1.05452e-06
2.92295e-08
0.000102306
-0.00352473
-9.34996e-08
-0.001522
-4.45413e-08
-3.13943e-07
-1.64399e-05
-0.000352495
2.76761e-06
-3.53482e-07
-0.00268818
-8.51922e-07
-3.67613e-07
2.98743e-06
2.87664e-06
0.00496436
2.01278e-07
0.00108094
-2.02399e-07
1.06706e-06
4.40405e-07
0.001941
1.2053e-07
-0.000281497
1.03807e-05
-2.73214e-09
-1.58239e-06
-2.36502e-08
-1.47824e-07
1.84105e-06
1.01667e-06
3.91489e-07
-0.000278495
6.03419e-05
0.00496964
1.94187e-06
9.7452e-07
-0.00011892
9.92673e-07
-0.0022742
1.58641e-06
5.64807e-07
6.35962e-08
-0.00483604
0.000428583
8.57215e-06
1.1946e-08
0.00409787
-8.95454e-07
-1.95304e-07
1.03895e-06
-3.10228e-07
-1.55122e-07
9.73494e-05
-0.000111311
1.07971e-06
6.08317e-07
-0.000177019
-1.02379e-08
5.31066e-07
-0.0166614
-0.000508626
-2.1163e-08
-4.467e-07
5.57058e-07
-4.224e-08
-4.21802e-07
-5.09255e-06
-3.09112e-08
-9.13594e-08
0.000473764
2.79316e-07
1.22881e-06
-0.001914
-2.46895e-06
1.51146e-05
3.24911e-10
-2.04202e-08
-3.78572e-07
-0.000121018
-0.000327345
2.14587e-06
2.31478e-07
1.02166e-07
1.9449e-07
-1.7452e-06
-0.000815649
7.86559e-06
-9.09956e-07
1.42494e-06
-2.96316e-07
0.000595873
1.4853e-06
2.09522e-06
1.51187e-06
3.07753e-05
0.000823756
-0.00256943
-0.000811166
-5.54506e-07
2.61571e-05
5.50364e-07
1.50626e-06
1.55256e-06
-0.00161208
3.94126e-07
3.02381e-06
4.25783e-07
-0.00760406
-1.03048e-07
-0.000412545
9.53828e-07
1.91186e-06
-0.00154066
7.84079e-07
2.12619e-06
8.22914e-08
-3.87127e-07
-6.96815e-06
4.87006e-07
-9.56762e-08
-8.39645e-08
6.87215e-08
1.49832e-05
1.28631e-08
-8.889e-08
3.52168e-07
-2.49079e-07
-2.75304e-07
2.41973e-06
1.63608e-06
-9.70554e-07
-4.31142e-07
3.70188e-06
-1.08697e-05
-9.31814e-07
-0.00105734
-2.15198e-08
-2.29425e-08
0.00209675
5.78272e-07
-5.57193e-08
-0.000961555
6.1612e-05
-5.90942e-06
1.59182e-06
3.26413e-08
5.43963e-05
-4.34942e-05
6.16656e-07
-0.000210188
-4.68291e-07
1.46213e-06
-0.000103976
2.70409e-06
-0.00496608
-0.00159619
4.32321e-07
-5.13313e-07
-6.41833e-07
-2.76471e-07
-5.40798e-07
4.4633e-06
8.95004e-07
1.22134e-06
-2.85693e-08
1.5416e-06
-0.000385144
6.22334e-09
-0.000694455
0.00224416
-2.79157e-08
1.81009e-06
-3.62176e-08
-4.30931e-08
-9.11011e-08
-4.00919e-05
1.47027e-06
-0.000164391
4.51673e-07
0.00151652
2.07768e-06
-1.61132e-06
-0.000599215
9.63508e-07
-5.95513e-06
-3.01089e-07
6.22619e-06
-8.69978e-08
2.74512e-07
3.458e-07
-4.52916e-08
1.08176e-07
1.43106e-06
-0.00613111
-6.43009e-08
-3.89706e-06
0.00100913
-3.48989e-07
-1.22184e-07
1.56183e-06
8.79808e-06
6.25611e-06
-2.72563e-07
7.49925e-07
1.76896e-05
0.000479009
0.000123079
-1.56857e-07
1.21312e-07
4.35099e-07
-2.21044e-08
-1.25126e-06
-2.53996e-08
8.85517e-06
-5.36658e-07
3.65992e-07
9.0202e-07
2.17099e-05
1.62263e-06
-0.000523289
0.000287393
1.35841e-08
1.21352e-07
1.24559e-07
-1.2742e-07
1.69934e-06
-0.0020879
-4.28103e-05
2.82374e-06
2.70416e-07
1.24973e-06
3.23389e-07
-1.51813e-05
2.20343e-07
1.82832e-06
-5.28271e-07
2.38956e-05
-1.24207e-05
-1.10097e-07
-1.07069e-08
-0.000674941
1.26705e-06
3.14134e-07
-2.14634e-05
1.74247e-06
-5.06923e-07
3.35105e-05
-5.31531e-07
2.22774e-08
-0.00169185
0.0010263
-5.23462e-07
-5.07363e-06
1.59034e-06
8.25734e-07
7.01483e-08
2.87585e-07
-1.35527e-07
-2.00312e-07
-5.91665e-08
6.97904e-07
1.9998e-06
-0.000133081
8.51303e-07
4.88698e-07
8.5766e-07
2.0262e-06
-4.22604e-07
5.9744e-07
-2.65935e-06
2.94356e-06
-0.000140845
-1.96569e-07
3.02506e-07
-9.0948e-05
1.17597e-07
6.34001e-05
2.75778e-07
1.51733e-06
-2.11222e-07
1.13066e-07
2.62468e-06
4.94613e-07
-2.49695e-07
-3.62516e-08
-0.00882074
-1.88754e-06
-0.00020053
-3.86529e-07
-4.81284e-07
-0.00240106
8.78681e-08
4.71176e-07
3.57425e-06
-0.00234771
4.37783e-07
9.12543e-07
4.48192e-08
1.21123e-05
-1.33549e-08
-6.99318e-07
1.11552e-07
2.79044e-07
3.09082e-06
-2.50591e-08
-1.94792e-07
0.000163318
1.57787e-06
-0.0075426
3.03812e-06
1.22946e-08
7.68209e-07
-2.57593e-07
-5.23388e-07
-1.66477e-06
-2.2312e-07
-2.58215e-07
2.8899e-06
-1.51706e-07
1.46848e-06
-9.5037e-06
2.89937e-06
-4.55402e-08
-3.40766e-06
-3.31387e-07
-0.000172046
3.17073e-08
-0.00343367
1.60247e-06
-3.10412e-07
1.41685e-06
9.08736e-07
7.99634e-07
-3.19114e-07
-5.70652e-06
-1.02485e-07
-8.69652e-08
-0.000233433
-1.03658e-06
5.45961e-06
1.66972e-07
-9.73407e-07
-8.97855e-07
-1.02095e-05
-2.86892e-07
-0.000784431
1.21239e-06
1.19238e-06
8.89599e-09
5.0426e-08
1.21718e-06
-2.75282e-06
0.000971617
-4.14896e-05
0.000130836
2.77628e-06
1.82082e-06
-1.05316e-07
-0.00151052
-2.72936e-08
1.25781e-08
3.79816e-07
0.000152463
3.14865e-08
-0.000530181
-3.99999e-07
2.47554e-07
3.50308e-06
6.2656e-06
4.84349e-05
5.91097e-05
4.37795e-07
-6.49127e-06
-1.76781e-06
6.01979e-07
-0.00146173
-3.74509e-08
-1.56541e-07
-0.00598831
6.76728e-08
-0.000683307
-1.61418e-05
-1.63273e-07
-8.50532e-08
6.4255e-07
-0.00189286
-7.0763e-07
2.92822e-07
1.51257e-06
1.73014e-08
-2.52495e-07
-2.4704e-07
5.38942e-07
1.22849e-06
-6.47245e-08
-1.71269e-06
2.28191e-08
-0.00658479
0.00575064
2.13116e-08
2.33952e-08
-4.19221e-08
1.18851e-08
3.51407e-07
-5.6128e-07
4.94707e-07
-5.11363e-08
-9.66143e-09
-1.49836e-07
-2.00239e-07
-5.00117e-06
7.95977e-08
1.53336e-06
-5.77593e-07
-5.28823e-06
-2.11031e-07
-2.6382e-07
-3.16227e-07
2.04817e-07
9.8485e-07
7.76464e-07
4.48003e-07
-0.00722757
-5.58252e-06
-0.00120249
-0.000550145
1.56314e-06
-4.5203e-05
-5.03814e-07
-1.94368e-07
-0.00337795
-0.00242578
-6.4268e-07
-0.000189718
-2.95544e-08
2.33059e-06
0.00185051
3.28955e-07
1.51009e-06
-0.00378873
0.00185652
4.45099e-07
1.36584e-06
-1.13864e-07
3.23116e-06
3.691e-07
-0.000961727
1.62672e-05
-2.15534e-07
0.00475671
-0.000839467
1.80393e-06
-0.000601644
0.000336851
7.11715e-08
1.03508e-07
-0.00111446
-0.000149684
5.98146e-07
8.28492e-07
-4.0063e-07
-0.00264022
1.47536e-06
-3.29666e-07
-2.40352e-07
6.98446e-06
-5.17649e-07
-2.05574e-08
9.25699e-08
-8.77104e-08
2.54883e-05
2.3404e-06
6.70089e-07
-0.000231421
-6.01716e-08
2.70894e-06
-1.26555e-08
-0.00127901
1.42531e-06
3.0127e-06
-1.59325e-07
6.4928e-07
-5.56661e-08
4.6589e-07
3.38623e-07
-3.13719e-07
-0.000607343
-6.98067e-08
-1.39343e-07
-6.44204e-08
-0.00170618
9.46998e-08
-0.00224837
-0.00305253
-0.00798143
-4.40702e-07
-3.49273e-07
-3.18443e-08
-0.0022875
-3.1976e-07
2.82197e-05
4.42436e-07
0.00313198
-2.82637e-08
3.2418e-06
1.6494e-06
-3.51777e-07
1.89424e-06
-0.000140817
1.6258e-06
-0.0005357
1.1119e-06
-0.00176147
0.00391333
-4.01738e-07
-0.0002477
-3.97228e-07
4.06699e-07
0.000243665
-1.38467e-07
-1.5119e-06
-0.000143089
-1.9517e-07
1.43726e-06
-3.9879e-08
1.38852e-05
-3.05911e-08
-0.00161877
-1.91845e-08
-0.000111466
-2.70618e-08
-2.20274e-08
-1.20119e-06
0.00232499
-3.9057e-07
-8.94041e-06
2.96879e-06
-0.00122226
-1.07963e-07
2.75978e-07
-0.00168888
-0.0128426
-0.000187565
1.51173e-06
-1.84783e-07
1.46439e-06
0.00322389
-1.09616e-07
1.66853e-05
9.9468e-08
1.56893e-06
-3.58487e-05
-4.8701e-07
0.000183249
3.97018e-09
-0.00126639
1.05894e-05
2.29753e-07
-1.76643e-06
-0.00285934
-0.0107675
-2.05039e-08
2.47872e-07
-1.18726e-07
-3.65519e-07
-0.000796969
1.69999e-06
2.94873e-06
-2.35863e-07
4.96957e-07
-0.000705531
1.64281e-05
-0.000746362
8.39533e-06
4.54218e-08
-2.36716e-08
2.81723e-06
-0.00246901
-0.00616203
-0.00507718
3.10666e-06
1.09786e-06
-2.78263e-05
-0.00172411
-0.000256349
-0.00411471
1.11089e-07
1.44357e-06
1.21825e-06
1.95789e-06
-2.32115e-07
5.46852e-07
1.72117e-06
2.2803e-05
-0.00465834
1.55468e-06
-0.0179815
-0.000226573
-5.63012e-07
-2.41644e-08
-1.85391e-08
-0.00337502
-3.9491e-07
-0.00151749
5.28856e-07
-5.94052e-07
-1.69083e-07
2.1507e-06
1.69332e-08
9.8071e-07
7.34693e-07
-2.2431e-07
-0.00204472
5.20465e-06
-0.00183913
1.11124e-08
-0.000331657
-2.71957e-07
2.88335e-06
1.55796e-07
4.08264e-07
-1.69644e-07
0.000194389
1.86936e-06
1.58757e-06
-0.000944416
0.000869785
-4.31822e-07
4.1768e-07
1.72483e-06
1.49879e-06
5.89294e-06
-5.10799e-08
1.62553e-08
5.244e-08
8.79728e-05
0.000164349
-2.17858e-07
1.96165e-06
1.03173e-06
5.59644e-08
1.38466e-06
-3.82128e-08
-0.00189414
1.1967e-06
-4.61911e-05
4.57903e-05
6.68881e-07
-9.95478e-08
4.16481e-05
-1.2284e-07
-7.62569e-07
-0.000192598
-7.07059e-07
8.31037e-06
8.23664e-07
1.47696e-06
-0.00294326
-0.0016155
-4.96294e-08
-0.0198249
0.000743544
5.91236e-08
2.19042e-06
1.36428e-06
2.93347e-06
-0.00039589
-0.0016013
-0.000587116
1.48063e-06
-0.000156862
4.42209e-07
1.5106e-06
-7.79427e-07
-3.08805e-08
-2.51585e-07
-7.40617e-08
2.32941e-06
2.75528e-05
-1.18517e-07
-5.72605e-06
2.72954e-06
-1.0975e-07
-0.0048303
-0.00181984
3.70391e-06
-3.31805e-07
-9.46112e-07
-2.47286e-07
1.26812e-06
-3.52431e-08
0.00190099
7.30861e-07
1.50742e-06
-5.09831e-08
1.96108e-06
-3.86153e-05
-1.7954e-07
-0.018137
-2.37693e-07
-2.23432e-07
-4.35923e-08
-1.55319e-07
-0.00182409
1.99428e-06
2.35904e-07
-0.00038243
-2.78467e-07
-4.08382e-07
-3.64543e-07
-6.81284e-08
1.07484e-06
3.66863e-06
4.08621e-07
-0.000204721
-0.00797492
-0.00237858
-7.98074e-09
-0.00615119
-1.00119e-07
2.11922e-06
1.38749e-08
1.98176e-06
-0.00464507
4.26297e-08
7.58063e-05
-0.000163885
3.38697e-07
-2.63128e-07
1.21059e-07
4.188e-07
-0.00185742
-7.54681e-08
-2.61846e-08
1.7533e-08
-8.88709e-07
2.70923e-06
-2.74317e-07
4.2545e-07
4.46406e-08
7.76533e-07
6.62775e-05
9.06344e-07
-6.84608e-07
1.51895e-06
-0.00207824
-0.00116238
-0.00357174
-4.97683e-07
-3.57724e-07
-0.000198174
-2.64318e-07
1.42682e-06
-2.6983e-08
-0.00051275
-1.23277e-06
-6.25651e-07
-1.58296e-06
-0.00098152
-1.86234e-08
-1.34764e-07
-1.46641e-08
2.57453e-06
6.48281e-05
1.70172e-06
-9.18735e-09
-1.2567e-07
1.05599e-08
-0.000153044
-7.90388e-07
2.68429e-05
1.56067e-06
-3.28036e-07
-2.05996e-06
-2.99327e-07
0.000126518
1.33887e-07
4.84749e-07
6.58586e-07
-1.20922e-06
3.16127e-06
-6.94868e-08
-3.27552e-07
-1.50609e-06
-0.000468505
2.49251e-08
-1.36639e-07
-0.00158353
-4.21049e-08
1.14461e-05
3.75435e-07
-3.99867e-07
-8.18722e-08
0.00489427
2.70771e-07
-0.00251932
-0.00184645
1.87912e-07
0.00461066
-2.01314e-07
1.40134e-06
1.56841e-06
-2.28781e-07
1.31238e-07
1.17864e-07
-3.63648e-08
-0.0112239
1.31948e-06
-6.27265e-05
-0.00025063
-1.2006e-07
1.0886e-06
1.17221e-06
-8.24931e-06
-6.43128e-08
-8.41336e-06
-0.00185653
2.9534e-05
9.17187e-08
2.71053e-07
-4.83236e-08
-0.000451241
-0.00176031
-6.61927e-07
-1.98395e-08
7.9665e-07
0.00410745
-6.90758e-08
3.14885e-07
-2.06401e-07
2.18823e-06
2.03705e-06
-4.94224e-08
-0.000449669
2.06927e-06
-1.62278e-08
-0.0015829
1.48098e-06
0.00454711
-0.000916325
4.76472e-07
2.66407e-07
-1.11066e-07
1.32598e-08
-3.22627e-07
-1.25496e-05
1.64846e-06
4.83009e-07
3.62155e-07
3.43163e-06
-0.00629809
-7.41329e-08
1.93497e-06
-0.00609472
0.00459862
9.23927e-07
-1.56163e-07
0.000252452
7.46948e-05
-0.00475414
-3.3123e-07
-0.010085
1.49105e-06
2.49018e-07
2.32419e-05
4.45065e-07
-4.35581e-07
1.24616e-06
-4.84575e-07
4.36109e-05
-2.95603e-07
8.81279e-10
-4.69852e-07
-1.07381e-08
-0.00198981
1.17587e-07
6.36418e-08
1.47669e-06
4.41441e-07
-1.0064e-07
1.94693e-06
-3.40504e-07
-1.22432e-08
-3.13633e-09
-1.15536e-07
0.000261989
0.000496284
-9.02976e-07
-0.0131674
2.65922e-06
-0.000838876
-0.000977943
-0.000780746
-0.0073958
-0.00186829
-1.63346e-07
-1.80029e-07
-6.13271e-08
-4.12535e-07
-6.86055e-08
3.08098e-06
3.03366e-06
1.20937e-06
4.33095e-07
-9.15047e-08
-1.68665e-08
1.49775e-06
-7.25318e-08
-3.66039e-07
-3.65384e-07
-0.000200894
6.8284e-07
3.33794e-05
-3.70581e-08
-0.000746064
-3.20044e-07
-5.09237e-07
-5.91785e-07
1.20325e-06
-1.67369e-07
1.44236e-06
-0.000366839
1.22649e-06
-4.72362e-05
0.00513116
1.0179e-06
5.07925e-07
3.9738e-06
1.56712e-06
-4.04135e-08
6.52171e-08
1.8276e-07
-0.000277095
-8.69455e-08
-0.00340148
0.00146785
1.48761e-06
-0.0117661
-0.0127343
1.52064e-06
-0.00199846
5.48142e-07
-7.87443e-08
1.80498e-06
7.14437e-06
-2.14184e-07
-3.02633e-08
0.00131466
1.11016e-07
1.80148e-06
-3.6509e-07
-6.04004e-07
1.93057e-07
-8.15381e-08
1.4744e-06
-0.000346232
-0.000238143
3.84526e-07
2.08495e-07
3.76771e-06
5.6285e-08
2.10683e-06
-5.73213e-08
2.2063e-06
1.84173e-06
-3.50129e-07
-4.37509e-07
3.67918e-07
3.42149e-06
-2.93697e-05
2.72136e-06
5.71316e-06
5.85083e-07
-1.50134e-06
1.51332e-06
2.21202e-06
-0.000941442
-1.06959e-07
-0.000301988
-8.0948e-09
-0.000166626
1.6416e-06
-0.000220825
-0.00152305
2.58691e-06
1.3895e-06
1.51208e-06
-4.50826e-07
-0.000144491
-3.37636e-07
-1.28012e-07
5.1111e-07
2.73786e-08
7.75408e-07
4.53913e-06
1.80703e-06
-0.00024066
4.33674e-07
1.1476e-06
-9.33823e-08
-1.41651e-07
-3.36748e-08
1.69419e-06
1.70537e-06
-0.00258998
1.36759e-06
3.0098e-08
-1.02623e-07
-6.15975e-07
3.15935e-06
-7.86188e-08
-8.45324e-07
3.82747e-07
4.93026e-06
8.38309e-07
-8.63562e-07
6.78757e-06
-0.000480004
5.6712e-07
8.91964e-07
-5.08053e-08
4.95877e-07
3.59944e-05
4.33038e-05
1.33258e-06
-4.57527e-08
-0.00221674
8.59178e-07
-3.06863e-07
1.2334e-06
-0.000538753
0.000176645
4.99365e-07
1.16362e-07
-0.000569216
-3.45221e-07
5.45412e-08
1.19602e-08
-0.00663898
2.55061e-05
1.30759e-06
-0.000662842
-0.00115742
-8.79087e-07
6.46e-06
1.60661e-06
-0.0018082
6.47654e-07
-0.00173081
-3.60443e-07
3.01084e-05
2.34205e-06
-0.00191394
8.88862e-07
5.32746e-08
-0.000676021
-5.78595e-08
-1.38063e-07
0.00196457
9.91727e-06
0.000704472
4.97807e-05
4.00847e-07
2.11595e-07
4.08061e-05
-3.15908e-07
-1.48387e-08
-3.72303e-08
1.21601e-06
-5.98731e-08
-1.71433e-07
-7.87933e-07
3.64891e-05
-1.27773e-05
9.50008e-08
-0.000149494
-7.18058e-07
-0.000495785
-0.000123505
-4.31437e-08
-8.90298e-08
4.97802e-07
-0.000388941
2.96844e-06
1.42247e-06
-0.000474101
-0.000302599
0.00166378
-4.10909e-06
8.30453e-06
-0.000161435
-2.28978e-05
8.69489e-06
-3.64173e-07
-4.25862e-07
-2.31655e-08
-2.99734e-07
1.36582e-08
9.06244e-07
-0.0002418
1.33592e-06
-0.000455121
0.000875648
8.97895e-06
-0.00245803
-0.0012686
1.76402e-06
-0.00196923
1.41895e-06
1.53353e-06
7.29871e-09
-4.95661e-07
1.47509e-06
-5.70036e-05
-1.07225e-06
-0.00133636
-0.000996278
-2.133e-07
-8.10388e-08
1.27581e-06
3.43556e-06
-3.36725e-07
1.44196e-06
-0.000331733
-6.57396e-08
-1.12763e-08
-1.69759e-07
-2.52296e-08
1.93554e-06
-0.000311938
7.1855e-08
-1.65382e-05
1.76875e-06
-7.89768e-08
-0.00119158
3.30519e-06
1.11119e-06
9.06971e-06
-1.92775e-05
-0.00285582
-0.00109821
-0.000173309
-4.53206e-07
0.000135276
-0.000351783
2.33118e-06
9.91065e-05
-2.20009e-07
-6.86013e-08
2.11829e-07
2.89218e-07
-0.000416071
1.46116e-06
-1.09647e-07
4.83759e-07
-4.7865e-05
-0.000298119
-3.67531e-06
-2.5417e-06
-0.00127232
-0.00128638
-2.30599e-08
4.00463e-07
1.55705e-06
-2.45131e-08
-1.92486e-08
-0.00511536
-1.07389e-07
3.78072e-06
-0.00138301
-0.000444337
-1.43814e-07
3.58167e-06
1.78504e-06
-2.80119e-07
9.61555e-09
-0.00695879
-0.0048283
-2.0788e-07
4.22206e-07
1.23443e-06
3.08862e-06
-0.00163755
-0.000513595
4.13496e-07
-0.00046874
0.000484223
9.21251e-07
4.1719e-08
-5.57444e-05
7.98893e-09
8.27544e-08
-0.000198359
1.05839e-06
1.57075e-06
3.69358e-07
5.9375e-06
-4.35026e-07
2.79647e-07
7.87313e-08
1.40931e-07
-0.00138308
3.46779e-07
3.96236e-05
-8.38428e-06
1.39314e-06
1.4456e-06
-0.00178054
-0.0019179
-0.00246129
-7.82403e-07
3.98751e-07
9.42389e-07
3.92786e-07
1.78528e-06
-0.00250265
7.57338e-08
-7.89226e-06
-0.000181196
3.92962e-07
1.7436e-06
1.47635e-06
1.83769e-06
1.9791e-06
2.6489e-07
2.10415e-06
2.25775e-06
2.409e-06
2.64073e-06
2.06776e-06
1.4874e-06
-3.28804e-06
7.8351e-08
8.81765e-07
1.71631e-06
-1.43863e-07
2.48253e-05
-0.00191078
-2.13263e-06
-0.000706039
2.12746e-07
4.18684e-08
3.43671e-05
-0.000658562
1.19932e-07
-7.48491e-08
1.54796e-06
-0.0020449
0.00149727
-3.28264e-07
-2.6929e-07
4.06219e-07
0.00014883
5.74931e-05
3.70074e-07
2.31536e-06
-0.000316053
1.63577e-06
-0.00158489
1.49667e-06
2.06707e-05
-0.00189447
-3.18576e-07
-0.00195066
-0.000275945
-1.32318e-07
1.82549e-06
1.97394e-06
3.89776e-07
-3.23943e-07
-0.000205616
0.00454448
8.11865e-07
8.80646e-07
-0.00305004
9.27658e-07
1.94463e-06
-2.62052e-07
3.20375e-06
1.41894e-06
-0.000844481
1.20019e-05
-7.63929e-08
-1.08155e-08
9.30813e-08
-2.47976e-07
-0.00182929
0.000481012
-0.00141568
1.71722e-06
1.29609e-06
-0.0041505
-5.98887e-08
1.14757e-07
-0.000278087
-8.65352e-08
-0.00185655
-5.16301e-07
-0.00148037
1.77744e-07
-3.1529e-07
0.00167838
2.98217e-08
1.86098e-06
-0.00245511
-2.29592e-07
-1.49258e-07
2.21239e-07
2.99879e-06
-0.000195256
2.82161e-06
-0.000629386
-1.12326e-06
7.45145e-07
6.37364e-07
1.95116e-06
-0.00201958
-0.00113016
2.22245e-06
3.11167e-06
1.96192e-06
-0.000199527
2.02156e-05
1.72313e-07
-6.61948e-08
8.8736e-09
-1.00755e-06
-1.15826e-05
-3.87234e-05
1.32828e-06
2.30755e-06
-2.92944e-07
-0.00243142
0.00167765
7.19185e-05
-2.20452e-09
2.38251e-07
6.54985e-08
-0.000422087
-1.19212e-05
-0.00106733
-1.25686e-06
1.92418e-06
1.9284e-06
2.58419e-07
1.03993e-06
1.72031e-06
-6.81916e-07
5.86383e-06
-5.28682e-08
2.05018e-06
-4.14025e-07
-6.26097e-07
5.1793e-06
-0.00800116
-0.000448018
-4.43718e-07
2.29894e-06
3.35527e-05
-0.00273798
-5.33038e-05
-0.00181346
-0.000761777
-4.32296e-07
1.4142e-06
-1.7734e-07
2.15367e-06
-6.00534e-07
2.09302e-06
-3.67433e-07
1.26012e-06
6.31768e-05
-0.00315878
-5.72712e-07
1.05538e-05
-0.0003114
2.24891e-06
-1.78089e-07
0.00229776
2.13705e-06
1.41862e-06
5.82464e-07
-0.000345347
6.16351e-07
1.9427e-06
-2.76301e-06
-2.09141e-05
-0.000114918
8.36498e-07
-0.00194257
-0.000361418
-0.0038243
-0.00109706
8.01411e-07
1.77264e-06
1.62615e-06
-0.00160568
0.000497679
6.46045e-08
7.97283e-06
-3.45215e-05
2.29183e-05
3.44714e-07
0.000305389
0.000161504
-2.31911e-05
5.45005e-07
-0.00716784
2.37396e-07
-0.000238204
1.99359e-06
3.53247e-05
1.15775e-05
9.36538e-08
-4.94644e-08
-0.000264968
-0.00188591
1.13953e-05
7.086e-09
1.41531e-06
1.05239e-06
-0.00101363
-6.64729e-05
-0.000263001
3.88579e-07
-5.03168e-05
1.84132e-06
-0.0104289
4.40585e-08