/*--------------------------------*- C++ -*----------------------------------*\
| =========                 |                                                 |
| \\      /  F ield         | OpenFOAM: The Open Source CFD Toolbox           |
|  \\    /   O peration     | Version:  v2012                                 |
|   \\  /    A nd           | Website:  www.openfoam.com                      |
|    \\/     M anipulation  |                                                 |
\*---------------------------------------------------------------------------*/
FoamFile
{
    version     2.0;
    format      ascii;
    class       volScalarField;
    location    "300";
    object      ddt0(omega);
}
// * * * * * * * * * * * * * * * * * * * * * * * * * * * * * * * * * * * * * //

dimensions      [0 0 -2 0 0 0 0];


internalField   nonuniform List<scalar> 
13917
(
0.100277
-0.00120892
0.00518167
1.29843e-05
-0.000378079
-0.00122117
0.000174219
0.108038
0.000163696
-0.40169
0.00760218
-5.4337e-06
-8.16357e-05
-0.112002
-0.000158742
0.135479
0.000183689
-0.0093352
0.00312588
-0.034828
-0.00012865
-7.83085e-05
0.000837332
-7.91044e-05
5.47587e-06
-0.00027754
0.0870143
-0.301457
-0.0012346
0.00022339
0.29023
0.00209403
-6.80117e-07
0.0389501
-9.47613e-05
-0.520473
-7.6474e-05
-0.000159914
0.000165895
0.000217929
-7.35064e-05
0.00018673
8.68976e-05
0.00345964
0.00337137
0.00248686
-0.000118493
0.101511
0.0613288
-0.000101032
-8.34762e-06
0.00126357
0.312693
-2.66292e-05
-2.60672e-05
0.00127269
-3.09558
0.000862601
0.000169498
0.00730545
0.252232
-0.00337415
-6.17551e-05
3.30942e-06
-0.0860372
-0.00200329
-0.00157986
-0.677641
0.00164225
0.0771937
-0.476035
0.0372955
7.13841e-06
0.000147058
-0.000117697
-1.67309e-05
-0.000518572
0.000133239
-1.439e-05
1.147e-06
-7.43004e-05
0.000239834
4.06201e-06
-0.306847
1.27879e-05
0.0346039
0.00194524
-2.34626e-06
0.000243418
0.000172195
5.84846e-05
0.00010575
0.0636491
-1.63788e-05
-4.97381e-05
-0.00175277
0.128028
0.000177382
2.75325e-07
0.0155605
1.32301e-05
1.62809e-05
-7.4239e-05
4.04752e-05
-0.000527806
-0.0792015
0.0410973
-0.0035707
0.000204819
0.118011
7.10268e-07
0.0399536
-0.000918223
-0.371249
-0.0951486
-2.80216e-05
0.00309337
3.27161e-05
0.00450502
9.64469e-07
0.000232463
0.000105566
-0.00321565
0.0020725
0.0723113
-0.538345
5.25605e-06
-9.71257e-05
-3.50065e-05
0.00209291
0.000488737
0.0201257
-0.0336109
-3.03255e-05
0.00255938
0.148872
-0.0107272
0.0708918
-0.000391798
-0.00015847
0.225014
0.000118827
-0.026007
-1.38783e-05
4.11322e-06
0.000373838
-0.355359
0.153557
0.284006
-2.7881e-05
0.00017309
-2.00224e-06
3.44102e-06
2.11135e-06
0.152757
-0.000157016
4.07055e-05
-0.00656586
-3.98899e-05
2.08017e-05
5.38412e-06
0.00895883
-0.000150387
0.254999
0.158981
-0.251039
0.169592
0.573063
-2.50428e-05
-0.000364322
-9.74246e-05
-0.0224066
0.000166166
0.00446537
0.000987069
-2.94454e-05
1.44701e-05
-0.00032615
0.000440873
-0.000168523
8.38462e-05
-8.38112e-05
-8.57874e-06
-0.00798792
0.00471273
0.0344687
-9.14238e-06
-0.0099899
0.000209469
0.00222091
0.000904169
0.00310581
0.00128612
0.0980027
-1.84633e-05
0.0715954
5.82625e-05
-0.0586537
-8.47898e-05
-0.000134191
-8.1554e-05
0.0758407
0.0794803
-8.50939e-05
0.00556231
-0.000723444
0.000161155
0.000118188
0.000665599
-7.66976e-05
-6.49424e-06
0.000409005
-0.0305525
0.264198
0.00245085
-0.00025591
0.01536
-5.45866e-05
3.37573e-05
3.39568e-05
0.285687
0.00186667
0.0110552
4.75988e-06
-6.31083e-05
0.143627
0.0705158
3.02675e-05
2.83298e-05
-6.52478e-05
3.70546e-05
3.65173e-05
0.0421407
0.482477
-7.14036e-05
-3.02782e-05
0.00127528
0.0362797
2.44615e-05
5.95634e-06
0.0438791
-0.0394346
0.00347351
0.0216034
0.000398487
-1.44386e-05
0.999769
0.00133757
-0.000924922
0.00206865
-7.88554e-05
0.314194
2.85164e-06
0.000419429
0.000858133
-8.35485e-05
-2.80236e-05
7.23045e-06
-0.00040266
1.04575e-05
0.043624
-0.0618879
9.65921e-05
2.59873e-05
-0.000172014
2.54303e-05
2.2982e-06
-7.6262e-05
0.000455733
0.000116267
0.0395391
0.0455111
-6.17199e-06
-0.000596809
-0.0229777
3.83964e-05
0.000236594
0.039303
3.80176e-05
0.0560949
3.07562e-05
0.0112627
-2.09545e-05
-0.000185751
-9.03315e-05
-1.58088e-05
0.00308745
1.50187e-05
-0.369595
7.8874e-05
0.014787
0.000455381
-0.36521
0.0814855
3.5671e-05
0.000960178
-0.000994628
-4.03976e-05
-0.000335682
-9.61804e-06
-1.22247e-05
-2.39738e-05
-0.00137628
-0.0109288
0.000400077
-1.04798e-05
7.41777e-06
-0.0282504
0.140016
-3.41162e-05
0.00177843
-3.64185e-05
0.027494
0.00460576
0.0441976
-0.0116168
-0.0205552
-0.015167
-0.000457146
-0.23107
0.0436533
0.00502125
-6.50318e-05
-0.000160228
0.0602135
-0.000135797
-0.000479438
0.00303593
0.000119104
-0.0237204
1.37128e-05
0.00103068
2.36938e-05
-0.00186106
1.17221e-05
0.000371875
-0.000754756
-0.0271956
0.000127308
0.00213935
-0.0513925
-4.32335e-05
-0.000132301
0.0391032
-0.0518486
-0.0332018
-0.0874191
3.81819e-05
-6.03465e-05
-0.0996639
-0.0117352
3.78337e-05
-0.00110295
-1.48711e-05
0.000218285
0.000427308
0.00194611
0.000243635
0.000481245
0.000956242
0.0429234
-3.59943e-05
-4.18502e-05
-0.00930216
0.00391084
2.78308e-05
0.120242
0.000984004
-0.0864546
-2.71438e-05
-0.00263895
0.0020847
0.0648593
0.000165819
0.00718659
-0.0376781
-0.000915105
-7.22842e-06
-0.0132227
-2.06305e-05
0.160174
0.00130854
0.000163458
0.0647622
-0.000127141
-0.162168
5.13578e-06
-0.0235607
-0.113195
-5.35908e-05
0.132295
0.00182213
-7.01163e-05
0.0392117
0.00691845
-4.09394e-05
0.00243938
-4.78044e-05
0.000305605
0.00510458
1.18187e-05
0.000171243
-5.50696e-06
-1.17089e-05
1.34278e-05
-3.79006e-05
0.0271951
-0.132727
-3.63791e-05
-4.67428e-05
-6.1094e-05
0.000845145
-0.183941
3.23874e-05
-2.68176e-05
0.00440147
-0.0017374
-1.74509e-05
-4.99879e-05
-0.0361408
0.0987803
-0.026217
0.00330236
-0.000202952
6.51261e-05
3.75015e-05
-0.000175041
1.50741e-05
3.41869e-05
-7.66308e-05
3.79538e-05
6.11266e-05
0.94662
-4.99071e-05
0.000403741
0.0534815
0.00091107
-7.17212e-06
4.11611e-06
0.0312628
-0.000115309
0.0901135
1.59076e-05
5.53593e-06
-5.72542e-05
3.92153e-05
-7.4935e-05
-0.000152981
-0.0496566
0.000559533
-0.0773619
5.66171e-06
0.000561395
0.000572911
-7.54996e-05
0.000560777
-0.0247415
-1.37358e-05
0.101997
-8.29578e-06
5.74264e-06
-5.95008e-05
-0.00012719
-2.32429e-06
-2.88834e-05
-0.018563
0.0630569
-1.74534e-06
-0.403745
0.00420098
2.14912e-07
0.00103316
0.00272606
0.0644275
0.000206389
-0.0823565
-0.138123
-0.166471
-0.00015289
0.00538775
0.000756388
-7.76426e-05
-0.345614
6.64195e-05
-2.32431e-05
-4.77572e-05
0.000166954
-1.73006e-05
0.00412114
0.00129738
0.000297385
-0.000309467
-0.00468537
0.000753393
-3.567e-05
-0.080673
0.000469891
9.00428e-05
0.0944378
1.49225e-05
0.000770565
0.00270655
1.60161e-05
0.0256342
2.10072e-06
3.95275e-05
0.000855705
2.36378e-05
-3.8215e-05
0.0010803
-0.00954143
0.0663547
7.34036e-06
2.51782e-05
0.000321949
-0.290239
-0.581902
-3.29967e-05
-2.62445e-05
9.3119e-06
0.000874803
-0.107642
-4.61511e-05
3.7612e-05
-0.000122669
-8.11778e-06
6.68984e-05
0.000157907
7.37051e-05
0.00127842
1.59525e-05
-6.17676e-05
-7.44638e-06
0.0420498
5.75272e-06
6.59369e-05
3.86332e-06
0.000496293
0.00128796
-8.15683e-05
0.000846444
0.0265172
-1.52041e-05
-0.00330069
-0.0772198
0.530728
0.0364472
-3.08494e-05
-5.69382e-05
0.000379241
1.33609e-06
-0.0928843
3.8444e-05
-0.172762
6.67988e-05
-0.141422
-0.0036031
8.64923e-05
0.64446
-1.58318e-06
0.00210596
0.000153082
0.000273488
-0.0876623
3.66681e-05
0.00533244
-1.76421e-05
-2.03271e-05
-6.00809e-05
0.00406977
-0.000160839
1.99146e-05
0.00361227
0.000960594
-0.0446469
-0.090676
-0.0447647
0.0722202
5.85025e-06
0.0709266
-4.79824e-05
0.0576127
0.0397161
0.000369947
0.00153253
1.03703e-05
0.000436274
7.87548e-05
3.26024e-05
0.000144935
-9.53666e-05
-0.0146987
3.76858e-06
0.00180927
-2.27608e-05
1.90535e-05
-1.5555e-05
0.000153523
-0.108684
0.800183
0.00180172
0.000169364
-0.000747938
0.0368659
9.01345e-06
-0.113487
-8.30804e-05
0.00394467
4.40913e-08
-0.00807919
-6.84618e-06
-4.3079e-05
2.21086e-06
-0.0469515
0.000482625
-0.0368638
8.99785e-05
0.000397995
-9.55751e-05
2.85048e-05
0.0427634
-0.155841
-0.000143329
0.00203769
5.61193e-06
0.000256867
2.93205e-06
0.0414701
4.60925e-06
-0.0010453
3.79194e-05
-0.000116024
0.00372194
4.85199e-06
0.00228148
0.000254357
1.27945e-05
0.152672
0.00192452
-3.14449e-05
0.351475
0.00527028
-0.151006
0.00106384
-7.86772e-07
-0.000102593
0.041969
0.00639971
-0.000148236
-7.08363e-05
0.000402964
0.000227226
-3.30448e-05
-0.0305556
0.00136782
1.51168e-05
0.473632
0.000494001
0.0550984
-0.41582
0.000595179
0.000348877
0.00219292
0.0459523
-1.38856e-05
-0.000379125
-0.0283286
1.29999e-05
9.97475e-05
-2.13427e-05
0.000338835
-3.96804e-05
0.0692379
0.000634138
1.06456e-05
0.00278007
8.91677e-05
0.0452009
3.36878e-05
-3.67039e-05
0.00441502
0.00123366
-0.101248
6.78938e-06
4.17875e-05
-4.44297e-05
1.1778e-05
0.000215401
-1.81388e-05
0.0608953
0.000143372
-0.0665554
-0.10707
0.00038659
-0.0494531
2.38748e-05
7.8554e-05
-0.000106578
0.0404228
0.115021
6.79495e-05
0.0844752
-0.028487
1.1085e-05
-3.56261e-05
-8.1482e-05
-0.0538108
0.0777149
0.000463999
1.24813e-05
6.50809e-05
0.00414721
-0.000312461
0.00200193
0.000625499
-4.9025e-05
-1.19563e-06
9.01187e-05
0.000221192
-0.000151213
0.0074721
-4.9557e-05
0.000586555
0.0442487
0.0176347
-0.0705387
-6.53204e-05
-0.000590222
7.72532e-05
0.0066292
0.000219837
0.00199467
-0.137676
0.0204797
1.20223e-06
-4.50246e-05
-0.000111271
3.7677e-06
3.56816e-06
-0.000641311
0.000769861
-0.00397147
0.0022039
-5.30477e-09
0.00639253
0.000162235
0.000160979
0.00209134
-6.59381e-05
0.00210107
0.10224
1.25395e-05
0.00127249
0.000853122
0.000616635
-1.49599e-05
-2.829e-06
-3.29403e-05
0.109247
-2.06937e-06
6.42837e-05
0.00100132
-2.01246e-05
-1.31495e-05
0.00117728
-0.167972
-0.00552161
0.103162
0.000213137
-0.10131
4.19002e-06
-0.000699017
0.0184052
0.000367631
0.014199
0.000112534
9.22805e-05
4.41729e-06
-6.18536e-05
0.000188025
-1.51305e-05
0.0272345
-8.69373e-05
-0.0129948
-6.21567e-05
0.00021529
1.88438e-05
0.00200599
-0.000192698
0.00461209
-0.00420755
0.00017141
0.041826
-3.98442e-06
0.039468
6.80286e-05
0.0338139
-0.000303957
-2.05954e-05
1.77647e-06
-0.0212128
0.000211817
-0.171793
0.0741382
3.06532e-06
0.000618703
-2.87772e-05
0.00168491
-0.0805505
-2.32231e-05
0.578249
7.21822e-05
0.0284946
0.00286606
-0.022564
2.22993e-05
7.37386e-05
-8.10687e-05
-8.1815e-07
-2.80309e-05
-3.49575e-05
-5.40854e-05
0.000999001
2.1191e-05
0.0166132
-5.15589e-05
0.102322
0.0448099
0.0658826
-0.116156
0.0962168
0.15034
0.000962462
9.97618e-06
0.000242597
1.57082e-06
-1.63549e-05
8.32859e-06
0.000207026
-5.82105e-06
-0.336236
-2.87074e-05
0.0237421
-2.82962e-06
0.000443693
0.00013573
-3.57022e-05
0.000355829
-7.6334e-06
0.000226715
0.000114778
-1.17008e-05
-0.0556971
0.00147744
0.0424504
-3.3778e-05
1.02576e-06
-0.000110735
-9.62075e-05
0.110475
1.02438e-05
-0.122376
-4.14291e-06
-0.129578
-0.000191463
-1.05956e-05
0.00202965
-0.00380143
9.59129e-06
-0.0727581
-0.20029
-0.000109831
0.00209342
-1.70596e-06
0.0209562
-0.000162567
-0.000104155
0.050899
0.000133604
1.49558e-05
0.00271458
0.0558473
-5.58022e-05
-0.0213827
-0.00789919
0.000184021
-0.000230841
-5.69953e-05
0.00705046
1.38727e-06
0.00383761
-1.37985e-06
0.0210903
-0.000185689
-0.0948599
-4.51689e-05
9.78255e-06
-0.110394
-6.85497e-05
0.0112736
-0.125865
-5.14021e-05
9.8817e-06
0.00784508
0.000181409
0.000243083
0.00142361
-4.19964e-05
-0.0736512
0.000276364
0.00266446
0.00220636
6.15473e-05
0.029291
-5.87961e-05
0.00133957
3.98855e-06
0.0746022
-0.156834
6.33797e-06
-8.29593e-05
0.0001647
-3.12545e-05
7.13065e-06
7.10989e-05
0.000100162
2.27653e-06
0.000169021
1.22215e-05
-4.84003e-05
0.00214306
0.176974
0.0210303
0.00248787
-0.000112569
-0.133539
-3.27594e-07
0.01806
-0.0841548
0.240328
3.97351e-05
9.6646e-06
-2.91275e-06
-3.52898e-05
3.89094e-05
-5.43682e-05
2.19244e-06
0.000392023
9.43196e-06
0.076517
0.00610749
1.12822e-06
-0.0328642
2.88567e-06
-3.77778e-05
-0.00227482
0.0430181
0.000849875
-2.45849e-05
-0.124627
-6.69367e-05
-4.54096e-05
0.00452564
0.000259111
0.135739
1.47751e-05
0.201334
-6.91631e-06
0.000110236
-7.66915e-05
0.00903466
-1.35836e-05
0.0383641
-0.00535843
-3.73225e-05
-0.000276293
1.68948e-06
-2.28036e-06
0.00319962
0.000630662
1.14402e-05
0.0421324
-0.220882
0.0418897
0.00345453
9.63935e-05
0.0577566
0.000104724
-0.0236273
0.00102984
0.000174008
-1.53235e-05
-0.0411262
0.0210228
0.0127792
-0.000679853
-0.0359548
1.05383e-05
-5.27905e-06
0.000699224
-5.03412e-05
-2.70553e-06
-0.207491
0.0519311
0.000110718
0.000265246
0.0360354
-1.39833e-05
3.74849e-05
-0.264515
0.0411827
-1.45954e-05
-3.50245e-05
0.000144786
3.67802e-06
-4.62518e-05
-0.000617339
-0.000150985
1.3285e-06
-0.0696909
-0.000356559
0.0021512
-0.0746926
-0.00435485
0.073721
7.041e-06
-3.23364e-06
0.00357599
0.0595791
-0.155588
0.00344962
-0.000174287
1.14085e-05
1.15078e-05
2.8089e-05
0.0152877
0.000564806
-0.000151462
0.00125385
-1.29423e-05
0.0125283
0.0018793
0.00399268
0.0019752
0.0104366
0.111212
-0.0812283
0.0259392
-0.000138478
0.00996485
3.87741e-05
0.000861681
0.00120847
-0.0707603
7.06868e-05
0.00026461
6.15245e-05
0.0411763
-6.60436e-05
0.0593884
0.000365347
0.000807839
-0.0134559
9.80969e-05
0.00384607
-4.3446e-05
-3.70055e-05
-0.00286791
0.00130233
1.46724e-05
1.54985e-06
-1.61385e-05
0.0181624
8.09285e-06
-5.61519e-05
8.12336e-05
-5.54478e-05
-1.19293e-05
0.000273151
0.00244906
-0.000157034
-3.03499e-05
0.00263158
0.000199652
-0.000741544
0.0128795
5.85277e-06
2.78296e-06
0.0883079
6.26283e-05
-6.14771e-05
0.020106
0.0873696
-0.000388192
0.000841859
-0.000140389
0.104204
-0.0854442
-3.53364e-05
-0.234395
-4.67102e-05
0.00139386
0.0939011
0.00494062
-0.223099
0.0311004
5.77635e-05
-5.94726e-05
-0.000125319
-1.19953e-05
-6.81207e-05
0.00746651
0.000130485
0.000667502
3.45396e-06
0.00186531
0.0478996
-4.68205e-05
-0.577897
0.0995331
3.37851e-06
0.00276386
-0.000171025
-3.94189e-05
1.98974e-06
0.0635143
0.00180346
0.052939
2.09326e-06
0.79178
0.000750322
-5.63864e-06
0.065994
0.000389106
-0.000199048
-1.26483e-05
0.00481545
2.09288e-06
-4.85554e-05
-0.00018626
-0.000147844
1.11317e-05
0.00137292
-0.125118
4.98538e-06
-0.0105826
0.196349
-2.99948e-05
3.98789e-07
0.000372293
0.0159376
0.0136937
-1.00216e-05
0.000393359
-0.00152401
-0.0330464
0.0657321
-2.9362e-06
1.56414e-05
5.78368e-05
1.73698e-06
-0.000257249
-8.09712e-05
0.0153001
-0.000115411
7.47532e-05
0.00126554
-0.000765874
0.00241385
0.0385635
0.821536
8.22882e-06
6.11722e-06
1.70384e-05
-4.71306e-05
0.00248457
-0.0902068
0.0289219
0.000241928
-0.000120438
0.00113319
7.05232e-05
-0.00429951
-5.88827e-05
0.00339415
-3.5644e-05
0.010565
-0.00392222
-4.27443e-08
2.89043e-06
0.0366201
0.000720875
0.000883345
0.212551
-0.00111679
-4.4593e-05
0.00173536
-0.000102104
1.12551e-05
-0.0511323
-0.0124003
-3.40078e-05
-0.00015298
0.00266281
7.6133e-05
2.37675e-06
2.2256e-05
-7.02662e-07
-6.70506e-06
4.00942e-06
0.000176604
0.000610461
0.0673219
0.000117998
9.72283e-05
0.000404436
0.000783653
-2.79449e-05
-5.92061e-05
0.00804541
0.00618596
0.0472727
-7.27739e-05
2.35114e-05
0.0435131
1.33778e-05
-0.0411484
1.12298e-05
0.000332183
-2.08909e-05
1.2082e-05
0.00096726
9.04382e-05
-7.88825e-05
-8.06061e-07
-0.136749
0.00540147
0.0375004
-7.94098e-05
-5.12347e-05
0.0521605
1.77908e-05
6.68121e-05
-0.00129748
-0.110896
5.05068e-06
0.000383188
1.28943e-06
0.0210444
8.00545e-06
-0.000248183
1.16282e-05
2.24671e-05
0.00603826
7.46741e-06
-5.75254e-06
-0.420821
0.00171409
-0.0754673
0.00559007
1.01938e-05
0.000280452
-1.29704e-05
-4.13056e-05
-0.000284357
-2.73923e-05
-1.36675e-05
0.00584602
-2.50088e-06
0.00117824
-0.00188483
6.72801e-05
3.24835e-06
0.000244261
-3.4558e-05
0.0285558
1.26995e-05
0.0356612
0.00201428
-4.01389e-05
0.00127721
0.000392101
0.000299958
-1.63526e-05
0.000720665
9.98755e-07
2.23913e-07
-0.0133445
-0.000763026
0.000531057
3.3634e-05
-8.24482e-05
2.09178e-05
-0.00290134
-1.19501e-05
0.0247508
0.000654175
0.000116723
8.01747e-06
1.04244e-05
0.000626612
0.000169899
0.0622595
0.0208029
-0.00149287
0.000238612
0.000463458
-0.000134811
-0.0302458
3.17715e-06
1.15961e-05
2.73596e-06
-0.0330754
8.52585e-06
0.0391182
-3.72688e-05
4.12097e-05
-0.00217919
0.00693826
0.103928
0.0351707
7.3172e-05
-0.0158465
6.77765e-05
6.64527e-05
-0.0336565
3.23804e-06
-2.3499e-05
-0.465915
1.01492e-05
0.0352257
0.00267089
-2.82643e-06
2.55269e-06
7.0301e-05
-0.0710808
-5.48113e-05
2.26813e-05
0.00217356
1.23804e-05
-1.17777e-05
1.15632e-05
6.70705e-05
0.000994184
3.29565e-06
-0.000375508
9.27291e-06
-0.219373
0.0760515
9.74625e-06
9.47518e-06
-1.49551e-05
8.79917e-06
7.07097e-05
-9.62737e-05
4.96872e-05
3.70658e-06
4.18386e-06
-4.34002e-05
-4.01034e-06
-0.00219791
1.09225e-05
0.00198911
-7.17228e-05
-0.00189658
-6.0167e-06
-1.23809e-05
-1.60092e-05
1.39192e-05
0.000111001
-0.00018515
0.000130157
-0.0807383
-0.00189119
0.000885782
0.0382555
0.00219896
-0.1598
-5.84543e-05
-3.77166e-06
0.0504831
-0.0352091
-7.03796e-06
0.0377926
4.71274e-06
0.00435574
0.00828178
5.99511e-05
0.00187195
-0.115764
0.0946958
8.2531e-05
0.00112704
-1.90156e-07
0.00247556
7.47197e-05
0.0191631
-0.033867
-1.21672e-05
0.138505
-0.784276
0.00018542
-0.365493
0.00637302
-3.56068e-05
1.62549e-05
-0.0184961
0.0423974
6.63753e-05
0.000412459
-5.53863e-05
-0.418889
-0.00109416
-2.00506e-05
-9.34167e-06
0.00903809
-3.91305e-05
3.78055e-06
7.69596e-06
7.99281e-07
-0.0996566
-0.000166832
0.000197204
0.0454522
3.86093e-06
0.000257596
5.09335e-06
-0.0233314
0.000749257
0.00159316
-2.93842e-06
0.000193044
-1.09181e-05
7.47799e-05
8.44866e-05
-1.53056e-05
-0.499314
-3.67313e-05
-1.74211e-06
5.02959e-06
-0.0675256
1.58872e-05
-0.0724403
-0.132021
-0.0756166
-6.2721e-05
-1.85301e-05
6.84431e-06
-0.0124489
-3.3622e-05
0.0185062
8.44575e-05
0.130478
-4.75943e-05
0.000260497
0.00283249
-2.86558e-05
0.000183649
0.0386067
0.00290003
0.0387807
0.000100708
-0.20274
0.067491
-3.59304e-05
0.0379679
-4.30604e-05
-0.000179334
0.797803
-0.000114831
-0.00113356
0.0555904
-0.000273875
0.00163977
2.42537e-06
0.0196572
3.62661e-06
-0.0756422
7.94892e-06
0.0537727
3.52023e-06
1.94207e-06
-0.000263122
-0.0110233
-2.28658e-05
-0.00247169
0.00102204
-0.020545
1.75827e-06
-0.000111645
-0.0508869
-0.330959
-1.04074
0.00119797
-6.22967e-06
0.00186428
0.121531
-0.000106657
-0.0336049
1.67318e-05
0.00219196
0.123935
-3.33466e-05
0.0955093
7.23184e-06
-0.408599
-0.0791188
-2.37943e-05
-0.000343735
-0.079133
-0.118357
1.8648e-06
1.01643e-05
-5.85267e-07
-2.9357e-05
-0.441934
0.000962498
0.0033833
-6.278e-05
7.69719e-05
0.0317106
0.00114785
-0.0426416
0.0134337
1.41907e-05
4.14148e-06
0.00514476
-0.0493533
-0.337939
-0.0727052
0.00636094
0.000104935
-0.00960261
-0.0591588
0.0745844
-0.166231
1.72318e-05
0.00146423
0.000632454
0.000866378
-6.95297e-06
0.000174011
0.000846225
0.0170806
-0.0365735
0.00020256
-0.220521
0.04218
-0.000561641
2.16742e-06
3.81471e-06
-0.0485
-2.25194e-05
-0.0134855
8.59748e-05
-9.98052e-05
-0.00727567
0.00134644
9.43854e-06
0.000373622
0.000256541
-6.84578e-06
-0.110827
0.00041578
-0.0658618
1.03685e-05
0.0388702
-0.0107859
0.00523435
1.30048e-05
-8.81012e-06
-0.000291187
0.0697666
7.65703e-05
0.00194357
-0.373185
0.0581773
-3.35679e-05
1.48074e-05
0.000143537
0.00248758
0.0781779
-3.35899e-06
8.62744e-06
-1.85206e-05
-0.0372225
0.214003
-4.91066e-06
0.000594823
-0.00273372
1.23969e-05
0.000732226
-8.65329e-05
-0.0681227
-0.000206488
0.000673663
0.0211629
0.000198399
-0.000119786
-0.000436664
1.54296e-07
-0.000657623
0.0401161
-0.000150872
0.00149083
0.000455419
0.00162208
-0.0582634
-0.207939
2.37987e-06
-0.085066
0.071225
9.93092e-06
0.00433436
0.00128231
-0.000167634
-0.422708
-0.415639
-0.00515525
0.00103381
0.056122
1.79273e-05
0.00225718
-8.54846e-05
4.17592e-06
-9.36032e-06
2.53564e-06
0.00254894
0.0207437
1.48745e-05
-0.00158701
0.00515435
1.31861e-06
-0.272999
-0.0477129
0.000222029
-3.2948e-05
-9.64845e-05
-6.4541e-05
0.00100898
3.33404e-06
0.914801
0.000252458
0.00110728
-0.000157603
0.000929077
-0.0119029
-0.000327275
-0.132823
-7.38879e-06
-6.64027e-05
-2.07766e-06
1.92953e-06
-0.0704928
0.00354281
-0.00010842
1.04055
-6.85502e-05
-6.69259e-05
-0.000360339
2.40188e-06
0.000100457
0.00109201
6.18894e-05
0.0419126
-0.0756961
-0.00646142
3.95568e-06
-0.148012
2.59936e-06
0.00399353
8.96521e-06
0.00368228
-0.045806
-6.66868e-07
0.0137601
0.0363475
-0.000127941
-3.9958e-05
1.7279e-05
-2.45482e-05
-0.0544349
1.58454e-06
6.42444e-06
-2.82663e-05
-0.000203293
0.00533102
-3.63051e-05
5.41085e-05
1.32929e-05
9.41907e-05
-0.00193114
0.000328861
-0.000211173
0.00252575
-0.0128666
0.00330886
0.0608532
-8.27406e-05
-8.26012e-05
0.0392491
-1.02105e-05
0.00156646
3.23614e-06
-0.521212
-0.00016612
-0.000104945
-0.000729076
0.00718859
4.2704e-06
-3.1284e-06
3.9908e-06
0.00527415
-0.174436
0.000542679
3.01632e-06
-0.000130213
7.92017e-06
0.0503932
-8.18815e-05
-0.00391125
0.0016469
-7.28898e-05
-0.000824335
-0.000391812
0.0303008
1.39254e-05
6.70111e-05
0.000115027
-0.000916726
-0.00450029
2.55307e-06
-4.4303e-05
-0.000172709
0.0410306
-5.87523e-06
-1.2399e-05
-0.201446
-5.18468e-05
0.00106668
6.20831e-05
-3.46645e-05
3.70641e-06
0.161867
6.07652e-05
-0.0803528
-0.0593183
1.76774e-05
0.0791427
-1.88664e-05
0.00113759
0.000573951
-2.89254e-05
1.29717e-05
1.25016e-05
3.33971e-06
0.042824
0.00117735
0.047793
0.0527932
-1.35654e-07
0.000690745
0.000173509
0.0238093
2.78443e-06
0.00685232
-0.150121
-0.278554
1.32348e-05
8.66824e-06
-4.39349e-06
-0.0123899
-0.0681638
-0.000130272
2.1629e-06
0.000288004
0.383495
3.87749e-06
1.35427e-05
-8.58482e-05
0.00420914
0.017613
3.39176e-06
0.0361105
-0.000129101
3.8503e-06
-0.177461
0.00156718
0.0822212
0.0599641
-8.67919e-05
-0.000183898
-1.08775e-05
-0.000146741
-5.31132e-05
-0.00928957
8.70407e-05
4.83376e-05
6.0546e-05
0.0056024
-0.0714093
1.99538e-06
0.00027127
-0.127401
0.133407
8.15128e-05
-1.32838e-06
0.0110663
0.00389538
-0.460037
-2.15468e-05
-0.201468
0.00222834
2.25322e-05
0.0690267
6.1664e-07
-5.15687e-05
0.00581886
-5.3469e-05
-0.00188746
-1.36947e-05
6.31171e-06
-6.7727e-05
3.7682e-06
-0.0725448
1.28548e-05
1.20336e-05
0.00172567
0.000121302
-0.000122133
0.00362308
-2.04466e-05
2.80768e-06
-3.5456e-05
-3.33114e-05
0.00192054
0.00573171
0.00415755
-0.0310571
0.00011931
-0.0557281
-0.185594
0.0227495
-0.108085
-0.0507082
-3.51402e-06
-0.000299568
2.61913e-06
-3.74812e-05
5.99632e-06
0.000274583
0.00581759
0.00176032
-0.000190834
2.79066e-06
4.93612e-06
0.00179299
2.07501e-06
-4.81402e-05
-2.58644e-05
0.0434124
0.000116058
0.11663
-2.99083e-07
-0.0285131
-4.57733e-05
-9.16434e-05
-0.000102079
0.000909794
-3.05843e-06
0.00148822
0.0400467
8.17654e-05
0.0720906
0.0317847
0.000151775
8.27697e-05
0.0396654
0.000679217
1.62251e-05
1.66289e-05
1.58581e-05
0.0486656
-9.71473e-06
-0.384966
0.269385
0.00135409
-0.137926
-0.0772392
0.00177331
-0.104634
6.70011e-05
2.10422e-06
0.00137686
0.0205784
-5.43408e-06
3.25419e-06
-0.0249188
1.69632e-05
-0.00531931
-4.86011e-05
-7.30196e-05
-7.12289e-05
1.74054e-06
0.00123279
0.0433938
0.0407635
6.54781e-05
2.98581e-05
0.00115796
-1.20457e-05
0.000895593
3.74383e-06
0.00423177
0.0031578
-4.54542e-05
-4.95306e-05
2.28993e-05
-0.00043612
-0.00208517
0.00547847
-0.130175
8.57891e-05
-0.272331
0.00220744
0.00404605
-0.470629
2.0898e-06
0.0498387
-1.1885e-05
0.0456967
0.00229471
0.0568812
-0.22199
0.000252758
0.000714607
0.00121898
-5.69139e-05
0.0517551
-1.93757e-05
-2.36161e-07
0.000140877
1.81491e-06
0.000327662
0.00633403
0.00898205
0.468467
6.61906e-05
7.10004e-05
-3.6296e-05
-7.25778e-05
3.42559e-06
-0.00172926
0.00260875
-0.0299636
0.000458895
1.5375e-05
-1.1505e-07
-9.96378e-05
0.00636604
-9.96018e-05
-0.000145393
-3.61784e-06
0.000645139
0.000369805
-0.00073607
0.00348729
0.0420923
8.28205e-05
0.000404522
3.6046e-06
0.000144574
0.0327558
0.0014015
-5.19216e-05
2.60463e-06
-0.117841
0.000292856
-1.93174e-05
0.000762122
0.0397202
0.00774094
-7.76598e-05
1.66486e-05
0.0637472
-4.71694e-05
1.21285e-05
1.72974e-05
-0.303814
-0.00841823
0.000173776
-0.563159
-0.278273
-0.000173822
0.0024504
0.000853743
-0.0598039
0.000114036
-0.0649878
-5.31826e-05
0.00363985
0.000404319
-0.16736
0.00035703
1.62799e-05
0.0335248
-2.05779e-07
-3.30093e-05
0.0893021
0.0201162
0.176557
0.00360028
9.89271e-05
8.63959e-06
-0.0217205
-1.75584e-05
8.62835e-06
2.26913e-06
0.000597523
3.41626e-06
-0.000281935
-0.000166797
0.00688126
0.0115552
6.7788e-06
0.0526052
-0.000139975
0.0392939
0.0336636
3.13898e-06
1.23645e-06
0.000125458
0.00305401
0.0060074
0.00111097
0.039097
0.0567708
0.0844053
-0.000358935
0.016484
0.0346549
0.00327961
0.0160994
-3.07787e-05
-4.53259e-05
1.76578e-06
-7.08134e-05
1.00509e-05
0.00042485
0.0385532
-1.37374e-05
-0.0329384
0.337218
0.0175908
-0.0134032
-0.00376564
-0.000213407
-0.0757773
0.00166665
0.00223276
7.99963e-06
-6.25349e-05
0.00181548
0.0495219
-0.000180262
-0.0179877
0.0197749
-8.47235e-06
3.14136e-06
0.000114797
0.000447386
-5.20889e-05
0.00126417
0.0475173
2.47757e-06
2.82752e-06
-4.06506e-06
-1.06418e-05
0.00336171
0.0394582
-0.000275048
-0.042354
0.000581838
3.92677e-06
-0.0373917
-0.00122364
0.000117975
-0.00551561
0.022799
-0.0311618
-0.935973
0.04271
-4.90236e-05
0.0143576
0.0383974
0.00141781
-0.166497
-8.03692e-06
-6.63385e-05
-2.98867e-05
5.31323e-05
-0.554505
0.00104521
5.10181e-07
7.55167e-05
0.0125474
0.0386076
-0.000308266
7.88608e-05
-0.00274151
-0.00465324
5.47086e-06
-4.11443e-05
0.00082142
5.7662e-06
3.00502e-06
-0.0390988
1.38151e-06
0.00693175
-0.0447908
-0.513849
-1.45273e-06
0.00114938
0.0031851
-1.6533e-05
9.51232e-06
-0.0712491
-0.387582
-8.00676e-05
-0.000146048
0.00168439
0.00614894
-0.033696
-0.315289
3.59758e-06
-0.0159819
-0.0635352
0.000286714
1.29032e-05
-0.00267459
4.34193e-06
1.36416e-05
0.0409274
0.000102303
0.00103249
6.60906e-05
0.000321006
-2.69243e-05
2.16845e-05
7.02752e-06
8.20592e-06
-0.246391
5.83774e-05
-0.08728
0.0804228
0.000474182
0.00160024
-0.0449537
-0.18051
-0.173672
-0.000119739
7.72022e-05
0.000284858
2.20909e-07
-0.00403235
-0.120022
6.69325e-06
-0.0938149
0.04127
-2.23192e-05
0.00293595
0.00176766
0.00326781
0.00358345
1.37325e-05
0.00397031
0.00428429
0.00449292
0.00493288
0.00386676
0.00184896
-0.000385809
1.43809e-05
0.000344217
0.00280854
-8.35686e-07
0.00275281
-0.0746458
-0.00609458
0.0314175
1.2824e-05
9.08387e-06
0.00265683
-0.397421
7.8537e-06
-9.18641e-05
0.002188
0.537646
0.0095757
-1.66021e-05
-0.00034624
5.81069e-05
0.226726
0.000451714
8.47521e-05
0.0152407
0.0385908
0.00284165
-0.0375242
0.00116419
0.0137264
-0.0609727
-2.36889e-05
-0.159716
0.044751
-3.95451e-05
0.000967454
0.000330862
-0.000183456
-1.54926e-05
-0.0206815
0.119246
8.44141e-05
8.85454e-05
-0.0465477
0.00716359
0.00091952
-2.02585e-05
0.00515507
0.0017802
0.0246507
0.0606117
2.35878e-06
5.62987e-06
6.42581e-06
-6.65685e-05
-0.0826156
-0.00271832
-0.00306921
0.00260183
0.00297124
-0.164763
-4.50893e-05
1.5304e-05
0.0385958
3.31727e-06
-0.0727017
-5.88078e-05
-0.0239287
8.43143e-06
-6.8135e-05
-0.0454316
-3.26371e-06
0.00339963
-0.068521
-4.08174e-05
-0.000113335
1.0479e-05
0.00585807
0.0366327
-0.0040288
0.0373148
-0.000244457
7.81037e-05
0.000187867
0.000900226
-0.140273
0.627441
0.000306654
0.00559964
0.00378891
-0.206336
0.00963215
2.58077e-05
2.15342e-06
8.28915e-06
-0.0127935
-0.00843782
-0.00533252
0.000152583
0.00432887
-1.40271e-05
-0.122484
0.0648668
0.204984
3.99693e-06
7.04163e-06
6.51786e-06
0.039372
-0.00212225
-0.0256823
-0.0136301
0.00356477
0.00378171
1.94518e-05
0.000548619
0.00147637
-0.0154227
0.0103373
4.63824e-07
0.00399655
-6.47217e-05
-0.000110635
0.000341073
-0.0156827
-1.07591
-5.75661e-05
0.000713214
0.027702
-0.0191037
0.0721744
-0.167102
-0.500047
-3.20218e-05
0.000950063
-5.60319e-05
0.00416855
-3.81863e-05
-6.53471e-05
-0.000138117
0.000758187
0.000737992
-0.079218
-0.000133009
0.00239562
0.0431244
0.00430753
-0.000129365
0.0872164
0.00399953
0.000193157
-5.76746e-05
-0.536336
0.000140088
-3.24763e-05
0.00512306
0.00920883
0.0526209
9.66199e-05
-0.153296
0.041664
0.0766309
-0.121456
0.00025736
0.00314555
0.00277226
-0.196839
-0.0376345
5.03927e-06
0.0205316
-0.000332116
0.00724562
-5.988e-05
0.650428
-0.11918
0.0238618
0.000173384
0.0415019
-2.96055e-05
0.0418855
0.00296813
-0.0108843
0.130387
1.55839e-05
-4.68324e-06
0.0380604
-0.163677
-0.00388814
1.30696e-06
0.000172908
-9.31294e-05
-0.331645
0.00627455
0.0430178
-1.6876e-05
0.0750861
-0.000366735
0.00403855
4.43106e-06
0.00627557
0.276538
-0.000222545
0.00293907
2.37072e-05
5.1683e-05
3.46259e-06
-0.0083684
-7.40758e-06
3.46639e-06
-0.0602881
0.0138758
6.9227e-06
-0.141836
-6.16655e-06
-6.25663e-05
2.95465e-06
-2.00298e-05
5.86881e-06
-0.00892397
-0.0219085
8.59372e-06
0.112013
0.00192134
0.00121424
0.000332277
0.00271484
-8.20024e-06
0.000453282
7.52276e-06
-0.00684482
-0.000298787
-0.153048
-0.000228574
-0.224391
0.0172202
0.00110294
0.0112561
0.0701261
1.1611e-05
0.0362175
0.000842648
0.00155815
-0.00881424
-2.04705e-05
0.205477
0.00581041
3.49933e-06
-0.000342075
2.63376e-06
-0.442811
0.00437039
-0.0964551
0.005596
0.00504911
-0.0610968
-1.44255e-05
-3.46763e-05
0.00179176
-2.44008e-05
2.92395e-06
3.89588e-06
-2.82933e-05
-1.15818e-05
7.11235e-06
-2.30379e-05
4.80212e-06
-2.36635e-05
-7.66117e-05
-5.89212e-05
0.00183023
0.00387091
-2.31032e-05
-0.383638
-1.34247e-05
3.85862e-06
0.0030414
0.000972018
-6.80024e-05
-1.19062e-05
0.103741
6.23134e-05
0.0376685
6.93638e-05
0.00101116
5.40624e-06
-5.11487e-05
0.00468929
-0.0544239
0.0020241
-0.000185329
3.39376e-05
0.0274169
3.39613e-06
8.89274e-06
0.00231009
6.11163e-05
0.000668846
0.0423592
0.00270281
-0.00394657
0.000241262
0.0518866
-4.33956e-05
-5.3266e-06
0.000806968
-0.0220613
0.00166359
0.000956283
0.0619527
-4.46382e-05
-3.89152e-06
0.000184266
0.00494415
0.00180655
3.05335e-06
0.00337642
0.00361401
0.00121101
5.38112e-06
2.76234e-06
-0.00637368
0.00108573
0.0099208
-0.0638059
-0.00013314
0.00170179
4.18436e-06
0.00106608
-0.612697
-2.1198e-05
0.0015834
0.00202073
0.00109895
0.00960794
3.04951e-06
-4.04441e-05
8.76358e-06
-0.0722391
0.00524834
-5.62502e-05
0.00178482
0.00374181
4.80088e-06
-4.84821e-05
0.0701373
-0.117798
-0.00749405
0.0431666
-0.0126634
0.00038683
0.00313011
0.00410221
0.000349595