/*--------------------------------*- C++ -*----------------------------------*\
| =========                 |                                                 |
| \\      /  F ield         | OpenFOAM: The Open Source CFD Toolbox           |
|  \\    /   O peration     | Version:  v2012                                 |
|   \\  /    A nd           | Website:  www.openfoam.com                      |
|    \\/     M anipulation  |                                                 |
\*---------------------------------------------------------------------------*/
FoamFile
{
    version     2.0;
    format      ascii;
    class       volScalarField;
    location    "800";
    object      omega_0;
}
// * * * * * * * * * * * * * * * * * * * * * * * * * * * * * * * * * * * * * //

dimensions      [0 0 -1 0 0 0 0];


internalField   nonuniform List<scalar> 
13917
(
5.8267
0.0350714
0.229422
0.0222195
0.02794
0.0347836
0.0277246
0.0632058
0.0267896
7.03228
0.0595281
0.0216616
0.0237128
0.444059
0.0265573
7.44193
0.0242269
0.0532466
0.13262
7.24599
0.031907
0.0214828
0.0508763
0.0214859
0.0231843
0.0333303
0.192544
9.23552
0.0410676
0.0204781
7.94242
0.0817683
0.0221785
3.2773
0.0219711
0.068769
0.0235649
0.0236943
0.0277687
0.0373728
0.0220802
0.0237627
0.024681
0.129659
0.128157
0.193679
0.0304957
10.4174
0.275745
0.0219723
0.0216275
0.125001
19.2257
0.021501
0.0215774
0.124626
7.35603
0.0508532
0.0236407
0.18993
3.26205
0.0303229
0.0208212
0.0230108
0.827019
0.0295688
0.044217
0.0675005
0.0574748
5.98271
0.346156
3.3279
0.0217133
0.0231629
0.032749
0.0235419
0.0239117
0.0230588
0.0233451
0.0222531
0.0219179
0.024561
0.0216977
0.368358
0.0211279
0.089961
0.0781151
0.021478
0.0367379
0.0238705
0.0212413
0.0249742
0.292164
0.0216717
0.0219451
0.0441749
0.185039
0.0243835
0.0214042
0.103964
0.0210006
0.0209551
0.021963
0.0220052
0.0238531
0.429445
2.99854
0.0298229
0.024411
0.434945
0.0215096
3.24946
0.0411418
9.08813
0.668983
0.0239118
0.124798
0.0213904
0.201026
0.0216373
0.0240888
0.0223382
0.0476928
0.105893
5.702
0.3552
0.0228554
0.0342897
0.0212328
0.107663
0.0364031
0.156089
3.33021
0.0238535
0.0961063
0.440788
3.20883
5.64178
0.0351237
0.0236481
0.850606
0.0226653
0.428721
0.0210888
0.0216291
0.0294062
0.350257
0.618858
10.956
0.0215378
0.034092
0.0207951
0.0216066
0.0216477
0.182491
0.0221405
0.0219329
3.62308
0.0220831
0.0216715
0.0210815
2.25892
0.0251422
0.879164
2.62253
0.126811
22.9068
5.9384
0.0195713
0.0370224
0.0215902
3.13315
0.0267755
2.40078
0.0737271
0.0211359
0.022227
0.136063
0.0352819
0.025627
0.0244876
0.0215162
0.0216202
0.191777
0.202013
0.155717
0.0215927
0.190488
0.0204961
0.0805281
0.0735114
0.11891
0.155004
5.41493
0.0216702
5.43197
0.0258789
3.00373
0.0219574
0.0219286
0.0288444
5.69491
7.07296
0.0231758
0.217007
0.0325298
0.0346472
0.0226501
0.134391
0.0219131
0.0209689
0.0370687
0.0416512
10.6099
0.0931974
0.0348801
2.69066
0.0223979
0.0208731
0.0208597
7.41297
0.169887
0.210161
0.0213456
0.0210416
0.835398
6.3319
0.0207002
0.0206577
0.02213
0.0209522
0.0209383
3.48623
5.05328
0.0216022
0.0196357
0.0820786
3.53898
0.0228743
0.0213428
0.205386
0.433851
0.178682
2.76067
0.0999912
0.0210937
3.41546
0.0856728
0.03884
0.0887327
0.0229588
6.12468
0.0216489
0.0420456
0.066989
0.0216909
0.0221642
0.0229989
0.0261455
0.0225045
4.00704
1.15412
0.0221566
0.0206247
0.0222226
0.0206269
0.0216548
0.023727
0.0390948
0.0224224
4.63891
2.96041
0.0214082
0.0243375
0.222527
0.0208269
0.08513
3.68014
0.0208444
4.4758
0.0223863
2.15896
0.0211927
0.0252823
0.0217511
0.0210694
0.167108
0.0233521
0.14068
0.0281972
1.25016
0.0302293
0.204272
6.08824
0.0218712
0.0572496
0.0266029
0.024136
0.0272983
0.0233222
0.0218588
0.0227988
0.132475
0.215748
0.0407625
0.0231573
0.0213262
3.43186
9.13187
0.0212085
0.0234645
0.0241833
0.673468
0.158929
2.98151
2.35281
0.063965
0.13706
0.0240931
0.367248
0.746737
0.229665
0.0236467
0.0263675
0.205735
0.0218342
0.0370742
0.117217
0.0237272
3.10926
0.0211619
0.0498829
0.0213071
22.9356
0.0208329
0.0385473
0.0330296
0.0599342
0.0233587
0.089501
0.418155
0.0218676
0.0218274
3.2448
0.421321
1.27411
0.435646
0.020777
0.0215758
0.439637
0.138468
0.0207959
0.0272458
0.0215582
0.0495191
0.0398728
0.125894
0.0930621
0.0853724
0.0486027
3.34844
0.0212536
0.0218799
0.0288346
0.191523
0.0232585
6.598
0.0485213
0.280958
0.0216097
0.118588
0.0235103
0.230544
0.0241994
0.211163
0.224197
0.0348796
0.021426
0.322252
0.0215771
2.58835
0.165855
0.0242699
0.212228
0.0220605
0.0323245
0.0210231
6.36999
0.0322705
0.0231858
1.20149
0.0745358
0.0226427
2.46765
0.255044
0.0228492
0.170047
0.0215142
0.0749931
0.224863
0.0211804
0.0273297
0.023156
0.0210586
0.0209247
0.0212719
4.48078
0.122921
0.0217277
0.021359
0.0213626
0.0545892
0.0731346
0.0209961
0.019588
0.155376
0.116458
0.0210862
0.0230667
1.85326
0.462927
0.0921113
0.140526
0.36896
0.0221595
0.0209184
0.0293241
0.0209183
0.0210232
0.0216662
0.0209483
0.0220077
4.03204
0.0215524
0.040522
4.33853
0.0563225
0.0209817
0.0215868
2.429
0.028826
6.93144
0.0211917
0.0213138
0.0217228
0.0210411
0.0234483
0.0222278
1.52512
0.0304909
0.432732
0.0213084
0.0393041
0.0294078
0.0218495
0.0987674
1.29073
0.0215301
1.6249
0.0209982
0.0212859
0.0213352
0.0220778
0.0209286
0.021914
3.50383
2.49272
0.020914
0.210459
0.151151
0.0217569
0.0619573
0.0938595
2.61753
0.0283846
0.42643
0.0724493
0.0412212
0.0222482
0.028191
0.0287212
0.0228308
0.320588
0.0215164
0.0214664
0.0219539
0.0270133
0.0315633
0.183902
0.0619094
0.0266567
0.0250892
0.0524466
0.0531415
0.0217252
1.22247
0.038895
0.0282451
2.5247
0.0211361
0.0556725
0.149007
0.0208575
3.95014
0.0213783
0.0210394
0.0562135
0.0212162
0.0221806
0.128903
3.85934
1.82402
0.0210826
0.0225144
0.0259123
0.307914
0.261023
0.0216362
0.021544
0.0210708
0.0621756
0.538473
0.0213352
0.0230597
0.0218726
0.0210458
0.0275983
0.0289912
0.0219894
0.0626598
0.0208601
0.0213885
0.0230133
3.05059
0.0205066
0.0240759
0.0224928
0.0376721
0.0740604
0.051026
0.0699021
0.111359
0.0227483
0.0479904
2.59893
3.93972
4.04701
0.0211863
0.0213089
0.0288591
0.0213604
0.845703
0.0209137
0.803488
0.0258965
1.18288
0.094676
0.0246675
7.77717
0.0209138
0.0789774
0.0239437
0.0245794
2.06429
0.0210855
0.23306
0.0210408
0.0225298
0.0213346
0.180012
0.0276893
0.0205001
0.132118
0.0604686
0.647265
0.352958
3.34344
2.60995
0.0205133
6.21473
0.0202825
3.00568
0.636356
0.0258748
0.0238194
0.020942
0.0379653
0.024163
0.0211159
0.0238908
0.0233762
0.350462
0.0211219
0.0734296
0.0214357
0.0204745
0.0220258
0.17811
0.497894
18.7713
0.0827228
0.0289191
0.282388
3.48773
0.0210971
0.39087
0.0232285
0.128751
0.0213511
0.312916
0.0210333
0.0280489
0.0216536
0.605646
0.0396753
1.50345
0.0220658
0.0372326
0.0217194
0.0211749
3.25416
0.120694
0.022014
0.137089
0.0213259
0.0240797
0.0210096
3.16144
0.0211267
0.0265328
0.0208919
0.0218959
0.191592
0.0209157
0.12926
0.0248912
0.0208424
3.53248
0.0758782
0.0215849
21.2631
0.229267
0.066063
0.15042
0.0208986
0.027453
3.11564
0.256739
0.0283556
0.0235885
0.0298565
0.0242563
0.0212099
0.122081
0.079681
0.0248683
2.81641
0.0402723
0.0943945
0.262136
0.225088
0.0370402
0.152333
4.00995
0.0218622
0.0297153
0.145529
0.0208495
0.0222051
0.0218689
0.0266062
0.0221964
5.97725
0.0402657
0.0213594
0.109214
0.0219108
2.96704
0.0223837
0.0212432
3.99878
0.0699087
0.196129
0.0217634
0.0219529
0.0213086
0.0221428
0.0296698
0.0210679
6.4439
0.030202
0.569279
0.156034
0.0281825
3.23689
0.0225132
0.0231022
0.0217981
3.61287
1.47659
0.0262712
6.40359
0.727876
0.020842
0.0212296
0.0234426
0.421623
0.148223
0.0397248
0.0220968
0.0240625
0.13336
0.0235401
0.125854
0.04028
0.0218816
0.0222726
0.0233233
0.0294713
0.0250827
0.271323
0.0244449
0.0276181
6.09236
0.0219735
0.744012
0.0233319
0.0307408
0.0258717
0.247575
0.0239641
0.0743363
0.351889
0.233532
0.0213853
0.0244722
0.0226031
0.0212925
0.0216417
0.0317356
0.0301033
0.174082
0.129264
0.0208815
0.29381
0.0266973
0.027043
0.141944
0.0216469
0.0789784
0.185316
0.020425
0.0700553
0.0854139
0.0397814
0.0210621
0.0209424
0.021209
7.49974
0.0221234
0.0227716
0.0489887
0.0210827
0.021031
0.118837
0.144503
0.0389838
0.673424
0.0457475
0.444937
0.0216499
0.0243255
0.262206
0.0257323
0.222669
0.0233496
0.0221574
0.0217257
0.0248195
0.0535145
0.021063
0.0271323
0.0217952
0.636921
0.0233824
0.0283894
0.0213231
0.0891018
0.0254689
1.98384
0.0405199
0.0245957
3.02133
0.0223431
4.14803
0.0239159
0.0707948
0.0231006
0.0211575
0.0213721
2.95679
0.0292348
0.0679343
0.643248
0.0212883
0.0399788
0.0196108
0.0298504
0.500062
0.019653
3.41323
0.0242193
0.0688327
0.121134
0.501988
0.0207573
0.0220976
0.101421
0.0208993
0.0214641
0.0226779
0.0212836
0.0489726
0.0207288
0.0820633
0.021876
6.03267
4.28561
0.715958
0.437267
1.29727
8.51231
0.696321
0.0208012
0.023894
0.0215025
0.0222938
0.0210705
0.0294526
0.0211354
0.0754663
0.0214975
0.326053
0.0220453
0.0346302
0.088262
0.0212839
0.0400555
0.0223383
0.0250073
0.0264336
0.0215624
3.17842
0.0852783
0.0261771
0.0212191
0.021484
0.0216744
0.0218407
2.55393
0.020818
0.118612
0.0210252
0.165475
0.0249888
0.0210991
0.077124
0.0270765
0.0208297
0.176037
0.35343
0.0234591
0.089735
0.0209112
0.103625
0.0219184
0.0218305
3.6785
0.0229921
0.0222994
0.107043
4.01082
0.0221584
0.727616
0.297994
0.0243264
0.0225989
0.0213088
0.360737
0.0214546
0.141214
0.0215931
3.96374
0.0252881
0.52438
0.0213474
0.0206905
0.0333405
0.0224715
0.0218544
1.71555
0.0225622
0.0209165
0.740979
0.0243773
0.0238853
0.0791745
0.0227473
0.935034
0.0382391
0.0928234
0.143485
0.0239618
3.80676
0.0220603
0.0742589
0.021355
4.04864
0.117759
0.0218346
0.0219402
0.0240035
0.0216426
0.0217389
0.0219854
0.0222145
0.0213709
0.0294448
0.0204241
0.0224141
0.0858225
2.71362
2.30552
0.0993608
0.021679
0.0333022
0.0211083
0.259977
0.518945
25.0058
0.0209867
0.020811
0.0215808
0.0213879
0.0209413
0.0217342
0.0211841
0.0384795
0.0209208
15.2489
0.738799
0.020947
2.77281
0.0213638
0.0212714
0.0318225
3.13218
0.0577484
0.021434
0.190516
0.0216896
0.0213329
0.317714
0.0240671
0.196783
0.0223938
0.0568223
0.0209806
0.0223647
0.029137
0.268247
0.0226673
3.38263
0.0343095
0.023074
0.0228589
0.0214798
0.0209272
0.113104
0.0390885
0.0247011
3.5738
10.233
0.173011
0.119619
0.022146
3.7524
0.0223165
2.25181
0.0654277
0.0274479
0.0224871
1.65666
2.23745
0.398015
0.0227532
0.624873
0.0217539
0.0211422
0.040966
0.0218198
0.0215681
0.174438
4.26506
0.0223832
0.029442
3.59511
0.0210355
0.0207891
0.864645
2.87324
0.0221904
0.0204036
0.0271357
0.0215601
0.02132
0.0316601
0.0246468
0.0214862
0.601964
0.022772
0.0482045
0.512411
0.0337131
3.9161
0.0217975
0.021986
0.0259478
4.04946
0.030622
0.023801
0.029859
0.0220265
0.0224185
0.0221355
2.17089
0.0283166
0.0219986
0.0603388
0.0210686
0.231949
0.0860801
0.141562
0.0733365
0.23236
0.168881
0.759674
3.35175
0.0238414
0.233597
0.0208368
0.0602478
0.0828496
0.474915
0.0248077
0.0246204
0.0254443
0.0913972
0.0226436
2.52539
0.0360947
0.0892044
2.30667
0.0221668
0.126656
0.0230331
0.0214233
0.028936
0.0415865
0.0209069
0.0208445
0.0225188
0.415978
0.0209164
0.0225594
0.0241672
0.0220623
0.0214221
0.0897365
0.0866777
0.0220011
0.021206
0.0741472
0.0255003
0.0323693
3.74873
0.0217933
0.0214206
1.53592
0.0227848
0.0227488
3.27001
3.87007
0.0282022
0.059736
0.0253668
8.1621
0.115487
0.0304796
0.345219
0.0213076
0.0855887
2.65683
0.207828
0.58081
0.224794
0.0219478
0.0213625
0.0233712
0.0214416
0.0214248
0.273993
0.0228974
0.0473237
0.0206434
0.0700293
2.55603
0.022756
0.306411
1.24258
0.0214179
0.0948032
0.0249703
0.0225017
0.0212891
3.8571
0.0808399
3.88215
0.0266744
5.61724
0.0864328
0.0219661
0.686036
0.0366035
0.0234392
0.021106
0.179723
0.0212964
0.0248368
0.0332782
0.0244631
0.0220683
0.0630969
0.442117
0.0210914
0.155349
0.0591717
0.0214591
0.0210887
0.0295497
0.396792
0.251595
0.0211297
0.033356
0.0240556
0.638387
7.19042
0.0215334
0.0209448
0.0219385
0.0214862
0.0232818
0.0233115
0.406448
0.0218838
0.0246582
0.0397793
0.0240861
0.0976297
2.80092
4.31595
0.0218001
0.0216991
0.0209024
0.0223278
0.0869901
2.45015
0.0262512
0.0911285
0.0283769
0.0568164
0.0240064
0.0248628
0.0245608
0.127465
0.0215796
0.096576
0.0248769
0.0210679
0.0217558
3.25277
0.0516253
0.0365847
2.65988
0.124037
0.0212958
0.214353
0.0230002
0.0212129
0.561778
0.576007
0.0216223
0.0281471
0.118936
0.0319922
0.0221705
0.0207154
0.0210988
0.0209712
0.0212964
0.029844
0.0491106
4.80495
0.032624
0.0259557
0.034259
0.0833864
0.0211955
0.0315465
0.199939
0.243718
2.93627
0.0224185
0.0207108
4.01147
0.0210401
0.0300942
0.022808
0.0404724
0.0217145
0.0210859
0.279011
0.0262508
0.0223226
0.0214735
1.8279
0.27266
3.55286
0.0216352
0.0213334
0.163461
0.0216
0.0222164
0.110237
0.562006
0.0261316
0.0351696
0.0221056
0.409896
0.0212201
0.0235484
0.0220732
0.0206733
0.242188
0.0212112
0.0209576
0.180129
0.0693317
1.196
0.227447
0.0211604
0.0314907
0.0210296
0.0212843
0.0229235
0.022169
0.0215016
0.22552
0.0215221
0.0766519
0.0285113
0.029101
0.0215794
0.0226429
0.02124
3.98023
0.0209084
0.0862676
0.0815208
0.0223963
0.0594942
0.0352215
0.0319715
0.0213864
0.0308565
0.020943
0.0210736
0.0313858
0.032232
0.0288821
0.021806
0.0217082
0.0224315
0.0551241
0.0210694
2.76688
0.0483055
0.0224404
0.0212945
0.0209334
0.0475978
0.0380587
1.8039
0.152399
0.227897
0.0288169
0.095854
0.0231237
0.901534
0.0206408
0.0208348
0.0245539
0.0274797
0.0209618
3.26255
0.0213871
0.0220261
0.114366
0.183208
9.30656
0.0268481
0.0256426
0.127666
0.0393916
0.0219338
1.08373
0.0213751
0.0210653
0.254632
0.020822
3.21026
0.0263437
0.0210136
0.021382
0.0219794
2.87689
0.0217336
0.020719
0.0880498
0.0211674
0.0210174
0.0222049
0.0220637
0.0517996
0.0216621
0.0235331
0.0207668
0.209709
0.0581826
0.0207838
0.0207922
0.0221317
0.0212788
0.0242142
0.0216659
0.0222913
0.0216958
0.021351
0.0222017
0.0214144
0.0502358
0.0209356
0.0893791
0.0214216
0.0393848
0.0211108
0.0214871
0.0210659
0.0210001
0.0341045
0.0250187
0.0259398
1.54458
0.0261589
3.646
2.86482
0.0912721
0.443007
0.0213789
0.0213944
0.188587
2.1014
0.0226137
3.60991
0.0210171
0.146011
0.698952
0.0239644
0.0903366
1.23382
2.7574
0.022233
0.0542026
0.0209581
0.363393
0.0245299
3.2047
5.78607
0.0215881
0.0479923
0.159994
0.0244905
0.295628
0.23162
0.0228357
0.020944
0.191626
3.74252
0.0219301
0.0347739
0.0216164
0.14998
0.130306
0.0214054
0.0211367
0.36655
0.0212713
0.0214253
0.0220829
0.0208635
0.281599
0.02714
0.0292205
3.72341
0.0213013
0.049875
0.0217062
0.183434
0.0567024
0.322336
0.0210904
0.0284085
0.0208354
0.0226288
0.0243514
0.0213619
0.314797
0.0223651
0.0209099
0.0211023
0.0304944
0.0209291
0.399068
0.63265
0.716187
0.0213893
0.0211687
0.021213
0.721763
0.0215827
0.426125
0.0223612
0.185181
0.0226638
0.0249405
0.263728
0.0214272
0.0239283
3.746
0.12209
3.22283
0.0234428
0.984105
0.449756
0.0213538
3.46755
0.0214631
0.0243839
3.04771
0.022895
0.0353948
3.93088
0.0277026
0.0763072
0.0215695
0.395361
0.0213993
0.396206
0.0212211
4.45283
0.021422
0.0215298
0.0229388
0.636588
0.021182
0.0257707
0.0605713
1.75617
0.0212028
0.0275713
2.68697
0.0686979
0.249978
0.0805499
0.0211163
0.118597
0.172137
0.0233365
0.291795
0.0207519
0.148884
7.03677
0.0212578
6.9924
0.0212967
0.479223
0.258753
0.0234312
0.0231991
0.468468
0.792956
0.0214527
0.0227111
0.020892
0.0213914
0.4061
0.0659682
0.27721
0.0215703
0.027086
3.20689
0.0365562
0.713232
0.390343
0.021126
0.02136
0.209329
1.76734
0.255527
0.792981
0.228547
0.0356765
0.0531805
2.37181
2.59951
0.546669
0.0209435
0.08546
0.0466079
0.0713635
0.0213563
0.0271867
0.0602046
0.10029
0.706921
0.0244695
0.114335
3.65822
0.0370184
0.0214055
0.0214094
0.0656371
0.0212569
3.55835
0.027623
0.0234623
0.16159
0.0433107
0.0207739
0.0367233
0.0308875
0.0213847
2.08473
0.0274695
3.08205
0.0215921
3.35371
0.264733
0.21297
0.0209962
0.0256776
0.028096
0.100132
0.110249
0.0791772
0.375702
0.1345
0.0197155
0.0252671
0.024322
0.132783
6.65598
0.0205882
0.0207514
0.0224858
0.208607
0.101362
0.0216161
0.0478017
0.157512
0.0209192
0.0375116
0.023307
3.04041
0.0257792
0.432404
0.430002
0.0289708
0.0236784
0.292008
0.0210798
0.0390606
3.04821
0.0233705
0.0724004
0.0350175
0.0681719
1.40188
0.971665
0.021543
1.04041
0.128742
0.0208215
0.155833
0.0720379
0.103671
0.314601
0.164636
0.708666
0.110576
2.90145
0.0261747
0.0820963
0.0203372
0.0217302
0.0214235
0.0209312
0.271208
0.0966986
0.0209123
0.0378593
0.197664
0.0210694
0.581874
1.30365
0.0205686
0.0215431
0.0205316
0.0221773
0.051368
0.0213961
4.97784
0.0306923
0.0740898
0.024698
0.069158
0.0499475
0.0297064
0.116596
0.0213778
0.0222689
0.0208327
0.0214223
2.37333
0.119374
0.027204
4.95503
0.021605
0.0217446
0.0291029
0.0210437
0.0222191
0.0688462
0.0252742
3.3901
1.41682
2.37349
0.0216133
2.95645
0.021207
0.301979
0.0207562
0.154747
1.57011
0.0214197
0.202319
3.66007
0.0299195
0.0220908
0.021469
0.0266749
0.975607
0.0208445
0.0217584
0.0228642
0.0236165
0.216595
0.0224163
0.02544
0.0210933
0.0238062
0.29345
0.0347058
0.0231713
0.133329
0.0637322
3.07382
0.973035
0.0226761
0.0220717
3.08778
0.0213637
0.0739459
0.0216372
0.371458
0.0224176
0.0217115
0.0300018
2.11908
0.021366
0.0210965
0.0206178
0.179014
12.1254
0.116631
0.0214607
0.0231282
0.02092
3.81807
0.0211117
0.343196
0.0674039
0.0216008
0.183634
0.0301488
0.0271331
0.0221316
0.0221823
0.0295427
0.0353323
0.111138
0.0216907
0.0216945
0.0223471
3.13052
0.0215379
0.0221473
0.954087
0.0226589
0.0296659
0.0246274
0.0212195
0.02209
0.622954
0.0237811
1.4238
0.0304969
0.020402
0.186461
0.0217217
0.108443
0.0478521
0.0222733
0.0210858
0.0203524
0.0213826
0.744103
0.0552787
4.04616
2.87854
0.0209555
0.0309516
0.0357515
0.320621
0.0213716
0.397314
1.08318
0.374787
0.021519
0.0228511
0.0219195
0.583534
2.36733
0.0232413
0.0215077
0.0317004
6.49153
0.0216341
0.0229576
0.0224951
0.143623
0.277055
0.0206448
2.49319
0.0271581
0.0213953
0.383185
0.0664126
0.185894
0.840918
0.0298716
0.0245848
0.0222233
0.0253641
0.0218172
0.0506516
0.0420739
0.0222963
0.0244973
0.245454
1.29862
0.0208248
0.105735
2.6117
0.196424
0.0226294
0.0214896
0.0333128
0.37669
0.0584112
0.0210909
3.89034
0.0820301
0.020533
4.7484
0.026429
0.0214742
0.183282
0.0212825
0.0336432
0.0211535
0.0201663
0.0214204
0.0206142
0.636933
0.0209142
0.0211253
0.0855041
0.0257104
0.023618
0.150171
0.0213728
0.0214617
0.0225869
0.0221654
0.23062
0.229444
0.289045
1.0027
0.0314087
0.473773
0.0382252
2.6796
1.9484
0.983501
0.0209553
0.0276787
0.021393
0.0213508
0.0215748
0.0243191
0.219464
0.0716539
0.0342368
0.0210506
0.0213682
0.0682147
0.02172
0.0216421
0.0213615
3.96617
0.0301692
8.0271
0.0216002
0.0311907
0.0217455
0.0216711
0.021815
0.0490713
0.0210091
0.0913777
3.20423
0.0376127
3.98624
0.625501
0.0251225
0.0270953
0.0807463
0.112096
0.0212005
0.0215403
0.0203919
2.92656
0.0201342
0.0555317
0.0352702
0.0827064
0.146401
0.123285
0.0755238
2.24271
0.0220487
0.0205465
0.0397579
0.414704
0.0213398
0.0215763
0.263821
0.020955
0.171245
0.0223986
0.0209957
0.0245467
0.0214757
0.0763037
3.09692
3.34173
0.0248039
0.0220138
0.0723141
0.0224043
0.0775132
0.0209198
0.159732
0.111097
0.0216434
0.0214348
0.0204963
0.112919
0.0539576
0.218704
0.294775
0.0288852
0.37247
0.0874646
0.136301
0.411783
0.0212236
2.84051
0.0221927
4.01862
0.271142
2.82775
0.524633
0.0247938
0.0552711
0.0415305
0.0213297
4.02038
0.0213475
0.0214476
0.0266292
0.0220299
0.0325837
0.293246
0.360719
2.81518
0.0256576
0.0364527
0.0222838
0.021753
0.0216616
0.126325
0.101235
2.17022
0.0437465
0.021003
0.0208813
0.0217472
0.249273
0.0234037
0.0220427
0.0245706
0.0757684
0.0337018
0.0361185
0.0341327
2.81283
0.0284664
0.0349549
0.0213801
0.0267636
0.207453
0.201865
0.0410091
0.021049
0.361865
0.0333078
0.0210755
0.0513934
3.18348
0.42375
0.0305853
0.0209664
2.52867
0.0216935
0.0209245
0.021093
0.244971
0.302982
0.0253796
0.297855
0.353026
0.0233189
0.0336285
0.0611847
3.15012
0.0296248
2.30046
0.0217083
0.157179
0.0301048
1.23995
0.0346114
0.0213629
3.29533
0.021562
0.0220973
1.55172
0.421525
0.0540837
0.215875
0.0249163
0.0225812
0.344951
0.0210675
0.0211584
0.0215576
0.0467984
0.0213579
0.0283874
0.0233436
0.348473
0.35379
0.0221451
4.06691
0.023352
3.33753
3.83194
0.0215251
0.0216842
0.0260365
0.133351
0.220605
0.0712663
3.20623
2.65094
0.129727
0.0237675
0.409927
3.25002
0.0498863
0.305185
0.0214221
0.0212374
0.0215817
0.0220998
0.0212582
0.0355539
3.40584
0.0283953
0.031294
5.80004
0.413312
2.31692
2.99977
0.0267505
2.47851
0.115715
0.0883102
0.0207364
0.0213531
0.0787624
4.43134
0.022222
1.13975
3.14352
0.0209999
0.0215603
0.0231863
0.0812215
0.0217632
0.077975
2.89297
0.0208033
0.0213898
0.0209669
0.0221213
0.119175
3.23537
0.0324244
0.414164
0.108918
0.0211108
0.0307041
0.117025
0.0235878
0.289171
0.331954
2.00622
0.255891
3.75093
0.021259
0.378682
3.31851
0.143819
0.381076
0.0214527
0.0227513
0.0234282
0.0235931
0.39875
0.0699669
0.0216503
0.0267449
0.0578173
3.43194
0.0237069
0.0228383
3.76178
2.92985
0.0217023
0.0267038
0.108669
0.0212992
0.0213935
1.34576
0.0210609
0.265282
0.030829
0.456471
0.0209977
0.0670202
0.158427
0.0210609
0.0206278
2.33214
0.261821
0.0217973
0.029863
0.166072
0.236357
3.06464
0.286094
0.0251291
0.0330432
0.150365
0.034345
0.0210928
0.0571371
0.0205508
0.0208292
3.45597
0.0347337
0.0973427
0.0245044
0.0254653
0.0212443
0.0208247
0.0220889
0.0222986
0.345844
0.0242613
0.270225
6.59353
0.042838
0.0798693
1.06037
1.11259
0.327395
0.0217587
0.0249777
0.034906
0.0249041
0.16494
0.0812143
0.0220792
0.271427
3.67065
0.025667
0.108681
0.0843332
0.119037
0.129985
0.0226725
0.144382
0.158581
0.173955
0.190343
0.136921
0.0916246
0.0253947
0.0210636
0.0340892
0.106741
0.0210234
0.223385
2.74077
0.166954
3.16173
0.0205773
0.0211026
0.185468
0.354103
0.0222269
0.0231806
0.0799012
5.41889
0.748416
0.0213547
0.0281513
0.0250733
4.57052
0.141791
0.0245891
0.254231
3.39384
0.116424
2.53802
0.099564
0.40268
2.88405
0.0195712
1.43708
3.63946
0.0222034
0.0709394
0.0970722
0.0243606
0.0211408
0.139443
1.16517
0.021981
0.0220464
1.58442
0.308885
0.0795912
0.0215793
0.243411
0.13787
3.23907
4.20212
0.0215391
0.0213553
0.0221634
0.0226894
1.65888
0.152323
2.11849
0.0997839
0.264253
0.562934
0.0229306
0.0210279
3.47256
0.0214276
2.31474
0.0208735
2.79159
0.0224578
0.0220148
0.703493
0.0214876
0.129659
0.472635
0.0238679
0.0228891
0.0225825
0.213083
3.48938
0.14027
3.33486
0.0233759
0.02401
0.0284351
0.0765476
1.80921
3.86021
0.0949342
0.228339
0.143744
0.341899
0.0217919
0.0215009
0.0208249
0.0207392
0.235097
0.0508542
0.433937
0.0376485
0.169194
0.0210491
0.292135
0.118789
4.11777
0.0214496
0.0227188
0.0201985
3.35393
0.0246449
0.636626
0.230419
0.139119
0.255502
0.0204434
0.0402434
0.137121
0.240002
0.298909
0.021532
0.153423
0.0216966
0.0221268
0.0906221
1.00111
0.244001
0.0215304
0.0847284
0.146266
2.31736
5.60075
0.955002
0.490413
0.0211939
0.0642732
0.0215425
0.160104
0.0217335
0.107545
0.0226114
0.0523343
0.0710499
0.471021
0.0237887
0.0858294
3.59919
0.146487
0.0228507
1.26162
0.134499
0.0246551
0.0223176
0.428937
0.0286775
0.122754
0.266809
0.42266
4.18122
0.0249934
0.475085
3.16857
0.725159
0.136741
0.0321084
0.125309
0.112589
0.827601
0.0523913
0.022087
0.309779
0.0421974
0.223945
0.0263579
3.06317
0.202203
0.349043
0.0272071
0.110699
0.0236735
3.29812
0.141691
0.33506
8.03953
0.0209338
0.0201681
3.42458
1.33053
0.0334
0.0219763
0.0388352
0.0277821
0.376618
0.0540332
3.6799
0.0252724
3.77007
0.120439
0.829765
0.022032
0.201846
2.66148
0.0235056
0.105023
0.0205408
0.0243376
0.0215886
0.0449704
0.0210966
0.0216049
2.76099
0.384703
0.0207217
1.66588
0.0221865
0.0213442
0.0212551
0.0212303
0.021729
0.298991
3.23117
0.0209589
0.177313
0.0801612
0.056655
0.305445
0.103267
0.0249222
0.0352932
0.0212796
0.0447687
0.0277492
1.59898
0.0232483
0.381345
0.293397
0.0750601
0.379685
3.87143
0.0208262
3.87952
0.0588008
0.0750058
0.0374275
0.021084
0.0353156
0.224151
0.0215457
0.311273
0.0214002
0.448007
0.169917
0.649814
0.208413
0.198974
2.62455
0.0214493
0.0217474
0.0746929
0.0226384
0.0216885
0.0217209
0.0261661
0.0210338
0.0211677
0.0224015
0.0385043
0.0228903
0.0260267
0.0223857
0.0333558
0.128798
0.0231967
0.517825
0.0230202
0.0212057
0.112795
0.0496998
0.0226159
0.0210389
0.166606
0.0237845
3.51349
0.0239943
0.117631
0.0212727
0.021306
0.0831752
3.10279
0.0839812
0.0318894
0.0205453
3.29349
0.0216125
0.021129
0.0919725
0.0241562
0.151017
3.5598
0.113972
0.114455
0.0387378
4.25535
0.0212914
0.0215428
0.0646248
0.0337778
0.0711124
0.104518
2.49087
0.0263702
0.0214972
0.0285326
0.237415
0.0709058
0.0215658
0.123505
0.123134
0.0705416
0.0217356
0.0216224
0.181794
0.0679213
0.3761
0.488615
0.022971
0.0813901
0.0216981
0.0523425
0.289845
0.0215402
0.165889
0.025617
0.0874834
1.02991
0.0215089
0.0212144
0.0212289
2.40011
0.223449
0.0229718
0.0832089
0.134761
0.0216707
0.0212548
0.147622
1.88547
0.182674
3.61526
0.130986
0.0334401
0.280048
0.148156
0.0327738
0.590506
0.109619
0.588022
0.0214506
0.12494
0.163694
0.0221474
0.170495
0.0379615
0.0648787
0.0261697
0.179851
0.0210356
4.40095
0.0251228
0.020836
0.0216756
0.0208588
0.022364
0.0222207
0.0210954
0.024592
0.0214745
0.0220791
0.0699942
0.0948269
0.0221497
0.0691826
0.0242634
0.0231018
0.0207634
0.0538026
0.0268697
0.369645
0.021527
0.0215656
0.0697628
0.175418
0.0215179
0.0214722
0.113341
0.0238632
0.0934563
0.0655658
0.0214628
11.2647
0.0241299
0.0221291
0.0699239
2.31328
0.0232688
0.0621682
0.0220012
0.0265727
0.0218019
0.0260319
0.0211182
0.0215819
0.037216
0.0667283
11.473
0.053971
0.0214305
0.0272688
4.00899
0.0440807
0.215529
0.118806
0.021616
0.0558001
0.75065
0.198859
0.178789
0.0252739
3.91647
0.143283
0.0272752
0.0216567
0.0758918
0.0221193
0.0695515
3.18652
0.0214013
0.628985
0.0216177
3.10399
0.0392756
0.0222671
0.0682392
3.3183
0.488456
0.0240068
0.0830414
0.031773
0.0207075
1.69748
0.0206747
0.0311
0.0210471
0.0240103
2.45209
0.0865595
0.0205228
0.0269013
0.225489
0.0214184
0.0217085
0.0283858
0.0242507
0.0213764
0.0238571
0.0235913
0.021818
0.0210301
0.0733845
0.132284
0.203829
0.0210052
0.0692302
3.31019
4.7777
0.0217479
0.0214306
0.0259426
0.106266
0.0219476
0.0210208
0.0211225
0.0213987
0.0246827
0.0282332
0.0232497
0.0777562
0.0230194
0.0207973
0.0228518
0.0769187
0.0497614
0.138093
0.022052
0.0273015
3.55951
0.0273035
0.0253444
4.44689
3.70342
0.127206
0.0774004
0.194233
0.0212752
0.0383977
0.0255296
9.64265
0.0213885
0.021209
0.369781
0.0208431
0.0301223
2.26634
0.0219196
20.3265
0.0317161
0.0357759
0.0257031
0.0749984
0.026911
0.0261376
0.141507
0.0209062
0.024778
3.74355
0.0224509
0.0212798
0.0295968
3.55875
0.0220606
0.0220608
3.01113
0.0241015
0.0257091
0.0730689
0.0204596
8.57101
0.0242566
0.0220947
0.099151
0.0704269
0.366508
0.0237279
0.249208
0.0355099
0.0961797
2.09157
0.021412
0.0341496
0.119878
0.0221029
0.258927
0.022012
0.0235651
3.19716
0.0221135
0.0487532
0.0939358
0.719761
0.0324765
0.0262618
0.0223062
0.0242978
0.117592
0.0239168
0.0339263
0.0566184
0.0670408
0.0215782
3.97339
0.0423021
0.0207964
0.0225012
0.0212187
0.021486
0.020468
0.0213868
0.0213936
0.0291375
0.0240052
0.0348084
0.0205651
0.0205354
0.0230562
0.0890309
0.0207944
0.0284586
0.0480992
0.0269107
0.0300294
0.0212554
0.0235674
0.023985
0.0339249
0.0265194
0.0234363
2.30934
0.0214752
2.53273
0.0254638
0.114354
0.081947
0.0213522
0.0715045
0.0338111
3.5121
3.25223
0.026218
0.0216148
0.0238521
0.0329316
0.055887
0.0220339
0.231077
0.0570295
0.0230726
0.0458512
0.0391624
0.0483633
0.0265282
0.174782
0.0614726
0.0255192
0.478327
0.0251779
0.155035
0.022391
0.0212053
0.10296
0.0954974
0.0213753
0.0485068
0.0214225
0.0216078
0.0213393
0.0219703
0.02137
0.0213858
0.0213482
0.0218446
0.185741
0.0222161
0.0213284
0.0220543
0.0223209
0.230431
3.16754
0.046365
0.0236713
3.91731
0.0213607
0.0213392
0.661003
0.033682
0.0219443
0.021915
0.0215061
0.159191
0.0215155
0.0265083
0.0219798
0.0310701
4.17388
0.021433
0.0459734
0.0726552
0.0258508
0.0430119
0.022078
0.0216184
0.0571722
0.191259
0.023528
0.0325176
0.452707
0.103333
0.0219279
2.89722
0.0223264
0.0197067
0.0447265
1.29827
0.0213187
0.0208249
0.0234465
0.0291797
0.030399
0.0213969
0.0221684
0.0364299
0.0216183
0.0269349
0.0263669
1.43422
0.0212037
0.344955
0.279299
0.0364415
0.0211929
0.121192
0.0216321
0.0229751
0.0214459
0.0684998
0.0206527
0.020594
0.0404152
0.0464902
0.323515
0.0216748
0.0205848
0.0234781
0.0215429
3.16849
0.0227315
0.0225388
0.0219913
0.0641084
0.0550509
0.0236324
0.0225325
0.0523613
0.0214606
0.0224828
0.0235725
0.0220442
0.11244
0.0210831
0.0284516
0.0219922
0.021464
0.0525147
0.098249
3.01375
0.0213315
0.0447543
0.42322
2.00655
2.71543
0.030002
0.0213797
0.0242547
0.0291109
0.317818
0.0216295
0.0250707
0.0267222
0.0342636
0.0205992
0.0652824
0.0512542
1.10459
0.0219851
0.0216291
0.091194
1.04748
0.0204745
0.0246206
0.0365616
0.0203672
0.0222387
0.0529994
0.0215572
0.0213863
0.0216534
0.0246786
0.0985095
0.0361716
0.0223334
0.021956
0.0218512
0.125987
0.0201352
0.0213675
0.0249487
0.104224
0.0257434
3.68467
0.0239297
0.0213236
0.0214832
0.022782
0.0211848
0.0341416
0.165098
0.0216161
0.0209873
0.0219222
0.0212663
0.0217488
0.0409278
2.04864
0.0235726
0.111691
0.0244142
0.021267
0.250749
0.0232023
1.16787
0.0217609
0.0214896
0.0208256
0.0214122
0.0223169
0.0338868
0.0358795
0.124275
0.0261904
0.0594847
0.0215405
0.03074
0.0214154
0.0230711
0.0383828
0.796729
1.06904
0.0215749
3.61586
0.0854301
0.0469286
0.16003
0.0200628
0.0213843
0.0214337
0.0225856
1.77399
0.0214999
0.0916108
0.260648
0.0220315
0.0894805
0.0203397
0.0286323
0.0917411
0.201225
0.0215842
0.0304131
0.148435
0.271336
0.0257415
4.02248
0.0224975
0.108732
0.10285
0.020599
0.0342272
0.029293
0.0239653
0.426668
0.0342316
0.0219149
0.0233779
0.0321992
0.021573
0.0431023
0.0215415
0.0201098
0.0246636
0.0358785
0.0214911
0.0887232
0.0252423
0.0234638
0.020153
0.0213195
0.460931
0.0816289
0.124499
0.0351717
0.0251419
0.026202
0.0244629
0.02131
0.0224468
0.0304002
0.0228945
0.0244177
0.0205577
0.0261236
0.39894
0.0219911
0.385733
0.155815
0.0215331
0.0215521
0.0206344
0.0271955
0.032622
0.0204387
0.0261031
0.0224112
0.0216472
0.0210759
0.0217603
0.0216587
0.0213883
0.23195
0.0221473
0.0265862
0.0214352
0.202557
0.601727
0.0213543
0.0317094
0.0214242
0.0240957
0.0292994
0.135174
0.0284542
0.0209879
0.0212388
0.0307616
0.0384794