/*--------------------------------*- C++ -*----------------------------------*\
| =========                 |                                                 |
| \\      /  F ield         | OpenFOAM: The Open Source CFD Toolbox           |
|  \\    /   O peration     | Version:  v2012                                 |
|   \\  /    A nd           | Website:  www.openfoam.com                      |
|    \\/     M anipulation  |                                                 |
\*---------------------------------------------------------------------------*/
FoamFile
{
    version     2.0;
    format      ascii;
    class       volScalarField::Internal;
    location    "800";
    object      V0;
}
// * * * * * * * * * * * * * * * * * * * * * * * * * * * * * * * * * * * * * //

dimensions      [0 3 0 0 0 0 0];


value           nonuniform List<scalar> 
13917
(
0.00162153
0.0423246
0.00437596
0.0437228
0.0902556
0.053802
0.0229242
0.0437978
0.02131
0.00125153
0.0473141
0.062747
0.177927
0.0445164
0.0630014
0.00136144
0.164107
0.0470402
0.00651418
0.00164631
0.0324644
0.107087
0.0118392
0.117839
0.0327902
0.033363
0.0212646
0.00133921
0.0419267
0.163342
0.00129732
0.00772165
0.045716
0.00170932
0.141677
0.0446445
0.050623
0.175101
0.0208448
0.0281768
0.201078
0.140777
0.0310421
0.00561248
0.00674246
0.00837042
0.0398133
0.00321656
0.0513521
0.114116
0.0623081
0.00942231
0.00143287
0.0794758
0.0781915
0.0070153
0.00115814
0.0133279
0.150743
0.0104226
0.00764879
0.123663
0.161893
0.0374996
0.00249927
0.153397
0.0408925
0.0416847
0.0421442
0.00128433
0.00374949
0.00127199
0.0727955
0.149873
0.0322906
0.0386916
0.0750497
0.157231
0.0443068
0.0334626
0.0850405
0.181047
0.0777728
0.00351037
0.150915
0.0369103
0.00843445
0.171329
0.0294893
0.138629
0.152434
0.0280679
0.0606439
0.149923
0.0687221
0.0409392
0.0290277
0.176287
0.140995
0.0267813
0.170755
0.131653
0.071443
0.153064
0.0977973
0.00284873
0.00261224
0.137395
0.139765
0.020089
0.17035
0.00197342
0.0385752
0.00326756
0.00276866
0.0383583
0.00737786
0.168201
0.00483779
0.0723144
0.173284
0.15822
0.0387883
0.00832239
0.00147189
0.00213074
0.0336735
0.0315267
0.13542
0.0066718
0.0129316
0.0119395
0.00208977
0.0429521
0.0066831
0.0211492
0.00826608
0.00138394
0.0368787
0.186167
0.0621307
0.156724
0.00312042
0.0990643
0.0685338
0.152322
0.00347162
0.121339
0.00218383
0.0899207
0.0267068
0.200164
0.0702167
0.0616177
0.0243682
0.0961688
0.14546
0.00172208
0.183654
0.157029
0.139284
0.00375099
0.0548646
0.070292
0.0045234
0.0237339
0.00122754
0.00449502
0.173363
0.0364179
0.104706
0.00231997
0.0247852
0.00789558
0.0103603
0.168014
0.0393655
0.00979954
0.016045
0.051197
0.031059
0.114867
0.0517438
0.0055622
0.00467275
0.0141109
0.0593531
0.00770172
0.169001
0.0385526
0.0136871
0.00666649
0.00686836
0.00150916
0.114236
0.0015021
0.0266862
0.00214486
0.139882
0.102164
0.0348201
0.00138173
0.00119696
0.0518035
0.0161918
0.0431969
0.0256459
0.153274
0.008923
0.0839882
0.143835
0.0757613
0.0737045
0.00291049
0.00662848
0.0309291
0.00292781
0.17148
0.152364
0.14471
0.00427459
0.00777663
0.00758515
0.150937
0.168008
0.0218105
0.00147632
0.131183
0.146306
0.152729
0.147339
0.151545
0.00113131
0.00296421
0.0768704
0.169148
0.0113249
0.00143648
0.159661
0.153556
0.0208159
0.00272561
0.00557182
0.00262348
0.0110423
0.0874121
0.00493256
0.00993963
0.0334926
0.00869952
0.0512796
0.00233432
0.0588438
0.0146364
0.0144423
0.0843569
0.180105
0.032102
0.101869
0.130642
0.00144134
0.0376335
0.158403
0.143866
0.0960437
0.139511
0.0672218
0.179871
0.0160776
0.158047
0.00131808
0.00275167
0.0950061
0.0960446
0.0104091
0.159317
0.0228151
0.00147229
0.154585
0.00127098
0.135349
0.00452396
0.181254
0.0665296
0.0711208
0.125221
0.00525689
0.171248
0.0223434
0.0257995
0.0391143
0.124882
0.0206783
0.00132955
0.139844
0.0125617
0.101816
0.0398597
0.0973812
0.0362545
0.142113
0.174216
0.0118101
0.102216
0.0172979
0.0364744
0.125704
0.00179235
0.00110293
0.136286
0.167174
0.0371288
0.0844722
0.00501678
0.00277928
0.00672188
0.188976
0.0142058
0.0927887
0.00330468
0.0848757
0.00372301
0.14116
0.0598813
0.0191873
0.0963818
0.0406392
0.00655819
0.179251
0.00188395
0.148946
0.0101928
0.161859
0.00165268
0.12894
0.0153653
0.0386108
0.179436
0.188445
0.00744569
0.00306061
0.0708123
0.094468
0.00188759
0.00290263
0.00541212
0.0429497
0.164842
0.0766883
0.00263758
0.0119357
0.175525
0.120698
0.0577882
0.0291387
0.0134562
0.00782155
0.0148599
0.0240465
0.0091327
0.00166961
0.125569
0.0725375
0.064768
0.00491046
0.171157
0.0012409
0.0108825
0.118432
0.060506
0.0145955
0.166329
0.0547897
0.12851
0.00682899
0.00899325
0.0436047
0.0832602
0.00366344
0.159388
0.00498051
0.00621743
0.126669
0.0524427
0.0790301
0.132564
0.136559
0.0015759
0.126578
0.0427407
0.0201895
0.0265626
0.0581357
0.00605777
0.00401663
0.0444989
0.00559937
0.0772426
0.0265534
0.00460665
0.128395
0.019958
0.0303203
0.135126
0.131655
0.135472
0.00766069
0.0232215
0.0594218
0.131619
0.104777
0.0141169
0.0457799
0.165284
0.190484
0.00587127
0.0164536
0.103003
0.0514514
0.00657907
0.0292034
0.144146
0.00595941
0.00308962
0.145756
0.163643
0.0370673
0.134351
0.163034
0.0656634
0.137907
0.142645
0.00404915
0.073613
0.0215971
0.00136406
0.0124783
0.136546
0.0713963
0.005517
0.039859
0.00122455
0.166149
0.0868335
0.15277
0.145474
0.0487351
0.0810519
0.00818754
0.145446
0.00245051
0.0948537
0.0134651
0.134598
0.0722736
0.0105175
0.00666179
0.0560287
0.0234654
0.135098
0.145405
0.102842
0.0798016
0.142965
0.159467
0.00186714
0.00645354
0.142661
0.0173041
0.00496169
0.150317
0.0123401
0.0066677
0.00381522
0.0181873
0.00278212
0.131873
0.131753
0.0748566
0.156538
0.133736
0.0563147
0.0060619
0.141496
0.076009
0.0583495
0.0203547
0.0273206
0.00435756
0.00828393
0.126674
0.0959033
0.0410229
0.0203989
0.0556455
0.0349494
0.0131667
0.0252165
0.00517346
0.129629
0.0171109
0.00836754
0.135146
0.00164815
0.121062
0.133226
0.0120699
0.155173
0.171841
0.0123525
0.00171139
0.0205982
0.130003
0.0312953
0.117085
0.00688444
0.00966313
0.061081
0.0863975
0.117775
0.0146212
0.108135
0.127344
0.198329
0.104648
0.116976
0.107602
0.0174235
0.158599
0.00793941
0.138924
0.107656
0.0327257
0.0018946
0.136598
0.0263369
0.130785
0.0152953
0.011019
0.0285361
0.0118739
0.0225894
0.0436339
0.0413863
0.00208515
0.00369437
0.00142244
0.140144
0.104108
0.120236
0.0769628
0.00289058
0.14749
0.0823795
0.0276647
0.0024906
0.0218744
0.026896
0.00140865
0.14497
0.00635084
0.180547
0.140112
0.00163926
0.167791
0.00330103
0.176557
0.139827
0.102119
0.00456193
0.107131
0.118628
0.00576194
0.0124463
0.100638
0.0033771
0.00210627
0.00369789
0.123184
0.0010858
0.16095
0.00700212
0.110776
0.130007
0.155742
0.132468
0.0139003
0.0284151
0.162961
0.137403
0.154764
0.00375259
0.0930616
0.00812148
0.076852
0.123279
0.167267
0.00799867
0.00411614
0.00173847
0.00945391
0.016585
0.00475087
0.00133281
0.134731
0.00630618
0.148762
0.0060466
0.0728423
0.00357081
0.117821
0.101843
0.0589513
0.0938737
0.0162121
0.00263174
0.154133
0.0153387
0.12053
0.135224
0.00159717
0.0264738
0.103523
0.00745454
0.112183
0.135075
0.177907
0.00166546
0.110579
0.0935212
0.124443
0.100118
0.00427506
0.189407
0.00695386
0.17
0.142125
0.00709764
0.00680201
0.079918
0.00114591
0.003114
0.0491339
0.00684793
0.148061
0.0547758
0.0016396
0.00293742
0.036684
0.0409933
0.0846307
0.137576
0.11224
0.155341
0.00980265
0.0269371
0.00509586
0.0161699
0.047158
0.00924122
0.0966059
0.0155211
0.00671686
0.00124555
0.136989
0.0872477
0.132489
0.135735
0.126984
0.184368
0.110171
0.152126
0.000961799
0.013827
0.162618
0.00633583
0.122645
0.00227694
0.135643
0.128583
0.0016499
0.00926707
0.139057
0.0502494
0.157409
0.130965
0.0321412
0.0115133
0.116389
0.00119864
0.0228048
0.112413
0.138779
0.0850541
0.00154031
0.0302276
0.134431
0.109447
0.00145834
0.0174543
0.0235708
0.00135923
0.0871765
0.133905
0.13354
0.0486657
0.00257784
0.140443
0.0144789
0.0373646
0.0238628
0.00487615
0.0951287
0.00757368
0.012056
0.0672874
0.0268434
0.132987
0.0180165
0.0966574
0.00311225
0.0407262
0.122614
0.00129508
0.168634
0.0857883
0.0465617
0.0484437
0.0214401
0.00302231
0.174753
0.00775187
0.00379734
0.168999
0.0818666
0.0370491
0.148934
0.0792878
0.0701273
0.0612949
0.144122
0.00814781
0.00694701
0.139613
0.00334375
0.0175666
0.0164885
0.00718006
0.0763867
0.00644399
0.0226039
0.134982
0.00981352
0.0121296
0.0112214
0.0966218
0.138384
0.0930779
0.00115684
0.0509195
0.143399
0.0114964
0.115238
0.1354
0.00603488
0.023331
0.0615287
0.0281232
0.0307698
0.00247699
0.0503181
0.0625671
0.00432097
0.130637
0.132658
0.152807
0.149901
0.0547862
0.0372812
0.0262943
0.0949149
0.159155
0.10652
0.0844287
0.0424732
0.0165953
0.147015
0.00688647
0.0602105
0.00447303
0.059286
0.142206
0.00215757
0.0329581
0.00147643
0.030202
0.063102
0.093575
0.13324
0.079392
0.00159089
0.0193623
0.0473978
0.0269046
0.0858855
0.0106218
0.179112
0.11557
0.115405
0.135187
0.00441423
0.0263371
0.0576804
0.00648835
0.0846259
0.152622
0.12825
0.0147091
0.137934
0.0763457
0.0446211
0.106046
0.00987264
0.12275
0.0316168
0.0642708
0.00124687
0.00142912
0.0709992
0.00240861
0.02177
0.00123381
0.0867025
0.147697
0.12969
0.0773989
0.0429336
0.114399
0.0177464
0.0953907
0.0341045
0.0739084
0.00313783
0.0473779
0.0147125
0.0152813
0.131535
0.0234035
0.0314163
0.135032
0.0207334
0.159787
0.00188491
0.00890714
0.149095
0.130122
0.0893071
0.102639
0.104805
0.005077
0.142786
0.0237005
0.114904
0.160224
0.070743
0.0989529
0.00527608
0.0926775
0.14771
0.140087
0.00538881
0.0561125
0.0068738
0.139687
0.0263539
0.161403
0.102882
0.00138464
0.133756
0.0343042
0.0069228
0.00145976
0.156988
0.0842795
0.00440691
0.147155
0.0874265
0.102944
0.00306396
0.104882
0.00523011
0.0501879
0.0017245
0.0602164
0.0117062
0.119531
0.163598
0.143604
0.166114
0.169035
0.00215907
0.0521048
0.130377
0.0794577
0.137937
0.131158
0.00902043
0.0441029
0.00248803
0.0218847
0.0070381
0.00813268
0.0251359
0.00130315
0.0620077
0.00956334
0.0923333
0.00123626
0.136987
0.0458927
0.163345
0.134748
0.0504318
0.153841
0.13971
0.137211
0.0841047
0.0181101
0.137821
0.052775
0.00738141
0.0044907
0.00396669
0.00705762
0.0900181
0.118282
0.110603
0.00429836
0.107855
0.00112541
0.121579
0.14629
0.160136
0.0791645
0.12717
0.149438
0.110453
0.0148346
0.131351
0.00140313
0.0832238
0.12408
0.00178573
0.0878391
0.104765
0.118503
0.00170997
0.0182438
0.156973
0.137254
0.149558
0.126379
0.00300603
0.133533
0.0274666
0.0374602
0.0617028
0.148212
0.140288
0.0249625
0.08668
0.0279198
0.00146589
0.0952203
0.1238
0.0806982
0.0924983
0.137565
0.00553792
0.0123439
0.0245002
0.00149208
0.00172935
0.0885655
0.00547363
0.140667
0.00146267
0.134163
0.00790459
0.0129361
0.018043
0.0367423
0.0107755
0.0164692
0.00274542
0.165509
0.102129
0.159525
0.0849815
0.0125346
0.0650232
0.0490829
0.0127686
0.000792144
0.141369
0.0186906
0.00137322
0.175404
0.123655
0.0774058
0.00265387
0.039997
0.165343
0.0164305
0.0701277
0.125895
0.0606796
0.0389216
0.0859911
0.111509
0.16463
0.143721
0.113324
0.0964765
0.00143115
0.0481509
0.0477654
0.128604
0.00141965
0.139213
0.155619
0.0379819
0.0455884
0.0275613
0.159943
0.00486639
0.119128
0.0967147
0.00874741
0.0977374
0.182884
0.00854389
0.00478292
0.00751133
0.00712568
0.139505
0.00750172
0.00189943
0.18268
0.0067168
0.106076
0.0137439
0.0104337
0.111912
0.0222409
0.130939
0.0242274
0.0426421
0.0542015
0.00560245
0.0155815
0.0117366
0.0058064
0.10695
0.00533569
0.0414335
0.0779139
0.0967429
0.135521
0.156104
0.137309
0.0280803
0.0027448
0.132642
0.0506558
0.0274488
0.0613648
0.0588732
0.0144163
0.00617814
0.0884338
0.134078
0.029112
0.113432
0.0483802
0.00136643
0.0503973
0.0968899
0.0234246
0.14328
0.0500371
0.00196331
0.00132316
0.0610627
0.0149502
0.040462
0.00106932
0.0255384
0.025416
0.00353171
0.128277
0.008036
0.00292133
0.00437403
0.108571
0.0520342
0.146139
0.103738
0.147715
0.0673526
0.0934427
0.00290257
0.136194
0.0127166
0.14314
0.00824675
0.00445766
0.0485138
0.00675134
0.0246735
0.0915972
0.00644808
0.0532629
0.0487536
0.0915828
0.00142831
0.00964607
0.00114483
0.0266512
0.00524226
0.0132416
0.153506
0.0718859
0.0157366
0.146823
0.0891055
0.0104821
0.0669007
0.0360466
0.0339905
0.0407126
0.0430458
0.00921798
0.0109374
0.107427
0.0111326
0.0516643
0.0760495
0.112455
0.133814
0.00277969
0.00526152
0.142884
0.0149753
0.154588
0.0854256
0.00121734
0.0584621
0.141132
0.135329
0.0799063
0.154892
0.0479695
0.00280353
0.103668
0.0198663
0.137978
0.157151
0.0070417
0.0028463
0.00550493
0.0516313
0.177117
0.141404
0.0528454
0.00723778
0.00186429
0.14835
0.0143208
0.036305
0.0102352
0.0277242
0.153796
0.0368984
0.00554783
0.094141
0.0253144
0.150351
0.131517
0.056934
0.00181251
0.0149901
0.143222
0.00457147
0.0108698
0.129608
0.00949887
0.129208
0.136664
0.00528607
0.104527
0.101374
0.0575405
0.00628923
0.0262067
0.0434331
0.143853
0.104236
0.141706
0.0914584
0.0184784
0.0186622
0.00113648
0.0251819
0.0223897
0.0140139
0.0137323
0.132704
0.0332077
0.00723446
0.00391296
0.00253372
0.0586885
0.123677
0.00133029
0.117072
0.119577
0.0319047
0.020071
0.0513805
0.145352
0.00330431
0.01961
0.0539763
0.0881842
0.0115923
0.00334918
0.00137701
0.107686
0.096834
0.0508198
0.149635
0.138659
0.0149504
0.108772
0.0264588
0.013705
0.0468384
0.0029145
0.118317
0.0645809
0.0446199
0.14927
0.00358622
0.114121
0.143705
0.0131556
0.0077143
0.0128973
0.00414654
0.106839
0.0145291
0.123747
0.128372
0.0838311
0.165826
0.0532613
0.00386846
0.0486474
0.0127178
0.0975014
0.135129
0.069491
0.150726
0.137066
0.00144065
0.157861
0.0467609
0.0071814
0.153625
0.00956471
0.0106812
0.0140585
0.0746391
0.115917
0.122613
0.136649
0.151084
0.0479719
0.109712
0.131172
0.140461
0.126563
0.0374313
0.0993156
0.00295727
0.0126122
0.141704
0.116765
0.12723
0.0131143
0.133597
0.0246086
0.104012
0.154499
0.131981
0.0115746
0.059023
0.00363655
0.129125
0.157189
0.0279484
0.159283
0.14882
0.00180055
0.0820374
0.134266
0.0141841
0.00994511
0.00102806
0.155127
0.0229406
0.0146468
0.132549
0.145204
0.00434785
0.0971573
0.181068
0.0117725
0.127563
0.001844
0.157928
0.116858
0.0818992
0.131566
0.00238902
0.134283
0.147277
0.0076104
0.0897577
0.131778
0.147996
0.125895
0.010053
0.060528
0.0944205
0.152674
0.0179933
0.0863714
0.149677
0.14778
0.0452305
0.131884
0.0237721
0.10366
0.136773
0.0585015
0.160738
0.052797
0.0763904
0.0359121
0.134396
0.00660293
0.0907029
0.0348408
0.142182
0.0438971
0.107785
0.157784
0.0248741
0.0656253
0.0214879
0.0105701
0.128504
0.00152298
0.00294616
0.00642388
0.00235335
0.0931168
0.0800717
0.0214201
0.00839279
0.119904
0.00135829
0.141238
0.00477506
0.0835445
0.0200317
0.00672826
0.031451
0.0144411
0.142248
0.00968115
0.121799
0.125028
0.0183257
0.00193238
0.0015987
0.0483892
0.0881374
0.017936
0.142434
0.00691176
0.15239
0.0414823
0.147848
0.121159
0.00143209
0.120038
0.0134264
0.074193
0.0208297
0.0115784
0.0759241
0.138757
0.0028332
0.129166
0.0925099
0.0468292
0.137992
0.00696138
0.0637818
0.0177958
0.00147877
0.0943014
0.0229695
0.0666633
0.117619
0.0137357
0.126557
0.141744
0.0135274
0.126097
0.135996
0.0278824
0.0756928
0.0056152
0.0485819
0.139054
0.116405
0.152969
0.130785
0.114343
0.00778218
0.080386
0.101919
0.129264
0.112718
0.0866127
0.070257
0.00272198
0.141106
0.0248897
0.0488983
0.128304
0.00347249
0.0793183
0.144887
0.00146686
0.00627318
0.00180648
0.123808
0.00222953
0.0267717
0.0840331
0.00142574
0.0811017
0.0649147
0.0051605
0.0563963
0.0366655
0.00147934
0.0408645
0.00856626
0.0745046
0.00282196
0.0928348
0.114043
0.110298
0.00143966
0.0886196
0.14933
0.0893228
0.0795335
0.131277
0.117794
0.0150488
0.029458
0.10482
0.0348981
0.00141159
0.0496123
0.0105897
0.0108425
0.138908
0.00725782
0.025494
0.0615718
0.0037459
0.158638
0.00766549
0.00120344
0.130775
0.00125513
0.121283
0.00240599
0.00713884
0.038558
0.0729988
0.113338
0.0823482
0.104795
0.0345464
0.141413
0.0772946
0.00155235
0.0143572
0.00306036
0.10675
0.0202998
0.00180274
0.108156
0.0849649
0.00272696
0.101942
0.105841
0.00410288
0.00857641
0.0113825
0.0839813
0.00369288
0.0268534
0.0624704
0.00182236
0.00452045
0.1081
0.149731
0.00607037
0.0132196
0.0136155
0.0761156
0.0190128
0.0145453
0.0247688
0.0797906
0.13299
0.0358648
0.00147359
0.0319786
0.102011
0.0971207
0.0482412
0.131893
0.00167824
0.0215132
0.119399
0.0104057
0.136425
0.147392
0.0155629
0.0114393
0.088686
0.00250729
0.106212
0.00178311
0.133966
0.00145126
0.00342426
0.00427982
0.154522
0.0292709
0.0373386
0.0294647
0.011749
0.00760281
0.00200099
0.0254053
0.14577
0.0274785
0.131032
0.00600583
0.00134427
0.16315
0.151319
0.0451204
0.010601
0.0286794
0.156728
0.0180484
0.0110937
0.140519
0.13412
0.0474857
0.00162906
0.0676026
0.132044
0.00259127
0.0180805
0.0418613
0.00450779
0.11172
0.0331408
0.0025716
0.155316
0.0236412
0.0147523
0.00816489
0.00812525
0.00246613
0.0717643
0.0537399
0.0261507
0.12192
0.00451625
0.0104802
0.0144191
0.00584451
0.0168719
0.0830939
0.00869285
0.00268014
0.0248756
0.00529183
0.132105
0.0548897
0.0733433
0.125903
0.00359978
0.0252139
0.153192
0.0392136
0.00395185
0.116064
0.10465
0.0019792
0.125438
0.0737685
0.15153
0.0587267
0.0100424
0.071549
0.00505259
0.0131679
0.0110712
0.0574087
0.0135405
0.0695511
0.0501698
0.0368962
0.0842284
0.0592665
0.153971
0.138433
0.00171149
0.00544785
0.0355755
0.00543657
0.104922
0.0698544
0.03923
0.136063
0.133981
0.0178671
0.0235934
0.00154179
0.0131379
0.00705673
0.0740773
0.00830031
0.100004
0.00292617
0.14832
0.00405188
0.00778877
0.141272
0.0111962
0.00130192
0.0432227
0.124188
0.13623
0.0272171
0.00670603
0.138889
0.0487772
0.130527
0.161858
0.0031974
0.128414
0.0241839
0.124347
0.18339
0.0043502
0.0156886
0.0615935
0.00479797
0.0493076
0.00199639
0.0555532
0.142695
0.0491928
0.00136778
0.0731358
0.00860569
0.0443823
0.00270832
0.112375
0.104307
0.0579882
0.00378976
0.104683
0.14055
0.146363
0.00432484
0.00150897
0.0106068
0.106794
0.0565291
0.120432
0.00138687
0.139473
0.00372714
0.0077247
0.1078
0.00919225
0.0481729
0.153245
0.0333609
0.114764
0.0230922
0.0262658
0.0153284
0.0578844
0.0675015
0.112521
0.00181181
0.144034
0.173931
0.00250229
0.049402
0.10786
0.0235193
0.129018
0.138978
0.10186
0.0282066
0.0300815
0.152518
0.154422
0.0277686
0.0511383
0.0101656
0.0160586
0.136331
0.157095
0.154607
0.075176
0.0541677
0.00903371
0.00142014
0.00273154
0.12145
0.136429
0.0280819
0.00322218
0.0862258
0.133665
0.00246807
0.00307773
0.125023
0.0338516
0.0481839
0.0874901
0.00170203
0.113889
0.12585
0.0161538
0.00506521
0.0605214
0.030229
0.0534117
0.00429868
0.00381187
0.13701
0.00398951
0.0613526
0.104964
0.0059847
0.00831293
0.0268644
0.0552237
0.0261137
0.0635384
0.138992
0.0386452
0.0663722
0.0421305
0.0272707
0.135442
0.0223031
0.00344886
0.0107983
0.141184
0.0117246
0.00844621
0.0143011
0.135013
0.0565188
0.149878
0.00306586
0.0472968
0.10967
0.00919471
0.00502391
0.157601
0.00130651
0.0257277
0.0823604
0.0104582
0.101326
0.101251
0.132432
0.152188
0.100981
0.121597
0.00218869
0.153286
0.133382
0.00730799
0.0223869
0.058454
0.00448793
0.0766376
0.104728
0.043605
0.0494956
0.146863
0.15646
0.00336428
0.0540569
0.054054
0.112873
0.0683403
0.00295099
0.00912428
0.00279571
0.150608
0.0424083
0.0813157
0.084057
0.135051
0.134211
0.00385737
0.00696266
0.0315223
0.112486
0.10437
0.00815725
0.0506218
0.0686658
0.0775367
0.00142831
0.0194848
0.00102881
0.0857296
0.15404
0.0658234
0.10528
0.0869063
0.0102845
0.116742
0.00724173
0.0017124
0.0259386
0.00126563
0.0992004
0.161585
0.0146813
0.13303
0.0111748
0.15475
0.134404
0.152971
0.00270624
0.152498
0.0469542
0.0871683
0.00751334
0.0359582
0.0380511
0.00769213
0.00228178
0.11785
0.15148
0.131703
0.00270285
0.078253
0.073828
0.055081
0.142346
0.0093866
0.127976
0.147544
0.0383215
0.0730483
0.012216
0.00169305
0.00178328
0.0224677
0.171797
0.0174699
0.0362062
0.0136247
0.128302
0.00448775
0.00575719
0.0687848
0.0822048
0.155785
0.0139073
0.070197
0.00314842
0.00643451
0.023404
0.00343056
0.00626265
0.0050239
0.00240153
0.0970104
0.00273662
0.0418851
0.00144609
0.00334689
0.00274437
0.00223468
0.146781
0.0139306
0.131477
0.102224
0.00118352
0.0775523
0.0751379
0.0165
0.044207
0.014634
0.00311415
0.0027787
0.00528734
0.0227505
0.0261486
0.0492397
0.102997
0.062368
0.0108095
0.00647337
0.00799557
0.0190246
0.156476
0.139183
0.0975337
0.00350609
0.0527523
0.0810134
0.0274405
0.0205313
0.014476
0.0286379
0.0599002
0.00292086
0.0230826
0.0137782
0.083998
0.0166803
0.0103911
0.126529
0.0296505
0.138437
0.00631845
0.0156527
0.111257
0.0141664
0.00173706
0.131883
0.0365871
0.143301
0.00506012
0.0674937
0.11684
0.154703
0.0117832
0.00399813
0.160937
0.00702851
0.00335992
0.142633
0.0525192
0.0133093
0.00135901
0.0217532
0.00134545
0.0681287
0.124679
0.0965751
0.00215698
0.0132664
0.135923
0.00173454
0.0805582
0.0506226
0.0269151
0.00302351
0.0497626
0.00959298
0.0229942
0.0358891
0.00344652
0.112483
0.109541
0.0723653
0.0131164
0.0877259
0.0500474
0.15671
0.131823
0.00264624
0.0446988
0.00141987
0.156889
0.00162412
0.0013574
0.0726444
0.0537827
0.0214762
0.0247486
0.00371688
0.0105614
0.00173964
0.00307466
0.0265774
0.111156
0.00275931
0.00138507
0.0689682
0.00346764
0.0754337
0.107233
0.074365
0.0581272
0.147989
0.0134572
0.001308
0.0451871
0.153708
0.00318803
0.00270686
0.00739295
0.0022766
0.0652778
0.00206541
0.00782672
0.00561255
0.148136
0.103919
0.00756032
0.00132406
0.0905892
0.00440592
0.00185521
0.0961174
0.0652014
0.125591
0.0175954
0.0681202
0.0105378
0.00263912
0.14229
0.0940357
0.139257
0.0434324
0.00498073
0.00201996
0.0342326
0.00261032
0.0116465
0.0942937
0.155223
0.0156405
0.152652
0.00328941
0.0030515
0.00811598
0.0107485
0.00156085
0.105864
0.00282309
0.00151364
0.00989505
0.00264017
0.156354
0.0507959
0.0378255
0.02691
0.00249246
0.0108706
0.051869
0.0229673
0.138101
0.00146812
0.108806
0.151571
0.0017979
0.00194306
0.0592444
0.0286159
0.0111719
0.111881
0.10645
0.010981
0.111851
0.00286714
0.158248
0.00238489
0.11659
0.0203146
0.00544193
0.112493
0.147626
0.0121413
0.0106241
0.101901
0.0500874
0.00858248
0.0036915
0.00216858
0.00720867
0.0292993
0.1545
0.139582
0.0172976
0.122824
0.0453047
0.137091
0.152407
0.00146568
0.0270347
0.00983615
0.023715
0.0868825
0.130423
0.118905
0.0434195
0.0364936
0.00641138
0.0242166
0.00724871
0.000881024
0.0216121
0.00810023
0.00589821
0.00222404
0.0066051
0.155108
0.020748
0.0171316
0.0279355
0.0072045
0.1393
0.0438644
0.00674324
0.00144821
0.0276539
0.0059509
0.00765843
0.00564306
0.00535178
0.0331558
0.00492046
0.00459958
0.00433774
0.00411885
0.00480824
0.00703875
0.0909334
0.130645
0.0148046
0.00590813
0.112811
0.00730285
0.00216289
0.0107045
0.00183036
0.154048
0.133374
0.122236
0.00299005
0.0378916
0.053088
0.0060128
0.00631609
0.0545933
0.0783115
0.0456891
0.0238011
0.00190148
0.155355
0.0235748
0.00462357
0.00150143
0.0061622
0.00200669
0.00876246
0.130981
0.00207384
0.125448
0.00210404
0.00147515
0.0514075
0.0152087
0.0121921
0.0627975
0.1314
0.0254461
0.0411449
0.140023
0.130787
0.00804679
0.0031209
0.0124353
0.0607983
0.00350277
0.00788688
0.00180881
0.0015761
0.0660725
0.105086
0.0416827
0.176364
0.00196977
0.0530341
0.003003
0.00636368
0.00338602
0.108097
0.14459
0.14353
0.00144998
0.137956
0.0022963
0.122857
0.00216407
0.038113
0.0605269
0.0837921
0.144948
0.00598277
0.113131
0.147289
0.0550775
0.0362217
0.0035879
0.00133117
0.010898
0.00167099
0.179753
0.148593
0.0222495
0.0128615
0.00198121
0.00585968
0.0131233
0.00353555
0.00536621
0.00326402
0.170923
0.133472
0.140326
0.145033
0.00442941
0.0425684
0.124789
0.0252421
0.00421797
0.114433
0.105041
0.0305891
0.00137933
0.10652
0.0355343
0.151588
0.00155807
0.120285
0.0721037
0.00466817
0.00584208
0.00354609
0.151488
0.0125738
0.0107619
0.00397902
0.00312773
0.114417
0.00453024
0.0724134
0.107678
0.0178645
0.0538714
0.0113915
0.0784508
0.0138146
0.0148644
0.00769446
0.00143135
0.00236467
0.00234639
0.129156
0.0113127
0.107705
0.00440644
0.111456
0.011879
0.0681829
0.0123695
0.153166
0.113221
0.159036
0.0242969
0.00149973
0.00429029
0.0644783
0.02717
0.00512458
0.154914
0.105912
0.00247222
0.0190945
0.0112907
0.00353839
0.129858
0.00130979
0.155322
0.00286343
0.00172395
0.0527416
0.0235735
0.0164838
0.00563091
0.00618564
0.00217273
0.0496019
0.0427036
0.00333748
0.0515068
0.00724828
0.0329105
0.00506164
0.0114053
0.0029404
0.0178965
0.0388078
0.0394497
0.00156714
0.0107816
0.00338544
0.00114021
0.107266
0.152113
0.0015071
0.00216512
0.0946559
0.0454009
0.0220069
0.0581781
0.00274626
0.041927
0.00145514
0.0295022
0.0014359
0.0111806
0.0612045
0.0443525
0.00731777
0.00546946
0.158937
0.00593016
0.15326
0.0234627
0.0641066
0.154785
0.100169
0.0777887
0.00205124
0.00274073
0.14916
0.00243188
0.0445772
0.0985844
0.092279
0.12626
0.052762
0.00316221
0.00181684
0.140257
0.0260987
0.00752109
0.00886166
0.00404124
0.00616957
0.0281059
0.0163115
0.121029
0.155644
0.0463671
0.00196343
0.144105
0.002561
0.00347804
0.0107644
0.00280882
0.00141179
0.133882
0.0014206
0.0119244
0.0085336
0.0713144
0.111635
0.0875833
0.00378069
0.067001
0.0703279
0.120927
0.00244688
0.00435214
0.00789344
0.00387729
0.00392683
0.00232812
0.076048
0.097588
0.00762272
0.0407359
0.055813
0.0533173
0.0289753
0.113003
0.109253
0.0432004
0.0272718
0.0382241
0.0345898
0.15034
0.0614406
0.00497029
0.037424
0.00227356
0.0391502
0.100364
0.00574304
0.00967499
0.127664
0.113515
0.0268273
0.0286365
0.00140059
0.027015
0.0101219
0.0971408
0.105917
0.0254698
0.00203463
0.00735603
0.0362841
0.149498
0.00175741
0.0624056
0.110792
0.00675591
0.0198153
0.00794444
0.00149077
0.00655322
0.0263256
0.0251984
0.00140904
0.0926739
0.0612983
0.0138416
0.153429
0.0078374
0.00956784
0.00528015
0.0322859
0.0640426
0.0190259
0.00362444
0.00726608
0.0652949
0.00554004
0.00542351
0.010443
0.0583551
0.0607262
0.00852604
0.0111297
0.0028214
0.112441
0.0632081
0.00942332
0.0559364
0.00919132
0.00736232
0.0676927
0.00895196
0.153572
0.0100399
0.0558696
0.0712432
0.0995339
0.117622
0.00206111
0.00359988
0.0471889
0.0249817
0.00509128
0.0592745
0.102317
0.0146465
0.00218819
0.00756663
0.00152801
0.0152687
0.0141803
0.00330992
0.00477832
0.0145073
0.097328
0.00575426
0.0953313
0.0680866
0.00529639
0.00446269
0.0469142
0.0272723
0.0204306
0.0293986
0.0280976
0.00422889
0.115466
0.00153135
0.0232015
0.13698
0.1352
0.136345
0.0465035
0.0451131
0.129085
0.0241829
0.0674594
0.0492291
0.152756
0.00653404
0.0435585
0.010786
0.0273692
0.155874
0.133661
0.00973369
0.0950604
0.00312467
0.0693523
0.0712325
0.0138268
0.011074
0.0623918
0.0644636
0.0115485
0.0267743
0.0127099
0.0109275
0.105567
0.00209299
0.0256868
0.0438536
0.0183395
0.00193093
0.134845
0.0116008
0.146402
0.0245501
0.108422
0.033632
0.0925167
0.0693743
0.090049
0.0109623
0.00125821
0.0126306
0.0719026
0.0283554
0.00142714
0.0329071
0.0038493
0.0058922
0.0765185
0.0139045
0.0733955
0.003747
0.0277444
0.0283909
0.00137088
0.136726
0.0434831
0.0586438
0.0137365
0.0429239
0.00710173
0.00182184
0.077047
0.0889024
0.0641268
0.00187623
0.0499108
0.0393461
0.0101213
0.00159095
0.116293
0.0228875
0.00841211
0.0144503
0.147657
0.0128935
0.141306
0.0356628
0.112807
0.0506265
0.00492288
0.00706902
0.113438
0.0455574
0.00485602
0.0720982
0.0563725
0.019794
0.0557519
0.078364
0.0250161
0.0528659
0.0536916
0.113505
0.00781737
0.00497353
0.00397974
0.116332
0.00803999
0.00140551
0.00102678
0.153657
0.074426
0.0200116
0.00640225
0.053489
0.114152
0.0916476
0.135588
0.0543732
0.0189845
0.146562
0.00764256
0.0376628
0.126518
0.0475017
0.0078652
0.0133495
0.00484918
0.0450908
0.0298282
0.00137837
0.0434144
0.0224802
0.00132702
0.00144079
0.00528119
0.0085377
0.0037619
0.105873
0.141659
0.0475331
0.00333302
0.10241
0.120573
0.0027693
0.137065
0.152655
0.00791134
0.0449827
0.00119521
0.0166405
0.0154393
0.0364992
0.0137507
0.0445059
0.026061
0.0373585
0.128966
0.0235979
0.0014354
0.0801648
0.0979357
0.0225609
0.00143043
0.0461559
0.046308
0.00190853
0.137894
0.0356331
0.00798162
0.134498
0.00188252
0.0239755
0.0520285
0.0151594
0.00697247
0.00333029
0.0268502
0.0115895
0.0140221
0.00965025
0.00826597
0.0749102
0.0144221
0.0061704
0.0428414
0.0100414
0.0515769
0.0286853
0.00169072
0.137622
0.0105474
0.00996878
0.0829181
0.0149527
0.0224905
0.0386604
0.0250308
0.0056756
0.0378752
0.0146728
0.0465427
0.00801087
0.106278
0.00142466
0.012403
0.122155
0.047373
0.118394
0.137274
0.134256
0.0790507
0.0737522
0.022989
0.0244739
0.0597198
0.148716
0.149984
0.147335
0.00783523
0.138685
0.0624855
0.040089
0.0402988
0.0187329
0.103031
0.0292017
0.0259167
0.0366042
0.0499062
0.0611388
0.0048612
0.0819723
0.0116471
0.022277
0.00563093
0.018346
0.082354
0.00813249
0.0138514
0.0014053
0.00175436
0.023647
0.0509555
0.0261959
0.0153902
0.00990766
0.15325
0.12198
0.0123196
0.153383
0.0406085
0.0550457
0.0407399
0.0478457
0.0109133
0.0388741
0.0512601
0.114902
0.159839
0.00464468
0.0363286
0.0895726
0.00601528
0.00780878
0.10638
0.0189226
0.103907
0.0614356
0.0776872
0.0451852
0.0755984
0.104466
0.0870108
0.0737244
0.00389184
0.129976
0.106352
0.082155
0.0440382
0.00381761
0.00180385
0.0423378
0.0380395
0.00138823
0.0784944
0.10161
0.0880055
0.0155195
0.140725
0.0638507
0.0674453
0.00959884
0.0816225
0.0212759
0.063732
0.0364628
0.00149126
0.101966
0.0416585
0.0101881
0.01992
0.0186048
0.1187
0.0556983
0.0223652
0.0284413
0.0276628
0.0378979
0.0124023
0.00791602
0.139567
0.00892941
0.0537641
0.131372
0.0460844
0.00219925
0.105176
0.136569
0.0287679
0.0676503
0.042267
0.102709
0.0486621
0.0273309
0.0563182
0.0393805
0.0178105
0.0370144
0.152834
0.00319621
0.00328757
0.0738658
0.100368
0.00630046
0.141282
0.0519301
0.0696749
0.00750443
0.168221
0.145965
0.0208649
0.0411893
0.00274368
0.0636102
0.149318
0.0270295
0.136631
0.00177949
0.0666394
0.0422146
0.0465739
0.0138171
0.00948573
0.0259854
0.0531421
0.0098087
0.0751785
0.13972
0.030381
0.0472415
0.0256887
0.0989712
0.0633229
0.0444057
0.0823649
0.0129826
0.00821485
0.0021451
0.0791883
0.0440422
0.127027
0.00300412
0.00199852
0.0680102
0.0784116
0.0264103
0.0233035
0.00678437
0.0674576
0.02362
0.0219876
0.0143227
0.146909
0.00832245
0.0113485
0.0484855
0.0484999
0.0595693
0.0134483
0.0520297
0.151695
0.0233929
0.0128659
0.153878
0.04708
0.0100079
0.152192
0.0739305
0.056631
0.0208296
0.00710652
0.0179595
0.0368502
0.123297