/*--------------------------------*- C++ -*----------------------------------*\
| =========                 |                                                 |
| \\      /  F ield         | OpenFOAM: The Open Source CFD Toolbox           |
|  \\    /   O peration     | Version:  v2012                                 |
|   \\  /    A nd           | Website:  www.openfoam.com                      |
|    \\/     M anipulation  |                                                 |
\*---------------------------------------------------------------------------*/
FoamFile
{
    version     2.0;
    format      ascii;
    class       surfaceScalarField;
    location    "900";
    object      meshPhiCN_0;
}
// * * * * * * * * * * * * * * * * * * * * * * * * * * * * * * * * * * * * * //

dimensions      [0 3 -1 0 0 0 0];
oriented        oriented;


internalField   nonuniform List<scalar> 
20537
(
4.12993e-05
-0.000136917
9.04391e-05
-3.60426e-05
9.15306e-05
-5.84242e-05
3.27164e-05
-1.02476e-05
-2.49426e-05
-8.55304e-05
0.000128206
-4.80479e-05
5.36369e-06
-2.68575e-05
1.93889e-05
-0.000131227
0.000113922
1.29625e-05
-0.000362473
0.000266042
9.4551e-05
-3.86029e-05
1.15352e-05
2.37809e-05
0.000163179
-0.000128106
-4.22046e-05
-2.17163e-05
-2.84693e-05
4.71504e-05
8.71823e-05
-0.000351894
0.00026492
9.35668e-06
4.16015e-05
-5.24309e-05
-2.99283e-05
2.56965e-05
3.44119e-06
-7.16162e-06
-2.84454e-05
3.4908e-05
-4.71982e-05
-9.23009e-05
0.000163998
-7.71893e-05
4.31466e-05
2.90231e-05
0.000138417
-8.57564e-05
-6.01492e-05
-0.000121399
1.77566e-05
9.87064e-05
-3.2256e-06
-2.86263e-05
3.07396e-05
0.00011417
4.14849e-05
-0.000132555
4.17976e-05
3.43725e-05
-4.4128e-06
2.15553e-05
-7.68615e-06
-2.04066e-05
1.27073e-05
-1.28448e-06
-1.18073e-05
5.38033e-06
9.86104e-06
-3.57503e-05
-6.49312e-06
0.000140286
-9.01502e-05
-5.48625e-05
1.37076e-05
8.9331e-06
-8.63579e-05
0.000122443
-0.000190019
0.000101485
8.20289e-05
-0.000111659
-2.36684e-05
2.82178e-05
0.00010308
2.53151e-05
-3.85126e-05
6.92945e-05
0.000217651
-0.000287205
1.1055e-05
1.11903e-06
2.2783e-06
9.21406e-06
-1.32801e-05
-2.10538e-05
7.34191e-06
1.71719e-05
-4.42536e-05
1.22081e-06
4.17273e-05
-4.78696e-05
2.37039e-05
0.000377976
-0.00030906
-0.000215451
4.18021e-05
0.000170863
-6.12898e-05
-5.40869e-06
6.44973e-05
-1.7464e-05
3.98708e-06
1.3382e-05
-0.000286333
-4.22849e-05
0.00032931
3.331e-05
-0.00031872
-2.88515e-05
1.95747e-05
9.25255e-06
-4.21699e-05
0.000318721
-0.000275242
0.000119121
0.000100869
-0.000222755
7.87239e-05
5.71293e-05
-0.000452763
0.00029275
0.000156854
-1.21948e-05
-4.287e-06
1.46507e-05
-2.38844e-05
2.70355e-05
-4.2599e-06
-1.28324e-05
1.63025e-05
-3.52853e-06
2.54721e-05
-7.89339e-05
7.84947e-05
-3.04795e-05
-2.71618e-05
7.50931e-05
4.39419e-06
-6.7592e-05
-4.48097e-06
-3.02763e-05
2.76694e-05
4.54883e-06
1.43166e-05
-2.19948e-05
-7.68142e-05
-0.000120431
0.000251703
-0.000348387
9.41828e-05
-4.01995e-05
-5.5487e-06
1.47798e-05
1.75615e-05
-3.31616e-05
0.000111922
-7.954e-05
-3.68943e-05
2.38536e-05
-3.71579e-06
-2.18176e-05
1.15913e-05
-7.51208e-05
5.96226e-05
0.000132627
-7.8704e-05
-5.80592e-05
-1.51078e-05
-5.64834e-06
-7.88285e-07
0.000317757
4.3751e-05
-3.50868e-06
-4.36762e-05
-0.00010675
-1.97937e-05
9.4644e-06
2.80718e-06
-1.23706e-05
-1.17382e-05
-4.30917e-06
1.59269e-05
-8.53518e-05
4.59286e-05
0.000122513
-6.75103e-05
-0.000102806
4.55861e-05
7.0032e-05
3.64485e-05
-0.000171973
0.000130921
2.58736e-05
6.54653e-06
-1.12344e-05
2.06083e-05
-9.43832e-06
-4.37358e-06
2.28507e-05
-2.14029e-05
-5.90041e-07
-1.16446e-05
0.000313566
-0.000135301
-0.000182804
-2.61198e-05
3.32705e-05
-5.6036e-06
-0.000220927
0.000368321
-0.000143974
-1.97547e-05
2.90242e-05
-9.32565e-06
8.28846e-05
2.46924e-05
-3.9437e-05
4.73392e-05
-0.000117014
-1.41604e-05
0.00012714
-5.02174e-05
-1.74824e-05
6.50504e-05
-5.89892e-05
-5.2419e-05
0.000104429
-0.000361624
0.000332627
2.29317e-05
1.03003e-05
-9.75894e-06
0.000169316
1.11715e-06
-0.00017395
0.000253358
-6.55551e-05
5.08113e-06
5.5771e-05
-0.000145389
7.91634e-05
7.75115e-06
9.17149e-06
-2.25498e-05
-2.19554e-05
2.53188e-05
2.82538e-05
-2.83354e-05
-2.07114e-07
-0.00027578
-0.000179545
1.21107e-05
-1.15827e-05
3.00952e-05
-2.91348e-05
-1.39502e-06
-1.71715e-05
2.03146e-05
-5.84587e-06
-0.000173858
0.000158083
1.07654e-05
-0.000121168
0.000141972
5.0289e-06
-6.80062e-06
1.74419e-07
0.000119726
-0.000157202
3.38276e-05
1.67271e-05
-1.90272e-05
9.37442e-10
-3.5641e-05
-9.60789e-07
3.5195e-05
4.58965e-06
-1.46246e-05
-1.72223e-05
0.000127016
2.00623e-06
4.98316e-06
-1.05329e-05
-0.000327636
-3.98187e-05
-2.4099e-06
0.000168061
4.12553e-06
-4.21045e-06
-1.09076e-05
9.72569e-06
-0.000168401
0.000124273
2.36136e-05
4.20937e-06
5.16583e-05
-3.11721e-05
-2.31932e-05
2.67359e-05
-4.20506e-06
-1.50641e-05
6.1123e-05
-2.40469e-05
-2.30254e-05
-1.89643e-05
1.35474e-06
6.02645e-05
-0.000185583
-8.28052e-07
-2.98719e-05
0.000164565
-8.81167e-05
0.000204386
1.89496e-06
0.000214069
-0.000218515
0.000123681
-0.000214781
-2.17126e-05
2.17262e-05
-2.45484e-06
-9.17853e-05
-4.52913e-05
-3.07591e-05
3.3496e-05
-3.93387e-06
-0.000169883
-4.76878e-05
-5.98865e-05
3.47252e-05
2.34759e-05
-3.21803e-06
1.25918e-05
0.000124964
-0.000341827
-3.98743e-05
4.06298e-05
-1.87543e-05
-1.98292e-05
1.59819e-05
3.20852e-05
-4.35318e-06
-1.3065e-05
1.74758e-05
4.56605e-05
-1.8144e-05
-2.82687e-05
4.1175e-05
-4.98052e-05
7.73351e-06
7.35974e-06
2.30365e-05
4.23952e-05
-5.40958e-05
0.000199822
2.17921e-05
-0.000224849
-1.40464e-05
0.000132192
-0.000120641
-0.00015266
0.000163745
-1.75063e-05
-0.000325626
0.000284079
-2.60701e-05
-8.98847e-07
2.73135e-05
-3.44379e-05
1.998e-06
-0.000261207
-0.000102394
0.00030771
-0.00027351
-8.4335e-07
-7.86621e-06
-2.92471e-05
-2.09669e-05
6.44576e-05
2.23377e-05
-3.00963e-05
2.02967e-05
-3.11195e-05
-4.41809e-05
0.000153131
-0.000113581
3.77119e-05
-0.000197491
9.96043e-05
-6.97577e-05
-3.36561e-05
6.94737e-05
-0.000182117
0.000106549
-1.93548e-05
-5.74714e-06
3.64313e-06
-1.77948e-05
-1.60127e-05
1.81689e-05
-1.73919e-06
-7.26881e-05
1.79266e-05
5.12135e-05
-1.19509e-05
2.0487e-05
-2.922e-05
-3.23594e-05
-2.87726e-06
0.000105889
-0.000109848
-3.94237e-06
-0.000117414
0.00011845
-5.45141e-07
-2.49097e-05
3.67057e-05
3.78035e-06
3.17582e-05
-0.000127926
1.11043e-05
-2.64627e-05
1.51026e-05
-1.61903e-05
4.92552e-06
7.28074e-05
1.71922e-05
-9.65798e-05
7.20909e-05
2.3801e-05
5.37679e-05
-1.33767e-05
-5.42314e-05
2.34721e-05
-0.000101064
0.000199295
-2.12632e-05
-3.54224e-06
-1.56615e-05
0.000164349
-0.000150869
-3.15526e-05
2.72977e-05
3.58652e-05
2.81861e-06
-3.95394e-05
7.88102e-05
-0.000109141
2.43017e-05
-1.60545e-05
0.000355138
-0.000211497
-0.000138908
-2.75664e-05
2.13271e-05
-5.37098e-06
5.45699e-06
-3.53932e-07
2.24684e-05
-4.6649e-06
-2.5269e-05
8.51561e-05
4.33286e-05
4.60505e-05
2.87874e-05
3.0127e-05
-8.74002e-06
-2.3338e-05
-3.95876e-05
-2.07397e-05
5.69234e-05
0.000276913
-2.00898e-05
6.31824e-06
0.000340116
-9.85921e-07
-0.000345073
-3.80083e-06
3.92085e-05
-3.8739e-05
-2.73806e-05
4.12003e-05
-4.99519e-05
0.000170248
-0.000125694
-3.9116e-05
0.000235023
-0.000347909
1.45076e-05
0.000333057
-0.000194591
0.00017639
0.000166848
-0.000134956
-0.000224743
0.000224122
-3.34126e-05
1.13808e-05
2.15121e-05
-1.70182e-06
2.10994e-05
-8.18623e-06
0.000190637
-0.000282909
9.62861e-05
-8.75767e-06
-4.08913e-05
4.66219e-05
0.000120441
0.000238733
5.41507e-05
-2.03917e-05
-3.46874e-05
9.38753e-05
-0.000135203
3.43268e-05
6.70923e-06
-1.78127e-05
1.10727e-05
2.65622e-05
-2.29304e-05
-3.94095e-06
2.0794e-05
-1.2065e-05
-9.09107e-06
-3.15132e-05
-0.000147803
-2.31679e-05
0.00036635
-0.000342653
-2.47547e-05
-2.28993e-06
2.62177e-05
-6.24277e-06
-0.000114447
0.000118097
5.20099e-05
-0.000298663
0.000246281
4.93058e-05
-0.000112253
5.78624e-05
-1.09919e-05
-1.79005e-05
0.000258063
-0.000137722
-0.000105159
-1.04297e-05
1.71036e-05
-9.99245e-06
9.81739e-05
0.000223892
8.55345e-05
2.37657e-05
-1.83546e-05
-5.81434e-06
3.02485e-05
-2.37458e-05
-7.8573e-06
1.84734e-05
-1.40072e-05
-4.61313e-06
-8.391e-06
-1.20127e-05
1.25466e-05
-5.42845e-05
6.3296e-05
-1.37396e-05
-5.38862e-07
3.52035e-06
-1.02417e-05
1.82429e-05
-7.94065e-06
-2.36088e-06
-2.25617e-05
-3.55584e-05
-3.95456e-06
-8.6169e-05
8.5634e-05
-2.91916e-06
8.44234e-05
-1.81649e-05
7.21963e-06
1.37151e-05
-1.27603e-05
-2.82305e-06
3.71101e-05
4.39666e-05
-8.5412e-05
2.55698e-05
2.77111e-05
-5.19124e-05
6.0392e-05
0.000121421
-0.000138194
-5.42117e-05
0.000248551
3.17468e-05
-0.000147537
-0.000477805
0.000117442
0.000358552
-1.82347e-05
2.32128e-05
-4.10793e-06
3.36065e-05
-4.49839e-05
-8.23898e-06
-4.46431e-07
7.90031e-06
-1.55935e-05
7.63707e-06
-2.21402e-05
2.55863e-06
-2.07522e-06
0.000327223
-0.000324724
0.000129401
4.45329e-05
-0.000180719
0.00013531
-6.169e-05
-8.05507e-05
-0.000197494
-3.37849e-06
0.00019785
-0.000153705
-0.00032574
-0.000170173
0.00023556
-6.89108e-05
0.000160737
-1.33772e-05
1.86373e-05
-7.83184e-06
-0.000110206
1.1671e-05
9.43603e-05
-6.2969e-05
1.96501e-05
-1.53148e-05
2.31751e-06
2.04366e-05
-5.71388e-06
-1.5567e-05
0.00034183
-0.000224033
-0.000107723
0.000112745
0.000124686
-3.74241e-05
-9.27097e-05
-0.000189472
0.00012392
6.24268e-05
-6.03335e-05
0.000253755
-0.000197357
2.53792e-05
6.29294e-06
-3.25656e-05
0.00010324
-0.000157744
5.34853e-05
-0.000227476
2.2659e-05
-9.27592e-05
5.29441e-06
1.80036e-05
-0.000369315
0.000351838
1.6004e-05
-0.000213613
1.31117e-05
0.000120774
-0.000188059
0.000114852
6.90365e-05
-2.56979e-05
1.82631e-05
-3.31625e-05
-4.93084e-05
6.56555e-05
-3.25133e-05
-4.79602e-07
-2.41756e-05
4.06451e-05
-0.000256028
0.000214483
1.65911e-05
-1.35855e-05
-3.23123e-06
0.000284575
-0.00019726
-1.69022e-05
-8.44199e-08
1.84683e-05
-6.38339e-06
-1.26451e-05
4.43873e-06
-3.13524e-07
-5.28132e-06
4.69217e-06
-2.09361e-05
-9.37637e-05
-9.92672e-05
-9.06967e-05
0.000198657
-0.000110446
0.000153071
-0.000163801
4.10165e-06
-0.000179461
-3.84141e-05
0.000233043
-0.000119769
-7.24718e-05
7.28611e-06
-1.12459e-05
5.98229e-06
-3.2728e-05
-2.96349e-06
-0.000165588
8.24134e-05
0.000272084
-2.25625e-05
7.30191e-06
-3.76986e-05
2.69794e-05
-1.21337e-05
2.08101e-05
3.50014e-05
-1.05658e-05
6.01769e-05
-0.000110682
4.59902e-05
-7.08611e-05
2.98853e-05
-4.27242e-05
7.44437e-05
-3.35066e-05
-8.58915e-06
1.64048e-05
-8.79527e-05
1.17771e-05
-0.000144159
5.16517e-05
1.77384e-05
-9.81716e-06
-8.09425e-06
-0.000222938
1.58505e-06
0.000216684
0.000143723
-2.77572e-05
-1.8896e-06
-2.06465e-05
2.22166e-05
-8.34597e-06
0.00015505
-2.51782e-05
2.8866e-05
-6.62052e-06
-6.73627e-05
6.68551e-05
-6.7456e-05
-0.000104193
1.62661e-05
2.84903e-05
-1.29885e-05
6.97603e-05
-0.000201974
-7.94367e-06
0.000206711
1.29209e-05
1.04952e-05
-2.38381e-05
1.21841e-05
-8.65884e-05
7.1944e-05
7.3981e-05
5.58173e-05
-2.64125e-05
-0.000237311
0.000261519
1.05427e-05
5.87247e-06
-4.1882e-06
-6.74812e-06
1.00677e-05
0.000121449
0.000150097
1.59619e-05
2.64057e-07
-1.87036e-05
-0.000283753
6.39502e-05
0.000234232
1.58242e-06
1.88256e-05
0.000174583
-0.000224668
4.6595e-05
2.03256e-05
-1.4069e-06
-2.62767e-05
-0.000132449
5.49782e-05
7.51771e-05
-1.18409e-05
6.6992e-06
-5.77171e-05
-1.48669e-06
-5.35074e-05
0.000155457
-0.00010635
-0.000204821
1.69301e-05
-0.000244498
5.37983e-05
-0.00025934
-0.000305961
-4.54938e-05
1.49764e-05
2.0449e-05
-1.0293e-05
3.03462e-05
-2.04139e-05
-6.75852e-05
0.000117986
-5.52822e-05
6.69804e-06
1.08371e-05
3.44735e-05
-2.53898e-06
-3.28303e-05
9.78447e-05
3.06339e-05
-3.77213e-05
-3.20982e-06
-3.07983e-05
-0.000159505
2.00557e-05
0.000136633
-2.92291e-06
-6.16026e-05
6.0737e-05
-1.55163e-05
-4.59961e-06
1.88883e-05
5.37539e-06
-4.49267e-05
-0.000114542
0.000155301
-0.000177778
0.000100158
7.66743e-05
1.96194e-05
-8.66393e-06
-1.11881e-05
-0.000118464
5.10491e-05
-0.000230158
0.000306937
-7.81877e-05
-0.000341269
0.000109759
-4.7001e-05
3.95967e-05
6.09997e-06
-0.000167135
0.000109207
5.65885e-05
-6.25781e-05
-1.84116e-05
8.72815e-06
0.000103307
-3.45861e-05
-9.33084e-05
-8.68822e-05
-7.31474e-05
-6.16956e-05
-4.17892e-05
-0.000225576
-1.0341e-05
5.83722e-07
-4.07592e-05
3.89752e-06
8.044e-05
-0.000108632
2.44871e-05
8.63352e-06
1.06908e-05
-5.39399e-05
-0.00037105
0.000425176
0.000165863
0.00011389
-0.000280427
-3.09876e-05
2.47791e-06
6.46833e-06
-9.21023e-05
8.33014e-05
-3.87271e-05
-3.352e-05
6.71731e-05
-3.47845e-05
-3.68699e-05
0.000107032
9.61469e-05
-1.93284e-05
3.01595e-05
0.00027492
-0.000109976
6.86938e-05
-2.2133e-05
7.53382e-05
-2.13698e-05
-5.91131e-05
0.000198786
-9.39559e-05
-0.000218336
0.000169022
4.73493e-05
-4.29928e-05
9.04305e-06
-0.000204955
5.96285e-05
0.000142328
8.27495e-06
-2.27407e-05
1.40903e-05
-4.21048e-05
4.93152e-05
-3.39224e-05
-0.000161615
3.20175e-06
-2.00122e-05
-5.63661e-06
-2.11162e-05
0.000220041
-0.00033227
0.000111479
0.000341662
-0.000122491
0.000207945
-3.79659e-05
-0.000171982
-8.34322e-05
6.0639e-05
2.2601e-05
4.75094e-05
3.75814e-05
-5.87775e-05
-0.000119415
4.6809e-05
9.583e-08
1.39473e-05
8.95833e-06
-3.80539e-05
1.33498e-05
-4.75024e-05
3.14324e-05
1.23845e-05
5.87403e-06
-1.63229e-05
2.21448e-05
-6.17411e-06
-6.7881e-05
7.26032e-05
0.000272683
7.74508e-05
-2.98789e-05
1.14287e-05
1.49166e-06
-1.31897e-05
-1.25029e-05
-7.69541e-05
-6.68732e-06
2.98586e-05
-0.000155707
-5.21599e-05
6.01711e-05
1.02142e-05
-2.39173e-05
1.2793e-06
1.50822e-05
3.25509e-05
8.76583e-07
0.000119904
-2.01976e-05
-0.000105473
-1.23745e-05
5.16803e-05
-1.20769e-05
0.000217095
0.000126594
0.000202054
-0.000329107
2.97798e-06
0.000135638
-0.00015015
7.83382e-05
-8.44634e-05
4.28085e-06
1.8045e-05
-5.09171e-05
-3.19149e-05
7.86028e-05
-1.8097e-05
2.19653e-05
-4.01123e-06
-5.24749e-05
-6.74675e-05
0.000114495
1.48395e-05
0.000136956
-2.74267e-05
-0.00011358
-0.000443308
0.000288109
9.05648e-05
-0.000105764
8.5552e-06
-1.25721e-05
-3.58678e-05
-8.99306e-05
-6.08321e-05
0.000277319
-0.000225715
4.51717e-05
-3.27272e-05
-1.56146e-05
0.000145061
1.42795e-05
1.0557e-06
-2.78619e-06
3.78965e-05
-3.63907e-05
0.000374658
-3.10495e-05
-0.000343481
-2.80607e-05
-2.15414e-06
2.85661e-05
2.53177e-05
0.000107606
-1.65498e-05
-0.000159949
0.000377331
2.27119e-05
-3.74167e-05
5.47825e-06
6.7409e-06
-0.000161559
-5.81879e-05
-8.40319e-05
-0.000360566
2.61916e-07
8.2181e-06
-1.16078e-05
1.51089e-05
3.48645e-05
-5.15569e-05
-0.00039673
-2.55713e-05
0.000421944
-2.0966e-05
-1.97305e-05
3.78234e-05
-7.79338e-06
1.74984e-05
-9.73353e-06
-3.11783e-05
-0.000165523
-3.13801e-05
0.000226859
-0.000196054
2.16633e-05
-0.000418911
2.37568e-05
8.37026e-06
-6.4963e-06
4.92633e-07
5.17304e-06
-5.44919e-05
4.49006e-05
-9.85116e-07
-4.42407e-05
-0.00032614
0.000105542
-2.66617e-05
-8.51084e-05
0.000148904
-0.000248265
9.58257e-05
-9.12678e-06
1.88109e-05
6.90179e-06
-6.66409e-05
0.000113024
-5.1507e-05
-1.92488e-05
5.83505e-05
-4.02017e-05
1.32281e-05
-2.95703e-05
0.000125395
-7.35271e-05
1.16736e-05
9.75204e-06
-2.14445e-05
8.51469e-05
-9.37268e-05
1.34926e-05
5.1217e-06
-6.98307e-05
1.7397e-05
-2.83287e-05
-5.53021e-05
-1.31182e-05
-7.93846e-05
9.92044e-05
-2.58262e-05
-5.68885e-05
-2.42817e-05
7.62474e-05
0.000183356
-7.30062e-05
-0.000116074
1.96561e-05
-0.000198557
0.000165252
3.01921e-05
-1.77805e-05
0.000157614
0.000213436
-3.9074e-05
3.31074e-06
3.31095e-05
3.35905e-05
9.60914e-06
-0.000125967
0.000107946
1.42829e-05
-3.21673e-05
0.000255495
-0.000223669
-3.37093e-06
3.57726e-06
-0.000138245
0.000152521
-1.67432e-05
3.37854e-06
-2.23326e-06
-2.60775e-06
-0.00011218
-8.64496e-05
0.000195854
0.000180485
-0.000272121
8.74207e-05
-0.00014088
0.000122537
-0.000346824
0.000140785
-2.47048e-05
-6.70351e-06
3.48761e-05
-1.61707e-05
-1.91899e-05
-1.57024e-05
7.89574e-06
-0.000350211
0.000221766
0.000131328
-0.000107134
-2.25536e-05
4.67877e-06
7.95502e-05
0.000430512
-0.000314676
7.92914e-06
-2.71862e-05
8.53226e-05
3.73505e-05
0.00033143
-0.00038515
0.000213283
-4.59043e-05
9.89282e-06
1.70365e-05
-2.88572e-05
-0.000196264
0.000323403
-0.000128262
-7.66158e-06
1.86995e-05
-1.12063e-05
-3.62643e-05
9.31596e-06
2.37023e-05
1.8397e-05
1.64668e-07
4.54351e-05
-6.16402e-05
1.29815e-05
-7.15513e-05
6.40062e-05
-0.000126119
1.52721e-05
-1.45287e-05
2.92241e-05
-1.49528e-05
-3.62055e-05
-2.46522e-06
0.000334482
4.17724e-05
-0.000375256
1.65582e-06
3.25655e-05
-0.00023933
6.69204e-05
0.000170326
3.50323e-05
-4.26106e-05
1.36861e-05
-4.801e-05
3.15749e-05
7.20308e-05
-2.93476e-05
-4.51248e-05
0.000108273
0.000220775
-0.000329182
2.40054e-06
8.83495e-06
1.34996e-05
-1.71482e-05
1.7566e-06
-3.27446e-06
-1.2906e-05
1.48219e-05
2.17105e-06
1.95973e-05
-2.23811e-05
-3.38609e-05
-1.69619e-05
1.21089e-06
-1.40516e-05
3.27734e-05
-1.94998e-05
3.01964e-05
0.000344272
9.40751e-05
-2.07616e-05
7.08115e-05
-5.71122e-05
0.000209214
0.000219905
0.000234445
-7.17512e-05
1.23235e-05
8.00072e-06
7.01842e-05
-5.96649e-05
1.81293e-05
1.2634e-05
-2.04512e-05
2.75104e-05
-2.35428e-05
-1.03066e-05
8.85041e-05
-1.54698e-05
-0.000113237
-0.000107629
0.000223236
0.000207837
-0.000239777
-0.00012257
7.59316e-06
-0.00035191
3.82526e-06
1.51814e-05
3.1614e-05
-4.83533e-05
-0.000105082
0.000168621
4.61058e-05
-3.24018e-05
-1.80235e-05
1.97944e-05
-2.54301e-06
-1.17058e-05
-2.80038e-05
0.000247576
1.52336e-05
-1.66906e-05
9.31318e-06
7.35455e-06
-0.000118435
0.00015654
0.000201938
-0.000285483
8.96371e-05
3.42159e-05
-0.000107507
0.000104992
-0.000222035
0.000116991
2.03808e-05
7.82443e-06
-4.04018e-05
-4.67621e-05
8.26204e-05
5.03086e-05
-7.06209e-05
-5.74113e-05
3.69584e-05
1.1159e-05
-2.63663e-05
1.48724e-05
2.24269e-05
-1.08482e-05
-2.06196e-05
1.29459e-05
7.48976e-06
-0.000114391
0.000169406
-5.83791e-05
0.000403677
-0.000373717
-5.414e-06
-7.66639e-06
-2.65529e-06
1.0487e-05
-0.000150008
-2.54806e-05
3.18504e-05
-5.0827e-06
1.69366e-05
-3.17123e-05
-4.25055e-06
0.000153898
-5.50767e-06
8.47504e-06
-3.97543e-06
1.44683e-05
-6.35031e-06
-8.55414e-06
5.6917e-05
-5.43733e-05
0.000127534
-0.00011832
-1.32733e-05
-0.000157109
-7.25492e-05
0.000227306
4.31609e-05
-5.17052e-06
4.96059e-06
-2.47755e-05
1.81556e-05
1.05422e-05
-8.35378e-06
1.70246e-05
-1.36513e-05
-4.09022e-06
4.11181e-05
0.0003294
-0.000203349
7.34962e-05
-2.04442e-05
-5.66879e-05
-1.84868e-05
1.24052e-06
9.3461e-06
-1.13951e-05
-2.26852e-05
3.47076e-05
-0.000107397
2.34596e-05
-6.29178e-06
0.000134495
-0.000224188
9.2801e-05
4.52899e-05
1.88713e-06
5.34165e-05
4.37546e-05
-0.000168713
3.10928e-05
-2.91241e-05
8.36081e-05
-2.25971e-05
-5.79272e-05
-3.74407e-06
-1.48925e-05
-2.752e-05
0.000134204
-0.00011339
4.40699e-05
-4.36273e-05
1.3867e-05
3.46181e-05
-0.000324749
0.000338876
-8.48839e-05
5.12674e-05
3.27406e-05
3.56225e-05
-4.06859e-06
-3.80419e-05
-0.00024387
0.000179891
-4.26688e-05
-1.62574e-05
2.39904e-05
-0.000317835
0.000316207
-0.000340365
-2.99974e-05
5.93292e-06
-6.24723e-05
-0.000178951
5.6344e-05
-1.30657e-05
-4.85949e-05
-7.886e-06
-8.84995e-06
-4.42064e-06
-1.34105e-05
-0.000126062
7.87949e-05
3.32913e-05
-4.01291e-05
-8.22674e-06
8.93517e-07
-0.000253315
5.97331e-05
-3.41183e-05
-2.98948e-05
-2.95893e-05
2.11462e-05
7.85783e-06
0.000178649
-8.09193e-05
2.47474e-06
-9.09724e-06
2.17272e-05
4.03839e-05
-6.69069e-05
0.000109983
1.2046e-05
-0.000128785
8.07111e-05
-2.90308e-05
-5.6624e-05
0.000221946
2.50385e-05
-0.00025088
0.000365411
-3.00608e-05
-9.25999e-06
1.75641e-05
-9.87605e-06
-0.000219303
-0.000121281
5.21249e-05
6.08164e-05
7.63475e-05
2.29683e-05
6.16309e-05
1.19409e-05
-7.78097e-05
-3.10837e-06
-2.62354e-05
-0.000135884
-0.000214521
-0.000202253
3.92976e-05
3.98523e-05
2.32752e-05
-0.000329294
0.000133627
0.000193789
-8.30026e-06
-3.95214e-05
3.54729e-05
1.52684e-05
1.38519e-05
7.75237e-05
-5.59741e-05
-2.63581e-05
-9.86244e-06
1.03005e-05
-9.63047e-06
0.000113208
-1.6804e-05
8.89151e-05
-7.5872e-05
0.000168366
-2.83919e-05
-2.00844e-06
-0.000195706
0.000158427
5.64181e-06
1.02304e-05
-2.17665e-05
1.4463e-05
-1.0165e-05
-4.93938e-05
-0.000107481
0.000151704
-1.81853e-05
1.24071e-05
1.01809e-05
8.24925e-06
-1.85721e-05
2.83486e-05
-1.65349e-05
-1.21664e-05
-5.11102e-05
-2.14328e-05
8.72562e-05
2.72265e-05
1.00053e-05
-1.30414e-05
-3.36312e-06
3.15777e-05
4.4634e-05
-7.5359e-05
2.62353e-05
-1.99316e-05
2.68099e-05
5.92617e-05
9.41456e-07
6.43072e-06
-6.50792e-06
5.89991e-05
-0.00011673
2.91422e-05
-9.13524e-05
8.06335e-07
4.19847e-05
-7.44644e-06
4.08647e-05
-3.45762e-05
-2.06862e-05
-3.55656e-05
2.71153e-05
-4.34084e-05
9.89382e-05
-5.93516e-05
1.55291e-05
-4.39072e-06
-1.31477e-05
-1.87564e-05
2.29548e-05
-9.7991e-06
3.42457e-05
-3.89509e-05
3.72928e-05
-8.58761e-06
-2.95815e-05
-2.15186e-05
1.21544e-05
7.37848e-06
8.00196e-05
-1.6448e-05
3.73645e-06
1.79361e-05
-2.29624e-05
1.3582e-05
5.88667e-06
-1.86783e-05
3.25852e-05
-8.1279e-05
4.63322e-05
1.13883e-05
9.95512e-06
-2.20952e-05
-5.32079e-05
7.88479e-06
4.44278e-05
-0.00018785
-0.000143075
3.92877e-05
-3.98245e-05
0.00032561
-0.000217569
9.58138e-05
-6.68637e-05
-5.1071e-05
1.37313e-05
3.5663e-05
1.95857e-05
-1.76735e-05
-1.31984e-06
4.29205e-05
1.4252e-05
1.61685e-05
-3.07847e-05
0.000233658
-0.000168919
-0.000145748
-5.78622e-05
-1.84691e-05
1.3606e-05
6.25515e-07
3.72478e-05
-2.37925e-05
6.41314e-05
-0.000296902
0.000157152
1.31263e-05
-1.14557e-05
-1.23086e-05
-0.000110344
1.44643e-05
-0.000226008
0.000155527
-9.24366e-06
6.30809e-06
-7.52322e-05
5.30072e-05
7.52296e-06
9.91519e-06
0.000165789
3.66753e-05
-0.000207229
-0.000114828
0.000134634
-2.39802e-05
-8.2892e-05
-2.88607e-05
5.1873e-05
-4.14549e-05
-8.71331e-05
-5.96108e-06
-0.000117528
-1.18272e-05
4.29696e-05
-3.18496e-05
8.06126e-06
-1.89728e-05
-2.79043e-05
3.32239e-05
-0.000279357
-5.34575e-05
2.80721e-05
-9.70485e-05
4.99878e-05
2.27844e-05
1.15287e-05
6.19914e-06
7.41475e-06
8.11398e-05
-4.82862e-05
1.8037e-05
-8.03657e-06
0.000160425
1.04821e-05
-0.00017728
5.17088e-05
-1.12513e-05
-1.48184e-05
2.99868e-05
-0.000252967
0.000188443
4.55496e-06
-1.66397e-05
1.06076e-05
-9.51336e-05
0.000112764
-2.34955e-05
0.00013713
-0.000136661
-4.72764e-06
-0.000251862
0.000219337
-0.000156864
7.90972e-05
7.15128e-05
7.9489e-06
-3.13113e-05
-1.31419e-05
2.48129e-05
-1.184e-05
-7.1454e-05
7.99368e-05
-1.42759e-05
-4.64471e-06
1.86947e-05
-6.16881e-05
-0.000340959
0.00015174
1.67326e-05
-1.14836e-05
-5.34368e-06
2.20217e-05
-4.57368e-06
-1.56333e-05
1.41059e-05
-4.88672e-06
0.000231439
-1.35216e-05
4.74629e-06
1.19619e-05
-1.71524e-05
0.000367555
3.45733e-05
0.000242547
-3.14692e-05
-1.00633e-05
3.97028e-05
-4.03023e-05
1.65681e-05
0.000136885
-9.713e-05
-4.62033e-05
1.69255e-05
-0.000174813
0.000177047
-4.2003e-06
4.86106e-05
-0.000266255
0.000214788
2.064e-05
-1.33045e-05
-1.71673e-05
1.70944e-05
1.04623e-05
0.000108367
6.9144e-05
9.39496e-05
-0.00010969
-2.25287e-05
9.27412e-06
5.44413e-05
-4.7682e-05
-1.06967e-05
2.21172e-05
9.79124e-05
3.27627e-05
-0.000217038
-3.97625e-05
0.000119933
0.000114138
-1.79327e-05
1.68588e-05
4.43591e-06
-0.000215236
1.72247e-05
6.24456e-06
0.000184547
-5.05473e-05
-0.000135196
3.68013e-05
-6.29108e-05
3.73071e-05
-1.63384e-05
-4.61877e-06
0.000111127
-4.18606e-05
6.17962e-05
-2.27863e-05
-0.000117924
-8.30371e-05
0.000198058
0.00012471
0.00020352
5.8826e-06
1.0746e-05
-5.64858e-06
7.39536e-06
-5.79389e-06
-3.01661e-05
0.000231597
-0.000205366
-7.13434e-06
-3.33269e-06
9.55188e-06
-3.77312e-05
-1.50119e-05
-0.000374947
-2.21113e-05
0.000396849
-6.87584e-06
-1.32285e-05
1.94793e-05
9.50117e-06
0.0001015
3.5453e-05
-2.1648e-05
0.000230073
1.4912e-05
-2.30303e-05
7.65775e-06
-1.45585e-05
-6.29902e-05
2.06583e-05
-0.000105898
-0.000210623
-7.58252e-05
0.000283879
1.43043e-05
-1.04427e-05
0.000124417
-0.000119482
-0.000110152
8.71161e-05
1.6919e-05
2.47278e-05
3.70477e-05
0.000424863
1.65319e-05
2.33602e-05
-4.22008e-05
3.19018e-05
-6.26917e-05
2.73918e-05
-2.67156e-05
-8.98242e-05
7.38873e-05
-0.000287089
-1.41042e-05
0.000108687
-0.000238015
0.000203951
-8.0919e-06
6.60538e-07
-2.53662e-05
-0.00032691
0.000351935
1.88515e-05
-2.95456e-05
8.21839e-05
-0.000200893
-0.000141578
2.68842e-05
-1.47077e-05
1.16262e-05
1.96702e-06
1.54218e-05
-0.000127869
2.63743e-05
3.23022e-05
-4.48064e-05
1.15247e-05
2.33105e-05
-2.18001e-05
-0.000241434
0.000364678
-1.511e-05
2.84556e-05
-1.35245e-05
-8.84262e-05
6.7877e-05
-6.47542e-06
-2.73069e-05
3.3061e-05
-4.503e-05
3.24883e-05
2.74604e-05
-1.27818e-05
-1.49576e-05
-3.75183e-06
-0.000335219
0.000338451
5.01283e-05
-1.44214e-05
-3.95632e-05
0.000108278
-5.06031e-05
-7.36074e-05
2.46489e-05
-9.79373e-06
1.3831e-05
0.000103224
-3.21601e-07
-0.000105874
-1.55063e-05
-5.73758e-06
1.3366e-05
-1.66481e-06
-1.31918e-05
-2.37118e-05
-2.24956e-06
2.69347e-05
6.94405e-05
5.00906e-06
-7.69256e-05
-3.69083e-07
1.61009e-05
-1.84223e-05
0.000167885
-1.39364e-05
0.000198477
0.000113062
-0.000311967
-1.28114e-05
-1.5305e-05
1.94135e-05
-4.22964e-06
-0.000315339
3.52596e-05
-3.21891e-05
6.44588e-05
0.000201985
-0.000227966
1.87099e-05
7.4483e-06
-6.26393e-06
1.71042e-05
-2.71766e-06
1.11165e-05
-3.53418e-05
0.000135968
-0.000104972
2.05669e-05
9.3846e-06
4.32645e-05
-1.45367e-06
2.9945e-05
6.42291e-06
-4.11062e-06
-1.7306e-05
-4.8759e-06
-2.91921e-05
0.000199712
-0.000328146
0.000130866
-2.13386e-05
-6.88628e-05
1.43334e-05
-1.66211e-05
7.42393e-07
7.6769e-06
-6.35843e-06
-3.86049e-05
-0.00011977
-4.72285e-05
-1.41036e-05
2.32211e-05
-3.18991e-05
2.47522e-05
-1.31658e-05
-7.57733e-06
0.000226301
-0.000333292
0.000108035
-4.92506e-05
6.62961e-05
-1.96456e-05
-4.24284e-05
-4.35931e-05
4.39484e-05
1.42276e-05
-0.000133089
-3.22748e-05
4.57144e-05
-1.43347e-05
1.49116e-05
2.33851e-05
-8.32878e-06
1.53463e-05
-7.058e-06
4.1631e-07
6.64519e-05
-1.00397e-05
1.7537e-06
-6.58486e-05
-0.000107281
0.000174361
4.23434e-05
-2.71966e-05
-1.69245e-05
2.7159e-05
1.36462e-05
-6.64457e-05
-1.24414e-05
-3.5251e-05
2.45037e-05
7.1875e-06
5.09319e-05
-7.96e-05
7.73115e-06
-1.10772e-05
-5.8448e-06
-0.000194155
-0.000103166
1.42155e-05
8.49163e-05
0.00011736
-0.000176188
5.21829e-05
-1.49206e-05
-4.40163e-07
0.000227576
2.20512e-05
-3.74576e-05
0.000368936
0.000179339
-0.000299805
0.000117159
2.25588e-06
-1.45478e-05
-1.53803e-05
1.81941e-05
-1.24406e-05
-0.000357151
0.000352766
0.000142253
-0.000184075
-1.0056e-05
-7.84847e-05
8.55146e-05
-1.88306e-05
4.40103e-06
6.82584e-05
-1.87878e-05
1.41872e-05
0.00010735
-1.62307e-05
1.0593e-05
5.61283e-06
-5.01276e-05
0.000105967
-5.95515e-05
-0.000222404
0.000120578
9.84093e-05
-3.49848e-06
3.22596e-05
-0.000357238
4.26867e-05
-4.62164e-05
1.95086e-06
-0.000175922
-0.000144954
0.000318547
-3.88732e-05
2.51898e-06
5.51715e-05
-8.12913e-05
2.4538e-05
-1.80283e-05
7.56603e-06
-2.08363e-06
-2.42898e-05
-8.90227e-05
-2.70999e-05
-0.000104476
-2.96316e-05
0.000130344
0.000336622
-0.000374109
-9.92371e-06
-1.39387e-05
2.39019e-05
-7.04326e-06
-9.01322e-06
2.00651e-05
-6.49378e-05
9.99953e-07
4.55663e-05
5.28706e-05
-3.51976e-05
-2.02793e-05
1.43373e-06
2.69029e-05
-0.000314044
-2.87073e-05
1.24849e-05
-6.108e-07
-1.0122e-05
4.53082e-05
-3.65874e-05
-0.000440343
0.000355046
-9.42933e-05
0.000291931
-0.000179324
-8.54713e-05
-7.9649e-05
-1.62306e-06
-1.33945e-05
1.4946e-05
1.16651e-05
-2.64441e-05
-5.93536e-05
5.95395e-05
4.19942e-05
-1.04334e-05
-0.000168102
0.000103869
-1.99411e-06
-5.70207e-05
2.19394e-05
-0.000103088
3.02766e-05
2.02588e-05
0.000289163
-0.000154608
-0.00013899
0.000203184
-0.000298281
-8.71778e-06
1.53558e-05
-6.6099e-06
0.000306272
-8.22904e-05
4.05949e-06
-1.77815e-05
-0.000103574
0.000330779
-2.51494e-05
2.60385e-05
-1.84443e-05
6.35919e-06
1.21247e-05
1.74263e-05
-1.62777e-05
5.1927e-05
1.57374e-05
-3.01743e-05
5.91301e-05
-2.17711e-05
9.43945e-06
1.1613e-05
3.3837e-05
1.70494e-05
-4.64895e-05
2.824e-05
1.43389e-05
-1.04866e-05
9.0118e-05
-8.28532e-05
8.49794e-05
-4.54266e-05
-5.72002e-05
-3.83676e-05
-0.000105058
0.000139843
9.40862e-06
9.76531e-06
-1.89155e-05
2.72758e-05
-2.56895e-05
-4.52275e-06
2.42827e-06
-0.000136179
-6.47227e-05
-3.23802e-05
-5.95055e-06
1.36968e-05
-2.9833e-06
7.50352e-06
-1.45983e-05
-5.4505e-05
4.3289e-05
1.05195e-05
-6.07188e-05
-4.01401e-05
4.52168e-05
3.70313e-05
-2.86719e-05
-0.000292661
5.49906e-05
0.000234497
2.94532e-06
-3.54501e-05
6.91494e-05
2.72583e-05
9.62051e-05
3.0507e-05
-2.51717e-05
0.000241449
-2.8389e-05
1.10575e-05
1.76044e-05
-0.000121746
-0.00017884
6.75977e-06
1.60643e-05
4.52375e-05
5.72641e-05
-2.31216e-05
1.62529e-05
1.30819e-05
-2.29052e-05
-4.84274e-05
-3.93124e-06
4.88065e-05
1.11487e-05
3.11122e-05
-0.000126617
-7.49264e-06
-7.28304e-06
-0.00030538
6.60907e-05
-0.000116389
0.000220954
3.1279e-05
-1.34588e-05
7.50182e-06
4.58335e-06
0.000249045
-0.000152575
-0.000100618
-0.000149637
6.54526e-05
7.95213e-05
0.000130914
2.17222e-06
1.51505e-05
-2.45222e-06
7.29336e-06
-4.14641e-06
-4.98989e-05
-8.25563e-05
1.99991e-05
-2.71121e-05
1.86709e-05
-2.30876e-06
-1.70708e-05
-3.40912e-05
0.00017089
0.000210392
-0.000263133
5.10429e-05
-3.56406e-05
5.34531e-05
-6.69344e-05
-0.000397951
3.93235e-05
0.000359327
-0.000166066
0.000110934
5.17959e-05
0.000233688
6.87474e-05
-0.000303237
-4.92145e-05
0.000106045
0.000275864
4.40205e-05
-0.000317621
0.000349595
8.94405e-06
-2.33411e-05
1.30567e-05
-7.59308e-05
4.86124e-05
2.08179e-05
2.64052e-05
-2.79482e-05
8.3179e-06
-6.11969e-05
-9.03423e-05
-7.19173e-05
-6.45378e-06
-2.1645e-05
-0.000158844
1.38227e-05
0.000139147
3.82303e-05
-4.43194e-05
4.73987e-06
-7.34125e-05
-1.86313e-05
8.39357e-05
-3.43092e-05
0.000195051
0.000185839
-0.000313826
0.000131525
0.000202478
-8.17191e-05
-0.000102911
0.000279183
4.7029e-05
-3.59081e-05
0.00037241
8.50851e-05
-3.20552e-05
-5.63331e-05
-2.8906e-05
3.77842e-06
2.43456e-05
-0.000411881
-1.02664e-05
0.000422454
6.23281e-06
-2.88175e-05
0.000272794
-0.00012997
-0.000143061
-9.60372e-05
3.39568e-05
5.8799e-05
9.7461e-05
6.609e-06
8.72613e-05
-0.000156274
6.49345e-05
9.25807e-06
2.85495e-05
-3.8728e-06
9.65127e-05
0.000146758
-0.000141954
3.37302e-05
-5.45462e-05
-2.51365e-06
5.60873e-05
-9.07128e-05
-6.3199e-05
1.33631e-05
8.60011e-06
1.67458e-05
4.50828e-06
-2.18967e-05
0.000114548
-0.000103039
2.09667e-06
1.93917e-05
-2.22987e-05
3.5879e-05
3.76499e-05
3.4035e-06
-0.000179611
0.000172785
-0.000155653