/*--------------------------------*- C++ -*----------------------------------*\
| =========                 |                                                 |
| \\      /  F ield         | OpenFOAM: The Open Source CFD Toolbox           |
|  \\    /   O peration     | Version:  v2012                                 |
|   \\  /    A nd           | Website:  www.openfoam.com                      |
|    \\/     M anipulation  |                                                 |
\*---------------------------------------------------------------------------*/
FoamFile
{
    version     2.0;
    format      ascii;
    class       pointVectorField;
    location    "900";
    object      pointDisplacement;
}
// * * * * * * * * * * * * * * * * * * * * * * * * * * * * * * * * * * * * * //

dimensions      [0 1 0 0 0 0 0];


internalField   nonuniform List<vector> 
14332
(
(0 0 0)
(-0.0316776 0.208814 0)
(0 0 0)
(-0.0316776 0.208814 0)
(0 0 0)
(0 0 0)
(0 0 0)
(0 0 0)
(0 0 0)
(0 0 0)
(0 0 0)
(0 0 0)
(0 0 0)
(0 0 0)
(0 0 0)
(0 0 0)
(0 0 0)
(0 0 0)
(0 0 0)
(0 0 0)
(0 0 0)
(0 0 0)
(0 0 0)
(0 0 0)
(0 0 0)
(0 0 0)
(0 0 0)
(0 0 0)
(0 0 0)
(0 0 0)
(0 0 0)
(0 0 0)
(0 0 0)
(0 0 0)
(0 0 0)
(0 0 0)
(0 0 0)
(0 0 0)
(0 0 0)
(0 0 0)
(0 0 0)
(0 0 0)
(0 0 0)
(0 0 0)
(0 0 0)
(0 0 0)
(0 0 0)
(0 0 0)
(0 0 0)
(0 0 0)
(0 0 0)
(0 0 0)
(0 0 0)
(0 0 0)
(0 0 0)
(0 0 0)
(0 0 0)
(0 0 0)
(0 0 0)
(0 0 0)
(0 0 0)
(0 0 0)
(0 0 0)
(0 0 0)
(0 0 0)
(0 0 0)
(0 0 0)
(0 0 0)
(0 0 0)
(0 0 0)
(0 0 0)
(0 0 0)
(0 0 0)
(0 0 0)
(0 0 0)
(0 0 0)
(0 0 0)
(0 0 0)
(0 0 0)
(0 0 0)
(0 0 0)
(0 0 0)
(0 0 0)
(0 0 0)
(0 0 0)
(0 0 0)
(0 0 0)
(0 0 0)
(0 0 0)
(0 0 0)
(0 0 0)
(0 0 0)
(0 0 0)
(0 0 0)
(0 0 0)
(0 0 0)
(0 0 0)
(0 0 0)
(0 0 0)
(0 0 0)
(0 0 0)
(0 0 0)
(0 0 0)
(0 0 0)
(0 0 0)
(0 0 0)
(0 0 0)
(0 0 0)
(0 0 0)
(0 0 0)
(0 0 0)
(0 0 0)
(0 0 0)
(0 0 0)
(0 0 0)
(0 0 0)
(0 0 0)
(0 0 0)
(0 0 0)
(0 0 0)
(0 0 0)
(0 0 0)
(0 0 0)
(0 0 0)
(0 0 0)
(0 0 0)
(0 0 0)
(0 0 0)
(0 0 0)
(0 0 0)
(0 0 0)
(0 0 0)
(0 0 0)
(0 0 0)
(0.01546 0.210049 0)
(0.0128412 0.20998 0)
(0.0102225 0.209912 0)
(0.0076037 0.209843 0)
(0.00498495 0.209775 0)
(0.0023662 0.209706 0)
(-0.00025255 0.209637 0)
(-0.0028713 0.209569 0)
(-0.00549005 0.2095 0)
(-0.0081088 0.209431 0)
(-0.0107276 0.209363 0)
(-0.0133463 0.209294 0)
(-0.0159651 0.209226 0)
(-0.0185838 0.209157 0)
(-0.0212026 0.209088 0)
(-0.0238213 0.20902 0)
(-0.0264401 0.208951 0)
(-0.0290588 0.208882 0)
(-0.0316089 0.206195 0)
(-0.0315403 0.203576 0)
(-0.0314717 0.200958 0)
(-0.0314031 0.198339 0)
(-0.0313344 0.19572 0)
(-0.0312658 0.193101 0)
(-0.0311972 0.190483 0)
(-0.0311285 0.187864 0)
(-0.0310599 0.185245 0)
(-0.0309913 0.182626 0)
(-0.0309227 0.180008 0)
(-0.030854 0.177389 0)
(-0.0307854 0.17477 0)
(-0.0307168 0.172151 0)
(-0.0306482 0.169533 0)
(-0.0305795 0.166914 0)
(-0.0305109 0.164295 0)
(-0.0304423 0.161676 0)
(-0.0303737 0.159058 0)
(-0.030305 0.156439 0)
(-0.0302364 0.15382 0)
(-0.0301678 0.151201 0)
(-0.0300992 0.148583 0)
(-0.0300305 0.145964 0)
(-0.0299619 0.143345 0)
(-0.0298933 0.140726 0)
(-0.0298247 0.138108 0)
(0 0 0)
(0 0 0)
(0 0 0)
(0 0 0)
(0 0 0)
(0 0 0)
(0 0 0)
(0 0 0)
(0 0 0)
(0 0 0)
(0 0 0)
(0 0 0)
(0 0 0)
(0 0 0)
(0 0 0)
(0 0 0)
(0 0 0)
(0 0 0)
(0 0 0)
(0 0 0)
(0 0 0)
(0 0 0)
(0 0 0)
(0 0 0)
(0 0 0)
(0 0 0)
(0 0 0)
(0 0 0)
(0 0 0)
(0 0 0)
(0 0 0)
(0 0 0)
(0 0 0)
(0 0 0)
(0 0 0)
(0 0 0)
(0 0 0)
(0 0 0)
(0 0 0)
(0 0 0)
(0 0 0)
(0 0 0)
(0 0 0)
(0 0 0)
(0 0 0)
(0 0 0)
(0 0 0)
(0 0 0)
(0 0 0)
(0 0 0)
(0 0 0)
(0 0 0)
(0 0 0)
(0 0 0)
(0 0 0)
(0 0 0)
(0 0 0)
(0 0 0)
(0 0 0)
(0 0 0)
(0 0 0)
(0 0 0)
(0 0 0)
(0 0 0)
(0 0 0)
(0 0 0)
(0 0 0)
(0 0 0)
(0 0 0)
(0 0 0)
(0 0 0)
(0 0 0)
(0 0 0)
(0 0 0)
(0 0 0)
(0 0 0)
(0 0 0)
(0 0 0)
(0 0 0)
(0 0 0)
(0 0 0)
(0 0 0)
(0 0 0)
(0 0 0)
(0 0 0)
(0 0 0)
(0 0 0)
(0 0 0)
(0 0 0)
(0 0 0)
(0 0 0)
(0 0 0)
(0 0 0)
(0 0 0)
(0 0 0)
(0 0 0)
(0 0 0)
(0 0 0)
(0 0 0)
(0 0 0)
(0 0 0)
(0 0 0)
(0 0 0)
(0 0 0)
(0 0 0)
(0 0 0)
(0 0 0)
(0 0 0)
(0 0 0)
(0 0 0)
(0 0 0)
(0 0 0)
(0 0 0)
(0 0 0)
(0 0 0)
(0 0 0)
(0 0 0)
(0 0 0)
(0 0 0)
(0 0 0)
(0 0 0)
(0 0 0)
(0 0 0)
(0 0 0)
(0 0 0)
(0 0 0)
(0 0 0)
(0 0 0)
(0 0 0)
(0 0 0)
(0.01546 0.210049 0)
(0.0128412 0.20998 0)
(0.0102225 0.209912 0)
(0.0076037 0.209843 0)
(0.00498495 0.209775 0)
(0.0023662 0.209706 0)
(-0.00025255 0.209637 0)
(-0.0028713 0.209569 0)
(-0.00549005 0.2095 0)
(-0.0081088 0.209431 0)
(-0.0107276 0.209363 0)
(-0.0133463 0.209294 0)
(-0.0159651 0.209226 0)
(-0.0185838 0.209157 0)
(-0.0212026 0.209088 0)
(-0.0238213 0.20902 0)
(-0.0264401 0.208951 0)
(-0.0290588 0.208882 0)
(-0.0316089 0.206195 0)
(-0.0315403 0.203576 0)
(-0.0314717 0.200958 0)
(-0.0314031 0.198339 0)
(-0.0313344 0.19572 0)
(-0.0312658 0.193101 0)
(-0.0311972 0.190483 0)
(-0.0311285 0.187864 0)
(-0.0310599 0.185245 0)
(-0.0309913 0.182626 0)
(-0.0309227 0.180008 0)
(-0.030854 0.177389 0)
(-0.0307854 0.17477 0)
(-0.0307168 0.172151 0)
(-0.0306482 0.169533 0)
(-0.0305795 0.166914 0)
(-0.0305109 0.164295 0)
(-0.0304423 0.161676 0)
(-0.0303737 0.159058 0)
(-0.030305 0.156439 0)
(-0.0302364 0.15382 0)
(-0.0301678 0.151201 0)
(-0.0300992 0.148583 0)
(-0.0300305 0.145964 0)
(-0.0299619 0.143345 0)
(-0.0298933 0.140726 0)
(-0.0298247 0.138108 0)
(-0.00683077 0.209461 0)
(-0.000336897 0.0052624 0)
(-0.031097 0.1867 0)
(-0.0298647 0.139646 0)
(-0.0304874 0.163408 0)
(-0.000468555 0.00584366 0)
(0.0138031 0.209993 0)
(-0.000220356 0.00433572 0)
(-0.000100081 0.00272751 0)
(-2.35249e-05 0.00118747 0)
(-0.000835656 0.0081785 0)
(-6.18402e-05 0.00194188 0)
(-0.000134994 0.00316868 0)
(-0.0248869 0.208977 0)
(-0.000912904 0.00697219 0)
(-2.82068e-05 0.00131247 0)
(-0.00114131 0.00638408 0)
(-3.77594e-05 0.00130574 0)
(-0.00138481 0.00487961 0)
(-0.0314931 0.202289 0)
(-2.62683e-05 0.00115157 0)
(-3.31025e-05 0.00121693 0)
(-1.83227e-05 0.000772914 0)
(-1.96699e-05 0.000752968 0)
(-1.49933e-05 0.000614613 0)
(-0.000278429 0.00489663 0)
(-7.09822e-05 0.00208208 0)
(0.00355493 0.209733 0)
(-0.0308199 0.176103 0)
(-0.0302039 0.152591 0)
(-1.31978e-05 0.000516682 0)
(-8.63554e-06 0.000349045 0)
(-0.0008328 0.00725562 0)
(-0.000768521 0.00836345 0)
(-0.00100144 0.00665935 0)
(-0.00136742 0.00633253 0)
(-0.000428206 0.00591017 0)
(-0.000204971 0.00435612 0)
(-0.000112271 0.00281308 0)
(-4.06952e-05 0.00145607 0)
(-5.73495e-05 0.00190722 0)
(-2.40488e-05 0.00116855 0)
(-2.18282e-05 0.000984925 0)
(-1.00179e-05 0.000396781 0)
(-0.014538 0.209259 0)
(-0.0312961 0.194336 0)
(-5.24744e-06 0.000209298 0)
(-5.01096e-06 0.000201152 0)
(-0.00156202 0.00371876 0)
(-0.000575672 0.00672902 0)
(-0.000399918 0.00588093 0)
(-0.000311805 0.0051722 0)
(-0.000231167 0.00429814 0)
(-0.000171052 0.00381895 0)
(-5.32114e-05 0.00172002 0)
(-7.63331e-05 0.00232085 0)
(-0.00011386 0.0029857 0)
(-1.62387e-05 0.000629677 0)
(-7.92294e-05 0.00224494 0)
(-2.23011e-05 0.00106052 0)
(-1.62793e-05 0.000702574 0)
(-1.50815e-05 0.000624671 0)
(-1.25441e-05 0.000510549 0)
(-2.47066e-05 0.000925211 0)
(-2.52239e-06 0.000100997 0)
(-0.00233034 0.169843 0)
(-0.00280171 0.168916 0)
(-0.00297227 0.170556 0)
(-0.00343831 0.169529 0)
(-0.00365265 0.171139 0)
(-0.00409652 0.170007 0)
(-0.00435619 0.171573 0)
(-0.00477376 0.170348 0)
(-0.00507165 0.171877 0)
(-0.00545992 0.170545 0)
(-0.00579114 0.17202 0)
(-0.00614781 0.17059 0)
(-0.00650675 0.17201 0)
(-0.00683974 0.170486 0)
(-0.00722254 0.171857 0)
(-0.00753246 0.170244 0)
(-0.0079438 0.171535 0)
(-0.00820469 0.169902 0)
(-0.0086492 0.171021 0)
(-0.00884381 0.169339 0)
(-0.00933149 0.170337 0)
(-0.00946129 0.168463 0)
(-0.00998481 0.169471 0)
(-0.0100733 0.16745 0)
(-0.0106137 0.168403 0)
(-0.0106628 0.166348 0)
(-0.0111961 0.167108 0)
(-0.0112175 0.16507 0)
(-0.011752 0.165777 0)
(-0.0117492 0.163675 0)
(-0.0123093 0.164332 0)
(-0.0122548 0.16215 0)
(-0.0128184 0.1626 0)
(-0.0127132 0.16039 0)
(-0.0132689 0.160654 0)
(-0.0121788 0.159967 0)
(-0.0125961 0.158153 0)
(-0.0120825 0.157744 0)
(-0.000949513 0.0487332 0)
(-0.000912292 0.0471939 0)
(-0.0124772 0.155878 0)
(-0.0119723 0.155486 0)
(-0.000946489 0.0475958 0)
(-0.000910456 0.0461251 0)
(-0.0123482 0.153566 0)
(-0.0118495 0.153185 0)
(-0.000943524 0.0465155 0)
(-0.000906987 0.0450381 0)
(-0.00094038 0.0454397 0)
(-0.000901817 0.0439469 0)
(-0.0122052 0.151215 0)
(-0.0117166 0.150841 0)
(-0.000932925 0.044285 0)
(-0.000894523 0.0428356 0)
(-0.0120547 0.148822 0)
(-0.0115756 0.148461 0)
(-0.000922644 0.0430956 0)
(-0.000884686 0.0416907 0)
(-0.000857591 0.0414138 0)
(-0.011892 0.146382 0)
(-0.0114236 0.146014 0)
(-0.0123575 0.146826 0)
(-0.0009103 0.0418864 0)
(-0.000872616 0.040521 0)
(-0.011723 0.143859 0)
(-0.0112601 0.143508 0)
(-0.000896276 0.0406727 0)
(-0.000934203 0.0419579 0)
(-0.000858661 0.0393343 0)
(-0.00614263 0.17348 0)
(-0.0134032 0.162904 0)
(-0.0138469 0.160826 0)
(-0.0139982 0.163087 0)
(-0.0144219 0.161041 0)
(-0.0146031 0.163128 0)
(-0.0149918 0.160992 0)
(-0.0152161 0.162967 0)
(-0.0155773 0.160597 0)
(-0.0158266 0.162629 0)
(-0.0161654 0.160106 0)
(-0.0164328 0.162111 0)
(-0.0167412 0.159429 0)
(-0.0170305 0.161454 0)
(-0.0173053 0.158569 0)
(-0.017617 0.160566 0)
(-0.0178573 0.157542 0)
(-0.0181878 0.15942 0)
(-0.0183929 0.156342 0)
(-0.0187438 0.158106 0)
(-0.018911 0.1549 0)
(-0.0192777 0.156547 0)
(-0.0194087 0.153184 0)
(-0.0197914 0.154709 0)
(-0.0198902 0.151171 0)
(-0.0195027 0.149699 0)
(-0.0199626 0.147446 0)
(-0.020353 0.148915 0)
(-0.0203922 0.145064 0)
(-0.02078 0.146373 0)
(-0.0207691 0.142489 0)
(-0.0211727 0.14349 0)
(-0.0211238 0.139604 0)
(-0.0215487 0.140267 0)
(-0.021441 0.136318 0)
(-0.0218817 0.136633 0)
(-0.0217514 0.132596 0)
(-0.022163 0.13275 0)
(-0.0220622 0.128798 0)
(-0.0224308 0.128762 0)
(-0.0223101 0.124682 0)
(-0.0226765 0.124326 0)
(-0.0225136 0.120072 0)
(-0.0228733 0.119371 0)
(-0.0226855 0.115021 0)
(-0.0230305 0.114045 0)
(-0.0228272 0.109687 0)
(-0.0231646 0.108406 0)
(-0.0229414 0.10407 0)
(-0.0232711 0.102481 0)
(-0.0230281 0.0981863 0)
(-0.0233428 0.0962505 0)
(-0.0230853 0.0920554 0)
(-0.0233828 0.0898274 0)
(-0.0231149 0.0857692 0)
(-0.0195777 0.146007 0)
(-0.0217107 0.128216 0)
(-0.0227015 0.0996578 0)
(-0.0166702 0.164248 0)
(-0.000880246 0.0394406 0)
(-0.000842852 0.0381292 0)
(-0.0115325 0.14129 0)
(-0.0110849 0.14096 0)
(-0.0235817 0.100466 0)
(-0.000862391 0.038187 0)
(-0.000825369 0.0369041 0)
(-0.0113231 0.138692 0)
(-0.0108989 0.138367 0)
(-0.000842693 0.0369113 0)
(-0.000806429 0.0356647 0)
(-0.000789361 0.0356291 0)
(-0.0111138 0.136042 0)
(-0.0107028 0.135725 0)
(-0.00082116 0.0356147 0)
(-0.000785968 0.0344133 0)
(-0.0228406 0.129272 0)
(-0.0109019 0.133368 0)
(-0.0104996 0.133026 0)
(-0.0112842 0.133506 0)
(-0.0196523 0.158144 0)
(-0.00079805 0.0343076 0)
(-0.000830701 0.0353868 0)
(-0.000764206 0.0331555 0)
(-0.0106813 0.130632 0)
(-0.0102859 0.130286 0)
(-0.000774439 0.0330152 0)
(-0.000741385 0.0318944 0)
(-0.000750116 0.0317263 0)
(-0.000717601 0.0306312 0)
(-0.0104509 0.127849 0)
(-0.0100613 0.127514 0)
(-0.00072529 0.0304464 0)
(-0.000692987 0.0293681 0)
(-0.000685192 0.0295231 0)
(-0.0102069 0.12502 0)
(-0.00982928 0.124669 0)
(-0.000661524 0.0282959 0)
(-0.000654264 0.0284407 0)
(-0.000667451 0.0281052 0)
(-0.00995379 0.122141 0)
(-0.00959407 0.121801 0)
(-0.00945757 0.1241 0)
(-0.00923963 0.121332 0)
(-0.00909538 0.123526 0)
(-0.00888961 0.120797 0)
(-0.00874055 0.122992 0)
(-0.00854446 0.120163 0)
(-0.00867638 0.117876 0)
(-0.00833888 0.117241 0)
(-0.00820622 0.119369 0)
(-0.00801287 0.116544 0)
(-0.000636839 0.0270623 0)
(-0.000641325 0.0268512 0)
(-0.00812254 0.114242 0)
(-0.00780931 0.113564 0)
(-0.00769749 0.115813 0)
(-0.00750497 0.112817 0)
(-0.00787868 0.168707 0)
(-0.000612545 0.0258753 0)
(-0.000614885 0.0256083 0)
(-0.00738823 0.114984 0)
(-0.00720712 0.111985 0)
(-0.00730351 0.109752 0)
(-0.00701638 0.108939 0)
(-0.00691609 0.111105 0)
(-0.00673708 0.108053 0)
(-0.00663152 0.110139 0)
(-0.00646503 0.10709 0)
(-0.00635747 0.10908 0)
(-0.00620027 0.106055 0)
(-0.00609306 0.107961 0)
(-0.00594341 0.104961 0)
(-0.00603475 0.102981 0)
(-0.00578549 0.10192 0)
(-0.0108223 0.14305 0)
(-0.000584352 0.0245843 0)
(-0.000588093 0.0243642 0)
(-0.00569479 0.103826 0)
(-0.00554472 0.100819 0)
(-0.00561931 0.0988305 0)
(-0.00538751 0.0977632 0)
(-0.00531201 0.0996774 0)
(-0.00516361 0.0966485 0)
(-0.00508745 0.0984888 0)
(-0.00494722 0.0954918 0)
(-0.000559426 0.0233765 0)
(-0.00056105 0.0231331 0)
(-0.00059115 0.0241687 0)
(-0.00500781 0.0935754 0)
(-0.00479996 0.0924577 0)
(-0.00473802 0.0943047 0)
(-0.00459939 0.0913085 0)
(-0.00453595 0.0930852 0)
(-0.0044055 0.0901192 0)
(-0.00434138 0.0918272 0)
(-0.00421828 0.0888938 0)
(-0.00415451 0.0905326 0)
(-0.00403807 0.0876398 0)
(-0.00408977 0.0859265 0)
(-0.00391531 0.084714 0)
(-0.003865 0.0863681 0)
(-0.00374845 0.0834895 0)
(-0.000532993 0.0221761 0)
(-0.000533465 0.0224923 0)
(-0.000533352 0.0219019 0)
(-0.00378652 0.0817536 0)
(-0.00362665 0.0805767 0)
(-0.00358842 0.0822475 0)
(-0.00347324 0.0793783 0)
(-0.00343442 0.0809764 0)
(-0.00332583 0.0781531 0)
(-0.00328621 0.0797265 0)
(-0.00318395 0.0769112 0)
(-0.00321278 0.0753096 0)
(-0.003077 0.0741121 0)
(-0.00304766 0.0756427 0)
(-0.00294676 0.0728966 0)
(-0.00291662 0.0743432 0)
(-0.00282184 0.0716654 0)
(-0.00284079 0.0701333 0)
(-0.00272218 0.0689667 0)
(-0.00270216 0.0704287 0)
(-0.00260843 0.0677907 0)
(-0.00258696 0.0691677 0)
(-0.00249899 0.0665962 0)
(-0.000506208 0.0209722 0)
(-0.000505644 0.0206852 0)
(-0.00251149 0.0651367 0)
(-0.00240773 0.0640092 0)
(-0.00239398 0.0653967 0)
(-0.00230768 0.0628686 0)
(-0.00229351 0.0641982 0)
(-0.00221178 0.061719 0)
(-0.00219713 0.0629913 0)
(-0.00211981 0.0605654 0)
(-0.00212746 0.0592289 0)
(-0.00203998 0.0581294 0)
(-0.00203167 0.0594073 0)
(-0.00195602 0.0570215 0)
(-0.00194722 0.0582349 0)
(-0.00187548 0.0559051 0)
(-0.00187837 0.05464 0)
(-0.00180176 0.0535808 0)
(-0.00913903 0.172085 0)
(0.000897991 0.199351 0)
(0.000626545 0.198425 0)
(-0.000526016 0.199157 0)
(-0.000669215 0.198216 0)
(-0.00193029 0.198841 0)
(-0.00193569 0.19778 0)
(-0.00332016 0.198423 0)
(-0.00329151 0.197458 0)
(-0.00462816 0.197953 0)
(-0.00445773 0.196977 0)
(-0.00583024 0.1974 0)
(-0.00609323 0.198352 0)
(-0.00723602 0.197737 0)
(-0.00760873 0.198653 0)
(-0.00869566 0.1979 0)
(-0.00920565 0.198828 0)
(-0.0101825 0.197938 0)
(-0.0108381 0.198807 0)
(-0.0116437 0.197845 0)
(-0.0124011 0.198616 0)
(-0.0130728 0.197558 0)
(-0.0138923 0.198301 0)
(-0.0144478 0.19714 0)
(-0.015306 0.197839 0)
(-0.0136639 0.196404 0)
(-0.00317023 0.196477 0)
(-0.0157223 0.19658 0)
(-0.0166127 0.197212 0)
(-0.000480417 0.0198096 0)
(-0.00047801 0.0194845 0)
(-0.00563135 0.19644 0)
(-0.00623239 0.110921 0)
(-0.00179899 0.0522611 0)
(-0.00172636 0.0512596 0)
(-0.0103266 0.122352 0)
(-0.00186632 0.0570545 0)
(-0.0168909 0.195894 0)
(-0.0177953 0.196417 0)
(-0.00484531 0.0904595 0)
(-0.00709337 0.10663 0)
(-0.000454323 0.0186655 0)
(-0.000450393 0.0182952 0)
(-0.000475553 0.0191684 0)
(-0.0100468 0.119428 0)
(-0.0104134 0.119503 0)
(-0.0101083 0.11654 0)
(-0.0104659 0.116505 0)
(-0.010138 0.113481 0)
(-0.0104884 0.113345 0)
(-0.0101353 0.110254 0)
(-0.0104738 0.109983 0)
(-0.0100952 0.106847 0)
(-0.0104166 0.106431 0)
(0.00132529 0.200248 0)
(-0.0179401 0.195023 0)
(-0.0188592 0.195431 0)
(-0.00171819 0.0498857 0)
(-0.00164962 0.0489427 0)
(-0.0169916 0.156571 0)
(-0.00426425 0.0933974 0)
(-0.0100131 0.103236 0)
(-0.010321 0.102726 0)
(-0.0107434 0.105887 0)
(-0.0106284 0.102081 0)
(-0.0110656 0.105154 0)
(-0.0109304 0.101259 0)
(-0.0113819 0.104249 0)
(-0.0112277 0.100271 0)
(-0.011693 0.103176 0)
(-0.0115179 0.099118 0)
(-0.0119965 0.10191 0)
(-0.0117947 0.0977912 0)
(-0.0122874 0.100455 0)
(-0.0120578 0.0962698 0)
(-0.0125648 0.0988135 0)
(-0.0123121 0.0945315 0)
(-0.0128278 0.0969581 0)
(-0.0125512 0.0925874 0)
(-0.0130754 0.0949037 0)
(-0.0127736 0.0904761 0)
(-0.0133065 0.0926541 0)
(-0.0129784 0.0881649 0)
(-0.0135184 0.09019 0)
(-0.0131641 0.0856514 0)
(-0.0137088 0.0874914 0)
(-0.000426895 0.0174924 0)
(-0.00043212 0.0179173 0)
(-0.000422295 0.017109 0)
(-0.0133308 0.0829308 0)
(-0.0138788 0.0845562 0)
(-0.0188786 0.193937 0)
(-0.0198082 0.194224 0)
(-0.017909 0.193672 0)
(-0.0134759 0.0800078 0)
(-0.0140263 0.0813962 0)
(-0.00163635 0.0475181 0)
(-0.00157197 0.0466351 0)
(-0.00158371 0.0479945 0)
(-0.00151002 0.0457434 0)
(-0.0135991 0.0769029 0)
(-0.0141495 0.078011 0)
(-0.000399808 0.016338 0)
(-0.00039419 0.0159401 0)
(-0.00989491 0.0994796 0)
(-0.0197371 0.192671 0)
(-0.0206332 0.192807 0)
(-0.0136953 0.073572 0)
(-0.0142465 0.0743938 0)
(-0.0144106 0.085907 0)
(-0.00152041 0.047038 0)
(-0.00145035 0.0448388 0)
(-0.00143574 0.0435039 0)
(-0.00137953 0.0426531 0)
(-0.0137661 0.0700066 0)
(-0.0143177 0.0705992 0)
(-0.0116625 0.199578 0)
(-0.0133336 0.0992175 0)
(-0.00136113 0.0412794 0)
(-0.00130872 0.0404909 0)
(-0.0138158 0.0662613 0)
(-0.0143644 0.0666595 0)
(-0.0148568 0.0709965 0)
(-0.0149023 0.0668523 0)
(-0.014388 0.0625674 0)
(-0.0149325 0.0625604 0)
(-0.0143883 0.0583171 0)
(-0.0149285 0.0580271 0)
(-0.0143608 0.0539181 0)
(-0.0148942 0.053298 0)
(-0.0204966 0.191216 0)
(-0.0213404 0.191218 0)
(-0.0214986 0.192789 0)
(-0.0221802 0.191092 0)
(-0.0219438 0.189469 0)
(-0.0227329 0.189175 0)
(-0.023047 0.190819 0)
(-0.0235191 0.188706 0)
(-0.0231805 0.187063 0)
(-0.0238877 0.186342 0)
(-0.0242657 0.187977 0)
(-0.0245503 0.18546 0)
(-0.0249418 0.186997 0)
(-0.025166 0.184416 0)
(-0.0255694 0.185843 0)
(-0.0257288 0.183198 0)
(-0.0261242 0.184387 0)
(-0.0262333 0.181701 0)
(-0.0266172 0.182761 0)
(-0.026686 0.179894 0)
(-0.0270765 0.180946 0)
(-0.0270864 0.177769 0)
(-0.0274707 0.178546 0)
(-0.0274338 0.17529 0)
(-0.0277982 0.175708 0)
(-0.0277289 0.172486 0)
(-0.0280723 0.172645 0)
(-0.0279749 0.169301 0)
(-0.0282986 0.16931 0)
(-0.0281868 0.165802 0)
(-0.0284807 0.165643 0)
(-0.0283618 0.162058 0)
(-0.0286219 0.161667 0)
(-0.028493 0.158032 0)
(-0.0287267 0.157442 0)
(-0.0285909 0.153789 0)
(-0.0287992 0.153033 0)
(-0.0286596 0.149376 0)
(-0.0288434 0.148355 0)
(-0.0286964 0.144686 0)
(-0.0288539 0.14343 0)
(-0.0287084 0.139924 0)
(-0.0288411 0.138524 0)
(-0.028697 0.135139 0)
(-0.0288127 0.133538 0)
(-0.0286659 0.130108 0)
(-0.0285363 0.131676 0)
(-0.028373 0.154471 0)
(-0.0273874 0.172135 0)
(-0.0258767 0.180497 0)
(-0.0235576 0.184648 0)
(-0.0289135 0.131874 0)
(-0.0289925 0.152183 0)
(-0.0143054 0.0493649 0)
(-0.0148224 0.0483785 0)
(-0.0154732 0.0574701 0)
(-0.0110275 0.0961724 0)
(-0.000373283 0.0152171 0)
(-0.000367089 0.0148157 0)
(-0.0142207 0.0446573 0)
(-0.0147205 0.0433615 0)
(-0.00139216 0.0438946 0)
(-0.000983156 0.0470915 0)
(-0.0141095 0.0398507 0)
(-0.0146031 0.0382791 0)
(-0.0286046 0.169186 0)
(-0.00128647 0.0390735 0)
(-0.00123794 0.0383469 0)
(-0.00034726 0.0141243 0)
(-0.000340527 0.0137193 0)
(-0.000358851 0.0143424 0)
(-0.0120039 0.0901636 0)
(-0.0260798 0.187012 0)
(-0.0175748 0.19778 0)
(-0.00032175 0.0130603 0)
(-0.000327511 0.0134119 0)
(-0.00121205 0.0368886 0)
(-0.00116722 0.03622 0)
(-0.00031434 0.0126456 0)
(-0.0127667 0.0810742 0)
(-0.00514683 0.169062 0)
(-0.00113807 0.0347273 0)
(-0.00109701 0.0341188 0)
(-0.00118047 0.0353246 0)
(-0.00112385 0.0355406 0)
(-0.00105715 0.0334967 0)
(-0.0010819 0.0348502 0)
(-0.00101847 0.0328612 0)
(-0.000296763 0.0120252 0)
(-0.000288883 0.0116082 0)
(-0.00104125 0.034148 0)
(-0.000980922 0.0322134 0)
(-0.000955604 0.0308992 0)
(-0.000921145 0.0303067 0)
(-0.0096063 0.0999751 0)
(-0.00946221 0.096146 0)
(-0.00918695 0.0966592 0)
(-0.00902013 0.0927232 0)
(-0.00875755 0.0932012 0)
(-0.00857134 0.0891469 0)
(-0.00832814 0.0895647 0)
(-0.0131974 0.0693041 0)
(-0.0113648 0.152803 0)
(-0.0215919 0.144239 0)
(-0.0081273 0.0854397 0)
(-0.00789842 0.0858402 0)
(-0.000893491 0.0289663 0)
(-0.000862093 0.0284292 0)
(-0.000887662 0.0297028 0)
(-0.000831514 0.0278797 0)
(-0.0137776 0.0500471 0)
(-0.000272416 0.011023 0)
(-0.000264236 0.0106071 0)
(-0.000803914 0.0265827 0)
(-0.000776161 0.0260869 0)
(-0.00170339 0.0483938 0)
(-0.00768382 0.0816639 0)
(-0.00746597 0.0820636 0)
(-0.00788834 0.0812629 0)
(-0.00110327 0.033128 0)
(-0.0011429 0.0336481 0)
(-0.000855152 0.0290905 0)
(-0.000248742 0.0100514 0)
(-0.000240424 0.00964301 0)
(-0.000253685 0.0101105 0)
(-0.000746732 0.0247689 0)
(-0.000721725 0.0243256 0)
(-0.00723298 0.0777799 0)
(-0.00702982 0.078199 0)
(-0.00311381 0.172287 0)
(-0.00106255 0.0314178 0)
(-0.00109901 0.0318542 0)
(-0.000225833 0.00911608 0)
(-0.000233487 0.00949732 0)
(-0.000216925 0.00869364 0)
(-0.000690678 0.0229901 0)
(-0.000668352 0.0225982 0)
(-0.00239208 0.138363 0)
(-0.00263247 0.137096 0)
(-0.0027419 0.139078 0)
(-0.00298064 0.137738 0)
(-0.00309277 0.139689 0)
(-0.00333372 0.138286 0)
(-0.00346926 0.140455 0)
(-0.00369829 0.138725 0)
(-0.00388398 0.140669 0)
(-0.00406382 0.138965 0)
(-0.00426556 0.140843 0)
(-0.00443264 0.139093 0)
(-0.00423032 0.137044 0)
(-0.00465048 0.140905 0)
(-0.00479989 0.139096 0)
(-0.00503733 0.14084 0)
(-0.00516406 0.138907 0)
(-0.00542069 0.140635 0)
(-0.00529112 0.142628 0)
(-0.00552713 0.138593 0)
(-0.00568668 0.142374 0)
(-0.00556031 0.144382 0)
(-0.00596756 0.144068 0)
(-0.00584205 0.146089 0)
(-0.00677858 0.0737925 0)
(-0.00659253 0.0742374 0)
(-0.0147872 0.165227 0)
(-0.0278792 0.178701 0)
(-0.0121527 0.105877 0)
(-0.000201345 0.00812423 0)
(-0.000194285 0.00778222 0)
(-0.00101577 0.029596 0)
(-0.00104867 0.0299468 0)
(-0.000635913 0.0212488 0)
(-0.000616208 0.0209077 0)
(-0.000646383 0.0221895 0)
(-0.000596669 0.0205469 0)
(-0.000655812 0.0215705 0)
(-0.000624721 0.0217628 0)
(-0.000577313 0.0201674 0)
(-0.00054819 0.0189428 0)
(-0.00053108 0.0186103 0)
(-0.0103099 0.13521 0)
(-0.000603373 0.0213188 0)
(-0.0262014 0.111447 0)
(-0.0259495 0.112568 0)
(-0.0261246 0.117266 0)
(-0.00626079 0.145716 0)
(-0.0061381 0.14775 0)
(-0.00227089 0.0653776 0)
(-0.00338762 0.0825275 0)
(-0.000756953 0.0314954 0)
(-0.000873419 0.0446019 0)
(-0.00241274 0.0624788 0)
(-0.00635847 0.143639 0)
(-0.00157066 0.0820468 0)
(-0.00130912 0.0677177 0)
(-0.00118382 0.0610386 0)
(-0.00365256 0.0787657 0)
(-0.0153868 0.0712073 0)
(-0.00632189 0.0697255 0)
(-0.00615597 0.070189 0)
(-0.00640347 0.0745785 0)
(-0.00598778 0.070555 0)
(-0.00621535 0.0748283 0)
(-0.00581719 0.0708322 0)
(-0.00602707 0.0749789 0)
(-0.00564386 0.0709944 0)
(-0.00583831 0.0750293 0)
(-0.0054695 0.0710536 0)
(-0.00526016 0.0669198 0)
(-0.00510036 0.0670101 0)
(-0.00529724 0.0710722 0)
(-0.00494369 0.0670651 0)
(-0.00648413 0.0691546 0)
(-0.0152779 0.158549 0)
(-0.00572524 0.0660655 0)
(-0.00525859 0.13691 0)
(-0.00561429 0.136476 0)
(-0.00533699 0.13479 0)
(-0.00568549 0.134264 0)
(-0.00540554 0.132571 0)
(-0.000333651 0.0169349 0)
(-0.000358532 0.0181339 0)
(-0.000345201 0.0172807 0)
(-0.000320218 0.0160887 0)
(-0.000331094 0.0164117 0)
(-0.000356386 0.0175953 0)
(-0.000341573 0.0167039 0)
(-0.000316268 0.0155294 0)
(-0.000326076 0.0158014 0)
(-0.000367117 0.0178763 0)
(-0.000300758 0.0146351 0)
(-0.000309943 0.0148894 0)
(-0.000284621 0.0137308 0)
(-0.00029323 0.0139698 0)
(-0.000318636 0.0151126 0)
(-0.000301315 0.0141774 0)
(-0.000275563 0.0134628 0)
(-0.00032675 0.0153021 0)
(-0.000308808 0.014352 0)
(-0.000180784 0.00727969 0)
(-0.000283525 0.0132388 0)
(-0.000290452 0.0134007 0)
(-0.000173074 0.00692904 0)
(-0.000183764 0.0073191 0)
(-0.00473068 0.0628941 0)
(-0.00459141 0.0630007 0)
(-0.00478866 0.0670536 0)
(-0.00445293 0.0630404 0)
(-0.0206931 0.138456 0)
(-0.0134684 0.0364931 0)
(-0.0223365 0.116098 0)
(-0.0228878 0.082278 0)
(-0.00948657 0.166271 0)
(-0.0258552 0.118121 0)
(-0.0260205 0.122782 0)
(-0.000501037 0.0173784 0)
(-0.000486105 0.0170922 0)
(-0.00320877 0.167857 0)
(-0.000962723 0.0276609 0)
(-0.000992184 0.0279376 0)
(-0.0262956 0.122007 0)
(-0.0261792 0.127389 0)
(-0.0258894 0.127991 0)
(-0.0260347 0.13243 0)
(-0.02573 0.132859 0)
(-0.0258602 0.137341 0)
(-0.0255359 0.137384 0)
(-0.0256418 0.142013 0)
(-0.0253033 0.141498 0)
(-0.0253861 0.146179 0)
(-0.00963724 0.196961 0)
(-0.00463483 0.0669708 0)
(-0.00431458 0.0630107 0)
(-0.00656922 0.147315 0)
(-0.00645189 0.14936 0)
(-0.00411852 0.0589962 0)
(-0.00399626 0.0590264 0)
(-0.00417717 0.0629289 0)
(-0.00387391 0.0589898 0)
(-0.0040411 0.0627857 0)
(-0.003752 0.0588911 0)
(-0.00390714 0.0625979 0)
(-0.00363174 0.0587507 0)
(-0.00346505 0.0549776 0)
(-0.00335873 0.0549044 0)
(-0.00351317 0.0585662 0)
(-0.00325348 0.0547812 0)
(-0.025037 0.145364 0)
(-0.0250998 0.149889 0)
(-0.000334197 0.0154561 0)
(-0.000161184 0.00648686 0)
(-0.000168349 0.00681487 0)
(-0.00108215 0.0302727 0)
(-0.00102203 0.0281897 0)
(-0.00111599 0.0305703 0)
(-0.00105153 0.0283969 0)
(-0.00115066 0.0308523 0)
(-0.00108091 0.0285668 0)
(-0.00118628 0.0311133 0)
(-0.000265328 0.0122986 0)
(-0.000271744 0.0124503 0)
(-0.00111044 0.028705 0)
(-0.00122215 0.0313345 0)
(-0.00339604 0.058327 0)
(-0.00314889 0.054601 0)
(-0.00299965 0.0510372 0)
(-0.00290534 0.05088 0)
(-0.00304553 0.0543762 0)
(-0.00281344 0.0507205 0)
(-0.00294382 0.0541065 0)
(-0.00272332 0.0505241 0)
(-0.00284404 0.0537909 0)
(-0.00263465 0.050281 0)
(-0.0025054 0.046944 0)
(-0.00242774 0.0467786 0)
(-0.00254745 0.0500009 0)
(-0.00235115 0.0465737 0)
(-0.00246173 0.0496833 0)
(-0.00227562 0.0463287 0)
(-0.000152626 0.00610843 0)
(-0.00215828 0.0431695 0)
(-0.00209248 0.0429967 0)
(-0.00220138 0.0460466 0)
(-0.00202739 0.042785 0)
(-0.00573686 0.131993 0)
(-0.00546237 0.130314 0)
(-0.00322415 0.136334 0)
(-0.00114015 0.028815 0)
(-0.00045532 0.0158561 0)
(-0.000442497 0.0156153 0)
(-0.000471125 0.0167848 0)
(-0.000429492 0.0153513 0)
(-0.000456068 0.0164554 0)
(-0.00041632 0.0150648 0)
(-0.00689887 0.148846 0)
(-0.000389235 0.0139609 0)
(-0.000377869 0.0137163 0)
(-0.011198 0.169154 0)
(-0.00678474 0.150916 0)
(-0.00631247 0.151359 0)
(-0.00188899 0.186605 0)
(-0.00191609 0.185235 0)
(-0.00275819 0.186134 0)
(-0.00275816 0.184769 0)
(-0.00359659 0.185583 0)
(-0.0264607 0.126661 0)
(-0.00378705 0.0549414 0)
(0.00767374 0.20748 0)
(0.00698301 0.206915 0)
(0.00544317 0.207395 0)
(0.00487238 0.206915 0)
(0.00330739 0.207315 0)
(0.00277456 0.206856 0)
(0.00104329 0.20722 0)
(0.000638189 0.206725 0)
(-0.00137722 0.207063 0)
(-0.00154002 0.206521 0)
(-0.00369261 0.206801 0)
(-0.00375257 0.207322 0)
(-0.00604441 0.207004 0)
(-0.00636692 0.207482 0)
(-0.00855467 0.207119 0)
(-0.0036277 0.206247 0)
(-0.00907737 0.207563 0)
(-0.0111789 0.207161 0)
(-0.0104882 0.206697 0)
(-0.0129756 0.206687 0)
(-0.0140073 0.207183 0)
(-0.015481 0.206593 0)
(-0.0144493 0.206135 0)
(-0.0167022 0.205995 0)
(-0.0178794 0.206411 0)
(-0.018787 0.205779 0)
(-0.0200656 0.206163 0)
(-0.0206567 0.205468 0)
(-0.0219775 0.205816 0)
(-0.0222865 0.205036 0)
(-0.0235907 0.205331 0)
(-0.0236495 0.204466 0)
(-0.0248979 0.204691 0)
(-0.0247653 0.203736 0)
(-0.0259008 0.203843 0)
(0.00247095 0.206341 0)
(0.00351318 0.207716 0)
(-0.0256539 0.202848 0)
(-0.0266381 0.202775 0)
(-0.0246991 0.202721 0)
(-0.0210011 0.204713 0)
(-0.015678 0.205521 0)
(-0.0247326 0.148871 0)
(-0.0247772 0.153218 0)
(-0.00212762 0.0457093 0)
(-0.00191257 0.0396839 0)
(-0.000904478 0.0256471 0)
(-0.000246796 0.0113594 0)
(-0.000252751 0.011503 0)
(-0.000277507 0.0125695 0)
(-0.000258058 0.0116146 0)
(-0.00805151 0.0897438 0)
(-0.00196062 0.183867 0)
(-0.000142299 0.0057236 0)
(-0.000133503 0.0053407 0)
(-0.00274758 0.047182 0)
(-0.0260091 0.142324 0)
(-0.0254386 0.133003 0)
(-0.024403 0.15208 0)
(-0.02442 0.156267 0)
(-0.00724882 0.150324 0)
(-0.00733401 0.148176 0)
(-0.000440962 0.0161053 0)
(-0.00276982 0.183391 0)
(-0.000282549 0.0126542 0)
(-0.000262644 0.0116926 0)
(-0.000238447 0.0106669 0)
(-0.000242647 0.0107407 0)
(-0.0262932 0.20177 0)
(-0.0271712 0.201465 0)
(-0.0240517 0.155061 0)
(-0.0240257 0.159009 0)
(-0.0236649 0.157662 0)
(-0.0235933 0.161411 0)
(-0.00664174 0.152927 0)
(-0.0061527 0.153288 0)
(-0.00409604 0.142596 0)
(-0.000350405 0.0126145 0)
(-0.000340786 0.0124112 0)
(-0.00185634 0.0395486 0)
(-0.00173568 0.0363878 0)
(-0.0057709 0.129681 0)
(-0.00550752 0.128029 0)
(-0.00520456 0.128628 0)
(-0.00525911 0.126348 0)
(-0.00497256 0.126895 0)
(-0.00502311 0.124636 0)
(-0.00475473 0.125137 0)
(-0.00479524 0.122877 0)
(-0.0045375 0.123351 0)
(-0.00457407 0.121151 0)
(-0.00433389 0.121493 0)
(-0.00437378 0.11939 0)
(-0.00414144 0.119602 0)
(-0.00419 0.117475 0)
(-0.00395647 0.117698 0)
(-0.00400289 0.115553 0)
(-0.00377679 0.11578 0)
(-0.0038208 0.113666 0)
(-0.00604769 0.131306 0)
(-0.00360492 0.113841 0)
(-0.00364965 0.111754 0)
(-0.00425792 0.115163 0)
(-0.0034409 0.111883 0)
(-0.00348555 0.109826 0)
(-0.00368225 0.109612 0)
(-0.0035176 0.107711 0)
(-0.00332948 0.107883 0)
(-0.0033615 0.105795 0)
(-0.00408304 0.121747 0)
(-0.00479931 0.120422 0)
(-0.00318169 0.105926 0)
(-0.00321293 0.103865 0)
(-0.00338277 0.103667 0)
(-0.00323465 0.101762 0)
(-0.00307071 0.101928 0)
(-0.00309244 0.0998609 0)
(-0.00293553 0.0999863 0)
(-0.00295772 0.0979558 0)
(-0.00280745 0.0980425 0)
(-0.00282822 0.0960309 0)
(-0.00268553 0.0960851 0)
(-0.00270359 0.0940993 0)
(-0.00284149 0.0939777 0)
(-0.00271469 0.0920762 0)
(-0.00258521 0.0921814 0)
(-0.00259389 0.0901869 0)
(-0.00271651 0.0900031 0)
(-0.00259579 0.0881425 0)
(-0.00325035 0.0996204 0)
(-0.0024796 0.0883082 0)
(-0.0024818 0.0862951 0)
(-0.00258881 0.0860536 0)
(-0.00247606 0.0842453 0)
(-0.00237425 0.0844492 0)
(-0.00236922 0.0824399 0)
(-0.00227234 0.0826017 0)
(-0.00226767 0.0806365 0)
(-0.00217537 0.0807601 0)
(-0.00217097 0.078838 0)
(-0.00208297 0.0789266 0)
(-0.00207872 0.0770457 0)
(-0.00199495 0.077101 0)
(-0.00199064 0.0752616 0)
(-0.000878817 0.0254167 0)
(-0.00620554 0.078941 0)
(-0.000818808 0.0233919 0)
(-0.00365778 0.186923 0)
(-0.00449155 0.186276 0)
(-0.000218743 0.00972834 0)
(-0.00022262 0.00980027 0)
(-0.0232417 0.159887 0)
(-0.023128 0.163508 0)
(-0.00202136 0.182481 0)
(-0.00193205 0.0593263 0)
(-0.0018512 0.058089 0)
(-0.00191085 0.0603021 0)
(-0.00183044 0.0590104 0)
(-0.0018842 0.061164 0)
(-0.00180449 0.0598201 0)
(-0.0251442 0.154181 0)
(-0.000259392 0.0125645 0)
(-0.000250443 0.0122828 0)
(-0.000234201 0.0113886 0)
(-0.000225361 0.011094 0)
(-0.00046798 0.0160743 0)
(-0.000421643 0.0145499 0)
(-0.000431837 0.0146965 0)
(-0.00235719 0.0804057 0)