/*--------------------------------*- C++ -*----------------------------------*\
| =========                 |                                                 |
| \\      /  F ield         | OpenFOAM: The Open Source CFD Toolbox           |
|  \\    /   O peration     | Version:  v2012                                 |
|   \\  /    A nd           | Website:  www.openfoam.com                      |
|    \\/     M anipulation  |                                                 |
\*---------------------------------------------------------------------------*/
FoamFile
{
    version     2.0;
    format      ascii;
    class       surfaceVectorField;
    location    "1000";
    object      Uf_0;
}
// * * * * * * * * * * * * * * * * * * * * * * * * * * * * * * * * * * * * * //

dimensions      [0 1 -1 0 0 0 0];


internalField   nonuniform List<vector> 
20580
(
(0.985795 0.0448343 3.25731e-21)
(0.981393 0.0439894 1.38039e-20)
(0.986342 0.0409717 1.08891e-20)
(1.07085 -0.00434706 0)
(1.07181 -0.00490921 0)
(1.07231 -0.00350263 0)
(1.06966 -0.00341972 1.17065e-21)
(1.06908 -0.00466695 1.7111e-21)
(-0.240668 -0.0217557 -4.74738e-22)
(-0.317324 -0.0557926 -7.07489e-20)
(-0.292725 -0.0549064 -2.8992e-20)
(1.00214 -0.000619943 0)
(1.00189 -0.000564057 0)
(1.00194 -0.000335345 3.39751e-21)
(1.08749 -0.00917728 -4.69076e-21)
(1.0886 -0.0110188 2.672e-21)
(1.08596 -0.0112409 -6.75412e-21)
(1.05693 0.0146888 -8.1003e-22)
(1.05765 0.0151356 6.8889e-22)
(1.01461 -0.00068316 3.25009e-21)
(1.01438 -0.000726993 -3.04148e-22)
(1.01364 -0.000463439 3.64574e-21)
(0.863679 -0.0737915 -2.60784e-20)
(0.860349 -0.0749258 3.47022e-22)
(0.843458 -0.0696796 -2.61952e-20)
(0.992002 -0.017178 -1.18321e-20)
(0.992308 -0.0162599 -1.079e-21)
(0.992773 -0.016707 3.65801e-21)
(1.25972 -0.0201799 0)
(1.249 -0.0260303 1.94931e-22)
(1.26047 -0.0331636 0)
(1.00184 -0.0107454 2.70206e-21)
(1.00209 -0.0111987 3.96137e-21)
(1.00195 -0.0113519 -3.18063e-21)
(0.983905 -0.0311927 -1.19229e-21)
(0.983681 -0.0320925 -1.3454e-20)
(0.984835 -0.031617 7.82238e-21)
(0.787655 -0.0359057 0)
(0.770517 -0.0358542 0)
(0.801448 -0.0353876 3.35979e-21)
(1.06628 0.0203237 -1.41382e-22)
(1.06607 0.0214588 8.48604e-22)
(1.06724 0.0210957 2.33156e-22)
(1.05546 -0.0795416 0)
(1.0595 -0.0808094 7.75506e-21)
(1.05531 -0.0837509 0)
(-1.22782 0.0133774 -6.19122e-20)
(-1.24994 0.0228075 -5.7277e-20)
(-1.25149 0.0305292 1.23822e-19)
(1.03782 -0.011292 1.20239e-21)
(1.03863 -0.0110602 7.81706e-22)
(1.0386 -0.0120045 1.06317e-21)
(0.970555 0.226897 -1.08653e-21)
(0.97598 0.23782 2.42876e-21)
(0.962225 0.237656 -5.75865e-21)
(0.985489 0.0504893 -2.22631e-20)
(0.990562 0.0460733 -1.33622e-20)
(1.07003 0.0341581 0)
(1.07227 0.0334018 0)
(1.0704 0.0315173 2.29963e-22)
(1.06624 -0.0896666 4.99381e-21)
(1.06227 -0.0912424 -5.87087e-22)
(1.06332 -0.086504 0)
(0.265638 -0.104301 -1.11817e-22)
(0.162126 -0.0481492 -8.50103e-20)
(0.0437278 0.00969674 7.37502e-20)
(1.00003 -0.000119672 -8.65703e-23)
(1.00005 -0.000168862 -7.80813e-23)
(1.00003 -0.000100605 3.76078e-21)
(1.31761 0.518676 0)
(1.29695 0.497945 5.07228e-20)
(1.21976 0.515563 -3.44119e-20)
(1.07114 -0.0254926 1.63033e-21)
(1.07173 -0.0279941 1.43062e-21)
(1.0689 -0.0270687 -2.98714e-21)
(0.96974 -0.0607705 1.449e-20)
(0.965938 -0.0617783 7.78664e-21)
(0.969189 -0.0653002 1.14715e-20)
(0.881264 0.138729 -1.47494e-20)
(0.883319 0.130083 2.89188e-20)
(0.87441 0.132495 3.05871e-20)
(0.752369 -0.082713 0)
(0.73237 -0.0781402 0)
(0.733784 -0.0776902 -3.82518e-21)
(1.0232 -0.00878484 -3.83494e-22)
(1.02298 -0.00936266 -1.45629e-21)
(1.02256 -0.00878818 -1.9561e-22)
(-0.481977 -0.107026 -2.42002e-19)
(-0.561886 -0.0929968 -1.3789e-19)
(-0.449243 -0.102566 -1.05872e-19)
(1.05735 0.0141554 -1.61092e-21)
(1.05623 0.0143005 -1.63398e-23)
(0.987322 0.0269229 0)
(0.988276 0.0222135 4.90988e-21)
(0.992147 0.026796 1.72062e-20)
(0.863196 -0.00473445 1.56706e-20)
(0.861379 -0.0017362 -2.05707e-20)
(0.856292 -0.00029879 -2.02724e-20)
(1.18127 -0.0308569 1.70186e-20)
(1.18067 -0.0243323 4.90378e-21)
(1.18683 -0.0292736 1.98822e-20)
(0.723439 -0.0800562 3.74971e-21)
(0.74265 -0.0842435 -9.26704e-21)
(0.721354 -0.0815689 -2.29316e-20)
(1.00001 -7.36031e-05 -6.74738e-21)
(1.00003 -0.000142229 -4.40914e-21)
(0.834129 -0.133121 0)
(0.74815 -0.136611 -2.61921e-20)
(0.747147 -0.118728 0)
(-0.159602 0.296347 -1.25104e-20)
(-0.100768 0.315953 7.02467e-21)
(-0.0411627 0.322821 1.88884e-20)
(1.01401 -0.04241 -2.99889e-21)
(1.0146 -0.041336 3.21297e-21)
(1.01534 -0.042363 5.70601e-23)
(0.81427 0.0628401 1.12844e-20)
(0.808533 0.06525 -4.9484e-20)
(0.817749 0.0575549 1.23949e-20)
(0.771838 -0.0868762 0)
(0.770583 -0.0875717 6.15944e-21)
(-0.837299 0.0197136 -3.23467e-20)
(-0.866743 0.0270784 1.42527e-20)
(1.06736 -0.561912 2.02887e-21)
(1.05755 -0.568584 1.98125e-20)
(1.05415 -0.572451 3.38015e-20)
(0.82123 -0.0949727 -5.05822e-21)
(0.822702 -0.0945325 -1.95366e-20)
(0.798925 -0.0890055 -1.17782e-20)
(1.02006 -0.0231928 -1.13205e-21)
(1.01934 -0.0236019 -1.95884e-23)
(1.01943 -0.0226167 0)
(1.01686 0.000486982 2.39455e-21)
(1.01657 0.000422404 3.07585e-21)
(1.02802 -0.0575471 -1.58355e-22)
(1.02825 -0.0613761 6.34966e-21)
(1.03122 -0.058556 -4.97989e-21)
(1.06178 -0.0481579 0)
(1.05916 -0.0470381 -4.41023e-22)
(1.06173 -0.0457869 0)
(0.984119 -0.0300937 5.6154e-23)
(0.982723 -0.0305656 7.80772e-22)
(-0.264733 0.130109 -1.23809e-20)
(-0.223586 0.127894 1.33513e-20)
(-0.316699 0.0840111 -1.04566e-20)
(0.975013 -0.025431 -6.98731e-21)
(0.976255 -0.0254255 -1.44272e-20)
(0.975647 -0.0266333 1.72259e-20)
(1.05161 -0.0780882 6.04889e-21)
(1.05579 -0.0756998 5.05822e-21)
(1.06955 0.0110665 -1.86298e-21)
(1.06977 0.0104935 3.8839e-22)
(1.07029 0.0108424 -2.05567e-21)
(0.693361 -0.0367347 -1.82778e-21)
(0.730004 -0.0419848 -5.17316e-20)
(0.698971 -0.0360679 2.76577e-21)
(1.01357 -0.0434301 -4.53437e-21)
(1.01282 -0.042323 -9.44002e-22)
(0.982635 0.0266503 -6.88274e-21)
(0.986658 0.0311941 -9.12343e-21)
(0.811166 0.066123 4.61343e-20)
(0.821836 0.0566932 3.38462e-20)
(0.995627 -0.0933341 6.46319e-21)
(0.995658 -0.0973611 2.9368e-21)
(0.991582 -0.0947114 -5.34029e-21)
(0.781313 -0.00686197 -8.83142e-21)
(0.792448 -0.00796758 -5.48474e-20)
(0.79977 -0.00195033 1.80813e-21)
(1.00162 -0.0102805 -9.59728e-22)
(1.00174 -0.0101457 1.8592e-22)
(0.973783 -0.0594512 -1.00371e-21)
(0.970601 -0.0561701 6.84903e-22)
(0.995898 -0.00790609 -2.38637e-22)
(0.995993 -0.00830767 -2.39711e-21)
(0.995529 -0.00869309 -4.59637e-21)
(1.06132 -0.0502477 1.02768e-21)
(1.06392 -0.0489489 -3.01418e-22)
(0.83809 -0.501653 -7.25421e-21)
(0.864107 -0.500762 -8.42417e-21)
(0.850222 -0.480412 1.01256e-20)
(0.810637 -0.502607 6.40466e-23)
(0.826668 -0.530281 6.5767e-23)
(0.767961 -0.00353125 0)
(0.737854 -0.0108488 1.92021e-20)
(0.694853 -0.138157 0)
(0.688115 -0.154515 0)
(1.0302 -0.0383198 -1.51375e-21)
(1.02899 -0.0390469 -2.74372e-22)
(1.02916 -0.0374179 -1.55543e-21)
(-0.483663 -0.218205 0)
(-0.525714 -0.204577 0)
(-0.519863 -0.205707 2.79782e-20)
(-0.695548 -0.0331774 2.22556e-20)
(-0.795988 -0.0210966 -9.37815e-20)
(-0.705376 -0.0298278 -3.8115e-20)
(1.06587 0.0429842 -9.13377e-22)
(1.06801 0.0449567 1.29077e-22)
(1.06473 0.0464937 -2.44316e-22)
(0.999259 -0.0353243 2.81546e-21)
(0.998326 -0.0351967 1.1872e-21)
(0.998742 -0.0362001 7.04061e-21)
(0.795111 -0.00752336 -1.43885e-20)
(0.764064 -0.00896009 -2.56297e-20)
(1.06753 0.00948795 -7.21256e-22)
(1.06732 0.010005 -7.91711e-22)
(1.06711 0.00975367 -2.25942e-22)
(1.03913 -0.0760998 1.34989e-21)
(1.03625 -0.0754463 7.42746e-22)
(1.03826 -0.0730636 8.21001e-22)
(-1.17306 0.00945796 -7.23235e-20)
(-1.12411 0.0154255 1.10411e-19)
(1.02148 -0.0026016 -2.43699e-21)
(1.0215 -0.00296134 -9.21947e-22)
(1.02204 -0.00273561 2.22657e-21)
(1.32627 0.545782 -9.77805e-20)
(1.38106 0.520518 4.32019e-20)
(1.00876 -0.0232893 -4.09131e-21)
(1.00838 -0.0225973 0)
(1.00809 -0.0231533 0)
(1.03152 -0.0378515 1.46466e-21)
(1.03111 -0.0395473 1.56653e-21)
(1.59291 0.159211 1.35394e-20)
(1.58168 0.191238 8.22992e-20)
(1.61789 0.173839 1.49273e-19)
(1.17549 -0.0334731 3.95037e-20)
(1.18168 -0.0387692 -5.26084e-21)
(0.793351 -0.0355886 4.68916e-21)
(0.799031 -0.0350162 0)
(0.814434 -0.0338932 0)
(0.799299 -0.00882834 3.73434e-20)
(0.810253 -0.00433576 3.33686e-20)
(-0.615581 -0.0719701 -1.39017e-20)
(-0.603408 -0.0670663 -6.00213e-20)
(-0.513988 -0.0835745 1.62353e-19)
(1.06946 -0.0922639 2.25369e-22)
(1.06967 -0.0875443 1.94441e-21)
(0.585833 -0.0471444 0)
(0.546752 -0.0463035 -1.19649e-20)
(0.596636 -0.0485998 9.11406e-21)
(0.993409 -0.0212834 -1.61221e-21)
(0.993925 -0.0215828 5.83943e-21)
(0.993853 -0.0205722 9.61451e-21)
(-0.436661 -0.119645 4.34303e-20)
(-0.527936 -0.104675 -8.48289e-20)
(0.973018 -0.0254501 6.73139e-21)
(0.974212 -0.023791 5.08799e-21)
(1.05773 0.0136878 -3.0611e-22)
(1.05835 0.0140814 -1.3402e-21)
(-0.707882 0.0605592 2.88714e-20)
(-0.676984 0.0582429 1.40459e-20)
(-0.637477 -0.0755504 -6.53089e-20)
(-0.715456 -0.0619257 1.27595e-20)
(0.174872 0.429948 -1.3552e-21)
(0.0879882 0.390462 4.32786e-21)
(0.0809522 0.369671 0)
(1.06707 -0.540292 -2.54706e-20)
(1.06593 -0.521995 0)
(1.04983 -0.5303 1.30354e-20)
(1.01524 -0.0269428 -2.94463e-21)
(1.01449 -0.0272722 5.20288e-21)
(1.0154 -0.0277379 2.78519e-21)
(1.03621 -0.0711938 0)
(1.04012 -0.0734894 -3.01594e-21)
(1.04037 -0.0692336 4.84866e-21)
(0.474857 0.075193 4.0409e-20)
(0.495163 0.0672112 -7.6601e-20)
(0.464344 0.0498185 -2.45581e-21)
(1.41304 -0.252194 -5.4185e-20)
(1.43443 -0.258144 -4.98821e-20)
(1.41712 -0.275118 3.22551e-21)
(1.03247 -0.069747 0)
(1.03292 -0.0742305 -4.42413e-21)
(0.806994 -0.143402 -2.07007e-20)
(0.805286 -0.132324 -5.93019e-20)
(0.816699 -0.137313 5.99978e-21)
(0.81423 -0.178392 -5.18734e-21)
(0.812459 -0.165928 0)
(0.800462 -0.174471 0)
(0.994393 -0.0376105 0)
(0.995437 -0.0377162 -5.97944e-21)
(0.994815 -0.0388457 -7.4853e-21)
(1.02277 -0.0212191 0)
(1.02344 -0.0217613 4.75857e-23)
(1.0233 -0.0207849 -2.90434e-21)
(1.08758 0.0501129 2.21993e-21)
(1.09103 0.0516079 1.52709e-21)
(1.08731 0.053845 1.95421e-21)
(1.02201 -0.02063 -7.08349e-22)
(1.02202 -0.0217475 -8.5107e-22)
(-0.682983 -0.0420196 1.38161e-19)
(-0.598003 -0.0520539 3.48344e-19)
(1.05703 0.0132734 1.57948e-21)
(1.05811 0.0131692 8.03635e-22)
(1.03705 -0.0116035 -1.47274e-21)
(1.03705 -0.0106794 -6.78347e-22)
(1.05753 -0.138113 -8.59315e-22)
(1.06098 -0.143427 -7.67591e-22)
(1.05403 -0.142924 7.4741e-22)
(1.02079 -0.0228507 4.58523e-22)
(1.02088 -0.0238204 -2.90727e-21)
(1.18981 0.241771 -3.74135e-21)
(1.17479 0.245165 -2.57751e-21)
(1.18617 0.257958 1.16837e-21)
(1.18072 0.0758833 1.41969e-20)
(1.17424 0.0720835 1.58445e-20)
(1.18122 0.0679457 -1.82184e-20)
(0.995004 -0.00273164 4.76892e-21)
(0.996444 -0.00625557 -2.50812e-21)
(0.992207 -0.0053752 -7.22636e-21)
(1.06921 0.0116413 6.92465e-22)
(1.06882 0.0113128 1.56868e-21)
(1.01638 -0.0069407 9.26192e-22)
(1.01624 -0.00726527 -4.83179e-21)
(1.01678 -0.00716327 1.06731e-21)
(1.01487 -0.000581049 -3.0557e-21)
(1.01489 -0.000883997 2.12327e-21)
(-0.143385 0.00619058 0)
(-0.186289 0.0138561 2.28282e-20)
(-0.434291 -0.225374 0)
(-0.414306 -0.22792 0)
(1.12595 -0.463237 0)
(1.11108 -0.468174 0)
(1.12792 -0.479634 0)
(1.03182 -0.0101072 -3.26023e-21)
(1.03089 -0.0103712 -5.4547e-22)
(1.03102 -0.00957194 5.61724e-22)
(1.02416 -0.0404313 -1.28067e-21)
(1.02532 -0.040765 1.34199e-22)
(1.02442 -0.0418693 2.93851e-21)
(0.858842 -0.00674103 4.45794e-21)
(0.870016 -0.00550799 1.74958e-20)
(0.858984 -0.00427656 4.45742e-21)
(0.95683 0.144456 -2.9821e-21)
(0.957183 0.152551 7.90656e-21)
(0.948492 0.14588 2.12887e-20)
(0.593546 -0.215094 1.9996e-20)
(0.617421 -0.20911 7.78853e-20)
(0.61181 -0.239063 -7.82734e-20)
(1.01612 -0.026738 -3.6359e-21)
(1.01522 -0.026155 -2.67603e-21)
(1.22702 -0.151274 -3.14689e-20)
(1.22153 -0.13993 -2.91438e-20)
(1.21658 -0.151798 -1.36686e-20)
(0.866031 0.00854528 1.11291e-20)
(0.872936 0.00733624 -2.40005e-22)
(0.863826 0.0116501 1.56171e-20)
(1.05894 0.028401 8.32527e-22)
(1.0573 0.0297073 6.68892e-23)
(1.06013 0.0303825 2.68925e-21)
(1.05823 -0.0917886 -7.52325e-22)
(1.06084 -0.0952205 -5.36167e-22)
(1.12572 -0.0298782 0)
(1.1246 -0.0248706 -1.3069e-20)
(1.12111 -0.0290796 0)
(0.928816 -0.145646 -8.07759e-20)
(0.933218 -0.121143 -8.52733e-20)
(0.863964 -0.00746906 0)
(0.871988 -0.00976525 2.87802e-20)
(1.26931 -0.0168426 0)
(1.25872 -0.0107094 -2.81697e-20)
(0.0200325 0.384167 8.38266e-21)
(-0.0389103 0.362018 -1.08201e-21)
(-0.0985212 0.344371 3.11179e-20)
(0.712346 -0.136854 -2.23183e-20)
(-0.600065 -0.0597356 1.45872e-20)
(-0.684864 -0.0527955 -6.8704e-20)
(0.854874 -0.111099 -1.9317e-20)
(0.844955 -0.109752 -4.393e-20)
(0.850045 -0.102144 -1.06846e-21)
(1.05747 0.0241353 -2.09397e-21)
(1.05856 0.0226272 2.47694e-22)
(1.0564 0.0220313 2.49996e-21)
(1.60564 0.129164 5.60161e-20)
(1.56147 0.14468 7.4215e-20)
(0.981555 -0.0566237 -1.13397e-21)
(0.981362 -0.0545885 -1.26797e-21)
(0.983398 -0.055084 1.82328e-22)
(0.992854 -0.0210611 -1.13762e-20)
(0.992925 -0.022089 -7.19113e-21)
(0.73236 -0.325837 0)
(0.713524 -0.339507 2.42862e-20)
(0.737635 -0.345332 -5.97678e-22)
(1.13011 0.540482 6.81154e-22)
(1.14479 0.573289 1.76399e-20)
(1.10917 0.555627 -6.17337e-21)
(1.02333 -0.0753129 -2.36832e-21)
(1.02351 -0.0776472 -3.74568e-21)
(1.02077 -0.0769963 4.80407e-22)
(1.02143 -0.00226211 -8.07694e-22)
(1.02095 -0.00249649 2.7594e-22)
(-0.662836 -0.0773024 -3.93746e-20)
(0.733096 -0.0635029 3.17501e-20)
(0.743244 -0.0648128 8.04484e-21)
(0.717764 -0.0580779 -6.25774e-22)
(1.23422 -0.159734 -1.75267e-20)
(1.23752 -0.148081 1.41252e-20)
(1.03145 -0.0665117 2.71291e-21)
(1.02865 -0.069253 0)
(1.205 0.239756 -2.41593e-22)
(1.1921 0.228929 1.61709e-20)
(1.18742 0.0799413 4.19467e-21)
(1.1797 0.0839 2.09702e-22)
(0.9772 0.196022 -4.85675e-21)
(0.983241 0.205801 -1.89193e-22)
(0.988556 0.195572 -1.04764e-21)
(0.976078 -0.0343671 4.14315e-21)
(0.976972 -0.0356315 -1.24476e-20)
(0.975165 -0.0358624 2.65637e-21)
(0.985351 -0.0211198 -1.09613e-21)
(0.984648 -0.0205784 -6.66598e-21)
(0.985604 -0.0200577 -6.94019e-21)
(1.00174 -0.00841456 0)
(1.00166 -0.00861784 0)
(1.00148 -0.00792184 2.25027e-21)
(-0.213644 0.275353 -4.04603e-20)
(-0.266897 0.266669 2.96447e-21)
(1.06101 0.0236606 -1.52147e-21)
(1.06008 0.0228748 5.91174e-22)
(1.06116 0.0221235 7.67513e-22)
(1.05687 0.00822876 5.53372e-22)
(1.05732 0.00855426 7.51415e-23)
(1.05766 0.00811838 -2.29819e-22)
(1.00007 -0.000320257 8.49474e-23)
(1.00008 -0.000279322 7.4422e-23)
(1.00012 -0.000407937 -2.61156e-23)
(0.727024 -0.0801127 0)
(0.729975 -0.0786936 0)
(0.748083 -0.0840302 -2.0878e-22)
(1.08391 0.0492494 0)
(1.08699 0.0468524 2.77391e-21)
(1.02819 -0.0534771 -6.39879e-21)
(1.02432 -0.0560094 0)
(0.798755 -0.0383394 -5.00494e-21)
(0.768062 -0.0319959 6.30627e-21)
(0.884026 -0.0887947 0)
(0.863283 -0.0831778 1.34117e-20)
(0.881337 -0.0890282 -9.97987e-21)
(0.886146 -0.0868207 0)
(0.903837 -0.0931502 0)
(-0.317108 0.125201 0)
(-0.223956 0.171449 0)
(1.06084 -0.133215 0)
(1.05447 -0.133014 0)
(0.798821 0.202649 2.74746e-20)
(0.799266 0.21484 -2.35181e-20)
(0.787704 0.206239 6.73542e-22)
(1.00141 -0.00983656 -3.08079e-21)
(1.00122 -0.00936044 6.64815e-21)
(1.0013 -0.0092153 3.14881e-21)
(1.01656 -0.00654986 2.97086e-21)
(1.01599 -0.00662184 4.36194e-21)
(1.09714 0.0756762 -5.90491e-21)
(1.10208 0.0768737 -4.11273e-22)
(1.10003 0.071571 0)
(1.00104 -0.000403047 0)
(1.00093 -0.000517187 1.65111e-21)
(1.00084 -0.000331181 -4.12005e-21)
(0.229767 0.448166 -3.60269e-22)
(0.259425 0.462502 6.38455e-22)
(0.941502 -0.0144046 7.1408e-21)
(0.946543 -0.0140023 1.67263e-20)
(0.944077 -0.0186652 6.90082e-21)
(1.01002 -0.0543179 3.29908e-21)
(1.00698 -0.0519657 7.29225e-21)
(1.00672 -0.0569352 8.28952e-21)
(1.01675 -0.00621283 -3.66803e-22)
(1.0171 -0.00648809 0)
(1.06853 0.00921939 6.76009e-22)
(1.068 0.00933765 -1.27994e-21)
(1.0682 0.00975128 -2.23826e-21)
(1.01329 -0.0572284 1.86424e-21)
(1.01403 -0.0523992 -7.69402e-21)
(0.954861 0.135881 -1.24313e-20)
(0.964437 0.14152 -1.03019e-20)
(1.08449 -0.553089 -1.06077e-20)
(1.06356 -0.128105 1.06139e-21)
(1.06031 -0.123342 -1.379e-21)
(1.06588 -0.122966 2.23026e-21)
(1.05808 0.0260168 -1.46381e-21)
(1.0605 0.0268845 -1.6086e-21)
(-1.09415 0.0287052 -2.18689e-20)
(-1.07587 0.0273847 2.98432e-20)
(0.742062 -0.0671035 9.17677e-21)
(0.724107 -0.063003 -3.91878e-21)
(0.98992 0.0184999 1.25376e-21)
(0.984956 0.018581 -1.17702e-20)
(0.896069 -0.0837209 -2.9719e-20)
(0.8913 -0.079586 -2.14056e-20)
(0.890344 -0.0864639 -3.89061e-20)
(0.980911 -0.0363755 2.78753e-22)
(0.980107 -0.0353103 1.13203e-20)
(0.981627 -0.0351164 7.8546e-21)
(1.02231 -0.01424 2.14041e-21)
(1.02249 -0.0149091 9.31333e-22)
(1.0231 -0.0142891 7.15045e-22)
(1.1491 0.521833 -4.54751e-20)
(1.11244 0.50667 2.80613e-21)
(1.06172 0.0253162 -1.21884e-22)
(1.0629 0.0239678 -9.70919e-23)
(0.756681 -0.0294266 -1.25182e-20)
(0.701392 -0.0302488 -1.11293e-20)
(1.08585 -0.00734024 -2.43749e-21)
(1.08833 -0.00703096 -5.29893e-21)
(1.02302 -0.0727842 0)
(1.02578 -0.0736574 -2.85932e-21)
(1.04359 -0.0750925 -5.13202e-21)
(1.0477 -0.0767528 3.87741e-21)
(1.04777 -0.0726935 -2.36284e-21)
(0.991263 0.0160669 1.12397e-20)
(0.993898 0.0193527 -5.46719e-21)
(1.04473 -0.00157875 -6.10192e-23)
(1.04575 -0.00172836 2.8081e-23)
(1.04506 -0.00225612 4.26662e-22)
(1.04715 -0.0179948 1.97872e-22)
(1.04586 -0.0184585 1.9678e-22)
(1.04609 -0.0171538 -3.12354e-23)
(0.693812 -0.169033 -2.28737e-20)
(0.715137 -0.17412 -3.6471e-21)
(0.702574 -0.187575 2.93431e-20)
(1.61572 0.102843 5.54616e-20)
(1.62371 0.0717187 -6.73588e-20)
(1.58325 0.0877234 -8.28163e-20)
(0.573742 0.310018 -8.2682e-23)
(0.579952 0.337526 -4.88706e-20)
(0.610386 0.318949 3.0174e-20)
(0.79783 0.0815493 1.49748e-20)
(0.79276 0.0873141 9.15125e-21)
(0.790493 0.0895906 1.55994e-20)
(1.0666 0.0189057 1.86084e-22)
(1.06532 0.0191749 -1.47189e-22)
(0.866874 -0.769432 -4.99422e-21)
(0.850703 -0.802894 1.43524e-20)
(0.894464 -0.802132 2.62573e-21)
(0.534429 0.293867 0)
(0.575575 0.28585 -2.06842e-20)
(0.939061 -0.0362909 1.86864e-20)
(0.941455 -0.0349536 -1.61085e-20)
(0.938497 -0.0331806 -1.21337e-20)
(1.05646 0.0115035 0)
(1.05651 0.0132443 0)
(1.05763 0.0117781 -2.34964e-21)
(0.867533 -0.0704089 2.43882e-20)
(0.884544 -0.0733723 1.24765e-20)
(0.867752 -0.068447 4.79801e-21)
(1.08639 -0.0197264 -2.10841e-21)
(1.08856 -0.0203804 -1.9119e-21)
(1.08618 -0.0220662 -4.31646e-21)
(1.06336 -0.0823865 -8.90227e-22)
(1.06747 -0.0846411 -8.64103e-21)
(1.06299 -0.0867857 -4.48702e-21)
(1.02323 -0.0404055 0)
(1.02382 -0.0394931 0)
(1.63352 0.116909 9.70754e-21)
(1.00005 -0.00138125 1.41682e-23)
(1.00008 -0.00172319 1.73144e-21)
(1.00007 -0.00176941 -2.78992e-22)
(1.18019 -0.0162689 0)
(1.17993 -0.00994001 9.48748e-21)
(1.18606 -0.0156925 0)
(1.04278 -0.0817748 -1.62912e-21)
(1.04575 -0.0815072 -5.05811e-22)
(1.04459 -0.0845365 7.08623e-22)
(0.984602 -0.0290434 -3.78019e-22)
(0.985429 -0.0296862 -6.90636e-22)
(0.954779 0.05978 9.08016e-21)
(0.950527 0.0568515 1.83721e-20)
(0.950168 0.0623837 -7.64136e-21)
(1.04765 -0.00929758 1.42786e-22)
(1.0465 -0.00897326 -9.58501e-23)
(1.04746 -0.0082436 1.83633e-22)
(0.159895 -0.521907 -6.21465e-21)
(0.117794 -0.565128 -3.52456e-20)
(1.01642 -0.0058824 -3.87034e-22)
(1.01698 -0.00585447 1.52777e-22)
(0.985762 0.0550328 -5.64056e-22)
(0.986334 0.0604269 7.92794e-21)
(0.990856 0.0562477 -6.91579e-21)
(0.791574 -0.0323448 4.45316e-21)
(0.740038 -0.0298204 1.78739e-20)
(0.0603483 0.388232 -1.07863e-21)
(0.00161113 0.375922 -1.54688e-20)
(0.136235 0.422773 1.88097e-20)
(0.902745 -0.0927725 3.76312e-21)
(0.908123 -0.0909411 1.26293e-20)
(0.906693 -0.0971502 1.19082e-20)
(1.0566 0.00976184 0)
(1.05516 0.0111541 0)
(1.00002 -0.000809658 -3.77161e-21)
(1.00001 -0.00056748 -4.06031e-22)
(1.00001 -0.000572113 -4.31725e-21)
(0.743831 -0.312278 0)
(0.723531 -0.304406 0)
(1.00352 -0.0185514 0)
(1.00336 -0.0177135 3.49771e-21)
(1.00382 -0.0182612 0)
(1.17379 -0.018202 -1.31599e-20)
(-0.257085 -0.0906844 4.54304e-20)
(-0.313854 -0.0842644 -1.54603e-20)
(-0.281432 -0.0383242 5.07528e-20)
(0.899581 -0.0889402 1.2221e-20)
(0.901211 -0.0821545 8.15068e-21)
(1.08393 -0.0188938 -1.44828e-21)
(1.08613 -0.017103 0)
(0.996658 -0.00503931 1.01788e-22)
(0.996316 -0.00574709 -6.13903e-22)
(0.805249 0.0722142 0)
(0.803976 0.076346 2.0328e-20)
(1.02388 -0.00869833 1.94895e-21)
(1.02333 -0.0081475 -3.79287e-22)
(0.405279 -0.19084 -1.12621e-20)
(0.563726 -0.3049 -1.21086e-21)
(0.787048 0.0930319 -2.34728e-20)
(0.781394 0.0996742 -1.80176e-20)
(0.780598 0.102671 -1.91207e-20)
(1.3918 -0.246928 -4.58077e-20)
(1.40813 -0.229866 3.89206e-20)
(1.00007 -0.000356815 0)
(1.00004 -0.000242686 -3.99358e-21)
(1.15176 -0.48922 1.56525e-20)
(1.02736 -0.426186 0)
(0.980091 -0.41805 2.74836e-20)
(0.800935 -0.0100141 -6.15157e-22)
(0.806818 -0.0093522 -4.30357e-21)
(0.816023 -0.00578806 1.11563e-21)
(0.844004 -0.100551 1.84146e-20)
(0.817949 -0.095413 1.49599e-20)
(1.06378 -0.0787941 4.09198e-21)
(1.08553 0.0218529 2.72722e-22)
(1.08751 0.0214044 2.93105e-21)
(1.08533 0.0201561 1.52519e-21)
(0.699773 -0.373775 -2.13737e-20)
(0.694648 -0.353423 -1.3843e-21)
(0.674714 -0.367035 1.40595e-21)
(0.959474 0.0570342 -5.18426e-22)
(0.959334 0.0623856 3.72715e-22)
(1.06889 0.00866907 1.47257e-21)
(1.06914 0.00920672 1.64061e-21)
(1.08048 -0.515531 0)
(1.06592 -0.505448 -1.17004e-20)
(1.08674 -0.141826 3.38545e-21)
(1.08013 -0.142794 2.41997e-21)
(1.08277 -0.136713 7.30589e-21)
(0.641212 -0.0437079 -1.47892e-20)
(0.617849 -0.0380481 -3.18969e-21)
(0.604284 -0.0388813 -2.88189e-21)
(1.01051 0.128752 -3.41735e-23)
(1.00633 0.121968 -1.22772e-20)
(1.0151 0.12405 7.09359e-21)
(1.01148 -0.000625525 1.81132e-21)
(1.01203 -0.00086662 -2.03103e-21)
(1.01155 -0.00127482 -2.48155e-21)
(1.07488 0.00613101 -1.45145e-21)
(1.0735 0.0055398 -1.30223e-21)
(1.07471 0.00478376 -1.89321e-21)
(1.03996 -0.077683 1.10707e-21)
(0.72147 -0.0787985 1.0582e-20)
(0.707642 -0.0740339 0)
(0.549038 -0.05635 0)
(0.567165 -0.059443 0)
(0.549311 -0.0582688 0)
(1.02164 -0.0141403 1.1676e-21)
(1.02213 -0.013647 -2.19663e-22)
(0.573847 -0.227452 7.88118e-20)
(0.994415 -0.0218317 0)
(0.99493 -0.0220698 0)
(0.99487 -0.0211351 -3.3907e-21)
(0.965412 0.011753 0)
(0.964553 0.0161201 0)
(0.969045 0.0146117 1.26062e-20)
(0.960579 0.160573 0)
(0.964052 0.170238 -1.2193e-20)
(0.970036 0.159982 -8.44739e-21)
(1.07586 0.00641005 -1.22863e-21)
(1.07485 0.00674464 7.58525e-22)
(1.08125 0.0481637 4.41787e-22)
(1.08072 0.0509792 2.78862e-21)
(1.01365 0.135383 7.61365e-22)
(1.00457 0.133115 -3.84385e-22)
(1.00395 -0.0322799 -5.47746e-21)
(1.00481 -0.0327494 -1.46377e-21)
(1.00449 -0.0316349 1.24291e-21)
(0.809668 -0.153775 1.81173e-20)
(0.797267 -0.149081 5.34864e-20)
(1.02869 -0.0424362 -2.07144e-20)
(1.02858 -0.0464339 -4.84388e-21)
(1.03184 -0.0438302 -4.23018e-21)
(0.891859 0.0923769 1.51302e-20)
(0.889645 0.100016 -6.42444e-21)
(0.897553 0.0961661 -2.30525e-20)
(0.998622 -0.0136895 0)
(0.998809 -0.0130866 3.31362e-21)
(0.998573 -0.0128264 0)
(0.985013 -0.0280741 3.05632e-21)
(0.983633 -0.0284659 -6.75031e-21)
(0.897581 -0.0947344 -3.28452e-20)
(0.916915 -0.0697119 -8.74885e-21)
(0.918107 -0.0735123 1.45535e-20)
(0.916579 -0.0689746 -3.53172e-21)
(-0.127344 -0.0302113 -4.92641e-21)
(0.0555884 0.01573 -1.51638e-19)
(-0.177085 -0.0521404 -1.20217e-19)
(1.06402 0.0355182 1.403e-22)
(1.06604 0.0345572 8.13082e-23)
(1.06574 0.0375206 1.3051e-22)
(1.03264 -0.00992905 -9.03219e-22)
(1.03252 -0.010751 -1.32184e-21)
(0.953479 0.128528 -3.74665e-21)
(0.946543 0.130654 -7.64826e-22)
(0.97239 0.1871 9.01824e-21)
(0.967641 0.178135 1.49458e-21)
(0.978021 0.177731 7.08388e-21)
(0.998034 0.00822643 5.20469e-21)
(1.00006 0.0038434 -6.76064e-23)
(1.00255 0.00773438 -7.20491e-21)
(1.07759 0.0467343 -4.35089e-24)
(1.08095 0.0447718 2.35401e-21)
(0.916207 -0.0668736 1.2986e-20)
(0.909578 -0.0696018 0)
(0.646597 0.0360017 1.26542e-20)
(0.657699 0.0317502 1.17569e-20)
(0.636404 0.0231629 -2.91699e-20)
(1.08116 0.00412118 0)
(1.08238 0.00325062 1.74394e-21)
(1.08259 0.00501613 -2.14384e-21)
(1.06841 0.0175534 3.41876e-23)
(1.06799 0.0182584 2.80537e-22)
(1.06759 0.0171761 9.36022e-23)
(0.68322 -0.228001 1.42561e-20)
(0.675573 -0.213997 -9.30805e-20)
(0.572324 -0.213224 -8.42707e-20)
(1.02484 -0.0188628 -7.7008e-22)
(1.02547 -0.019485 2.11394e-21)
(1.02428 -0.0195084 -2.24706e-21)
(1.00178 -0.0081427 1.35788e-22)
(1.00182 -0.0079034 1.32004e-22)
(1.00156 -0.00748468 -4.44958e-21)
(0.996683 0.011402 4.88914e-21)
(0.994333 0.00770709 1.11485e-20)
(1.24551 -0.0722875 -2.41643e-20)
(1.23782 -0.0648753 -7.90533e-21)
(1.23452 -0.0752241 -2.59962e-20)
(1.02457 -0.0084766 -8.90788e-23)
(1.02516 -0.00829338 -1.91938e-22)
(1.02458 -0.00787952 -2.04195e-22)
(1.00012 -0.00175745 -2.50583e-21)
(1.00009 -0.00172408 5.29241e-21)
(1.00006 -0.0013894 8.8377e-21)
(1.00364 -0.0192049 3.1092e-21)
(1.00323 -0.0186601 -4.39656e-21)
(1.00455 -0.000854482 6.5026e-22)
(1.00491 -0.000882851 -4.65739e-23)
(1.00444 -0.000505063 2.74012e-21)
(1.0775 0.0200561 1.04023e-21)
(1.07828 0.0215989 -1.24399e-21)
(1.07643 0.0211644 3.72957e-22)
(1.002 -0.00885172 4.23241e-21)
(0.866377 -0.0724112 -1.99115e-21)
(0.882647 -0.0772931 -2.54338e-20)
(1.06926 0.0360982 1.83022e-22)
(1.06788 0.0339323 1.9039e-23)
(1.01903 -0.0340562 1.01432e-21)
(1.01815 -0.0343672 -6.5558e-22)
(1.01905 -0.0349244 -3.94505e-21)
(0.70499 -0.0773919 -4.93425e-22)
(0.855928 -0.00795919 0)
(0.845701 -0.00626866 -3.85629e-20)
(0.976962 -0.0305088 -5.87259e-21)
(0.977719 -0.031725 -6.32044e-21)
(0.978488 -0.0305503 -6.81244e-21)
(0.981042 0.0540424 -1.41474e-20)
(0.166671 0.115506 8.66801e-21)
(0.141954 0.0798743 1.73074e-20)
(0.199398 0.104471 6.39562e-20)
(0.979827 -0.0581071 5.53906e-21)
(0.982279 -0.0586182 -1.10861e-21)
(0.975991 -0.0292718 5.08831e-21)
(0.975046 -0.0307886 -6.40456e-21)
(1.07033 0.0389781 1.81466e-22)
(1.06793 0.0389056 8.67573e-22)
(0.792191 -0.0275771 -3.92041e-21)
(0.794948 -0.0237616 3.2752e-20)
(0.815441 -0.028161 2.7332e-20)
(0.0863012 0.0481703 3.32807e-20)
(-0.00718307 0.044762 1.55987e-19)
(0.063356 0.0325566 0)
(1.07535 0.0783113 -7.87779e-22)
(1.0765 0.0839241 -3.85451e-21)
(1.08037 0.0790988 -2.78233e-21)
(1.00245 -0.000612629 0)
(1.00233 -0.000875723 0)
(0.799824 0.188952 2.33339e-20)
(0.81205 0.198082 9.98225e-21)
(1.00151 -0.0104671 -2.45478e-22)
(1.07764 0.0889829 -1.7721e-22)
(1.08234 0.0909165 2.41993e-21)
(1.0778 0.0949536 7.29675e-23)
(0.118869 0.118559 -7.53651e-20)
(0.201714 0.159258 -1.19746e-19)
(0.895469 0.0789331 -5.96031e-21)
(0.893897 0.0859165 3.04893e-20)
(0.901161 0.0816533 -6.01452e-21)
(1.05636 0.00765361 3.166e-22)
(1.05595 0.00814321 1.20545e-22)
(0.695935 -0.244087 8.92157e-20)
(0.796079 -0.246941 1.39898e-19)
(1.03042 -0.164321 -2.29175e-19)
(1.1552 -0.157198 -3.42973e-20)
(1.14988 -0.186376 2.54601e-20)
(-0.653382 -0.0144027 -5.22473e-20)
(-0.631003 -0.00862504 -1.14871e-19)
(-0.543003 -0.0208612 -1.25271e-19)
(1.21898 0.237121 -2.30479e-22)
(1.22221 0.222312 -2.29967e-20)
(1.23457 0.233918 0)
(0.782693 -0.121167 5.4009e-20)
(0.783094 -0.109332 -1.94305e-21)
(0.770247 -0.113967 1.79102e-20)
(0.0712531 0.401698 -2.43159e-20)
(0.132054 0.423665 -1.38972e-20)
(0.879309 -0.00302417 3.01896e-20)
(0.881603 -0.000219941 5.24645e-21)
(0.877097 -0.000120094 2.26306e-21)
(0.886843 0.144002 -3.00217e-20)
(0.878313 0.146521 -2.14934e-20)
(1.04836 -0.0177031 -4.47984e-23)
(1.04809 -0.0190709 1.81943e-23)
(-1.05869 -0.0115581 -8.80025e-20)
(-0.982795 -0.0255791 7.76387e-20)
(-0.967882 -0.0252936 4.99487e-22)
(0.441728 -0.0426248 2.03028e-20)
(0.439805 -0.0447692 5.83417e-21)
(0.450854 -0.458403 1.74081e-20)
(0.420666 -0.430139 3.53287e-20)
(0.418196 -0.476434 -4.76601e-22)
(0.481831 -0.440944 1.90676e-20)
(0.488169 -0.482638 -1.41391e-20)
(0.93711 -0.0378066 2.22952e-20)
(0.938678 -0.0386648 5.5108e-21)
(1.08974 0.0835824 3.24773e-21)
(1.09355 0.0796836 -4.55686e-21)
(1.09496 0.0860291 -1.85604e-22)
(0.956562 -0.137401 1.68598e-20)
(0.960161 -0.132084 -9.90781e-21)
(0.963515 -0.138435 -3.73651e-21)
(0.599625 -0.0492426 8.56278e-21)
(0.571897 -0.0463922 0)
(0.788304 -0.170801 -3.1359e-20)
(0.786734 -0.157026 4.09194e-21)
(0.772707 -0.166227 -3.07573e-20)
(1.00933 -0.00201832 4.89814e-21)
(1.0093 -0.00240048 -2.02863e-21)
(1.00973 -0.00221005 2.29305e-21)
(1.01696 0.000491338 -3.44396e-21)
(1.01689 0.00043438 -1.41596e-21)
(1.09619 -0.0636771 1.61918e-21)
(1.10033 -0.0628015 2.91239e-21)
(1.09819 -0.0669736 2.57845e-21)
(-0.754913 -0.0119376 9.5219e-20)
(-0.677187 -0.0230153 1.4776e-19)
(0.22001 -0.551554 2.06962e-20)
(1.02534 -0.018161 1.01907e-21)
(1.0242 -0.0182394 4.58463e-22)
(-0.0146345 0.359484 4.34594e-21)
(0.94398 -0.134939 -6.58298e-21)
(0.950764 -0.136622 1.03823e-20)
(0.94776 -0.130228 -3.58048e-21)
(1.12653 -0.033485 0)
(1.12973 -0.0294857 0)
(1.05799 0.00892683 -3.62754e-22)
(1.05724 0.0090243 -1.93149e-22)
(0.783111 -0.0276657 -4.6352e-20)
(0.732833 -0.0211535 -1.53809e-20)
(0.951183 0.120382 -1.37383e-20)
(0.959842 0.124889 -3.07532e-21)
(1.04753 -0.081034 8.96769e-21)
(1.04096 -0.078827 -2.10402e-21)
(1.03939 -0.0815205 2.33832e-21)
(1.08182 -0.0183587 8.47813e-24)
(1.08209 -0.0204526 -2.96641e-21)
(0.711326 -0.0870671 -4.18354e-21)
(0.709704 -0.0878127 -7.98341e-22)
(0.694517 -0.0841643 -8.67681e-21)
(0.980308 -0.037715 -9.90154e-21)
(0.981837 -0.0374176 -7.05834e-21)
(0.966102 0.196467 -4.56102e-21)
(1.07961 0.00326208 0)
(1.07969 0.00507922 0)
(1.07279 0.0386306 8.26529e-23)
(1.07145 0.0417356 7.27602e-22)
(0.94096 -0.140651 0)
(0.937059 -0.133645 0)
(0.993961 -0.022546 -3.97864e-21)
(1.02025 -0.0337968 4.74668e-21)
(1.01916 -0.0330755 2.66909e-21)
(1.40625 0.101401 1.42053e-20)
(1.4191 0.0870273 1.87297e-19)
(1.42804 0.11285 6.10013e-20)
(1.45787 -0.266566 0)
(1.45103 -0.241805 3.67548e-20)
(1.00347 0.116491 -1.64548e-21)
(1.00008 0.11054 2.40752e-20)
(1.00783 0.111687 4.7824e-21)
(0.922229 -0.171373 6.7815e-20)
(0.711625 -0.0863053 0)
(0.728421 -0.0899316 -3.94616e-21)
(1.0258 -0.0784002 -1.56543e-21)
(1.02355 -0.0802156 -3.28742e-21)
(0.79459 0.0833292 2.39914e-21)
(0.953081 0.0233611 -2.2358e-20)