/*--------------------------------*- C++ -*----------------------------------*\
| =========                 |                                                 |
| \\      /  F ield         | OpenFOAM: The Open Source CFD Toolbox           |
|  \\    /   O peration     | Version:  v2012                                 |
|   \\  /    A nd           | Website:  www.openfoam.com                      |
|    \\/     M anipulation  |                                                 |
\*---------------------------------------------------------------------------*/
FoamFile
{
    version     2.0;
    format      ascii;
    class       volScalarField;
    location    "600";
    object      p;
}
// * * * * * * * * * * * * * * * * * * * * * * * * * * * * * * * * * * * * * //

dimensions      [0 2 -2 0 0 0 0];


internalField   nonuniform List<scalar> 
13917
(
0.0015642
0.0357141
-0.0168906
0.00115145
0.0348971
0.460379
-0.0185587
-0.017922
-0.0375838
-0.027011
-0.0209095
-0.0174938
0.00073519
-0.0170549
0.0834548
0.0653424
0.0411546
-0.0239823
-0.0172451
0.0322826
0.0338549
-0.0152749
0.03488
-0.022708
0.0431892
-0.0193606
0.224735
0.248959
0.174476
-0.0540623
-0.00739491
0.0216137
0.186459
0.113955
0.0447023
-0.0201214
0.0347481
-0.0184835
-0.00241621
-0.0239592
0.0261993
0.0339668
0.0165408
0.283142
0.0190804
0.133652
-0.0230439
-0.0249943
0.522408
0.0293667
-0.00278138
0.0661619
0.523264
0.118382
0.0424062
0.000847143
-0.0209942
0.0491027
0.00869611
0.0196601
-0.18636
0.0347189
-0.0172603
0.0323897
0.453523
-0.206787
0.0311579
0.0384475
-0.0278296
0.0232379
0.0348592
-0.0389168
-0.0438655
0.0426456
0.518877
-0.019028
-0.0305865
0.0128966
-0.0229281
0.0341037
0.0341705
0.0306474
0.446584
-0.0184887
-0.218569
0.0129739
0.0338412
-0.176563
-0.00225978
0.0162438
-0.0316453
-0.0475981
0.0270204
0.0740483
-0.172623
0.447498
-0.0229268
-0.024977
-0.0215886
0.344867
0.0256166
0.170964
0.289033
0.00765357
0.0253539
-0.0377374
0.143602
-0.0257315
0.0401648
-0.00754247
-0.113178
-0.0240109
-0.0192577
-0.0361233
0.0816487
0.492099
0.0379136
0.507165
-0.0187875
0.120287
0.033984
-0.0281368
-0.0165953
0.242066
0.0284377
0.0722346
0.022746
0.0285747
0.0181518
0.457338
-0.0196829
0.0790238
0.0193434
0.0337556
-0.0722727
-0.0207094
0.00344707
0.358746
0.0319587
0.118321
-0.0202665
0.021175
0.0734383
0.315415
0.0395039
-0.033702
0.12461
0.0647116
0.0207476
0.0258289
-0.0185441
0.483527
-0.0198249
0.0496625
0.00876279
-0.242397
0.0259049
-0.0226619
-0.029926
-0.0742078
0.0990933
0.215727
0.0341005
-0.022609
-0.0190344
-0.0213423
0.00833489
-0.0211536
0.0210654
0.175627
0.034982
-0.143419
-0.0197804
0.0456642
-0.0275272
0.0574351
-0.017909
0.514366
-0.0323702
0.0352553
-0.0504496
-0.0104648
0.0206828
0.0339599
0.113228
-0.0211936
-0.100639
-0.236721
-0.0128196
-0.0205353
-0.0210437
-0.21881
-0.104224
0.0360935
0.369216
0.21715
0.0232804
0.027282
0.123216
-0.159337
-0.0032283
0.0295238
-0.019315
-0.0180941
-0.0429714
-0.0492501
0.0439357
0.0501298
-0.0241321
-0.0178815
0.0718392
-0.0178354
-0.0431171
-0.020416
0.0256862
0.364226
-0.021616
-0.0975279
0.0383364
-0.171703
0.0350032
-0.0477505
0.0265163
-0.0175884
-0.0390528
0.0656245
-0.132384
0.00708717
0.0259215
-0.0201574
-0.0196549
-0.0123514
-0.0152593
-0.0440277
0.0238732
0.0198619
-0.031754
-0.232363
0.0341925
0.030703
-0.0265179
-0.0238551
0.0310945
-0.0207524
-0.0375655
0.207592
0.0027494
0.0340942
0.0833903
-0.0373112
0.00980107
-0.0627504
0.365246
0.0223991
0.0489569
-0.0184435
-0.025971
-0.0196047
0.113205
0.0813868
0.0312288
-0.0161918
-0.0724634
-0.0217345
0.0263249
-0.0593055
-0.017544
-0.0218734
-0.0202108
-0.0194984
0.0341932
0.0277676
-0.0229226
-0.022586
-0.0316875
0.00905843
-0.0507628
-0.0127573
0.0180129
-0.113789
0.0317491
-0.0271315
-0.00255416
0.0310701
0.0646859
0.0537851
0.217382
-0.0205582
0.0696371
0.0114868
-0.0732825
-0.0137642
-0.0697581
0.0382591
-0.0237471
0.0296253
0.011138
0.0374587
0.0986068
0.0303829
-0.0502311
0.00532963
0.0207954
-0.0195
0.0295056
0.519427
0.057916
-0.0440645
0.0188817
0.0480086
-0.119771
-0.0172832
0.0380006
0.0272243
-0.114375
0.0324169
-0.0428677
0.0192679
-0.0181766
0.00497679
-0.10422
-0.010674
0.509321
0.0957537
-0.0753886
0.383764
0.0626824
-0.0242736
0.0361431
0.0540176
-0.0174852
0.363409
-0.0173073
0.108742
-0.0198704
0.0158719
-0.166279
0.376871
0.109187
0.0989501
-0.0174356
0.0340966
0.0312548
-0.114602
0.0592456
0.0572337
-0.0176026
0.121137
0.0416079
-0.0212129
0.203576
0.0266922
-0.0170232
-0.02023
0.0318443
0.0303518
0.0290458
0.0203447
-0.070548
-0.030516
0.375472
-0.121823
0.0406183
-0.066628
-0.240436
-0.0155058
-0.016704
-0.0238972
-0.0375289
0.023952
-0.0215675
0.0293018
-0.170173
0.0203369
0.504778
-0.0388664
-0.00113082
0.0343163
-0.0232604
-0.0540525
-0.0303162
0.0379042
-0.163759
-0.0984855
0.0801029
-0.0226939
0.03071
-0.232185
-0.0182335
0.047548
-0.0735793
0.0406724
-0.0512765
0.00522182
0.0339396
0.0330923
-0.0269736
0.034377
-0.0268748
-0.235666
-0.0205302
0.415394
0.0525369
0.374453
0.400733
0.0347727
0.14657
0.0579968
0.0424033
-0.054084
0.0312676
0.043957
0.0290216
-0.0692575
0.0340131
-0.0200389
-0.0245872
-0.240974
-0.102501
-0.0232715
-0.0817015
-0.0149227
0.0401507
-0.0516114
-0.0020677
0.0174678
0.0363296
-0.0293508
-0.0193971
-0.0264939
0.0735323
-0.0384327
0.104874
-0.00291414
-0.029494
0.0424854
-0.0215833
0.0390766
0.030427
-0.0434568
-0.0186967
-0.0183918
-0.0606496
-0.24095
-0.0171753
-0.0814755
-0.0246758
0.0191209
-0.0237306
0.0411102
0.0521485
-0.051777
-0.0236552
0.0141163
-0.0318249
-0.0146746
-0.0224692
0.0348738
-0.0262025
-0.238249
-0.125587
-0.0195226
0.0338987
0.0484893
0.0230113
0.0298338
0.0238225
-0.0209044
0.387809
0.0675076
-0.234763
0.000907623
-0.0223104
-0.0823134
0.116132
-0.0204555
-0.0202328
-0.0260123
-0.0315276
-0.0449438
-0.0137914
-0.0206944
0.456905
-0.0146713
-0.0254686
0.0208671
-0.0643051
-0.00378563
0.0133538
0.032653
0.0113328
-0.0236388
-0.0410005
0.0323985
0.0180947
-0.0194879
-0.0826252
0.0311799
-0.0191062
0.00491658
-0.0904071
0.0336323
-0.0513882
-0.0311244
0.0236643
0.0246838
-0.0226353
-0.0950028
-0.240621
0.0313268
-0.0406858
0.515997
-0.119979
0.013555
-0.224019
-0.0697073
-0.0154353
0.0300162
0.0455027
-0.0192211
-0.0514606
0.0138107
0.0303218
0.0286985
0.0285486
-0.0579837
-0.0532157
-0.0150567
-0.0969339
0.0276282
0.0258356
-0.0369741
-0.0514667
-0.00740895
0.0206376
0.0425236
0.0349859
-0.12094
-0.215464
0.0333255
0.0375113
-0.0216028
-0.0136131
-0.0106211
0.0488244
0.0364685
0.0323183
-0.0247811
0.0496367
-0.101682
-0.0517159
-0.0314865
-0.0480326
-0.0430135
0.0386595
-0.0385429
0.0341478
0.057289
0.000134224
-0.0621799
0.0658179
0.0253566
-0.123417
-0.0585069
-0.226842
-0.0321593
0.152099
-0.0155094
0.0343731
-0.0714711
-0.112242
-0.0185235
0.0388267
-0.0034221
-0.0984958
-0.0235933
-0.057844
-0.0258255
-0.0660989
0.067989
0.0187601
0.0497499
0.148893
0.306415
0.0521652
-0.0208603
0.365502
-0.0178553
-0.24054
0.03719
-0.0220362
-0.030214
0.0624489
0.0694085
0.422661
-0.0469813
-0.02748
-0.0910738
0.0184302
-0.0171768
-0.0188995
0.0253313
0.000660158
-0.021354
0.179191
-0.0518076
-0.0209722
-0.0436468
-0.0120656
-0.0676366
0.0119324
-0.024593
0.0341739
0.0334291
-0.0231351
-0.0438923
0.448976
0.0113099
0.0441756
0.0375007
-0.0131141
0.523082
-0.0211418
0.0175928
-0.0203896
-0.0225008
0.0341639
-0.120563
-0.0212087
-0.0236425
0.0375334
-0.0414849
0.0121929
-0.23695
-0.0302739
0.0589216
-0.00369887
0.0270303
0.0157019
0.0223001
0.0752883
0.136042
-0.0781493
0.202762
-0.0210701
0.0269505
-0.0463044
0.44701
-0.0197477
0.01027
0.129989
0.0306308
-0.00679196
0.00759016
-0.0715972
0.034113
-0.153254
-0.00639202
-0.0208199
-0.047452
-0.0474318
0.0421141
0.0452427
-0.0245854
-0.0589264
0.0431198
0.000403735
-0.0337374
-0.087907
-0.0307884
0.0311076
0.0238421
-0.0927382
-0.00156889
-0.0303509
-0.0181471
0.0153518
-0.0177964
-0.0188401
0.00978169
0.00282734
0.0290652
-0.016574
0.0336674
0.0725813
-0.147302
0.0626108
-0.0455765
0.00982533
0.191347
0.0289064
0.0503721
0.0373854
-0.0308639
0.0270752
0.0012509
0.0053124
-0.227482
0.282451
-0.0531129
0.0237278
0.0341153
-0.039479
-0.0162451
-0.0170434
-0.0452887
-0.0245493
0.0432406
-0.0666598
0.463778
-0.0236493
-0.0765809
-0.0213444
-0.0245681
0.00760081
-0.0121978
-0.0520013
0.139327
-0.0237595
0.469465
-0.0238623
0.00153193
-0.0217506
0.0600334
0.0129317
-0.00642073
-0.00853156
0.0284367
0.0383425
0.0274154
-0.0218146
0.00475043
-0.0314568
0.0425431
0.0397917
0.0335311
0.039932
0.0139313
0.0275517
0.0294158
-0.0508322
-0.0173251
0.339626
0.0247444
0.0335372
0.216297
-0.0332182
0.0748814
-0.106489
-0.0279643
-0.15929
-0.0067082
-0.0408329
0.01042
0.0340102
0.0283248
0.0308394
-0.182768
0.0334401
-0.0468785
0.0274606
-0.240849
0.0905447
-0.0324853
-0.0207519
0.0193088
0.0311348
-0.0175373
0.04204
0.061795
-0.0994134
0.045485
0.0303266
0.00290016
0.0299092
0.0193519
0.0235862
0.130962
-0.0166115
0.010232
0.00950082
0.0259275
-0.0239914
0.0835039
0.0485933
0.0378512
-0.105553
-0.0321985
-0.11587
0.146818
0.00136457
0.0242111
0.0191909
-0.0149758
0.00760255
-0.0220418
0.111788
-0.0183487
0.0311575
0.0823645
-0.121331
0.0403958
-0.00447795
0.0425435
0.0302175
-0.00413341
0.22575
0.0151906
-0.0414047
-0.023841
-0.0493309
0.0387071
0.0145116
-0.0204525
-0.0478219
0.0313781
-0.0444182
0.0148078
-0.00632258
0.00961892
0.0133234
-0.0525553
0.0153256
-0.0262822
-0.00997908
0.0332366
0.0176262
0.0469538
0.0340771
0.00323905
0.330796
0.0109516
0.0167443
-0.0259897
-0.0305752
-0.0126449
-0.0130208
-0.0275926
0.00223662
0.0218185
0.135719
-0.0417112
-0.00592419
0.0357909
0.0250707
-0.041893
-0.0133105
-0.124996
0.0334057
0.0774369
-0.016354
-0.011119
0.0137922
-0.210055
0.49848
0.0336123
-0.0503628
0.0281665
0.0157785
0.0246808
-0.0580689
0.0139113
0.00769109
0.0213043
-0.0259236
-0.00149215
-0.0922533
0.263254
0.0123303
0.175309
0.0330723
-0.124151
0.0318896
0.0104965
0.0312739
-0.0205027
0.0310299
-0.0428101
-0.0261613
-0.0187049
0.126479
-0.0201957
-0.1531
0.0471584
-0.0168454
-0.194601
-0.151152
-0.0224236
-0.0260587
-0.239185
-0.0452695
0.0445852
-0.0216109
-0.0106176
-0.0192132
0.0140142
0.0263317
0.0479844
0.0331848
-0.000801773
0.145831
-0.0158034
0.0259589
0.0375369
-0.241849
0.0464875
0.0460962
0.188004
-0.00059673
0.0151012
0.224439
0.193868
0.0908245
-0.00137497
-0.0234199
-0.123707
0.501766
0.00993357
-0.094214
-0.0560653
-0.203664
-0.0401512
-0.019785
0.0329264
0.010221
0.0321308
0.0137891
0.0380244
0.0190611
0.0307977
0.0101253
-0.232644
-0.0269677
0.00777841
-0.0394155
-0.0769358
-0.00198226
0.0656826
-0.0263535
0.0212915
0.0605555
0.200694
-0.235732
0.0284406
0.0380863
-0.0167685
-0.0201963
-0.0289331
-0.0316867
-0.0199393
0.0349187
-0.0493537
0.0671916
0.0337738
0.0675935
-0.0199681
-0.115168
0.0154796
0.0173327
0.0430976
-0.0330774
0.040121
-0.00457113
0.0410286
0.0415165
-0.0496547
0.0118844
-0.0323757
-0.0393759
-0.018527
0.0228833
0.013322
0.0376235
-0.0497223
-0.0738252
0.043284
-0.117621
-0.0285308
0.497872
0.0301357
-0.0268992
0.0272476
0.0019333
0.00270586
-0.0321868
-0.0192489
-0.0231759
-0.0226883
-0.0501888
0.0265305
-0.0402085
0.0129884
0.0575815
-0.0184121
0.0522971
0.0276613
0.0280338
0.0168073
-0.230319
0.0196282
0.0351095
-0.0182006
-0.017906
-0.0193178
0.462087
-0.0221469
-0.196893
-0.017673
-0.0124614
-0.011862
-0.025471
-0.0130183
-0.189838
-0.0169613
-0.00172878
0.011211
-0.0264119
-0.0228902
0.0651083
-0.0402539
-0.00859189
0.00645633
-0.00144973
0.0163728
0.00109621
0.0315175
-0.0205906
0.328229
0.0296271
-0.0316288
0.0162746
0.0924176
0.0269648
0.120796
-0.0245782
0.00434727
0.0115694
0.0158519
0.361435
-0.0388281
-0.0438007
0.0444079
0.0318117
-0.0218308
0.0429208
-0.0461064
-0.0401847
0.0067584
-0.0377156
0.0162851
-0.157758
0.0636307
-0.0117513
-0.017793
-0.0381244
0.0360001
0.0528768
-0.0246041
0.0335465
0.0313151
-0.201196
-0.0588271
0.10172
-0.0230341
0.0321007
0.0112925
-0.0206736
0.0292341
0.0196746
-0.0287626
0.0150809
-0.0249641
0.0342538
0.0200515
0.0500619
-0.0220971
-0.0198589
0.057091
0.0559135
0.0349232
0.077945
0.0301459
0.45811
-0.0299254
0.0314443
-0.0288553
0.0836235
-0.0411468
-0.0177554
0.455357
0.0155611
0.063787
0.0447285
0.159111
0.0874817
-0.019687
-0.138704
0.0944096
-0.0179961
0.513515
-0.0202135
-0.0227344
0.0461687
0.448559
-0.0184408
0.0869738
-0.14414
-0.0188403
-0.0174298
0.0713754
-0.0238156
0.244881
0.0142018
0.00729075
-0.202697
0.0443532
0.0317453
0.0449125
-0.0480664
0.00668517
-0.0206538
0.044379
-0.0495938
-0.0121205
-0.0243346
-0.0439355
-0.0981604
0.000467976
0.0167464
0.0426683
-0.0182662
0.0366589
0.0938301
0.0212024
0.0352841
0.0243054
0.122839
-0.0206803
0.487253
0.166249
0.256544
-0.0249502
0.0371624
0.0223599
-0.0314075
-0.0225212
0.0204857
0.0310112
-0.00382712
-0.184667
0.0298195
-0.0326056
-0.027564
0.0105342
0.0523648
0.00292587
0.0141522
-0.041282
0.0499711
0.0292671
-0.219281
-0.0236232
0.0794239
-0.0455867
-0.0176337
-0.161944
0.0604599
0.00162857
-0.0206781
-0.0410782
-0.0198865
0.322187
0.017868
0.0339808
0.0128396
0.0340733
0.047085
0.0756126
0.0351452
0.0367775
-0.021109
0.0301256
0.00194383
0.0132316
-0.0329566
-0.020314
-0.136114
0.0463285
-0.0991299
0.0132926
-0.0191641
0.0413696
0.111728
0.0360545
-0.0225789
-0.0481551
-0.0216712
0.0365331
-0.0275715
0.0400604
0.0158533
-0.0480574
0.0169001
0.06765
-0.0158564
0.000416595
-0.0178175
0.0373239
0.079881
0.00247053
0.0379635
0.151379
0.0448328
0.0232292
0.0894743
-0.0372738
0.0213059
-0.0219515
-0.0288769
-0.0246363
-0.0202466
0.0224756
0.0233317
0.0858082
-0.0635139
0.00198464
0.0479031
-0.014458
-0.15997
0.0326901
-0.233153
-0.0328284
-0.0317399
0.020268
0.0182845
-0.0226478
0.0689794
0.0328159
0.18134
0.0149518
0.101187
0.010879
-0.0187423
0.433728
-0.0195282
-0.00197089
-0.02
-0.0248983
-0.0250092
-0.0122345
0.237166
-0.19881
-0.0154499
-0.198254
0.0922175
-0.186411
-0.238353
0.0126242
0.031648
0.0316357
0.00578333
-0.0138516
0.0125123
0.0925071
-0.0199632
0.0124852
0.118236
-0.0337208
0.147721
0.00342727
-0.0284631
0.0144893
-0.0188533
-0.000152152
0.15633
0.0317932
-0.0538356
-0.133033
0.0395968
0.00557498
-0.0265066
0.144547
-0.235219
0.0299742
0.014543
-0.0189051
0.00721625
0.188197
-0.237106
0.0382251
-0.0271565
0.0140043
0.0179823
0.0269362
-0.0238485
-0.158474
0.0265015
0.0059352
0.0509851
0.0286395
0.184233
-0.0250428
0.0715443
0.467956
-0.0223595
-0.0239735
-0.0424899
0.0079178
-0.0217932
0.161943
0.139418
0.039455
-0.0176798
-0.0268162
0.0866104
0.208227
-0.0175652
0.384223
0.432794
0.111384
0.0546288
0.0294402
0.0354252
-0.137467
-0.0210161
0.00226368
0.00519942
0.0103368
0.0339208
0.0423642
0.0427957
-0.0199216
-0.0115672
-0.0285306
0.171386
-0.242195
-0.0263653
0.0808755
-0.0209244
0.0252978
0.05951
-0.0524663
0.036341
0.0411414
-0.0195073
-0.0303309
0.255009
-0.0272277
-0.0205673
0.0219573
-0.0200299
0.016912
0.0149667
0.121856
0.032826
0.00961832
-0.0293764
-0.0661913
0.0152601
-0.0219518
0.0325572
0.0151862
0.0403451
0.484177
0.0196548
-9.97316e-05
-0.200832
0.0272868
-0.0224144
-0.0236683
0.0311634
0.168086
0.029835
-0.0273497
-0.0329459
0.0421909
-0.0225564
-0.0227164
0.271839
0.0339318
-0.12888
0.122564
0.378736
0.00331485
0.196187
-0.0654355
0.0163074
0.382754
0.055902
-0.0328746
0.234482
0.0310936
-0.231722
0.0631962
-0.0295595
-0.0289602
0.341108
0.0824735
0.12166
0.0700791
-0.0171877
0.103761
-0.0199158
0.118249
-0.0180892
0.0241189
-0.0112478
0.0516941
-0.018187
-0.0185817
0.0439042
0.026353
0.517119
0.0111594
-0.0241793
0.017387
-0.0210213
-0.0242341
0.0123395
0.0364504
0.0335394
0.0343136
0.0188563
-0.0421498
0.107076
0.199569
0.0259353
0.0315761
-0.052082
0.005219
0.0151505
-0.0252035
0.0497223
-0.240123
-0.0199844
-0.00718821
0.494914
-0.028244
-0.0774947
-0.0197213
-0.139732
0.0322259
-0.0398809
-0.193864
0.432255
0.0328184
0.0616949
-0.0210262
-0.0243873
-0.0195797
-0.130117
0.00554375
0.161194
-0.0162664
-0.0233639
-0.233978
-0.0145672
-0.0243305
0.0436461
-0.036232
-0.0200753
0.0329245
-0.050027
-0.10185
0.0343014
-0.0243128
0.0330295
0.0163722
-0.0195238
-0.02735
0.0266487
0.00523984
0.0231601
0.0157903
0.0372029
-0.030844
0.00322411
0.0327622
0.0325313
-0.0130044
0.0128666
0.0160707
-0.074563
0.0454781
-0.033508
-0.221048
-0.0183192
0.174411
-0.0258723
-0.0276855
-0.0101985
-0.0260529
-0.0215183
-0.156089
0.042552
-0.111588
-0.02424
0.0236695
0.037626
-0.055674
-0.148155
-0.145104
0.0116424
0.0415372
-0.0180216
-0.159505
-0.14818
0.0251695
0.0990488
0.483461
0.0550917
-0.0176941
-0.238572
-0.0197171
-0.155131
0.0533292
0.0356965
0.0272286
0.121487
-0.0160334
-0.0138491
-0.00205338
0.0734333
0.00544075
-0.157267
-0.0129136
-0.0411774
-0.241068
-0.0181659
0.492584
0.0404179
0.0325562
-0.0208849
0.0194352
0.014628
0.0600088
0.513352
-0.0140769
-0.237179
-0.0546058
0.0398097
-0.0427353
-0.00919312
0.024945
-0.237747
0.270992
0.107444
0.00944179
-0.23935
-0.106433
0.0321414
-0.0862586
-0.022373
-0.211124
-0.154757
-0.0372264
0.0366637
0.0166578
-0.121084
0.00748133
-0.0194494
-0.0121387
-0.150079
-0.0295549
0.0804741
0.108643
0.0347979
0.0738344
-0.174608
-0.0182964
0.036708
-0.238383
-0.0150762
0.0425912
0.097129
0.0336736
-0.0389387
0.0238099
0.517473
0.143881
0.0354939
0.0266094
0.336982
-0.0255268
-0.0151851
0.0414586
-0.0136332
0.050871
0.0133034
-0.00424988
-0.141213
-0.019383
-0.127646
0.0219157
0.026734
0.0450246
-0.0214756
0.0296679
0.0440603
-0.0289106
-0.0205074
-0.0220494
0.0127944
-0.0892474
-0.019704
0.0311607
-0.168079
-0.0253908
-0.012166
0.506131
0.0433555
-0.23569
0.118334
0.0760398
0.0975209
0.0193601
-0.02071
0.0240823
0.00380768
0.160728
-0.0248813
-0.0198605
0.0331325
0.0292522
0.0198442
0.0236801
-0.0451371
0.0695857
-0.0420745
0.00503383
-0.0261481
0.00541266
-0.0185437
0.0218689
-0.0566242
0.0189058
0.0186507
-0.214974
0.365732
0.360393
-0.019869
0.192798
-0.0159806
0.0417642
-0.0986064
0.0362279
0.0300027
0.325427
-0.0173279
-0.235309
-0.187096
-0.0413181
-0.0695802
-0.0547654
-0.0970933
0.0144638
0.0045776
-0.00506711
-0.0420549
0.107094
-0.0692944
-0.0170442
0.00811126
0.0487156
0.0441475
-0.126321
0.407064
0.0066676
0.0358094
0.0677027
0.0141494
-0.0149574
-0.0883716
-0.0180888
0.0313185
0.355699
-0.0469665
-0.0439699
-0.0323435
0.0409048
0.0146119
-0.0420156
0.0271642
-0.0441968
-0.0186089
0.0621671
0.0260091
-0.0301891
0.32283
0.0746003
-0.0165877
0.0113554
-0.0390739
-0.0124748
0.0971306
0.00670121
-0.112352
0.0274726
0.132432
0.503015
-0.168456
-0.0236304
-0.035692
-0.00221778
0.153226
0.0306161
-0.174916
-0.00328135
0.0132306
-0.00470129
0.0320305
0.0315797
0.515874
0.038846
0.0308015
0.0462069
-0.0235179
0.0625041
0.0203411
-0.0201111
-0.0943072
-0.0525286
0.0288279
0.0658786
0.281319
-0.0840484
-0.0469626
0.127332
-0.0369474
-0.0191731
-0.128107
0.0315857
-0.0933295
-0.022256
0.0314491
0.0124921
0.0192111
0.408801
-0.0580391
0.0102725
0.478379
-0.0570855
0.0247064
0.0610699
-0.0270069
-0.0173584
-0.017564
0.0191758
-0.160845
-0.0265179
0.492338
0.0377343
-0.0401136
-0.0195781
0.186144
-0.157772
0.00175829
0.0195957
-0.00260117
-0.0802734
-0.0091222
-0.0243229
-0.0843278
0.0258405
-0.0529907
0.100596
-0.192072
0.021676
0.243052
0.0621322
0.0362229
-0.0175272
-0.0355999
-0.0361911
-0.0239538
0.0828136
-0.0238853
0.0256895
-0.128408
-0.0181882
0.0399487
0.0260368
0.168761
0.0110009
-0.0204844
-0.0188948
-0.0872418
-0.0248116
0.0182171
0.00839679
-0.0238879
0.0978574
-0.0224203
0.024638
0.05805
-0.133229
-0.0375276
-0.0286892
0.410233
0.0323039
-0.0494481
0.0244849
0.144253
-0.160816
-0.211661
0.0385543
0.0339269
-0.0111285
0.116645
0.060383
-0.0190258
-0.0502854
0.0190893
0.0140454
0.0318112
0.0319311
0.369784
0.0144117
-0.0233625
-0.0407055
-0.0173502
0.0240039
0.00891123
-0.0894016
-0.0110011
0.0828641
-0.228367
0.0565888
-0.0450959
0.174855
0.182593
0.0928148
-0.08531
-0.18984
-0.016873
0.0331447
-0.0288071
0.0147406
0.112577
0.0623374
-0.0270034
0.108673
-0.142358
-0.0211154
-0.0221793
0.0342624
-0.100088
-0.0028671
0.0317338
0.420176
0.0178046
-0.0113111
-0.00986146
0.0607639
-0.147581
0.0531375
0.417121
0.0722074
0.0331129
-0.214949
-0.0177097
0.0997763
0.172711
-0.0128357
-0.0210756
-0.0173487
-0.00369606
0.0754113
0.0029247
-0.0204679
0.105669
-0.0249447
0.102151
-0.0199582
-0.021751
0.00791309
-0.0193987
0.0182989
-0.0202723
0.102065
-0.118246
-0.136466
-0.138915
-0.0977141
-0.0524318
0.148401
0.0107555
-0.0181469
0.154845
0.0429687
-0.127121
-0.0286581
0.0852291
0.00240887
0.00888715
0.00708578
-0.0100548
-0.0440392
0.0311044
-0.00753198
-0.0113164
0.092113
0.0326671
-0.0193018
0.016114
-0.0235845
0.0843507
-0.0572472
-0.00185623
-0.0159974
-0.0578866
-0.0350971
-0.0489284
0.0273878
-0.00827764
-0.0184127
-0.23027
0.00816938
-0.0219186
-0.00337318
0.464035
0.0367096
0.074619
-0.0188773
-0.0155236
-0.215397
-0.101858
0.174043
-0.0512344
0.0358302
0.015451
-0.0830833
0.283039
0.0695522
-0.0273662
0.0167878
0.136753
0.0949544
-0.0388637
0.0260533
-0.0317687
-0.0175739
-0.241086
-0.0371366
0.00723809
-0.0230678
-0.202715
0.0688597
0.0604263
-0.0377722
0.0197676
0.275227
-0.231522
-0.0179887
-0.0165453
-0.017801
0.00785522
-0.0337707
0.0172045
-0.0204153
0.0341706
-0.227357
0.0381196
0.0972836
-0.0175789
-0.0432946
0.0309966
0.0867509
-0.242008
0.0495147
-0.0271743
0.0220155
-0.137942
-0.0797949
-0.0241512
0.322741
0.0299099
-0.0242375
-0.020618
-0.0157153
0.0225146
0.00630512
0.0306671
-0.017397
0.03484
-0.0194763
0.0498993
0.019867
-0.110166
0.0230106
0.015357
-0.00109617
0.0338466
-0.0173887
0.0252835
0.0363487
-0.0236869
-0.0147568
-0.0252109
0.0519798
-0.119275
-0.0152443
-0.0274945
0.0431409
-0.0216717
0.00737031
-0.0166217
-0.0205791
-0.0201777
-0.0731706
-0.0446733
-0.0713312
-0.134337
0.126849
-0.0208154
0.0948169
-0.0957308
0.103515
0.00770706
0.0488918
-0.0172996
0.0608314
-0.0400996
-0.021425
-0.0185191
-0.0641949
0.329662
0.0425891
-0.0388674
0.244854
0.0718652
0.0962384
0.0540474
-0.0195806
0.047278
-0.0173823
0.0233642
-0.00403039
-0.101319
0.0481669
0.0408163
0.0479001
-0.0392612
0.0272613
0.070758
0.00297513
0.0389162
0.00896632
0.0438054
-0.0220804
0.329338
0.156593
-0.0855871
-0.188642
-0.0174289
-0.0599804
0.0225391
0.0453996
0.124685
0.00823488
0.182456
-0.0233224
-0.0171995
0.0191074
0.0416004
-0.0240773
-0.0291096
0.0196728
0.027258
0.12542
-0.230197
-0.0213551
0.0116341
0.0175314
0.0344389
-0.0840205
-0.0205272
0.352349
0.167387
0.0924905
0.0656007
-0.00950711
-0.0558035
0.0788658
0.0175855
0.0158229
-0.0182711
0.0934379
-0.169625
0.0348195
-0.0190358
0.0530192
0.132314
0.0242616
0.0324299
-0.109991
-0.095705
0.272386
-0.0262052
-0.229686
0.0671991
-0.0280772
-0.0223929
0.0215689
-0.0245537
-0.0207663
-0.0252675
0.0307314
-0.0203607
-0.198848
0.0123159
0.0787495
-0.0180606
0.0105685
0.0472115
0.0202327
0.0197676
0.00386043
-0.0435693
-0.0431983
0.315694
-0.0437369
0.0200808
0.0535257
-0.0183242
0.0252872
-0.00331087
0.125586
0.00615741
-0.0246746
0.0385682
0.06985
-0.0631569
0.0326406
-0.102294
0.0404266
-0.167199
-0.0186962
-0.040474
0.0486018
0.0318254
-0.0451572
0.0189647
0.023955
0.0674309
-0.0840983
-0.102461
-0.00877062
-0.0179372
0.114347
-0.0281153
0.0709611
-0.0210698
0.0132474
0.0356425
-0.237603
-0.0179053
-0.141366
0.027884
-0.0240125
-0.0224059
-0.231233
-0.0283348
-0.0550557
-0.00839788
0.0171531
-0.0497386
0.0179703
0.0199048
-0.0428501
-0.0204716
0.118181
0.324183
0.129058
0.0604489
0.01026
-0.0491635
0.00870166
0.0330413
-0.208945
0.114992
0.0202547
-0.021696
0.0309188
0.0360451
-0.0380868
-0.0642174
-0.233046
0.0211908
0.0996964
0.0350161
0.455269
0.028191
0.439971
-0.0248845
-0.0191599
-0.0248061
-0.225372
0.156092
-0.0618443
0.463903
0.0342643
0.10194
0.150873
0.148132
0.483213
-0.0279296
-0.161361
-0.0210043
0.49399
0.0550332
-0.0239734
0.0302914
-0.239655
-0.00241839
0.00336972
0.0135062
0.0184547
0.0306322
-0.0280471
-0.154464
0.0222096
0.0168983
0.0266285
-0.0368524
0.0169165
-0.0795011
-0.0272396
-0.143964
0.0364594
0.0311531
-0.0197392
0.414234
0.0351952
0.00476164
0.0342358
-0.0717878
0.227068
-0.0359631
-0.0184816
-0.152502
0.0241906
0.0123199
-0.0206434
-0.0250067
0.0099989
0.0152269
0.0378088
-0.0259338
0.0424317
0.0280374
0.02125
0.0462118
-0.238864
-0.0215952
-0.0244683
-0.0168761
-0.0488195
-0.0646296
0.0196731
-0.0088506
0.0203797
0.466084
0.0127168
0.0841235
0.0449918
0.0316844
0.0157244
-0.0366532
0.00399255
0.470894
0.01133
0.163641
0.0195687
0.5057
0.0365818
-0.00878582
-0.0113293
-0.0109602
-0.16086
0.0321372
-0.0168892
-0.0365798
0.0675035
0.0147495
0.0372598
-0.0211019
-0.161251
0.0123125
0.0201019
-0.0296725
-0.0211867
0.209562
-0.0189258
0.0640559
-0.0207238
-0.00915244
0.0212597
-0.028346
0.00247975
-0.0208762
0.0472587
0.0214835
0.0357951
-0.0215952
-0.0187007
0.0199574
0.407258
-0.0205608
0.0305827
0.0200373
0.0256468
0.421237
-0.0247239
-0.0333434
-0.000533368
-0.0112817
0.0369972
0.0521806
0.0147089
0.0324526
-0.0324314
0.0538679
-0.01749
-0.133819
-0.00103601
0.0186715
-0.0249332
-0.0235183
0.0369232
-0.0431898
-0.00777577
-0.0236349
0.104556
-0.18976
-0.0291965
0.0400197
-0.0482781
-0.0461102
0.00815269
-0.0795803
-0.017098
-0.00720742
-0.0240659
0.0358638
-0.05869
0.30711
-0.051634
0.0330006
0.0426587
0.0189126
0.167109
-0.0169204
-0.0170993
-0.0514077
-0.216226
-0.0274256
0.034016
0.476356
-0.0192063
-0.0243676
0.0457914
0.0411029
-0.0202641
-0.0189955
0.0735788
-0.0119873
-0.225279
-0.0278393
-0.185766
0.328562
-0.0401841
-0.0238192
-0.0991259
0.0157981
-0.148822
-0.038223
0.0204479
0.0101667
0.0440145
-0.14913
-0.0512054
-0.0237604
0.0267511
-0.148917
0.0246719
-0.0432662
-0.0183817
0.0564835
-0.011499
-0.0621525
-0.0182281
-0.0285245
0.016715
0.0714031
0.0692393
0.00813817
-0.0203074
-0.153369
-0.0249814
0.0208706
-0.23919
-0.0775358
-0.0245068
0.0301631
0.0324069
-0.0268081
0.428071
0.0409485
-0.0242644
0.302482
0.207694
-0.0237414
-0.0201944
-0.107356
-0.0303872
0.0822146
0.0160729
0.292749
-0.0185139
-0.150177
0.0147947
0.253948
0.337747
0.342105
0.00454103
0.0340328
0.422759
-0.0367267
-0.119565
0.458048
-0.025461
0.0350708
0.405848
-0.0316893
0.0631737
0.279957
-0.0387839
0.0200418
-0.0322376
-0.0214028
0.420477
0.0340172
-0.0255937
-0.0322278
-0.222578
0.0140008
0.00224292
0.0375536
0.00204156
0.037652
-0.0197709
0.0893372
0.14231
0.355965
-0.010994
-0.027406
0.103259
-0.00663912
0.0305565
-0.0995223
0.271012
-0.179956
0.0419624
0.131582
-0.164882
0.321508
0.05321
0.128569
-0.0393861
-0.0200898
-0.0544828
0.0396492
0.0341828
0.0327797
-0.0339653
0.0550189
0.503592
0.502887
0.421958
0.0207096
-0.0830359
-0.165322
0.0386167
-0.0809304
0.0823284
0.243662
0.0303977
0.0143312
-0.0263459
-0.0712816
0.0308497
-0.207661
-0.0820431
0.321145
-0.0798241
0.027953
0.0337334
-0.0063351
0.00354619
-0.225912
-0.226582
0.111935
-0.0979357
0.037352
0.0251748
0.0232388
0.0284287
-0.158901
0.00617922
-0.137949
0.315601
0.00415786
0.430098
-0.155908
-0.0212747
-0.154684
0.0063239
0.0125523
0.0355632
0.00111975
0.45417
0.385858
-0.057503
0.0348418
0.00709296
0.194573
0.031111
-0.020789
0.09445
0.234245
0.289474
0.102172
0.0721707
0.0208857
-0.0219474
0.0690283
0.101616
0.329374
0.107274
0.0277844
-0.0138679
0.03179
-0.152195
-0.0210017
0.476234
0.0533709
0.335287
0.046837
-0.0220268
0.0149342
0.00442608
0.136499
-0.134311
-0.0211333
0.317786
0.0507131
0.0152459
-0.0156634
-0.0245543
-0.0578418
0.0770466
-0.0605464
-0.0681718
0.0249802
0.273789
-0.0407936
0.340223
0.0339616
-0.0278438
0.376074
-0.0450011
-0.0255966
0.0157027
-0.0257766
0.0322653
0.0374737
-0.0134498
-0.0208948
0.031993
-0.0204019
-0.177147
-0.0206075
-0.185668
0.435276
-0.130645
-0.0861575
0.0210597
0.0161886
0.0145339
0.169804
-0.0489535
-0.0542466
0.082659
0.0687392
0.0131815
-0.109586
-0.0143481
-0.0221754
-0.0194062
0.351975
-0.236974
-0.0912769
0.0414451
-0.220204
0.0309512
0.131338
0.180475
-0.0192928
-0.0211917
0.129077
0.00204397
0.340164
0.00642695
-0.0198496
-0.236546
0.160094
-0.0268144
-0.0141645
0.0280265
0.458602
-0.0330128
0.081173
-0.166119
-0.231899
-0.00578732
0.120398
-0.0211344
-0.239831
0.0409326
0.0234718
0.0198567
0.0231734
0.0637902
-0.238979
0.0958068
-0.0219638
0.0294677
0.014244
0.419305
0.0134535
0.014148
0.0365379
0.0423701
-0.0294758
0.0185749
-0.240662
0.0112608
0.00668074
0.0409002
0.0557194
0.350937
0.0185628
0.0325966
0.0211465
0.0062467
0.320469
4.97979e-05
-0.0199279
0.0351804
0.136085
-0.00555188
-0.0612735
0.0771362
0.0338229
0.0103794
0.0179684
-0.0922974
0.0340906
0.019657
0.00504035
-0.136501
0.0289856
0.202084
0.0933294
0.0458094
-0.0173248
-0.226457
-0.0204146
-0.0172376
-0.000590331
-0.0201396
0.0594794
0.352509
-0.0656403
0.00875304
-0.0253682
-0.0228374
-0.0181356
0.0941922
0.0418418
0.459208
0.0274831
-0.106201
-0.0219012
0.0114593
0.0446847
-0.22913
-0.0273196
-0.0174356
0.11622
0.0532588
-0.232497
-0.0339266
0.013939
0.0342668
0.0158375
0.0344891
0.0340882
0.0439935
0.188615
-0.0307533
0.0686595
0.0616431
0.444465
0.0353591
-0.102666
0.109955
0.00662709
0.00239196
0.0345208
-0.0552483
0.0909397
0.237218
0.0417003
0.0220369
-0.11669
-0.166144
0.0307674
-0.0166299
0.222868
0.0726415
0.0982567
0.0319063
0.00387848
-0.132245
-0.0833673
-0.012365
-0.0199595
0.00650077
-0.221079
-0.0292262
0.0320553
-0.0569855
0.0825637
-0.0184267
-0.0217776
-0.0219062
-0.130486
-0.041095
-0.0200571
0.0114502
0.0135062
0.10661
0.0146572
0.0139887
-0.00527059
0.317146
0.017175
0.134787
-0.0214516
0.134878
0.402691
-0.0210125
0.0109388
-0.13725
-0.134513
0.181932
0.105148
-0.0211129
-0.236158
-0.0197004
0.101519
0.0133098
0.0295486
0.0209947
-0.00146111
-0.0172603
-0.0694556
0.0111894
-0.0966139
0.0327166
-0.0231935
-0.0227487
0.306406
-0.0737557
0.305897
0.404692
0.0786739
0.175647
0.03001
0.191144
0.0420848
0.0222015
-0.0104144
-0.0206476
0.0343921
0.103732
-0.0381665
0.0250221
0.0213121
0.13674
-0.239804
-0.0525029
-0.0239291
0.208611
0.0318877
-0.0267429
0.202322
0.0179428
0.0458834
0.0623177
0.0348673
0.0465215
-0.00585817
-0.0255761
0.050633
0.0160827
0.240423
0.0313131
0.1375
0.153297
0.0388227
0.035915
-0.24109
0.0205805
0.0403699
0.0185272
0.0990014
0.0131695
-0.136619
0.0175822
-0.0877315
0.0294194
0.0168444
0.00817268
-0.0999188
-0.0175651
0.0450787
0.0121027
-0.026519
0.110982
-0.0249759
0.0287621
-0.0518551
0.0550935
0.0158546
-0.159431
0.0109906