/*--------------------------------*- C++ -*----------------------------------*\
| =========                 |                                                 |
| \\      /  F ield         | OpenFOAM: The Open Source CFD Toolbox           |
|  \\    /   O peration     | Version:  v2012                                 |
|   \\  /    A nd           | Website:  www.openfoam.com                      |
|    \\/     M anipulation  |                                                 |
\*---------------------------------------------------------------------------*/
FoamFile
{
    version     2.0;
    format      ascii;
    class       surfaceVectorField;
    location    "750";
    object      Uf;
}
// * * * * * * * * * * * * * * * * * * * * * * * * * * * * * * * * * * * * * //

dimensions      [0 1 -1 0 0 0 0];


internalField   nonuniform List<vector> 
20580
(
(1.15326 -0.0633158 -3.72716e-21)
(1.15433 -0.0633853 -4.0107e-21)
(1.15331 -0.0625333 -4.60869e-20)
(1.06994 -0.0505139 0)
(1.06971 -0.0517154 1.35685e-21)
(1.07147 -0.0514897 -6.95169e-21)
(1.07014 -0.0489655 3.83825e-21)
(1.06832 -0.0493307 5.05311e-21)
(-0.149912 0.00055591 -2.63302e-20)
(-0.124395 -0.00291677 5.64032e-20)
(-0.147715 0.000123252 -3.1297e-21)
(1.00181 -0.000491793 -1.29069e-21)
(1.00162 -0.000449047 0)
(1.00169 -0.000269064 -3.11562e-21)
(1.07279 -0.0668759 -1.38409e-22)
(1.07168 -0.0684617 6.39923e-21)
(1.07054 -0.0664855 -5.05278e-22)
(1.08416 -0.00944896 0)
(1.08551 -0.0090439 -3.06492e-21)
(1.01452 -0.00115484 -8.32336e-22)
(1.01411 -0.00115571 0)
(1.01335 -0.000719604 0)
(0.222528 0.00643904 0)
(0.225606 0.00631181 1.33029e-20)
(0.207352 0.00557677 0)
(0.989503 -0.00336866 0)
(0.99002 -0.00271044 0)
(0.990342 -0.00340826 8.50125e-21)
(1.10765 -0.135954 6.73843e-21)
(1.10437 -0.134722 0)
(1.10531 -0.138513 -5.53998e-21)
(1.00026 -0.0066412 -8.97893e-21)
(1.00037 -0.0070009 1.4595e-21)
(1.00021 -0.00699579 -3.89472e-21)
(0.977537 -0.0133616 5.57833e-21)
(0.976952 -0.0142768 7.74565e-21)
(0.978193 -0.0141447 1.04168e-20)
(0.0852238 0.00157687 3.25996e-20)
(0.0754856 0.000974715 1.4399e-20)
(0.0906537 0.00241412 -6.8938e-21)
(1.11501 -0.0477935 9.70772e-22)
(1.11599 -0.0489947 5.96097e-21)
(1.11413 -0.049031 5.71494e-21)
(1.16864 -0.0290556 0)
(1.16903 -0.0279978 -2.5521e-20)
(1.16911 -0.0293438 1.80979e-20)
(-0.181639 0.0108521 -2.04506e-20)
(-0.204199 0.0108402 4.23656e-21)
(-0.190042 0.013334 5.12565e-20)
(1.035 -0.0290322 1.72236e-22)
(1.03603 -0.0294039 0)
(1.0353 -0.0301878 2.06877e-22)
(1.15637 -0.087198 3.77336e-21)
(1.15661 -0.0877864 -1.68199e-20)
(1.15484 -0.0869619 1.09316e-20)
(1.15306 -0.0645824 3.75862e-20)
(1.15197 -0.0632719 8.62366e-21)
(1.1183 -0.0597667 -4.53471e-21)
(1.11656 -0.0601183 7.45501e-21)
(1.11689 -0.0582099 2.05344e-21)
(1.01876 -0.0980981 -2.37677e-21)
(1.01598 -0.097621 -5.97727e-22)
(1.01804 -0.0951241 -3.47831e-21)
(0.840291 -0.39169 1.49658e-20)
(0.715112 -0.336894 -1.34465e-21)
(0.606229 -0.275532 -3.19999e-21)
(1.00004 -0.00015408 -3.29251e-22)
(1.00007 -0.000205898 0)
(1.00004 -0.000130233 0)
(1.16717 -0.120289 -7.77182e-21)
(1.16464 -0.119556 -1.66902e-20)
(1.08073 -0.101346 0)
(1.14743 -0.0223692 -5.54475e-23)
(1.14888 -0.0221851 -2.06382e-22)
(1.14842 -0.0235849 -9.39122e-21)
(1.0742 -0.0388934 -1.53324e-21)
(1.03174 -0.0346859 -1.64934e-20)
(1.03448 -0.0340634 1.26339e-20)
(0.977703 -0.0537971 3.47757e-21)
(0.981742 -0.0548827 -7.51966e-21)
(0.916532 -0.0456689 5.93216e-20)
(0.304158 0.00308806 7.91888e-21)
(0.288139 0.00304516 4.97828e-21)
(0.282918 0.00280964 -1.72475e-21)
(1.02123 -0.0164797 -7.10183e-22)
(1.02069 -0.0167705 -5.82885e-22)
(1.02055 -0.0159786 -3.50638e-22)
(-0.000465685 0.00273278 5.52009e-21)
(-0.030697 0.00357806 -1.09592e-20)
(0.0191478 0.00287654 -1.25593e-20)
(1.08441 -0.0107216 -8.36722e-21)
(1.08278 -0.00976599 -3.6781e-21)
(1.15393 -0.0592466 6.77959e-21)
(1.15405 -0.0580633 -2.15268e-20)
(1.15277 -0.0587698 -2.15964e-20)
(0.274953 0.0112277 0)
(0.269768 0.0114569 0)
(0.302937 0.0115022 0)
(1.0884 -0.117889 -3.31218e-21)
(1.09014 -0.116034 1.37648e-20)
(1.09042 -0.119441 0)
(0.302555 0.00289926 -6.46955e-21)
(0.32322 0.00323304 -3.05434e-21)
(0.307555 0.00239239 -1.02672e-21)
(1.00001 -9.99349e-05 2.95367e-21)
(1.00004 -0.000184232 5.56711e-21)
(1.22477 -0.20259 3.25357e-20)
(1.21608 -0.200778 5.2002e-20)
(1.20957 -0.192113 8.43129e-21)
(0.0742607 0.0171481 6.82125e-21)
(0.0873514 0.0171212 -2.49979e-21)
(0.114146 0.0161413 8.03801e-21)
(0.999186 -0.0384606 0)
(1.00013 -0.0377201 4.22869e-21)
(1.00025 -0.0391252 -7.30422e-21)
(0.184138 0.0117145 -9.27442e-21)
(0.211988 0.0123386 -4.82473e-21)
(0.189493 0.0118047 -3.36727e-21)
(0.319656 0.00369677 -7.66857e-21)
(0.325225 0.00345098 8.12068e-21)
(-0.204483 0.0100385 -2.44153e-20)
(-0.205658 0.00837623 3.09148e-20)
(1.0261 -0.413364 1.13873e-20)
(1.02267 -0.422836 -1.30209e-20)
(1.01295 -0.422839 9.66032e-21)
(0.336936 0.00549129 3.92105e-21)
(0.331094 0.00574403 1.10932e-20)
(0.313442 0.00444514 -1.2212e-21)
(1.01172 -0.0254981 2.25158e-21)
(1.01098 -0.025309 0)
(1.01136 -0.0245655 -4.15587e-22)
(1.0245 -0.000599528 8.2249e-22)
(1.02438 -0.000403224 5.29679e-22)
(1.16272 -0.0373827 1.39082e-20)
(1.16374 -0.0372417 6.24715e-21)
(1.16265 -0.0363506 1.1607e-20)
(1.03289 -0.0703606 -3.84172e-22)
(1.03174 -0.0679416 -5.47876e-22)
(1.03425 -0.0687441 -3.8991e-23)
(0.978075 -0.0123035 -8.155e-21)
(0.976663 -0.0124773 -1.61517e-20)
(-0.0794204 0.0101642 -4.75343e-21)
(-0.0775136 0.00918101 0)
(-0.103798 0.00908479 3.25589e-20)
(0.970962 -0.00533176 9.08812e-21)
(0.972167 -0.00559853 8.89355e-21)
(0.971105 -0.00667562 -2.06417e-20)
(1.16818 -0.0302337 0)
(1.16708 -0.0287392 1.48267e-20)
(1.1104 -0.0172609 -9.03845e-21)
(1.112 -0.0178557 9.05257e-21)
(1.11177 -0.0162248 -1.09589e-20)
(0.104931 -0.000893473 2.55881e-20)
(0.120679 -0.00010332 -1.22516e-20)
(0.102378 -0.000883483 -8.10913e-21)
(0.998443 -0.0393071 -3.56916e-21)
(0.998256 -0.0378306 0)
(1.15497 -0.0595609 3.06747e-20)
(1.15379 -0.0602335 2.23144e-20)
(0.177093 0.0128305 0)
(0.159752 0.010095 2.99317e-20)
(1.0117 -0.0268525 9.68861e-21)
(0.970409 -0.0216158 -6.23053e-21)
(0.964923 -0.0222554 0)
(0.0239491 0.00428829 0)
(0.0306679 0.00380871 -4.10523e-20)
(0.0419236 0.00453195 0)
(1.00017 -0.00628376 -2.69962e-21)
(1.0003 -0.00629155 -1.92031e-21)
(1.11592 -0.0426965 1.00917e-20)
(1.11298 -0.0431805 1.38792e-21)
(0.995253 0.00135962 -3.51146e-21)
(0.995263 0.000910527 1.07715e-21)
(0.994775 0.00106717 -4.16767e-21)
(1.03151 -0.0712763 3.74595e-23)
(1.03371 -0.0718852 4.17855e-22)
(0.825732 -0.395767 0)
(0.847407 -0.392196 0)
(0.833778 -0.376756 -1.99655e-20)
(0.801877 -0.39915 0)
(0.818395 -0.421737 0)
(0.0165859 0.002878 2.99688e-21)
(0.00473154 0.00247594 0)
(0.69352 -0.0799575 5.64983e-20)
(0.686357 -0.0952244 0)
(1.01386 -0.0445763 -2.47511e-21)
(1.01262 -0.0443621 -1.55397e-21)
(1.01345 -0.0432881 2.30756e-21)
(-0.0794596 0.000418748 -1.3089e-20)
(-0.112574 0.00477393 -5.44868e-20)
(-0.0982329 0.00392253 -3.2244e-20)
(-0.0581055 0.00955401 -1.54482e-20)
(-0.0870879 0.0119173 -1.13489e-20)
(-0.0590362 0.00854901 1.22244e-20)
(1.124 -0.0630781 -1.10053e-20)
(1.12358 -0.0644929 -2.16015e-20)
(1.12534 -0.0643715 -7.44166e-21)
(0.989897 -0.0233177 -8.96729e-21)
(0.98917 -0.0227964 -1.43384e-21)
(0.989124 -0.0240101 7.09063e-21)
(0.0339137 0.00352488 -1.43495e-20)
(0.0141113 0.00211527 5.5741e-21)
(1.11406 -0.0254724 -1.38131e-21)
(1.11247 -0.025848 5.20282e-21)
(1.1138 -0.0269116 -1.44391e-21)
(1.00581 -0.0782283 -2.88064e-21)
(1.0039 -0.0764777 -3.54435e-21)
(1.00617 -0.075569 -6.45996e-21)
(-0.16929 0.0107882 4.01672e-20)
(-0.155789 0.011368 -9.56509e-21)
(1.02389 -0.009685 -2.33738e-22)
(1.0235 -0.0100745 1.77929e-22)
(1.02444 -0.0102927 -1.54115e-23)
(1.16688 -0.119007 1.45608e-20)
(1.18621 -0.124411 8.72605e-21)
(1.00241 -0.0178061 0)
(1.00234 -0.0170868 0)
(1.00192 -0.0173106 0)
(1.01516 -0.0450273 1.48645e-21)
(1.01422 -0.0461181 1.4001e-21)
(1.16437 -0.14826 -1.08672e-20)
(1.16471 -0.145787 -4.3901e-20)
(1.16684 -0.148531 -4.34102e-20)
(1.08581 -0.116745 2.46333e-22)
(1.08597 -0.120106 -7.91782e-21)
(0.0739239 0.00104203 -1.22576e-20)
(0.0799504 0.000930206 -1.15606e-20)
(0.0917456 0.00266026 2.72392e-20)
(0.0362247 0.00302277 3.09217e-20)
(0.0511005 0.00426371 8.36254e-21)
(-0.0450996 0.007243 4.83832e-20)
(-0.0351041 0.00683356 2.82803e-21)
(-0.00202229 0.00355345 4.28773e-20)
(1.01998 -0.100932 1.65332e-21)
(1.02171 -0.098163 1.65924e-21)
(0.155416 -0.00384453 -2.02153e-20)
(0.135251 -0.004192 6.39117e-21)
(0.158207 -0.00354874 5.42985e-21)
(0.989638 -0.00755995 -1.23453e-21)
(0.990034 -0.00811541 -9.21282e-21)
(0.990269 -0.00726638 0)
(0.0197206 -0.0013525 1.39427e-20)
(-0.0247847 0.00555664 1.19508e-20)
(0.96904 -0.00502656 0)
(0.970688 -0.00358509 0)
(1.08466 -0.0118896 -4.13636e-21)
(1.08587 -0.0115399 -7.17405e-21)
(-0.128014 0.00809561 3.51282e-20)
(-0.127404 0.00639793 -3.73985e-20)
(-0.0566294 0.00713516 2.53202e-20)
(-0.0805445 0.00844756 -5.48509e-21)
(0.0647614 0.0189811 -1.07493e-20)
(0.0527356 0.0171385 -7.89117e-22)
(0.0384196 0.0155614 -5.90116e-21)
(1.01917 -0.39405 6.18404e-21)
(1.01269 -0.378367 1.10188e-20)
(1.00185 -0.388289 -8.15723e-22)
(1.00628 -0.0251907 -7.08323e-22)
(1.00554 -0.0250038 -3.80829e-21)
(1.00604 -0.0260454 2.35275e-22)
(1.16649 -0.0346352 -8.58148e-21)
(1.16694 -0.0334657 1.52801e-20)
(1.16553 -0.0335437 1.46825e-20)
(-0.0330568 0.00763327 -4.18826e-21)
(-0.031993 0.00677076 0)
(-0.0543567 0.00596571 2.69296e-20)
(1.12535 -0.205133 1.577e-20)
(1.13057 -0.206145 0)
(1.12699 -0.210573 5.00712e-21)
(1.16616 -0.0357474 -1.00543e-20)
(1.16682 -0.0354671 -2.10523e-20)
(0.797397 -0.0915028 2.42223e-20)
(0.796607 -0.0813088 0)
(0.806706 -0.0867587 0)
(0.80146 -0.123109 1.48435e-20)
(0.800694 -0.112265 -2.19572e-20)
(0.789658 -0.11879 8.64429e-21)
(0.984743 -0.0236454 1.71926e-22)
(0.985577 -0.024136 -1.03626e-21)
(0.984605 -0.0250777 6.1666e-21)
(1.01492 -0.0258282 3.21165e-21)
(1.01536 -0.026787 -2.69712e-22)
(1.01562 -0.0259349 2.09616e-21)
(1.1181 -0.0727532 -2.94084e-21)
(1.11783 -0.0743243 -1.86692e-25)
(1.11972 -0.0733073 -2.13257e-21)
(1.01447 -0.0247954 -4.35867e-22)
(1.01401 -0.0256752 2.18149e-21)
(-0.0572274 0.00906818 -1.95156e-20)
(-0.0244207 0.00590473 0)
(1.08322 -0.0123148 -8.80913e-22)
(1.08494 -0.0131881 1.24845e-20)
(1.034 -0.028749 2.46965e-22)
(1.03466 -0.0280231 -5.5309e-22)
(0.999565 -0.126184 -1.69459e-21)
(1.00049 -0.130279 -2.3167e-21)
(0.996261 -0.12837 2.57728e-21)
(1.01255 -0.0258471 -2.40106e-21)
(1.0122 -0.0266719 5.48738e-21)
(1.15065 -0.106938 -2.17409e-21)
(1.15089 -0.105429 3.05468e-20)
(1.15235 -0.107066 -2.75236e-20)
(1.12068 -0.10524 7.29252e-21)
(1.11918 -0.103629 -8.27046e-21)
(1.11845 -0.105694 7.37757e-21)
(1.15544 -0.0521428 -2.87569e-21)
(1.15565 -0.0513025 1.96574e-20)
(1.15636 -0.052131 1.68043e-20)
(1.10881 -0.0165274 -2.55581e-21)
(1.10895 -0.0180218 2.00361e-21)
(1.01446 -0.0100071 -1.59946e-21)
(1.01414 -0.0102314 -1.38315e-21)
(1.01479 -0.0104751 7.02206e-22)
(1.01502 -0.0010495 4.03643e-22)
(1.01503 -0.0015778 8.69117e-23)
(-0.17318 0.00350636 -2.92576e-20)
(-0.154772 -0.000124514 -1.16928e-19)
(-0.0509992 -0.00308962 7.94244e-20)
(-0.0335217 -0.0035636 5.95014e-20)
(1.04005 -0.320276 1.00898e-20)
(1.03235 -0.328378 1.3315e-20)
(1.0439 -0.329622 -1.33587e-20)
(1.02963 -0.0238167 2.19419e-23)
(1.0285 -0.0233834 5.14012e-23)
(1.02918 -0.02286 4.87196e-23)
(1.00805 -0.0426661 -3.42435e-21)
(1.00893 -0.0436229 2.31569e-21)
(1.00777 -0.0439563 -3.20155e-21)
(0.107341 0.00584962 -4.59499e-21)
(0.121164 0.00707842 -1.12966e-20)
(0.105972 0.00643023 1.90476e-20)
(1.15662 -0.0818067 -3.31145e-21)
(1.15643 -0.0826367 1.91351e-20)
(1.15771 -0.0822455 -2.16061e-22)
(0.594843 -0.148168 -4.65794e-20)
(0.617718 -0.142617 -2.28362e-20)
(0.612668 -0.170852 4.85353e-20)
(1.00709 -0.0255488 5.81544e-21)
(1.00657 -0.0244144 3.84571e-21)
(1.07645 -0.166241 9.52362e-21)
(1.07608 -0.161581 -1.40385e-20)
(1.0728 -0.164854 -1.12905e-20)
(0.206091 0.0110599 -1.53285e-20)
(0.183664 0.0105852 -4.844e-23)
(0.20209 0.0110271 1.54568e-20)
(1.12446 -0.0537482 -4.57528e-21)
(1.12574 -0.054259 -1.62801e-20)
(1.12407 -0.0550515 1.36561e-20)
(1.01317 -0.0964884 2.77183e-21)
(1.01361 -0.0997718 2.09597e-21)
(1.07336 -0.0961208 0)
(1.07539 -0.0942592 -1.28614e-20)
(1.07237 -0.093894 -4.03647e-21)
(1.21595 -0.202205 -3.02288e-20)
(1.21853 -0.19787 5.20615e-20)
(0.284978 0.0109993 0)
(0.254385 0.0111881 0)
(1.11038 -0.137506 2.10535e-20)
(1.10943 -0.134202 -2.3632e-20)
(0.0631605 0.0182798 -2.09385e-22)
(0.0409948 0.0187959 -1.79604e-20)
(0.0329681 0.0183901 1.81349e-20)
(0.71035 -0.0795346 3.78901e-20)
(-0.0311663 0.00707358 4.39363e-20)
(-0.06233 0.00919763 3.17856e-21)
(0.843867 -0.0669334 2.39449e-20)
(0.834992 -0.0647807 4.45662e-20)
(0.84051 -0.0582901 2.5649e-20)
(1.12521 -0.0505291 -2.51907e-21)
(1.1242 -0.0494224 -1.51098e-20)
(1.12599 -0.0490559 0)
(1.16406 -0.151483 3.96276e-20)
(1.16142 -0.148271 6.95766e-20)
(0.966797 -0.0391854 -1.45985e-20)
(0.967256 -0.0371143 -3.56952e-21)
(0.968821 -0.0382765 -1.01176e-20)
(0.989156 -0.00709662 5.95866e-21)
(0.988906 -0.00801637 4.08238e-22)
(0.724657 -0.250515 -1.80937e-20)
(0.708121 -0.263039 0)
(0.729811 -0.267439 0)
(1.11614 -0.0902542 1.97313e-20)
(1.05476 -0.0816704 1.91958e-20)
(1.04683 -0.0785096 1.06692e-20)
(0.994407 -0.0712755 8.26438e-21)
(0.993587 -0.0731373 -3.61458e-21)
(0.991867 -0.0714579 -2.89523e-21)
(1.02423 -0.00930584 -1.16756e-22)
(1.02339 -0.00919705 -3.22424e-22)
(-0.0702603 0.0077572 1.62233e-20)
(0.207322 0.00143744 -4.10907e-21)
(0.209867 0.00275314 1.1832e-20)
(0.191127 0.00115238 -1.53008e-20)
(1.078 -0.169839 1.92526e-20)
(1.0805 -0.166347 1.78033e-20)
(1.16539 -0.0358908 8.34024e-21)
(1.16617 -0.0367403 1.25501e-21)
(1.15029 -0.109053 2.41099e-20)
(1.14864 -0.107156 -1.42982e-20)
(1.12207 -0.106798 1.29443e-21)
(1.12278 -0.104778 -9.99399e-21)
(1.15508 -0.0858949 -1.13878e-20)
(1.15509 -0.0865904 -2.76438e-21)
(1.15428 -0.0862102 -3.00268e-20)
(0.96906 -0.0148952 -2.76551e-21)
(0.969463 -0.0164135 5.71695e-21)
(0.967706 -0.0162024 3.88262e-21)
(0.982151 -0.0037436 -1.50355e-21)
(0.981711 -0.00300711 1.2164e-21)
(0.982715 -0.00287379 -6.17979e-21)
(1.00066 -0.00548259 8.60102e-23)
(1.00055 -0.0055511 -4.04635e-21)
(1.00053 -0.00513849 -6.4981e-21)
(0.0630398 0.0170496 1.40923e-20)
(0.0430174 0.0155375 2.16596e-20)
(1.12171 -0.0502875 1.08929e-20)
(1.12266 -0.0495595 -6.85136e-21)
(1.12131 -0.0489809 1.26441e-20)
(1.07708 -0.0222303 -9.99554e-21)
(1.07829 -0.022037 -3.25666e-21)
(1.07807 -0.0232586 -8.35494e-21)
(1.00009 -0.000375085 -8.20474e-23)
(1.00009 -0.00032973 3.23575e-21)
(1.00014 -0.000451455 2.53985e-23)
(0.294962 0.0018807 3.49744e-21)
(0.291136 0.0027363 7.98316e-22)
(0.313281 0.00274208 -8.76548e-21)
(1.11868 -0.0710448 7.37333e-23)
(1.11649 -0.0718838 -2.97739e-22)
(1.16161 -0.0375861 1.92299e-20)
(1.16258 -0.038464 -2.09482e-20)
(0.0946962 0.00132998 1.09501e-20)
(0.0784768 -0.000167291 -1.60246e-20)
(0.275987 0.00802854 1.34411e-20)
(0.258339 0.00778304 1.68706e-20)
(0.279135 0.00672176 -7.66896e-21)
(0.270173 0.00822626 -1.23304e-21)
(0.295664 0.00850033 5.03606e-21)
(-0.0835526 0.010422 2.27053e-20)
(-0.0609181 0.0113328 -1.04493e-22)
(1.00296 -0.123847 -1.87289e-22)
(0.99894 -0.122048 -4.81684e-21)
(0.599354 -0.00897062 -2.6431e-21)
(0.614092 -0.00957289 -1.89165e-20)
(0.540738 -0.00401709 -4.63422e-20)
(1.00008 -0.00596095 6.02017e-21)
(1.00001 -0.00562108 8.27985e-23)
(1.00012 -0.00562362 8.45774e-21)
(1.01486 -0.00978907 1.76229e-22)
(1.01417 -0.00948796 -1.98479e-21)
(1.12477 -0.0814603 1.49085e-20)
(1.1242 -0.0831248 0)
(1.12293 -0.0816323 0)
(1.00096 -0.000335665 -1.50003e-21)
(1.00086 -0.000428513 0)
(1.0008 -0.000279864 0)
(0.073263 0.0191379 -3.10553e-20)
(0.0942042 0.0192678 1.17774e-20)
(1.09905 -0.0473091 -4.67095e-21)
(1.14026 -0.0516798 -6.53209e-23)
(1.10305 -0.0475154 1.19391e-21)
(1.16358 -0.0422816 -7.40637e-21)
(1.16323 -0.0431636 -3.17706e-21)
(1.16409 -0.0428339 1.49348e-21)
(1.01524 -0.00960054 5.08608e-22)
(1.0155 -0.0100748 1.49242e-21)
(1.1144 -0.0226965 4.56061e-21)
(1.11424 -0.0242265 1.32205e-21)
(1.11287 -0.0230169 -5.10382e-21)
(1.16399 -0.0412587 5.0154e-21)
(1.1627 -0.0414832 7.12553e-21)
(1.15708 -0.0806373 -2.13777e-20)
(1.15565 -0.0811886 -1.7836e-20)
(1.0389 -0.401686 -9.53236e-21)
(1.00585 -0.121302 5.02333e-21)
(1.00505 -0.117463 7.5038e-21)
(1.00857 -0.118743 -6.38903e-22)
(1.12482 -0.051927 -5.96331e-21)
(1.12283 -0.0527043 7.92805e-22)
(-0.19598 0.00775006 1.14697e-20)
(-0.194835 0.00963427 -4.08317e-20)
(0.219693 0.00211728 0)
(0.202794 0.000122708 3.33971e-21)
(1.15401 -0.0571224 4.77148e-21)
(1.15511 -0.0576126 1.60009e-20)
(0.884656 -0.0472096 1.40724e-20)
(0.880841 -0.0430176 0)
(0.87907 -0.0491514 1.34747e-20)
(0.972833 -0.0181323 3.72288e-21)
(0.972529 -0.0167738 1.40575e-20)
(0.974 -0.0169595 7.77705e-21)
(1.01748 -0.0201116 -8.92396e-22)
(1.01737 -0.0208117 0)
(1.01826 -0.0206984 0)
(1.17297 -0.100767 0)
(1.16576 -0.0965516 -4.8976e-21)
(1.1215 -0.0516628 8.45263e-21)
(1.12001 -0.050744 -3.17249e-21)
(0.0677889 8.55339e-05 3.46273e-20)
(0.0573112 9.7923e-05 0)
(1.07345 -0.0649443 5.23431e-21)
(1.0748 -0.0668473 0)
(0.995129 -0.0690289 8.28085e-21)
(0.996964 -0.0708699 7.64097e-21)
(1.16734 -0.0324735 0)
(1.16782 -0.0312968 0)
(1.16632 -0.0311211 1.29256e-20)
(1.15396 -0.0563933 1.38217e-20)
(1.153 -0.0568705 -1.4082e-21)
(1.05113 -0.0249844 -1.13796e-21)
(1.05201 -0.0258797 1.05004e-21)
(1.05069 -0.0259668 2.17356e-21)
(1.039 -0.0407938 -2.58461e-22)
(1.03758 -0.0402622 5.21407e-22)
(1.03867 -0.0395106 -1.63583e-22)
(0.69154 -0.108795 5.89745e-20)
(0.710883 -0.113518 3.95166e-20)
(0.699573 -0.12524 -1.37666e-20)
(1.16416 -0.154246 5.45347e-21)
(1.16374 -0.157572 3.91481e-20)
(1.16088 -0.15454 -1.5192e-20)
(0.0879493 0.0170535 -3.76685e-21)
(0.102312 0.0176132 2.62219e-20)
(0.112383 0.0174549 -2.82254e-21)
(0.163068 0.0133981 -1.42979e-20)
(0.1559 0.0135911 1.79615e-20)
(0.186787 0.013459 -9.14287e-21)
(1.11395 -0.046444 5.98549e-21)
(1.11576 -0.0463456 -1.04747e-20)
(0.870555 -0.610882 1.39226e-20)
(0.870664 -0.661527 6.6829e-21)
(0.916336 -0.658994 1.77604e-20)
(0.0666063 0.0171295 9.55882e-21)
(0.0767496 0.0168533 -1.32078e-20)
(0.933459 -0.0100194 0)
(0.936123 -0.0091747 0)
(0.933763 -0.00691793 -1.49142e-20)
(1.12815 -0.0408998 -4.11821e-21)
(1.12742 -0.0421009 1.1326e-20)
(1.12676 -0.0405429 1.08338e-20)
(0.213935 0.00681096 3.46042e-22)
(0.22792 0.00739379 -1.89506e-20)
(0.207659 0.00670665 1.6195e-21)
(1.06418 -0.0702672 -1.6436e-21)
(1.06442 -0.0718483 -4.17838e-21)
(1.06256 -0.0710525 -6.08367e-21)
(1.16956 -0.0267601 3.83359e-21)
(1.17005 -0.0258955 3.55459e-20)
(1.16993 -0.0272613 3.57007e-20)
(1.00735 -0.0420073 -5.9695e-21)
(1.00823 -0.0418406 -2.22303e-21)
(1.16667 -0.153996 -1.07452e-20)
(1.00001 -0.00127714 -1.911e-21)
(1.00003 -0.00151534 5.58143e-22)
(1.00001 -0.00153899 -4.35305e-21)
(1.09246 -0.114113 -6.72782e-21)
(1.09469 -0.113062 -2.37045e-20)
(1.09426 -0.1164 -2.07324e-21)
(1.00624 -0.0838448 4.69056e-21)
(1.0084 -0.0847993 -1.22226e-21)
(1.00652 -0.0864617 9.55569e-22)
(0.978898 -0.0113493 4.56211e-22)
(0.979444 -0.012308 4.43008e-21)
(1.15951 -0.0680127 1.01695e-20)
(1.16053 -0.067633 -1.49546e-20)
(1.1604 -0.0687446 8.37078e-21)
(1.04631 -0.0346297 1.00386e-21)
(1.04541 -0.0334772 1.16854e-23)
(1.04708 -0.0335316 -3.77664e-24)
(0.156688 -0.450422 -2.61184e-20)
(0.109442 -0.489704 0)
(1.015 -0.00905182 0)
(1.0157 -0.00940136 0)
(1.15286 -0.0655765 8.99825e-21)
(1.15257 -0.0667311 -1.47998e-20)
(1.15156 -0.0656132 7.23094e-21)
(0.0694971 0.00124637 -1.57892e-20)
(0.0538692 0.000581641 -1.47752e-20)
(0.0520971 0.0176336 5.79131e-21)
(0.045914 0.0186498 -1.88571e-20)
(0.0780179 0.018199 -4.39632e-20)
(0.889397 -0.0566064 -3.60872e-20)
(0.89445 -0.0561136 -2.41917e-20)
(0.892039 -0.0610933 -1.71973e-20)
(1.12878 -0.0398077 -1.35681e-20)
(1.12937 -0.0413225 -9.49455e-21)
(1.00001 -0.000848675 7.5452e-21)
(1 -0.00063579 2.97747e-21)
(1 -0.000634701 2.96069e-21)
(0.735025 -0.238301 3.41862e-20)
(0.716523 -0.231379 -4.7081e-20)
(0.999593 -0.0118023 -3.11528e-21)
(0.999716 -0.0112082 5.72695e-22)
(0.999945 -0.0117633 -4.14199e-22)
(1.09024 -0.112667 8.09035e-21)
(0.121747 -0.0475907 0)
(0.00742878 -0.0291248 0)
(0.0490295 -0.0350488 -1.70035e-20)
(0.886787 -0.0523615 -8.04717e-21)
(0.889387 -0.0466423 1.5939e-20)
(1.06363 -0.0681809 6.91464e-21)
(1.06578 -0.0689207 7.19994e-21)
(0.99639 0.00289067 -3.46675e-23)
(0.995977 0.0027204 -4.45534e-22)
(0.14249 0.0133116 2.76652e-21)
(0.167304 0.0120455 -1.46471e-20)
(1.02208 -0.0168977 4.81705e-22)
(1.02177 -0.0160585 -6.28587e-23)
(0.97841 -0.438837 2.15211e-20)
(1.05253 -0.48524 -1.47368e-21)
(0.151496 0.0133878 2.46145e-20)
(0.145608 0.0131671 -2.5088e-20)
(0.173927 0.0131439 -1.07714e-20)
(1.11996 -0.203729 2.66719e-21)
(1.12382 -0.199599 1.69426e-20)
(1.00009 -0.000418157 0)
(1.00005 -0.00029949 0)
(1.14629 -0.298016 0)
(1.15862 -0.295476 6.0549e-20)
(1.16166 -0.305887 -2.8042e-20)
(0.0392016 0.00268234 4.14855e-21)
(0.0439258 0.00245901 1.78233e-20)
(0.0572746 0.00425254 3.3281e-20)
(0.361955 0.0059749 1.45717e-20)
(0.341896 0.00503907 -1.63763e-20)
(1.16804 -0.0264368 -2.64886e-20)
(1.10229 -0.0626236 4.29817e-22)
(1.1013 -0.064294 1.46591e-20)
(1.10036 -0.0621612 0)
(0.696951 -0.293533 6.9259e-21)
(0.691195 -0.275972 3.0216e-20)
(0.674317 -0.289071 6.41035e-20)
(1.15866 -0.0672254 1.39972e-20)
(1.15848 -0.0683262 -6.89432e-21)
(1.11581 -0.0223277 -7.67939e-21)
(1.11438 -0.0212294 -6.34207e-21)
(1.02251 -0.369212 5.50832e-21)
(1.00888 -0.365711 4.75686e-22)
(1.01601 -0.13528 4.40579e-22)
(1.01208 -0.134275 -1.33058e-21)
(1.01503 -0.131541 5.05642e-23)
(0.133553 -0.00301772 3.09472e-20)
(0.119418 -0.00267577 1.40054e-20)
(0.118111 -0.0034773 -7.26428e-21)
(1.14902 -0.0800066 3.24887e-21)
(1.14935 -0.078667 8.51e-22)
(1.14784 -0.0794348 -4.60156e-22)
(1.01013 -0.00070963 3.41322e-22)
(1.01078 -0.00101616 1.08005e-21)
(1.01024 -0.00144924 -1.3431e-21)
(1.08477 -0.0501313 -4.63557e-21)
(1.08346 -0.0489402 -6.23868e-22)
(1.08289 -0.0504577 7.07906e-22)
(1.16753 -0.0334812 -1.79558e-20)
(0.294936 0.00165867 0)
(0.277721 0.00231598 1.29276e-20)
(0.185951 -0.00503553 0)
(0.202367 -0.00427887 1.00235e-20)
(0.191534 -0.00513341 0)
(1.01682 -0.0195762 3.47795e-23)
(1.01762 -0.0195495 -4.56883e-22)
(0.575407 -0.159754 -7.43053e-20)
(0.990418 -0.00859912 3.7178e-21)
(0.990805 -0.00905896 8.12191e-21)
(0.991033 -0.00828062 1.26669e-20)
(1.15981 -0.0581667 -3.5845e-21)
(1.15963 -0.0590016 3.24685e-20)
(1.15879 -0.0583483 4.45104e-20)
(1.15599 -0.0832367 -1.80327e-21)
(1.15565 -0.0839617 2.46757e-20)
(1.15502 -0.0830731 -1.82955e-20)
(1.08567 -0.0513013 -5.0556e-21)
(1.08618 -0.0499503 7.10215e-21)
(1.11927 -0.069672 2.6797e-21)
(1.12062 -0.0704776 -1.50623e-20)
(1.14898 -0.0811282 0)
(1.15016 -0.0802624 0)
(0.995109 -0.0226743 -8.11742e-21)
(0.995655 -0.0235599 1.5079e-21)
(0.995814 -0.0223075 -3.46413e-21)
(0.798913 -0.101125 -6.10087e-21)
(0.788107 -0.0956896 2.25514e-20)
(1.15849 -0.0383215 1.0525e-20)
(1.15965 -0.0379629 -1.08223e-20)
(1.15863 -0.0371684 1.25403e-20)
(0.988772 -0.0525694 -3.51249e-21)
(0.984363 -0.0528052 4.13375e-20)
(1.04835 -0.0613314 2.19878e-20)
(0.996561 -0.00552208 -4.91208e-21)
(0.996907 -0.00532748 -9.48346e-22)
(0.996729 -0.0049509 -5.08077e-21)
(0.979593 -0.0104931 -3.8934e-21)
(0.978246 -0.0105302 -8.32341e-21)
(0.883931 -0.0578051 -3.01387e-20)
(0.26744 0.00997753 -3.50742e-21)
(0.273112 0.0095023 5.87189e-21)
(0.293362 0.010473 8.1644e-22)
(-0.1952 0.00751448 -9.09263e-21)
(-0.223594 0.00954225 0)
(-0.196108 0.00697125 -6.49042e-20)
(1.12269 -0.0589701 8.36456e-22)
(1.12122 -0.0587351 2.25755e-20)
(1.12209 -0.0603465 2.99696e-20)
(1.03062 -0.0241967 0)
(1.02996 -0.0247849 0)
(1.15745 -0.0798926 -4.41665e-21)
(1.15839 -0.0804217 1.40781e-20)
(1.15521 -0.0851831 -2.38634e-20)
(1.15537 -0.0845738 1.29937e-20)
(1.15453 -0.0846457 -1.05006e-20)
(1.15324 -0.0538671 -1.21462e-20)
(1.15331 -0.0526244 1.47677e-20)
(1.15223 -0.0531446 1.21757e-20)
(1.11994 -0.0680464 1.28048e-20)
(1.11788 -0.0686796 2.38088e-21)
(0.262389 0.00985185 -9.88796e-21)
(0.245276 0.00831271 6.6587e-23)
(-0.013173 0.00569672 -1.05142e-20)
(-0.0116463 0.00498677 -2.14299e-20)
(-0.0334035 0.00496949 8.71223e-21)
(1.0834 -0.0577555 -3.80327e-21)
(1.08275 -0.0590939 -4.84813e-23)
(1.08451 -0.0586392 -6.13143e-21)
(1.10987 -0.0456511 -2.28317e-21)
(1.11127 -0.0464718 -1.92141e-20)
(1.11102 -0.0448267 -1.47861e-20)
(1.22521 -0.235691 5.56282e-21)
(1.21076 -0.226237 4.12184e-21)
(1.13497 -0.210638 1.6794e-20)
(1.01787 -0.0254221 1.97208e-21)
(1.01816 -0.0264574 2.54178e-21)
(1.01699 -0.0255944 -1.37047e-21)
(1.00074 -0.00536534 4.22637e-21)
(1.00081 -0.00526251 1.38484e-22)
(1.00068 -0.00496259 0)
(1.15315 -0.0547907 -2.73883e-20)
(1.15411 -0.0542749 -1.40207e-20)
(1.09434 -0.144777 1.08517e-22)
(1.09401 -0.14138 -9.17404e-21)
(1.09109 -0.143392 -1.91726e-22)
(1.02295 -0.0171987 8.8347e-22)
(1.02372 -0.0175143 -5.80963e-23)
(1.02335 -0.0167652 4.02366e-22)
(1.00006 -0.00155976 -5.66443e-21)
(1.00004 -0.00153464 4.0764e-21)
(1.00003 -0.00131269 1.88333e-21)
(0.999466 -0.0122334 -3.50895e-21)
(0.999298 -0.0116838 0)
(1.00369 -0.000699505 3.32588e-23)
(1.00398 -0.000730613 3.72283e-23)
(1.00367 -0.000416989 2.16728e-24)
(1.10357 -0.0557735 2.35202e-20)
(1.10478 -0.0570371 8.15242e-21)
(1.10553 -0.055417 1.62129e-20)
(1.00079 -0.00581662 4.25985e-21)
(0.219046 0.0066279 9.5822e-21)
(0.238427 0.0071952 -9.74547e-21)
(1.11968 -0.0608237 -1.92396e-20)
(1.11973 -0.0590766 -3.47637e-21)
(1.00656 -0.0339355 1.82094e-21)
(1.00578 -0.0336078 8.02502e-22)
(1.0062 -0.0347003 1.17304e-21)
(0.283644 0.00034352 -1.26365e-20)
(0.104861 0.00624566 -1.77303e-20)
(0.0935362 0.0060996 7.00166e-21)
(0.971108 -0.0110343 -1.52892e-21)
(0.971451 -0.0124828 -4.23682e-21)
(0.97259 -0.011374 -4.27792e-21)
(1.15397 -0.0655712 1.30778e-20)
(-0.0563424 0.00859344 -5.47389e-21)
(-0.0786886 0.00751565 -3.44284e-20)
(-0.0543056 0.00762948 5.44822e-21)
(0.964868 -0.0401665 -8.2356e-22)
(0.966917 -0.0412355 1.67878e-20)
(0.970624 -0.00960148 6.92862e-21)
(0.969271 -0.010926 -4.93073e-22)
(1.12 -0.0625124 8.27502e-22)
(1.12121 -0.061586 5.49924e-21)
(0.059882 0.000703008 7.0643e-21)
(0.0581394 0.00139729 -5.93851e-21)
(0.075073 0.00196581 7.72522e-21)
(0.378436 -0.01989 2.88322e-20)
(0.301811 -0.0100436 -1.4771e-21)
(0.367308 -0.0199049 8.2213e-20)
(1.12979 -0.0769973 -1.78519e-20)
(1.13078 -0.0783483 2.98631e-21)
(1.12901 -0.0780298 6.10631e-21)
(1.00205 -0.00048267 2.31221e-21)
(1.00195 -0.000684981 -3.6916e-21)
(0.590256 -0.0088326 1.80484e-20)
(0.661874 -0.0153725 2.57263e-20)
(1.00003 -0.00629838 3.41059e-21)
(1.13176 -0.079518 8.08532e-21)
(1.13141 -0.0809704 -2.04643e-21)
(1.13308 -0.0806976 -1.06962e-20)
(-0.0602323 0.00919022 0)
(-0.038781 0.0106338 0)
(0.988516 -0.0534362 2.97739e-21)
(0.990322 -0.0521534 -2.54464e-20)
(1.04844 -0.0599063 -1.39266e-20)
(1.07563 -0.0227234 0)
(1.07582 -0.0214665 2.68533e-21)
(1.22663 -0.247818 1.77831e-20)
(1.223 -0.241011 -3.56575e-20)
(1.20003 -0.202596 1.43277e-20)
(1.18439 -0.197052 5.26098e-21)
(1.18291 -0.202319 -8.3433e-21)
(-0.0338384 0.00930535 -1.23393e-20)
(-0.0237985 0.0098976 -6.06797e-20)
(0.00600221 0.00686272 2.48441e-20)
(1.15008 -0.110794 7.52898e-21)
(1.14811 -0.111198 -5.41486e-20)
(1.14977 -0.112768 -1.63449e-20)
(0.776712 -0.0693463 -4.61579e-20)
(0.777967 -0.0584468 -2.20817e-20)
(0.765631 -0.0616988 3.54937e-20)
(0.0849685 0.018113 4.7223e-23)
(0.0938371 0.0183846 3.0326e-20)
(0.135777 0.00851004 -4.51824e-21)
(0.150336 0.00919594 1.12355e-20)
(0.133045 0.00825894 1.44005e-20)
(1.02991 -0.0625738 -1.58584e-20)
(0.964221 -0.05259 -1.42716e-20)
(1.04031 -0.0413966 -7.04783e-22)
(1.03915 -0.0422374 3.63038e-22)
(-0.178105 0.0120291 -4.60545e-20)
(-0.158924 0.0106601 2.57122e-21)
(-0.149938 0.0111438 5.9774e-20)
(0.101576 -0.00350424 -3.30852e-20)
(0.103062 -0.00399958 -1.65585e-20)
(0.459784 -0.381373 4.05936e-21)
(0.427574 -0.354511 6.12997e-21)
(0.428067 -0.400108 -1.00283e-19)
(0.489524 -0.362427 2.83743e-20)
(0.498333 -0.403364 -1.88664e-20)
(0.931416 -0.0110796 2.79676e-20)
(0.932656 -0.0125693 -2.08897e-20)
(1.12824 -0.081231 0)
(1.12653 -0.0812781 1.45959e-20)
(1.12778 -0.0828009 -1.52866e-20)
(0.927105 -0.103925 -9.76268e-21)
(0.930769 -0.10021 -4.96582e-21)
(0.932446 -0.105762 -1.50767e-20)
(0.166914 -0.00340256 -4.288e-21)
(0.149059 -0.00468026 1.47424e-21)
(0.778894 -0.114805 0)
(0.778172 -0.102009 0)
(0.764623 -0.109611 0)
(1.0078 -0.0019533 3.18842e-22)
(1.00775 -0.00232675 9.65792e-22)
(1.00818 -0.002206 -3.34907e-21)
(1.02443 -0.000807654 -3.57799e-22)
(1.02427 -0.000677176 3.99419e-23)
(1.04595 -0.0959746 -1.60343e-21)
(1.04807 -0.0974314 3.82866e-21)
(1.04532 -0.0982378 -1.39407e-21)
(-0.0656053 0.00773225 3.91383e-20)
(-0.0444157 0.0092435 -3.33884e-20)
(0.222961 -0.481307 -1.99416e-21)
(1.01861 -0.0252787 -1.20068e-21)
(1.01758 -0.0246109 -1.85387e-21)
(0.0294351 0.0184097 7.48185e-21)
(0.917277 -0.0997178 4.30582e-21)
(0.922637 -0.102278 -1.16583e-20)
(0.921275 -0.096278 -2.00797e-22)
(1.07178 -0.0977186 9.53068e-21)
(1.07444 -0.0978764 -7.04569e-21)
(1.07958 -0.0222172 4.60203e-21)
(1.07876 -0.021172 -1.29542e-21)
(0.0591408 0.000622946 7.53492e-23)
(0.0434016 0.00150647 -2.08114e-23)
(1.15795 -0.0787763 8.594e-21)
(1.1566 -0.0791953 -2.47431e-20)
(1.16835 -0.0314552 9.14714e-21)
(1.00606 -0.0808202 3.12727e-21)
(1.00395 -0.0822283 -7.71e-22)
(1.063 -0.0664892 1.17197e-21)
(1.06158 -0.0676142 3.3824e-21)
(0.341735 0.00231832 -5.01144e-21)
(0.3449 0.00185504 -3.40293e-20)
(0.326509 0.00160819 -2.43169e-20)
(0.971823 -0.0193844 -9.9039e-21)
(0.973351 -0.0194704 4.4021e-21)
(1.15587 -0.0857251 -1.11206e-20)
(1.08212 -0.0564549 7.52338e-21)
(1.08422 -0.0560761 4.04959e-22)
(1.11885 -0.0632363 9.34332e-21)
(1.12059 -0.0638629 1.25492e-20)
(0.913885 -0.104093 -1.42511e-20)
(0.911615 -0.0977654 2.16033e-20)
(0.989774 -0.00895486 -3.62879e-21)
(1.00762 -0.0344218 0)