/*--------------------------------*- C++ -*----------------------------------*\
| =========                 |                                                 |
| \\      /  F ield         | OpenFOAM: The Open Source CFD Toolbox           |
|  \\    /   O peration     | Version:  v2012                                 |
|   \\  /    A nd           | Website:  www.openfoam.com                      |
|    \\/     M anipulation  |                                                 |
\*---------------------------------------------------------------------------*/
FoamFile
{
    version     2.0;
    format      ascii;
    class       surfaceVectorField;
    location    "250";
    object      Uf;
}
// * * * * * * * * * * * * * * * * * * * * * * * * * * * * * * * * * * * * * //

dimensions      [0 1 -1 0 0 0 0];


internalField   nonuniform List<vector> 
20642
(
(0.557596 0.0418236 -2.35748e-21)
(0.564396 0.0426797 -2.00249e-21)
(0.585416 0.0449231 -1.10356e-20)
(1.0333 -0.0207455 -5.36026e-22)
(1.03521 -0.0212363 7.38346e-22)
(1.03316 -0.0226926 -1.0466e-21)
(1.02389 0.0481935 6.48529e-21)
(1.02352 0.0484003 0)
(1.02455 0.0486623 0)
(1.02327 0.00283516 0)
(1.02307 0.00290691 1.13576e-21)
(1.02301 0.00256766 -1.5624e-21)
(1.06688 -0.0133982 -1.01711e-22)
(1.07117 -0.0140987 4.63598e-22)
(1.06763 -0.0168316 -1.43232e-22)
(1.03141 -0.020585 -5.7638e-22)
(1.03237 -0.0187012 1.48083e-21)
(1.02357 0.0146338 5.47533e-23)
(1.02334 0.0138994 -3.47853e-21)
(1.02293 0.0143502 1.17704e-22)
(1.05644 -0.0738984 -2.24481e-21)
(1.03977 -0.0746746 -7.21444e-23)
(1.03209 -0.0835621 9.94616e-22)
(1.03386 0.0142108 7.01725e-21)
(1.03329 0.0142013 1.00027e-20)
(1.03367 0.0148641 5.82427e-21)
(0.00984997 -0.0403795 7.06338e-21)
(0.021431 -0.0426946 -6.26232e-23)
(1.05054 -0.0709976 2.9275e-21)
(1.06155 -0.0639588 -8.20711e-22)
(1.02141 -0.00167345 0)
(1.02138 -0.0016724 -9.15783e-22)
(1.02144 -0.00141726 0)
(1.0114 8.842e-06 -3.04005e-22)
(1.01139 -2.75941e-05 -1.79238e-21)
(0.601795 -0.165544 -1.29191e-21)
(0.610241 -0.172961 0)
(0.579825 -0.140914 -4.0267e-21)
(1.02786 -0.0235033 -4.73367e-22)
(1.02727 -0.0235488 -3.49718e-22)
(1.02754 -0.0227519 -8.39249e-22)
(0.544158 0.0403414 -3.39429e-21)
(0.503863 0.0359691 -2.08051e-20)
(1.00292 0.000712635 0)
(1.00326 0.000728457 0)
(1.00214 0.000350803 -7.13646e-23)
(1.04032 -0.0669027 4.24491e-21)
(1.03064 -0.062657 -1.05188e-21)
(1.03992 -0.0585609 3.16013e-21)
(1.01793 0.0439067 -4.82033e-21)
(1.01822 0.0445136 0)
(1.01743 0.0444744 0)
(0.505885 0.0500808 2.95178e-20)
(0.565186 0.0554751 -4.96303e-21)
(0.567224 0.0573966 1.64714e-20)
(1.00643 -0.014549 -2.70728e-22)
(1.00493 -0.0147803 7.48877e-22)
(1.00608 -0.0161807 7.3802e-22)
(1.03625 -0.0110495 1.96863e-22)
(1.0355 -0.0109336 -2.69246e-22)
(1.03633 -0.0116442 8.12017e-23)
(1.019 0.0284816 9.15005e-21)
(1.01968 0.0285315 -1.81596e-21)
(1.01916 0.0292114 9.32166e-21)
(1.03705 -0.0111072 2.04092e-22)
(1.03619 -0.0104829 -5.40449e-22)
(1.01978 0.00160797 2.9241e-21)
(1.01963 0.00200158 -1.39209e-21)
(1.01951 0.00141285 6.57465e-22)
(1.00527 -0.0217825 3.04026e-22)
(1.00556 -0.0198957 1.03002e-22)
(1.00722 -0.0212189 1.75331e-21)
(0.764712 0.0607281 -2.40059e-22)
(0.820595 0.0546265 2.50019e-22)
(0.818563 0.0581803 2.58995e-22)
(0.0195774 -0.0327256 3.26323e-21)
(1.0119 -0.0432856 1.39831e-21)
(1.00973 -0.0400086 -4.70559e-21)
(1.01432 -0.0401734 -1.09922e-21)
(1.01149 -0.0225793 0)
(1.01261 -0.0231429 -2.62156e-23)
(1.01195 -0.0219676 -5.58313e-23)
(-0.00103124 -0.0144978 9.0901e-22)
(0.0216988 -0.0228664 -8.28605e-21)
(1.02547 0.0374963 8.87112e-22)
(1.02581 0.0379578 -2.18126e-21)
(1.02519 0.0377645 6.5933e-21)
(1.02136 0.000681332 -2.44478e-21)
(1.02136 0.000462372 2.09105e-21)
(1.02148 0.00078951 -3.11311e-21)
(0.639183 0.0463535 8.55483e-21)
(0.656968 0.0480913 -7.23751e-21)
(0.657376 0.0475238 -3.6569e-21)
(1.04587 0.0136927 1.22053e-23)
(1.04473 0.0142418 1.53943e-23)
(1.04657 0.0152594 -6.72302e-23)
(1.02847 -0.0731166 2.1846e-21)
(0.986904 -0.0894402 2.36396e-22)
(1.02005 -0.0105728 3.73735e-23)
(1.01958 -0.0101254 -7.29822e-22)
(1.01967 -0.0109836 -1.06541e-21)
(1.01306 -4.2784e-05 -7.50248e-22)
(1.01853 6.8519e-05 6.98667e-22)
(1.01214 -4.84432e-05 -6.10408e-22)
(1.0238 0.0152944 1.03323e-22)
(1.02414 0.0148255 -2.82904e-21)
(0.999972 0.00121747 -8.41205e-23)
(0.998841 0.00205276 -4.27093e-23)
(1.00043 0.00267548 3.02021e-22)
(0.996486 0.00013768 1.60851e-22)
(0.99701 8.76111e-05 7.17658e-22)
(0.994946 -2.27862e-05 -5.04367e-23)
(1.01789 0.0262991 0)
(1.01841 0.027121 0)
(1.01881 0.0265238 0)
(1.03287 0.0105135 -1.39267e-22)
(1.03217 0.0104809 1.70391e-20)
(1.03261 0.00993827 7.48163e-21)
(1.02163 0.0434464 0)
(1.02205 0.0433433 7.52632e-21)
(1.02196 0.0439133 3.35867e-21)
(1.0213 0.0428979 0)
(1.02101 0.0435351 0)
(0.988081 0.0371787 -2.83163e-21)
(0.989668 0.0377545 -8.80861e-22)
(0.987366 0.0385842 -1.24967e-21)
(1.00799 -0.0140026 -1.66251e-22)
(1.00701 -0.0127847 -5.63745e-22)
(0.262378 0.116206 1.16745e-21)
(0.381818 0.121614 6.21808e-21)
(0.372191 0.129056 6.66202e-21)
(0.724556 0.0726614 1.16461e-21)
(0.71469 0.0366871 4.09659e-21)
(0.765714 0.0542263 4.24792e-21)
(1.04573 0.0125232 1.43883e-23)
(1.04732 0.0134742 1.32804e-23)
(1.02141 -0.00189307 -3.69925e-21)
(1.02139 -0.0016424 0)
(1.0004 0.0381858 4.38221e-21)
(0.999131 0.0382503 1.82532e-21)
(0.999732 0.037013 -1.96573e-21)
(0.395109 0.030243 0)
(0.508639 0.0348677 0)
(0.392027 0.0296897 1.38167e-20)
(1.02367 -0.00680398 0)
(1.02364 -0.00656362 0)
(1.02395 -0.00701217 -6.19252e-22)
(1.02315 -0.00651088 -1.94289e-21)
(1.02317 -0.00634348 5.87153e-22)
(1.0229 -0.00604977 9.31074e-22)
(1.00131 0.0381485 4.69174e-21)
(1.00075 0.039401 -7.99654e-22)
(0.168603 0.017822 -7.71593e-21)
(1.01822 0.028274 3.95075e-21)
(1.01888 0.0275274 -3.08476e-22)
(1.01732 0.0254699 0)
(1.01694 0.0260565 6.42546e-23)
(0.987773 0.0360575 -3.40709e-22)
(0.988211 0.0356238 -3.48098e-22)
(0.424833 0.0880659 -2.61342e-22)
(0.355074 0.0923369 -2.50025e-21)
(0.345027 0.098928 -1.2439e-21)
(1.06578 0.0480171 0)
(1.06955 0.047842 2.95837e-22)
(1.06685 0.0438033 -5.47182e-22)
(1.00141 -0.000685813 0)
(1.00116 -0.000782703 3.72559e-23)
(1.00203 -0.00114328 0)
(1.02006 0.00178579 1.87607e-22)
(1.01991 0.00128092 9.10451e-22)
(0.949283 0.0595138 2.9534e-21)
(0.945996 0.061314 6.40573e-21)
(0.921948 0.0631777 1.14177e-20)
(0.96151 -0.0847212 0)
(0.977043 -0.0788927 0)
(0.967163 -0.0769204 -1.83284e-22)
(1.01431 -0.0470051 3.70489e-22)
(1.01751 -0.0507509 -1.16958e-21)
(1.01982 -0.0464116 7.69672e-22)
(1.05197 -0.0595078 3.50132e-22)
(1.01894 -0.0681776 -1.01345e-20)
(1.03742 -0.0779781 6.16932e-21)
(0.564086 0.0392168 -9.10819e-23)
(0.54206 0.0389656 0)
(0.54045 0.0384412 0)
(1.02666 0.0545525 -7.41021e-21)
(1.02915 0.0542125 -8.49735e-21)
(1.01611 0.0563625 -1.06021e-20)
(0.623659 0.0450615 2.6194e-21)
(0.624188 0.0453716 -1.25344e-20)
(1.02343 0.000614265 0)
(1.02373 0.0007597 0)
(1.02339 0.000701944 0)
(1.01678 0.024691 -2.70945e-23)
(1.01775 0.0249072 2.27462e-23)
(1.0032 -0.0149087 -1.27675e-21)
(1.00379 -0.0133199 4.59649e-22)
(1.01816 -0.00179151 -2.32728e-21)
(1.01782 -0.0013587 1.75607e-22)
(1.01787 -0.00221788 -1.84019e-21)
(1.052 -0.018555 -4.76805e-23)
(1.05288 -0.0195367 2.99483e-22)
(1.05084 -0.0196147 -3.73344e-23)
(1.01625 0.023902 -1.35226e-23)
(1.01578 0.0244565 -6.12315e-23)
(1.01844 -0.00135611 7.77408e-22)
(1.0185 -0.00207357 1.75339e-21)
(1.02124 0.000589227 -7.37849e-22)
(1.02129 0.000945792 -7.40588e-22)
(1.02806 -0.0129143 -4.86159e-22)
(1.0286 -0.0130952 2.3964e-22)
(1.02809 -0.0123982 -4.85244e-22)
(1.00666 0.000856347 2.2842e-23)
(1.00627 0.000846224 -2.49424e-23)
(1.00478 0.000403714 8.7588e-23)
(1.02348 0.000512999 -2.38886e-21)
(1.02314 0.000443377 0)
(1.03211 0.0493632 2.69031e-20)
(1.0321 0.0489571 -2.27773e-21)
(1.03278 0.0484831 1.5855e-20)
(1.01961 -0.000892136 -6.57987e-22)
(1.01962 -0.00100331 3.12221e-22)
(1.01974 -0.00099876 -1.42945e-22)
(0.912831 -0.0857225 -4.54819e-21)
(0.874095 -0.073113 -3.14617e-22)
(0.861593 -0.0824099 -2.84119e-22)
(1.02593 0.0370386 -5.95656e-21)
(1.02511 0.0369691 -4.68609e-21)
(1.0196 -0.000379685 -9.19569e-22)
(1.01973 -0.000379593 7.2231e-22)
(1.01902 -0.00026846 0)
(1.00123 0.000402005 -7.8496e-22)
(0.999774 -0.000432311 3.86196e-23)
(1.00244 0.000667752 -9.63494e-23)
(1.00319 0.00107846 -6.93475e-23)
(1.002 0.00180509 0)
(1.00147 0.00164642 -5.08733e-23)
(1.00177 0.00212935 1.47406e-22)
(1.03299 0.0111752 -7.7469e-21)
(0.730951 0.105201 0)
(0.691616 0.0937831 0)
(1.03676 0.0150612 -3.79355e-23)
(1.03678 0.0161334 4.10839e-23)
(1.03561 0.0152458 -4.48338e-23)
(1.02368 -0.00912758 1.50219e-22)
(1.02405 -0.00937454 6.46153e-22)
(1.02393 -0.0097128 1.79193e-21)
(1.00872 -0.0471153 3.69621e-22)
(0.818833 0.0654647 1.1034e-21)
(0.883175 0.0528671 -4.55871e-21)
(0.856486 0.0548757 -4.97486e-21)
(1.01497 0.000818526 -4.50874e-22)
(1.01534 0.000772593 -1.95732e-23)
(1.01188 0.000437959 4.2896e-23)
(1.01963 -0.000494281 2.23615e-21)
(1.01946 -0.000347732 4.96185e-22)
(0.964455 0.0229918 8.12663e-21)
(0.965322 0.0176937 -2.84743e-22)
(0.960799 0.0191405 -2.25259e-21)
(0.995365 -0.000338425 -4.27667e-22)
(0.995185 -0.000297943 -1.30862e-22)
(0.996328 -0.000166808 1.38682e-22)
(0.99549 -0.000378007 4.14818e-22)
(0.995098 -0.000494555 4.12102e-23)
(1.02798 -0.0133611 -9.44867e-22)
(1.02754 -0.0126647 6.89367e-22)
(1.01918 0.00140798 -1.24146e-23)
(1.0194 0.00128728 -1.79598e-22)
(1.01817 0.00100726 -4.58009e-23)
(1.05089 -0.0173005 -4.74009e-23)
(1.0527 -0.0169654 0)
(1.02598 0.0467362 4.94558e-21)
(1.02682 0.0465374 1.61467e-20)
(1.03271 0.0461788 1.5247e-20)
(0.646378 0.0832216 -5.98399e-21)
(0.643629 0.0791621 1.30459e-20)
(0.626906 0.0829609 0)
(1.06152 0.0473324 -2.82969e-22)
(1.06278 0.0515046 -6.26151e-22)
(1.01801 0.0277134 3.26802e-23)
(1.01894 0.0279419 -2.43064e-23)
(0.712555 0.0672172 -1.17417e-23)
(0.712343 0.0597657 1.81512e-21)
(1.01665 -0.000214262 -2.15194e-21)
(1.01667 -0.000314332 -2.11548e-21)
(0.677436 0.0499817 -1.4685e-20)
(0.658953 0.0491541 -7.68838e-21)
(1.00817 -0.0367149 -6.11966e-22)
(1.00532 -0.0394746 -1.83723e-21)
(0.948062 0.0596852 7.92481e-23)
(0.975787 0.0591167 5.5743e-21)
(1.01715 -0.00361434 1.6479e-21)
(1.01675 -0.00310162 -6.97429e-22)
(1.01738 -0.00302172 1.08134e-21)
(1.01768 0.0431666 -4.06269e-21)
(1.01841 0.0433931 -5.05166e-21)
(0.995207 0.000781698 1.49849e-22)
(0.995196 0.00105174 1.40738e-23)
(0.995476 0.000911779 -7.21886e-23)
(1.02227 0.0481461 8.18417e-22)
(1.02271 0.0479463 1.08584e-21)
(1.02236 0.0476658 -5.15572e-21)
(1.02312 -0.0005482 0)
(1.02314 -0.000352533 0)
(1.02283 -0.000543241 9.43495e-22)
(1.00786 0.00126952 -3.02962e-23)
(1.00697 0.000797771 3.79983e-22)
(1.01711 0.0227686 -2.10347e-23)
(1.01748 0.0221614 -4.68156e-23)
(1.01651 0.0219666 -2.12611e-23)
(1.02098 -0.0546198 1.46884e-22)
(1.01432 -0.0557618 2.61605e-21)
(1.01123 0.0402872 -5.21479e-21)
(1.01026 0.0400044 -5.17322e-22)
(1.0111 0.0391608 -3.36496e-21)
(0.536161 0.0333762 6.32855e-22)
(0.560837 0.0358831 9.62463e-21)
(0.539301 0.03406 -1.1328e-20)
(1.02521 0.0501119 -6.78843e-21)
(1.02552 0.0501908 1.06749e-20)
(1.02031 0.00194015 -3.2742e-21)
(1.02056 0.00207956 -8.47042e-21)
(1.02043 0.00163899 1.55587e-21)
(1.0026 -0.0167299 -8.63231e-22)
(1.0014 -0.0150097 -5.31745e-22)
(1.04015 -7.47954e-05 -1.23364e-22)
(1.04003 0.000575923 3.19221e-22)
(1.03909 0.000188993 2.03673e-22)
(1.01206 0.040333 -6.22685e-21)
(1.01146 0.0410059 -1.41666e-20)
(1.02995 0.0236401 1.40181e-20)
(1.02937 0.0239455 -6.4258e-22)
(1.03006 0.0242343 5.90208e-22)
(0.990903 0.0286337 -8.2128e-22)
(0.99082 0.0284551 0)
(0.990976 0.0283994 0)
(0.882388 0.0482405 1.78008e-20)
(0.851547 0.0479516 9.4763e-21)
(0.854991 0.0478629 9.85839e-21)
(1.01683 -0.0041763 7.31964e-22)
(1.01742 -0.00419242 -7.26146e-22)
(1.02451 0.0396647 5.97252e-21)
(1.02396 0.0399003 -1.04909e-20)
(1.02453 0.0402529 4.37454e-21)
(0.661502 0.0745787 2.26245e-21)
(0.710505 0.0742294 5.92163e-22)
(0.285011 0.0795623 -8.27054e-22)
(0.364892 0.0772227 8.12287e-22)
(0.368802 0.071466 -1.5105e-22)
(0.525382 0.0340164 1.163e-20)
(0.524194 0.0334785 -1.09654e-20)
(0.549249 0.0352703 7.84791e-21)
(1.00529 -0.0262571 -8.69592e-22)
(1.00509 -0.02383 -7.87134e-22)
(1.0074 -0.025451 0)
(1.01307 3.4589e-05 6.17872e-22)
(0.757935 -0.142971 -5.766e-22)
(0.764851 -0.156503 -3.29962e-22)
(0.773039 -0.157908 -1.9928e-21)
(1.01671 0.023338 5.06435e-23)
(1.01574 0.0231017 2.69486e-23)
(1.02649 0.0466821 -1.62954e-20)
(1.02123 0.0466871 -1.20196e-20)
(1.02843 -0.00562609 -4.77167e-22)
(1.02838 -0.00538568 4.04479e-23)
(1.02891 -0.00569771 -5.42415e-22)
(1.02248 0.000212002 -4.99265e-22)
(1.0227 0.00036352 -4.56261e-22)
(1.02247 0.000308398 -2.00072e-21)
(1.01819 0.0321583 3.89505e-23)
(1.01724 0.0318258 -7.06807e-23)
(1.01776 0.0312758 0)
(1.02931 0.054124 -7.0358e-21)
(1.02452 0.0540802 7.19395e-21)
(0.894345 -0.136725 1.53948e-21)
(0.403564 0.11667 0)
(0.440057 0.115191 1.19772e-20)
(0.322494 0.096704 0)
(1.02341 -0.00657211 6.30329e-22)
(1.0237 -0.00706216 9.31921e-22)
(1.00236 -0.000191689 -5.18183e-23)
(1.0034 -0.000822125 8.09333e-23)
(1.00226 -0.00176071 5.74501e-22)
(0.996604 -0.000450919 -7.71765e-24)
(0.996253 -0.000494565 0)
(0.996366 -0.000816592 1.38894e-22)
(1.02226 7.86511e-05 0)
(1.02247 0.000108273 -3.49996e-21)
(0.787851 0.0721287 1.27345e-21)
(0.761898 0.0760402 2.78264e-21)
(1.04498 -0.0111077 1.51025e-22)
(1.04587 -0.0114956 -1.76387e-23)
(1.0459 -0.0110483 0)
(1.01899 0.00150459 -5.14115e-22)
(1.01941 0.00162822 7.45545e-23)
(0.843867 0.0483026 -6.32985e-21)
(0.839023 0.0473518 -7.12929e-22)
(0.815044 0.0473166 8.17761e-21)
(0.994803 0.000300111 -1.51771e-22)
(0.99464 0.00027069 -6.71029e-23)
(0.99598 0.000133964 -8.86637e-24)
(0.995019 0.000638831 7.54544e-23)
(0.995436 0.00053437 4.97259e-23)
(1.02221 -0.00278153 0)
(1.0224 -0.00296133 0)
(1.02255 -0.00294256 -2.43166e-21)
(0.806345 0.0871184 0)
(0.822887 0.085401 0)
(0.781374 0.0884924 -5.64785e-21)
(1.02154 -0.0172621 1.95102e-22)
(1.02113 -0.0163777 6.2399e-23)
(1.022 -0.0168022 -1.0453e-22)
(0.742197 -0.12187 2.0555e-21)
(0.567259 0.112393 -3.14454e-21)
(0.568742 0.116905 -1.21028e-20)
(0.600166 0.109213 -3.91628e-21)
(0.961415 0.0325454 -3.41407e-22)
(0.962136 0.0298442 7.3247e-22)
(0.956694 0.0271405 1.01552e-21)
(0.394907 0.0287934 1.0255e-20)
(0.369795 0.143862 8.96647e-21)
(0.434833 0.135889 9.624e-21)
(0.366728 0.140178 9.65682e-21)
(1.00679 -0.0055812 2.113e-23)
(1.00696 -0.00619086 1.35557e-22)
(1.00745 -0.00585534 1.86341e-23)
(1.00564 -0.028995 -1.20128e-21)
(1.00304 -0.0272131 1.30788e-22)
(1.03809 -0.0114636 1.62682e-22)
(1.03909 -0.011755 1.66473e-22)
(1.03823 -0.0120474 2.85714e-22)
(0.860598 0.0487345 5.15525e-21)
(0.866967 0.0490182 3.81107e-21)
(0.832865 0.0480403 4.06216e-21)
(1.03409 0.0136419 1.26588e-22)
(0.541981 0.072566 2.3222e-21)
(0.486874 0.0801621 1.74406e-21)
(0.503703 0.074194 -4.95534e-22)
(1.00117 0.0269991 2.11236e-21)
(1.00194 0.0270187 3.55087e-21)
(1.00136 0.0279604 -2.25311e-21)
(0.994186 -0.000115537 -7.91383e-23)
(0.993536 -0.000152232 3.36695e-22)
(0.994269 -9.858e-05 -2.54745e-22)
(1.02347 0.00317864 0)
(1.02346 0.00286387 0)
(0.99812 0.0383655 -2.57088e-21)
(0.996706 0.0384839 -5.70258e-21)
(0.997521 0.0373048 -3.50083e-21)
(1.03053 0.0232473 8.92727e-21)
(1.02985 0.0229144 -2.45538e-21)
(1.02106 -0.0177319 -7.5348e-24)
(1.022 -0.0180906 1.29838e-22)
(1.03165 0.0103315 -7.78198e-22)
(1.03139 0.00973249 -1.3187e-20)
(1.03092 0.0102103 -1.1843e-20)
(1.03784 -0.0109812 -1.28341e-22)
(1.02144 -0.00210998 -2.29913e-21)
(1.02142 -0.00215579 -3.28947e-21)
(1.00033 0.0481717 -1.69841e-23)
(1.00105 0.0480057 -8.8923e-21)
(1.00105 0.0495477 4.91524e-21)
(1.02177 0.0483755 -3.28884e-22)
(1.02222 0.0487711 5.70753e-23)
(0.990793 0.0286999 5.40733e-22)
(0.993106 0.028583 6.77874e-22)
(1.02141 -0.0021145 2.98274e-21)
(1.02144 -0.0023527 1.45503e-21)
(0.99819 0.0488326 0)
(0.999224 0.046812 0)
(1.01075 -0.0230847 7.64201e-23)
(1.01031 -0.0218311 3.28782e-23)
(0.952745 -0.0887259 -6.82638e-21)
(0.953275 -0.0814445 -8.65598e-21)
(1.00061 0.026059 2.26278e-21)
(1.0001 0.0270805 2.76413e-21)
(1.02108 0.0423239 2.95945e-21)
(1.0217 0.0422976 7.36821e-21)
(1.00415 0.0461543 3.73055e-21)
(1.00518 0.0455782 -5.42805e-21)
(1.00409 0.0449665 4.1414e-21)
(0.56677 0.0438556 1.06524e-20)
(0.588372 0.0476028 2.31638e-20)
(0.567605 0.0462371 1.05884e-20)
(1.03793 0.0150725 0)
(1.03683 0.014252 -5.53986e-23)
(0.544713 0.0364396 1.05855e-20)
(0.565747 0.0370641 8.75209e-23)
(0.541716 0.0349287 -1.18992e-21)
(1.01638 0.00591048 4.19034e-21)
(1.01587 0.00569755 1.91926e-21)
(1.01627 0.00519761 3.08005e-21)
(0.913384 0.0481132 -5.97852e-21)
(0.910628 0.0479397 1.28396e-20)
(1.04376 0.0148887 1.90959e-22)
(1.04273 0.0135879 -1.16621e-22)
(1.04412 -0.0106547 -2.1163e-22)
(1.04402 -0.0111318 7.33518e-23)
(1.0097 -0.0121173 -1.40487e-22)
(1.00908 -0.010839 0)
(1.01022 -0.0109245 0)
(0.539353 0.0384804 7.42382e-22)
(0.541941 0.0390284 -1.53458e-20)
(0.564545 0.0398957 -1.22215e-20)
(0.523476 0.0339547 9.28259e-21)
(0.483307 0.0322016 3.84117e-20)
(1.0223 -0.0119091 4.23106e-22)
(1.02199 -0.0122306 2.03448e-22)
(1.02254 -0.0126144 -5.73036e-22)
(0.824773 0.0488852 -6.11799e-21)
(0.87163 0.0438276 2.88106e-21)
(0.822907 0.0427554 -6.91761e-22)
(1.02018 -0.0289389 5.60928e-22)
(1.02204 -0.0284366 -9.94709e-23)
(1.02055 -0.0269503 4.08186e-22)
(1.00252 0.00120769 -5.98692e-22)
(1.01769 0.0235747 -2.29757e-23)
(0.998654 0.0394249 -2.50079e-21)
(1.02915 -0.0131977 3.54524e-22)
(1.02918 -0.0137385 2.35445e-22)
(1.03227 0.00205332 -1.79283e-22)
(1.03148 0.0020785 -1.23654e-22)
(1.03204 0.00247294 -5.52956e-22)
(1.08707 -0.00112447 -5.16848e-22)
(1.07625 -0.000436316 2.83195e-21)
(1.0787 -0.00621642 -3.5578e-22)
(1.09888 0.00537349 0)
(1.10268 -0.003067 0)
(0.481825 0.124283 8.78934e-21)
(1.02456 0.0392338 7.2524e-21)
(1.02497 0.0395359 0)
(1.00323 -0.0222345 -7.06069e-22)
(0.791673 0.0738996 -2.25145e-21)
(0.786048 0.0760326 -1.17735e-20)
(0.818485 0.0738901 -2.06886e-20)
(1.02085 -5.47041e-05 1.97457e-21)
(1.0193 0.000150172 1.38317e-22)
(1.02129 -0.000278345 -1.55371e-21)
(1.00274 0.0126938 -1.676e-22)
(1.00327 0.0131614 -1.41934e-22)
(1.00316 0.0123411 1.1177e-22)
(1.00233 0.013025 -1.17579e-22)
(1.00228 0.0122244 4.31154e-22)
(0.373585 0.145658 8.57713e-22)
(1.00179 0.0476135 -1.06996e-20)
(1.00307 0.0467573 0)
(1.00156 0.0462626 0)
(0.996343 0.0492038 -2.46044e-21)
(0.993386 0.0496205 -5.4181e-21)
(0.995633 0.0476422 1.80358e-22)
(1.01758 -0.000428776 -3.33917e-22)
(1.01766 -0.000484999 5.80388e-21)
(1.01755 -0.000444718 2.60157e-21)
(1.00171 -0.000611209 9.44422e-24)
(1.001 -0.000351114 0)
(0.611159 0.0721923 -4.78054e-22)
(0.610132 0.0829854 1.92823e-21)
(0.546086 0.0370912 0)
(1.00311 0.0106737 -5.45841e-23)
(1.00302 0.0110455 4.15985e-22)
(1.00363 0.0111039 -1.61634e-22)
(1.00329 0.0102109 -5.65011e-22)
(1.00264 0.0102252 -9.85891e-23)
(0.995314 0.000243878 -9.64851e-23)
(0.997437 7.28252e-05 0)
(1.0019 0.013364 2.93116e-22)
(1.00241 0.0138665 1.37419e-22)
(1.00142 0.0137003 -1.33939e-22)
(1.00144 0.0128872 1.44954e-22)
(0.605814 0.0434165 -5.78424e-21)
(0.618015 0.0450769 4.42431e-21)
(0.535994 0.128026 1.65844e-20)
(0.526259 0.132494 7.98618e-21)
(0.565914 0.124048 -2.04233e-22)
(1.03225 -0.0126774 -1.56506e-22)
(1.03215 -0.0121852 -3.32586e-22)
(1.03163 -0.0122463 -1.80951e-22)
(1.00786 -0.00978106 -2.67262e-23)
(1.00788 -0.0103922 -8.43351e-23)
(1.00719 -0.00980215 1.84868e-23)
(1.00632 0.0332617 -1.69634e-21)
(1.00559 0.0326049 2.22465e-21)
(1.0065 0.0324043 2.76814e-21)
(0.614499 0.0430849 0)
(0.599233 0.0420244 1.23652e-20)
(0.616298 0.0435545 -9.67908e-21)
(0.996638 0.000643428 1.25587e-22)
(0.997111 0.000397488 -3.97843e-23)
(0.996804 0.000384109 1.38716e-22)
(1.01761 -0.000389771 -5.80673e-21)
(1.01749 -0.0003829 -2.38341e-21)
(0.822601 0.0517305 -2.07876e-21)
(0.765986 0.0516625 -4.24451e-21)
(1.02672 0.0467154 3.37605e-21)
(1.02717 0.0468097 7.24259e-21)
(1.02157 0.0467969 9.10029e-21)
(1.00223 0.048614 -4.38029e-21)
(0.798881 0.07221 -8.02245e-22)
(0.768332 0.073208 9.73989e-21)
(0.997652 0.0307108 -9.42818e-22)
(0.997157 0.0299111 6.19971e-23)
(0.996752 0.0307374 -3.24019e-22)
(1.02807 -0.00557055 -8.10281e-22)
(1.02849 -0.00589608 8.8404e-22)
(0.498209 0.130805 2.58645e-21)
(0.493056 0.125802 -8.26945e-22)
(1.00695 0.0340421 -2.99721e-21)
(1.00594 0.0342476 2.64896e-21)
(1.00694 -0.034151 -1.17659e-21)
(1.01048 -0.0350444 2.79816e-21)
(1.0184 0.037716 4.05466e-21)
(1.01802 0.038157 -6.041e-21)
(1.01871 0.0383856 9.03013e-21)
(1.02257 -0.0116402 -9.98566e-22)
(1.02207 -0.0112449 2.44859e-22)
(0.555402 0.12272 -1.94993e-20)
(1.02317 -0.000207219 0)
(1.02295 -0.000234357 2.42366e-21)
(1.0232 -5.84152e-05 0)
(1.00442 0.0140077 -3.90266e-23)
(1.0036 0.01417 -1.55773e-21)
(1.00444 0.0148435 -2.8694e-22)
(1.00272 0.0266773 7.54571e-22)
(1.00357 0.0261806 -7.117e-21)
(1.00259 0.0256715 1.92256e-22)
(1.03367 -0.0136375 -3.00113e-22)
(1.03287 -0.013116 2.30983e-22)
(1.03362 -0.0131373 1.29682e-22)
(0.996937 -1.18183e-06 -1.83787e-22)
(1.02019 0.00228283 -1.62626e-21)
(1.05732 -0.00649601 -3.24897e-24)
(1.05544 -0.00818818 5.02866e-22)
(1.05499 -0.00658155 -3.20964e-24)
(1.03789 0.0210942 1.09033e-22)
(1.03924 0.0210263 -6.89016e-23)
(1.03907 0.0221203 -6.80846e-23)
(0.598614 0.039193 9.43208e-21)
(0.582679 0.0382824 -8.81082e-22)
(0.580077 0.0378733 1.89658e-20)
(0.66436 -0.107548 -2.5135e-22)
(0.661834 -0.127091 8.85033e-22)
(0.659117 -0.102459 4.7546e-21)
(1.0212 0.0222199 1.79339e-23)
(1.02154 0.0215941 1.86404e-23)
(1.02051 0.0214156 8.75899e-24)
(1.00377 0.0100046 2.36772e-22)
(1.00335 0.00953137 1.12095e-22)
(1.04586 -0.0120208 1.65904e-23)
(1.0468 -0.0118791 1.03518e-22)
(1.00423 0.0104608 -5.88652e-22)
(1.00418 0.00979066 7.35759e-23)
(1.02347 -0.000181289 -5.03568e-21)
(1.01521 -4.37768e-05 2.99804e-21)
(1.01103 1.85082e-05 1.88477e-21)
(1.01485 0.0199978 0)
(1.01464 0.0208194 -1.57955e-21)
(1.01395 0.020229 5.62978e-21)
(1.02089 0.0228709 -2.60785e-23)
(1.02193 0.0230767 4.43923e-25)
(0.541165 0.0336562 -1.93295e-20)
(0.56175 0.0355456 -1.17721e-20)
(0.646471 0.0883534 9.17931e-22)
(0.666745 0.0845812 -6.09002e-21)
(1.02146 -0.00300287 6.17747e-22)
(1.02132 -0.00277371 -2.16127e-21)
(1.02142 -0.00298957 -1.48766e-21)
(1.05383 -0.0113312 0)
(1.05535 -0.0111196 3.39906e-23)
(1.05481 -0.0123142 0)
(0.98632 0.0350879 -1.82223e-22)
(0.98831 0.0333313 1.39139e-21)
(0.971479 0.0349836 1.2178e-21)
(0.99413 0.0101552 -1.41357e-23)
(0.993568 0.0102629 -1.32381e-22)
(0.993822 0.00951306 5.48178e-22)
(0.966774 0.0111694 -5.53676e-22)
(0.967263 0.0147803 8.60599e-22)
(0.970179 0.0121128 4.71609e-22)
(0.617516 0.0407506 0)
(0.614711 0.0402485 0)
(0.994639 0.0100399 -2.97729e-22)
(0.994459 0.010807 1.33996e-22)
(0.58297 0.0407673 1.17283e-20)
(0.580396 0.0401968 -1.19254e-20)
(1.03655 0.0210826 -1.08296e-23)
(1.03668 0.0200935 -4.42005e-23)
(0.840359 0.0837632 4.94207e-21)
(0.797713 0.0883065 -4.43147e-21)
(0.994261 -0.000141194 -7.44543e-23)
(0.995562 -5.91944e-05 -1.75759e-22)
(1.02886 -0.0229679 2.01579e-22)
(1.02952 -0.0236511 0)
(1.02937 -0.022574 0)
(1.03431 -0.0140912 -3.23248e-22)
(1.03354 -0.0140592 -3.79256e-23)
(1.03006 -0.00540506 9.54393e-22)
(1.03019 -0.0051332 3.14317e-22)
(1.02957 -0.00505648 6.67222e-22)
(1.01295 0.0486856 2.97264e-21)
(1.01324 0.0476976 0)
(1.01398 0.0486167 0)
(1.02081 0.000259588 -4.27885e-22)
(1.02065 0.000174894 -6.9719e-22)
(1.01722 0.000142041 1.10428e-22)
(0.954327 0.0376018 -2.26016e-21)
(0.961754 0.0382836 -9.87557e-22)
(1.01202 0.0050129 -2.93649e-21)
(1.01131 0.0047405 -1.05296e-21)
(1.01197 0.00414672 2.08303e-24)
(1.01902 0.03252 2.80631e-23)
(1.01848 0.0330233 3.49171e-23)
(0.928878 0.0403482 -2.0965e-21)
(0.921636 0.0413487 -3.67276e-22)
(0.962377 0.0369475 9.57929e-22)
(0.518926 0.0328328 -9.39021e-21)
(0.996662 0.000920209 -4.47702e-23)
(0.99632 0.000851575 -1.07689e-22)
(1.01345 0.0287194 1.87892e-21)
(1.01363 0.0294635 -8.05685e-21)
(1.01424 0.0290036 -5.23635e-21)
(1.06212 -0.00833876 -2.95466e-21)
(1.05974 -0.00727692 -1.62337e-22)
(1.05933 -0.00993267 -2.29347e-22)
(1.01665 -0.00468196 1.27832e-22)
(1.01637 -0.00534389 -1.85382e-21)
(1.01702 -0.00532836 -6.14065e-22)
(1.06507 -0.0106822 2.84692e-22)
(1.06298 -0.0137311 5.54379e-23)
(1.01867 -0.000965844 2.27307e-21)
(1.01837 -0.00063236 -1.52415e-21)
(1.03686 0.0171096 1.62059e-22)
(1.03684 0.0180859 -1.12576e-22)
(1.03567 0.0172477 0)
(1.02218 0.000275899 7.87661e-22)
(1.02065 0.000255334 8.52746e-22)
(0.99617 0.0354256 -6.71286e-22)
(0.995457 0.0364175 -3.0405e-21)
(0.996898 0.036299 3.11948e-21)
(1.07151 -0.0697404 -2.29464e-21)
(1.067 -0.0759547 7.67303e-23)
(1.08607 -0.0656008 1.482e-22)
(1.00529 0.0138654 1.09241e-21)
(1.00446 0.0131857 -7.39679e-23)
(1.01893 -0.000580745 -1.15579e-21)
(1.01895 -0.00116998 -7.41499e-22)
(1.01764 -0.000385663 -7.08306e-22)
(1.01758 -0.000346298 2.04885e-22)
(1.01766 -0.00038526 5.81209e-21)
(0.848827 0.0483023 -2.66727e-20)
(0.875216 0.048244 -2.67411e-20)
(0.528643 0.0374387 1.32234e-20)
(0.486685 0.0372499 1.20453e-20)
(1.0393 0.00242962 -1.02323e-23)
(1.039 0.00307245 -6.92106e-23)
(1.03817 0.00253686 1.97252e-24)
(0.953885 -0.0136294 1.99755e-23)
(0.949574 -0.0164044 1.12858e-21)
(0.955026 -0.0183661 4.36624e-22)
(1.01635 -0.00419252 6.16472e-22)
(1.00763 0.0811528 -3.14466e-21)
(1.01816 0.102767 -2.0404e-21)
(1.04879 0.0849685 -9.17588e-21)
(1.02611 0.0444668 3.62573e-21)
(1.02611 0.0448302 -6.22543e-21)
(1.02644 0.0445939 8.04284e-21)
(0.679067 0.0758096 -7.57371e-21)
(0.666444 0.0726108 8.15755e-21)
(0.656171 0.0750828 1.424e-20)
(0.568081 0.0748433 5.71916e-21)
(0.58583 0.0674159 5.41316e-21)
(0.995114 -0.0741825 -1.88373e-23)
(0.986042 -0.0773764 -1.75226e-23)
(0.978666 -0.0808077 -6.58167e-22)
(0.99137 0.0283536 0)
(0.991149 0.0279758 -2.07799e-22)
(1.0525 -0.0116108 0)
(1.05301 -0.0107988 -4.0654e-23)
(1.02617 0.0492889 1.70497e-21)
(1.03179 0.049533 -2.42049e-20)
(0.959184 0.0759304 6.35549e-21)
(0.992798 0.050962 3.39389e-21)
(1.02424 0.0480533 3.93991e-21)
(1.02387 0.047821 -4.87604e-21)
(1.01453 0.000164523 0)
(1.01003 -2.92067e-05 0)
(1.02835 -0.0232965 -3.1134e-24)
(1.0283 -0.0244186 -1.86712e-22)
(0.875513 0.0498239 2.10275e-21)
(1.04192 -0.0120771 1.18255e-22)
(1.0409 -0.0119694 -1.80456e-23)
(1.04176 -0.0126154 -4.47014e-23)
(1.03728 -0.0234829 -2.4528e-22)
(1.03775 -0.0207223 1.65778e-21)
(1.02086 0.0417967 5.96315e-21)
(1.02051 0.04238 2.77789e-21)
(1.00073 0.000691033 1.34747e-22)
(1.00027 0.000600569 8.48236e-23)
(1.00025 0.000327962 1.71906e-22)
(0.882744 0.0500964 -1.02524e-20)
(0.851265 0.0490038 -7.18247e-21)
(1.01968 -0.000620394 1.81388e-21)
(1.01962 -0.000767808 -2.48627e-21)
(1.01978 -0.000718892 -2.34937e-21)
(1.0342 0.0306163 9.02518e-21)
(1.03439 0.0313936 8.18713e-21)
(0.984721 0.00783408 -2.55885e-22)
(0.984523 0.0067057 -6.76384e-24)
(0.983723 0.0074902 -3.71043e-22)
(0.390479 0.0446595 1.15877e-20)
(0.401363 0.0415919 -4.12311e-21)
(1.02554 0.000418667 -2.46116e-23)
(1.02541 0.000569293 1.91688e-22)
(1.02514 0.00042413 -6.79873e-23)
(1.00609 0.0138184 1.42396e-21)
(1.00629 0.0129945 -1.05187e-21)
(1.0069 0.0137652 1.65903e-21)
(1.01941 -0.0306082 -1.8482e-22)
(1.01801 -0.0286652 1.06989e-22)
(1.0039 -0.0666334 -6.88038e-23)
(1.00749 -0.0664071 9.49331e-25)
(1.00111 0.00120403 -1.86322e-22)
(1.00125 0.000860034 -3.91255e-23)
(1.01932 0.0385192 1.11554e-21)
(1.01997 0.0387075 -4.05548e-21)
(1.01978 0.0380238 -3.54645e-22)
(1.02419 0.046359 6.82894e-21)
(1.02071 0.04632 -1.23143e-20)
(1.02401 0.0463292 -1.91666e-20)
(1.02331 -0.0081477 -1.17883e-21)
(1.02346 -0.00866241 -2.12149e-21)
(1.02359 -0.00834816 7.26715e-22)
(1.0429 -0.0121416 1.1322e-22)
(1.04198 -0.0115619 -1.27935e-22)
(0.696167 0.0505011 0)
(0.697879 0.0514741 0)
(1.02507 0.0462417 1.06308e-21)
(1.02451 0.0462243 1.88913e-20)
(1.02045 0.0463375 1.04688e-21)
(0.790966 0.0756916 4.28842e-21)
(0.82075 0.0732626 0)
(0.773539 0.0810454 7.99525e-22)
(0.610257 -0.155028 1.16859e-21)
(0.615808 -0.177619 2.81096e-21)
(0.995229 0.00997701 -4.86598e-22)
(0.994827 0.00933775 3.35486e-23)
(1.03002 -0.0118476 2.55884e-22)
(1.02992 -0.0113965 -4.37995e-22)
(1.02945 -0.0113822 -5.25298e-23)
(1.0276 0.0468916 -1.38955e-21)
(1.02803 0.0470108 -2.19202e-20)
(1.02191 0.0469887 -9.55257e-21)
(0.991638 0.0281979 -1.38716e-22)
(0.991592 0.0286323 0)
(0.995595 0.0106599 3.53441e-22)
(0.9958 0.0100297 -1.52348e-22)
(1.06561 -0.00710162 -2.03041e-21)
(1.02191 -0.00401868 0)
(1.02189 -0.00409405 0)
(1.02201 -0.00429957 -1.29632e-21)
(0.986417 -0.0185202 5.03702e-21)
(0.983853 -0.0202961 1.89597e-21)
(0.983406 -0.0166085 -4.73882e-22)
(1.00592 0.0146241 7.01813e-22)
(1.00611 0.0426368 6.99641e-21)
(1.00705 0.0421096 7.60374e-22)
(1.00611 0.0414822 5.76308e-21)
(0.993609 0.0263839 0)
(0.993775 0.0255513 3.45747e-23)
(0.994467 0.0262145 -9.76381e-22)
(0.968119 0.00725962 -3.2275e-21)
(0.96372 0.00899859 -3.19757e-21)
(1.03221 0.0299741 1.82329e-21)
(1.03158 0.0299788 -8.24419e-21)
(1.03182 0.0306786 5.74738e-21)
(0.633406 0.0517073 0)
(0.616326 0.0493426 1.26416e-20)
(0.631718 0.0503136 -9.9935e-21)
(1.04125 -0.000322984 -3.2859e-23)
(1.04022 -0.000640128 -2.39454e-22)
(1.02301 -0.00799797 1.21972e-21)
(1.0231 -0.00764792 2.72716e-22)
(1.0737 -0.0119346 3.76663e-22)
(1.07477 -0.0162031 6.60699e-22)
(1.01661 0.0503942 -5.69419e-21)
(1.01746 0.0499358 3.96498e-21)
(1.0173 0.0511353 1.19036e-20)
(0.997715 0.000487943 9.99455e-23)
(0.998262 0.000201899 0)
(0.997967 0.000494553 0)
(0.523125 0.0415384 -7.93447e-23)
(1.0328 0.0301473 7.42967e-21)
(1.03251 0.0295154 1.19436e-20)
(0.872628 0.0470624 1.10779e-22)
(0.885189 0.0410498 -2.33205e-21)
(1.02331 -0.00689039 -1.56676e-21)
(1.02302 -0.00655039 1.2853e-21)
(0.992071 0.0276127 8.47143e-23)
(0.991994 0.0281545 7.5085e-23)
(0.992526 0.0280102 9.70234e-23)
(0.953242 -0.00870132 -1.9838e-22)
(0.957033 -0.01073 1.68586e-22)
(0.737109 0.128642 0)
(0.7387 0.144371 1.84604e-22)
(0.702331 0.146608 -8.56022e-22)
(1.01444 0.0267747 4.70234e-23)
(1.01529 0.0269853 4.17241e-23)