/*--------------------------------*- C++ -*----------------------------------*\
| =========                 |                                                 |
| \\      /  F ield         | OpenFOAM: The Open Source CFD Toolbox           |
|  \\    /   O peration     | Version:  v2012                                 |
|   \\  /    A nd           | Website:  www.openfoam.com                      |
|    \\/     M anipulation  |                                                 |
\*---------------------------------------------------------------------------*/
FoamFile
{
    version     2.0;
    format      ascii;
    class       surfaceVectorField;
    location    "500";
    object      Uf;
}
// * * * * * * * * * * * * * * * * * * * * * * * * * * * * * * * * * * * * * //

dimensions      [0 1 -1 0 0 0 0];


internalField   nonuniform List<vector> 
20537
(
(1.05903 -0.00071255 -1.49154e-22)
(1.05932 -0.00102151 1.33423e-22)
(1.06005 -0.000698569 2.74614e-22)
(0.453823 0.0232588 -1.06651e-21)
(0.438994 0.0198398 4.09656e-22)
(0.448716 0.0205359 3.98906e-22)
(1.06248 0.00448372 0)
(1.06173 0.00490936 0)
(1.06156 0.00408142 0)
(1.05814 -0.00152339 7.43379e-22)
(1.05899 -0.00134266 1.0376e-23)
(1.05893 -0.00176825 6.6156e-23)
(1.07404 0.00677288 1.92712e-21)
(1.0733 0.00611377 2.70914e-21)
(1.07308 0.00711615 -2.52801e-21)
(1.07596 -0.0238999 2.97737e-22)
(1.08093 -0.0204838 1.88841e-21)
(1.07947 -0.0192327 6.61337e-23)
(1.03342 0.0107153 6.1302e-22)
(1.03399 0.0109533 8.10393e-22)
(1.03341 0.0110984 -9.9125e-22)
(1.06313 0.00979396 -1.16087e-22)
(1.0633 0.0100362 -1.01524e-21)
(1.06356 0.00957125 4.63334e-22)
(1.02749 -0.0081656 -1.85179e-22)
(1.02791 -0.00855649 -1.86466e-22)
(1.02715 -0.00834182 -3.18006e-22)
(1.05553 0.0137415 5.61617e-22)
(1.05634 0.0142299 -5.04792e-22)
(1.0562 0.0129132 -3.31232e-22)
(1.00774 -0.0117563 -6.79445e-22)
(1.00372 -0.0112379 2.90163e-22)
(1.00642 -0.014138 4.44376e-22)
(0.334941 -0.0111656 -1.76937e-21)
(0.323811 -0.0131514 -3.81529e-21)
(0.30663 -0.00585877 -1.78612e-21)
(0.849498 -0.0130875 3.23122e-21)
(0.892277 -0.00996114 -7.24802e-21)
(0.859802 -0.0107163 5.93621e-23)
(0.0953664 0.064358 0)
(0.121836 0.0640638 6.92478e-23)
(0.0403235 0.0509106 0)
(1.02632 0.0012629 -1.12951e-21)
(1.026 0.00116831 5.55005e-22)
(1.02619 0.00153981 0)
(1.06146 0.0116065 -2.10002e-22)
(1.06133 0.0116263 0)
(1.0616 0.0117519 0)
(1.05618 0.0121707 -4.62387e-23)
(1.05584 0.0119337 0)
(1.05566 0.012177 -3.29891e-22)
(1.06418 0.00529052 -1.72585e-22)
(1.06376 0.00545829 0)
(1.06449 0.00556235 -4.85496e-24)
(0.978521 -0.0125189 6.25421e-22)
(0.974193 -0.0136321 2.11028e-21)
(1.02455 -0.00897049 -1.24903e-20)
(1.02708 -0.00779846 4.89606e-22)
(1.02782 -0.00800134 -9.2704e-23)
(1.05731 -0.0017793 -1.00636e-22)
(1.0573 -0.00134518 1.22729e-23)
(1.06351 0.00476271 -1.53718e-21)
(1.06343 0.00381819 0)
(0.995834 -0.000271594 -9.60626e-23)
(0.995301 -0.000409751 -8.93262e-23)
(0.995297 -0.000608279 1.73052e-22)
(1.01751 -0.00101906 8.5103e-23)
(1.01406 -0.000581234 3.24874e-22)
(1.01762 -0.0010556 7.50801e-23)
(0.996377 -0.000237297 0)
(0.99692 -9.98558e-05 0)
(1.06271 0.00991836 -1.27282e-22)
(1.0629 0.00943167 1.17908e-21)
(1.05407 0.0163186 -2.43664e-21)
(1.05348 0.0163056 -7.09496e-22)
(1.05375 0.0159848 -1.34259e-21)
(0.00626277 -0.0536438 8.48469e-22)
(0.00656374 -0.053862 1.76917e-20)
(1.05816 -0.000686165 -5.71108e-22)
(1.05891 -0.000332111 -4.75549e-22)
(1.05744 0.00650648 5.83e-23)
(1.05753 0.00679041 -6.51063e-23)
(1.05809 0.0065783 1.40122e-22)
(1.06977 -0.0255589 2.11469e-22)
(1.06204 -0.0252642 -1.02794e-20)
(1.05667 0.0120285 -3.42497e-22)
(1.05657 0.0123331 6.08062e-22)
(1.0617 0.00570275 0)
(1.06095 0.00542882 3.00793e-23)
(0.897809 0.00323381 -1.81108e-21)
(0.891204 0.0187196 -1.96909e-21)
(0.866752 0.0165902 0)
(1.01768 -0.000926369 0)
(1.01952 -0.0014163 1.93963e-22)
(1.0844 0.0255569 1.7112e-21)
(1.08414 0.0259371 4.73295e-21)
(1.08341 0.0258313 -3.85766e-21)
(1.05941 0.0267141 -3.99151e-21)
(1.08302 0.027607 6.02666e-21)
(1.08534 0.0277415 3.64368e-21)
(1.04565 -0.0132174 2.54906e-21)
(1.03935 -0.0151983 -4.4788e-21)
(1.06598 -0.0104766 0)
(1.05549 0.014572 -7.23841e-22)
(1.05496 0.0128718 8.17084e-22)
(0.935912 -0.0152783 -2.10567e-21)
(0.902718 -0.0161334 -3.58079e-21)
(1.04226 -0.000537675 3.32706e-22)
(1.04285 -0.000664051 -6.95276e-23)
(1.0428 -0.000413869 2.41373e-22)
(0.991234 -0.00417702 4.30862e-23)
(0.991401 -0.00419534 9.25194e-23)
(0.991082 -0.00393675 8.00046e-23)
(0.00290961 0.061801 -6.33584e-21)
(0.00700737 0.05594 6.91381e-21)
(0.00128128 0.0567576 -1.30783e-20)
(0.980735 -0.0135142 6.25885e-21)
(0.985907 -0.0176195 1.00048e-22)
(0.992016 -0.0137105 -8.22853e-22)
(0.974569 -0.0100598 4.63337e-22)
(0.964976 -0.0128898 9.50124e-22)
(0.0426084 0.0292273 0)
(0.0720381 0.0240029 0)
(0.0828272 0.0180833 0)
(0.936075 -0.0319836 9.12602e-22)
(0.945433 -0.0243293 3.05982e-21)
(0.924568 -0.0267568 -1.1069e-21)
(0.755291 0.0617163 8.14712e-21)
(0.735248 0.0651506 1.53884e-21)
(0.735331 0.070925 8.6508e-21)
(1.05462 0.0163007 4.95905e-22)
(1.05436 0.0166553 -2.24187e-21)
(1.04875 -0.0396945 -7.47621e-23)
(1.04856 -0.0365267 1.79278e-22)
(1.05185 -0.0384953 -1.59002e-22)
(1.07649 0.0151468 -4.38073e-22)
(1.07721 0.0153126 1.45269e-21)
(1.07653 0.0158197 -7.07316e-21)
(1.08529 0.0108062 -7.19477e-21)
(1.08476 0.0113791 -7.23123e-21)
(1.086 0.0117389 -1.49451e-20)
(-0.0235326 0.000456677 -1.17252e-20)
(-0.0190288 0.00719569 1.12683e-20)
(-0.0166863 -0.00107759 3.79481e-21)
(1.0266 0.000672701 8.69405e-22)
(1.02651 0.000690154 2.88307e-22)
(1.02696 0.000944552 -1.05923e-23)
(1.02998 -0.000272085 -2.15578e-22)
(1.02969 -0.000302849 -2.35302e-22)
(1.03069 -0.000167563 3.47744e-22)
(0.99107 -0.0041655 0)
(0.991397 -0.00442094 0)
(1.00861 -0.00136128 -4.53975e-22)
(1.00952 -0.00162017 -3.53341e-22)
(1.00852 -0.00117056 -1.34188e-22)
(-0.0426895 -0.0187173 -1.35667e-21)
(-0.0483487 -0.0177001 -7.52959e-23)
(-0.0408411 -0.0233626 4.83073e-22)
(1.05671 0.0064233 -4.78615e-23)
(1.05726 0.00620171 -2.70602e-23)
(1.0371 0.0105067 -1.28983e-22)
(1.03649 0.0103055 3.22273e-22)
(1.03666 0.0107318 -5.74228e-22)
(1.00441 -0.0183193 3.9977e-21)
(1.05008 -0.0116134 9.30837e-22)
(0.453618 -0.066613 4.41935e-21)
(0.455481 -0.0655772 -5.86899e-22)
(0.417476 -0.071714 1.00302e-20)
(1.07074 0.00557282 1.79807e-22)
(1.07153 0.00585092 2.8465e-22)
(1.06985 0.00539693 -3.16079e-22)
(1.07662 0.00662671 0)
(1.07595 0.00597102 8.0466e-22)
(1.07696 0.00570497 4.45861e-21)
(0.865132 0.00104199 -9.26921e-23)
(0.911808 0.0005702 -5.5522e-21)
(0.95587 0.00275124 -2.82132e-22)
(1.0634 -0.00135026 0)
(1.06271 -0.00169108 -1.637e-22)
(1.06374 -0.00182925 0)
(1.02896 0.0235551 -7.397e-22)
(1.03467 0.0246979 9.89666e-22)
(0.919457 -0.0492071 -5.35659e-22)
(0.927676 -0.0396024 5.95528e-21)
(1.06482 0.0167505 -3.24735e-23)
(1.06471 0.016303 -2.4257e-21)
(1.06421 0.0166362 4.47122e-21)
(1.06386 0.00503473 -1.77376e-22)
(1.06459 0.00511617 -4.08898e-23)
(0.345735 0.0165079 0)
(0.336587 0.0163071 -2.63878e-21)
(0.312509 0.0181124 0)
(0.954489 0.0183092 -5.86936e-21)
(0.953929 0.0176978 4.08656e-21)
(0.995262 0.0210522 3.34941e-21)
(0.489548 0.0301417 -9.24286e-21)
(0.468034 0.0286907 -9.17487e-22)
(1.02649 0.00102542 3.75271e-22)
(1.02602 0.000435321 -1.30761e-22)
(1.03107 -0.000440685 2.41832e-22)
(1.03111 -0.000414048 -1.1649e-22)
(1.03107 -0.000495372 1.93056e-22)
(1.03382 -0.0110535 6.3944e-22)
(1.03363 -0.0112513 1.94554e-22)
(1.033 -0.0108552 7.58959e-22)
(1.06416 0.00484642 1.88175e-21)
(1.06358 0.00523483 7.63327e-22)
(0.41403 0.0177299 -1.351e-21)
(0.432371 0.0163491 -8.88677e-21)
(0.415867 0.0189401 -1.11644e-20)
(1.06763 0.0119608 -3.14028e-21)
(1.06824 0.0117871 8.38798e-22)
(1.06785 0.0113978 -3.03784e-21)
(0.33301 0.0144151 2.71352e-21)
(0.30786 0.0140396 -7.91503e-21)
(1.04216 0.0113691 7.66279e-23)
(1.04192 0.0110086 -1.42875e-23)
(1.04143 0.0112282 5.20606e-23)
(0.900139 -0.00934241 -6.2707e-22)
(0.918601 -0.00850809 5.74025e-23)
(0.90185 -0.0102819 3.48714e-22)
(1.0333 0.00405111 1.90082e-22)
(1.03382 0.00419735 4.70356e-22)
(1.03356 0.00390104 2.25881e-22)
(0.0512333 0.0295207 -7.50886e-21)
(0.0717217 0.0264488 -1.3092e-20)
(0.0411002 0.032306 2.47011e-20)
(1.06999 0.00539468 -5.78195e-22)
(1.07274 0.0056217 4.04522e-22)
(0.344792 -0.0107153 -4.49353e-21)
(0.370539 -0.0159828 -6.47609e-22)
(1.06888 -0.0150738 3.06738e-22)
(1.07228 -0.0166449 2.51344e-23)
(1.07002 -0.0143391 0)
(0.466059 0.00473033 -1.30466e-23)
(0.50979 0.0017954 -2.92522e-22)
(0.498752 0.000643738 1.63638e-21)
(1.05636 0.0142378 3.40823e-22)
(1.05647 0.013964 1.20612e-21)
(1.05692 0.014216 1.37513e-22)
(1.01575 -0.0167997 3.91239e-22)
(1.01527 -0.016212 -4.46451e-22)
(1.01492 -0.0164112 1.94451e-22)
(1.08388 0.0251229 -6.73175e-21)
(1.08492 0.0251339 -9.48573e-21)
(1.06944 -0.00271692 -7.10751e-22)
(1.06987 -0.000998235 3.95563e-22)
(1.07173 -0.00204545 -2.80092e-22)
(0.93437 -0.0527165 -2.41258e-21)
(1.05921 0.0145459 -1.08207e-21)
(1.05945 0.0143986 2.14068e-22)
(1.05961 0.0146638 1.6143e-21)
(1.05586 0.0143114 7.81244e-23)
(1.05631 0.0146331 7.82444e-22)
(1.00804 -0.000656589 -4.72422e-22)
(1.00848 -0.000702 4.77676e-22)
(1.00961 -0.00112465 1.06503e-21)
(1.07497 0.00622947 2.89062e-21)
(1.07483 0.00728277 -6.73829e-21)
(0.578281 -0.0155306 -5.10616e-21)
(0.558829 -0.0149178 3.24201e-21)
(0.563189 -0.0132187 6.41752e-21)
(1.04935 -0.0429361 -6.66578e-23)
(1.04589 -0.0399064 -1.62662e-22)
(1.00569 -0.000260815 -2.11925e-22)
(1.00752 -0.000603189 -2.10288e-22)
(-0.060853 0.00877211 2.78405e-21)
(-0.0226856 0.015576 2.09169e-20)
(-0.047744 0.0147766 2.61724e-20)
(1.07061 0.0136307 4.45018e-22)
(1.07085 0.014175 -1.19649e-22)
(1.07013 0.0140653 9.17261e-24)
(1.05241 0.00168192 -2.92351e-22)
(1.05298 0.0018798 1.35147e-22)
(1.05318 0.00158463 -1.9329e-22)
(1.05157 0.0204648 0)
(1.05204 0.0207524 0)
(0.991118 -0.000136693 -3.1139e-23)
(0.989323 -0.000269095 4.66355e-23)
(0.990652 -0.00013197 0)
(1.06553 -0.0156622 -9.26196e-22)
(1.06386 -0.0149294 2.36696e-21)
(1.06387 -0.0132085 -1.15861e-21)
(1.07235 0.0148898 -9.42698e-22)
(1.07214 0.0143457 -4.96601e-21)
(1.07289 0.0144134 -2.37971e-21)
(0.98922 -0.00281707 -5.6375e-23)
(0.98938 -0.00283443 4.73253e-23)
(0.989136 -0.0026066 4.63453e-23)
(0.874511 0.0138052 -9.16535e-22)
(0.829348 0.0111068 2.70744e-22)
(1.0798 -0.0196237 -3.21693e-22)
(1.08344 -0.0174378 2.35136e-21)
(1.01235 -0.000698505 6.28257e-22)
(1.0092 -0.000345036 -6.08099e-23)
(1.0119 -0.000649664 -7.042e-22)
(1.01621 -0.0174154 0)
(1.01656 -0.0171672 3.07622e-22)
(1.0691 -0.003955 0)
(1.06781 -0.00314402 0)
(1.00935 -0.000206171 1.11273e-22)
(1.00911 -0.000319516 -2.89138e-22)
(1.01432 -0.00104287 1.05477e-21)
(1.01255 -0.000661072 1.57049e-21)
(0.717164 0.0210596 5.1616e-22)
(0.680164 0.0246289 1.96039e-21)
(0.601254 -0.0156782 1.90417e-21)
(0.597417 -0.0180689 -1.06681e-20)
(0.990217 -0.00224686 0)
(0.990384 -0.00241804 0)
(0.990153 -0.00238856 0)
(1.02544 -0.00063547 -4.63805e-23)
(1.02516 -0.000648794 -4.05978e-22)
(1.02173 -0.000386822 7.59981e-22)
(1.02986 -0.000272432 -1.1e-21)
(1.02866 -0.000479533 -6.65179e-22)
(1.0278 -0.000382523 -1.37926e-21)
(0.00106875 0.0646313 -6.54179e-21)
(-0.00118424 0.0715508 4.3898e-22)
(1.05186 0.0199709 1.54554e-21)
(1.05111 0.0200807 0)
(0.841535 -0.0154582 -1.09784e-20)
(0.807513 -0.0162029 -3.81634e-21)
(0.780751 0.0404508 -6.6694e-22)
(0.779885 0.0596157 -5.17234e-22)
(0.784456 0.0542652 -1.68772e-21)
(1.00497 -0.0151878 8.56513e-24)
(1.00441 -0.0146922 5.92506e-23)
(1.00484 -0.0151721 -1.22173e-22)
(0.810354 0.054544 3.62757e-21)
(0.774794 0.0632298 -5.32482e-21)
(1.06899 0.0126266 -3.74585e-22)
(1.06933 0.0129564 -1.27068e-21)
(1.06953 0.0123023 -2.92858e-23)
(1.05668 -0.00197504 -5.8753e-22)
(1.0574 -0.00215409 -6.50609e-23)
(1.0774 -0.00222169 5.75291e-21)
(1.07786 -0.00109896 4.92239e-21)
(1.07856 -0.0020749 -1.30761e-21)
(1.04177 -0.000673441 2.98972e-22)
(1.04169 -0.000459609 2.09039e-24)
(1.02789 -0.00375571 -4.08543e-23)
(1.02836 -0.00387737 6.56536e-22)
(1.02807 -0.00359891 -3.89623e-23)
(0.353655 0.0150251 4.37089e-21)
(0.365184 0.0130183 0)
(1.03301 0.00418209 3.3493e-23)
(1.03279 0.003883 1.82119e-22)
(0.705914 0.0147443 -1.11257e-21)
(1.02702 -0.00163277 -3.88768e-22)
(1.02676 -0.00163562 -2.63559e-22)
(1.02658 -0.00138482 -5.2933e-22)
(0.990039 -0.00204552 0)
(0.990275 -0.00205479 4.71157e-23)
(0.959309 0.0185429 -6.87361e-21)
(0.96428 0.0181978 4.46547e-21)
(1.00087 0.0204551 7.23507e-21)
(0.0586565 -0.0457172 1.49501e-21)
(0.0285559 -0.034711 2.57437e-21)
(0.0461827 -0.035884 -1.8575e-21)
(0.296944 0.0513514 -2.03556e-21)
(0.379287 0.0598666 -4.13365e-22)
(0.303875 0.0485697 2.04065e-22)
(-0.071749 0.00226077 -1.37849e-20)
(-0.0857809 0.00246204 -2.59016e-21)
(1.03047 -0.000339772 5.78332e-22)
(1.02852 2.06252e-05 -8.50996e-22)
(1.04769 -0.0148456 -2.36723e-22)
(1.04851 -0.0149683 0)
(1.04859 -0.0150683 0)
(0.995934 -0.00810014 -1.55852e-22)
(0.996067 -0.00805536 2.16873e-22)
(0.996343 -0.00844569 -1.85358e-22)
(1.05272 0.00976468 -1.04336e-22)
(1.05319 0.0099644 1.00695e-23)
(1.0525 0.00998468 1.1322e-22)
(0.979189 -0.0218439 5.19415e-22)
(0.990042 -0.0226256 5.13137e-21)
(0.995515 -0.00807957 -1.35157e-23)
(0.995217 -0.00790548 3.24839e-23)
(0.995148 -0.00789621 2.84588e-23)
(1.07584 -0.00400844 8.04701e-21)
(1.076 -0.00262374 9.33236e-22)
(1.0328 0.0104142 -1.62569e-22)
(1.03338 0.0102953 -6.28625e-22)
(0.984535 -0.00760141 0)
(0.969403 -0.00746451 -1.66654e-22)
(1.07632 0.0235583 0)
(1.07678 0.0234106 0)
(1.02925 -0.000614887 2.19655e-22)
(1.02984 -0.000514629 0)
(1.03046 -0.000383534 0)
(0.0484981 0.0584437 -4.86547e-21)
(0.152486 0.0714801 0)
(1.00779 -0.00110602 1.70655e-22)
(1.00869 -0.00158638 -3.47362e-22)
(1.05016 0.0127265 5.41684e-22)
(1.0503 0.0130239 -7.36654e-22)
(1.04973 0.0128708 9.74555e-22)
(1.05303 0.00952018 0)
(1.05228 0.00951419 0)
(1.03843 -0.00510623 -5.90608e-22)
(1.03788 -0.00514653 -5.09089e-23)
(1.03848 -0.00534634 -8.92667e-23)
(1.0547 0.00662578 1.69624e-22)
(1.05406 0.00655723 -1.57003e-23)
(1.05435 0.00682733 -1.73987e-23)
(1.08638 0.0101034 1.19106e-20)
(1.08485 0.00998798 5.42225e-21)
(1.07576 0.0149678 -9.53833e-23)
(1.07638 0.0144274 -4.50496e-22)
(0.990116 -0.0043963 2.96875e-23)
(0.989866 -0.00420937 -3.51968e-23)
(0.989831 -0.00420811 7.9978e-24)
(1.05945 0.0173208 2.32427e-22)
(1.05976 0.0171751 0)
(1.05989 0.017531 0)
(-0.0371496 -0.0205381 -1.02353e-20)
(-0.0417462 -0.014324 -3.25671e-21)
(1.02744 -0.00362937 2.03472e-22)
(1.02773 -0.00390908 -4.4255e-22)
(1.0621 0.00885469 8.30135e-24)
(1.0617 0.00908915 -1.25497e-22)
(1.06144 0.00871388 -8.10071e-23)
(0.993987 -0.00630562 -8.86457e-23)
(0.994358 -0.00660143 0)
(0.994177 -0.00631477 0)
(0.995807 -0.00827473 -3.33694e-23)
(0.995893 -0.00823937 -2.61172e-23)
(1.06539 0.0168259 0)
(1.06493 0.0171453 0)
(1.05602 -0.00177395 -6.48038e-23)
(1.05603 -0.00215108 -6.33911e-23)
(0.469834 -0.0210575 5.45135e-21)
(0.427408 -0.0189768 2.38911e-20)
(0.471999 -0.0172194 2.36758e-20)
(0.3889 0.01977 2.08819e-20)
(0.41114 0.0174585 1.53731e-20)
(1.01631 -0.00495597 -2.89515e-22)
(1.0168 -0.00515401 -3.862e-22)
(1.01653 -0.00533233 -7.42078e-22)
(1.03898 -0.00506156 -1.11604e-21)
(1.03836 -0.00487999 -1.93431e-22)
(0.23474 0.0406704 -5.3391e-22)
(0.30248 0.0546576 -2.05972e-22)
(1.02698 -0.00348927 8.93681e-22)
(1.02715 -0.00334545 4.13437e-22)
(0.724194 0.0649384 9.12038e-22)
(0.734978 0.0568323 -9.37248e-21)
(1.06855 0.0121367 3.40876e-21)
(1.06828 0.0128027 -5.37786e-21)
(1.0489 -0.0146603 0)
(1.04919 -0.0146549 9.46474e-22)
(1.0498 -0.0150582 0)
(0.937109 -0.0129309 3.51703e-21)
(0.991453 -0.0105428 -4.08252e-21)
(0.989423 -0.00316756 6.8591e-23)
(0.98927 -0.00313692 -1.47828e-23)
(0.989571 -0.00337333 -1.70433e-22)
(1.05742 0.0121449 5.83926e-22)
(1.0571 0.0119876 -8.26566e-22)
(1.05754 0.0119351 -1.24619e-21)
(0.91555 0.0157675 -7.12407e-21)
(1.03215 0.00412666 -4.70657e-22)
(1.03169 0.00398251 -2.14105e-22)
(1.032 0.00386967 2.25329e-22)
(1.06328 0.00306894 -1.40519e-21)
(1.06421 0.00334358 4.24759e-22)
(0.986729 -0.000993673 0)
(0.986424 -0.000817633 -1.48631e-23)
(0.986437 -0.000897656 6.62993e-24)
(1.0005 -0.000518114 -1.01991e-22)
(1.0003 -0.000620141 -2.22113e-22)
(1.00091 -0.000874555 -2.7351e-22)
(1.064 -0.00101893 0)
(1.06295 -0.000933168 -3.18635e-22)
(1.03087 -0.000445476 2.84884e-22)
(1.03069 -0.000347559 2.61e-22)
(1.07369 0.00418412 0)
(1.07282 0.00364723 -6.6634e-22)
(1.07385 0.00304226 3.56095e-21)
(1.06561 0.0209206 0)
(1.06553 0.0222365 -7.11652e-22)
(1.06419 0.0208373 9.12675e-22)
(0.948562 -0.0375607 4.48566e-21)
(-0.0267434 -0.00644325 -6.82348e-21)
(-0.0303653 0.0010395 -1.07358e-20)
(1.01663 -0.0179507 -3.04702e-22)
(1.01747 -0.0183148 -4.71109e-22)
(1.0171 -0.0184998 3.03518e-22)
(1.06427 0.014709 2.23748e-21)
(1.06435 0.015104 -5.57138e-23)
(1.06383 0.015015 2.37704e-21)
(0.450113 -0.0675664 -8.47789e-21)
(0.484261 -0.0626537 -9.06011e-21)
(1.04965 0.0121437 -5.80597e-23)
(1.04992 0.0124225 3.20326e-22)
(1.04927 0.0122834 7.09582e-24)
(1.04689 -0.0147771 -5.27786e-22)
(1.04685 -0.0145767 2.39798e-22)
(0.922687 -0.0760556 6.31806e-22)
(0.952236 -0.0857966 1.44303e-21)
(0.960264 -0.0771153 -2.18333e-21)
(1.04866 -0.0147076 5.01267e-22)
(1.0479 -0.0143319 0)
(1.034 -0.0108595 1.23295e-22)
(1.03467 -0.0112568 5.17781e-22)
(1.00555 -0.0156781 -6.03506e-23)
(1.00513 -0.0151895 3.46146e-22)
(0.165336 -0.0122969 1.17722e-20)
(0.235123 -0.029343 1.02592e-20)
(0.229614 -0.0203989 1.55143e-20)
(1.01767 -0.000199794 0)
(1.02384 -0.000306735 0)
(1.01655 -0.000297861 0)
(1.0357 0.00196856 -3.094e-22)
(1.03539 0.00182546 -2.95463e-27)
(1.03592 0.00185006 4.14161e-22)
(1.06148 0.0177182 3.55337e-23)
(1.0622 0.017333 -1.81329e-22)
(1.06146 0.0167953 0)
(1.03231 0.00440585 1.0264e-21)
(1.03264 0.00429372 -1.88039e-22)
(0.303889 -0.0544919 4.59024e-23)
(0.253784 -0.0547965 -7.47658e-23)
(0.273292 -0.0530272 -2.10068e-21)
(1.05629 0.0127012 1.11388e-21)
(1.05575 0.0126509 -3.83768e-22)
(1.05598 0.0129497 0)
(0.455718 0.0110073 3.54621e-21)
(0.439067 0.0124822 0)
(0.454967 0.0107987 0)
(0.989239 -0.00350585 -9.40874e-24)
(0.98936 -0.0036503 -3.10037e-23)
(0.989524 -0.00372385 4.06426e-23)
(0.676278 0.00365645 1.55493e-21)
(0.643857 0.0030645 -4.15153e-21)
(0.65207 0.00352058 5.19878e-21)
(1.05161 0.00168025 -2.09726e-22)
(1.05185 0.00142348 7.89654e-23)
(0.831436 -0.0605104 1.12585e-21)
(0.855595 -0.0727332 -4.32275e-22)
(0.828377 -0.069909 -2.61315e-22)
(0.988579 -0.00270348 1.48172e-23)
(0.988734 -0.00272029 -3.26785e-23)
(0.988469 -0.00252548 -1.38177e-23)
(0.995129 -0.00742809 2.19544e-24)
(0.994971 -0.00742834 3.39719e-22)
(0.994748 -0.00711048 -2.0168e-22)
(1.01272 -0.0155637 0)
(1.01234 -0.0146552 0)
(1.01121 -0.0158749 0)
(1.07008 0.00504991 2.84565e-22)
(1.06957 0.00518497 -9.38458e-22)
(1.06945 0.0051931 1.96193e-22)
(0.0161362 0.0329151 0)
(0.0192438 0.0291057 -6.81798e-22)
(1.02776 0.00252047 6.2587e-22)
(1.02745 0.0023192 -2.98611e-22)
(1.02774 0.0022887 -1.1228e-21)
(0.458013 0.0110305 -5.19397e-22)
(0.473891 0.00970135 3.25902e-21)
(1.05655 0.0125686 1.37196e-21)
(1.05674 0.0128137 8.49051e-22)
(1.04283 0.0115121 -6.00179e-23)
(1.04231 0.0117404 -6.02395e-23)
(0.677934 -0.00399426 -6.35268e-21)
(0.654794 -0.00440921 9.8641e-23)
(0.654792 -0.00371315 7.40435e-21)
(1.08227 0.00551999 -1.66056e-21)
(1.08269 0.00448551 -7.8334e-21)
(1.08386 0.00533501 5.06275e-21)
(0.600383 0.00518672 -3.96632e-21)
(0.575141 0.0053248 3.91999e-21)
(0.57611 0.00484097 -1.13844e-20)
(0.998818 -0.000429018 5.10086e-23)
(0.998548 -0.000385537 -1.65908e-22)
(0.998984 -0.000161338 0)
(1.06078 0.0143646 -1.15495e-21)
(1.06135 0.0143894 -5.8058e-22)
(1.06114 0.0140207 2.18942e-22)
(0.991599 -0.000120516 -2.02945e-22)
(0.993668 -1.33408e-05 -3.03606e-23)
(-0.0470551 0.0162393 -6.72462e-21)
(-0.0436933 0.0218527 -1.28004e-20)
(-0.0417735 0.0180353 -1.72611e-20)
(0.988468 -0.00270973 3.0287e-23)
(0.988744 -0.00290661 -3.50156e-23)
(1.0624 0.0100193 0)
(1.06248 0.010244 0)
(0.918865 -0.00544867 1.31107e-23)
(0.93613 -0.0052096 -5.26519e-22)
(0.850747 -0.00762855 -9.26373e-23)
(1.01613 -0.00458358 1.68086e-22)
(1.01582 -0.00475566 -4.43909e-23)
(1.01581 -0.017515 3.47066e-22)
(1.07538 0.0173936 -7.31944e-21)
(1.07534 0.0167395 -2.68431e-21)
(1.07476 0.0170713 -7.24678e-23)
(1.06991 0.00731226 -2.24715e-22)
(1.06921 0.0074246 -1.80669e-24)
(1.06936 0.00701484 -3.49083e-22)
(0.346696 -0.0514071 -1.57054e-22)
(0.331358 -0.0550044 -9.44534e-23)
(0.789303 0.00317589 2.92924e-22)
(0.829685 0.00306601 -5.41066e-21)
(0.995519 -0.00774787 0)
(0.995776 -0.00810228 -6.26325e-23)
(1.03553 0.00210581 -1.71024e-22)
(1.0361 0.00213893 -8.56542e-22)
(1.07184 -0.022966 0)
(1.06266 -0.0281581 8.30887e-23)
(1.0244 -0.0340242 5.13121e-21)
(1.02629 -0.0399295 -2.54359e-22)
(1.02865 -0.032885 -8.84339e-22)
(0.991896 -0.00579226 2.5673e-24)
(0.991688 -0.00563127 -1.77854e-23)
(0.992085 -0.00595002 1.51195e-23)
(1.06077 0.0179788 4.43274e-22)
(1.06156 0.018661 -3.41984e-22)
(0.988015 -0.00037291 1.79493e-22)
(0.988361 -0.000364566 4.71135e-23)
(0.544411 0.00569171 9.37001e-22)
(0.524399 0.00651218 -3.72901e-21)
(0.541257 0.00594339 -3.66365e-21)
(1.07038 0.0131564 1.92433e-21)
(1.07108 0.0131605 -1.41841e-22)
(0.837712 -0.0338686 1.21068e-21)
(0.840254 -0.017839 -9.37023e-22)
(0.815969 -0.020547 -5.03868e-22)
(1.05329 0.00935467 -1.06812e-22)
(1.05357 0.00916103 -1.06373e-22)
(1.05289 0.00911153 -9.05436e-23)
(1.05782 0.0106916 5.99225e-22)
(1.05732 0.0106367 -9.42038e-22)
(1.05772 0.0104964 -6.64938e-22)
(1.06383 -0.0193625 6.63354e-22)
(1.06556 -0.0191928 -1.05711e-21)
(1.06357 -0.0178099 -1.07152e-21)
(1.02324 -0.0279292 6.97622e-22)
(1.01928 -0.0349034 1.50845e-21)
(1.04502 0.00811045 -4.47375e-23)
(1.04558 0.00823845 -7.60728e-23)
(1.04533 0.00794913 -1.24875e-22)
(1.0537 0.0095791 1.26992e-22)
(1.07187 0.018123 5.13272e-21)
(1.07251 0.0183517 -1.10973e-21)
(1.07229 0.0176377 3.38233e-21)
(0.902084 0.00565117 0)
(0.858166 0.00418203 0)
(0.934656 0.00464224 -2.63442e-22)
(1.06692 0.0209099 0)
(1.06599 0.0197576 7.05724e-22)
(0.924765 0.0156708 -4.74237e-21)
(0.965727 0.0181403 -2.52653e-21)
(0.39914 0.0161512 5.14765e-21)
(0.327505 0.0225765 8.90634e-21)
(0.29263 0.0188989 9.22517e-21)
(1.02799 0.00532506 2.78256e-22)
(1.02757 0.00504079 -5.98673e-22)
(1.028 0.00501119 4.86975e-22)
(0.995272 -0.0074163 0)
(1.06351 0.0047849 -1.38709e-22)
(1.06379 0.004546 3.62892e-24)
(1.063 0.00445728 -6.70146e-22)
(0.704189 -0.0304453 0)
(0.745134 -0.0258083 -2.46555e-21)
(0.69471 -0.0250993 4.37756e-22)
(1.00223 -0.0120994 0)
(1.00165 -0.0116607 0)
(1.00192 -0.0120202 0)
(0.885133 -0.0222032 -5.6004e-22)
(0.888424 -0.0229066 -6.35327e-21)
(0.841165 -0.0250821 -1.31565e-20)
(1.05002 0.0119735 -9.30381e-23)
(1.04951 0.0118007 1.77392e-22)
(1.04472 0.00828717 0)
(1.04445 0.0079868 0)
(1.05897 0.0148661 -1.04542e-21)
(1.05875 0.014552 -5.38453e-22)
(0.702382 -0.00515873 -6.7239e-21)
(0.701684 -0.00382483 -6.72553e-21)
(1.02094 -0.0250662 -2.03333e-22)
(1.02052 -0.0245902 -2.49731e-22)
(1.02131 -0.0252085 0)
(1.0635 -0.0210627 1.66235e-22)
(1.06221 -0.0194647 1.55446e-22)
(1.05056 0.0125444 0)
(0.926285 -0.0293346 -4.33381e-21)
(0.975585 -0.0251378 9.99605e-22)
(0.909822 -0.0251195 1.20972e-20)
(1.06701 0.0120769 0)
(1.06736 0.0124722 3.07796e-21)
(1.06167 0.0116011 2.22458e-23)
(1.06131 0.0114432 5.47695e-23)
(1.02881 -0.00398576 4.0701e-22)
(1.02864 -0.00414673 3.14781e-23)
(0.895048 -0.0092723 -1.2047e-21)
(0.880772 -0.010881 -8.66829e-23)
(1.00685 -0.0172362 4.84727e-22)
(1.00746 -0.0174707 9.45285e-24)
(1.00695 -0.017184 -3.09455e-22)
(0.620513 0.00489436 -2.6028e-21)
(0.593398 0.00546425 -2.02497e-21)
(0.593367 0.00438309 2.17101e-22)
(1.00964 -0.0128533 -3.01185e-22)
(1.00909 -0.0107752 -6.74089e-23)
(0.992089 -0.00590829 7.78622e-24)
(0.991758 -0.00568631 4.19779e-24)
(0.988687 -0.00310999 -8.48571e-24)
(0.988975 -0.00330749 -9.87198e-24)
(0.988795 -0.00322969 -2.50175e-23)
(0.990338 -9.28261e-05 -1.1432e-23)
(0.989829 -0.000155954 -8.75164e-24)
(0.98866 -0.000355598 2.11668e-22)
(1.07144 0.0184696 2.2735e-21)
(1.07132 0.0178768 -2.302e-21)
(0.665785 -0.0320013 0)
(0.703453 -0.0366987 2.52932e-22)
(0.720026 0.0661869 6.25619e-21)
(0.710781 0.0549851 -2.46321e-22)
(0.72031 0.0632182 -9.01896e-23)
(1.03075 -0.00927765 8.12629e-22)
(1.0312 -0.0096672 4.24241e-22)
(1.03161 -0.00951852 1.24359e-22)
(1.02432 0.00289613 -8.00024e-22)
(1.02473 0.00289295 6.868e-22)
(1.02456 0.00321678 1.77105e-21)
(0.874411 -0.0362347 2.30961e-21)
(0.937897 -0.032654 -6.21712e-22)
(0.941598 -0.00832959 2.35274e-23)
(0.928665 -0.00993917 -9.37611e-24)
(0.949169 -0.00872313 5.26788e-21)
(1.07497 -0.00542008 -1.82579e-22)
(1.07641 -0.00491049 1.58993e-22)
(1.05609 0.00633541 -8.60002e-23)
(1.05631 0.00661297 -7.98066e-23)
(1.03764 0.0107882 4.66201e-24)
(1.0375 0.0103967 -1.6982e-22)
(1.06556 0.0156618 -2.42676e-21)
(1.0654 0.0152558 2.43971e-21)
(1.06603 0.0153094 -3.16654e-21)
(0.935122 -0.00847566 -2.64765e-21)
(0.953689 -0.00798546 2.64599e-23)
(0.929119 -0.0192005 1.26329e-20)
(0.876289 -0.0211702 2.61011e-21)
(1.06094 0.00919226 2.31239e-23)
(1.06056 0.00908171 7.0286e-23)
(1.06054 0.00933843 -3.26667e-24)
(0.33654 -0.0069201 -4.22382e-21)
(0.367835 -0.00905724 -3.29206e-22)
(1.02955 -0.00439186 2.35979e-22)
(1.0297 -0.00425282 4.80291e-23)
(1.02923 -0.00410745 -2.22687e-22)
(0.548492 0.00565503 -7.29716e-21)
(0.566809 0.00528664 0)
(1.05896 0.0172871 -4.87485e-22)
(1.05915 0.0176579 -1.56617e-23)
(1.05556 0.0117199 2.66917e-22)
(1.05606 0.0116952 0)
(0.628948 0.0040876 3.98343e-21)
(0.597883 0.00317855 -2.10772e-21)
(0.605636 0.00390545 0)
(1.04587 0.00272774 -1.18398e-22)
(1.04636 0.00262831 -2.86988e-22)
(1.04648 0.00288686 -7.66154e-23)
(1.06733 -0.0156284 -1.01511e-21)
(1.06845 -0.0180809 -1.44567e-21)
(0.591694 0.00324325 7.1063e-21)
(0.590718 0.00398441 -3.56959e-21)
(0.612993 0.00279097 1.30052e-20)
(1.03 -0.00909204 2.35983e-22)
(1.03035 -0.00894167 3.99666e-22)
(1.06887 0.0176917 0)
(1.0695 0.0178303 0)
(1.06932 0.0171991 2.40532e-21)
(1.05934 0.0140575 6.34181e-22)
(1.05984 0.0141673 -4.77596e-23)
(1.05543 0.00623006 -1.11031e-22)
(1.05584 0.00604253 1.89471e-22)
(0.0965172 -0.0542461 3.58377e-21)
(0.0817922 -0.055749 -4.33958e-21)
(1.06133 0.00925019 1.1736e-22)
(1.06117 0.0094288 2.39347e-23)
(1.04512 0.00717923 -2.70356e-23)
(1.04498 0.00740262 6.99829e-23)
(1.04557 0.00735691 2.59512e-22)
(0.64183 -0.00934627 2.17737e-21)
(0.637045 -0.00730886 3.01602e-21)
(0.617546 -0.00744818 1.20906e-20)
(0.99201 -0.00469421 -1.57874e-22)
(0.992315 -0.00494361 -7.01268e-23)
(0.992186 -0.004691 0)
(1.05823 0.0107509 7.65508e-22)
(1.05782 0.0108728 7.70241e-22)
(1.00612 -0.0161901 -4.30039e-22)
(1.00668 -0.0167048 -1.09724e-22)
(1.0063 -0.0161764 1.01574e-22)
(0.652604 0.00484051 6.04816e-21)
(0.652473 0.00483036 -8.54784e-21)
(1.08118 0.023568 1.87472e-21)
(1.08139 0.0239837 8.9279e-21)
(1.08092 0.0239547 4.60932e-21)
(1.02778 0.00276219 2.75203e-22)
(1.02808 0.00271685 1.172e-21)
(1.07162 0.0157541 1.12482e-21)
(1.07199 0.0152654 2.74868e-21)
(1.07131 0.0152298 1.85102e-21)
(1.02646 0.00284427 2.42377e-22)
(1.02687 0.00291231 9.51981e-22)
(1.02667 0.00313344 1.66215e-21)
(0.427582 0.0102518 -6.09685e-21)
(0.435391 0.0150239 -5.8849e-21)
(1.06795 -0.0197127 6.6907e-23)
(1.06913 -0.0217153 4.00465e-22)
(1.07071 -0.0199365 -1.99575e-23)
(0.996964 -0.00037248 0)
(0.996583 -0.000486058 0)
(0.996778 -0.000760418 -1.24523e-22)
(1.04396 -0.00660112 2.9073e-22)
(1.04462 -0.00654006 -1.83763e-23)
(1.04368 -0.00634984 -1.85112e-23)
(1.0814 0.0230704 -3.48574e-21)
(1.08083 0.0230861 -3.16092e-21)
(1.06031 0.014279 -2.69205e-22)
(1.06046 0.0145665 3.09709e-23)
(1.04939 0.0134934 -3.84258e-23)
(1.04985 0.0134773 4.75454e-23)
(1.04943 0.0131328 -3.09433e-22)
(1.02414 0.00260632 -1.99825e-21)
(1.0454 0.00285735 1.85204e-22)
(1.04527 0.00260789 3.57536e-22)
(1.04535 0.00694976 -2.08093e-22)
(1.04467 0.00695654 -3.66819e-22)
(0.996752 -0.00965484 0)
(0.997926 -0.0124802 -3.88257e-22)
(0.259829 0.0852028 -1.11334e-20)
(0.245412 0.0788613 -1.35102e-20)
(0.468432 -0.0301144 5.59752e-21)
(0.494293 -0.0318571 -5.13928e-21)
(0.467891 -0.0354699 -5.87619e-22)
(1.06627 0.00431944 -2.70554e-23)
(1.06665 0.00456064 3.98655e-22)
(1.06696 0.00441576 1.90856e-22)
(0.663351 0.00512966 4.09689e-21)
(0.656289 0.00486202 -3.38916e-21)
(0.654739 -0.0443187 5.08435e-21)
(0.625399 -0.0471276 2.70867e-21)
(0.615886 -0.0465521 -3.04258e-21)
(1.02664 0.00139261 -9.84533e-22)
(1.06466 0.0144104 4.92304e-21)
(1.06416 0.0143657 0)
(1.07345 -0.00596383 -4.97913e-21)
(1.07765 -0.00682068 -4.36599e-21)
(1.06898 0.000290367 -3.23067e-23)
(1.06798 0.00122602 -1.09096e-23)
(1.06716 -0.000913214 6.52929e-22)
(1.07256 0.00628936 -9.01877e-22)
(1.07122 0.00617044 -1.43193e-22)
(1.07156 0.0066176 -5.38806e-22)
(1.0837 0.0134641 1.38774e-20)
(1.08293 0.0130117 7.84222e-21)
(1.08297 0.0138099 7.49033e-22)
(0.979267 -0.0144052 2.66118e-21)
(1.06436 -0.00950588 -3.38457e-22)
(1.06351 -0.0102283 -2.76722e-22)
(1.06272 -0.00940501 -2.52147e-22)
(0.631649 -0.0311709 4.39865e-21)
(0.629945 -0.0327761 1.98508e-23)
(0.628145 -0.0255704 4.1285e-23)
(0.594512 0.00438553 3.58849e-21)
(0.571424 0.0050486 4.74318e-21)
(0.575243 0.00485488 2.13429e-21)
(1.02564 0.000862417 1.67744e-21)
(1.02566 0.0011887 1.473e-21)
(1.01097 -0.0229444 4.27463e-22)
(1.01119 -0.0223752 3.18664e-23)
(1.01171 -0.0236821 1.54282e-23)
(1.01053 -0.0231444 -2.11021e-22)
(1.01052 -0.0222263 -7.43037e-22)
(0.831351 -0.0238653 -1.26728e-21)
(0.885976 -0.0194248 2.12959e-22)
(0.824574 -0.0250198 5.02028e-22)
(1.04895 0.0135155 9.19807e-22)
(1.04941 0.0138178 5.16162e-22)
(1.07447 0.00638454 -5.27105e-22)
(1.07415 0.00595943 -5.58333e-23)
(-0.0497482 0.0105134 8.45882e-21)
(-0.052181 0.0146241 6.83137e-21)
(1.03953 -0.00500564 -2.60701e-22)
(1.03961 -0.00524332 2.7682e-22)
(0.654045 -0.0300137 -1.79331e-23)
(0.637229 -0.0355282 1.70554e-23)
(1.04348 -0.00671005 6.24225e-22)
(1.04436 -0.00690388 -8.79454e-23)
(1.02608 0.00277292 -2.50872e-21)