/*--------------------------------*- C++ -*----------------------------------*\
| =========                 |                                                 |
| \\      /  F ield         | OpenFOAM: The Open Source CFD Toolbox           |
|  \\    /   O peration     | Version:  v2012                                 |
|   \\  /    A nd           | Website:  www.openfoam.com                      |
|    \\/     M anipulation  |                                                 |
\*---------------------------------------------------------------------------*/
FoamFile
{
    version     2.0;
    format      ascii;
    class       pointVectorField;
    location    "350";
    object      pointDisplacement;
}
// * * * * * * * * * * * * * * * * * * * * * * * * * * * * * * * * * * * * * //

dimensions      [0 1 0 0 0 0 0];


internalField   nonuniform List<vector> 
14324
(
(0 0 0)
(-0.0195097 -0.194154 0)
(0 0 0)
(-0.0195097 -0.194154 0)
(0 0 0)
(0 0 0)
(0 0 0)
(0 0 0)
(0 0 0)
(0 0 0)
(0 0 0)
(0 0 0)
(0 0 0)
(0 0 0)
(0 0 0)
(0 0 0)
(0 0 0)
(0 0 0)
(0 0 0)
(0 0 0)
(0 0 0)
(0 0 0)
(0 0 0)
(0 0 0)
(0 0 0)
(0 0 0)
(0 0 0)
(0 0 0)
(0 0 0)
(0 0 0)
(0 0 0)
(0 0 0)
(0 0 0)
(0 0 0)
(0 0 0)
(0 0 0)
(0 0 0)
(0 0 0)
(0 0 0)
(0 0 0)
(0 0 0)
(0 0 0)
(0 0 0)
(0 0 0)
(0 0 0)
(0 0 0)
(0 0 0)
(0 0 0)
(0 0 0)
(0 0 0)
(0 0 0)
(0 0 0)
(0 0 0)
(0 0 0)
(0 0 0)
(0 0 0)
(0 0 0)
(0 0 0)
(0 0 0)
(0 0 0)
(0 0 0)
(0 0 0)
(0 0 0)
(0 0 0)
(0 0 0)
(0 0 0)
(0 0 0)
(0 0 0)
(0 0 0)
(0 0 0)
(0 0 0)
(0 0 0)
(0 0 0)
(0 0 0)
(0 0 0)
(0 0 0)
(-0.0273007 0.127653 0)
(-0.0272422 0.125234 0)
(-0.0271836 0.122814 0)
(-0.027125 0.120394 0)
(-0.0270664 0.117975 0)
(-0.0270079 0.115555 0)
(-0.0269493 0.113136 0)
(-0.0268907 0.110716 0)
(-0.0268321 0.108296 0)
(-0.0267735 0.105877 0)
(-0.026715 0.103457 0)
(-0.0266564 0.101038 0)
(-0.0265978 0.098618 0)
(-0.0265392 0.0961984 0)
(-0.0264806 0.0937788 0)
(-0.0264221 0.0913592 0)
(-0.0263635 0.0889396 0)
(-0.0263049 0.08652 0)
(-0.0262463 0.0841004 0)
(-0.0261877 0.0816808 0)
(-0.0261292 0.0792612 0)
(-0.0260706 0.0768416 0)
(-0.026012 0.074422 0)
(-0.0259534 0.0720024 0)
(-0.0258948 0.0695828 0)
(-0.0258363 0.0671631 0)
(-0.0257777 0.0647435 0)
(-0.0257191 0.0623239 0)
(-0.0256605 0.0599043 0)
(-0.025602 0.0574847 0)
(-0.0255434 0.0550651 0)
(-0.0254848 0.0526455 0)
(-0.0254262 0.0502259 0)
(-0.0253676 0.0478063 0)
(-0.0253091 0.0453867 0)
(-0.0252505 0.0429671 0)
(-0.0251919 0.0405475 0)
(-0.0251333 0.0381279 0)
(-0.0250747 0.0357083 0)
(-0.0250162 0.0332887 0)
(-0.0249576 0.0308691 0)
(-0.024899 0.0284495 0)
(-0.0248404 0.0260299 0)
(-0.0247818 0.0236103 0)
(-0.0247233 0.0211907 0)
(-0.0246647 0.018771 0)
(-0.0246061 0.0163514 0)
(-0.0245475 0.0139318 0)
(-0.0244889 0.0115122 0)
(-0.0244304 0.00909263 0)
(-0.0243718 0.00667302 0)
(-0.0243132 0.00425342 0)
(-0.0242546 0.00183381 0)
(-0.0241961 -0.000585792 0)
(-0.0241375 -0.0030054 0)
(-0.0240789 -0.005425 0)
(-0.0240203 -0.00784461 0)
(-0.0239617 -0.0102642 0)
(-0.0239032 -0.0126838 0)
(-0.0238446 -0.0151034 0)
(-0.023786 -0.017523 0)
(-0.0237274 -0.0199426 0)
(-0.0236688 -0.0223622 0)
(-0.0236103 -0.0247818 0)
(-0.0235517 -0.0272014 0)
(-0.0234931 -0.0296211 0)
(-0.0234345 -0.0320407 0)
(-0.0233759 -0.0344603 0)
(-0.0233174 -0.0368799 0)
(-0.0232588 -0.0392995 0)
(-0.0232002 -0.0417191 0)
(-0.0231416 -0.0441387 0)
(-0.023083 -0.0465583 0)
(-0.0230245 -0.0489779 0)
(-0.0229659 -0.0513975 0)
(-0.0229073 -0.0538171 0)
(-0.0228487 -0.0562367 0)
(-0.0227901 -0.0586563 0)
(-0.0227316 -0.0610759 0)
(-0.022673 -0.0634955 0)
(-0.0226144 -0.0659151 0)
(-0.0225558 -0.0683347 0)
(-0.0224973 -0.0707543 0)
(-0.0224387 -0.0731739 0)
(-0.0223801 -0.0755935 0)
(-0.0223215 -0.0780132 0)
(-0.0222629 -0.0804328 0)
(-0.0222044 -0.0828524 0)
(-0.0221458 -0.085272 0)
(-0.0220872 -0.0876916 0)
(-0.0220286 -0.0901112 0)
(-0.02197 -0.0925308 0)
(-0.0219115 -0.0949504 0)
(-0.0218529 -0.09737 0)
(-0.0217943 -0.0997896 0)
(-0.0217357 -0.102209 0)
(-0.0216771 -0.104629 0)
(-0.0216186 -0.107048 0)
(-0.02156 -0.109468 0)
(-0.0215014 -0.111888 0)
(-0.0214428 -0.114307 0)
(-0.0213842 -0.116727 0)
(-0.0213257 -0.119146 0)
(-0.0212671 -0.121566 0)
(-0.0212085 -0.123986 0)
(-0.0211499 -0.126405 0)
(-0.0210914 -0.128825 0)
(-0.0210328 -0.131244 0)
(-0.0209742 -0.133664 0)
(-0.0209156 -0.136084 0)
(-0.020857 -0.138503 0)
(-0.0207985 -0.140923 0)
(-0.0207399 -0.143342 0)
(-0.0206813 -0.145762 0)
(-0.0206227 -0.148182 0)
(-0.0205641 -0.150601 0)
(-0.0205056 -0.153021 0)
(-0.020447 -0.155441 0)
(-0.0203884 -0.15786 0)
(-0.0203298 -0.16028 0)
(-0.0202712 -0.162699 0)
(-0.0202127 -0.165119 0)
(-0.0201541 -0.167539 0)
(-0.0200955 -0.169958 0)
(-0.0200369 -0.172378 0)
(-0.0199783 -0.174797 0)
(-0.0199198 -0.177217 0)
(-0.0198612 -0.179637 0)
(-0.0198026 -0.182056 0)
(-0.019744 -0.184476 0)
(-0.0196855 -0.186895 0)
(-0.0196269 -0.189315 0)
(-0.0195683 -0.191735 0)
(-0.0170901 -0.194096 0)
(-0.0146705 -0.194037 0)
(-0.0122509 -0.193978 0)
(-0.00983129 -0.19392 0)
(-0.00741169 -0.193861 0)
(-0.00499208 -0.193803 0)
(-0.00257248 -0.193744 0)
(-0.000152874 -0.193686 0)
(0.00226673 -0.193627 0)
(0.00468634 -0.193568 0)
(0.00710594 -0.19351 0)
(0.00952555 -0.193451 0)
(0.0119452 -0.193393 0)
(0.0143648 -0.193334 0)
(0.0167844 -0.193276 0)
(0.019204 -0.193217 0)
(0.0216236 -0.193158 0)
(0.0240432 -0.1931 0)
(0 0 0)
(0 0 0)
(0 0 0)
(0 0 0)
(0 0 0)
(0 0 0)
(0 0 0)
(0 0 0)
(0 0 0)
(0 0 0)
(0 0 0)
(0 0 0)
(0 0 0)
(0 0 0)
(0 0 0)
(0 0 0)
(0 0 0)
(0 0 0)
(0 0 0)
(0 0 0)
(0 0 0)
(0 0 0)
(0 0 0)
(0 0 0)
(0 0 0)
(0 0 0)
(0 0 0)
(0 0 0)
(0 0 0)
(0 0 0)
(0 0 0)
(0 0 0)
(0 0 0)
(0 0 0)
(0 0 0)
(0 0 0)
(0 0 0)
(0 0 0)
(0 0 0)
(0 0 0)
(0 0 0)
(0 0 0)
(0 0 0)
(0 0 0)
(0 0 0)
(0 0 0)
(0 0 0)
(0 0 0)
(0 0 0)
(0 0 0)
(0 0 0)
(0 0 0)
(0 0 0)
(0 0 0)
(0 0 0)
(0 0 0)
(0 0 0)
(0 0 0)
(0 0 0)
(0 0 0)
(0 0 0)
(0 0 0)
(0 0 0)
(0 0 0)
(0 0 0)
(0 0 0)
(0 0 0)
(0 0 0)
(0 0 0)
(0 0 0)
(0 0 0)
(0 0 0)
(-0.0273007 0.127653 0)
(-0.0272422 0.125234 0)
(-0.0271836 0.122814 0)
(-0.027125 0.120394 0)
(-0.0270664 0.117975 0)
(-0.0270079 0.115555 0)
(-0.0269493 0.113136 0)
(-0.0268907 0.110716 0)
(-0.0268321 0.108296 0)
(-0.0267735 0.105877 0)
(-0.026715 0.103457 0)
(-0.0266564 0.101038 0)
(-0.0265978 0.098618 0)
(-0.0265392 0.0961984 0)
(-0.0264806 0.0937788 0)
(-0.0264221 0.0913592 0)
(-0.0263635 0.0889396 0)
(-0.0263049 0.08652 0)
(-0.0262463 0.0841004 0)
(-0.0261877 0.0816808 0)
(-0.0261292 0.0792612 0)
(-0.0260706 0.0768416 0)
(-0.026012 0.074422 0)
(-0.0259534 0.0720024 0)
(-0.0258948 0.0695828 0)
(-0.0258363 0.0671631 0)
(-0.0257777 0.0647435 0)
(-0.0257191 0.0623239 0)
(-0.0256605 0.0599043 0)
(-0.025602 0.0574847 0)
(-0.0255434 0.0550651 0)
(-0.0254848 0.0526455 0)
(-0.0254262 0.0502259 0)
(-0.0253676 0.0478063 0)
(-0.0253091 0.0453867 0)
(-0.0252505 0.0429671 0)
(-0.0251919 0.0405475 0)
(-0.0251333 0.0381279 0)
(-0.0250747 0.0357083 0)
(-0.0250162 0.0332887 0)
(-0.0249576 0.0308691 0)
(-0.024899 0.0284495 0)
(-0.0248404 0.0260299 0)
(-0.0247818 0.0236103 0)
(-0.0247233 0.0211907 0)
(-0.0246647 0.018771 0)
(-0.0246061 0.0163514 0)
(-0.0245475 0.0139318 0)
(-0.0244889 0.0115122 0)
(-0.0244304 0.00909263 0)
(-0.0243718 0.00667302 0)
(-0.0243132 0.00425342 0)
(-0.0242546 0.00183381 0)
(-0.0241961 -0.000585792 0)
(-0.0241375 -0.0030054 0)
(-0.0240789 -0.005425 0)
(-0.0240203 -0.00784461 0)
(-0.0239617 -0.0102642 0)
(-0.0239032 -0.0126838 0)
(-0.0238446 -0.0151034 0)
(-0.023786 -0.017523 0)
(-0.0237274 -0.0199426 0)
(-0.0236688 -0.0223622 0)
(-0.0236103 -0.0247818 0)
(-0.0235517 -0.0272014 0)
(-0.0234931 -0.0296211 0)
(-0.0234345 -0.0320407 0)
(-0.0233759 -0.0344603 0)
(-0.0233174 -0.0368799 0)
(-0.0232588 -0.0392995 0)
(-0.0232002 -0.0417191 0)
(-0.0231416 -0.0441387 0)
(-0.023083 -0.0465583 0)
(-0.0230245 -0.0489779 0)
(-0.0229659 -0.0513975 0)
(-0.0229073 -0.0538171 0)
(-0.0228487 -0.0562367 0)
(-0.0227901 -0.0586563 0)
(-0.0227316 -0.0610759 0)
(-0.022673 -0.0634955 0)
(-0.0226144 -0.0659151 0)
(-0.0225558 -0.0683347 0)
(-0.0224973 -0.0707543 0)
(-0.0224387 -0.0731739 0)
(-0.0223801 -0.0755935 0)
(-0.0223215 -0.0780132 0)
(-0.0222629 -0.0804328 0)
(-0.0222044 -0.0828524 0)
(-0.0221458 -0.085272 0)
(-0.0220872 -0.0876916 0)
(-0.0220286 -0.0901112 0)
(-0.02197 -0.0925308 0)
(-0.0219115 -0.0949504 0)
(-0.0218529 -0.09737 0)
(-0.0217943 -0.0997896 0)
(-0.0217357 -0.102209 0)
(-0.0216771 -0.104629 0)
(-0.0216186 -0.107048 0)
(-0.02156 -0.109468 0)
(-0.0215014 -0.111888 0)
(-0.0214428 -0.114307 0)
(-0.0213842 -0.116727 0)
(-0.0213257 -0.119146 0)
(-0.0212671 -0.121566 0)
(-0.0212085 -0.123986 0)
(-0.0211499 -0.126405 0)
(-0.0210914 -0.128825 0)
(-0.0210328 -0.131244 0)
(-0.0209742 -0.133664 0)
(-0.0209156 -0.136084 0)
(-0.020857 -0.138503 0)
(-0.0207985 -0.140923 0)
(-0.0207399 -0.143342 0)
(-0.0206813 -0.145762 0)
(-0.0206227 -0.148182 0)
(-0.0205641 -0.150601 0)
(-0.0205056 -0.153021 0)
(-0.020447 -0.155441 0)
(-0.0203884 -0.15786 0)
(-0.0203298 -0.16028 0)
(-0.0202712 -0.162699 0)
(-0.0202127 -0.165119 0)
(-0.0201541 -0.167539 0)
(-0.0200955 -0.169958 0)
(-0.0200369 -0.172378 0)
(-0.0199783 -0.174797 0)
(-0.0199198 -0.177217 0)
(-0.0198612 -0.179637 0)
(-0.0198026 -0.182056 0)
(-0.019744 -0.184476 0)
(-0.0196855 -0.186895 0)
(-0.0196269 -0.189315 0)
(-0.0195683 -0.191735 0)
(-0.0170901 -0.194096 0)
(-0.0146705 -0.194037 0)
(-0.0122509 -0.193978 0)
(-0.00983129 -0.19392 0)
(-0.00741169 -0.193861 0)
(-0.00499208 -0.193803 0)
(-0.00257248 -0.193744 0)
(-0.000152874 -0.193686 0)
(0.00226673 -0.193627 0)
(0.00468634 -0.193568 0)
(0.00710594 -0.19351 0)
(0.00952555 -0.193451 0)
(0.0119452 -0.193393 0)
(0.0143648 -0.193334 0)
(0.0167844 -0.193276 0)
(0.019204 -0.193217 0)
(0.0216236 -0.193158 0)
(0.0240432 -0.1931 0)
(-0.0262768 0.0853565 0)
(-0.0252219 0.0417839 0)
(-0.0241751 -0.00145848 0)
(-0.0231135 -0.0452966 0)
(-0.022054 -0.0890697 0)
(-0.0210058 -0.132361 0)
(-0.0199439 -0.176166 0)
(-0.0225841 -0.0671702 0)
(-0.0268038 0.107122 0)
(-0.023638 -0.0236399 0)
(-0.0257473 0.0634865 0)
(-0.0204749 -0.154283 0)
(-0.024695 0.0200222 0)
(-0.021533 -0.11058 0)
(0.0061566 -0.193534 0)
(-0.0133989 -0.193995 0)
(0.0230708 -0.193118 0)
(-0.000819767 -0.00492184 0)
(-0.000441275 -0.00908316 0)
(-0.00105379 -0.00351758 0)
(-0.00118579 -0.000269128 0)
(-0.000248195 -0.0106949 0)
(-1.50858e-05 -0.0122011 0)
(-0.0196516 -0.187862 0)
(-0.000544086 -0.00435535 0)
(-0.000411175 -0.0061309 0)
(0.000230067 -0.0128725 0)
(-0.00121208 0.0018179 0)
(-0.000348625 -0.00441854 0)
(-0.020707 -0.144704 0)
(-0.0249312 0.0297852 0)
(-0.0212981 -0.120284 0)
(-0.0259925 0.0736068 0)
(-0.022881 -0.054906 0)
(-0.0222853 -0.0795156 0)
(-0.0234106 -0.0330252 0)
(-0.0265698 0.0974563 0)
(-0.0239301 -0.0115748 0)
(-0.0254637 0.0517667 0)
(-0.0201821 -0.16636 0)
(-0.0270409 0.116923 0)
(-0.0244101 0.00824652 0)
(-0.0218226 -0.0986168 0)
(-0.00390818 -0.193773 0)
(-0.000410806 -0.00384275 0)
(-0.0003704 -0.0100241 0)
(-0.000918409 -0.00430866 0)
(-0.00110352 -0.00170872 0)
(-0.000250319 -0.00286417 0)
(-0.000296936 -0.00301637 0)
(0.0155262 -0.193305 0)
(-0.000146425 -0.00156185 0)
(-0.000168807 -0.011505 0)
(0.000102125 -0.0124431 0)
(-0.000410536 -0.00725186 0)
(-0.00113657 -0.00276439 0)
(-0.00111967 0.000753401 0)
(-0.00143751 0.00338048 0)
(-0.0005666 -0.00386713 0)
(-0.000601611 -0.00524833 0)
(-0.000384545 -0.00524356 0)
(-0.000312488 -0.00373547 0)
(-0.000161129 -0.0017873 0)
(-6.01585e-05 -0.000652322 0)
(-0.0214511 0.0825221 0)
(-0.0212106 0.0787567 0)
(-0.021468 0.0766323 0)
(-0.0212193 0.0729416 0)
(-0.0214962 0.0703405 0)
(-0.0211624 0.0662239 0)
(-0.021422 0.0632402 0)
(-0.0211497 0.0593986 0)
(-0.0213662 0.0563646 0)
(-0.0210816 0.0528197 0)
(-0.0212827 0.0495794 0)
(-0.0210105 0.0463253 0)
(-0.021182 0.0428521 0)
(-0.0209145 0.039907 0)
(-0.0210617 0.0358917 0)
(-0.0207846 0.0333206 0)
(-0.0209197 0.0288997 0)
(-0.0206431 0.0264717 0)
(-0.0207549 0.021901 0)
(-0.0204645 0.0195803 0)
(-0.0205728 0.0148823 0)
(-0.0202701 0.0127437 0)
(-0.0203668 0.0079473 0)
(-0.0200775 0.00603565 0)
(-0.0201413 0.00113169 0)
(-0.0198573 -0.000462848 0)
(-0.0199059 -0.00558459 0)
(-0.0196207 -0.00694084 0)
(-0.0196567 -0.0121319 0)
(-0.019375 -0.0132378 0)
(-0.0193873 -0.0186138 0)
(-0.0191045 -0.0193226 0)
(-0.0190956 -0.0248328 0)
(-0.0188188 -0.0253462 0)
(-0.0187974 -0.0307504 0)
(-0.0185205 -0.0312681 0)
(-0.018492 -0.0367158 0)
(-0.0182031 -0.0370441 0)
(-0.0181627 -0.0428519 0)
(-0.0178723 -0.0427147 0)
(-0.017816 -0.0486083 0)
(-0.0175405 -0.0481241 0)
(-0.0174695 -0.0537947 0)
(-0.0208677 0.0555721 0)
(-0.0201305 0.01738 0)
(-0.0188277 -0.0199137 0)
(-0.0171967 -0.0530471 0)
(-0.0171116 -0.0586517 0)
(-0.0168386 -0.0577964 0)
(-0.0167409 -0.0633193 0)
(-0.0169124 -0.0520674 0)
(-0.0164741 -0.062294 0)
(-0.0163594 -0.0677452 0)
(-0.0160989 -0.0663051 0)
(-0.0159682 -0.071858 0)
(-0.0157156 -0.0700189 0)
(-0.0155637 -0.0757181 0)
(-0.0153126 -0.0736417 0)
(-0.015143 -0.079393 0)
(-0.0184901 -0.0424811 0)
(-0.019942 -0.0110017 0)
(-0.016626 -0.0691569 0)
(-0.0148889 -0.077207 0)
(-0.0147149 -0.0827182 0)
(-0.0144627 -0.0803991 0)
(-0.014286 -0.0856082 0)
(-0.0145271 -0.0880591 0)
(-0.0140894 -0.0907097 0)
(-0.0143172 -0.0932881 0)
(-0.0138665 -0.0957987 0)
(-0.0136515 -0.0930009 0)
(-0.0134146 -0.0978906 0)
(-0.013214 -0.0950342 0)
(-0.0129699 -0.0996518 0)
(-0.0131351 -0.102608 0)
(-0.0127017 -0.104078 0)
(-0.0128472 -0.107148 0)
(-0.0125328 -0.101358 0)
(-0.021031 0.0244025 0)
(-0.012412 -0.108343 0)
(-0.0125326 -0.111514 0)
(-0.0121005 -0.112424 0)
(-0.0122066 -0.1156 0)
(-0.01177 -0.116291 0)
(-0.0118663 -0.119637 0)
(-0.0114117 -0.119966 0)
(-0.0114781 -0.123343 0)
(-0.0216608 0.0599236 0)
(-0.0110191 -0.123386 0)
(-0.0110637 -0.126732 0)
(-0.0105993 -0.126523 0)
(-0.01059 -0.122917 0)
(-0.0106208 -0.1299 0)
(-0.0101542 -0.129454 0)
(-0.0101506 -0.132901 0)
(-0.0119602 -0.122992 0)
(-0.00968442 -0.132157 0)
(-0.00964559 -0.13559 0)
(-0.00919055 -0.134562 0)
(-0.00911619 -0.137885 0)
(-0.00867063 -0.136679 0)
(-0.00855864 -0.140022 0)
(-0.0150593 -0.0714 0)
(-0.0081346 -0.138578 0)
(-0.0079631 -0.141883 0)
(-0.00820702 -0.135451 0)
(-0.00758002 -0.140109 0)
(-0.00735015 -0.143377 0)
(-0.00697832 -0.141385 0)
(-0.00957203 -0.138919 0)
(-0.00671631 -0.144629 0)
(-0.0063376 -0.142551 0)
(-0.00710301 -0.146561 0)
(-0.00643121 -0.147727 0)
(-0.00683664 -0.149626 0)
(-0.00613465 -0.150701 0)
(-0.00652192 -0.152584 0)
(-0.00583663 -0.15345 0)
(-0.00614137 -0.155292 0)
(-0.00546239 -0.155957 0)
(-0.00575525 -0.157812 0)
(-0.00502487 -0.158368 0)
(-0.00474587 -0.156157 0)
(-0.005349 -0.16028 0)
(-0.0045596 -0.160674 0)
(-0.00486268 -0.162569 0)
(-0.00405962 -0.162755 0)
(-0.00435156 -0.164629 0)
(-0.00517431 -0.164385 0)
(-0.00465307 -0.166409 0)
(-0.0055043 -0.166093 0)
(-0.0038088 -0.166525 0)
(-0.00407887 -0.168264 0)
(-0.00321162 -0.168273 0)
(-0.00345109 -0.169951 0)
(-0.0025521 -0.169836 0)
(-0.00275152 -0.171477 0)
(-0.00182422 -0.171228 0)
(-0.00198803 -0.172851 0)
(-0.00103225 -0.172479 0)
(-0.000931706 -0.170812 0)
(-0.000105183 -0.171938 0)
(-0.00295327 -0.173071 0)
(-0.000169754 -0.17359 0)
(0.000785162 -0.172949 0)
(0.000783094 -0.174566 0)
(0.00173605 -0.173796 0)
(0.00185841 -0.175338 0)
(0.00289181 -0.174291 0)
(0.0029992 -0.175939 0)
(0.00391777 -0.175068 0)
(0.00416161 -0.176443 0)
(0.00497775 -0.175495 0)
(0.00536466 -0.17676 0)
(-0.000103369 -0.170218 0)
(0.00326912 -0.177388 0)
(0.00479436 -0.174272 0)
(-0.0263741 0.123216 0)
(-0.0262449 0.12003 0)
(-0.0263431 0.118529 0)
(-0.0262156 0.115355 0)
(-0.0263006 0.113776 0)
(-0.0261743 0.110641 0)
(-0.0262462 0.108859 0)
(-0.0261212 0.105788 0)
(-0.0261785 0.103896 0)
(-0.0260585 0.10088 0)
(-0.0261071 0.0991393 0)
(-0.0259896 0.0960408 0)
(-0.0259341 0.0975781 0)
(-0.0258698 0.0929254 0)
(-0.026123 0.121468 0)
(-0.0259129 0.0910589 0)
(-0.0257989 0.0880548 0)
(-0.0258288 0.085908 0)
(-0.0257193 0.083061 0)
(-0.025741 0.0808674 0)
(-0.0256291 0.0779847 0)
(-0.0256485 0.0758462 0)
(-0.025536 0.0728455 0)
(-0.0255516 0.0707748 0)
(-0.0254411 0.0677615 0)
(-0.0254511 0.0656617 0)
(-0.0253466 0.0627878 0)
(-0.0253477 0.0605418 0)
(-0.025247 0.0578263 0)
(-0.0252417 0.0554497 0)
(-0.02514 0.0527574 0)
(-0.025134 0.0504134 0)
(-0.0250314 0.047663 0)
(-0.0250266 0.0454974 0)
(-0.024923 0.0426634 0)
(-0.0249198 0.0406566 0)
(-0.0248123 0.0376142 0)
(-0.0248206 0.0399947 0)
(-0.0247102 0.0348835 0)
(-0.0253237 0.0642189 0)
(-0.0257411 0.0897658 0)
(-0.0246978 0.0323861 0)
(-0.0245945 0.0296215 0)
(-0.0245782 0.0270506 0)
(-0.0244752 0.0243448 0)
(-0.024455 0.0216837 0)
(-0.0243537 0.019047 0)
(-0.0243306 0.0163423 0)
(-0.0242317 0.0137634 0)
(-0.0242063 0.0110392 0)
(-0.0241089 0.00848108 0)
(-0.0240845 0.00585141 0)
(-0.0239858 0.00328359 0)
(-0.0239618 0.000712223 0)
(-0.0238619 -0.00184431 0)
(-0.0238391 -0.00435435 0)
(-0.0237382 -0.00689501 0)
(-0.0237177 -0.00930605 0)
(-0.023613 -0.0120116 0)
(-0.0236371 -0.00927943 0)
(-0.0235058 -0.0146035 0)
(-0.0242512 0.0164173 0)
(-0.023481 -0.0176301 0)
(-0.0233722 -0.0199575 0)
(-0.0233401 -0.0229372 0)
(-0.023236 -0.0252785 0)
(-0.0232102 -0.0280268 0)
(-0.0231005 -0.030524 0)
(-0.023076 -0.0332606 0)
(-0.0229668 -0.0356903 0)
(-0.0229399 -0.0385448 0)
(-0.0228304 -0.0408233 0)
(-0.0227986 -0.0438431 0)
(-0.0226891 -0.0459805 0)
(-0.022654 -0.049145 0)
(-0.0225443 -0.05124 0)
(-0.0225094 -0.0544201 0)
(-0.0223967 -0.0565085 0)
(-0.0223635 -0.0596569 0)
(-0.0222454 -0.0617907 0)
(-0.0222774 -0.0585353 0)
(-0.0221183 -0.0639267 0)
(-0.0229758 -0.033394 0)
(-0.022088 -0.0671899 0)
(-0.0219547 -0.0693529 0)
(-0.0219248 -0.0726482 0)
(-0.0217911 -0.0746919 0)
(-0.021757 -0.0781008 0)
(-0.0216216 -0.0799817 0)
(-0.021804 -0.0717775 0)
(-0.0215843 -0.0835256 0)
(-0.0214451 -0.0852219 0)
(-0.0214081 -0.0888686 0)
(-0.0212618 -0.0905252 0)
(-0.0212256 -0.0941776 0)
(-0.0210699 -0.0958373 0)
(-0.0210355 -0.0994595 0)
(-0.0208708 -0.101081 0)
(-0.0209063 -0.0973474 0)
(-0.0206971 -0.102571 0)
(-0.0206606 -0.106348 0)
(-0.0204791 -0.107746 0)
(-0.0204387 -0.111584 0)
(-0.0202488 -0.112821 0)
(-0.0202056 -0.116702 0)
(-0.0200042 -0.117789 0)
(-0.0200613 -0.11369 0)
(-0.0197998 -0.118451 0)
(-0.0197436 -0.122663 0)
(-0.0195187 -0.123352 0)
(-0.0194642 -0.127424 0)
(-0.0192298 -0.128014 0)
(-0.0191726 -0.132092 0)
(-0.0189246 -0.132554 0)
(-0.0188611 -0.136609 0)
(-0.0195764 -0.118906 0)
(-0.0186018 -0.136853 0)
(-0.0185285 -0.140817 0)
(-0.0182706 -0.140832 0)
(-0.018177 -0.144812 0)
(-0.0179158 -0.14449 0)
(-0.0177956 -0.148474 0)
(-0.0180279 -0.140717 0)
(-0.0175311 -0.147871 0)
(-0.0173913 -0.15172 0)
(-0.0171257 -0.15094 0)
(-0.0169685 -0.154728 0)
(-0.0166975 -0.153725 0)
(-0.0230542 -0.0358725 0)
(-0.0224737 -0.0575297 0)
(-0.0165143 -0.157468 0)
(-0.0162403 -0.156235 0)
(-0.0239398 -0.00158897 0)
(-0.0244258 0.0187012 0)
(-0.021549 -0.0869972 0)
(-0.0247189 0.0374121 0)
(-0.023534 -0.0115894 0)
(-0.0191176 -0.136243 0)
(-0.0251305 0.0484592 0)
(-0.0255566 0.0685134 0)
(-0.0160291 -0.15983 0)
(-0.0157576 -0.158424 0)
(-0.0159794 -0.154844 0)
(-0.0154915 -0.156969 0)
(-0.0157245 -0.153395 0)
(-0.0176471 -0.152438 0)
(-0.0262064 0.101898 0)
(-0.0155225 -0.161827 0)
(-0.0264697 0.121688 0)
(-0.0158029 -0.163264 0)
(-0.0152226 -0.155498 0)
(-0.0154748 -0.151881 0)
(-0.0152597 -0.165033 0)
(-0.0155394 -0.166533 0)
(-0.0149673 -0.168007 0)
(-0.0135341 0.0395999 0)
(-0.0152402 -0.169544 0)
(-0.0146429 -0.170743 0)
(-0.0149127 -0.172307 0)
(-0.0149703 -0.153858 0)
(-0.0152357 -0.150264 0)
(-0.012975 0.0363654 0)
(-0.0134328 0.0348914 0)
(-0.0142797 -0.173256 0)
(-0.0145321 -0.174838 0)
(-0.0151905 -0.173843 0)
(-0.0128615 0.031863 0)
(-0.0133144 0.0301593 0)
(-0.013872 0.0330744 0)
(-0.0137425 0.0281274 0)
(-0.0131751 0.0254406 0)
(-0.0135925 0.0231777 0)
(-0.013016 0.0207462 0)
(-0.0134186 0.0182213 0)
(-0.0128343 0.0160969 0)
(-0.0132208 0.0133113 0)
(-0.0126279 0.0115027 0)
(-0.0130012 0.00845505 0)
(-0.0140346 -0.171726 0)
(-0.0138632 -0.175534 0)
(-0.0141048 -0.177104 0)
(-0.0133837 -0.17754 0)
(-0.0136039 -0.1791 0)
(-0.0142847 0.0309345 0)
(-0.0128373 -0.179309 0)
(-0.013014 -0.180814 0)
(-0.0123989 0.00690931 0)
(-0.01276 0.00367254 0)
(-0.012208 -0.180861 0)
(-0.0123364 -0.182317 0)
(-0.0114814 -0.182189 0)
(-0.0115253 -0.183575 0)
(-0.0114271 -0.180813 0)
(-0.0135764 0.010262 0)
(-0.0121494 0.00240203 0)
(-0.0125002 -0.000984371 0)
(-0.0147481 -0.152075 0)
(-0.0150021 -0.148569 0)
(-0.0106377 -0.183281 0)
(-0.0106219 -0.184545 0)
(0.0029211 -0.122735 0)
(0.00276362 -0.126617 0)
(0.00239195 -0.122831 0)
(0.00220852 -0.126489 0)
(0.00187449 -0.122849 0)
(0.0016622 -0.126371 0)
(0.00136123 -0.122632 0)
(-0.0118829 -0.00193861 0)
(-0.0122226 -0.0054555 0)
(-0.0115994 -0.00611588 0)
(-0.0119277 -0.00972935 0)
(-0.0125248 -0.00925661 0)
(-0.012219 -0.0135854 0)
(-0.0116198 -0.0137887 0)
(-0.0119012 -0.0176784 0)
(-0.0112985 -0.0176292 0)
(-0.0115722 -0.0215163 0)
(-0.0109656 -0.0212325 0)
(-0.0112372 -0.0251714 0)
(0.00109953 -0.126238 0)
(0.000836174 -0.122131 0)
(-0.0106264 -0.0245883 0)
(-0.0108779 -0.0286184 0)
(-0.0138176 -0.180634 0)
(-0.00968054 -0.184196 0)
(-0.00961099 -0.185507 0)
(-0.0102744 -0.0276069 0)
(-0.0105011 -0.0316726 0)
(-0.0145105 -0.150453 0)
(-0.0147657 -0.146892 0)
(-0.0152516 -0.144691 0)
(-0.0150139 -0.143102 0)
(-0.0154647 -0.140665 0)
(-0.0152437 -0.139107 0)
(-0.015681 -0.136526 0)
(-0.0154581 -0.13495 0)
(-0.015918 -0.132039 0)
(0.000525233 -0.125685 0)
(0.000304846 -0.121459 0)
(0.00115167 -0.118555 0)
(-0.00990957 -0.0302637 0)
(-0.010128 -0.034338 0)
(-0.012466 -0.0175409 0)
(-0.0106905 -0.0359798 0)
(-0.0103103 -0.0385822 0)
(-0.00975445 -0.0366962 0)
(-0.00992792 -0.0408668 0)
(-0.00937885 -0.0387455 0)
(-0.00954314 -0.0428205 0)
(-0.0100636 -0.0450739 0)
(-0.00967237 -0.0469401 0)
(-0.00915588 -0.0444671 0)
(-0.0092793 -0.0485474 0)
(-0.00876529 -0.0458009 0)
(-0.00887428 -0.0498037 0)
(-0.00837352 -0.046847 0)
(-0.0084721 -0.0507068 0)
(-0.00891971 -0.0538068 0)
(-0.00852993 -0.0545703 0)
(-0.00807723 -0.051328 0)
(-0.00813642 -0.0550315 0)
(-0.00855074 -0.0583151 0)
(-0.00816548 -0.0586392 0)
(-0.00852711 -0.0612977 0)
(-0.00823678 -0.06269 0)
(-0.00776606 -0.0586486 0)
(-0.00774633 -0.0620848 0)
(-0.00813273 -0.0662393 0)
(-0.00768063 -0.0653284 0)
(-0.00731541 -0.0613582 0)
(-0.00725685 -0.0644179 0)
(-0.00759616 -0.0685298 0)
(-0.00716786 -0.0673285 0)
(-0.00747098 -0.0714335 0)
(-0.00704443 -0.0700052 0)
(-0.00676396 -0.0659251 0)
(-0.00731209 -0.0740923 0)
(-0.00689298 -0.0724833 0)
(-0.00712875 -0.0766026 0)
(-0.00670533 -0.0747049 0)
(-0.00691766 -0.0789191 0)
(-0.00649428 -0.0767726 0)
(-0.00668111 -0.080995 0)
(-0.0062693 -0.0786464 0)
(-0.00642037 -0.0827966 0)
(-0.00606577 -0.0745343 0)
(-0.00602125 -0.0802309 0)
(-0.00613949 -0.0843505 0)
(-0.00575814 -0.081592 0)
(-0.00584337 -0.0857251 0)
(-0.00546523 -0.0824735 0)
(-0.00552058 -0.0867412 0)
(-0.00514337 -0.0830121 0)
(-0.00517872 -0.0873671 0)
(-0.00509499 -0.0783501 0)
(-0.0156576 -0.130667 0)
(-0.0161179 -0.127365 0)
(-0.00857694 -0.184937 0)
(-0.00826005 -0.18607 0)
(-3.20916e-05 -0.124901 0)
(-0.000214264 -0.120533 0)
(0.00077045 -0.129791 0)
(-0.00734538 -0.0807318 0)
(-0.000566714 -0.123865 0)
(-0.000715279 -0.119386 0)
(-0.00108272 -0.12264 0)
(-0.00120056 -0.118076 0)
(-0.000843142 -0.114682 0)
(-0.00129926 -0.113261 0)
(-0.00167881 -0.11668 0)
(-0.0017565 -0.111774 0)
(-0.0142646 -0.148839 0)
(-0.0139628 -0.152623 0)
(-0.00481206 -0.0833827 0)
(-0.00622721 -0.0883992 0)
(-0.0122344 0.0143693 0)
(-0.0073258 -0.185481 0)
(-0.00687428 -0.186542 0)
(-0.00214104 -0.1152 0)
(-0.0158459 -0.126208 0)
(-0.0162889 -0.122683 0)
(-0.00137681 -0.108159 0)
(-0.00180944 -0.10665 0)
(-0.00790193 -0.187173 0)
(-0.00627386 -0.187484 0)
(-0.00537822 -0.186868 0)
(-0.0046185 -0.18774 0)
(-0.00555564 -0.18841 0)
(-0.00367721 -0.188521 0)
(-0.00288735 -0.187901 0)
(-0.00180051 -0.188587 0)
(-0.00258284 -0.189241 0)
(-0.00050337 -0.189167 0)
(0.000167134 -0.188539 0)
(0.0015513 -0.189072 0)
(0.000919918 -0.189752 0)
(0.00329865 -0.189517 0)
(0.00346459 -0.18883 0)
(0.00537851 -0.189195 0)
(-0.0114856 -0.184896 0)
(0.00528309 -0.189878 0)
(0.00737807 -0.189488 0)
(0.00728778 -0.188776 0)
(0.00928139 -0.188988 0)
(0.00904282 -0.18824 0)
(0.0109675 -0.18837 0)
(0.0113368 -0.189118 0)
(-0.00768384 -0.184359 0)
(-0.0137441 -0.150468 0)
(-0.0152087 -0.133637 0)
(-0.0133982 -0.153793 0)
(-0.0160235 -0.121579 0)
(-0.0164508 -0.117916 0)
(-0.016725 -0.11877 0)
(-0.0168706 -0.113879 0)
(-0.0171488 -0.114485 0)
(-0.0172805 -0.109488 0)
(-0.0175563 -0.109897 0)
(-0.0176743 -0.104823 0)
(-0.0179488 -0.104996 0)
(-0.0180519 -0.0999026 0)
(-0.0183253 -0.0998664 0)
(-0.0184143 -0.094762 0)
(-0.0186913 -0.0944545 0)
(-0.0187612 -0.0893425 0)
(-0.019039 -0.088595 0)
(-0.0190917 -0.0836248 0)
(-0.0193606 -0.0826308 0)
(-0.0194066 -0.0777246 0)
(-0.0196726 -0.0765398 0)
(-0.019713 -0.0715565 0)
(-0.0199768 -0.0702224 0)
(-0.0200064 -0.065401 0)
(-0.0202682 -0.0637614 0)
(-0.0202706 -0.0591766 0)
(-0.0205369 -0.0572036 0)
(-0.0205266 -0.0526193 0)
(-0.020792 -0.0505152 0)
(-0.0207842 -0.0460232 0)
(-0.0210388 -0.0437421 0)
(-0.0210222 -0.0394355 0)
(-0.0212694 -0.0370162 0)
(-0.0212461 -0.0327395 0)
(-0.0214874 -0.0302618 0)
(-0.0215106 -0.0344489 0)
(-0.0217221 -0.0276425 0)
(-0.0216943 -0.0234971 0)
(-0.0219231 -0.0207847 0)
(-0.0218904 -0.0167087 0)
(-0.0221161 -0.0138158 0)
(-0.0220785 -0.00984979 0)
(-0.0223028 -0.00674133 0)
(-0.0222548 -0.0029616 0)
(-0.0224815 0.000362554 0)
(-0.0224172 0.00394131 0)
(-0.0226434 0.00741204 0)
(-0.011237 -0.00273277 0)
(-0.0225688 0.0108132 0)
(-0.022789 0.0142916 0)
(-0.0228603 0.0111814 0)
(-0.0229989 0.0178742 0)
(-0.0229255 0.0210965 0)
(-0.0231279 0.0246458 0)
(-0.00143286 -0.102723 0)
(-0.00182491 -0.101122 0)
(-0.0166088 -0.112948 0)
(-0.0221345 -0.0180458 0)
(-0.0230501 0.0278663 0)
(-0.0232462 0.031472 0)
(-0.010321 -0.02103 0)
(-0.0188329 -0.0844857 0)
(-0.0203985 -0.115398 0)
(-0.0231897 0.0215009 0)
(-0.0231625 0.0346048 0)
(-0.0233613 0.038304 0)
(-0.000951046 -0.126946 0)
(-0.0202383 -0.0687143 0)
(-0.0132077 -0.151768 0)
(-0.0128264 -0.155117 0)
(-0.023263 0.0412998 0)
(-0.023467 0.0450838 0)
(-0.0235677 0.0418377 0)
(-0.0236608 0.0488975 0)
(-0.0235533 0.0517342 0)
(-0.0237524 0.0556176 0)
(-0.0236254 0.0582318 0)
(-0.0238238 0.0622969 0)
(-0.0236801 0.0646193 0)
(-0.0238749 0.0687779 0)
(-0.0238654 0.0523228 0)
(-0.023717 0.0709021 0)
(-0.0239077 0.0750415 0)
(-0.0240654 0.072981 0)
(-0.0240932 0.0791511 0)
(-0.0239239 0.0810994 0)
(-0.0241042 0.0851436 0)
(-0.0239207 0.0869943 0)
(-0.0240994 0.0911277 0)
(-0.023896 0.0927571 0)
(-0.0240686 0.0970041 0)
(-0.0238483 0.0983168 0)
(-0.0240095 0.10262 0)
(-0.023776 0.10365 0)
(-0.00823562 -0.0429894 0)
(-0.0207338 -0.0987445 0)
(-0.0177907 -0.0996529 0)
(-0.00147295 -0.0969669 0)
(-0.00183238 -0.0953315 0)
(-0.0218546 -0.012548 0)
(-0.0179065 -0.0372899 0)
(-0.00661021 -0.139295 0)
(-0.00597267 -0.140342 0)
(-0.00623978 -0.13711 0)
(-0.024305 0.095609 0)
(-0.0123879 0.0332749 0)
(-0.0237281 0.0885935 0)
(-0.0195504 -0.00178818 0)
(-0.0210073 0.0755242 0)
(-0.0206236 0.0377117 0)
(-0.0197502 -0.0662172 0)
(-0.0205231 -0.047888 0)
(-0.011682 -0.112924 0)
(-0.0101713 -0.0491184 0)
(-0.006876 -0.154713 0)
(-0.0126561 -0.152837 0)
(-0.012229 -0.15608 0)
(-0.0242493 0.0770957 0)
(-0.00220031 -0.0993544 0)
(-0.00217085 -0.0935223 0)
(-0.0193224 -0.0872689 0)
(-0.00562364 -0.137953 0)
(-0.00588704 -0.134713 0)
(-0.0010962 -0.0984736 0)
(-0.00115515 -0.092406 0)
(-0.000793911 -0.0938039 0)
(-0.0121063 -0.153584 0)
(-0.0125339 -0.150463 0)
(-0.0230546 0.0375236 0)
(-0.0223414 0.00737239 0)
(-0.0116419 -0.156601 0)
(-0.0117315 -0.159205 0)
(-0.0182262 -0.105057 0)
(-0.0008663 -0.0873751 0)
(-0.000518271 -0.0886808 0)
(-0.0130261 -0.110749 0)
(0.00412312 -0.160118 0)
(0.00384602 -0.157912 0)
(0.00330748 -0.159436 0)
(0.00307746 -0.157166 0)
(0.00249132 -0.158638 0)
(0.00231345 -0.156256 0)
(0.00169621 -0.157714 0)
(0.00157429 -0.155171 0)
(0.00217537 -0.153686 0)
(-0.0115487 -0.154128 0)
(-0.0258489 0.0836193 0)
(-0.00254743 -0.0973733 0)
(-0.00248601 -0.0915669 0)
(-0.0235219 0.0667565 0)
(-0.00530129 -0.135353 0)
(-0.00555766 -0.132104 0)
(-0.00501008 -0.138486 0)
(-0.016161 -0.134019 0)
(-0.0272614 0.129138 0)
(-0.0271934 0.127068 0)
(-0.0271864 0.12563 0)
(-0.0271229 0.123612 0)
(-0.0271109 0.122146 0)
(-0.0270494 0.120149 0)
(-0.0270332 0.118624 0)
(-0.0269724 0.11662 0)
(-0.0269521 0.115015 0)
(-0.0268935 0.113055 0)
(-0.0269103 0.114608 0)
(-0.0268331 0.11106 0)
(-0.0268149 0.109545 0)
(-0.0267557 0.107551 0)
(-0.0267363 0.106073 0)
(-0.0266776 0.104053 0)
(-0.026657 0.102598 0)
(-0.026599 0.100571 0)
(-0.026577 0.0991201 0)
(-0.0265199 0.0970983 0)
(-0.026496 0.0956267 0)
(-0.02644 0.0936237 0)
(-0.0264145 0.0921318 0)
(-0.0263594 0.0901384 0)
(-0.0263834 0.091638 0)
(-0.0263031 0.0881347 0)
(-0.0262773 0.0866102 0)
(-0.0262219 0.0846135 0)
(-0.0261956 0.083109 0)
(-0.0261407 0.0811111 0)
(-0.0261144 0.0796471 0)
(-0.0260588 0.0775973 0)
(-0.0260836 0.0790633 0)
(-0.0260009 0.0754921 0)
(-0.0259748 0.0740109 0)
(-0.0259177 0.0719132 0)
(-0.025891 0.0704407 0)
(-0.0258353 0.0683816 0)
(-0.0258081 0.0669215 0)
(-0.0257528 0.0648609 0)
(-0.0257251 0.0634101 0)
(-0.0256698 0.0613345 0)
(-0.0256415 0.0598796 0)
(-0.0255858 0.0577745 0)
(-0.0256136 0.0592558 0)
(-0.0255294 0.0556698 0)
(-0.0254999 0.0541404 0)
(-0.0254454 0.0521075 0)
(-0.0254155 0.0505967 0)
(-0.0253626 0.0486016 0)
(-0.0253343 0.047179 0)
(-0.0252796 0.0450923 0)
(-0.0252509 0.0436633 0)
(-0.0251962 0.0415755 0)
(-0.0251652 0.0400745 0)
(-0.0251121 0.0380375 0)
(-0.0251412 0.0395083 0)
(-0.0250568 0.0359409 0)
(-0.0250278 0.0344958 0)
(-0.0249723 0.0323783 0)
(-0.0249434 0.0309564 0)
(-0.0248899 0.0289034 0)
(-0.0248598 0.0274624 0)
(-0.0248085 0.0254908 0)
(-0.0249104 0.0299998 0)
(-0.0247779 0.0240368 0)
(-0.0247267 0.0220667 0)
(-0.0246952 0.0205696 0)
(-0.0246429 0.0185581 0)
(-0.0246131 0.0171426 0)
(-0.0245598 0.015085 0)
(-0.0245897 0.0165355 0)
(-0.024505 0.0129883 0)
(-0.0244818 0.0118312 0)
(-0.0244258 0.00967482 0)
(-0.0244479 0.0108252 0)
(-0.0243644 0.00731793 0)