/*--------------------------------*- C++ -*----------------------------------*\
| =========                 |                                                 |
| \\      /  F ield         | OpenFOAM: The Open Source CFD Toolbox           |
|  \\    /   O peration     | Version:  v2012                                 |
|   \\  /    A nd           | Website:  www.openfoam.com                      |
|    \\/     M anipulation  |                                                 |
\*---------------------------------------------------------------------------*/
FoamFile
{
    version     2.0;
    format      ascii;
    class       surfaceScalarField;
    location    "900";
    object      meshPhi;
}
// * * * * * * * * * * * * * * * * * * * * * * * * * * * * * * * * * * * * * //

dimensions      [0 3 -1 0 0 0 0];
oriented        oriented;


internalField   nonuniform List<scalar> 
20642
(
-0.00154629
-0.000495228
0.0020419
0.00449548
-0.00813622
0.00361209
0.00134709
0.00115533
-0.00251454
0.00140294
-0.00423205
0.0027593
0.00617408
-0.00932438
0.00310752
0.00835936
-0.0038988
-0.00125343
0.00405922
-0.00285609
0.0101626
-0.00592775
-0.00425571
0.00196847
0.000455083
-0.00245867
0.00191862
0.000133047
0.00461743
0.00551843
0.00514807
-0.0051928
-4.86652e-05
-0.000208518
-4.17875e-05
0.00592789
-0.00910536
0.00316153
0.00635934
-0.00897763
0.00256823
6.27725e-05
-0.00160937
-0.000197278
-0.000143654
0.000228249
-0.00997334
0.00459834
0.00534802
0.00367175
-0.00227206
-0.0014196
-0.00213532
0.000978855
0.0011567
0.00685285
-0.00408925
-0.0027987
0.000818584
0.00547503
-0.00638463
0.00119342
0.00199836
-0.00321527
-0.00612456
0.00684225
0.00602632
-0.0026419
-0.0034439
-0.00736034
0.00325213
0.00407427
-0.0066904
0.00388515
0.00279582
0.00174562
-0.00886151
0.00353252
0.00529795
-1.03552e-05
-0.000141997
0.000147727
0.00171338
3.3497e-05
0.00361817
-0.000950567
-0.00268899
-0.00551284
0.0030036
0.00243681
-0.00192927
0.000759603
0.00116805
-0.000200502
0.00532444
-0.00521255
0.000533155
-0.00648069
0.00520545
0.0012897
-0.00655935
0.000166749
-0.00069617
0.000179755
-0.0037451
0.00244847
0.00385106
-0.00651427
0.00262859
2.55366e-06
5.02755e-05
-0.000123277
0.00306855
-0.00463919
0.00152025
-0.00260056
-0.000406881
0.00297864
0.00101729
0.00151701
-0.00254817
0.00300057
-0.00200324
-0.00145263
0.00350923
-0.00206201
0.00561212
0.0011946
-0.00282801
0.00189268
0.000940509
-0.00422429
-0.00369413
0.00791094
0.00412524
-0.0043968
-0.000208789
0.00526982
0.00170149
-0.00421244
0.00249518
-0.00116584
0.00157986
-0.000414015
-0.00536901
0.00701998
-0.00176025
-0.00734649
0.0048904
0.00234803
0.00364016
-0.00195065
0.00152269
-0.00225195
0.00341707
0.00474047
-0.0017239
-0.00404706
0.00258763
0.00457248
-0.00254456
-0.00202346
-0.00263709
-0.00381425
0.00641457
2.01687e-05
1.15317e-06
-3.04612e-05
0.00274693
0.00321498
0.00211746
-5.52239e-05
-0.00206895
-0.000277185
0.000180744
9.46693e-05
0.00394887
-0.00870762
0.00473071
0.00603257
-0.00551846
-0.00537981
0.00177417
-0.00124806
-0.000526298
0.000955634
0.00139187
-0.00235692
-0.00157063
-0.000359916
0.00409232
-0.00263558
-0.001547
0.00351557
0.00116125
-0.00703605
0.00291142
0.00782177
-0.003539
-0.00435442
0.0054112
-0.0085818
0.00312737
0.0047652
-0.00131283
0.00355235
0.00418275
-0.00395942
-0.00160989
-0.00485396
-0.00321147
0.00797113
-0.000207468
-0.000219338
0.000275634
0.00147446
0.00253838
-0.00265604
0.00128996
0.00135755
0.00310342
-0.00243758
-0.000930797
0.00912068
-0.00371284
-0.00542798
0.00231234
0.00127758
-0.000624776
-0.00093106
0.00123514
0.00618207
-0.00236814
0.000117443
-0.000412469
0.000140821
0.000420488
-0.000658068
-0.00257201
0.00500831
-0.00924225
0.000710222
-0.00546171
0.00465911
0.00199078
0.00508138
-0.00716163
-0.00494071
-0.00865156
0.00477431
0.00386195
-0.000387217
-0.00024265
0.000407285
-0.00160778
0.000731942
-0.00420096
0.00721002
-0.00302828
-6.34488e-05
-4.57684e-05
7.34385e-05
1.80462e-05
-0.000107299
-0.00755379
0.00262328
-0.00086237
-7.83171e-05
0.000743501
0.00914301
-0.0037912
0.00184035
-0.000169814
-0.00167398
0.00155466
0.000633167
-0.00218652
0.00479412
-0.00747429
-0.00142415
-0.00326407
-0.00325237
-0.00344609
-2.84356e-05
-0.000636334
0.00212561
-0.00136856
0.00838879
-0.00488446
-0.000308736
0.00241789
-0.00122952
-0.0037436
0.00491974
0.00170068
0.0019505
0.000340169
-0.000414445
-4.59008e-06
-0.002034
-0.000884721
0.00290399
0.000619256
-0.00219982
0.00153904
-0.00057033
0.00021779
-0.00470325
0.00173442
0.0029014
-0.00366767
-0.00506596
-0.00173119
-0.00179689
0.00350923
-0.000816496
0.00163342
-0.000817832
-0.00135975
-0.00130213
-0.00533401
0.00239566
0.00288055
-0.00267517
-0.00439443
-0.0052302
-0.0015271
0.00664397
0.00160331
-0.00335068
0.00351102
-0.00150849
-0.00203655
-0.00198437
0.00435206
-0.0023749
0.00180967
-0.000909074
-0.000901256
-0.00540288
0.00411397
0.00337235
-0.0013248
-0.00207131
-0.00698596
0.00372382
-0.0044488
0.00243211
0.00201844
-0.000974243
-0.000346004
0.00131976
-0.00841953
0.00359067
0.00479301
-0.000202487
-0.00801036
0.00818778
-0.000182162
0.00167971
0.0030231
-0.000255408
0.00208988
-0.000836722
0.00538329
-0.00467239
0.00354948
-0.0023953
-0.00122864
-0.00390351
-0.00084346
0.00470822
0.00232588
-0.00137903
0.0090664
0.000344777
0.00143464
-0.00177425
0.00196648
-0.00745685
-0.00413529
0.00632199
-0.00222279
6.30411e-05
1.94352e-05
-0.000114793
0.00213516
0.00134042
-0.00326703
-0.00539614
0.0079168
-0.00612401
-0.00186186
0.000110838
-0.00115916
0.000878256
0.000649599
-0.00152913
-9.20987e-05
-0.000123714
0.000140574
2.33882e-05
0.000250567
0.00599507
-0.00426988
-0.0019347
0.000684324
0.00179165
-0.00247646
-0.00907823
0.00369401
0.00532597
0.000128488
-0.00172968
-0.00151953
0.00325295
-0.00721284
0.00388053
0.00331661
0.000181323
-0.00156883
0.00346112
-0.00188782
4.48318e-05
-4.47149e-05
-1.52699e-06
-0.00338928
-0.00506344
0.010794
-0.00666514
-0.00422605
0.000294492
0.00143319
-0.00173003
0.00301985
0.00481793
-0.00302558
-0.00179025
-0.00155369
0.00391129
-0.00237469
7.15395e-05
-0.000187332
6.89682e-05
-0.00262366
0.00396239
0.00228279
-0.00418724
0.00189164
0.00167456
0.00180414
-0.00471145
-0.00442127
-0.00234787
0.00331202
-0.00100601
0.00456469
0.00429327
-0.00457431
-0.00120333
0.00289817
-0.00170181
0.000575331
-0.00262326
0.00269291
-0.00468744
0.00520066
-0.000994635
-0.00361898
0.00240566
-0.000216333
0.00020127
0.00466183
0.00443661
0.00296404
-0.00454004
0.00128214
0.00170082
-0.0038714
0.00212626
0.0017323
-0.00104817
0.00202076
-0.000975286
-0.00375194
0.0043925
-0.000975
0.00166342
-0.000689253
0.00203672
-0.00515817
0.00307444
0.000850223
0.000957557
-0.00139898
0.00663691
0.0062008
0.00163807
-0.00335266
-0.00328307
0.00659248
-0.00159521
-0.000260516
0.00185524
0.000105634
-0.00108
0.00767767
-0.00527524
-0.00246537
-0.00451118
0.00564575
-0.00114076
-0.00514235
-0.00227487
0.00737932
0.00201273
-0.00308458
-0.00194248
0.00522832
-0.00853157
-0.00441841
0.00556588
-0.00129374
-0.00988671
0.00414358
0.00571122
-0.00680857
-0.00310596
0.00224172
0.00226684
0.0010874
-0.00379964
-0.000790933
-0.00155051
0.00233731
-0.000415447
0.000944331
-0.000877493
-0.000138052
-0.00174569
0.00182106
-0.00176321
0.00156566
0.00177708
-0.004133
0.00246225
0.00165747
0.00190733
-0.00388936
0.00197443
0.00165428
-0.00209259
0.000282011
-3.56399e-06
1.68496e-05
-0.00356763
-0.00342561
0.00060459
0.00247939
-0.00162385
-0.000922958
0.00145564
0.000950896
-8.57001e-05
3.48756e-05
-9.22663e-05
-0.00172926
-0.00182599
0.00167383
-0.00102942
-0.000542465
-0.0010343
-0.00152068
0.00255916
-0.00827776
0.00457041
0.00362773
5.63206e-05
-8.57034e-05
2.42986e-05
-0.00275115
-0.00203749
0.00476498
0.00101371
-0.00177774
0.000764451
-0.000315962
0.000111765
0.000125123
-0.000391607
0.00187302
0.00207686
-0.00659662
-0.00136331
-0.000445492
0.00180486
-0.00124453
0.001395
-0.00218907
0.00224542
0.00232089
-0.00458223
0.00393284
-0.00487896
0.00173301
0.0017323
0.00106623
-0.0038379
0.00341148
0.00494966
0.00383434
-0.00302742
-0.000832817
0.00503757
0.00257479
0.00121071
0.000802958
0.0012726
-0.0021175
0.00546856
-0.00432964
-0.00116124
-0.00494301
0.00337564
0.00154148
-0.00925669
0.00408477
0.00508131
-8.79992e-06
-0.00264434
-0.00731016
0.009542
-0.00228111
0.00411787
0.00153275
-0.00572002
0.00161489
-0.000836815
-0.000778522
-0.00771158
0.00184233
0.00586205
-0.00512445
0.00168788
0.00335968
-0.000262816
0.00164315
0.00199906
-0.00819246
-0.00172401
0.00138799
-0.00144305
-0.000536198
6.81432e-05
0.00451015
-0.00275705
-0.00178751
-0.0021663
-0.00302472
-0.00128291
0.000645186
-0.00101505
0.00257066
-0.00714184
0.00299736
0.0040088
0.00646672
-0.00954286
0.00302381
0.0020652
0.00223022
-0.00430078
0.000213574
-0.00154521
0.00128191
0.00203743
-0.00550444
0.00345156
0.000752818
0.00086163
0.00150004
-0.00133495
0.000709112
0.00106553
-0.00158682
0.00563448
0.0027614
-0.00207814
-6.80585e-05
8.98367e-05
-0.00569574
-0.00264308
0.00828614
-0.00595397
-0.0033708
-0.00552173
-0.00176376
0.00713583
-0.00262871
0.00306584
-0.000451898
-0.000567854
-0.000300968
0.000565447
-0.00390544
-0.00332147
0.00220733
-0.00519809
0.00295206
3.89149e-05
-0.00397686
-0.00283498
-0.00296971
0.00579418
-0.000726306
-0.000204123
-0.000180436
0.00214856
-0.00440991
0.00223326
-0.00814787
-0.000932671
0.00902591
0.00172242
-0.00576812
0.00398967
-0.00252753
0.0086556
0.00664793
-0.00316596
0.00151837
-0.00566695
0.00406613
-0.00127137
0.000395832
0.00218297
-0.00457636
0.00237918
0.00206565
-0.00751469
0.00542134
0.00326611
0.00217341
0.00229306
0.00428601
-0.00118285
0.00161808
-0.000592549
-0.0007061
0.00158399
-0.000309365
-0.00128708
-0.00482452
-0.00158392
0.00629514
0.000456596
-0.00157084
0.00109882
-0.00373244
-0.00672287
-0.00189935
0.00860252
0.00181035
-0.00232237
0.000501908
0.00237052
-2.28269e-05
-0.00234916
0.0014616
0.00335767
0.000130727
6.41466e-05
-0.000196509
0.000929088
0.00341185
0.00899915
-0.00258308
0.00253677
-0.00125571
-0.00828003
0.00153693
-0.00109338
0.00242929
-0.000343436
0.000108952
0.00807626
-0.00176465
0.00595458
-0.00160082
0.00729291
-0.00576837
-0.000712999
-0.00744978
0.00292718
-0.00166267
-0.000278322
-8.58637e-05
0.000248952
0.00146645
-0.00117384
0.0021938
-0.0018116
-0.000676692
0.000751757
-0.00252379
0.00038465
0.00131664
-0.00173767
-0.00175405
-0.000381832
-0.00266948
-0.000684321
0.00317437
-0.00520169
0.00207913
0.0030954
-0.00777478
0.00259658
-1.3346e-05
0.000142318
-0.000458772
5.8954e-05
-0.00212851
-0.00118848
0.0032954
-0.00133358
0.00215053
-0.000819592
0.00199526
-0.00637357
0.00428627
-0.00727278
0.0055966
0.00121752
0.000905432
-0.00154095
-0.000427535
0.0019684
-0.0009524
0.00289194
-0.00193897
0.00803957
-0.00212777
-0.000146805
0.00158698
-0.00806585
0.00453653
0.00344553
-0.00112944
-0.000557121
0.00168371
0.00389237
-0.00297304
-0.0018039
0.00159288
-0.0107361
0.0057808
-0.00395927
-0.00190571
0.00746016
-0.00473163
-0.00275437
-0.00196102
-0.00393856
0.0021796
0.00174289
-0.00546945
0.00284858
0.00260265
0.00540366
-0.00338564
0.00248539
-0.000335004
-0.00217146
0.000904969
-0.00208928
0.00118141
-0.00663409
0.00129197
-0.00452434
0.00642656
-0.0057327
-0.00361846
0.000656151
0.00194958
-0.00261818
-0.000166498
0.000161234
-8.46073e-05
-0.00154327
-0.000280566
0.00273669
-0.000611215
0.00241057
-0.00380261
-0.00364046
0.00231966
-0.00518412
0.0028501
-0.00116265
0.00160407
0.00307345
0.00542855
-0.00851119
-0.00147567
-0.0025791
0.00400896
-0.00171872
-0.00198576
-0.00534894
-0.00246098
-0.00377891
-0.00348468
0.00139426
0.00124743
-0.00265021
-0.00138026
-0.000420114
0.00176979
0.00175624
-0.00348264
-0.00142128
-0.00392863
0.00240731
0.00807342
0.000896967
-0.0067934
0.00582863
-0.00204134
0.00147621
0.000557515
-0.00439687
0.00165921
0.0026337
-0.000889337
0.00186794
-0.00190497
-0.000145744
0.00804401
-0.00505437
-0.00305153
-0.00679852
0.00322295
-0.00349974
-0.00259397
0.00607543
-0.00807547
0.0030749
0.00492741
0.00235378
-0.00394442
0.00159269
-0.00219583
0.0009246
0.00393876
-0.00691194
0.00289924
-0.00338926
0.000746633
-0.00472218
0.00773481
-0.00310368
0.00311684
-0.00663496
0.00275042
-0.0016086
0.000357739
-0.00135325
0.00357968
-0.0022681
0.00567204
-0.00343664
0.00670392
-0.00463596
-0.00223358
0.00467314
-0.00300342
-0.00187546
-0.0064349
0.000195979
0.00612402
0.00726927
-0.00340412
0.00130757
-0.00521021
0.00382823
0.00168606
0.0050378
-0.00682537
0.00570186
0.00221859
-0.00803151
-0.00272155
0.00489163
-0.00219647
0.000453988
-0.00731421
0.00683954
0.00022176
-0.00151998
0.00125662
4.72392e-06
3.43741e-05
-0.00103455
0.00283234
0.00532329
-0.00302063
0.000395677
-0.00604576
0.00319305
0.00476957
0.00182066
0.00185711
-0.00367797
-0.00434376
-0.00302043
0.00735559
-0.000210941
-6.88404e-05
-0.00301138
0.00072137
0.00121943
0.00130928
0.00328807
-0.00068453
-0.00265537
-0.00150055
-3.02383e-05
0.00148467
0.00711356
-0.00482537
-0.00232991
0.00268676
0.00177207
-0.00131948
-0.00426657
-0.00133544
0.00126613
0.000768476
0.00246958
0.00166106
0.00153668
-0.00319406
-0.00752287
0.00271375
0.00599631
-0.00329985
-0.00272491
0.00130902
-0.000663826
0.00383562
-0.00171427
0.000947509
-0.00550912
-0.00144742
0.0035035
0.00343756
-0.00108231
0.00444777
-0.00784868
0.000505191
-0.00132138
0.000281924
-0.00163728
0.00131675
0.000572258
-0.00269805
0.00201525
0.000443451
-0.00185508
0.000147488
-0.00203191
-0.00166027
0.0068016
0.00160983
-0.00727271
0.00559615
0.00407599
-0.00225576
-0.00336229
-0.000860887
0.00419237
-0.00162309
0.00280187
-0.0023522
0.00416734
-0.00137545
-0.00282565
-0.00325024
-0.000649755
0.00387132
0.00745194
-0.00230058
-0.00220131
0.00443079
0.00229918
-0.00325081
0.00416393
0.00153592
0.00279893
0.00378054
-0.00658653
0.00518917
-0.00538739
5.59834e-05
8.6607e-05
-0.00152818
0.00116619
-0.00200348
0.00760449
-0.00593758
0.00676573
0.00392322
0.00118151
-0.00525338
0.00075297
0.000304471
-0.00139271
-0.00161531
0.00154774
-0.000954953
0.0047322
0.00256479
-0.00541056
0.00266544
-0.00132698
-0.00135217
0.000398782
-0.000695679
0.000127122
0.00226714
-0.00399533
0.00170022
-0.00101618
0.00211488
-0.00327777
0.00306605
0.0002144
0.00186049
0.00126142
-0.00315577
-0.00171411
0.00223787
-0.00183688
-0.000409502
0.000566109
0.0016652
-0.00524444
0.000243554
-0.00409707
0.000818917
-0.00310777
-0.00392483
0.00219314
0.0017274
-0.000439034
0.000490709
0.00464313
0.00227107
-0.00446046
-0.00249867
-0.000912562
0.00337191
0.00604387
-0.00191718
-0.0041588
0.0031395
-0.00225654
-0.000896514
-0.00210838
0.00338052
-0.0012951
-0.00545164
0.00346618
0.00194571
-0.00310794
-0.0064813
0.00890681
-0.00433049
-0.00642348
0.00337834
0.0030198
0.00473525
-0.00350199
-0.00360603
-0.00550903
0.00439649
-0.00100183
-0.00342536
0.0050306
-0.00286216
-0.003485
0.00171571
0.00177232
0.00103634
-0.00370832
-0.00273925
-0.00231665
-0.00188191
0.00357573
-0.00233658
-0.00145157
0.000936557
0.000386814
-0.00132386
-0.00119453
0.00105244
-0.00164543
0.00173945
-0.00415925
0.00141431
0.00155665
-0.00131058
0.000638196
-0.00140392
-0.00241886
0.00458504
-0.00147853
0.000808078
0.00403121
-0.00661357
0.00257546
0.00372971
0.0020607
-0.0015907
0.00331574
-0.00177269
-0.00490641
0.00317572
0.00169545
-0.00187102
-0.00191894
0.0037863
-0.00215821
-0.00236901
0.00452289
0.00590956
-0.000862498
-0.00512912
0.00674014
-0.00486557
0.00322104
0.00145654
-0.00530037
0.00248785
0.00278852
-0.00208553
-0.00520254
0.00728129
0.00163899
0.00480934
-0.00654967
-0.000380988
0.000117377
-0.00227972
0.00840124
0.00452067
0.00203033
-0.00609779
-0.00170026
0.00776019
0.00210404
0.00216382
-0.00430255
-0.00013569
-0.00328112
0.00115177
0.00195533
0.00139634
0.00558533
-0.00915011
0.00345378
0.00393499
0.00167952
-0.00216809
0.000604328
0.00156122
0.00106391
-0.00135872
0.000187782
-0.00226375
-0.00137096
0.00358744
0.00569493
-0.00423028
0.00188848
0.00224214
-0.00388136
0.00186006
0.00199985
-0.00461863
0.00642471
-0.00182742
-0.00105107
0.00305061
0.00566249
-0.00437674
-0.00136146
0.00521102
0.00177969
-0.000930893
-0.00139936
0.00306474
0.000603134
0.000705576
-0.00445178
-0.0016237
0.005964
-0.00556508
-0.00210812
0.00757052
-0.00284666
-0.00263163
-0.0021716
0.00469124
-0.00262281
-0.00184707
0.0025336
-0.00069504
-7.85997e-07
-0.00159409
-0.00598135
-0.00252237
0.00850023
0.00487938
-0.00289214
-0.00215323
0.00114584
0.00100352
0.00168909
-0.00278003
0.00207189
-0.00187208
-0.000196667
0.00384738
-0.00495057
8.70829e-05
0.00167994
-0.00178172
0.000280104
-0.000882979
-0.0057421
0.00187367
0.00381411
-0.00084782
-0.00130755
0.000188391
0.00132688
0.00239886
-0.00196526
-0.000442538
-2.37966e-05
-2.21418e-05
3.01985e-05
-0.000126704
0.000351138
-0.00766893
0.00216515
0.000960889
-0.00742544
0.00129001
0.0011276
0.000455096
-0.00165114
-0.00301794
0.00135238
0.00164969
-0.00220927
0.00444879
0.00433223
0.00387001
0.00305132
-0.00073462
0.000458719
0.0011079
-0.00156789
-0.00217873
-0.00109727
-6.95244e-05
0.00103438
-4.08555e-05
0.00106354
-0.0010225
4.32098e-05
4.71238e-05
-0.00010783
-0.0013918
0.00382775
0.00367652
0.0053836
-0.00181969
-0.0039726
-0.000455109
0.00170439
-0.00126515
7.43024e-05
-8.20515e-05
0.00328256
0.00108287
0.00151139
0.00175147
-0.0013716
-0.000725368
0.000303894
0.000121416
-0.000512526
0.000131386
0.00130489
0.00173513
0.00405178
0.000415888
-0.00460403
-0.00326662
0.00147344
0.00177289
0.00666876
-0.0021287
-0.000476375
0.00153375
0.00011818
-0.00027949
0.00445492
-0.000954131
0.00321518
-0.00244009
-0.000777934
0.00145012
0.000625584
0.00160943
0.00219862
-0.00205388
0.00412355
0.00337607
-0.00259981
-0.000784695
0.00171887
-0.000704733
-0.00152131
-0.00297517
0.0024386
-0.00382715
0.00138596
0.000187091
-0.000300021
-0.00147913
0.00244137
-0.000972935
-0.00467125
0.00240355
0.002676
-0.00129113
0.00625058
-0.00188254
-0.00837455
0.0066364
0.000739065
-0.0031908
0.00756748
-0.00313202
-0.00132901
0.00442808
0.00103984
0.00109944
-0.0021442
-0.00023039
0.000426546
-0.000305354
0.00232159
0.00215327
-0.00776089
0.00462424
0.00305649
-1.22637e-06
5.08753e-05
0.00198062
-0.00107913
0.0033303
0.00353823
-0.0068849
0.00680372
-0.00442984
-0.00243628
-0.00181373
-0.0021403
-0.00170055
-0.00173257
-0.0036777
0.00535715
5.39718e-05
-1.78398e-05
0.000835334
0.00114175
0.00595106
-0.00206565
-0.00829304
-0.00130364
0.00126096
0.00330108
0.0034428
-0.00166425
0.0023098
-8.78297e-05
7.62924e-05
-0.00185043
0.00347334
-0.00163918
-0.000187299
-0.000262839
0.000289966
0.000694089
0.0025133
-0.00340782
-0.00393303
-0.000979613
-0.00165577
-0.000761063
0.0011548
-0.000393781
0.00213458
0.00025615
-0.00620113
-0.00210358
0.00828344
0.00123741
-0.00356269
-0.00123259
0.00492782
-0.00371987
-0.0052994
-0.000652019
-0.0015187
0.00199217
-0.00184507
-0.000152538
0.0025284
0.00454199
0.00553652
-0.00429821
-0.00275025
-0.00566819
-0.000532142
0.000212842
0.000111651
-0.00567416
0.00546075
-8.94299e-05
-0.00010803
-0.00402113
0.00222834
0.00177128
0.00374344
-0.00562687
0.00183662
-0.00180575
-0.00167542
-0.00434703
0.00117805
0.00179511
0.005958
-0.0077704
0.00223292
-0.00439496
-0.00541318
0.00745285
-0.00491117
0.00206141
0.00281984
0.0038818
-0.00176947
-0.00106742
-0.00402091
0.00258496
0.00428657
-0.00690388
-0.000107721
1.82862e-05
0.00310938
-0.00260858
-0.000194727
-0.000481656
0.000103583
-0.000300662
-0.00162588
-0.00331327
0.000803287
0.00010236
-0.00122684
0.000910278
-0.000950881
-0.00218521
0.00310151
-0.000947567
0.000305904
0.000871797
-0.00141324
0.00118232
0.00172661
-0.00055244
0.000237242
0.000540413
0.00182925
-0.00557266
0.00391556
-0.00643736
0.00480189
-0.000756647
-0.000722902
0.00177584
-0.00354086
0.00174589
0.00273705
0.000913375
-0.0024496
0.00348746
-0.00110144
0.000466118
-0.0016377
0.001149
0.00166131
0.00448453
-0.00624717
0.00234469
-0.00311475
0.000730751
0.00223176
-0.0028487
0.000595016
-0.00497948
-0.00185263
0.00669782
0.00144326
-0.000988782
-0.00045453
0.00558662
-0.00134737
-0.00427679
-0.00564749
-0.00201191
0.00765382
-0.000872329
0.003607
0.0067107
-0.00415659
0.00131344
-0.000855692
-0.00341293
0.00177701
7.11906e-05
-0.000681713
0.000430686
-0.00453039
0.00158507
-0.000832622
-0.00277252
-0.00148935
-0.00371183
-0.0010163
0.00152167
0.00260551
-0.00855735
0.00594746
0.000873497
-0.00372992
-0.00641081
0.00147363
0.00529808
-0.00702286
-0.00176117
0.000964881
-0.00364119
0.00266966
-0.00411476
0.00353078
-0.00123665
0.00114941
-0.00345605
-0.00188703
0.00230617
0.00663532
-0.00161901
0.00378169
0.000468502
-0.00268312
-0.0020548
0.00704713
-0.000746902
-0.00325652
0.00050084
-0.000605688
-0.00163259
0.00382896
0.00638649
-0.00122934
0.00183328
-0.00616886
0.00427897
-0.00588527
0.00379848
0.00204716
-0.00121188
0.00152741
-0.00031503
0.000218235
-0.000333012
0.000110066
-0.0059229
0.00852514
0.000356353
0.00511871
-0.00847346
0.00560302
0.00283231
-0.00457354
0.00295102
0.00158295
0.00196731
1.8556e-05
0.000216472
-0.000581088
-0.00263391
0.00151416
0.00109989
0.000855795
0.00235599
0.000163154
-0.000121618
-4.22067e-05
0.00475248
-0.00268566
-0.00217255
-0.00398645
-0.00019858
0.000680414
0.00452057
-0.00288854
-0.00174222
0.000793953
-0.00321634
0.0023535
-0.00280755
0.00766015
-0.00488468
-0.00404354
0.00373298
0.000713016
-0.00348455
-0.00343448
-0.00116443
0.00445749
0.00209297
-0.00108823
-0.00100967
0.00220438
-0.00178143
2.88379e-05
-0.00255765
0.00205322
-0.00307987
-0.00506638
0.00183742
-0.00176582
0.00713447
-0.00237007
0.00124504
-0.00150427
0.00017108
-0.00175479
0.00351
-0.00237576
-0.00227495
0.00463373
-0.00211651
0.00255728
0.00101742
0.00359246
-0.00470592
0.00391299
0.00150385
-0.00451492
0.00454145
-0.00150918
0.00541319
-0.00249022
0.00151925
0.00409513
-0.00568007
-0.0021299
0.00285409
0.00149132
-0.00660127
0.00145871
0.00419375
-0.00578048
0.00361635
1.16845e-05
0.00321475
-0.00559918
-0.00188698
0.0074557
-0.00674697
0.00239417
0.0039556
0.00347491
-0.000961026
0.00241303
-0.0016687
-0.00101026
-0.00761348
-0.00304032
0.00159
0.0014408
0.003845
-0.00571624
0.00116351
-0.00672232
0.00552294
0.000275966
-0.000315237
-0.000306254
-0.000339314
0.000522689
0.00265347
0.00133576
-0.00405796
0.00206062
0.004239
-0.00635268
-0.0063194
0.00168058
-0.00350788
0.0044309
-0.00043795
0.0015575
-0.00112891
-0.00603568
0.0079175
-0.00196066
-0.0029186
0.00659102
-0.00475565
-0.00120166
0.00302928
-0.00128553
-0.000159319
-0.00288723
0.00233106
-0.00130624
-0.00181937
0.00312521
-0.00753629
0.00190697
-6.1553e-05
0.000244203
-0.00184194
0.00181814
-0.00352332
0.0052521
-0.00178078
0.000826524
-0.00304565
0.00155544
-0.0053011
0.00793302
-0.00265572
-0.0089757
0.00612638
0.00279164
-0.00169911
-0.0039152
0.00550914
0.00212316
0.0025257
0.00180815
-0.000336797
-0.00147361
-0.00221326
-0.00207068
0.00424276
-0.00786398
0.00164051
0.00387193
-0.00690132
0.00259109
0.00181439
-0.00272097
0.000579716
-7.02853e-06
6.0615e-05
-0.00470017
-0.00180282
0.0064653
0.00219037
-0.00734029
0.00514183
-4.0191e-05
-4.85106e-05
0.00327461
-0.00185861
0.0036011
-0.00178895
-0.00777274
0.00245056
-0.00172477
0.0034061
0.00878011
-0.00648706
-0.00231209
0.00257167
0.000385935
-0.00304939
0.000653973
-0.00011954
-0.00065907
-0.00300176
-0.00248506
-0.00480958
-0.0049462
-0.00186551
0.00671019
-0.00652071
0.00420718
0.00223944
-0.00538925
-0.00205563
0.00734357
-0.00243626
0.0003667
0.00213183
0.00784237
-0.00369655
-0.00416301
0.00478955
-0.00692899
-0.00148753
0.00170864
-0.00022239
0.000854087
0.0018804
0.00591435
-0.0078127
-0.00157798
-0.00350495
0.0062981
-0.00142497
-0.0086748
0.00675514
-0.00310808
-0.000430198
0.00335045
-0.00165195
-0.00344706
0.00504723
0.00533528
-0.00292354
-0.00251451
0.00533716
-0.00358014
-0.00181549
-0.00132073
-0.0038811
0.00153093
0.00357998
-0.00523844
0.00561523
-0.00517682
-0.00680791
-0.00251028
0.00135221
0.00114966
0.00322913
0.00211117
0.00267774
-0.00120723
-0.00149785
-0.00273603
0.00513649
-0.00241717
0.00167122
0.00415456
-0.00592678
-0.00210465
-0.00444002
0.000696271
-0.00426585
-0.00207794
0.00624408
-0.00421778
0.00464477
-0.00174315
-0.00294334
-0.00174577
0.00129491
0.00144645
-0.000870084
-0.00250921
-0.00153226
0.00036887
-0.00133327
0.000954833
-0.00616263
0.00447035
-0.00165933
0.00117674
0.000954847
0.00625132
0.00210631
-0.00822131
0.00347555
-0.00319769
-0.0004551
0.00346863
0.00663317
0.00411892
0.00197996
0.00261042
-0.000891692
-0.00172264
0.00297905
-0.00860401
0.00557155
-0.00679674
0.00425677
0.00240975
-0.000967069
0.00230285
-0.00614354
-0.00407926
0.000690528
0.00263663
-0.00148975
0.00488709
-0.00795561
0.00300497
-0.00298047
0.00119059
0.00338112
-0.00470787
0.00358683
-0.00165517
0.000402772
0.0012264
-0.00603059
0.00805959
-0.000879967
-0.00121335
2.44187e-06
0.000528735
-0.00275474
-0.00153618
0.00298317
-0.00182039
0.00115921
-0.000461571
-0.00121567
0.00197346
0.00643297
-0.00842278
-0.00187688
-0.00117292
-0.00177585
-0.00292648
0.00465291
-0.00937092
0.00682885
0.0024744
-0.00759855
-0.00129932
0.0020638
-0.00112503
-0.00101591
-0.00116547
-0.0018682
0.00194404
0.00228355
-0.00429799
-0.000583504
0.00151935
0.00500877
-0.00769899
0.0026209
-0.00524587
0.00261964
-0.00484091
-0.00105764
0.0013512
-0.000325681
-0.000841958
-0.00107265
0.000834276
-0.000440074
-5.13281e-05
0.000264527
0.000874601
0.00090354
0.00714656
-0.00263143
-0.00458697
0.000819126
-0.00396498
0.00296386
0.00660309
0.00204649
-0.00866494
-0.00440274
-0.00517001
0.00346405
-0.00167448
-0.00255471
0.00642455
-0.00216313
0.00281514
0.00315149
-0.00118078
0.00242401
-0.00125645
-0.00334933
-0.00271498
0.00381761
0.00142586
-0.000728104
-0.000698177
0.00253526
-0.00730514
0.00468985
-0.00170093
-0.00272767
-0.000832766
0.00345671
0.000720769
-0.00133067
0.000609885
0.000767536
0.00256231
-0.0031743
0.000565901
0.001696
-0.00131934
0.00599561
-0.0043868
-0.00166475
0.000429938
0.00123887
-0.00137372
0.00325564
-0.00193806
-0.00151607
-0.00307174
0.00452255
-0.00454456
0.00257787
0.00186062
-0.00226449
0.00443329
-0.00220382
-0.000164011
0.00132282
0.00440523
0.00266869
0.00306837
-0.00147595
-0.00161314
0.00359375
-0.00175975
-0.00182945
0.00166045
-0.00296672
0.00107458
0.00188926
-0.00578664
0.000860665
-0.00171281
-0.00125479
-0.00446916
0.00555921
0.0030227
-0.00144317
0.00508978
-0.00718276
0.000360704
0.00256003
-0.000810459
-0.00179821
-0.00375197
0.00125151
-0.000812548
-0.000696013
-0.00468277
-0.00254774
0.00713184
0.00189407
0.000618532
-0.00142953
0.0018427
-0.00323561
0.00502461
-0.00194399
-0.00213569
-0.00280272
0.00378627
-0.00314986
0.000998445
0.000770185
-0.0017663
-0.00169308
-0.00398083
-0.00142821
0.00525006
0.00142734
0.000378261
0.000516362
-0.00333663
-0.00489517
0.00500268
0.0064947
-0.00173787
0.00203534
-0.0012046
-0.00574777
0.00201683
0.000189593
-6.60715e-05
-0.000178174
0.00368765
-0.00472454
0.00602723
-0.00140471
-0.00169666
0.00208016
-0.00108187
-0.00100294
-0.00523264
0.00696245
-0.00344861
-0.00352385
-0.00416675
0.00135268
-0.00401366
-0.00377936
0.00598127
-0.00200292
-0.00233017
0.00427836
-0.00615815
0.00284283
0.00643949
0.00231802
0.00417729
0.00143551
0.000760517
0.000958623
0.00625327
0.000214252
-0.00650152
-0.000226532
-0.000708571
-0.00360531
-0.00581809
0.00107067
0.000819692
-0.00194493
0.00495066
-0.00260481
0.00179752
0.000792932
-0.00266592
0.000936628
-0.00116042
0.00486217
0.000793768
0.000791306
-0.00103326
0.0020342
0.00862814
-0.00221125
-0.000775812
-0.00184456
-0.00291657
0.0045388
-0.0014412
0.000688109
0.000753383
-0.00224514
0.00392645
0.00239373
-0.00408341
0.00169021
-0.00195031
-0.00306217
0.00167328
-0.00199031
-0.00269185
0.00462427
0.000267953
0.00377228
-0.00404289
-0.00184891
0.00105264
0.00079322
0.000385206
-0.00165435
0.00124931
0.00783174
0.000263839
-0.0013436
-0.00326775
0.00468369
-0.00176806
-0.00233713
0.00704135
0.00395365
-0.00207728
-0.00270532
0.00480302
-0.00210624
0.00159829
-0.0012034
-0.000395711
-0.00430378
-0.00152107
0.00105751
-0.00176211
1.85987e-05
-5.67222e-05
-0.00197705
0.000280373
0.0016508
0.00263897
0.00115168
0.00130427
-0.00245684
0.003879
0.00140092
6.4282e-05
-3.86781e-05
0.00319972
0.000826385
-0.00216492
0.00355647
-0.00147096
-0.00489844
0.00489893
-0.00773916
0.00797491
-0.00581063
-0.00220797
0.00306203
0.00216184
0.00788415
-0.00131347
0.00167913
0.00306013
-0.00390312
0.000821567
0.00727315
0.00680912
-0.000587948
0.000821061
-0.00152126
0.000700658
0.000960048
-0.00346869
0.00521752
-0.0020626
0.00160563
5.99638e-05
-0.00167847
0.000804096
0.00176547
-0.00029956
-0.00163342
0.00228452
-0.00715223
-0.00177809
0.00274645
-0.00101089
-0.000350726
-0.00385719
0.00116887
-0.00165311
0.0016183
-0.00213511
-0.00378496
0.00164351
-0.00776847
0.00605031
-0.00355082
0.00231718
0.00120797
0.00133976
-0.00609322
1.7802e-06
0.000159494
-0.00266797
0.00384156
-0.00119586
0.00130956
0.00134355
0.0025692
-0.0010733
0.00190301
-0.00382824
0.00191926
0.00373903
-0.00278054
0.00205018
0.0020245
0.00110851
-0.00178986
0.000681025
0.000158105
-0.000716874
-0.00199301
-0.00146242
-0.000555233
0.00473941
-0.00227234
0.00215407
-0.00421163
-0.0020454
-0.00529934
0.0040949
-0.00150874
-0.00262855
-0.00371391
0.00553847
-0.00192759
-0.00286535
0.00474875
-0.00553407
-0.0043751
0.00738099
-0.00215737
-0.00178407
-0.00230806
0.00454747
-0.00227572
-0.00460393
0.00221134
0.00141918
0.00209169
-0.00351038
-0.000590117
0.00227724
-0.00130761
-0.000981983
-0.00378672
0.0025306
-0.00731059
0.00615738
-0.00678082
0.000587337
-0.00049732
0.00353508
0.000345979
0.00105222
-0.00142867
-0.00309884
-0.00115332
0.00411324
0.00214433
-0.000565668
-0.00128672
0.00130297
0.00290381
-0.00438539
-0.00705206
0.00435266
-0.00158466
-0.00470621
-0.00573898
0.00364995
0.00200652
-0.00224673
0.00507862
-0.000451665
0.00193144
-0.00149591
-0.00569723
-0.0061162
0.00155376
0.00312127
0.00470083
0.00167762
-8.33527e-05
0.00287448
0.00544973
0.000764696
0.000660444
0.00431378
-0.0027187
-0.00166494
-0.00278255
0.00132672
0.00136832
-0.00405847
0.00662806
-0.0041176
-0.00281479
-0.00430354
-0.000784105
0.00189171
-0.000619911
-0.00316705
0.0075933
-0.00445712
-0.00258936
-0.00220526
0.00477226
-0.0030063
0.00691523
-0.00395287