/*--------------------------------*- C++ -*----------------------------------*\
| =========                 |                                                 |
| \\      /  F ield         | OpenFOAM: The Open Source CFD Toolbox           |
|  \\    /   O peration     | Version:  v2012                                 |
|   \\  /    A nd           | Website:  www.openfoam.com                      |
|    \\/     M anipulation  |                                                 |
\*---------------------------------------------------------------------------*/
FoamFile
{
    version     2.0;
    format      ascii;
    class       surfaceScalarField;
    location    "900";
    object      phi;
}
// * * * * * * * * * * * * * * * * * * * * * * * * * * * * * * * * * * * * * //

dimensions      [0 3 -1 0 0 0 0];
oriented        oriented;


internalField   nonuniform List<scalar> 
20642
(
-0.0309103
0.0386629
-0.00775335
0.274223
-0.0445754
-0.229623
-0.108913
0.0880036
0.0209222
-0.354046
0.148997
0.205117
0.364928
0.0319138
-0.396801
-0.0559388
0.330193
-0.221302
0.0133077
0.208045
-0.0346324
0.23845
-0.203802
-0.253294
0.223233
0.0300951
0.00351174
0.00116267
-0.25175
0.217139
0.217985
0.142982
-0.360868
0.597733
-0.59745
0.257458
0.00830366
-0.265749
0.276067
0.053156
-0.329175
-0.0376644
0.00675467
0.588768
-0.593524
0.00485076
0.0807663
-0.276958
0.196213
-0.0407454
-0.0734106
0.114181
-0.00311771
0.0407389
-0.0376215
-0.0977539
-0.177565
0.275352
0.622039
-0.373289
-0.248655
0.19737
-0.150167
-0.0471762
0.34397
0.278173
-0.0645663
-0.179247
0.243876
0.0834355
-0.265417
0.182013
0.0427478
-0.209532
0.166791
0.00350985
0.116102
-0.287171
0.171096
-0.672346
0.385177
0.287173
0.00303538
0.000473255
0.010897
-0.102601
0.0917282
0.0551737
0.246591
-0.301692
0.000286036
0.0404423
-0.040727
-0.667607
0.490192
0.177499
0.359426
-0.120961
0.251024
-0.359223
0.108268
0.616293
-0.0993801
-0.516548
-0.0142445
-0.207016
0.218646
0.0110324
-0.229645
-0.768925
0.601761
0.167214
0.419637
0.151278
-0.570868
-0.130432
0.254252
-0.123797
0.121106
-0.112661
-0.00842881
0.00604214
0.115088
0.182044
-0.0875261
-0.0945118
0.208463
-0.306172
0.000795989
-0.0432397
0.0424396
0.368174
-0.260486
-0.107682
-0.409297
-0.258244
0.346082
-0.128005
-0.155743
0.0567641
0.0989964
0.0202544
-0.00122437
-0.0190301
-0.297968
-0.101888
0.399972
0.026351
0.348368
-0.374603
-0.0904501
-0.0652795
0.00303059
0.171805
0.0255965
-0.166789
0.586478
0.0673793
0.114673
-0.0442637
0.110007
-0.0657458
0.546102
-0.506898
-0.0391764
0.469343
-0.611066
0.141731
-0.267046
0.202546
-0.0852277
0.0764983
0.0087359
0.098567
0.44092
-0.539486
-0.28659
0.104649
0.181965
0.145935
0.213506
-0.170965
-0.00387882
0.0280353
-0.0241554
-0.114762
0.0705138
0.0442574
0.0287689
-0.0284816
-0.266075
-0.137833
0.403993
0.394678
-0.5614
0.0926578
-0.270188
-0.0699612
-0.171789
0.241831
0.407314
-0.0990981
-0.308174
-0.175472
0.570209
-0.265002
0.19514
0.241854
-0.186623
-0.36208
0.437178
-0.0749937
-0.609886
0.582524
0.0275004
-0.423913
0.15791
0.0238775
0.0632863
-0.0871559
-0.233682
-0.295874
0.529833
-0.0288046
-0.203487
0.232307
-0.101599
0.112532
-0.63439
0.602528
0.0322109
-0.0415679
0.26025
0.485407
0.103441
-0.584669
0.407732
0.177018
0.123524
0.24631
0.121871
-0.623642
0.204395
0.419328
-0.409182
0.271936
0.137343
-0.170465
0.00508853
-0.19285
0.187774
0.592517
-0.592057
-0.00024604
-0.13498
-0.499138
-0.146882
-0.106029
0.252927
0.524113
-0.528964
0.00487413
0.539644
-0.0155134
0.0139405
-0.375938
0.522293
-0.595564
0.0734671
-0.0106519
0.418024
-0.0918797
0.0796466
0.0122367
0.0545999
-0.0719111
0.0173097
0.425424
0.12071
0.566283
-0.414968
0.195072
-0.152319
0.53314
0.0736896
-0.00747451
0.0479191
-0.127132
-0.160015
-0.0692727
-0.015947
0.385056
-0.170354
-0.214645
0.0930743
-0.133795
0.418457
0.162749
-0.581144
0.111055
-0.0848613
-0.0261761
-0.469653
0.282659
0.187028
-0.0948976
-0.514856
0.179805
-0.596985
0.417239
0.270535
-0.165865
-0.126386
0.141755
-0.0153459
-0.0210704
-0.00299509
0.0240668
0.0576755
-0.033793
0.0870526
-0.273214
0.18622
0.26117
-0.16848
-0.422993
0.552551
-0.129447
-0.101637
-0.0247292
-0.0680947
0.163002
-0.0948723
0.194738
-0.0686054
-0.126125
-0.0183742
-0.0353472
0.053722
0.179049
0.206071
-0.0797715
0.126876
-0.0470615
0.0424445
0.152633
0.0274848
-0.114406
0.0869209
0.0173359
-0.015023
-0.00231248
0.0712196
-0.252225
0.181038
0.616683
0.240155
0.0101327
-0.250287
-0.580309
0.404893
-0.0642497
-0.0276236
-0.534749
0.248492
0.286389
-0.159252
-0.228144
0.387469
-0.392378
0.613966
-0.221555
-0.0616425
-0.0531104
-0.0409143
0.0519528
-0.0380222
-0.0139352
-0.456508
0.158669
-0.184822
-0.0437562
0.228613
0.565424
-0.692015
0.126613
0.243409
-0.402589
-0.156449
0.161546
-0.136363
-0.325338
0.461769
0.545098
-0.0226222
0.0302422
-0.0464665
0.0162255
-0.612666
0.605682
0.00704066
0.568615
-0.150107
-0.181624
-0.321765
0.503612
0.107981
-0.0799698
-0.0280103
0.0815944
-0.309671
0.228134
0.276142
0.0947463
-0.0678153
-0.0269345
0.0393872
-0.207964
0.16859
0.0202556
-0.0497268
-0.0201137
0.0698368
-0.371507
-0.225421
0.596929
0.247326
-0.176077
0.0516536
0.308014
-0.359566
0.062288
-0.0596724
-0.00261339
-0.0795404
-0.0699439
-0.0497781
0.119721
0.190997
-0.10795
-0.0830301
0.59696
-0.105219
-0.491707
-0.138731
-0.215254
-0.1565
0.0297328
0.126781
-0.200192
0.132131
-0.21528
0.29693
-0.160673
-0.0934088
0.254117
0.395731
0.240077
0.106081
0.148944
-0.076405
-0.0725309
0.0984187
0.0126534
0.159573
0.0351753
-0.112834
0.353006
0.0547742
0.0941809
-0.387581
-0.28476
0.209745
-0.238531
0.130489
0.0605308
0.12082
-0.114757
0.020776
-0.1181
0.0973382
-0.0363292
0.00151456
0.0348168
-0.271309
-0.352273
0.0267033
-0.00429176
-0.0224104
-0.274669
0.118699
0.156018
0.0406788
-0.0590512
0.510958
-0.0206828
0.348187
-0.484472
0.285375
-0.22618
-0.0591517
0.0252659
-0.0273827
0.00211742
0.0174624
-0.000126083
-0.0983384
-0.218478
0.316881
0.206793
-0.0473036
-0.159485
-0.247764
0.301462
-0.0536624
-0.226356
-0.400448
-0.0997216
0.293871
0.143408
-0.427181
-0.118322
0.545651
-0.0531103
0.331254
-0.278113
0.261598
-0.314684
0.00870967
0.0419453
-0.121678
-0.168762
-0.0802204
0.0779821
0.00224192
0.630787
-0.250747
-0.379672
0.732006
-0.411082
-0.320864
0.353587
0.378475
-0.0638307
-0.00777924
-0.109626
0.11742
-0.144863
0.0493236
0.0955483
0.36629
0.184062
-0.55019
0.554661
-0.0853123
-0.158322
0.200771
0.0254794
0.119358
0.33062
-0.449919
-0.381568
0.500989
-0.312825
-0.456062
0.735837
-0.382198
0.321719
0.414173
-0.0127019
0.0414717
-0.0592663
0.063036
-0.00377321
0.0948817
0.287732
-0.382531
0.476722
0.0835336
-0.560251
-0.106347
0.152485
-0.0461097
-0.0338844
0.0039156
0.0299689
0.0136338
-0.514336
0.500766
0.526997
-0.160526
0.175851
0.0309476
0.0856424
-0.0599995
-0.0256383
-0.0841736
-0.0698913
-0.0103264
-0.15609
0.124585
0.0315192
-0.342451
-0.192181
-0.0879361
0.0678189
-0.162462
0.0561398
-0.25477
0.127663
-0.00354869
0.121964
-0.118383
0.2179
-0.316169
-0.0505593
-0.47201
0.217582
0.254464
0.0442841
0.104843
-0.149104
-0.0327056
-0.139909
0.172644
-0.00429311
-0.337054
0.341444
0.601804
-0.179935
-0.325571
-0.108679
0.434297
0.388928
-0.567732
0.178866
-0.00561717
0.0272931
-0.021675
0.138549
-0.277629
0.139086
0.180546
-0.588935
0.408464
-0.671869
0.290365
-0.455676
0.130406
-0.278741
-0.393065
-0.189312
0.0629994
0.535028
-0.0315984
-0.154178
0.185817
0.607274
-0.426668
0.00313501
0.0124843
0.0642858
-0.00968693
0.0912784
-0.405522
0.314384
0.305621
0.115744
-0.421316
-0.170887
0.125669
0.045225
-0.741454
0.3137
0.427795
0.265424
-0.0893377
-0.176074
0.0237203
-0.0293369
-0.352092
-0.389322
0.0247655
-0.028644
0.58404
-0.195054
0.00104605
0.106936
0.599917
-0.0029204
-0.283736
0.378103
-0.0943153
0.282624
-0.286846
-0.322926
0.515501
-0.192417
0.113584
-0.0152021
-0.0983654
0.545845
-0.584942
0.0394155
0.196571
-0.157171
-0.279008
0.102551
0.176502
-0.573473
0.181129
-0.207248
0.212544
-0.00528655
0.0145539
-0.438632
0.452321
0.152283
-0.00728533
-0.144966
-0.333636
0.450342
-0.116655
-0.354356
0.166277
0.188139
0.475153
-0.110182
-0.0881194
-0.176801
-0.604231
0.209167
0.395137
0.0498274
0.496338
0.152697
0.00376776
-0.156449
-0.51038
0.162414
0.347989
-0.138283
0.182597
-0.250532
0.162489
-0.359942
-0.171887
0.531995
0.0499093
-0.0196667
0.0304243
-0.00515661
-0.425707
0.555161
-0.129344
-0.633249
0.198353
0.43491
-0.175252
-0.309937
0.394433
-0.0844861
0.0863864
0.0240355
-0.11041
0.0256661
-0.0661293
0.0404644
-0.104243
0.034298
0.502055
-0.55326
0.0512068
-0.208677
0.140082
-0.115379
0.421048
-0.0202524
0.0835468
0.0898056
-0.399732
-0.0639069
-0.0449944
-0.204686
-0.392545
-0.0639006
0.340013
-0.0336749
0.50609
-0.164127
-0.341886
-0.243098
0.198546
0.00568749
0.115153
-0.490856
0.57298
-0.0820318
0.0120665
0.0502234
-0.360606
-0.247106
0.608027
0.130364
0.0380461
-0.643835
0.435437
0.208426
0.0280365
-0.0311537
-0.393944
0.557312
-0.163186
0.00863316
0.148448
-0.157051
-0.00349707
-0.244234
0.621683
-0.119626
0.190149
-0.680906
0.131354
-0.108903
-0.0224236
-0.0556051
-0.0212043
0.076812
-0.484349
0.203602
0.280845
0.185588
0.320579
-0.0480232
0.0405511
-0.0470993
0.0760874
-0.028988
0.146202
-0.0778781
-0.0683225
-0.0359938
0.293465
-0.702925
0.350883
0.109344
0.285755
-0.395012
0.083044
-0.0584841
-0.0245563
-0.11208
-0.0965871
-0.319741
-0.383131
0.141575
-0.197438
-0.181119
0.378648
-0.0313702
0.225934
-0.194542
-0.129622
0.0314955
-0.134443
0.102966
0.0165719
0.148676
-0.165233
0.0509217
0.214519
-0.155357
0.157704
-0.00232153
0.037662
0.00321491
-0.0408742
0.102816
-0.525699
-0.263732
-0.220517
0.295846
-0.263908
0.116267
-0.0962801
-0.0199726
0.61653
-0.0562181
-0.56024
0.0023333
-0.144005
-0.0113167
-0.388636
-0.0277995
0.296175
-0.26972
0.175268
-0.0201608
-0.155094
-0.434259
-0.198977
-0.343407
0.228248
0.115167
0.562643
-0.40751
-0.1551
-0.0900809
-0.103503
0.274412
-0.277878
0.368435
-0.277025
-0.0950733
0.0772997
0.0177822
-0.414961
0.622079
-0.207094
0.0709207
0.0238224
-0.0888366
0.147094
0.415583
-0.0970904
-0.476754
0.218811
0.258012
0.350353
0.205348
-0.555696
0.135294
-0.561591
0.426398
0.0454696
-0.00473053
-0.113579
0.463939
-0.0193174
0.235242
-0.215857
0.0287037
-0.187021
0.246081
-0.235337
-0.0107291
0.115203
-0.343074
0.227949
-0.121335
0.0373502
0.0839833
0.0278702
0.0665159
0.225457
0.0672816
-0.292654
0.0195143
0.0940861
-0.292632
-0.0977979
0.390527
0.198196
0.0479005
-0.0128367
0.100855
-0.495343
-0.194886
0.0135563
0.181369
-0.103379
-0.14709
-0.122828
-0.437612
0.560616
0.118324
0.335724
-0.453832
0.220854
-0.585583
0.364843
-0.0507079
-0.157243
0.444506
-0.114511
-0.329907
-0.569752
0.433011
0.13684
0.352128
-0.474708
0.122696
-0.129093
-0.0403839
0.169504
-0.318642
0.148568
0.17009
-0.753706
0.332379
0.421362
-0.66645
0.294947
0.10775
-0.0213493
-0.0117779
0.187061
-0.487746
0.164952
-0.276502
0.257275
0.119657
-0.108125
-0.0115305
-0.203729
0.233475
-0.0297419
-0.394553
0.493122
0.049915
-0.123303
0.0591465
-0.0793912
0.253538
-0.516637
0.263146
0.340394
-0.699385
0.35903
-0.0867317
-0.194552
0.281325
-0.345045
0.463592
-0.413278
-0.242093
-0.350741
-0.348611
0.514778
-0.261196
-0.0770478
0.0606166
0.0164283
0.0976614
-0.390201
-0.0458188
0.212731
-0.166885
-0.00521179
0.0176967
-0.0275523
0.179866
-0.549187
0.122151
0.399353
-0.155868
-0.0269363
-0.0943996
0.199789
0.0856345
-0.0233682
0.00229782
-0.702221
0.27567
0.426582
0.526007
-0.202407
-0.323487
-0.592625
0.177687
0.664901
-0.343126
0.323888
-0.0727945
-0.476025
0.198951
0.277142
-0.0160573
0.135716
-0.43133
0.582117
-0.150761
0.0213977
0.18376
0.342376
-0.00747737
-0.132576
0.14009
-0.406501
0.609589
-0.203066
-0.10535
0.399305
-0.118713
-0.037362
0.0968853
0.0493171
0.160229
-0.357583
-0.215246
0.177928
0.0373216
0.346602
0.209575
-0.556032
-0.627613
0.20029
0.427617
0.473657
-0.121424
-0.28156
-0.195123
0.427659
-0.554634
0.127125
0.435736
-0.616679
0.18131
0.0145621
-0.094042
0.572923
-0.145118
-0.174115
-0.0331232
-0.0280518
-0.0777767
0.105844
0.361445
0.210433
-0.571697
0.144803
0.0354809
-0.180251
0.127505
-0.00655013
0.0745939
0.00172082
-0.0763166
-0.220339
0.187912
0.0324606
0.0325508
-0.298373
-0.217342
0.515721
-0.536077
0.237709
-0.257153
-0.112337
0.18412
-0.590597
0.333177
0.0146441
0.0896871
-0.104326
-0.416899
-0.167695
0.290219
-0.391995
-0.205495
0.215979
-0.174113
-0.0418288
-0.0963598
0.255388
-0.158997
-0.0848506
-0.017563
0.10243
0.136454
-0.0283075
-0.108119
0.109015
0.374801
-0.483797
0.422125
-0.306338
-0.0828595
-0.194081
0.00514344
-0.175818
0.170699
0.100474
0.344118
-0.208056
0.216367
0.068972
-0.157101
0.088163
-0.104773
-0.174191
0.0243541
-0.0986164
0.0742595
-0.480514
0.147937
-0.142771
0.136055
-0.10631
0.136061
0.329856
-0.465695
-0.0398458
0.0318969
0.00794932
-0.270718
-0.356651
0.404994
0.259957
0.0383841
-0.167452
-0.31439
-0.387803
0.501552
0.129606
0.166461
-0.0137467
0.0158013
0.0244515
-0.164596
-0.0217496
0.18635
0.299123
-0.48053
0.284044
-0.0890794
-0.194919
0.133391
0.39123
-0.524592
0.125893
-0.10177
-0.0241179
-0.124108
0.139689
-0.0155748
0.243993
-0.396725
0.152822
-0.108016
0.158297
0.318624
-0.476722
0.00986837
0.146672
-0.156515
0.399267
-0.296484
-0.102778
-0.54471
0.409992
0.134815
0.0798156
0.536792
0.460121
-0.111855
0.365289
-0.487957
0.460222
-0.442041
-0.0181504
-0.204041
0.164485
0.0395966
0.597962
0.0252475
0.111231
-0.345188
0.481479
0.379723
0.0390134
-0.41862
0.153444
-0.256762
0.00255946
0.047807
-0.0503642
-0.510346
-0.018007
0.528452
0.272267
-0.191651
-0.080574
-0.165099
-0.402572
0.150096
-0.157533
0.0566676
-0.183049
0.126406
-0.16521
-0.094352
0.259579
-0.140634
-0.197576
-0.17666
-0.158295
0.33504
0.187699
-0.0190163
0.0596964
-0.054712
-0.0223392
0.0148763
-0.0200878
-0.438067
0.56711
-0.128939
-0.35192
0.475464
-0.123437
-0.368941
0.477969
0.417365
-0.14182
-0.275442
0.0874836
-0.0235915
-0.063884
0.645898
-0.332158
-0.291768
0.31745
-0.0256774
-0.0761171
-0.198501
0.0122498
-0.0668976
0.0546513
-0.195354
0.093601
0.00318598
-0.00160239
-0.0015868
0.427473
0.145598
0.147059
-0.0915095
-0.0555309
0.525431
0.0672935
0.137875
-0.600709
0.462878
-0.0337529
0.0460045
-0.736113
0.421758
-0.0656259
-0.0166896
0.0823255
0.614553
-0.559919
-0.0546233
0.494911
-0.133277
0.121842
0.0232918
-0.108125
-0.010269
0.470523
0.426834
-0.517509
0.0907369
0.0192317
0.0915135
-0.110725
0.149877
-0.00504221
0.406713
-0.327883
0.00533852
-0.0669718
-0.0559319
0.0313224
0.0246108
-0.0189719
0.0935642
-0.525268
0.0150134
0.0323572
-0.0218458
-0.0105119
0.582932
-0.477243
-0.105676
-0.0856269
-0.0287808
-0.359486
0.318574
0.563355
-0.425443
0.593758
-0.196756
-0.396987
0.312149
0.227512
-0.0969562
0.165964
-0.249868
0.156504
-0.403701
-0.210888
-0.380996
-0.757748
0.290504
0.467536
0.0753768
-0.0700268
-0.425643
0.428424
-0.0026361
0.0105204
0.108593
-0.119093
-0.114353
0.404682
0.527309
-0.100412
-0.490709
-0.121906
0.0274595
-0.114976
-0.0761378
-0.0246458
0.100787
-0.0194153
0.0225973
0.128342
-0.131859
-0.154529
-0.0494714
-0.00477291
0.0913602
-0.0865784
-0.00733536
-0.0265489
0.550818
-0.415428
-0.0959539
-0.0137738
0.109732
-0.446467
-0.311023
-0.0841978
-0.0302799
0.114491
0.132393
0.285068
-0.0259892
-0.0690745
-0.134119
0.499568
-0.197921
-0.24409
-0.365996
0.137904
0.0673175
-0.158241
0.183605
-0.0253272
-0.0888636
0.0688558
0.0200124
-0.629225
0.0883992
0.540923
0.149119
-0.180675
0.103573
0.342318
-0.445815
0.480609
-0.168443
-0.00489906
0.0425646
-0.233012
0.19884
0.0341867
-0.0547745
-0.363787
0.418629
-0.0968965
0.12841
0.167186
0.587216
-0.449459
-0.137712
-0.0145
0.579943
0.0412195
-0.0461151
-0.0841668
-0.341299
0.124818
0.384167
0.261765
-0.412246
0.357536
0.0913166
0.0249621
-0.385152
-0.30684
0.133571
-0.0330267
-0.100525
-0.584376
0.554834
0.0296888
-0.595773
0.450472
0.145508
0.0243786
-0.091057
0.402778
0.0101291
-0.0011778
-0.00895173
0.0078496
-0.0734653
-0.212833
0.310759
-0.0979093
0.105242
0.0308227
0.550964
-0.12334
0.293826
-0.240631
-0.0395702
0.0421322
0.0226267
0.0477331
-0.0703537
-0.28165
0.194961
-0.173628
-0.18554
-0.396363
0.198483
-0.211067
-0.373188
0.563114
-0.311971
-0.251041
0.458633
-0.407425
0.0429463
-0.159408
0.116486
0.178918
0.0433204
-0.222188
-0.0680629
0.0924135
0.0326239
-0.190822
-0.323579
0.211231
0.112361
-0.136812
0.0127091
-0.281711
-0.228647
0.0215136
0.150797
-0.172276
-0.0279806
-0.0901034
0.0286803
-0.399768
0.529439
-0.312073
-0.217336
-0.0964184
0.555051
-0.223724
-0.371849
-0.442555
0.347755
0.500263
0.105475
0.497785
-0.364379
0.403542
-0.590406
0.18721
0.0139396
0.018417
0.185541
-0.0514689
-0.134037
-0.634963
0.45703
0.178168
0.11679
-0.111081
-0.229761
-0.399387
0.0621297
-0.036463
0.169338
0.41476
0.142004
0.410653
-0.0204665
0.0362689
-0.177393
0.0717263
0.10569
0.376514
-0.550537
-0.207099
-0.128876
0.336037
-0.598556
0.191556
0.407018
-0.555605
0.419516
0.136183
0.174941
0.0992449
-0.27415
0.168985
-0.00175732
-0.167207
-0.36607
0.500013
-0.133799
-0.0030955
0.0183682
-0.0152733
-0.096162
0.219749
-0.123546
-0.34252
0.40299
-0.0604678
0.561985
-0.185471
0.233451
0.296015
-0.042122
-0.013809
0.093053
0.191034
-0.655646
0.270304
0.385532
-0.308596
-0.00776542
0.0314864
-0.135889
0.234833
-0.116087
-0.0161145
-0.00725333
-0.33093
0.0439212
0.287013
-0.561378
0.167624
0.12969
-0.555285
0.229082
0.0948755
0.0204823
-0.587753
0.197937
0.389821
0.0294608
-0.113642
0.288631
0.191634
0.0806711
0.030033
-0.426861
0.31154
-0.102934
-0.0314888
0.1511
0.0344734
0.392811
-0.120777
0.275294
-0.033396
-0.367901
-0.287559
0.207927
-0.0389074
0.31349
0.0752369
-0.335544
0.133438
0.202167
0.125108
0.38266
-0.507731
0.0176509
0.000100945
-0.0177526
0.491886
0.0646633
-0.556545
-0.291186
-0.0397391
-0.373235
0.199675
0.0773511
0.219495
-0.296811
0.0619365
0.158249
-0.220146
-0.0480904
0.0707247
0.498234
0.0844226
0.0198406
-0.127644
0.107829
-0.0958078
0.0196737
0.309911
0.274044
-0.583953
-0.143978
-0.286086
0.43017
-0.169211
0.512496
-0.108609
0.0923743
0.271448
-0.363705
-0.408377
0.208029
0.200412
0.373952
-0.101146
-0.272776
0.178283
-0.0880839
0.115554
0.0306542
-0.401678
0.560886
-0.159069
-0.0257135
0.0818934
-0.0561744
0.0599462
0.163319
0.206237
0.00977062
-0.12486
0.38765
-0.278223
0.0652787
0.0818001
-0.0204087
-0.172433
0.400046
0.135131
-0.535096
-0.119425
-0.0579427
-0.126003
0.171516
-0.0454983
0.164677
-0.0135461
0.550309
-0.393637
-0.156577
0.412199
-0.530371
0.344269
0.218931
0.000653524
-0.1076
0.354273
-0.614742
0.396583
0.218211
0.171537
-0.0411398
-0.524193
0.158262
-0.564936
0.419805
0.14526
0.00727727
-0.0977135
0.176174
-0.267115
0.3704
-0.103261
0.0462708
-0.249995
0.201089
-0.232433
0.0769794
-0.298619
-0.109711
-0.297484
0.19843
0.0187966
-0.0977881
0.0790015
0.434042
0.129354
-0.574309
0.158614
0.415728
-0.377897
-0.302929
0.530714
-0.535731
0.00512902
0.236186
-0.346051
0.109934
-0.305791
0.185778
0.12007
0.0751339
-0.240328
0.38999
0.160412
0.579345
-0.189585
-0.389754
-0.349142
-0.12896
0.47818
-0.346531
-0.0129539
-0.13793
-0.158338
-0.0619695
-0.368141
0.127294
-0.00530685
-0.347589
-0.0841226
0.107247
-0.0231236
0.0865325
-0.353623
-0.479494
0.101673
-0.0123287
-0.0537999
0.287955
-0.105306
-0.182598
0.0230017
0.104533
0.165868
-0.320938
-0.017662
0.338617
0.122319
0.307606
-0.429867
0.552284
-0.419807
-0.132376
-0.42038
0.276507
0.0200884
-0.0490031
0.0289151
-0.171302
0.20467
-0.0333271
0.102368
-0.315182
0.197461
0.036019
-0.300758
0.393255
0.0292678
0.135436
0.661611
-0.184886
-0.41847
0.49528
-0.0767797
-0.425417
0.163813
0.261609
0.47677
-0.393234
-0.0273236
0.26864
-0.106577
-0.162023
-0.00924644
-0.31168
0.117024
-0.0239266
-0.070984
-0.331277
0.40227
0.29229
-0.524113
0.231902
0.326112
-0.522026
0.196031
0.164759
-0.148172
0.149428
-0.288388
0.408401
-0.119904
0.0868615
0.217283
-0.304061
-0.352673
0.493963
-0.141186
0.0275625
0.497766
-0.205411
-0.0723688
-0.182204
0.254586
0.268558
0.124346
0.034147
-0.00340003
-0.0307449
-0.024669
-0.390793
0.256691
0.134114
0.0230483
-0.164777
-0.0504662
-0.00351684
0.0598297
0.334613
-0.413457
0.565707
-0.152059
0.568744
-0.468811
-0.0998881
-0.110977
0.383201
-0.27212
-0.0821048
-0.234682
0.316844
0.457616
0.0366604
-0.503503
0.352718
0.150926
-0.211082
-0.107548
0.111692
0.0201613
-0.0819105
0.0617577
0.219332
-0.326857
-0.0393698
-0.14914
0.188539
-0.15565
-0.0267892
0.182453
-0.555038
0.41748
0.137654
-0.183233
0.194295
0.257651
0.0303508
0.56578
-0.16888
-0.396854
-0.0171829
-0.173666
0.190888
0.189323
0.432779
-0.017466
0.0512669
0.149585
-0.106614
-0.561034
0.159584
0.401457
0.149552
0.405712
0.237094
0.229037
-0.521891
0.357851
-0.462796
0.113733
-0.0276993
-0.398503
0.560104
-0.161417
-0.0644096
0.357406
-0.491365
-0.284555
0.588049
-0.303492
-0.403882
0.142751
0.261183
0.110752
0.325088
-0.435697
-0.0716533
-0.374717
-0.13216
0.158072
-0.556383
0.404526
-0.0813049
0.285363
0.0356391
-0.320936
0.0129946
-0.561136
0.416079
0.145189
0.188532
0.227262
-0.652516
0.425275
-0.344843
-0.117876
-0.0298733
0.0330921
0.488449
-0.162223
-0.142954
0.292008
-0.0125979
0.129411
-0.037624
0.643836
-0.416555
-0.369486
0.309982
0.0595096
0.101257
-0.0824509
0.586268
-0.416832
-0.169395
0.093215
0.291236
-0.384383
0.122896
0.0793161
-0.166791
-0.303744
0.470604
-0.0830471
0.102298
0.284826
-0.352
0.0672445
-0.0235011
-0.0163441
0.271295
0.106854
0.128265
0.0207316
-0.148991
-0.348808
-0.446331
-0.122219
0.568577
-0.58747
0.473898
-0.0985361
0.534663
0.635408
-0.143519
0.0453405
-0.0643553
-0.101059
0.329078
-0.227942
-0.608458
0.238276
0.370373
0.276362
-0.321649
0.0452897
0.178797
0.126959
0.441833
-0.102716
0.307158
-0.0816244
0.0182178
-0.211826
0.166036
-0.110593
-0.015694
0.126301
0.109021
0.23883
-0.0471533
-0.0122639
0.034645
-0.0223807
-0.378921
0.128149
0.250861
-0.111298
-0.243224
0.414244
-0.170913
-0.0214809
0.00529931
0.0161816
-0.501893
0.197014
0.122091
-0.319063
-0.228602
-0.423892
-0.197105
-0.371658
0.56881
-0.621726
0.393146
0.618214
-0.1911
-0.427065
0.584322
-0.453908
-0.130357
0.134313
0.290918
-0.425124
-0.166394
-0.0409459
0.207381
0.54572
-0.145594
0.233332
-0.334313
-0.0231688
-0.107026
0.130226
-0.0477554
0.0951429
-0.0473912
-0.0933933
0.00927148
0.119943
-0.132517
-0.213799
-0.4321
-0.155362
0.474613
-0.329564
-0.144871
-0.0208069
-0.0769703
0.278202
0.12107
0.0101281
0.13202
-0.416531
0.284555
0.146837
-0.00984789
0.511283
-0.501154
-0.29225
0.413148
-0.120787
-0.293418
0.425486
-0.405001
-0.187603
-0.364897
-0.140658
0.505723
-0.143392
0.164936
-0.244352
-0.363913
0.0354368
-0.0377179
0.00227878
0.366172
-0.369508
0.524254
-0.154582
-0.036792
0.0568816
-0.421519
0.178388
-0.277896
-0.307599
-0.0871105
0.512566
-0.00562718
0.0468511
-0.0409282
0.188886
-0.203298
0.578108
-0.374768
-0.175347
-0.47396
-0.149399
0.623457
0.535923
-0.0300385
0.0785389
-0.0484953
0.118451
-0.0205466
-0.210019
0.230571
0.194272
-0.33717
-0.336927
0.327697
-0.202428
0.610732
-0.458765
-0.151928
-0.0507686
-0.175379
0.348428
-0.419398
0.0556406
-0.232247
0.0309737
-0.0383084
0.301238
-0.438
0.136802
-0.430815
0.331688
0.367442
-0.274176
-0.513844
0.353306
0.160591
-0.142289
0.0162001
-0.112388
0.0962084
0.0362522
0.136049
0.225812
-0.0468483
-0.0338643
0.0260991
0.0452229
-0.00978865
-0.0947547
0.443197
-0.0947147
0.110932
-0.431184
-0.157682
0.00632098
0.0216104
-0.0279316
-0.463888
-0.133056
0.102959
0.0277671
-0.130725
-0.130012
0.0177284
-0.212581
-0.279513
0.309465
-0.0298911
-0.170415
0.116309
0.0541085
0.0240704
-0.0807595
0.056692
-0.627965
0.234477
0.393505
0.160047
-0.370706
-0.432381
-0.301904
-0.201472
0.174862
0.38068
-0.112028
-0.0831614
0.368054
-0.141796
-0.0288616
0.170667
-0.0269618
-0.00063099
0.0275939
0.146892
0.200017
-0.0326951
0.00614695
0.519276
0.0952873
-0.168442
0.463966
-0.295485
-0.284882
0.0611416
-0.0734582
0.0123173
0.209165
-0.291215
0.0197261
0.563219
-0.145012
0.158351
-0.255259
-0.146396
0.401732
-0.40261
0.254508
0.119474
0.0376086
0.190584
-0.228149
0.294871
-0.405736
-0.0142652
-0.403073
-0.224875
0.403972
0.177205
-0.581161
-0.14721
-0.121083
0.422353
-0.0241739
0.00406668
0.0201068
-0.331387
0.124346
-0.113629
0.333038
-0.436161
0.537999
-0.101827
0.0346097
-0.411589
0.616945
0.159513
-0.294144
0.0996329
-0.190243
-0.124774
0.315055
0.217935
-0.0236241
0.424021
0.219834
0.0803117
0.504777
-0.379633
-0.477616
0.138392
0.339299
0.0254023
-0.13446
0.109087
-0.435237
-0.00225344
0.558052
-0.248139
-0.0906082
-0.0401859
0.130821
0.0751448
-0.103183
-0.0285405
-0.0990813
-0.130965
0.0303837
0.100588
-0.226176
-0.361572
0.107978
-0.124032
0.0434683
0.0111932
-0.0546613
0.526576
0.0904834
-0.0816334
0.255044
-0.423447
-0.0203528
0.167046
0.127764
0.0247459
0.413505
-0.249692
-0.0726529
0.230517
-0.157821
-0.422881
-0.177787
0.243012
-0.169331
-0.073636
-0.175
-0.237346
-0.105653
-0.066628
0.103975
-0.149508
-0.0318845
0.181437
0.0406788
-0.166668
-0.113676
0.0882945
0.0253812
0.0882402
-0.0205154
0.111696
-0.0911659
-0.209145
-0.407897
0.115754
0.369732
0.090306
-0.460005
0.579755
-0.175764
-0.585568
0.435768
0.149825
-0.404106
0.546616
-0.142375
-0.223828
-0.059444
0.0835182
-0.592446
0.428123
0.164512
0.092954
0.236196
-0.14529
-0.24149
-0.106969
-0.232972
0.340029
0.173499
-0.0248098
-0.133181
0.029809
0.103391
-0.291959
0.109867
-0.547829
-0.227704
0.155351
0.0324162
-0.468568
-0.293614
0.237706
0.0257242
-0.0379874
-0.112358
-0.215217
0.327645
0.153929
0.311489
-0.465335
0.219422
-0.0330682
-0.445355
0.327058
-0.234033
0.0548397
-0.0113708
-0.0178532
0.374204
-0.102066
-0.272107
0.183763
-0.15884
-0.0248988
0.310386
-0.100699
-0.209642
-0.0205451
0.00443132
-0.026951
0.225805
-0.238565
0.142237
-0.0169245
0.0874491
0.539778
-0.0560183
-0.106424
-0.0667285
-0.0976827
-0.40294
0.306112
-0.324842
0.219194
0.105656
0.534085
-0.0192625
-0.0948685
-0.0109156
0.517667
-0.506438
0.246613
-0.353477
-0.334185
0.0495306
0.277498
-0.140205
0.166673
-0.0264387
0.594552
-0.182424
-0.412019
0.110322
-0.09268
0.240328
0.0669104
0.098223
0.0276739
0.224202
-0.447524
0.131968
0.315639
0.0169227
0.218605
0.136155
-0.354707
-0.0921307
0.318506
-0.226297
-0.496411
0.315546
0.180995
0.00627951
0.0183507
-0.0246299
-0.0238487
0.152223
-0.0396628
0.185493
-0.26465
0.0791972
0.0627423
-0.0781554
0.142604
0.0289263
-0.174517
-0.260082
-0.130698
0.181721
-0.0325576
0.36479
-0.561531
0.401633
-0.290746
-0.132362
-0.0191654
0.151537
-0.224869
-0.172298
-0.170426
-0.0949578
-0.202568
0.240221
-0.314568
0.12436
-0.114246
0.139678
-0.0202695
0.148539
-0.468299
0.146704
-0.130878
0.157489
-0.0265998
-0.0914314
-0.245475
0.287623
0.120887
-0.345044
0.486781
-0.141555
0.209139
0.404858
0.0828491
-0.0562766
-0.026569
0.0949991
-0.0997618
0.584027
-0.438751
-0.145171
0.152204
-0.595274
0.188935
0.406351
0.0702199
-0.401488
0.013376
0.351753
-0.434838
-0.157777
-0.337795
0.495828
0.0382906
0.495834
-0.276702
0.0351665
-0.495823
0.461047
0.318519
-0.089372
0.0561505
0.0267019
0.115355
0.163444
-0.229496
0.0660837
0.406348
0.173425
-0.396908
-0.0101729
0.130141
-0.016703
0.0778455
0.0847868
-0.0220482
-0.134312
-0.497387
0.54752
0.339367
-0.49689
-0.103754
0.337164
0.0381903
-0.404755
-0.156273
0.0178625
-0.0818182
0.0203718
0.121882
-0.142225
-0.101535
0.258075
-0.570155
0.1794
0.390767
0.298076
-0.112242
-0.0211303
0.456219
-0.396956
-0.0592034
-0.193246
0.228867
-0.0356066
-0.381209
0.563789
-0.428882
-0.134808
-0.365848
0.22807
0.00838186
0.042493
-0.0508723
-0.18398
0.143624
-0.169589
0.575955
-0.12356
0.154273
-0.0306979
-0.405959
-0.0175702
0.143247
-0.46065
0.21019
0.39693
0.167981
-0.564658
-0.0916496
-0.356784
0.0751443
0.381133
0.25596
0.118273
-0.0930426
-0.024267
0.117332
-0.174074
0.245742
-0.071635
-0.102566
-0.199055
0.496986
0.000854352
0.129737
0.431048
0.114747
-0.539336
0.23871
-0.211345
0.0449929
0.164981
0.0153179
-0.180275
0.0153138
-0.0184102
-0.217795
0.186049
-0.203188
-0.141054
0.166097
-0.0250091
-0.0262918
0.168911
0.160455
0.406755
0.151173
0.104253
0.130087
-0.0345295
-0.090431
0.0603755
0.0300644
0.052263
0.0120212
-0.127779
0.35969
-0.231832
0.280372
-0.50254
0.222235
-0.0152014
-0.624496
0.286924
-0.491641
0.0800605
0.187766
0.0894478
-0.277163
0.0295225
-0.351358
0.139034
0.212399
-0.42393
0.0665141
0.0265682
-0.0930743
0.210413
-0.148435
0.105557
-0.352353
0.246866
-0.187075
0.416159
-0.00644477
0.161749
-0.155303
0.067436
-0.0845916
0.0171652
-0.0265122
-0.00618203
0.353967
-0.482845
0.109802
-0.423692
0.314
-0.0965874
0.456335
0.11233
-0.509903
-0.00668826
-0.147521
0.179662
-0.0321292
0.0918663
0.311125
-0.267962
0.095165
0.172838
-0.199142
0.148817
0.0503602
-0.318353
0.215861
0.0556045
-0.076803
0.135881
0.357892
-0.493592
-0.127186
0.372837
-0.245602
-0.127149
-0.187384
-0.232347
0.512787
-0.0265695
-0.0638534
0.11862
-0.474965
0.356524
0.558318
-0.176299
0.0345123
0.103434
-0.128954
0.0255407
-0.143193
0.171998
-0.0288023
-0.022915
0.088527
-0.0655993
-0.151619
-0.276955
0.428748
0.114916
0.0751936
-0.190079
-0.355244
0.529478
0.0646728
0.302822
-0.52873
0.519226
-0.198138
0.358451
0.0697503
-0.096312
0.0281471
0.323673
0.129202
-0.175283
0.450326
-0.0805719
-0.602629
0.412523
0.190132
0.144169
-0.422596
-0.143981
0.566591
-0.160737
-0.00711958
0.0219966
0.431361
-0.587155
0.155823
0.313613
0.104176
-0.127317
-0.539323
-0.114056
-0.094611
-0.104503
-0.0630311
0.177981
0.27977
0.124304
-0.403965
-0.505552
-0.155464
-0.366704
0.522314
0.420495
0.143399
-0.521248
0.36879
0.152462
-0.216231
-0.145711
0.53092
-0.385182
0.326798
0.218465
0.0382016
-0.512077
-0.395936
-0.125256
0.521214
-0.107652
0.28381
-0.17614
-0.186621
0.0108129
0.0671718
0.0235742
-0.163751
0.14855
-0.354933
0.528009
-0.17291
0.56038
-0.453815
-0.106478
0.140685
0.0260132
-0.575548
0.184966
0.390599
0.164465
-0.307173
-0.267112
-0.220124
-0.320714
-0.393466
0.165278
-0.361721
0.240315
0.121467
-0.103199
0.0785562
0.446372
0.148275
0.581495
-0.150106
0.249566
-0.0706071
-0.178906
-0.571611
0.16446
0.407155
0.633393
-0.192371
-0.440923
-0.0396391
0.302166
0.111094
-0.325088
0.0236182
-0.171128
-0.149922
-0.00289355
0.174596
-0.0691733
0.227465
0.176392
-0.152763
-0.182678
-0.392854
-0.464675
0.543874
-0.0791523
-0.102151
-0.150774
-0.270642
0.494422
0.105531
-0.134049