/*--------------------------------*- C++ -*----------------------------------*\
| =========                 |                                                 |
| \\      /  F ield         | OpenFOAM: The Open Source CFD Toolbox           |
|  \\    /   O peration     | Version:  v2012                                 |
|   \\  /    A nd           | Website:  www.openfoam.com                      |
|    \\/     M anipulation  |                                                 |
\*---------------------------------------------------------------------------*/
FoamFile
{
    version     2.0;
    format      ascii;
    class       volVectorField;
    location    "900";
    object      U_0;
}
// * * * * * * * * * * * * * * * * * * * * * * * * * * * * * * * * * * * * * //

dimensions      [0 1 -1 0 0 0 0];


internalField   nonuniform List<vector> 
13917
(
(0.7305 -0.00727257 0)
(0.973271 0.0530965 0)
(1.03014 0.119642 -1.11237e-20)
(1.03416 0.0299847 0)
(0.975847 -0.0197167 0)
(0.972282 0.0510358 7.32645e-23)
(1.04982 0.0571929 1.21419e-20)
(0.974857 0.0734401 -1.683e-22)
(1.07199 0.0447813 0)
(0.00804213 -0.11047 0)
(0.975522 0.0719346 4.05303e-22)
(1.01976 0.0241466 0)
(1.0089 0.000265056 0)
(0.990556 0.100806 0)
(0.975406 0.0323222 -1.06606e-21)
(0.704138 -0.0161053 -1.55738e-21)
(1.0093 0.000282038 -5.67683e-22)
(0.979287 0.0700298 -7.96373e-23)
(1.04046 0.109862 9.55729e-21)
(0.769337 0.0221694 1.64145e-20)
(1.00193 0.0619668 7.05073e-21)
(0.994094 0.00288045 9.681e-22)
(1.05118 0.0870547 -1.17112e-20)
(0.994224 0.00194371 -8.88634e-22)
(1.0259 0.0417961 0)
(0.997966 0.062622 7.54704e-23)
(0.993343 0.106571 4.56279e-22)
(-0.00373674 -0.0866836 6.95972e-24)
(0.988081 0.0659974 -1.50299e-21)
(0.997915 -0.0115998 0)
(0.0404293 -0.0973841 -7.38941e-21)
(1.0636 0.108247 1.13229e-20)
(1.02591 0.0323581 1.69194e-21)
(0.754043 0.0310836 0)
(1.02015 -0.0213528 1.06034e-23)
(0.97234 0.075109 2.15201e-22)
(1.00365 0.0412595 -8.73448e-22)
(0.999092 -5.15427e-05 0)
(1.05133 0.0576744 -1.32406e-20)
(1.01312 0.0708989 3.81311e-21)
(0.999389 0.00013054 0)
(1.05443 0.0104636 -8.46566e-22)
(1.06575 0.03588 1.39127e-20)
(1.04536 0.116129 1.15349e-20)
(1.04525 0.11474 -9.66518e-21)
(1.02169 0.10243 0)
(1.0029 0.060668 -1.94564e-21)
(0.514746 0.0491721 9.73563e-21)
(0.939248 0.0796 0)
(1.01931 -0.0210071 1.60027e-22)
(1.01918 0.0234152 4.57757e-21)
(1.02839 0.0998163 9.96034e-21)
(0.488151 -0.016934 0)
(1.00564 0.0202972 0)
(1.00738 0.0225831 -2.3499e-21)
(1.02927 0.100125 1.34121e-20)
(-0.0910656 -0.0650401 7.60071e-24)
(1.05009 0.086205 5.19053e-21)
(1.05151 0.0112324 7.91647e-22)
(1.02095 0.101919 7.06058e-21)
(0.82763 0.10802 0)
(1.00929 -0.0301547 -6.31549e-22)
(0.997334 -0.000325439 -2.03744e-23)
(1.02602 0.0407093 -9.011e-21)
(1.03907 0.101183 0)
(0.957398 -0.0225704 -4.03314e-22)
(0.985264 0.0670934 -1.29899e-21)
(0.970337 0.0742995 0)
(0.978587 0.0716936 -8.43417e-23)
(0.612329 -0.00615384 2.10288e-21)
(1.0242 0.104577 -9.82892e-21)
(0.729744 0.0229618 0)
(1.03457 0.015977 2.77252e-21)
(1.04924 0.0095723 6.63439e-22)
(1.00251 0.0633934 -4.71013e-21)
(1.01839 0.0440125 -1.46263e-20)
(0.98097 -0.00658083 0)
(1.0467 0.0102188 -9.32206e-22)
(1.01869 0.0429759 0)
(1.02607 0.0331847 2.53815e-21)
(0.995065 0.0201682 0)
(1.01046 0.000127472 -3.04254e-22)
(1.03424 0.0150957 5.11379e-21)
(1.01362 0.114643 -5.39349e-21)
(1.00824 0.00323131 4.84932e-21)
(0.987284 0.0796806 3.84406e-22)
(1.06412 0.106614 -1.03968e-20)
(1.00778 0.00160915 8.27318e-21)
(1.01233 0.0697441 -3.95891e-21)
(1.01046 0.000421992 9.18074e-23)
(1.01197 0.00128644 -2.17395e-22)
(1.06758 0.0366355 -1.27819e-20)
(0.936074 0.078541 -1.23145e-21)
(1.02475 -0.0180297 0)
(1.00263 0.0269772 0)
(0.987212 0.0673178 1.29766e-21)
(0.987552 0.0907496 -5.73434e-22)
(1.00873 -0.000374874 -5.57021e-22)
(1.00833 0.00182927 -2.49253e-21)
(0.998584 0.0882189 -1.28765e-21)
(0.997101 9.67996e-05 -3.072e-23)
(0.996912 0.000144288 3.20258e-23)
(0.995145 0.0214045 2.24749e-23)
(1.01097 -0.00079511 1.92014e-22)
(0.982302 -0.0076008 -2.10034e-24)
(1.01422 0.17841 0)
(0.862935 0.0668981 0)
(1.00663 -0.0346953 -5.69161e-23)
(1.05712 0.0124536 0)
(0.993231 0.111097 -1.64144e-22)
(1.02007 0.000902113 -6.50042e-21)
(0.778354 0.037001 3.94045e-22)
(0.989954 0.0663401 6.10515e-23)
(0.277111 0.0137291 1.11458e-20)
(1.03709 0.101588 -1.18758e-21)
(1.01534 0.0457778 -5.78979e-21)
(1.04166 0.109601 -8.55584e-21)
(1.00521 0.00132075 -7.80779e-23)
(1.03396 0.117391 -2.79161e-21)
(1.03424 0.00986817 1.09337e-20)
(1.01198 0.000162602 2.3971e-22)
(1.04321 0.00575608 -4.93395e-22)
(0.984514 0.0684921 1.03316e-21)
(1.03766 0.101602 0)
(0.488625 -0.001358 -9.45315e-22)
(1.01653 0.113526 -4.25065e-21)
(1.0273 0.039265 5.19559e-21)
(1.00172 0.0646155 0)
(1.00761 -0.0121601 5.66876e-22)
(1.03809 0.102402 -8.69807e-21)
(1.07164 0.0711637 -1.45713e-20)
(1.01651 0.0981357 -6.40054e-21)
(0.82406 0.128932 0)
(1.01425 0.0455289 -7.19733e-22)
(1.05782 0.113046 0)
(0.988496 0.10957 1.56565e-22)
(0.825573 0.0908541 0)
(0.338732 0.00682573 0)
(0.995667 0.063577 1.56656e-21)
(0.999 -2.19952e-05 0)
(0.72605 0.0629676 -3.51457e-22)
(1.04486 0.00874307 1.42096e-23)
(1.0186 0.181309 0)
(1.00075 0.0032091 1.85031e-21)
(1.03136 0.0151131 1.67075e-20)
(1.06469 0.0270491 3.55059e-22)
(1.02299 0.105164 3.40549e-21)
(0.837398 -0.101105 0)
(0.584686 0.0534647 3.01724e-20)
(1.00591 0.0213324 -9.41526e-22)
(1.01251 0.0672265 9.62702e-21)
(0.996494 4.33354e-05 4.48515e-23)
(1.03108 0.0141305 -5.37666e-21)
(1.03485 0.00940401 0)
(0.984067 0.0918345 1.36169e-21)
(0.992908 -0.00921861 0)
(1.0117 -0.00100967 4.86965e-23)
(0.755648 0.124497 1.77908e-21)
(1.00171 0.000466744 0)
(1.0044 0.000958694 1.95427e-23)
(1.00523 0.00544335 0)
(1.04675 0.114344 -1.0408e-20)
(0.994001 0.0437578 -1.02436e-21)
(0.712103 0.0618047 -7.73641e-23)
(0.913351 0.118117 -2.32831e-20)
(0.995717 0.0909477 0)
(0.330106 -0.0190799 -2.20665e-24)
(0.737738 0.110843 4.65318e-20)
(0.999853 -0.0029955 6.10547e-24)
(0.994818 0.0648133 1.34534e-21)
(0.993029 0.000387634 -7.57502e-22)
(0.88353 0.11214 0)
(1.07293 0.0433132 -2.30889e-20)
(0.913307 0.108205 3.39384e-21)
(1.02734 0.0903052 0)
(0.99835 0.000384329 -8.21311e-24)
(1.03526 0.0295852 0)
(1.02688 0.100474 9.25849e-21)
(1.07188 0.0693908 1.1726e-20)
(0.99303 0.0448921 -3.11277e-21)
(1.06267 0.0367337 1.10379e-20)
(0.993876 0.000493239 -7.77716e-22)
(1.01823 0.0235618 -2.63006e-21)
(1.02977 0.106313 -9.14218e-21)
(1.03349 0.116157 0)
(1.01573 0.0986964 3.63484e-21)
(1.01768 0.0228824 0)
(1.02895 0.106147 1.3393e-20)
(0.997251 -0.0109256 5.60849e-23)
(0.987028 0.078584 0)
(1.02632 0.0901363 0)
(1.04689 0.113735 -1.02113e-20)
(1.03214 0.104636 7.43429e-21)
(0.751472 -0.00189489 8.69083e-21)
(1.02358 -0.0180258 0)
(0.513183 -8.76458e-05 5.52653e-21)
(1.02838 0.0545631 1.33682e-20)
(0.867584 0.139447 -2.05921e-21)
(1.02061 -0.0206833 -2.30578e-24)
(0.993442 -0.00798967 -8.68734e-22)
(1.00482 0.0580996 1.27058e-21)
(0.629869 -0.00731087 0)
(0.334499 0.000508235 0)
(0.999617 0.0365332 0)
(1.00267 0.108412 2.84041e-21)
(0.987433 0.0570904 0)
(1.01321 0.0683494 -8.88585e-21)
(1.04537 0.00674317 2.92045e-22)
(1.02777 0.10061 -1.05961e-20)
(0.99406 0.019205 0)
(1.00884 -0.00836835 -7.13259e-22)
(0.974243 -0.031563 -1.18733e-21)
(0.971455 -0.0337929 1.34289e-21)
(0.637538 0.0637747 0)
(1.0595 0.112397 6.08602e-21)
(0.997296 0.0638327 -3.81122e-21)
(1.01993 0.0965738 0)
(1.00228 0.000263256 2.61646e-21)
(1.01917 0.00974518 0)
(1.01862 0.0100117 2.39705e-22)
(0.649389 0.0971709 -2.56771e-20)
(1.03099 0.105393 0)
(1.02739 0.106983 0)
(1.01804 0.00356265 1.06846e-20)
(0.997586 -0.000175769 1.10324e-23)
(0.986651 0.114411 0)
(0.513748 -0.0055015 6.43778e-21)
(1.01787 0.00785689 -3.27236e-24)
(1.01723 0.00752421 -1.23732e-22)
(0.999642 0.000114919 -1.5641e-23)
(1.019 0.0109733 -2.35532e-22)
(1.01844 0.0112431 0)
(0.722795 0.0169222 2.30216e-21)
(0.828023 0.0889876 -2.09159e-20)
(0.993903 0.011019 1.98952e-21)
(0.999489 -0.00500306 -1.03587e-24)
(1.03339 0.0944458 9.33501e-21)
(0.669083 0.0162696 0)
(1.00486 0.000599438 7.77387e-24)
(1.01763 0.00333258 -7.00417e-21)
(0.99949 0.109514 -1.69658e-21)
(1.01743 0.190424 -3.46821e-21)
(1.03074 0.1059 9.93272e-21)
(1.00743 0.0930598 1.38433e-20)
(1.02452 0.0949027 -6.53792e-21)
(1.00082 0.00372759 0)
(0.837942 0.116846 0)
(1.03375 0.0955331 -1.30477e-20)
(0.990744 0.0650819 -3.45068e-21)
(1.04732 0.103152 1.97412e-20)
(1.00057 0.0356652 -1.52972e-21)
(0.79686 0.0817345 2.58548e-20)
(1.03431 0.0113998 6.68376e-21)
(1.02439 0.076365 1.09833e-20)
(1.02842 0.0887455 0)
(0.992486 0.0100122 1.69266e-21)
(0.999501 5.6615e-05 0)
(1.02724 0.0403577 -5.44239e-21)
(0.987445 -0.021985 -2.44828e-22)
(1.03111 -0.0240714 -8.70932e-23)
(0.530146 0.0165982 1.58398e-21)
(0.954015 0.100591 0)
(1.04378 -0.00220542 -4.08385e-22)
(1.01726 0.00677414 0)
(0.991782 -0.00903905 0)
(1.0177 0.00656434 0)
(1.03479 0.0109193 -1.1719e-20)
(1.01313 0.000503853 -4.29105e-21)
(1.04005 0.0759529 1.81275e-21)
(1.04637 -0.00198467 -2.56991e-22)
(0.312207 0.0183167 -9.70351e-22)
(0.881712 0.0748521 9.1018e-21)
(1.0141 0.017901 -2.63157e-21)
(0.986265 -0.0163107 1.32523e-22)
(1.02012 0.101916 8.39921e-21)
(1.00986 0.0128949 4.50741e-23)
(1.00046 0.0856852 0)
(0.552292 0.0280777 4.1961e-21)
(1.01047 0.012869 1.01224e-22)
(0.630746 0.00233124 1.41873e-21)
(1.03156 -0.0225396 8.40854e-23)
(1.04779 0.11552 -1.3462e-20)
(0.998194 0.000264833 0)
(0.978058 0.0277161 -1.1204e-21)
(0.991649 0.0100858 2.62167e-21)
(1.00074 0.00077056 -2.54002e-21)
(1.03578 0.107854 5.69207e-21)
(1.00262 -0.000262084 1.34978e-21)
(0.993837 0.0925428 0)
(1.02315 0.0604476 5.97349e-21)
(0.953568 0.103085 -2.45367e-21)
(1.06815 0.0280305 2.79734e-23)
(1.00618 0.103984 3.40971e-21)
(0.29068 0.00607624 -1.63392e-20)
(1.00608 0.000973342 -8.87285e-24)
(1.04222 0.0888175 0)
(0.983538 -0.0211482 1.46947e-22)
(1.01249 0.0466948 0)
(0.978732 -0.0195771 0)
(1.02015 0.0428724 0)
(1.02732 -0.0194816 -6.5417e-23)
(1.00407 -0.000423633 -4.65316e-23)
(1.02549 0.0994799 -7.61643e-21)
(0.998856 -0.0584775 1.17449e-21)
(1.02445 0.0755146 0)
(1.02041 0.0419029 1.22056e-20)
(1.01687 0.0032744 -4.1937e-21)
(0.79452 0.131195 3.47823e-21)
(0.624744 -0.0121525 2.43597e-22)
(1.00997 -0.0127181 3.44761e-22)
(0.979926 0.0181379 -2.18639e-22)
(1.01361 0.0469641 0)
(0.92242 -0.0905915 3.87145e-22)
(1.05151 0.135699 -8.05949e-22)
(0.882215 0.0677945 0)
(0.941224 0.110479 0)
(0.9625 -0.040314 -1.05489e-22)
(1.01675 0.0971219 1.86227e-21)
(0.988004 -0.0163261 -2.01884e-22)
(1.01391 0.11345 4.66126e-21)
(0.882332 -0.0927002 -5.35223e-22)
(1.03026 0.121215 0)
(1.01325 0.000465467 0)
(0.97561 0.0303622 7.4215e-22)
(0.997126 0.106568 0)
(0.991917 -0.00282648 -1.19904e-21)
(0.972303 0.0547743 0)
(1.04664 0.112377 0)
(1.0077 0.000338214 0)
(0.901107 0.113152 -3.24706e-22)
(1.00823 0.00248295 7.26144e-21)
(1.08938 0.0855445 5.56961e-21)
(1.00204 0.0173161 -4.79167e-23)
(0.695086 0.010999 9.01306e-21)
(1.00609 -0.00307426 -8.61409e-22)
(1.026 0.0740756 5.57475e-21)
(0.988195 0.0585436 -5.8531e-22)
(0.971933 -0.0441738 -5.96934e-23)
(1.00976 0.000709938 4.43691e-23)
(1.0493 0.104757 1.72602e-20)
(1.01409 0.160183 -4.2046e-21)
(1.00439 0.0266083 0)
(0.992171 -0.00409075 0)
(0.809802 0.0480308 -3.36084e-21)
(1.01765 0.169326 0)
(1.02926 0.118965 -1.49435e-20)
(0.984107 0.1003 9.24721e-24)
(1.01055 0.011951 0)
(0.995712 0.0140044 0)
(1.01355 0.198867 0)
(1.01762 0.0969216 -4.69588e-21)
(1.0113 0.0120243 0)
(0.98106 -0.0219659 0)
(1.01228 0.0226347 -3.94996e-21)
(0.998762 0.0732063 0)
(1.02584 0.0750117 6.30926e-21)
(1.03357 0.102541 8.7267e-21)
(1.01959 0.0924577 0)
(0.999646 0.0847062 7.07657e-22)
(1.08133 0.0852872 -2.5543e-20)
(0.774774 0.0224015 9.06177e-22)
(1.00714 -0.0123928 0)
(1.00531 0.0270593 0)
(0.97405 -0.0217654 0)
(1.03486 0.109973 7.20391e-23)
(1.00514 0.000392118 -9.87757e-23)
(0.732776 -0.0112085 0)
(1.08283 0.0842896 1.95388e-20)
(0.999986 0.0758228 1.41644e-24)
(1.00688 0.0232026 -1.95822e-22)
(1.01836 0.0955581 -8.3623e-21)
(0.981678 0.0199587 0)
(0.932666 0.074149 1.29032e-21)
(1.04877 0.0176242 -4.50772e-22)
(1.02833 0.107141 7.69838e-21)
(1.02056 0.10247 -7.70053e-21)
(0.987165 0.0601928 -1.82704e-21)
(1.01395 0.0185968 -8.76467e-21)
(1.03293 0.107398 -1.41593e-20)
(0.999929 0.0189348 6.97987e-23)
(0.898295 0.118837 1.91713e-20)
(1.03192 0.105177 9.52211e-21)
(1.04771 0.019371 -9.38196e-22)
(0.936065 0.074863 7.65259e-22)
(0.988515 0.00869447 0)
(0.984831 0.0464156 -1.65526e-22)
(1.0229 -0.00891298 4.10856e-22)
(0.790892 0.0269808 -2.9473e-20)
(0.983157 0.0480233 1.67276e-22)
(1.00805 0.0403456 1.52016e-22)
(0.989432 0.11976 0)
(1.00019 0.0819896 -2.19213e-21)
(1.001 0.0333648 2.72057e-21)
(1.01217 0.123523 -7.16422e-21)
(1.05239 0.178203 -2.63592e-20)
(1.01051 0.0385536 1.23355e-21)
(1.03532 0.10768 4.54051e-21)
(0.998051 0.0154356 -2.93353e-21)
(0.998679 0.0817531 1.65274e-21)
(1.03125 0.118481 1.11545e-20)
(1.00848 0.00220561 -8.78268e-21)
(1.05885 0.0533015 1.59928e-20)
(1.02168 0.0418078 9.83172e-23)
(1.00114 0.00175222 -2.62816e-21)
(1.00363 -8.82078e-05 0)
(1.0059 -0.0119921 2.54058e-23)
(0.698904 0.0833517 0)
(0.997927 0.091842 -1.51762e-21)
(1.00614 0.0252058 0)
(1.00687 -0.013665 0)
(0.995685 0.00197739 2.22508e-21)
(1.0371 0.0858471 7.76579e-21)
(0.961131 0.0734791 -6.68298e-22)
(1.00571 0.0150449 -3.04977e-23)
(0.999624 -0.00259822 2.91746e-24)
(1.05169 0.133168 0)
(1.01757 0.094914 7.45946e-21)
(1.00043 0.00112875 4.5698e-21)
(1.00854 0.0396105 7.87343e-21)
(1.01759 0.112178 0)
(0.978955 0.0799201 0)
(0.941804 -0.022606 4.28985e-22)
(1.04009 0.110973 -1.27096e-20)
(1.01342 0.115084 1.1183e-20)
(1.02353 0.0191519 -1.89446e-22)
(1.00672 0.014206 0)
(1.00011 0.0574881 0)
(1.00371 -6.55401e-05 0)
(1.00641 0.0151868 1.82646e-24)
(0.99311 0.011154 -3.27356e-21)
(1.00744 0.0143942 0)
(1.02238 0.018508 3.40268e-22)
(0.825907 0.109309 2.54865e-20)
(0.998031 0.0164985 3.07146e-21)
(1.01484 0.0730919 0)
(0.337567 0.0253718 0)
(1.04131 0.0876821 0)
(1.00855 -0.00859339 0)
(1.03005 0.0139325 2.55239e-21)
(1.02086 0.122164 3.1694e-20)
(1.00329 0.0579721 0)
(0.46546 -0.00785565 5.14467e-21)
(1.00335 0.0166093 -5.30915e-23)
(1.01683 0.00826413 -5.85096e-21)
(1.00044 0.0201612 -5.84635e-23)
(1.01867 0.0122891 2.58034e-22)
(1.00328 0.0399247 -1.70681e-21)
(0.987013 0.00685243 -5.36926e-22)
(1.01869 0.110158 7.68373e-21)
(1.04919 0.0380665 -6.3578e-22)
(1.01333 0.187149 2.57534e-21)
(1.01635 0.00822583 5.38078e-21)
(1.0616 0.0762505 3.1103e-21)
(1.05452 0.0388577 0)
(0.994289 0.0179006 -1.33531e-21)
(1.0255 0.0949465 1.5767e-20)
(1.02752 0.118814 4.03779e-21)
(1.01266 0.0219974 4.04807e-21)
(0.965774 0.0830464 3.84577e-21)
(1.00764 -0.00843497 -5.13065e-22)
(1.00412 -9.66042e-05 2.35244e-21)
(0.996308 0.00135073 -2.85996e-21)
(0.988771 0.0100108 1.19731e-21)
(1.00936 -0.00787552 9.46218e-22)
(1.00508 0.000912337 2.81456e-21)
(0.787165 0.124858 -3.35424e-21)
(0.877269 0.110107 -4.15713e-21)
(1.00959 -0.00758155 -9.47083e-22)
(1.00837 0.105169 -5.05984e-21)
(1.04949 0.129232 0)
(1.01742 0.000986775 7.0035e-21)
(1.03976 0.0901665 -4.76463e-21)
(1.08793 0.122787 4.20658e-21)
(0.972051 0.117726 2.20432e-20)
(1.06211 0.0561803 2.6775e-20)
(1.01732 0.17311 7.22421e-22)
(0.989077 0.0599154 -5.57787e-23)
(0.990492 0.0577596 -1.0125e-22)
(0.987173 0.00826111 7.38329e-22)
(0.966052 -0.0293356 0)
(1.05722 0.0409501 0)
(1.0001 0.0342734 0)
(1.02641 0.113137 0)
(1.01211 0.0011445 -2.67602e-22)
(1.00629 0.0196434 4.65832e-21)
(1.00364 0.0274743 0)
(1.06421 0.0498464 -3.79589e-21)
(1.00648 0.0628627 -3.33821e-21)
(1.03558 0.11475 3.07952e-21)
(1.0543 0.0943184 -1.9881e-20)
(1.07348 0.0149996 1.62756e-21)
(0.985715 -0.018215 2.21536e-22)
(0.981732 0.0700057 -2.41976e-22)
(1.01433 0.0801991 4.15029e-21)
(1.00561 0.0245819 0)
(1.00735 0.106647 8.12054e-22)
(1.04582 0.0763541 0)
(1.02438 0.0604136 0)
(0.906735 0.121549 0)
(1.00848 0.00290664 -8.44265e-21)
(1.01389 0.0811934 8.08422e-21)
(1.02632 0.101283 2.16425e-20)
(1.00478 -0.00148656 -3.11465e-21)
(0.602113 0.0987791 5.67799e-22)
(1.00396 -2.66825e-05 0)
(1.01808 0.0124799 0)
(1.03764 0.0870279 -4.65485e-21)
(1.00418 0.0168117 0)
(1.00258 0.000230491 0)
(1.02497 0.0986061 6.77629e-21)
(0.665658 0.131318 -2.35034e-21)
(0.963415 0.122167 1.30524e-21)
(1.00551 0.00520501 0)
(1.0432 0.02968 0)
(1.07515 0.000899643 -1.47276e-21)
(1.02445 0.111489 0)
(1.01702 0.099946 5.74763e-21)
(1.00529 0.0228472 0)
(1.00692 0.0216711 -1.04853e-21)
(1.00553 0.00456477 1.22702e-21)
(1.03018 0.0874483 -6.67848e-21)
(0.797645 0.0235984 2.74829e-21)
(1.00949 -0.0143264 1.54353e-22)
(1.00566 0.000583593 0)
(0.994442 -0.00827603 8.73648e-22)
(1.0015 0.00190508 0)
(1.0152 -0.0336243 -1.09986e-22)
(1.03503 0.0624805 0)
(1.01098 0.00108672 2.09056e-22)
(1.05285 0.0943625 9.30805e-21)
(1.00485 -0.00135103 0)
(0.995403 0.00387607 -1.24871e-21)
(1.02202 0.0409626 -2.28665e-21)
(0.863701 0.0568628 -1.99559e-20)
(1.01637 0.000404042 3.60002e-22)
(1.0508 0.0408756 0)
(1.02922 -0.02382 1.25195e-22)
(1.06158 0.0747011 -2.74052e-21)
(1.03945 0.0948655 -5.22108e-21)
(0.993836 0.0722253 -6.48845e-22)
(1.0283 0.0896919 0)
(0.99917 0.0903744 1.99566e-21)
(1.01916 0.0387455 6.60471e-21)
(0.982348 0.0683762 -2.20395e-21)
(0.899278 0.142519 1.21256e-21)
(0.848395 0.104625 0)
(0.361937 0.0378404 0)
(1.01233 -0.0129683 2.99246e-22)
(0.99689 -0.000226911 0)
(1.07649 0.0172278 -2.10893e-21)
(1.01667 0.0139096 0)
(1.0349 0.101171 -1.26402e-20)
(1.00968 0.0138103 -1.51564e-22)
(0.747801 -0.145915 -1.11264e-21)
(1.02961 0.0544077 -1.99859e-20)
(0.991871 0.130173 -2.74851e-22)
(1.00016 0.0871446 1.14611e-21)
(1.06434 0.0372836 -2.7967e-20)
(0.0287295 -0.0717608 0)
(1.01022 -0.00790005 4.5163e-22)
(1.08341 0.112105 -1.62613e-20)
(1.01058 -0.000483692 -1.36741e-22)
(1.04973 -0.0331067 1.36904e-22)
(0.975263 0.126063 0)
(1.00457 0.0158505 0)
(1.03147 0.135391 1.4206e-20)
(0.996989 -8.27199e-05 0)
(1.01618 0.000622285 -7.55072e-21)
(0.996308 0.000288092 0)
(1.03651 0.115228 0)
(1.01736 -0.0343413 1.53913e-22)
(1.01689 0.00464393 1.67991e-22)
(1.04683 0.118567 -7.12877e-22)
(1.03916 0.0889886 2.37048e-21)
(0.794925 0.0668786 5.92016e-22)
(1.02086 0.106847 -7.21135e-21)
(0.800571 0.141171 0)
(0.95348 0.117304 -2.17596e-20)
(1.01631 0.000283562 -4.83289e-22)
(0.555111 -0.00770804 -5.43839e-21)
(0.996611 -0.000208687 1.48533e-23)
(0.852793 0.0995731 8.38117e-22)
(0.787077 -0.0833358 0)
(1.05314 -0.0369472 0)
(0.983495 0.0239401 -4.17247e-22)
(0.996779 8.74958e-05 6.8805e-24)
(1.04549 0.0755151 -9.09943e-21)
(1.06237 0.0348226 1.19621e-20)
(1.00535 0.0160313 4.42248e-23)
(1.00983 -0.000483863 3.51285e-22)
(1.01057 0.000592884 5.88513e-21)
(1.0226 0.108149 6.49142e-21)
(1.0063 0.00699019 5.31004e-21)
(1.06706 0.104899 2.75593e-21)
(1.00597 0.0187753 -4.60225e-21)
(1.01634 0.00456345 -2.46695e-22)
(1.00245 0.000663172 4.8049e-23)
(1.02277 0.102074 -5.16831e-21)
(1.03496 0.113008 8.29205e-21)
(0.30365 -0.00972524 1.98143e-20)
(1.0482 0.101996 3.67788e-21)
(1.03619 0.0621025 -1.27671e-20)
(1.03509 0.109442 0)
(0.668935 0.0209655 0)
(1.02394 -0.00954098 1.90127e-22)
(1.02292 0.115201 -9.38134e-21)
(1.01042 0.000416331 -3.20806e-21)
(1.07865 0.140059 -4.2671e-21)
(1.01603 0.0140467 0)
(1.03267 0.107521 0)
(1.00168 0.00150351 0)
(1.01304 -0.0348421 2.88962e-22)
(1.03233 0.0154342 -1.94979e-20)
(0.792539 0.0650913 -3.01708e-21)
(1.04231 0.0765879 4.62637e-21)
(1.04504 0.100532 8.66615e-21)
(1.01285 0.000706775 0)
(1.04059 0.0745028 5.82664e-21)
(1.01482 -0.0188533 0)
(0.997161 8.72375e-05 0)
(0.795468 0.0296516 -7.55393e-21)
(0.993546 0.0878604 -2.77156e-23)
(1.01655 -0.0210001 0)
(1.03302 0.103209 -1.84299e-21)
(1.01722 0.00354664 9.30252e-21)
(1.05366 -0.0249299 -4.49747e-23)
(0.99676 2.73404e-05 -6.82091e-23)
(0.817781 0.0397853 7.64032e-21)
(1.00667 0.00706451 -5.95331e-21)
(0.985643 -0.02273 1.62773e-22)
(1.00906 0.0137308 0)
(1.01622 -0.0201925 1.18112e-22)
(1.03508 0.109518 -6.48934e-21)
(0.996668 5.98934e-05 2.13852e-23)
(1.03541 0.103778 -4.10343e-21)
(1.01035 -5.84782e-05 4.71686e-23)
(1.00549 -0.00256892 -8.26582e-22)
(0.799323 0.101931 0)
(1.06652 0.106402 -3.29913e-21)
(1.00514 0.0218826 3.25547e-21)
(0.257725 -0.0117189 2.61756e-20)
(1.03317 0.136539 -1.51866e-20)
(0.956945 0.0662388 -3.8676e-22)
(1.02549 0.101088 -6.49475e-21)
(1.01044 -0.00760287 -8.60704e-22)
(0.973409 0.0330826 4.93484e-22)
(0.841898 0.049307 -1.20403e-20)
(1.03757 0.159402 0)
(1.00111 0.0562691 2.13975e-21)
(1.00484 0.0415772 1.06405e-21)
(1.01194 -0.0363266 -3.46728e-22)
(1.01157 -7.96821e-05 0)
(1.00352 -0.00927399 -1.47697e-22)
(0.947965 -0.0416721 1.28125e-22)
(1.03758 0.0957035 -8.75697e-21)
(1.02377 0.0508052 0)
(0.874985 0.121038 0)
(1.04317 0.0776176 -1.88857e-21)
(0.955428 0.0748138 4.81172e-22)
(1.01586 0.100151 -1.22308e-20)
(0.992486 -0.0529149 -1.46236e-21)
(1.02988 0.0732532 -5.701e-21)
(1.03294 0.104675 8.38256e-21)
(0.650756 0.00711215 -1.42016e-21)
(1.0259 -0.0194223 0)
(0.995891 -0.0353133 -7.39743e-22)
(0.941777 -0.0513979 0)
(1.00522 -0.00231397 0)
(1.014 0.000284179 -9.68564e-23)
(1.00179 0.000616241 2.60736e-23)
(1.07881 0.00270169 -9.47477e-22)
(1.00317 0.000546844 1.65778e-21)
(0.565836 -0.00653169 1.49152e-21)
(1.08284 0.0736104 0)
(1.00974 -0.00119059 0)
(1.04806 0.111371 0)
(1.01338 0.00073649 0)
(0.908078 0.0761322 9.4332e-21)
(1.03351 -0.0225008 0)
(1.00838 -0.0127878 -1.86411e-22)
(0.618048 0.119038 -3.11411e-21)
(1.04125 0.0938807 6.10939e-21)
(0.991474 0.00711929 5.60713e-22)
(1.0336 0.0193578 -8.00323e-21)
(0.991268 0.0173663 1.40524e-22)
(1.01205 -0.0146514 -7.92771e-22)
(1.03988 0.0253058 5.48333e-23)
(1.05044 0.0628196 -1.45148e-21)
(1.00091 -0.0012915 -2.93302e-21)
(0.410175 0.000736919 0)
(1.02255 0.064076 1.66148e-21)
(0.805459 -0.0786176 -7.08402e-22)
(1.01012 0.0107381 -6.00838e-22)
(0.997245 -0.0373557 0)
(0.795315 0.144189 5.36664e-21)
(1.04239 0.0304009 -1.53987e-20)
(1.00921 -0.000596735 3.35709e-22)
(1.01519 -0.0196138 7.54443e-24)
(0.577848 0.0342538 -5.68365e-21)
(0.980967 0.124251 0)
(1.02791 0.0557014 0)
(0.462479 -0.00260156 5.08954e-21)
(0.76056 -0.143068 -5.88187e-22)
(1.00594 -0.00321223 4.22521e-22)
(1.00957 -0.0130428 3.08109e-22)
(1.00179 0.0395714 1.70915e-21)
(1.01573 0.164687 4.42724e-21)
(1.02213 0.0274044 -2.43631e-22)
(1.04094 0.0769851 -4.08443e-21)
(1.03886 0.0249054 5.91056e-21)
(1.04985 0.0416107 0)
(1.07993 0.142799 3.28065e-22)
(0.988391 -0.014627 0)
(1.0345 0.102731 0)
(1.08103 0.0747535 -4.30801e-21)
(1.00238 0.025712 1.13548e-21)
(1.02545 0.0335706 -3.75942e-22)
(1.00869 -0.000613029 1.13668e-22)
(1.04947 0.0620583 0)
(0.987393 -0.0198209 2.57811e-22)
(1.04773 0.180104 2.09693e-20)
(1.01049 0.0476467 2.64326e-21)
(1.08038 -0.0260292 3.64419e-22)
(0.431595 -0.00112244 1.59111e-20)
(0.990527 -0.0165591 -3.50729e-23)
(0.753148 -0.150165 -1.31901e-22)
(1.00573 0.0404957 -3.43955e-21)
(0.978154 0.048843 4.19618e-22)
(1.03435 0.0542633 0)
(1.03883 0.157478 -9.16398e-21)
(1.01198 0.000223293 0)
(1.08659 0.108686 -2.85027e-20)
(1.03237 0.11213 -1.83037e-20)
(0.942478 -0.0528058 -1.86452e-22)
(1.01805 0.014261 0)
(1.01172 0.0478839 0)
(1.0017 0.000290126 -3.30024e-21)
(1.01495 0.0106543 -6.13957e-21)
(1.03276 0.0137219 0)
(0.958288 0.00691674 2.49805e-21)
(1.05173 0.0399872 0)
(1.02318 0.101635 2.59852e-21)
(1.03472 0.103646 2.0108e-21)
(1.0113 -0.0075409 0)
(1.03812 0.17879 0)
(1.07041 0.0448865 0)
(1.06333 0.0507784 1.99745e-20)
(1.03338 0.104068 0)
(0.994849 0.0142884 -2.38512e-21)
(1.08114 0.11179 0)
(0.990078 0.0930827 0)
(1.01632 0.00240474 -4.4044e-23)
(1.04231 0.094115 1.21218e-20)
(1.0241 0.0920872 6.36136e-21)
(1.07895 0.073933 0)
(1.00513 -0.00801023 0)
(1.00848 -0.0077312 5.04629e-22)
(1.00393 -0.00967283 8.18232e-22)
(0.609664 -0.0101961 -2.36201e-21)
(1.02482 0.031634 -6.57141e-21)
(1.03746 -0.0242439 -5.28362e-23)
(1.08693 0.0842484 0)
(1.00054 -0.000979677 2.95898e-21)
(1.00855 -0.00959485 0)
(1.03001 0.0996947 -1.62872e-20)
(0.991538 0.0912476 0)
(0.948713 -0.00229882 6.59378e-22)
(0.976785 0.0822933 2.24274e-21)
(0.999437 0.0720514 0)
(1.00799 0.205992 0)
(1.03359 0.0132261 -1.54031e-20)
(0.979431 -0.00728936 -8.37493e-22)
(1.03505 0.108677 -2.10055e-20)
(1.05789 -0.0358123 -1.15951e-23)
(1.00017 -0.027955 7.34184e-22)
(1.00966 0.000619232 -5.43263e-23)
(1.014 0.000105517 0)
(1.03104 0.0202682 1.36491e-20)
(1.00839 0.0485542 -2.69212e-21)
(0.994241 0.0735023 0)
(1.00545 -0.00817228 0)
(0.960683 0.0207943 -5.97222e-22)
(0.997575 -0.0111606 0)
(0.769096 -0.0400879 0)
(1.00684 0.0409861 -5.48319e-22)
(1.06337 0.0551637 -9.8339e-21)
(1.00296 0.01753 0)
(1.04608 0.103021 -2.15414e-20)
(0.97771 0.0297599 1.23921e-21)
(1.04369 0.120018 -2.66695e-21)
(0.94531 0.000250166 6.69386e-22)
(1.00816 0.000406802 0)
(0.872579 0.0626853 -1.86992e-20)
(1.02418 0.0346238 -4.86966e-21)
(0.532322 0.0113088 1.62316e-21)
(1.06297 0.0320908 1.10414e-20)
(0.930012 0.00211546 -3.23569e-21)
(0.98792 -0.0113439 0)
(1.01467 -0.0128668 0)
(1.01799 0.0135289 -6.72175e-21)
(0.939443 0.100683 -6.59773e-22)
(1.04691 0.0618482 0)
(0.95764 0.0692437 0)
(0.981182 0.0753339 1.94116e-21)
(1.01479 0.0102955 -5.70211e-21)
(1.0776 0.0750229 0)
(0.999783 -0.00492244 -7.06004e-25)
(1.01777 -0.0390168 1.15948e-21)
(0.79982 0.0786263 0)
(0.999558 -0.00537335 1.21424e-23)
(0.859389 0.113609 -2.31518e-20)
(1.05336 0.040695 0)
(0.928045 0.00652563 3.53409e-21)
(1.04179 0.108287 0)
(0.988064 -0.0616231 -4.15872e-22)
(1.02265 0.0034196 8.5635e-23)
(1.01449 -0.000183095 -1.39105e-22)
(1.01915 0.0934425 0)
(1.01111 -0.00788611 0)
(1.00446 0.0189903 -1.04813e-21)
(1.01231 0.0376165 5.27244e-21)
(0.997575 -0.00171994 0)
(1.085 0.085281 0)
(1.02195 0.00350594 1.07016e-22)
(0.990186 0.0781246 0)
(1.0013 0.0252104 1.08276e-21)
(0.69866 -0.00738061 -1.21146e-20)
(0.507389 0.0107345 9.29468e-22)
(0.929584 -0.0816249 0)
(1.00809 0.194796 0)
(0.970522 0.0910116 0)
(0.692535 -0.0116996 1.32005e-20)
(0.918341 -0.0930389 4.13886e-22)
(1.00779 -0.00385435 1.48246e-22)
(1.05606 -0.0199329 -6.51067e-23)
(1.02273 0.017199 0)
(1.01838 0.0343825 0)
(1.00532 0.00475766 -2.59426e-21)
(1.0481 0.0627119 -1.85915e-21)
(1.0046 0.0081015 -1.51835e-21)
(0.963672 0.0746746 0)
(1.00468 0.019903 2.22266e-21)
(1.01917 0.116143 -6.06888e-21)
(1.02496 0.0303481 0)
(1.08262 0.0636282 7.21263e-21)
(1.01696 0.0909208 -2.48566e-22)
(1.01459 -0.0146988 -4.59426e-22)
(1.01261 0.0721024 -4.61517e-21)
(1.02335 0.0348803 0)
(1.04077 -0.0364356 -4.70196e-24)
(1.04089 0.0550143 1.11818e-20)
(0.998816 0.0185823 -6.96303e-23)
(0.763477 0.155071 0)
(1.03687 0.096664 -1.55025e-20)
(0.956067 0.00636496 -3.40718e-22)
(1.01079 -0.0132337 0)
(1.02541 0.00475973 0)
(0.992757 -0.00182193 1.9685e-21)
(0.996654 -0.0110661 1.58991e-22)
(0.921167 0.121444 0)
(1.0072 -0.00381409 6.8104e-22)
(0.995324 0.0888687 0)
(1.00195 0.00164101 -8.27548e-22)
(0.990755 0.0648541 -3.00851e-23)
(0.976001 0.022399 0)
(1.00166 0.00523605 1.12958e-21)
(1.0861 0.11049 0)
(1.00903 -0.0269588 0)
(1.00703 -0.00400313 0)
(1.01244 0.0122745 -8.68371e-22)
(1.02488 0.11413 1.0952e-20)
(0.995687 0.0363428 4.29343e-21)
(1.04792 0.104586 -2.94589e-20)
(1.01317 -0.00860252 3.47999e-22)
(0.996836 0.0874148 1.30688e-21)
(0.994906 0.0195005 9.55138e-23)
(0.996003 -0.00981205 -6.24667e-22)
(0.758088 0.0128264 0)
(1.0133 -0.0002483 0)
(1.03431 0.0312391 0)
(1.04777 0.110025 0)
(0.739368 0.00569231 0)
(0.993867 0.0205943 1.22276e-22)
(0.862155 -0.101697 2.40278e-22)
(1.035 0.108323 1.40604e-20)
(1.05291 0.0154366 0)
(0.985414 -0.000537457 0)
(0.996958 -0.00128766 -4.7374e-22)
(1.01617 0.114386 -5.81388e-21)
(1.02395 0.00510878 -1.78994e-20)
(1.04504 0.119259 -1.15624e-20)
(1.02179 0.0214653 6.0363e-21)
(0.610864 0.105013 0)
(0.976509 0.0262341 0)
(1.01985 0.0981037 0)
(1.00614 -0.0130028 0)
(0.997154 0.00984984 -7.04056e-25)
(0.983961 0.0514752 6.13422e-22)
(1.00362 0.000554721 0)
(0.992248 -0.0171495 -2.58402e-23)
(0.934737 0.150841 -4.24648e-22)
(1.00607 0.034813 0)
(1.0037 -0.00113492 1.20804e-21)
(0.787417 -0.0948007 0)
(1.05172 0.017605 0)
(1.05879 -0.0176341 -3.55568e-22)
(1.03863 0.0958906 6.16986e-21)
(1.00981 0.0374856 -2.45641e-21)
(1.03756 0.100469 9.57117e-21)
(1.01539 0.0719266 5.51037e-21)
(1.08319 0.121246 0)
(1.02512 0.100102 -5.45359e-21)
(1.04839 0.0411829 -5.23951e-21)
(0.671655 0.0988027 1.39895e-21)
(1.00064 0.0271774 7.07389e-21)
(1.0405 0.0950234 -6.08096e-21)
(1.01896 0.00862335 -7.46257e-22)
(0.42248 0.0251421 0)
(0.990947 0.0621997 0)
(1.03638 0.0193579 0)
(0.996109 0.0201188 0)
(1.0407 -0.030786 1.21174e-22)
(1.00599 0.0233469 0)
(0.996954 0.019094 1.86317e-22)
(1.03223 0.0124939 0)
(1.04363 -0.00718905 3.53424e-22)
(1.01858 0.0126155 3.27255e-21)
(1.03263 0.0632394 0)
(1.0159 0.00235093 8.21541e-23)
(1.00674 0.0338615 7.34112e-21)
(1.05638 0.107563 2.08248e-20)
(0.898523 0.112912 -1.01436e-20)
(1.04387 0.120327 8.04921e-21)
(1.04907 0.108805 0)
(0.992486 -0.000613987 1.61991e-21)
(0.986038 0.0527574 -7.16868e-22)
(1.00485 0.00687139 -2.66378e-21)
(1.03473 0.108561 5.28542e-21)
(0.793536 0.0490033 -2.67825e-21)
(0.176016 -0.0167631 -1.38217e-20)
(1.01531 0.0133601 1.11997e-22)
(1.00763 -0.00406246 0)
(1.0121 0.00186506 -2.73482e-21)
(1.00031 0.0144883 -1.6086e-21)
(1.01471 0.0129607 1.05437e-22)
(1.00161 0.0204061 1.1223e-22)
(1.00883 0.00918245 0)
(1.0296 0.0744289 -1.94187e-22)
(1.0036 -0.000846585 -3.74774e-21)
(0.674764 0.0290353 0)
(0.828897 -0.0992253 -1.34323e-21)
(1.00366 -0.00299589 3.1362e-21)
(0.962361 0.106017 1.17808e-21)
(1.01951 0.00895465 0)
(1.00525 -0.0114801 -5.27978e-22)
(1.00982 -0.0382526 0)
(0.839343 0.0465622 -1.62553e-20)
(1.01235 0.0815796 -3.08082e-21)
(1.00068 0.000656771 -1.26331e-23)
(0.990646 0.0118094 -2.58264e-22)
(1.0186 -0.0186518 0)
(1.00738 -0.0133815 0)
(1.02886 0.176456 -1.55361e-20)
(1.05692 -0.0231752 2.15087e-22)
(0.982296 0.085525 -5.28084e-23)
(1.03535 0.0320582 0)
(0.921189 0.00784603 0)
(1.00791 -0.00814658 0)
(1.04492 0.00126056 5.36394e-22)
(1.00572 0.0591266 -7.28217e-21)
(1.01288 -0.0546502 4.2772e-22)
(1.01973 0.0379188 0)
(0.692433 0.0307661 0)
(1.01889 -0.0194092 3.19388e-23)
(1.00162 -6.87224e-07 -2.48552e-21)