/*--------------------------------*- C++ -*----------------------------------*\
| =========                 |                                                 |
| \\      /  F ield         | OpenFOAM: The Open Source CFD Toolbox           |
|  \\    /   O peration     | Version:  v2012                                 |
|   \\  /    A nd           | Website:  www.openfoam.com                      |
|    \\/     M anipulation  |                                                 |
\*---------------------------------------------------------------------------*/
FoamFile
{
    version     2.0;
    format      ascii;
    class       volScalarField;
    location    "150";
    object      omega;
}
// * * * * * * * * * * * * * * * * * * * * * * * * * * * * * * * * * * * * * //

dimensions      [0 0 -1 0 0 0 0];


internalField   nonuniform List<scalar> 
13851
(
0.0266558
1.23595
0.103877
0.0261111
0.100512
0.0669724
0.0218402
0.05477
0.0212196
0.218494
0.114323
1.35251
2.61544
3.06247
0.0214987
0.0391334
0.0267086
0.0335934
2.70259
0.0211774
0.0257703
0.0991078
0.0224619
0.0234052
0.0229308
0.055857
0.0253381
9.21561
0.0262882
0.0266652
0.224592
0.0271577
0.097262
0.369891
0.0234477
2.20863
3.30548
2.48322
0.530746
0.391141
0.0219377
0.0198786
3.09833
0.209636
0.189573
1.95809
0.23804
0.665507
0.025622
0.0410716
0.0868748
0.959741
2.42479
0.0217505
0.0238857
0.0198859
0.021807
1.27521
0.0263133
0.0219474
2.47183
1.72742
0.0675397
0.123875
1.57746
0.0296763
3.31693
0.256819
0.0371738
0.0333444
6.03693
3.31105
1.30771
0.0219258
0.021159
0.0218973
0.0938137
4.57477
0.054136
5.56406
0.0223316
0.236017
0.0215388
2.47005
0.0788102
1.36526
0.0560466
1.39916
0.0271086
0.0221525
2.04561
0.0414091
0.271443
0.0299364
0.0268088
0.0227085
0.104288
2.00971
0.0448162
0.0227239
2.1766
0.0571736
0.0237985
0.0247246
0.0225522
0.0757036
0.0638005
0.0197305
3.13107
0.0819426
0.0231154
0.0223085
0.0392633
0.0236964
0.0231365
0.972728
2.0207
0.0197742
0.0250891
0.0250285
3.32379
0.0245831
2.54178
0.628138
0.685478
0.0231051
0.631243
0.0558571
0.0254298
1.69945
0.0218862
0.0209637
4.59512
0.0215266
0.997423
0.0212798
0.0197875
3.28869
1.34344
3.48627
1.79527
0.0236759
0.0260406
0.0204698
0.0246222
0.245959
0.0243976
1.86781
0.0218176
0.173774
0.086339
0.0240177
3.42048
0.0218383
0.0238364
0.0245114
0.0216568
0.0248326
1.00443
0.0849801
0.0199081
0.0294864
1.30903
0.0209472
0.0320491
0.0201583
0.0247475
0.0377363
0.0251703
2.22746
5.7784
0.0206483
0.0216841
3.30833
0.0209143
0.665261
0.05403
0.0259186
2.70764
0.0197499
0.028236
3.26224
0.021503
0.108715
0.0197146
0.0222728
0.0299428
0.022555
0.121084
0.181552
0.257557
1.83361
0.0227769
0.0376442
1.74981
0.023647
0.0255205
0.40234
0.0255187
0.0219755
0.0232028
1.84492
0.0277055
0.0214867
0.092491
0.0215222
1.45435
0.0268257
2.43631
0.0197862
2.41043
0.0236097
0.355754
0.0196874
0.0203179
0.0648969
0.0616787
1.75888
0.0214273
2.35051
0.0270583
0.0223947
2.22768
0.92791
2.32725
0.0227021
0.0324216
0.0232247
1.25739
0.0196863
0.0543007
1.4985
0.0206226
0.0225953
0.0740383
0.0541895
1.50778
1.63601
0.0204322
0.021504
0.228413
0.268054
0.020485
0.103592
0.0214727
2.22924
0.0591411
0.414663
0.0247157
0.0283767
0.0340141
0.298121
0.022568
0.0248211
0.0578591
1.0512
0.157788
3.24174
18.6069
0.0215402
0.0203532
0.0319648
0.937822
0.0212234
2.54186
0.0236358
0.0224958
0.0292943
2.29744
0.0308538
0.0338663
0.0238375
0.711093
0.0511912
0.0379261
0.0209893
0.233838
0.0312041
2.46953
0.108066
0.0204836
0.0197272
0.0224427
0.0551615
0.893726
0.643704
0.0215073
0.0215117
0.760962
0.228064
2.33598
0.0257795
0.0219737
0.0404876
0.235455
2.59422
0.0310235
1.34619
0.0210362
2.24034
0.0290277
0.0265819
2.45937
0.0224258
0.0875867
2.17933
0.0214409
0.0478786
0.0301259
0.0254438
1.324
0.0313182
0.0225162
2.12541
0.0199572
0.0287022
0.0239453
2.56106
0.172336
0.021432
0.0588939
0.0214604
7.20967
0.0371986
0.0222032
0.022431
0.166501
0.0315469
0.0236632
0.0215124
0.0223767
0.0224575
0.145238
5.99328
2.00258
0.0382633
2.55375
2.02993
0.0214403
0.0386143
2.36047
0.0471683
0.068849
0.184623
2.67097
0.0306679
0.709226
2.20689
0.0215233
0.0338129
0.0341117
2.20148
0.0236396
0.068875
1.19612
0.0217629
0.577846
0.0224162
0.0214668
0.0211458
0.0197283
0.0214638
2.25514
0.335221
0.0217075
0.0461822
0.0200434
1.3258
0.0485312
0.633327
2.11528
0.0217496
0.0614799
0.0303907
0.63188
0.02175
0.0197974
0.0359788
3.22046
0.0218424
1.33938
0.0462186
0.302781
2.36506
0.0705825
0.072293
0.0309501
0.0210088
0.0224773
0.0363745
0.0578903
3.64605
0.0375561
2.39774
2.1956
0.0200647
0.0215531
2.07913
4.22905
1.51255
2.05087
0.0367929
0.0312216
0.0227512
2.11073
0.020907
0.0380575
0.030187
0.0217722
0.0229402
0.0213825
0.0201356
0.118238
0.0659565
4.15045
0.0343155
0.0624379
0.042411
0.277633
0.0297801
2.14831
0.0262056
0.056163
0.0197701
0.0213268
0.0226383
2.42474
0.372172
0.818892
0.040993
5.88482
0.339264
0.0501613
0.0254799
0.0760333
0.0216957
0.298006
0.0223284
1.95448
0.393737
0.0894921
2.6285
0.026129
0.0301641
0.390703
5.84052
0.0196442
0.0330416
0.0556411
0.0319462
0.0207813
0.0225126
0.0797341
0.30982
0.0405127
1.96489
0.0225249
0.022613
1.91367
0.0333296
0.019701
1.32702
0.0209993
0.0266491
0.0209164
0.0510117
0.0242554
0.0197544
0.0257948
2.16123
0.021559
0.0403062
0.0211164
0.0360494
0.0370558
0.0240471
0.0220283
0.0237758
0.0236643
0.675529
0.0224321
0.0556071
0.0214915
0.0224458
1.71366
2.8215
0.0215597
0.0373373
0.0299744
0.288418
2.18311
0.0226253
0.337233
0.0217878
0.101881
0.0218523
1.17623
0.0198127
2.75925
0.139905
0.0199001
0.0374117
2.12529
0.0559797
0.304732
0.0248113
0.592746
0.0246241
0.020862
0.0210365
0.0217512
3.29243
0.0754899
0.423637
2.83526
0.0576989
0.01997
2.2608
0.380201
0.0283964
0.0298117
0.202359
0.588473
2.50541
0.023124
1.15769
2.16548
1.74908
0.0324762
0.0386756
0.596362
0.0314027
0.967917
0.406373
1.84136
0.0251422
1.83206
3.03403
0.0197669
0.0301194
0.078017
3.63488
0.0250206
0.021376
0.02159
0.0216542
0.116656
0.0489924
1.44457
1.83029
0.0211759
2.13321
2.61589
0.437411
0.384667
0.039445
0.0196583
0.0212754
0.0587898
2.20403
0.0239447
0.109426
2.24026
0.0198663
0.0489185
0.488915
2.26503
0.195131
3.06829
3.06683
0.0218449
0.0217858
1.22797
2.17215
0.203153
0.0372313
0.105767
0.0197473
0.0213132
1.9419
0.019829
0.0249165
0.0197295
0.020929
2.97668
0.116316
0.0377077
0.0198127
1.37091
0.401719
0.0210576
0.021427
0.0213216
0.0223621
2.96076
0.40935
0.37088
1.61558
0.62452
0.0351085
4.95695
2.66336
0.0314617
0.037904
0.0196497
0.0238514
0.0407854
2.23301
0.758044
0.107746
0.0318845
0.0210801
0.0388306
0.0258437
0.308253
0.0876615
0.021475
0.0394075
0.0207748
0.0288836
1.12843
0.0219016
0.0216595
0.0484766
0.0219588
0.103517
2.42068
0.457629
0.039737
0.23075
0.0210412
1.18428
0.0356792
1.5351
0.0234423
0.0228066
3.17904
0.026066
2.52926
2.19971
1.52823
1.30048
0.0208851
3.28673
0.020681
0.0209666
0.0197943
0.0209659
0.0222296
0.0356445
0.0479117
0.0197837
1.91049
0.172042
1.87671
0.0214813
0.0198617
0.0213097
2.31931
1.72916
0.0586371
0.0292455
0.0207467
0.0225207
0.0225899
0.0218489
3.02199
2.07375
0.0219169
0.019769
0.0217647
0.0218147
2.0443
1.53664
0.0396275
1.99522
0.56447
0.0216128
0.356688
4.70528
0.0395084
1.36829
0.022321
0.0322786
0.0575356
0.0328885
0.383022
0.0215397
0.595686
0.0226098
0.0322767
2.39143
0.0222568
0.0251285
0.0854053
0.0208997
0.0276005
0.88352
3.49982
0.0844492
2.57069
0.103345
0.0197078
0.0214207
1.44047
2.01233
0.0585349
2.21183
0.0211514
0.0256367
0.0197862
0.621297
3.20779
0.028769
0.0233177
0.0400029
0.0256399
0.0211949
2.95803
1.14576
2.19743
0.0199344
0.0218884
4.7273
3.12866
0.849094
0.0253429
2.87468
0.0215407
0.0490642
2.07843
0.0973556
0.0272384
1.71371
0.0323334
0.0268946
3.26455
0.0227176
0.0276896
0.0245096
0.0210058
2.60647
0.0365401
0.195867
0.0369498
0.0328402
0.0211251
0.924381
0.0245259
0.0322236
0.0199913
0.0215404
0.0219524
2.15477
0.0215176
0.0198464
0.418142
0.0218142
3.46738
0.0228146
0.0258378
0.0806922
1.97952
0.317307
0.0215424
0.403015
1.98287
0.0225023
2.33268
0.0319512
0.0209456
0.0353875
2.8072
0.275134
0.0287914
0.0213879
0.0197476
0.391544
0.115248
0.0743624
0.0303617
0.0354541
0.0226309
0.0255666
0.106249
0.385334
0.11658
0.866707
0.0218535
0.104395
0.104101
2.62789
0.0285958
1.39525
2.82885
0.0218286
2.6132
0.690692
1.88976
3.85105
2.08476
0.218517
0.0494896
0.0209732
0.0355147
1.2222
2.77366
0.0223533
0.0226079
0.0776989
0.22524
0.0199251
2.35757
0.0210926
0.0216804
2.06929
4.65493
0.124568
0.0209667
0.0214808
2.47919
2.99521
0.176798
0.028041
1.96523
2.29785
1.79928
0.062686
0.0453522
0.0225545
0.0218248
1.52588
0.0540069
4.66505
0.0380808
0.0369863
3.12914
1.88052
2.99956
0.021628
0.0332465
0.02104
0.0406339
0.0250069
1.38778
0.0261592
2.32182
0.0199139
0.0791007
0.0214318
2.3032
0.0358722
0.0327793
2.00967
0.047936
0.0540112
0.023431
0.0790557
0.650024
0.194777
0.0251183
5.90916
0.0210937
4.52954
0.324386
0.0221749
2.35934
2.79043
3.11167
0.206219
0.0368624
0.0222263
2.2524
0.0262804
0.946636
2.43586
0.0214512
0.0233517
2.46317
0.39469
1.53014
0.0219178
0.021359
1.47576
2.41594
0.188927
0.0281365
0.0266917
0.33091
1.59732
0.1097
0.0198546
0.0500676
0.0208998
0.0261068
0.0429635
0.0228605
1.99883
0.251604
0.0217143
0.0263766
0.0222966
0.0245563
5.05359
2.11938
0.0324157
1.38744
0.0214105
0.032581
0.0221317
0.0209128
0.0222066
0.0216945
3.30033
0.0215696
0.0579089
0.0216465
0.028979
0.0460616
2.674
0.0248391
1.22297
0.0791939
2.92107
0.0375142
0.0376047
6.09447
0.0288363
0.050606
1.37662
1.01969
2.29526
0.0472207
0.144722
0.0232286
0.0458215
0.0587845
1.47089
0.0223112
2.3049
0.021385
0.0215167
3.216
0.0230396
2.65317
0.0276281
0.0210579
0.0464478
0.0210582
0.0214856
0.021107
0.0222495
3.23526
0.0214863
2.97567
1.51479
0.0802917
2.86556
0.021796
0.0245265
0.0245848
0.0217009
0.0210099
0.0969267
0.0222682
0.0216221
0.0234061
0.0226823
3.36129
2.25313
0.137326
2.04223
3.07855
0.0213179
0.524823
0.0315867
0.0214309
0.325677
0.198693
0.400982
0.021249
0.234475
0.396295
1.09384
0.0206378
2.56084
0.0354614
0.0252694
0.0213051
0.021139
1.62339
0.652734
0.649642
0.0221032
0.0214807
0.541269
0.022193
2.03863
0.29185
1.39341
2.75879
0.293021
0.022402
0.021715
0.0743566
0.036381
0.0247776
2.29153
0.049477
0.022319
0.0264602
2.76941
0.0216993
3.07267
2.85002
0.956554
2.78317
0.0227687
0.0207077
0.0230494
0.292771
0.397476
0.0206391
0.0251852
0.0220257
0.0952288
0.0200512
0.0219065
0.0224617
0.036507
3.19582
0.0524421
0.0387229
0.0220611
0.0570691
2.42481
0.0226911
2.68334
2.16425
0.0981073
0.0202655
0.0492532
0.0213764
0.0222154
0.022896
4.51848
0.1782
0.365444
0.0248522
0.0434956
0.0214243
0.0227615
0.022526
0.517583
0.574652
0.0198818
0.0359954
0.0681291
2.87422
0.0239835
1.27454
0.0222655
1.407
0.105911
2.47504
0.108909
0.0974089
2.3778
2.49612
0.311871
1.8057
0.0216772
2.0421
0.0200292
0.025222
0.0276911
0.022057
2.53884
0.0333839
0.0299358
0.292492
2.6079
0.677044
0.021445
0.0247442
0.0294445
0.0208658
0.0373666
1.30698
0.628351
1.40641
0.0210556
0.028886
0.0287984
0.540326
2.10535
0.0663054
0.0206686
0.0221695
1.19318
0.0544588
1.79247
2.05795
0.0446171
0.0202297
2.9824
0.0364842
0.0504037
0.0311185
2.35506
0.298498
1.0194
0.83788
0.0239325
0.0341424
0.0216698
2.44711
0.0599769
2.66879
0.0390191
0.0275031
1.13
0.0236501
2.40239
2.97959
0.0215443
1.73767
2.31133
1.72795
3.07561
0.0220862
0.0217604
4.88768
2.36684
1.29976
0.0240928
0.0217767
0.0217298
3.29213
0.285578
0.0222334
0.348283
0.125851
1.57376
2.96363
0.631354
0.0215433
2.92516
0.0261123
0.0219961
1.10122
1.70236
0.0218535
0.0214067
3.3839
2.38315
0.0227103
0.0210493
2.6112
0.02117
0.0758186
0.0210473
0.49998
0.0217798
0.0589338
1.52833
2.15137
0.0233024
4.31578
0.26831
1.87868
2.70932
1.40757
0.0451416
0.0213512
2.18507
0.0241819
0.0214599
0.0208168
0.424228
0.0215835
3.30446
0.0214428
0.0271742
4.60285
0.0855771
2.01736
0.0240239
0.0258251
0.0210105
0.0354863
3.13611
1.89894
0.0212124
0.0785577
0.309689
0.0224923
0.0211965
2.31216
0.0381566
0.0418082
0.429342
3.98629
0.623947
3.1783
3.14427
0.0467904
0.0740446
0.392823
1.43573
0.0789662
0.0202563
0.211605
0.0213527
0.0213518
2.65323
2.3458
0.0252805
5.28842
0.993794
3.37661
0.422621
0.139407
0.0216404
0.975552
0.0371947
0.0225747
0.0234341
2.22528
2.07883
1.28309
2.49527
0.047482
2.27205
2.28261
0.0347565
0.0222618
0.021586
0.235272
0.0212676
3.03398
0.023473
0.022635
0.0256148
2.43733
2.61095
1.17016
0.0234269
3.00023
0.0279962
0.0346667
0.0211024
0.0214455
1.35427
0.0304668
2.65475
1.68204
0.264238
0.163244
0.0215528
0.0495609
0.022285
0.204056
0.0255872
0.0238373
0.0232357
0.0238382
2.15658
0.0226859
0.0407513
0.0226914
0.04178
2.32211
4.88431
0.0217142
0.0550193
0.0234424
0.13688
0.0238909
2.10167
2.01781
0.0341086
0.0248204
0.0231653
0.0887505
0.0217638
0.0350271
0.0214968
0.0221937
0.0252931
2.11381
0.0292899
0.0287718
0.0372866
0.0228322
0.0710281
2.06614
2.51885
0.0397312
0.0216594
0.0350335
0.0202442
0.0222581
2.7549
2.29987
0.0226259
0.0360937
0.59913
3.01252
0.0222544
0.0226135
2.38808
0.0235007
0.0384246
3.06072
2.73772
0.0218328
0.0244093
0.0214525
2.28942
0.184596
0.0494485
0.177307
1.18022
0.0230304
2.71663
1.72345
0.0227481
2.3797
0.0985901
0.0232576
1.42113
0.021822
0.0224354
0.0209901
2.56913
0.0674196
1.99977
0.0239671
0.0227764
0.0320863
0.334577
3.18352
2.60639
0.292959
0.0224752
0.185209
1.7844
1.60919
0.099188
0.236486
0.0212903
0.0370477
0.0211812
0.996101
0.0451312
0.0214424
2.76393
2.0629
0.0369307
0.030929
0.0197864
0.022685
0.0665997
0.0399774
0.558897
0.0795839
0.0851104
0.0769876
0.453281
1.56463
0.125861
2.54521
0.0217752
0.0215513
3.05299
1.1975
1.93221
0.144026
0.0240417
3.72502
0.31866
0.0223412
0.0280054
0.0209392
0.0464492
0.0827444
0.0272273
1.80099
3.18608
0.02348
1.85858
5.76788
0.0215314
0.164744
1.3659
1.72269
0.0249928
0.0877777
0.0196761
0.0246994
0.0225356
0.0279519
2.45213
2.03984
1.91213
2.12685
0.0232568
0.0408152
0.0677146
0.0217197
0.0227228
0.0211303
2.28678
0.0212449
2.55783
0.0446519
0.0605948
2.31554
3.19976
4.1705
2.96168
0.0456489
0.020092
0.0246965
2.93319
2.88324
0.0263992
0.0209221
0.0211513
0.0784439
0.034475
0.722818
1.65578
0.0231467
0.0210425
0.171957
0.0341968
5.22647
0.94541
0.0210794
0.0881651
0.0226159
2.41288
0.0203539
2.24974
0.022058
0.0230638
0.038513
0.0223073
0.106374
0.0329769
0.0537995
1.14595
2.06093
0.0270816
0.0335212
0.021599
2.94708
1.09449
0.0231116
0.0204622
0.320677
0.0197407
3.18567
0.0231102
0.0418045
0.0896499
1.12648
0.0472043
0.0253676
0.0217771
0.0808931
2.26596
0.0213694
0.84933
5.70654
0.911283
1.91857
0.0401359
3.00362
0.0266554
2.16147
0.0214139
0.226132
0.270076
2.61731
1.48592
1.52188
0.0233393
0.0472982
0.0214254
6.84173
0.320752
2.16787
1.17239
0.0302961
1.63073
0.456669
0.0420473
0.0246046
0.021893
2.72833
0.0282859
0.0797095
0.0253596
0.0226051
0.0209012
0.0220754
2.00161
3.15598
0.0358631
1.16489
2.64527
0.0227537
0.0214966
0.0212268
0.034877
2.26234
3.2735
0.0284312
0.0287225
0.36165
0.103936
0.0506763
3.36818
0.0347039
2.43753
0.0323292
0.0353132
0.0214463
0.0251027
0.08502
0.384814
0.16188
2.4925
0.0894405
1.41341
0.0291249
0.0260048
0.0228561
1.93547
1.20891
0.614291
0.25644
0.0246813
0.0216899
0.0214865
0.0214962
0.0211715
2.49621
0.0329961
2.27899
0.0379993
1.92987
1.8975
2.23192
0.0392776
0.0275818
1.23273
0.0482341
1.47738
2.65503
0.0208508
0.0866193
0.0296738
5.0592
4.00604
0.0417685
0.395682
0.420048
0.0254051
0.0641574
0.0258641
1.31756
0.341159
0.0254086
0.0217863
0.193443
1.905
1.13912
0.437223
0.23045
0.0354596
0.0220349
1.52708
2.34923
0.108374
0.0334891
2.02716
2.28124
0.0214643
0.021572
0.0257275
2.21754
2.14843
0.0214673
3.63443
0.0225481
0.0216488
0.0223436
2.25933
2.16297
0.037049
2.05248
0.0248638
0.0238054
0.0212773
4.22206
0.0232624
1.3927
0.0273924
1.21065
0.0221592
0.0213715
0.885188
2.60865
0.328386
0.0428707
2.00478
0.0202742
0.0218398
0.0215919
0.0522709
0.0767169
0.076226
0.0450225
2.52035
0.0257989
1.53722
1.47288
1.58741
0.0231355
2.80017
2.36672
0.0262084
0.457668
0.0743003
1.39684
0.0220096
0.0892575
0.0224659
1.48393
6.14739
0.10948
2.36744
0.0260164
0.0534457
0.0240589
3.36601
0.0202078
0.0209304
0.415449
0.17574
1.2352
3.1054
0.0715481
0.0318484
0.0209545
1.20778
0.0375371
0.0226284
0.331665
0.0209914
0.0490614
0.0217016
0.927468
0.0240843
0.2635
0.114047
0.0386612
1.15379
0.068484
2.42302
0.0221281
1.44368
2.3432
0.021107
0.0215762
0.0242809
0.0222072
0.0464718
0.0217942
0.289307
0.0910778
0.0433563
0.166039
0.0224977
0.0224057
0.0210843
2.95726
0.0218772
0.0218431
2.90939
0.0249427
1.23595
2.40878
0.106619
0.0279018
0.0392737
0.023771
0.0225413
0.051261
0.0205773
0.0251575
1.60021
2.25748
2.93816
0.0237197
1.88137
0.713155
0.0222151
0.0366132
2.32901
0.0214749
0.0245821
0.021398
3.05108
1.1868
0.529076
0.0205439
0.0255543
0.0271543
0.0218066
0.82903
0.0223885
0.0639524
2.18381
2.53075
0.0208956
0.0250578
0.0243638
1.27817
0.0197715
1.17455
1.63438
0.103119
1.01768
1.95673
1.7717
0.0259122
0.503308
0.35337
0.0229682
0.0209068
0.0211273
2.36295
1.78521
1.85644
0.0223394
2.43538
0.0220111
2.37355
0.0213358
0.0248225
0.0229267
0.0208616
1.19959
0.0230066
1.96173
2.51566
1.19908
0.0562944
0.0575149
1.20729
2.24905
0.023056
3.42497
0.0210718
0.0198008
0.0214601
0.0278907
0.0218554
1.11586
0.0367622
0.0420048
0.046407
1.51809
1.10617
0.334692
0.0208077
0.0690154
0.100476
1.2163
0.0232425
0.019797
0.0244839
3.02557
0.0232279
0.0617798
1.16173
0.0469705
0.0747623
0.0232493
0.152016
0.0221987
2.25756
0.0205001
2.474
0.0337255
0.0217892
1.12346
1.27431
0.0204944
0.0734013
0.0266778
2.07545
0.0356472
1.61071
0.0402352
0.0222783
0.069014
1.96531
0.0226496
0.0276042
0.0268899
0.0915938
0.0356621
1.62593
2.45927
0.0218376
2.81944
0.0231878
0.0509385
2.13388
1.20632
0.0439195
2.47036
2.21561
0.0217973
0.0707972
0.173065
0.033651
0.0229696
1.97463
0.0205562
4.63089
0.0365265
0.813125
0.0214284
0.0374767
2.69697
0.0515273
1.84273
0.0226138
0.0252675
0.801174
2.06386
0.0275146
2.24384
0.604663
1.10394
0.0224568
2.10897
2.22931
1.21401
0.0215044
0.0242038
0.022369
2.28969
0.0320354
0.20984
0.0737626
0.0223768
0.0209482
0.0214826
1.2243
3.35063
2.19096
1.12337
0.0212192
1.98283
2.36558
0.26124
1.7168
2.5181
0.0427451
5.32765
0.0243687
0.0270916
3.11031
2.38804
0.0230764
5.28456
0.0231255
0.0215975
1.51829
2.53607
2.77839
7.02033
0.0362811
0.0223395
0.0251011
2.54152
1.33566
0.0213521
0.0508986
0.462892
0.0216051
0.0219631
2.40256
1.29788
0.0245299
0.0215354
0.0228578
0.0242941
0.238769
0.0221953
0.0226323
0.0286112
1.76683
1.30873
0.627841
1.84516
0.0218739
0.0273976
2.20923
2.32495
0.0327914
1.13479
0.0214124
0.0407548
0.0253793
0.0234629
0.0856546
0.0224002
0.784101
0.0392095
0.0217589
0.0268942
2.2094
2.18036
3.08256
0.0216257
0.0282911
2.39333
0.615412
0.0253018
0.0230271
0.0215785
0.0929432
0.0220072
0.023109
0.0310023
0.021558
2.24498
0.265986
0.0223063
0.0260267
0.0204191
0.0223328
1.79659
0.455572
0.0843556
1.57711
0.0824781
0.0224269
0.0213919
0.0218047
0.0222567
0.0222141
0.0267958
0.0934303
2.08901
0.0259185
0.197478
3.01522
0.0377904
0.0217426
0.0209432
0.0244387
1.66475
0.0221227
2.10431
3.22058
0.0569881
0.0248074
5.65653
0.0204401
0.0609222
0.0207366
0.0204953
0.0233254
0.0219231
0.0444744
2.49156
1.16939
0.0457384
1.68104
0.55823
0.85974
0.0349363
2.58052
1.51391
0.193417
1.81583
2.41573
0.162809
0.0822675
0.0222362
0.0218862
1.30192
0.0214613
0.0260979
1.42091
0.0373953
1.31007
1.97124
0.0213501
0.0251416
0.0219102
0.0552383
0.0212664
0.0347541
1.31691
2.22038
0.944135
0.0219652
0.0206532
0.0859853
5.14228
2.27609
1.17083
3.23279
0.0211497
3.29449
2.90223
0.0882794
0.0262831
0.0220229
0.0202088
0.0256327
0.0223846
0.0222227
0.0257643
2.29265
0.0947184
2.66936
0.15634
2.26618
2.03783
0.0213998
0.0214341
0.0249116
0.0209151
0.0221833
0.451555
1.96717
0.543544
2.39121
0.0243008
1.11693
2.27276
2.27424
2.56608
0.0222451
0.0218386
0.0720126
0.0220259
0.0205317
0.40797
2.26159
3.14312
0.0216797
0.0218993
0.0283147
0.0454487
2.1206
0.0211138
0.0276379
2.88675
0.0208957
0.347031
0.0448601
1.41275
0.022294
3.15074
4.66681
0.043054
2.53083
0.165325
2.7021
0.0204122
0.0278322
0.0213667
0.0341821
2.02687
0.0226255
1.4544
0.0245181
0.0226364
0.0215348
2.31557
0.0501527
0.182896
0.440907
0.0211718
0.0545716
1.39684
0.0688228
0.0219975
0.0264434
0.0221048
0.0579023
0.0228279
0.0220058
2.34405
2.5934
2.26073
1.95597
2.75631
1.10077
0.0805385
2.45775
1.67316
0.0203013
0.0217836
0.0197588
0.0225064
2.55075
2.48581
0.0210841
1.67417
2.27343
0.0315142
0.025697
0.0272959
1.91633
2.38746
2.32928
1.59514
2.29339
0.0197491
2.76047
0.152551
0.0692208
3.11963
0.0214867
0.195558
1.17614
0.0389934
3.756
0.0229408
0.0354361
1.12119
2.28315
0.0869968
0.0360621
4.59626
0.185461
2.32329
2.2223
2.22631
0.16415
2.20247
0.0219512
0.029953
0.0534661
3.40344
0.134374
2.78385
0.023407
0.999725
0.0927229
0.0234362
2.43106
0.0214815
0.315994
3.42827
0.0214695
1.47066
1.72993
2.24152
2.04878
2.32311
0.323796
0.0220487
2.56072
0.0243145
0.0222978
0.0475917
0.0253541
2.42222
0.0254999
0.0282768
0.0258442
0.0218792
2.03099
0.0243418
0.178926
0.0604528
0.0208507
2.99422
0.150049
0.0260232
1.96261
2.94482
0.0214252
1.4798
0.0227613
2.26654
0.179335
0.0211494
0.169037
0.0244191
2.57873
2.32692
0.0875229
0.839831
0.0308654
0.0215899
1.44178
0.0252073
0.0224287
3.10874
0.0444335
0.021105
0.0217012
1.83506
0.0242157
3.33995
2.79482
0.0363604
1.32577
0.0584542
0.0785531
0.0221933
2.58664
5.11059
1.24041
0.0215174
0.0208865
0.0897572
0.0355333
0.398577
0.0224991
0.47247
0.0226532
1.72727
0.0232114
0.0378255
2.26813
0.163144
2.91517
1.78382
2.29695
2.36804
0.019807
3.1606
3.17264
3.78649
0.0217986
2.4263
4.95719
1.56579
0.164938
2.63386
0.752055
2.60164
0.0495814
2.87827
0.0208474
0.0537089
0.0467641
0.021442
0.0805121
1.23707
0.107026
1.32983
3.38745
0.0213321
0.0213326
0.0376823
0.0214599
0.969542
0.0211627
0.0214128
2.60898
3.12262
0.0411887
0.149599
0.0237438
0.126835
1.56457
2.38441
1.38067
0.0269441
2.35157
0.0260252
0.0209576
0.0241101
2.64512
3.31952
2.71814
3.12091
0.0230782
0.0216212
0.021469
0.0222475
0.0285463
1.77095
3.24334
0.0323417
2.4465
3.36048
0.314907
2.23966
0.0216323
0.0332805
0.204741
0.0215616
0.0250365
0.0294165
0.0254466
1.76114
2.4002
0.0211779
0.043531
0.0335662
0.0895565
1.23399
1.46824
2.53788
0.0233548
0.0969025
2.38915
0.0970644
0.170068
0.145407
1.96251
2.79421
2.41606
0.0210511
2.25984
0.0210447
0.0259083
0.0215832
0.0748068
2.72265
5.93969
0.472054
2.00486
0.0693295
0.0204261
0.0209361
0.0219339
0.0256787
0.0501943
2.55194
2.31655
0.0902243
0.234822
0.0225721
0.0692367
0.0209129
2.25252
0.0954645
0.0231474
2.15748
0.143083
1.4666
2.99469
1.88861
2.79808
0.0271126
1.24472
2.94662
3.00288
0.318058
0.0257879
0.0690324
0.0218213
2.2765
1.795
0.0477359
1.30852
2.87971
1.38313
0.085015
1.99629
0.0524245
0.0210043
0.171909
0.0754679
0.0257563
0.0689624
0.0352332
0.0379538
1.56621
2.03698
0.0250905
0.0350891
0.0417817
0.0382199
0.0262631
1.43731
0.329377
0.0486143
3.97409
0.0216524
2.5209
0.0215564
0.0279721
0.025354
2.47074
0.0464736
2.34734
1.9834
0.0747108
0.0590064
0.177063
2.15344
0.216719
1.01179
0.0285214
0.0500065
0.0223843
2.49261
0.319434
0.028463
0.0222064
0.045507
0.0278555
0.0265511
0.0541132
0.0438075
0.0220463
0.0413361
1.87114
3.263
1.50011
0.0472565
0.0199835
2.25174
0.0358763
0.072642
0.307882
0.0471528
1.35985
0.0205922
0.0269168
0.0279844
0.0403174
0.0215379
2.63707
0.0474733
2.26155
0.0461235
2.45624
3.15792
0.0274689
2.01513
0.0748635
3.08734
2.81101
0.0573746
0.025637
0.0447478
0.0856713
0.0287939
2.91555
3.13675
0.336106
0.0210278
3.2381
2.10821
1.52143
0.021409
0.0508984
0.0225485
0.0355489
2.06914
0.0335389
0.0327021
0.0211276
0.0210292
1.77047
2.59538
0.0223286
1.61963
3.01681
0.0204639
0.0289681
2.51839
0.539648
0.143754
0.0215645
0.0299076
1.14632
0.0224096
0.0216799
1.56125
0.0328774
2.60429
0.100003
0.0282723
2.78535
1.29173
2.35657
0.0211483
0.395268
0.0324555
0.0290249
1.59122
0.0462042
0.022429
0.121847
0.0261725
0.030402
0.0205738
1.41967
0.0216388
0.0813951
2.27585
0.153734
0.0219531
2.50628
0.0338396
1.38985
2.18758
2.86299
0.625769
2.3081
0.0209023
0.0944201
0.0271472
0.0212931
0.398725
1.83127
0.026352
0.18546
0.0284102
0.0888254
2.91342
0.0278913
0.18897
0.922345
1.33902
2.53435
1.78531
0.0257136
0.0213138
0.0865702
0.0436227
0.592102
1.33595
2.24273
1.48436
2.27872
0.0209948
1.54929
0.0215024
0.0230577
0.022008
0.350318
2.24306
0.111686
0.0215097
4.35273
0.0301402
3.13336
0.0223503
0.0794808
0.0331755
0.0783775
0.0509344
0.144901
0.0238302
2.43509
1.91527
0.0211912
1.68319
3.19628
0.0670717
0.0237508
0.033996
0.0220248
0.0218134
0.0721256
0.0315034
1.63007
2.9161
0.105085
0.285241
0.0228887
1.34795
0.0731934
1.52343
0.0358846
0.0367843
0.398847
0.0376736
0.0537651
0.153012
3.7218
0.0258305
0.0226527
2.24438
0.0351767
0.0251948
0.0338773
0.0351425
0.0214432
0.0299129
2.25031
0.0225577
0.05062
2.34612
0.163613
0.0879891
1.65026
1.5469
2.31105
3.82877
1.29127
0.0688816
1.1255
0.0240935
0.0260927
0.0218603
0.0212724
1.27059
0.408074
0.0384691
0.0212594
0.420262
0.2236
0.0231912
0.0281676
0.0631928
0.0215727
0.0245986
1.98124
0.0285217
0.0407956
0.0451871
0.0234714
0.16858
0.0747917
0.0343927
1.94242
0.109277
1.82648
1.74613
2.37875
0.0275875
1.83553
2.35008
0.251398
0.0863753
2.65967
0.0888537
0.0298338
0.0550745
0.0801761
0.0244725
0.0946321
0.0215517
0.0213912
0.0204992
0.0263517
2.59893
0.0211697
0.145274
0.0283197
0.0248478
0.0266476
2.67056
0.0243994
0.0785948
0.0219793
0.026784
0.0275306
0.0219159
1.10938
0.0247737
0.0215476
0.0228702
0.034115
0.0225395
1.38179
0.0302038
1.18003
1.61234
1.31417
0.070909
0.0925278
0.0511211
0.0452466
0.0294708
0.0264521
1.27211
2.44979
1.59826
0.0807575
0.0345525
0.0231532
1.67713
0.0497835
2.63366
0.0239399
0.901648
0.323419
1.35105
1.21287
0.020529
0.0215139
0.0210079
0.0310642
2.461
0.0602199
0.908597
0.0290866
0.0312072
0.0214342
0.0222799
0.0415963
0.0249616
0.026221
0.0223839
2.91534
0.0538825
3.03357
0.0285643
3.37696
0.021886
0.0209244
0.145519
0.0225656
0.025924
0.0758276
0.0262398
0.0905335
0.0215287
0.0288974
0.0217908
0.0269
2.38085
0.0227261
0.0248966
0.0239293
0.0261081
0.718517
0.0221705
0.0559213
1.93377
0.0270368
0.0339855
0.0232259
0.0256153
0.0223225
2.12897
0.022001
0.0316922
4.37795
0.0215879
0.0337688
0.0564442
0.0748527
1.13753
0.0204751
0.0254434
0.023879
0.0330121
0.702498
0.76354
2.24207
0.0206855
0.035062
0.0936778
0.0272176
3.36211
0.0202884
0.0218574
1.79922
0.0458963
0.0251022
0.0204164
1.66025
1.85445
1.4627
0.0218369
1.60345
0.0203635
0.0208608
0.02499
0.0909319
2.73073
0.0218596
0.0213627
0.0521301
0.0219427
0.0243256
3.14709
4.93489
0.0220768
0.0211282
0.0232557
0.0373062
2.84972
2.64521
0.0224627
0.145333
0.0221583
0.0216138
1.7448
0.0272397
0.0231702
0.0333602
2.73261
0.244709
0.0245033
0.0226725
2.54783
0.046855
0.0231964
1.71034
1.37447
0.0218395
0.0222918
0.0240766
0.0214462
0.0218889
0.0221037
0.0208065
0.0468374
0.0239218
0.0561392
0.0535752
1.39565
0.658702
0.0364262
0.0204369
0.0222384
0.0227526
0.024161
0.0464973
0.0331406
3.13921
0.0257182
0.400785
0.0271438
1.42051
1.18379
0.0315424
0.0248823
1.70747
0.0255152
0.0330955
0.02151
0.0230196
0.0211958
0.039961
0.0544637
0.0598826
0.145364
0.025043
0.0311539
0.0228452
2.65572
1.74897
0.374892
0.0311182
0.74917
0.322493
2.12113
0.0224667
3.25931
0.0772288
0.0215321
0.0221206
1.55108
0.0219858
0.023975
0.0242319
1.13337
0.0218049
0.0221827
0.0306428
3.3937
0.0217547
0.0622001
1.18536
0.0250545
0.0217483
0.021785
0.0215641
0.0221326
0.022197
0.041327
0.0246294
0.0217875
0.0222409
0.0223444
0.0325698
0.021626
0.105716
0.0217615
0.022155
0.0457777
0.0456235
0.0309131
1.45825
1.24923
2.66509
0.0405019
0.0219995
0.0492631
1.88324
0.0207464
0.0825797
0.0269729
1.1604
0.0253913
0.0473839
0.0220975
0.0214921
0.164539
3.28436
1.6528
0.127446
2.50411
0.0221075
0.0222568
1.4493
0.020681
0.0217733
2.62277
0.0211409
1.39936
0.0215934
2.55779
0.145301
0.0251706
0.185522
0.0297985
0.0959135
1.30577
1.27416
1.31014
1.4009
0.240182
1.36613
0.0219567
1.51385
0.0219137
0.021454
0.0222769
0.0228028
1.14943
0.0232964
1.69423
0.02205
0.0214471
0.0217428
0.190401
0.024132
0.0213161
0.0708967
0.030261
0.0312436
0.0266389
0.0320346
2.77045
2.69825
1.22756
0.810469
0.137454
0.0231138
3.05362
0.0215345
0.0357535
0.172626
1.94496
0.0539714
2.67309
0.0218631
0.71249
1.43229
0.823337
2.33991
0.233297
0.0245255
0.0214839
0.02673
0.0219711
0.0214295
1.54667
1.69109
0.0215022
2.09944
0.0215128
0.145119
0.0213911
2.26283
0.0339979
0.0245494
0.0214453
0.154643
1.65072
0.341424
0.0209444
0.0208679
0.0295244
0.0233301
0.0227719
1.36386
1.05342
0.0511765
2.35303
0.0550413
0.0221454
0.0396854
0.305753
0.0224839
2.26415
0.0669899
0.111483
0.0255292
0.0256249
0.0209255
0.0197709
0.0214884
0.0302147
0.0209284
1.4163
0.0492502
0.559618
0.0216147
0.0529924
0.0221138
0.395746
0.0510866
0.0666489
2.47315
0.0293998
0.0215201
0.0276622
0.0222243
2.63278
0.527346
0.0527962
0.0668693
2.68335
1.10886
0.294062
0.0602457
0.0215595
0.0250884
0.0242011
0.0352126
1.24409
0.0294439
0.0220971
0.461426
3.11595
0.0223579
0.0242681
0.0670114
0.0236465
0.0215541
0.050897
0.0223407
0.0223369
0.0211718
0.0246232
0.0227017
0.0601604
1.41629
0.0215459
3.34234
0.138807
0.145
0.0211334
0.0237954
0.0347209
0.0273664
0.0215235
0.191407
0.0216208
0.0638187
0.0221196
0.0540174
1.95163
0.066551
0.0236447
0.074519
1.56758
1.22618
0.0215239
0.0392378
1.91083
0.0224904
0.0245792
0.0896115
3.71478
2.74847
0.0250462
0.021807
0.0330917
0.0221794
0.0228803
0.0342319
0.0224205
2.69577
0.0222114
1.4427
0.0220365
0.0215458
0.0669185
0.0214441
0.0218209
0.0340584
0.769491
0.0207878
0.0443233
0.0222912
0.022354
0.0227832
0.0314929
0.0289263
0.0902711
0.024965
0.0222581
0.0222695
0.0420796
0.0231247
2.30642
0.0226817
0.145252
0.0371892
0.0251202
0.0305495
1.13556
0.021822
0.0226215
0.0203321
0.30551
0.379467
0.0239698
0.0461059
0.0214089
0.0445726
0.021508
0.151034
1.47374
0.0256212
0.0303524
0.032965
0.0296067
0.0231862
0.0209538
0.05397
0.0214756
0.0229159
0.0221566
0.0219944
0.0214386
0.0210333
0.0479542
0.0221728
0.0212819
0.0476483
0.336581
0.0214688
1.66454
0.0210112
0.137416
1.35184
0.0216529
0.0229407
0.021936
0.0532317
0.0218851
0.0218681
0.0214961