/*--------------------------------*- C++ -*----------------------------------*\
| =========                 |                                                 |
| \\      /  F ield         | OpenFOAM: The Open Source CFD Toolbox           |
|  \\    /   O peration     | Version:  v2012                                 |
|   \\  /    A nd           | Website:  www.openfoam.com                      |
|    \\/     M anipulation  |                                                 |
\*---------------------------------------------------------------------------*/
FoamFile
{
    version     2.0;
    format      ascii;
    class       volScalarField;
    location    "150";
    object      p;
}
// * * * * * * * * * * * * * * * * * * * * * * * * * * * * * * * * * * * * * //

dimensions      [0 2 -2 0 0 0 0];


internalField   nonuniform List<scalar> 
13851
(
-0.000631013
-0.0150278
-0.0401727
-0.000419373
-0.0571954
0.0164889
-0.0176042
-0.0392491
0.00119722
-0.0279499
0.00066087
-0.0193434
-0.0745462
-0.0653346
-0.0105283
-0.0238911
-0.0286871
-0.00352825
-0.0693444
0.00112665
-0.000696462
-0.0418982
0.00121527
0.000769106
0.00104571
-0.0380486
-0.0358891
-0.0887866
-0.00119903
-0.0109842
0.0174362
-0.0291405
-0.039078
0.00124155
0.00069179
-0.0864931
-0.0903592
-0.0472072
-0.0274572
0.00287765
-0.00459516
0.000481999
-0.0932025
-0.00212248
-0.00163221
-0.082565
-0.00359808
-0.031287
-0.0368111
0.00336445
-0.0676898
-0.073211
-0.0864574
-0.0106108
-0.00563595
0.000462606
0.00130283
-0.087636
-0.0107927
-0.0187505
-0.0474633
-0.0658825
0.00224021
-0.0610088
0.00388816
0.00106153
-0.0877883
-0.00538149
-0.0506729
-0.00314218
-0.0872044
-0.0906426
-0.0228349
-0.0106132
-0.00474689
0.0015425
-0.0424636
-0.0840398
-0.0509261
-0.088366
-0.0213155
0.000168539
-0.0118982
-0.0853654
0.00367973
-0.0183717
0.0115856
-0.0177202
-0.0346328
0.00167597
-0.0887715
0.00196939
-0.00462775
-0.0391886
-0.0349043
0.00128371
-0.0585624
-0.0787546
0.0032165
0.00136129
-0.0781207
-0.0573702
-0.00521476
-0.0394821
0.00027286
0.0102469
-0.0609366
0.000308105
-0.0917566
0.0153452
0.00107768
0.00170812
0.00192534
0.000765743
0.00103471
-0.0185749
-0.0791106
0.000448921
-0.0013462
-0.00483531
-0.0929591
-0.0387608
-0.0745812
-0.00783221
-0.0274933
0.00120842
-0.0226723
-0.0538046
-0.000463461
-0.0579269
-0.00470489
-0.000252942
-0.08742
-0.0119013
-0.0231097
-0.000651697
0.000452564
-0.0887253
-0.059406
-0.051504
-0.0798509
-0.00516617
0.00239946
0.000809313
-0.0212515
-0.00214861
0.000163283
-0.0568607
-0.0171016
-0.000109923
-0.0783215
-0.00453598
-0.0625902
0.0012953
-0.0272158
-0.0205229
-0.000420993
-0.0129172
-0.0737898
-0.0664787
7.52858e-05
-0.0445789
-0.0877418
-0.000149925
-0.0123509
0.000685362
0.000167712
-0.0518822
-0.000737958
-0.0783306
-0.0839712
0.00125561
-0.000531179
-0.0540498
-0.000175398
-0.0332383
-0.0526936
0.00256851
-0.0735444
0.000278273
-0.0293735
-0.0885085
-0.0118797
-0.0429161
8.60477e-05
0.0013078
0.000672619
-0.00481431
-0.056383
-0.022246
-0.00366193
-0.0868795
0.00172243
-0.0476074
-0.0640193
-0.0259853
0.00232933
0.00381549
0.00244321
0.00154234
0.00123037
-0.0779408
-0.00241445
-0.00893997
-0.0240426
-0.012156
-0.0436134
-0.0307262
-0.0859825
0.000149126
-0.0869439
-0.00538313
0.000833592
0.000189743
0.000710533
0.00125577
0.00566617
-0.0835266
-0.0108532
-0.0858237
-0.0309469
-0.0220172
-0.0828022
-0.0682641
-0.0874972
0.00115875
-0.0409957
0.000289868
-0.0881416
0.000171017
-0.0367771
0.0260372
0.00124352
0.00170734
-0.0673024
0.00116431
-0.0436068
-0.000723896
0.000773418
-0.00920456
0.0171255
0.000571212
0.000127304
-0.0243804
0.000243213
-0.0875761
-0.0570368
0.00188016
-0.0196502
-0.0230844
0.00416833
-0.000171011
-0.0175708
-0.0203581
-0.0642154
-0.0269129
-0.0211633
-0.0901471
-0.0889163
-0.0121521
0.000737847
-0.00335441
0.0205073
0.00111366
-0.0677508
-0.0254568
-0.0175727
-0.0387324
-0.0832529
0.00190242
0.00434585
-0.0268322
0.0282043
-0.0503348
-0.0230142
-0.000220097
-0.000207445
0.0011922
-0.0902956
0.00174586
9.36626e-05
9.35709e-05
0.000348423
-0.0635618
0.0192117
-0.0310376
0.00131018
-0.0105001
0.0269972
-0.0015954
-0.0576719
-0.0114092
-0.0190207
-0.0509136
-0.00177692
-0.0686763
-0.014887
-0.0129016
-0.000243674
-0.0870011
-0.0440023
-0.0276708
-0.0901327
-0.008559
0.0116796
-0.0858508
0.00123158
-0.0591744
-0.0384949
-0.0111569
-0.0591041
-0.0146639
-0.0160471
-0.0828415
0.000553289
-0.0237942
0.00133781
-0.0918397
-0.0827014
-0.0110016
-0.060347
-0.0110424
-0.087793
0.0043794
0.00118227
0.000502763
-0.0817389
-0.0405283
-0.0279188
-0.010321
-0.0087406
-0.0156036
0.000426371
-0.0701412
-0.074899
-0.000796435
-0.0892296
-0.0534671
-0.0105161
-0.0474123
-0.0569513
0.00200078
0.00765556
-0.073337
-0.0653003
0.00303195
0.00402909
-0.0862446
-0.0104435
0.00114136
0.00103828
-0.0326127
-0.0282433
0.00932262
-0.0881149
-0.000467662
0.00327115
0.000591708
-0.0109236
0.00025554
0.000275598
-0.000738827
-0.0863014
0.000156847
-0.0102376
-0.0585201
0.000585496
-0.00913732
-0.0203293
-0.0186034
-0.0768717
-0.0100834
0.00770419
-0.036845
-0.0247703
-0.00424175
0.000488365
0.00320205
-0.0800378
-0.0046729
-0.0577567
0.00121935
-0.0743024
-0.0792377
4.04957e-05
0.000246711
0.00341338
-0.000825334
-0.0103093
-0.00115962
-0.0611212
-0.0636333
-0.0532586
-0.0891696
-0.0848173
0.000629548
-0.0124119
-0.0765631
-0.0874959
0.0237317
-0.0790721
0.00332506
-0.0375625
0.00131632
-0.0536934
0.00125978
-0.0249478
0.00332166
-0.0163649
0.000287654
0.00122799
0.000652883
-0.0617286
0.00259573
-0.0868328
-0.0023013
-0.0614059
0.00634418
-0.00093081
-0.0222625
-0.0333743
-0.027018
0.00238318
0.000431281
0.00119122
0.00117751
-0.0484503
-0.00863544
-0.0654338
0.00584825
-0.0876066
0.00267286
0.0110204
-0.0045216
-0.0683704
-0.00429776
-0.000189198
0.000517987
-0.0281968
-0.00688164
-0.0368526
-0.0848988
0.00249858
0.001085
-0.00964258
-0.0787816
0.00011189
-0.0388842
-0.0520609
0.00190245
0.00120435
-0.0150576
-0.0774484
-0.0727784
-0.000379804
0.00169462
0.00118026
0.000606694
-0.0917141
-0.011637
9.55447e-05
-0.0144605
-0.000760315
-0.000299789
0.00107771
-0.00935347
-0.0118627
0.000132622
0.00240625
-0.0807994
-0.0120642
-0.0541538
-0.000702745
0.00523207
0.00153219
0.00062694
-0.00264163
0.00067614
0.000642796
-0.0285522
-0.0181276
0.0134323
-0.0118664
0.00137657
-0.0744551
-0.0848741
-0.0126748
0.00537091
-0.0232262
0.00159608
-0.0853761
0.000549389
-0.000497293
-0.00452327
-0.0527703
-0.0173136
-0.0881951
0.00038124
-0.0865034
-0.0194728
0.000510316
0.00481406
-0.0789839
-0.0361001
0.00110047
-0.00148627
0.00142332
-0.00572888
0.000217452
-3.54416e-05
-0.016187
-0.0883854
-0.0642143
-0.0778509
-0.0771269
0.00300346
0.000102241
-0.0695277
-0.00801783
-0.0303936
-0.0440494
0.00276691
-0.00594292
-0.0859198
-0.0100136
-0.0878133
-0.0835798
-0.0791979
-0.013407
0.00485288
-0.0162218
0.00117297
-0.0253639
0.00388472
-0.0297576
-0.0124282
-0.0337461
-0.0853472
0.000390798
0.00119184
-0.0655564
-0.0838019
-0.0192563
-0.00942928
-0.000477108
-0.00676906
-0.0571917
-0.00274791
-0.0180777
0.001518
0.000276403
-0.0920428
-0.0846775
0.00999649
-0.0104711
-0.0529055
8.32405e-05
0.0012267
0.000206139
-0.0719211
-0.0280452
-0.0788889
-0.0842905
0.000436403
0.00806294
-0.00725697
-0.0326786
-0.070574
-0.0883765
-0.0876046
-0.00446327
-0.0165713
-0.00305456
-0.0853058
-0.0812657
-0.0539333
0.00161551
0.000285637
-0.00612574
-0.0294278
0.000423374
-0.0185014
0.00024524
-0.00148984
-0.083443
-0.0594348
0.00508247
0.000400638
-0.057336
0.00308885
-0.000469349
0.00129376
0.00116949
-0.0104139
-0.0808929
0.00247997
0.00172096
-0.0793483
0.0010441
-0.0524772
-0.0834428
-0.0849631
0.00295096
-0.0503697
5.75471e-05
0.00128448
-0.0277592
-0.079191
0.0118277
-0.0780065
-0.033904
0.00109716
-0.0212908
0.0023246
0.00213995
-0.0643625
-0.0116316
-0.00059381
0.00115259
-0.0398158
-0.0646013
-0.0181485
-0.0040362
-0.0214404
-0.0167105
-0.0565384
-0.0480146
-0.0671171
-0.0193649
-0.082024
0.00106314
0.0236441
0.00402055
-0.08005
-0.00580289
0.00122789
-0.0924823
-0.00703905
-0.0806682
-0.0863571
-0.085613
-0.0130726
0.00122887
-0.0930474
7.94684e-05
-0.00125685
0.000349352
-0.00151866
5.30939e-05
-0.00168029
-0.00919686
0.000386096
-0.0460661
-0.0207333
-0.0496251
-0.000152087
0.000266428
0.000964683
-0.057289
-0.0607458
-0.0680939
-0.0399203
0.000107944
0.00131505
0.000221716
-6.00292e-05
-0.0838911
-0.0321547
-0.0163819
0.000352427
-0.0162592
-0.000191918
-0.0261088
-0.0871931
-0.0222681
-0.0772142
-0.000238048
-0.00408421
-0.0773543
-0.0761325
-0.0513183
-0.0167791
-0.0209218
-0.00358113
-0.0670865
-0.00270505
0.00296669
-0.0123939
-0.0140339
0.000239759
-0.0558244
-0.0851618
0.00176218
-0.00630423
-0.000660301
0.000238058
-0.0287778
0.0153644
-0.0557465
-0.0629814
-0.066703
0.00100464
0.000231711
-0.00022344
-0.0750053
-0.0808653
0.00245239
-0.0858364
0.00151631
-0.00966899
0.000415198
0.00204579
-0.0879875
-0.0147531
-0.00271975
0.00136104
-0.0343533
0.000936394
-0.0912094
-0.026048
-0.0856241
0.000520814
-0.0163504
-0.083446
-0.0873351
-0.0876915
0.00226848
-0.0883043
-0.0121611
0.00139089
-0.0394968
-0.0366556
-0.0231238
-0.0852398
0.00366363
0.00245094
-0.0877169
0.00123209
-0.00234873
-0.0120353
0.00109348
-0.0918057
-0.0299042
-0.071768
0.00456313
0.00133874
0.00107608
0.0149472
-0.000216824
0.00375062
0.000356994
-0.00388533
-0.00315547
-0.0840987
-0.000666613
0.000558755
-0.0107555
-0.0171241
-0.0839766
0.000607482
0.00231998
-0.071
-0.0248656
0.00241821
0.000505699
0.0204589
-0.0758991
-0.0180952
-0.0858192
-0.0548268
0.0011026
0.00320511
-0.0932302
0.0175396
-0.0209321
0.000248682
0.000341302
-0.00847007
-0.035119
-0.0116618
-0.0141959
0.00325246
-0.0101758
0.00229254
-0.0809642
-0.00204797
-0.0548966
0.0115307
-0.015984
-0.0542509
-0.0708713
-0.0910835
-0.0138563
-0.0443056
-0.0752461
-0.0173794
-0.0813159
0.0157541
-0.0669609
-0.0552796
-0.0823858
0.000411094
-0.028304
0.00106586
-0.0012746
-0.0875016
-0.083947
0.000837821
0.00135634
-0.0671589
-0.000278687
0.000598449
-0.0866527
0.00148152
-0.0112599
-0.0909146
-0.0834843
0.00139431
-0.00119957
-0.0107599
-0.0873228
-0.0846624
-0.080519
0.00263467
-0.0743018
-0.0330317
-0.0600604
-0.0595875
-0.0573002
-0.0154771
-0.0171235
-0.0263122
-0.0695503
-0.0881476
0.00386336
-0.0520131
-0.0897301
-0.0690079
-0.0843373
-0.0137951
-0.0518121
-0.000403046
-0.0204939
-0.00594141
-0.02162
-0.0108418
-0.0884712
0.000608215
-0.0701312
-0.00539483
-0.0417388
-0.0535944
-0.050658
-0.0770351
-0.0612475
-0.00796375
0.000745309
-0.0695658
-0.0346657
0.00612929
-0.0173424
-0.0832655
0.00108152
-0.0541741
-2.3509e-05
-0.0134708
-0.0898035
-0.0784032
-0.0842436
9.62432e-06
0.00404201
0.000343344
-0.0855188
-0.0108102
-0.0112628
-0.0859828
-0.000388389
-0.0312602
-0.0473819
0.0022364
-0.0444921
-0.0147618
0.00128466
-0.00894247
-0.0849547
-0.0704758
-0.0205078
0.00238733
-0.00099239
-0.0889744
-0.0708829
0.000579719
-0.029139
7.22256e-05
-0.0023251
0.00156861
0.00129208
-0.0320915
0.000154796
-0.0111493
0.00243609
0.00046221
-0.0127068
-0.0850746
-0.0788915
-0.03947
-0.0444363
-0.00558912
-0.0377282
0.000404076
4.15223e-06
-0.0098593
-0.0107612
-0.0849704
-0.012743
-0.0665428
-0.013886
-0.0218968
0.00144349
-0.0884376
-0.00133931
-0.00417595
-0.0124654
-0.0797155
-0.0307543
-0.0358663
-0.0869851
-0.0401091
-0.000283366
-0.0204177
0.0112536
-0.0879848
-0.0406997
0.000799991
-0.00587998
-0.0600546
-0.0586236
-0.0449031
0.000504356
-0.0524188
-0.000149923
-0.000226584
-0.0624451
0.00123178
-0.0721465
-0.0236504
-0.00010201
0.00728874
-0.000307441
-0.010809
0.000142199
-0.0203198
-0.0870396
-0.000477064
-0.0784538
-0.0900296
-0.0228655
-0.0556155
-0.0166204
-0.000147578
0.00127133
-0.00656269
-0.000298367
-0.072086
-0.0235589
0.00121788
-0.002953
0.00105701
-0.0844485
-0.0305599
0.00449448
-0.0795206
-0.0832528
-0.0060059
0.00465198
-0.0346286
-0.00064425
-0.00498883
0.00615509
-0.00923625
-0.00498713
-0.00299983
0.000592879
-0.0870996
0.00111766
-0.0742787
-0.0294843
-0.0335128
0.000145599
0.00147899
-0.0298975
0.0180795
-0.0287572
0.00170787
-0.0110602
-0.0165497
-0.0138993
-0.02759
-0.000324791
0.00209278
-0.0731742
-0.000418677
0.00129753
-0.00858531
0.00768891
0.00569879
-0.0386112
-0.0403068
-0.0415213
-0.0242544
0.00236856
-0.0290709
0.00129241
-0.0864944
-0.0817208
-0.00502688
-0.0753589
-0.00972633
0.00105169
-0.00262761
0.0024694
-0.0045561
0.00115215
-0.00016877
0.00170659
-0.0686592
0.000723744
0.00165727
-0.0223344
-0.0454171
-0.0863119
-0.00124885
-0.00101812
-0.00339109
-0.0705575
-0.0643349
-0.0281287
-0.0809753
-0.0465571
-0.0736883
0.000854104
-0.0602453
-0.00938196
0.000999891
-0.00276422
-0.0841463
-0.081448
-0.00664688
-0.0392124
0.0017038
-0.0104052
0.000442927
-0.00703956
0.00473644
0.0086039
9.85219e-05
-0.0443492
0.00461969
-0.0861346
0.000588752
-0.00639976
0.000121062
-0.0491115
-0.0310298
-0.0856787
-0.0810398
-0.0718392
-0.0445847
-0.0848613
-8.68713e-05
-0.075652
0.00129768
-0.0230786
0.000699141
-0.0181083
-0.0439611
-0.0154011
-0.0847408
-0.0295499
-0.0372128
-0.000849572
-0.0746788
-0.0309171
-0.0109596
-0.0324937
-0.0149663
0.00109217
-0.000837123
-0.0086455
-0.00439013
-0.00700734
-0.00417237
-0.0410736
0.00267995
-0.00886878
-0.0788093
0.00774937
0.00103037
-0.0224237
-0.0874066
-0.0349145
-0.0255776
-0.064844
0.00519186
0.000826774
-0.0848615
-0.000929231
-0.0489288
-0.0393459
-0.0863788
0.00174101
-0.0580001
0.0196358
-0.00544497
0.00553085
-0.0117286
-0.0887444
0.00137358
-0.0845818
0.00127643
-0.0429834
-0.0807588
-0.0238945
-0.086313
-0.0774371
0.000692999
-0.0245947
-0.0854338
-0.0244649
-0.0884137
-0.0078366
-0.00871567
-0.0841786
-0.0634028
-0.0890822
-0.0083137
-0.0165253
-0.0106339
-0.0835932
-0.0864989
-0.0198695
0.00497293
-0.0361726
-0.0414503
-0.0854005
-0.027485
-0.0124999
-0.0877841
-0.0347793
-0.00244057
-0.0778313
-0.0629045
-0.0180765
6.46451e-05
-0.0885627
-0.0859217
0.00112843
-0.00362204
-0.0496136
0.000651871
0.000137798
-0.00424646
-0.00151178
-0.00811341
-0.0666475
-0.0153973
-0.0794038
-0.0251692
-0.0927466
-0.00046431
-0.0424056
-0.0726511
-0.0476332
0.0052032
-0.00736558
-0.0444066
0.000566426
-0.0110434
0.00106532
-0.00996662
-0.00384357
-0.0896382
-2.536e-06
0.00242298
-0.087372
-0.0334141
-0.0291141
-0.0212076
0.00136649
-7.29329e-05
-0.0511832
-0.0880179
-0.075726
-0.000552119
-0.063897
-0.0069946
-0.0062874
0.00151632
-0.0850606
-0.0487198
-0.0224479
-0.0779114
-0.0509547
0.000112478
-0.0881746
-0.0895435
0.00517058
0.00110583
-0.00644374
0.00297636
-0.0620971
0.00027748
-0.0791314
-0.00693386
-0.00512233
-0.0369147
-0.0850741
-0.00762417
-0.0654756
0.0168209
-0.086572
0.00848523
0.010669
-0.00576023
0.0161472
0.0024574
0.00163747
-0.0258962
-0.0870613
-0.0837507
-0.00489616
-0.0862542
-0.0143966
-0.0897298
-0.0863566
-0.0500315
-0.00835347
-0.00145784
-0.000764711
-0.0034495
-0.0859804
-0.00731801
-0.0229356
-0.00763274
-0.0669648
-0.0899208
-0.0828397
-0.00210622
-0.085568
-0.0136616
-0.0115917
-0.00463701
0.000823852
-0.0879291
-0.0218075
-0.0855345
-0.0330139
0.00288448
-0.0795805
-0.00978851
-0.0196929
-0.0100753
-0.0858085
0.00245357
-0.0220938
-0.00225123
-0.00421336
-0.0808641
-0.024281
-0.0298481
0.00161816
-0.0286705
-0.0402435
-0.0853325
-0.000772552
-0.0548487
0.000371584
-0.001936
0.00108207
-0.0625417
-0.0212407
-0.0527202
-0.0347503
-0.0107726
0.00532953
-0.00505434
0.00124973
-0.0105832
0.00171042
0.00227788
-0.0817352
-0.0364986
0.000749682
0.00315884
0.000884297
-0.0756015
-0.080337
-0.0639734
-0.0496345
-0.0121573
0.00271298
0.00023196
0.00151786
-0.0745654
-0.0881462
0.000584369
-0.0107865
0.00122583
-0.0868383
-0.0211312
-0.022379
-0.0896749
-0.0234521
0.00276196
-0.0875729
-0.0912171
-0.00788114
0.00111721
-0.00920531
-0.0863715
-0.0853926
-0.0370733
-0.078274
-0.0818981
-0.0279725
-0.0893146
-0.0249092
-0.00310063
-0.0661773
-0.0733597
-0.00959717
-0.0876679
-0.0159061
0.000824819
0.00141916
-0.0733267
0.00497775
-0.0856545
-0.0204972
-0.0289671
-0.0545746
0.00303354
-0.0858702
-0.0893238
-0.00521107
-0.0243437
-0.0851677
-0.0582741
-0.0897016
-0.0302273
-0.000930658
-0.00362324
0.00319631
0.00147247
-0.025314
-0.0105249
-0.00903177
-0.0362412
-0.0285309
-0.0347962
0.00257631
0.000130923
0.000903957
-0.0242982
-0.0301099
-0.0175047
-0.0602817
-0.035671
-0.0218573
-0.0573066
-0.0249481
-0.0060316
-0.0888629
-0.000577181
0.000996039
-0.0848071
-0.0796534
-0.0897498
0.0142514
0.000464568
-0.0869499
-0.00550286
0.00176463
-0.04263
-0.00216892
-0.0570104
-0.0679915
0.00105031
-0.0870105
-0.0861148
-0.0265147
-0.0640328
-0.0841032
-0.0122843
0.00182782
-0.0615871
-0.0906275
-0.0334229
-0.074377
0.000139986
-0.00855705
0.00165378
-0.0195834
-0.0887919
-0.0770953
-0.0890146
-0.0774108
-0.030484
-0.0173604
-0.0205057
0.000717869
-0.00512343
0.001436
-0.0796567
-0.00274181
-0.0873451
-0.0142404
0.00218117
-0.0491872
-0.0872454
-0.0829828
-0.0864834
-0.0556663
0.000617895
0.00150252
-0.0848894
-0.0804797
-0.0342317
-0.00162921
0.00122218
-0.0405228
-0.0300122
-0.0834689
-0.0297732
-0.0314057
0.00144746
-0.0847302
0.00246598
-0.0845732
0.00178945
-0.00363648
-0.0625209
-0.00318806
-0.0932682
0.000776076
-0.0886203
0.00112115
-0.0307505
-0.000611144
-0.0102362
-0.00347138
-0.0419788
-0.0550222
-0.0870752
-0.0835198
-0.0336763
-0.0342545
-0.00596832
-0.0857297
-0.0865823
0.000158424
0.000947121
-0.00653191
0.000391987
-0.0885668
0.000461118
-0.000180042
-0.0344106
-0.0273989
-0.00777579
0.00122405
-0.016476
-0.0734296
-0.0858443
-0.00720223
-0.0203602
-0.0652437
-0.00970033
-0.0253101
-0.0150874
-0.0864602
-0.0458135
-0.0275899
-0.0104698
-0.00138819
-0.00327241
-0.089564
-0.0886553
-0.0329545
0.00125473
0.00539245
0.000251365
-0.0846128
-0.00514475
-0.0853964
-0.0874149
-0.0208154
-0.027001
-0.00179495
-0.015257
-0.00811416
-0.0178157
-0.0863999
-0.0222942
-0.0736467
-0.00027624
-0.00627156
-9.52636e-05
-0.0120007
-0.0751727
-0.0860927
-0.0267714
-0.0868341
-0.072658
0.00118617
-0.0110003
0.00158635
0.00369648
-0.0881809
-0.0889181
-0.0181058
-0.00602813
0.0101182
-0.035285
-0.0540785
-0.0858961
-0.0262167
-0.0872936
-0.0548626
-0.00230799
-0.0106071
-6.65827e-05
-0.0611763
-0.000469039
0.00128287
-0.0867377
-0.0392477
-0.0654715
0.00305736
-0.0308566
0.00080236
-0.0889332
-0.0784295
-0.00379053
0.00754316
-0.0317239
-0.0120805
-0.00197908
-0.0107469
0.00143196
-0.0908316
-0.0284701
-0.086906
-0.0191476
-0.0638829
-0.0253362
-0.0872531
0.00447009
-0.0416034
-0.08864
-0.0157503
0.00840574
-0.0889075
0.000271026
0.00319081
-0.0350954
-0.0800909
-0.0919649
-0.0184919
0.00069539
0.00300155
-0.00162513
0.00608622
-0.0103219
-0.080198
0.00222992
-0.030157
-0.0167382
-0.000437904
-0.0221788
-0.0670527
0.00423744
-0.077993
0.00431592
0.000353465
-0.0193971
-0.0882166
-0.0291914
-0.0505058
-0.0764808
-0.0624674
0.000192521
-0.0130565
-0.0309662
-0.0844552
-0.08034
-0.0116042
-0.0847296
-0.0246509
-0.00139497
-0.00901194
-0.0785818
-0.0289253
0.00282456
-0.0902236
-0.00815401
-0.0214361
-0.00271261
-0.0886879
-0.00698069
-0.0673314
-6.59073e-05
-0.011601
-0.022226
-0.00676074
-0.0615553
-0.0913953
-0.00637664
-0.0234301
-0.0446691
6.28626e-05
-0.0145279
-0.01337
-0.0393077
-0.0589109
-0.0607623
-0.00265324
-0.0851305
-0.0343861
-0.0585774
0.0273989
-0.0235729
0.00149549
-0.0849463
-0.0861132
-0.0445683
-0.00824889
-0.0727219
-0.0812599
-0.0158743
-0.0232461
0.0016557
0.00861072
-0.0851051
0.00519365
-0.0876136
-0.00658197
-0.0683846
-0.00853443
-0.0843105
0.000697696
-0.00189241
0.000368106
-0.0276029
-0.0794199
-0.0872601
-0.0742689
-0.0315259
0.00142959
0.0120383
-0.000646554
0.00165674
-0.0850792
0.000119637
-0.0545555
-0.0116401
-0.0140477
-0.00597382
-0.00337936
0.00276563
-0.000267639
0.0139957
-0.0252313
-0.0878824
-0.00256945
-0.0112613
0.0128299
0.000380695
-0.0120529
-0.0170251
-0.0226351
-0.0367884
-0.00206578
0.000359909
-0.0728716
0.00169506
-0.00522615
-0.00350707
-0.0201453
0.00157317
-0.0911779
-0.0148566
-0.00497904
-0.0779493
-0.0382708
-0.00540961
-0.0875604
-0.0791606
0.00020748
-0.0276254
-0.02005
-0.0242278
0.00368418
0.00100497
-0.0378751
-0.0885647
-0.0887804
-0.0791529
-0.019316
-0.0909048
-0.0144862
-0.0230981
0.00148063
-0.0823847
-0.0117362
-0.0345259
-0.0106498
-0.0885802
-0.0832615
0.00556574
0.000970456
-0.0283492
0.00252136
-0.0170768
-0.0686893
-0.00663359
0.00353294
-0.0893696
-0.0878342
0.000629159
-0.0357078
-0.0378966
-0.0798879
7.26049e-05
-0.085188
-0.0884436
0.00593223
0.00265488
-0.0742164
-0.0252946
0.00215213
0.00478625
-0.000509996
-0.0291302
0.00140259
-0.00171541
-0.086427
-0.0912529
-0.0891504
0.000854925
-0.0881338
-0.0149717
-0.0554554
0.00158944
-0.0170588
-0.0277028
0.000603366
-0.0811693
-0.0303089
-0.0442461
-0.0626709
-0.0859643
-0.0341097
-0.0692494
-0.0841498
-0.0849517
-0.00104904
-0.0937925
0.00154894
0.000482343
-0.0108567
0.00143857
0.0017005
-0.0871781
-0.0001801
0.002586
-0.00349229
-0.0885394
-0.0868957
0.00328371
0.000629438
-0.0216172
-0.0284834
-0.0819438
0.00163965
8.379e-05
-0.00736543
-0.0287605
0.000377788
0.0026784
-0.0875502
-0.0536738
-0.0392628
0.00148163
0.00351391
-0.0205269
-0.0892281
0.00130734
-0.09246
-0.0537207
-0.0154822
-0.0873996
-0.0877012
0.0013866
-0.0753939
-0.0218894
-0.0894986
0.00279396
0.0156695
0.00269834
-0.0195055
-0.0196063
-0.0754723
0.00173663
0.00139782
0.0025334
-0.0741613
-0.0497438
-0.0880575
-0.0854409
-0.0156235
-0.0852881
-0.0250995
-0.0469867
-0.0767602
-0.0877038
-0.00826044
-0.084827
-0.0309997
-0.0168614
0.00226803
-0.0837311
-0.0490667
-0.0295086
-0.0648006
0.00141383
-0.0856576
0.00245194
-0.0369335
-0.0107948
-0.00118882
-0.0845689
-0.0482894
-0.0612794
-0.024059
-0.0276259
0.019954
-0.067278
-0.0461516
-0.0849719
-0.00292846
-0.0868036
-0.00762541
-0.0658062
-0.0472583
-0.0784911
-0.0119232
0.00148726
-0.00051019
-0.0863983
0.0026771
0.00431326
0.00305957
-0.0186351
0.00130897
-0.0118084
-0.0797777
-0.0902244
-0.077374
-0.0864264
-0.002937
-0.075323
-0.0850185
-0.0799721
-0.0911667
-0.0847463
-0.00339393
-0.0839731
-0.0335646
-0.0455054
-0.0885839
-0.0682378
0.0011016
-0.0597286
-0.0028627
-0.0130599
-0.040352
-0.0857354
-0.0893443
-0.0845549
-0.0228543
-0.0195782
-0.00605596
-0.086002
-0.088295
-0.00779632
-0.067316
-0.0112046
-0.0135769
-0.0133594
-0.0806543
-0.065783
-0.0174231
-0.0119594
-0.028286
-0.00860353
0.000108265
-0.0223195
0.00174048
-0.0190351
-0.022706
-0.0669442
-0.000801106
-0.0676569
-0.0156481
-0.0142838
-0.0854224
-0.084674
-0.0108598
0.0188752
-0.0107474
-0.0432565
0.0010364
0.00112385
-0.0314301
0.00158597
0.0159112
-0.0138889
0.00143581
-0.0140566
-0.0508494
0.012734
-0.0841842
-0.013919
-0.00736428
-0.0860049
0.000479037
-0.0351178
0.00152191
-0.0119315
0.000439621
-0.0132179
0.000396934
-0.0309533
-0.011794
-0.0851539
0.0119852
-0.0181168
-0.0242855
0.000920591
-0.0073593
-0.00531069
0.000684216
-0.0648252
-0.0909512
-0.00380379
-0.0206224
-0.0105147
-0.0152314
-0.000834207
-0.0189695
-0.00472715
-0.0209293
-0.0762285
0.00224267
-0.0641427
-0.0844093
0.0024578
-0.00478381
-0.00202331
-0.0355932
-0.0402191
-0.000975752
-0.0289765
-0.0867452
0.000336579
0.00208574
-0.0834697
0.000692669
0.00420585
0.00130182
0.000718397
0.000321124
0.00174474
0.00362771
-0.0729328
0.0115342
-0.0356989
-0.0213827
-0.0158667
-0.0196162
-0.0484808
-0.0858298
-0.0904641
-0.0596071
-0.040949
-0.0821658
-0.0772827
0.00393656
-0.0223551
0.00168399
-0.00559746
-0.00204778
-0.0260741
-0.0461017
0.00255489
-0.0125183
-0.0243376
0.000803986
0.00163086
-0.0130734
0.00268818
0.00156979
0.00180077
-0.0770195
-0.0768295
0.0044554
-0.0119207
0.00145367
-0.0692186
-0.0595537
-0.0852613
-0.0390674
-0.0879152
-0.00156355
-0.086893
-0.0887599
0.0178644
-0.00997767
-0.0121768
3.293e-05
-0.00664909
-0.00359006
-0.00229006
-0.0255304
-0.0850943
-0.0667397
-0.0849313
-0.000161243
-0.0437614
-0.0847912
-0.0102879
0.00125058
0.0022453
0.00131541
-0.0217031
0.00185388
-0.0419391
0.00251389
-0.0868722
-0.0371123
-0.0856962
-0.0520641
-0.0862679
-0.0890021
-0.00728525
0.00165712
0.00170509
-0.010672
0.00140326
-0.00329312
-0.0852422
-0.0864652
-0.0124966
-0.0143984
0.00297398
-0.029899
-0.0430944
0.00155162
-0.00202294
-0.078957
4.97246e-05
0.00524276
-0.0289901
-0.0402859
-0.0199766
-0.0857152
-0.0594624
-0.0164365
-0.0858368
-0.0720563
-0.0858969
0.000787869
-0.0177626
0.000182393
-0.0251327
-0.0769293
0.000852445
-0.0880986
0.00219114
-0.000244797
-0.0115426
-0.0879071
-0.0558378
-0.0681695
0.00225729
0.00119004
-0.0144593
-0.087327
-0.0234428
0.00168731
0.00229356
-0.00933985
0.00456918
0.00140042
0.00160459
-0.0890226
-0.0884779
-0.0859345
-0.0257696
-0.0702787
-0.0860238
-0.0747738
-0.0889417
-0.0537316
0.000737589
0.000828541
0.000421335
-0.00798838
-0.0868297
-0.0859432
0.00125651
-0.0884204
-0.0890491
-0.0520396
0.00224451
-0.00973493
-0.0610559
-0.0789704
-0.0850706
-0.0239582
-0.0852679
0.000378557
-0.0699058
-0.0586251
0.00188073
-0.0885127
-0.0116521
-0.0822074
-0.0866312
-0.0171746
-0.0600316
-0.0069846
0.00195689
-0.0863172
-0.0878037
-0.0756755
-0.0278536
-0.084658
-0.0843598
-0.0884372
-0.0872993
-0.0852915
-0.0760942
-0.0625912
-0.0143237
0.00313162
-0.0567374
-0.0853926
0.00125803
-0.0867327
0.000674765
-0.0415812
-0.019573
0.000827081
-0.0834998
-0.0117966
-0.0789164
-0.0839947
-0.0115786
-0.0359763
-0.0415818
-0.0883206
-0.0617819
-0.0456909
0.00140202
0.000269222
-0.0870098
0.00218211
0.00181112
-0.0501516
-0.0292981
-0.0870427
-0.032653
-0.00803946
-0.0272808
0.0017036
-0.0435903
-0.0185004
-0.0771141
0.00298203
0.000406954
-0.0897185
-0.0611157
0.00239396
-0.0881612
-0.083888
-0.0106647
0.0258437
-0.0213639
-0.0887353
-0.000349153
0.00125113
-0.0838585
-0.0192975
-0.0873564
-0.0854476
-0.0661953
0.0143696
0.000872723
-0.0121804
-0.0431367
-0.0385631
-0.000207476
-0.0865233
-0.0655416
-0.00202157
0.00136123
-0.0518917
-0.0163167
-0.0844744
-0.0727904
0.00225934
-0.0822751
-0.0692592
-0.0381489
0.000594795
-0.0879664
-0.085662
-0.0770855
-0.0121783
0.00128337
-0.0586171
-0.0217898
0.000191778
-0.000252572
-0.0129714
0.00128857
-0.0193394
0.000473355
0.00211939
-0.0312375
-0.0784366
-0.0883698
-0.0394859
-0.080918
-0.0850694
0.000490323
-0.0863011
-0.0860412
-0.0857101
0.00119725
-0.0471068
-0.0843534
-0.0875167
-0.0806801
-0.0656624
0.0121502
-0.0889185
-0.0674825
-0.0786821
0.000648441
-0.0581776
-0.065294
-0.0111951
-0.0722467
-0.0804961
0.00414641
-0.086783
-0.0891823
-0.00768684
0.000246115
0.00617131
-0.0114135
0.00781669
0.00155182
0.000856331
-0.0906447
-0.085988
-0.000962313
-0.0631689
0.000721733
-0.0289286
-0.0891743
-0.0864755
-0.0890697
-0.0452251
-0.0857167
0.00195115
0.00132761
-0.0360331
-0.0845276
-0.0892103
-0.0690833
-0.0856941
-0.0255403
0.00109184
-0.0114147
-0.0226728
-0.041901
-0.0768416
-0.0880138
-0.030035
-0.0839531
-0.0849416
-0.00154281
-0.0805583
-0.0136361
-0.0373191
-0.00928187
-0.0129621
0.00109054
-0.0340188
-0.0318358
-0.0646947
-0.0866235
0.00158255
-0.0643231
-0.0316898
-0.0322798
-0.0771602
-0.0251902
-0.0881568
0.000657002
-0.0788608
-0.0868909
-0.0762663
-0.082804
-0.000260061
-0.0620842
-0.0905182
-0.089435
0.00148875
-0.0638939
0.00133032
-0.0014713
-0.0113123
-0.0416301
-0.0899231
-0.0832142
-0.0166031
-0.0877663
-0.0414504
0.00135152
-0.0017599
-0.013912
-0.00340485
-0.0527267
-0.0889172
-0.0891576
-0.0767467
0.000852793
-0.00734644
-0.0390661
0.000171796
-0.0882983
0.00404969
0.000497866
-0.0333197
-0.0654204
-0.0176083
-0.0866403
-0.0491463
-0.0925718
-0.0222828
-0.0757304
-0.0832556
-0.086446
-0.00526644
0.00171367
-0.0368165
-0.014135
-0.0774234
-0.0884941
-0.039022
-0.06291
-0.0783882
-0.0580273
-0.0381907
-0.0255332
0.00172455
-0.00310675
-0.0836848
-0.0236623
-0.0318004
-0.0346531
-0.0333061
-0.0282072
-0.087114
-0.0820107
-0.0117088
-0.0234184
-0.0444722
-0.0160134
0.00237058
-0.023512
-0.0572261
0.00279377
-0.0876181
-0.012552
-0.0870091
-0.0117324
-0.0022568
-0.0161405
-0.0863364
-0.0181104
-0.0903936
-0.0785152
-0.0368693
-0.00168133
-0.0794338
-0.0236763
-0.0832213
0.0202981
-0.00449517
-0.0661465
0.00186929
-0.0889397
0.00638305
-0.00349973
0.00117842
-0.0167764
-0.039729
-0.0210098
-0.0669502
-0.063012
-0.0158846
-0.0128714
-0.0747765
-0.076542
0.00763924
-0.0519638
0.000564957
-0.0331171
-0.0481913
-0.0715649
0.0164989
-0.0664711
-0.0140955
0.00143277
-0.00996084
-0.00130856
-0.011693
-0.00683308
-0.0899509
0.00259762
-0.0551479
-0.0119035
-0.0845706
-0.0863557
-0.0406794
-0.025709
-0.0712632
-0.0848691
-0.0881088
0.00431216
-0.0292095
-0.0642302
-0.0404169
0.00321453
-0.0795499
-0.0886566
-0.00104021
-0.00312551
-0.0874249
-0.0262298
-0.0231202
-0.0101678
-0.0522598
0.00173966
-0.0244411
-0.0464003
-0.0268336
-0.0310661
-0.00200644
-0.00214628
-0.0219602
-0.0848302
-0.00221216
-0.0205232
-0.0845761
0.00136716
0.00230489
-0.0898371
-0.0531378
-0.0673594
-0.0125022
-0.0327193
-0.0263007
0.00130083
-0.00107806
-0.0442072
-0.034694
-0.0891731
-0.0760292
-0.0376433
-0.0903081
-0.0365824
-0.0533928
-0.00279399
0.00394149
-0.0519297
-0.0353774
0.0028905
-0.0524012
-0.00704221
-0.030792
-0.0325155
0.00340223
0.00124144
0.0088025
-0.0114569
0.00104912
-0.0516107
-0.0558393
0.00170236
-0.056009
-0.0475759
-0.0783663
-0.0278947
-0.0857788
-0.0393729
-0.0873662
-0.000281994
-0.0651201
-0.0414394
-0.00691915
0.0019674
-0.0235228
-0.0433134
0.00748183
0.00223357
-0.0606815
-0.0861698
-0.0406994
0.000431721
-0.00498727
-0.0678178
-0.0228369
-0.0243658
0.00114365
0.000841909
-0.00117215
-0.0129835
0.000614935
-0.0141678
-0.0880762
-0.0249771
-0.0881351
-0.00198422
0.013377
-0.0117965
-0.0295009
-0.0146247
0.00582357
-0.0323819
-0.0037755
-0.00199669
-0.0872811
-0.0336998
-0.0841303
0.00182291
-0.0246366
-0.0478429
-0.0762976
-0.0344811
-0.0692867
-0.0283851
-0.0516928
-0.0258853
-0.00295774
-0.0803247
-0.0871767
-0.00286078
-0.00976152
-0.0327971
-0.00804906
-0.000311204
-0.0729437
0.00223352
-0.0902224
-0.081976
-0.0713993
0.0074671
0.00174604
0.000830205
-0.0700895
-0.0220293
-0.0177557
-0.0158555
0.00287549
-0.0137941
0.00564725
-0.00780636
-0.084721
-0.00996204
-0.00661868
-0.0796067
-0.0469745
-0.0267792
0.00253082
-0.0195615
0.0016143
-0.0188251
-0.0885355
0.000911685
-0.0364278
-0.0860061
-0.0736023
-0.0571368
-0.0193511
-0.0215418
-0.0887047
-0.0580962
0.00216582
-0.0325688
0.014387