/*--------------------------------*- C++ -*----------------------------------*\
| =========                 |                                                 |
| \\      /  F ield         | OpenFOAM: The Open Source CFD Toolbox           |
|  \\    /   O peration     | Version:  v2012                                 |
|   \\  /    A nd           | Website:  www.openfoam.com                      |
|    \\/     M anipulation  |                                                 |
\*---------------------------------------------------------------------------*/
FoamFile
{
    version     2.0;
    format      ascii;
    class       volVectorField;
    location    "300";
    object      ddt0(U);
}
// * * * * * * * * * * * * * * * * * * * * * * * * * * * * * * * * * * * * * //

dimensions      [0 1 -2 0 0 0 0];


internalField   nonuniform List<vector> 
13917
(
(0.00401149 -0.00275922 -4.86508e-18)
(-0.000632207 -0.000651526 -4.76823e-20)
(0.0463495 -0.00476773 -5.93113e-18)
(-0.00162915 -0.00265621 -4.84593e-18)
(-0.000318395 0.000633385 2.07223e-18)
(-0.000192038 0.0101579 -2.17986e-16)
(0.0411477 -0.00494994 -4.68757e-18)
(0.0451693 -0.0054517 -5.95254e-19)
(0.0402545 -0.0146422 2.08507e-17)
(0.00743101 -0.00330501 -2.82143e-18)
(-0.00654435 -0.0116853 1.70586e-17)
(-0.00647862 -0.00723202 2.67496e-18)
(-0.00123172 -0.00268945 -5.23255e-19)
(0.0146138 -0.00208056 8.01839e-18)
(0.00139112 0.00127524 -4.67886e-18)
(0.00123019 0.000557129 -5.5406e-19)
(-0.000522693 -0.000379795 -1.06405e-18)
(0.0001186 -0.0095883 -8.99218e-18)
(-0.00654393 -0.00700503 -4.14996e-18)
(-0.000793498 0.000125847 2.03637e-18)
(-1.90023e-05 6.4397e-05 1.91363e-18)
(0.039191 -0.00515785 -1.86802e-19)
(-0.000498656 0.000290627 2.17758e-18)
(0.0443601 -0.00624374 1.09126e-17)
(-0.00071549 0.000707103 7.90438e-18)
(0.0363384 -0.00675113 -2.26933e-18)
(0.000616556 0.00462622 -3.50255e-18)
(0.00219891 0.00544059 3.92087e-17)
(0.00460101 0.0105605 6.72462e-18)
(0.00881553 -0.00944118 -5.1948e-17)
(0.00435834 -0.00373502 -1.31428e-17)
(0.00154735 -0.00206277 -1.61721e-19)
(0.00119779 0.00390652 -4.02239e-18)
(-6.92089e-05 0.00248515 3.65403e-17)
(-0.000328077 0.000864669 -3.15236e-18)
(-0.00604731 -0.0128046 9.11629e-18)
(-0.000513198 0.000282188 2.9931e-18)
(0.0224805 -0.00350058 3.24646e-18)
(-0.00154793 -0.00332178 5.8773e-18)
(0.0240856 -0.0029015 1.4362e-17)
(-0.00173295 -7.6682e-06 4.52818e-19)
(0.000134694 2.30961e-05 -8.02945e-19)
(-0.000662957 -0.000344303 -1.2813e-18)
(0.00275843 0.00691984 -5.2219e-17)
(-0.000982134 -0.0016877 -1.25636e-18)
(0.000241129 0.00283265 3.68735e-18)
(-0.000703549 -0.00949173 8.17337e-18)
(-0.00123827 -0.01119 1.14367e-17)
(0.000383069 0.0146329 -5.51994e-17)
(-0.00150467 9.11069e-06 3.93566e-19)
(-0.00162284 -0.00509952 -4.20858e-19)
(-5.69821e-05 0.00146764 6.04294e-18)
(-0.00195379 0.0165833 6.40344e-17)
(-1.42897e-05 0.0025695 -3.31245e-18)
(-0.000459592 -0.000348958 1.40034e-18)
(1.49947e-05 -0.00452561 -3.47177e-18)
(-0.00651496 -0.0116768 -9.47485e-18)
(-0.000364616 0.0005917 -1.38652e-18)
(-0.000182326 -0.00348842 -6.9183e-18)
(-0.00120441 -0.00160254 -1.05576e-18)
(-0.0299586 -0.0109191 -5.32744e-17)
(-0.000692743 -0.000722746 9.90024e-20)
(0.00971892 -0.00140959 -2.95254e-18)
(-0.000886419 0.00013636 -4.35756e-19)
(0.000252341 0.00979214 1.52315e-16)
(0.000164455 0.00375441 -2.13143e-17)
(3.95101e-05 0.000679023 -6.75257e-18)
(-9.45753e-05 0.00100638 -8.73349e-18)
(-0.00421848 -0.0140343 -3.18783e-18)
(0.00396172 -0.000993346 -3.40108e-18)
(-0.00023527 0.000598193 -1.29872e-18)
(0.0374402 -0.0151282 -3.05743e-17)
(0.00388317 -0.00537106 1.33734e-19)
(-0.000479624 0.000688641 -3.23527e-18)
(0.00163234 0.0149881 -3.84062e-17)
(-0.00705143 -0.00574896 6.13101e-18)
(0.00862501 -0.00312063 4.79553e-18)
(-0.00112105 -0.00259448 -9.20953e-19)
(0.0339529 -0.00708558 9.16415e-18)
(-2.96859e-05 0.000125372 1.70979e-18)
(-8.54966e-05 0.000137616 6.39754e-19)
(6.18816e-05 0.000638773 9.36142e-18)
(0.00116204 0.0105293 -1.15258e-16)
(0.0247474 -0.00374848 -9.02119e-18)
(-0.0219515 0.00432266 -1.04944e-18)
(-0.000785354 -0.00253037 4.36887e-18)
(-0.000307821 0.000149938 6.67227e-19)
(0.014356 0.00652031 -2.12687e-18)
(-0.000212543 -0.00492872 2.60519e-18)
(-0.000540688 -0.000364207 1.07286e-18)
(0.0142537 -0.00580672 7.5186e-18)
(0.00913531 -0.00587011 -4.56543e-18)
(-0.00112873 -0.000786822 5.59841e-19)
(0.000537158 0.00112507 -8.29146e-18)
(0.00818663 0.0057599 4.53113e-17)
(0.000109375 0.0105321 8.73922e-17)
(-0.00437072 -0.0120221 6.73705e-18)
(-0.000693425 -0.0107609 9.71386e-18)
(-0.010176 -0.00818836 1.18252e-17)
(0.00170372 0.00744212 -6.1153e-17)
(-0.00135788 -0.000133835 -4.292e-19)
(9.64537e-05 0.00361976 -1.3627e-17)
(0.00258975 0.00682464 4.13202e-17)
(-0.000955491 -0.00310208 -1.40444e-18)
(-0.00136588 -0.000414886 4.84551e-20)
(0.0332139 -0.0176502 -1.74974e-17)
(0.00509725 0.0095846 5.50723e-18)
(-0.00126864 -0.0113467 -4.23578e-17)
(-0.000426816 -0.000469862 1.08194e-18)
(0.00491229 -0.00321166 -1.22076e-17)
(-0.0230833 -0.00378793 2.07691e-17)
(0.0246846 -0.00309261 -8.59091e-18)
(-0.00683702 -0.00781231 -2.5083e-17)
(0.0354972 -0.016766 6.7859e-18)
(3.46378e-05 0.00178219 5.29224e-18)
(-0.000840676 0.0157416 8.69257e-17)
(-0.000767439 0.000423657 -1.75319e-18)
(0.000950367 0.0128621 2.04333e-17)
(0.018584 -0.00333981 2.09417e-18)
(0.000285824 0.00253882 2.58393e-19)
(0.000127846 4.61576e-05 -2.01349e-18)
(-0.00261794 -0.0140788 -4.14315e-18)
(0.0179582 -0.00308876 -1.03033e-17)
(0.00183764 0.00525715 -1.21019e-18)
(-0.00159148 3.08489e-06 7.36149e-19)
(0.000413204 0.00109666 -1.35035e-17)
(-0.00124694 -0.00145048 2.25488e-18)
(-0.00165853 3.44232e-06 1.17215e-19)
(-0.000796996 -0.000182677 8.02887e-20)
(3.44406e-05 0.0101901 -6.24749e-17)
(0.0218924 -0.00409479 -8.08948e-18)
(3.53695e-05 0.00175619 2.83518e-18)
(-0.000978241 -0.00170835 1.61564e-18)
(5.10424e-05 5.32604e-05 -9.40574e-19)
(0.00608333 -0.022825 4.59265e-18)
(0.0444835 -0.00599147 -1.09275e-17)
(0.00409668 -0.00252344 1.79464e-18)
(0.00118204 0.0076177 -1.22665e-17)
(3.86279e-05 0.000702739 1.25718e-17)
(0.000211838 0.00252735 1.6741e-17)
(-0.00584817 -0.0125623 5.20361e-18)
(-0.00111114 -0.000840329 1.18162e-18)
(6.57492e-05 0.00149881 -4.42456e-18)
(0.00275332 0.0075602 3.16831e-17)
(-3.44969e-05 0.00101728 1.50674e-17)
(0.0173158 -0.0181992 -1.63549e-17)
(0.00453951 0.0101224 -4.5487e-18)
(6.16618e-06 0.00144397 3.05654e-18)
(-0.000973287 -0.000742317 -3.80148e-19)
(0.00186816 -0.00164859 -9.71586e-19)
(-0.00436184 -0.00930479 1.10701e-17)
(-0.00107654 0.0150045 -9.52153e-17)
(-0.00571831 -0.0100276 -8.20269e-18)
(0.00391049 0.0010923 1.82221e-18)
(0.000650833 -0.00345617 1.1263e-17)
(-0.0158015 -0.000277353 1.81491e-16)
(0.00360164 -0.000910957 4.38603e-18)
(-0.00648747 -0.0136808 -8.33746e-18)
(0.00723843 -0.00253359 -5.86082e-18)
(0.00679695 -0.0227277 -2.14074e-17)
(0.000559384 0.00192498 -6.72548e-18)
(-0.000227621 0.00454767 -4.41955e-17)
(0.00014027 0.000101398 1.72824e-18)
(-0.00441364 -0.0117955 -8.54984e-18)
(-0.00685818 -0.00786536 1.10631e-17)
(-0.0101228 -0.00821551 5.25542e-18)
(-0.000909495 -0.00304843 9.51115e-18)
(-0.00194643 -0.0100706 1.0918e-17)
(-0.00112455 -0.00129106 -4.53007e-19)
(-0.000147952 0.00374441 -9.25066e-18)
(0.00397094 0.000406819 -3.63156e-18)
(-0.0354537 0.00240948 -3.09091e-18)
(-0.00773084 -0.00754366 -8.42012e-18)
(-2.12078e-05 -0.000279962 1.301e-18)
(-0.00119965 -0.0170384 -1.04504e-17)
(0.0041616 0.00177699 -1.66582e-19)
(0.0227785 -0.00433258 1.32114e-18)
(0.000422456 0.0133569 1.92135e-17)
(0.00835213 -0.0183463 7.49806e-18)
(-0.00107252 -0.000197328 2.61422e-18)
(0.00928005 -0.00643246 1.59613e-17)
(0.00455419 -0.00406461 -1.25331e-17)
(-0.00113544 -0.000859419 6.93515e-19)
(-0.000279785 0.000167971 -2.59244e-18)
(0.00189246 0.0023069 -5.13333e-18)
(0.0395637 -0.00677722 -2.07159e-18)
(0.0176467 -0.00886067 1.53697e-18)
(-0.0271977 -0.00226281 -1.67977e-16)
(0.00181688 -0.00665154 -4.92488e-18)
(-0.00807519 -0.00949408 -1.087e-17)
(-0.0046002 -0.0128287 -1.22936e-17)
(-0.0260915 0.00265923 1.0506e-16)
(0.0163256 -0.00540683 1.91419e-17)
(-0.000587647 0.000381502 2.51746e-18)
(0.000779517 0.00769798 7.19729e-17)
(0.000701806 0.00447018 2.23634e-17)
(-0.00160604 -8.54986e-06 -4.58607e-20)
(-0.00133649 -0.000803361 6.36632e-19)
(0.00528585 0.00824645 -2.81107e-18)
(0.0173761 0.0103435 3.16471e-17)
(-0.00138007 -0.00451624 4.36083e-18)
(-0.00151354 8.81813e-06 6.04796e-20)
(-0.00168994 -0.00938252 2.88558e-18)
(-0.0045655 -0.00910206 -9.40035e-18)
(0.00177166 -0.00431012 -1.4315e-19)
(0.000115902 -0.0204486 5.61258e-19)
(-0.000362065 0.000862813 1.48937e-18)
(-0.000379175 0.000605165 4.38755e-20)
(-0.000848559 -0.0106178 3.83071e-18)
(0.0449945 -0.00567985 -1.93719e-17)
(4.23839e-05 0.00146627 9.27054e-18)
(0.0411293 -0.00473049 -3.21676e-18)
(-0.00149995 -0.0026832 -3.34377e-18)
(-0.00809936 -0.00954391 9.72192e-18)
(-0.00125347 -0.000388678 -1.87625e-20)
(0.00423097 0.011574 -8.169e-17)
(-0.000961951 -0.00991549 -1.52899e-17)
(-0.0268941 -0.00124527 2.81332e-17)
(-0.000784477 0.000336136 2.71778e-18)
(-0.018129 -0.0110025 5.60028e-17)
(-0.00104834 -0.000175627 -2.05856e-18)
(0.00718582 -0.0104683 8.08273e-18)
(-0.00174177 -9.47045e-06 -1.60482e-19)
(0.0231569 -0.00424102 -7.38925e-18)
(0.0326818 -0.0182484 -7.99246e-18)
(0.00140475 0.00053542 4.80313e-18)
(0.0137605 0.00874668 -2.42198e-17)
(0.000902408 -0.00362851 -2.83215e-19)
(-0.00132667 -0.000351642 -8.59349e-20)
(-0.00437008 -0.0125877 -7.07983e-18)
(-0.00792188 -0.00724683 9.14089e-18)
(0.00167057 -0.00664107 1.2112e-17)
(0.0452739 -0.00602863 -2.4641e-18)
(-0.00289902 -0.00197053 4.11404e-18)
(-0.00143159 -0.000106663 -2.29968e-19)
(0.0017645 -0.00217417 -2.55167e-18)
(0.0168764 -0.0066548 2.83495e-18)
(-0.0142212 0.0033292 -5.98978e-17)
(-0.000153933 0.000117182 -1.67039e-18)
(-0.00114658 5.85449e-05 1.40519e-18)
(0.0246339 -0.00258844 -8.85139e-18)
(-0.00500515 -0.012565 -6.22233e-18)
(-0.000152633 2.47113e-06 -3.08408e-19)
(-0.00716043 -0.0124567 -2.24907e-18)
(0.00195335 -0.0131072 -2.38862e-18)
(-0.000513299 0.00451196 1.06123e-17)
(0.00366791 -0.00309341 -8.68296e-18)
(2.37116e-05 0.000106985 -2.67809e-18)
(0.00378393 0.0026812 -4.74006e-18)
(0.00177664 -0.00237452 -2.40092e-17)
(-0.000689645 -0.00160316 2.80895e-18)
(0.0108491 -0.0061264 1.54966e-17)
(0.00199675 0.00810416 6.05715e-17)
(-0.00100676 -0.00141832 -2.15963e-19)
(-0.000401948 0.00062791 2.71366e-19)
(-0.00451023 -0.00901764 -9.20607e-18)
(0.0256205 -0.0029254 1.24525e-17)
(-0.00483067 -0.00970516 -1.01999e-20)
(0.0019917 0.0023329 9.38198e-18)
(0.00141912 0.00119205 1.16178e-17)
(-9.85272e-05 4.46959e-06 -3.01204e-19)
(0.017176 -0.00277847 -5.33261e-19)
(0.00984582 -0.0267114 -4.22816e-18)
(-0.00782514 -0.012338 1.41291e-17)
(-0.00150382 -0.000334992 2.24281e-20)
(-0.00661782 -0.00481968 5.43945e-18)
(0.0156559 -0.00243076 -1.14479e-17)
(-0.0139033 -0.0142488 -1.89733e-18)
(0.0324451 -0.00690012 2.26167e-18)
(-0.00732786 -0.00580399 4.17934e-18)
(4.14966e-05 0.000132987 -3.78522e-18)
(-0.00171973 -9.42927e-07 7.96031e-19)
(2.42107e-05 -0.00949815 -5.63902e-18)
(0.0181707 -0.00399829 -1.13115e-17)
(-0.00290364 -0.0139131 3.43157e-19)
(-3.73029e-05 -0.00342732 -3.47531e-18)
(0.000557911 -0.0208178 8.95153e-18)
(-0.00338157 -0.00489337 3.46438e-19)
(-0.000810223 -0.000129683 4.05796e-19)
(0.0230966 -0.024913 2.51059e-17)
(-0.000876287 0.000109312 4.49158e-18)
(0.00649325 -0.0162191 1.54919e-17)
(-0.001321 -0.00437057 4.57523e-18)
(-0.000377916 2.49137e-06 -2.21801e-19)
(0.00162441 0.000567057 -6.4844e-19)
(0.00347488 0.00117829 -1.35822e-18)
(-0.000269125 0.00454134 4.65427e-17)
(-0.00644788 -0.0125829 -6.24329e-19)
(0.0023892 0.00113033 -4.86788e-18)
(-0.000801337 -0.00188955 1.78164e-18)
(0.00833706 -0.0206183 -3.9887e-17)
(0.0444246 -0.00627047 1.54952e-18)
(0.0143003 -0.0261222 -1.5833e-17)
(-0.000793485 0.000348171 -1.51434e-18)
(-0.0149811 -0.0151969 5.30346e-18)
(9.45044e-05 0.000390063 -7.99938e-19)
(-0.000849818 -0.00188179 6.61402e-18)
(-0.000759929 0.000408334 9.8109e-19)
(0.00501456 0.0106949 6.46706e-19)
(-0.00129497 1.5621e-05 2.10105e-19)
(0.00741325 -0.0108265 -2.31163e-17)
(0.00351169 -0.00289586 9.15982e-18)
(-0.00103432 -0.00126541 2.84865e-18)
(-0.00213478 -0.00945792 5.44645e-18)
(-0.000309352 -0.00144288 8.25183e-19)
(-2.71116e-05 0.0142927 -7.98526e-18)
(0.004122 0.00169484 4.60231e-19)
(0.00864709 -0.00573823 8.37956e-18)
(-0.000922082 -0.00113665 1.01639e-18)
(-0.000418661 0.00061104 1.07191e-18)
(-0.0264605 -0.00179748 1.60831e-18)
(0.0171388 -0.00277006 -1.1114e-17)
(-0.000745583 0.000414954 -4.00731e-18)
(-0.00173332 -4.89956e-06 8.6999e-19)
(0.0256445 -0.0241039 1.79665e-17)
(-0.00104192 -0.000378421 3.08301e-19)
(0.00644844 -0.00606988 1.62386e-18)
(-0.00095827 -0.00109706 -1.25996e-18)
(0.0246741 -0.00441357 1.03891e-17)
(-0.001026 -0.00195866 3.89464e-18)
(0.0139553 0.00339172 7.57375e-18)
(-0.000460674 -0.00672106 -1.99801e-17)
(0.00224485 0.0143969 3.98555e-17)
(0.000579091 0.00185188 3.60718e-18)
(0.00659916 -0.0221784 1.29519e-17)
(0.00382108 0.0101955 -3.10014e-17)
(0.00165798 0.000449947 -6.25921e-19)
(-0.00489423 -0.0126392 -1.65756e-17)
(0.00619759 0.00908764 -4.28843e-18)
(-6.23373e-05 0.000460147 2.38769e-18)
(0.0216031 -0.00324624 1.20568e-17)
(0.000396273 0.00749354 -4.23795e-17)
(0.0163386 -0.00255719 1.31697e-17)
(0.000279995 0.00227236 4.36998e-18)
(0.0218079 -0.00328812 5.63351e-18)
(0.0017053 -0.00252507 7.30904e-18)
(-0.0249925 0.00244611 -7.08995e-17)
(0.00290248 0.00953676 -5.76886e-17)
(0.00480237 0.00619331 5.29026e-19)
(0.00462243 0.00586219 7.04585e-19)
(0.0443954 -0.00436542 6.31259e-18)
(-0.000204113 0.000182255 -8.25171e-18)
(0.00461938 0.000383949 3.40644e-18)
(-0.0207097 -0.00469836 5.16532e-17)
(-9.25969e-05 0.000986695 3.29095e-18)
(0.000543462 0.00017811 -3.76074e-18)
(0.0162853 -0.0024801 2.87939e-18)
(0.00471032 0.00864411 -8.69267e-19)
(-0.000247125 -0.000504139 1.11123e-18)
(-0.00652574 -0.0128362 -7.86065e-18)
(0.00490493 0.010753 -9.98411e-18)
(-0.00140659 -6.77665e-05 3.65093e-20)
(0.01768 -0.00301315 -7.66359e-18)
(-0.00403124 -0.01249 -1.17103e-17)
(-0.000946212 0.000117939 -3.22973e-18)
(-0.00115936 -4.99762e-05 9.06838e-19)
(0.000259761 0.000361045 4.28626e-19)
(-0.00107975 -0.000760685 -2.56824e-18)
(0.00755185 -0.0202883 2.8269e-17)
(0.00411775 -0.017947 -6.89115e-19)
(-0.00237111 0.0109239 5.59928e-17)
(-0.0242499 -0.00367417 1.75958e-17)
(-0.000591527 0.000581258 -2.34528e-18)
(0.0121366 -0.00636139 -3.21287e-17)
(-0.00476724 0.00308417 7.31809e-17)
(-0.00173157 -0.00810804 -7.45911e-18)
(0.0396709 -0.00491174 7.01815e-18)
(0.0203728 -0.00457269 -6.25649e-18)
(0.0352996 -0.0170298 7.71953e-18)
(-0.00154571 -0.000207858 3.13637e-19)
(-0.00752181 -0.0120401 -1.11281e-17)
(-0.00140325 -0.000115184 1.58015e-18)
(0.00167888 -0.0100992 -1.07364e-16)
(-0.00114623 -0.00155214 9.9149e-19)
(0.0029541 0.0149048 -1.49276e-18)
(0.00210788 -0.0132394 6.33172e-19)
(-0.00164844 -0.00354089 -6.92742e-18)
(-0.00033997 0.000230394 2.3816e-18)
(-0.00100175 -0.0103326 -8.26939e-18)
(0.00997538 -0.00662434 -2.45398e-17)
(-0.000450047 -0.0116695 1.03214e-17)
(0.00825052 0.0204106 -3.04237e-18)
(-0.024406 0.00333362 -2.64812e-17)
(-0.0291146 -0.000602849 -4.93192e-17)
(0.00433903 0.00279379 2.43988e-18)
(0.00667546 -0.0032534 7.38233e-18)
(-0.00116224 6.65523e-05 -2.50931e-18)
(-0.0163814 0.00284946 9.47832e-17)
(0.0366475 -0.00584963 6.24396e-18)
(-0.000453303 0.00039282 4.43279e-18)
(0.00755983 -0.0217953 -2.33128e-18)
(-0.000390888 0.000696481 5.86003e-18)
(0.00129936 -0.0191484 -4.55172e-18)
(-0.000944942 -0.00197187 -5.96766e-19)
(-0.000205848 0.000155813 -1.63662e-18)
(5.7921e-05 -0.00118429 -5.27489e-19)
(0.0316698 -0.00346866 -4.24906e-18)
(0.000174223 -0.00112605 -1.23804e-18)
(0.0264403 -0.00296593 8.25951e-18)
(-0.0160505 -0.000801716 -1.50375e-17)
(-0.00732315 -0.0110179 1.80335e-17)
(0.00303822 0.0106585 2.32197e-17)
(-9.35371e-05 0.000398419 -3.64076e-18)
(0.00361116 0.0109102 1.0156e-16)
(0.00306272 0.0105765 -3.58728e-17)
(-0.000808478 0.000283441 -8.60078e-19)
(0.00473198 0.00897696 -5.64764e-18)
(-0.000171216 0.000966275 -3.54763e-19)
(-0.000434838 0.000753133 -1.68689e-18)
(0.00896892 -0.00897724 1.50768e-17)
(-0.00025561 6.84641e-06 1.07884e-19)
(-0.000318978 0.000762452 -1.65886e-18)
(-0.0012608 -0.000125224 -1.35632e-18)
(0.00660408 -0.0194589 4.1397e-18)
(-1.42359e-05 0.000100072 -3.17579e-18)
(0.0223775 -0.00359768 3.77357e-18)
(0.0353164 -0.00539902 4.83241e-18)
(-0.00137789 0.00112739 2.58028e-17)
(0.0161333 -0.00482291 2.84176e-17)
(0.0264893 -0.00468111 5.54928e-19)
(-0.0207876 -0.00159335 1.26861e-17)
(-0.00150537 -0.00798321 9.01272e-18)
(-0.000611156 0.000561173 -2.19011e-18)
(0.00439184 -0.0162814 -7.20416e-18)
(-0.00164253 -0.0032958 -3.33735e-18)
(0.00192693 -0.00227731 -3.91111e-18)
(-0.000568508 0.000399112 1.62394e-18)
(0.0146764 -0.017479 5.38937e-18)
(0.0415314 -0.0056753 1.27887e-17)
(0.0368316 -0.00540981 1.02587e-17)
(0.00113722 0.000862557 1.56961e-18)
(0.00127698 -0.0139319 5.47594e-18)
(0.000110987 0.00220235 1.06312e-18)
(-0.00161994 -0.00344985 -2.87578e-18)
(-7.76002e-05 -0.0115419 -5.20651e-18)
(9.90193e-05 -0.000569281 -1.03575e-18)
(-0.00918829 -0.0122481 2.21519e-18)
(-0.000531528 -0.000530219 -1.44183e-19)
(-0.00121293 1.86523e-05 -1.58856e-18)
(0.00946215 -0.00720702 1.41988e-17)
(0.0220464 -0.00440453 9.90591e-18)
(0.0228639 -0.00458708 -7.93328e-18)
(0.0107023 -0.00164098 1.62666e-17)
(-0.0004236 0.000848664 -7.16412e-17)
(0.0237032 -0.00332958 1.4548e-18)
(-0.00685565 -0.00825342 7.48293e-18)
(0.0127826 -0.00288293 2.73288e-18)
(-0.000941155 -0.000173707 3.90201e-19)
(-0.000149185 -0.0100935 8.46303e-18)
(6.41567e-05 -0.000617668 6.02737e-19)
(-0.000204317 0.000691305 -8.91547e-19)
(0.000857026 -0.020595 2.01015e-17)
(-0.000763129 -0.00968247 1.32303e-17)
(-0.000142189 -4.11928e-05 6.30606e-20)
(0.00365901 -0.00948615 -1.32834e-17)
(-0.000933403 -0.00785631 8.39035e-18)
(0.0134486 -0.00280135 2.41785e-18)
(-0.00077493 0.000281755 3.23708e-18)
(-0.00361285 -0.0128375 -2.75636e-17)
(-0.0255097 -0.0084895 2.801e-17)
(0.0154484 0.00436514 2.46138e-17)
(0.0217426 -0.00395049 4.87471e-17)
(-3.40029e-05 9.14408e-05 3.67654e-18)
(-0.000536037 0.000447348 3.32659e-18)
(-0.00160378 -1.58732e-05 -1.44525e-19)
(0.00349084 -0.000652767 2.05434e-19)
(-0.00120009 -0.000197306 2.00173e-19)
(0.0412789 -0.00731719 -2.9805e-18)
(-0.00185832 0.0103945 -2.56263e-17)
(0.0024442 0.000962357 5.63889e-19)
(-0.019579 0.00309037 -1.29384e-16)
(4.87931e-06 -0.00454579 1.32705e-18)
(-0.00464677 -0.0117818 1.13964e-17)
(-0.0020901 -0.00990236 -9.63827e-18)
(0.00510543 0.0104466 -1.28097e-18)
(-0.00724169 -0.010869 -2.13185e-18)
(-0.00484215 -0.0126276 -4.26315e-18)
(-0.00256793 -0.0128283 2.4723e-17)
(0.00581711 -0.00837325 -5.46139e-18)
(0.00179963 -0.0161953 1.57213e-18)
(-0.00271844 -0.00688534 -1.25144e-17)
(-0.00849709 -0.0109197 -1.68643e-17)
(0.000285523 0.0105006 7.68575e-17)
(-0.00386198 -0.00652663 2.01209e-18)
(-0.00267995 -0.0117894 -4.44726e-18)
(-0.00129694 -4.41483e-05 -5.45016e-19)
(0.00402533 -0.0220206 -1.7599e-17)
(-0.000463333 -0.00521392 4.93169e-18)
(-0.000709915 -0.000899439 4.56497e-18)
(0.00293993 -0.000618104 -4.18688e-18)
(-0.0014922 -0.00278112 -6.79975e-18)
(0.0136576 -0.0029566 -2.46655e-18)
(0.0350991 -0.0163975 7.2051e-18)
(-0.00103351 -0.000333986 -7.88843e-19)
(-0.00091039 -0.000106344 -3.45935e-19)
(0.0463436 -0.00642026 -1.20719e-17)
(-0.0223156 -0.000929295 -1.47163e-18)
(-0.000337502 5.03258e-06 -7.95047e-19)
(0.0211573 -0.00351329 -1.21968e-18)
(-0.0011508 -0.00283803 1.49281e-17)
(0.0152084 -0.00594899 5.32039e-17)
(-0.00112338 -0.000301733 -1.41431e-18)
(-0.00368002 -0.00385097 -3.11974e-18)
(-0.00295499 -0.0167703 1.79004e-17)
(0.0016066 -0.00182213 8.74115e-18)
(-0.000700726 -0.00153362 9.73579e-19)
(0.0271858 -0.00507369 -1.69307e-18)
(0.0159576 -0.00872582 1.39698e-17)
(-0.00965804 0.0034272 -1.30055e-17)
(-9.0227e-05 6.22523e-06 2.19622e-18)
(0.000264416 -0.0028934 9.91837e-18)
(-0.000151815 0.0129834 -3.37688e-16)
(0.0261745 -0.0220796 4.25396e-17)
(-0.000867685 -0.000920938 -7.03419e-19)
(-0.0170517 0.00494387 2.16183e-17)
(0.0204309 -0.022181 -2.61144e-19)
(-0.00151465 -0.00789852 -1.90874e-17)
(-0.00114494 -7.50255e-05 -8.03593e-19)
(-0.00011142 -8.21301e-05 -1.45145e-18)
(-0.00682336 -0.00520941 -2.07039e-17)
(0.000712762 -0.0196037 -5.41986e-18)
(3.63233e-05 -4.9044e-05 -1.95136e-19)
(-0.00117695 -3.18735e-05 8.5761e-19)
(-0.0013976 1.29485e-05 8.19618e-19)
(-0.00141377 9.87283e-06 1.1039e-19)
(-0.00827585 -0.00394221 5.88083e-18)
(0.00129457 -0.020626 2.65231e-17)
(-0.00174395 -0.00782092 1.78031e-17)
(0.0175313 -0.010052 -6.62003e-18)
(-0.0015745 -1.3182e-07 -1.15286e-18)
(-0.00136828 -0.000115914 3.84758e-19)
(0.00101609 -0.0137076 -3.03264e-17)
(0.0290806 -0.015266 6.44014e-18)
(0.00154514 -0.00561958 1.18489e-18)
(-0.00114325 -0.00134272 4.25426e-19)
(-0.000479452 0.00073697 8.20998e-19)
(-5.73969e-05 0.000852299 -5.24114e-18)
(0.0250815 -0.0242151 -2.32735e-18)
(-0.0329892 0.00242923 -9.90684e-17)
(-0.000415625 0.000126001 1.54637e-19)
(-0.000200514 0.000838474 1.15801e-18)
(-0.00745296 -0.0117062 -3.62615e-18)
(-0.00249624 -0.00690497 -1.00553e-17)
(-0.000664414 -0.00669809 9.60207e-18)
(-0.000393759 0.000498891 8.89468e-18)
(-6.70274e-05 -0.000969006 -4.15074e-19)
(0.00135544 -0.00125128 4.16396e-19)
(-0.00268198 -0.0115762 1.11174e-17)
(0.00578419 0.00859019 -1.06082e-18)
(0.0182023 -0.00942466 -3.20741e-17)
(0.0045224 -0.0165962 2.40237e-17)
(-0.00126285 -0.0132008 -4.38199e-17)
(-0.000167323 -0.0203649 -4.46029e-18)
(0.00820698 -0.00613788 1.07076e-17)
(-0.000744367 0.000390334 -4.86491e-18)
(0.00204898 -0.00306973 6.47157e-18)
(-3.9254e-06 0.000833446 2.31677e-18)
(0.000807566 0.000182539 3.98353e-18)
(-0.00181516 -0.00369957 1.02707e-17)
(0.0035156 -0.0218502 -3.21292e-18)
(0.00502001 0.00415397 7.08731e-19)
(-0.00159715 -2.50552e-05 1.23644e-19)
(0.0158561 0.00384793 -1.1639e-19)
(0.00842708 -0.0105289 1.11137e-18)
(-0.0120733 -0.00862534 5.7906e-18)
(-0.00107149 -0.0132249 2.27418e-17)
(0.00203364 0.00355796 -7.33193e-18)
(-0.00106589 -0.00803671 -1.9756e-17)
(-0.000347403 0.000259596 -2.77049e-18)
(0.017274 -0.0251011 -6.76675e-18)
(0.0147472 0.00316917 -2.49337e-17)
(0.0370672 -0.00378831 -1.0665e-17)
(-0.000412867 -0.000485599 3.11753e-20)
(-0.000459261 -0.00525873 -9.86656e-19)
(0.016487 -0.010659 -6.76457e-18)
(0.021195 -0.00494788 -6.22763e-18)
(-0.0113335 0.00029733 1.8698e-17)
(-0.0011064 -0.0110851 5.10696e-18)
(0.01122 -0.00173637 4.95106e-18)
(0.00119879 0.000682791 1.97991e-18)
(-0.000175501 -0.00244413 1.18297e-18)
(-0.000285755 0.000527843 8.52414e-18)
(0.00355362 0.00470199 -1.82708e-17)
(0.00223708 0.00707815 -2.9015e-17)
(-0.00010033 0.0013369 8.97252e-18)
(-0.00101568 -0.00971632 1.46526e-17)
(0.00172516 0.00802109 -2.49052e-17)
(0.0382576 -0.00387508 4.14854e-18)
(-0.01038 0.00368046 -2.25339e-17)
(0.000471074 -0.0010016 -2.56569e-19)
(-0.00552885 -0.0115655 -1.39529e-17)
(-0.00439469 -0.0164592 -1.59387e-17)
(0.00181461 0.000488917 -3.01229e-19)
(0.000221533 0.00138624 1.68846e-19)
(0.00438433 0.0144994 1.79915e-18)
(0.0111969 -0.0232729 -1.47559e-17)
(0.0294999 -0.0147372 -2.3328e-17)
(0.0149528 -0.0115972 -2.00095e-18)
(-0.000849475 -0.000199251 -9.20179e-19)
(0.0178614 -0.0032202 2.77031e-18)
(-0.00665713 -0.00547134 8.42012e-18)
(-0.00177687 -1.76154e-05 -1.04632e-19)
(0.00159888 -0.00413643 6.17868e-18)
(-0.00435207 -0.0106256 7.83847e-18)
(0.00132115 0.00377146 -5.78878e-20)
(0.00846016 -0.00955547 3.95296e-17)
(0.0336876 -0.00726394 -7.51453e-19)
(0.00151364 -0.0158494 3.90282e-18)
(-0.00312815 -0.00637369 1.22545e-17)
(0.018022 -0.0252865 3.03825e-17)
(-0.000838763 -0.00285156 -1.24659e-18)
(0.0114308 -0.00251389 7.50225e-19)
(-3.48261e-05 0.000109403 6.58406e-20)
(-0.000411104 0.000138422 1.80277e-18)
(-0.015587 -0.015052 -7.20079e-18)
(0.0157017 -0.0226606 -7.69849e-18)
(0.0019788 0.010764 2.15883e-17)
(-0.000970427 -0.00290413 -1.62987e-18)
(-0.000143169 -0.000335069 1.61276e-18)
(-0.000182366 0.000817274 2.57648e-18)
(-0.00340754 -0.00504721 5.66165e-19)
(0.00202402 0.0156249 1.72733e-17)
(-0.00926331 -0.0080167 -1.81268e-17)
(-3.73698e-05 -0.00256579 -2.92972e-18)
(-0.00697984 -0.0106935 -2.24195e-18)
(-0.00115726 -0.0101668 9.22555e-18)
(-0.000977175 -0.000298595 -1.09842e-18)
(0.0126305 0.00874429 -6.83959e-18)
(-0.00928362 -0.00765261 2.83506e-18)
(-0.0198597 -0.0108163 -1.84596e-17)
(-0.000892575 0.00025284 -2.91037e-18)
(0.00106467 -0.015643 -1.37104e-17)
(-0.0013756 -0.00269225 -1.46042e-18)
(-0.0237554 -0.0044731 -1.24393e-16)
(0.0075828 -0.00367018 -1.02425e-17)
(0.0051316 0.00384037 3.10149e-19)
(0.000454562 -0.00526241 -4.7699e-18)
(-0.00153597 -2.38604e-05 9.52212e-20)
(-0.000840247 -0.00087319 -3.61538e-18)
(-0.00122443 -0.00148953 -1.24848e-18)
(0.00517127 0.00571685 -1.27671e-19)
(0.000335014 0.00288589 -2.14624e-17)
(0.0108755 -0.0174368 -1.08637e-17)
(0.00547789 0.0130614 8.16837e-18)
(-0.00161756 -0.00997024 -5.41843e-18)
(-0.00139984 -5.45212e-05 3.99286e-20)
(0.0021256 -0.0157997 -4.0303e-18)
(0.00243731 0.0113092 -6.3118e-17)
(-0.005518 -0.0127453 -1.44512e-17)
(-0.000714717 -0.00156739 -1.32426e-18)
(0.000432476 0.00267536 -2.58762e-17)
(-0.00109155 -6.03671e-06 -1.26826e-18)
(-0.00181158 -0.0046578 -1.96448e-18)
(1.09302e-05 -0.00361391 6.67465e-18)
(0.0215036 -0.0214823 -1.21974e-17)
(-0.000161905 0.000143657 -4.09594e-18)
(0.0214173 0.0127481 -2.24636e-17)
(-0.00156242 -0.00477727 6.32091e-19)
(-0.00668499 -0.0115456 9.99227e-18)
(0.00958671 -0.00498333 2.05108e-17)
(0.00136737 -0.00527619 -2.08763e-17)
(0.00559444 0.0034921 -8.1727e-18)
(-0.000271812 -7.28e-05 4.60547e-19)
(0.0157714 -0.00394103 -1.90677e-17)
(-0.0145694 -0.00128932 7.92066e-18)
(-0.000515481 8.78026e-05 -1.64239e-18)
(-0.00190287 -0.00361545 -5.67561e-18)
(-0.0015317 -0.0175628 1.0493e-17)
(0.0143151 -0.0110026 4.12979e-17)
(-0.00331537 -0.0136962 1.60554e-17)
(-0.000496437 7.21783e-06 2.5096e-18)
(-0.000727744 -0.0016047 1.46872e-18)
(0.0131557 0.00306819 -2.53476e-17)
(-0.00158172 -0.00358504 5.18654e-18)
(-0.000196177 -0.011497 -1.50888e-17)
(-0.00451141 -0.00886062 -1.99499e-17)
(-0.000622425 -0.000899601 4.82447e-18)
(-0.00362169 -0.00893143 -5.15061e-18)
(0.0462272 -0.00495413 -8.29244e-19)
(-0.000700627 -0.00149422 1.8626e-18)
(-0.00119128 -0.00245927 -1.48118e-18)
(-0.001347 2.07105e-05 -1.06779e-18)
(0.0169169 -0.00280444 8.25702e-18)
(3.614e-05 6.96543e-05 1.24952e-18)
(0.00103752 0.00084443 -8.02871e-18)
(-0.0350461 0.00227823 -2.52107e-17)
(0.000531563 0.000497817 -3.64137e-18)
(0.00923816 -0.0232519 -7.28411e-19)
(0.000734602 -0.00335324 -7.82199e-18)
(0.00143706 0.00403429 1.35533e-17)
(-0.00132475 1.66276e-05 -8.90717e-19)
(0.00442141 0.00193608 -4.2943e-19)
(-0.000712291 0.000418922 -4.41734e-18)
(0.00519341 -0.00784731 -1.84009e-17)
(-0.00158213 -1.2289e-05 -5.27033e-19)
(0.00782674 0.00226456 -8.25885e-18)
(-0.00104672 -0.00281236 -6.01069e-18)
(-0.0383919 -0.0141929 -1.9405e-17)
(0.00545912 0.0143053 -5.47546e-18)
(0.0281548 -0.0155296 -8.23886e-18)
(-0.00163994 -1.44839e-05 2.24908e-19)
(-0.000293696 0.000208527 5.82373e-18)
(0.00767413 -0.00605028 -2.98307e-18)
(0.00531926 -0.00431636 1.06014e-17)
(0.0175798 -0.00272998 9.98758e-18)
(0.0367555 -0.015644 -1.78408e-19)
(0.000388867 -0.00943507 4.32247e-18)
(-0.000514965 0.000811495 -5.82114e-19)
(0.00628629 -0.0191494 -1.58043e-17)
(0.00170834 0.0111204 4.4498e-17)
(-0.0156692 -0.0106588 2.0405e-17)
(0.00974344 -0.016778 4.49645e-18)
(-2.25034e-05 -0.00936815 -6.31146e-18)
(0.0332042 -0.00660912 -7.57427e-19)
(0.00414999 -0.0020475 3.35436e-20)
(-0.00352544 -0.00486084 -1.17308e-17)
(0.00520175 -0.0150759 -1.87635e-18)
(0.00502196 0.00795173 -5.85504e-18)
(0.00199716 -0.00919515 -7.54985e-18)
(0.00304002 0.0118912 -4.8992e-17)
(0.00247045 -0.00894334 1.30757e-17)
(-0.00157448 -0.0029821 6.30355e-19)
(-0.00309711 -0.0108222 3.79823e-18)
(0.00173227 0.000304645 2.31003e-18)
(-0.000726984 -0.00115182 -2.35606e-18)
(-0.000882579 -0.00463819 1.71565e-18)
(0.00470459 -0.00348858 4.12224e-18)
(0.00163124 -0.00152794 -3.37988e-18)
(-0.000668631 0.000486862 3.79222e-18)
(-0.00154769 -2.37664e-06 -5.45317e-19)
(-0.00153689 -0.0100892 9.11634e-18)
(-0.000838979 -0.00327941 2.38732e-18)
(0.00128854 -0.0117221 1.06607e-17)
(-0.00037295 0.000791592 1.40404e-18)
(-0.000446826 0.000707793 4.11736e-18)
(4.85226e-05 5.81077e-05 1.14391e-18)
(0.000383655 -0.00078002 -1.77032e-19)
(-0.00044718 -0.000405117 9.04153e-19)
(0.000923211 -0.00168801 -3.60786e-18)
(-0.00136785 2.83978e-05 -1.21985e-18)
(-0.00458262 -0.00354474 1.24483e-17)
(-0.00615346 -0.00664271 1.28102e-18)
(-0.00258143 0.0103347 2.06696e-17)
(-0.00131935 -0.000162353 -1.08701e-19)
(6.61939e-05 5.87828e-05 2.80704e-19)
(0.00204529 0.0049633 -5.37986e-17)
(0.00491268 -0.00872488 7.15637e-18)
(-1.26433e-05 0.00170304 -1.26789e-17)
(0.0179162 -0.0271942 5.20973e-18)
(0.00852438 -0.00111056 1.41372e-18)
(0.0223751 -0.00700439 5.08223e-18)
(-0.000942022 -0.0047818 -3.125e-18)
(0.00173028 -0.01468 -3.28104e-18)
(-0.000735763 -0.00244639 -9.36866e-19)
(9.52017e-05 5.09551e-05 4.00708e-19)
(-0.00152714 5.43966e-06 -3.39869e-19)
(-7.90074e-05 -0.0013516 -1.34139e-18)
(-0.0308352 0.00415611 -1.5011e-17)
(8.81694e-05 4.81133e-05 -2.05099e-18)
(-0.000857884 -0.0205316 -1.46584e-17)
(0.000617246 -0.00174582 -2.00205e-20)
(-0.00563297 0.00319884 3.0832e-17)
(0.00403451 0.00327716 1.02774e-17)
(0.0091348 -0.00131709 2.17088e-17)
(-0.0077743 -0.011477 -6.91693e-18)
(-0.00104706 -0.000529949 -8.58727e-19)
(4.44943e-05 8.39504e-07 -1.26169e-18)
(-0.00671108 -0.00684865 -2.60068e-19)
(-0.000137201 0.000990106 -7.05934e-18)
(0.000146149 0.000807263 7.55574e-19)
(0.0154093 -0.026276 -1.51923e-17)
(0.000150334 -0.000305977 -1.95823e-18)
(-0.000210054 0.000360295 -6.23282e-19)
(0.000597549 -0.0042187 4.1527e-19)
(-0.00122431 3.57761e-05 -2.31126e-19)
(-0.00113186 -8.304e-05 -6.64459e-19)