/*--------------------------------*- C++ -*----------------------------------*\
| =========                 |                                                 |
| \\      /  F ield         | OpenFOAM: The Open Source CFD Toolbox           |
|  \\    /   O peration     | Version:  v2012                                 |
|   \\  /    A nd           | Website:  www.openfoam.com                      |
|    \\/     M anipulation  |                                                 |
\*---------------------------------------------------------------------------*/
FoamFile
{
    version     2.0;
    format      ascii;
    class       surfaceVectorField;
    location    "650";
    object      Uf_0;
}
// * * * * * * * * * * * * * * * * * * * * * * * * * * * * * * * * * * * * * //

dimensions      [0 1 -1 0 0 0 0];


internalField   nonuniform List<vector> 
20580
(
(1.0743 0.151634 2.69808e-22)
(1.07137 0.155978 -1.6257e-22)
(1.07032 0.150382 1.81014e-20)
(1.0725 0.000332822 -6.24684e-21)
(1.07364 -0.000590944 -5.67179e-21)
(1.07449 0.00140392 3.06862e-21)
(1.071 0.00186886 -1.23233e-22)
(1.07017 -0.000101198 1.25299e-21)
(-0.232911 -0.0321097 -2.01276e-20)
(-0.206565 -0.035008 1.50397e-19)
(-0.233113 -0.0337261 1.51455e-19)
(1.00256 -0.000616453 0)
(1.00232 -0.00057685 -1.05112e-21)
(1.00242 -0.000342456 0)
(1.09128 -0.00896818 1.40935e-20)
(1.09201 -0.0114565 2.40364e-21)
(1.08911 -0.0111772 -1.50924e-21)
(1.03795 0.0285164 -2.2302e-22)
(1.03765 0.0298091 -1.2643e-20)
(1.01356 -0.000669136 3.34268e-21)
(1.01332 -0.000699737 0)
(1.01265 -0.000428703 1.94434e-21)
(0.640877 0.0973145 8.21754e-24)
(0.649011 0.096043 2.92133e-21)
(0.60734 0.0895594 1.42485e-21)
(0.991862 -0.0132849 -4.4572e-21)
(0.992167 -0.0125726 -7.43236e-22)
(0.992653 -0.0130772 -4.25152e-21)
(1.22383 -0.0551195 2.60815e-20)
(1.21615 -0.057091 0)
(1.22209 -0.0631991 0)
(1.00219 -0.0100233 0)
(1.00243 -0.0103129 -1.60978e-22)
(1.00228 -0.0104718 9.16982e-22)
(0.983509 -0.0259195 1.7541e-21)
(0.983324 -0.0268638 1.59149e-21)
(0.984453 -0.0262943 9.56661e-21)
(0.32292 0.0425895 -7.73442e-22)
(0.303597 0.0345125 6.66121e-22)
(0.324397 0.0473117 2.29585e-21)
(1.08061 0.0596381 -2.7687e-21)
(1.08262 0.0611805 1.09356e-20)
(1.08263 0.0582617 1.56401e-20)
(1.01158 0.0872089 -3.15482e-21)
(1.01158 0.0860754 1.64536e-20)
(1.01047 0.0870841 -2.01799e-21)
(-0.464924 -0.0389979 -2.97354e-20)
(-0.484855 -0.0353845 -9.52341e-21)
(-0.479468 -0.0331968 -6.80179e-20)
(1.03598 -0.0113938 -5.10725e-21)
(1.03677 -0.0111105 -4.55235e-21)
(1.03678 -0.0120704 -5.02688e-21)
(1.21001 0.216034 -2.69352e-20)
(1.2178 0.213825 -3.0993e-20)
(1.21184 0.223289 -1.07366e-19)
(1.07815 0.153905 2.106e-20)
(1.07744 0.148479 -1.78956e-20)
(1.101 0.064926 -2.88967e-21)
(1.10186 0.0616975 -1.369e-20)
(1.09839 0.0627629 -1.71401e-20)
(1.06198 -0.0871778 2.33571e-21)
(1.05827 -0.0884678 -7.83313e-21)
(1.05933 -0.084191 4.33614e-22)
(0.566368 -0.292777 -7.34593e-20)
(0.412852 -0.228607 -7.05317e-20)
(0.263922 -0.169081 -8.02439e-20)
(1.00007 -0.000255397 4.35638e-25)
(1.00012 -0.000335977 -1.24487e-21)
(1.00007 -0.000214319 0)
(1.22303 0.104808 -2.99489e-22)
(1.19957 0.0981087 6.13379e-20)
(1.09396 0.0980017 2.71169e-20)
(1.03024 0.0796482 0)
(1.02897 0.079978 -2.44471e-21)
(1.02999 0.0809677 -7.86151e-21)
(0.997776 0.122835 -5.80932e-21)
(0.996385 0.124143 2.9938e-21)
(0.996057 0.121256 -1.50637e-21)
(1.12264 0.278662 2.70918e-20)
(1.11133 0.2742 4.28939e-20)
(1.12309 0.286852 0)
(0.797337 0.0724326 0)
(0.766835 0.0699578 1.88716e-22)
(0.758454 0.0696408 0)
(1.0217 -0.00902891 3.35007e-21)
(1.02146 -0.00950824 -1.3774e-21)
(1.02109 -0.00896389 0)
(-0.156029 -0.0475123 1.15742e-20)
(-0.189203 -0.04738 1.81783e-19)
(-0.140708 -0.0478438 9.35391e-20)
(1.03895 0.0287483 2.75457e-21)
(1.03818 0.027645 -1.30891e-20)
(1.06025 0.144442 2.08392e-21)
(1.05741 0.14231 0)
(1.06146 0.141093 0)
(0.716171 0.17853 -3.60357e-21)
(0.699705 0.178458 3.27976e-21)
(0.77202 0.191841 -6.7386e-22)
(1.16892 -0.049521 6.77116e-21)
(1.16986 -0.0442871 -1.70403e-21)
(1.17363 -0.0494566 7.23787e-22)
(0.786581 0.0683679 6.23739e-22)
(0.823208 0.0710866 -2.94104e-21)
(0.793649 0.0672729 8.18018e-21)
(1.00002 -0.000166908 -5.57824e-22)
(1.00007 -0.000305845 1.75333e-22)
(1.12883 -0.101361 -1.69541e-20)
(1.00202 -0.09143 4.47447e-21)
(0.979948 -0.0845281 -1.20495e-19)
(-0.132127 0.00144308 -1.53606e-20)
(-0.111216 0.00495113 8.80912e-20)
(-0.0680442 0.00674735 9.93979e-20)
(1.01251 -0.0395006 -9.54567e-22)
(1.01315 -0.0384598 -4.59156e-22)
(1.0138 -0.0396749 -3.79229e-22)
(0.336023 0.164132 6.53415e-22)
(0.41738 0.182605 -6.98728e-20)
(0.361053 0.167208 -2.97623e-20)
(0.826156 0.075649 1.27913e-21)
(0.834576 0.0749378 2.95816e-21)
(-0.365656 -0.026069 1.50441e-19)
(-0.371828 -0.0263688 -4.39774e-20)
(1.17184 -0.519794 3.63411e-20)
(1.16078 -0.52599 -6.96315e-20)
(1.15742 -0.536381 3.08294e-20)
(0.863747 0.0841547 -2.58291e-21)
(0.85529 0.0843417 -3.50477e-22)
(0.822106 0.0802461 -9.66583e-21)
(1.01851 -0.0215281 1.49139e-21)
(1.0178 -0.0217795 2.24082e-21)
(1.01793 -0.020869 -5.88912e-22)
(1.01688 0.000361336 -1.00292e-21)
(1.01664 0.000305473 4.7286e-21)
(1.01631 0.099527 -7.45398e-21)
(1.01492 0.0989408 9.27415e-21)
(1.01653 0.0978892 -1.15873e-20)
(1.05926 -0.0484281 -6.31252e-21)
(1.05668 -0.0470568 1.59172e-20)
(1.05939 -0.0461303 -9.64455e-21)
(0.983738 -0.0247849 1.276e-20)
(0.982348 -0.0252754 0)
(-0.46425 -0.0130528 3.70421e-20)
(-0.460165 -0.013417 -1.56939e-19)
(-0.517896 -0.0205591 -1.74311e-19)
(0.974791 -0.0202506 -1.47181e-20)
(0.976019 -0.0201734 -3.57988e-21)
(0.975426 -0.0214708 1.67101e-20)
(1.01163 0.0885474 9.34035e-21)
(1.01288 0.0874312 2.06951e-20)
(1.04415 0.0499652 1.09506e-20)
(1.0445 0.0512025 0)
(1.04306 0.0508957 1.58085e-20)
(0.423043 0.0376602 0)
(0.44507 0.0451614 1.06856e-21)
(0.414749 0.0377496 0)
(1.01213 -0.040514 1.01184e-21)
(1.0114 -0.0392866 4.2113e-22)
(1.05828 0.148594 -2.08146e-20)
(1.06379 0.146672 -1.98515e-20)
(0.306522 0.15833 1.9162e-20)
(0.26537 0.140635 1.4376e-20)
(0.995275 0.102174 0)
(0.994593 0.101157 0)
(0.994358 0.103172 6.16491e-21)
(0.0290541 0.0289846 6.78256e-21)
(0.0491526 0.0317782 1.68451e-20)
(0.0586034 0.0406392 -8.25493e-21)
(1.00199 -0.00971992 -1.71071e-22)
(1.00212 -0.00958363 -1.05816e-21)
(0.999569 0.121748 7.3377e-21)
(0.999768 0.12443 1.4601e-21)
(0.995848 -0.00681085 4.23814e-21)
(0.995982 -0.00721516 -4.10768e-21)
(0.995487 -0.00732511 0)
(1.05876 -0.0504082 -1.07856e-20)
(1.06133 -0.0492131 3.87845e-21)
(0.905804 -0.509754 0)
(0.932219 -0.503517 -3.06021e-21)
(0.913028 -0.485108 1.87536e-21)
(0.877695 -0.51498 0)
(0.899615 -0.541572 -1.29835e-21)
(0.00898253 0.0214787 1.53677e-20)
(-0.000666635 0.0152301 5.25548e-22)
(0.708793 -0.159451 -3.8607e-20)
(0.703152 -0.176687 4.03927e-20)
(1.02826 -0.0370071 -4.93477e-21)
(1.02711 -0.0376427 -1.05475e-21)
(1.02726 -0.036131 2.95301e-21)
(-0.18314 -0.0405327 1.9282e-20)
(-0.216189 -0.0369319 7.0032e-20)
(-0.204828 -0.0390193 -4.16557e-20)
(-0.241493 -0.0407043 -1.64809e-20)
(-0.28196 -0.0386534 9.53949e-20)
(-0.245706 -0.0422245 3.86331e-20)
(1.10732 0.0763627 2.6035e-20)
(1.11051 0.0753555 1.11818e-21)
(1.1097 0.0796229 1.57277e-20)
(0.998463 -0.0304013 -1.61067e-21)
(0.99757 -0.030212 0)
(0.997958 -0.0313302 3.06424e-21)
(0.0631004 0.033546 3.08591e-21)
(0.0322704 0.0191075 1.3998e-20)
(1.05162 0.0545492 -9.25745e-21)
(1.05239 0.0531132 0)
(1.05324 0.0545839 1.15845e-21)
(1.03681 -0.0737435 -7.06159e-23)
(1.034 -0.0730063 -8.34421e-22)
(1.03598 -0.0707736 3.19492e-22)
(-0.439543 -0.0394346 -5.92323e-20)
(-0.420552 -0.0384841 4.12959e-20)
(1.02037 -0.00334784 5.54537e-21)
(1.02036 -0.00369795 2.41114e-21)
(1.02088 -0.00348908 -2.72406e-21)
(1.23991 0.11411 2.01315e-20)
(1.33646 0.109714 3.55578e-20)
(1.00801 -0.0195897 -1.59325e-22)
(1.00769 -0.0189689 1.00773e-22)
(1.00741 -0.0194398 -1.00709e-22)
(1.02966 -0.0366631 -3.0595e-21)
(1.02916 -0.038353 -5.40446e-21)
(1.38198 -0.0126176 1.71147e-20)
(1.38141 -0.00279102 2.04811e-20)
(1.39239 -0.0106496 0)
(1.16383 -0.0505425 4.94862e-20)
(1.16756 -0.0556268 -2.02355e-20)
(0.278967 0.0387447 0)
(0.296706 0.0432432 9.24194e-22)
(0.309606 0.052207 0)
(0.0756857 0.0344215 -1.45234e-20)
(0.0937228 0.0457002 -3.9507e-21)
(-0.210481 -0.0445455 4.83571e-20)
(-0.203752 -0.0447894 6.22573e-20)
(-0.166839 -0.0471169 5.63254e-20)
(1.06492 -0.0895904 5.23253e-21)
(1.0652 -0.0853238 2.05739e-21)
(0.556555 0.0373347 -5.15969e-21)
(0.523207 0.0310109 -7.52329e-21)
(0.559541 0.0374609 2.17653e-22)
(0.99319 -0.0169644 2.5038e-21)
(0.993726 -0.017304 0)
(0.993677 -0.016481 4.97686e-21)
(-0.136854 -0.0483403 -2.66482e-20)
(-0.178109 -0.0452006 -7.7746e-20)
(0.972743 -0.020517 -1.62855e-20)
(0.973881 -0.018556 1.88087e-20)
(1.04003 0.0288583 3.12688e-21)
(1.03968 0.0300353 -1.37053e-20)
(-0.497452 -0.027479 5.6447e-20)
(-0.499587 -0.0297871 -2.17506e-20)
(-0.220209 -0.0444876 5.81401e-20)
(-0.251665 -0.0427658 5.20664e-23)
(-0.151035 0.0302606 -3.66925e-21)
(-0.177768 0.0199639 -5.73187e-20)
(-0.207573 0.0175124 -7.93041e-20)
(1.16204 -0.494692 2.88047e-20)
(1.15149 -0.474077 5.39478e-20)
(1.13701 -0.48836 -2.85768e-20)
(1.01389 -0.0241354 6.04177e-22)
(1.0132 -0.0242739 -3.7059e-22)
(1.01403 -0.0249606 1.96238e-21)
(1.01208 0.0942175 2.54117e-21)
(1.01192 0.0926282 -8.17142e-21)
(1.0134 0.0932716 -9.34583e-21)
(-0.323132 0.00750692 -3.86497e-20)
(-0.315487 0.00635995 -7.93744e-20)
(-0.366889 -0.00630968 -3.35854e-20)
(1.30914 -0.181173 -9.73254e-21)
(1.32067 -0.181137 -8.99185e-20)
(1.31431 -0.19134 -5.19364e-20)
(1.01216 0.0958166 8.87749e-21)
(1.01063 0.0950332 9.40632e-21)
(0.819186 -0.152411 2.06147e-20)
(0.816314 -0.141709 -3.95645e-20)
(0.827963 -0.145241 8.03612e-21)
(0.829701 -0.18636 -2.05103e-20)
(0.826603 -0.174216 1.24638e-20)
(0.815979 -0.184119 4.0979e-20)
(0.993598 -0.032649 0)
(0.994702 -0.0327773 0)
(0.994047 -0.0340491 3.37358e-21)
(1.02114 -0.0200935 7.00246e-22)
(1.02182 -0.0206722 1.73897e-21)
(1.02165 -0.019765 -9.8594e-22)
(1.12823 0.06025 5.52297e-21)
(1.13188 0.058966 -3.02598e-21)
(1.13102 0.0639793 4.52439e-21)
(1.02046 -0.0194231 -1.57572e-21)
(1.02037 -0.0204602 -2.5132e-23)
(-0.237228 -0.0416764 -5.63602e-20)
(-0.200694 -0.0445279 -1.96658e-19)
(1.04022 0.0277011 -8.28299e-22)
(1.04112 0.0288815 8.64485e-21)
(1.03523 -0.0117493 4.78991e-21)
(1.03521 -0.0108141 0)
(1.05448 -0.130215 1.22039e-20)
(1.05779 -0.134802 -3.72166e-21)
(1.05155 -0.134573 -1.24522e-22)
(1.01922 -0.0213428 1.70573e-21)
(1.01932 -0.0222479 3.50568e-21)
(1.2741 0.0999689 -1.64377e-20)
(1.27021 0.106778 -2.69173e-20)
(1.27871 0.105157 -3.34377e-20)
(1.20283 0.025895 6.64475e-22)
(1.19726 0.0259607 -6.12532e-21)
(1.19985 0.0205448 -1.14036e-20)
(1.04109 0.129564 1.13741e-20)
(1.03904 0.127699 0)
(1.03814 0.130986 1.52463e-20)
(1.04384 0.048511 -2.84556e-21)
(1.04522 0.0487983 1.38144e-20)
(1.01516 -0.00667753 4.09174e-21)
(1.01504 -0.00693776 -1.63672e-21)
(1.01556 -0.00692166 6.19265e-21)
(1.01383 -0.000563392 3.23798e-21)
(1.01391 -0.00088064 6.77753e-21)
(-0.259184 -0.0289756 -2.55975e-19)
(-0.236128 -0.0322067 -9.60257e-20)
(-0.155109 -0.0423227 -1.25893e-19)
(-0.143631 -0.0440933 6.55194e-23)
(1.18356 -0.390141 -1.05782e-20)
(1.17303 -0.402357 7.92557e-22)
(1.19193 -0.40374 -1.9272e-20)
(1.03004 -0.0104618 -8.15064e-21)
(1.02915 -0.010732 -5.33296e-21)
(1.02925 -0.00997612 3.87841e-21)
(1.0223 -0.0385506 1.52695e-21)
(1.0235 -0.0389315 -5.28047e-22)
(1.02263 -0.0400265 -3.30786e-22)
(0.240479 0.0823106 3.13671e-21)
(0.273674 0.0943495 -4.83576e-21)
(0.229874 0.0849239 1.00308e-20)
(1.14301 0.208839 -8.91992e-21)
(1.15043 0.211179 4.81972e-21)
(1.14474 0.216714 -6.23439e-21)
(0.616047 -0.249729 -3.8406e-20)
(0.639102 -0.240974 9.34999e-21)
(0.636729 -0.272046 8.40068e-20)
(1.01468 -0.0240999 -1.31207e-21)
(1.01386 -0.0233686 -1.04223e-22)
(1.19106 -0.138692 0)
(1.18728 -0.131024 0)
(1.18377 -0.13922 3.38365e-20)
(0.505383 0.158766 -1.44037e-21)
(0.436961 0.145625 -7.03383e-21)
(0.487475 0.158524 5.6207e-21)
(1.08761 0.0756248 0)
(1.08811 0.0789402 1.17107e-20)
(1.09068 0.0755427 0)
(1.05452 -0.0888165 0)
(1.05688 -0.0920352 9.71548e-21)
(1.12388 -0.0382656 0)
(1.12405 -0.0336364 0)
(1.12005 -0.0367861 1.38542e-20)
(1.28526 -0.121415 2.51415e-21)
(1.26622 -0.105118 6.64001e-20)
(0.741817 0.178765 -1.75721e-21)
(0.670422 0.169711 -3.82373e-22)
(1.23041 -0.0546155 2.08849e-20)
(1.22501 -0.0492918 -2.18991e-20)
(-0.156204 0.0172373 4.40452e-21)
(-0.200567 0.0146218 -9.30231e-21)
(-0.216239 0.0111177 -1.06925e-19)
(0.72579 -0.156331 -3.19585e-20)
(-0.201927 -0.0443038 1.45152e-20)
(-0.237631 -0.0421065 7.39711e-20)
(0.862462 -0.115783 -1.62686e-22)
(0.852858 -0.115365 6.54597e-21)
(0.857176 -0.10726 1.57072e-20)
(1.08181 0.0763891 0)
(1.08009 0.0739975 0)
(1.07872 0.0767921 0)
(1.38318 -0.0233034 -1.05145e-21)
(1.37268 -0.0155732 1.72785e-20)
(0.981496 -0.053128 -1.12692e-20)
(0.981279 -0.0510347 -4.82856e-21)
(0.983245 -0.051519 -7.26534e-21)
(0.992597 -0.016673 -7.54899e-22)
(0.992635 -0.0176105 5.10592e-21)
(0.767944 -0.345033 0)
(0.751115 -0.361696 0)
(0.776113 -0.363973 0)
(1.27016 0.179779 -1.66531e-19)
(1.19139 0.169853 -8.35688e-20)
(1.19678 0.178323 -3.59731e-20)
(1.02169 -0.0724844 3.09235e-21)
(1.02185 -0.074652 -3.89649e-21)
(1.01929 -0.0740143 2.86194e-21)
(1.02035 -0.00300364 2.36384e-21)
(1.01989 -0.00323626 5.98158e-21)
(-0.232199 -0.0437156 -1.9111e-20)
(0.621849 0.0633598 -6.37267e-23)
(0.626014 0.0661577 -2.99432e-22)
(0.589859 0.0583377 2.55803e-21)
(1.19633 -0.144105 5.52363e-20)
(1.19826 -0.136233 3.20959e-20)
(1.01314 0.0964411 -7.96626e-21)
(1.01181 0.0972909 8.98016e-21)
(1.27802 0.0924931 0)
(1.26886 0.0943615 0)
(1.20825 0.0257812 6.19876e-21)
(1.20545 0.0312855 -4.78991e-22)
(1.18758 0.204707 4.26651e-20)
(1.19544 0.202637 -2.31963e-21)
(1.18989 0.196514 -3.80281e-20)
(0.97584 -0.0296272 2.01659e-21)
(0.976698 -0.0309352 -7.97019e-21)
(0.974925 -0.0312548 2.49862e-21)
(0.985056 -0.0158127 4.9238e-21)
(0.984289 -0.0152236 0)
(0.985295 -0.0148365 0)
(1.00215 -0.00815818 1.66023e-23)
(1.00207 -0.00835279 4.04011e-22)
(1.00191 -0.00785242 4.13393e-22)
(-0.151443 -0.00350763 -2.11217e-21)
(-0.185686 -0.00705031 3.10035e-21)
(1.08217 0.0700826 2.28257e-20)
(1.08065 0.0721106 1.92761e-20)
(1.08056 0.0693493 -9.31324e-21)
(1.04805 0.0210048 9.93147e-21)
(1.0481 0.0218775 -6.99987e-21)
(1.04915 0.0213385 1.35108e-20)
(1.00015 -0.000613747 2.32693e-22)
(1.00016 -0.000537768 -9.29072e-22)
(1.00024 -0.000726427 0)
(0.77593 0.0670926 3.37273e-22)
(0.77085 0.0691004 1.96557e-22)
(0.809843 0.0711707 -2.95225e-21)
(1.12469 0.0627563 1.55078e-21)
(1.12504 0.0573766 -2.18442e-20)
(1.01819 0.1 -1.35533e-20)
(1.01654 0.101292 -1.00575e-22)
(0.34141 0.048666 -1.40401e-21)
(0.319016 0.037156 -6.13831e-22)
(0.765003 0.103633 0)
(0.725909 0.0986912 -1.69246e-21)
(0.772374 0.102024 1.69447e-21)
(0.752009 0.105238 0)
(0.806526 0.110393 1.72201e-21)
(-0.472 -0.014128 7.37964e-20)
(-0.424708 -0.00742226 2.36632e-19)
(1.0573 -0.125867 -5.96437e-21)
(1.0516 -0.125728 1.10214e-20)
(0.946943 0.281698 3.94075e-20)
(0.952454 0.279378 -1.35438e-21)
(0.874639 0.266731 0)
(1.00179 -0.0094353 -1.62432e-23)
(1.00161 -0.00913585 -5.86874e-22)
(1.0017 -0.00898649 1.60198e-22)
(1.01536 -0.00637069 -3.10363e-21)
(1.01482 -0.00635917 1.22209e-21)
(1.15264 0.0707372 0)
(1.15619 0.0676727 0)
(1.1516 0.0657101 3.12869e-20)
(1.00144 -0.000466442 0)
(1.0013 -0.000596419 8.28002e-22)
(1.00122 -0.000393805 0)
(-0.132559 0.0364606 6.95872e-20)
(-0.0917937 0.0380823 7.08889e-20)
(1.01098 0.159246 0)
(1.01277 0.156841 -1.42247e-20)
(1.00956 0.155619 -1.54488e-20)
(1.01431 0.10769 8.03264e-21)
(1.01486 0.109693 -1.95874e-21)
(1.01249 0.108606 2.27437e-21)
(1.01554 -0.00610138 -4.8034e-21)
(1.01588 -0.00637514 2.07227e-21)
(1.04866 0.0543123 7.84108e-21)
(1.0502 0.0544959 -1.95571e-21)
(1.04929 0.0529931 8.23795e-21)
(1.01377 0.105671 -1.43691e-21)
(1.01602 0.106579 1.48079e-20)
(1.13468 0.208754 -4.03766e-20)
(1.14169 0.201645 -1.64743e-20)
(1.18933 -0.503493 0)
(1.0596 -0.121339 -1.20878e-20)
(1.05657 -0.11712 0)
(1.06157 -0.116797 -6.92263e-21)
(1.08426 0.0760938 0)
(1.08603 0.072925 7.13741e-21)
(-0.432671 -0.0305084 -5.22051e-20)
(-0.426187 -0.0290662 6.55606e-20)
(0.644374 0.0679543 1.86621e-21)
(0.61437 0.0603133 -2.50546e-21)
(1.05535 0.140083 0)
(1.05349 0.143411 0)
(0.900111 -0.08514 0)
(0.89531 -0.0812637 2.78334e-20)
(0.89477 -0.0883587 0)
(0.980513 -0.0315308 5.42643e-22)
(0.979761 -0.0303973 -1.36191e-20)
(0.981244 -0.0301315 -1.46233e-20)
(1.02072 -0.0137201 -8.79342e-22)
(1.02092 -0.0143645 5.41983e-21)
(1.02153 -0.0138466 -5.17139e-21)
(1.33246 0.176988 -9.45642e-22)
(1.33193 0.186859 -1.07719e-19)
(1.0848 0.0704725 6.40248e-21)
(1.08382 0.0675685 0)
(0.28637 0.0319948 -9.64297e-22)
(0.27297 0.026015 4.35235e-22)
(1.08983 -0.0063273 1.45141e-20)
(1.09281 -0.00654518 2.16109e-21)
(1.0214 -0.0700389 1.20656e-21)
(1.02403 -0.0709863 0)
(1.0118 0.0913294 -7.53724e-21)
(1.01165 0.0898032 1.83876e-21)
(1.0131 0.0901566 -8.26939e-21)
(1.05335 0.138174 0)
(1.05673 0.136997 -2.38839e-20)
(1.04149 0.00122565 2.58988e-21)
(1.04253 0.00125267 -2.31067e-21)
(1.04203 0.000373176 -1.06795e-20)
(1.04554 -0.017882 1.6607e-20)
(1.04424 -0.0183975 -7.43599e-21)
(1.04446 -0.0170667 2.42873e-21)
(0.710716 -0.190794 9.58367e-20)
(0.732292 -0.193486 8.52611e-21)
(0.721714 -0.208617 -3.72742e-20)
(1.38499 -0.0324229 -1.70497e-20)
(1.38542 -0.0429956 9.24886e-20)
(1.3751 -0.0360325 3.95383e-20)
(-0.0760978 0.0711721 5.75124e-20)
(-0.0446039 0.0760865 0)
(-0.016272 0.0831788 0)
(0.243188 0.150314 2.55927e-21)
(0.213907 0.145236 6.18883e-21)
(0.304472 0.165102 -3.28442e-20)
(1.07877 0.0575722 2.4537e-21)
(1.07821 0.0605386 -2.85411e-21)
(0.984994 -0.78338 1.61939e-20)
(0.980516 -0.839079 0)
(1.03716 -0.840148 0)
(-0.127535 0.0627959 -8.12049e-21)
(-0.0995695 0.0688767 2.53224e-20)
(0.939696 -0.0345849 3.1926e-21)
(0.941893 -0.0331435 -4.46152e-21)
(0.939021 -0.0316189 0)
(1.06437 0.0760407 0)
(1.06653 0.0760151 0)
(1.06501 0.0743898 0)
(0.617836 0.099094 3.02308e-22)
(0.650382 0.106444 1.68957e-22)
(0.600631 0.0984505 5.84306e-22)
(1.08769 -0.0211861 1.19592e-20)
(1.08977 -0.0221306 1.40427e-20)
(1.08709 -0.0236431 2.64821e-20)
(1.01152 0.0848177 -2.52911e-22)
(1.01139 0.083803 -1.52234e-20)
(1.01043 0.0848179 -3.03819e-20)
(1.02147 -0.0384672 -2.83978e-22)
(1.02202 -0.0377066 -3.22474e-21)
(1.39479 -0.0292301 3.81089e-20)
(1.00017 -0.00266388 8.72357e-22)
(1.00024 -0.00308511 4.71668e-22)
(1.00022 -0.00318114 8.99472e-22)
(1.17119 -0.0380671 -5.14257e-21)
(1.17274 -0.0333291 -4.13757e-20)
(1.17616 -0.0392025 4.69035e-21)
(1.04015 -0.0792314 -7.42279e-21)
(1.0429 -0.0790458 -1.25033e-21)
(1.04183 -0.081783 -5.59671e-21)
(0.984198 -0.0236561 2.52774e-21)
(0.985046 -0.0242805 1.20364e-20)
(1.07303 0.182783 4.18737e-20)
(1.06831 0.184781 1.14596e-20)
(1.07268 0.187401 2.69249e-20)
(1.0458 -0.00818093 7.15204e-22)
(1.04459 -0.00796169 -2.07608e-22)
(1.0455 -0.00694746 1.54712e-20)
(0.210279 -0.628662 3.66336e-20)
(0.168898 -0.680334 -2.56442e-20)
(1.01526 -0.0057629 -6.13178e-22)
(1.01579 -0.00582224 1.80866e-22)
(1.08234 0.155439 2.08704e-20)
(1.08673 0.157057 -2.25158e-20)
(1.08577 0.15195 5.43397e-22)
(0.263703 0.0373497 0)
(0.246141 0.0268182 1.20168e-21)
(-0.179231 0.0182032 0)
(-0.191392 0.0169143 5.09182e-20)
(-0.125345 0.0241533 -4.23194e-20)
(0.907378 -0.0935563 0)
(0.912619 -0.0913354 1.19612e-20)
(0.911698 -0.097647 0)
(1.0622 0.0762338 0)
(1.06361 0.0778823 1.00556e-20)
(1.00008 -0.00177452 -8.13231e-22)
(1.00004 -0.0013347 -8.28467e-22)
(1.00005 -0.00136301 1.18517e-21)
(0.777447 -0.329572 1.14248e-20)
(0.756525 -0.32442 0)
(1.00342 -0.0157766 -1.61132e-22)
(1.00333 -0.0151418 2.40445e-23)
(1.00373 -0.0155333 -6.55857e-22)
(1.16584 -0.0384989 -2.61904e-20)
(-0.0557294 -0.0490883 2.71078e-20)
(-0.104986 -0.0464027 3.051e-20)
(-0.0873036 -0.047184 -1.76198e-19)
(0.903943 -0.090065 0)
(0.905053 -0.0832138 -1.88979e-20)
(1.0852 -0.0198498 -3.66175e-20)
(1.08791 -0.0181533 -1.22727e-20)
(0.99657 -0.00473364 -4.74172e-23)
(0.996233 -0.00514049 -7.49575e-21)
(0.189249 0.136879 2.10772e-21)
(0.262264 0.151349 -2.48189e-21)
(1.02236 -0.00900127 -2.75111e-23)
(1.02186 -0.00846591 -5.09209e-21)
(0.769174 -0.37986 2.40622e-20)
(0.939574 -0.474958 2.48061e-20)
(0.195511 0.14094 0)
(0.170624 0.135749 0)
(0.252359 0.153672 1.83082e-20)
(1.29734 -0.180929 4.50603e-20)
(1.30408 -0.170878 4.87162e-20)
(1.00015 -0.000685164 2.91844e-22)
(1.00009 -0.000495221 4.99871e-22)
(1.41263 -0.36101 -3.05068e-20)
(1.41995 -0.35079 -5.28974e-20)
(1.41864 -0.365198 -1.54494e-19)
(0.0901861 0.0357779 -3.30173e-21)
(0.105954 0.0371025 5.04367e-21)
(0.122652 0.0497503 2.63966e-22)
(0.904092 0.0877171 2.1111e-21)
(0.870453 0.0832071 6.41784e-21)
(1.01265 0.0850156 2.88098e-20)
(1.10402 0.0346611 -8.22562e-21)
(1.10589 0.032078 -1.31623e-20)
(1.1022 0.03241 2.21409e-20)
(0.742724 -0.399153 0)
(0.734346 -0.37863 0)
(0.716511 -0.395605 7.14975e-22)
(1.07331 0.178076 -5.87096e-21)
(1.07779 0.180263 -1.10171e-20)
(1.04792 0.0556101 0)
(1.04714 0.0541539 2.99829e-21)
(1.16413 -0.460908 2.1729e-21)
(1.144 -0.457229 2.86534e-20)
(1.08023 -0.132897 7.39032e-21)
(1.07462 -0.133875 -2.19668e-21)
(1.07677 -0.128731 9.06351e-21)
(0.501086 0.0374821 -3.37402e-23)
(0.479085 0.034628 0)
(0.478753 0.0333145 0)
(1.14981 0.161717 9.53502e-21)
(1.14269 0.163288 5.96683e-20)
(1.14681 0.155745 6.04134e-21)
(1.01056 -0.000493471 -3.69626e-21)
(1.01109 -0.000693031 -1.83719e-21)
(1.01066 -0.00109419 3.24243e-22)
(1.07954 0.0172527 5.4874e-21)
(1.07735 0.0165739 1.32567e-20)
(1.07903 0.0148217 -8.53286e-22)
(1.01057 0.0921914 5.77244e-21)
(0.77472 0.0661556 3.22809e-22)
(0.744423 0.0661607 4.25999e-21)
(0.601802 0.0385004 -3.08928e-21)
(0.623271 0.0411421 -1.17162e-20)
(0.608459 0.0385454 -6.92306e-21)
(1.02008 -0.013535 -4.61601e-22)
(1.02059 -0.0131853 -4.048e-21)
(0.598359 -0.265325 -1.14145e-20)
(0.994192 -0.0175906 2.60848e-21)
(0.994689 -0.0178659 -2.81637e-21)
(0.994672 -0.0171075 2.60586e-21)
(1.04039 0.155134 1.11972e-21)
(1.04324 0.157699 1.51702e-20)
(1.04408 0.15384 0)
(1.15801 0.209135 -2.0462e-21)
(1.16564 0.20895 1.03942e-20)
(1.15996 0.202473 -5.0978e-20)
(1.08121 0.0173368 0)
(1.07975 0.0185349 7.60567e-21)
(1.12196 0.0644816 1.56296e-21)
(1.12426 0.0672133 -1.52268e-20)
(1.15607 0.162156 2.05523e-24)
(1.15169 0.168695 3.51769e-21)
(1.00305 -0.0276401 0)
(1.00386 -0.0282491 0)
(1.00363 -0.0270341 0)
(0.822735 -0.162568 1.22247e-20)
(0.810184 -0.159312 8.97597e-22)
(1.02371 0.101246 6.92759e-21)
(1.02155 0.100781 1.11536e-20)
(1.02326 0.0993532 -6.6953e-21)
(1.06747 0.250292 -2.30749e-21)
(1.07459 0.256302 0)
(1.07458 0.246048 0)
(0.998725 -0.0122009 1.40382e-21)
(0.998958 -0.0118321 2.01216e-21)
(0.99871 -0.0115928 0)
(0.984633 -0.0226785 -1.03113e-20)
(0.983277 -0.0230557 -1.66237e-20)
(0.902516 -0.0958605 0)
(0.741673 0.131649 0)
(0.755889 0.130775 0)
(0.797629 0.14045 1.84661e-21)
(-0.288529 -0.0264819 4.602e-21)
(-0.308594 -0.0231313 1.00346e-19)
(-0.293498 -0.0279029 6.57453e-20)
(1.09865 0.0732092 1.08653e-20)
(1.09914 0.0705198 3.02055e-20)
(1.10145 0.072467 1.43419e-20)
(1.03083 -0.010266 6.69182e-21)
(1.03074 -0.0110678 2.4174e-21)
(1.12931 0.207685 -3.67137e-22)
(1.13017 0.213318 -1.22875e-20)
(1.18002 0.206358 0)
(1.17251 0.207813 2.37198e-20)
(1.1749 0.200209 0)
(1.05016 0.130247 -2.1191e-22)
(1.0477 0.127941 -3.07866e-21)
(1.05079 0.127209 -3.30385e-22)
(1.11828 0.0665214 2.76545e-20)
(1.11917 0.061654 0)
(0.728587 0.13138 0)
(0.687644 0.121427 1.66132e-21)
(-0.222429 0.0171562 4.744e-21)
(-0.211748 0.0166491 8.0492e-20)
(-0.262311 0.00358335 6.12937e-20)
(1.08759 0.0109919 -7.87528e-21)
(1.08895 0.00926555 -1.84903e-20)
(1.08985 0.0119401 -3.58914e-21)
(1.07806 0.0515344 4.3472e-21)
(1.07904 0.0531172 -5.80345e-21)
(1.07652 0.0531336 1.88314e-20)
(1.01504 -0.140163 3.94784e-20)
(0.980011 -0.130304 0)
(0.812774 -0.106961 0)
(1.02317 -0.0181431 6.92006e-22)
(1.02381 -0.0188252 3.96319e-21)
(1.0226 -0.0186875 2.98262e-21)
(1.0022 -0.00790446 -6.76427e-22)
(1.00224 -0.00767575 7.80031e-23)
(1.00199 -0.00742248 1.95409e-22)
(1.0523 0.132277 -3.91579e-21)
(1.04882 0.133107 4.30015e-21)
(1.2071 -0.0867571 -4.8824e-20)
(1.20341 -0.0812441 -2.99723e-20)
(1.19981 -0.087496 -3.83165e-20)
(1.02302 -0.00882452 -3.30969e-21)
(1.02359 -0.00870346 -3.38167e-22)
(1.02305 -0.00830797 0)
(1.0003 -0.00304319 4.89817e-23)
(1.00026 -0.00306913 -1.04253e-21)
(1.00018 -0.00261424 -4.19489e-22)
(1.00348 -0.0162177 0)
(1.00315 -0.0158681 -1.26217e-21)
(1.00473 -0.000762949 2.23915e-21)
(1.00505 -0.000779733 -8.84972e-23)
(1.00473 -0.000455466 4.54278e-21)
(1.093 0.0401163 -2.28269e-20)
(1.09537 0.0414343 3.81505e-21)
(1.09289 0.0431198 2.70044e-20)
(1.0024 -0.00842892 -4.26176e-22)
(0.631498 0.0985081 -1.96464e-21)
(0.677863 0.105221 -1.48019e-21)
(1.10299 0.066821 4.22319e-22)
(1.09951 0.0673766 1.91639e-20)
(1.01738 -0.0317636 4.71547e-22)
(1.01654 -0.0319492 -1.6703e-21)
(1.01742 -0.0326256 -1.10541e-21)
(0.753632 0.0622813 0)
(0.240972 0.0801666 5.93538e-21)
(0.210531 0.0732775 1.45993e-21)
(0.976709 -0.0254552 8.23481e-21)
(0.977447 -0.0266848 0)
(0.978199 -0.0254141 0)
(1.07905 0.159568 -9.86847e-21)
(-0.405334 -0.0039965 -4.64876e-21)
(-0.457104 -0.0132048 -1.52159e-19)
(-0.399158 -0.00404932 -6.67285e-20)
(0.979821 -0.0546539 -8.53238e-22)
(0.982251 -0.0551371 2.96235e-21)
(0.975682 -0.0241686 -1.79611e-20)
(0.974757 -0.0259563 1.46994e-20)
(1.10601 0.06791 -1.81201e-20)
(1.10415 0.0710672 -1.38768e-20)
(0.228053 0.0340896 0)
(0.21749 0.0353526 -3.34387e-21)
(0.250763 0.0452242 -2.69091e-21)
(0.144826 -0.0246448 8.82606e-20)
(0.0827511 -0.027651 3.94893e-20)
(0.131236 -0.0289183 1.71989e-20)
(1.14161 0.0883352 -5.83418e-20)
(1.14603 0.0908211 -1.50598e-20)
(1.14535 0.0853797 3.17068e-20)
(1.00285 -0.000590673 -1.38658e-21)
(1.00273 -0.000843309 4.67694e-22)
(0.94771 0.284639 5.50642e-21)
(1.01894 0.294013 5.00339e-20)
(1.00187 -0.00990352 -1.62011e-22)
(1.15024 0.093033 1.65684e-20)
(1.15436 0.0901336 -1.30045e-20)
(1.15482 0.0961148 6.3581e-20)
(-0.415422 -0.00537164 8.42902e-20)
(-0.367878 0.00613824 1.30714e-19)
(1.05581 0.240445 -2.93343e-21)
(1.0607 0.245399 2.62e-20)
(1.06302 0.237419 2.81787e-20)
(1.04804 0.019725 0)
(1.04691 0.0202789 0)
(1.056 -0.155581 8.7303e-20)
(1.20251 -0.183019 8.01174e-20)
(1.3848 -0.142725 -6.90543e-20)
(1.44947 -0.139754 6.37268e-20)
(1.45175 -0.154676 6.31981e-20)
(-0.222604 -0.039999 -2.32221e-20)
(-0.213594 -0.0390967 -2.34087e-20)
(-0.177331 -0.0403944 -5.26687e-20)
(1.28142 0.0862301 -2.48627e-20)
(1.2769 0.0800519 1.99692e-20)
(1.28515 0.0794692 9.47271e-22)
(0.793232 -0.132896 5.92543e-20)
(0.792712 -0.120991 2.96425e-20)
(0.780542 -0.126906 -5.52447e-21)
(-0.11374 0.020293 4.1357e-20)
(-0.0954136 0.025144 4.22503e-20)
(0.309686 0.108101 3.97697e-21)
(0.346927 0.119774 1.18266e-20)
(0.293562 0.107903 3.98143e-21)
(1.123 0.271543 3.31863e-20)
(1.13521 0.284141 -3.42162e-20)
(1.04683 -0.0175008 1.27655e-20)
(1.04658 -0.0189944 -4.50272e-21)
(-0.396124 -0.0359881 -8.16854e-21)
(-0.362696 -0.0384306 6.91215e-20)
(-0.353714 -0.038311 3.36875e-20)
(0.423115 0.0245217 4.58294e-21)
(0.424545 0.0230714 -7.39085e-21)
(0.501917 -0.521717 -1.62639e-20)
(0.468475 -0.496253 0)
(0.471769 -0.545479 0)
(0.529963 -0.498813 5.59986e-20)
(0.541221 -0.54215 1.2279e-20)
(0.937721 -0.0362902 -6.41135e-22)
(0.939374 -0.0369957 1.37625e-20)
(1.15366 0.0804558 -3.86564e-20)
(1.15328 0.0756621 -3.16096e-20)
(1.15781 0.0783161 7.58205e-22)
(0.96174 -0.133495 -9.51491e-21)
(0.964591 -0.128124 -9.71807e-21)
(0.968346 -0.133923 -8.94629e-21)
(0.572985 0.0407816 -1.84514e-21)
(0.548355 0.0359024 -2.87669e-21)
(0.803921 -0.181504 2.11858e-20)
(0.800345 -0.168157 -1.9455e-20)
(0.788059 -0.179527 0)
(1.00871 -0.00167458 -2.43185e-21)
(1.00869 -0.00198573 -1.42064e-21)
(1.00905 -0.00184596 -2.192e-21)
(1.01694 0.000351113 3.23801e-21)
(1.0169 0.000300794 -6.18668e-21)
(1.09128 -0.0653743 0)
(1.09505 -0.0650408 2.20829e-20)
(1.09268 -0.0684059 0)
(-0.263967 -0.0424794 -1.14271e-19)
(-0.233163 -0.0414588 1.16503e-19)
(0.275652 -0.654468 5.12026e-20)
(1.02365 -0.0175701 2.31762e-21)
(1.02257 -0.0175381 -3.58707e-21)
(-0.227907 0.0156765 0)
(0.94973 -0.131832 1.18184e-21)
(0.956238 -0.13317 4.04024e-21)
(0.953042 -0.12707 5.58062e-21)
(1.12368 -0.0416555 -3.4483e-20)
(1.12735 -0.0387115 1.15575e-20)
(1.04856 0.0231203 -8.85129e-21)
(1.04742 0.0226117 -2.24357e-20)
(0.233004 0.0310904 -1.32361e-22)
(0.202953 0.026638 0)
(1.12041 0.206757 3.13967e-20)
(1.12847 0.20031 5.69488e-20)
(1.0104 0.0895437 8.89764e-21)
(1.03848 -0.0762181 1.58921e-22)
(1.03685 -0.0787445 -9.37851e-22)
(1.08301 -0.019001 -4.07223e-21)
(1.08295 -0.021386 -1.22052e-20)
(0.835176 0.0634949 -1.40558e-21)
(0.837989 0.0623907 -1.40415e-20)
(0.809339 0.0615139 -7.30901e-21)
(0.979925 -0.0330051 9.53727e-21)
(0.98143 -0.0326091 -3.02911e-21)
(1.18677 0.212923 0)
(1.08529 0.0102922 -4.06351e-21)
(1.08607 0.0131398 1.56048e-20)
(1.10794 0.0649532 -2.65545e-20)
(1.10917 0.0694985 1.50975e-20)
(0.947283 -0.137557 -3.47165e-21)
(0.943089 -0.130957 3.43838e-21)
(0.993714 -0.0181109 -2.99505e-21)
(1.01856 -0.0316278 -3.15107e-21)
(1.01751 -0.030816 1.62239e-21)
(1.31627 -0.0150484 -9.30147e-21)
(1.31897 -0.0227202 -1.09649e-19)
(1.32606 -0.0129315 1.49822e-20)
(1.33264 -0.182181 -6.33297e-20)
(1.32672 -0.171613 -3.52638e-20)
(1.13807 0.163726 -6.38377e-21)
(1.13161 0.163959 -1.01462e-19)
(1.13594 0.15731 -9.04504e-20)
(1.29864 -0.138955 -1.05424e-20)
(0.828465 0.0635299 6.85537e-21)
(0.860809 0.0651815 6.90592e-21)
(1.02407 -0.0754078 -4.49532e-21)
(1.022 -0.0771429 -6.77347e-21)
(0.141018 0.126938 -2.27222e-20)
(1.04303 0.168837 2.03537e-20)
(1.04019 0.165747 0)
(1.03774 0.169589 0)
(1.02641 -0.00378645 8.14626e-21)
(1.02613 -0.00323424 4.57545e-21)
(1.02568 -0.00367604 1.12939e-21)
(1.04922 0.237107 -6.85622e-22)
(1.05199 0.246999 -5.17396e-20)
(1.09569 0.127486 1.72744e-23)
(1.09152 0.128044 4.63959e-20)
(1.09432 0.131335 -4.63966e-21)
(-0.33671 0.0064359 -4.00874e-21)
(-0.293952 0.0173652 -8.52433e-20)