/*--------------------------------*- C++ -*----------------------------------*\
| =========                 |                                                 |
| \\      /  F ield         | OpenFOAM: The Open Source CFD Toolbox           |
|  \\    /   O peration     | Version:  v2012                                 |
|   \\  /    A nd           | Website:  www.openfoam.com                      |
|    \\/     M anipulation  |                                                 |
\*---------------------------------------------------------------------------*/
FoamFile
{
    version     2.0;
    format      ascii;
    class       volScalarField;
    location    "150";
    object      omega;
}
// * * * * * * * * * * * * * * * * * * * * * * * * * * * * * * * * * * * * * //

dimensions      [0 0 -1 0 0 0 0];


internalField   nonuniform List<scalar> 
13851
(
0.0987773
0.0230167
0.0229374
6.0561
0.0220818
0.0242953
0.0226658
0.0218032
4.54887
0.0220389
0.06007
0.0220768
0.0220894
6.41996
0.0299488
0.100603
9.5609
0.0217863
0.21586
0.0990312
0.0332728
0.0250326
23.7941
0.0222638
0.575693
0.0486446
0.205113
0.371365
3.96813
0.0217307
6.85835
0.0226704
0.0963741
5.60127
0.0399847
3.8953
0.022274
2.57807
8.47038
0.0219998
6.63466
4.07072
22.3762
0.603826
4.26243
0.0218504
0.0215547
0.0952576
0.0228349
0.0220861
8.6694
0.0221547
0.100391
0.0258916
6.08583
0.0219996
0.0983223
6.65883
0.220248
6.62165
0.0220846
0.184706
0.0220962
0.0229475
0.216728
0.229315
8.4658
0.0688565
0.0219869
5.96828
6.29103
0.0399747
0.0219915
7.4994
0.0268553
0.0232138
8.00622
0.0216418
0.553384
0.0219358
0.0219938
0.287473
0.0396058
6.00915
6.42165
6.6459
0.0251215
6.95424
0.0220221
6.89285
0.0221923
0.0227227
28.593
6.28794
7.66572
0.35582
0.0218859
0.10234
7.24286
0.17213
0.105711
0.0419015
0.0461852
0.0220301
0.0218252
0.0395702
0.0218302
6.43448
0.0227211
0.0217765
0.0296075
0.0218445
0.13919
0.0551419
0.0939505
0.0255
0.0217616
0.0217705
6.2042
6.26997
0.218338
0.0217324
0.0219937
5.10679
0.171971
0.12262
0.021885
0.0527996
6.00181
0.0365432
0.0249623
0.0285825
1.3674
5.62758
0.0608011
7.74998
0.0640667
6.48138
0.0353242
0.035779
0.275742
0.022515
0.0220216
0.107082
0.490326
0.0230739
0.021637
6.33046
4.02088
0.0549855
0.104846
0.135022
0.0591114
0.177059
0.0222372
0.0220466
0.0221002
8.14336
0.0335464
0.0224567
0.0222429
3.92514
0.0387245
0.095371
6.03596
4.65051
4.70925
7.36927
0.0291125
1.69419
0.0221003
0.0217658
0.049048
0.022139
7.98621
0.204436
0.112966
0.0217511
0.0267937
0.110192
0.167437
0.561819
0.028269
0.0360284
25.1506
3.98683
0.096645
0.0290375
0.0221694
0.0217824
0.439433
0.0335324
8.53554
0.0243245
0.0229584
0.101406
0.0935189
0.0218308
0.0219377
0.0731906
0.282753
7.53673
6.83909
0.0299241
2.76567
7.26128
0.0236319
0.0347866
4.67291
0.0240146
0.100243
0.0219827
0.287518
0.0222343
0.0406577
0.0237829
0.022068
0.152728
0.0218954
3.8504
0.0217497
0.099722
6.76427
7.88607
0.0287641
0.0351451
0.0222638
0.0921252
0.0220044
0.040109
8.97665
0.0289009
0.0239815
0.0221183
6.74299
0.0217236
15.9299
6.93697
0.148928
0.0222512
0.941499
6.50637
4.24262
0.099474
0.0284058
0.143928
0.139757
0.0268585
0.330305
0.0311651
6.83732
0.106684
0.0218305
0.0239333
0.103766
3.88546
4.93005
0.0217818
0.129947
0.0220187
0.130984
0.17212
0.024142
0.0390292
0.109927
0.0219537
0.0438237
0.0811804
0.331469
0.0220783
0.0220669
0.0289482
5.04998
8.00296
0.03668
0.0217389
0.167099
0.174058
0.0845898
0.0384057
5.0727
7.64265
0.0245396
0.0279708
4.90268
0.0218096
0.0220998
0.0872473
0.05229
0.0217143
0.0222316
0.0219955
0.0219979
0.0280085
0.0220929
4.64863
0.034793
0.0219131
3.84002
5.05723
0.0221687
0.100754
8.20077
0.0226111
0.0221956
0.0363722
6.43262
9.95357
0.0527595
0.0220721
1.62433
0.0220922
0.0575685
6.88371
0.323935
0.0223973
2.86506
0.793595
6.75623
0.135307
0.0450579
8.18669
5.42882
0.365445
0.0219781
7.1624
19.4587
0.797671
0.730858
0.0236591
0.053064
0.0289806
6.27888
0.0488734
0.0218687
0.0215111
0.0259308
6.46794
3.31725
0.0218043
7.60889
0.0292599
0.0288577
0.0225077
7.44607
0.165365
0.102051
0.0235653
0.0236535
3.72434
0.0221755
0.180288
0.0244385
0.0363443
0.0296557
0.0220174
0.0219098
0.141053
0.185476
0.105964
1.0494
3.77056
0.0231332
6.85224
0.152204
0.0216474
0.323922
0.0696751
6.54454
0.0254524
0.0515705
0.190927
0.864506
0.136247
5.54297
0.0222364
0.210616
18.007
0.0268502
5.28424
0.0286796
7.10197
0.0277236
0.0306747
0.108848
0.246947
0.0220471
0.024327
0.0565853
0.026953
0.0218685
0.0368053
3.07681
0.0219857
0.0350554
6.87881
0.0230896
3.26977
0.0332397
10.0012
0.0243652
0.0460747
2.14639
0.175095
0.0393202
5.65294
7.37999
0.829635
0.021959
0.13931
0.0290417
0.050717
0.0217511
24.0018
3.69175
0.852229
0.0235947
0.109787
0.188
7.67587
0.0215629
8.92916
0.278598
25.2104
0.0320202
0.400626
0.0220217
0.0221265
7.02352
0.190824
0.0220359
0.0230559
0.0356408
0.0218023
2.36476
0.0530209
0.0688108
0.0235886
0.022244
0.0221865
0.92111
0.0219147
0.0221669
1.69847
2.76043
0.0246719
0.171784
0.0221031
0.0220919
0.0233093
0.108163
0.0328726
0.0218742
0.022323
0.204736
0.0224883
10.5308
0.0220721
0.0243167
4.30594
0.0346143
0.0215683
0.0221182
0.0235699
0.0218849
0.859805
3.02898
0.028514
10.112
0.0233131
0.0220504
5.5633
0.190991
0.0346829
0.0219927
5.25313
0.0342574
5.14944
0.0220334
0.0286634
0.14061
0.0280954
5.65189
0.192157
0.673158
0.0234832
0.138505
0.0219469
3.90277
0.0332562
0.0932976
0.0288171
0.0234043
0.0344817
0.04913
0.0220938
8.22035
5.50031
10.724
6.59714
2.97366
6.5443
0.177571
0.0277557
0.0222063
5.56046
0.0220421
0.0218703
0.0297007
8.06451
0.0228419
0.0225336
0.0840695
0.0406972
0.0220492
5.93945
0.0218941
5.8881
0.798836
0.0219303
0.022464
0.27506
0.333346
0.0217225
5.8845
11.0108
0.0215908
7.68197
0.210863
0.0999401
0.0234661
1.52066
6.62377
0.0215988
0.230976
0.0219881
0.0218937
1.11178
7.1643
0.0331411
0.0324144
0.0220439
0.0417105
5.98399
8.08845
0.0216591
7.83055
0.0218744
0.0219955
0.0394902
0.0242415
0.0215576
0.0232292
7.92102
0.22536
7.42136
0.0226792
0.0220142
4.97794
0.0221775
0.139625
0.0244034
0.026952
0.0284491
4.13713
6.71703
0.0241507
8.94743
0.0223063
0.0542512
4.1158
4.73706
0.0220028
0.0219513
0.0476277
7.56995
0.159797
0.0409508
11.135
0.0242909
0.027152
12.1686
7.41599
0.150821
5.83013
0.125877
3.90769
0.0221318
0.221966
0.381421
0.022073
20.133
6.78405
0.0290792
0.0360017
0.0219961
7.28005
0.0712973
17.3782
0.0219177
0.0221656
0.0263718
0.0403537
0.0220822
7.87193
0.0221599
0.123517
0.0235732
0.0519581
0.0220235
0.0220494
0.0434758
8.32226
0.0395577
7.49884
0.0287056
0.0218094
0.0216798
0.0495643
0.0223248
0.0859228
0.0231075
0.034175
0.21738
0.0221795
5.86134
0.0222534
0.0687902
7.85839
4.52877
0.0289431
16.8219
0.0818225
0.256102
6.83782
0.0216934
7.60349
0.0292288
0.0275599
6.38156
0.423537
0.0216543
0.0834628
0.0218131
3.8311
8.19085
0.022029
0.0744979
2.43408
0.0222633
0.0222518
0.0490782
7.34032
0.53338
0.0222027
0.109897
0.0223874
0.0220472
0.218778
0.110694
0.158289
0.0215549
0.0812617
0.0448982
0.0428803
0.0226273
0.0228388
0.0671247
0.0261927
0.0882829
0.039643
0.0399667
0.124183
2.71278
0.215633
3.16666
4.3739
0.100134
4.73852
0.0380475
1.46036
0.102243
0.021783
0.0267831
0.188994
0.0255154
0.0219391
0.0219365
0.0689119
5.86425
0.0244242
6.91576
0.0218131
0.57835
0.142028
8.60783
0.0839775
0.0244597
0.0229257
7.34028
0.156241
0.0364323
0.193583
0.0221513
4.1233
0.0694631
0.124309
0.0288212
0.370522
0.0220168
0.022245
0.0233627
0.022045
4.14978
0.0219979
0.2118
5.00818
0.0861594
8.18832
6.79946
0.128716
0.27096
0.0284789
0.0221802
0.0220536
0.0216527
0.0216811
0.0221409
0.0542257
0.133381
0.0486234
0.353434
0.0226958
4.57697
0.0222934
5.9969
0.0374907
0.0222835
0.022133
4.58207
0.0244354
0.267612
6.56748
0.0344261
0.0521933
0.0215769
5.75792
0.0238944
0.0228758
0.219856
0.0221832
0.0225185
0.021712
0.0333912
6.05022
0.0268039
0.0288685
0.288659
7.70738
0.0289031
0.0260211
4.03537
0.021652
3.98754
0.022202
0.0224863
0.497103
0.0587586
0.0927678
0.0832412
0.0396557
0.0222269
0.0222935
0.0584591
0.022153
0.0222344
0.0246297
0.286258
0.0219801
0.238164
2.41946
0.276237
0.0821026
7.59529
0.0360721
0.0221756
0.135548
0.0218273
0.0243348
2.15758
3.73003
7.4574
4.05816
0.0220691
0.0220131
0.0665337
0.0227307
0.0217801
23.3583
0.132951
5.05276
0.0697517
0.0600105
0.0220449
0.0217361
2.61543
0.0692152
0.0226423
0.0222529
0.0924304
0.158862
7.01216
0.0222287
0.0221509
7.35791
0.0226086
0.0285816
0.0218081
8.04844
0.0218821
7.23281
0.0220717
0.133553
0.0318431
0.0672447
0.0288802
0.0219921
0.0230903
0.0220197
0.203651
0.0225954
3.8871
0.022183
0.333935
5.4392
0.0278101
0.0220013
6.13567
3.1025
0.0244458
0.0583471
0.022054
6.63192
0.0217908
0.190584
0.0220592
0.0220164
0.279295
0.0285195
0.0221078
0.0261335
6.37909
5.05374
3.25274
0.0217885
4.62736
0.0220707
0.0219877
0.022231
0.0214849
0.0222327
4.06581
2.65022
0.0219084
0.022156
0.0332594
0.021844
5.90207
0.138569
5.04328
8.2696
0.0230815
0.0879716
0.0220655
0.0333785
0.113798
0.0216812
0.0222102
1.03356
7.96706
0.0509084
21.3373
0.0461779
0.0221
0.0350511
0.0592296
9.45731
0.0272758
0.293683
0.071246
0.0222233
16.5255
15.5534
4.56876
0.435197
0.960642
0.0234135
0.139609
0.0221726
0.25601
0.0250919
0.0218704
3.78139
0.0226337
0.0220025
0.0220007
0.0225255
7.924
0.18285
0.0218488
0.0358093
6.48542
0.0226552
19.6853
0.0230848
0.0570753
7.3796
0.0220956
0.174425
0.0276397
0.0288399
5.74934
0.0226016
0.277736
0.0452901
6.49197
0.0218185
4.56913
0.0267396
5.04324
9.46145
6.10475
0.0342474
0.0220104
0.0220766
0.0222631
0.0297103
0.0221227
5.81272
0.0274823
0.0274891
0.0286915
0.0233467
0.0217886
0.0237545
0.0258313
0.0224685
0.0257466
7.02031
0.198085
0.0260453
0.046404
3.64033
0.0225751
6.67021
0.0216673
0.0313734
0.0226069
0.0218475
0.0417449
0.0220448
0.0218439
0.0458952
0.0220536
0.284061
0.0222362
21.5541
0.284206
0.145788
0.205717
0.021832
7.88883
0.114537
0.0222256
0.0257762
0.0224596
7.05248
0.0230929
0.0439286
0.325002
7.63462
0.0747149
0.021917
4.21794
0.304246
1.36546
0.0276314
0.0218
0.0216453
0.0528788
0.0220151
7.66161
0.141489
0.0221967
0.151449
0.286266
0.0217067
6.62431
7.90078
0.130333
0.0222534
4.15273
0.0537736
0.0220166
6.77371
0.0258375
0.0217165
0.0219129
0.0262513
0.0299574
4.83759
7.56328
0.0311012
4.76935
0.0273142
0.0220046
0.0839974
0.021944
1.38412
0.0216699
0.0220446
0.0234736
0.0221287
5.20156
6.098
0.15523
6.79265
9.00376
0.0286413
0.0219852
0.0222426
0.282593
0.021655
0.0218157
0.0392702
0.503834
0.18251
0.0216108
0.0361014
0.0289684
0.10196
20.7243
0.0215842
0.0215462
0.0223744
0.790694
0.0245775
6.07639
0.0228402
0.0221625
0.0217142
0.0219034
0.0237178
0.128472
3.90356
4.569
0.0287287
0.0220507
3.03571
0.0218837
0.41011
5.70353
0.0299333
7.04623
4.09806
6.74973
0.0388833
0.0270934
4.59388
0.026653
0.0324584
0.0679421
0.258475
0.0221498
4.90971
0.0220072
1.7596
0.788819
0.0216713
0.0235744
0.0427635
0.289606
0.0281794
0.0221421
0.0245465
0.0231681
0.0234259
1.13476
0.0221616
3.46739
6.00088
0.0220083
0.0264812
0.0297605
0.0220792
3.68975
16.8008
8.03611
3.56305
0.0220328
0.0237703
0.0249249
0.0222291
0.155268
0.0283084
0.0222564
0.044735
0.0256393
0.323319
0.0318491
7.68131
0.0230791
0.0227032
0.0489365
0.0710913
0.0573077
0.0219609
17.3486
5.20058
26.2557
6.42504
2.57672
4.70255
5.06175
0.0219671
0.0220153
0.0217742
0.156828
0.0326211
0.0574708
8.84364
0.0217969
0.0216475
0.0220413
0.145632
0.0216257
0.0240583
0.0231923
0.947005
0.0227734
0.0218359
0.022083
0.0219266
0.0221627
0.0333886
0.153049
0.0325479
0.923203
0.0220258
0.0219021
5.91405
5.46649
6.56669
0.290561
0.047342
0.532766
0.0217965
0.057452
0.0227115
0.0220772
0.022654
6.70469
0.0222625
0.0715925
1.90049
0.0218557
0.0218413
0.0261182
0.129915
0.0222718
0.747311
0.0217629
0.144867
0.0221258
0.0219109
0.0244676
0.0936214
0.0220961
0.212255
6.364
0.133719
5.48123
0.0220236
8.12268
0.226462
0.0220431
0.829665
0.0222272
0.0418437
0.0221768
0.0217362
0.0219551
0.0220486
0.0221833
0.0269757
0.0495506
0.0219503
0.0220973
0.0613676
0.021629
9.52812
0.0221269
0.02772
0.0270563
5.80324
0.312895
0.0221458
0.131087
0.021804
0.025339
0.0635737
0.292274
0.0355843
0.0222722
0.0781512
0.0741961
0.0600568
0.252595
0.0343249
0.120014
0.0410629
0.0494401
0.0227353
0.0217465
0.278475
6.5454
0.0235689
0.0220125
19.1647
0.0218148
0.0335434
0.0219479
0.0743194
1.27139
0.0214995
7.73276
0.0241488
0.02217
0.110772
0.0218715
0.0403213
3.51593
0.033065
0.278018
0.0219497
0.0222646
0.0425124
0.0222254
0.0222466
0.0244278
0.0261321
0.0502691
0.0785009
0.0220462
0.0361062
0.0217464
0.0220582
0.0222143
0.0220465
1.07948
0.0217018
0.0231261
0.170273
0.0218102
0.0220007
5.18899
0.0222496
20.8871
0.0223322
4.83985
0.159526
0.0505601
2.31373
0.0580222
1.95184
0.0220012
0.160252
0.0253378
0.0217374
0.021854
0.0231229
0.0267402
0.0219207
0.0489624
0.0218931
0.0226622
19.9201
8.6806
3.81511
0.0226332
0.0471371
5.93038
7.12613
0.0221716
0.0238846
1.90853
0.0218731
0.0357154
1.25797
4.53057
0.0241048
0.0323755
0.0224663
0.291996
0.0222851
0.0343226
0.396191
0.0221036
0.0218092
9.44092
0.0382812
0.161071
5.42654
0.0693641
0.0223364
0.0218979
0.0219366
6.4556
0.351178
0.39289
0.0501784
0.0220428
6.16047
0.022109
0.140084
0.0266502
0.0222651
0.0338886
0.0220529
6.59561
8.74295
0.0215453
0.0518999
0.0332726
1.52531
0.0383368
0.0405119
0.158579
0.0271437
0.192573
0.0425706
0.0221115
0.0280392
0.0825998
1.86911
0.0220285
0.28944
0.0404991
0.0425352
0.0222725
9.40003
0.023814
0.0232456
0.0217913
0.0359369
0.0347104
0.0534653
0.0221269
0.0224069
0.0517154
30.1812
0.0541687
0.0221565
0.0225869
0.0278918
0.166133
0.0221703
0.081918
4.12288
0.0440022
4.53368
0.0295587
7.47501
0.271819
0.0219662
0.699118
0.0222385
0.0240519
0.0267173
0.0285538
0.0836677
0.0336374
0.0400328
0.0415893
0.0276688
0.0235604
0.0216212
0.0808721
0.0234533
0.0280338
0.293449
0.02486
0.0289082
0.021932
4.75721
0.0742421
0.0220464
0.0231165
0.0232673
6.43339
0.138582
0.0266951
4.21238
0.239608
0.747082
0.0741609
0.177419
0.021875
0.30623
0.0218041
0.0267728
3.68257
3.65728
0.25419
1.23321
0.0221214
7.63274
0.0218719
0.057668
0.0244767
0.433781
4.46654
0.023306
0.0220218
0.245381
0.041961
0.0220112
6.24048
0.0220709
0.0233189
0.0234475
0.0221763
0.0276902
0.0233205
0.0220385
0.0322486
0.370046
0.0316259
0.0542902
0.0220063
6.81773
3.685
0.022002
0.178737
0.024428
0.0286855
0.548814
0.0219983
0.0225343
0.0272742
6.2416
0.0220229
0.0221824
0.0334616
1.26917
0.0219849
0.0308859
0.0322652
0.282904
0.040386
0.0334651
0.148568
0.022076
0.117819
0.0216934
7.09643
0.0273891
0.0220467
0.0238331
0.083572
0.0221499
0.0218542
0.105567
3.84685
0.0218721
6.26474
0.022187
0.02168
0.0517849
0.022028
0.0216987
5.67574
0.0222735
0.0323125
0.108363
7.35256
0.273132
0.0216413
0.0239582
0.0276488
0.0220725
0.022014
0.0220927
0.247822
0.0221943
0.185756
0.0829601
0.0217986
0.0216364
0.026896
0.0831941
0.176088
0.0529008
0.0545526
0.0232733
4.6027
0.070903
0.0252522
0.0310264
0.0604408
0.0769573
21.119
0.0289467
3.83572
0.336509
6.56773
0.0230613
0.0218877
0.0333551
0.0339288
0.0216946
0.0218714
0.124493
0.0222431
0.0220579
0.022046
0.0215542
0.022388
0.0218125
8.3488
0.0220186
1.7807
0.02208
0.0813104
0.0221618
0.0852626
0.0729706
0.0220157
2.83554
0.0239358
0.0222251
0.030891
0.0217387
0.029699
0.0217852
3.90731
0.0234628
0.0344759
0.100682
2.66347
0.0271509
0.194186
0.292791
0.04667
0.0218317
0.022281
0.104095
0.0530464
8.7313
0.0217143
6.41778
0.0219883
0.0870451
10.5528
0.0325092
0.382995
0.0243029
0.0276754
0.0241534
8.78981
0.0282505
0.0221418
0.0451786
0.111548
0.0227324
0.0220312
0.0221427
8.38738
0.0222519
0.0264704
5.58708
0.0252576
0.0219595
0.0516279
0.0239671
0.433513
0.0216459
0.0220007
0.0218536
0.0259522
0.0219944
0.0218495
0.0461671
5.50424
0.0219447
0.0221033
0.382077
0.0217962
7.24969
0.0223406
9.45441
0.0217968
0.0238066
0.0218006
3.94409
5.35593
0.0290085
0.067879
0.0268605
0.0218957
0.022117
3.91461
0.0221366
0.0571729
0.0217258
0.030898
0.0221889
0.905154
0.0218244
0.0328574
0.021828
0.480095
0.793192
0.0217294
0.0414207
7.63159
0.0488686
0.410223
0.386367
0.220574
0.023338
0.0289311
0.075351
0.353727
0.0217529
0.0288394
0.0276642
0.0218968
4.10644
7.74859
0.0506929
0.112667
0.255317
0.0308658
4.89722
0.0216887
0.0217291
0.0856482
8.79932
0.164173
0.136572
0.289523
0.0217958
9.21709
4.16546
11.1176
0.0222025
7.04947
7.39743
0.849368
3.90813
4.6519
0.0594729
0.0274164
0.137629
0.02545
0.0219203
0.698144
0.0678185
0.021606
5.51693
0.0221875
0.028181
0.0328691
0.0262697
0.39687
0.0338772
7.33572
0.0322715
0.0260137
0.348112
7.68074
0.103545
0.0223694
0.0256336
0.0586395
0.0552599
0.0218215
0.0406111
0.0596263
0.121848
0.021936
0.146978
0.0236906
0.0451915
2.0551
0.198066
0.0230619
0.122298
6.35604
0.022105
0.0224834
10.8349
0.276014
0.0233554
0.0233231
0.0220881
0.067826
0.0232407
4.0346
0.0843325
0.0224171
0.0222232
0.0665563
0.028003
0.233589
7.57637
0.0218366
0.0220261
0.0259768
0.0221938
0.0230778
0.0225533
0.0222528
0.0255224
0.0219104
0.0241672
0.0221662
0.034031
0.341326
0.0222641
1.99891
13.5366
0.0216915
0.23356
0.121006
0.0793145
0.0225664
0.0670854
0.0245106
0.0775575
0.025905
0.0226477
0.0222092
8.7169
0.0241316
0.294241
0.0225625
0.0220304
0.0220147
0.064832
0.0219399
0.0387521
0.0431869
1.59007
0.0219028
0.21117
1.20153
5.26448
0.0217897
0.121644
1.00314
1.11696
0.474655
0.0225444
0.0220918
0.150967
0.278265
0.289774
0.0321126
0.180988
0.0222315
0.0217365
0.0375343
0.0221949
0.0221352
0.141168
0.0222652
0.0883911
0.0217854
7.13782
2.89869
0.342329
1.79942
5.27309
0.0221086
0.0221433
4.49332
0.0217212
0.0217364
0.0216778
0.11211
5.81868
8.13931
0.0270444
0.0217562
0.0226396
0.0352199
5.72251
0.0220354
0.399821
7.15449
0.0221879
0.0221776
4.52606
0.0545456
0.0222257
0.0220342
2.78166
5.86094
0.0217951
0.134282
0.0222533
5.17365
2.79548
0.0222635
8.60739
8.324
0.442007
0.0217786
0.0217546
0.0222446
0.0222861
5.48783
0.0218757
0.223581
0.179829
9.90463
0.0221907
0.0520865
0.233154
0.0410092
3.78009
7.15564
0.0216201
0.0235652
0.0236834
0.0970071
4.46777
0.0215468
5.58107
0.0305454
0.0320969
0.0225798
0.021944
0.230164
0.0351002
5.9319
0.0221948
0.0491759
0.0221534
0.0867031
0.0228731
5.42605
0.337926
0.248062
0.0654007
0.0219315
0.0233299
0.0630217
0.2155
4.94105
6.63784
0.022149
0.487363
0.0906933
8.45804
0.0235907
0.0379531
0.0335042
0.021879
1.064
0.0220654
0.0275309
3.60646
6.95992
0.795244
6.0738
0.0269911
0.0379364
0.0216766
7.31733
0.0261117
0.462139
0.0216639
1.11959
0.021506
0.0219921
0.0273397
0.0306815
0.0313106
0.0219224
4.14665
0.0319704
0.0218791
0.0339988
4.14601
0.573463
0.022021
7.74057
0.0235852
0.0273346
0.0262028
0.0216793
0.0547733
0.0219842
2.77047
0.0755366
0.0237108
0.0220195
0.288539
0.0328058
0.0216611
0.497219
0.366087
0.162067
0.0215362
0.270798
0.0221398
0.131825
0.024255
0.108884
0.422845
4.33731
0.034145
5.95995
0.0450609
0.0273687
0.0217981
1.24736
0.104485
0.0858137
0.0600545
0.0222434
0.975732
0.0761662
0.289985
0.16559
7.1701
4.08827
1.32786
6.64779
0.0278068
0.0308911
0.0220931
0.0218689
0.0215642
0.119823
0.0277106
0.0320038
8.38462
0.0219146
0.0218489
0.0306567
0.110788
0.0248272
0.0217849
7.64789
0.0231382
0.033509
0.0221064
7.34888
0.0280507
3.84808
0.0535527
0.0287817
0.0470932
0.0220858
9.2701
0.225202
0.0592467
0.0219749
0.0219063
7.4048
6.70141
3.82091
0.0217266
0.0605
0.246508
0.0218282
0.0220029
0.0219566
5.85003
0.0980252
0.0319676
0.0238395
0.0236052
1.94462
0.0799698
0.16508
0.0235068
0.0276184
0.0215456
0.115298
0.0489101
0.0219989
3.81046
7.40797
6.29291
3.75404
6.76517
10.0275
5.08505
0.0230946
0.0216739
1.13529
6.29814
0.448779
0.0219994
0.0321375
0.0220472
0.02194
0.339425
6.97575
0.0475843
0.0219936
0.19896
0.0706335
0.0397789
4.99763
0.530174
0.182868
0.0219117
5.46988
0.252391
0.289609
0.0262677
0.0339941
0.0221693
0.0218578
0.0330773
0.0382404
0.0236432
0.0306535
0.024785
0.0243189
0.152013
4.57686
0.0304627
0.0315016
5.31677
0.139379
0.0221117
0.457518
0.893811
4.83576
0.0351835
0.0219055
0.0259828
0.0252745
0.029073
0.0216763
0.0330055
0.0260934
0.0335869
0.215469
0.0222305
0.0225205
4.1999
4.0757
7.85644
0.231539
0.0768565
0.0214965
0.022046
0.0267887
0.0216757
8.11051
0.0220325
0.0222732
0.021694
3.80905
17.4988
0.0223392
0.0456837
0.0264498
0.033689
0.0267872
0.0348281
0.0315895
0.0328407
6.01355
0.0238852
5.88447
0.0346782
8.02436
0.0266368
0.0219326
0.0217953
0.0697564
0.107009
0.0218149
0.0373712
0.0266875
0.0508373
1.58488
8.05241
0.389313
0.022273
0.339875
0.0284772
0.0334717
0.0220205
0.0590199
0.0232053
3.74528
1.94953
0.0362977
0.0220755
4.02108
0.0270938
4.87798
6.11316
0.15462
0.0236156
0.10162
0.831723
0.310932
4.77048
0.0510418
0.0218331
0.0353184
0.0217087
10.3998
0.0239739
0.028479
0.200352
8.30522
0.0218135
0.0219149
6.31572
0.03588
10.3788
0.0326767
0.0220352
0.0358589
0.144042
0.0424336
0.266919
0.0327714
0.286649
0.0237779
0.0222444
0.0218972
0.232799
0.0225978
0.116464
0.0220445
0.0218868
0.227319
0.0236245
0.02189
0.0220318
0.0319075
0.268345
0.0316759
0.0330399
0.0259853
0.0509201
0.0219882
0.140628
0.0269231
0.0344508
0.0677545
0.0240729
0.0792305
0.043894
0.0217009
0.0490848
9.19343
3.4674
0.0218497
1.46246
4.83722
0.0219326
0.0226237
0.781008
4.95338
0.0277319
4.50554
0.258896
0.021741
0.0596656
0.0215651
0.023898
0.0504399
5.10216
0.488986
0.16594
0.22163
3.73073
5.35535
0.0222658
4.50249
0.022029
0.244212
5.48931
0.0220971
0.0220826
3.61325
0.0221098
0.0220825
0.196546
4.59259
0.154977
0.0235749
5.37776
0.0221033
4.02542
4.44243
0.0221897
0.225544
1.35636
6.28461
3.86839
4.31678
3.79429
0.0218624
0.0231254
0.049813
0.0481357
0.0220767
0.140069
0.0220337
4.20851
0.184775
0.0479272
0.167457
4.12004
0.18062
0.152358
0.0604893
9.63489
0.37023
0.0232397
0.0216086
0.25037
0.0329825
0.0217219
9.344
0.0219506
0.255575
0.022134
6.42927
0.0232512
0.0219603
17.5802
0.0272139
0.034408
3.84675
2.21362
1.62455
0.0242118
0.0321864
0.0230873
0.0297627
0.0926835
0.0304677
0.0222095
1.5397
0.0479789
0.0307699
4.25884
0.0327093
0.0351725
0.18337
0.0592483
0.0327195
0.0219554
0.162231
0.0217924
0.0905112
0.211903
5.49088
0.0218618
0.0334943
5.9456
0.0223436
0.0551722
0.0256442
0.035114
2.48271
0.0467847
0.023341
13.443
0.0218742
3.96805
0.0221234
0.0223115
0.0881373
3.85883
0.0300566
0.377081
0.543327
0.025967
0.0219363
0.153991
0.0381788
8.27919
0.0263717
9.06645
0.104144
0.025795
0.0261612
0.0941316
0.0330174
0.0718458
0.0462046
0.0362658
0.0232728
0.0217588
1.2922
0.0219854
0.0260659
0.0215847
0.0761636
0.0261369
0.0451309
4.74984
0.0230167
0.16181
0.0215045
0.0221363
0.0221879
0.0222063
0.0236111
0.0219293
0.0604823
7.87612
0.0440262
0.0352883
0.0230686
0.0219043
0.190191
0.0219779
0.348655
0.329071
6.43186
0.100312
0.0317657
0.0239825
0.0221765
0.028948
0.0943037
0.0378282
5.95372
0.0430197
8.02518
0.101964
0.0222099
0.0218321
3.51446
0.02191
0.025849
0.0646643
0.251519
0.0222993
5.80483
0.0221733
0.024523
0.0220499
0.0224996
0.158667
0.0738783
0.0220111
0.0263505
0.0344023
0.0351232
0.0414702
0.47499
0.329763
0.229325
0.0926204
0.023321
0.0224833
0.0406069
3.79416
3.62041
4.18722
0.0263824
0.396107
0.0722076
0.022194
0.0219856
0.0433121
0.0221423
0.0261642
7.09862
0.021943
0.0217237
0.373328
0.318915
0.0337559
0.798073
0.0221033
6.0745
0.0372647
7.98222
0.0289501
0.0219745
4.08647
0.0573257
0.0220117
0.0669212
0.0222526
0.14311
0.0265052
0.0526174
9.01383
0.0327211
0.660291
0.0219142
7.73354
0.0220988
0.0243474
0.022223
0.0403005
0.0221431
0.0530639
4.00733
0.964217
0.0400358
0.029868
0.0745385
0.0218254
0.0218999
0.0222562
0.290259
0.0233422
6.72068
5.24692
0.12636
0.0222147
0.130032
0.18955
0.112401
0.0232415
5.87616
0.0219412
0.0215054
0.0219306
0.788978
0.0218795
0.0219885
4.13119
0.0219557
0.136387
0.0957406
0.02165
5.13567
0.024192
6.53396
0.0218263
0.289694
0.0224015
0.0704331
11.2492
0.0500814
0.0219234
0.0239411
0.406947
0.0261374
0.133043
0.0268116
0.0248089
0.128699
0.0277818
0.0217953
27.5826
0.0267117
0.0243092
0.100329
0.0219448
0.02182
0.0221887
0.0254132
0.0220906
0.0250907
0.77431
13.4384
0.0991192
8.54338
0.0428932
0.0269583
8.34157
7.14878
0.0223846
11.1623
2.72511
4.24547
0.750266
0.0277078
0.411773
4.34357
19.6636
0.730449
4.00171
0.0411804
0.0798987
0.0285945
0.0234066
0.0221226
1.11891
0.022285
5.93615
0.117955
0.309955
0.0215831
0.0533999
0.0439848
0.0235519
0.0222931
0.0221182
0.117108
0.0224326
0.0218575
0.0301284
7.56528
0.022943
0.144275
0.0218184
0.120782
0.0797376
0.0221181
0.0256392
0.0219331
6.31338
5.02105
0.118108
3.67662
0.031266
0.067078
0.0221315
0.0308608
0.0220442
0.0220688
0.0222328
2.87304
0.0217375
0.0326646
0.644595
0.0265025
0.026391
0.0219844
8.68468
0.160306
16.7197
5.24185
0.140511
0.209138
4.62249
0.236653
0.206292
10.4273
0.118436
0.0337316
0.557367
7.56088
0.0220387
6.24136
0.137175
3.58596
0.0216007
0.0463679
8.74179
0.022273
5.94142
0.0252983
7.65833
0.022091
0.0221061
0.0582487
0.210499
0.0237237
0.0539938
0.0217118
0.0218923
3.8166
1.25454
9.16964
0.038053
0.0217811
0.0224007
0.0221342
0.0340374
1.05721
4.93203
0.332311
0.499578
0.0287533
0.0219491
0.0219805
6.90969
7.87854
0.232724
0.0261603
0.0239134
0.0796175
6.22215
7.0948
0.0214928
0.0219409
6.65261
0.0224903
0.230858
0.027284
0.0220019
0.030414
0.0447734
5.50481
6.57543
0.022202
0.0217197
0.0236473
0.190125
8.49724
0.0222649
0.115088
6.28786
0.0215033
0.32366
4.06578
15.3112
0.0221094
6.75558
6.56459
0.0363212
0.290635
0.0227834
0.299329
0.235653
0.0235637
0.0219197
8.25395
0.365846
0.021783
0.103045
0.119641
0.0259951
0.181119
6.49869
3.72388
7.99592
0.0244187
0.0234833
0.0222674
6.16472
6.45787
6.31295
6.72484
5.65546
0.0216677
0.033051
0.0220663
0.022114
0.0242111
0.0219562
0.0220543
0.0219967
4.34339
10.8837
8.57743
0.053621
0.143572
0.0356805
0.0218193
0.0219849
5.30853
0.0221371
6.1429
4.16065
0.0221783
0.021792
4.11841
0.0223083
0.493327
0.0242059
0.0217346
0.0216615
5.67596
0.021652
7.62742
5.34372
0.0215483
0.0374212
0.0218191
0.0222214
0.0216974
0.102355
0.290345
0.0219602
6.41293
0.430356
0.0234827
0.0217776
0.0224807
0.0228632
0.0222258
0.372179
6.38179
6.98963
0.0303635
8.74299
0.0222725
0.0236746
0.0217777
0.157192
0.0231324
1.20904
0.0218529
4.03487
0.202665
7.33503
0.108706
0.0218496
0.038135
0.0218461
5.60932
0.0218459
0.0269917
0.024844
0.0238238
0.0220042
0.0222509
0.0313496
6.10027
0.0221699
0.0223921
0.0228616
0.0318473
0.119202
0.0221873
6.19388
3.95775
0.0229403
5.1413
5.9137
0.408021
2.3772
0.0215268
0.0227336
0.579455
4.67978
0.119951
3.9028
4.42467
0.0304441
0.0402094
0.0262161
4.39486
0.0220284
0.0219621
1.10813
0.0950716
5.99164
0.0231467
0.0216694
0.022039
6.14952
0.0525169
0.023236
0.206858
0.0217267
0.0444161
0.0267875
0.0268961
0.0217038
0.0221879
0.0219059
0.0232818
1.23107
4.33474
0.021557
0.0218105
7.94555
0.0219717
0.0595854
0.0258506
0.0254286
0.0293389
0.0222857
4.36753
0.0258588
0.0252039
24.994
0.0638282
0.0229035
0.0264316
0.0220121
0.0222571
9.59931
0.278491
3.71577
0.0219779
0.0221528
0.0533813
0.026712
0.0220218
0.0299964
7.18893
0.0247432
0.0368022
0.024628
0.0871093
0.022115
0.0216092
5.98967
0.360078
0.342296
0.0219427
0.111484
0.0215301
0.0220123
0.0490901
4.90889
0.0514095
0.0259189
0.114412
0.0221848
0.0257129
0.0517558
0.74228
0.0220285
0.0216202
0.022492
0.0233851
0.0239705
0.0219424
1.09304
11.3875
0.0218781
0.0309056
0.0223968
0.0215746
4.51254
2.78193
7.41888
0.0551996
0.0223748
0.0419632
7.56999
0.0842254
0.0701772
0.0325962
0.0287432
6.75026
0.15102
0.588777
0.0217498
0.0294603
0.0221054
0.0275571
9.19845
0.021614
0.0374844
0.025333
0.0284364
0.0227702
0.0216883
0.0218688
4.74055
0.0364203
0.0262965
0.0516217
0.032936
0.425145
0.0298627
0.459193
0.0218961
8.28138
5.85405
4.41254
0.0222645
0.0275093
0.0220836
0.0219095
8.44708
0.0370845
7.67199
0.0219793
0.0435299
0.0980314
5.38696
0.0273904
0.0215773
5.67864
0.0222852
0.0222842
0.0223519
0.0220276
8.1933
0.0217719
0.0218423
0.0340865
0.026688
0.129314
0.114919
0.0323384
5.55546
0.0217021
0.154828
0.0216642
7.35271
0.0315718
0.441513
0.116952
2.27253
0.0785027
8.22064
0.0224033
5.77986
0.0312867
6.45986
0.172204
0.0276818
0.187069
0.022072
10.0476
0.022435
0.0343233
0.0265496
5.09473
0.101821
6.90732
0.0299131
0.0219968
6.57338
0.201824
0.0406311
0.122139
10.1398
8.62607
0.0363608
0.227447
0.0349265
0.0218429
0.0433735
0.22225
0.063353
24.0998
0.108238
0.0217552
0.0217727
0.121824
0.022085
0.455445
0.0651611
0.0220832
3.85811
0.37619
0.358376
0.0962626
0.0218117
0.0283309
0.0254618
7.90081
3.94796
0.0254138
6.71754
0.0217857
0.0308191
0.681464
0.0219884
0.0355923
0.0219158
0.0249084
0.0222512
0.15143
0.254744
0.0294409
0.0282666
0.0216668
0.124973
0.0218067
0.0217976
0.0318954
0.0219079
0.184572
8.57816
1.07936
6.08337
0.0217474
7.68697
0.0221885
0.0368822
0.11738
0.0217911
8.21757
0.0635353
0.0219708
0.0215658
0.0359072
0.0351985
0.161646
0.157383
0.0256204
0.0233772
5.57953
0.0469603
0.191825
0.617489
11.0465
2.99705
7.64548
0.758363
0.0221418
0.0221134
0.0423395
0.0221112
0.0453858
0.0291476
8.05906
8.27179
7.05589
0.0216048
0.0217079
0.105472
0.205129
6.88798
0.740977
3.85967
0.052429
0.0318826
0.733467
0.20632
0.0238413
8.34522
0.0322191
0.026913
6.3381
0.0319979
0.0217268
1.03575
0.754701
0.022987
0.124594
0.022935
3.21207
4.00383
0.413004
0.0220003
0.0216638
0.100258
0.0220033
0.0217758
0.0220086
0.0216991
0.0220154
0.0220236
7.98219
0.0265451
0.0446834
6.44504
0.021885
0.0220336
0.0277329
0.0235072
0.0240297
0.0220429
0.0589234
0.0287945
0.0260321
0.0808625
5.93764
0.0220551
0.0342518
0.0220683
0.022027
0.0215417
0.0220816
7.67188
0.0218028
0.0220096
0.0220955
0.0398445
7.01622
6.23531
8.54681
0.730734
0.0361301
6.40519
5.40951
0.0219432
0.0406737
0.929872
0.171353
0.0221103
0.0246137
0.0331909
0.036898
0.0220576
0.0310245
0.0563123
0.0429928
0.0216118
0.0475014
0.391241
0.0215587
0.726328
7.80613
0.0406429
0.642749
0.0325206
0.0220885
0.0237651
0.0219933
0.204854
8.51881
0.0216152
0.0412608
0.021952
0.021978
0.0221231
0.0222859
0.035183
0.0221714
0.112777
0.127452
0.0246676
0.0238368
0.0383293
0.0220418
0.0428849
0.0270126
0.0221449
0.0221003
0.0221402
7.40178
0.0219934
0.185114
0.0317616
0.0222531
0.0219914
0.0216405
5.99069
0.0243834
0.0412883
0.0464865
8.74831
0.0276784
5.97222
0.655211
0.0414168
0.0219571
0.16619
0.0343711
5.97664
0.0629724