/*--------------------------------*- C++ -*----------------------------------*\
| =========                 |                                                 |
| \\      /  F ield         | OpenFOAM: The Open Source CFD Toolbox           |
|  \\    /   O peration     | Version:  v2012                                 |
|   \\  /    A nd           | Website:  www.openfoam.com                      |
|    \\/     M anipulation  |                                                 |
\*---------------------------------------------------------------------------*/
FoamFile
{
    version     2.0;
    format      ascii;
    class       volVectorField;
    location    "600";
    object      U;
}
// * * * * * * * * * * * * * * * * * * * * * * * * * * * * * * * * * * * * * //

dimensions      [0 1 -1 0 0 0 0];


internalField   nonuniform List<vector> 
13851
(
(1.00175 -0.0261303 -7.08101e-21)
(0.585788 -0.0173441 -1.05693e-20)
(1.0395 -0.140738 -1.24742e-21)
(1.00147 -0.0242868 0)
(1.07683 -0.156458 -4.42776e-20)
(0.994927 -0.01827 0)
(1.04686 -0.0124029 0)
(1.05231 -0.117067 -1.79644e-20)
(0.994272 -0.00115574 -5.88979e-22)
(1.01105 -0.124359 2.64008e-21)
(0.965117 -0.0424173 -1.00661e-22)
(0.452945 -0.0781767 0)
(0.71452 -0.150841 0)
(-0.00847309 0.000963887 -9.23956e-21)
(1.02545 -0.00219242 -2.17646e-20)
(1.02987 -0.0848027 5.28029e-23)
(1.05427 -0.0653943 0)
(1.00555 -0.0469938 0)
(0.923095 -0.178531 4.57063e-20)
(0.99419 -0.00122888 0)
(1.00183 -0.0240972 -3.25277e-21)
(1.0433 -0.141431 0)
(0.991706 0.00023338 4.90446e-22)
(0.990195 -1.97485e-05 -5.77272e-22)
(0.99208 0.000150091 -5.13647e-22)
(1.04907 -0.11708 1.77159e-20)
(1.07958 -0.0555494 -4.49885e-20)
(-0.00395286 -0.0715438 -2.8949e-22)
(1.00242 -0.0264293 5.40635e-21)
(1.0182 -0.0485487 5.52678e-21)
(0.995339 -0.0178781 0)
(1.05475 -0.0678433 7.08069e-22)
(1.03817 -0.137864 6.825e-21)
(0.837836 0.0122898 -1.51617e-21)
(0.990368 -6.51435e-05 -2.15188e-21)
(1.16172 -0.205349 0)
(0.781989 -0.166476 -1.50842e-20)
(1.04497 -0.178489 -1.43208e-20)
(1.00885 -0.126583 -6.31871e-21)
(0.858214 0.0104855 1.72518e-21)
(1.0063 -0.017167 1.66196e-22)
(0.995643 0.00219336 1.40783e-22)
(0.00937969 0.058019 2.79878e-20)
(0.926618 -0.0416726 0)
(0.911293 -0.045451 1.3256e-22)
(0.0527406 -0.0069233 2.4023e-22)
(0.861932 -0.0159547 -2.00268e-22)
(0.899003 -0.00997161 4.45746e-22)
(1.08139 -0.057224 0)
(1.00245 -0.00194936 -2.99337e-22)
(1.11522 -0.157374 -1.83364e-20)
(1.09571 -0.187864 -4.86781e-20)
(-0.0185993 -0.0128552 0)
(1.02444 -0.00167384 4.96635e-23)
(1.00469 -0.00154559 8.24926e-21)
(0.995759 0.00234271 -2.09506e-22)
(0.990709 0.000169397 -2.10765e-21)
(-0.0410276 -0.0266609 3.08424e-20)
(1.01809 -0.0471546 -2.39386e-21)
(1.04667 -0.0181538 -1.07516e-20)
(1.04187 -0.177699 1.2952e-20)
(0.297973 -0.0786954 -3.45685e-20)
(0.993794 -0.044912 3.33247e-22)
(1.07977 -0.165782 1.91614e-21)
(0.982562 -0.0623173 2.35656e-21)
(0.999571 -0.0258428 0)
(0.714115 -0.158098 1.85866e-20)
(0.847012 0.00998578 8.56911e-22)
(1.09991 -0.0990013 3.20521e-20)
(1.00495 -0.0459343 0)
(-0.0901527 -0.00477706 1.02919e-19)
(0.582808 -0.142865 -7.74632e-20)
(0.53824 -0.00938379 -1.49128e-20)
(1.02474 -0.00170263 0)
(1.00431 -0.00272653 0)
(0.995665 -0.00151331 7.58277e-22)
(1.04591 -0.139969 0)
(0.0701556 -0.0145044 -3.62776e-20)
(1.08227 -0.125992 3.62551e-20)
(-0.118208 -0.00272205 -1.31724e-20)
(1.05021 -0.0278679 1.11605e-20)
(0.885364 -0.0213717 -1.93027e-22)
(1.02499 -0.0136805 1.9096e-20)
(0.0478896 0.00509005 0)
(0.993908 -0.0462947 5.73895e-23)
(0.502328 -0.0888284 0)
(0.995573 -0.018192 0)
(0.799144 -0.0817071 -8.9392e-21)
(1.0696 -0.0677863 2.61685e-20)
(0.996455 0.000237732 6.67229e-22)
(1.16939 -0.204009 -2.65773e-20)
(0.995839 -0.00850006 0)
(0.84325 0.022925 -1.06684e-21)
(1.07637 -0.0796848 -4.25973e-20)
(1.07128 -0.0661212 -2.49617e-20)
(0.989784 0.000149921 0)
(1.07884 -0.159333 6.97673e-20)
(0.321215 -0.067305 8.26532e-23)
(1.00279 -0.00243007 -9.95636e-22)
(0.99014 5.24302e-05 5.11163e-22)
(-0.0664541 -0.0264242 -8.38979e-21)
(1.0991 -0.131434 2.38594e-20)
(1.00886 -0.0294315 6.85371e-21)
(1.09713 -0.0404562 2.25982e-20)
(0.99466 0.000258361 -8.0531e-23)
(0.995523 -0.0169727 0)
(1.10574 -0.139175 -2.37297e-20)
(0.996203 0.00207199 8.51543e-23)
(0.436723 -0.119396 0)
(0.994513 -0.0185798 0)
(0.989956 1.5323e-05 3.40483e-21)
(0.996623 0.000146462 -6.58234e-22)
(0.996121 -0.0086548 -9.21458e-22)
(0.993708 5.0925e-06 0)
(0.989715 1.87252e-05 -2.66956e-21)
(0.661076 -0.00330929 2.78293e-21)
(0.355103 -0.0774419 2.42358e-20)
(0.995459 0.00133097 2.14049e-22)
(0.993266 -0.000435806 0)
(1.00176 -0.00103097 4.28805e-21)
(0.00502659 0.0613213 2.73987e-20)
(1.09462 -0.0411156 -9.81942e-21)
(0.680686 -0.145961 -1.23077e-20)
(0.715211 -0.00430378 2.28722e-22)
(0.943722 -0.00538813 -1.24258e-21)
(0.995153 0.000434109 1.5639e-22)
(0.951204 -0.0021503 8.45463e-22)
(1.0901 -0.128871 -4.6926e-20)
(1.00159 -0.0228947 -9.58722e-22)
(1.06159 -0.176997 -4.39892e-20)
(1.00632 -0.0166332 5.40115e-21)
(0.994633 -0.00223733 7.88767e-21)
(-0.0751195 -0.0096913 -9.46938e-20)
(1.02529 -0.0130118 -2.28575e-20)
(0.662474 0.00192781 4.61047e-21)
(0.994737 -0.000947022 3.54938e-21)
(0.995499 0.00121081 -3.42846e-22)
(0.607636 -0.147305 3.7256e-20)
(-0.00237307 -0.0314343 0)
(0.180528 0.0658842 0)
(-0.0779832 -0.0273172 9.81881e-21)
(1.00393 -0.00142032 7.26419e-21)
(0.99839 -0.00188733 0)
(0.995384 0.00237778 1.41746e-22)
(1.04084 -0.0519403 0)
(0.919368 -0.0316064 -4.69107e-22)
(0.993136 0.0105997 7.78952e-23)
(1.0582 -0.176409 0)
(1.04541 -0.0120746 8.78187e-21)
(0.915438 -0.0492972 -4.27383e-23)
(1.16461 -0.151477 -8.27819e-21)
(1.00142 -0.0012554 1.84034e-21)
(-9.2375e-05 0.00199943 0)
(0.990635 0.000146174 -7.393e-22)
(1.05926 -0.0469302 2.29538e-20)
(1.03933 -0.0511174 -1.07195e-20)
(0.997542 -0.00700417 -5.56527e-21)
(1.02274 -0.0453708 0)
(1.09283 -0.187905 4.85384e-20)
(1.112 -0.155653 0)
(0.997632 0.00453367 0)
(1.09425 -0.0757731 -3.2223e-20)
(-0.0379603 -0.025621 -1.91136e-20)
(0.994423 -0.00207852 -2.14433e-21)
(1.01718 -0.0615952 0)
(0.995324 0.0022863 1.95389e-22)
(0.991819 0.0109025 -1.07957e-22)
(1.10308 -0.10021 0)
(1.00184 -0.0226006 9.45029e-22)
(0.212049 -0.0363677 -2.08724e-20)
(0.0562531 -0.0110025 5.92668e-20)
(0.992429 -5.18381e-05 3.18978e-21)
(0.997782 -0.00739233 0)
(0.139665 0.0608072 0)
(0.994282 -0.00188412 4.17232e-21)
(0.892837 -0.0142434 -1.59649e-21)
(1.08784 -0.126751 1.91719e-20)
(0.998116 -0.00282335 0)
(0.886803 -0.174315 -2.46454e-20)
(0.996501 0.00253986 1.14493e-22)
(1.05311 -0.0713238 -2.32751e-22)
(0.556086 -0.138883 4.0705e-20)
(1.02574 -0.0114966 -1.05052e-20)
(1.04408 -0.145114 0)
(0.997243 0.00108881 -2.62698e-23)
(0.99069 0.000215898 0)
(0.999777 -0.0267826 -3.20517e-21)
(1.00383 -0.0017072 4.18671e-21)
(1.06896 -0.161498 -3.32181e-22)
(0.995248 -0.100093 -1.69957e-21)
(0.855549 -0.00121096 -1.1364e-21)
(-0.0246466 -0.0146598 -1.08265e-20)
(0.996864 3.90811e-05 -2.10066e-23)
(1.08938 -0.100908 -3.35857e-20)
(0.331147 -0.0855998 1.50575e-20)
(1.05595 -0.0455428 -1.77366e-20)
(0.998199 -0.00190025 -1.03332e-21)
(0.875266 0.00107361 -9.19931e-22)
(0.998071 -0.00266656 0)
(0.995746 -0.0016326 -3.08442e-21)
(0.995341 0.000202037 -1.96203e-22)
(0.123713 -0.0335819 -8.48844e-21)
(0.993362 -0.000207089 0)
(1.0156 -0.0142976 7.89612e-21)
(1.00583 -0.104875 0)
(1.02648 -0.0121534 5.0829e-21)
(0.275389 -0.0677444 2.42394e-21)
(1.05954 -0.0664795 2.77385e-21)
(0.0633477 -0.0333757 0)
(0.997243 0.00348313 4.73088e-23)
(0.294986 -0.0927937 1.76404e-20)
(1.009 -0.0285863 -6.29723e-21)
(0.77952 0.00685915 -5.61367e-22)
(0.996824 0.00241914 7.59991e-23)
(0.995466 0.00250277 9.11919e-23)
(0.971103 -0.016876 0)
(0.995434 -0.048059 1.32485e-22)
(0.0219273 -0.00176541 0)
(1.02484 -0.00470531 0)
(0.0785217 -0.0372502 0)
(1.05884 -0.067927 -1.30918e-20)
(1.05183 -0.0288355 0)
(0.380488 -0.0946336 0)
(1.08071 -0.18189 0)
(0.184772 -0.0733462 5.48529e-20)
(0.991478 7.77021e-05 0)
(1.07731 -0.0883271 3.04332e-20)
(0.994856 0.000178666 5.90359e-23)
(-0.0408883 0.00672316 1.65966e-20)
(0.996988 0.00261902 -5.16895e-23)
(1.0472 -0.114354 0)
(0.990884 -0.0534662 -2.82602e-21)
(0.992334 -2.71796e-05 -2.14928e-21)
(0.996711 0.000139469 5.70083e-22)
(1.12164 -0.148539 2.88748e-20)
(1 -0.0572272 0)
(0.317935 -0.0727481 0)
(0.978734 -0.0619838 -5.91727e-22)
(0.995435 0.0024669 4.19775e-23)
(1.01629 -0.0146779 9.13432e-21)
(0.995375 -0.0177496 -3.23437e-23)
(0.99964 -0.00673488 0)
(0.997065 0.00583514 0)
(1.00371 -0.1065 -3.23838e-21)
(0.994601 0.000389105 8.10872e-23)
(0.143318 -0.0610459 5.19619e-20)
(1.09637 -0.133426 1.15815e-20)
(0.779441 0.0141312 0)
(1.03664 -0.0515691 -1.86995e-22)
(1.03889 -0.0672289 -3.31518e-21)
(0.998464 -0.00448507 -9.81532e-22)
(0.994955 -0.00762942 -1.48342e-22)
(1.0366 -0.0342469 0)
(1.03821 -0.0524473 0)
(1.12319 -0.131903 7.93531e-21)
(0.982222 -0.0368019 -2.5489e-21)
(0.995722 -0.0970154 1.47404e-21)
(0.583744 -0.14354 -7.75161e-20)
(0.0555592 0.00497932 -3.02561e-20)
(1.03114 -0.00650639 2.17241e-20)
(0.995408 0.00242401 -2.7486e-22)
(1.0051 -0.0434265 -2.46802e-21)
(0.959511 -0.0126986 -2.63978e-23)
(0.995398 0.00129763 5.38339e-22)
(0.805466 -0.164009 0)
(1.05452 -0.0457064 -1.96845e-20)
(1.03694 -0.0331801 0)
(1.07661 -0.0777261 0)
(0.420752 -0.102689 0)
(0.994357 0.000538169 1.80886e-22)
(0.998572 -0.00428913 -9.12904e-22)
(1.05755 -0.0473668 0)
(0.998544 -0.0149483 2.92226e-22)
(1.08284 -0.122443 0)
(1.02883 -0.0825641 0)
(0.994744 -0.00245585 2.03425e-21)
(0.885716 -0.0188304 -1.35038e-22)
(0.987426 0.0025865 0)
(0.169848 -0.0737284 1.28604e-20)
(0.962594 -0.0363515 -5.80261e-22)
(0.99718 0.006105 0)
(0.997481 0.00336166 0)
(0.994927 0.00028019 -5.44694e-24)
(1.1231 -0.128674 -3.94065e-20)
(0.938598 -0.0129363 -1.02576e-21)
(0.841684 -0.0214593 1.08239e-21)
(0.995028 -0.00160226 0)
(1.02857 -0.00246446 0)
(0.999582 -0.0158034 0)
(0.877157 0.00299165 0)
(1.05883 -0.17981 0)
(1.01937 -0.0465506 0)
(1.04684 -0.0192164 0)
(1.09579 -0.106781 -2.10557e-21)
(0.882279 -0.00449737 -3.7591e-22)
(0.825568 -0.167384 9.11784e-21)
(1.02133 -0.0624179 9.03582e-21)
(0.505678 -0.0849261 0)
(0.995007 -0.00280736 2.26696e-21)
(0.163801 -0.0656104 -4.98501e-20)
(1.09404 -0.0738448 -4.35447e-21)
(1.05188 -0.0646137 0)
(0.187637 -0.0775408 2.53971e-20)
(1.01488 -0.0265043 0)
(0.995539 -0.0174311 1.48065e-22)
(0.267155 -0.0759786 1.45932e-20)
(0.994836 -0.00156947 0)
(1.11545 -0.118641 0)
(1.07387 -0.0807094 3.81998e-20)
(1.01917 -0.0451943 1.58626e-20)
(0.0311849 -0.0406692 9.73384e-21)
(1.02027 -0.0628956 -6.29858e-21)
(1.03306 -0.0332897 0)
(0.368179 -0.0862108 0)
(0.995473 0.00222351 -8.31916e-23)
(1.03973 -0.0689708 0)
(0.99566 -0.000459943 -1.93246e-22)
(0.2089 -0.0811976 1.14592e-20)
(1.15998 -0.185922 0)
(1.02527 -0.00523903 1.9525e-20)
(1.10816 -0.133343 0)
(1.02711 -0.00418373 9.62656e-21)
(0.0898962 -0.00149603 -5.10126e-20)
(0.998484 -0.00434372 -1.37467e-23)
(0.991312 0.000248217 0)
(0.997621 -0.00824965 -5.60574e-21)
(1.1575 -0.184765 -3.78869e-20)
(1.07723 -0.0852503 9.88094e-21)
(1.06164 -0.0448686 -1.25303e-20)
(1.02851 -0.00209289 -5.06077e-21)
(1.01529 -0.0262165 0)
(1.03183 -0.0327233 8.91704e-21)
(0.950438 -0.0462851 0)
(0.143562 0.0074312 3.28047e-20)
(0.246651 -0.0512759 -1.59867e-20)
(1.00022 -0.042156 0)
(0.224598 -0.0845751 0)
(0.62238 -0.13309 5.04142e-21)
(1.02499 -0.00214829 0)
(1.08731 -0.103035 0)
(1.05653 -0.179983 -1.26063e-20)
(0.995312 -0.0097964 8.00547e-22)
(0.99591 -0.0567341 -4.78787e-23)
(1.10905 -0.183957 3.55006e-20)
(0.898927 -0.175586 -8.09765e-21)
(0.997349 -0.0074139 0)
(0.766675 -0.00621909 6.24039e-22)
(0.223841 -0.0720523 -2.36756e-21)
(1.0257 -0.00177949 1.51967e-20)
(1.00376 -0.00342092 -5.02033e-22)
(1.00329 -0.00515229 7.22109e-22)
(0.973135 -0.161077 0)
(1.06289 -0.044141 2.48335e-20)
(0.994842 -0.056559 -5.11675e-22)
(-0.0456154 0.00270805 -2.71619e-20)
(0.997889 -0.00774704 1.50283e-21)
(0.739002 -0.00542349 -9.47663e-22)
(0.997499 -0.00797687 -5.08974e-21)
(1.02702 -0.0038966 4.50122e-21)
(0.99499 0.000514699 -7.77931e-23)
(0.996341 0.00222587 -9.25699e-23)
(0.997501 -0.00644181 -2.86731e-21)
(0.255536 -0.0796944 3.91382e-20)
(0.916581 -0.00446093 0)
(1.01906 -0.0194297 1.09239e-20)
(1.1151 -0.114808 4.51111e-20)
(0.995599 0.00249633 7.55921e-24)
(0.472139 -0.0831427 -1.11517e-21)
(1.01817 -0.0857675 -2.32148e-21)
(0.720324 -0.0245361 -8.5506e-22)
(0.234014 -0.043546 1.93277e-20)
(1.01864 -0.0199843 -1.12142e-20)
(0.994774 -0.0483713 0)
(1.06885 -0.0814663 2.6749e-20)
(0.749042 -0.0243316 9.07428e-22)
(1.00511 -0.0147115 1.43763e-20)
(0.995319 0.00138398 -1.06109e-22)
(0.997442 -0.00597658 0)
(-0.02064 -0.0257531 -2.29503e-20)
(1.00386 -0.00215856 -7.09822e-21)
(0.0703466 -0.0450326 0)
(0.995348 -0.00916439 0)
(1.1065 -0.187018 -4.02811e-20)
(0.178362 -0.0278776 0)
(1.00806 -0.0155972 6.95961e-22)
(1.01013 -0.0114215 -7.38002e-22)
(0.998754 -0.00347767 0)
(0.99577 -0.00304469 2.56636e-21)
(1.02518 -0.00100749 0)
(1.00102 -0.0413226 0)
(1.11134 -0.132377 3.57004e-20)
(0.0379614 0.0114804 0)
(1.10808 -0.0991073 5.29936e-20)
(0.220795 -0.0806399 -1.00698e-20)
(0.255476 -0.0763113 -1.60192e-20)
(0.995515 0.0024157 0)
(1.032 -0.00678579 0)
(0.223481 -0.0437642 1.64249e-20)
(-0.0838293 -0.00593126 -4.74556e-20)
(0.990981 -0.0530621 0)
(0.370687 -0.0823461 -3.3842e-20)
(0.99748 -0.00565299 0)
(1.06951 -0.0841402 9.48515e-21)
(0.990274 0.000157371 0)
(0.686892 -0.141765 -4.5336e-21)
(0.993352 -0.000400871 -1.95573e-21)
(1.03216 -0.0850739 9.61167e-21)
(0.998605 -0.00352714 3.71104e-21)
(1.0411 -0.0141683 -2.69884e-20)
(0.99492 0.000201515 -1.1767e-23)
(0.994738 -0.00141404 0)
(0.995386 0.00234917 0)
(1.08306 -0.165166 -3.54901e-20)
(0.997685 -0.0609445 4.81707e-22)
(0.126774 -0.00684189 -2.49335e-21)
(1.00327 -0.0440521 6.17436e-21)
(1.10851 -0.13737 0)
(0.99567 -0.0225478 0)
(0.994955 -0.00486651 -1.68341e-22)
(1.03516 -0.0695676 -8.43866e-23)
(0.950998 -0.157588 4.8161e-21)
(1.05119 -0.062646 9.50367e-21)
(0.969183 -0.0098225 0)
(0.995667 0.00119741 8.09271e-23)
(0.99457 -0.0013626 1.3401e-21)
(0.990776 0.000180902 -2.34996e-22)
(0.997219 -0.176032 0)
(0.789991 -0.022823 7.72902e-22)
(1.07596 -0.179103 -3.08323e-20)
(0.995852 -0.0232307 3.36935e-22)
(0.103135 -0.000494264 1.1155e-20)
(0.848459 0.0101983 -6.91068e-22)
(0.995647 -0.0177168 0)
(1.00061 -0.000902784 0)
(1.12536 -0.149549 -5.03636e-20)
(1.00509 -0.0141269 0)
(0.98843 -0.00482243 -1.79004e-22)
(0.993945 0.000284363 0)
(0.864749 -0.141435 2.16819e-21)
(0.892109 -0.0136812 0)
(1.03545 -0.131653 1.44978e-20)
(0.0676409 -0.028894 0)
(0.998243 -0.00243016 -1.08343e-21)
(0.989944 0.00765374 -3.67838e-22)
(0.861218 -0.0174188 0)
(0.0773674 -0.0135577 3.80261e-20)
(0.997364 0.0012417 1.57571e-23)
(1.07002 -0.0894013 -1.25823e-21)
(1.08466 -0.128016 -1.96544e-20)
(0.993679 0.00140723 0)
(0.992843 -0.000285905 -2.1713e-21)
(1.03012 -0.0330475 0)
(1.16363 -0.146986 -5.52408e-20)
(1.10108 -0.185844 2.62429e-20)
(1.00101 -0.0465435 0)
(0.307241 -0.0321539 1.00929e-20)
(0.990964 8.95569e-05 0)
(0.997698 -0.00862533 6.70231e-22)
(-0.00306042 0.0440677 -2.07444e-20)
(1.01552 -0.061491 2.66414e-21)
(0.997482 0.00320257 0)
(0.711836 -0.0749011 -8.36929e-21)
(0.995574 -0.00285652 -2.7488e-21)
(1.00146 -0.0254808 0)
(0.993308 -0.000696755 -2.67461e-21)
(1.00568 -0.0702393 0)
(1.02112 -0.0415871 0)
(0.997266 0.00333739 -1.81665e-23)
(0.998219 -0.00227626 1.08617e-21)
(0.400582 -0.0946331 0)
(1.02557 -0.0145891 -1.10104e-20)
(1.10701 -0.105432 4.11881e-20)
(0.995127 -0.00110503 5.5148e-21)
(0.996525 -0.0152158 8.07856e-22)
(0.980327 0.00510523 0)
(0.993806 -3.82289e-06 0)
(1.00253 -0.0143486 -4.44526e-21)
(0.990696 3.30901e-05 6.0321e-22)
(0.990716 4.92962e-05 1.18265e-21)
(0.931585 -0.015994 -8.93493e-22)
(1.03876 -0.0323031 0)
(0.995405 -0.0181569 -1.09054e-22)
(1.02597 -0.0107754 1.60006e-20)
(0.990277 0.000165165 0)
(-0.0960868 -0.0230936 0)
(0.0531641 -0.0252681 -1.51761e-20)
(1.02824 -0.0128613 2.44062e-20)
(0.996307 -0.0149535 -5.21472e-22)
(1.03671 -0.0710679 6.83731e-21)
(1.00125 -0.00858837 0)
(0.0407552 0.0039003 1.59053e-21)
(0.997852 -0.00896971 2.40106e-21)
(0.924539 -0.0143209 0)
(1.00573 -0.0153513 -5.11139e-21)
(1.06574 -0.153046 2.12662e-20)
(1.04254 -0.0170382 -3.05973e-20)
(-0.04933 0.016963 3.63362e-20)
(0.995638 0.000930649 0)
(-0.015895 -0.00498358 0)
(0.993932 -0.0918694 0)
(0.995541 0.00216279 0)
(0.996259 -0.0141288 -7.83582e-23)
(0.246733 -0.0446895 1.98818e-20)
(1.04448 -0.114753 0)
(0.823533 0.0384703 1.43988e-21)
(0.993979 -0.000573142 0)
(0.780785 0.000132945 -1.52449e-22)
(1.00419 -0.0011805 -8.01809e-21)
(0.99358 -0.00137306 -1.89367e-21)
(0.994749 -0.00261829 1.62284e-23)
(1.04261 -0.0110527 -9.2224e-21)
(-0.0611694 -0.0137871 -8.73903e-20)
(1.10903 -0.149187 -4.10736e-21)
(1.11842 -0.191804 1.57939e-20)
(0.8874 -0.177254 -2.5962e-20)
(0.995006 -0.0468534 -1.4196e-22)
(0.997494 0.0046211 0)
(0.602387 -0.131957 2.64158e-20)
(0.817623 -0.0235801 7.06214e-22)
(1.05535 -0.0723178 1.25833e-20)
(1.09215 -0.0773452 2.7643e-20)
(1.00358 -0.00679946 6.66984e-22)
(0.727893 -0.00439646 -3.62933e-22)
(0.336554 -0.100893 3.28693e-20)
(1.02179 -0.00115725 -8.29531e-21)
(-0.0534155 0.0138894 7.52867e-21)
(0.0643437 -0.00545355 -2.45647e-20)
(0.0874484 -0.027012 9.90972e-21)
(1.01853 -0.0631133 0)
(0.996025 -0.013865 7.37068e-22)
(0.7173 -0.0148566 -3.43416e-22)
(0.988129 0.00650602 2.18093e-22)
(0.981963 -0.03443 0)
(0.83192 0.00506402 9.46433e-22)
(0.732016 -0.127944 6.78578e-22)
(1.02161 -0.0458399 0)
(0.700464 -0.12548 2.43008e-21)
(0.588475 -0.142192 0)
(0.995801 0.00105983 1.34808e-22)
(0.988419 0.00406265 0)
(1.11219 -0.151066 0)
(0.032937 -0.0166788 7.23187e-20)
(1.03532 -0.0525783 5.26643e-21)
(1.01718 -0.0102886 -3.86684e-21)
(0.997442 -0.00671401 2.6891e-21)
(1.01047 -0.0165099 7.90973e-21)
(1.07246 -0.160846 -2.32083e-20)
(1.0027 -0.0608947 1.22683e-21)
(0.857448 -0.0802533 1.36585e-20)
(0.316053 -0.0371262 -1.0202e-20)
(0.993219 -0.000509498 1.69332e-21)
(0.000949765 0.0487109 1.95689e-20)
(0.110789 -0.0300374 0)
(0.994988 -0.0170868 3.12697e-23)
(0.823097 -0.0236609 2.05511e-22)
(1.10391 -0.104136 -3.66735e-20)
(0.99744 0.00282384 2.62475e-23)
(0.994466 -0.00124148 -3.33963e-21)
(0.982975 0.0168499 0)
(0.558161 -0.122003 -4.94734e-20)
(1.06099 -0.0482194 0)
(1.15602 -0.168125 7.34155e-20)
(1.15403 -0.205909 -2.85069e-20)
(0.995871 0.00238423 -1.24067e-22)
(0.994922 -0.0218693 4.84778e-22)
(0.793393 -0.0047489 -1.06156e-21)
(1.0166 -0.162785 0)
(1.09887 -0.180938 3.87921e-20)
(-0.0507146 -0.0166639 8.64875e-20)
(0.578292 -0.140943 6.48593e-20)
(1.00571 -0.0159406 0)
(1.04216 -0.0137725 0)
(0.481844 -0.0439688 8.02803e-21)
(0.246376 -0.0730842 0)
(1.14249 -0.189984 -4.48805e-20)
(1.11076 -0.0972389 2.22182e-20)
(0.992585 -0.0443112 -2.84078e-22)
(0.996354 0.00237337 -8.55152e-23)
(1.00803 -0.00997659 -5.67921e-21)
(0.828117 -0.139646 0)
(0.995848 0.0022565 1.27814e-22)
(1.03384 -0.0515916 -1.08486e-20)
(0.996652 0.00255809 -3.60395e-23)
(0.996501 -0.00245356 5.58876e-21)
(0.565205 -0.139464 0)
(1.07771 -0.163001 0)
(0.996448 -0.0230909 -1.76816e-21)
(0.995963 0.0023021 5.43971e-24)
(0.120575 -0.0542137 7.77361e-21)
(0.888457 -0.00353723 -1.48095e-21)
(0.995455 -0.00318679 0)
(0.991144 0.000157967 -1.39411e-21)
(0.995456 0.00117965 1.67356e-23)
(1.0254 -0.00133827 0)
(-0.027487 -0.0260377 0)
(0.787388 0.0116854 -7.51253e-22)
(0.774755 0.0110662 1.09633e-22)
(0.064497 -0.0279346 -1.81435e-20)
(0.752512 0.0013602 1.67817e-23)
(1.10987 -0.0922106 -3.84171e-20)
(0.0170062 -0.011606 -4.77581e-21)
(0.0433998 -0.0271972 2.99529e-20)
(0.997231 -0.00747135 8.20184e-22)
(1.09756 -0.101042 -3.68061e-20)
(0.997576 0.00294237 -3.58173e-23)
(0.995326 -0.000269254 0)
(1.03597 -0.0918215 1.02725e-20)
(0.470407 -0.108221 3.17835e-20)
(0.837004 -0.0100101 0)
(1.15257 -0.166683 -6.96574e-20)
(1.05879 -0.0843213 0)
(0.993906 -0.00104901 2.70297e-21)
(1.02525 -0.0808107 -5.57157e-21)
(0.998651 -0.00108123 9.82879e-22)
(0.828554 0.0326273 -1.22052e-21)
(1.10224 -0.156341 1.15974e-21)
(1.02529 -0.0100941 1.53046e-20)
(1.0004 -0.0435893 -6.98138e-22)
(0.992774 -0.000312017 2.51905e-21)
(1.08039 -0.0755294 -1.24004e-20)
(1.07238 -0.179509 3.82009e-20)
(1.04519 -0.0175202 0)
(1.00449 -0.013572 -2.60292e-21)
(1.01967 -0.0879121 8.61473e-21)
(1.03774 -0.0229958 1.68614e-20)
(1.07364 -0.157211 0)
(1.0193 -0.175199 1.28582e-20)
(1.08446 -0.180136 -6.20916e-21)
(1.02152 -0.0788911 0)
(1.14458 -0.191722 4.73915e-20)
(0.993754 -0.000995339 4.24532e-21)
(0.99183 -0.053112 -1.79412e-21)
(0.998428 -0.00451625 1.10501e-21)
(0.0325661 -0.0207614 -5.35586e-21)
(1.00981 -0.0286476 5.84081e-21)
(0.989671 0.000115666 -1.63541e-21)
(0.474187 -0.1247 0)
(1.01195 -0.0404228 9.52724e-21)
(0.162189 -0.021809 1.57919e-20)
(0.187452 -0.0659457 -1.2985e-21)
(-0.0156779 0.00841527 0)
(0.686494 -0.0695915 1.9704e-21)
(0.993264 -0.000433053 1.99581e-21)
(0.542594 -0.136496 4.32529e-20)
(0.996985 0.00635634 0)
(0.996132 -0.00268117 5.21526e-21)
(0.995744 0.000908255 0)
(0.996557 -0.0027528 0)
(0.995655 0.0086603 -5.32445e-24)
(1.00221 -0.0434206 -3.98207e-21)
(1.007 -0.0687231 0)
(0.995948 0.00216832 -2.48452e-22)
(0.606999 -0.127654 0)
(0.993235 -0.094842 0)
(0.564861 -0.120922 3.79994e-22)
(0.996596 -0.00540261 2.55968e-21)
(0.995892 0.000841045 -1.37367e-22)
(0.991851 0.000253601 2.88929e-22)
(1.05223 -0.176426 1.08404e-20)
(0.348238 -0.0899914 -1.24275e-20)
(1.13897 -0.130537 -5.60724e-21)
(1.07955 -0.0769797 -2.45361e-20)
(0.99675 0.00635424 0)
(0.990088 0.000148493 0)
(0.992197 -0.000271039 -8.49915e-22)
(0.997398 -0.00715503 3.47684e-21)
(0.926542 -0.186797 1.19613e-20)
(0.194656 -0.00591541 0)
(1.03682 -0.0222067 -5.62712e-21)
(0.996071 0.00220343 0)
(1.04349 -0.0104935 9.55102e-21)
(0.997521 -0.00725788 -2.62747e-21)
(0.971227 -0.148807 0)
(-0.0297646 -0.0239062 -2.29575e-20)
(1.0265 -0.0827719 -6.06716e-21)
(0.303331 -0.0619845 0)
(0.770456 -0.00163902 1.41023e-22)
(1.00445 -0.0129945 7.39876e-21)
(1.11676 -0.189773 -3.17196e-20)
(0.0427968 -0.0169813 -4.58494e-20)
(1.09827 -0.104727 2.12481e-21)
(0.449055 -0.0805652 1.0294e-20)
(1.04867 -0.0281924 1.09168e-20)
(1.00561 -0.0446927 0)
(1.1359 -0.129329 2.00684e-20)
(1.00402 -0.0429188 -2.3139e-21)
(0.807448 0.00371997 -7.21462e-22)
(1.02747 -0.0121614 -5.72361e-21)
(0.716368 -0.0116618 6.27243e-22)
(0.993985 0.000247756 1.02906e-22)
(1.12852 -0.0751787 6.81191e-20)
(0.0874103 -0.0355972 0)
(0.996236 -0.00102478 0)
(1.01069 -0.0358719 4.86932e-21)
(0.992367 -0.0428491 7.92914e-23)
(0.993724 -0.00151255 3.85959e-21)
(1.05277 -0.0690549 3.1876e-20)
(0.996089 -0.0139778 0)
(0.10351 0.0537474 1.18105e-21)
(1.09939 -0.154301 0)
(0.855048 -0.169375 0)
(1.00571 -0.0210561 0)
(0.996645 0.00239777 -3.16008e-23)
(0.996488 -0.00514573 -2.48215e-21)
(-0.104029 -0.0234288 -2.8787e-20)
(1.16559 -0.203079 4.19492e-20)
(0.998851 -0.0582064 -9.26442e-22)
(0.208568 -0.0705041 2.54285e-21)
(0.994349 -0.000210435 1.82731e-21)
(1.02321 -0.000308544 -1.84761e-20)
(0.995643 0.00106996 2.38471e-22)
(0.761596 0.00205893 2.3063e-23)
(0.72767 -0.162752 -9.18457e-20)
(1.02276 -0.0585207 0)
(1.00428 -0.0218298 0)
(0.978649 0.00138912 0)
(1.0736 -0.0590199 1.34347e-20)
(0.991912 0.00028851 0)
(0.0162078 0.0412596 1.80457e-20)
(0.981298 -0.0381072 0)
(0.186201 -0.0445643 1.81166e-20)
(0.99557 0.00226828 8.79696e-23)
(1.03723 -0.0212888 -1.04419e-20)
(0.0374151 -0.0127549 0)
(-0.0140549 -0.0519197 0)
(1.1677 -0.200333 -2.84863e-20)
(0.998421 -0.00112594 -3.29671e-21)
(0.444356 -0.121309 0)
(1.02631 -0.0130809 1.41984e-20)
(0.973941 -0.00548519 0)
(1.02696 -0.157356 0)
(1.03332 -0.13432 9.56318e-22)
(1.04031 -0.0639886 4.47585e-20)
(0.00479242 0.00592709 2.55814e-20)
(0.998737 -0.00383779 2.03346e-21)
(0.999465 -0.000485754 0)
(0.821566 -0.172785 0)
(0.98989 0.000148875 -8.5212e-22)
(0.99551 -0.000127157 0)
(1.02128 -0.0429388 -1.0269e-20)
(0.993664 -0.000896358 -3.01567e-21)
(0.0139135 0.037583 -1.66884e-20)
(1.0434 -0.0893157 2.0368e-20)
(1.10231 -0.183523 -9.8828e-20)
(0.996699 -0.023756 0)
(0.98537 0.00217463 0)
(0.994012 -0.00117572 2.89081e-21)
(0.98907 -0.0125482 4.31329e-22)
(0.991567 -0.000265508 -9.49272e-23)
(0.998785 -0.00367563 -5.38335e-22)
(0.995379 0.000774232 -1.25785e-22)
(1.00384 -0.0119542 0)
(0.999972 -0.00158684 0)
(0.253799 -0.0718169 2.18191e-21)
(0.997587 -0.00676147 0)
(0.995031 0.00152026 0)
(0.992685 -0.0017514 0)
(1.04354 -0.0143355 0)
(0.055654 -0.0187874 6.24589e-20)
(0.993519 0.000141565 2.37587e-22)
(0.998416 -0.00152782 0)
(1.1331 -0.153656 0)
(0.9423 -0.144349 -1.00723e-21)
(0.931597 0.00662744 -2.93082e-21)
(0.992506 -0.000286781 -3.04428e-21)
(0.995746 -0.0166515 -9.11896e-22)
(0.333173 -0.0716497 1.19887e-20)
(1.03837 -0.0333674 0)
(0.348791 -0.0958273 0)
(1.12559 -0.0746571 -4.97586e-20)
(0.993444 -0.000749564 -2.89038e-21)
(1.00182 -4.00598e-05 1.80894e-21)
(0.0112529 0.0531854 0)
(0.995465 -0.0172621 7.97301e-22)
(1.03354 -0.0659746 -1.88391e-20)
(0.993078 -0.000445095 0)
(0.996068 0.00206123 0)
(0.860525 -0.0210996 -1.78944e-22)
(1.02814 -0.136485 1.33368e-20)
(0.998728 -0.0783867 0)
(1.02101 -0.0609862 -5.78283e-21)
(1.00194 -0.000189049 0)
(1.02314 -0.00134506 0)
(0.99842 -0.00138207 -1.09896e-21)
(1.16892 -0.163129 0)
(0.855199 -0.0171091 1.2278e-22)
(1.06697 -0.158822 5.39743e-21)
(0.86919 -0.0106052 0)
(1.03631 -0.0204652 8.97905e-21)
(1.068 -0.155444 -2.76467e-20)
(1.11866 -0.166118 -3.84145e-21)
(0.22501 -0.0846246 0)
(1.02141 -0.0571459 0)
(0.17017 -0.0368603 1.22847e-21)
(0.916719 -0.180658 7.83911e-21)
(1.0447 -0.0138385 0)
(0.107325 -0.010904 2.54257e-20)
(0.992653 -0.0530048 5.90002e-23)
(0.39636 -0.0926423 2.48911e-21)
(0.131818 0.0551408 -1.12816e-20)
(0.305808 -0.0740085 2.35324e-20)
(0.994778 -0.0293123 8.29373e-22)
(1.03157 -0.0988962 -2.87308e-22)
(0.99352 -0.000837365 2.73506e-21)
(1.00075 -0.0399818 -3.23663e-21)
(-0.0475505 -0.0224684 -3.0167e-20)
(0.0743313 -0.000491974 0)
(0.996972 -0.00645218 -4.40455e-21)
(0.990689 9.42528e-05 0)
(1.11868 -0.15091 -3.5571e-20)
(0.920216 0.0136454 2.94691e-22)
(0.995135 0.00184473 -2.014e-22)
(-0.0189004 -0.0297639 2.54748e-20)
(0.994134 -0.000186261 0)
(1.02196 -0.0189288 2.14458e-20)
(0.00169959 0.039379 -2.09906e-20)
(0.046983 -0.0136843 -5.85714e-20)
(1.00484 -0.0196668 0)
(0.99603 -0.00274404 -1.15193e-20)
(1.02736 -0.00346727 -4.69428e-21)
(-0.0173957 -0.0455363 -1.5329e-20)
(0.959959 -0.192258 0)
(1.14688 -0.186723 7.93159e-20)
(0.997381 -0.00868434 2.38712e-21)
(0.280366 -0.0590684 0)
(1.02073 -0.164514 0)
(0.400725 -0.0981771 0)
(1.10273 -0.13725 2.69386e-20)
(1.11185 -0.113548 -3.1528e-20)
(1.03119 -0.0335568 -5.45778e-21)
(1.04251 -0.0159397 3.02361e-20)
(0.525841 -0.00123651 0)
(1.14912 -0.120249 4.83764e-20)
(-0.0907475 -0.00714151 3.8216e-20)
(0.997806 -0.00516185 0)
(1.10518 -0.0976353 -3.29307e-20)
(0.0245723 0.0300809 5.27381e-20)
(0.367932 -0.0852983 5.5119e-21)
(0.0931799 -0.0237358 2.57258e-20)
(1.03195 -0.0138944 0)
(1.1106 -0.0858357 -3.89533e-20)
(0.99527 -0.00299215 2.35948e-21)
(1.0228 -0.0809338 5.30424e-21)
(1.01005 -0.0349311 0)
(0.358128 -0.0651403 9.78014e-22)
(1.01444 -0.000376113 -1.26113e-20)
(0.0284364 -0.0380438 -1.51593e-20)
(0.995031 0.00174227 2.17059e-22)
(1.1308 -0.151881 0)
(1.00676 -0.0119324 0)
(1.02346 -0.159312 7.37366e-21)
(1.11164 -0.0943421 -7.19923e-20)
(1.10735 -0.0855926 3.71058e-20)
(0.301064 -0.0621153 0)
(1.12327 -0.116553 -3.06201e-20)
(1.00365 -0.0698199 7.16096e-22)
(0.989965 -4.9777e-05 -1.22968e-21)
(1.12708 -0.15224 7.86821e-20)
(0.841202 -0.0184034 -6.16988e-22)
(0.993026 -0.0482533 0)
(1.03112 -0.0514636 0)
(0.0403101 -0.0113182 3.69027e-20)
(0.995331 0.0013708 0)
(0.234098 0.0658331 1.89067e-20)
(0.961263 -0.0230069 1.97086e-21)
(1.02684 -0.027943 0)
(0.265835 -0.0857611 -5.74781e-21)
(-0.039308 -0.0256593 3.54102e-20)
(0.0697446 -0.0222512 -4.38896e-22)
(0.991881 -0.0277016 3.04221e-22)
(0.998042 -0.00495753 0)
(0.997362 -0.00743028 -5.38487e-21)
(0.178599 -0.0401773 -3.64301e-20)
(1.02073 -0.000623731 1.37825e-20)
(0.674261 -0.00650784 1.03102e-21)
(0.0544094 -0.0334285 0)
(0.996904 -0.00576422 2.47177e-21)
(1.07552 -0.0358016 0)
(1.01019 -0.178299 0)
(0.857806 -0.0057979 1.38406e-21)
(0.126621 -0.0138528 -3.55133e-22)
(1.03154 -0.0233586 0)
(0.991285 0.000131222 9.09912e-22)
(0.472135 -0.00570498 -1.65544e-21)
(0.0737121 -0.0339424 -4.64962e-20)
(1.09582 -0.182008 1.90152e-20)
(1.03358 -0.0638737 6.41217e-21)
(0.997498 -0.00889877 8.6709e-22)
(0.965384 -0.0298956 0)
(-0.0165131 0.0264227 -5.28966e-20)
(1.11636 -0.16817 1.37163e-20)
(0.994972 0.00154997 6.9783e-23)
(1.0324 -0.101431 -2.39944e-21)
(0.993897 -0.00162284 0)
(0.994499 -0.000409764 7.6654e-21)
(1.00532 -0.00817938 4.61147e-23)
(0.99033 0.000128363 0)
(0.834565 -0.143684 -2.2751e-21)
(0.9883 -0.000349548 -1.52974e-22)
(1.02155 -0.0195511 -2.83606e-20)
(0.998384 -0.0020585 -5.90938e-22)
(0.997401 -0.00753721 8.26587e-21)
(1.02254 -0.0438805 -3.59595e-21)
(-0.0358926 -0.00723439 0)
(0.246127 -0.0444004 -2.06021e-20)
(1.07247 -0.088121 -1.90442e-20)
(0.167642 -0.041255 -1.51369e-21)
(1.00708 -0.0116592 0)
(1.06755 -0.0880008 0)
(0.997175 -0.00697383 -3.97307e-21)
(0.994058 -0.00175989 0)
(1.01798 -0.0258602 -5.00761e-21)
(1.02053 -0.0191871 2.60476e-20)
(0.00396728 -0.0183917 0)
(1.02813 -0.0135997 -1.35836e-20)
(1.13215 -0.130233 0)
(1.03188 -0.0147401 0)
(1.03516 -0.0673022 1.26963e-20)
(1.00835 -0.0082861 5.08708e-23)
(-0.0115156 -0.0603508 0)
(0.993309 -0.000471803 1.4087e-23)
(0.496547 -0.051339 0)
(0.997341 -0.0800406 -5.41858e-22)
(0.847207 -0.174343 -2.30273e-21)
(1.04479 -0.0913576 0)
(1.05678 -0.096066 0)
(-0.0944473 -0.00197185 2.99753e-20)
(1.08265 -0.074899 5.82133e-20)
(1.00119 -0.0581409 0)
(0.371661 -0.0674938 -4.52419e-21)
(0.881152 -0.00889695 -9.57087e-22)
(-0.0182325 0.0169895 0)
(1.06033 -0.112429 0)
(0.935188 -0.048339 0)
(1.00984 -0.0275207 3.49667e-21)
(1.12163 -0.113249 0)
(1.10238 -0.133302 -2.67187e-20)
(0.126069 -0.0208478 0)
(0.991788 -0.000168439 0)
(0.0648662 0.0324743 -6.10145e-21)
(0.996288 -0.00486579 0)
(0.996797 -0.00570669 -5.31415e-21)