/*--------------------------------*- C++ -*----------------------------------*\
| =========                 |                                                 |
| \\      /  F ield         | OpenFOAM: The Open Source CFD Toolbox           |
|  \\    /   O peration     | Version:  v2012                                 |
|   \\  /    A nd           | Website:  www.openfoam.com                      |
|    \\/     M anipulation  |                                                 |
\*---------------------------------------------------------------------------*/
FoamFile
{
    version     2.0;
    format      ascii;
    class       volScalarField;
    location    "900";
    object      omega_0;
}
// * * * * * * * * * * * * * * * * * * * * * * * * * * * * * * * * * * * * * //

dimensions      [0 0 -1 0 0 0 0];


internalField   nonuniform List<scalar> 
13917
(
5.01567
0.0529027
2.33688
0.0238112
0.033485
0.0519262
0.0351903
0.0913167
0.0320536
5.78742
0.0891412
0.022632
0.0260083
1.45984
0.0345901
6.65308
0.0218283
0.0811729
0.188378
6.30545
0.0471819
0.0225602
0.0709341
0.0225608
0.0265568
0.0503806
1.73162
7.47635
0.0638614
0.0198884
6.06713
0.110228
0.0239297
3.0368
0.0216377
0.101836
0.0280638
0.0234934
0.0351863
0.0561029
0.0224397
0.021468
0.0282883
0.178272
0.178073
0.609221
0.0443127
3.03527
0.681585
0.021666
0.0225573
0.165556
10.8753
0.0225272
0.0227011
0.168022
6.58791
0.0710953
0.0213509
0.509424
2.38173
0.0284538
0.0208718
0.0260911
3.36372
0.0174646
0.0684537
0.0998569
0.0863435
5.3785
3.39394
3.18659
0.0223673
0.0212009
0.0489563
0.0276694
0.0274731
0.0211091
0.0271278
0.024131
0.0238164
0.0219923
0.02231
3.53805
0.0212255
0.139019
0.104705
0.0218609
0.0552513
0.0217148
0.0206485
0.0287035
0.828863
0.0212135
0.0238199
0.0682858
0.56008
0.0222031
0.0217258
0.145702
0.0213104
0.0212234
0.0239392
0.0214466
0.0273026
3.79322
3.07885
0.0284373
0.0216674
1.98334
0.0216181
2.98888
0.0638191
2.75927
3.39144
0.0286491
0.171118
0.0206987
0.558173
0.0220567
0.0217625
0.0209398
0.0732879
0.145134
5.08458
3.55523
0.0256662
0.0517861
0.0213812
0.146837
0.0484636
0.179317
3.33124
0.0285384
0.129433
2.00706
2.33101
5.42072
0.053782
0.023479
0.880352
0.0210161
3.80414
0.0214686
0.0221784
0.0229497
3.40362
0.639396
3.22129
0.022611
0.0505933
0.0210119
0.0220987
0.0220724
1.32678
0.0236866
0.0213833
3.25385
0.0215573
0.0209075
0.0212736
3.04064
0.0321105
0.874269
2.6225
0.163135
24.5626
2.60127
0.0195914
0.0570069
0.0228072
3.29455
0.0319469
2.45565
0.103987
0.0213217
0.0238164
0.192917
0.0467484
0.0332494
0.0280371
0.0226273
0.0225526
0.366474
0.559541
0.166726
0.0224944
0.276332
0.0198976
0.114364
0.103724
0.162942
0.219885
5.21923
0.0212279
4.87201
0.0327442
3.43156
0.0215667
0.0233006
0.040632
5.39976
6.83114
0.0271031
1.68214
0.0487091
0.0515273
0.0210211
0.187948
0.0238053
0.0209917
0.0405501
0.0431206
3.17627
0.12493
0.0530955
3.05819
0.0228116
0.0203051
0.0202936
2.65355
0.207601
0.891411
0.0214179
0.0210212
2.03508
5.70412
0.0202655
0.0202575
0.0223752
0.0203071
0.0202987
3.34079
3.02088
0.0229626
0.0195867
0.114191
3.39023
0.021567
0.0214127
1.85785
3.84275
0.177437
3.0389
0.136909
0.0214815
2.59709
0.118348
0.0603066
0.121377
0.0265369
3.13953
0.022114
0.0623172
0.0949558
0.0231836
0.0224391
0.026049
0.0306018
0.0216037
3.66361
1.34374
0.0209931
0.020261
0.0239496
0.0202681
0.0221214
0.0260311
0.0558268
0.0210824
4.36855
2.97149
0.021997
0.0279019
1.37394
0.0201554
0.11941
3.30326
0.0201666
4.18218
0.0214843
3.04984
0.0214544
0.0315673
0.0233321
0.0214197
0.228932
0.0226932
0.157444
0.0379679
1.31642
0.0232644
0.758137
5.78334
0.0209683
0.0803868
0.0315095
0.0292848
0.0325913
0.0270597
0.0212831
0.0223992
0.184273
0.0393575
0.0602367
0.0266313
0.0213967
3.31288
6.98172
0.0212582
0.0219563
0.0293797
0.0737114
0.239269
2.95709
2.51072
0.0259085
0.18485
0.0273264
3.48821
0.073464
2.05363
0.0258279
0.0339271
1.54359
0.0232488
0.0564907
0.161265
0.0218434
3.3169
0.0212827
0.0650502
0.0202386
9.41
0.0208572
0.0567295
0.0499278
0.0296038
0.0214133
0.122183
3.72872
0.023587
0.0232309
2.94727
3.76243
2.87546
1.32275
0.0201529
0.0228976
3.87436
0.184968
0.0201685
0.0325398
0.022522
0.0753021
0.0586258
0.171165
0.128665
0.119865
0.0642501
3.27702
0.0214419
0.0236044
0.0352075
0.323958
0.0218423
6.3355
0.0638079
0.29792
0.0228094
0.159389
0.0220317
0.645488
0.0214007
0.922717
1.27213
0.0537069
0.0220704
3.08738
0.0203344
2.58513
0.212045
0.0213951
0.562234
0.0240669
0.0755866
0.0207442
5.23599
0.0956858
0.027009
2.06041
0.107023
0.0257099
2.78731
3.14768
0.026103
0.231258
0.0227035
0.108184
1.7643
0.0213147
0.0338237
0.0266002
0.0213851
0.0210142
0.0215252
2.2909
0.163138
0.0231734
0.0216089
0.0222435
0.0777263
0.112696
0.0201582
0.0196054
0.227534
0.157013
0.0214681
0.0266985
2.6642
1.81331
0.0455405
0.203271
3.43314
0.0205639
0.0201449
0.0419087
0.0209991
0.0201729
0.0231259
0.0201611
0.0205265
2.69735
0.0228098
0.0610257
3.92205
0.0795119
0.0210178
0.0220594
2.83885
0.0406238
6.40404
0.0202036
0.0214771
0.0203874
0.0203096
0.0277851
0.0244283
2.66129
0.023347
3.83236
0.0214731
0.0536173
0.0237907
0.0236315
0.135379
2.84542
0.0224341
1.84578
0.0210643
0.021482
0.0221453
0.0241137
0.0209313
0.0226162
3.27465
2.42496
0.020907
0.90196
0.219972
0.0221632
0.0865496
0.122908
2.7451
0.0356094
3.78925
0.288691
0.289276
0.0244793
0.0164339
0.0242822
0.0262051
2.88379
0.020778
0.0223953
0.0238375
0.0329192
0.0462633
0.279299
0.0850025
0.0230084
0.0291143
0.0797504
0.0785002
0.0231792
1.53899
0.0548878
0.0380473
2.55349
0.0212326
0.081751
0.203934
0.0209006
3.07694
0.0215963
0.0203044
0.0798935
0.0202168
0.0226956
0.179639
3.23643
1.95898
0.0212585
0.0243356
0.0227158
2.72649
2.34631
0.0229171
0.0226231
0.021223
0.0881905
0.547598
0.0214583
0.0216051
0.0231209
0.0213459
0.0271951
0.0386736
0.0209715
0.0858009
0.020903
0.0223338
0.0262277
2.98362
0.0204094
0.0276797
0.0216128
0.0513913
0.102967
0.0776836
0.0988435
0.159553
0.0256472
0.0738629
3.49167
2.73523
3.4713
0.0211492
0.0220492
0.0233165
0.0217196
3.40951
0.0201712
0.806058
0.0327391
3.58555
0.126787
0.0282571
2.65577
0.0208951
0.103537
0.0221008
0.0224691
3.52992
0.0201776
2.07523
0.0210961
0.023624
0.0221409
0.221833
0.0274241
0.0202539
0.18142
0.0851521
0.675528
3.38145
3.3729
2.70228
0.0204171
5.11189
0.0203715
2.36423
0.665464
0.022884
0.0222715
0.0211924
0.0536995
0.0273622
0.0201928
0.0221224
0.0254812
3.30797
0.0213374
0.0978226
0.0223219
0.0202436
0.0212721
0.194015
3.10522
3.89625
0.113429
0.0384814
2.76778
3.26756
0.0207733
2.91341
0.0251699
0.174382
0.0217188
3.05445
0.0213118
0.0276816
0.0222277
0.673368
0.0564262
3.28431
0.0210369
0.0530945
0.0216701
0.0215531
3.14857
0.160697
0.0219048
0.189747
0.0213976
0.0220984
0.0211944
2.99914
0.0213388
0.0314133
0.0201611
0.0217723
0.322359
0.021104
0.177976
0.0221651
0.0208756
2.34993
0.101363
0.0227854
16.4101
1.86429
0.0978058
0.205231
0.0208733
0.0362348
3.13315
3.13521
0.0396735
0.0281174
0.028211
0.0219054
0.0215262
0.100726
0.110522
0.0306724
2.51461
0.0572336
0.114364
2.46275
0.0401325
0.0539418
0.220094
3.83105
0.0212981
0.0341995
0.137518
0.020888
0.0211632
0.0212226
0.0231704
0.0229079
4.9597
0.0528892
0.0212316
0.148467
0.0209689
2.91532
0.0214735
0.0213763
3.16411
0.0972092
0.336836
0.0225634
0.0205901
0.0213158
0.0234647
0.0386817
0.021404
5.77814
0.0423004
0.605786
0.319597
0.0340059
3.38381
0.0243495
0.0219609
0.0217544
3.17329
2.02787
0.0336414
5.30292
0.781391
0.0208709
0.0213108
0.0277781
3.75571
0.340804
0.0567376
0.0233842
0.0276748
0.179606
0.0264019
0.171712
0.0530813
0.0236683
0.0242066
0.0220498
0.0385053
0.0290958
3.36906
0.0301087
0.0236774
5.70842
0.0208539
0.784288
0.0274171
0.0445699
0.0323865
2.83775
0.0216826
0.0962188
3.11229
0.222353
0.0217573
0.0301719
0.023284
0.0215368
0.0221598
0.0396192
0.0236955
0.190811
0.177292
0.0208394
3.51739
0.0319343
0.0330398
0.197841
0.0230928
0.103629
0.333313
0.0202877
0.0974635
0.119026
0.0525623
0.0212319
0.0209681
0.0215082
6.49066
0.0238305
0.0216345
0.0641147
0.0214499
0.0210848
0.160162
0.152313
0.046834
1.86536
0.0699836
3.90449
0.0221645
0.0282524
2.76323
0.0228723
0.0310528
0.0215726
0.0211512
0.0225153
0.0310936
0.0809302
0.0212249
0.0226695
0.0227653
0.67078
0.0275336
0.0355303
0.0202473
0.122018
0.0321959
2.97156
0.0487716
0.0219477
2.99181
0.0244385
3.88713
0.0268159
0.0630423
0.0256977
0.0210484
0.021714
3.30784
0.0382737
0.105192
1.81054
0.0215177
0.0530114
0.0195791
0.0259207
0.525628
0.0195922
2.63677
0.027881
0.0638323
0.167484
0.0694475
0.0204045
0.0212383
0.138461
0.0208608
0.0224421
0.0256247
0.0219537
0.0643197
0.0203908
0.11775
0.0236572
5.3184
4.00122
0.0773143
3.86203
1.88887
6.77164
0.0719018
0.0207998
0.0219537
0.0220346
0.0244576
0.0212366
0.0385009
0.0214555
0.110924
0.0225247
3.29741
0.0235963
0.0446697
0.122803
0.0211912
0.0604959
0.0244344
0.0227367
0.03319
0.0203274
3.42058
0.117814
0.0187134
0.0212519
0.0216416
0.0229488
0.0229356
2.59365
0.0208264
0.160712
0.0212792
0.300056
0.0307801
0.0214687
0.100051
0.0288183
0.0208412
0.308911
2.92296
0.0278552
0.122397
0.0208345
0.147661
0.020508
0.0229398
3.65405
0.0215053
0.0240225
0.146762
3.92885
0.0206164
0.0780548
2.90546
0.0215296
0.0250585
0.0220461
3.37061
0.021599
0.197111
0.0223688
3.10244
0.0315963
2.44956
0.0216143
0.0199999
0.163041
0.023396
0.0207237
3.59218
0.0254496
0.0210119
0.11184
0.0215202
0.0219472
0.110037
0.0258674
3.37925
0.0573104
0.122101
0.204282
0.0274885
3.09532
0.0241519
0.103329
0.0215356
3.70793
0.304519
0.0226853
0.0205177
0.0221697
0.0229279
0.0204211
0.0206464
0.0210718
0.0216785
0.0398135
0.0202883
0.0250209
0.116676
2.66416
2.9566
0.13465
0.0229736
0.174325
0.021367
2.65951
0.564038
26.6124
0.0202547
0.0208118
0.021977
0.0223148
0.020236
0.020395
0.0214339
0.0560932
0.0210214
5.36016
0.0984733
0.0210828
3.37737
0.0215547
0.0215426
0.02775
2.96246
0.0847725
0.0211003
0.346494
0.021425
0.0215386
3.56996
0.0220902
1.29019
0.0242455
0.0755836
0.0210306
0.0210091
0.0412023
0.0684857
0.0254111
3.0797
0.0301861
0.0230528
0.0255735
0.0216576
0.0209416
0.151393
0.0509401
0.0302849
3.04651
4.80119
0.0640349
0.162433
0.0210021
3.18542
0.0209436
2.528
0.0928789
0.0339773
0.0249687
2.42906
1.89742
3.72529
0.0209372
0.674476
0.020424
0.0214593
0.0534428
0.0235189
0.0223167
0.285202
4.23143
0.0210073
0.0362692
3.43834
0.0210748
0.0201847
0.819168
2.89851
0.0241501
0.0204869
0.0340862
0.0220201
0.0214611
0.03956
0.0308386
0.0219671
0.604067
0.0209761
0.0245714
0.497385
0.0291455
3.54368
0.0226243
0.0234831
0.0221666
4.02366
0.0457718
0.0223691
0.0431111
0.0230291
0.0243298
0.0206277
2.92663
0.0242686
0.0235469
0.0821932
0.0214136
0.225437
0.118531
0.194852
0.0950158
1.88452
0.346884
2.70132
3.0531
0.023486
1.60011
0.0201941
0.0860963
0.114919
0.556931
0.0297812
0.0224819
0.0316211
0.114008
0.0257045
2.70479
0.0514753
0.123653
2.61316
0.0211469
0.171403
0.0265811
0.0224044
0.0282722
0.0249724
0.0200785
0.020775
0.0250217
3.77133
0.021015
0.0254519
0.0273624
0.0241563
0.0221226
0.124567
0.113117
0.0235566
0.0211939
0.107213
0.021801
0.0477511
3.15301
0.0227457
0.0215842
1.96189
0.0216434
0.0259539
3.0922
3.41164
0.0345635
0.0856495
0.032632
7.16787
0.159454
0.0440453
3.34563
0.0213894
0.118375
2.68163
0.725195
0.593336
0.494197
0.0204987
0.0222451
0.0255252
0.0221796
0.0224388
3.42736
0.0214854
0.0678018
0.0205089
0.0900528
2.81369
0.0258977
2.75249
1.85119
0.0216034
0.123645
0.0316006
0.0252126
0.0215558
3.27594
0.111371
3.73058
0.0351673
2.47653
0.120299
0.0205626
0.0769431
0.0520329
0.0217298
0.0215039
0.322374
0.02156
0.0311289
0.0499392
0.0303787
0.0230964
0.086205
2.404
0.0212928
0.185898
0.0769985
0.0224377
0.0213335
0.0229097
3.76727
2.54645
0.0209572
0.0425928
0.0224612
0.0703362
7.11005
0.0221992
0.0210226
0.0204928
0.0216601
0.0245197
0.0274527
3.76834
0.0231139
0.0290073
0.0248238
0.0223712
0.133363
2.9219
2.45554
0.0226218
0.0216209
0.0209658
0.0248117
0.113075
3.52644
0.0178924
0.126412
0.0396859
0.0774855
0.0271548
0.0256185
0.0304987
0.177042
0.021239
0.136744
0.0248722
0.0208308
0.022452
2.97572
0.0735509
0.0250816
2.62741
0.171321
0.0213198
0.991681
0.0236292
0.0213068
2.91844
0.618301
0.0212536
0.0345042
0.16357
0.0467089
0.0238912
0.0203726
0.0213587
0.0209804
0.0215083
0.040486
0.0729983
4.45455
0.0477965
0.0321818
0.0455148
0.116605
0.0211407
0.0463376
0.617149
2.71856
2.97573
0.0251411
0.0203517
3.55854
0.02115
0.0307598
0.0254472
0.061052
0.0230126
0.0212065
3.22818
0.0332151
0.0248991
0.0216207
2.30941
3.09223
3.31356
0.0225296
0.0221909
0.454748
0.020882
0.0205912
0.149113
0.605642
0.0338283
0.0488739
0.0237038
3.68435
0.0213418
0.0273107
0.0230992
0.0203372
2.40578
0.0213512
0.0209551
0.337311
0.0918262
2.3477
1.76088
0.0212649
0.0420892
0.0210947
0.0212584
0.0256386
0.0231224
0.022347
1.47574
0.0221816
0.107025
0.0277163
0.023632
0.0220581
0.021279
0.0214445
3.3009
0.0200897
0.111531
0.110636
0.0235172
0.0811868
0.0488395
0.0429633
0.0221212
0.026365
0.0210592
0.0208224
0.266952
0.0473866
0.0243376
0.021339
0.0215081
0.0206525
0.083358
0.0214133
3.00558
0.0689709
0.0210808
0.0213696
0.0206471
0.0682964
0.0273341
1.90915
0.0314559
0.223669
0.0235745
0.131825
0.0268974
3.10686
0.0205009
0.0200632
0.0300119
0.12987
0.0206798
2.949
0.0223172
0.0214596
0.153045
0.375564
7.27747
0.0172664
0.0319403
0.177716
0.0274376
0.0206033
3.11551
0.0215644
0.0212946
2.15538
0.0205676
2.97443
0.0279521
0.0212493
0.0217151
0.0206404
3.45409
0.0214643
0.0203678
0.118599
0.0212759
0.0210512
0.020689
0.0205902
0.0700227
0.0224035
0.0264223
0.0207526
0.866394
0.0523252
0.0207751
0.0207848
0.0240285
0.0213555
0.0278775
0.0226877
0.0213673
0.0224588
0.0216386
0.0244386
0.0219851
0.0770521
0.0206378
0.122215
0.0223852
0.0604431
0.0209127
0.0222905
0.0214088
0.0201332
0.0507321
0.0308309
0.0308663
2.35541
0.022665
3.19344
2.93104
0.123926
3.89034
0.0223108
0.0219178
0.386704
2.54949
0.0207143
3.34893
0.0207533
0.202028
0.765417
0.0275553
0.124258
1.61731
2.03088
0.0212725
0.0733194
0.0211081
0.0319704
0.0288178
3.099
5.02257
0.0225427
0.0500738
0.205678
0.0219227
2.63153
0.235291
0.0260476
0.0210294
0.19726
3.27562
0.0205992
0.0462483
0.0230046
0.153342
0.179798
0.0222117
0.0209497
3.58095
0.0211972
0.021606
0.0234896
0.0207946
2.45189
0.034881
0.038316
3.10195
0.0215102
0.0757844
0.0223095
0.183432
0.0812194
0.0323741
0.0208713
0.0364865
0.0207308
0.021666
0.0276111
0.0220571
2.81934
0.0248107
0.0208467
0.0213054
0.249143
0.0210129
0.544111
2.68301
0.647746
0.0220928
0.0210412
0.0213673
0.085868
0.022785
3.81266
0.0213447
0.50427
0.0256881
0.022735
3.03842
0.0223574
0.0217226
3.36375
0.167476
2.94597
0.0219618
3.6168
1.75128
0.0222296
3.12672
0.0225416
0.029581
2.52479
0.0263443
0.0541589
3.7357
0.0383186
0.104924
0.0220009
3.63273
0.021601
0.550793
0.0213565
4.19334
0.0216277
0.0216906
0.0253067
0.67771
0.0210889
0.0225555
0.0887604
1.57858
0.021462
0.0377678
3.4116
0.102112
1.65284
0.112358
0.0209048
0.16104
0.363998
0.0275297
2.78961
0.0200231
0.214832
5.58371
0.0211409
6.90396
0.0213735
3.65755
2.11453
0.0274579
0.0261724
0.556216
0.801132
0.0215837
0.0252504
0.0208128
0.0222756
3.53874
0.0938991
3.25418
0.0222635
0.0354035
3.00022
0.0258268
0.0773196
3.72018
0.0212227
0.0215103
0.764799
2.61694
2.32697
0.768559
1.58243
0.0537698
0.0560659
3.45244
2.66967
0.5871
0.0210299
0.118158
0.0670959
0.101143
0.0218877
0.0330707
0.0861682
0.142633
0.712608
0.0216601
0.139221
3.10404
0.0572113
0.021545
0.0215641
0.099043
0.0210799
3.28229
0.0366763
0.021072
0.179556
0.0254995
0.0207594
0.0525463
0.0409088
0.0219402
3.5604
0.0239026
3.44451
0.021067
3.02029
2.9768
0.781392
0.0201258
0.0329386
0.0392948
0.146171
0.147326
0.107683
3.52888
0.144195
0.0196094
0.0316774
0.0223888
0.184944
6.04565
0.0206075
0.020731
0.0249704
0.962066
0.145822
0.0211427
0.0711481
0.178429
0.0210109
0.0248899
0.0274576
3.45999
0.0321926
0.0449967
3.85096
0.037956
0.0284071
2.83523
0.0213255
0.0605212
3.08544
0.0256094
0.104662
0.0452063
0.0908048
2.61689
3.59551
0.0219628
1.16916
0.150085
0.0205786
0.233989
0.100608
0.139833
2.79251
0.220491
0.764729
0.149603
2.89476
0.0339102
0.107379
0.0204916
0.0224557
0.0220823
0.0210355
3.11895
0.137606
0.0200852
0.0578585
0.287239
0.0213001
0.600364
3.31256
0.0199063
0.0226887
0.0206337
0.0244931
0.0692537
0.0215996
2.51415
0.0406507
0.103904
0.0308616
0.0984641
0.0541923
0.0419004
0.1185
0.0219445
0.0247336
0.0200511
0.0210179
3.47945
0.158598
0.0369412
2.42256
0.0223883
0.0233542
0.041497
0.020792
0.021066
0.0994676
0.0310875
3.30489
2.31679
2.41878
0.0220056
2.29321
0.0214628
3.34338
0.0207351
0.225299
2.45384
0.0216895
0.711285
3.49129
0.0431515
0.0228829
0.0208067
0.0353794
2.8431
0.0207631
0.0226325
0.022523
0.0235959
0.890365
0.023537
0.0316632
0.0211941
0.022365
2.85222
0.0492222
0.0266082
0.186182
0.0933271
3.18501
1.09438
0.0236504
0.0242323
3.1699
0.0219519
0.101975
0.0221214
3.57894
0.022681
0.0228421
0.0362574
3.01156
0.0214983
0.0208631
0.0204815
0.251416
5.68384
0.155027
0.021577
0.0269021
0.0210248
3.16753
0.0210804
3.23646
0.0900861
0.0223952
0.31732
0.0431175
0.0767553
0.0232122
0.0205871
0.0407344
0.0541842
0.148935
0.0224638
0.0231637
0.0224974
2.93267
0.0218287
0.0229625
3.58048
0.0256829
0.0252359
0.0294866
0.0213165
0.0213803
0.65136
0.0266492
1.63769
0.256462
0.0199173
1.06714
0.0230082
0.147363
0.0706146
0.0233009
0.0201623
0.0198923
0.021587
1.00909
0.0743191
3.35833
2.85368
0.0210857
0.0232187
0.0538113
3.28584
0.0216476
0.0345468
3.57455
3.57393
0.0213432
0.0256382
0.0232822
0.0715075
3.45935
0.020983
0.0216529
0.0426847
2.55509
0.022312
0.0258396
0.025346
0.19978
2.95841
0.0205261
2.87817
0.034906
0.0215279
2.87064
0.089307
1.44614
0.981463
0.0428287
0.0301755
0.0230582
0.0326672
0.0235173
0.0771365
0.0643741
0.0213779
0.0290415
2.84717
2.3914
0.0207441
0.14338
2.31056
1.52573
0.0215045
0.0220744
0.263789
3.48376
0.0847618
0.0214396
2.21412
0.107874
0.01996
4.37187
0.0346412
0.0225994
0.379081
0.0219446
0.0308471
0.0209948
0.0198237
0.0221952
0.0204755
3.36538
0.0200972
0.0212866
0.117631
0.0305558
0.028221
0.224393
0.0221464
0.0215901
0.0254023
0.0242762
0.232509
0.222682
3.21066
1.14306
0.0424654
0.555614
0.0453281
2.99784
2.33989
3.28856
0.0210185
0.0382993
0.0216763
0.0222268
0.0210721
0.0222763
1.13066
0.0938603
0.0520014
0.0212662
0.021514
0.0886319
0.0226263
0.0230367
0.0221723
3.14098
0.0422613
7.10003
0.0219616
0.266015
0.0232936
0.0226837
0.0234749
0.0660831
0.0212402
0.125681
2.97482
0.0572675
3.61852
0.651737
0.0232665
0.0354135
0.202085
0.151312
0.0202012
0.0210117
0.0199072
2.88946
0.0197987
0.0812883
0.0444073
0.114575
0.711564
0.376355
0.102158
3.5527
0.0205931
0.020476
0.0250893
3.72411
0.0218248
0.0219995
0.358745
0.0210442
0.189126
0.0235351
0.0210065
0.0304701
0.0219059
0.106665
2.95847
3.19442
0.0297864
0.021586
0.103815
0.0246698
0.109126
0.0210139
0.237527
0.14956
0.0230374
0.0224887
0.0199584
0.152845
0.0519143
1.13307
2.59136
0.0395203
3.53261
0.118416
0.186623
3.60841
0.0214922
2.84628
0.0241508
3.173
3.16673
2.82049
3.49562
0.02206
0.0795718
0.0249279
0.0219823
3.84796
0.0220791
0.0219429
0.0326676
0.0234859
0.0431903
3.5253
3.57531
2.47737
0.0320307
0.0553094
0.0246252
0.0225976
0.0222286
0.17184
0.136791
2.50164
0.0649134
0.020123
0.0208268
0.0232811
2.94273
0.0276992
0.0239126
0.0301301
0.108827
0.0451936
0.0555875
0.0458297
2.8847
0.0387869
0.0474995
0.0216482
0.0328532
0.834508
0.035234
0.0630495
0.0207826
2.85356
0.0466787
0.0213916
0.0732037
2.94233
0.0429396
0.0444327
0.0210596
2.65664
0.0231652
0.0210206
0.0201557
2.23982
2.9528
0.023238
2.67197
3.37191
0.0255067
0.0458844
0.0871787
3.4057
0.0412495
3.4622
0.0232416
0.0347506
0.023322
3.63748
0.048231
0.0209129
2.99868
0.0219271
0.02412
1.7663
3.77851
0.0726675
1.17198
0.0291498
0.0248982
3.26141
0.0213967
0.0212959
0.0219397
0.0674758
0.0216196
0.0392926
0.0255806
0.029635
3.44808
0.0236835
3.80479
0.0255363
2.95691
3.45309
0.0219251
0.0225169
0.0316033
0.154371
1.11412
0.0997365
2.94193
2.7853
0.139485
0.0230439
3.72757
3.35366
0.0494454
3.15596
0.0223539
0.021774
0.0219254
0.0242966
0.0214031
0.048319
3.20484
0.0382475
0.254911
2.98056
3.81238
2.44983
3.23438
0.0338041
3.49974
0.156821
0.118489
0.0207107
0.0220818
0.107646
3.93085
0.0239543
3.03106
3.10285
0.0210787
0.0221233
0.0217852
0.114704
0.0233801
0.108481
2.87057
0.0207133
0.0214545
0.021044
0.0239162
0.161393
3.02026
0.0483975
3.68935
0.147507
0.0213251
0.264175
0.156481
0.0216738
3.19147
3.34289
2.51713
1.9266
3.41628
0.0218529
3.47434
3.00517
0.198162
3.57311
0.0210701
0.0259738
0.0274751
0.0265913
3.60517
0.0982255
0.0224608
0.034783
0.315062
3.05359
0.0228781
0.0214288
3.21138
3.23326
0.0224073
0.035474
0.147251
0.0214384
0.0215136
2.43617
0.0212909
3.24439
0.264311
3.65645
0.0212115
0.0973496
0.224188
0.0213389
0.0199776
2.21376
2.39851
0.0227545
0.0420019
0.207273
2.14305
3.3595
2.52879
0.0314418
0.2603
0.339061
0.0494827
0.0211935
0.0856633
0.020427
0.0200561
3.36668
0.0522005
0.133456
0.0290468
0.0278277
0.021088
0.020462
0.0235798
0.0241342
2.80282
0.028404
2.29403
5.93734
0.0635912
0.1103
2.80255
3.6255
2.79332
0.0204389
0.0300406
0.0504774
0.0309239
0.192958
0.223953
0.023488
2.31642
3.2165
0.0329259
0.148214
0.116373
0.1632
0.180323
0.0250681
0.205434
0.237639
0.230841
0.265383
0.190431
0.125619
0.0298336
0.0211853
0.0473011
0.145929
0.0212582
1.57108
3.47814
0.181831
2.99934
0.0199666
0.0207635
0.0340763
3.3387
0.0239113
0.027138
0.103977
2.35178
0.735954
0.0220582
0.0392775
0.0307121
2.00066
0.31482
0.0284205
2.51147
3.03713
0.159915
3.37124
0.13617
0.02814
3.44418
0.0195838
3.62691
3.04559
0.0244412
0.100582
0.13341
0.0295328
0.0210002
0.150078
1.27303
0.0208123
0.02086
2.57579
3.3205
0.111598
0.0226363
2.67752
0.188895
3.06139
3.69497
0.0220457
0.0214796
0.0237926
0.0230493
3.49464
0.359581
3.17458
0.135549
3.10112
0.590364
0.0230117
0.0211504
3.07318
0.0210099
3.50382
0.0208865
3.33606
0.0245374
0.0240708
0.574926
0.0217809
0.178358
0.534678
0.0259906
0.0263317
0.0248886
0.820031
3.35297
0.194435
2.97606
0.0238212
0.0226208
0.0366167
0.10788
3.58907
2.41183
0.130875
1.95104
0.211036
3.2927
0.0206716
0.0209541
0.0207325
0.0207124
2.37062
0.0776534
0.0459008
0.0571064
0.228561
0.0213581
0.304505
0.131882
2.0404
0.0215601
0.0252815
0.0198358
2.96568
0.0225086
0.682401
2.13903
0.19764
2.92694
0.0199322
0.0560138
0.194605
2.5678
3.26753
0.0218676
0.226824
0.0232271
0.0224289
0.125778
1.13216
1.45552
0.0227683
0.118326
0.168677
2.40897
4.60102
3.55777
3.6803
0.021199
0.0904938
0.0221408
0.232356
0.021326
0.144297
0.025473
0.0741618
0.251778
0.526699
0.0234844
0.120039
3.02437
0.205917
0.0261327
1.80497
0.184847
0.0222382
0.0229979
3.63004
0.0382268
0.165562
3.0371
0.03737
4.09383
0.0232734
3.3445
2.96895
0.886652
0.156218
0.044262
0.172862
0.155026
3.56386
0.0732194
0.023586
3.19645
0.0565129
1.32228
0.0347819
2.56432
0.767936
3.40732
0.0331872
0.355164
0.0281218
3.1676
0.198201
3.1866
6.93355
0.0210196
0.0198116
3.10442
3.63682
0.0301191
0.0233806
0.0590558
0.0368605
3.41444
0.0812015
3.0719
0.031916
3.13358
0.164234
1.12843
0.0234802
0.604745
2.47865
0.0236262
0.139465
0.0199713
0.0287744
0.0221701
0.256247
0.0214391
0.0220439
3.45122
3.52847
0.0206914
3.60322
0.0240468
0.0220822
0.0214978
0.0210389
0.022508
3.25096
3.30866
0.0206692
0.439683
0.109198
0.0757352
2.98078
0.139217
0.0310356
0.0465303
0.0213566
0.253831
0.0381831
3.60666
0.0249868
3.60376
3.06863
0.105178
3.67466
3.20748
0.020845
3.65582
0.0833447
0.103411
0.044842
0.0214583
0.0427593
1.35428
0.0220467
0.0649616
0.0214644
3.6326
0.232307
2.65091
0.584772
0.365458
3.45335
0.0222351
0.0213163
0.101179
0.025429
0.0225088
0.0225739
0.034173
0.0213111
0.0213128
0.0247925
0.0588882
0.0260788
0.0340819
0.0234458
0.0440851
0.173587
0.0268317
3.67826
0.0263388
0.0214354
0.15288
0.0663842
0.0232949
0.0212956
0.340953
0.0266519
3.15586
0.0271396
0.159018
0.0214398
0.0218813
0.11709
3.41228
0.114627
0.0473632
0.0201208
3.05548
0.0222187
0.0212779
0.124947
0.0280346
0.214676
3.0078
0.156354
0.156914
0.0586022
4.17498
0.0220797
0.0222844
0.0923341
0.263679
0.0956996
0.14243
2.56929
0.034788
0.0221489
0.0369465
2.42652
0.093064
0.022088
0.169003
0.16684
0.0987847
0.0224578
0.0220755
0.246477
0.0956839
3.62945
0.570555
0.026477
0.112066
0.0224105
0.0701427
2.58599
0.0225514
0.211064
0.0271041
0.121023
1.23747
0.0219439
0.0218408
0.0213329
3.50194
1.63945
0.026498
0.117315
0.185024
0.0223579
0.0219322
0.162407
3.58229
0.213632
3.07201
0.18045
0.0436652
3.15295
0.216242
0.0431387
0.0649627
0.148058
0.0743365
0.0220113
0.169223
0.24096
0.0241511
0.377431
0.0567434
0.0963333
0.0341541
0.227474
0.0213207
4.10646
0.0294436
0.0208651
0.0209981
0.0208216
0.0248022
0.0243076
0.021008
0.0284249
0.0223497
0.0240036
0.252741
0.127611
0.0236882
0.0971551
0.0293093
0.0214072
0.0204216
0.0733425
0.0286869
3.42336
0.0219818
0.0219403
0.0992806
0.239756
0.0222296
0.0220904
0.150881
0.0269629
0.128975
0.0919883
0.0221079
2.78053
0.0275432
0.0240255
0.100992
3.54474
0.0223195
0.0880943
0.0208047
0.032381
0.021575
0.0340596
0.0213924
0.0219732
0.0453576
0.0932966
4.56716
0.077399
0.0219643
0.0368222
3.10671
0.067714
0.807046
0.163291
0.022102
0.0803303
0.118836
0.533465
1.33863
0.031889
3.33248
0.271134
0.0372962
0.0224113
0.107247
0.0239062
0.0918227
3.06433
0.0222472
0.0609153
0.0227878
2.93375
0.0593897
0.0242079
0.0951656
2.95756
0.0942062
0.027792
0.11482
0.0430072
0.0206728
2.27819
0.0205377
0.0456752
0.0212435
0.0291527
2.68709
0.117261
0.0205058
0.0363209
1.8664
0.0221835
0.0230603
0.0377505
0.0298075
0.0218721
0.0275537
0.028167
0.0233678
0.0212876
0.0998495
0.181683
0.569756
0.0211227
0.0938383
3.04076
4.3008
0.0204328
0.022321
0.0308259
0.14471
0.0237197
0.021276
0.0214846
0.0209547
0.0308451
0.0364347
0.0251277
0.106168
0.0263492
0.020435
0.0261961
0.103614
0.0716522
0.189008
0.0236961
0.0369351
3.19323
0.037328
0.029755
4.15669
3.14337
0.171549
0.107163
0.301358
0.0217898
0.23536
0.0328771
2.99286
0.0215393
0.0213088
3.62664
0.0208749
0.253438
2.39025
0.0231957
4.93189
0.0435865
0.0471691
0.0333716
0.106047
0.0363122
0.0331556
0.538371
0.020981
0.0286832
3.5693
0.024878
0.0220191
0.0412083
3.13142
0.0237932
0.0237969
3.18772
0.023434
0.0333585
0.0951266
0.0203562
4.17633
0.0284057
0.024123
0.134961
0.0927737
3.40661
0.0267745
1.75959
0.0498299
0.132076
2.47439
0.0222127
0.0476858
0.160148
0.0236846
2.04881
0.0238581
0.0261609
3.00898
0.022752
0.0655185
0.129338
0.465583
0.0429112
0.0336476
0.0240531
0.027775
0.15706
0.0287983
0.0443508
0.0849919
0.0876582
0.0222575
3.39597
0.0591646
0.0204482
0.0252245
0.0213175
0.020788
0.0203608
0.0222739
0.0221206
0.0403776
0.027789
0.0519466
0.0201865
0.0204616
0.021162
0.122637
0.0207954
0.0368914
0.0733882
0.0364506
0.0413301
0.0219344
0.0261725
0.0285543
0.051455
0.0352986
0.0275988
2.81819
0.0226011
2.16924
0.0302128
0.153392
0.115889
0.0221944
0.0959955
0.0455154
3.09842
2.99986
0.031581
0.0226144
0.026947
0.0420609
0.0767477
0.0217137
0.0356857
0.0813759
0.0211278
0.070638
0.059173
0.0737735
0.0352979
0.260473
0.0912138
0.032868
0.12901
0.0232431
0.232589
0.0244141
0.021491
0.137595
0.131094
0.0215039
0.0724429
0.0215433
0.022256
0.0219758
0.0232866
0.022036
0.0215217
0.0216477
0.0236197
0.253604
0.0232214
0.021465
0.0239188
0.0246148
1.86053
2.97276
0.0703291
0.0281431
3.24975
0.0218137
0.0214856
0.0624122
0.0468422
0.0226997
0.0237931
0.0224686
0.189316
0.0227117
0.0319776
0.023954
0.0458116
3.89754
0.0215604
0.0708439
0.101373
0.0309972
0.0641079
0.0205147
0.0224068
0.0842809
1.52858
0.026297
0.0488711
2.34601
0.141395
0.0207568
2.27129
0.0248127
0.0196095
0.0673839
3.59132
0.0219814
0.0207881
0.0260054
0.0355424
0.044282
0.0215783
0.0242801
0.055454
0.0223867
0.0364829
0.0324421
1.41869
0.0201931
3.34917
3.12362
0.0430633
0.0217662
0.160631
0.0211361
0.0264911
0.0222801
0.0909886
0.020133
0.0201196
0.0600024
0.070584
3.38363
0.0230592
0.0199768
0.0264073
0.02083
2.93766
0.0257951
0.0251866
0.0235796
0.0916553
0.0760468
0.0270105
0.0254325
0.071653
0.0224927
0.0215909
0.0267485
0.0235878
0.157042
0.0214036
0.0368415
0.0230621
0.0219204
0.0754784
0.13468
2.94239
0.0219954
0.0674981
0.0366548
3.16278
3.32424
0.0367594
0.022147
0.0292347
0.040336
2.73725
0.022953
0.0307488
0.0347533
0.0446129
0.020214
0.0882589
0.0727622
1.21946
0.0234863
0.0223474
0.12632
1.18333
0.0200777
0.0294916
0.0501567
0.0198832
0.0244368
0.0726836
0.0205113
0.0218553
0.0224474
0.0293339
0.134218
0.0530193
0.0245176
0.0204778
0.0236315
0.174157
0.0198733
0.020903
0.031521
0.142029
0.0318743
3.98832
0.0288254
0.0219943
0.021904
0.0258308
0.0212971
0.0482828
0.0587859
0.0209448
0.0210962
0.0232825
0.0214567
0.0232744
0.0630195
2.73796
0.022736
0.152242
0.0233489
0.0215235
2.96738
0.0268422
3.63354
0.0226221
0.0226498
0.0207986
0.021897
0.0246074
0.0440895
0.0425298
0.146004
0.0343588
0.0830012
0.0227347
0.0408082
0.0215518
0.0265658
0.0502571
2.79331
3.31242
0.0228904
3.24619
0.128353
0.0661309
0.304088
0.019733
0.0215577
0.0224857
0.0254188
2.9377
0.02078
0.12106
2.89457
0.0241178
0.123333
0.0198826
0.0404787
0.276495
0.717759
0.0228439
0.211087
0.205749
3.05349
0.0328203
3.06998
0.0247326
0.154333
0.139944
0.0205334
0.0502538
0.0419666
0.0273083
0.0524597
0.0443389
0.020927
0.0211639
0.0248141
0.022667
0.0646368
0.0219064
0.0198481
0.023353
0.0485422
0.0219583
0.122715
0.0320996
0.0251275
0.0197805
0.0221171
0.518414
0.114528
0.174323
0.0497457
0.0306014
0.0343955
0.030208
0.0219165
0.0249845
0.0444007
0.0260796
0.0286574
0.020398
0.0327462
3.21585
0.0230666
3.67852
0.223513
0.0219049
0.0224315
0.0202334
0.0369832
0.0490548
0.0200516
0.0319813
0.0251076
0.0230511
0.0213833
0.0233769
0.0214874
0.0223474
0.236468
0.0224207
0.0280971
0.0215754
0.34875
0.0529906
0.0219495
0.244592
0.0224033
0.0281398
0.0355811
0.209282
0.0387864
0.0210892
0.0217669
0.0408684
0.0589908
0.226437
0.0243416
0.0763462
0.157044
0.0231002
0.0220781
0.132204
0.0803708
0.0447244
0.0222683
0.021154
0.0250553
0.0262207
0.0209462
2.24307
0.0271766
0.0281403
0.0206827
0.0373849
0.0204145
1.86344
0.0218885
0.0487822
0.0211017
0.0313475
0.0207415
0.0234765
0.019945
2.73266
0.0649277
0.169124
0.0208894
0.0230996
0.019726
0.0226422
0.0198927
0.0314082