/*--------------------------------*- C++ -*----------------------------------*\
| =========                 |                                                 |
| \\      /  F ield         | OpenFOAM: The Open Source CFD Toolbox           |
|  \\    /   O peration     | Version:  v2012                                 |
|   \\  /    A nd           | Website:  www.openfoam.com                      |
|    \\/     M anipulation  |                                                 |
\*---------------------------------------------------------------------------*/
FoamFile
{
    version     2.0;
    format      ascii;
    class       volScalarField;
    location    "150";
    object      ddt0(omega);
}
// * * * * * * * * * * * * * * * * * * * * * * * * * * * * * * * * * * * * * //

dimensions      [0 0 -2 0 0 0 0];


internalField   nonuniform List<scalar> 
13851
(
-0.000212735
-4.82914e-05
-4.53026e-05
0.0300541
-6.32303e-06
-5.60215e-05
-4.71916e-05
-6.41465e-06
0.0976814
-5.53319e-06
9.0932e-05
-6.98777e-06
-9.23248e-06
0.0539226
-0.000113975
-0.000599237
0.115024
-1.42275e-05
-0.00146381
-0.000270557
-0.000118895
-5.14665e-05
-0.0743848
-1.14999e-06
0.00428414
-0.000290116
-0.00431912
-0.000188604
0.078277
-9.66148e-06
0.0541656
-4.60725e-05
-8.25067e-05
0.0217541
-2.14632e-05
0.0699899
-2.43158e-07
-0.0437184
0.134159
-2.05152e-05
0.0512516
0.074908
0.179279
-0.00978858
0.0699466
-1.45403e-05
3.38372e-06
-0.000449597
-3.96004e-05
-7.43439e-06
0.00242876
-7.3456e-06
-0.000469234
-0.000109987
0.0537851
-1.97637e-05
-0.000126262
0.0713461
-0.0069112
0.0802298
-6.99636e-06
-0.00210381
-2.74212e-06
-4.3178e-05
0.00569195
0.00353275
0.0865825
0.00685971
-2.05607e-05
0.00651403
0.101833
-0.000118589
-1.20635e-05
0.0745981
-0.000120351
-3.87646e-05
0.109248
-5.46173e-06
0.00716441
-1.17444e-05
-2.226e-05
0.00161192
-3.99589e-05
0.0582779
0.0784786
0.0775723
-5.19207e-05
0.0209182
-7.73912e-06
0.0432965
-5.98009e-06
-4.70264e-05
0.176731
0.0745731
0.147784
-0.0107872
-1.39519e-05
-0.000577216
0.092381
-0.000145305
-0.000542129
-0.00514977
0.00473838
-1.14213e-05
-1.36635e-05
-0.000102151
-1.41131e-05
0.101477
-4.69282e-05
-1.65911e-05
-4.95528e-05
-1.45788e-05
-0.000461375
5.01371e-06
-0.000136958
-0.000113647
-8.30815e-06
-5.49209e-06
0.0421239
-0.027894
-0.00790177
-1.22931e-05
-2.23252e-05
0.0922045
-0.00131964
-0.0133474
-1.59016e-05
0.000123902
0.0751936
-0.000143001
-5.23295e-05
-7.14255e-05
0.0038363
0.0296058
9.86845e-05
0.160386
-0.0108157
0.083561
0.00277059
-0.000140697
0.00209385
-1.6292e-05
-7.80783e-06
0.00762163
0.0067787
-3.60296e-05
-5.1282e-06
0.0654883
0.0699328
5.5895e-05
-0.000516617
0.000346084
4.5298e-05
-0.000215457
-8.3681e-06
-4.91717e-06
-5.82273e-06
0.174525
-0.000124365
-3.91055e-05
-1.728e-06
0.0755549
-0.00011064
-0.000444785
0.0872981
0.08554
0.0846926
0.0512492
-5.06664e-05
-0.266933
-6.38248e-06
-8.57476e-06
-6.10964e-05
-5.24732e-06
0.128581
-0.00176263
-0.000479844
-8.82187e-06
-0.000119278
-0.000647784
-0.00126497
-0.00472049
-5.20112e-05
-0.000135554
0.297433
0.0701967
-0.000153505
-3.88754e-05
-8.5982e-06
-1.22897e-05
0.00452551
-0.000123748
0.13413
-5.72289e-05
-3.50821e-05
-0.000568687
-0.000345355
-1.68934e-05
-2.18166e-05
0.00951936
0.00242171
0.116565
0.0740467
-0.000115764
-0.0122065
0.117652
-5.10858e-06
-0.000156759
0.100902
-5.29575e-05
-0.000588368
-2.09358e-05
0.00208192
-7.47438e-07
-3.80367e-05
-4.39583e-05
-7.47646e-06
6.7295e-06
-2.30735e-05
-0.00237813
-7.84427e-06
-6.91981e-05
-0.0386785
0.151625
-1.15909e-05
-0.000164331
-7.91748e-07
-0.0021708
-9.26647e-06
-3.37986e-05
-0.129175
-3.37358e-06
-5.46459e-05
-1.91753e-06
0.0750257
-9.53756e-06
0.0984711
0.0806287
-0.00164401
-7.45959e-07
-0.00397345
0.0778023
0.0505473
-0.000599048
-7.02086e-05
0.000822586
0.000352207
-0.000125263
-0.00665024
-5.00066e-05
0.0432528
-0.00059005
-7.10453e-06
-6.21798e-05
-0.000568581
0.0745769
0.0362842
-1.117e-05
0.00240765
-7.00014e-06
-0.000390085
0.000113056
-6.6633e-05
-0.000116345
-0.000342028
-1.20513e-05
-0.0036734
-0.000337828
-0.00241454
-6.89648e-06
-6.66395e-06
-1.24498e-05
0.0655787
0.0673635
-0.000116781
-1.2141e-05
-0.000840723
0.000787712
-0.00021139
-0.000104822
0.0870019
0.079557
-6.5793e-05
-8.33182e-05
1.19775
-1.59329e-05
-5.91171e-06
-0.000403
7.18226e-05
-9.44611e-06
-2.26747e-06
-1.02623e-05
-8.01459e-06
-0.000116664
-6.21135e-06
0.0994028
-0.00010878
-1.87613e-05
0.0737252
0.089124
-8.52644e-06
-0.0001617
0.10424
-1.67819e-05
-6.50215e-06
-0.000112873
0.119367
0.0248457
-6.40594e-05
-6.59645e-06
-0.22353
-6.31944e-06
-5.15662e-05
0.107224
-0.00219289
-3.77338e-05
-1.08055
-0.00268756
0.118301
0.00127693
-0.00846866
0.148609
0.0957072
-0.00197461
-2.19928e-05
0.099781
-0.0558955
0.0294242
0.079107
-3.76659e-06
-3.96093e-05
-3.57853e-05
0.0213697
0.0025746
-7.8147e-06
5.30658e-06
-5.71764e-05
0.121141
-0.000255286
-1.4964e-05
0.149932
-3.21566e-05
-6.59933e-05
-4.05583e-05
-0.0568822
-9.25132e-05
-0.000537388
-4.49214e-05
-5.17839e-05
0.0615686
-8.84635e-06
0.000521874
-6.93663e-05
-0.000112292
-3.52875e-05
-7.52541e-06
-1.86363e-05
-0.00189981
-0.00163312
-0.000321828
-0.00137506
0.059534
-3.6316e-05
0.0904457
-0.00089258
-5.79417e-06
-0.00242054
-7.58783e-05
0.0871471
-5.39408e-05
-0.000336709
-0.0040513
-0.00452715
0.0019726
0.04297
-3.0656e-05
-0.0017899
0.21768
-7.89145e-05
0.035953
-7.98688e-05
0.0573197
-7.36375e-05
-0.000181793
0.000705643
-0.00016371
-5.82748e-06
-6.08871e-05
0.000136301
-0.000122992
-1.52213e-05
-0.000118597
-0.195275
-1.18639e-05
-0.000154692
0.0509111
-4.34538e-05
-1.02609
-0.000204296
0.000995523
-5.72082e-05
-0.000303356
-0.0894246
-0.000902937
-8.30476e-05
0.0264119
0.0712927
-0.00721181
-1.17157e-05
-0.00155654
-7.71654e-05
-0.000331549
-1.21446e-05
0.224811
-0.146443
0.00211301
-5.16845e-05
-6.80627e-05
-0.00166328
0.0720504
-5.49975e-07
0.116007
0.000105872
0.0667831
-4.58476e-05
0.00447324
-8.91191e-06
-5.28143e-06
0.0471817
-0.00164603
-5.43794e-06
-4.76883e-05
-0.000155658
-8.90267e-06
-0.259895
-4.58741e-05
-8.11307e-05
-6.34292e-05
-3.16442e-05
-2.79898e-06
0.00180409
-1.82257e-05
-2.45172e-06
-0.45838
-0.215672
-5.06665e-05
-0.0019557
-8.39957e-07
-6.79093e-06
-4.60517e-05
-0.00057162
-0.000212572
-1.45112e-05
-3.08224e-05
-0.00246964
-3.90717e-05
0.0397492
-7.36658e-06
-7.25564e-05
0.0579117
-4.26175e-05
1.23321e-06
-6.26323e-06
-5.55732e-05
-2.04077e-05
0.010481
-0.172264
-7.12025e-05
-0.000658517
-4.79201e-05
-8.1115e-06
0.0922868
-0.00427122
0.000181008
-1.35079e-05
0.0953256
-0.000747196
-0.25489
-1.12845e-05
-6.89934e-05
-0.000926383
-0.000124701
0.0923153
-0.0021827
-0.000171014
-2.68753e-05
0.00176833
-1.32517e-05
0.0788147
-0.000190271
-0.00038059
-8.14462e-05
-4.35565e-05
-5.20165e-05
-6.55209e-05
-5.82381e-06
0.0879861
0.0885169
0.0248594
-0.0108594
-0.182374
0.106139
0.000626239
-2.0391e-05
-2.16971e-06
3.01221
-4.26308e-06
-1.3724e-05
-2.53545e-05
0.114751
-4.54211e-05
-1.44702e-05
0.00717852
-7.04117e-05
-2.82117e-06
-0.259526
-1.25766e-05
0.0512863
0.000525959
-1.16744e-05
-3.82946e-05
0.00258698
-0.0025767
-9.40041e-06
0.122295
-12.5345
-7.74594e-06
0.15827
-0.00125457
-9.78725e-05
-2.67501e-05
-0.431095
0.0795249
-8.41177e-06
0.00150492
-2.05411e-05
-1.27714e-05
-0.562645
0.0604574
-8.15424e-05
-0.000211169
-3.87255e-06
-0.000251108
0.0550825
0.159957
-1.0066e-05
0.0943549
-1.58225e-05
-1.99736e-05
-9.70613e-05
-8.74002e-05
-8.95288e-07
-4.07155e-05
0.1666
0.0021162
0.175995
-4.31425e-05
-7.62015e-06
0.05908
-3.68402e-06
0.00141127
-7.83497e-05
-0.000117612
-8.2147e-05
0.0147498
0.0852349
-5.7736e-05
0.117801
-3.51011e-05
-3.41192e-05
0.0708182
0.0508911
-2.14377e-05
-1.23737e-05
0.00552924
0.173965
-0.00161272
-0.000247072
0.387363
-8.84864e-05
-7.13927e-05
-0.0259188
-0.23433
0.00137546
0.0668479
-0.000284359
0.0592059
-2.62001e-05
-0.00743601
-0.00302257
-7.11253e-06
0.0286118
-0.191523
-5.48497e-05
-0.000139112
-1.74855e-05
0.00436244
-0.00107706
3.72144
-1.68787e-05
-4.14028e-06
-1.13744e-05
-6.33178e-05
-7.44043e-06
0.139183
-4.11735e-06
-8.29454e-05
-2.30141e-05
-0.000326515
-1.28168e-05
-2.85681e-06
-7.80179e-05
0.105611
-7.97172e-05
0.155624
-7.25781e-05
-8.69416e-06
-8.28472e-06
-6.77794e-05
-3.03257e-05
0.000253934
-4.95496e-05
0.00015534
-0.00787446
-2.70783e-06
0.0417514
-7.92131e-07
-0.000387406
0.104556
0.0672979
0.00327664
-2.15666
0.00443597
-0.00108876
-0.187975
-1.27849e-05
-0.48117
-3.6337e-05
-7.73891e-05
-0.0217866
-0.00127362
-6.27821e-06
0.000224667
-1.79121e-05
0.0676904
0.0644721
-2.47438e-05
0.0188482
-0.331323
-1.28351e-06
-1.3073e-06
-0.000304983
0.0559327
-0.250298
-6.04241e-06
0.000141004
-3.54291e-05
-3.51919e-06
-0.0116744
0.000792292
-1.39704e-06
-6.52002e-07
-0.000354463
-5.34424e-05
-0.000307085
-4.95515e-06
-3.35632e-05
-0.00107157
-1.32375e-05
-0.000332156
-0.000111278
-0.000108503
0.00127332
0.109901
-0.00110126
-0.202605
-0.0158613
-0.000510499
0.0230051
-0.000284615
-0.444703
-9.85031e-05
-1.41804e-05
-0.0001012
-0.00139446
-5.24084e-05
-1.13676e-05
-1.10945e-05
-0.000399729
0.020398
-9.61195e-05
0.0942343
-9.43489e-06
-0.573991
0.00265614
0.127174
0.000310245
-5.56653e-05
-4.56513e-05
0.122224
-0.00109634
8.58556e-05
-0.00212651
-2.70013e-05
-0.0164544
-0.000407014
-0.00023828
-7.14843e-05
0.00237336
-7.90184e-06
-6.42253e-07
-5.2432e-06
-3.36076e-06
0.0765967
-7.86189e-06
-0.00639308
0.07785
0.000419781
0.142453
0.0915865
-0.000466451
0.000714422
-0.000241966
-1.60065e-06
-6.62636e-06
-5.54312e-06
-9.81724e-06
-4.49245e-06
-5.78193e-05
-0.000506653
9.6138e-05
-0.00269957
-3.16179e-05
0.0987499
5.83883e-07
-0.00518567
-5.51893e-05
-1.33169e-06
-1.13862e-06
0.0690042
-5.94999e-05
-0.106358
-0.203708
-0.000138085
-0.000102357
-3.93026e-06
0.0254367
-3.48004e-05
-4.63431e-05
-0.00831951
-1.48631e-06
-1.50797e-05
-1.15056e-05
-0.000184327
0.0445858
-6.34345e-05
-6.69228e-05
0.000154778
0.172963
-0.000122159
-4.23953e-05
0.0626844
-5.38844e-06
0.0678106
-3.27006e-06
-3.98019e-05
-0.0109353
-0.000173829
-0.000143603
0.000343899
-8.03889e-05
-2.57325e-06
7.2573e-07
1.32105e-06
-2.71795e-05
-2.09898e-06
-8.88364e-05
0.00403623
-7.59823e-06
0.000214864
0.250193
-0.0351996
-6.37659e-05
-0.00916062
-0.000135405
-1.91855e-06
0.00352578
-9.24487e-06
-6.17929e-05
-0.35216
0.0581498
-0.326301
0.0423614
-2.65163e-05
-2.40916e-05
0.00501315
-3.13587e-05
-1.30679e-05
0.333324
-0.00037835
0.0405286
-0.000417622
-0.000174391
-4.55747e-06
-9.87604e-06
0.0159337
-8.80259e-05
-4.41483e-05
-1.06547e-06
-0.000119899
-0.000993533
0.0845961
-7.70565e-06
-3.63236e-06
0.0491796
-4.90514e-06
-7.91421e-05
-8.44425e-06
0.107927
-8.29507e-06
0.103183
-4.57135e-06
-0.000265604
-0.000103725
0.000881786
-6.58982e-05
-1.15824e-05
-4.39903e-05
-6.9682e-06
-0.00763334
-8.83653e-06
0.0242032
-3.13932e-05
0.00226105
0.156723
-7.07528e-05
-8.49764e-06
0.0299956
-0.178738
-5.82517e-05
-0.000191094
-7.01316e-06
0.0356511
-1.61462e-05
-0.00095233
-7.47316e-06
-6.83233e-06
-0.0590752
-7.38802e-05
-6.27051e-06
-0.000120062
0.0795549
0.0767302
-0.250198
-1.13504e-05
0.103183
-6.85089e-06
-7.45345e-06
-9.99688e-06
5.67626e-06
-9.30561e-07
-0.229883
-0.271333
-2.68089e-05
-4.42794e-06
-7.59271e-05
-1.42231e-05
-0.00650649
0.00484596
0.148344
0.128823
-4.14632e-05
-0.000372516
-7.03383e-06
-0.000110157
-0.000272321
-1.06372e-05
-1.95422e-06
0.0102132
0.0716558
-0.00010154
0.26519
-0.000151012
-3.83541e-06
-8.40697e-05
-0.000190425
0.0946222
-6.63095e-05
0.0154077
-7.44344e-05
-2.80472e-06
0.198599
0.148223
0.0342113
0.00159129
-0.554841
-2.79931e-05
0.00390211
-2.53663e-06
-0.00646415
-5.13148e-05
-7.94014e-06
-0.207662
-3.1503e-05
-7.26298e-06
-2.26401e-05
-3.20915e-05
0.131704
-0.0009158
-1.12467e-05
-9.41662e-05
0.172931
-3.65985e-05
0.254564
-1.43542e-05
-0.000141503
0.0660285
-7.46059e-06
-0.0029994
-5.21477e-05
-7.01671e-05
0.00721908
-3.15907e-05
0.000728132
-0.000292551
0.0590741
-2.69112e-05
0.0212551
-7.51509e-05
0.0806243
0.0767792
0.0362269
-0.000138958
-1.06424e-05
-2.63211e-05
-6.35382e-07
-0.000177242
-3.5749e-06
0.0892481
-6.06972e-05
-2.29739e-05
-4.63568e-06
-3.00079e-05
-1.13863e-05
-8.12902e-05
-5.23638e-05
-3.77454e-05
-5.3453e-05
-0.0558164
-0.00646342
-7.57581e-05
1.00032e-05
-0.220726
-1.46657e-05
0.123413
-5.48015e-06
-6.55169e-05
-8.5814e-06
-1.73615e-05
-2.36166e-05
-8.77342e-06
-1.13256e-05
0.00105445
-4.91675e-06
0.00385954
-3.001e-05
0.0859935
-0.00381333
-0.000698445
0.00209411
-1.74167e-05
0.176599
-0.000320539
-2.00291e-06
-5.23769e-05
-1.31647e-05
0.121901
-1.1826e-05
-0.000430467
-0.00182541
0.0541014
0.000866706
-2.10679e-05
0.0232858
-0.00510907
-0.404949
-5.19759e-05
-8.88932e-06
-8.95577e-06
-6.24456e-05
-8.92937e-06
0.0758548
-0.000334072
-2.14745e-06
-0.000804509
0.00199952
-1.38679e-05
-0.114107
0.114292
-0.000560066
-3.19051e-05
0.0276643
-4.38563e-05
-8.48732e-06
0.0424664
-4.3672e-05
-1.09728e-05
-1.25159e-05
-0.000114405
-0.000197593
0.0983333
0.0349153
-0.00016402
0.0847874
-0.00011644
-8.40165e-06
0.0120324
-1.10791e-05
0.0255946
-1.16736e-05
-6.55202e-06
-3.82404e-05
-2.69285e-05
0.0752771
0.0524276
-0.000966716
0.0829278
-0.140827
-1.90289e-05
-1.32296e-05
-2.95434e-05
0.00135457
-1.06748e-05
-6.22698e-06
-4.26831e-05
-0.00742063
-0.00614621
1.03028e-06
-4.18512e-05
-7.4514e-05
-7.14516e-05
0.241225
-7.92157e-06
-6.98708e-07
-3.63228e-05
-0.00627863
-8.96314e-05
0.0621294
-3.22764e-05
-3.63565e-06
-1.06061e-05
-1.25789e-05
-4.45684e-05
-0.000712559
0.051706
0.0840987
-0.00014381
-7.8956e-06
-0.00288175
-1.99342e-05
0.00551136
0.0787124
5.695e-05
0.0970117
0.0814596
0.000690396
-0.000245555
-0.000104771
0.0769888
-7.56132e-05
-4.35939e-05
0.00127712
6.68517e-05
-2.65139e-05
0.0822359
-8.28651e-06
-0.421973
-0.00582353
-5.50994e-06
-2.45854e-05
1.08631e-05
0.00290971
-8.40839e-05
-4.47476e-06
-8.14053e-05
-8.82742e-06
-6.06435e-05
-0.0368231
-3.71327e-06
-0.0981484
0.0403631
-8.40633e-06
-7.27081e-05
-0.000185103
-6.82107e-06
0.0583406
0.0971099
0.160583
0.0378176
-8.54131e-06
-4.60689e-05
-5.63717e-05
-9.82544e-06
-0.00104773
-8.50564e-05
-1.33209e-06
-0.000194867
-1.23383e-05
-0.0485339
-0.000108165
-0.0913431
-7.68674e-06
-3.74801e-05
-0.00538192
-5.56824e-05
-6.49651e-05
-1.08995e-05
0.023851
0.0886601
0.416339
0.122722
-0.29334
0.0932567
0.0786593
-1.07827e-05
-8.15347e-06
-1.67524e-05
-0.00118227
-0.000198927
-3.32513e-05
0.106608
-2.18447e-05
-5.58519e-06
-4.64098e-06
-0.00127232
-5.37699e-06
-6.725e-05
-3.93376e-05
-0.40208
-1.95866e-05
-9.27413e-06
-6.55122e-06
-1.57687e-05
-4.03285e-06
-2.95965e-05
-0.000791761
-4.38118e-05
-0.274653
-7.43311e-06
-1.23978e-05
0.0731109
0.0604732
0.0172937
-0.10562
0.000481787
-0.472473
-8.54639e-06
-0.000845676
-3.68368e-05
-4.83201e-06
-4.32165e-05
0.0943647
-3.82593e-05
-4.68901e-05
0.0310537
-1.76622e-05
-1.83807e-05
-1.56171e-05
-0.000838177
2.99513e-07
-0.816575
-1.42226e-05
-0.000819852
-1.09268e-06
-2.60152e-05
-6.0053e-05
0.00272068
-8.91328e-06
-0.00497022
0.100046
-0.00115778
0.0296196
-8.3195e-06
0.0958408
-0.00217236
-6.79403e-06
-0.00733528
-9.00493e-06
0.00619397
-9.7002e-06
-1.7705e-05
-8.64272e-06
-1.93045e-06
-2.86166e-05
-2.0231e-06
-0.000119139
-2.31006e-05
-1.79671e-06
-0.00125181
-5.68731e-06
-1.01295
-1.91357e-06
-7.75963e-05
-0.00012186
0.0772586
-0.00659405
-4.88939e-06
-0.000870877
-8.2377e-06
-0.000105062
-6.1441e-05
-0.0935096
-0.000146852
1.81265e-07
-0.000261108
-0.0062978
-0.00014886
-0.00113749
-4.02702e-05
0.000633757
-0.000238721
-0.000142234
-1.81916e-05
-1.22837e-05
-0.0311576
0.0450239
-4.56151e-05
-8.51923e-06
0.241747
-9.90225e-06
-9.59784e-05
-1.05992e-05
0.000924444
0.020237
-9.97177e-07
0.0842497
-5.64719e-05
-3.11676e-06
-0.000733847
-7.79197e-06
0.0031601
0.0414513
-8.82468e-05
-0.066647
-9.09527e-06
-1.02588e-06
-0.00732027
-2.09326e-06
7.26545e-07
-8.15259e-05
-7.23647e-05
-0.000108035
0.00116242
-1.26673e-05
-3.53196e-05
-1.30106e-05
-8.11593e-06
-2.13768e-06
-6.62379e-06
0.0209691
-1.1278e-05
-1.6488e-05
-0.00192321
-9.5732e-06
-8.83737e-06
0.0545586
-1.96484e-06
0.0343153
-4.06169e-05
0.0258993
-0.000529032
0.00154643
0.0172748
4.3319e-05
-0.144214
-1.70076e-05
1.7923e-05
-5.49414e-05
-1.19079e-05
-1.52062e-05
-1.13518e-05
-7.89969e-05
-1.49532e-05
-7.13121e-05
-1.03467e-05
-3.78702e-05
0.22328
0.00729025
0.11927
-4.37192e-05
0.00679795
0.0806419
-0.13851
-3.62449e-06
-6.83085e-05
0.0156298
-1.98132e-05
-5.90441e-05
0.154062
0.0764056
-7.13085e-05
-0.000139666
-3.09783e-05
0.00448086
-1.0058e-07
-4.09699e-05
0.00186921
-1.45954e-05
-6.36303e-06
3.57713
-5.37296e-05
-0.00133208
0.00942754
-0.000330816
-1.32176e-05
-1.04062e-05
-2.11685e-05
0.105724
-0.00190045
-0.074445
-6.48172e-06
-3.97491e-06
0.0938011
-3.91097e-06
-0.00069419
0.000240013
-3.37937e-05
-9.93989e-05
-7.39146e-06
-0.17564
-0.183762
-3.30094e-06
-8.16648e-05
-0.000208209
-0.000916509
-7.12238e-05
-0.000251652
-0.000684945
-0.000118666
-0.00694156
-0.000234791
-2.98874e-06
-0.000120403
0.0183526
-0.461835
-8.90875e-06
0.0117697
-5.80488e-05
-0.000274392
2.00045e-07
-0.0515754
-6.33954e-05
-2.97432e-05
-1.46212e-05
-4.72149e-05
-6.50182e-05
-5.29505e-05
-5.9225e-06
-2.9302e-05
0.000210301
0.23755
6.78083e-05
-3.81941e-06
-7.39947e-06
-0.000124374
-0.00010246
-3.83438e-06
-8.39299e-05
-0.0322688
-5.14152e-05
0.0391694
-0.000186834
0.090375
0.000470833
-1.03989e-05
0.00986327
-2.17501e-06
-4.99167e-05
-0.000101007
-7.20573e-05
-7.52267e-06
-0.000178497
-6.64345e-06
-5.79076e-05
-7.05685e-05
-3.87576e-05
-3.92641e-06
0.00105671
-5.8587e-05
-3.52551e-05
-0.00293623
-5.04964e-05
-5.01989e-05
-1.13568e-05
0.023669
0.000331726
-1.11698e-05
-4.91993e-05
-2.47251e-06
0.079692
0.00213202
-0.000101729
0.0672094
-3.64343e-05
0.00727063
8.38015e-07
-0.00225141
-1.19075e-05
-0.0449216
-5.66655e-06
-5.0775e-05
-0.512187
0.0582748
-0.000131043
0.00157657
-2.71374e-06
0.161063
-1.13651e-05
-0.000205655
-4.15036e-05
-0.407386
-0.14145
-7.72535e-05
-7.09343e-06
-0.000246367
-0.00485993
-8.87725e-06
0.121205
-3.71938e-06
-3.25271e-05
-5.86506e-05
-7.7952e-06
-6.53249e-05
-3.04661e-06
-5.35433e-06
-6.56375e-05
0.00281494
-0.000123677
7.03783e-05
-1.01318e-05
0.0916668
0.0536848
-8.52127e-06
-0.00210789
-4.02692e-05
-1.71343e-05
-0.116091
-7.52472e-06
-1.97563e-05
-3.14663e-05
0.099197
-8.60692e-06
-3.09665e-06
-8.02625e-05
-0.440866
-8.23989e-06
-4.50548e-05
-5.62257e-05
-0.00477265
-5.01818e-05
-8.31323e-05
-0.000909713
-3.70285e-06
0.00779846
-5.49721e-06
0.0780903
-6.19378e-05
-3.98849e-06
-7.57604e-05
-0.00049416
-4.02255e-06
-1.99034e-05
0.000115084
-0.000142106
-2.33094e-05
0.0672744
-3.85768e-06
-5.1625e-06
-5.51247e-05
-9.1637e-06
-1.19894e-05
-0.484393
7.11789e-07
-0.000104328
-0.000629937
0.126835
-0.00416336
-9.53132e-06
-3.41948e-06
-1.98151e-05
-7.2032e-06
-9.10032e-06
-6.69495e-06
-0.0703958
-2.92369e-06
-0.00975695
-0.000345574
-6.04212e-06
-9.36393e-06
-6.95401e-05
-0.000277347
-0.00165883
0.00206091
3.84205e-05
-4.00828e-05
0.0979097
0.000794857
-0.000110932
-0.000134269
0.0011175
-9.3374e-05
-0.018108
-0.000184523
0.0306288
-0.00245402
-0.126433
-4.87951e-05
-1.8094e-05
-6.77297e-05
-0.000264416
-1.1342e-05
-2.75314e-05
0.0013131
-2.43461e-06
-2.58341e-05
-8.46238e-06
7.1127e-07
-3.38094e-05
-1.70997e-05
0.111875
-7.57007e-06
0.0334188
-6.78479e-06
0.00094953
-2.69156e-05
-6.32847e-05
-0.00273487
-9.44901e-06
-0.252113
-6.10974e-06
-1.66392e-06
-0.00012313
-1.17134e-05
-4.40919e-05
-1.29212e-05
0.0298276
-4.22396e-05
-8.02342e-05
-0.0305136
-0.268171
-5.00821e-05
-0.00806468
-0.00269458
2.55751e-06
-1.73999e-05
-3.03931e-05
-0.000887512
-5.32324e-05
0.0798156
-1.02375e-05
-0.0606862
-2.10324e-05
-0.00255556
-0.00820392
-5.31343e-05
-0.361649
-4.7545e-05
-7.89053e-05
-4.25712e-05
-0.116396
-6.52651e-05
-4.93282e-06
-1.13421e-05
-0.000411196
-3.93093e-05
-7.31087e-06
-4.73178e-06
0.15174
-5.15982e-07
-5.65747e-05
0.0426277
-4.27356e-05
-1.11178e-05
-0.000251806
-4.97958e-05
-0.262429
-4.84194e-06
-8.84635e-06
-9.7972e-06
-6.25004e-06
-2.19635e-05
-1.81242e-05
-0.000152204
0.112302
-1.1839e-05
-2.17444e-06
-0.0581249
-1.37969e-05
0.0753492
-3.83224e-05
0.00532149
-1.5245e-05
-3.53019e-05
-8.03349e-06
0.0336086
0.0214819
-4.7837e-05
0.0010613
0.00037012
-1.64099e-05
-1.01246e-06
0.0228291
-5.25292e-06
-0.000223095
-2.8081e-06
-0.000185258
-2.66034e-06
-0.222138
-9.29217e-06
-0.000164588
-6.96167e-06
0.00988249
-0.000971074
-1.13459e-05
-1.21207e-05
-0.249274
-0.000149465
-0.454336
-0.210397
0.00328337
-8.33755e-06
-8.38264e-05
-3.52507e-05
0.0028729
-1.82093e-05
-0.000170916
-2.17041e-05
-1.85211e-05
0.0218931
-0.0859546
-0.000118925
-0.000140055
0.00187621
-8.16679e-05
0.0503441
-7.59257e-06
-1.11176e-05
0.000153369
-0.261834
0.00126901
-0.000763211
-0.000918342
-9.65964e-06
-0.105302
0.0541171
-0.0524968
-2.42044e-06
0.0921382
0.0158817
-0.00457972
0.015184
0.0635755
-0.000203761
-6.81242e-05
-0.000649129
2.18346e-05
-1.65973e-05
0.0122702
-8.31539e-05
-2.92376e-06
0.0776156
-3.59154e-06
-4.68584e-05
-0.00011929
-2.46997e-05
0.000952147
-3.31176e-05
0.0536244
-0.000170943
-0.000172722
-0.00190925
0.0582978
0.000145654
-2.78523e-06
-1.10805e-05
-2.91507e-05
-0.00117093
-8.47003e-06
-6.00959e-05
-5.82738e-05
-0.000574316
-1.41448e-05
0.000387597
-4.09396e-05
-2.0768e-05
-0.267158
-0.00702714
-2.46065e-06
0.00167381
0.109025
-1.37374e-05
-2.99575e-05
0.011451
0.00266721
-4.41795e-05
-4.80397e-05
-6.85795e-06
-0.000172202
-5.65113e-05
0.0707641
-0.000284886
-1.39353e-05
-2.00363e-06
0.00948296
-5.55298e-05
-0.00175332
0.0512007
-1.4612e-05
-8.29979e-06
-5.49596e-05
-3.79388e-06
-4.32925e-05
-3.17199e-05
-3.13145e-05
-1.5266e-05
-1.2255e-05
-4.07189e-05
-5.74008e-06
-0.000170485
-0.00284975
-8.32188e-07
-0.35121
0.178035
-5.52569e-06
-0.00198694
-0.00447041
-0.000706071
-2.07278e-05
-8.8831e-05
-6.49192e-05
-0.0058297
-7.33632e-05
-3.67007e-05
-2.03023e-06
0.0834296
-0.000100645
-0.0833817
-1.86976e-05
-6.66308e-06
-9.39974e-06
0.00121186
-1.19587e-05
-0.000109323
-0.000198021
0.0284234
-1.12695e-05
-0.000531806
0.0128589
0.0912553
-7.86012e-06
-0.000837686
-0.247428
0.00648169
-0.00120265
-2.87156e-06
-2.53233e-05
0.00253682
-0.00222953
-0.00191295
-0.000101463
-0.00183339
-2.18e-06
-1.25582e-05
-0.000130039
-3.07917e-06
-2.44318e-06
0.00245724
-3.8895e-07
-0.00372987
-1.48659e-05
0.0464365
-0.194682
-0.0465794
-0.455223
0.0876098
-7.4164e-06
-4.06833e-06
-0.357477
-1.02101e-05
-1.20998e-05
-6.00313e-06
0.00528143
0.0207366
0.081721
-2.53955e-05
-1.54007e-05
-3.67418e-05
-7.0033e-05
0.158563
-6.48352e-06
-0.248658
0.0319228
-3.8818e-06
-1.55525e-06
0.0629744
-0.000219028
-3.28038e-05
-7.03718e-06
-0.326556
0.0894683
-1.72593e-05
-0.000137809
-4.48231e-07
0.0915898
0.0762319
-4.99789e-05
-0.159912
0.105233
-0.119281
-1.3173e-05
-1.72973e-05
-1.00206e-06
-7.04202e-06
0.0918202
-1.35901e-05
0.00280497
-0.00282702
0.0647818
-3.00954e-05
0.000131809
-0.000826682
-7.17523e-05
-0.126061
0.162952
-6.27027e-07
-5.87631e-05
-5.77768e-05
-0.000645117
0.0231912
-7.73969e-07
0.0351769
-5.13911e-05
-0.00013086
-1.87932e-05
-8.27019e-06
-0.00109846
-6.29818e-05
-0.0271335
-3.02867e-06
1.99824e-05
-2.84667e-05
-0.000389537
-4.52479e-05
0.107222
-0.00341272
0.00166956
-0.000325532
-1.38057e-05
-4.13747e-05
-0.000102288
0.0102387
0.0689191
-0.317598
-4.08292e-06
-0.239543
0.00681659
0.0719632
-6.0767e-05
-5.58014e-05
-7.03192e-05
-2.0857e-05
-0.280924
-7.50055e-06
-7.62892e-05
0.031784
0.0540599
-0.00129024
0.0323953
-5.39432e-05
-0.000103734
-7.52498e-06
0.0404092
-4.98182e-05
0.00680217
-8.18594e-06
-0.401963
1.73898e-08
-9.63986e-06
-8.0247e-05
-2.3334e-05
-4.88346e-05
-1.66463e-05
0.057588
-0.000165584
-1.62337e-05
-5.48546e-05
0.0417799
-0.00183052
-8.43471e-06
0.146
-4.16429e-05
-0.000114929
-0.000110937
-4.59989e-06
-8.14267e-06
-1.01771e-05
0.0346195
0.00117126
-7.43613e-05
-8.13592e-06
0.00196287
-8.24543e-05
-6.8981e-06
-0.0844518
-0.00451002
0.000360548
-2.10362e-06
-0.00441369
-4.86049e-06
0.00451215
-7.70973e-05
0.0004659
0.00307464
0.0632033
-5.19022e-05
0.027277
2.81152e-05
-4.69223e-05
-1.12987e-05
-0.518911
0.00430368
-0.000128623
-0.00844764
-1.16884e-06
-0.695814
0.000441314
0.00254165
-0.00233861
-0.178638
0.0599884
-0.000909313
0.104057
-4.40399e-05
-2.2954e-05
-5.68237e-06
-2.0125e-05
-1.60763e-06
-0.000233082
-5.28279e-05
-4.02526e-05
0.146331
-1.28647e-05
-8.33594e-06
-0.000163421
-0.00101829
-7.06419e-05
-5.83546e-06
0.115113
-4.08124e-05
-0.000189893
-1.97781e-05
0.0994542
-3.26172e-05
-0.216599
0.000786837
-8.15205e-05
3.29926e-05
-5.62639e-06
0.0750407
-0.00149705
-9.85172e-06
-1.71737e-05
-7.21591e-06
0.0524985
0.0946789
0.0699801
-1.00547e-05
-8.65014e-06
-0.00233716
-1.90724e-05
-8.7277e-06
-2.32738e-05
0.0239127
0.00991431
-5.84401e-05
-7.95499e-05
-6.16173e-05
-0.39153
-0.000435112
0.000243817
-6.82316e-05
-8.09226e-05
4.41312e-07
-0.00398886
-1.69627e-05
-8.53844e-06
0.0131931
0.165979
0.0906429
-0.0188243
0.0254446
0.0248764
-0.341784
-5.00249e-06
-1.09355e-05
-0.21048
0.0955897
0.00716925
-1.74211e-05
-9.69555e-05
-3.24249e-06
-1.24503e-05
-0.229355
0.0438904
-0.000107818
-1.00776e-05
-0.00185248
-3.91412e-05
-7.67184e-05
0.106733
0.00642287
-0.00239466
-7.24549e-06
0.117914
-0.0594686
0.000316207
-0.000107023
-9.0101e-05
-5.62993e-06
-1.10837e-05
-7.34271e-05
-7.39271e-05
-4.44051e-05
-0.000133622
-7.15422e-05
-4.08394e-05
-0.00216127
0.0616208
-4.5125e-05
-0.000146005
0.0900912
-0.000843287
-2.23977e-06
-0.00312779
-0.0101333
0.0271742
-6.54798e-05
-2.01606e-05
-7.1349e-05
-5.3154e-05
-4.61409e-05
-4.60975e-06
-0.000143482
-9.26998e-05
-0.000146904
0.000395617
-1.18449e-06
-3.5292e-05
0.06306
0.0323553
0.0852862
-0.00035059
-0.00028725
6.77898e-07
-3.71066e-06
-7.1518e-05
-8.92377e-06
-0.135102
-5.92977e-06
-1.74365e-07
-6.97367e-06
0.0261347
0.698313
-1.29546e-05
-0.000144685
-6.00345e-05
-4.66982e-05
-6.79047e-05
0.00210619
-0.000113103
-6.68731e-05
0.0350748
-6.08083e-05
0.0863959
-6.89764e-05
0.0989409
-6.04707e-05
-7.21005e-06
-1.08349e-05
-7.88065e-05
-4.08756e-05
-8.2495e-06
0.000399761
-6.25537e-05
-2.58828e-06
-0.516043
-0.163702
-0.146357
-1.8215e-08
-0.00213611
-4.71671e-05
-4.80971e-05
-7.29402e-06
1.92431e-05
-3.66238e-05
0.025201
-0.00245482
-4.31178e-05
-5.35454e-06
0.0310234
-9.7419e-06
0.0679732
0.0859157
-0.00238831
-4.19282e-05
-0.000388052
-0.337073
-0.000105346
0.079643
-9.27445e-06
-1.80302e-05
-6.64581e-05
-1.25108e-05
-0.31533
-4.05415e-05
-6.79378e-05
-0.00249604
0.132849
-1.66872e-05
-1.56344e-05
0.131708
-6.77185e-05
-0.0160165
0.000547984
-6.72557e-06
-7.89374e-05
-0.000786534
-0.00361567
-0.0958135
-4.20117e-05
-0.0021044
-4.86428e-05
-7.48772e-07
-1.62346e-05
-0.000524094
-9.52262e-06
0.00466469
-4.99659e-06
-1.98314e-05
0.00290219
-5.73425e-05
-2.07389e-05
-8.29961e-06
-5.25568e-05
-0.000768464
-0.000152182
-7.42112e-05
-2.21661e-05
-1.89543e-05
-1.54334e-05
-0.000739239
-7.27755e-05
-8.81168e-05
-0.00325133
-0.000102487
-0.0032444
-0.00141627
-1.24527e-05
-0.000137975
-0.0186838
0.0396612
-1.80713e-05
-0.00294496
0.0611903
-1.3678e-05
-6.1527e-06
-0.00520794
0.0793116
1.87304e-05
0.0546948
0.0010174
-1.40558e-05
-0.000164751
-3.49072e-07
-5.63855e-05
-5.03784e-05
0.655644
0.00282325
-0.00248353
-0.00224017
-0.00799619
0.0933896
-3.52491e-05
0.0904102
-6.16852e-06
-0.0356679
0.0932137
-5.86557e-06
-6.34871e-06
0.0360792
-5.42904e-06
-5.3484e-06
-0.00230341
0.00934661
-0.00102839
-6.40619e-05
0.0880619
-5.61891e-06
0.0124958
0.0712057
-2.41151e-06
-0.0048613
0.0199172
0.0997932
0.0516941
0.0718525
0.0328681
-1.16946e-05
-9.17175e-06
-5.50933e-05
-0.000110045
-5.43113e-06
-0.0013155
-6.3019e-06
0.0730209
-0.00100856
0.000467169
-0.00178425
0.0732661
-0.00176473
-0.00192282
0.00314678
0.122466
0.00112306
-5.74377e-05
-3.10159e-06
-0.0798822
-5.70674e-05
-1.05069e-05
-0.0255097
-1.3024e-05
-0.109235
-6.19482e-06
0.0414748
-5.60852e-05
-1.11102e-05
-2.32125
-1.18505e-05
-3.34696e-05
0.028588
-0.229722
0.0248693
-8.58241e-05
-0.000206614
-2.24939e-05
-0.000152845
0.000125347
-0.00014175
-2.08011e-06
0.0355516
-8.56643e-05
-5.16804e-05
0.041596
-8.58568e-05
-7.49025e-05
-0.00287184
-4.18585e-05
-0.00015759
-1.16832e-05
0.00116871
-1.11358e-05
-0.000330171
-0.0103914
0.084167
-1.02052e-05
-7.32362e-05
0.0277839
-4.11526e-05
2.48003e-05
-0.000110536
-7.44081e-05
-0.307663
-9.86282e-05
-1.02608e-05
1.24833
-9.03348e-06
0.0260951
-5.38571e-06
-3.17185e-05
9.55375e-05
0.0682355
-7.12687e-05
-0.0431186
-0.0125275
-9.42846e-05
-2.17944e-05
-0.00699229
-6.86745e-05
0.154456
-7.68674e-06
0.301967
-0.000222489
-0.000111252
-6.93599e-05
0.00558508
-5.469e-05
-0.00523691
-0.000107926
-0.00022104
-4.4945e-05
-1.43829e-05
0.0174029
-1.10932e-05
-6.4096e-05
7.48218e-07
-0.00021878
-6.64573e-05
-0.000114661
0.062183
-2.08293e-06
-0.000372079
2.61054e-06
-8.10379e-06
-3.8379e-06
-1.45938e-06
-6.62931e-05
-1.13621e-05
-0.000163354
0.0831978
-0.000142831
-0.000100941
-5.32864e-05
-2.11163e-05
-0.00946339
-1.47927e-05
-0.199921
-0.0374453
0.0896656
-0.000458316
-5.64489e-05
-7.59475e-05
-2.95505e-06
-3.74523e-05
0.00444644
-5.20899e-05
0.091695
-0.000153492
0.101239
-0.00046424
-1.94627e-06
-8.47084e-06
0.038642
-1.45673e-05
-7.63342e-05
0.0104795
0.000824576
-2.8371e-05
0.0585172
-1.95667e-06
-5.27982e-05
-2.57429e-06
-1.75526e-05
-0.0127585
-0.00027373
-2.49767e-05
-0.000112183
0.00126626
-0.000111275
-0.000184453
0.00099743
-0.00548561
0.00302246
-0.000359908
-7.75707e-05
-3.39763e-05
-0.000207213
0.0637832
-0.350618
0.052038
-8.13679e-05
0.000859604
-0.00027413
-2.91122e-05
-1.0171e-05
-0.000273224
-4.33331e-06
-0.000115336
0.0929139
-1.19209e-05
-1.21696e-05
0.00502992
-0.2792
-0.000185125
0.0178971
-6.95319e-06
0.0545187
-5.37595e-05
0.0864712
-0.000121943
-1.63753e-05
0.0176789
-0.0100406
-8.883e-06
0.00377095
-6.82159e-07
0.00291177
-6.23162e-05
-0.0120805
-0.0971707
8.04513e-05
-0.232979
-1.18944e-05
0.0633721
-1.01106e-05
-5.6234e-05
-2.87494e-05
-3.89262e-05
-4.67026e-06
-0.000136909
0.0390897
-0.164564
-8.18159e-05
-6.17597e-05
-0.000709765
-1.66557e-05
-7.91283e-06
-3.69237e-05
-0.00160009
-5.80391e-05
0.0297543
0.14834
-0.00277522
-1.59548e-06
-0.00304612
0.00329954
-0.000137163
-6.96109e-05
0.0844566
-1.34316e-05
2.34839e-06
-1.29382e-05
-0.00648432
-2.07638e-05
-1.17341e-05
0.0376072