/*--------------------------------*- C++ -*----------------------------------*\
| =========                 |                                                 |
| \\      /  F ield         | OpenFOAM: The Open Source CFD Toolbox           |
|  \\    /   O peration     | Version:  v2012                                 |
|   \\  /    A nd           | Website:  www.openfoam.com                      |
|    \\/     M anipulation  |                                                 |
\*---------------------------------------------------------------------------*/
FoamFile
{
    version     2.0;
    format      ascii;
    class       surfaceScalarField;
    location    "150";
    object      meshPhiCN_0;
}
// * * * * * * * * * * * * * * * * * * * * * * * * * * * * * * * * * * * * * //

dimensions      [0 3 -1 0 0 0 0];
oriented        oriented;


internalField   nonuniform List<scalar> 
20580
(
-0.000346354
0.000207556
0.000141746
0.000414702
-0.00041828
-5.26084e-06
0.000306374
9.95734e-05
-0.000499497
0.000591698
-9.24474e-05
-4.83302e-05
-8.95171e-05
8.82566e-05
0.000261323
-0.000730214
0.000457003
-0.00108657
0.00118816
2.4896e-05
-9.35696e-05
4.17331e-05
-0.000177142
-3.24283e-05
0.000209591
0.000551999
-0.00287296
0.00230114
-0.00032105
0.000818849
-0.000502816
0.00012716
0.00128318
-0.00144103
-0.00239821
0.000498636
0.0018858
4.70635e-05
6.61171e-05
-0.000106808
5.8489e-05
0.000300508
-0.000359272
-0.00071281
5.58576e-05
0.000655795
0.000369429
-0.000326565
-4.259e-05
0.0004851
0.000148818
-0.00064992
0.000182969
-7.81964e-05
-0.000105529
-0.000105648
-0.000237102
0.000246043
-0.000302613
5.1863e-05
-0.000357242
-0.00121367
0.00154831
0.000671909
-0.000379664
-0.000293134
-7.44774e-05
9.89207e-06
5.51842e-05
0.000412083
-0.000113578
-0.000299587
-0.000896684
0.00072359
0.000175456
-0.000431191
0.000172927
0.000258092
-0.000113825
9.9341e-05
1.29142e-05
-0.000415691
0.000322497
9.42314e-05
0.000209517
-0.000798853
0.000560428
-1.52224e-05
-0.000401888
0.000417155
0.00019674
-0.00126403
6.40167e-05
0.000218786
-0.000284727
0.000167292
-2.98552e-05
-0.00013675
0.000379335
0.00032845
-0.000710931
0.000319764
-0.000495878
0.000175103
-6.5841e-06
-6.98982e-05
0.00059393
-0.000420533
-0.000174178
-0.000267846
2.18693e-05
0.000245843
-0.00235429
0.00168377
0.00063865
-7.0383e-05
-1.6279e-05
8.60573e-05
-0.000280625
-0.000134989
0.000185481
0.000203225
0.00106799
-0.000794386
-0.000276972
-0.000166183
-0.000189374
0.000355618
-1.68694e-06
-0.00142213
0.00138328
3.87747e-05
-0.00029482
-0.000365049
0.000521441
-0.000155531
-0.001756
0.00054996
0.00117721
-0.000169566
-0.00224152
3.28321e-05
0.000112052
-0.000144782
-0.00291892
0.000837415
0.00206834
1.03711e-05
-0.000715894
-0.00107189
0.00059625
0.000486657
0.000231475
-0.000242794
1.14659e-05
-0.0015516
-0.000825408
0.000245942
-0.000180764
-9.26238e-05
2.15953e-05
-0.000552297
0.000419574
0.000133681
-7.52772e-06
8.06545e-05
-7.38269e-05
-0.00130172
0.00139636
-0.00018209
-0.000249267
-0.00252702
0.00259745
-8.23845e-05
-0.000924581
-0.000855845
-0.00105188
0.000545151
0.000504273
-0.000718917
-0.000335188
-6.36107e-05
5.59963e-05
-0.000227219
0.000996701
-0.000370415
-0.00131935
0.00165983
0.000513192
-0.000490091
-2.32184e-05
0.000179732
-0.000368897
0.000189125
0.000146362
-0.000267421
0.000120063
0.00250329
-0.00179147
-0.000733207
2.56143e-05
5.4412e-05
0.000625231
-0.000827965
0.000207194
-0.000631727
-0.00111847
0.00172666
1.81767e-05
0.000350846
0.000304731
-0.000374567
5.38592e-05
5.46943e-05
0.000356064
-0.000129584
0.00192026
-0.00183356
0.00114743
-0.00154741
0.000363979
0.000127935
-0.000493036
0.000940779
-0.000569707
2.45271e-05
8.51487e-05
-9.80428e-05
8.63342e-05
-6.13617e-05
-0.000348569
-0.000144564
0.000493008
-0.00145882
0.00108209
1.27053e-05
0.000275666
-0.000288424
-0.00237349
0.00236972
-1.80892e-05
0.000321139
-0.000336352
-0.000429354
-0.0025001
-0.000914651
0.00112829
3.46254e-05
0.000150826
4.77814e-05
-0.000396537
0.000264379
-0.000122771
-0.000141615
-0.000613095
0.000954293
-0.000344377
0.00265491
-0.00128871
-0.00140675
0.000221453
0.000477652
-0.000696605
-2.58375e-05
0.000103149
-7.74471e-05
0.000850338
-0.000343037
-0.000510226
-0.000359718
0.00058299
0.000583332
-0.00145628
0.000873085
0.00140659
-0.000266804
-0.00113991
-0.0024174
0.00261132
-0.000212944
0.000178214
-0.00125244
0.0010401
0.00025819
-0.000227255
-3.33913e-05
0.00138321
-0.00124614
-0.000164336
0.000344018
-0.0010964
0.000198378
-0.000153348
0.000616602
0.00172285
-0.000513767
-0.00122377
0.00156343
-0.00161008
0.000165865
0.000134317
-0.000301344
-0.000437195
0.000429426
4.02327e-06
-0.000382521
3.37269e-05
0.00034961
-0.000464499
-0.000601413
0.00093733
-0.000594761
-0.00037215
7.96677e-05
-7.97739e-05
-0.000399045
-0.000100619
4.84599e-05
0.000464361
0.00102452
-0.000284741
-0.000743699
-0.000550076
-0.000301654
0.000824134
0.000942565
0.000597126
-0.00156552
0.0001254
-8.19537e-05
-4.34942e-05
0.000124695
-0.000141776
1.6568e-05
-0.000975109
1.27048e-05
0.000964297
0.000953999
0.00165316
-0.000947433
0.000790708
0.000149002
3.03292e-05
8.90122e-05
-0.000120177
-8.53017e-05
0.000280311
-0.00019873
0.000405567
-0.00163949
-0.0010358
0.000130229
0.000889234
0.000227499
0.000366125
-6.98221e-07
0.000168714
-0.000685748
0.000360485
0.000202089
-1.95828e-05
-0.000182334
0.000998462
0.000208355
-0.000353017
0.00170524
-0.000637526
-0.00106861
9.28545e-06
-0.000373719
0.000365535
-0.000203865
0.000568255
-0.000356633
-0.00176666
0.00210841
-0.00268927
0.000296647
2.93198e-05
-0.000837202
0.0008083
0.000289069
-0.000238737
-5.17791e-05
0.00203854
-0.000953044
-0.00110797
0.000340794
-5.11817e-05
-0.000354277
1.4225e-05
-0.000247468
0.000232939
-0.00088982
-6.28005e-05
-0.000581232
0.000222259
-0.000212815
0.000378549
-0.000429654
-1.0497e-05
7.59239e-05
-0.000174596
9.79519e-05
-0.001972
0.00273868
-0.00077854
0.0028907
-0.0024731
-0.000429863
0.00154993
-0.00150419
-8.14273e-05
-8.19767e-05
-0.000186056
-0.000263526
0.000348466
-8.44717e-05
-0.00084026
0.000689955
0.000156726
-0.000166021
0.000130697
2.157e-05
0.000414324
1.68399e-05
-0.000429887
0.00019912
5.13836e-05
-0.000613751
0.000249916
-7.9434e-05
0.000135771
-0.000305748
0.000250408
5.58372e-05
-8.44056e-07
-0.000304219
-0.000129253
0.000162365
0.00125356
0.000453781
0.000137367
-5.4148e-05
-8.37428e-05
-7.31651e-06
-0.00133372
0.00131025
0.000391836
0.000507579
0.000115767
-0.000281871
0.000164242
8.42045e-05
-0.000160413
3.76838e-05
9.534e-05
0.000167817
0.000113526
-0.000324656
0.000211419
-0.000262899
-0.000212456
0.0004759
0.000824373
-0.00046693
0.000780943
0.000122226
-0.000895584
0.00029897
-0.000562369
0.000126571
-4.43839e-06
0.000451392
-0.00157042
0.00041575
0.00113944
0.000323155
-0.000409851
0.000179259
0.00015862
-0.000194533
0.000208459
-7.44688e-05
0.000291857
0.0019882
-0.00174136
-0.000249423
0.00177412
-0.00278265
0.000995477
0.00125381
-0.00128609
-4.9343e-06
8.70842e-05
0.000203387
9.95699e-05
-0.000362647
-5.09521e-05
0.000132066
0.000582121
-0.000332476
0.000653742
0.00136197
0.000107913
0.000626351
-0.000728787
0.000165347
-0.000240528
7.22505e-05
0.00027354
-0.00034922
-0.000835462
-0.000146071
0.000957533
-0.00137179
0.000607367
0.000766051
-0.000255715
-0.000297255
0.000552355
-0.000102477
-3.20322e-05
0.000134419
9.06487e-05
-9.08959e-05
9.94906e-07
-0.000356439
0.000414221
0.000597167
-0.00058462
-1.39145e-05
-0.000143711
4.10531e-05
0.00130775
0.000908144
-0.0022196
0.000656255
-0.000132294
-0.000522348
0.000187329
-0.000232238
4.53294e-05
0.000810079
-0.000777331
-4.55621e-05
-0.000787965
0.000166811
0.000623798
-0.000640099
0.00156033
-0.000459319
-7.89699e-05
0.000681899
-0.000608266
0.000570105
0.00014435
-0.000719632
0.000253913
0.00126014
-0.00153327
-0.00250552
0.00232211
-0.000154742
0.00018819
-3.34448e-05
-0.000624244
0.000273938
0.00032973
0.000108881
0.00042168
0.000467494
0.000323788
0.000271666
-8.06255e-05
-0.000189197
-0.00010686
0.000126181
-5.50056e-05
-0.000150379
0.000205974
-0.00186043
0.000531323
0.00132596
0.000188543
0.000469634
2.10957e-05
0.000271071
-0.000298176
0.000914532
-0.000885144
-0.00208569
4.42065e-05
0.0020026
0.000895067
0.000669575
-0.000469513
-0.000200277
0.00146744
0.00051685
0.000713232
8.11783e-05
0.000135674
0.00224385
1.39991e-06
8.91508e-05
-0.000564796
0.000743202
0.000423425
0.000247197
7.88255e-05
-9.33871e-05
1.56233e-05
0.000301707
0.000545028
-0.000148617
-2.28223e-05
0.000654694
0.000100049
-0.000756643
-1.86119e-05
9.3593e-05
-7.5353e-05
-0.000414507
0.000248318
-0.000734113
0.000155815
-0.000249822
0.000100055
0.000783557
1.99101e-05
-0.000802961
3.45704e-05
-0.000188549
0.000933372
-0.000145601
0.000353338
0.000597946
-0.000642362
-0.000889189
0.00151747
-0.000288764
2.64201e-05
0.000262166
-0.000164382
0.00014191
1.91007e-05
0.00011893
9.83109e-06
-0.000179755
3.37225e-05
0.000203689
-0.000243247
0.000589947
5.8668e-05
0.000355959
0.00030067
-0.000461961
0.000161011
0.000240649
0.000984171
7.47629e-05
-0.00228788
0.002333
-6.26849e-05
0.000258458
-2.55639e-05
-0.000243263
9.9281e-05
-0.000141448
4.2745e-05
-0.000154915
0.000183777
0.000209056
-1.6693e-05
-0.000159387
-6.18414e-06
-0.00282507
0.000890875
0.0019047
0.00128004
-0.000695606
-0.00027248
0.000552385
-0.000279262
0.000161806
-8.45498e-05
-7.77321e-05
-0.000502371
0.00234427
-0.00187159
-0.000122608
-0.00239521
-0.000395959
9.753e-05
0.000128602
-0.000227201
0.000398149
-0.00052337
0.00012541
0.000315909
-0.00019358
-0.000123236
0.000147067
-0.000718736
0.000108932
1.55154e-05
-0.000156192
8.65186e-05
6.89671e-05
0.000102182
0.000307002
-0.000409204
0.000198151
6.10519e-06
-9.74111e-05
0.000194393
-4.85285e-05
8.43694e-05
-3.58444e-05
0.000373208
-0.000245834
-0.000134356
-0.000497338
0.000226851
0.000280157
0.00024678
0.000272863
-0.000520188
0.00185803
-0.0010389
-0.000859232
-0.00132406
0.00140311
-0.000113366
-0.000193754
0.000296027
-0.000936973
0.000607408
0.000325332
-0.000305063
-0.000406316
0.000686191
0.000542035
-0.000638084
8.01842e-05
-0.000462441
-0.00165848
-0.000128814
-3.93527e-05
0.00010994
-0.00015711
-0.000132205
0.000272821
0.000188271
3.29441e-05
-0.000209961
-9.16722e-06
0.000254826
0.00217409
-0.000710256
-0.00149515
0.00037881
8.23439e-05
4.27324e-05
-0.00272215
0.00194632
0.000761668
0.000168635
2.10778e-05
-0.000108505
8.77782e-05
-0.00204744
0.00167759
-0.00228644
-0.000445867
-0.000256793
0.000245259
0.000260207
-4.63692e-05
-0.000221166
0.000382104
-0.000366917
-1.60138e-05
0.000214271
-0.000114154
-0.000100897
9.89834e-05
-0.0001974
6.76526e-05
6.91895e-05
-0.00133747
0.000225542
-0.000130142
-9.6965e-05
-9.45949e-05
0.000116425
0.000179214
-9.3124e-05
-8.54572e-05
-0.000504542
-0.000328709
-0.000233106
0.000478732
-0.000675399
0.000441503
0.00023307
-0.000487101
8.98853e-05
0.000396234
-9.21893e-05
0.000365861
-0.000274915
0.00152564
-0.000654935
-0.000869474
2.46805e-06
0.000199388
0.00011816
-9.78265e-05
-2.12301e-05
-2.37284e-05
-9.14842e-05
2.97597e-06
-0.000859071
-0.000397788
7.26719e-05
0.000325069
-0.000241293
-5.29636e-05
0.000671379
-0.000716447
4.61677e-05
-5.07696e-05
0.000723651
-0.00020932
0.00151554
0.000128153
0.000120928
-0.00025026
-0.00194958
0.000639291
0.00130155
-0.000225342
0.00023806
0.00156567
-0.000738298
-0.000826505
0.000266946
-0.000363648
4.63563e-05
0.000395289
-0.000288233
0.00128135
-0.000139898
-0.00115685
-0.000344194
-0.000143438
0.00058462
0.000578038
0.00123598
-0.000177804
-0.00190104
0.00144489
0.000447908
-0.000371318
-0.000675049
0.000491715
0.000204028
7.30335e-05
0.000129278
0.000126855
-1.88542e-05
0.000641268
0.00192103
-0.00169235
0.000787645
-9.01879e-05
-0.000370204
-5.67031e-05
0.000427506
-0.000758686
0.00252048
-8.09014e-05
0.000121977
0.000240981
-0.000212352
-4.67474e-05
-0.000389563
-0.00151843
6.33998e-05
0.000301233
0.00183894
0.000656185
-0.000168353
-0.00049011
-0.000747528
0.000402388
-0.000141415
0.000152868
-1.39607e-05
-0.000448547
0.000137907
-0.000507736
0.000501584
-0.00146998
-1.11955e-05
-0.000198575
-2.23299e-05
0.000221325
-0.000191887
0.000363273
-0.000175681
0.000113271
6.50601e-05
-0.000312658
0.000178669
0.000134514
-0.000112067
8.60661e-05
0.000967021
0.000296567
-0.0004256
0.000837591
-0.000364065
-0.000188174
0.000144092
0.000294251
-0.000438594
-0.000385248
-0.000247237
0.000632063
0.000246665
8.04697e-05
-0.000327193
0.000815749
0.000106801
-0.000941408
0.000251496
-0.000136285
0.000453607
-0.000268106
-0.000277879
-9.04225e-05
0.000361664
-7.41543e-05
-0.000214589
0.000290021
-0.000420206
0.000124272
-8.68e-05
-1.60752e-05
0.000104071
-0.000169817
-0.000312559
-0.00104628
0.000331855
8.80121e-05
-0.000153046
6.61863e-05
0.000792457
-0.000304725
-0.000489564
0.000862749
0.00201502
0.000258788
-0.000486533
0.000219472
-0.00045625
-0.000484994
0.000752423
0.00124568
-0.00162565
0.000349738
0.000146326
0.000169945
-0.00020981
0.000117801
9.19965e-05
0.0011863
0.00130062
0.000421994
-0.000552614
-0.000403778
-0.000143619
0.00054752
-0.000660731
-0.00015559
0.000800176
-0.000846334
0.000591684
0.000252557
-0.00086048
0.000149678
0.000712596
0.000405966
-2.43068e-05
-0.000391004
-0.000399782
-0.000291982
-0.000604637
-0.000271846
0.000866783
-4.30094e-05
8.95333e-05
-0.000240545
0.000151736
-0.000100338
0.000400775
6.71327e-05
-0.00010952
0.000762658
-0.00132531
-0.00152449
9.71733e-05
0.00055382
0.000579347
-0.000261836
-0.000323575
0.000459122
-0.000882537
0.000264171
0.000593794
-0.00088223
0.000249168
0.000117579
-9.87823e-05
0.000127222
-2.93094e-05
0.000276545
0.000105343
-0.000382221
0.000615463
0.000157153
-7.25439e-05
0.000389823
-3.93548e-06
-0.000385122
-0.000129554
0.000527768
0.000508984
-0.000646172
0.000153735
-6.73678e-05
-0.000330669
-0.000554968
-0.00012897
0.000681582
0.000374661
-0.000673146
0.000297888
0.000577597
-0.00123084
0.000119019
-0.000191258
7.15419e-05
0.00257965
-0.00185291
-0.000744158
-1.91618e-05
6.65049e-05
0.000196684
3.492e-05
0.000290302
-0.000325282
3.5047e-05
0.00246335
-0.00192839
-0.000153107
-0.000272126
-9.42588e-05
0.00051759
0.000878763
-1.59393e-05
-0.000902846
-0.000124785
2.53617e-05
-7.81731e-05
0.000205725
-0.000156776
-0.000155938
-0.000593921
0.000171739
0.000424012
0.000943466
-0.000151828
-0.00166053
-0.00095518
0.00261017
-0.000334141
0.000477806
-0.00248237
0.0017349
-0.00265929
0.000992835
0.000543367
-0.000313654
-0.000229672
-8.26446e-05
-0.000127644
-0.00117928
0.00156498
0.000515556
-0.000336395
-0.000179213
-0.00235116
-0.000179518
0.000121226
0.00124299
9.78929e-05
-0.000774753
-2.20716e-06
-0.00049291
-0.000372304
0.000867522
0.00101775
-0.00168577
0.000640399
-0.00038056
0.00079781
-0.000433346
0.000595543
0.000425821
-2.09806e-05
0.000318966
-0.000309483
0.000153474
0.000208136
-0.000359886
0.00174071
-0.00126768
-0.000517308
0.00050166
-0.000879018
0.000390643
0.000199819
-0.00038916
0.00169289
-0.00102406
-0.000674092
-7.05849e-05
-0.000139386
0.000237363
2.16479e-05
0.00134768
-0.0013986
-0.000123725
-0.00046341
0.000452711
-0.000374404
-8.07331e-05
0.000855572
-0.000281422
-0.000576058
-0.000383721
-5.6035e-05
0.000439915
0.000238158
-7.5777e-05
0.000102588
-0.000463972
0.000362962
0.000697582
-0.00184317
-1.5943e-05
0.00182492
3.5084e-05
0.000119468
-0.000153772
0.00015195
-0.000583675
-0.000900921
0.00148268
0.000756563
0.00128327
-0.0020618
3.57572e-05
0.00046264
0.00124138
-9.56679e-06
0.000563096
-0.00055484
-0.00052897
-0.00190287
-0.000820015
0.000864397
-5.61227e-05
-0.000555846
-0.000478678
-0.000193858
0.000675979
-0.000123328
2.44806e-05
0.000108395
0.000281455
-0.00017392
0.000451625
-0.000865491
0.00166698
-0.000811924
-0.000305309
-0.00254986
0.00217048
0.000348368
0.00034046
9.17136e-05
-0.000947818
-0.00012676
0.000291508
0.000153135
0.000416336
0.00126528
0.000774051
0.000911944
0.000235171
4.14886e-05
-0.000170123
0.000258056
0.000195874
-0.000454014
0.00013461
-0.00010026
0.000460494
-0.000305852
0.000414375
-0.00051415
9.95273e-05
0.000159707
0.000240823
3.65549e-05
-0.000277387
-5.47399e-05
-0.000634545
0.00190485
-0.00127471
7.2534e-05
-0.00113023
0.00104475
-0.000547153
-0.00030023
-0.00256277
-0.000325326
-0.000509024
0.00172082
-0.00175175
0.000517553
0.00123039
-0.000241319
7.32997e-05
0.000167078
1.07559e-05
-0.000301298
0.000282696
0.00146323
0.000734356
-0.00220986
-0.000162136
0.00085146
-0.000694446
6.33391e-05
-0.000346251
0.000280854
5.96366e-05
0.00219473
-0.00226365
-0.000313248
0.000267013
4.60442e-05
-0.000405832
-0.00133317
0.00170377
0.000133191
-2.60673e-05
-0.000108276
6.02787e-06
0.000847104
-0.00168287
0.00151733
-0.000350594
-7.09324e-06
0.000356093
-0.000164967
-0.000416855
0.000579826
6.91929e-05
-0.000899638
0.000468444
-3.54729e-05
-0.000433666
-0.000693823
0.000145827
0.000712753
0.000192966
-0.00090301
-0.000104561
-0.000227954
0.000332869
0.000102421
7.96643e-05
0.000213416
-7.353e-05
-0.000139355
-0.00179586
0.000918028
-0.000489662
0.000176031
7.34227e-05
-6.08996e-06
-6.73207e-05
-7.20488e-06
0.000721549
0.000300913
-0.0003063
4.22487e-06
-5.99925e-05
-0.00170772
0.00173409
-0.00173079
0.000309713
0.000269363
-0.000578949
-8.3473e-06
-7.76801e-05
9.99873e-05
-0.000465749
0.000360511
0.000440533
-0.000931848
0.00248567
-0.000181868
-0.00231661
-0.000403674
-0.000243968
0.000647884
0.000126968
-9.75502e-05
-0.000235572
6.29367e-06
0.000229048
9.80892e-05
0.000439347
-0.000538517
0.000168346
0.000131095
-0.000299569
-0.000642275
-0.00140494
-0.000140132
0.000941804
5.24982e-05
-0.000989329
-0.000124906
0.000648228
-0.00180602
0.000669256
-0.000184622
-0.000155373
0.000340875
0.000428079
0.000362276
-0.000288331
0.000295624
-0.000295946
0.00226945
4.50793e-05
9.06285e-05
0.000155733
-0.000246827
-0.00146598
0.00121177
0.000234084
-0.000574441
0.000563356
7.64456e-06
0.000252147
0.000353051
-0.000602998
0.000558332
0.000221162
-0.000775428
0.000138523
0.000147444
-0.000289401
0.00013454
0.000254318
-0.000388963
-8.77312e-05
3.93358e-05
-0.000298577
-0.000221424
0.000510329
0.000103632
0.000349922
0.000802746
-0.000352161
-0.000444934
-0.000303371
0.000315928
-1.62909e-05
0.000131954
-0.000412396
-6.14825e-05
-0.0001813
0.00144234
0.000332581
-0.00180528
-0.00168365
0.00123244
0.00017395
0.000107009
-0.000261897
0.000624347
-0.000379888
-0.000245232
-0.000763513
0.0003611
0.000551369
-0.000562294
0.000172764
0.000773853
-0.00049408
0.000338715
0.000374512
0.000294526
-9.36824e-05
0.000324712
-0.000231194
0.000842143
0.000251749
-0.00109933
2.9562e-05
0.000102677
-0.000452898
0.000137144
0.000315834
0.00043532
-0.000163811
-0.000271313
9.10287e-06
-0.000979492
0.000948607
-7.49895e-06
0.000428517
0.000162888
-4.44256e-05
5.32178e-05
0.00166404
-0.00174907
-0.000155736
0.00019052
-1.23413e-05
0.000183151
-0.000171135
-0.000332751
0.000331966
0.00021139
0.0017628
-0.00200089
-0.000497259
0.00059998
0.000553498
0.000334701
-0.000890914
0.000445222
0.000183861
-0.000629853
-0.00126483
-0.00124688
-7.124e-05
0.000117817
-7.84284e-05
0.00162552
0.000365129
-0.00199355
-0.000337202
0.000396876
0.000164613
0.0015327
-0.000147071
8.60674e-05
-0.000187735
-0.000125614
-0.000327017
0.00138735
0.000555915
-0.0019544
0.000808406
-0.000347774
0.00105437
0.00153733
-0.00176532
0.00181759
-0.00117149
0.00130232
-0.000141627
0.000321347
-0.000153116
8.50621e-05
-0.000280319
0.000194595
-0.000169524
-0.00070243
-0.00105378
0.000265302
0.000752676
-0.000244478
-0.000147289
0.000383295
-0.000198271
-8.57829e-05
0.000339752
-0.000733859
0.000262089
0.000123858
-0.000386482
-0.000301025
0.000306305
-1.28771e-05
0.000782112
-0.00136767
0.000519498
-0.000525254
0.00148747
-0.000119349
-0.00138296
0.000189978
0.000244551
-0.000434564
-0.000414519
0.000430167
-4.11886e-06
0.000834715
-0.000826876
-0.00031345
0.000417015
0.00015257
-0.000338441
0.000185387
0.0016748
0.000720309
-0.00027627
0.000766862
-0.000934721
-0.000412563
-0.000445719
0.00085623
0.000132799
-0.000145044
-0.00014439
-0.000337003
0.000476879
-0.000142367
-0.000171014
-0.000513252
-0.000364879
8.27555e-05
0.000649559
-0.000235372
-0.000299233
0.000265696
3.26716e-05
-0.000319352
0.00012377
-0.000158508
0.000418607
-0.000293686
0.000361218
0.000167456
0.000268733
0.000133658
-0.000183446
4.97665e-05
0.00194113
-0.000756334
-0.00121004
-0.000373581
-4.57808e-05
-5.65685e-05
0.000101235
0.000111958
0.000378495
-0.000500324
-0.000504856
0.000608625
0.000118594
0.00060663
-0.000202333
0.000392211
0.000175145
0.000304206
-0.000479229
-0.00061964
-0.00167259
7.58855e-05
-0.000168873
9.33497e-05
0.000252039
-0.000283815
0.00169266
0.000846856
-0.00255058
-0.000381106
-8.59575e-05
0.000467517
-7.60881e-05
0.000370235
0.000392341
-0.000764507
0.000653937
-0.000225037
-0.00041308
-0.000479262
0.000207254
-0.000757007
0.00138976
-0.000637197
0.00091717
-0.000572222
-0.000345439
-0.0011384
0.00209504
-0.000961152
-0.00125128
0.00188297
-0.000474246
0.00102275
0.000334584
0.00128774
-0.000416171
-0.000196109
-0.00012052
0.000266167
-0.000121694
-0.000146909
-0.000291053
0.00112803
-0.000216733
0.000777943
8.52814e-05
-0.000163912
-0.000164015
-6.52283e-05
0.000228289
0.000530407
-6.29456e-05
-9.54302e-05
-0.000485149
1.15249e-05
5.8081e-05
-7.9758e-05
0.00158456
-0.00129244
-0.000302117
0.000502871
-0.000192829
0.000133694
-0.000633403
0.000747993
-0.000133318
-0.000131013
-0.000364132
-0.000108879
0.000193495
0.00139704
-0.000443779
-0.000970173
0.00202253
-0.000145516
-0.000257887
-0.00163638
0.00185323
0.000698653
0.000141696
-0.000838374
0.000307033
-6.03441e-05
-0.000341573
0.000837507
-7.39686e-05
-1.85052e-05
-0.000867666
-0.000225783
0.00044455
-0.000269121
0.000857246
5.18778e-05
-0.00091319
1.50643e-05
-0.000108904
-0.000516545
0.000356088
-0.000731833
0.000329633
-5.26055e-05
0.000350728
0.000134697
-0.000119208
0.000707349
-0.000338528
0.000460324
0.00111266
0.000286803
0.000120586
0.000800217
0.000139058
0.000606613
-0.000747709
0.000697579
0.000254364
-0.000379714
-9.19153e-05
0.000567186
-0.000482355
0.000439953
0.000108577
-0.000550183
0.00141752
0.00114902
-0.000497974
0.0024247
-0.00152138
-0.00132635
0.00300772
0.000250693
-0.000384153
0.000133638
3.72825e-05
-0.000211576
0.000220779
-0.000602334
0.000218188
-0.000182455
-0.000335966
-0.000213671
2.61817e-06
0.000210901
9.28627e-05
1.0196e-05
-9.61325e-05
0.000350879
-0.000692681
0.000278431
0.000744348
0.000929293
0.00178193
-0.00233858
0.00220423
0.000235905
0.000124603
-0.000375397
0.000153212
-0.000411857
-0.00010545
0.000287836
-4.58211e-05
-0.00024445
0.000322589
-0.000345905
2.20451e-05
0.000585161
-0.00134588
-1.55014e-05
0.000112966
0.000998408
-0.0016409
0.000623593
0.000220533
-0.000211942
0.000216423
0.000209492
0.000381858
-0.000885219
0.000254756
0.000622242
-0.000308751
8.78126e-05
0.0022038
-0.00222379
1.52171e-05
0.000179121
0.000132016
-0.000312091
-0.000580631
-0.000162821
-0.000325841
0.000346479
-2.10355e-05
-5.32505e-05
0.000186424
-2.65103e-05
-2.22504e-05
-0.000147416
0.000169401
0.000575622
-0.000924675
0.000363957
0.000116695
-0.000146782
0.00198502
-0.000770498
-0.00122775
-3.38905e-05
-0.000276033
0.000434009
-0.00178972
0.00177569
6.60746e-06
-0.00247543
0.000692837
-5.47727e-05
-0.000265532
0.000312807
-0.0007795
0.000610827
0.000171836
0.000125308
0.000184279
-0.000309608
-0.000881619
0.000184599
0.000685706
-0.00035973
-0.000145357
0.00050206
-6.54252e-06
-0.000550396
-3.49455e-05
-0.000200973
-0.000949127
-0.000793683
0.00186877
-0.000853015
-0.00102792
0.000299409
-0.000444348
0.000145333
-0.000108907
0.000330199
-0.000196262
-0.000371846
0.000312203
3.75197e-05
8.35324e-06
0.00030025
-0.000335155
0.000319218
1.48817e-05
0.00041173
0.000140353
-0.00055065
-0.000409291
2.75838e-05
0.000535494
-0.00065231
0.000112984
-0.000154673
-0.000488469
-0.000849205
0.00132358
-0.000181601
0.000186805
-2.72109e-05
-0.000277688
0.000910598
-0.000922978
-0.000913001
0.000415007
-0.000189158
-0.000688947
0.00088462
0.000715174
-0.000630145
-8.78368e-05
0.000686867
0.00024579
-0.000968569
-0.000275727
-0.000535478
0.000807492
0.000728677
2.26576e-05
0.000417213
-0.00043981
0.000609826
-7.83594e-05
-0.000551714
0.000444104
0.000107299
-0.00151996
0.000881726
-1.66374e-05
-0.000306988
-0.00035776
0.000663616
-0.000574313
0.00112215
-0.000584969
-7.58372e-05
0.000327167
-0.00030597
0.000140647
0.000455622
-0.000511597
-0.000236251
-0.000273446
-0.000171375
-0.00199366
0.000497862
0.00146075
0.000567589
0.00134905
-3.63595e-05
-0.000928023
0.000959838
-0.000618371
-0.00125893
0.0018565
-0.0012708
0.000962652
0.000276807
-0.000642356
0.000261812
2.81704e-05
0.000227582
0.000247708
-3.6576e-05
-0.000210859
0.000668628
-0.000106841
0.000519735
0.00142653
0.00110436
-0.00254254
-0.000769371
-5.21405e-05
0.000442353
0.000265186
-0.000708531
2.93409e-05
-0.000186161
0.000292958
-0.000799062
0.000908869
-0.000117247
-0.000261834
0.000296144
-7.71219e-05
0.000399696
-0.000323949
-8.95088e-05
0.000614125
-0.00259712
-0.000107436
0.000799639
-0.000717141
-0.00014575
0.00027081
0.00105122
-0.00219526
0.000233656
-0.000352256
0.000114545
0.000953318
-0.000119429
-0.000213172
4.96572e-05
0.000162951
-2.31574e-05
9.51307e-05
-6.38568e-05
0.000413744
0.0021958
-0.0025155
0.000302588
0.000837472
-0.000539181
0.000273077
-0.000161078
-0.000114907
0.000323762
0.000766953
-0.001095
-0.000454616
0.000304183
-0.00211643
-0.000391723
0.000504453
-0.000118777
-6.29699e-05
-0.000731705
0.000747895
-0.00058206
0.000269453
0.000312791
-0.00248173
0.000900154
0.00157242
-0.000268837
-0.000193169
-0.000928425
0.000713891
0.000194456
-0.00014813
0.000207248
-5.88112e-05
-0.000213132
7.99681e-05
0.000161347
-0.000606133
7.16633e-05
0.000526381
0.000583377
-0.000115834
-0.000509741
0.000684144
-0.000363928
-0.000320478
0.000161954
-0.000445458
0.000283365
0.00019143
-0.000497275
0.000648854
-0.000507104
-0.00248098
0.000129363
-0.000344741
0.000337266
7.85741e-06
0.000166543
-0.000821697
4.67572e-05
-0.000156326
-0.000253055
0.00203291
-0.00181109
0.000536725
-0.000634637
5.30042e-05
-0.000378894
-0.000108109
0.00143472
-0.00144161
-0.00016024
0.000762545
-4.00725e-05
-5.17518e-05
9.15937e-05
-0.00077358
0.000444692
0.000328023
-9.88525e-05
5.21694e-05
0.00129002
-0.00108063
-9.7805e-05
0.000120072
-0.00215053
0.00162198
-0.000212863
0.00085456
0.00104432
0.00168063
6.71309e-05
0.000376173
0.000808771
2.32912e-05
-0.000837288
7.96066e-05
-2.36665e-06
-8.61905e-05
0.000220846
-0.000249028
2.64101e-05
-0.000383064
-0.00026452
-0.000234761
1.5199e-05
0.000400665
-0.000302916
0.0013886
0.000151989
0.000299002
0.000384588
-0.000554416
-2.19608e-05
-0.00020139
0.000203707
2.96333e-05
-0.000426002
0.000138222
0.00173273
-0.00170967
-0.000151068
-0.000153976
0.00112924
-0.000276704
-0.000560252
0.000416223
-0.000316211
-6.77113e-05
-0.000667324
-0.000124469
0.000790056
0.000189656
-5.59339e-05
0.000212602
-0.000234824
-0.000147284
9.52048e-05
0.000307378
-0.000401243
0.000496193
0.00208643
-2.13622e-05
0.000459617
-0.000447712
0.000193998
0.000456414
0.000107336
0.000175076
-0.000282565
9.50405e-05
-0.000241397
-0.000130623
0.000403977
-0.000273511
-0.000141805
0.000170776
0.000649439
-0.000122104
-0.000388011
0.000609872
-0.000222392
-0.000511058
0.000122544
0.000295876
-0.000116856
-0.000179134
-0.000211169
0.000236486
0.00033068
-0.000566617
0.0019327
-0.000276947
1.81847e-05
0.000765435
-0.000232982
0.000232319
-2.90193e-06
0.000405999
0.000973743
1.52733e-05
0.000198706
-9.63505e-05
8.83325e-05
7.64576e-06
0.000960911
0.000670362
-0.00165068
8.22464e-05
0.000458447
0.00196464
-0.000552943
-0.000965635
0.00190165
-0.000140664
-7.28267e-05
0.00151463
-0.000347804
-0.00120264
-0.000430982
0.000399247
0.00014726
-0.000260336
-0.0015959
0.00116675
0.000406865
0.000410035
-0.000251431
-0.00210502
0.000512912
0.00158334
0.000414981
-5.07385e-05
-0.000362841
0.00010184
3.09755e-06
-0.000105215
-0.00138062
0.000393401
0.000231433
-0.000360854
-0.00065455
0.00100514
-6.17684e-05
-0.000552675
-0.00054995
-0.000224658
0.00164862
-0.000539047
0.000543437
-6.37859e-06
0.000629484
5.20618e-05
-9.26949e-05
-0.000743337
0.000482021
0.000248374
0.000353472
-0.000245854
-0.000107646
0.000311867
-0.000409107
0.000113599
-9.34141e-05
-2.0851e-05
0.000165823
6.80322e-05
-0.000233975
0.000254219
9.97735e-05
0.000483897
-0.000129572
-0.000353686
-0.0024214
0.0018338
0.0005687
-0.00135938
-0.000666996
-0.000429719
-6.05344e-05
0.000485168
-0.000738618
-0.000610948
0.00247807
-0.00188252
-3.46973e-05
-0.00117127
0.00157113
-0.00191605
0.00064314
0.00126721
-0.0015299
0.000579345
0.00153276
0.000384865
8.28953e-05
0.00117222
-0.00113974
0.000430055
0.000718649
-0.000776422
-0.000684604
0.00144444
-0.000320408
-3.11653e-05
-0.00141764
-5.9117e-05
0.000170465
-0.000124442
-4.61675e-05
-0.000602768
0.000226977
0.000376189
-0.000146097
0.000298191
-0.000156734
-0.000803243
0.00102655
-0.000231518
-7.49177e-05
-2.20148e-05
-0.00102665
0.00043278
-0.000343769
-0.000428857
0.000303057
-0.000466551
0.00149023
-0.00103609
-0.00185445
-0.000635153
0.00127953
-5.53919e-05
-0.00125361
-0.000893921
-0.000410764
0.00129714
-0.0019267
5.08104e-05
0.00131175
0.000164846
0.000945232
0.00058064
-0.00227768
-0.000204866
1.13622e-05
0.000700149
-0.000437618
0.000761568
-3.69315e-05
0.000189205
-0.000152132
-9.67389e-05
0.00012606
-3.12544e-05
7.95132e-05
-0.000143615
6.4174e-05
0.000267708
3.26477e-05
-0.000221351
-0.000272938
0.000480646
-0.000207538
-0.000189846
8.48713e-05
0.00010537
3.14339e-05
-0.00123425
0.00225818
-0.00153646
0.000419778
1.24603e-05
0.00112727
0.000886859
-0.00202145
0.00101304
1.1023e-06
0.000111296
0.000177797
-0.000581714
-0.000346168
-0.000660232
0.00100327
-0.000858981
0.00100639
-0.000170766
-0.000280193
-0.000131131
0.000130423
0.000506024
-0.00108281
0.00071111
0.000981747
-0.000751588
0.000169007
0.0004542
-0.000620408
0.000123423
9.02762e-05
0.00150012
0.000653752
-0.00216937
-1.7506e-06
7.52382e-05
-0.000482032
-0.00114373
0.00120457
-0.000282248
9.09337e-05
-0.000569485
0.000680428
-0.000112798
-0.000257402
0.000189054
0.000133033
3.72331e-05
0.000310904
-0.000374719
0.00033517
-0.000306557
-0.000585251
-0.000359942
0.000404154
-0.000149915
8.7747e-05
-0.00165753
0.000501528
0.00111295