/*--------------------------------*- C++ -*----------------------------------*\
| =========                 |                                                 |
| \\      /  F ield         | OpenFOAM: The Open Source CFD Toolbox           |
|  \\    /   O peration     | Version:  v2012                                 |
|   \\  /    A nd           | Website:  www.openfoam.com                      |
|    \\/     M anipulation  |                                                 |
\*---------------------------------------------------------------------------*/
FoamFile
{
    version     2.0;
    format      ascii;
    class       volScalarField;
    location    "150";
    object      k_0;
}
// * * * * * * * * * * * * * * * * * * * * * * * * * * * * * * * * * * * * * //

dimensions      [0 2 -2 0 0 0 0];


internalField   nonuniform List<scalar> 
13851
(
0.000153155
0.0214729
0.00017747
0.000152858
0.000175915
0.000269034
0.000145673
0.000167025
0.000144331
0.000181755
0.00253951
0.0315487
0.00777518
0.0323121
0.000144337
0.000160399
0.000152874
0.00015765
0.000781367
0.000143918
0.000152364
0.000176743
0.000148695
0.00017358
0.000149802
0.00016754
0.000151829
0.00151108
0.000152723
0.000152527
0.000525849
0.000153288
0.000176705
0.00705499
0.00016967
0.000184913
0.000188705
0.000183894
0.000183748
0.00690324
0.000146042
0.000139129
0.00390416
0.00304658
0.00307684
0.0132557
0.00276669
0.0119935
0.00015212
0.000463601
0.000173452
0.000182994
0.00642216
0.000146086
0.00015754
0.000139411
0.000155442
0.00864031
0.000152191
0.000146067
0.000165522
0.0161352
0.000178445
0.000178345
0.00196991
0.000155938
0.000100314
0.00260612
0.00015949
0.000157506
0.0107416
0.000332026
0.0222878
0.000146927
0.000142041
0.000148526
0.000176024
0.0117658
0.00016646
0.0123883
0.000147388
0.00339002
0.000144116
0.0105517
0.000178102
0.0323355
0.00017945
0.0277367
0.000153328
0.000153142
0.000184954
0.000196627
0.00260953
0.000155484
0.00015309
0.000173553
0.000176323
0.0208097
0.00087626
0.000174177
0.0198875
0.000167349
0.000149651
0.000151294
0.000150196
9.56037e-05
0.000169121
0.000136359
0.00413663
0.000360777
0.000179717
0.000153586
0.000185337
0.000194735
0.000178357
0.0203977
0.0214958
0.000136202
0.000173699
0.000165237
0.00376854
0.000151166
0.00998506
0.0135918
0.0126631
0.000155566
0.0108845
0.000166909
0.000152079
0.000184556
0.0001458
0.000140709
0.0127073
0.000144075
0.020023
0.00014226
0.000136297
0.000248884
0.0304471
0.0391734
0.0185833
0.000156269
0.0001589
0.000146666
0.000150727
0.00294881
0.000154316
0.00018488
0.000145576
0.00315047
0.000173009
0.000159062
0.0314101
0.00015593
0.000149988
0.000150611
0.00014553
0.000150781
0.000183018
0.000173194
0.000141458
0.000155225
0.00829426
0.000140565
0.000156636
0.000143438
0.000155698
0.000159749
0.000151755
0.0132847
0.010441
0.000139319
0.000145595
0.0395682
0.000140321
0.0134489
0.000166353
0.00015592
0.000778718
0.000137461
0.000154106
0.000267327
0.000143991
0.000177918
0.000135689
0.000157997
0.000156092
0.000149808
0.00017837
0.00018011
0.0027544
0.00726151
0.000154495
0.000159752
0.016108
0.000149719
0.000157672
0.00419083
0.000155599
0.000148663
0.000155689
0.0190964
0.000197373
0.000143758
0.000176459
0.000144083
0.0306039
0.000153027
0.0202494
0.000139121
0.0224937
0.000149377
0.00267134
0.000136202
0.00014553
0.00103744
0.000179679
0.0130972
0.000143741
0.0210479
0.000153235
0.000147594
0.02207
0.000183011
0.0257612
0.000155746
0.000157045
0.000151495
0.00911172
0.000136478
0.000166921
0.00180137
0.000138992
0.000154161
0.000171362
0.000168245
0.0266474
0.00378902
0.000146557
0.000143848
0.000255153
0.00693654
0.000145942
0.000178199
0.000146546
0.0257667
0.000167877
0.00458568
0.000150806
0.000154109
0.000170929
0.00702553
0.000147774
0.000150914
0.000167268
0.0160671
0.000178453
0.000231794
0.00446482
0.000144325
0.000145663
0.000156554
0.0210492
0.000150967
0.00554233
0.000149699
0.000147644
0.000155056
0.0207229
0.000196291
0.000170474
0.000149992
0.00576319
0.000165425
0.000159878
0.000140905
0.00351886
0.000177481
0.0255788
0.0024835
0.000145822
0.000138037
0.000150443
0.000166431
0.021043
0.0150399
0.000146377
0.000144271
0.006968
0.00277906
0.000187757
0.000151718
0.000146164
0.000160994
0.00264786
0.00426393
0.000155937
0.0318935
0.000141295
0.0256896
0.000154913
0.000152764
0.0249733
0.000147345
0.00012344
0.0240056
0.000145865
0.00016377
0.000155616
0.000151377
0.0305069
0.000156159
0.000147618
0.0224215
0.000140366
0.000154385
0.000156963
0.0234743
0.000180142
0.000143748
0.000167673
0.000143932
0.00842628
0.000190309
0.000150767
0.000148501
0.000179776
0.00015652
0.0001498
0.000144276
0.000147203
0.000147513
0.00301538
0.025583
0.0143896
0.000161562
0.022916
0.0180634
0.000144007
0.000160229
0.000187869
0.000233273
0.000175444
0.000180806
0.000637708
0.000164131
0.0123627
0.0246865
0.000144562
0.000186147
0.000184783
0.00329222
0.000149789
0.000178282
0.00945985
0.00014601
0.010226
0.000148492
0.000143982
0.000144701
0.000136593
0.00014431
0.0243241
0.00383092
0.000144803
0.000163131
0.000142127
0.0299033
0.000164454
0.0172405
0.0137535
0.000144991
0.000182755
0.000155764
0.016772
0.000145258
0.000136383
0.000178098
0.0192393
0.000145819
0.031572
0.000221839
0.000181886
0.0133865
0.000273785
0.000277076
0.0001671
0.000140947
0.000149961
0.000160069
0.000167375
0.0334743
0.000159652
0.0246301
0.0241861
0.000142331
0.000144388
0.0142332
0.0135733
0.00105509
0.0218863
0.000182882
0.000156298
0.000171939
0.0164441
0.000141911
0.000159937
0.000160586
0.000145314
0.000151778
0.000145619
0.000143293
0.00017765
0.000171692
0.0106245
0.000158281
0.000168668
0.000165834
0.00722353
0.000155137
0.00577017
0.000152424
0.000868777
0.00013614
0.000145136
0.000161458
0.000397018
0.006054
0.000182791
0.000165116
0.00847756
0.00691751
0.000174569
0.000167949
0.000171649
0.00014497
0.0072774
0.000147925
0.0147092
0.00667521
0.000175727
0.0183619
0.000157389
0.00017749
0.00628051
0.0203156
0.000135011
0.000157392
0.000166913
0.000230723
0.000140382
0.000147612
0.000172124
0.000182061
0.000162463
0.0276097
0.000156187
0.000148973
0.00678112
0.000157425
0.000137426
0.0266901
0.000140859
0.000153133
0.000141407
0.000165965
0.000150117
0.000138363
0.000157226
0.0220083
0.00014421
0.000160878
0.000141159
0.000164693
0.000279431
0.000198699
0.000146566
0.000196087
0.000196527
0.0152547
0.000147521
0.000188493
0.000143957
0.00016596
0.0230036
0.0172983
0.000144265
0.000166296
0.000155253
0.00659908
0.0113573
0.000148962
0.00374596
0.000145386
0.000176405
0.000145638
0.0107047
0.000136633
0.0061014
0.000177878
0.000139361
0.000167353
0.0166578
0.00016763
0.00353491
0.000167191
0.0112382
0.000161752
0.000140007
0.000141366
0.00014528
0.0167966
0.00017177
0.000182073
8.39794e-05
0.000181016
0.000142278
0.0175268
0.00581662
0.000154241
0.000155427
0.00636507
0.0122042
0.0201785
0.000152879
0.0112183
0.0127131
0.0174901
0.000156879
0.000167736
0.0158725
0.000182511
0.0156336
0.00356822
0.01965
0.000151095
0.0202217
0.00176463
0.000136142
0.000172821
0.000172127
0.0140418
0.000151102
0.000143278
0.000145127
0.000144612
0.000177824
0.000165792
0.0270164
0.0273465
0.000141612
0.00591555
0.0176397
0.00260226
0.00590258
0.000160537
0.000136254
0.000144895
0.000169158
0.018917
0.000150144
0.000175854
0.000184878
0.000139209
0.000172883
0.0104444
0.000257923
0.000180884
0.017603
0.0015497
0.000145666
0.000145388
0.0233753
0.0241039
0.000181284
0.000159475
0.000173096
0.000137201
0.000142827
0.0156304
0.000138359
0.000150995
0.000137182
0.000140362
0.0028825
0.000177633
0.000162044
0.000138187
0.0296681
0.00383612
0.000141407
0.000151452
0.00015129
0.000149324
0.0176882
0.00379394
0.00296183
0.0177562
0.0108602
0.000158505
0.0113544
0.0183469
0.000165983
0.000159841
0.000136194
0.000156753
0.000161215
0.020447
0.0159908
0.000175595
0.000156641
0.00014309
0.000160326
0.000160336
0.00332974
0.000173766
0.000143877
0.000162063
0.00014019
0.000154762
0.000183423
0.000145864
0.000144832
0.000164466
0.000145984
0.00017638
0.000287969
0.000182451
0.000160799
0.00018178
0.00014263
0.000293374
0.000176632
0.0169844
0.00014913
0.000174299
0.0026645
0.00015192
0.0136256
0.0249921
0.012466
0.0256353
0.000141513
0.000336189
0.000146678
0.000140567
0.000136476
0.000140559
0.00015089
0.000159283
0.000164761
0.000137506
0.0185549
0.00017942
0.0186543
0.00014468
0.000137093
0.000146742
0.000187918
0.0163245
0.000167412
0.000155017
0.000147084
0.000168481
0.000152881
0.000146527
0.000196874
0.0306631
0.000145806
0.000137262
0.000145352
0.00014637
0.006444
0.00762922
0.000160649
0.0192156
0.0110511
0.000144565
0.000181969
0.0205282
0.000160597
0.0328114
0.00014736
0.000156761
0.00016707
0.000157263
0.002883
0.000144173
0.0146015
0.000149073
0.000156964
0.0203433
0.000150103
0.000151039
0.000168733
0.0001403
0.000153612
0.0166835
0.0395028
0.000173344
0.00362338
0.000498629
0.000136515
0.000144229
0.0218716
0.000184411
0.000169867
0.0248934
0.000145281
0.000163688
0.000136318
0.00965118
0.000127675
0.000154317
0.000149252
0.000317712
0.000152073
0.000146667
0.00598801
0.0214563
0.0205163
0.000140102
0.000145696
0.0116291
0.00477613
0.000183497
0.000158786
0.00946228
0.000144149
0.000550709
0.000186771
0.00017688
0.00015322
0.0122655
0.000167789
0.000161708
0.000189139
0.000171589
0.000194748
0.000150412
0.00014238
0.00679654
0.000159299
0.000181092
0.000161697
0.000191925
0.000143376
0.0185189
0.00016947
0.000168197
0.000138176
0.000144182
0.000146316
0.0239275
0.000144692
0.000137086
0.00914299
0.00014552
0.0144129
0.000147676
0.000159245
0.00017245
0.0104353
0.00358924
0.000143584
0.00166812
0.0199808
0.000147651
0.0220004
0.000156765
0.000141769
0.00021877
0.00460171
0.0012029
0.000154405
0.000142954
0.00013664
0.005933
0.000179277
0.000172538
0.000155472
0.000217008
0.000150386
0.000158901
0.000175475
0.00462049
0.000177996
0.0192018
0.000145553
0.000176644
0.000175507
0.0219406
0.000154186
0.0341626
8.72839e-05
0.000145597
0.0144775
0.000231375
0.0184212
0.0388855
0.0226872
0.00317574
0.000164865
0.000141977
0.000159646
0.0093216
0.0110821
0.000148494
0.000164156
0.000171988
0.00066551
0.000139197
0.0062003
0.000144654
0.00014469
0.00718168
0.0115065
0.000471857
0.000140582
0.000144072
0.00552315
0.00019668
0.000180202
0.000158818
0.0161379
0.000373323
0.0172015
0.000168808
0.000162793
0.000147681
0.000145536
0.0237378
0.000165949
0.012918
0.000187102
0.000159377
0.00732409
0.0179457
0.0157962
0.000144594
0.000157489
0.000141266
0.000161147
0.000150947
0.0303703
0.000165576
0.0240082
0.000138817
0.000172086
0.000143471
0.00017671
0.000158931
0.000157232
0.0197085
0.000163745
0.000167288
0.000177641
0.000172206
0.0135213
0.000172893
0.000151183
0.0106648
0.000150321
0.0373027
0.0034859
0.000146679
0.0237996
0.0201599
0.0155454
0.00347309
0.000181271
0.000147902
0.019612
0.000166644
0.0195018
0.0205318
0.000144397
0.000149529
0.000385359
0.00330873
0.0317271
0.000145758
0.000147134
0.0260841
0.0202369
0.000181206
0.000153894
0.000156506
0.00362032
0.00963391
0.000176172
0.000137197
0.000165228
0.000140236
0.000180279
0.000201943
0.000174119
0.0142785
0.00734201
0.000144837
0.000159046
0.000148165
0.000150474
0.0111149
0.0157073
0.000157039
0.0344375
0.000143341
0.000157122
0.000147705
0.00014036
0.000146709
0.000144746
0.0153645
0.000144301
0.000167194
0.000144667
0.000154532
0.00021097
0.00422739
0.00016893
0.0232567
0.000173488
3.25331e-05
0.000159677
0.000159786
0.0114458
0.000154736
0.000166802
0.0301403
0.0190698
0.00668075
0.000163963
0.00311074
0.000148817
0.000162972
0.000167714
0.0324691
0.000151228
0.0353158
0.000144069
0.000144805
0.034717
0.000155859
0.00326927
0.000153548
0.000141533
0.000169817
0.000141465
0.000144098
0.000148444
0.000147114
0.000201343
0.000144535
0.000196805
0.00914528
0.00017397
0.0386171
0.000145407
0.00017696
0.000157992
0.000144839
0.000141055
0.000174519
0.000147409
0.000146704
0.000149328
0.000152683
0.0144636
0.0312209
0.000169639
0.0219368
0.000196862
0.000142849
0.00971732
0.000156471
0.000144158
0.00339152
0.000795569
0.0067204
0.000142557
0.0029259
0.00364692
0.0112603
0.00013862
0.00924649
0.000158622
0.000151706
0.000149101
0.000144912
0.0263936
0.000177416
0.0148557
0.000149488
0.000143829
0.0104692
0.000146716
0.00859138
0.00337028
0.0235812
0.000441671
0.00529174
0.000163245
0.000144847
0.00017964
0.000162761
0.000151352
0.000187038
0.000164813
0.000147592
0.000156108
0.0316939
0.000147133
0.0137836
0.000654945
0.0186494
0.000192591
0.000151528
0.00014812
0.000148858
0.00186305
0.00627243
0.000138725
0.000204084
0.00014938
0.000174527
0.000141016
0.000148818
0.000147759
0.000159263
0.00013393
0.000167214
0.000161243
0.000147059
0.000166841
0.010586
0.000148462
0.0161506
0.0126793
0.000174598
0.000144102
0.00016428
0.000143269
0.000150761
0.000148576
0.0118048
0.000180245
0.00600773
0.000151417
0.000464885
0.000143553
0.000150274
0.000147592
0.0113111
0.0153519
0.000141152
0.000159019
0.000173999
0.0177779
0.000198952
0.0230417
0.000150896
0.0311419
0.000178243
0.0187351
0.000175746
0.000174645
0.000423498
0.0185769
0.00518974
0.0211406
0.000155294
0.000324666
0.000140758
0.000151288
0.000153923
0.000146318
0.0186075
0.000157467
0.000155479
0.00363937
0.000188015
0.0143146
0.000143835
0.000151165
0.000154834
0.000149111
0.000161035
0.0245255
0.00851158
0.0199304
0.000141301
0.000154813
0.0001601
0.0116548
0.021779
0.00018103
0.000148029
0.000147075
0.0116573
0.000167024
0.0212159
0.0194474
0.000131876
0.000143868
0.0012265
0.000160571
0.000164999
0.000156249
0.0225275
0.00205281
0.000183119
0.000277033
0.000149776
0.000159663
0.00014465
0.00634683
0.000170245
0.0176831
0.000285211
0.000153824
0.000183319
0.000149675
0.0217525
0.000192791
0.000145197
0.0102459
0.0211523
0.0131494
0.00351438
0.000147492
0.000145057
0.0115332
0.0122111
0.01019
0.00015757
0.000145375
0.000144903
0.0146888
0.00018286
0.00014707
0.00302748
0.000180147
0.0241492
0.000976048
0.0156518
0.000144314
0.0073119
0.00015252
0.000146524
0.000183209
0.0162634
0.000145732
0.000144326
0.00350158
0.0211239
0.000154738
0.000141217
0.0366671
0.000145106
0.000175082
0.000141289
0.0106674
0.000145163
0.000167512
0.0201609
0.021705
0.000149226
0.00499208
0.00730008
0.0189383
0.00189389
0.0321053
0.000183518
0.00014306
0.0107443
0.000199318
0.000143929
0.000148975
0.00722702
0.000144442
0.000200407
0.000144465
0.00016327
0.0111918
0.000175137
0.0128936
0.000150052
0.000160578
0.000141123
0.000158672
0.000136838
0.0225026
0.000141782
0.000172317
0.00389712
0.000147521
0.000145458
0.0202496
0.000159989
0.000161741
0.000182096
0.0379501
0.0170843
0.000122047
0.00241394
0.00020927
0.00146502
0.00584592
0.0236943
0.000172479
0.000139922
0.000181386
0.000143053
0.000143168
0.0332079
0.020356
0.000151168
0.0303792
0.000256405
0.0135435
0.00204797
0.000257191
0.000144578
0.000422766
0.00030946
0.000155013
0.000149465
0.0236097
0.0212336
0.0231404
0.0193812
0.000164236
0.0255834
0.023797
0.000158359
0.000148463
0.000144821
0.00300672
0.00014256
0.000196373
0.000154913
0.00014812
0.000151499
0.0114263
0.0210677
0.0150052
0.0001495
0.00132708
0.000153704
0.000158252
0.000141698
0.000145433
0.00822967
0.000155576
0.0186215
0.0254328
0.00210628
0.00017971
0.000144612
0.000164943
0.000146968
0.00018248
0.000154873
0.000149848
0.000149182
0.000157684
0.000184101
0.00014825
0.000161193
0.000155447
0.00016167
0.000163548
0.0116244
0.000145703
0.000166586
0.000151205
0.000213116
0.000156308
0.018928
0.000623951
0.000157971
0.000151299
0.000153107
0.00306433
0.000145229
0.000220119
0.000144174
0.000149811
0.000157556
0.0228097
0.000155013
0.000155145
0.000181625
0.00014767
0.000170511
0.0221685
0.00507335
0.000160731
0.000144616
0.000242678
0.000140174
0.000149175
0.000192503
0.024034
0.000147259
0.000159072
0.000187653
0.00163467
0.000147204
0.000148042
0.0230181
0.000149461
0.000349067
0.000196456
0.0186685
0.00014539
0.000156995
0.00014361
0.0258493
0.000181168
0.000164911
0.000180345
0.0158512
0.000148947
0.0171447
0.0244601
0.000148291
0.0132405
0.000174754
0.000153573
0.00852595
0.000145429
0.000148607
0.000143476
0.000187885
0.00167786
0.000184226
0.000149966
0.000148626
0.000156815
0.00418082
0.000193412
0.0205903
0.0041059
0.000147892
0.000181362
0.000185098
0.00764093
0.000177564
0.000787884
0.000142694
0.000180813
0.000145086
0.0184223
0.000163421
0.00014356
0.0338424
0.000425338
0.000159499
0.000180988
0.000139231
0.000147473
0.000170857
0.000160815
0.0116651
0.000172693
0.000174974
0.000173258
0.000182757
0.0315766
0.000272179
0.0214357
0.000146029
0.000146015
0.000197589
0.0174326
0.00692243
0.000234044
0.000173637
0.0105108
0.00391459
0.000150221
0.000154179
0.000140503
0.00016327
0.000172788
0.000163484
0.00712595
0.000193246
0.000149536
0.0176839
0.0100803
0.000144255
0.000177197
0.029846
0.0070595
0.000151448
0.000173238
0.00013632
0.000161429
0.000154449
0.000153752
0.0237196
0.0169984
0.00619826
0.0147373
0.000149378
0.000161338
0.000170931
0.000146254
0.000150861
0.0001446
0.0195754
0.000142456
0.0190995
0.000163063
0.000177358
0.000188958
0.000200541
0.0126838
0.00198322
0.000162938
0.000142809
0.000163314
0.00146108
0.000606341
0.000152765
0.000140332
0.000142152
0.000173578
0.000158121
0.000182997
0.0253728
0.00014928
0.000144083
0.000180083
0.000216835
0.0110717
0.0161303
0.000141366
0.000173952
0.000148007
0.0260986
0.000145568
0.0259105
0.000153397
0.000149119
0.000162302
0.000149001
0.000188274
0.000157371
0.000166138
0.0102969
0.0216768
0.000153292
0.000157602
0.000144363
0.00170441
0.0118253
0.000156528
0.000146178
0.00377953
0.000135908
0.0175729
0.000149602
0.00016308
0.000175875
0.0232676
0.000164436
0.00015243
0.000145439
0.000172343
0.0232047
0.000143149
0.0173908
0.0276575
0.0180965
0.00338874
0.000161044
0.014265
0.000153107
0.00065568
0.000143522
0.00450897
0.0043313
0.00811264
0.010451
0.0322284
0.000156581
0.000173187
0.000144563
0.00905963
0.00338391
0.0236285
0.00966537
0.000155475
0.0287339
0.00845404
0.000161968
0.000150473
0.000145812
0.0188047
0.000154048
0.000172107
0.000204361
0.000147772
0.000140195
0.000146301
0.0211059
0.000199848
0.000158838
0.0123219
0.00426914
0.000155277
0.000143889
0.000146214
0.000165782
0.0254482
0.000201965
0.000154105
0.000184472
0.0113278
0.000177773
0.000165108
0.005334
0.000158179
0.0230663
0.000156969
0.000158866
0.000143657
0.000204107
0.00017354
0.00407611
0.00471963
0.020718
0.000175578
0.0255743
0.000159224
0.000152338
0.000150014
0.00694845
0.0182297
0.0115912
0.00113913
0.000151082
0.00014475
0.000143552
0.00014417
0.000144794
0.00566269
0.000157229
0.00669065
0.000159918
0.0190578
0.0162056
0.0255001
0.000200583
0.000153818
0.0102756
0.000164496
0.0204363
0.0204742
0.000139899
0.00347429
0.000155262
0.0181203
0.00574096
0.000161682
0.00529835
0.00573829
0.000175699
0.000173499
0.000164831
0.016315
0.00406047
0.000151762
0.000145457
0.00466178
0.00555534
0.000183322
0.00157921
0.000181568
0.000165652
0.000147548
0.0321084
0.0232648
0.000178563
0.000157639
0.0214713
0.0340412
0.000144707
0.00014436
0.00015208
0.0232132
0.0224326
0.000143862
0.0142285
0.000148023
0.000145214
0.000147107
0.0150767
0.00114253
0.000205567
0.00657638
0.000150759
0.00014979
0.000142663
0.00735003
0.000153714
0.0251245
0.000153871
0.0215293
0.000147032
0.00014315
0.000182913
0.00534448
0.00354771
0.000162088
0.0172953
0.000144706
0.00014544
0.000144449
0.000166095
0.000172293
0.000172096
0.00016395
0.0170362
0.000152217
0.000183832
0.000642109
0.0313628
0.000150339
0.0176501
0.0215034
0.000152734
0.00979035
0.000171183
0.0164718
0.00014615
0.000175607
0.000150024
0.0199839
0.0102426
0.000178244
0.0231749
0.000151892
0.000165704
0.000149852
0.0150126
0.000144218
0.000140416
0.00373451
0.000181274
0.0177425
0.000154022
0.000170624
0.000156583
0.000143268
0.0241495
0.000161761
0.0001549
0.000183123
0.000147877
0.000164323
0.00014479
0.0195608
0.000158442
0.00297668
0.00455222
0.000163193
0.000933458
0.000171557
0.0258879
0.000146933
0.0201089
0.0222547
0.000141139
0.000144272
0.000150255
0.000147173
0.000163741
0.000145415
0.0109316
0.000173759
0.000412779
0.000403497
0.000147759
0.00014754
0.000145688
0.00274932
0.000145592
0.000145593
0.000193029
0.000151508
0.0227527
0.0221348
0.000175464
0.000154379
0.000160507
0.00014971
0.000148006
0.00019257
0.000147188
0.000151709
0.0064092
0.0265439
0.000103986
0.000149627
0.00798637
0.017546
0.000147263
0.000247804
0.0196958
0.000143925
0.000151043
0.00014355
0.00292369
0.0148865
0.00699531
0.000147087
0.000151876
0.00015725
0.000145512
0.000182991
0.000147296
0.00192276
0.0045445
0.0207493
0.000140518
0.000151566
0.000150882
0.0170373
0.000139174
0.0135561
0.0073563
0.0032299
0.0190002
0.0149313
0.0222585
0.000154889
0.00547735
0.0116918
0.000148908
0.000142673
0.000141751
0.0228584
0.00675141
0.00927954
0.000148502
0.0235776
0.000146122
0.000188601
0.00014999
0.000150853
0.000148778
0.000140231
0.0163465
0.000149031
0.0320702
0.0339781
0.0128959
0.000167781
0.000167018
0.0141938
0.0229705
0.000154672
0.00462035
0.000145257
0.000136538
0.000143733
0.000167572
0.000152241
0.0105348
0.00016152
0.00051718
0.000164496
0.00709393
0.0118572
0.000173962
0.000139758
0.000171521
0.000177844
0.0155874
0.000150552
0.000136506
0.000160355
0.0304422
0.000149956
0.00231539
0.00963684
0.000163559
0.000172914
0.000150476
0.00182856
0.000146992
0.0259734
0.000138167
0.00548664
0.000157758
0.000145291
0.0101521
0.0114697
0.000140467
0.000170974
0.000152729
0.00843587
0.000177981
0.00118883
0.000423365
0.000147179
0.000171427
0.0189412
0.000154372
0.000165962
0.00015671
0.000173786
0.000158779
0.00807143
0.0164833
0.000145471
0.0177172
0.000149061
0.000165272
0.0214402
0.00931038
0.000163027
0.0185385
0.000294215
0.000145522
0.00233763
0.000181034
0.000157742
0.000148926
0.0194732
0.000141216
0.0126111
0.000280008
0.000184581
0.000143756
0.000160565
0.0176349
0.000165642
0.0175696
0.000148124
0.00015157
0.000185661
0.0199176
0.000153818
0.0237193
0.0103856
0.0111053
0.000147427
0.0194354
0.0104134
0.0179539
0.000144125
0.000161498
0.000148003
0.0241007
0.00018849
0.00230971
0.00127441
0.000147407
0.000149297
0.000143988
0.0171113
0.000217105
0.0210923
0.0123901
0.000142284
0.0168815
0.0204661
0.000181832
0.00717726
0.0185958
0.000162792
0.0118336
0.00015079
0.00015346
0.00188987
0.0142119
0.000155064
0.028632
0.000148927
0.000144423
0.0279732
0.0166525
0.0153747
0.0095103
0.000158987
0.000147325
0.000164402
0.0176921
0.0107272
0.00014308
0.000164824
0.0102235
0.000144522
0.000145904
0.0172151
0.0263035
0.000150545
0.000144322
0.000148704
0.000150137
0.0045851
0.000147129
0.000150534
0.000154233
0.00212212
0.0259744
0.0101343
0.0173907
0.000145613
0.000153233
0.0207464
0.0216203
0.000157117
0.000500852
0.000143649
0.000161293
0.000152364
0.00015566
0.00017523
0.000149618
0.0199797
0.000160678
0.000147658
0.000152776
0.0123982
0.0239308
0.0154559
0.000144611
0.000179895
0.0214305
0.00805817
0.000151791
0.000150115
0.000144578
0.00184262
0.000146073
0.000159938
0.000156053
0.000144182
0.0209486
0.00047735
0.000147176
0.000152206
0.000145971
0.000147128
0.0241638
0.0124457
0.000173221
0.00793909
0.000223368
0.00014759
0.000143537
0.000145334
0.000147639
0.000146949
0.000176314
0.000176413
0.0214559
0.000155222
0.000181098
0.0156183
0.000320342
0.000145159
0.000140517
0.000150919
0.0220545
0.000147177
0.00459222
0.000192211
0.000177466
0.000161043
0.0102638
0.000146627
0.00136966
0.000141854
0.000146916
0.000150041
0.000149266
0.000175991
0.0112428
0.00053129
0.000163367
0.0250197
0.00865397
0.018704
0.000158463
0.0169122
0.00782783
0.000181442
0.0196166
0.0174204
0.000179872
0.0016571
0.000147237
0.000152363
0.0251971
0.000143957
0.000152316
0.0328584
0.000424317
0.0293531
0.000817712
0.000144555
0.000165941
0.000145685
0.00138578
0.000149829
0.000184031
0.0200958
0.0200919
0.01985
0.000145889
0.000143029
0.000173223
0.0324961
0.0210884
0.000184632
0.000133044
0.000141931
0.000128029
0.019048
0.000524521
0.000152156
0.000146138
0.000144348
0.000151517
0.000147452
0.000147216
0.000151993
0.0201839
0.00017459
0.0182548
0.00663131
0.00559244
0.000184947
0.000143454
0.00015169
0.000156141
0.00014364
0.00014703
0.0122553
0.0176466
0.00137395
0.0241864
0.000150807
0.012978
0.000187549
0.0235236
0.0210732
0.000146869
0.000148723
0.00106874
0.000146119
0.00014098
0.00494511
0.0210149
0.00013337
0.000144719
0.000145675
0.000157988
0.000163267
0.0130481
0.000145407
0.000153713
4.92376e-05
0.000144392
0.00692252
0.000162986
0.03425
0.000147221
0.000193987
0.0342062
0.000162311
0.0173583
0.000180401
0.0188169
0.000146299
0.000153623
0.000144094
0.000157897
0.0170961
0.000150127
0.00727891
0.000155111
0.000151896
0.000144345
0.0250512
0.000164811
0.000180785
0.00306163
0.000142557
0.000167025
0.00923457
0.000171562
0.000152631
0.000155668
0.000146399
0.000171467
0.000149752
0.000148911
0.0262454
0.0197657
0.024597
0.00306526
0.000250606
0.0123057
0.000172269
0.0240845
0.000184413
0.000145265
0.000146245
0.000136089
0.000147502
0.0180377
0.0190363
0.000150468
0.00616428
0.0267132
0.00015652
0.000154796
0.000171427
0.0187014
0.0170419
0.0203092
0.0241576
0.0211261
0.00013599
0.00017139
0.000180412
0.00273306
0.0024176
0.000143908
0.000181323
0.0106398
0.000160442
0.0356613
0.000148344
0.000197769
0.0115222
0.0240213
0.000173117
0.000158925
0.0115409
0.000181168
0.0243136
0.0255677
0.0208701
0.00018002
0.0171543
0.000145872
0.000159626
0.000165924
0.0149962
0.00469151
0.0186277
0.000166508
0.000184212
0.000175591
0.000175661
0.017612
0.000143934
0.000181917
0.0144049
0.000143928
0.0341543
0.0201403
0.0257464
0.0189597
0.00311868
0.0110756
0.00014746
0.0183545
0.000154563
0.000154031
0.000163911
0.000151687
0.0216395
0.000151911
0.000178091
0.00015211
0.000148996
0.0164764
0.00015036
0.00018046
0.0018696
0.000139959
0.0185105
0.000180152
0.000155098
0.00845563
0.000189864
0.000143751
0.00236831
0.00014827
0.0264839
0.00690934
0.000150764
0.000179525
0.000150452
0.0189696
0.0211631
0.000173641
0.0147591
0.00015687
0.000144624
0.0327166
0.000151755
0.000148247
0.000163964
0.000162353
0.000141551
0.00014739
0.000185417
0.000150171
0.0144239
0.000170192
0.000370502
0.0155392
0.000167307
0.000173697
0.00014787
0.0193536
0.0114833
0.0194046
0.000144184
0.000149096
0.000174475
0.000158641
0.00473641
0.000148371
0.0108337
0.000149338
0.00280644
0.000157874
0.000663418
0.000173407
0.000179787
0.0188632
0.0245898
0.0199395
0.0203555
0.000136617
0.000136743
0.000132015
0.0139457
0.000151282
0.000165145
0.0113145
0.0110121
0.000179721
0.000575313
0.0200454
0.0201268
0.000164295
0.000191029
0.000140095
0.000166066
0.000163187
0.000143718
0.000172292
0.0168647
0.00413701
0.0120487
0.000101137
0.000142973
0.000143938
0.000161305
0.000143799
0.0177554
0.000145667
0.000145053
0.0218532
0.000199116
0.000162423
0.000180011
0.000177918
0.000180289
0.00788446
0.0215409
0.00853869
0.00015334
0.0214218
0.000153462
0.000142498
0.000150571
0.0176772
0.000202481
0.00018584
0.000199128
0.000148915
0.000146413
0.000143824
0.000147273
0.000154567
0.0211669
0.000127989
0.000156869
0.0177195
0.0142144
0.0110219
0.0170357
0.00014459
0.000157524
0.00172014
0.000144327
0.000158119
0.000155078
0.000151844
0.0160519
0.0215971
0.000146077
0.000162043
0.000157634
0.000175954
0.0187661
0.0344784
0.021098
0.000150316
0.000174361
0.0236996
0.000174404
0.000179558
0.00536652
0.019007
0.0163421
0.025166
0.000144464
0.0160832
0.000150072
0.000152363
0.000144263
0.000172796
0.0176616
0.0103135
0.0100717
0.00984788
0.000171552
0.000139979
0.00014044
0.000145801
0.000171595
0.000164798
0.0218213
0.0266263
0.000173524
0.00447338
0.000147657
0.000171632
0.000140424
0.0253636
0.000177179
0.000149893
0.000184832
0.000179748
0.0322405
0.0175399
0.000185708
0.00453281
0.000153106
0.0202055
0.00019351
0.00276897
0.00373801
0.00015314
0.000171668
0.000145351
0.0192501
0.00746708
0.000164198
0.0282988
0.000193758
0.0310201
0.000174852
0.000432186
0.000167838
0.000140971
0.000180099
0.000173164
0.000152128
0.000171731
0.000158565
0.0001599
0.00959496
0.000184061
0.00015103
0.000158397
0.000161668
0.00016012
0.000155588
0.0349976
0.000181949
0.000816824
0.00868937
0.000144603
0.0207331
0.000144461
0.000153911
0.000151401
0.02071
0.000163684
0.0248296
0.0192692
0.000173012
0.000177551
0.000180268
0.0302777
0.000181903
0.0145866
0.000189884
0.000164448
0.000153284
0.0222489
0.0062424
0.000193398
0.000158075
0.000163378
0.000154021
0.000152609
0.000165946
0.000162147
0.000146287
0.000161661
0.0188124
0.0227498
0.000294673
0.000163725
0.00014092
0.0316698
0.00015891
0.000170888
0.0088351
0.000163445
0.0320353
0.000141783
0.000169683
0.000154155
0.000161284
0.000144005
0.0211755
0.000974981
0.0120251
0.000163794
0.0180041
0.000199764
0.000153728
0.0299299
0.000171325
0.00019838
0.00878628
0.000170752
0.000151965
0.00016248
0.000174844
0.000156634
4.65172e-05
0.0176673
0.00364257
0.000141051
0.000201255
0.00194191
0.0282259
0.000143473
0.000165249
0.000150469
0.000158618
0.0162629
0.000157535
0.000157096
0.000141732
0.000140951
0.0175222
0.0176193
0.00014754
0.027733
0.000196796
0.0001405
0.000170229
0.022191
0.000182978
0.000179597
0.000144261
0.000155412
0.000184062
0.000164287
0.000145453
0.0241262
0.000157277
0.0212008
0.000174841
0.000154314
0.015875
0.000185072
0.000188187
0.00014184
0.00466689
0.000157062
0.000154823
0.026323
0.000163219
0.000147357
0.000179934
0.000152525
0.000159715
0.000145742
0.0212555
0.000144509
0.000176012
0.0100573
0.000180598
0.000149099
0.000516725
0.000157863
0.0179764
0.000240608
0.0176778
0.000183729
0.0232825
0.000140163
0.000174671
0.000153485
0.000142742
0.00431007
0.0192118
0.000152852
0.00492676
0.000168691
0.000174184
0.0177677
0.000154051
0.00780309
0.0188812
0.0252005
0.0311743
0.0035508
0.000158836
0.000144404
0.000175959
0.000162714
0.00175455
0.0307206
0.0252302
0.0346446
0.0252491
0.00014072
0.0129952
0.000144125
0.000149046
0.00014611
0.00613509
0.000173965
0.000177913
0.00014429
0.0100787
0.000155553
0.0155383
0.000154198
0.000173959
0.000157459
0.000171845
0.000165664
0.00017949
0.000150011
0.00016564
0.000224928
0.000142115
0.0171429
0.000200603
0.000178347
0.000156103