/*--------------------------------*- C++ -*----------------------------------*\
| =========                 |                                                 |
| \\      /  F ield         | OpenFOAM: The Open Source CFD Toolbox           |
|  \\    /   O peration     | Version:  v2012                                 |
|   \\  /    A nd           | Website:  www.openfoam.com                      |
|    \\/     M anipulation  |                                                 |
\*---------------------------------------------------------------------------*/
FoamFile
{
    version     2.0;
    format      ascii;
    class       volScalarField;
    location    "150";
    object      omega_0;
}
// * * * * * * * * * * * * * * * * * * * * * * * * * * * * * * * * * * * * * //

dimensions      [0 0 -1 0 0 0 0];


internalField   nonuniform List<scalar> 
13851
(
0.0231756
1.10298
0.0568074
0.022981
0.0538798
0.0830893
0.0215504
0.0340506
0.0209779
0.072819
0.246782
1.78324
2.52402
3.21024
0.021424
0.0276085
0.0230226
0.0259137
0.860455
0.0209463
0.0228284
0.0545292
0.021947
0.0250216
0.0221459
0.034748
0.0226333
7.92382
0.0229954
0.0230022
0.188819
0.0231678
0.0540898
0.492093
0.024614
0.103146
0.161279
0.168221
0.0805731
0.485403
0.0213667
0.020151
2.67702
0.259258
0.258475
2.74347
0.252776
0.616214
0.0227262
0.111758
0.0478542
0.0893309
2.35811
0.0215505
0.0229859
0.0201664
0.0226393
1.44026
0.0228789
0.021559
0.146538
3.53203
0.0462122
0.062617
0.825886
0.0245438
0.148678
0.247347
0.0266223
0.0258169
7.26357
0.855327
1.15174
0.0216555
0.021062
0.0214367
0.0522345
5.20686
0.0334346
6.6181
0.021655
0.240805
0.0213574
2.47496
0.0492572
1.82578
0.0460654
1.54946
0.0231798
0.0223384
0.10368
0.0367832
0.248808
0.024136
0.0230765
0.0247773
0.05519
2.58622
0.200108
0.0247973
2.85199
0.0348623
0.0220044
0.0224932
0.0216767
0.0509812
0.0379681
0.0199452
2.6468
0.108462
0.0256555
0.0224954
0.0331912
0.0278321
0.0255446
0.886384
2.6161
0.0199709
0.0251422
0.0240949
3.0118
0.0224437
2.5474
0.649554
0.635235
0.023853
0.634516
0.0342519
0.0227065
0.095417
0.0213492
0.0208232
5.92788
0.0213594
0.888208
0.0210498
0.0199867
0.743088
2.58774
2.71094
2.55056
0.0227827
0.0243568
0.0209466
0.022317
0.258588
0.025365
0.0969593
0.0215407
0.259492
0.0475048
0.0231589
3.34963
0.0227285
0.022108
0.0222758
0.021212
0.0223572
0.0892698
0.0469577
0.0203091
0.0240136
1.44251
0.0208083
0.0250166
0.0205188
0.0258892
0.02685
0.0225971
5.52609
6.29489
0.0205559
0.0212263
2.71691
0.0207891
0.616658
0.0333616
0.0239789
1.09091
0.0200021
0.0235282
1.13412
0.0213609
0.0586151
0.0199556
0.0229367
0.0246407
0.0219685
0.0620045
0.0741746
0.254083
1.84175
0.022961
0.026787
3.0444
0.0220432
0.0239471
0.373144
0.0237259
0.021482
0.0239227
4.73979
0.0287903
0.0212749
0.0561712
0.0213687
2.6859
0.0230664
2.97228
0.0200944
3.19254
0.0219397
0.295301
0.0199083
0.020756
0.164545
0.04636
2.19862
0.0213668
2.929
0.0231431
0.0216759
2.90713
0.0882101
3.28306
0.0227284
0.0249738
0.0219501
1.42668
0.0199188
0.0338827
0.641184
0.020532
0.0227908
0.0426625
0.0364959
2.64581
1.29007
0.0209042
0.0212845
0.155154
0.392925
0.0211605
0.061199
0.0212765
3.10774
0.0358073
0.41091
0.0223368
0.0235801
0.0294937
0.391237
0.0216712
0.0223768
0.0351528
1.02099
0.0678903
1.00105
22.907
0.021439
0.0207985
0.0252141
0.904812
0.0217735
2.23318
0.0220389
0.0216525
0.0239217
2.91545
0.0381538
0.0294096
0.0221063
0.740097
0.032171
0.0271335
0.0208375
0.244063
0.034452
3.50408
0.249429
0.0211593
0.020012
0.0216659
0.0339169
0.874139
0.621358
0.0211634
0.0214536
0.769874
0.223877
0.1143
0.0226869
0.0215615
0.0278387
0.218232
2.04348
0.0245973
1.77089
0.0208676
3.13548
0.0238624
0.0229758
3.45402
0.0215559
0.0600017
2.94116
0.0211197
0.0305875
0.024204
0.0225688
2.86459
0.0247134
0.0216445
2.80028
0.0202484
0.0236949
0.0246692
3.50343
0.0745974
0.0213658
0.0356402
0.0213959
10.8593
0.0328582
0.0221699
0.0215771
0.0729248
0.0246866
0.0220652
0.0214567
0.0215403
0.0216225
0.257576
3.64218
4.45482
0.0284465
3.4554
2.32058
0.0213873
0.0271622
0.116365
0.0475778
0.0473407
0.0762159
1.10382
0.0264857
0.776602
3.02317
0.0214378
0.0345525
0.0345282
1.76849
0.0220605
0.050117
1.40667
0.0212618
0.783719
0.0215715
0.0214074
0.0210485
0.0199494
0.021123
3.08166
0.3251
0.0213594
0.0299402
0.020377
1.67818
0.0317573
0.681727
4.39799
0.0213692
0.0495694
0.0242881
0.659634
0.021294
0.0199921
0.0306609
3.50155
0.021497
3.02551
0.0448981
0.0818166
8.42199
0.0571068
0.053964
0.027958
0.0208717
0.0219705
0.0274808
0.0351631
3.25938
0.0267954
3.32047
2.97742
0.0204014
0.0214442
5.44715
4.94607
0.506658
2.67291
0.0318035
0.0245703
0.024483
2.34472
0.0207583
0.0271609
0.0268451
0.0215047
0.0218724
0.0210864
0.0204909
0.0602289
0.0434521
7.03769
0.0263315
0.0372572
0.0318965
0.390685
0.0240711
1.81433
0.0228539
0.14722
0.0199702
0.021048
0.0233459
0.787704
0.38294
0.0861649
0.0310561
9.729
0.483581
0.0398319
0.0242709
0.0434814
0.0212754
0.386993
0.0215582
2.13286
0.367337
0.051267
3.08662
0.0242826
0.0334675
0.366324
4.28765
0.0198603
0.0251943
0.0342013
0.0448932
0.0206596
0.0216327
0.0450496
0.082347
0.0294152
1.83839
0.0227783
0.021665
1.49284
0.0255347
0.0199711
1.43204
0.0208627
0.0231692
0.0207578
0.0337419
0.0221626
0.0200421
0.024058
2.81212
0.0213655
0.0277803
0.0209184
0.0291803
0.0580709
0.0284626
0.0213866
0.0279916
0.0279927
0.621103
0.0216401
0.0527814
0.0213612
0.0238113
2.5318
3.23339
0.0213881
0.0299605
0.0241532
0.394036
2.27102
0.0216684
0.322325
0.0213119
0.0548242
0.0215221
1.44726
0.0200658
2.67885
0.0677456
0.0201722
0.0301239
2.86001
0.0349019
0.291631
0.0243002
0.655504
0.0235141
0.0207397
0.0208621
0.0215177
3.86145
0.0432891
0.0844292
0.427615
0.0443959
0.0203983
2.61222
0.371215
0.0235927
0.0241177
0.391856
0.638591
3.17838
0.0223485
1.48335
3.14103
3.56918
0.0251659
0.0306446
0.658962
0.0352175
1.02162
0.348532
2.15107
0.022464
2.16744
2.14649
0.0199815
0.0325993
0.0443598
4.05615
0.0224389
0.0212594
0.0211808
0.0212944
0.0600764
0.0331731
1.57988
1.78666
0.020956
1.67409
3.00394
0.370091
0.369159
0.0274676
0.0198899
0.0210171
0.0323529
2.6364
0.0221459
0.0562348
0.103856
0.0201466
0.0369341
0.636351
0.646785
0.0766037
3.66855
2.08413
0.0213302
0.0215134
1.30728
2.94195
0.0801272
0.0266642
0.0574805
0.0199884
0.0211576
2.14189
0.0200882
0.0223995
0.0199778
0.020848
2.2603
0.059735
0.0289422
0.0200723
3.31349
0.353871
0.0208882
0.0221135
0.0218849
0.021903
3.37669
0.366489
0.315026
3.12941
0.655676
0.0259436
5.76417
3.15158
0.0270486
0.0269044
0.019883
0.0245885
0.0281712
2.80043
0.78955
0.0554833
0.0247955
0.0208807
0.0275458
0.0244185
0.282842
0.0482902
0.0213558
0.0289945
0.020652
0.0237882
0.0897368
0.0215438
0.0212576
0.0318377
0.0215171
0.0550549
0.496737
0.0841903
0.0279548
0.0831715
0.0208515
0.172847
0.030797
2.66244
0.0218821
0.0249254
2.35833
0.0228017
8.90933
3.01602
1.80236
1.36533
0.0207385
1.18233
0.0214302
0.0208601
0.0200507
0.020869
0.0232575
0.0270312
0.0322887
0.0200246
2.21876
0.0741609
2.21844
0.0211226
0.0201519
0.0215631
0.112003
2.78835
0.0355314
0.0239092
0.0215147
0.0240949
0.0224388
0.0213005
0.159685
1.94092
0.0215035
0.020003
0.021526
0.0212845
1.98702
1.59596
0.0278559
2.57035
0.647694
0.0212413
0.0835384
4.09615
0.0274893
1.86432
0.0216457
0.0253564
0.0350241
0.0256865
0.308051
0.0213799
0.648942
0.0216858
0.0250277
2.9019
0.0217221
0.0224654
0.0509834
0.0207639
0.023322
0.88751
2.92163
0.0468845
1.95569
0.106089
0.0199349
0.0210922
2.30203
0.0999468
0.039086
3.04082
0.0209785
0.023779
0.020001
0.655922
0.202776
0.02375
0.0218607
0.0658728
0.0227106
0.02154
1.69764
1.07595
2.72588
0.0202219
0.0214993
5.2539
2.99229
0.0936684
0.0239979
2.96234
0.0213688
0.105145
0.107674
0.0544672
0.0231884
1.91862
0.0286539
0.0253631
0.165814
0.0246091
0.028633
0.0222471
0.0208258
1.58069
0.0265186
0.0770866
0.0284912
0.0388105
0.0209104
0.917985
0.0246236
0.0289328
0.0202994
0.021209
0.0215484
2.91042
0.0211477
0.0200443
0.674107
0.0215247
3.81832
0.0216965
0.0242971
0.0454238
2.01414
0.310481
0.021211
0.450479
2.54515
0.0216576
3.04339
0.0249166
0.0207803
0.036655
2.13825
0.320686
0.0237278
0.021128
0.0199643
0.366081
0.0623519
0.0476984
0.0243476
0.0368409
0.0220487
0.0241258
0.0550869
0.348363
0.0603021
0.810635
0.021488
0.0555967
0.0543442
3.50723
0.0236917
2.31864
0.276449
0.0215342
6.50801
0.116474
2.45565
3.00331
2.75109
0.288749
0.0319034
0.0208009
0.0270906
1.44987
3.98569
0.0215535
0.0236132
0.0441951
0.11618
0.0201795
2.30949
0.0209302
0.0213682
1.46945
5.17711
0.101742
0.0208557
0.0214201
2.39773
0.159815
0.0748813
0.0246595
3.01269
0.5633
2.36563
0.0373872
0.0295442
0.0216496
0.0215182
1.25156
0.0334939
5.81525
0.0330774
0.0265602
1.74946
2.50978
3.31488
0.021425
0.0253063
0.0208749
0.0283103
0.0224233
1.77872
0.0242518
3.06362
0.0201579
0.0446773
0.0211887
0.135518
0.0262259
0.025127
2.58761
0.0306109
0.0357794
0.0255176
0.044758
0.616395
0.0625876
0.0224636
6.24663
0.0216153
3.00839
0.314109
0.0215242
3.20518
3.27998
3.48711
0.29644
0.0318231
0.021481
2.7395
0.0242849
0.819693
2.97958
0.0211108
0.0220147
0.557015
0.326992
2.06439
0.0214795
0.0216397
1.47928
2.93175
0.0772894
0.0234989
0.0238411
0.315228
1.47549
0.056487
0.0200525
0.0321309
0.02077
0.0259848
0.038229
0.0247426
2.1517
0.386833
0.0213744
0.0245731
0.0215149
0.0222652
5.98437
3.01866
0.0249726
2.41533
0.0211843
0.0250312
0.0214384
0.0207817
0.0214998
0.021364
3.83185
0.0213883
0.0351583
0.0214257
0.0237992
0.0397125
2.56591
0.0245247
1.29849
0.0506824
0.232548
0.0268566
0.0268437
7.86024
0.0237781
0.0342658
1.74858
0.857753
2.22954
0.03049
0.2594
0.0218113
0.0298101
0.0356197
2.15019
0.0222204
2.33797
0.0210717
0.0211417
3.15449
0.0238354
2.15425
0.0233217
0.0208773
0.0345402
0.0208826
0.0214255
0.0219786
0.0216238
0.17173
0.0211298
0.159462
1.41775
0.0496532
2.77122
0.0215073
0.0255765
0.0253606
0.0213067
0.020852
0.0515546
0.0216866
0.0212235
0.021888
0.0224383
3.71114
1.99524
0.0546594
2.66493
0.159063
0.0211541
0.513028
0.0246905
0.0211046
0.290065
0.20459
0.455401
0.0211247
0.257166
0.330947
1.47915
0.0205312
2.54972
0.0261119
0.0225928
0.022248
0.0209582
2.21139
0.0875182
0.617508
0.0216132
0.0213265
0.655918
0.0215349
1.97334
0.302431
1.39026
0.905875
0.358279
0.0235302
0.0213379
0.0497542
0.0290834
0.0224947
0.119692
0.0314224
0.0217029
0.0237144
2.15162
0.0212744
3.60031
1.3288
0.801634
0.149658
0.022135
0.0211447
0.0217675
0.204884
0.367516
0.0205329
0.0293393
0.0215704
0.051024
0.0203259
0.0214846
0.0216924
0.0264072
0.20108
0.0352482
0.0285001
0.0216498
0.0348264
2.43249
0.0218285
8.71266
2.26233
0.0519762
0.0205982
0.0311798
0.0212547
0.0221833
0.0217107
4.97146
0.075116
0.383005
0.0225235
0.0921853
0.0212993
0.0217427
0.0215793
0.53689
0.942985
0.020261
0.0262167
0.0460098
3.36562
0.0284151
1.21752
0.0232539
2.85985
0.0591285
3.03035
0.0560142
0.0517504
0.818383
2.92937
0.358492
5.20768
0.0226128
0.294078
0.0203013
0.0225023
0.0234352
0.0215163
2.98621
0.0253358
0.0241321
0.307658
0.121838
0.619439
0.0213802
0.0224251
0.0239979
0.0213322
0.02809
1.33294
0.64592
1.04758
0.0209938
0.0238039
0.0251228
0.63389
2.72871
0.0490459
0.0211049
0.021658
1.5359
0.0340622
2.14398
2.47005
0.0417964
0.0205568
1.52403
0.0276566
0.0317328
0.0245394
3.10908
0.219965
0.0870559
0.151729
0.0220495
0.0274605
0.0213741
2.32943
0.0400316
3.06653
0.0616616
0.0233745
0.0932745
0.0220294
3.1258
0.157246
0.0213532
1.73116
2.86887
1.73601
2.55441
0.0217131
0.0213533
5.67195
2.45781
1.44184
0.0230243
0.0215201
0.0213711
3.61001
0.0892305
0.0216124
0.398561
0.0662618
2.38867
1.445
0.63863
0.0214252
2.82974
0.0228648
0.0213726
0.0918993
3.15009
0.0215524
0.0210808
3.21019
3.05676
0.0235025
0.02098
2.41836
0.0213343
0.0343987
0.0209908
0.647232
0.021352
0.0356505
1.10186
2.77752
0.0219386
2.45863
0.382302
2.19326
1.89462
2.77271
0.0369993
0.0212
2.22367
0.0285327
0.0213952
0.0212823
0.461188
0.0212259
0.168296
0.0211007
0.0256334
5.05503
0.0493977
2.14262
0.0221273
0.0267975
0.0208455
0.0260559
0.88704
2.65676
0.0209921
0.0446426
0.298686
0.0215658
0.0210075
2.80721
0.0269962
0.0287448
0.0844235
2.74554
0.944135
0.555925
2.20739
0.0424952
0.205207
0.365194
1.44866
0.0448564
0.0204957
0.0804011
0.0211902
0.0211815
2.17497
2.8508
0.0225153
3.31762
0.142671
3.84396
0.394574
0.104662
0.0212742
0.194694
0.0749211
0.022936
0.0219843
2.98709
2.66661
1.23059
3.10325
0.0316085
3.1168
3.08625
0.0258001
0.0218279
0.0211925
0.229202
0.0210793
0.159567
0.0226162
0.0217427
0.0226347
2.50049
3.41504
1.80815
0.021909
1.62192
0.0234745
0.0260638
0.0210302
0.0213867
1.47756
0.0243378
3.16026
1.36911
0.368854
0.0725469
0.0214837
0.0324808
0.0215236
0.0867847
0.0236578
0.0220748
0.0218383
0.0229737
0.0985458
0.0217695
0.0281122
0.0231184
0.0285647
0.143085
5.90553
0.0212419
0.0338226
0.021996
0.0830062
0.0247859
2.46809
0.540168
0.0255858
0.0224675
0.0223749
0.386783
0.0213094
0.0450663
0.0214395
0.0216608
0.0238217
2.79394
0.0239136
0.0241328
0.031699
0.0218556
0.0414169
2.70581
2.14714
0.0275714
0.0213801
0.0539191
0.0205216
0.0216089
0.150234
3.04057
0.0216818
0.0266817
0.107922
1.76051
0.0216349
0.0217316
3.06874
0.0219837
0.0814912
0.158822
3.44283
0.0213659
0.0253382
0.0212729
3.24384
0.0794289
0.0315126
0.0752194
1.86005
0.0218964
3.30182
2.15465
0.0216548
2.52428
0.0521874
0.0224433
1.5638
0.0214828
0.0215908
0.0208431
0.119351
0.246122
0.0995509
0.0221039
0.0218551
0.0249407
0.336675
0.159762
3.37268
0.299932
0.0217248
0.0802947
0.0971952
1.57851
0.0564636
0.135471
0.0210922
0.0314203
0.0209853
1.01174
0.0306186
0.0212673
2.22253
0.391317
0.0266035
0.0296234
0.0201013
0.0218041
0.0412796
0.0277909
0.668705
0.0451818
0.048986
0.0475303
0.0831481
2.2001
0.1036
3.33378
0.0212689
0.0211663
0.164251
1.9446
1.84128
0.102169
0.0251159
6.33936
0.298993
0.0217693
0.0235306
0.0208721
0.0300404
0.0460184
0.0284891
1.81278
0.161459
0.0220032
2.43455
6.36349
0.0214248
0.0708416
2.46761
1.59366
0.0225083
0.0479728
0.0199058
0.0234312
0.0228259
0.0234356
3.34746
2.78457
1.81048
7.65128
0.021984
0.0284791
0.0424337
0.0215453
0.0221186
0.0209425
2.81792
0.0210517
3.17624
0.0303211
0.0428142
0.116653
0.170396
4.63296
2.1648
0.029653
0.0204429
0.0255187
1.94743
1.09752
0.0229489
0.0208457
0.0209876
0.0458586
0.0257233
0.0906503
2.21575
0.0219712
0.0208862
0.0741025
0.0478435
6.53034
0.929611
0.0209953
0.0485585
0.0216061
3.45689
0.0207772
3.11264
0.0228056
0.0219416
0.0288651
0.021873
0.0667996
0.0251713
0.033229
1.46154
2.66595
0.023162
0.0253706
0.0212623
2.0709
1.52223
0.0229132
0.0208451
0.298089
0.0199412
3.71306
0.0218582
0.0300302
0.0517027
1.06352
0.0318153
0.0227952
0.0215416
0.0453804
3.02978
0.0212015
1.00129
3.45384
0.865333
1.50945
0.0282731
3.61645
0.0231287
0.802421
0.0213
0.305058
0.302862
1.66272
1.52341
2.26967
0.0241794
0.0508077
0.0210891
8.42587
0.28556
2.91203
1.43045
0.0242659
2.20468
0.826311
0.0291064
0.0222762
0.021536
3.24093
0.023546
0.0449936
0.0293494
0.0216032
0.0207776
0.0214828
2.57542
0.169133
0.0262873
1.58544
2.09524
0.0235057
0.0213264
0.0210608
0.0286368
3.09563
0.172897
0.0236098
0.0271563
0.900246
0.0574972
0.0319079
3.23042
0.0258487
3.27106
0.0250248
0.0267765
0.0213073
0.0292571
0.0472002
0.337518
0.31064
3.0502
0.0509336
3.81664
0.0261747
0.0228072
0.0221545
1.84247
1.9957
0.64183
0.242374
0.0223978
0.0213847
0.0212173
0.0214362
0.0209702
2.31832
0.0252001
2.24892
0.0272554
2.38432
2.11756
3.10822
0.0355192
0.0233786
1.42903
0.0319856
1.47204
3.22723
0.0207308
0.387774
0.0240408
4.39466
2.04646
0.0288596
0.51968
0.460963
0.0253916
0.0433893
0.023961
2.10765
0.335436
0.0226146
0.0215356
0.308826
1.55977
0.0896832
0.437375
0.0812961
0.0289139
0.0217366
1.96431
3.04641
0.0604827
0.0253819
2.6163
2.7625
0.0211101
0.021409
0.0227181
2.96134
2.8308
0.0213566
4.16563
0.0217433
0.0212199
0.0215352
8.05928
0.996719
0.0426101
1.9259
0.0223656
0.022059
0.0210675
2.6101
0.0224526
3.58099
0.0235047
1.10798
0.0216476
0.0211925
0.0862859
2.3786
0.293885
0.0291718
2.26128
0.0208677
0.0214586
0.021416
0.0328208
0.0439411
0.0436701
0.031121
2.9829
0.0227612
0.0899821
0.361816
2.17794
0.021969
3.26741
2.96132
0.0229826
0.49806
0.0427479
2.12975
0.021513
0.0534989
0.0217619
1.46573
7.64847
0.0651229
3.17429
0.0227843
0.0331855
0.0220895
3.82486
0.0205868
0.0208588
0.464278
0.069977
1.99512
0.848141
0.0416078
0.024782
0.020819
1.21758
0.0283334
0.0229791
0.0904943
0.0218308
0.0310694
0.0213796
0.866235
0.0231291
0.26105
0.312912
0.0291374
0.339219
0.0426148
3.48055
0.0214246
1.20337
1.9329
0.020891
0.0213656
0.0221887
0.0216606
0.0303226
0.0214468
0.521013
0.0492956
0.0878793
0.140525
0.0215619
0.0216537
0.020975
2.43084
0.0214706
0.0213358
0.149248
0.0225369
1.16645
3.1603
0.0551048
0.0237269
0.0275806
0.022042
0.0217363
0.0458036
0.0209848
0.0225961
1.59393
3.19852
0.295176
0.0220204
1.43584
0.978967
0.021672
0.0536705
2.89242
0.0213699
0.0223916
0.0213372
2.37801
1.80884
0.498061
0.0209522
0.0226506
0.0241406
0.0215319
0.0885833
0.0215319
0.260183
2.05434
3.25526
0.0207483
0.0225457
0.022369
2.12385
0.0200905
1.69641
1.6486
0.338037
0.817519
5.20515
2.15636
0.0233348
0.456554
0.520017
0.0218956
0.0207787
0.0209674
3.14259
1.58513
1.51802
0.0219218
3.30783
0.0215021
0.120364
0.0214731
0.0223655
0.0218657
0.0207264
1.92061
0.0219258
2.0704
2.91202
1.65359
0.0351727
0.0350131
1.77236
2.98749
0.0226498
2.40291
0.0209472
0.0199983
0.0213179
0.0289938
0.0219709
1.44837
0.0280396
0.0771819
0.0317795
1.54276
1.523
0.076204
0.0206863
0.0434767
0.0575407
1.89185
0.0220414
0.0200669
0.0232807
2.21265
0.0219167
0.259719
1.40611
0.0302588
0.0440798
0.0220172
0.195191
0.021618
3.12878
0.0204164
1.74516
0.0254672
0.021471
1.41589
1.55191
0.0205107
0.0424272
0.0229979
1.50073
0.0378491
0.681739
0.0646128
0.0216171
0.0437386
2.55744
0.0228208
0.028654
0.0239974
0.049502
0.0261132
1.69513
2.95255
0.0214778
3.3047
0.0219059
0.0320169
2.73193
1.41084
0.0302901
2.89848
0.536535
0.0215442
0.263097
0.078694
0.0254307
0.0219031
2.41756
0.020567
4.46922
0.0455084
0.0837896
0.0213721
0.0279328
3.10725
0.0323586
2.36214
0.0217498
0.0225561
0.103197
2.51923
0.0234037
3.025
0.831531
1.48437
0.0215607
2.519
2.25072
2.02662
0.0214091
0.0250187
0.0215307
3.11641
0.0309499
0.239926
0.151172
0.021631
0.0212946
0.0213832
2.01038
0.735285
2.8532
1.57254
0.0210451
2.77559
2.98903
0.083402
1.46801
2.9565
0.0299957
4.81954
0.0223212
0.0232588
2.09518
2.58374
0.0239218
3.46971
0.0217912
0.0213983
2.44246
2.9956
3.26745
9.03627
0.0264935
0.0216336
0.0238575
3.05672
1.50056
0.0212101
0.0320198
0.505851
0.0214262
0.0214689
2.82609
2.48974
0.0222692
0.0214409
0.0218607
0.0221689
0.509549
0.0216495
0.0218764
0.023671
1.02865
2.94321
0.686516
2.51457
0.0214843
0.0232552
2.7411
3.00849
0.0253432
0.239837
0.0213539
0.0279676
0.0227912
0.0243405
0.0497018
0.0216956
0.825176
0.0279046
0.0213321
0.0230782
2.29687
1.9034
3.48482
0.0214341
0.0263921
3.09085
0.640375
0.022617
0.0219288
0.0214811
0.230933
0.0214793
0.0233414
0.0244932
0.0213554
2.78121
0.180161
0.021608
0.022787
0.020794
0.0215183
1.6904
0.530827
0.0467889
1.40436
0.0743832
0.0216665
0.0213367
0.0214665
0.0214813
0.0215982
0.0254287
0.0590947
2.68443
0.0234095
0.0753998
3.35561
0.0510425
0.0212985
0.0208745
0.0223629
2.23186
0.0214239
1.91598
0.16016
0.0410582
0.0245447
6.13511
0.0209371
0.260222
0.0208811
0.0210077
0.021953
0.0215424
0.0359295
2.56958
0.270568
0.0299288
2.009
0.822309
0.9865
0.0258547
2.99087
1.45065
0.0758981
2.18322
2.85992
0.0730223
0.180231
0.0216537
0.0220372
1.46267
0.0211433
0.022815
2.61824
0.0950372
1.62243
0.657066
0.0210462
0.0262194
0.0214527
0.222345
0.0214193
0.0350802
2.14653
2.75649
1.0069
0.0214523
0.0206765
0.0474544
3.20674
2.82282
0.0902205
0.199496
0.0209754
0.295276
3.44209
0.155369
0.0228667
0.0214699
0.0207723
0.0226458
0.0215217
0.0214619
0.022706
2.78588
0.0508895
3.12243
0.477657
1.96965
0.103354
0.021295
0.0221617
0.0237133
0.0211329
0.0216378
0.536986
2.23052
0.516524
3.28458
0.02234
1.61901
0.11078
3.05575
3.17868
0.0214908
0.0214465
0.174219
0.0214547
0.0205453
0.414327
2.80188
0.60502
0.0213907
0.0214689
0.0255677
0.0300851
2.23104
0.0209738
0.0235028
0.193625
0.0209763
0.485939
0.0298034
2.45341
0.0216282
0.160895
3.20037
0.0295043
3.0196
0.07454
3.20134
0.0208657
0.0233988
0.0210578
0.0256584
7.22946
0.0221599
1.50755
0.0234078
0.022302
0.0214519
3.21846
0.0316444
0.0753564
0.39847
0.0210427
0.0356306
1.60682
0.0430808
0.0221498
0.0236226
0.0214643
0.0398495
0.0218207
0.0215162
3.34887
3.28968
3.10893
1.4476
0.519048
1.57044
0.0452816
3.38253
0.0918002
0.0207165
0.0215489
0.0199594
0.0215799
3.09405
3.06612
0.0215197
1.66057
3.2521
0.0247488
0.0232941
0.0250845
2.33615
2.78994
2.8288
1.80355
2.84532
0.0199581
0.185886
0.0712905
0.28339
2.20395
0.0213491
0.0803906
1.52529
0.0277184
3.18045
0.0217173
0.0380041
1.54035
3.01856
0.0476926
0.0263533
5.10022
0.0795458
3.07654
3.08676
2.76044
0.0735451
2.48903
0.0214796
0.0256146
0.0330549
4.09583
0.312675
3.31603
0.0241757
0.0880307
0.0567512
0.0252993
2.89312
0.0213687
0.0837206
3.75215
0.0213797
2.29911
2.19313
3.09355
2.42047
1.83035
0.520678
0.0214021
3.13131
0.0232714
0.0223299
0.0305433
0.022591
3.03569
0.0226583
0.026234
0.0227385
0.0214921
2.24901
0.0222126
0.075511
0.226075
0.0207253
3.63122
0.0706536
0.0235077
2.01415
0.149995
0.021372
0.817637
0.021757
3.22773
0.491897
0.0216048
0.0715019
0.0222418
3.21105
2.89364
0.0481811
1.28427
0.025066
0.0214851
2.53821
0.0226184
0.0215606
0.710349
0.0293264
0.0209585
0.0212882
0.0979731
0.0221637
3.68825
0.183822
0.0834009
2.01193
0.035464
0.0461041
0.0214696
3.24926
6.31518
2.05923
0.0214123
0.0212352
0.0494553
0.0262199
0.359792
0.0215913
0.520567
0.021729
1.13919
0.0230851
0.124362
0.162464
0.0727824
3.43059
1.43405
2.85727
2.87561
0.0200059
0.193114
0.193582
4.46294
0.0221828
0.149814
6.01328
1.61744
0.0726604
1.0067
0.801106
3.33051
0.0313765
0.148267
0.0207142
0.0332297
0.030165
0.0213384
0.0453291
1.96878
0.373474
1.63657
0.196734
0.0212009
0.021038
0.028972
0.0213429
1.01251
0.0210019
0.0210838
3.46134
0.167631
0.0295732
0.0705563
0.0255648
0.0659859
1.57463
2.983
1.45925
0.0232075
2.94076
0.0231834
0.0210071
0.0222763
3.03636
0.174277
0.206389
0.167696
0.0218797
0.0212116
0.0213426
0.0216639
0.0236968
2.5697
0.207628
0.0249629
2.92389
3.72856
0.51788
6.18207
0.0214165
0.0252788
0.405192
0.0214099
0.0260305
0.0239498
0.0226346
3.44276
3.00831
0.0210302
0.028948
0.025398
0.051963
2.12117
2.2095
3.29352
0.0219875
0.0515399
3.25114
0.0515699
0.0717853
0.446313
2.37273
3.36021
3.39217
0.0209038
2.50603
0.0214136
0.0228512
0.0213479
0.0439194
3.34766
6.47059
0.515633
1.6536
0.0413855
0.0204598
0.0208616
0.0214694
0.0248373
0.0315922
3.37312
3.33322
0.0489789
0.483819
0.0215975
0.0414939
0.0207759
3.07686
0.0603441
0.0218911
0.114517
0.0697108
1.8843
3.49463
0.099195
2.50748
0.0231442
2.09943
0.157429
2.26338
0.297092
0.0230486
0.0415575
0.0214479
2.77515
1.80089
0.0307094
2.89035
0.149535
2.45957
0.0487484
0.376728
0.0354723
0.0209436
0.0743166
0.0464486
0.0227338
0.0416965
0.0259785
0.0270571
1.80015
0.0983414
0.022444
0.0260219
0.0283461
0.027421
0.0236311
2.12225
0.0787301
0.110992
4.24915
0.0213874
3.07973
0.0214669
0.0236298
0.0225413
3.02008
0.0310161
3.1519
5.69545
0.04424
0.0438826
0.075049
1.93374
0.0837184
1.25387
0.0278575
0.0315284
0.0222457
3.14937
0.455839
0.0283666
0.0229566
0.0306054
0.023454
0.0229537
0.0334592
0.029022
0.021519
0.0288768
6.48596
3.4724
0.314945
0.0303906
0.0202841
2.02273
0.0261869
0.0420233
0.891344
0.0303972
1.76084
0.0206017
0.0249695
0.0236768
0.0284821
0.0212543
3.24253
0.143965
2.32803
0.0311254
2.95792
0.168975
0.0233324
1.89042
0.0429759
0.165997
2.02109
0.0389582
0.022682
0.0294231
0.0487957
0.0247183
0.181175
3.68453
0.312169
0.0209539
0.171764
1.16853
1.77511
0.0212886
0.0320252
0.0218376
0.0261914
2.28299
0.0254042
0.0250879
0.0209747
0.0209134
1.97178
2.97614
0.0215014
1.98878
0.16199
0.0204966
0.0289962
3.18584
0.0836818
0.0694984
0.0213796
0.0241188
0.0905084
0.0236366
0.0212297
2.44574
0.0251418
3.20683
0.0527203
0.0235805
3.31377
0.0924769
0.118486
0.0210052
0.382826
0.0250359
0.023821
1.66591
0.029869
0.0215483
0.0646183
0.0228684
0.025808
0.0208124
1.41852
0.0213627
0.0556792
2.28082
0.0716463
0.0215338
0.97344
0.025491
2.48838
0.281213
3.3604
0.0820951
3.0007
0.0207859
0.0508688
0.0232321
0.0211689
0.357664
2.12098
0.0230068
0.708771
0.0285434
0.0489349
3.40652
0.0234725
0.496241
0.915649
3.16359
2.06892
1.20727
0.0267666
0.0210252
0.0573394
0.0299052
0.546183
1.66865
3.05612
2.19976
3.17525
0.02088
1.45378
0.0214114
0.0219213
0.0214964
0.450465
0.133701
0.0674525
0.0211647
11.0053
0.024199
3.5277
0.022415
0.0486676
0.0252373
0.0444978
0.0324035
0.0694013
0.0221151
0.135277
0.175959
0.0210309
2.42225
0.170497
0.0489794
0.0227457
0.0255456
0.0216757
0.0212844
0.0418223
0.0335153
1.40602
0.15693
0.054687
0.902533
0.0230604
1.32763
0.0422747
2.1496
0.026429
0.0268328
0.372946
0.0272538
0.0560249
0.303084
4.29802
0.0227093
0.0216209
2.83868
0.0259297
0.0225272
0.0266477
0.0261036
0.0215889
0.0241512
3.17452
0.0229097
0.0322008
3.07635
0.0739334
0.0486225
1.71611
1.73081
3.30421
3.09851
1.26095
0.0418526
1.20637
0.022133
0.022937
0.0214559
0.0210732
1.52799
0.473581
0.0276603
0.0209912
0.907443
0.0737661
0.0232581
0.0295833
0.0381255
0.0212672
0.0222956
1.84894
0.0236908
0.0280183
0.0303392
0.023262
0.0750503
0.0429688
0.0257863
1.48563
0.061163
1.96473
1.29535
2.87231
0.0244369
6.21919
0.122295
0.0903645
0.0503189
2.13551
0.0485123
0.0241195
0.0338582
0.0455302
0.0223854
0.0567483
0.0211983
0.0212817
0.0210325
0.0229081
3.19204
0.0213126
0.0691585
0.023803
0.0224875
0.0229862
0.68509
0.0223417
0.0471157
0.0214792
0.0230334
0.0232865
0.0217894
0.290801
0.0224442
0.0217058
0.0218747
0.0258944
0.0226176
1.77834
0.0242208
1.88877
0.96298
2.47443
0.0415198
0.0592414
0.0454836
0.0295144
0.0332682
0.0230498
1.47556
2.77219
1.464
0.0508746
0.02574
0.0233936
2.14715
0.0329445
2.94379
0.0230389
0.86012
0.0883292
1.33855
1.11355
0.0207907
0.0214233
0.0211257
0.0245924
2.80891
0.0396201
0.833597
0.0238492
0.0246221
0.0211282
0.0216587
0.0290821
0.0224866
0.0228403
0.0225516
0.152173
0.173206
2.25487
0.0267644
0.165143
0.0218337
0.0213571
0.0688984
0.0217005
0.0227677
0.0434687
0.0228513
0.0532699
0.0214284
0.0317862
0.0214918
0.023071
3.13579
0.0219626
0.0224594
0.0220861
0.0228008
0.77584
0.0216268
0.034233
1.83701
0.0231187
0.0255653
0.0219408
0.0293285
0.0216223
0.102888
0.0214422
0.0251935
2.91571
0.0211945
0.0255347
0.0345122
0.0500022
1.6756
0.0207247
0.0226028
0.0251214
0.0251932
0.0817179
0.935204
4.36991
0.0207059
0.027025
0.0655511
0.0290038
0.197546
0.0205653
0.0215098
2.01896
0.0297442
0.0225179
0.020747
0.45715
0.123856
1.39805
0.0215124
1.62715
0.0206789
0.020719
0.0224667
0.0492389
3.39276
0.021475
0.0210752
0.145228
0.0214401
0.0222992
0.159495
3.44992
0.0214504
0.0210026
0.0249707
0.0269995
0.148054
2.98074
0.0216632
0.0685732
0.0227789
0.0213592
2.13819
0.0242252
0.0217925
0.0252904
0.166213
0.0831212
0.0223475
0.0218155
2.39684
0.0301667
0.0219146
1.31796
3.57137
0.021445
0.0215994
0.0222565
0.0213799
0.0214412
0.0217067
0.0211344
0.0305288
0.0222162
0.0381235
0.0331668
2.02087
0.726837
0.0266107
0.020683
0.0214689
0.0218314
0.0222552
0.0300045
0.0252808
0.1797
0.0226667
0.0805015
0.0231866
2.76031
1.41146
0.0246793
0.025861
0.0915211
0.0226306
0.0275134
0.021399
0.0218854
0.0211487
0.150524
0.0381921
0.0421715
0.0684098
0.0224362
0.026378
0.0218503
3.0193
1.69508
0.368934
0.0246566
0.118545
0.0862051
2.77006
0.0217064
0.160902
0.0442422
0.0214026
0.0216451
1.59938
0.0214672
0.0220672
0.0222969
1.26922
0.0214523
0.0216069
0.0250175
2.61352
0.0212601
0.0381321
1.17198
0.0224935
0.0214722
0.0212868
0.0214211
0.0216245
0.0215873
0.0687515
0.0246614
0.0214563
0.0215922
0.0216071
0.0250615
0.0213775
0.252681
0.0215106
0.0215836
0.0302785
0.12995
0.0319466
1.4541
1.1275
3.05914
0.027943
0.0215849
0.0347363
2.13498
0.0210423
0.325686
0.029105
1.18577
0.0225483
0.0304633
0.0216235
0.0213971
0.0737619
0.160855
1.72357
0.142388
3.13905
0.0216019
0.0218235
2.11754
0.0209586
0.0214612
2.90418
0.0210612
2.20415
0.0214365
0.123198
0.0682158
0.0225456
0.43346
0.0282064
0.0518038
1.10348
1.25822
1.34354
2.26628
0.49515
2.54309
0.0214914
1.58195
0.0214401
0.0213302
0.0217072
0.0217138
1.11755
0.0219317
4.92654
0.02147
0.0213941
0.0215241
0.64746
0.0231619
0.0221268
0.0458343
0.024869
0.0250019
0.0230843
0.0248632
0.171741
1.93639
1.0354
0.936805
0.0674738
0.0219061
0.147877
0.0214551
0.0278791
0.0607481
2.42958
0.0392781
3.09207
0.0214428
0.75829
2.42122
0.0928913
3.31896
0.266207
0.0224104
0.0213379
0.0230335
0.0214407
0.0213263
2.38433
2.20187
0.0211753
1.8934
0.0214255
0.0680012
0.0211092
0.389527
0.0281981
0.0223704
0.0222771
0.406421
1.27094
0.346231
0.0207801
0.0207639
0.0239764
0.022757
0.0218441
1.20614
0.786621
0.032116
2.0465
0.0372065
0.0216352
0.0297267
0.069885
0.0216756
2.87944
0.0400715
0.345365
0.0226082
0.022711
0.021203
0.0200823
0.0213818
0.0243005
0.0208432
1.49452
0.0336912
0.490725
0.021303
0.0383074
0.021456
0.62094
0.0349594
0.0401693
2.84476
0.0239962
0.0213463
0.0233406
0.0216415
2.39165
0.0984608
0.036465
0.0401408
3.13562
1.61885
0.0781831
0.0369701
0.0213987
0.0224437
0.0222764
0.0830783
0.844155
0.023972
0.0214968
0.496086
0.160714
0.0216144
0.0223174
0.0399658
0.0219675
0.0211614
0.0365066
0.0215042
0.0216733
0.0210183
0.0224131
0.0217531
0.0409644
1.48819
0.0214664
0.16639
0.0681351
0.0678489
0.0210026
0.0229049
0.0394665
0.0233784
0.0214402
0.249909
0.0213521
0.0423542
0.0215158
0.0371941
1.8441
0.0402724
0.0220156
0.0448106
1.72075
1.02771
0.0214376
0.0274025
4.31424
0.0216406
0.0225008
0.0487664
10.5402
3.16338
0.0225318
0.0213653
0.0525448
0.0214494
0.021885
0.026533
0.0216194
3.17168
0.0216302
1.04785
0.0214459
0.0214701
0.0461851
0.021385
0.0214965
0.0263556
0.813353
0.0206735
0.0427672
0.0216684
0.0215695
0.0224154
0.0246677
0.0237952
0.0527323
0.0224065
0.0216028
0.0216464
0.0284262
0.0219173
3.27646
0.0217407
0.0678466
0.0266216
0.0256351
0.0243344
1.04154
0.0214623
0.0217576
0.0206217
0.0675225
0.362653
0.0230105
0.0333875
0.0210986
0.0319604
0.0214593
0.119047
1.58902
0.0226309