/*--------------------------------*- C++ -*----------------------------------*\
| =========                 |                                                 |
| \\      /  F ield         | OpenFOAM: The Open Source CFD Toolbox           |
|  \\    /   O peration     | Version:  v2012                                 |
|   \\  /    A nd           | Website:  www.openfoam.com                      |
|    \\/     M anipulation  |                                                 |
\*---------------------------------------------------------------------------*/
FoamFile
{
    version     2.0;
    format      ascii;
    class       surfaceVectorField;
    location    "150";
    object      Uf;
}
// * * * * * * * * * * * * * * * * * * * * * * * * * * * * * * * * * * * * * //

dimensions      [0 1 -1 0 0 0 0];


internalField   nonuniform List<vector> 
20537
(
(1.05001 0.00815502 4.20602e-22)
(1.05049 0.00801325 4.53325e-22)
(1.05082 0.0084939 -1.57223e-21)
(0.521373 -0.00357586 1.25801e-20)
(0.519509 -0.00316585 -1.94553e-21)
(0.522911 -0.0126819 -4.57448e-21)
(1.04698 -0.00192103 5.01205e-22)
(1.0457 -0.00162486 -1.86622e-22)
(1.04576 -0.00293197 0)
(1.04995 0.00734962 0)
(1.05044 0.00764181 0)
(1.05069 0.00730564 0)
(1.06125 0.00563075 0)
(1.06058 0.00456326 1.942e-21)
(1.06007 0.00574177 0)
(1.03517 -0.00402582 -8.52974e-22)
(1.04173 -0.00848734 1.00685e-21)
(1.04232 -0.00120847 5.62342e-22)
(1.02651 0.00993422 -1.60734e-21)
(1.02691 0.0101562 0)
(1.02644 0.0102317 0)
(1.04694 0.00652083 1.43185e-22)
(1.04727 0.00698418 -4.75603e-22)
(1.04761 0.00629159 -5.84281e-23)
(1.03398 -0.0044284 2.92535e-22)
(1.0345 -0.00464383 2.71978e-22)
(1.03387 -0.00461382 -9.5206e-23)
(1.03167 0.00789035 5.21209e-22)
(1.03311 0.0089762 -1.8243e-21)
(1.03357 0.00707168 2.0561e-21)
(1.03585 -0.0084856 -4.13253e-21)
(1.0319 -0.00267872 4.83428e-23)
(1.03085 -0.00615097 8.14468e-23)
(0.375764 -0.00410537 -2.50608e-21)
(0.361207 -0.0101827 -5.81465e-21)
(0.337602 0.00240207 -1.60733e-21)
(1.02031 0.00415821 0)
(1.05305 0.007025 0)
(1.02846 0.00688156 -5.0431e-21)
(0.0841621 0.0754303 3.94301e-21)
(0.104526 0.0742354 -5.5344e-22)
(0.0318304 0.0670168 1.19548e-20)
(1.02221 0.00128243 0)
(1.02189 0.00117816 1.42412e-21)
(1.02206 0.00155427 0)
(1.0439 0.0108264 -1.41199e-21)
(1.04391 0.0106939 0)
(1.04386 0.0107669 0)
(1.04236 0.0116524 -1.15505e-21)
(1.04211 0.0115357 5.1256e-23)
(1.04205 0.0117001 -3.72996e-22)
(1.04592 0.0130981 -2.11752e-21)
(1.04572 0.0126827 -1.75358e-21)
(1.04567 0.0130678 -3.98972e-22)
(1.08385 9.52489e-05 5.13683e-21)
(1.08363 -0.00248892 -1.00308e-21)
(1.08234 -0.000831632 -1.22064e-21)
(1.03348 -0.00422765 -3.72932e-22)
(1.0341 -0.00424912 -7.598e-22)
(1.04951 0.0069782 1.07775e-21)
(1.04917 0.0072848 -4.88384e-22)
(1.04835 -0.00108051 4.48489e-22)
(1.04858 -0.0024453 -2.20627e-22)
(1.00343 -0.00045719 -4.97245e-23)
(1.00344 -0.00055156 -1.10325e-22)
(1.00415 -0.000730237 -2.52417e-22)
(1.02403 -0.000787273 -4.57551e-22)
(1.02031 -0.000506338 5.02732e-22)
(1.02435 -0.000844397 1.33563e-21)
(1.00336 -0.000320331 -2.1235e-22)
(1.00259 -0.000265274 6.37813e-23)
(1.04628 0.00662043 2.06148e-22)
(1.04657 0.00590282 -3.37433e-22)
(1.04127 0.0149801 -1.61386e-22)
(1.04084 0.0149745 3.40229e-22)
(1.04104 0.0147117 3.6177e-22)
(0.00771148 -0.0513556 0)
(0.010597 -0.0518038 -1.90155e-20)
(1.04926 0.00794005 8.28482e-22)
(1.04961 0.00844476 -1.55176e-21)
(1.04304 0.0102431 8.38522e-22)
(1.04297 0.0102713 4.59898e-22)
(1.04328 0.0103794 1.41765e-21)
(1.02837 0.00262353 1.74205e-21)
(1.02381 -0.0050019 -1.16949e-20)
(1.04263 0.0114989 -2.43606e-22)
(1.04264 0.0117135 8.76174e-22)
(1.04539 -0.000436397 -2.12222e-22)
(1.04433 -0.00126259 1.48128e-22)
(0.860062 -0.0839621 -2.02772e-22)
(0.859321 -0.109615 0)
(0.846031 -0.0930435 -4.69507e-22)
(1.02404 -0.000693004 -8.65254e-22)
(1.02597 -0.00101388 -9.67537e-22)
(1.06353 0.0290282 -8.52752e-22)
(1.0631 0.0293217 -8.34723e-21)
(1.06383 0.0296745 -2.17138e-21)
(1.06 0.0327288 1.83051e-22)
(1.06114 0.0321822 -4.7653e-21)
(1.06064 0.0324237 2.23681e-21)
(1.06127 -0.0209864 -8.74356e-22)
(1.06388 -0.0207538 -6.31554e-21)
(1.06257 -0.0181063 5.21396e-22)
(1.02988 0.00841341 -1.08772e-21)
(1.03055 0.00602816 3.6968e-21)
(0.877922 -0.0686161 -9.09908e-22)
(0.862773 -0.0484186 -1.61978e-20)
(1.03774 0.00381629 -8.31782e-22)
(1.03827 0.00386737 -5.40938e-22)
(1.03802 0.00401555 0)
(0.999336 -0.00659192 -2.47216e-23)
(0.999619 -0.00653954 1.07261e-22)
(0.999164 -0.00619037 1.20461e-22)
(-0.00442929 0.0514969 -1.08424e-20)
(-0.00266749 0.0471455 -1.2419e-20)
(-0.00658458 0.0492766 -1.36606e-20)
(1.01953 0.0168391 3.88662e-21)
(1.01425 0.0163087 -1.70097e-23)
(1.02079 0.0107949 3.17438e-23)
(1.02465 0.0133616 -2.22421e-21)
(1.01694 0.0223225 -3.56022e-22)
(0.0277489 0.0411236 0)
(0.0513548 0.0343901 1.10484e-21)
(0.0604032 0.0345548 1.30204e-22)
(0.988449 0.0448047 -1.26009e-22)
(0.9986 0.0387313 3.05451e-21)
(0.991269 0.0448094 -1.27247e-22)
(0.828534 0.00721625 -3.31577e-21)
(0.796277 0.033202 0)
(0.785345 0.00117363 2.61173e-21)
(1.04168 0.0149603 -3.2474e-22)
(1.04149 0.0152554 -6.35077e-22)
(1.04077 0.013107 -4.92129e-22)
(1.04465 0.00942071 3.71727e-21)
(1.03808 0.00687514 1.69715e-21)
(1.06132 0.0159908 -3.14716e-22)
(1.06197 0.0163737 -4.91259e-21)
(1.06114 0.0167189 -2.18385e-21)
(1.07151 0.0141642 -6.11389e-21)
(1.07089 0.0145899 4.94422e-21)
(1.0717 0.0154352 -2.47119e-21)
(-0.0188982 -0.0149793 1.97429e-21)
(-0.0153229 -0.0105616 9.04873e-21)
(-0.0132965 -0.0178956 8.05653e-21)
(1.02247 0.000715755 4.7065e-21)
(1.0224 0.000707518 1.2698e-21)
(1.02285 0.000989519 1.40607e-21)
(1.02835 8.46655e-05 -3.02349e-21)
(1.02795 1.77982e-05 -1.6301e-21)
(1.02892 0.000290879 -1.37931e-21)
(0.999052 -0.00665441 -2.57537e-23)
(0.999528 -0.00700454 -1.03412e-22)
(1.01845 -0.00131037 -6.82843e-22)
(1.01946 -0.00148787 -1.76612e-22)
(1.01812 -0.00114221 -1.84834e-22)
(-0.0315156 -0.0240636 -3.26994e-21)
(-0.0360421 -0.0210569 4.94018e-21)
(-0.0285388 -0.0263271 5.90084e-21)
(1.04273 0.0100662 -1.01843e-21)
(1.04307 0.0101743 1.57374e-22)
(1.02938 0.0100445 -4.24655e-22)
(1.02894 0.00985212 3.71142e-22)
(1.02901 0.0101819 1.30165e-21)
(1.06318 -0.0243108 1.18743e-21)
(1.05767 -0.0214249 4.69502e-22)
(0.623791 -0.0455228 -7.50964e-23)
(0.618451 -0.037252 2.66872e-21)
(0.551254 -0.0449023 -1.56399e-20)
(1.04137 0.0265503 1.54895e-21)
(1.04335 0.0299352 -4.56152e-22)
(1.04386 0.0263925 -6.3439e-21)
(1.06415 0.00641698 1.7358e-22)
(1.06365 0.0054056 2.46629e-21)
(1.06486 0.00545859 8.8764e-23)
(1.02838 0.000303034 3.53205e-21)
(1.04463 -0.00361732 8.44793e-22)
(1.05625 -0.000705197 1.38982e-22)
(1.05381 0.00871638 -2.54461e-23)
(1.0534 0.00826957 -1.69746e-21)
(1.05425 0.00831682 -5.14327e-22)
(1.06277 0.0336548 2.48016e-22)
(1.06131 0.0335281 -9.84993e-22)
(0.965294 0.0513972 -2.27458e-21)
(0.977258 0.0495066 -6.70732e-23)
(1.04994 0.0153979 0)
(1.04986 0.0149355 6.44477e-22)
(1.0494 0.0152503 0)
(1.04622 0.0130969 -4.66065e-22)
(1.04625 0.0136175 -1.50672e-21)
(0.490643 0.024139 1.66108e-21)
(0.479271 0.0231165 -2.47701e-22)
(0.444853 0.0246542 2.93125e-21)
(1.07294 0.0358935 3.90023e-22)
(1.07259 0.0359577 -2.21289e-21)
(1.06719 0.0350488 -2.20003e-21)
(0.544783 -0.000706725 1.39309e-20)
(0.527797 0.00840521 7.44921e-21)
(1.02237 0.00105473 0)
(1.02191 0.000484779 -3.26973e-21)
(1.02983 0.000238481 1.08612e-21)
(1.02976 0.000326117 2.20201e-21)
(1.02987 0.000315778 0)
(1.04015 -0.00561759 -1.78792e-22)
(1.04013 -0.00582638 -1.00178e-22)
(1.03942 -0.00559694 -8.37311e-22)
(1.04928 -0.000731814 -3.46837e-23)
(1.04831 -0.000427052 -4.93334e-22)
(0.54709 0.0233031 1.41258e-21)
(0.569939 0.0226533 -5.26565e-21)
(0.548222 0.0247479 -1.72322e-21)
(1.05288 0.010265 2.44909e-21)
(1.05356 0.0101569 -3.98581e-22)
(1.05316 0.00960382 6.85545e-23)
(0.478892 0.0214039 -1.38115e-21)
(0.445292 0.0204107 1.26301e-21)
(1.03302 0.0110381 -1.66549e-22)
(1.0329 0.0107648 -1.57304e-21)
(1.03251 0.0108876 -1.44413e-21)
(0.939838 -0.0188721 -7.35191e-21)
(0.952337 -0.0210467 6.31979e-23)
(0.940872 -0.0298478 4.19634e-21)
(1.0279 0.00482523 -5.47401e-22)
(1.02829 0.00501535 -1.42416e-21)
(1.02818 0.00475012 0)
(0.0346575 0.0305485 1.49389e-21)
(0.0523986 0.0258922 8.15665e-21)
(0.0253191 0.0294956 7.47908e-21)
(1.04049 0.0240427 -6.47281e-22)
(1.03873 0.0265259 2.69691e-21)
(0.388607 -0.000309036 6.17933e-21)
(0.427202 -0.0094525 0)
(1.04666 0.0110197 1.25064e-21)
(1.04481 0.0084349 2.25816e-21)
(1.04774 0.00753977 1.76283e-21)
(0.576176 0.0414632 1.75326e-21)
(0.6369 0.0340558 1.80526e-21)
(0.619036 0.0349303 3.36301e-21)
(1.04285 0.0132004 4.24257e-22)
(1.04288 0.01298 3.50913e-22)
(1.04323 0.0131305 6.29871e-23)
(1.0305 -0.015849 1.42233e-22)
(1.02974 -0.0152926 -2.96808e-23)
(1.02963 -0.0156535 0)
(1.06366 0.0285098 5.23792e-21)
(1.06405 0.0287218 3.6592e-21)
(1.07636 -0.00823263 9.50481e-23)
(1.08187 -0.00780462 3.47747e-21)
(1.07854 -0.0120939 -1.70712e-21)
(0.961828 0.038849 7.95247e-23)
(1.04503 0.0132487 2.00282e-23)
(1.04519 0.0130802 2.9227e-23)
(1.04536 0.0133201 0)
(1.04252 0.0132925 1.06676e-22)
(1.04286 0.0135083 3.04471e-23)
(1.01653 -0.000637456 -1.68474e-22)
(1.01696 -0.000729189 1.50926e-21)
(1.01878 -0.00111495 -4.00275e-22)
(1.06246 0.00534093 2.70271e-21)
(1.06195 0.00652637 -4.35162e-21)
(0.73026 0.00279388 -1.98527e-21)
(0.706581 0.00368518 -5.86867e-21)
(0.712158 0.00395639 -3.66076e-21)
(1.03381 0.0168823 4.74612e-22)
(1.04306 0.0188059 -4.79435e-22)
(1.01252 -0.000256559 5.63095e-22)
(1.01596 -0.00059393 -1.91359e-23)
(-0.0364644 0.03827 -3.77482e-21)
(0.00166261 0.0441807 1.41913e-20)
(-0.0242174 0.0444748 8.16469e-21)
(1.0558 0.0127798 -7.28252e-22)
(1.05594 0.0134339 6.55566e-22)
(1.05524 0.0131703 -2.97326e-21)
(1.04325 0.00769171 1.44246e-21)
(1.04344 0.0079382 -1.04731e-21)
(1.04381 0.00786386 1.27675e-21)
(1.03923 0.0183285 4.60396e-22)
(1.03956 0.0185758 -5.18479e-22)
(0.996242 -0.000265146 1.46383e-23)
(0.995202 -0.000456149 1.4581e-23)
(0.995848 -0.000264294 4.07643e-23)
(1.04842 0.0208264 -1.19364e-22)
(1.05094 0.0265003 -2.61057e-22)
(1.05237 0.0215259 -1.55032e-21)
(1.05731 0.014593 2.88158e-21)
(1.05721 0.0139397 -1.51242e-21)
(1.05796 0.0141944 -5.64314e-22)
(0.996267 -0.00481289 -7.41823e-23)
(0.996558 -0.00477467 -1.37698e-23)
(0.996177 -0.00443463 9.46332e-23)
(1.04938 0.0342122 3.20651e-21)
(1.01877 0.0320065 4.64598e-21)
(1.0436 -0.0154805 2.20893e-21)
(1.04802 -0.0109794 4.39353e-21)
(1.01999 -0.000630476 0)
(1.01574 -0.000362318 0)
(1.01958 -0.000604855 -4.30869e-22)
(1.03127 -0.0164178 1.2867e-22)
(1.03135 -0.0160063 2.34923e-22)
(1.07225 -0.00884884 2.37664e-21)
(1.07443 -0.0055704 -2.38844e-22)
(1.01444 -0.000153617 -5.85145e-22)
(1.01423 -0.000311456 -5.78815e-22)
(1.02225 -0.000905056 -5.00961e-22)
(1.02004 -0.00060548 7.64808e-22)
(0.741522 -0.0583684 -7.09736e-22)
(0.703171 -0.0606457 2.10912e-22)
(0.75824 0.00198174 -2.28941e-21)
(0.753607 0.000585925 -2.51856e-21)
(0.998027 -0.00350597 1.1317e-22)
(0.998262 -0.00375562 5.17203e-24)
(0.997901 -0.00375499 1.99801e-22)
(1.02775 -0.000253558 0)
(1.02764 -0.000282131 0)
(1.02415 -0.000167142 1.01105e-21)
(1.02863 0.000110432 -2.34326e-21)
(1.02765 -0.00017826 -1.20973e-22)
(1.02672 -0.000132788 4.04361e-22)
(-0.00524244 0.0520162 7.99841e-21)
(-0.00579398 0.0598037 9.05968e-21)
(1.03949 0.0179367 7.02903e-22)
(1.03892 0.0179996 0)
(1.01331 0.00157374 6.98101e-21)
(0.981195 0.00149294 6.5398e-21)
(0.754753 -0.120542 -7.57432e-22)
(0.862455 -0.0189103 -3.1183e-21)
(0.872242 0.0109383 2.59529e-21)
(1.01906 -0.0194275 -6.67095e-23)
(1.01826 -0.0189344 7.43767e-22)
(1.01893 -0.019624 -1.16863e-22)
(0.89863 -0.0478256 -4.14161e-21)
(0.850792 -0.052841 5.25093e-21)
(1.05426 0.0112887 -1.42439e-22)
(1.05457 0.0117368 6.09085e-22)
(1.05489 0.011013 0)
(1.0492 0.00664708 1.73235e-24)
(1.04991 0.00671225 -3.9128e-22)
(1.06838 -0.00387253 5.0923e-21)
(1.06827 -0.00248608 3.65262e-21)
(1.06976 -0.00296746 3.5638e-21)
(1.03749 0.00360484 1.47386e-21)
(1.03724 0.00372461 -8.92872e-22)
(1.03143 -0.00147417 -8.57457e-22)
(1.03175 -0.00147266 7.17846e-23)
(1.03142 -0.00136345 -1.34161e-21)
(0.500184 0.0222821 -1.33134e-22)
(0.513943 0.0200613 9.10941e-23)
(1.02761 0.00487561 2.29708e-21)
(1.02753 0.00460594 -5.24461e-22)
(0.739992 -0.0633785 1.33655e-20)
(1.03017 -0.000683274 -7.98462e-22)
(1.03008 -0.000707712 7.10038e-22)
(1.02982 -0.000614045 -2.34514e-23)
(0.997788 -0.00320561 1.2943e-22)
(0.998174 -0.00317956 1.42503e-22)
(1.07384 0.0359905 6.00065e-21)
(1.07391 0.0356152 1.627e-21)
(1.06839 0.034772 2.29347e-21)
(0.0126553 -0.0467979 8.66449e-21)
(-0.0223097 -0.0315824 -2.9586e-21)
(-0.00231835 -0.040551 1.97893e-21)
(0.26093 0.0331383 3.44204e-22)
(0.331871 0.0446693 2.08956e-21)
(0.272155 0.0294581 1.4046e-21)
(-0.0475504 0.0305112 -1.39448e-20)
(-0.0631951 0.0324028 -1.3593e-20)
(1.02893 9.11329e-05 1.40719e-21)
(1.02713 0.000279544 -9.92854e-22)
(1.05584 -0.00622674 -8.48788e-22)
(1.05702 -0.00564726 -5.30684e-22)
(1.05747 -0.00671527 -7.31625e-22)
(1.00615 -0.011569 -1.91518e-22)
(1.00634 -0.0113913 5.14692e-23)
(1.00673 -0.0119595 4.07084e-23)
(1.04011 0.0104978 3.5993e-22)
(1.04038 0.0106009 2.16909e-21)
(1.03999 0.0105985 4.86661e-22)
(1.00572 0.0215742 7.50839e-23)
(1.00739 0.0125917 1.97228e-23)
(1.00281 -0.0172666 -2.79427e-24)
(1.00215 -0.0168495 -5.02723e-23)
(1.00244 -0.0167371 -3.27308e-23)
(1.06909 -0.00588874 -2.00459e-21)
(1.06678 -0.00515386 -4.86738e-21)
(1.02606 0.00964848 7.48375e-22)
(1.02654 0.00960063 -1.76324e-21)
(1.02996 0.00413046 9.64479e-23)
(1.02611 0.00474432 6.18742e-22)
(1.05825 0.0243796 2.46271e-21)
(1.05872 0.024415 3.96833e-22)
(1.02836 -0.000263804 1.13437e-21)
(1.02905 -0.00011432 9.28369e-22)
(1.02949 0.000105657 0)
(0.0468383 0.0736739 0)
(0.13338 0.0806148 -3.51235e-21)
(1.01747 -0.00106024 -1.9998e-22)
(1.01872 -0.00151865 8.3969e-22)
(1.03849 0.0122729 -1.07274e-21)
(1.03859 0.0124821 9.17273e-22)
(1.0382 0.01237 -9.76552e-22)
(1.04029 0.0103933 -9.8192e-22)
(1.03987 0.0103669 -1.54497e-21)
(1.0388 -0.000377788 1.90534e-21)
(1.03845 -0.000509461 1.11925e-21)
(1.03902 -0.000539477 -5.10255e-22)
(1.04165 0.00969507 -4.40045e-22)
(1.04133 0.00956818 -1.85168e-21)
(1.0414 0.00967635 -9.28303e-22)
(1.07246 0.0138263 -4.59604e-23)
(1.07145 0.0132202 -9.66044e-21)
(1.06064 0.0155633 3.96537e-21)
(1.06143 0.0151666 2.55645e-21)
(0.996424 -0.00852189 2.31066e-23)
(0.99611 -0.00814412 2.28459e-23)
(0.995924 -0.00825972 -8.60418e-24)
(1.04538 0.015801 -5.86688e-24)
(1.04563 0.0156635 -2.74713e-24)
(1.04573 0.015997 -7.25282e-24)
(-0.0269567 -0.0271955 -7.16557e-21)
(-0.0316938 -0.0216079 -6.35663e-21)
(1.03112 -0.00146904 -4.69156e-22)
(1.03144 -0.00158201 -8.63838e-22)
(1.04433 0.0110419 9.03278e-22)
(1.0442 0.0110105 7.47732e-22)
(1.04412 0.0109661 1.40466e-21)
(1.00334 -0.00924181 -2.52671e-23)
(1.00388 -0.00958993 7.3198e-23)
(1.00364 -0.00914627 3.37896e-23)
(1.00344 -0.0178205 7.61607e-23)
(1.00305 -0.0178315 0)
(1.05046 0.015548 0)
(1.04999 0.0158237 0)
(1.04857 0.00657854 2.54946e-22)
(1.04891 0.00635363 -8.80187e-22)
(0.582867 0.00245175 8.33961e-21)
(0.504226 0.00198212 1.8891e-22)
(0.589425 0.00367596 -2.59793e-21)
(0.512329 0.0241695 1.12997e-21)
(0.544654 0.0229701 3.2124e-21)
(1.02512 -0.00360886 0)
(1.02553 -0.00370296 -5.81224e-22)
(1.02541 -0.00387019 0)
(1.03915 -0.000231391 1.57635e-21)
(1.03858 -0.000221431 1.35459e-21)
(0.20373 0.0206048 -2.30767e-22)
(0.261052 0.0376246 2.47013e-22)
(1.0308 -0.00145188 4.64555e-22)
(1.0308 -0.00135138 4.70309e-22)
(0.775277 0.0547098 0)
(0.80689 0.0599405 0)
(1.05385 0.0106351 -1.74156e-21)
(1.0535 0.0113916 -1.15968e-21)
(1.05474 -0.0031073 -3.24855e-22)
(1.05435 -0.00272113 0)
(1.05565 -0.00256676 -1.47324e-22)
(1.07563 0.00121841 7.19991e-21)
(1.08602 0.0023225 -4.32824e-21)
(0.996463 -0.00546228 0)
(0.996168 -0.00548771 3.11691e-23)
(0.996615 -0.00584459 0)
(1.0431 0.011469 -1.38657e-21)
(1.04287 0.0114172 -3.34326e-23)
(1.04311 0.011317 -4.57889e-22)
(1.0648 0.0352318 2.33704e-21)
(1.02691 0.00469597 -5.10129e-21)
(1.02657 0.00450858 1.313e-23)
(1.02687 0.00446769 -2.62516e-21)
(1.04864 -0.00362378 -2.58346e-22)
(1.04985 -0.00280416 -4.98408e-22)
(0.992658 -0.00184693 0)
(0.99239 -0.00151366 0)
(0.992229 -0.00168714 -8.7585e-24)
(1.0093 -0.00072981 -8.78518e-23)
(1.00947 -0.000785245 0)
(1.01066 -0.00095093 -3.96403e-22)
(1.05419 0.00915914 -1.43213e-21)
(1.05323 0.00902828 -8.12606e-23)
(1.02958 8.06852e-05 -2.69268e-22)
(1.02927 0.000123914 1.71988e-22)
(1.06168 0.00233089 1.82902e-21)
(1.06085 0.00134008 -1.36776e-22)
(1.06231 0.00100567 4.22483e-21)
(1.04303 0.0207905 4.29044e-22)
(1.04225 0.0224045 -9.30567e-22)
(1.04123 0.0204474 9.6699e-22)
(0.982728 0.0388509 3.2755e-22)
(-0.0210214 -0.0199311 2.39746e-21)
(-0.0248667 -0.0130539 -7.11302e-21)
(1.03196 -0.0169072 0)
(1.03282 -0.017021 5.81832e-22)
(1.03274 -0.0173574 -2.26695e-22)
(1.04947 0.0132261 -2.54178e-22)
(1.04955 0.0136675 6.02887e-22)
(1.04905 0.0135462 3.30437e-22)
(0.62515 -0.0566614 -9.88598e-21)
(0.665698 -0.0486997 7.0945e-21)
(1.03817 0.0118666 -8.01684e-22)
(1.03834 0.0120584 -8.9043e-22)
(1.03791 0.0119538 -1.25357e-22)
(1.05469 -0.00667476 -1.15126e-21)
(1.05429 -0.00591267 2.87341e-22)
(0.899051 0.0624176 1.81706e-23)
(0.913759 0.069483 2.90385e-22)
(0.904683 0.0422059 8.5312e-24)
(1.05527 -0.00362649 -4.61219e-22)
(1.05383 -0.00367354 3.53131e-22)
(1.04015 -0.00541323 -4.32602e-22)
(1.04089 -0.00564096 1.5933e-21)
(1.0199 -0.0199353 -8.38812e-23)
(1.01923 -0.0192467 4.41308e-22)
(0.131634 0.0302393 0)
(0.198305 0.0181474 0)
(0.192152 0.0170671 -7.81131e-21)
(1.01889 -6.86915e-05 -9.55189e-22)
(1.02533 -7.65521e-05 -7.91223e-22)
(1.01786 -0.000177281 -1.18894e-21)
(1.03086 0.00380498 -6.42567e-22)
(1.03072 0.00362952 -2.0862e-21)
(1.03112 0.00377816 -1.30218e-21)
(1.03902 0.015859 1.94618e-21)
(1.04018 0.0156177 -6.28276e-22)
(1.03946 0.0147209 1.28571e-21)
(1.02694 0.0049354 -2.42846e-21)
(1.02726 0.00490116 1.05671e-22)
(0.387253 -0.0965709 1.08115e-21)
(0.308537 -0.0998678 1.32274e-22)
(0.335831 -0.0968388 4.50753e-22)
(1.04256 0.0120015 -2.33703e-22)
(1.0422 0.0120132 1.09105e-21)
(1.0424 0.0122083 1.79426e-21)
(0.609355 0.0199062 0)
(0.590141 0.0208886 -3.93816e-21)
(0.609169 0.0196692 0)
(0.99565 -0.00653378 -6.10555e-23)
(0.995749 -0.0068409 -4.65025e-23)
(0.996095 -0.00685972 -7.87583e-23)
(0.863909 0.0204635 6.98052e-21)
(0.828634 0.0189533 6.03908e-22)
(0.83686 0.0195643 -1.90267e-21)
(1.04267 0.00746668 0)
(1.04305 0.00740258 1.26658e-21)
(0.895188 0.0929895 -5.10661e-21)
(0.900406 0.0991882 -5.79333e-22)
(0.902759 0.112789 9.76739e-21)
(0.995041 -0.00490206 0)
(0.995358 -0.0048532 -3.46016e-23)
(0.994937 -0.00455619 0)
(1.00498 -0.0107796 1.72254e-22)
(1.00473 -0.0109089 2.62768e-22)
(1.00442 -0.0104033 -3.496e-22)
(1.03805 -0.0254453 2.63606e-22)
(1.03852 -0.0224579 2.45584e-22)
(1.03644 -0.0223022 -2.42545e-21)
(1.03772 0.0203511 6.38132e-24)
(1.03984 0.021484 -3.36489e-21)
(1.04042 0.0189304 -1.16796e-21)
(0.00558752 0.0420208 0)
(0.00874615 0.0438919 9.59647e-21)
(1.02344 0.00265462 0)
(1.02319 0.00242617 -7.4433e-24)
(1.02349 0.00243125 0)
(0.611372 0.0199188 1.51036e-21)
(0.63047 0.0191959 3.35058e-21)
(1.04268 0.0118767 1.14273e-22)
(1.04285 0.0120364 -1.73108e-21)
(1.03348 0.0111676 1.25311e-21)
(1.03309 0.0113092 6.83491e-22)
(0.850851 0.0118722 1.1732e-20)
(0.825044 0.0108054 -1.22807e-21)
(0.825853 0.0114661 -7.03107e-22)
(1.07058 0.00725799 -3.04519e-21)
(1.07113 0.00618776 1.12929e-21)
(1.07191 0.00753205 0)
(0.786399 0.0202205 -2.7831e-21)
(0.757234 0.0194543 4.32427e-21)
(0.759314 0.018957 -2.94577e-21)
(1.00691 -0.000519809 -5.34554e-22)
(1.00666 -0.000495491 2.27507e-22)
(1.00499 -0.000218231 -9.90061e-23)
(1.04628 0.0129406 8.85808e-23)
(1.04678 0.0129254 0)
(1.04654 0.012566 7.70692e-23)
(0.996628 -0.000228003 -4.75443e-23)
(0.997609 -8.85553e-05 -6.27024e-23)
(-0.0419672 0.00464391 4.24636e-21)
(-0.0398499 0.00927264 -8.65925e-21)
(-0.0371941 0.00467283 0)
(0.994791 -0.00498191 -4.42622e-23)
(0.995223 -0.0052852 -5.17763e-23)
(1.0457 0.0066862 2.23999e-23)
(1.04597 0.0071595 -7.10334e-24)
(1.01557 -0.0113203 6.66612e-22)
(1.02654 -0.0120586 7.07072e-21)
(0.988582 -0.0169017 1.7808e-21)
(1.02487 -0.00334829 3.48217e-22)
(1.02472 -0.00350723 -5.88111e-22)
(1.0311 -0.0167034 1.87146e-22)
(1.05955 0.0180233 0)
(1.0597 0.0173549 0)
(1.05906 0.0175131 -2.11977e-21)
(1.04416 0.0103068 1.74124e-21)
(1.0444 0.0107101 -7.8225e-22)
(1.04382 0.0110302 -8.8513e-22)
(0.451681 -0.089313 -5.74153e-21)
(0.431888 -0.0957425 2.53334e-21)
(0.979304 -0.00175551 -5.53664e-22)
(1.00877 0.00126489 2.17637e-22)
(1.00554 -0.0111613 -1.43227e-22)
(1.00591 -0.0117011 -1.44285e-22)
(1.03065 0.00386001 -6.46196e-22)
(1.0311 0.00401202 1.1116e-21)
(1.03421 0.0110095 3.57326e-21)
(1.02077 0.00884324 -1.57525e-21)
(1.04714 0.0600261 0)
(1.03908 0.0595251 -8.67134e-23)
(1.05307 0.0510775 0)
(0.998574 -0.0115405 -5.4457e-23)
(0.998374 -0.0111315 2.99676e-23)
(0.999008 -0.0116594 2.19447e-23)
(1.03786 0.015914 0)
(1.03865 0.0170559 0)
(0.994399 -0.000683233 2.8232e-23)
(0.994784 -0.00064424 7.5004e-23)
(0.718519 0.0182349 -2.28478e-22)
(0.695003 0.0182891 -5.39215e-21)
(0.715596 0.0184544 -6.61834e-21)
(1.05566 0.0121949 -4.39147e-22)
(1.0564 0.0123694 -7.17943e-23)
(0.870096 0.0312145 5.00319e-23)
(0.857174 -0.0059011 5.94876e-21)
(0.864906 0.0189701 4.12522e-22)
(1.04045 0.0103329 -1.2058e-21)
(1.04061 0.0102719 -6.96232e-22)
(1.04024 0.0102166 -1.69288e-21)
(1.04282 0.0107939 -2.19864e-22)
(1.04259 0.0108149 -1.2323e-21)
(1.04273 0.0107581 -5.18128e-22)
(1.0495 -0.00324166 -5.24223e-22)
(1.04945 -0.00548025 7.45991e-22)
(1.05059 -0.00429009 -1.15149e-21)
(1.05502 0.0565596 -2.76964e-21)
(1.03824 0.0712753 1.32742e-21)
(1.03548 0.00908993 -9.75337e-22)
(1.03583 0.00922026 -2.25108e-21)
(1.03572 0.00903079 -8.8968e-22)
(1.04067 0.0104469 1.03261e-21)
(1.05606 0.0178483 1.34832e-21)
(1.05661 0.0182301 -1.25073e-21)
(1.05659 0.017443 2.94557e-21)
(0.957353 0.0563812 4.22772e-23)
(0.916462 0.0615737 0)
(0.979601 0.0567243 0)
(1.04482 0.0209002 -5.03719e-22)
(1.04395 0.0192709 1.61322e-21)
(1.06662 0.0352188 5.24802e-22)
(1.0744 0.0353553 -3.66673e-21)
(0.507626 0.0219367 2.46683e-21)
(0.416465 0.027928 9.90005e-21)
(0.367965 0.0240616 1.2792e-20)
(1.02301 0.00515908 2.56133e-21)
(1.02271 0.00487026 -1.71006e-21)
(1.0231 0.00488995 3.61103e-21)
(1.00519 -0.0106475 3.39613e-22)
(1.04646 0.012971 -4.78805e-22)
(1.04689 0.0133501 5.69928e-23)
(1.04673 0.0128042 -3.70844e-21)
(0.725996 -0.0724889 4.57294e-21)
(0.767758 -0.0717982 -4.25792e-22)
(0.720089 -0.085399 4.7349e-21)
(1.01492 -0.0152404 -2.49896e-22)
(1.01413 -0.0147728 -6.54662e-22)
(1.01453 -0.015309 1.52828e-22)
(1.04931 -0.00806102 -1.00894e-20)
(1.05141 -0.0102738 -2.32163e-21)
(1.01498 -0.0117477 -9.54415e-21)
(1.03842 0.0117544 5.82024e-23)
(1.03808 0.0116318 5.8059e-23)
(1.03525 0.00916677 -9.57737e-22)
(1.03513 0.00896059 0)
(1.04488 0.0135549 -2.53149e-23)
(1.04466 0.0132813 3.82005e-22)
(0.87714 0.0112908 -4.53548e-21)
(0.877065 0.0125638 5.89356e-21)
(1.04742 -0.0243421 5.46811e-23)
(1.04508 -0.0237769 -2.18196e-22)
(1.04713 -0.0227159 3.90231e-22)
(1.04883 -0.001386 -3.73881e-22)
(1.05049 -0.00131915 9.7903e-23)
(1.03876 0.0121451 0)
(0.93288 -0.0471676 8.07457e-22)
(0.976815 -0.0380103 0)
(0.932351 -0.0589071 0)
(1.0522 0.0103286 1.1935e-21)
(1.05257 0.0108539 -2.85892e-24)
(1.04394 0.0109523 1.58682e-22)
(1.04389 0.0108591 -8.35004e-22)
(1.03205 -0.00146092 4.11397e-22)
(1.03208 -0.00157915 4.33342e-22)
(0.935838 -0.00968389 -5.85183e-22)
(0.92354 -0.0185181 2.10632e-22)
(1.02205 -0.0255879 -1.77277e-22)
(1.02363 -0.0261546 3.37489e-22)
(1.02269 -0.0250284 1.68673e-22)
(0.817298 0.0211242 9.90275e-22)
(0.786817 0.0210078 -1.24519e-21)
(0.787586 0.0197582 8.58744e-22)
(1.0375 -0.0141668 -3.70558e-22)
(1.03874 -0.0133916 -7.50837e-23)
(0.998745 -0.0118689 -6.17109e-23)
(0.998231 -0.011468 -5.97652e-23)
(0.994798 -0.00590177 2.94882e-23)
(0.995241 -0.00622005 -4.6626e-25)
(0.994861 -0.00618209 2.66828e-23)
(0.995539 -0.000257026 -1.40091e-23)
(0.995101 -0.000312073 0)
(0.994493 -0.000553139 0)
(1.05557 0.0181351 0)
(1.05558 0.0175106 -1.71706e-22)
(0.692297 -0.0712066 1.38036e-21)
(0.721356 -0.0582301 1.49181e-22)
(0.764127 0.073144 0)
(0.772336 0.095594 0)
(0.761091 0.0864118 0)
(1.03685 -0.00470339 1.29767e-21)
(1.03742 -0.00494946 2.10574e-22)
(1.0376 -0.00475462 5.9293e-22)
(1.02015 0.0027213 7.5041e-22)
(1.02051 0.00275479 -1.28814e-21)
(1.02033 0.00301474 4.20144e-21)
(0.880224 -0.0574447 -1.20232e-20)
(0.93313 -0.0348011 2.96295e-21)
(0.966721 -0.0114052 1.49286e-22)
(0.961112 -0.00489775 1.25635e-22)
(0.973905 -0.00590487 -3.7828e-21)
(1.06971 -0.0075509 1.94673e-21)
(1.07131 -0.00610986 -1.74613e-21)
(1.04246 0.00993297 4.45054e-22)
(1.04246 0.0100008 0)
(1.02976 0.0102994 -2.35214e-21)
(1.02971 0.00999288 3.55343e-21)
(1.05067 0.0143259 5.35417e-23)
(1.05053 0.0138898 -7.29431e-22)
(1.05112 0.0139831 -6.98182e-22)
(0.962545 -0.0173217 0)
(0.973047 -0.0162062 -1.59654e-22)
(1.07016 -0.00612524 -8.33153e-21)
(1.04473 -0.0062742 3.01889e-21)
(1.04393 0.0109047 -4.85642e-22)
(1.04381 0.0108582 9.27167e-22)
(1.04378 0.0108866 1.26351e-21)
(0.377186 0.00845728 6.03564e-21)
(0.421217 0.00545122 1.24892e-20)
(1.03273 -0.00157517 4.7189e-22)
(1.03271 -0.00146749 1.89777e-22)
(1.03236 -0.00146417 4.5294e-22)
(0.722596 0.0182126 1.0192e-20)
(0.744567 0.0185739 9.8816e-21)
(1.04499 0.0157704 -6.09508e-23)
(1.04514 0.0160983 3.83172e-23)
(1.0419 0.0114328 1.81819e-21)
(1.04219 0.0113766 8.97815e-22)
(0.825137 0.0201986 6.43307e-21)
(0.790211 0.018332 -5.67429e-22)
(0.798186 0.0192125 1.1837e-22)
(1.038 0.00649352 7.17484e-22)
(1.03844 0.00654637 -1.882e-21)
(1.03836 0.00669394 1.62904e-22)
(1.04723 0.0158169 -6.74099e-22)
(1.04415 0.0196651 -2.84013e-21)
(0.760966 0.016423 4.7251e-21)
(0.758952 0.0173746 1.68882e-21)
(0.784448 0.0167966 8.75415e-21)
(1.03622 -0.00469401 7.4755e-22)
(1.03634 -0.00451749 8.1524e-23)
(1.05349 0.0168584 -3.37385e-21)
(1.05401 0.0170948 2.15191e-21)
(1.05395 0.016435 -1.80416e-21)
(1.04504 0.0127713 1.38591e-22)
(1.04547 0.0128269 -1.19047e-22)
(1.04216 0.00977042 9.33008e-22)
(1.04244 0.00983375 -1.33859e-23)
(0.0628581 -0.0640781 0)
(0.041605 -0.0530173 -1.15129e-20)
(1.04407 0.0109909 -1.16093e-21)
(1.04397 0.0109498 -9.66487e-22)
(1.03574 0.00856721 -1.32885e-21)
(1.03561 0.0086797 1.81538e-21)
(1.03599 0.00872468 -3.46403e-21)
(0.807669 0.00633958 1.59917e-21)
(0.802966 0.00816747 1.26492e-21)
(0.779712 0.0075689 -6.36054e-21)
(1.00049 -0.00720666 -1.46376e-22)
(1.00094 -0.00752994 1.73508e-23)
(1.00078 -0.00711265 -1.39046e-22)
(1.04301 0.0107847 -1.36948e-21)
(1.04286 0.0108437 0)
(1.02073 -0.0204356 -6.85128e-24)
(1.02151 -0.0209107 3.14765e-22)
(1.02089 -0.0202374 -3.15105e-22)
(0.853624 0.0220824 2.69178e-21)
(0.852447 0.0222034 -2.07753e-21)
(1.06259 0.0262816 -1.99263e-21)
(1.06264 0.0268121 0)
(1.06215 0.0265619 -1.48931e-22)
(1.0234 0.0028828 0)
(1.0237 0.00287735 -6.62731e-22)
(1.05637 0.0153295 0)
(1.05686 0.0148985 1.62277e-21)
(1.05619 0.014685 0)
(1.02213 0.00282715 1.84211e-21)
(1.0225 0.00292044 0)
(1.02227 0.00310022 2.40123e-23)
(0.548124 0.0162045 -3.42127e-21)
(0.561877 0.021684 7.09817e-22)
(1.04849 -0.00704729 1.93599e-22)
(1.046 -0.00692964 -5.21681e-22)
(1.04747 -0.0102096 2.24091e-21)
(1.0053 -0.000606308 1.33363e-22)
(1.00529 -0.000694268 1.77839e-22)
(1.00614 -0.000912019 -1.56979e-22)
(1.04379 -0.000557527 1.22917e-21)
(1.04427 -0.00040665 1.07427e-22)
(1.04346 -0.000400445 -6.22347e-22)
(1.06302 0.0258763 -1.84786e-22)
(1.06245 0.0256413 -1.8878e-21)
(1.04587 0.0128972 2.44031e-23)
(1.04605 0.0131737 8.08688e-23)
(1.03795 0.0128178 6.52318e-23)
(1.03828 0.0128112 2.59205e-22)
(1.03799 0.0125561 -1.0257e-21)
(1.02001 0.00243571 -7.64989e-22)
(1.03759 0.00646192 -1.72548e-22)
(1.03765 0.00632453 0)
(1.03595 0.0084709 5.70945e-22)
(1.0355 0.00839079 0)
(1.0315 0.000928786 -4.37636e-23)
(1.02712 0.00435279 -1.81359e-21)
(0.218941 0.091858 1.6065e-20)
(0.210235 0.0877575 -2.24947e-21)
(0.578879 0.00172501 1.67296e-22)
(0.62579 0.000748687 -1.17648e-24)
(0.579929 0.000832242 1.71933e-22)
(1.04865 0.0162916 1.51297e-22)
(1.04798 0.0166482 1.96029e-21)
(1.04886 0.017388 9.97077e-22)
(0.862311 0.0225467 1.80639e-21)
(0.855707 0.02227 -1.24376e-21)
(0.837029 -0.0520859 0)
(0.807672 -0.0541964 9.5178e-22)
(0.796423 -0.0569314 0)
(1.02254 0.00142516 1.4251e-21)
(1.04984 0.0129086 -9.56597e-22)
(1.04935 0.0128426 1.19658e-23)
(1.06832 -0.00915983 0)
(1.07052 -0.00944263 4.87008e-21)
(1.08577 -0.00344686 8.55399e-23)
(1.0878 0.000763311 0)
(1.08187 -0.000165701 -5.95078e-22)
(1.04139 0.00747776 -2.00437e-21)
(1.04124 0.00883051 3.39146e-22)
(1.04254 0.00805876 -2.13398e-21)
(1.06918 0.0166182 0)
(1.06855 0.0158336 -1.3794e-22)
(1.06827 0.0167203 3.67458e-23)
(1.08434 -0.00507277 -3.67598e-21)
(1.06001 -0.00701427 4.04675e-22)
(1.05834 -0.00660731 -3.86129e-22)
(1.05888 -0.00569904 -1.92684e-22)
(0.697462 -0.0302475 1.32468e-21)
(0.677869 -0.050329 -4.50385e-22)
(0.682858 -0.0543855 2.14117e-21)
(0.768956 0.0180186 5.63602e-21)
(0.742542 0.0179013 2.72366e-21)
(0.746125 0.0177779 6.63831e-21)
(1.02154 0.000872395 9.80857e-22)
(1.02156 0.0011828 -2.52451e-21)
(1.02557 -0.0269065 9.71038e-22)
(1.02614 -0.026817 8.84035e-22)
(1.02606 -0.0282118 5.16503e-22)
(1.02521 -0.0264651 -4.24932e-22)
(1.02566 -0.0259193 -3.7418e-22)
(0.983771 -0.0310489 2.35572e-21)
(1.01115 -0.0269661 -2.50627e-22)
(0.983299 -0.0331715 -2.27073e-21)
(1.03764 0.0128285 1.10989e-21)
(1.03796 0.013055 1.29641e-21)
(1.04154 0.00604136 0)
(1.03987 0.0067978 0)
(-0.0432931 -8.78872e-05 -1.42137e-20)
(-0.046489 0.0047665 1.19795e-21)
(1.03951 -7.86139e-05 -2.02188e-21)
(1.03973 -0.000246452 7.23489e-22)
(0.743364 -0.00728227 3.10435e-21)
(0.717635 -0.000407021 7.14967e-22)
(1.0435 -0.000734463 5.17159e-22)
(1.04423 -0.000733298 9.49007e-22)
(1.02179 0.00273737 3.94084e-21)
(1.02202 0.0025689 1.67625e-22)
(0.993982 -0.000963263 -2.96996e-23)
(0.994019 -0.000731087 2.70979e-23)
(0.996362 -0.00513861 0)