/*--------------------------------*- C++ -*----------------------------------*\
| =========                 |                                                 |
| \\      /  F ield         | OpenFOAM: The Open Source CFD Toolbox           |
|  \\    /   O peration     | Version:  v2012                                 |
|   \\  /    A nd           | Website:  www.openfoam.com                      |
|    \\/     M anipulation  |                                                 |
\*---------------------------------------------------------------------------*/
FoamFile
{
    version     2.0;
    format      ascii;
    class       volVectorField;
    location    "600";
    object      ddt0(U);
}
// * * * * * * * * * * * * * * * * * * * * * * * * * * * * * * * * * * * * * //

dimensions      [0 1 -2 0 0 0 0];


internalField   nonuniform List<vector> 
13851
(
(-0.00337978 0.0133185 -1.95984e-17)
(-0.000482379 0.00381675 -8.0651e-18)
(-0.000101183 0.00372537 8.8157e-18)
(-0.00856631 -0.00286501 -9.46284e-17)
(-0.00128902 -8.04075e-06 -1.32388e-18)
(0.000656899 0.00427706 -4.34996e-18)
(-0.00183004 0.00285467 -7.91552e-19)
(-0.00143416 3.41107e-05 -1.67006e-19)
(0.0253308 0.00431127 2.46269e-18)
(-0.000182718 -0.000896837 -4.85597e-18)
(0.00594374 0.00684963 -7.75701e-18)
(-0.000718816 -0.000283534 -1.6607e-18)
(2.52442e-05 -0.00117503 3.31331e-18)
(0.0147969 0.00260251 -8.65082e-18)
(-0.00258027 0.00732426 7.29949e-18)
(-0.0111706 0.00837706 -9.82833e-18)
(-0.0300132 -0.0035591 -5.58678e-18)
(-0.000879052 0.00145076 3.37096e-18)
(-0.000481159 0.0187141 4.69263e-18)
(-0.00279115 0.0132994 1.76528e-17)
(-0.00237275 0.00834454 -1.41777e-17)
(0.00116936 0.00102987 -2.10267e-19)
(-0.0339832 0.0109065 7.7098e-17)
(-0.000233919 -4.53429e-06 -6.16161e-19)
(0.0126321 0.0216902 5.06936e-17)
(-0.00666347 0.00636118 7.94133e-18)
(-0.00718637 0.014337 -1.77004e-18)
(-0.00221901 0.0179715 2.07389e-17)
(0.0297386 0.00889647 6.0429e-18)
(-0.00101522 0.000617156 -1.6806e-19)
(-0.0229602 -0.00415687 -9.07813e-18)
(-0.00145418 0.0028656 -1.14798e-17)
(-0.00556387 0.0128391 2.46674e-17)
(0.0441147 0.0064749 -1.10115e-18)
(0.00496147 0.00572866 -7.1821e-18)
(0.0310241 0.00896351 3.9443e-18)
(-5.28723e-05 -3.98059e-06 4.56304e-19)
(0.0319973 0.00814734 -1.16236e-17)
(-0.00695965 0.00916902 3.7628e-17)
(-0.00054535 -7.68823e-05 -4.94981e-19)
(0.0335045 0.00902739 4.15258e-19)
(0.031102 0.00938849 1.07159e-17)
(-0.0135568 -0.00251595 2.46013e-17)
(0.0087518 -0.00805757 3.43931e-17)
(0.0327776 0.00886907 6.11533e-18)
(-0.00110123 0.000276413 -3.8444e-19)
(0.000198275 7.13975e-05 9.75296e-19)
(-0.0095536 0.0106814 3.82625e-18)
(-0.000327283 0.00185508 3.08206e-18)
(0.000212572 -0.00119621 -3.69828e-18)
(-0.0286891 0.00201878 8.03349e-17)
(3.75283e-05 -0.00136232 6.79732e-18)
(-0.0110559 0.00855131 6.44413e-18)
(-0.00249321 0.00460206 5.7178e-18)
(0.0157042 0.00338869 -1.31413e-17)
(-0.000458617 -0.000120243 1.72075e-18)
(-0.00519295 0.0130594 -2.31884e-17)
(0.0301928 0.00862936 -2.66815e-18)
(-0.00615937 0.0148594 -1.1959e-17)
(0.0115515 0.00284617 5.33432e-19)
(-0.000740283 -0.000276507 -1.41733e-18)
(-0.00888936 0.0142925 1.16857e-17)
(-6.84582e-05 -0.000682427 8.33907e-20)
(-0.000405478 0.00188157 -1.83524e-18)
(0.00510569 -0.008363 6.63192e-19)
(0.00475174 -0.00863866 3.17775e-18)
(0.0103289 0.00236509 -3.16162e-18)
(0.00194222 -0.00643253 2.90436e-17)
(-0.00048755 0.00060869 -1.12402e-20)
(-0.0118102 -0.00358773 9.68866e-17)
(-0.0224443 -0.00492943 7.88948e-17)
(-0.00204395 0.00950161 -3.10371e-17)
(-0.000403447 -0.000725432 -7.94639e-19)
(0.0114568 0.00259351 1.88909e-17)
(-0.00264885 0.00541294 1.65144e-18)
(0.000321437 0.000496045 -6.90064e-19)
(-0.0281882 -0.00378778 5.32034e-17)
(-0.000898516 0.000546308 1.55059e-18)
(0.0111783 0.0216943 -3.77995e-17)
(-0.000900793 -0.00025675 -3.43889e-18)
(-0.000585099 0.000677047 2.04163e-20)
(0.014704 0.0135644 -4.18352e-17)
(0.00390501 0.00555172 3.95635e-18)
(0.0151781 0.00262077 6.34224e-18)
(0.012682 0.00292553 -1.32227e-17)
(-0.0225503 -0.00378584 -1.19898e-17)
(0.00140602 0.00113369 8.91453e-20)
(0.0251712 0.00384645 2.80676e-18)
(-0.000364648 -0.000871619 -5.14252e-18)
(-0.0239243 -0.00384212 6.86549e-17)
(0.000171767 -0.00139845 5.29314e-18)
(-0.00155162 0.00301457 1.1755e-17)
(-0.0217212 -0.000518904 3.89703e-17)
(-0.0201804 -0.00490759 5.4508e-17)
(-0.00286362 0.00962669 -2.09009e-17)
(0.00838692 -0.00704 1.33324e-17)
(-0.000909945 4.28782e-05 3.93326e-19)
(-0.0108318 0.0100886 -7.72555e-18)
(-0.00395193 0.002381 1.05933e-17)
(0.0129545 0.00330264 5.85755e-17)
(-0.0107728 0.0106023 1.51527e-17)
(0.00190543 -0.00475507 -3.19905e-17)
(0.00238011 -0.00503121 -3.66297e-17)
(-0.000156637 -0.000854167 8.16315e-19)
(-0.000874267 0.000498607 3.31148e-20)
(-0.00121305 0.00931318 -2.30329e-17)
(-0.00100035 0.000442839 -1.37529e-19)
(-0.0226011 -0.00441585 -9.89088e-18)
(-0.0015131 0.00303078 -2.91371e-18)
(-0.00104685 0.00141166 -4.98869e-18)
(0.00210173 -7.03736e-05 -2.20492e-19)
(-0.00106825 0.000328886 -1.13605e-19)
(0.00443004 0.0160801 -4.24516e-18)
(0.00269719 0.00995025 1.29317e-17)
(-0.00556632 0.0122722 -1.66757e-17)
(-0.00277596 0.00454874 2.16253e-18)
(-0.00105675 0.000286852 -2.06576e-19)
(-0.00139278 4.56968e-05 -4.23269e-19)
(-0.00809704 -0.00273049 1.02985e-16)
(-0.0131389 -0.00317315 -4.03056e-17)
(0.00922733 -0.00497727 -8.80829e-18)
(-0.00106575 0.00107472 2.4446e-19)
(-0.000626107 0.000380844 1.30383e-18)
(0.0210093 0.00422961 -2.22368e-18)
(-0.00256753 0.0167775 9.67553e-19)
(0.00259971 -0.00813797 -6.47882e-17)
(-0.00105124 3.53209e-05 4.42726e-19)
(0.00612998 0.00289625 4.0978e-18)
(0.0324591 0.00661231 8.14917e-18)
(-0.00338745 0.0087992 -2.22611e-17)
(0.00113147 0.000954667 4.36528e-19)
(0.000871506 0.00470509 -1.37261e-17)
(0.0260407 0.00731166 4.6264e-17)
(0.0428213 0.00612463 -3.17535e-18)
(0.00616505 0.00723815 1.39997e-17)
(-0.00642927 0.00942107 -3.64512e-17)
(0.00172435 -0.00620403 1.44076e-17)
(-0.0236181 -0.00387725 4.30193e-17)
(0.0013978 -0.00389367 4.58769e-17)
(-0.00287761 0.00841427 -9.81365e-18)
(0.015764 0.0130554 3.19346e-17)
(0.000267474 -0.00115596 4.29736e-19)
(-0.000311836 -0.000899504 7.59184e-18)
(0.0038764 -0.00776826 -2.0115e-17)
(0.00593183 0.0238191 -8.1883e-18)
(0.00042628 -1.44838e-05 4.57635e-18)
(-0.000881311 0.000526484 -1.56938e-18)
(-0.020292 -0.00459712 4.36018e-17)
(0.0212396 0.00602683 5.73822e-18)
(0.00704278 0.00293428 -1.7273e-17)
(-0.0105076 0.0107368 -2.3421e-17)
(0.00536916 0.0157476 -3.8983e-18)
(0.0031653 0.0103001 7.85422e-18)
(-0.000754698 0.0175625 4.51435e-18)
(0.000223721 -0.00139232 -3.54437e-18)
(1.66793e-05 -0.00114636 9.28792e-18)
(-0.000697751 -0.000214517 -1.71039e-18)
(-0.0103893 0.00708262 -3.29166e-17)
(-0.00248937 0.00807973 1.19565e-17)
(-0.00113427 0.00320094 3.62856e-18)
(-0.00029348 -1.12924e-05 5.25329e-19)
(0.0308731 0.0089184 -1.55399e-17)
(-0.00260785 0.00920415 1.49947e-17)
(-0.00921623 0.0107794 1.49239e-17)
(0.0149048 0.00266251 1.06059e-17)
(0.0320305 0.00530301 5.5943e-18)
(0.0334665 0.00497806 -1.97922e-18)
(-0.0182869 0.00288374 -3.97905e-17)
(0.00204356 5.21565e-05 -1.52499e-18)
(0.00532558 0.0215234 1.34519e-17)
(-0.00066408 -0.000274496 -1.21537e-18)
(-0.00121071 0.000279704 4.2258e-21)
(0.000378938 0.0105469 -3.54712e-18)
(-0.0010703 -8.81897e-06 1.21026e-18)
(0.00140856 0.0114175 3.12803e-17)
(-0.00747142 0.0141232 5.78646e-18)
(-0.00891285 0.012179 -1.47963e-17)
(-0.00126464 0.000304894 -1.09344e-19)
(-0.00238042 0.00520237 -6.05127e-18)
(-0.0094123 0.0118789 1.69152e-17)
(-0.00427975 0.0165417 -3.1978e-18)
(0.00956196 -0.00779332 -3.35456e-17)
(0.00194518 0.000383195 -2.94837e-20)
(-0.00322891 0.00856777 1.68552e-17)
(-0.0202894 -0.00245102 -4.16688e-17)
(0.0216527 0.00633887 -3.10736e-18)
(-0.00563724 0.0128227 2.30346e-18)
(0.000907768 -0.00303898 1.03563e-17)
(0.000174296 -0.00122364 -4.42251e-18)
(-0.00105514 0.000552591 -6.15618e-19)
(0.00708865 0.0232386 7.78949e-18)
(-0.00232213 0.0081088 -1.06268e-17)
(0.0137553 0.00238682 -4.40997e-18)
(0.000518277 0.00441059 -5.68705e-18)
(0.000346358 5.86811e-05 -3.49835e-19)
(-0.0109768 0.00935989 4.33358e-19)
(-0.0051885 0.0126324 -2.51873e-18)
(-0.000851853 0.00204086 -4.66827e-18)
(-0.000919642 0.00180333 -1.1191e-18)
(0.00230235 -0.00661487 4.06464e-17)
(0.0158528 0.0119978 1.47462e-17)
(0.0135498 0.0109393 -9.57387e-20)
(0.0296833 0.00910498 2.16039e-17)
(-0.00251487 0.00719382 -3.05355e-18)
(0.00735164 -0.0126632 3.52642e-17)
(0.00940539 0.00974875 8.5576e-18)
(0.00040181 -0.00203432 2.33328e-17)
(-0.00329195 0.00779045 -8.59817e-18)
(0.0265395 0.00401573 7.98089e-18)
(0.000679051 0.00376377 -1.50184e-18)
(-0.0124747 0.00751056 1.14281e-17)
(-0.000523172 0.000345548 -1.49187e-18)
(0.0163233 0.0125741 1.22625e-17)
(-3.52796e-05 -8.5292e-05 2.64761e-18)
(0.00386928 0.00634875 -3.33513e-17)
(0.000652871 0.000566694 -2.95571e-19)
(0.000162843 -0.00116734 -2.42792e-18)
(-0.00501199 0.0147706 3.45536e-19)
(-0.000909153 0.00204087 -2.57401e-18)
(0.00453391 -0.0144643 1.69225e-17)
(-0.00101749 0.000297249 4.76699e-19)
(-0.00304896 0.0135296 -1.35627e-17)
(0.0139131 0.00239913 -1.02172e-17)
(-0.00303599 0.0102258 -9.90087e-18)
(0.00102455 -0.00285949 -2.54233e-17)
(-0.00331271 0.00781395 1.39878e-17)
(-5.95721e-05 -3.92259e-05 -6.72557e-19)
(0.00357919 -0.00743985 1.21441e-17)
(-0.000737929 -0.000381778 -1.74585e-18)
(0.00472946 0.00600572 3.31928e-17)
(-0.0214727 0.000959797 -8.5125e-17)
(0.000847971 -0.00293862 -1.04232e-18)
(0.000659933 0.00378783 2.24539e-18)
(-1.14852e-05 -0.000629319 5.73619e-18)
(0.0283206 0.00860998 -1.34291e-17)
(-0.00102313 0.000650397 6.3524e-19)
(-0.0101666 -0.000129573 3.02662e-17)
(0.0276238 0.00922434 1.54309e-18)
(0.012151 0.00341744 6.72045e-18)
(-0.000110496 -1.0683e-05 -2.28044e-19)
(0.0172745 -0.00314226 8.26808e-17)
(0.0133361 0.00290804 6.71445e-18)
(0.0346501 0.00924449 -1.44612e-17)
(-0.0111668 0.00767079 -1.03086e-17)
(0.000465538 0.00677079 1.19691e-17)
(0.00381397 -0.00856124 -1.67091e-17)
(-0.00444031 0.0145866 1.33057e-18)
(-0.00269137 0.00513455 5.72302e-18)
(0.00827465 -0.00653362 -7.26216e-18)
(0.00241474 0.000514098 3.22059e-18)
(0.0188378 0.00369353 3.95692e-19)
(-0.00307718 0.0148637 -4.86421e-17)
(-0.00149832 2.00146e-05 -1.34181e-19)
(-0.000316805 0.00475969 4.07152e-18)
(-0.0111437 0.0099759 2.84732e-18)
(0.0299356 0.00856814 2.29135e-17)
(0.0311972 0.00370433 2.96106e-18)
(-0.00102575 0.000527988 5.43931e-19)
(0.00210446 -0.00825193 5.23658e-17)
(-0.000266995 -0.000838715 1.22496e-18)
(-0.00558811 0.0135539 -3.55358e-18)
(-0.00108774 0.016995 1.27256e-17)
(-0.000124807 0.00487739 -3.23349e-18)
(-0.00286052 0.00936128 -5.32875e-18)
(-0.00193413 0.0151115 5.22571e-17)
(-0.000514142 -0.000512611 3.30877e-18)
(0.00235297 -0.00494482 4.65787e-18)
(-0.00837904 0.0102751 -9.09183e-18)
(-0.00176353 0.0172099 1.9006e-17)
(-0.000528648 -0.00055506 -2.50196e-18)
(0.000205129 -0.00118018 4.27372e-18)
(0.000905626 -0.00293385 1.49815e-18)
(0.0369136 0.00408517 4.81471e-18)
(-0.00881522 -0.0030773 2.38908e-17)
(-0.00231625 0.00887481 1.52838e-18)
(-0.000983938 0.00112388 5.38399e-19)
(-0.00472683 0.0165567 1.26282e-17)
(-0.0011071 0.0173141 -2.19418e-18)
(-0.00523998 0.0120497 -1.92897e-17)
(-0.00226923 0.00919733 8.68931e-18)
(0.0348788 0.00381773 -5.18273e-19)
(0.00204518 0.00241366 6.99277e-18)
(-0.000406944 0.00504316 7.44023e-18)
(-0.00213807 0.00670327 2.2597e-17)
(0.0284043 0.00361535 -1.6127e-17)
(-0.00126539 0.000615852 -1.2416e-19)
(-0.00070786 -0.000193216 1.21923e-19)
(-0.00501551 0.012252 1.37242e-17)
(0.00611899 0.00521111 3.26193e-18)
(-0.000992749 0.00072291 -1.4407e-18)
(-0.000180795 -7.89491e-05 6.67323e-19)
(-0.000802623 -0.000398477 8.02136e-19)
(-0.00163067 -5.60875e-06 1.23382e-19)
(-0.0011134 0.00676888 -1.87724e-17)
(-0.000688204 -0.000208256 -2.12209e-19)
(0.0269524 0.00421265 1.7934e-17)
(-0.00196431 0.00860145 1.5749e-17)
(-0.000981319 0.000168929 -1.84791e-18)
(0.0302536 0.00855228 -7.39881e-18)
(0.019522 0.00400409 -3.69562e-18)
(5.30594e-05 -0.0013121 7.90487e-18)
(-0.00273216 0.0135631 5.32029e-18)
(-0.0108071 0.00204964 -1.47258e-17)
(0.000345604 -0.00117473 1.03279e-17)
(0.000200931 -0.00134198 -5.24633e-19)
(-0.00244619 0.00887657 5.58264e-18)
(0.0148503 0.00249094 3.01225e-18)
(-0.0257425 0.00767673 -5.0874e-18)
(8.49932e-05 0.011209 -1.03959e-17)
(-0.00134435 -9.59242e-06 1.77843e-18)
(-0.000103995 0.0210567 -7.9303e-19)
(-0.000641 -0.000283603 -2.96831e-19)
(-0.000115737 0.0117337 -8.54144e-18)
(-0.0105286 0.00293255 1.74636e-17)
(-0.00138327 0.016822 -2.78405e-17)
(-0.00119229 0.00312228 1.79035e-18)
(0.0327707 -9.74286e-05 -1.27858e-20)
(0.0202062 0.006751 -3.85098e-17)
(-0.0223095 -0.00466334 -4.10633e-17)
(0.00595367 0.0153417 -2.58382e-18)
(0.00163335 -0.00506469 4.63997e-17)
(-0.00104556 0.0111406 -6.06686e-18)
(0.0243352 0.00506863 -6.47393e-18)
(-0.00183071 0.0181091 -2.59372e-18)
(-0.000840259 0.00186943 1.87357e-18)
(-0.0213009 -0.00444159 -2.63946e-17)
(0.0149568 0.00209877 1.41131e-17)
(0.00415911 -0.0116651 3.82594e-18)
(0.00424995 -0.0117682 1.65222e-17)
(0.000448583 -0.00204246 -4.29537e-17)
(0.000568933 0.0110596 9.08965e-18)
(0.00163492 -0.00212858 -5.1425e-18)
(0.0259419 0.00419514 -7.97123e-18)
(0.0022939 -0.00539548 1.47186e-17)
(-0.00172187 1.76659e-05 2.261e-19)
(0.000138747 8.64275e-05 -2.13517e-18)
(0.00112691 0.00264636 9.00563e-18)
(-0.0223756 -0.00510453 1.05037e-17)
(0.00463734 -0.0147399 2.52429e-17)
(-0.00105421 0.000616668 -5.834e-20)
(-0.00468885 0.00946041 -5.19812e-18)
(0.0015854 -0.00239534 -1.65271e-18)
(0.00143394 0.00464245 1.89972e-17)
(-0.00121326 0.00322649 1.39326e-18)
(0.0141156 0.00239651 -3.67972e-19)
(-0.00394437 0.0161822 -9.77471e-18)
(-0.0111176 0.00922573 2.00726e-18)
(0.000500018 0.000520476 -4.02382e-19)
(0.000326423 0.00363263 -1.52325e-18)
(0.0345823 0.00678171 1.31668e-17)
(0.000210332 -0.00122327 3.03759e-18)
(-0.000998812 0.0175932 3.59083e-18)
(-0.000686313 0.0049835 -8.10832e-18)
(-0.00223759 0.00889911 -7.60387e-19)
(0.00172514 -0.0024529 -1.34997e-17)
(-0.000311711 -0.000863514 4.37768e-18)
(-0.000854286 0.000183547 -2.45916e-19)
(0.011064 0.0114694 -2.66057e-17)
(0.0138487 0.00370333 5.71058e-18)
(-0.00291118 0.0146815 2.02168e-17)
(0.0232335 0.0068698 -3.27995e-17)
(0.034331 0.00725154 -6.72517e-18)
(0.000506593 9.01262e-06 -5.60416e-18)
(0.0255941 0.00872274 -1.50313e-17)
(-0.00618544 0.0140183 5.15997e-19)
(-0.000814497 0.00091271 3.50738e-19)
(-0.00285961 0.0167046 2.85229e-17)
(-0.00265619 0.0122047 -8.24966e-18)
(-0.00377291 0.00304169 -1.2416e-17)
(0.00116752 0.00257513 4.54885e-18)
(-0.00781131 0.00516433 5.32877e-18)
(-0.00946799 0.0147675 1.14345e-17)
(0.0228218 0.0154717 2.49705e-17)
(0.0128051 0.0103253 -1.4237e-17)
(0.024385 0.00430878 9.82289e-18)
(-0.00059544 0.00202345 -2.39543e-18)
(-0.00736134 0.0141372 5.23764e-18)
(-0.0203218 -0.00380049 -1.72496e-17)
(0.000164862 0.00606502 1.65168e-17)
(0.0193853 0.00423639 2.56189e-17)
(0.000161102 0.00655227 -4.15299e-18)
(0.030963 0.00990236 -1.14995e-17)
(-0.00243292 0.00660595 -1.25891e-17)
(-0.0035836 0.00466486 -6.77604e-18)
(-0.000144912 0.0150379 -1.40362e-17)
(0.0150553 0.00600929 -2.94878e-17)
(4.16923e-07 -0.00114254 -2.4562e-18)
(1.15847e-05 0.00471556 9.98288e-18)
(0.0062596 0.00532286 -5.11147e-18)
(-0.00264074 0.00537955 -4.54082e-19)
(-0.0010922 0.000196533 2.98726e-19)
(-0.00190853 0.00896653 -5.74521e-18)
(0.0438284 0.00966951 -1.6382e-17)
(-0.000365738 -0.000699158 -4.77173e-18)
(-0.00307624 0.00795533 -8.78255e-18)
(-0.00688694 -0.00272657 -3.50955e-17)
(-8.33391e-05 0.00323997 3.57696e-18)
(0.018311 -0.0103019 -1.72789e-17)
(-0.0041899 0.00609918 -8.49524e-18)
(-0.0232846 0.00936473 -4.51298e-17)
(0.000682858 0.00384609 1.11784e-18)
(-0.00619179 0.00624821 -2.77979e-18)
(0.00542381 -0.0119165 -1.36451e-17)
(-0.00230867 0.0169957 -4.70974e-18)
(0.000256486 0.00906657 -2.39479e-17)
(0.0305788 0.003478 -5.39513e-18)
(0.0120254 0.00255405 -7.94088e-18)
(0.0160493 -0.00286881 -7.57466e-17)
(-0.000513132 -0.000536431 -5.70058e-18)
(0.007705 0.0116379 2.11692e-17)
(0.000513452 0.0064552 -1.45371e-18)
(-0.00771473 0.00547396 1.35218e-18)
(-0.000957586 0.000998635 -5.16974e-19)
(-0.0162892 -0.00261517 -6.57987e-18)
(0.0427483 0.0116391 -4.29739e-18)
(0.017923 0.0170663 3.31729e-18)
(0.000303467 0.003637 -3.84621e-18)
(-0.00159785 0.0151312 9.85908e-18)
(-0.0075138 0.0141395 -1.38016e-17)
(-0.00874391 -0.00313108 -9.84806e-18)
(-0.000530007 0.000565361 5.97404e-19)
(-0.0226121 -0.00410385 -1.92501e-17)
(0.0156584 0.00743414 1.38091e-17)
(-0.0265232 0.00966097 8.01483e-17)
(0.00280359 0.000641275 -4.80054e-18)
(-0.000165055 0.0209768 8.80237e-18)
(-0.000165017 -0.00100869 -3.67122e-19)
(-0.00109044 -7.46256e-06 2.29142e-19)
(0.0152703 0.00318433 1.75415e-17)
(-0.00777288 0.0140593 9.10753e-19)
(-0.000146035 -0.000919566 -4.12957e-18)
(-0.000273729 0.00378689 -2.96917e-18)
(-0.00332065 0.00810659 -6.41698e-19)
(-0.00112391 0.000212904 -2.70834e-20)
(0.0399691 0.0124272 9.6869e-18)
(0.000536157 0.0111834 -1.97751e-17)
(-0.00264939 0.0121594 -3.57383e-18)
(-0.00118522 0.00446129 -5.0003e-18)
(-0.000725644 0.00207399 1.48795e-18)
(0.000218598 -0.0014005 -1.91602e-18)
(0.0212341 0.014118 -6.54755e-18)
(-0.000917736 7.65015e-05 1.79362e-18)
(0.000224325 -0.00138677 3.42379e-18)
(0.0512392 0.00870334 -1.1122e-17)
(0.0420285 0.0104062 1.41141e-17)
(0.000818568 0.00080414 1.80809e-18)
(-0.0115439 0.0143549 4.55279e-18)
(0.000113796 -0.000667296 -4.05415e-18)
(-0.000749395 -0.000187058 2.13663e-18)
(0.00016411 0.00335647 7.23482e-18)
(-0.00342648 0.0149461 -1.5853e-17)
(-0.00457018 0.0056588 -1.18444e-18)
(-0.000773436 0.000188441 -2.53939e-18)
(-0.000739961 0.00267448 3.13302e-18)
(0.00940395 -0.00475727 -2.18052e-17)
(-0.000353194 0.00328121 -3.96513e-18)
(-0.028021 0.00840044 3.48366e-17)
(-0.000851537 -0.000249926 -1.09419e-18)
(-0.00231355 0.00457878 -4.51906e-19)
(0.0336942 0.00855516 -2.31414e-18)
(0.00255116 -0.00288481 -1.90637e-18)
(-0.000514489 0.000111929 -1.54807e-18)
(-0.000692255 -0.000289374 1.01724e-18)
(-0.000432269 0.00441221 4.67544e-18)
(-0.000668256 0.00221782 3.46415e-18)
(0.0156857 -0.00509503 2.89381e-17)
(0.0491926 0.00917241 7.89062e-19)
(-0.000428653 0.00690393 -1.31956e-17)
(0.00833212 -0.0203059 -1.57026e-17)
(0.000121099 0.00348844 3.30711e-18)
(-0.000708368 -0.000417675 -2.77107e-18)
(0.0331656 0.00472751 -2.06486e-18)
(-0.00963403 0.0146307 -1.01222e-18)
(0.00207059 -0.00367112 8.14951e-18)
(-0.000343676 -0.000603688 -2.0409e-18)
(0.023275 0.00469476 6.20752e-18)
(0.00147909 -0.00391689 -1.45628e-17)
(0.0103527 -0.011579 2.02718e-17)
(-0.000186798 -0.00087637 5.01043e-18)
(0.00170179 0.00497443 1.45147e-17)
(0.0114297 0.0108204 1.93581e-18)
(-0.00285854 0.00612363 1.3126e-17)
(0.027219 0.00560242 -4.04543e-18)
(-0.00787933 0.0142182 1.6825e-17)
(0.0182991 0.0169447 -7.16573e-19)
(0.000742071 -0.0010721 -5.13273e-18)
(0.0057315 0.0157355 6.82027e-18)
(-0.000649237 -0.000448464 3.95351e-18)
(0.0297793 0.00867277 -1.12038e-17)
(-0.00384418 0.00616158 6.62225e-18)
(-0.00536561 0.0125783 7.83551e-18)
(-0.000162709 0.00643252 3.68649e-18)
(0.000564648 0.000569627 2.63781e-19)
(0.00256928 -0.00256134 2.80874e-17)
(0.000197423 0.010716 1.57083e-17)
(-0.00120456 -9.82631e-06 1.39908e-18)
(-0.011894 -0.00355576 1.13208e-16)
(0.0305948 0.00449271 1.19502e-17)
(-0.0286758 0.00904634 -1.62516e-17)
(-0.00341066 -0.00251283 -3.37739e-17)
(0.0504118 0.00895656 -1.86968e-17)
(-0.0299314 -0.00165335 -1.61037e-17)
(-0.00101148 0.0172599 -2.08114e-17)
(0.00105549 -0.002666 7.93621e-18)
(5.87435e-05 -0.000227746 6.59999e-18)
(0.0147411 -0.00930677 2.4837e-18)
(-4.91002e-05 -0.000890781 4.80339e-18)
(-0.000679606 0.00016376 -4.51265e-19)
(0.00142768 -0.00289084 -6.96507e-18)
(0.00666073 0.0123988 -3.50093e-17)
(-0.000275999 0.00373046 1.53073e-17)
(0.000266895 -0.00129464 3.04524e-19)
(0.00701471 -0.00301375 -1.77743e-17)
(0.00287877 0.00864813 -1.29843e-18)
(7.64988e-05 -0.000976714 3.79333e-18)
(0.0106576 0.0268612 -1.8012e-17)
(-0.000704398 -7.1708e-05 -1.37538e-18)
(0.0357647 0.00629506 7.82734e-18)
(0.0145653 -0.00431594 -1.50656e-17)
(-0.000864085 -0.000236592 4.07684e-18)
(-0.00111028 0.0033992 2.64568e-18)
(0.0150904 0.00981324 -1.00439e-17)
(-0.000996226 0.0171291 -1.48663e-17)
(-0.000971452 0.000692839 9.71926e-19)
(0.0267784 0.012086 -1.18735e-17)
(-0.0015082 -0.00393544 -3.07e-18)
(-0.000810733 0.0009785 -4.01508e-18)
(-0.0220876 0.000378799 -1.82976e-17)
(-0.000716295 0.0183305 -6.22635e-18)
(-0.00323541 0.0137444 4.43756e-18)
(0.000637608 -0.00110624 4.44727e-18)
(0.0511128 0.00888331 3.81322e-18)
(0.00741385 0.0029562 -2.57734e-17)
(-0.000669958 0.00101954 -3.40845e-19)
(0.00488967 0.0191835 2.78801e-17)
(-0.00044853 0.000478542 3.60579e-19)
(-0.000693757 -4.29453e-05 1.15998e-19)
(0.0442921 0.005333 -1.06067e-17)
(0.0318126 0.0103181 -8.65338e-18)
(0.000908137 0.00744851 -1.7304e-17)
(-0.00437913 0.00548583 2.46862e-18)
(-3.26538e-05 -0.000924489 -5.4014e-18)
(-0.00594484 0.00715107 -2.36996e-18)
(0.0351537 0.00672037 5.21558e-18)
(-0.00778411 0.00887211 -3.96848e-17)
(-0.000844319 0.00131342 3.38912e-18)
(-0.0308465 -0.00297444 -3.11263e-17)
(-0.00111234 0.000168772 2.11241e-18)
(-0.000340337 0.000544211 -1.75961e-19)
(-0.000911483 0.00921064 2.98551e-17)
(-0.00212376 0.00417855 5.40416e-18)
(-0.000573275 0.00056445 -2.12729e-18)
(0.000288685 0.000402145 9.17512e-19)
(-0.0203692 0.00100356 -2.26148e-17)
(0.0147965 0.00612942 3.31504e-17)
(-0.0219251 -0.000177858 4.73974e-17)
(-0.000624745 0.00358082 3.87864e-18)
(-0.00033896 -0.000829281 -7.48125e-18)
(0.0381048 0.00423339 7.19412e-18)
(-9.33677e-05 -0.000301406 -2.26453e-18)
(0.00741029 0.0123947 4.25184e-17)
(-0.00167481 0.00492903 7.17802e-18)
(-0.00267071 0.00561262 -9.29607e-18)
(0.000121612 0.00673925 -7.87439e-18)
(0.0404969 0.00939874 1.33203e-17)
(0.00241787 0.00291644 -1.268e-17)
(0.000214406 0.00446579 1.58772e-18)
(-0.0203591 -0.00407312 -2.08077e-17)
(-0.00116667 0.00300439 -5.28764e-18)
(0.000938285 0.0111117 8.1966e-18)
(0.031625 0.00947108 -6.77824e-18)
(0.0165577 0.00373747 -4.2512e-18)
(-0.000527383 0.000174535 8.41543e-19)
(-0.000508439 -0.000490201 -1.65805e-18)
(0.0024976 -0.00505855 2.34922e-18)
(-0.0208722 0.000531617 1.56741e-17)
(-0.0150435 0.0125923 2.94914e-18)
(-0.00567213 0.00694441 -2.44849e-19)
(0.00140657 -0.00662526 4.17227e-17)
(-0.00206778 0.00417959 -6.4994e-18)
(-0.00206289 0.00636766 5.62892e-18)
(-0.0373188 0.00471854 1.67334e-16)
(0.00846512 0.0258022 -9.4282e-18)
(0.00822905 -0.00464444 1.85537e-17)
(0.0340297 0.00599007 1.9189e-18)
(-0.00656756 0.0130423 1.09545e-18)
(0.0337794 0.00887871 -7.7974e-18)
(-0.000549298 0.0017773 -2.30299e-18)
(-0.00768521 0.0153261 1.92615e-17)
(-0.000301149 0.0207894 6.49854e-18)
(-0.000657916 -0.000411536 2.13424e-18)
(-0.0328468 -0.000256794 -4.99263e-18)
(0.0217256 0.0256494 -1.25374e-17)
(0.00181967 0.000273929 2.14874e-18)
(-0.00321655 0.00858999 1.05857e-17)
(-0.000391324 -0.000309237 1.6997e-18)
(0.00494967 -0.0130624 6.67676e-18)
(0.00907988 0.00165497 -5.92371e-19)
(-0.0357205 0.00764023 -9.5874e-17)
(-0.000733892 6.52908e-05 1.06899e-18)
(-0.000795319 -1.112e-05 -1.55969e-20)
(0.000739906 -0.00258557 1.37933e-17)
(0.00264344 0.00842065 -9.93422e-18)
(-0.000863667 -0.000235991 3.9484e-18)
(0.00135389 0.0108987 2.81262e-17)
(-0.00080432 -1.32499e-05 -4.40086e-19)
(-0.00644854 0.0129846 5.75584e-18)
(0.000806532 -0.00127043 8.57532e-18)
(-0.00814448 0.00573278 1.93045e-18)
(-0.000336972 -0.000811935 7.41222e-18)
(7.49927e-05 -0.000994765 1.53926e-18)
(0.00491531 0.00129092 7.8814e-18)
(-0.0308206 -0.00290908 4.55597e-17)
(0.000678874 0.00899973 7.72714e-18)
(-0.00768029 0.00902261 2.49023e-17)
(0.000910713 0.00494981 -2.03488e-17)
(-0.00103623 0.000225846 -1.00783e-19)
(-0.000818623 0.00110112 -4.08058e-18)
(0.000412923 0.010675 -2.33274e-18)
(-0.000633841 0.00258396 5.60979e-18)
(0.00384658 0.0130195 3.95551e-17)
(-0.000259654 0.00401974 1.23946e-18)
(0.00193296 -0.00359931 5.30559e-18)
(-0.00643359 0.0148521 -5.54321e-18)
(6.84846e-05 -0.000315057 -4.89757e-18)
(0.0317622 0.00290491 1.11337e-17)
(-5.15969e-05 -5.45193e-05 -1.74286e-18)
(-0.00872332 0.00572326 -1.28609e-17)
(-0.0193473 -0.00398642 -1.32032e-17)
(0.033712 0.00655428 -5.5581e-18)
(0.000577107 -0.0030867 -2.99623e-17)
(-0.0261435 0.00348904 1.24441e-16)
(0.00657587 -0.0030845 -3.93666e-18)
(0.0142395 0.0004615 4.64654e-18)
(0.0238572 0.0250018 6.40873e-18)
(-0.00093909 0.00148912 -2.2687e-18)
(0.00824016 0.0256979 1.82172e-17)
(0.00153049 -0.00226467 5.46071e-18)
(0.000475888 0.00625559 -4.82737e-18)
(-0.00507596 -0.00250686 -9.19548e-18)
(0.00655218 0.0224061 2.81051e-17)
(-0.000872359 0.000948526 1.68105e-18)
(0.00368014 0.0127455 -3.1925e-17)
(-0.000945495 0.00198937 -3.6657e-18)
(0.0327555 0.0083485 -1.56857e-17)
(-0.0269513 0.00127653 -8.39386e-18)
(-0.000760273 0.000836673 4.24021e-20)
(0.00210733 -0.00661065 -4.06312e-17)
(0.0347238 0.0147278 -1.61414e-17)
(-0.00023681 -6.31218e-05 -2.94745e-18)
(-0.000229339 -9.0386e-05 -3.3965e-18)
(-0.00683835 0.00623872 -5.70656e-18)
(0.0305921 0.00281021 -1.09091e-17)
(0.0467768 0.00934129 3.88012e-18)
(0.000190852 -0.00135471 -4.22264e-18)
(0.000150202 0.0152033 8.96239e-18)
(-0.000488475 0.00316393 -7.71413e-18)
(-2.32217e-05 -0.0010378 -6.06381e-18)
(-0.0103071 0.015147 9.72082e-18)
(0.000169677 0.0153167 -1.1466e-17)
(0.0129325 0.00449559 2.39189e-19)
(-0.000532455 0.000470643 -3.56367e-18)
(-0.00812396 0.0103964 -8.58648e-18)
(0.0031406 -0.00412097 -6.01254e-18)
(-0.00585291 0.00588645 8.4956e-18)
(0.000350434 -0.00164946 -3.81131e-18)
(0.000223615 1.31519e-05 6.46317e-19)
(0.00805114 0.00155021 -9.19572e-18)
(0.000716132 -0.00249515 -1.3935e-17)
(-0.0085886 0.0104496 -3.99677e-18)
(-0.00198527 0.0093319 2.09214e-17)
(-0.00195222 0.00940509 1.24945e-17)
(0.00792622 -0.00443243 -1.63724e-17)
(0.0145256 -0.0148497 -3.90348e-17)
(-3.97511e-05 0.0186959 2.29639e-18)
(0.0482462 0.00652794 8.242e-18)
(0.0294617 0.0124985 2.23762e-17)
(-0.01028 0.0105551 2.80729e-17)
(0.0171485 0.00289069 5.65748e-18)
(0.00345048 -0.00110661 -8.59938e-19)
(0.0453969 0.00634497 8.5973e-18)
(-0.00321758 0.0137802 2.11218e-18)
(-0.000947476 0.00126406 3.78069e-19)
(-0.00204969 0.00625636 -1.10121e-17)
(-0.000131508 0.0182472 -2.64193e-18)
(0.00114687 0.0019285 6.72095e-19)
(-0.000890514 -0.000247193 1.32017e-18)
(-0.000906825 -0.000213556 3.22129e-21)
(-0.00907876 0.00651687 2.38559e-18)
(0.0244871 0.00393565 4.30582e-18)
(-0.00233374 0.0047207 5.29581e-18)
(0.02354 0.00869826 -4.02488e-19)
(-0.00112833 0.000219492 6.83472e-20)
(0.0502897 0.00894731 2.57498e-18)
(0.00614702 -0.00586261 -5.88309e-19)
(-0.0126772 0.0023512 -1.31044e-17)
(0.00404673 0.0125345 8.62176e-18)
(0.00101942 0.00396929 3.36983e-19)
(-0.000232074 0.00379358 -7.76857e-18)
(-0.0126495 0.00311 1.84411e-17)
(0.0131364 0.00491336 -5.30524e-17)
(0.00315598 -0.000926086 -3.05783e-19)
(-0.00728404 0.0141595 1.07021e-18)
(-0.000680029 0.00199535 -5.11773e-19)
(0.0172157 -0.00819426 -2.40591e-17)
(-0.00891348 0.00628085 3.59345e-18)
(-0.00623266 0.0130874 -5.61645e-18)
(0.00131941 0.00585786 1.51636e-17)
(0.0171007 0.00919419 -2.1851e-17)
(-0.000115885 -0.000978868 -1.81232e-18)
(-2.21511e-05 -6.71824e-05 -5.1684e-19)
(0.000352551 -0.00196443 -1.22317e-18)
(3.35258e-05 -0.00105288 3.815e-18)
(0.0306583 0.00910861 -2.31335e-19)
(-0.00161204 -6.96027e-06 5.09782e-19)
(-0.00965841 0.0145117 -9.96855e-18)
(0.0352262 0.00418003 -2.03517e-17)
(0.00426912 0.01261 -1.67615e-17)
(-0.00448045 0.0102278 -3.35289e-18)
(-0.00294798 0.00273129 -6.48961e-18)
(-0.00641057 0.0131986 1.11826e-17)
(0.0149976 0.000751613 7.09855e-18)
(0.000586792 -0.00303988 -1.567e-17)
(2.26633e-05 -0.000389436 1.1201e-17)
(0.000181481 -0.00114709 -7.76543e-18)
(-0.000899982 0.000507034 -1.04156e-19)
(-0.000910015 0.00107534 4.404e-18)
(-0.000893356 -1.1873e-05 -2.0409e-19)
(0.000691365 0.0112156 -3.94768e-18)
(0.00366774 0.0160407 3.17739e-18)
(0.00331389 -0.00434258 9.40788e-18)
(-0.00196584 0.0177762 1.34887e-17)
(0.000576696 0.000685216 -5.05204e-19)
(0.025227 0.00410549 -6.38804e-18)
(0.000192708 -1.79204e-05 -4.07247e-18)
(-0.00942179 -0.00243808 5.95443e-17)
(0.00392582 0.00486777 1.25016e-17)
(8.73184e-05 -4.01769e-05 3.00848e-18)
(9.89681e-06 -0.000570568 3.22619e-18)
(0.0329241 0.00603425 3.24198e-18)
(0.000516631 0.0043256 7.09672e-18)
(0.0284709 0.0133209 -2.63071e-18)
(0.023661 0.025836 6.43912e-18)
(-0.00326545 0.00822373 -5.40337e-18)
(-0.0023524 0.0109456 -1.37346e-17)
(-0.000601075 0.00091426 -1.40247e-20)
(0.0417076 0.0065292 4.23126e-18)
(0.000765258 -0.00067268 2.09829e-18)
(-0.000444671 0.00379852 -9.76848e-18)
(-0.00958506 0.0152874 -6.95819e-19)
(-3.29417e-05 -0.000384546 2.28895e-18)
(0.000293267 -0.0011987 3.52452e-18)
(-0.000743232 0.00140105 6.76875e-19)
(-0.00395757 0.00654438 -4.02165e-18)
(0.021277 0.00390493 -6.86399e-18)
(0.00150507 0.00442889 6.45031e-18)
(0.00148877 0.00609545 4.15856e-18)
(0.0160004 0.00695175 -2.98289e-17)
(-0.012085 0.0073775 1.25261e-17)
(0.00101483 -0.00308484 -6.0155e-19)
(0.00125748 -0.000951538 3.07093e-18)
(0.0335421 0.00964611 -1.16075e-17)
(-0.000858707 0.000488028 3.08044e-20)
(0.0328595 0.00934689 6.87e-18)
(-0.000515598 -3.08246e-05 -1.20171e-19)
(-0.000513983 0.00335606 7.69402e-18)
(0.010305 0.0222 3.43008e-17)
(-0.00541738 0.00993306 1.05819e-17)
(-0.00540439 0.0122483 9.77762e-18)
(0.00787393 0.00860608 -1.04974e-17)
(0.000620545 0.00918432 -4.51273e-18)
(0.000131242 -0.000211809 2.12833e-18)
(0.000205905 -1.62002e-05 -3.27283e-18)
(0.00163891 0.0114288 -2.14662e-17)
(-0.000561627 0.00186556 1.78765e-18)
(0.000187865 -0.000176624 -1.39697e-18)
(-0.00223967 0.0045861 -1.58474e-17)
(0.014511 0.00371694 -2.27759e-17)
(-0.00117354 -5.79365e-05 -2.72808e-19)
(0.0130904 -0.000333595 -2.55574e-17)
(0.0208358 -0.010138 2.55925e-17)
(0.0155629 0.0150289 -1.56422e-18)
(0.00733784 0.00882217 -6.31103e-19)
(-0.0246174 -0.00423102 1.68019e-17)
(0.00140076 -0.00404188 -2.38512e-17)
(-5.14083e-05 -0.000409144 -4.46505e-18)