/*--------------------------------*- C++ -*----------------------------------*\
| =========                 |                                                 |
| \\      /  F ield         | OpenFOAM: The Open Source CFD Toolbox           |
|  \\    /   O peration     | Version:  v2012                                 |
|   \\  /    A nd           | Website:  www.openfoam.com                      |
|    \\/     M anipulation  |                                                 |
\*---------------------------------------------------------------------------*/
FoamFile
{
    version     2.0;
    format      ascii;
    class       volVectorField;
    location    "650";
    object      ddt0(U);
}
// * * * * * * * * * * * * * * * * * * * * * * * * * * * * * * * * * * * * * //

dimensions      [0 1 -2 0 0 0 0];


internalField   nonuniform List<vector> 
13851
(
(0.00431057 0.000926993 -1.02301e-19)
(-0.0202883 -0.00916438 3.81495e-19)
(-0.00292867 0.00464137 -4.0744e-18)
(0.00421018 0.000636897 -5.90521e-20)
(-0.00227906 0.00733617 6.11107e-19)
(0.00458433 -0.00708107 1.01879e-18)
(-0.000772518 0.00125289 -1.42832e-18)
(-0.0026835 0.0064812 7.86719e-18)
(0.00103376 -0.000704659 2.13379e-19)
(-0.0107102 0.010131 1.41795e-19)
(0.00974572 -0.0701876 1.17609e-19)
(-0.0452969 -0.00947879 6.05612e-19)
(0.00514423 0.00814168 1.21868e-17)
(-0.0146061 0.0595116 -2.79348e-18)
(-0.000302763 0.000188814 5.44891e-19)
(0.000566499 0.00782364 2.3987e-18)
(-0.000765142 0.00465697 1.67978e-18)
(0.00433767 0.00262525 -7.27545e-20)
(0.000501595 0.00915828 -1.15485e-17)
(0.00103084 -0.000662439 -9.93946e-20)
(0.00396217 0.000630582 -7.86793e-20)
(-0.00252815 0.00493337 -1.98816e-18)
(-0.00183468 -3.12228e-05 -2.02501e-19)
(0.000529594 -5.14921e-05 5.91778e-20)
(-0.00155988 -2.80117e-06 -3.51727e-20)
(-0.00274992 0.00654104 -3.50006e-18)
(-0.00219722 0.0037051 -4.25609e-19)
(0.00157101 -0.00669048 -5.00626e-19)
(0.00414481 0.00100391 1.00186e-19)
(0.00290675 0.00347274 1.13425e-18)
(0.00269437 -0.00785518 -1.15844e-18)
(-0.00083802 0.00479875 6.32985e-18)
(-0.00329977 0.00486499 3.50794e-18)
(-0.0211327 0.0748778 1.91203e-18)
(0.000611772 -6.53812e-05 -4.31983e-20)
(-0.00567998 0.00534705 7.43192e-18)
(0.012977 0.0040461 1.97762e-19)
(-0.00291962 0.00489034 -6.01371e-18)
(-0.0122665 0.00959546 -1.93006e-18)
(-0.00550409 0.0632665 3.13821e-19)
(0.00194374 0.000648181 -3.02662e-19)
(-0.00236085 0.000781498 -2.89695e-20)
(0.00295618 0.000576814 3.13404e-17)
(-0.00184222 -0.0487271 2.1073e-19)
(0.00376567 -0.048135 1.66628e-19)
(-0.00316682 0.0137403 -8.60207e-18)
(-0.0115213 -0.016591 -1.47959e-20)
(0.0309024 -0.0455001 2.00556e-19)
(-0.00226748 0.00377649 8.97307e-19)
(0.00541132 -0.00461296 -4.91777e-21)
(-0.00493123 0.00732171 -5.89507e-18)
(-0.00476411 0.00970471 5.56772e-19)
(-0.00200771 -6.15429e-05 -1.82666e-17)
(-0.000283583 0.000127802 6.29536e-19)
(0.000683276 5.62786e-05 -2.50796e-19)
(-0.00236 0.000861094 -7.28672e-20)
(-0.000539043 -0.000197836 -3.79053e-20)
(-0.00770751 -0.00314756 -3.14968e-17)
(0.00285402 0.00333927 -1.0358e-18)
(-0.000758282 0.00157231 5.72809e-19)
(-0.00303589 0.00371175 5.30424e-18)
(0.0167907 0.0108656 2.08444e-17)
(0.000624962 0.00387624 9.06337e-19)
(-0.00223912 0.00802218 -1.2872e-18)
(0.039457 -0.00669603 2.96806e-19)
(0.00516706 0.00066215 2.71941e-20)
(0.0143562 0.00377665 -2.74911e-19)
(-0.0147269 0.00313835 2.87943e-20)
(-0.00345048 0.00531507 -7.56819e-18)
(0.00425143 0.00259395 -1.12232e-20)
(0.0171512 7.21108e-05 -3.33855e-18)
(0.0153444 0.00312308 -6.29198e-18)
(-0.0221823 -0.00969659 -1.74049e-18)
(-0.000306083 0.000126628 -1.06957e-18)
(0.00079196 7.03416e-05 5.06001e-20)
(0.00130229 -0.00084884 1.70711e-19)
(-0.00264775 0.00510557 2.29155e-18)
(0.0143149 0.000601086 -2.11049e-17)
(-0.00304256 0.00627704 -4.43222e-18)
(0.0174004 5.03868e-05 -1.13431e-17)
(-0.000745102 0.00217578 -3.58193e-18)
(-0.0017769 -0.0235057 9.33e-19)
(0.000174054 0.000978922 -1.38714e-18)
(-0.00514825 0.0153627 -2.79969e-18)
(2.77077e-05 0.00279226 -3.18614e-19)
(-0.0517097 -0.00398296 -4.07704e-20)
(0.00400456 -0.0039084 1.19094e-19)
(-0.0429284 0.0651476 4.35334e-19)
(-0.00178017 0.00447768 -2.2709e-19)
(-0.00251445 -0.00368673 -3.19224e-19)
(-0.00825701 0.00529258 5.42157e-18)
(0.00363778 -0.00278507 5.09423e-19)
(-0.0162898 0.015386 5.25025e-20)
(-0.00230046 0.00492733 -3.42817e-18)
(-0.00184823 0.0043635 -1.75921e-18)
(-0.000200532 -0.000105534 2.1625e-19)
(-0.00234226 0.00756218 -1.21824e-18)
(0.0127574 0.00778527 9.90768e-19)
(0.00567009 -0.00548495 -8.72465e-20)
(-0.000199775 -7.24831e-05 -2.85195e-19)
(-0.0238644 0.0282005 1.0181e-17)
(-0.00372479 0.00642676 4.40593e-18)
(0.00294537 0.00161361 1.64626e-19)
(-0.00281715 0.00292419 6.02143e-18)
(-0.00118733 7.34341e-05 -7.87081e-21)
(0.00279989 -0.00242558 9.92394e-19)
(-0.00389789 0.00665592 -2.88975e-18)
(-0.00185141 0.000737974 1.72504e-19)
(0.0157902 0.00239976 -6.41685e-18)
(0.00600601 -0.00775464 6.67383e-19)
(0.000242477 -4.67873e-05 -2.13934e-19)
(-0.0024748 -0.00399738 2.20674e-19)
(0.00345023 -0.0026 -9.44614e-21)
(9.5603e-05 -6.94343e-06 2.09312e-19)
(0.000284924 -6.63464e-05 2.47706e-19)
(0.046182 -0.0618896 -1.94367e-18)
(0.0121205 0.00777559 -2.01894e-18)
(-0.00206883 0.000418286 -1.76131e-19)
(0.000830624 -2.64797e-05 -7.58718e-21)
(0.000751926 2.09526e-05 -4.91808e-19)
(0.00235296 0.000877064 -1.23456e-17)
(-0.00266752 0.00295482 -7.59799e-18)
(0.00578147 0.00817665 -3.36396e-18)
(0.0482498 -0.0859675 -1.0115e-18)
(0.0204574 -0.0332101 6.81339e-19)
(-0.00930369 -0.00617344 -2.12696e-19)
(0.0104386 -0.0327224 -4.27637e-19)
(-0.00332481 0.0063712 -8.7965e-19)
(0.00387596 0.000458455 -9.71048e-20)
(0.000175262 0.00876196 -5.25867e-18)
(0.00186938 0.000625925 3.16453e-19)
(0.00108311 -0.000225925 6.12488e-20)
(0.0174123 6.81578e-05 8.66447e-18)
(0.000118746 0.000939515 1.10968e-18)
(0.0589088 -0.0652297 1.57717e-18)
(0.000975656 -8.47773e-05 -7.72271e-20)
(-0.00205661 0.000377624 3.20442e-19)
(0.0148946 0.003232 -1.37341e-17)
(0.0397973 0.0206126 6.76179e-18)
(-0.0573269 -0.089664 -2.89124e-17)
(-0.0248542 0.0252686 -7.32248e-18)
(0.000703867 4.8033e-05 -2.13594e-20)
(0.00179707 -0.000991821 8.27585e-20)
(-0.0036565 0.00101021 -9.66526e-20)
(0.000411679 0.00387339 4.57821e-19)
(-0.0108826 -0.0337955 2.71313e-19)
(0.00342117 0.0185021 -5.01614e-19)
(0.0005201 0.00846344 3.97667e-18)
(-0.000818271 0.00121423 -2.56179e-19)
(0.0127116 -0.0481541 2.51538e-20)
(-0.00559183 0.00619717 -2.33514e-18)
(0.000804239 7.70667e-07 3.30717e-20)
(-0.015671 0.0555271 1.34276e-17)
(-0.000600014 -0.000187819 -5.53029e-19)
(-0.00106885 0.00335656 9.82248e-19)
(0.000529147 0.00381058 -7.58658e-19)
(0.00169826 -0.000308485 -4.18451e-20)
(0.00212838 0.00327281 1.31037e-18)
(-0.00425333 0.00992898 -1.22443e-17)
(-0.00482088 0.00730314 1.19886e-17)
(-0.00151846 0.0019089 1.3163e-20)
(-0.00301224 0.00448987 2.10554e-18)
(-0.00651947 -0.00281474 1.32834e-17)
(0.00105681 -0.00022925 8.59062e-20)
(0.0037879 0.00510332 5.90014e-19)
(-0.00307212 0.00079694 1.61188e-19)
(0.00182563 0.0218653 7.26181e-20)
(-0.00354759 0.00531867 -9.23969e-19)
(0.00377419 0.000471128 -1.66392e-20)
(0.0138145 0.00791624 1.16289e-17)
(0.0143873 0.000319085 1.84288e-17)
(0.000166595 -0.000624416 7.96501e-20)
(0.00173123 -0.000284605 2.99543e-19)
(-0.0430233 -0.0644939 1.10411e-17)
(0.00103545 -0.000211575 -1.67697e-19)
(0.0441062 -0.0430978 6.11239e-19)
(-0.0032082 0.00629365 2.72626e-20)
(0.00191996 -0.000962854 3.52308e-20)
(0.00140279 0.00903425 4.21351e-19)
(-0.00185091 0.000944717 -4.78294e-20)
(-0.000809851 0.00509133 -3.35599e-18)
(0.0152552 0.00296895 1.89641e-17)
(2.7213e-05 0.000856547 3.28085e-19)
(-0.00218899 0.00477992 2.93909e-18)
(-0.00126413 0.000358879 1.22777e-20)
(-0.00134765 -9.0995e-05 -3.53315e-19)
(0.00518753 0.000881561 6.76286e-19)
(0.000723454 4.43593e-05 5.06135e-19)
(-0.00135048 0.00732094 -1.21744e-17)
(0.00118434 0.0243532 -6.26203e-19)
(-0.0160427 -0.00430724 -1.60263e-20)
(-0.00293835 -0.000288072 1.27164e-17)
(-0.00288584 -0.00461234 -1.25932e-19)
(-0.00314335 0.00550559 -9.1559e-18)
(0.0169138 0.0100484 -1.24897e-17)
(-0.000773606 0.00328117 -2.86853e-18)
(0.0017773 -0.000963902 -1.39922e-20)
(0.0297217 -0.0211631 -3.96099e-19)
(0.00187786 -0.00095326 3.439e-20)
(0.00133335 -0.000830462 1.07727e-20)
(-0.00808937 -0.00721007 3.26449e-19)
(0.00595931 0.010668 -1.39353e-17)
(0.00054718 -1.67023e-05 1.71923e-19)
(0.0007973 0.000848656 2.18355e-19)
(-0.00292404 0.0170976 -1.08252e-18)
(1.93605e-05 0.000909675 2.34931e-18)
(0.0362536 -0.0370184 2.63789e-18)
(-0.00115739 0.00459709 9.22855e-19)
(0.01612 0.000574506 5.6658e-18)
(-0.00164919 0.00135646 -4.30369e-20)
(0.0136065 0.00198825 -1.1048e-17)
(0.00286259 0.00154841 -1.59428e-19)
(0.00267312 -0.00647137 -3.09366e-19)
(-0.00161186 0.000868874 2.96436e-20)
(-0.00331444 0.00101407 -3.38024e-21)
(0.00465942 -0.0246732 5.23121e-20)
(0.00128458 0.000888193 -9.88806e-19)
(-0.0022885 0.0145833 1.1977e-17)
(-0.00022404 0.000385738 1.81991e-18)
(0.0159288 0.000696607 9.3786e-18)
(-0.0011309 0.00471092 2.80655e-18)
(-0.000824907 0.00224185 9.82489e-19)
(0.0105583 0.00524739 1.33554e-17)
(-0.0025671 0.00964144 -5.14835e-20)
(0.015234 0.00102622 4.88709e-18)
(-0.00130899 -4.89059e-05 -2.76891e-19)
(-0.0024252 0.00525869 5.4607e-18)
(-0.00103837 4.44167e-05 -4.52233e-20)
(-0.00407743 0.00325073 -1.27271e-17)
(-0.00157131 0.000948497 -8.65401e-20)
(-0.00268142 0.00677377 1.86356e-18)
(0.00848562 -0.0223226 -8.53335e-19)
(0.000130793 -0.000583596 8.00708e-20)
(-0.00295624 -0.00424528 5.18286e-20)
(-0.0043199 0.00677028 -1.16531e-18)
(0.00732023 0.000912266 -8.02877e-20)
(0.0279295 -0.0331791 -3.68811e-18)
(0.0396197 -0.00551264 -8.1595e-19)
(-0.00354929 0.00106987 -1.38032e-19)
(0.000775343 0.000884058 1.89337e-19)
(0.00171954 -0.00645577 -3.10557e-19)
(-0.00237368 -0.0140966 2.50622e-20)
(-0.00158639 0.00351672 -1.3478e-21)
(-0.00400072 0.0182527 4.78049e-18)
(-0.0014293 0.000121419 -2.38477e-20)
(0.0153782 0.000904423 -4.41351e-18)
(-0.00352791 0.00650426 -1.00756e-17)
(-0.0268896 0.0685505 1.39389e-19)
(0.000785064 0.0038682 1.34805e-18)
(0.000524859 0.00529203 4.25088e-18)
(0.00192181 -0.000951484 4.09462e-19)
(-0.000848906 -0.0146823 8.21552e-20)
(0.000296577 0.00249519 1.57168e-18)
(0.000667037 0.00393675 -6.23153e-19)
(-0.00457223 0.0062503 6.37343e-18)
(0.0153693 0.0255248 -2.01648e-18)
(0.00345506 0.0230543 4.84169e-19)
(0.0148393 0.00310406 2.45293e-18)
(0.00499543 0.00167023 -1.95667e-17)
(-0.000406474 0.000637321 -1.19131e-18)
(-0.00340653 0.000970535 -7.65821e-21)
(0.00418135 0.00259111 -2.80968e-20)
(-0.0120499 -0.0344845 -1.17458e-18)
(-0.0050359 -0.0014452 4.84175e-19)
(0.00394525 0.00874232 6.8631e-18)
(-0.000724455 0.0033086 3.6847e-18)
(0.000197848 0.00242527 4.49232e-19)
(-0.00224189 0.00483052 -1.14856e-18)
(0.00979452 0.00544201 -2.33258e-18)
(-0.0113168 -0.0191218 -1.18375e-19)
(0.00200136 -0.000824369 -3.7415e-20)
(-0.00094772 0.00341781 -3.88842e-19)
(0.0025983 -0.0175833 -1.64413e-18)
(-0.00307537 0.00617796 -1.68694e-18)
(0.000926065 0.0076859 -4.44191e-18)
(0.00108973 -0.000241386 -3.7244e-20)
(-0.000263588 -0.0239983 -1.24416e-18)
(-0.0169386 0.0200509 3.75083e-20)
(0.0157027 0.00103804 -1.53461e-18)
(0.0108798 -0.0566117 -4.48035e-20)
(-0.00122021 0.00364111 3.30947e-21)
(-0.00148224 0.00125595 1.69637e-21)
(-0.00113465 8.2853e-05 -2.85797e-20)
(-0.0044503 0.00606272 -5.16936e-18)
(-0.0174849 -0.034502 -2.83131e-18)
(0.0642099 -0.0290423 -2.11328e-19)
(0.00121169 -0.00073171 -2.65371e-19)
(-0.000439533 0.000295354 9.9053e-19)
(-0.00137485 -0.0175826 -3.93594e-19)
(-0.012952 -0.0190133 7.31004e-20)
(-0.000448924 0.00859986 -1.08657e-18)
(0.00260589 0.00332956 9.14604e-20)
(-0.000786479 0.0016375 -1.77603e-18)
(-0.00332457 0.00561497 -9.78345e-18)
(-0.0119062 -0.0196504 -8.80432e-20)
(0.00318675 0.00884764 -2.89574e-18)
(0.00305868 0.00526734 3.91082e-19)
(-0.0493962 0.00742431 -9.3291e-21)
(0.00116733 -0.000257342 -5.33604e-20)
(0.0151501 0.00103123 -8.71959e-18)
(-0.00308592 0.0044087 -8.09372e-18)
(-0.000618265 0.00466277 -2.18258e-18)
(0.0155185 0.00101031 1.04002e-17)
(0.0018616 0.00159836 4.61347e-19)
(0.00281081 -0.00313017 -2.24099e-19)
(0.012549 0.00292055 -1.88425e-17)
(0.00114622 -0.000707777 8.41609e-20)
(-0.00418431 0.00582314 -1.87064e-17)
(-0.00218495 0.00502135 5.16784e-18)
(0.00259901 0.00319518 5.42782e-19)
(0.0438144 0.019059 -1.29049e-17)
(0.00320892 0.0053603 -3.85736e-18)
(0.000538299 0.00239414 -1.27816e-18)
(0.0106545 0.00638589 -1.17677e-18)
(-0.00258001 0.000779637 -2.48458e-19)
(0.000467602 0.00543123 -4.67939e-18)
(-0.00581343 -0.010426 2.52407e-19)
(0.0156575 0.00119775 -2.01884e-17)
(-0.00631105 0.00625043 3.71557e-18)
(-0.000213011 0.000434145 1.50048e-18)
(-0.0040457 0.00640849 6.32905e-18)
(-0.000329474 0.000388101 4.69377e-19)
(0.00779983 0.00244701 1.90661e-17)
(0.00154049 -0.000987751 5.01364e-19)
(-0.0018003 -5.16993e-05 -5.49567e-20)
(0.00207673 -0.000511272 1.61603e-19)
(-0.00625311 0.00646601 -8.78737e-18)
(-0.00240709 0.00514184 -2.99576e-18)
(-0.00121546 0.00323367 -7.29424e-18)
(-0.000424712 0.000264383 -4.17455e-19)
(0.00176364 0.00157704 -7.32906e-19)
(0.000626707 0.00233677 3.16481e-19)
(0.0102763 -0.0646152 3.42997e-20)
(0.0255914 0.042267 1.55072e-17)
(0.0140938 0.00811933 -3.56693e-18)
(0.00408951 0.00278397 5.03129e-19)
(0.0154213 0.00118746 9.1963e-18)
(0.0117508 0.00239821 5.57911e-18)
(-0.000259988 0.000185873 2.67239e-19)
(-0.0030659 0.00560202 1.39062e-18)
(-0.000804751 0.00822663 1.56215e-18)
(0.00436199 -0.00253963 -1.51826e-19)
(0.00789085 -0.00282494 4.09846e-19)
(-0.00501459 0.0091108 4.9004e-18)
(0.00101513 0.00898971 -6.56311e-19)
(0.00250675 -0.00166028 1.13441e-19)
(0.0112688 -0.0481697 -2.17136e-18)
(0.0138948 0.00188972 8.37849e-18)
(-0.000341984 0.00015487 -1.0297e-18)
(0.0188929 0.00246227 -8.35031e-20)
(0.0195557 -0.00952287 1.99078e-19)
(-0.00883662 -0.0114233 -5.58071e-19)
(-0.00131579 0.00317978 4.41923e-18)
(0.00840218 -0.00375692 1.69384e-18)
(-0.00504176 0.00313319 1.64928e-17)
(0.0017918 -0.000294727 3.24436e-20)
(0.012702 -0.0531929 1.92607e-18)
(0.00204357 -0.000530856 -9.89246e-20)
(-0.000321609 0.00036288 -4.62802e-19)
(-0.00146319 0.000160339 2.48481e-20)
(-0.00182591 0.000805505 -1.41859e-19)
(0.00158123 -0.00024569 3.25391e-20)
(0.0135417 0.00209377 6.10258e-18)
(-0.00569715 0.0112336 1.04988e-19)
(0.00090092 0.00122994 -3.91546e-19)
(-0.00408217 0.00570408 -2.71752e-18)
(-0.00275156 0.000936013 7.27199e-20)
(-0.0411283 0.0129404 -1.47712e-18)
(0.00221652 0.00983967 1.11792e-18)
(0.0391486 -0.0151061 -7.80817e-19)
(0.0143933 0.00789133 -3.27701e-18)
(0.000974681 0.00125628 1.77146e-20)
(0.000802252 0.000439214 1.57962e-18)
(-0.00192195 0.00517446 -4.74337e-18)
(0.0588936 -0.044693 5.34335e-19)
(0.00180456 0.000469626 -1.28956e-19)
(-0.00212542 0.000431082 1.51363e-19)
(0.00203298 -0.00199964 -1.96649e-19)
(-0.0125214 0.0249891 1.58081e-17)
(0.000777443 4.68402e-05 -2.23472e-19)
(0.0468332 0.0118209 1.08046e-17)
(0.00417374 -0.00283867 -6.45111e-20)
(-0.00526434 0.00925582 -7.84717e-18)
(0.0107536 0.00813875 -4.75674e-19)
(0.0069081 -0.0262471 -1.8332e-19)
(0.00761989 -0.00673952 1.311e-19)
(0.00227566 -0.000898304 2.90797e-19)
(0.00119737 -0.000172501 6.25124e-20)
(-0.000419458 7.60181e-05 1.33765e-18)
(0.00422482 0.00275755 -2.37018e-20)
(-0.00413753 0.00634749 -2.06072e-17)
(-0.0164915 0.0544453 -7.81234e-19)
(-0.00367528 0.00523048 1.94872e-18)
(0.0148285 0.00119649 1.54342e-17)
(0.0130433 0.00254353 1.36346e-17)
(-0.00280357 0.000887169 3.07906e-19)
(-0.000435027 0.000668645 -1.00052e-18)
(0.0136326 0.00790684 6.8974e-18)
(0.0174277 8.33893e-05 -9.01618e-18)
(0.003833 -0.0199544 -4.50363e-19)
(0.0114466 0.00747973 -1.59044e-18)
(0.00186788 -0.00209481 9.62894e-20)
(-0.00206058 0.00528029 1.56841e-18)
(-0.000615499 -6.11618e-05 -6.6778e-20)
(0.00972968 0.00248079 -4.22286e-18)
(0.000593468 -0.000762537 1.96166e-20)
(0.000291234 0.00757556 1.17884e-18)
(0.00221868 -0.000934222 -9.85713e-19)
(-0.000571483 0.0012727 -2.3249e-18)
(-0.00103423 5.78596e-05 2.39264e-20)
(0.00111017 -0.000727989 -9.49972e-20)
(-0.00301024 0.000842524 1.68792e-19)
(-0.00257246 0.008049 8.40201e-18)
(0.0103287 0.000643731 -7.15207e-20)
(0.00945685 0.00544288 -9.1099e-19)
(0.0041937 0.00254595 -1.29171e-19)
(-0.00412616 0.00656068 1.03366e-17)
(0.00713035 -0.00163168 -1.65007e-19)
(-0.00335642 -0.0121301 -2.61483e-20)
(0.000865676 0.00569129 2.18775e-19)
(-0.0109571 -0.0148696 -1.0332e-18)
(-0.000498688 0.00453654 3.53111e-18)
(0.00660177 3.1751e-06 3.75806e-20)
(-0.0019934 0.000382597 -1.12891e-19)
(0.00108145 -0.000707558 -3.74275e-19)
(-0.00114629 -5.04827e-05 2.48871e-19)
(-0.0013033 0.00234427 -2.67517e-18)
(0.0537983 -0.00193986 -1.37942e-19)
(-0.00188595 0.00926423 -8.82018e-19)
(0.00718206 -0.00111827 3.8685e-20)
(0.00697359 0.00414257 9.65697e-18)
(-0.0228285 0.067195 -1.62474e-18)
(0.00364131 -0.00331358 5.25908e-19)
(0.000772464 -2.48885e-06 -5.25098e-21)
(-0.00444869 0.0067504 1.0089e-17)
(0.00173718 0.000447368 1.7005e-19)
(0.000286212 -0.0115 5.5924e-20)
(-0.00148379 7.39084e-05 -1.4003e-19)
(-0.0261523 -0.0254655 -8.28391e-20)
(0.0308437 -0.020425 2.19723e-19)
(-0.0040027 0.00549262 -1.84682e-18)
(0.0158548 0.000607566 -1.07542e-17)
(0.0018708 -0.00098791 -1.67059e-20)
(-2.10942e-05 0.0453585 -2.14542e-19)
(0.0416037 -0.0233172 -5.65571e-19)
(0.0267551 0.0223777 -8.9728e-18)
(-0.00130575 0.000412417 -2.05138e-20)
(-0.00213626 0.00547731 2.99004e-18)
(-0.00306254 0.00632622 3.17964e-18)
(-0.0129391 -0.0212005 -4.46657e-19)
(0.000489556 -0.000636351 -1.54679e-19)
(0.000768046 0.00233931 -5.61174e-19)
(-0.00552203 0.00610776 -1.87341e-19)
(-0.00471758 0.00944423 3.14144e-17)
(0.00407497 0.00220766 1.74292e-19)
(0.0631085 0.039688 6.67105e-18)
(-0.0014473 -7.68237e-05 1.5669e-19)
(0.00215902 -0.000541528 2.63977e-20)
(0.00311114 0.00527672 1.95254e-17)
(0.0041956 0.00504559 4.7138e-19)
(-0.00143945 0.00117548 6.14768e-21)
(-0.0342399 0.0681687 3.42027e-19)
(0.00117723 -0.000176009 -9.52113e-20)
(0.00430555 0.000785775 -6.73279e-20)
(0.000753467 -0.000603265 -3.18975e-19)
(0.00797976 0.00703801 -2.81181e-19)
(0.00213696 0.002908 4.11545e-19)
(-0.00159997 0.0012761 3.05761e-20)
(0.00184265 -0.000979871 1.23682e-19)
(0.0102157 0.00666437 -1.68104e-17)
(0.000175674 0.00104391 6.17149e-19)
(-0.00374409 0.00546326 1.62521e-17)
(0.000982151 -9.26233e-05 1.9967e-20)
(0.0039749 -0.00148057 -1.49149e-18)
(0.00163008 0.0383297 1.15181e-19)
(5.16948e-05 -7.07765e-06 1.30647e-19)
(0.00216242 0.000243894 8.3973e-21)
(0.000336362 -1.57261e-05 -3.89539e-19)
(0.00029792 -1.88633e-05 -1.14981e-19)
(0.0499518 -0.0133997 1.20817e-19)
(4.97152e-05 0.00237885 -1.65159e-18)
(0.00378863 -0.00488489 -6.44624e-19)
(-1.06162e-05 0.000814513 -1.41972e-18)
(-0.000735715 -0.000107792 4.93236e-20)
(-0.0192555 0.0409734 1.85994e-17)
(0.0160597 0.000476189 1.28263e-17)
(-3.10321e-05 0.000982125 1.95709e-18)
(0.00394584 -0.00146514 6.27956e-19)
(0.000650008 0.00577243 -3.29819e-18)
(0.00108943 -0.0153665 2.98357e-20)
(-0.00423678 0.014525 -2.99763e-18)
(0.00218998 -0.000514425 1.52404e-19)
(0.00257192 0.0113587 6.61218e-21)
(0.00181365 0.000532762 -8.06294e-20)
(-0.00171946 0.00667955 -1.00774e-17)
(-0.000577679 0.00145869 4.2471e-19)
(-0.00314435 0.00805841 -1.58681e-17)
(-0.00191634 0.000298286 1.22981e-19)
(-0.00175287 0.000836897 1.10129e-17)
(0.00788595 0.022678 1.54339e-18)
(-0.0024337 0.000760479 -6.31623e-21)
(0.00393569 -0.00145448 2.31984e-19)
(0.0144196 0.00817499 -1.48151e-17)
(-0.00274047 0.00686208 -1.55937e-18)
(0.00240427 0.0243321 -8.3065e-20)
(0.000936453 -3.32162e-05 2.47575e-23)
(-0.0110478 -0.0456176 3.29856e-19)
(0.000651444 4.4023e-05 -1.21755e-20)
(0.000952222 -0.000247834 3.90999e-20)
(0.00115512 -0.000283182 -1.20467e-20)
(-0.000690264 0.00112017 -4.93549e-19)
(0.0173046 0.000143 1.48113e-17)
(-0.00435866 0.00703804 -8.81024e-18)
(-0.00669972 0.00867274 6.93969e-18)
(0.00223188 0.00877575 -2.13886e-17)
(0.0010433 0.0018085 3.28341e-19)
(-0.00162462 0.00202799 -3.53898e-21)
(0.00819502 0.00869215 -1.18627e-17)
(0.0529128 -0.00680271 2.9043e-19)
(-0.000966795 0.00508474 -1.06182e-18)
(-0.00291909 0.00457466 5.24984e-18)
(0.00197872 -0.012999 5.74963e-20)
(0.0360294 -0.0762724 -3.22366e-19)
(0.0133958 0.00222345 -2.85175e-18)
(-0.00028784 9.21466e-05 3.91951e-19)
(-0.00388843 0.00887086 2.02404e-17)
(-0.00368105 0.0136001 2.56611e-19)
(0.00326753 0.0127091 8.01262e-18)
(0.00360555 0.00537898 2.5402e-18)
(0.00395163 -0.0014334 -2.33553e-19)
(0.0614489 -0.0654488 -1.28326e-18)
(-0.00444172 0.0419229 1.8523e-19)
(0.0194013 0.0219939 3.08365e-19)
(0.0187644 -0.010108 1.13255e-19)
(-0.0224632 -0.0351909 1.26681e-18)
(0.00230217 0.00329731 -1.14623e-18)
(-0.0164172 -0.035006 -1.44847e-18)
(0.0125271 0.00378218 3.30864e-19)
(-0.0019231 0.000341258 1.78006e-19)
(-0.0130738 0.0297599 -2.95491e-19)
(-0.00446186 0.00707358 1.04356e-17)
(0.0161368 0.000296863 7.22531e-18)
(0.000945783 0.00397193 -3.22976e-18)
(0.000452532 0.000641867 7.26227e-19)
(0.00165346 -0.000295211 -2.11108e-19)
(0.00142707 0.000825481 -3.02469e-19)
(-0.00172889 0.00745387 -4.69564e-18)
(0.00782768 0.00311211 3.71483e-20)
(-0.0456504 0.0612529 2.79276e-20)
(0.0557644 0.0445567 -3.12643e-18)
(0.00081826 -0.000132866 -2.00865e-20)
(0.00330617 0.0039517 -1.92556e-17)
(0.0144441 0.00128282 1.39859e-18)
(0.000674025 -0.000788319 -1.02382e-18)
(0.053263 -0.014989 1.0051e-19)
(-0.00364572 0.00544745 4.38417e-18)
(-0.00137922 0.00100265 1.08381e-21)
(0.00103899 -0.000727478 3.39418e-19)
(0.000514783 0.025683 -2.50538e-19)
(0.00891246 0.00862604 1.21237e-17)
(-0.00111331 0.00343463 5.58964e-19)
(-0.00575606 0.00649151 1.53093e-17)
(-0.006927 0.00693177 -1.15664e-17)
(-0.00228412 0.000884146 1.32178e-19)
(0.00771812 -0.00267452 1.92759e-19)
(0.0185268 -0.0535655 -1.02871e-18)
(-0.010336 -0.00824095 3.48047e-19)
(-0.00418688 0.00921826 -1.09288e-17)
(0.0172454 0.00015466 -2.6137e-17)
(0.0128553 0.00344932 7.97854e-19)
(0.00186891 0.000558061 -1.74943e-19)
(-0.000619427 0.00126425 3.55055e-19)
(0.00234344 0.0703365 4.74779e-21)
(0.0129772 0.00257703 -1.72101e-17)
(-0.00775558 0.00694963 9.17797e-18)
(-0.00375627 0.00513759 -3.23818e-18)
(-8.95856e-05 0.00550365 -5.75658e-19)
(-0.00188977 0.000873011 7.91025e-20)
(0.0010539 0.00043564 6.34432e-20)
(-0.0220738 -0.027831 -7.87998e-20)
(-0.00220111 0.000821054 -1.04466e-19)
(0.00106538 0.00388878 2.58232e-18)
(-0.00176294 0.000943447 -6.01743e-20)
(0.0010559 -8.86461e-05 -8.33743e-21)
(0.0123056 0.00367113 -3.38e-18)
(-0.00219205 0.0077704 8.50232e-18)
(0.00657074 -0.000891467 -1.11337e-19)
(-0.00213553 0.000842957 9.27754e-20)
(0.0462438 0.00997741 9.70011e-18)
(0.0298332 -0.0345251 4.54478e-20)
(0.00122124 -0.000230807 -6.15217e-20)
(-0.000975222 -0.000236117 -3.82004e-19)
(-0.00487136 -0.00179871 2.3628e-20)
(-0.000423598 0.000104291 -8.57691e-19)
(-0.0152133 0.0191901 -8.58771e-18)
(-0.0113591 0.0391933 -3.1833e-19)
(-0.0137695 0.023488 9.8834e-20)
(0.00443941 0.0153294 5.75302e-18)
(-0.0167849 -0.0452442 5.23154e-19)
(-0.00371248 0.00497887 5.83143e-18)
(0.0162237 0.000156284 -9.37146e-18)
(0.0163272 0.00044794 -1.06269e-17)
(0.00255296 -0.00177808 4.2779e-20)
(-0.00338513 0.00540252 5.7561e-18)
(-0.00132439 0.00103639 -7.44043e-21)
(-0.00809951 -0.00996087 -9.66311e-20)
(-0.000679997 0.00762718 -9.04858e-18)
(0.00931614 0.00731904 2.39006e-17)
(-0.00968433 -0.041804 4.99176e-19)
(-0.00579172 0.00653142 -7.91766e-18)
(-0.00149464 0.00562658 -3.38188e-18)
(0.000912941 -0.000653847 5.7563e-20)
(0.00164548 0.00788672 -4.53594e-19)
(0.00179542 -0.000950648 -2.96783e-20)
(0.00437875 0.00896134 6.20661e-19)
(-0.00403216 0.00746596 -1.23624e-17)
(-1.26428e-05 0.000758578 3.21229e-18)
(0.00401196 0.00265648 -3.58947e-19)
(0.000492754 -0.000594991 -3.73965e-21)
(-0.00241935 0.00466351 9.26464e-18)
(-0.00130512 0.00931767 4.60731e-18)
(-0.000707719 0.0015184 1.29086e-18)
(0.00172788 0.000392822 -4.25861e-20)
(0.0016142 0.00998284 -1.38761e-18)
(-0.000198154 0.00175909 2.64513e-19)
(-0.00199452 0.00725076 -5.67229e-18)
(-0.00272249 0.00124685 2.91483e-18)
(-0.00288995 0.0093902 -9.84182e-20)
(0.0024778 0.00806069 8.44352e-19)
(-0.00662984 0.00679747 -9.76931e-18)
(0.00088288 -0.000628665 6.67247e-20)
(0.00104699 -0.013233 -2.55496e-18)
(0.00178034 -0.00101348 -4.03451e-19)
(0.00225459 0.0166971 1.27848e-17)
(0.00272337 0.0015798 3.40632e-19)
(-4.45551e-05 -8.72192e-05 -3.31799e-19)
(0.0156692 0.00256785 -1.30692e-17)
(0.00326491 0.00259532 2.93501e-19)
(0.00871979 0.0089649 -3.009e-18)
(0.0145419 0.00147114 -1.16752e-17)
(-0.00210427 0.0142028 1.48008e-17)
(-0.0284332 0.0667646 -9.93108e-19)
(0.000611959 -0.000716475 -5.0882e-19)
(0.0155937 0.00295564 1.12821e-17)
(-0.00114914 0.00412073 2.64457e-21)
(0.00109634 -0.000118269 4.57306e-20)
(-0.00185596 0.000293556 -1.61164e-19)
(0.00108257 -9.49543e-05 1.88211e-20)
(0.00373404 0.0093044 -1.46661e-20)
(0.00418296 0.00258329 -4.48317e-20)
(0.00737652 0.00649036 1.83207e-18)
(-0.00206341 0.000781283 -2.0073e-20)
(0.0111554 -0.00876362 -2.6269e-18)
(0.0060798 0.0245068 -1.66584e-18)
(0.0130361 -0.00685979 5.55899e-18)
(0.00153218 -0.000351913 -1.40311e-19)
(-0.00166978 0.000274328 -5.90735e-21)
(-0.00216384 -4.97773e-05 4.85596e-19)
(-0.000150923 0.00755931 1.19731e-17)
(0.0185794 0.00860489 -1.5097e-18)
(-0.00484657 0.00598955 8.07441e-18)
(-0.0023869 0.00474211 -9.99041e-18)
(-0.00143469 0.00451649 -4.15573e-21)
(-0.00063408 -9.56186e-05 -8.82755e-20)
(0.000798786 -8.44922e-05 1.8787e-19)
(0.00181762 -0.000390165 -1.21852e-20)
(0.00615167 0.00772965 -1.13022e-17)
(-0.0266351 -0.0539852 -1.15306e-18)
(-0.000171356 0.00170566 -1.51579e-18)
(-0.00199529 0.000796583 -6.58586e-20)
(-0.000739333 0.00110212 -1.97304e-18)
(0.0017746 -0.000360068 -6.3743e-21)
(-0.0302717 -0.0168359 6.08439e-20)
(-0.0042654 -0.0020055 3.23083e-19)
(0.00128866 0.00802721 4.30323e-18)
(0.0136929 0.00800799 1.26899e-17)
(0.00517625 -0.0590997 -3.87152e-19)
(0.00168121 0.000372726 3.00859e-19)
(-0.00619217 0.00868299 -2.75102e-18)
(0.0130911 0.0254067 7.04231e-19)
(-0.00346377 0.00552319 1.02314e-17)
(-0.0466706 -0.0193267 -1.2594e-18)
(-0.000667228 0.00218653 -7.3591e-18)
(0.00419382 0.00262 4.73828e-20)
(-0.00485473 0.00599804 -9.26358e-18)
(0.00418196 0.00257569 -2.22887e-21)
(0.017371 -0.0237644 1.20469e-19)
(-3.36384e-05 0.000926321 -1.55079e-18)
(0.0588103 -0.0644076 -7.99655e-19)
(-0.00141219 6.97839e-05 1.22037e-19)
(-0.00425271 0.00424147 1.71859e-18)
(0.0156437 0.000785583 -1.53707e-18)
(0.00134592 -0.00104437 4.53072e-20)
(0.00316719 0.00221042 7.84345e-19)
(0.000997097 0.0063717 -5.54691e-19)
(0.000976281 -0.000269255 8.13936e-20)
(-0.000688649 0.00494464 -1.4933e-18)
(-0.0072699 -0.0225105 -2.50097e-18)
(-0.0286423 0.00889704 -3.0307e-18)
(-0.00391044 0.00738382 1.82257e-18)
(0.0026042 0.0086127 -1.23566e-17)
(0.00193706 -0.0318127 -4.53393e-20)
(-0.00170226 0.000869021 3.50112e-20)
(0.00149293 -0.00033328 2.77303e-20)
(-0.0149672 0.0387558 -9.39625e-18)
(-0.00993431 0.00622616 1.08413e-17)
(0.00821963 0.000491408 4.88811e-20)
(0.0143109 0.00165273 1.26517e-17)
(0.000597906 -0.00116006 -3.24968e-19)
(-0.000505215 3.22535e-05 2.25173e-19)
(-0.00198423 0.000340071 -2.0029e-19)
(-0.0314149 -0.0170898 -4.00049e-19)
(0.0125516 0.00434383 1.47689e-17)
(0.00268875 0.00469067 -6.12502e-20)
(0.00298767 0.000715488 1.92787e-20)
(-0.00203127 0.0233218 2.1042e-19)
(-0.00192905 0.00394999 -8.11662e-18)
(-0.00222079 -4.81787e-05 -6.87769e-19)
(0.00438259 0.00492223 -2.47211e-18)
(0.0131885 0.0298403 6.97215e-19)
(0.0125271 0.00332097 -1.74771e-17)
(-0.00251307 0.000811042 7.03837e-20)
(-0.000210055 0.00165387 4.43325e-18)
(0.0157043 0.000214384 -7.00427e-18)
(-0.00166055 -0.00574361 -1.5333e-17)
(-0.00732614 0.00563773 -1.48182e-17)
(0.00176727 -0.000966937 1.14118e-19)
(0.0138303 0.00242708 -2.32121e-17)
(5.89342e-05 0.000960991 -1.78502e-18)
(0.00093967 0.00249497 -4.54665e-20)
(-0.00233784 -0.000183398 -6.45726e-19)
(-0.00422506 0.00501663 -6.909e-18)
(0.000473501 0.00493808 6.0741e-19)
(-0.00219985 0.0143789 -2.80875e-17)
(0.00225589 -0.000798907 -5.28742e-19)
(0.00216761 -0.00104292 8.26708e-20)
(0.0122969 0.00443657 -3.86457e-18)
(-3.29458e-07 -9.75038e-05 2.94107e-19)
(0.000123273 -8.04227e-06 -9.21409e-20)
(0.00218284 0.00303093 -6.60341e-19)
(0.000832897 -0.000643409 6.46954e-21)
(0.00420146 0.0070062 1.40292e-17)
(-0.000948871 0.00676911 -2.03918e-18)
(-0.00454171 0.00931629 -1.45043e-17)
(0.00658898 -0.000507594 -6.09494e-19)
(-0.0130343 0.0205335 -2.44819e-19)
(0.000954367 -0.000638559 -1.54908e-20)
(-0.0048643 -0.0272883 2.85042e-18)
(0.00082811 -4.10288e-05 8.99648e-21)
(0.00231281 -0.000812216 1.4624e-20)
(-0.00183801 0.000248039 -1.14933e-19)
(0.00162587 0.000308533 2.83864e-19)
(0.000925852 -2.06592e-05 5.1981e-20)
(0.0123534 0.0029031 2.21174e-17)
(0.00162698 -0.000258666 -8.86595e-20)
(-0.00231469 0.0004556 -9.7694e-20)
(0.0072006 -0.0161204 1.80757e-19)
(-0.000667029 0.00131844 2.90973e-19)
(0.015553 0.000445978 4.35656e-18)
(-0.00150108 3.4288e-05 -2.72423e-19)
(0.00175736 -0.000962751 3.04105e-19)
(-0.00493996 0.00679722 -1.28197e-17)
(-0.0358349 -0.01922 -2.31805e-19)
(-0.0113413 0.0106879 8.67019e-20)
(0.000687366 -0.000127792 -7.89927e-21)
(0.00518588 -0.0132073 9.54797e-19)
(0.0131811 0.00812304 -9.00735e-18)
(0.000102151 0.0024513 -4.76127e-19)
(0.0116501 0.00337735 4.18134e-18)
(-0.00413816 0.00423659 7.47601e-18)
(0.000773837 -0.000632243 2.41635e-19)
(0.00403616 -0.0003782 -5.98797e-20)
(0.00399381 0.00183061 -7.71118e-18)
(0.00427528 -0.0110953 1.18208e-18)
(0.00116468 0.00536802 1.63439e-19)
(0.000822045 -0.000109501 -1.99988e-19)
(-0.00192365 0.000734097 7.99201e-20)
(0.0463761 -0.0170269 5.62638e-20)
(-0.00521033 0.00422361 -6.89448e-18)
(0.0115827 0.0121709 9.96616e-19)
(0.00310036 0.00503703 1.52616e-18)
(0.00430675 -0.000732417 8.8523e-21)
(-0.000268193 0.000113487 -7.76715e-19)
(0.00175944 -0.000958111 2.07514e-19)
(-0.0056932 0.0062406 7.05966e-18)
(0.0363467 -0.0134943 -9.04022e-20)