/*--------------------------------*- C++ -*----------------------------------*\
| =========                 |                                                 |
| \\      /  F ield         | OpenFOAM: The Open Source CFD Toolbox           |
|  \\    /   O peration     | Version:  v2012                                 |
|   \\  /    A nd           | Website:  www.openfoam.com                      |
|    \\/     M anipulation  |                                                 |
\*---------------------------------------------------------------------------*/
FoamFile
{
    version     2.0;
    format      ascii;
    class       surfaceVectorField;
    location    "650";
    object      ddtCorrDdt0(Uf);
}
// * * * * * * * * * * * * * * * * * * * * * * * * * * * * * * * * * * * * * //

dimensions      [0 1 -2 0 0 0 0];


internalField   nonuniform List<vector> 
20537
(
(0.0045063 0.000955703 2.89269e-20)
(0.00457546 0.000840592 -8.3968e-20)
(0.0046895 0.000977874 1.81113e-21)
(-0.0211389 -0.00901774 -1.07968e-18)
(-0.0175364 -0.00435321 -4.44835e-19)
(-0.0212274 -0.0151677 -1.09768e-18)
(-0.00217526 0.00475074 -3.06083e-18)
(-0.00262122 0.00470376 -8.30576e-19)
(-0.00238564 0.00428888 -3.47562e-18)
(0.00438274 0.000634103 -9.43339e-20)
(0.00452624 0.000708866 -1.89112e-20)
(0.00451927 0.000545539 4.88553e-20)
(-0.00148472 0.00742023 -2.91973e-19)
(-0.00132971 0.00726691 -2.71987e-18)
(-0.00153107 0.00722354 -3.22335e-18)
(0.00378667 -0.00754575 -2.79231e-19)
(0.00532515 -0.00744949 9.30427e-19)
(0.00471919 -0.00628934 4.98961e-19)
(-0.000475545 0.00123528 -8.88767e-19)
(-0.00049872 0.00128287 -7.34156e-19)
(-0.000530235 0.00123494 -2.06421e-18)
(-0.00204228 0.00648488 2.55378e-18)
(-0.00193878 0.00648452 1.53318e-18)
(-0.00201213 0.00637461 1.37065e-19)
(0.00131866 -0.000685446 6.73654e-20)
(0.00133157 -0.000719093 2.7388e-19)
(0.00128945 -0.000717407 3.85251e-20)
(-0.0112495 0.00989153 -9.05886e-19)
(-0.0100602 0.0109224 2.13303e-19)
(-0.00959454 0.00921063 -3.965e-19)
(0.0102401 -0.0629192 4.08264e-19)
(0.0100576 -0.0673726 6.26265e-19)
(0.00719164 -0.0732626 9.3049e-19)
(-0.0484678 -0.00643365 3.18651e-19)
(-0.045864 -0.0147764 -5.29723e-19)
(-0.037482 -0.00688339 7.97621e-19)
(0.00580451 0.00815694 4.487e-18)
(0.00489241 0.00828844 -3.64458e-18)
(0.0057957 0.00798993 2.84448e-18)
(-0.0151814 0.0573001 8.31968e-18)
(-0.0147885 0.0564036 -1.93444e-18)
(-0.0131782 0.0559139 -3.23744e-18)
(0.000207116 0.0001868 3.8661e-19)
(0.000168614 0.00017059 -2.62378e-19)
(0.000178837 0.000219705 2.76237e-19)
(0.00122584 0.00773099 -6.80273e-19)
(0.000920295 0.00766632 1.71362e-18)
(0.00102362 0.00803066 5.32653e-19)
(-0.000126852 0.00471234 4.17946e-18)
(-5.35006e-06 0.00464869 -3.75731e-19)
(-0.000149278 0.00458123 1.89932e-19)
(0.00455325 0.00259682 -5.00673e-20)
(0.00458578 0.00266908 -5.19939e-21)
(0.00465761 0.00256358 -2.49809e-19)
(0.00132858 0.0090863 -6.13226e-18)
(0.00110173 0.00904696 -5.40997e-18)
(0.000210152 0.00933224 -3.06395e-18)
(0.00130598 -0.000652807 -6.97995e-20)
(0.00134801 -0.000654832 -1.48603e-19)
(0.00425894 0.000539544 -5.80649e-20)
(0.00424569 0.000694112 -2.77397e-19)
(-0.00200499 0.00506456 5.67293e-19)
(-0.00179424 0.00482255 8.96745e-19)
(-0.00157064 -1.21765e-05 3.06859e-21)
(-0.00173046 -3.15306e-05 -1.9367e-19)
(-0.00187137 -5.95662e-05 -2.2191e-19)
(0.000968448 -6.03328e-05 -1.80199e-20)
(0.000842933 -3.18951e-05 -1.25319e-19)
(0.000958925 -6.39898e-05 6.8835e-20)
(-0.00140322 -2.11534e-05 1.37573e-19)
(-0.00113418 9.6392e-06 6.87729e-20)
(-0.0021106 0.00661946 -8.88249e-19)
(-0.00217161 0.0064787 -5.49015e-18)
(-0.00149457 0.00373943 2.51223e-19)
(-0.00146236 0.0036434 -3.86577e-19)
(-0.00139117 0.0037267 2.89048e-18)
(0.00104273 -0.00671102 5.82195e-18)
(0.00189478 -0.00642079 2.21989e-18)
(0.00434868 0.000957275 1.86354e-20)
(0.00445679 0.0010985 1.04007e-20)
(0.00330062 0.00340012 1.23917e-19)
(0.00325965 0.00354279 6.94848e-19)
(0.00344355 0.003462 5.43168e-19)
(0.0021873 -0.00719435 -7.57223e-19)
(0.00269534 -0.00870775 -8.5606e-19)
(-9.80446e-05 0.00486287 2.29744e-18)
(-0.000251043 0.00478883 -2.4825e-18)
(-0.0027825 0.00505428 4.13979e-18)
(-0.00308738 0.00468618 3.18541e-18)
(-0.0148575 0.0694855 5.20187e-18)
(-0.0215697 0.0708421 8.0783e-20)
(-0.0273445 0.0780461 1.47245e-18)
(0.000996743 -5.43798e-05 4.052e-20)
(0.00102043 -9.08779e-05 -1.30476e-19)
(-0.00635193 0.00521083 6.5296e-18)
(-0.00583044 0.00526023 5.6843e-18)
(0.000592807 0.00539786 -7.48684e-18)
(0.0138956 0.00389623 -3.05615e-20)
(0.0130363 0.00423366 -1.97149e-18)
(0.0131737 0.00410575 4.64347e-18)
(-0.00285845 0.00435531 -6.93892e-19)
(-0.00241393 0.00517009 -2.16772e-18)
(-0.00260335 0.00521869 1.82522e-18)
(-0.012598 0.0101971 1.56094e-19)
(-0.0118795 0.00818061 -2.75694e-18)
(0.00167271 0.0552759 4.31281e-19)
(-0.00487547 0.0610103 -5.5327e-18)
(0.00237179 0.000631416 -7.05815e-21)
(0.00243907 0.00061788 -6.14787e-20)
(0.00241014 0.00067903 3.49358e-19)
(-0.00231818 0.000821947 -5.78688e-20)
(-0.00235284 0.000771267 -5.10051e-20)
(-0.00227933 0.000756659 -5.81986e-20)
(0.00271271 0.000795629 9.77395e-18)
(0.00354701 0.00123116 1.07371e-17)
(0.0025306 -0.00104039 2.76426e-18)
(0.00130309 -0.0487889 -9.77515e-19)
(-0.00693528 -0.0412551 1.13522e-18)
(0.000403507 -0.0548577 -2.68927e-18)
(0.00810836 -0.0481727 1.61274e-18)
(0.00128262 -0.0415381 1.87919e-18)
(-0.00280212 0.0142261 1.9791e-18)
(-0.00328917 0.0135279 -4.05221e-18)
(-0.00214799 0.0130009 -1.35377e-18)
(-0.0142623 -0.0104434 -3.40939e-19)
(-0.0103933 -0.0210479 -1.5923e-19)
(-0.00901019 -0.0180538 -2.30097e-19)
(0.0256963 -0.0385716 1.87546e-18)
(0.037427 -0.0443321 -7.55411e-20)
(0.0309172 -0.0497828 -1.76671e-18)
(-0.00152724 0.00383288 -2.76304e-19)
(-0.00159427 0.00374888 3.3954e-18)
(0.00560665 -0.00507049 -4.48279e-19)
(0.00488 -0.00451859 2.49783e-19)
(0.00595166 -0.00410059 -1.73926e-19)
(-0.00349028 0.00730586 2.78409e-18)
(-0.00364608 0.00738056 9.3862e-18)
(-0.00361155 0.00718763 6.11991e-18)
(-0.00361307 0.0098036 -5.91559e-18)
(-0.00377768 0.00953616 1.59139e-17)
(-0.00406315 0.00988869 -3.00641e-18)
(-0.00245075 -0.00016845 -3.53551e-18)
(-0.00191331 0.000537953 -2.7139e-18)
(-0.00167649 -0.000446261 -1.67838e-18)
(0.000258459 0.000127078 -1.36419e-19)
(0.000286329 0.000104285 3.88669e-19)
(0.000292117 0.000158036 3.37191e-19)
(0.00146867 5.08349e-05 -1.6735e-19)
(0.00144858 4.79153e-05 8.54013e-20)
(0.00144764 7.23795e-05 3.14014e-20)
(-0.00228184 0.000873249 4.71838e-20)
(-0.00236347 0.000891355 1.00613e-20)
(-0.000314309 -0.000192029 -3.91985e-19)
(-0.000298811 -0.000233205 -3.96131e-20)
(-0.000225045 -0.000164916 4.04072e-19)
(-0.00703394 -0.00296388 -6.3498e-18)
(-0.00857173 -0.0024779 -2.80388e-18)
(-0.00732457 -0.00415444 -1.25896e-17)
(0.00315117 0.00332306 -4.02734e-19)
(0.00332779 0.00325714 -2.25058e-20)
(-0.000308079 0.0016079 -6.92467e-19)
(-0.000298723 0.00154724 9.17231e-19)
(-0.000366718 0.00156192 -1.22976e-18)
(-0.00214973 0.00393619 2.53418e-18)
(-0.00301003 0.00342463 1.37385e-18)
(0.016844 0.0105438 5.51848e-18)
(0.0160998 0.0107884 1.49233e-17)
(0.0174474 0.0114479 4.1652e-18)
(0.000450056 0.00330125 2.77539e-19)
(0.000419759 0.00469443 3.13884e-19)
(0.00138463 0.00392281 -1.57066e-19)
(-0.00156712 0.0080169 3.83874e-18)
(-0.00136582 0.00787926 3.33687e-18)
(-0.00127507 0.00812429 -2.12199e-18)
(0.040118 -0.00510338 1.69238e-19)
(0.0381029 -0.00868359 3.71651e-19)
(0.0371886 -0.0036034 4.29894e-20)
(0.0054028 0.00076708 3.62805e-19)
(0.00525645 0.000613691 -7.90774e-20)
(0.00547998 0.000557167 7.61826e-20)
(0.0144365 0.00367979 5.05752e-18)
(0.0145664 0.00365822 -4.94252e-18)
(-0.0157774 0.0100067 2.70239e-19)
(-0.0153256 -0.000565113 -1.88836e-19)
(-0.00259328 0.005314 -4.14888e-18)
(-0.00250318 0.00535302 -6.29782e-19)
(-0.00250959 0.00524595 -2.38253e-18)
(0.00449082 0.00260148 -9.84001e-20)
(0.0045267 0.00253214 -1.50727e-19)
(0.0172947 0.000113161 2.50157e-18)
(0.0171768 2.48341e-05 1.30726e-18)
(0.0167393 3.529e-05 -9.30522e-18)
(0.0154298 0.00303926 6.96031e-18)
(0.0156051 0.00302877 3.02776e-18)
(0.0153055 0.00333451 -1.36403e-18)
(-0.0266215 -0.0154874 -8.05524e-19)
(-0.0217167 -0.00444902 -2.65469e-18)
(0.000233787 0.00015979 -3.13336e-19)
(0.000212948 0.000103388 1.02915e-19)
(0.0015018 5.71641e-05 -7.88348e-20)
(0.00148769 7.6459e-05 7.77591e-20)
(0.00150426 7.00839e-05 -2.30236e-19)
(0.00157411 -0.000842618 8.08275e-20)
(0.00156096 -0.000870598 1.05559e-19)
(0.00154056 -0.000842908 1.049e-19)
(-0.00186063 0.00515561 3.02215e-18)
(-0.00205656 0.00517058 -1.13862e-18)
(0.0142931 0.000442991 2.47312e-19)
(0.014201 0.000780558 -7.20586e-18)
(0.0139732 0.000528687 -9.99243e-18)
(-0.00215033 0.00621008 -3.06587e-18)
(-0.00217702 0.00628334 -3.62197e-19)
(-0.00209793 0.00626777 2.12747e-20)
(0.0173915 2.12438e-05 6.00715e-18)
(0.0171174 -7.49531e-06 1.03389e-17)
(-0.000272257 0.00221167 -1.1692e-18)
(-0.00019424 0.00217936 -5.49718e-18)
(-0.000262745 0.00211704 2.74928e-19)
(-0.00109491 -0.0237009 2.07458e-18)
(-0.00398295 -0.0224053 5.15666e-19)
(-0.000169393 -0.0222487 8.83809e-19)
(0.000664098 0.000959494 -9.29682e-20)
(0.000693179 0.00100968 -3.07964e-19)
(0.00072253 0.00096141 -7.2023e-19)
(-0.00450089 0.0148198 -2.68018e-18)
(-0.00647913 0.0150751 -3.39533e-19)
(-0.00356228 0.014502 -4.48264e-19)
(0.000778192 0.00224347 3.72668e-20)
(-0.000638404 0.00264671 -7.12076e-19)
(-0.050423 0.001513 1.48126e-19)
(-0.0551398 -0.00487373 1.50728e-19)
(0.00387915 -0.00363475 3.11134e-19)
(0.00403661 -0.00432068 -2.25946e-19)
(0.00457124 -0.00381214 -6.93355e-21)
(-0.0382754 0.0667562 1.72339e-20)
(-0.0443174 0.0631986 -1.85328e-19)
(-0.0460702 0.0651899 1.86397e-18)
(-0.00104089 0.00441298 -9.69997e-19)
(-0.000947677 0.00448997 1.22194e-18)
(-0.0010766 0.00454094 -3.39779e-19)
(-0.00237332 -0.00382078 -8.15447e-20)
(-0.00220339 -0.00356744 -9.33339e-20)
(-0.00259424 -0.00359283 8.53886e-20)
(-0.00684627 0.00557279 -5.17369e-18)
(-0.00669231 0.00527301 -3.37681e-18)
(0.00366626 -0.00266834 2.82785e-19)
(0.00403354 -0.00282917 7.41305e-20)
(0.00360432 -0.00298736 1.31742e-19)
(-0.0176975 0.0194069 2.73217e-18)
(-0.00144952 0.00486996 -2.3205e-18)
(-0.00141933 0.00495911 5.14434e-19)
(-0.00152917 0.00493189 -1.24886e-19)
(-0.00104013 0.00430805 -1.45297e-18)
(-0.00116963 0.00434391 3.19125e-19)
(8.06968e-05 -9.26067e-05 2.49329e-19)
(0.000126341 -9.50701e-05 1.35014e-21)
(3.45022e-05 -0.000136306 2.86494e-19)
(-0.00140997 0.00765025 4.01407e-18)
(-0.00164566 0.00757277 9.60297e-19)
(0.0124877 0.00777195 -3.13193e-19)
(0.0130928 0.00784408 9.57353e-19)
(0.0128499 0.00768811 1.14645e-18)
(0.00666442 -0.00578147 -2.28792e-19)
(0.00512669 -0.00594649 -1.93347e-19)
(0.000134699 -4.45968e-05 -2.52845e-19)
(3.35025e-05 -8.15073e-05 -1.13942e-19)
(-0.0244864 0.0267516 1.10699e-18)
(-0.0210507 0.0284547 -1.21987e-17)
(-0.0225347 0.0313322 3.53483e-18)
(-0.00264521 0.00644367 -3.06433e-18)
(-0.00278531 0.00641183 5.02661e-18)
(-0.0026735 0.00630352 2.88381e-18)
(0.0032816 0.00157771 1.66623e-20)
(0.00332384 0.00166067 1.16304e-19)
(0.00339136 0.00157907 -1.1349e-19)
(-0.00222645 0.00293546 3.62613e-19)
(-0.00230658 0.00297998 3.61481e-19)
(-0.00108784 6.12342e-05 -2.95166e-21)
(-0.00128288 9.48781e-05 -1.70924e-20)
(-0.00108665 6.60396e-05 4.76973e-21)
(0.00286239 -0.00279629 3.9155e-19)
(0.00266826 -0.00208753 2.14252e-19)
(0.00321221 -0.0022145 5.81837e-19)
(-0.0030188 0.00659277 4.06026e-18)
(-0.00290144 0.00661272 -2.11384e-18)
(-0.0029907 0.0067283 8.06395e-19)
(-0.00181256 0.000774417 1.20693e-19)
(-0.00186136 0.00073614 1.64318e-19)
(-0.00179174 0.000703417 1.03726e-19)
(0.0158049 0.00248589 -9.779e-18)
(0.0158326 0.00222169 -4.12157e-18)
(0.00638689 -0.00863061 -3.62691e-19)
(0.0067797 -0.00710382 3.36041e-19)
(0.000614801 -5.83618e-05 7.83993e-20)
(0.000543349 -2.68848e-05 -3.22523e-20)
(0.000580999 -5.53593e-05 3.35543e-20)
(-0.00262201 -0.00414486 9.27341e-20)
(-0.00214498 -0.00404822 -1.76908e-20)
(0.00339749 -0.00254748 -1.11417e-19)
(0.003716 -0.00244319 -6.33275e-21)
(0.000619914 -1.19742e-05 -3.51466e-19)
(0.00060694 -1.61849e-05 6.28312e-20)
(0.00063851 -8.79261e-05 1.41405e-19)
(0.000655937 -5.2969e-05 -3.14896e-19)
(0.0525928 -0.0635923 -1.23568e-18)
(0.0470078 -0.0729439 1.75271e-18)
(0.0118087 0.0076403 -1.89284e-18)
(0.0120111 0.00785383 6.78283e-18)
(-0.00201109 0.000402641 8.22568e-20)
(-0.0020481 0.000422785 3.03816e-19)
(-0.00200766 0.000448601 -1.91758e-19)
(0.0014897 -3.14421e-05 -1.01585e-21)
(0.00147681 -3.13609e-05 3.37983e-20)
(0.00126499 -2.00833e-05 -1.52445e-20)
(0.00150971 3.33974e-05 2.2115e-19)
(0.0015226 8.46212e-06 -3.35121e-19)
(0.00149361 1.27238e-05 5.96845e-20)
(0.00240705 0.00178737 -7.39595e-18)
(0.00164874 -0.000489853 -6.74321e-18)
(-0.0021487 0.00302758 -5.00893e-18)
(-0.00212225 0.00290786 -3.89178e-18)
(0.00575467 0.00828196 4.4138e-19)
(0.00666437 0.00804892 -2.07619e-18)
(0.0421619 -0.0812468 9.19621e-20)
(0.0150884 -0.0331015 1.06797e-18)
(0.0215706 -0.0283981 8.74525e-19)
(-0.00876483 -0.00670749 3.41648e-20)
(-0.00903036 -0.00504001 -1.8353e-19)
(-0.0105803 -0.00670745 -2.39042e-19)
(0.00854833 -0.0289631 1.55038e-18)
(0.00984964 -0.0358951 -2.09803e-18)
(-0.00234663 0.00630827 -5.00087e-19)
(-0.00240802 0.00633049 -2.2322e-18)
(-0.00233887 0.00638395 3.04663e-18)
(0.00414495 0.000464843 -5.7074e-20)
(0.00426006 0.000375194 -1.09977e-19)
(0.000908565 0.00860883 -1.32002e-18)
(0.000614561 0.0084866 2.1469e-18)
(0.000608438 0.00905343 -4.69135e-18)
(0.00233741 0.000583034 6.11581e-20)
(0.00230584 0.000635739 -1.7028e-19)
(0.00151357 -0.000230377 8.05714e-20)
(0.00153732 -0.000236986 1.32834e-20)
(0.00152942 -0.00021781 1.4053e-22)
(0.0173888 1.75632e-05 1.29235e-18)
(0.0173532 7.38255e-05 1.19948e-17)
(0.00060811 0.000948183 -3.61882e-19)
(0.000642996 0.000900914 -2.77221e-19)
(0.0634128 -0.0697008 -1.26788e-18)
(0.00149577 -9.00949e-05 -2.7746e-20)
(0.00148051 -9.04823e-05 -5.14495e-20)
(0.00148859 -7.47939e-05 -8.35217e-20)
(-0.00197501 0.000380107 1.21837e-19)
(-0.0020187 0.000354119 -9.41116e-20)
(0.0152252 0.00309538 3.60262e-18)
(0.0150287 0.00316123 -5.22852e-18)
(0.0149263 0.00340826 -1.18891e-17)
(0.0417279 0.0193517 -2.45303e-18)
(0.0365802 0.0242518 1.72002e-18)
(0.0405844 0.0179434 -5.95399e-18)
(-0.0496705 -0.0764225 -9.53163e-18)
(-0.0678912 -0.0901715 -9.83136e-18)
(-0.0511555 -0.100017 -1.89297e-17)
(-0.0252658 0.0224808 -2.54923e-18)
(-0.0240348 0.0261453 -3.80757e-18)
(0.00148358 5.46427e-05 -1.77517e-19)
(0.00147043 4.38867e-05 -1.86977e-19)
(0.00195744 -0.00097749 4.12749e-20)
(0.00197842 -0.00100338 7.33638e-20)
(0.00195193 -0.00100043 3.18793e-20)
(-0.0035583 0.0010397 -1.04863e-19)
(-0.00359083 0.000920843 -4.43692e-20)
(-0.00369989 0.00105575 -2.92385e-20)
(0.00097408 0.0038309 -9.63436e-20)
(0.000920212 0.00396238 2.01965e-18)
(0.00085188 0.00380772 -1.23972e-18)
(-0.0123385 -0.0267769 5.69642e-19)
(-0.0124619 -0.0293184 4.07147e-19)
(0.00250899 0.0199282 1.93957e-18)
(0.00480709 0.0166268 9.65107e-20)
(0.00270398 0.0179229 -8.60726e-19)
(0.000546164 0.00852349 1.28206e-18)
(0.00126986 0.00809088 -2.98476e-18)
(-0.000455466 0.0011739 -4.36001e-19)
(-0.000414539 0.00122573 1.21433e-19)
(0.0145347 -0.0513773 -3.78801e-19)
(0.014849 -0.0430838 -1.83089e-18)
(-0.00480473 0.00615584 -1.27621e-18)
(-0.00481819 0.0062265 -7.30296e-18)
(0.00154869 -4.23428e-06 1.43818e-20)
(0.00156973 -3.5368e-06 -7.98093e-20)
(0.00154429 2.02429e-05 -2.52717e-20)
(-0.0134412 0.0570563 3.91792e-18)
(-0.0123421 0.0541118 -3.57296e-18)
(-0.000321623 -0.000159406 -2.9038e-19)
(-0.000392848 -0.000222402 -1.81357e-19)
(-0.000370713 0.00337995 3.45583e-19)
(-0.000461006 0.00340058 7.61613e-19)
(-0.000433973 0.00327682 1.31387e-18)
(0.00111507 0.00386342 -6.64685e-19)
(0.00103982 0.00370848 -1.16688e-19)
(0.00209478 -0.000302103 1.32096e-19)
(0.00205743 -0.000308136 -1.22177e-19)
(0.00208345 -0.000332411 1.95611e-20)
(0.00266302 0.00327391 6.36756e-20)
(0.00256017 0.00318964 4.96703e-19)
(0.00253039 0.00331566 4.01765e-19)
(-0.00313789 0.010278 -1.21549e-17)
(-0.00326617 0.00987212 6.27903e-18)
(-0.00338714 0.00715232 1.1197e-17)
(-0.00331808 0.00733753 3.60122e-18)
(-0.00157133 0.0019612 -1.09285e-20)
(-0.00154084 0.0018397 -1.75623e-19)
(-0.00143889 0.00190742 1.30517e-20)
(-0.00215319 0.00444297 -3.10978e-18)
(-0.00212522 0.0045245 3.52234e-18)
(-0.00222269 0.00449864 3.72404e-18)
(-0.00595123 -0.00342711 3.06354e-18)
(-0.00636369 -0.0020304 1.54413e-18)
(0.00149136 -0.000223171 -4.52551e-20)
(0.00149884 -0.000243172 4.33978e-20)
(0.00436746 0.00507114 3.91767e-19)
(0.00406118 0.00525309 1.53789e-18)
(0.00407971 0.0049037 -1.15023e-18)
(-0.00297915 0.000824401 1.74436e-19)
(-0.00307717 0.000819819 1.03171e-19)
(-0.00300882 0.000749244 4.08718e-20)
(0.000605094 0.0233182 -5.75225e-19)
(0.00248276 0.0216481 -1.6041e-18)
(-0.00268896 0.0053735 1.79629e-18)
(-0.00267837 0.00525438 2.22837e-18)
(0.00405205 0.000524257 4.33921e-20)
(0.00405496 0.000399319 -3.86292e-20)
(0.013957 0.00791787 4.76996e-18)
(0.0122001 0.00796013 5.7696e-18)
(0.0140938 0.00805926 2.73247e-18)
(0.0141525 4.63873e-05 1.36307e-17)
(0.0145902 0.000410367 -2.00717e-18)
(0.000435366 -0.000604414 8.87724e-20)
(0.00048454 -0.000618606 -9.32688e-21)
(0.000438897 -0.00065546 -2.04937e-19)
(0.00213401 -0.000295309 1.6646e-19)
(0.00210242 -0.000272718 4.11535e-20)
(-0.0295952 -0.0605994 -3.6763e-18)
(-0.0498023 -0.0549445 5.82322e-18)
(0.00146861 -0.000215383 -1.40168e-19)
(0.00148334 -0.000203533 -4.39172e-20)
(0.0512646 -0.0474991 5.77012e-18)
(0.0432003 -0.0332276 -2.0214e-18)
(-0.00224421 0.00629197 1.72795e-18)
(-0.00231041 0.00621961 1.94562e-18)
(0.00207925 -0.000961505 1.98348e-20)
(0.0020997 -0.000954802 1.31562e-19)
(0.00211912 -0.000986143 -2.23388e-19)
(0.00274328 0.00878851 -5.76366e-18)
(0.00133517 0.00913576 1.11125e-17)
(-0.00184357 0.000906331 1.20483e-20)
(-0.00178624 0.000944191 -5.17497e-20)
(-0.00186499 0.00098623 3.43811e-20)
(-0.000213524 0.00507342 -2.16661e-18)
(-8.83348e-05 0.00500882 -2.45571e-18)
(-7.87509e-05 0.00515679 1.30117e-18)
(0.0153982 0.00274867 1.34944e-17)
(0.000532648 0.000879539 1.29826e-18)
(0.000517882 0.000832517 -5.24514e-19)
(0.000567769 0.000845115 5.66558e-19)
(-0.00169801 0.00452275 -6.75682e-19)
(-0.00146509 0.00487241 1.58854e-18)
(-0.00127768 0.00038217 -8.09712e-21)
(-0.00127599 0.00032188 1.36983e-20)
(-0.00121884 0.000363593 1.46408e-20)
(-0.00106162 -6.47362e-05 1.12988e-19)
(-0.00118297 -8.77526e-05 7.76467e-21)
(-0.00126721 -0.000139566 -1.08106e-19)
(0.00552492 0.000921181 3.91981e-19)
(0.0052794 0.000943117 5.34676e-20)
(0.00150629 4.30853e-05 2.24769e-19)
(0.00149563 5.11467e-05 5.79793e-19)
(-0.000843175 0.00736855 -8.36649e-18)
(-0.000691814 0.0071474 1.14094e-18)
(-0.000496626 0.00740835 -5.84459e-18)
(0.00244137 0.0237208 -2.11137e-19)
(0.00145142 0.0259992 -1.26662e-19)
(-7.23627e-05 0.0233357 -9.01764e-19)
(-0.0175892 -0.000225483 -7.0729e-19)
(-0.00305431 -0.00104306 3.36161e-18)
(-0.00343679 0.000139829 5.38678e-18)
(-0.00280937 -0.00441672 6.41122e-20)
(-0.0025207 -0.00470363 -2.41354e-19)
(-0.00304802 -0.00478017 -1.93442e-19)
(-0.00219227 0.00554303 -3.81546e-18)
(-0.00226264 0.00548994 -5.49384e-18)
(-0.00217061 0.00544548 -3.51289e-18)
(0.0177338 0.0100914 -7.39542e-18)
(0.0162753 0.00962476 -5.83874e-18)
(-0.000190775 0.00329085 6.43325e-19)
(-0.000252257 0.00335793 -1.52023e-18)
(-0.000267786 0.00325007 -5.52911e-19)
(0.00193759 -0.000965583 -1.47218e-19)
(0.00195425 -0.000958897 -3.20395e-20)
(0.0239629 -0.0161985 -2.60056e-19)
(0.0300042 -0.0278687 1.45586e-19)
(0.030858 -0.0124657 1.98073e-20)
(0.00205467 -0.000975607 4.03525e-20)
(0.00204093 -0.000941441 5.76253e-20)
(0.00158708 -0.00081523 -7.81233e-20)
(0.00160818 -0.000842759 2.15347e-20)
(-0.00799059 -0.00849342 5.91585e-19)
(-0.00712163 -0.0064758 5.28627e-19)
(0.00447542 0.0117361 -2.17037e-18)
(0.0073049 0.0105426 -2.0349e-18)
(0.0057932 0.0101818 -2.25748e-18)
(0.00101796 -1.36596e-05 -1.43592e-19)
(0.00138635 -2.04664e-05 8.29893e-20)
(0.000950363 -1.91693e-05 -4.65985e-19)
(0.0013388 0.000860886 1.91869e-19)
(0.00134451 0.0008139 -3.03278e-19)
(0.00139073 0.000853583 1.19623e-19)
(-0.0032262 0.0176448 1.97828e-18)
(-0.00188754 0.0171346 -5.51296e-19)
(-0.00291072 0.0162494 3.98364e-19)
(0.000496388 0.000916551 3.4382e-19)
(0.00055158 0.000929826 2.436e-19)
(0.0318519 -0.0348518 -6.89558e-19)
(0.0417637 -0.0351503 1.66678e-18)
(0.0347948 -0.0425418 -3.34205e-18)
(-0.000431987 0.00465883 1.99894e-18)
(-0.000389529 0.00453935 -2.39628e-19)
(-0.000541861 0.00454523 -9.36286e-20)
(0.0160238 0.00063676 7.52673e-18)
(0.0162438 0.000500126 -3.60717e-18)
(0.0160976 0.00059599 4.65951e-18)
(-0.00161125 0.00131526 -5.20687e-20)
(-0.00161008 0.00140236 -1.95131e-20)
(-0.001702 0.00136159 -5.10382e-20)
(0.0136796 0.00208291 -7.1998e-18)
(0.0139664 0.00186068 -6.46527e-19)
(0.0137602 0.00199666 3.65637e-18)
(0.0031689 0.00155437 1.48467e-19)
(0.00323847 0.00148219 7.04859e-20)
(-0.00587454 0.00894026 8.27732e-19)
(0.0101659 -0.0150283 1.59586e-18)
(0.00441422 -0.00887344 1.20257e-18)
(-0.00157683 0.000910071 -4.58335e-20)
(-0.00164255 0.000868871 2.73273e-20)
(-0.00156649 0.000835204 -1.6579e-20)
(-0.00331066 0.000993252 1.40375e-20)
(-0.00326873 0.00108208 -1.5509e-21)
(-0.00320757 0.000976403 2.41207e-20)
(0.00551998 -0.0122501 4.71339e-19)
(0.00691945 -0.0267205 2.47517e-18)
(0.0017809 -0.0360831 1.61102e-19)
(0.0010291 0.000330013 1.1764e-18)
(0.00123964 0.00131765 -2.83374e-19)
(0.00223016 0.000589511 -2.84959e-19)
(-0.00234872 0.0144322 -8.16822e-18)
(-0.00172798 0.0149531 6.1722e-18)
(0.000302555 0.000410633 1.65878e-18)
(0.000288076 0.000366905 -3.16756e-19)
(0.000332532 0.000380524 1.22959e-18)
(0.0159276 0.000675313 -2.59167e-18)
(0.015773 0.000783455 -1.93888e-18)
(-0.000351444 0.00474808 -3.47822e-18)
(-0.000485471 0.00474498 4.44906e-18)
(-0.000285396 0.00228947 1.0952e-18)
(-0.000354442 0.00222212 2.95746e-19)
(0.0105599 0.00532211 5.64485e-18)
(0.0109451 0.00539376 8.42036e-18)
(0.0110231 0.00505969 -6.74644e-18)
(-0.0018731 0.00946894 -7.1463e-20)
(-0.00148192 0.00960105 3.5971e-18)
(-0.00174277 0.00988596 3.62239e-18)
(0.0150885 0.00110216 9.80729e-18)
(0.0152326 0.000995646 1.02093e-18)
(0.0153063 0.000965544 -4.68211e-18)
(-0.00121268 -6.13035e-05 -2.36763e-19)
(-0.00125615 -5.13187e-05 -2.99052e-19)
(-0.000852912 -2.71823e-05 -1.88059e-19)
(-0.00160716 0.00518972 1.23514e-18)
(-0.00170454 0.00525422 -2.1748e-18)
(-0.00159759 0.00530254 2.94287e-18)
(-0.00108192 4.99746e-05 -4.66036e-20)
(-0.000804336 3.33592e-05 -9.53682e-20)
(-0.00455576 0.00319263 1.70473e-18)
(-0.00370689 0.00368514 -6.08595e-18)
(-0.00387109 0.00284502 -6.93756e-18)
(-0.00151817 0.000950571 -7.97097e-20)
(-0.00159601 0.000991604 3.9261e-20)
(-0.00208344 0.0067836 3.47971e-20)
(-0.00195276 0.00667799 4.94482e-19)
(0.00614088 -0.0211187 -6.3653e-19)
(0.0104213 -0.0204638 -4.28098e-20)
(0.00977972 -0.0258686 -3.3741e-19)
(0.000432911 -0.000555247 4.41579e-20)
(0.000384617 -0.000589592 2.35748e-20)
(-0.00304533 -0.0040901 -2.49975e-19)
(-0.00377032 0.00673889 5.12763e-18)
(-0.00367374 0.00685324 3.34455e-19)
(-0.00364822 0.00671259 -6.10336e-18)
(0.00799865 0.000689922 -7.69342e-20)
(0.00758447 0.00134161 9.99072e-20)
(0.00711087 0.000805647 -1.03596e-19)
(0.0240605 -0.0351788 -2.24535e-18)
(0.0293044 -0.0273367 -1.15904e-17)
(0.0266931 -0.00477341 -3.59089e-19)
(0.0329281 -0.000460773 -5.27176e-19)
(-0.00342829 0.00101734 -1.60079e-19)
(-0.00349429 0.00115026 -2.21272e-19)
(0.00129559 0.000871821 -6.29831e-19)
(0.00134897 0.000910662 4.59487e-20)
(0.00220739 -0.00560254 -6.35737e-20)
(0.000817182 -0.00640678 -2.12927e-19)
(-0.00167761 -0.0142441 6.2386e-19)
(-0.000566666 -0.0147483 8.05351e-20)
(-0.00251794 -0.0129739 -1.63338e-18)
(-0.00139918 0.00359932 -1.45517e-19)
(-0.0015456 0.00324963 -4.03796e-24)
(-0.00178336 0.00364249 -4.17001e-20)
(-0.00469974 0.0178515 1.6104e-18)
(-0.00353675 0.0192678 1.33512e-19)
(-0.00142248 0.00014268 5.56334e-21)
(-0.00144746 0.000129702 -1.25928e-20)
(0.0153043 0.000966411 -6.53835e-18)
(0.0155274 0.000841547 -5.53555e-18)
(0.0153944 0.000906321 -7.86931e-19)
(-0.00254479 0.00644688 -1.60631e-18)
(-0.00261092 0.00655848 -6.46238e-18)
(-0.0187789 0.0536792 -1.08785e-18)
(-0.0247292 0.071341 4.1165e-18)
(-0.0361372 0.0748142 -1.94325e-18)
(0.00123564 0.00389424 3.29967e-19)
(0.00137667 0.0039101 -1.03512e-18)
(0.00129775 0.00376283 -5.5605e-19)
(0.00105034 0.00535715 -6.93558e-19)
(0.00103272 0.00514686 3.25395e-18)
(0.00121635 0.00526313 2.91501e-18)
(0.00207414 -0.000889155 2.22239e-19)
(0.00198111 -0.000979795 -2.86588e-20)
(0.00208675 -0.00103552 9.94884e-20)
(-0.00207403 -0.0133717 1.66274e-19)
(0.00216384 -0.0158337 4.99393e-20)
(0.000780881 0.00245107 1.01017e-18)
(0.000791998 0.00253465 9.81475e-20)
(0.000864538 0.00247818 1.09729e-19)
(0.00116616 0.00401273 3.10564e-19)
(-0.00350264 0.00618393 6.33249e-19)
(-0.00363536 0.00621653 1.16567e-18)
(-0.00350896 0.00630694 4.5493e-18)
(0.0174919 0.0239024 -1.13304e-18)
(0.014487 0.0286112 -3.8582e-19)
(0.0122966 0.0235182 1.5896e-18)
(0.00495845 0.0238816 -6.7124e-19)
(0.00372451 0.0215855 -1.47361e-18)
(0.0150404 0.00286861 5.58362e-18)
(0.01486 0.00317483 -3.85456e-18)
(0.00623849 0.00162273 -3.8397e-18)
(0.00605621 0.00085441 2.54598e-18)
(0.0033006 0.000454179 -5.78404e-18)
(-2.88303e-05 0.000658095 -1.09027e-18)
(-2.37778e-05 0.000607057 -1.83443e-19)
(1.66407e-05 0.000638324 -2.21044e-19)
(-0.00334652 0.000902394 1.44339e-19)
(0.00443253 0.00259556 3.38069e-20)
(0.00444462 0.00256637 -5.93828e-21)
(0.00438837 0.00257157 -7.72995e-20)
(-0.0142646 -0.034648 -2.81989e-18)
(-0.00865851 -0.0306132 1.3219e-18)
(-0.00937174 -0.0387808 1.84313e-18)
(-0.00488958 -0.00162726 2.31402e-19)
(-0.00487013 -0.00128172 1.74101e-19)
(-0.00522509 -0.00141737 1.73433e-19)
(0.00374223 0.00879214 2.09365e-18)
(0.00349538 0.00867183 -2.41165e-18)
(0.00496089 0.00864026 -2.49359e-18)
(-0.000142931 0.00338892 1.86865e-18)
(-0.000101464 0.00326582 1.68296e-18)
(0.000702504 0.00243179 -7.57693e-21)
(0.000763512 0.00236857 -1.42023e-18)
(-0.00150009 0.00477571 -5.67936e-18)
(-0.00139067 0.00480567 -4.74419e-19)
(0.0100058 0.00565445 -8.39898e-19)
(0.0102011 0.00535805 2.67288e-18)
(-0.0120383 -0.0202862 2.21607e-20)
(-0.0127077 -0.0166852 -4.47519e-19)
(-0.00865481 -0.0208566 4.2873e-19)
(0.00214424 -0.000702413 -1.07797e-19)
(0.00217767 -0.000824937 -2.82835e-19)
(-0.000301837 0.00348749 -2.20353e-19)
(0.000878729 -0.0176604 -9.71939e-19)
(0.00388865 -0.0148724 -1.60564e-19)
(0.00383434 -0.0198179 5.82871e-19)
(-0.0021216 0.00614778 -4.69789e-18)
(-0.00219929 0.00613945 -2.62182e-18)
(0.00157216 0.00784857 8.55954e-20)
(0.00147014 0.0074769 -1.04796e-18)
(0.00155983 -0.000242719 -2.18386e-20)
(0.00154494 -0.000256306 1.68488e-20)
(-0.00054471 -0.022704 4.04012e-19)
(0.00130337 -0.023475 -6.89837e-19)
(-0.0148008 0.0248991 -1.49219e-19)
(-0.0150093 0.0201768 -6.15731e-20)
(-0.0202129 0.012634 8.93486e-20)
(0.0156582 0.00110294 -1.00972e-17)
(0.0157086 0.000978614 -2.04151e-19)
(0.015758 0.00101861 1.08765e-17)
(0.00857909 -0.0554354 6.5809e-19)
(0.0126098 -0.045822 -1.86831e-18)
(-0.00118804 0.00390246 4.40663e-20)
(-0.00109666 0.00351086 1.39054e-19)
(-0.00145106 0.00121275 1.64759e-20)
(-0.00153073 0.00126677 4.1776e-20)
(-0.0014328 0.00129518 4.4256e-20)
(-0.0010704 7.61994e-05 -1.63156e-19)
(-0.00106857 8.00671e-05 -3.75709e-20)
(-0.00123873 0.000107728 -5.6659e-20)
(-0.00362532 0.00607299 4.9377e-18)
(-0.00341618 0.00603954 -2.36078e-18)
(-0.0148351 -0.0395864 -8.69252e-19)
(-0.0199123 -0.0298474 -4.6617e-19)
(0.0619854 -0.0399742 5.49688e-20)
(0.0613694 -0.016474 -1.50901e-18)
(0.0621741 -0.0219711 6.84345e-20)
(0.00147469 -0.000722965 -8.34056e-20)
(0.00148557 -0.000755458 -2.31455e-19)
(0.00151188 -0.000726894 5.88068e-20)
(-8.38396e-05 0.000280281 3.07898e-19)
(-5.14335e-05 0.000298558 5.47304e-19)
(-8.67769e-05 0.000312615 3.08911e-19)
(-0.00425667 -0.0202645 -2.12724e-18)
(-0.00132093 -0.0152606 8.82402e-19)
(-0.012514 -0.0193496 -3.69115e-19)
(-0.00927225 -0.0176089 -2.59542e-18)
(-0.0153435 -0.0166865 -2.50445e-18)
(-0.000112761 0.00839016 3.55436e-19)
(-0.000424384 0.00881849 -4.79593e-19)
(0.00304154 0.0032517 3.0771e-19)
(0.00301735 0.00338119 6.82244e-19)
(-0.000327125 0.00166812 -1.66043e-18)
(-0.000257804 0.00165081 6.70151e-19)
(-0.00248729 0.0055584 1.56956e-19)
(-0.0024075 0.00559997 -5.9719e-19)
(-0.00248109 0.00566283 -1.54835e-18)
(-0.00877108 -0.020605 2.22302e-19)
(-0.0136964 -0.0171357 -3.70325e-20)
(0.00238957 0.00888754 -2.16949e-18)
(0.00421009 0.00880359 1.89949e-18)
(0.00358841 0.00530515 -1.78653e-18)
(0.00351013 0.00516486 9.39974e-19)
(0.00335846 0.00533931 1.35344e-18)
(-0.0451859 0.010403 -4.11183e-19)
(-0.0536931 0.008648 -1.6767e-19)
(0.00159024 -0.000271002 -7.94138e-20)
(0.00160389 -0.00025928 -6.34371e-20)
(0.00158052 -0.0002505 -2.98718e-20)
(0.0152044 0.00102657 -4.65797e-18)
(0.0150717 0.00109517 -4.7888e-19)
(-0.00209968 0.0043913 -3.21254e-18)
(-0.00219194 0.00435883 -2.65683e-18)
(0.000105758 0.00458863 6.69575e-19)
(0.000131935 0.00472107 -1.6609e-18)
(0.0154997 0.00108726 9.86443e-18)
(0.0155998 0.000962652 -2.08482e-18)
(0.0155118 0.000979884 5.98423e-18)
(0.00226832 0.00158252 -1.87243e-19)
(0.00235351 0.00157192 1.62896e-19)
(0.00231849 0.00164363 4.85458e-19)
(0.00338714 -0.0032657 1.56504e-19)
(0.00257919 -0.00346164 8.62444e-19)
(0.0130835 0.00272798 -1.79514e-17)
(0.0129107 0.00290055 5.54985e-18)
(0.012663 0.00305919 -1.5081e-17)
(0.00144002 -0.000721679 -1.76552e-20)
(0.00146629 -0.000691352 1.08917e-19)
(-0.00317312 0.005758 -1.14622e-17)
(-0.00326623 0.00581921 2.03121e-18)
(-0.00315096 0.00587538 -2.17442e-18)
(-0.00130806 0.00501968 2.71326e-18)
(-0.00141278 0.00508208 3.83192e-18)
(0.00292841 0.00317296 -2.53644e-19)
(0.00306007 0.00312307 5.51236e-20)
(0.0452689 0.0155967 -1.89261e-18)
(0.0420764 0.0194504 -1.37396e-18)
(0.00380949 0.00534988 -7.02118e-19)
(0.00361198 0.00553025 -4.48087e-19)
(0.00106732 0.00235828 -7.17681e-19)
(0.000995841 0.00237297 -1.28596e-18)