/*--------------------------------*- C++ -*----------------------------------*\
| =========                 |                                                 |
| \\      /  F ield         | OpenFOAM: The Open Source CFD Toolbox           |
|  \\    /   O peration     | Version:  v2012                                 |
|   \\  /    A nd           | Website:  www.openfoam.com                      |
|    \\/     M anipulation  |                                                 |
\*---------------------------------------------------------------------------*/
FoamFile
{
    version     2.0;
    format      ascii;
    class       volScalarField;
    location    "150";
    object      k;
}
// * * * * * * * * * * * * * * * * * * * * * * * * * * * * * * * * * * * * * //

dimensions      [0 2 -2 0 0 0 0];


internalField   nonuniform List<scalar> 
13917
(
0.0180204
0.000180595
0.000262017
0.000152641
0.000168759
0.000179447
0.000165903
0.000214322
0.000162905
0.00221273
0.00021071
0.000149924
0.000164825
0.000323363
0.000163865
0.0151667
0.000173454
0.000200339
0.000223404
0.0147454
0.000173848
0.000148963
0.000188542
0.000148977
0.000156788
0.000175973
0.000324287
0.00151683
0.000184797
0.000148547
0.00126651
0.000202993
0.000152756
0.0287462
0.000149687
0.000230312
0.000158457
0.000155072
0.000165946
0.000179981
0.000190873
0.000159874
0.000159018
0.000222745
0.0002222
0.000239261
0.000172263
0.0196512
0.0136526
0.000149819
0.000149692
0.000218683
0.0100111
0.000149282
0.000149825
0.000218312
0.00034437
0.000188547
0.000158185
0.000238605
0.0165908
0.00047371
0.00015867
0.000156157
0.00237592
0.000167482
0.000188117
0.000230031
0.000204123
0.019175
0.00019191
0.0273988
0.000149425
0.000156273
0.000175063
0.000158125
0.000158969
0.000154479
0.000157489
0.000153125
0.000151999
0.000168013
0.000149275
0.00016457
0.000142118
0.000221517
0.000201272
0.000145296
0.000179191
0.000170865
0.000144432
0.000159424
0.0200285
0.000145623
0.000152176
0.000187485
0.000295873
0.00015473
0.000144634
0.000217074
0.000178645
0.000174327
0.000152246
0.000146034
0.000158808
0.00165836
0.022005
0.000447512
0.000170097
0.00022753
0.000144939
0.0288636
0.000184252
0.0240389
0.00173912
0.000159228
0.000220665
0.000151704
0.000250887
0.000148426
0.000164217
0.000150667
0.000191146
0.000212939
0.0234684
0.000236763
0.000155566
0.00017653
0.000143085
0.000213644
0.000175644
0.000236888
0.0304013
0.00015912
0.000209238
0.00050715
0.0139083
0.0275437
0.000178022
0.000155603
0.000633208
0.000152597
0.0014581
0.000143157
0.00014877
0.000165698
0.000207937
0.0033766
0.0171447
0.000149591
0.00017634
0.000170073
0.000148538
0.000148458
0.000270872
0.000152304
0.000145852
0.0366385
0.000179473
0.000160401
0.00014223
0.00769561
0.0001627
0.000426496
0.017721
0.000236736
0.00908609
0.0210465
0.000135428
0.000179762
0.000149868
0.0255112
0.000162767
0.0124321
0.000201578
0.000176572
0.000152641
0.000221832
0.000174517
0.000163716
0.000158733
0.00014924
0.000149681
0.000237088
0.000251133
0.000239877
0.000149492
0.000236743
0.00014849
0.000211735
0.000201711
0.000218431
0.000227055
0.017819
0.000145635
0.0234753
0.000163632
0.0255515
0.000149233
0.000151414
0.000169612
0.0186668
0.0237396
0.000157149
0.000329587
0.000175827
0.000177134
0.000152609
0.000221085
0.000151986
0.000140142
0.000183724
0.000187139
0.0167527
0.000207957
0.000177422
0.0150334
0.00014918
0.000141982
0.000141925
0.0236212
0.000231612
0.000240396
0.000143533
0.000159296
0.0051174
0.0202678
0.000140288
0.000139915
0.000189499
0.000142848
0.000142787
0.0259763
0.0168897
0.000150139
0.000137176
0.000204298
0.0272987
0.000179405
0.000143494
0.00032916
0.00248885
0.000234381
0.0168158
0.00021227
0.000143261
0.0182451
0.000205806
0.000182315
0.0002067
0.000156461
0.01676
0.000148634
0.000184332
0.000198553
0.000150666
0.000189959
0.000156091
0.000165668
0.00015038
0.0297761
0.00644837
0.000149172
0.00013945
0.000152966
0.000139514
0.000148643
0.000164955
0.000180528
0.000151266
0.0333049
0.0221462
0.000147609
0.000160875
0.000248688
0.000143385
0.000206684
0.0328782
0.000143428
0.0231624
0.000149129
0.00650699
0.000179093
0.00016097
0.000151046
0.000142741
0.000234124
0.000150183
0.000248149
0.00016814
0.0142741
0.000156958
0.000285274
0.027861
0.000159723
0.000192755
0.000167479
0.000159912
0.000167808
0.000157367
0.000146781
0.000148521
0.000221317
0.000183262
0.000183081
0.000156849
0.000143382
0.0329368
0.015989
0.000142557
0.000188962
0.000160009
2.04721e-05
0.000233516
0.0234776
0.0119091
0.0001679
0.000230024
0.000159691
0.000185818
0.00102868
0.000262721
0.000163975
0.000162936
0.000325738
0.000151136
0.00018379
0.000217875
0.000175954
0.0241627
0.000142419
0.000185016
0.000150103
0.00778361
0.000139094
0.000181038
0.000176613
0.000167116
0.000168646
0.000206961
0.000382132
0.000151749
0.00015116
0.0293745
0.000635943
0.00138583
0.000333925
0.00014251
0.000150016
0.00382124
0.000228999
0.000142581
0.000168819
0.000149449
0.000186291
0.000182052
0.000218743
0.000211054
0.000205353
0.000184794
0.0247479
0.000143387
0.000151776
0.000171964
0.000244689
0.000181317
0.0160637
0.000184476
0.00465104
0.000150101
0.000220922
0.000186858
0.0222938
0.000159224
0.000241164
0.00024935
0.00017911
0.000147958
0.000308891
0.000152227
0.0176475
0.00023047
0.000158289
0.0177752
0.000152532
0.00283792
0.000140902
0.0157227
0.0029459
0.000157212
0.0092829
0.000198419
0.000155283
0.0117418
0.000289638
0.000155992
0.000234624
0.000149503
0.000198056
0.000259895
0.000142594
0.000164676
0.000156781
0.000142556
0.000140204
0.000143798
0.0179578
0.000232975
0.000150877
0.000144639
0.000147746
0.000191617
0.000261463
0.000146384
0.00013548
0.000232512
0.000220159
0.000143067
0.00015679
0.00215994
0.0105809
0.000172698
0.000225954
0.000232443
0.00015145
0.000145289
0.000170519
0.000140119
0.000146423
0.000150498
0.000145372
0.000150606
0.0181109
0.000149858
0.000182864
0.0355429
0.000192429
0.00014028
0.000148304
0.0105988
0.000169738
0.0205077
0.000148645
0.00014399
0.000152348
0.00014382
0.000158057
0.000153263
0.00159367
0.000269893
0.00247096
0.000143967
0.000179109
0.000345192
0.000151625
0.00021121
0.000922995
0.000149228
0.0343382
0.000140517
0.000142554
0.000147212
0.000152561
0.000139776
0.000148798
0.033962
0.0146001
0.000139648
0.000289081
0.000230999
0.00014809
0.000195301
0.000206423
0.0166748
0.000166261
0.00109465
0.0040022
0.00403454
0.000153256
0.000167387
0.000500592
0.000155934
0.000274315
0.000147411
0.000148954
0.0001522
0.000163847
0.000173375
0.0002439
0.000194366
0.000169182
0.000162936
0.000196568
0.000191801
0.000150879
0.000523709
0.000180074
0.00016815
0.0167479
0.000142169
0.00019325
0.00022562
0.000139386
0.0445741
0.000143153
0.000143817
0.000192747
0.000148663
0.00014814
0.000220229
0.0434949
0.032183
0.000142156
0.000153621
0.000208235
0.000279322
0.000284903
0.000150308
0.000149597
0.000141923
0.000196079
0.00517776
0.000144053
0.000178292
0.000150807
0.000142305
0.000169376
0.000168878
0.000154016
0.000194835
0.0001394
0.000148155
0.000156315
0.0245821
0.000138113
0.000158391
0.000150514
0.000177708
0.000200839
0.000187606
0.000199872
0.000224261
0.000155408
0.00019285
0.0214121
0.0177648
0.0393655
0.000142128
0.000146693
0.000110193
0.000145823
0.00279052
0.000144446
0.014483
0.000163593
0.00857783
0.000211828
0.000159021
0.0123781
0.000139639
0.000200329
0.000154787
0.000151106
0.0120163
0.000147537
0.000265721
0.000166251
0.00015472
0.000147244
0.000242862
0.000172273
0.000138279
0.000223681
0.00019452
0.00610111
0.000210319
0.0324727
0.0171134
0.00013815
0.0203951
0.000151742
0.0144486
0.00300025
0.000153443
0.000178905
0.000176378
0.000179366
0.000157961
0.000147564
0.00015367
0.000162367
0.000286884
0.000142727
0.00019896
0.00014863
0.000138033
0.000177751
0.000234392
0.000372512
0.0130632
0.00020416
0.000168642
0.000293453
0.028594
0.000141374
0.000201051
0.000161028
0.000220632
0.000145809
0.000306786
0.000142079
0.000166375
0.00014899
0.00646807
0.00018088
0.00471254
0.000151368
0.000178982
0.000147859
0.000178412
0.0253628
0.000229304
0.000151113
0.00022186
0.000143389
0.000150326
0.000172039
0.0266997
0.000142751
0.000167568
0.00014441
0.000149647
0.000243972
0.00017064
0.000220022
0.000163968
0.000139207
0.0162346
0.000200077
0.000149947
0.012439
0.00026317
0.00024687
0.000226156
0.000139531
0.000165046
0.0237239
0.00028928
0.000169064
0.000158495
0.000166208
0.000161468
0.000143494
0.000170131
0.000203207
0.000161528
0.0170385
0.000181518
0.000309178
0.000286498
0.000176676
0.000179392
0.000226653
0.0246618
0.000146821
0.0001673
0.000173264
0.000139281
0.000151056
0.000178665
0.000208021
0.000149575
0.0206085
0.000178286
0.000142441
0.000214696
0.000149684
0.0233122
0.000149036
0.000143111
0.0456941
0.000198914
0.00536057
0.000149929
0.000162784
0.000143497
0.000152022
0.00016888
0.000142568
0.0235209
0.000171333
0.00351816
0.00504716
0.000166615
0.0323
0.000153671
0.000151007
0.000148753
0.0339205
0.0212387
0.000164425
0.0230774
0.0114194
0.00013917
0.000142832
0.000158097
0.000523236
0.00509851
0.000181203
0.000151837
0.000158389
0.00022207
0.000158125
0.000218799
0.000178568
0.000151853
0.000153239
0.000150236
0.000168697
0.000163065
0.000304266
0.000160762
0.000169804
0.0229874
0.000155743
0.0143055
0.000157717
0.00017344
0.000163381
0.000277046
0.000165735
0.000197873
0.000167433
0.000824841
0.000146149
0.000160818
0.000151029
0.000144386
0.000148779
0.00016668
0.000319664
0.000233628
0.000219905
0.000139413
0.000312384
0.000162795
0.000163944
0.000223384
0.000150432
0.000200443
0.000299895
0.000137533
0.00019893
0.000206704
0.000178161
0.000141474
0.000139922
0.000143416
0.0168165
0.000152521
0.000150021
0.000184533
0.000142874
0.000140777
0.000216765
0.000254118
0.000175647
0.0139602
0.000184884
0.00515085
0.000148775
0.000160121
0.000281486
0.000152459
0.00424371
0.00016931
0.000150096
0.000149802
0.000161764
0.00018816
0.000141456
0.00054145
0.000149703
0.00395093
0.000157823
0.000166144
0.000149666
0.00020688
0.000161775
0.00508667
0.000176796
0.000181274
0.0237463
0.000153631
0.0279545
0.000157274
0.000196029
0.000156709
0.000141705
0.000145825
0.0209815
0.000168482
0.000255799
0.0112696
0.000144223
0.000178563
0.000136775
0.000153156
0.00463702
0.000137768
0.017936
0.000158619
0.000198506
0.000219103
0.00317122
0.000140302
0.000148886
0.000213866
0.000139529
0.00014899
0.000155318
0.000146145
0.000184762
0.000140093
0.000200288
0.00015185
0.017471
0.0281087
0.00031416
0.00377108
0.0324032
0.0157454
0.000715737
0.000138828
0.000151328
0.000148064
0.000153558
0.000141995
0.000168765
0.000143419
0.000255595
0.00014931
0.000314768
0.000152107
0.000172832
0.000209313
0.00014301
0.000182363
0.000153613
0.000156736
0.00016417
0.000153166
0.0354359
0.000205421
0.000354634
0.000142602
0.000145277
0.000150334
0.00015037
0.0166797
0.000138946
0.000228529
0.000141876
0.00418054
0.000160104
0.000143274
0.000199208
0.000409392
0.000139026
0.00495976
0.000248142
0.000158058
0.000207079
0.000139638
0.000216626
0.000157222
0.000150252
0.0226328
0.000153882
0.000153017
0.000213937
0.0215021
0.000159848
0.0109223
0.000302187
0.000164076
0.000154777
0.000146722
0.000261186
0.000144924
0.000227181
0.000149248
0.0447158
0.000160949
0.000249368
0.000144593
0.000147124
0.00349936
0.000151667
0.000155479
0.0162718
0.000154927
0.000140086
0.00280867
0.000163
0.000153603
0.000202944
0.000155588
0.00300202
0.000180876
0.00020632
0.000224587
0.000158186
0.0410644
0.000152759
0.00020086
0.000144444
0.0339537
0.00414247
0.000150291
0.000156562
0.000152526
0.000150322
0.000156049
0.000147869
0.000148964
0.000145545
0.000169657
0.000137507
0.000154326
0.000205137
0.0184686
0.00701353
0.000210913
0.000150319
0.00359469
0.000142824
0.000280252
0.00541652
0.00898008
0.000144135
0.000138888
0.000146203
0.00014833
0.000143649
0.000151817
0.00014347
0.000180653
0.000140162
0.0113626
0.0030269
0.000140438
0.0176738
0.000144583
0.000143845
0.000384804
0.026669
0.000194334
0.000171188
0.00574021
0.000146832
0.000144269
0.000307596
0.000151219
0.000532309
0.000153425
0.000217883
0.000140292
0.00015094
0.000170122
0.000244935
0.000155084
0.0305424
0.000146097
0.000150869
0.000155593
0.000145405
0.00013978
0.00021553
0.000177086
0.000161065
0.0359495
0.0126485
0.000418908
0.000218202
0.000148935
0.037885
0.000150512
0.00770483
0.000197586
0.000164837
0.000154387
0.000393753
0.0391238
0.000171132
0.000181581
0.00591127
0.000155071
0.000143478
0.00017854
0.000151516
0.000149041
0.000250194
0.0219262
0.000151107
0.000166548
0.0275532
0.000165077
0.000142241
0.0135973
0.0205882
0.00015306
0.000153358
0.000165022
0.000148091
0.000143964
0.000168073
0.00016133
0.000147755
0.00271202
0.000179691
0.00302627
0.00487876
0.000190173
0.0333881
0.000150122
0.000151831
0.000304687
0.0209076
0.00197813
0.000184002
0.000171503
0.000151138
0.000153559
0.000161259
0.00523546
0.000208321
0.000151984
0.000193387
0.000142748
0.000707778
0.000205647
0.000227159
0.000197289
0.000248469
0.00527156
0.000225696
0.0309396
0.000155359
0.000249536
0.000142719
0.000195106
0.000204806
0.00549851
0.000160685
0.000152097
0.000162522
0.000282364
0.000155251
0.0147626
0.000177798
0.000208264
0.00896832
0.000150117
0.000220046
0.000156605
0.000148724
0.000190194
0.0024185
0.000149578
0.000139213
0.00015451
0.000273902
0.000140064
0.000154957
0.000157922
0.00015275
0.000148143
0.000209496
0.000203262
0.000151937
0.000142368
0.000197099
0.000192877
0.000176043
0.039477
0.000150344
0.000144816
0.0315775
0.000150286
0.000155638
0.0288371
0.0351039
0.000165103
0.000194995
0.000163153
0.0186894
0.000223821
0.000172072
0.000209502
0.000143685
0.000205636
0.0186906
0.00025359
0.00471749
0.0223482
0.000150611
0.000147683
0.000162443
0.000148357
0.000148568
0.000308217
0.000154074
0.000187068
0.000138802
0.000195718
0.013626
0.000155671
0.00028314
0.0290466
0.000144969
0.00020692
0.000162083
0.000154621
0.000144518
0.0386876
0.0002034
0.0236012
0.000165647
0.0239814
0.0002075
0.000161924
0.000288944
0.000178166
0.00018004
0.000143472
0.000237399
0.000144562
0.000161782
0.000175517
0.000160848
0.000151306
0.000194776
0.00026367
0.000142361
0.000229995
0.000217595
0.000149005
0.000142559
0.000158994
0.000167321
0.000265023
0.000141379
0.000171452
0.000202356
0.00361681
0.0241814
0.00014868
0.000140122
0.000150853
0.000145427
0.000155823
0.00015762
0.000140927
0.000150908
0.000159952
0.00314173
0.000203352
0.000210261
0.018353
0.0206961
0.000150097
0.000144054
0.000139823
0.000153938
0.000203255
0.0301393
0.00038379
0.000210765
0.000168936
0.000191354
0.000157705
0.000223952
0.000161134
0.000221951
0.000145253
0.000207616
0.00022913
0.000140969
0.00014969
0.0291252
0.000190011
0.00255191
0.0182122
0.00021938
0.000143424
0.000247694
0.000152182
0.000142733
0.000105522
0.00276381
0.000145512
0.000165569
0.00021805
0.000173922
0.000152678
0.000140004
0.000142723
0.000140138
0.000144207
0.00017027
0.000189409
0.0283241
0.000174738
0.00016322
0.000173663
0.000206191
0.000142171
0.000173485
0.000238537
0.000275955
0.021596
0.000154349
0.000140033
0.0356017
0.00014081
0.00150521
0.000155296
0.000182851
0.000150649
0.000141118
0.000311587
0.000164108
0.000153945
0.0001451
0.00138779
0.000306846
0.0288408
0.000148986
0.000147566
0.0190833
0.000159851
0.000151207
0.000219972
0.00427029
0.000164528
0.000176153
0.000152348
0.000168161
0.000142977
0.000157003
0.000151302
0.000139727
0.000276101
0.000143029
0.000140007
0.000253683
0.000196821
0.000299752
0.000262435
0.000142414
0.000171467
0.000140789
0.000143182
0.00015602
0.000151549
0.000148932
0.000261718
0.000148583
0.000202212
0.000190515
0.000251983
0.000148346
0.00018142
0.000143336
0.0408744
0.000148118
0.000317153
0.000203207
0.000153631
0.000192765
0.000176051
0.000172003
0.000147965
0.000146397
0.000140271
0.000141085
0.00101602
0.000175562
0.000201056
0.000145646
0.000147366
0.000155858
0.000196317
0.000142785
0.0166593
0.000187849
0.00015153
0.000143196
0.00014055
0.000187534
0.000290865
0.0363901
0.00334804
0.000511229
0.00028334
0.000210541
0.000156582
0.0010662
0.0001388
0.000147575
0.000160758
0.000466145
0.000140639
0.0297666
0.000148359
0.000145965
0.000221759
0.000238425
0.0194667
0.000488904
0.000162862
0.000227333
0.000301101
0.000147771
0.00138382
0.000144666
0.000176498
0.000297169
0.000139999
0.0280521
0.000349092
0.00014168
0.000145838
0.00014792
0.0271206
0.000185526
0.000140079
0.0002059
0.000142478
0.000140609
0.000170658
0.000149175
0.000187906
0.000149428
0.000158024
0.000138643
0.000295546
0.000187022
0.000138727
0.000138774
0.000152799
0.000143097
0.000158636
0.00014945
0.000148123
0.000149608
0.000144173
0.000153387
0.000147565
0.000192769
0.00014067
0.000207011
0.000148264
0.000186795
0.000141223
0.000148794
0.000142637
0.000147902
0.000176482
0.000160115
0.000161824
0.000296818
0.000187859
0.0372185
0.0198035
0.000207637
0.00552982
0.000148015
0.000147207
0.000293257
0.00519933
0.000157782
0.0291717
0.000140768
0.000228536
0.00882503
0.000158228
0.000207347
0.00192561
0.0116509
0.000149432
0.000189325
0.000140601
0.0047389
0.000159659
0.0274
0.0157477
0.000149571
0.00018944
0.000257458
0.000177649
0.000279925
0.000509334
0.000155877
0.000140389
0.000184914
0.034548
0.000148016
0.000174221
0.00015027
0.000257007
0.000221317
0.000148298
0.00014147
0.000275719
0.00014293
0.000144988
0.000151985
0.000139321
0.000274078
0.000162701
0.000168622
0.0387416
0.000144222
0.000186418
0.000149267
0.000182153
0.000193398
0.00472919
0.000141088
0.000167036
0.000161027
0.000148927
0.000158247
0.000147574
0.000279775
0.000154055
0.000139626
0.000142486
0.000559682
0.000140249
0.00388711
0.000239097
0.0148645
0.000146897
0.000141789
0.00014314
0.0073331
0.000149966
0.000332727
0.000150055
0.00030689
0.000155308
0.000153986
0.000294281
0.000148662
0.000169211
0.0331585
0.000219412
0.0287925
0.000151984
0.00741502
0.00709456
0.000147941
0.0314985
0.000149111
0.000159189
0.0178476
0.000155904
0.000179613
0.0226024
0.000168159
0.000201404
0.000148074
0.000192186
0.000144946
0.00512731
0.000143081
0.0224198
0.000145162
0.000145382
0.00015586
0.00507417
0.000141969
0.000180368
0.000195921
0.00695437
0.000143696
0.000167614
0.0188865
0.000252517
0.000267054
0.000203834
0.000141319
0.000217283
0.000287962
0.000157602
0.000292988
0.000147657
0.000225171
0.0175725
0.000142691
0.0241102
0.000143224
0.00354567
0.000264663
0.000157801
0.000156837
0.00459452
0.0141233
0.000144795
0.000154965
0.000139523
0.000148308
0.000734078
0.000198031
0.000306178
0.000147781
0.000166026
0.0277482
0.000259025
0.0103729
0.000166257
0.000142096
0.00014424
0.000255616
0.00140828
0.00030012
0.00953353
0.00026521
0.000178212
0.000182005
0.0131352
0.0172522
0.00511348
0.000140382
0.000205553
0.000186738
0.00020094
0.000146829
0.000163938
0.000195438
0.000212026
0.0153788
0.000169492
0.000292114
0.0370348
0.000180196
0.000144499
0.000144654
0.000265956
0.000142571
0.0360509
0.000167075
0.000162672
0.000232745
0.00148787
0.000138677
0.000178609
0.00017064
0.000147232
0.0217334
0.000222816
0.0322811
0.000144682
0.0309193
0.00029452
0.000256038
0.000148311
0.000163562
0.000168957
0.000209963
0.00021603
0.000202222
0.000536397
0.000245485
0.000139312
0.000162509
0.000154739
0.000221313
0.0203989
0.000157885
0.000138578
0.000154417
0.000249361
0.000214097
0.000144999
0.000188332
0.000232826
0.000140132
0.000978126
0.000157662
0.0298938
0.000160954
0.00458337
0.000716744
0.000168233
0.000158731
0.000296397
0.000142461
0.000182088
0.022431
0.000162331
0.000195703
0.000173294
0.000196531
0.000930012
0.00636587
0.000147837
0.0261747
0.000240131
0.000139939
0.000232412
0.000199917
0.00021585
0.000278378
0.00025915
0.011245
0.00021459
0.0215983
0.000164549
0.000201413
0.000149064
0.000149684
0.000147983
0.000140137
0.00029999
0.000207772
0.000149273
0.000184651
0.000250392
0.000142294
0.00405856
0.00467728
0.000148845
0.000149665
0.000150252
0.000153298
0.000187421
0.00014494
0.0211988
0.000170345
0.000201141
0.000161211
0.000199851
0.000182693
0.000170795
0.00029142
0.000147243
0.000153749
0.000149075
0.00014356
0.0154906
0.000216876
0.000166844
0.0221884
0.000148416
0.000151098
0.000170597
0.000140862
0.000149188
0.00020035
0.000162079
0.0252324
0.000268516
0.0125673
0.000148143
0.0105139
0.000143716
0.000313328
0.000138599
0.000231683
0.000626754
0.0001436
0.000248383
0.0277805
0.000171323
0.000149663
0.000157939
0.000165632
0.000639182
0.000139236
0.000150093
0.000149073
0.000155363
0.000257924
0.0001538
0.000162621
0.000141854
0.000151199
0.000295758
0.000176365
0.00015622
0.000221568
0.000253983
0.024069
0.0249481
0.000152699
0.000152782
0.0229116
0.000147172
0.000200382
0.000148649
0.000644225
0.000154308
0.000150103
0.000174518
0.00577545
0.000144143
0.0001412
0.000138737
0.000241251
0.0117753
0.000216992
0.000144731
0.00015658
0.00014014
0.0397696
0.000158053
0.000294526
0.000196014
0.000148338
0.000234965
0.000172018
0.000498784
0.00015155
0.000150731
0.000170228
0.00017916
0.000221692
0.00014964
0.000150756
0.000153851
0.0268089
0.000144342
0.000151639
0.00547176
0.000155333
0.000181706
0.000160359
0.000142795
0.000147975
0.00138334
0.000157059
0.00352128
0.00044726
0.000141048
0.000297184
0.000150642
0.000213585
0.000188578
0.000152526
0.000148376
0.000140714
0.000144829
0.0275421
0.000189692
0.0411106
0.0217151
0.000140438
0.000267277
0.000178143
0.000312917
0.000145301
0.00323061
0.00710713
0.000167391
0.000143276
0.000155515
0.000151458
0.000560105
0.0145783
0.000160038
0.000145115
0.000171809
0.0247419
0.000149192
0.000155826
0.000154594
0.000227649
0.00030079
0.000138669
0.0113623
0.000162807
0.000144368
0.00023389
0.000195793
0.000278268
0.025971
0.000171231
0.000159909
0.000152819
0.000163255
0.000151542
0.000198464
0.000183039
0.000148156
0.000159971
0.000273475
0.000318296
0.000139133
0.00021423
0.0086734
0.000548504
0.000149036
0.000148152
0.00117817
0.000201563
0.000228252
0.000142766
0.0105031
0.000201587
0.000143045
0.0275244
0.00016507
0.000149199
0.000237257
0.000146118
0.000206354
0.000141623
0.000137656
0.000147471
0.000138739
0.00138424
0.00014777
0.000142092
0.000205457
0.000161496
0.000158397
0.000230026
0.00014796
0.000144843
0.000154933
0.000153169
0.000432536
0.000625404
0.000315396
0.0264377
0.000167227
0.00673658
0.000198046
0.0149181
0.00174813
0.00286396
0.000140123
0.00016822
0.000145546
0.000147947
0.000144533
0.000150445
0.00025954
0.000197333
0.000176829
0.000142031
0.000144274
0.000194967
0.000150001
0.000150482
0.000147945
0.0435849
0.000171329
0.015207
0.000147934
0.000781665
0.000151091
0.000149559
0.000151373
0.000186013
0.000141583
0.000207807
0.0281698
0.000180026
0.0337121
0.00186784
0.000155267
0.000166011
0.00505616
0.00021534
0.000149647
0.000144216
0.000141216
0.0224616
0.000138198
0.000223455
0.000219051
0.000204502
0.000336441
0.000359618
0.000200517
0.024684
0.000148792
0.000138246
0.00450131
0.000153304
0.000146463
0.000148021
0.0199924
0.000140473
0.000231683
0.000153467
0.000158177
0.000161132
0.000147384
0.000201926
0.0259091
0.0264169
0.000160761
0.000145587
0.000202123
0.000153995
0.000203817
0.000139991
0.000234318
0.000214765
0.000150447
0.000148782
0.000141855
0.000219928
0.000185423
0.000259077
0.000279868
0.000169302
0.000170772
0.000205673
0.000224486
0.00177197
0.000143937
0.0208831
0.000153048
0.044053
0.00030512
0.0208922
0.00149984
0.000170995
0.000192529
0.00423596
0.000146266
0.0227887
0.000147559
0.000147507
0.000163651
0.000151931
0.000172189
0.000312081
0.000270217
0.0171003
0.00016301
0.00017867
0.000153694
0.000149122
0.000148973
0.00022077
0.000211594
0.00539576
0.000185668
0.000149443
0.000139416
0.0001509
0.000282291
0.000157874
0.000152334
0.000160904
0.000200577
0.000173497
0.000179626
0.000168265
0.0192062
0.000168598
0.000175152
0.000145316
0.000163814
0.00024762
0.00189326
0.000182212
0.000140985
0.000205964
0.000174699
0.000142444
0.000189584
0.0278865
0.00442023
0.000172227
0.000140527
0.0154848
0.000150798
0.000140211
0.000149906
0.000305733
0.000301585
0.000155092
0.000284223
0.00021565
0.000160647
0.000168975
0.000195761
0.0330997
0.000170508
0.0134082
0.000150882
0.000346529
0.000176888
0.0128058
0.000175732
0.000143118
0.0300403
0.000146009
0.00015282
0.0255145
0.000176515
0.000210496
0.000248852
0.000159989
0.000154465
0.000298326
0.000142498
0.000142596
0.000147746
0.000187127
0.000145078
0.000168763
0.000161653
0.00267828
0.00028818
0.000152376
0.024025
0.000161999
0.0315551
0.0332046
0.000147532
0.000149741
0.000162578
0.000244777
0.000259116
0.000199832
0.0285131
0.0168881
0.000240228
0.000170383
0.000190339
0.0215944
0.000184542
0.00031177
0.000148679
0.000144998
0.000147628
0.000152946
0.000143206
0.000175694
0.0277275
0.000166069
0.000713186
0.0172861
0.000141771
0.0102067
0.022478
0.000161805
0.0190882
0.000216124
0.00020581
0.000138528
0.000146833
0.000202277
0.0294025
0.000152913
0.000906621
0.0260022
0.000140561
0.000148482
0.000150565
0.000207121
0.000151205
0.000202607
0.0218215
0.000139059
0.000143782
0.000140276
0.000152648
0.000218157
0.0280546
0.0001747
0.000252832
0.000214765
0.000142608
0.00055913
0.00022166
0.000174745
0.000315528
0.000309013
0.00360272
0.000273676
0.0290849
0.000145534
0.000224223
0.0302846
0.000226087
0.000190236
0.000143962
0.0001557
0.000157875
0.000157009
0.00116111
0.000199382
0.000149561
0.000165433
0.00447788
0.0320893
0.000168042
0.000184379
0.0398457
0.0209983
0.000149493
0.000165794
0.000214267
0.000143697
0.000144249
0.000337936
0.000142188
0.000297662
0.000556601
0.00250764
0.000141397
0.000198798
0.000231439
0.000142086
0.000145888
0.0036958
0.000293354
0.000149794
0.000170809
0.000230105
0.000269808
0.0233683
0.000280431
0.000162247
0.00127124
0.00516252
0.000176356
0.000141852
0.000212747
0.000138452
0.000147916
0.0254529
0.000177017
0.000210467
0.000159899
0.00015646
0.000142473
0.000140685
0.000152124
0.00015317
0.000228012
0.000159264
0.000265289
0.0246729
0.000184725
0.000203102
0.000496246
0.00927757
0.000219585
0.00015756
0.000160965
0.000177137
0.000161669
0.000230503
0.00505577
0.000152
0.000269795
0.0343339
0.000163624
0.000214485
0.000204956
0.000218487
0.000222875
0.000154773
0.000228419
0.000234148
0.000240508
0.000247402
0.000225428
0.000207871
0.000164193
0.000141548
0.000175024
0.000213798
0.000141788
0.000245126
0.0241587
0.000233241
0.0265954
0.000144432
0.000141537
0.000538437
0.00022069
0.000152797
0.00015722
0.000200298
0.0276476
0.0236868
0.000147588
0.000169106
0.000161616
0.0116193
0.00445345
0.000159251
0.000272091
0.0314935
0.000217437
0.0145239
0.00021105
0.00322001
0.0229033
0.000135381
0.0174795
0.0376289
0.000153358
0.000200453
0.000211612
0.000159164
0.000141501
0.000250275
0.025518
0.000148326
0.000148827
0.000763528
0.000320833
0.000204434
0.000149725
0.000273856
0.000221916
0.0281596
0.0350773
0.000148223
0.000144007
0.000152523
0.000150432
0.00862932
0.0177937
0.00777193
0.000210985
0.00029726
0.0051584
0.000150577
0.000141007
0.0326125
0.000143685
0.0154068
0.000159136
0.0175286
0.000153892
0.000152524
0.0122027
0.000144139
0.000222777
0.00329245
0.000165698
0.000155893
0.000154433
0.000256684
0.026882
0.000225831
0.031252
0.000155013
0.000151771
0.000167134
0.000203087
0.0256895
0.0193167
0.000211258
0.000262267
0.000227939
0.000231695
0.000155488
0.000143988
0.000139162
0.000138536
0.000259292
0.000200231
0.00469754
0.000179863
0.000238334
0.000142271
0.00460486
0.000230378
0.0102004
0.000144598
0.000155028
0.000138059
0.0318338
0.000152438
0.00560656
0.000254245
0.000226101
0.000286867
0.000141536
0.00018064
0.000223895
0.000265664
0.000319036
0.000145718
0.000231783
0.000150761
0.000151284
0.000212603
0.0245724
0.000268152
0.000149617
0.000207182
0.000237842
0.0106736
0.0227223
0.00559418
0.00351454
0.000142296
0.000196769
0.000147263
0.000234472
0.000146503
0.000215695
0.00015453
0.000190232
0.0019967
0.00367722
0.000156125
0.000205186
0.0369718
0.00022855
0.00015547
0.024748
0.000223735
0.000156259
0.000151388
0.00180674
0.000168485
0.000220412
0.000301795
0.00386646
0.0214376
0.000155284
0.000565547
0.0274279
0.0263538
0.000246413
0.000173048
0.000221086
0.000216012
0.00424032
0.000212643
0.000152158
0.000312751
0.000177289
0.0002459
0.000165198
0.0176657
0.000250292
0.000304243
0.000164066
0.000363722
0.000158584
0.0259075
0.000224397
0.000302826
0.0203453
0.000140299
0.000138638
0.0310107
0.0150693
0.000209566
0.000151675
0.000181205
0.000165137
0.000375599
0.000208444
0.0382252
0.000162668
0.0392634
0.000218925
0.0274129
0.000151903
0.00023849
0.0162664
0.000155954
0.000212297
0.000142801
0.000159665
0.000148677
0.00172333
0.000143121
0.000148267
0.0205164
0.000194057
0.000138486
0.0209422
0.00015292
0.00014682
0.000144054
0.000142272
0.000149765
0.000319131
0.0273134
0.000140712
0.000304945
0.000202765
0.000190397
0.000305539
0.000212327
0.000161805
0.000174278
0.000143106
0.00182412
0.000168042
0.022518
0.000157291
0.000187616
0.000309629
0.000201686
0.000204527
0.0401502
0.000139033
0.0276805
0.000194151
0.000200905
0.00017837
0.000142956
0.000213071
0.000262139
0.000148177
0.000253826
0.000143848
0.00254641
0.000238899
0.000190449
0.000254522
0.000250662
0.0183131
0.000148544
0.00014654
0.000200047
0.00015508
0.000149707
0.000149917
0.000164716
0.000141934
0.000142711
0.000154115
0.000180423
0.000156027
0.000164573
0.000152512
0.000166872
0.000220817
0.000157073
0.00484788
0.000156379
0.000143545
0.000215941
0.000185892
0.000151039
0.000141798
0.000282138
0.000157022
0.0318858
0.000157708
0.000216391
0.000143698
0.000145664
0.000201257
0.0282304
0.000204488
0.00017413
0.000139329
0.0294778
0.000148906
0.000142421
0.000207834
0.000158835
0.000225533
0.0362795
0.000216425
0.000218666
0.000180927
0.0222291
0.000147052
0.000148941
0.000197777
0.00108917
0.000198337
0.000212563
0.0153923
0.000165099
0.000148465
0.000167534
0.000268892
0.000196833
0.000148429
0.000220104
0.000219151
0.000199342
0.000149661
0.000148461
0.000234156
0.000198429
0.000237261
0.0063102
0.000155997
0.00020369
0.000149534
0.000187754
0.000283187
0.000149481
0.000229947
0.000286048
0.000206915
0.027631
0.000147617
0.000145512
0.000142927
0.017196
0.000260002
0.00015649