/*--------------------------------*- C++ -*----------------------------------*\
| =========                 |                                                 |
| \\      /  F ield         | OpenFOAM: The Open Source CFD Toolbox           |
|  \\    /   O peration     | Version:  v2012                                 |
|   \\  /    A nd           | Website:  www.openfoam.com                      |
|    \\/     M anipulation  |                                                 |
\*---------------------------------------------------------------------------*/
FoamFile
{
    version     2.0;
    format      ascii;
    class       pointVectorField;
    location    "150";
    object      pointDisplacement;
}
// * * * * * * * * * * * * * * * * * * * * * * * * * * * * * * * * * * * * * //

dimensions      [0 1 0 0 0 0 0];


internalField   nonuniform List<vector> 
14386
(
(0 0 0)
(0.0179811 0.174688 0)
(0 0 0)
(0.0179811 0.174688 0)
(0 0 0)
(0 0 0)
(0 0 0)
(0 0 0)
(0 0 0)
(0 0 0)
(0 0 0)
(0 0 0)
(0 0 0)
(0 0 0)
(0 0 0)
(0 0 0)
(0 0 0)
(0 0 0)
(0 0 0)
(0 0 0)
(0 0 0)
(0 0 0)
(0 0 0)
(0 0 0)
(0 0 0)
(0 0 0)
(0 0 0)
(0 0 0)
(0 0 0)
(0 0 0)
(0 0 0)
(0 0 0)
(0 0 0)
(0 0 0)
(0 0 0)
(0 0 0)
(0 0 0)
(0 0 0)
(0 0 0)
(0 0 0)
(0 0 0)
(0 0 0)
(0 0 0)
(0 0 0)
(0 0 0)
(0 0 0)
(0 0 0)
(0 0 0)
(0 0 0)
(0 0 0)
(0 0 0)
(0 0 0)
(0 0 0)
(0 0 0)
(0 0 0)
(0 0 0)
(0 0 0)
(0 0 0)
(0 0 0)
(0 0 0)
(0 0 0)
(0 0 0)
(0 0 0)
(0 0 0)
(0 0 0)
(0 0 0)
(0 0 0)
(0 0 0)
(0 0 0)
(0 0 0)
(0 0 0)
(0 0 0)
(0 0 0)
(0 0 0)
(0 0 0)
(0 0 0)
(0 0 0)
(0 0 0)
(0 0 0)
(0 0 0)
(0 0 0)
(0 0 0)
(0 0 0)
(0 0 0)
(0 0 0)
(0 0 0)
(0 0 0)
(0 0 0)
(0 0 0)
(0 0 0)
(0 0 0)
(0 0 0)
(0 0 0)
(0 0 0)
(0 0 0)
(0 0 0)
(0 0 0)
(0 0 0)
(0 0 0)
(0 0 0)
(0 0 0)
(0 0 0)
(0 0 0)
(0 0 0)
(0 0 0)
(0 0 0)
(0 0 0)
(0 0 0)
(0 0 0)
(0 0 0)
(0 0 0)
(0 0 0)
(0 0 0)
(0 0 0)
(0 0 0)
(0 0 0)
(0 0 0)
(0 0 0)
(0 0 0)
(0 0 0)
(0 0 0)
(0 0 0)
(0 0 0)
(0 0 0)
(0 0 0)
(0 0 0)
(0 0 0)
(0 0 0)
(0 0 0)
(0 0 0)
(0 0 0)
(0 0 0)
(0 0 0)
(0.0192621 0.115891 0)
(0.0192147 0.118069 0)
(0.0191672 0.120246 0)
(0.0191198 0.122424 0)
(0.0190723 0.124602 0)
(0.0190249 0.126779 0)
(0.0189774 0.128957 0)
(0.01893 0.131135 0)
(0.0188826 0.133312 0)
(0.0188351 0.13549 0)
(0.0187877 0.137668 0)
(0.0187402 0.139845 0)
(0.0186928 0.142023 0)
(0.0186453 0.144201 0)
(0.0185979 0.146378 0)
(0.0185504 0.148556 0)
(0.018503 0.150734 0)
(0.0184555 0.152911 0)
(0.0184081 0.155089 0)
(0.0183607 0.157267 0)
(0.0183132 0.159444 0)
(0.0182658 0.161622 0)
(0.0182183 0.1638 0)
(0.0181709 0.165977 0)
(0.0181234 0.168155 0)
(0.018076 0.170333 0)
(0.0180285 0.17251 0)
(0.0158034 0.174641 0)
(0.0136258 0.174593 0)
(0 0 0)
(0 0 0)
(0 0 0)
(0 0 0)
(0 0 0)
(0 0 0)
(0 0 0)
(0 0 0)
(0 0 0)
(0 0 0)
(0 0 0)
(0 0 0)
(0 0 0)
(0 0 0)
(0 0 0)
(0 0 0)
(0 0 0)
(0 0 0)
(0 0 0)
(0 0 0)
(0 0 0)
(0 0 0)
(0 0 0)
(0 0 0)
(0 0 0)
(0 0 0)
(0 0 0)
(0 0 0)
(0 0 0)
(0 0 0)
(0 0 0)
(0 0 0)
(0 0 0)
(0 0 0)
(0 0 0)
(0 0 0)
(0 0 0)
(0 0 0)
(0 0 0)
(0 0 0)
(0 0 0)
(0 0 0)
(0 0 0)
(0 0 0)
(0 0 0)
(0 0 0)
(0 0 0)
(0 0 0)
(0 0 0)
(0 0 0)
(0 0 0)
(0 0 0)
(0 0 0)
(0 0 0)
(0 0 0)
(0 0 0)
(0 0 0)
(0 0 0)
(0 0 0)
(0 0 0)
(0 0 0)
(0 0 0)
(0 0 0)
(0 0 0)
(0 0 0)
(0 0 0)
(0 0 0)
(0 0 0)
(0 0 0)
(0 0 0)
(0 0 0)
(0 0 0)
(0 0 0)
(0 0 0)
(0 0 0)
(0 0 0)
(0 0 0)
(0 0 0)
(0 0 0)
(0 0 0)
(0 0 0)
(0 0 0)
(0 0 0)
(0 0 0)
(0 0 0)
(0 0 0)
(0 0 0)
(0 0 0)
(0 0 0)
(0 0 0)
(0 0 0)
(0 0 0)
(0 0 0)
(0 0 0)
(0 0 0)
(0 0 0)
(0 0 0)
(0 0 0)
(0 0 0)
(0 0 0)
(0 0 0)
(0 0 0)
(0 0 0)
(0 0 0)
(0 0 0)
(0 0 0)
(0 0 0)
(0 0 0)
(0 0 0)
(0 0 0)
(0 0 0)
(0 0 0)
(0 0 0)
(0 0 0)
(0 0 0)
(0 0 0)
(0 0 0)
(0 0 0)
(0 0 0)
(0 0 0)
(0 0 0)
(0 0 0)
(0 0 0)
(0 0 0)
(0 0 0)
(0 0 0)
(0 0 0)
(0 0 0)
(0 0 0)
(0.0192621 0.115891 0)
(0.0192147 0.118069 0)
(0.0191672 0.120246 0)
(0.0191198 0.122424 0)
(0.0190723 0.124602 0)
(0.0190249 0.126779 0)
(0.0189774 0.128957 0)
(0.01893 0.131135 0)
(0.0188826 0.133312 0)
(0.0188351 0.13549 0)
(0.0187877 0.137668 0)
(0.0187402 0.139845 0)
(0.0186928 0.142023 0)
(0.0186453 0.144201 0)
(0.0185979 0.146378 0)
(0.0185504 0.148556 0)
(0.018503 0.150734 0)
(0.0184555 0.152911 0)
(0.0184081 0.155089 0)
(0.0183607 0.157267 0)
(0.0183132 0.159444 0)
(0.0182658 0.161622 0)
(0.0182183 0.1638 0)
(0.0181709 0.165977 0)
(0.0181234 0.168155 0)
(0.018076 0.170333 0)
(0.0180285 0.17251 0)
(0.0158034 0.174641 0)
(0.0136258 0.174593 0)
(0.000104261 0.00442719 0)
(0.0183782 0.156412 0)
(0.0192388 0.116947 0)
(0.0188185 0.136237 0)
(0.000209691 0.00531852 0)
(2.50946e-06 0.0025691 0)
(-8.83207e-06 0.00187619 0)
(3.12871e-05 0.00329482 0)
(0.000392385 0.00635515 0)
(-1.11868e-05 0.00133918 0)
(0.000561491 0.00610756 0)
(-1.62573e-05 0.000939471 0)
(0.000747392 0.00522574 0)
(0.000987278 0.00365419 0)
(-9.85494e-06 0.000916096 0)
(0.0180987 0.168859 0)
(-1.30817e-05 0.000818211 0)
(-8.8121e-06 0.000718241 0)
(-1.04472e-05 0.000693111 0)
(-7.01317e-06 0.000537558 0)
(-6.96646e-06 0.000483876 0)
(6.63314e-05 0.00398968 0)
(1.57916e-05 0.00328832 0)
(-4.8256e-06 0.00219713 0)
(0.0185777 0.147267 0)
(0.0190021 0.127808 0)
(-4.20776e-06 0.000312968 0)
(-4.28539e-06 0.000306634 0)
(0.00053435 0.00706901 0)
(0.00088625 0.00466465 0)
(0.000658836 0.0057931 0)
(0.000319098 0.00615978 0)
(0.000145255 0.00456428 0)
(-1.2298e-05 0.00124663 0)
(-1.03264e-05 0.00159094 0)
(-1.49609e-05 0.000901384 0)
(-1.58591e-05 0.000882203 0)
(-9.87429e-06 0.00084859 0)
(0.0182411 0.162629 0)
(-2.72684e-06 0.000199881 0)
(-2.2563e-06 0.000163594 0)
(0.000967628 0.00255239 0)
(0.000251939 0.00559827 0)
(0.000130231 0.0047223 0)
(8.387e-05 0.00420521 0)
(5.8623e-05 0.00432661 0)
(2.16731e-05 0.00306609 0)
(7.25953e-06 0.00257768 0)
(-1.67418e-06 0.00242219 0)
(-7.42644e-06 0.00210712 0)
(-5.31584e-06 0.000400426 0)
(-1.37076e-05 0.00087855 0)
(-1.10105e-05 0.00147832 0)
(-1.88292e-05 0.0010199 0)
(-5.79709e-06 0.000409561 0)
(-7.15608e-06 0.0004892 0)
(-8.1283e-06 0.000644471 0)
(-1.15958e-05 0.00126608 0)
(-9.15503e-07 6.68252e-05 0)
(0.0158437 0.0502849 0)
(0.0156158 0.0494657 0)
(0.0155367 0.0543578 0)
(0.0153147 0.053384 0)
(0.0152273 0.0581923 0)
(0.0154407 0.0593067 0)
(0.0151232 0.0630046 0)
(0.0149178 0.0617628 0)
(0.0148097 0.0663983 0)
(0.0150054 0.0677549 0)
(0.0146871 0.0709734 0)
(0.0144952 0.0695508 0)
(0.014366 0.0739899 0)
(0.0141791 0.0724925 0)
(0.014046 0.0767765 0)
(0.0142258 0.0782826 0)
(0.013904 0.0809529 0)
(0.0137299 0.0793167 0)
(0.0135827 0.0833764 0)
(0.0137617 0.0853821 0)
(0.0134177 0.0873732 0)
(0.0132649 0.0855041 0)
(0.0131003 0.0892824 0)
(0.0132396 0.0911708 0)
(0.0129251 0.0929175 0)
(0.0130557 0.0948136 0)
(0.0127381 0.0964215 0)
(0.012613 0.0945067 0)
(0.0124259 0.0978552 0)
(0.0125392 0.0998022 0)
(0.0122253 0.101089 0)
(0.0123275 0.103074 0)
(0.0120104 0.104209 0)
(0.0121031 0.106221 0)
(0.0117825 0.107217 0)
(0.0116961 0.105183 0)
(0.0114644 0.108078 0)
(0.0115407 0.110139 0)
(0.0112211 0.110869 0)
(0.0112847 0.112971 0)
(0.0109651 0.113542 0)
(0.0110168 0.115716 0)
(0.0106934 0.116103 0)
(0.0107296 0.118255 0)
(0.0104056 0.11854 0)
(0.0104241 0.120593 0)
(0.0101134 0.12082 0)
(0.0101066 0.122817 0)
(0.00980691 0.122898 0)
(0.00977823 0.124927 0)
(0.00947498 0.124836 0)
(0.00943283 0.126939 0)
(0.00912435 0.126727 0)
(0.00906997 0.128799 0)
(0.00875884 0.12851 0)
(0.008692 0.130517 0)
(0.00837993 0.130145 0)
(0.00829649 0.132112 0)
(0.00798364 0.131652 0)
(0.00787595 0.133617 0)
(0.00756766 0.133034 0)
(0.0074331 0.134989 0)
(0.00713465 0.134263 0)
(0.00697391 0.136214 0)
(0.00667927 0.135377 0)
(0.00649765 0.137315 0)
(0.00620268 0.136406 0)
(0.00600631 0.138284 0)
(0.0057222 0.13733 0)
(0.00550291 0.139138 0)
(0.00524471 0.138126 0)
(0.00499078 0.139881 0)
(0.00475566 0.138777 0)
(0.00446626 0.140443 0)
(0.00425478 0.139283 0)
(0.00393495 0.140849 0)
(0.00375228 0.139664 0)
(0.00340495 0.141176 0)
(0.00324814 0.139934 0)
(0.00288377 0.141386 0)
(0.00274583 0.140085 0)
(0.00236634 0.141474 0)
(0.00224572 0.140152 0)
(0.00184509 0.141474 0)
(0.00175313 0.140123 0)
(0.00133161 0.141337 0)
(0.00127031 0.139988 0)
(0.000837272 0.141077 0)
(0.000806225 0.139719 0)
(0.000356798 0.140743 0)
(0.000352973 0.139351 0)
(-0.000111948 0.14032 0)
(-9.10351e-05 0.138922 0)
(-0.00055728 0.139792 0)
(-0.000509688 0.138385 0)
(-6.72235e-05 0.13751 0)
(-0.000470141 0.136975 0)
(0.00307921 0.138561 0)
(0.00639085 0.134409 0)
(0.00955041 0.122623 0)
(0.0113818 0.106038 0)
(-3.41588e-05 0.136078 0)
(-0.000438802 0.135549 0)
(-0.000967637 0.139167 0)
(-1.26352e-05 0.13463 0)
(-0.000411188 0.134101 0)
(-9.96373e-06 0.133168 0)
(-0.000387154 0.132631 0)
(-2.61324e-06 0.131674 0)
(-0.000364984 0.131137 0)
(8.08805e-06 0.130154 0)
(-0.000343581 0.129616 0)
(1.56456e-05 0.128615 0)
(-0.000323225 0.128069 0)
(-0.000686885 0.129009 0)
(-0.000650012 0.127444 0)
(-0.00101672 0.128313 0)
(-0.000963574 0.126738 0)
(-0.000615236 0.125872 0)
(-0.000914447 0.125156 0)
(-0.00132737 0.127522 0)
(-0.000582652 0.124286 0)
(-0.000869808 0.123556 0)
(-0.000551656 0.122675 0)
(-0.000830371 0.121934 0)
(-0.000517257 0.121024 0)
(-0.000792509 0.12029 0)
(-0.000491221 0.119335 0)
(-0.00075861 0.118624 0)
(-0.000473568 0.117638 0)
(-0.000730769 0.116935 0)
(-0.000454226 0.115928 0)
(-0.000702847 0.115226 0)
(-0.000976494 0.116161 0)
(-0.000939093 0.11445 0)
(-0.00121595 0.115337 0)
(-0.00116368 0.113595 0)
(-0.00144145 0.114401 0)
(-0.00137848 0.112668 0)
(-0.00111092 0.111878 0)
(-0.00132332 0.110949 0)
(-0.00106229 0.110125 0)
(-0.00126734 0.109197 0)
(-0.00165246 0.113385 0)
(-0.00101497 0.108348 0)
(-0.00121236 0.107428 0)
(-0.000974377 0.106554 0)
(-0.00116441 0.105648 0)
(-0.000940625 0.104747 0)
(-0.0011202 0.10385 0)
(-0.000908701 0.10293 0)
(-0.00107852 0.102039 0)
(-0.00128826 0.102887 0)
(-0.00123746 0.101078 0)
(-0.00144393 0.101853 0)
(-0.00138464 0.100055 0)
(-0.00118863 0.0992619 0)
(-0.0013254 0.0982462 0)
(-0.00114509 0.0974232 0)
(-0.00129709 0.0963367 0)
(-0.00110439 0.0955819 0)
(-0.00123189 0.094559 0)
(-0.00153042 0.0989033 0)
(-0.00106297 0.0937626 0)
(-0.00118878 0.0927874 0)
(-0.00102529 0.0919197 0)
(-0.00114655 0.090956 0)
(-0.000989943 0.0900634 0)
(-0.0011066 0.0891114 0)
(-0.00104738 0.140565 0)
(-0.000957956 0.0881965 0)
(-0.00106873 0.0872596 0)
(-0.00121536 0.0881013 0)
(-0.00117189 0.0862617 0)
(-0.00131851 0.0870256 0)
(-0.00127111 0.0852072 0)
(-0.00113063 0.0844294 0)
(-0.00122541 0.0834099 0)
(-0.00109157 0.0826025 0)
(-0.00118284 0.0816184 0)
(-0.00136565 0.084123 0)
(-0.00105415 0.0807745 0)
(-0.00113896 0.0798011 0)
(-0.00101825 0.0789391 0)
(-0.00109675 0.0779668 0)
(-0.000984829 0.0771075 0)
(-0.00105861 0.0761492 0)
(-0.000953047 0.0752824 0)
(-0.00102328 0.0743451 0)
(-0.000923289 0.0734649 0)
(-0.000989852 0.0725542 0)
(-0.00108796 0.0733588 0)
(-0.00105062 0.0715907 0)
(-0.00114632 0.0723216 0)
(-0.00110559 0.0705777 0)
(-0.00101492 0.0698377 0)
(-0.00106684 0.0688464 0)
(-0.00115498 0.0695214 0)
(-0.00111328 0.0678144 0)
(-0.00102989 0.0671288 0)
(-0.00107376 0.0661233 0)
(-0.000994729 0.0654244 0)
(-0.00103613 0.0644449 0)
(-0.000961304 0.0637327 0)
(-0.00100011 0.0627799 0)
(-0.00107255 0.063425 0)
(-0.00103424 0.0617868 0)
(-0.000965718 0.0611311 0)
(-0.000997657 0.0601647 0)
(-0.000932768 0.0594999 0)
(-0.000962662 0.0585589 0)
(-0.00090121 0.0578846 0)
(-0.000929226 0.0569702 0)
(-0.000988513 0.0575804 0)
(-0.000953285 0.0560184 0)
(-0.000897163 0.0553983 0)
(-0.00091955 0.0544734 0)
(-0.000866359 0.0538445 0)
(-0.000887211 0.0529456 0)
(-0.000836726 0.0523083 0)
(-0.000856133 0.0514358 0)
(-0.000904725 0.0520123 0)
(-0.00087228 0.0505283 0)
(-0.000826198 0.0499441 0)
(-0.000841127 0.0490634 0)
(-0.000797397 0.0484715 0)
(-0.000811199 0.0476172 0)
(-0.000769694 0.047018 0)
(-0.000782344 0.0461885 0)
(-0.000822101 0.0467321 0)
(-0.000792215 0.0453254 0)
(-0.000754459 0.0447783 0)
(-0.000763419 0.0439394 0)
(-0.000727505 0.0433853 0)
(-0.000735688 0.0425731 0)
(-0.00144772 0.13985 0)
(-0.00155593 0.141224 0)
(-0.00195384 0.14044 0)
(-0.00208874 0.141799 0)
(-0.000701499 0.0420123 0)
(-0.000708813 0.0412302 0)
(-0.000741556 0.0417327 0)
(-0.000713749 0.04042 0)
(-0.000682185 0.0399139 0)
(-0.000744758 0.0408481 0)
(-0.000716063 0.0395695 0)
(-0.00074415 0.0399039 0)
(-0.000716327 0.0386823 0)
(0.0107216 0.120526 0)
(-0.000193248 0.116558 0)
(-0.00085152 0.0743316 0)
(-0.000838691 0.0890782 0)
(0.00303365 0.142602 0)
(0.00901534 0.130827 0)
(0.00579633 0.140048 0)
(-0.000726409 0.103758 0)
(0.0181447 0.0907904 0)
(0.0180824 0.0946013 0)
(0.0179221 0.0947828 0)
(0.0178548 0.0985846 0)
(0.017692 0.0986092 0)
(0.0176215 0.102337 0)
(0.0177824 0.102382 0)
(0.0175435 0.106057 0)
(0.0173798 0.10593 0)
(0.0172962 0.109591 0)
(0.0171282 0.109377 0)
(0.0170361 0.11301 0)
(0.0176932 0.106165 0)
(0.0168655 0.112652 0)
(0.0167642 0.116246 0)
(0.0165921 0.115721 0)
(0.0164824 0.119255 0)
(0.016308 0.118603 0)
(0.0161912 0.122035 0)
(0.0163679 0.122737 0)
(0.0160695 0.125402 0)
(0.0162486 0.126139 0)
(0.0159427 0.128676 0)
(0.0161224 0.129463 0)
(0.0158088 0.131858 0)
(0.0156274 0.130994 0)
(0.0154857 0.134038 0)
(0.015992 0.132696 0)
(0.0153038 0.133064 0)
(0.0151483 0.136014 0)
(0.0164246 0.115061 0)
(0.0149726 0.134885 0)
(0.0147985 0.137763 0)
(0.0146313 0.136503 0)
(0.014442 0.139271 0)
(0.0146048 0.1406 0)
(0.0142351 0.141952 0)
(0.0143942 0.1433 0)
(0.0140112 0.144492 0)
(0.0141686 0.145821 0)
(0.0137709 0.146849 0)
(0.0139251 0.148178 0)
(0.013513 0.149045 0)
(0.0136551 0.150454 0)
(0.0132278 0.151117 0)
(0.0133647 0.152584 0)
(0.0129203 0.153062 0)
(0.0130544 0.154496 0)
(0.0125907 0.154812 0)
(0.0126933 0.156232 0)
(0.0121438 0.156384 0)
(0.0122832 0.157814 0)
(0.0117481 0.157939 0)
(0.0118377 0.159271 0)
(0.0112834 0.15921 0)
(0.0113236 0.160565 0)
(0.0107531 0.160382 0)
(0.0107454 0.161679 0)
(0.0101494 0.161411 0)
(0.0101064 0.162651 0)
(0.00950057 0.162312 0)
(0.0094011 0.163482 0)
(0.00880701 0.163077 0)
(0.00862561 0.164175 0)
(0.00803442 0.163698 0)
(0.00777471 0.164736 0)
(0.00718872 0.164203 0)
(0.00684078 0.165183 0)
(0.00626806 0.164605 0)
(0.00582248 0.165522 0)
(0.00527863 0.16491 0)
(0.00474245 0.165745 0)
(0.0042578 0.16511 0)
(0.00361948 0.165857 0)
(0.0032195 0.165185 0)
(0.00246188 0.165866 0)
(0.00214766 0.165137 0)
(0.00127609 0.165778 0)
(0.00104436 0.165009 0)
(8.21068e-05 0.165612 0)
(0.0112505 0.157806 0)
(0.00830214 0.16255 0)
(-4.22411e-05 0.164829 0)
(0.00301581 0.164498 0)
(0.0131051 0.149589 0)
(0.0135118 0.154071 0)
(0.0142858 0.137892 0)
(0.000366037 0.129082 0)
(0.00163803 0.166524 0)
(0.00808118 0.129739 0)
(0.0119588 0.160741 0)
(0.00642573 0.166121 0)
(0.0144719 0.135191 0)
(0.0141226 0.136577 0)
(0.0143181 0.133832 0)
(0.0139565 0.135306 0)
(0.0141625 0.132442 0)
(0.0138035 0.133931 0)
(0.0140113 0.131057 0)
(0.0136565 0.132507 0)
(0.0138694 0.129649 0)
(0.0135179 0.131048 0)
(0.0137399 0.128208 0)
(0.0132886 0.133808 0)
(0.0131552 0.132303 0)
(0.0129099 0.134986 0)
(0.012784 0.133431 0)
(0.0125235 0.136001 0)
(0.0124106 0.134383 0)
(0.012134 0.13683 0)
(-0.00172989 0.115072 0)
(-0.00193482 0.11401 0)
(0.0120323 0.135186 0)
(0.0117418 0.137513 0)
(0.0123085 0.132724 0)
(0.0100161 0.163855 0)
(0.00775715 0.135579 0)
(0.0124243 0.105082 0)
(0.00138658 0.142865 0)
(0.00163376 0.138748 0)
(-0.00091761 0.0646443 0)
(-0.00069185 0.0427681 0)
(-0.000687692 0.0374164 0)
(-0.000753974 0.0478147 0)
(-0.000814168 0.0531458 0)
(-0.00119849 0.0684214 0)
(-0.00101046 0.0565728 0)
(-0.000918766 0.0510454 0)
(-0.000934805 0.0798602 0)
(-0.000187129 0.114832 0)
(7.69865e-05 0.115378 0)
(6.76147e-05 0.11363 0)
(0.000334681 0.11409 0)
(0.000311923 0.112327 0)
(0.000579623 0.112699 0)
(0.000545572 0.110899 0)
(0.000811877 0.111214 0)
(0.000769029 0.10943 0)
(0.00102732 0.109611 0)
(0.00096065 0.107828 0)
(0.00122399 0.107887 0)
(0.00113967 0.106036 0)
(0.00141605 0.106113 0)
(0.00132782 0.104219 0)
(0.00164265 0.104283 0)
(0.00149541 0.102286 0)
(0.00176973 0.102025 0)
(0.00163254 0.100242 0)
(0.00188515 0.0999588 0)
(0.00175879 0.0981416 0)
(0.00200409 0.0978334 0)
(0.00188261 0.0959809 0)
(0.00213555 0.0995898 0)
(0.00224811 0.0973978 0)
(0.00239223 0.0991236 0)
(0.00249392 0.0968297 0)
(0.00265067 0.0985621 0)
(0.00273806 0.0961831 0)
(0.00290634 0.0978602 0)
(0.00297729 0.0953867 0)
(0.00316135 0.09702 0)
(0.00321801 0.0944524 0)
(0.00302341 0.0925723 0)
(0.00341684 0.0960624 0)
(0.00345258 0.0933987 0)
(0.00366863 0.0949333 0)
(0.00368039 0.0921599 0)
(0.00390843 0.0936379 0)
(0.00390732 0.0908249 0)
(0.00414065 0.0922474 0)
(0.00412618 0.0893608 0)
(0.00436764 0.0907327 0)
(0.00433453 0.0877674 0)
(0.00458647 0.0890908 0)
(0.00408996 0.086402 0)
(0.00415054 0.0950512 0)
(0.00453403 0.0860464 0)
(0.00479528 0.0873013 0)
(0.00472344 0.084184 0)
(0.00499246 0.0853714 0)
(0.00506539 0.0884684 0)
(0.00526932 0.0864647 0)
(0.00534477 0.0895092 0)
(0.00555405 0.0874475 0)
(0.00545789 0.0843849 0)
(0.00574909 0.0852857 0)
(0.00563074 0.0904485 0)
(0.00563157 0.0821941 0)
(0.00592892 0.0829981 0)
(0.00578947 0.0798615 0)
(0.00609334 0.0805738 0)
(0.00593208 0.0773818 0)
(0.00624136 0.0780259 0)
(0.00640577 0.0811797 0)
(0.00655685 0.0785579 0)
(0.00672523 0.0816521 0)
(0.00687762 0.0789455 0)
(0.00668891 0.0758434 0)
(0.00701213 0.0761234 0)
(0.00705021 0.0819544 0)
(0.00680222 0.0730238 0)
(0.00713064 0.073176 0)
(0.00308539 0.0995235 0)
(0.00164252 0.0962503 0)
(0.00176208 0.0940845 0)
(0.00153213 0.0943746 0)
(0.00163925 0.0921741 0)
(0.00689298 0.0700676 0)
(0.00722861 0.0701089 0)
(0.00142475 0.0924782 0)
(0.0015218 0.090249 0)
(0.00132149 0.0905447 0)
(0.0014119 0.0883078 0)
(0.00122156 0.0885992 0)
(0.00130738 0.0863498 0)
(0.00112659 0.086638 0)
(0.00120738 0.0843829 0)
(0.00138128 0.0840021 0)
(0.00127536 0.0820316 0)
(0.0014423 0.0815541 0)
(0.00133002 0.0795782 0)
(0.00148875 0.0789997 0)
(0.00137187 0.0770184 0)
(0.00122311 0.0776029 0)
(0.00126179 0.075028 0)
(0.00112132 0.0756141 0)
(0.00115992 0.0729831 0)
(0.0010247 0.0736135 0)
(0.00106108 0.0709582 0)
(0.000932698 0.0716192 0)
(0.000965441 0.0689761 0)
(0.000845207 0.069622 0)
(0.000874978 0.066981 0)
(0.000762105 0.0676262 0)
(0.000789491 0.0649885 0)
(0.00068309 0.0656335 0)
(0.000708715 0.0630079 0)
(0.00060839 0.0636465 0)
(0.00063281 0.0610375 0)
(0.000538758 0.0616825 0)
(0.00152143 0.0763004 0)
(0.000561629 0.0590727 0)
(0.000474033 0.0597154 0)
(0.000495074 0.057127 0)
(0.000416233 0.0576766 0)
(0.0004327 0.055215 0)
(0.000360723 0.0557672 0)
(0.00109218 0.0681738 0)
(0.000374188 0.0533381 0)
(0.000306943 0.0539583 0)
(0.000320508 0.0514558 0)
(0.00025467 0.0521366 0)
(0.00027017 0.0496081 0)
(0.000208318 0.0502738 0)
(0.000223879 0.0477717 0)
(0.000166691 0.0484419 0)
(0.000181174 0.0459655 0)
(0.000128291 0.0466367 0)
(0.00072717 0.0602536 0)
(0.000141328 0.0441769 0)
(9.30686e-05 0.0448607 0)
(7.46264e-05 0.0471934 0)
(4.37943e-05 0.045421 0)
(6.15303e-05 0.0431257 0)
(1.564e-05 0.0436868 0)
(3.31746e-05 0.0414185 0)
(-9.829e-06 0.0419859 0)
(-3.0768e-05 0.0441631 0)
(-5.31599e-05 0.042472 0)
(-3.2805e-05 0.0403215 0)
(-7.32341e-05 0.0408144 0)
(-5.33261e-05 0.0386897 0)
(-9.09006e-05 0.0391851 0)
(-7.15061e-05 0.0370888 0)
(-0.000106348 0.0375868 0)
(-8.74899e-05 0.0355191 0)
(-0.000119832 0.036023 0)
(-0.000140893 0.038007 0)
(-0.000151967 0.0364512 0)
(-0.000131491 0.0344956 0)
(-0.000161432 0.0349317 0)
(-0.000141425 0.0330057 0)
(-0.000169342 0.0334505 0)
(-0.00014975 0.0315558 0)
(-0.000175776 0.0320072 0)
(-0.000196899 0.0338211 0)
(-0.00020134 0.0323809 0)
(-0.00018082 0.0306027 0)
(-0.000204586 0.0309793 0)
(-0.000184565 0.0292349 0)
(-0.000206757 0.029617 0)
(-0.000187114 0.0279029 0)
(-0.000207823 0.0282899 0)
(-0.000228517 0.0299253 0)
(-0.000227956 0.0285986 0)
(-0.000207893 0.0269988 0)
(-0.000226722 0.0273214 0)
(-0.000206928 0.0257505 0)
(-0.000224237 0.0260553 0)
(-0.000244823 0.0275689 0)
(-0.000241212 0.0263085 0)
(-0.000218525 0.0245845 0)
(-0.000237504 0.025092 0)
(-0.00025737 0.0265119 0)
(-0.000252944 0.0253281 0)
(-0.000234672 0.0240124 0)
(-0.000247615 0.0241669 0)
(-0.000266697 0.0254004 0)
(-0.000260476 0.0242781 0)
(-0.000241524 0.0230235 0)
(-0.000253645 0.0231584 0)
(-0.000272961 0.0243655 0)
(-0.000265162 0.0232496 0)
(-0.000284398 0.0243844 0)
(-0.000275749 0.0232779 0)
(-0.000256934 0.0221407 0)
(-0.000266768 0.0221804 0)
(-0.000285368 0.0232537 0)
(-0.000275688 0.0221669 0)
(-0.000293773 0.0231661 0)
(-0.000283614 0.0220978 0)
(-0.000265692 0.021092 0)
(-0.000272993 0.0210334 0)
(-0.000290764 0.021987 0)
(-0.000279396 0.020928 0)
(-0.000297092 0.0218393 0)
(-0.000284879 0.020776 0)
(-0.000267496 0.0198754 0)
(-0.000272368 0.0197245 0)
(-0.000289525 0.0205842 0)
(-0.000276611 0.0195411 0)
(-0.000259713 0.0186863 0)
(-0.000293358 0.0203554 0)
(-0.000279955 0.0193195 0)
(-0.000296258 0.0200897 0)
(-0.000282409 0.0190645 0)
(-0.000298178 0.0197876 0)
(-0.000283779 0.0187655 0)
(-0.000299107 0.0194479 0)
(-0.000284048 0.0184184 0)
(-0.00029941 0.0190893 0)
(-0.000283168 0.0180249 0)
(-0.000268369 0.017374 0)
(-0.000298452 0.0186772 0)
(-0.000281639 0.0176124 0)
(-0.000296256 0.0182191 0)
(-0.000279498 0.0171824 0)
(-0.000293312 0.0177395 0)
(-0.000276096 0.016703 0)
(-0.000289291 0.0172222 0)
(-0.000313409 0.019273 0)
(-0.000312688 0.0208305 0)
(-0.000271435 0.0161741 0)
(-0.00028433 0.0166751 0)
(-0.000258614 0.0156596 0)
(-7.6947e-05 0.0445613 0)
(0.000443444 0.0525698 0)
(-0.000266171 0.0156311 0)
(-0.000278641 0.016109 0)
(-0.000297016 0.0171449 0)
(-0.000290777 0.0165507 0)
(-0.000309563 0.0175855 0)
(-0.000302729 0.0169626 0)
(0.000234698 0.0549444 0)
(-0.000283739 0.0159354 0)
(-0.000295091 0.0163193 0)
(0.0069619 0.0669837 0)
(0.0073004 0.0669442 0)
(0.00757251 0.0699916 0)
(0.00764212 0.0667681 0)
(0.00792366 0.0696894 0)
(0.00798727 0.0664317 0)
(0.00827331 0.0692348 0)
(0.00833604 0.0658898 0)
(0.0086197 0.0686553 0)
(0.00868625 0.0651259 0)
(0.00837368 0.0624778 0)
(0.0087282 0.0615065 0)
(0.00902074 0.0641209 0)
(0.0090824 0.0603927 0)
(0.00875228 0.0578399 0)
(0.00910853 0.0565942 0)
(0.00945135 0.0590198 0)
(0.0094683 0.0551526 0)
(0.00910523 0.0528052 0)
(0.00946174 0.0512704 0)
(0.00982811 0.0535078 0)
(0.0098184 0.0495215 0)
(0.0101861 0.0516474 0)
(0.0101747 0.0475237 0)
(0.00978414 0.0455226 0)
(0.0101384 0.0433959 0)
(0.010533 0.0452501 0)
(0.0104944 0.0410062 0)
(0.0100749 0.039309 0)
(0.0104282 0.0368248 0)
(0.010851 0.0383435 0)
(0.010779 0.0340803 0)
(0.0112035 0.0354298 0)
(0.0111258 0.0310684 0)
(0.0106801 0.0298966 0)
(0.01102 0.0268021 0)
(0.011478 0.0277794 0)
(0.0113602 0.023437 0)
(0.0108881 0.0226948 0)
(-0.000275888 0.0152975 0)
(-0.000286673 0.0156567 0)
(0.000580338 0.0661174 0)
(0.00700959 0.0638063 0)
(0.00667418 0.0637917 0)
(0.000231782 0.0451249 0)
(-0.000321976 0.017998 0)
(0.00108825 0.111396 0)
(-0.000267271 0.0146393 0)
(-0.000277502 0.0149759 0)
(-5.50945e-05 0.0349391 0)
(0.00669758 0.060558 0)
(0.00636559 0.0605118 0)
(-0.000257925 0.0139628 0)
(-0.000267617 0.0142787 0)
(-0.000287519 0.0152879 0)
(-0.000248044 0.0136244 0)
(0.00562989 0.076653 0)
(0.00636277 0.0572153 0)
(0.00603438 0.057114 0)
(0.000897617 0.0741343 0)
(0.00103381 0.0887931 0)
(0.00600632 0.0537608 0)
(0.00567908 0.0535844 0)
(0.000381882 0.0601085 0)
(-0.000166048 0.0274455 0)
(-0.000223727 0.0341175 0)
(-0.00093257 0.0946816 0)
(0.0106523 0.114081 0)
(0.0119327 0.133552 0)
(0.0122105 0.131036 0)
(0.00498248 0.13707 0)
(0.0153864 0.0485971 0)
(0.0163015 0.130219 0)
(0.0161759 0.13348 0)
(0.0164776 0.130979 0)
(0.0163591 0.13423 0)
(0.0166511 0.131705 0)
(0.0165429 0.13489 0)
(0.0168225 0.132353 0)
(0.0167239 0.135467 0)
(0.0169935 0.132906 0)
(0.0169014 0.136009 0)
(0.0171644 0.133348 0)
(0.0170825 0.136382 0)
(0.0173334 0.13366 0)
(0.0172615 0.136628 0)
(0.0174963 0.1339 0)
(0.0174339 0.136815 0)
(0.0176546 0.134054 0)
(0.0176001 0.136919 0)
(0.0178085 0.134065 0)
(0.0178596 0.131176 0)
(0.0180037 0.131037 0)
(0.0180487 0.128178 0)
(0.0181812 0.127873 0)
(0.0182255 0.125069 0)
(0.0183462 0.124712 0)
(0.0183915 0.121868 0)
(0.0185044 0.121494 0)
(0.0185464 0.118587 0)
(0.0186528 0.118129 0)
(0.0186911 0.115245 0)
(0.0187916 0.114706 0)
(0.0188289 0.111802 0)
(0.0189235 0.11119 0)
(0.018961 0.108288 0)
(0.0190501 0.107602 0)
(0.0177608 0.136887 0)
(0.0175488 0.13971 0)
(0.018888 0.11403 0)
(0.0177112 0.139726 0)
(0.0175059 0.142384 0)
(0.0176572 0.142559 0)
(0.0174476 0.145003 0)
(0.0176048 0.145272 0)
(0.0173806 0.147628 0)
(0.0175532 0.147899 0)
(0.0173233 0.150262 0)
(0.0177612 0.145368 0)
(0.017716 0.147982 0)
(0.0179069 0.145369 0)
(0.0171379 0.149841 0)
(0.0170719 0.152455 0)
(0.0178687 0.147934 0)
(0.018042 0.145261 0)
(0.0168744 0.151981 0)
(0.0167948 0.154444 0)
(0.018011 0.147773 0)
(0.0181659 0.145017 0)
(0.0166295 0.138616 0)
(0.0184399 0.118966 0)
(0.0177603 0.0948414 0)
(0.0140756 0.12664 0)
(0.0139386 0.125268 0)
(0.0142712 0.123498 0)
(0.0141274 0.122131 0)
(0.0144517 0.120233 0)
(0.0143109 0.118906 0)
(0.0146209 0.116865 0)
(0.0144744 0.115676 0)
(0.014784 0.113379 0)
(0.0146134 0.112325 0)
(0.0149367 0.109785 0)
(0.0147563 0.108767 0)
(0.0150805 0.106085 0)
(0.0143089 0.114913 0)
(0.0149005 0.105102 0)
(0.01522 0.102255 0)
(0.0150343 0.101366 0)
(0.0153494 0.0983577 0)
(0.0155383 0.0991197 0)
(0.0156601 0.0951147 0)
(0.0165905 0.15384 0)
(0.0164947 0.156136 0)
(0.0167028 0.156803 0)
(0.0163913 0.158316 0)
(0.0166011 0.159094 0)
(0.0162732 0.16039 0)
(0.0164825 0.161287 0)
(0.0161332 0.16234 0)
(0.0163471 0.163298 0)
(0.0159691 0.16413 0)
(0.00571294 0.164026 0)
(0.0181431 0.147396 0)
(0.0182783 0.144628 0)
(0.0183014 0.142291 0)
(0.0184002 0.141833 0)
(0.0158514 0.0957116 0)
(0.0159639 0.0916518 0)
(0.0159317 0.161274 0)
(0.00562426 0.0502287 0)
(0.00530296 0.0499857 0)
(0.00595309 0.0503295 0)
(0.00105471 0.104102 0)
(0.0161579 0.0921082 0)
(0.0162615 0.0879622 0)
(0.0164585 0.0883275 0)
(0.0165525 0.0840612 0)
(0.0163504 0.0837932 0)
(0.0166358 0.0797729 0)
(0.0154656 0.0944014 0)
(0.0168365 0.0799533 0)
(0.0169153 0.0755325 0)
(0.017115 0.0756273 0)
(0.0171874 0.0711056 0)
(0.0184238 0.139513 0)
(0.0185121 0.138963 0)
(0.0161741 0.165088 0)
(0.0157681 0.165741 0)
(0.0185362 0.136672 0)
(0.0186151 0.136071 0)
(0.0185911 0.13828 0)
(0.0186843 0.13539 0)
(0.01871 0.133205 0)
(0.0187709 0.132524 0)
(0.0187985 0.130351 0)
(0.0188539 0.129626 0)
(0.0188826 0.127503 0)
(0.0189341 0.126696 0)
(0.0189628 0.124639 0)
(0.0190124 0.123737 0)
(0.0190407 0.121722 0)
(0.0190881 0.120765 0)
(0.0191163 0.118817 0)
(0.0191605 0.117838 0)
(0.0191897 0.115917 0)
(0.0192312 0.114941 0)
(0.019262 0.112997 0)
(0.0182577 0.146931 0)
(0.0172401 0.130381 0)
(0.0164311 0.0795675 0)
(0.0147177 0.104085 0)
(0.00164811 0.0783138 0)
(0.00167173 0.0755151 0)
(0.00853301 0.0720284 0)
(0.0165742 0.1644 0)
(0.0118355 0.139162 0)
(0.0114264 0.139729 0)
(0.0115099 0.141377 0)
(0.0110845 0.141834 0)
(0.0110161 0.140179 0)
(0.0106611 0.142179 0)
(0.0107136 0.143839 0)
(0.0102792 0.144063 0)
(0.0103093 0.14574 0)
(0.00986836 0.145807 0)
(0.00987322 0.147473 0)
(0.00942856 0.147404 0)
(0.0094069 0.149031 0)
(0.00895553 0.148868 0)
(0.00890644 0.150453 0)
(0.00844897 0.150192 0)
(0.00836674 0.151737 0)
(0.00790448 0.151388 0)
(0.00800838 0.14985 0)
(0.0074613 0.150973 0)
(0.0073112 0.15248 0)
(0.00688029 0.151975 0)
(0.00668554 0.153443 0)
(0.00626576 0.152855 0)
(0.00603351 0.154267 0)
(0.00562088 0.153607 0)
(0.00534552 0.154955 0)
(0.00494999 0.154223 0)
(0.00462821 0.155511 0)
(0.00424809 0.154725 0)
(0.00458161 0.153444 0)
(0.00389232 0.153901 0)
(0.00350836 0.155131 0)
(0.00317789 0.154244 0)
(0.00274598 0.155434 0)
(0.00244789 0.154474 0)
(0.00197477 0.155651 0)
(0.00171153 0.154624 0)
(0.00119527 0.155728 0)
(0.000979496 0.154655 0)
(0.000420488 0.155621 0)
(0.000264173 0.15456 0)
(-0.000353804 0.155452 0)
(-0.000435449 0.154355 0)
(-0.00111393 0.15517 0)
(-0.00114245 0.15403 0)
(0.00944439 0.14576 0)
(0.0042341 0.152618 0)
(-0.0018479 0.153631 0)
(0.00758481 0.149445 0)
(0.0162845 0.155406 0)
(0.0159613 0.166675 0)
(0.0155182 0.167172 0)
(0.0153115 0.166222 0)
(0.015011 0.167494 0)
(0.0152117 0.168438 0)
(0.0146391 0.1686 0)
(0.0148213 0.169512 0)
(0.0141757 0.169543 0)
(0.0143126 0.170384 0)
(0.0136143 0.170319 0)
(0.0136515 0.171068 0)
(0.0129008 0.170895 0)
(0.012812 0.171563 0)
(0.0119853 0.171295 0)
(0.0117765 0.171914 0)
(0.0108978 0.171609 0)
(0.0105095 0.172172 0)
(0.0096366 0.171825 0)
(0.00898513 0.172352 0)
(0.0081385 0.171964 0)
(0.00701078 0.172505 0)
(0.00642417 0.172039 0)
(0.0112077 0.170897 0)
(0.00736147 0.171518 0)
(0.0134902 0.169609 0)
(0.00180598 0.0775127 0)
(0.00181815 0.0746563 0)
(0.00196169 0.0765867 0)
(0.00195907 0.0736272 0)
(0.00211426 0.0755345 0)
(0.00209779 0.0724688 0)
(0.00194133 0.0705588 0)
(0.00206748 0.0692932 0)
(0.00190963 0.0673758 0)
(0.00202247 0.0659989 0)
(0.00186376 0.0640822 0)
(0.00196267 0.0625921 0)
(0.0018047 0.060683 0)
(0.00212996 0.0644894 0)
(0.00205507 0.06098 0)
(0.00222901 0.0628435 0)
(0.00213866 0.0592427 0)
(0.00231821 0.0610632 0)
(0.00221001 0.0573453 0)
(0.00239584 0.0591319 0)
(0.00226755 0.055274 0)
(0.00246097 0.0570455 0)
(0.00208762 0.0534806 0)
(0.00231264 0.0530654 0)
(0.00251237 0.0548124 0)
(0.00234342 0.0507117 0)
(0.00254789 0.0524358 0)
(0.00272349 0.0565216 0)
(0.00276348 0.0541264 0)
(0.00535692 0.0532669 0)
(0.00498631 0.0495228 0)
(0.00503797 0.0527475 0)
(0.0046717 0.0488155 0)
(0.0047151 0.0518528 0)
(0.00436498 0.0479728 0)
(0.00441272 0.0509722 0)
(0.00406879 0.047061 0)
(0.0118337 0.131915 0)
(0.0121069 0.129384 0)
(0.0148037 0.166542 0)
(0.00553902 0.046775 0)
(0.00587133 0.046821 0)
(0.0106082 0.140521 0)
(0.000764289 0.153645 0)
(0.00256644 0.0499396 0)
(-0.00118541 0.152892 0)
(0.002509 0.0628735 0)
(0.00294554 0.0581834 0)
(-0.00082701 0.0724966 0)
(-0.000753538 0.0732905 0)
(-0.000734473 0.0714387 0)
(-0.000659219 0.0721526 0)
(-0.000645995 0.0702913 0)
(-0.000568787 0.0709121 0)
(-0.000561793 0.069056 0)
(-0.000483313 0.0695825 0)
(-0.000482157 0.0677336 0)
(-0.000482487 0.0714442 0)
(-0.000403579 0.06818 0)
(-0.000407259 0.0663218 0)
(-0.000329258 0.0666986 0)
(-0.000337087 0.0648271 0)
(-0.000409856 0.0644715 0)
(-0.000343842 0.0629642 0)
(-0.00041213 0.0626361 0)
(-0.000349365 0.0611116 0)