/*--------------------------------*- C++ -*----------------------------------*\
| =========                 |                                                 |
| \\      /  F ield         | OpenFOAM: The Open Source CFD Toolbox           |
|  \\    /   O peration     | Version:  v2012                                 |
|   \\  /    A nd           | Website:  www.openfoam.com                      |
|    \\/     M anipulation  |                                                 |
\*---------------------------------------------------------------------------*/
FoamFile
{
    version     2.0;
    format      ascii;
    class       surfaceVectorField;
    location    "150";
    object      Uf;
}
// * * * * * * * * * * * * * * * * * * * * * * * * * * * * * * * * * * * * * //

dimensions      [0 1 -1 0 0 0 0];


internalField   nonuniform List<vector> 
20673
(
(1.09986 0.160815 1.95037e-21)
(1.10464 0.159154 1.09838e-23)
(1.10029 0.155484 9.66922e-22)
(1.0278 0.0535668 4.93763e-22)
(1.02635 0.0526379 -9.61397e-22)
(1.02659 0.0550516 6.49542e-22)
(0.212769 -0.0264298 -2.08241e-20)
(0.235449 -0.0282689 5.12917e-21)
(0.254691 -0.0293599 -7.53458e-21)
(1.08251 -0.0220687 0)
(1.08268 -0.0200797 0)
(1.08078 -0.0209976 -1.10918e-20)
(0.996511 0.00572766 -1.56313e-21)
(0.996333 0.00532295 1.50226e-21)
(0.996033 0.00607255 -5.71104e-21)
(0.370517 0.0429766 1.20219e-20)
(0.35966 0.0155381 1.03535e-19)
(0.341439 0.0423501 0)
(0.18361 -0.0254675 2.46301e-20)
(0.178725 -0.0257973 -2.70011e-20)
(0.214848 -0.0285449 -3.76993e-20)
(0.247533 -0.0265269 -2.19661e-20)
(0.21552 -0.0250171 -3.16578e-20)
(0.226829 -0.0249862 -3.95165e-20)
(0.135425 -0.0182466 8.57019e-22)
(0.119966 -0.0173036 3.7899e-20)
(0.101609 -0.0160106 1.23284e-20)
(1.13515 0.195476 -6.32371e-21)
(1.14115 0.196734 1.20525e-20)
(1.13762 0.202017 2.80506e-20)
(1.24061 -0.0448694 -1.08053e-21)
(1.24005 -0.0479582 -3.40202e-20)
(1.25406 -0.0459065 2.00333e-20)
(1.17996 -0.062751 0)
(1.18284 -0.0646438 -1.44946e-20)
(1.18181 -0.060442 -2.36188e-20)
(1.08417 -0.0224065 0)
(-0.191371 0.00200146 3.10727e-20)
(-0.201491 -8.1292e-05 5.1723e-20)
(-0.191834 -0.000166941 2.53863e-20)
(0.97286 0.112284 3.90651e-21)
(0.968497 0.111437 9.70282e-21)
(0.971907 0.107594 -1.31717e-22)
(0.996576 0.108741 0)
(0.994258 0.105783 -5.16306e-22)
(0.998332 0.104716 3.48329e-21)
(1.01963 0.0601387 -3.07397e-22)
(1.02133 0.0598266 2.8976e-22)
(1.01998 0.0582464 1.26499e-22)
(1.18556 0.0657904 0)
(1.18516 0.0689186 0)
(1.18864 0.0666701 2.07848e-20)
(1.17838 -0.0658864 0)
(1.17661 -0.061827 0)
(1.00186 0.00599223 -3.14527e-22)
(1.00187 0.00571918 2.82796e-22)
(1.00164 0.00551039 -1.25278e-21)
(0.999982 0.00106368 -1.71089e-21)
(0.999971 0.0014437 7.51381e-21)
(0.999985 0.00107076 3.82625e-21)
(0.183564 -0.0261354 -5.46669e-21)
(0.155968 -0.0251735 4.76177e-20)
(1.00123 0.00943013 2.756e-21)
(1.00133 0.0100026 4.14192e-23)
(1.00145 0.00980398 -4.03607e-22)
(0.274862 -0.0297945 3.03515e-20)
(0.281615 -0.029715 4.84742e-20)
(0.995905 0.0199068 6.80001e-22)
(0.995405 0.0197294 6.49261e-22)
(0.995702 0.0206925 -5.69029e-22)
(0.229389 -0.0325288 2.49806e-20)
(0.201107 -0.0297475 -2.14622e-20)
(0.197085 -0.0304241 3.21596e-21)
(0.786989 0.0427791 7.18305e-20)
(0.77775 0.0479701 6.48858e-20)
(0.779504 0.0361372 2.01483e-20)
(0.755874 0.125759 -4.05553e-20)
(0.753815 0.138138 2.78197e-20)
(0.745405 0.128415 -7.89563e-20)
(0.684588 0.551767 -8.82165e-21)
(0.714655 0.564156 1.96131e-20)
(0.690831 0.595492 -6.46842e-21)
(1.20392 0.159807 -4.47069e-20)
(1.20504 0.155256 -8.45069e-21)
(1.20907 0.158084 -1.03786e-20)
(1.12156 0.151592 -3.94853e-21)
(1.11759 0.153822 -1.44099e-20)
(1.11759 0.148791 -2.80261e-20)
(1.07078 0.116908 4.97599e-21)
(1.0674 0.117113 -2.19137e-21)
(1.06895 0.11352 3.74026e-21)
(0.839237 0.0798714 -6.99814e-21)
(0.831323 0.0822592 -8.60434e-20)
(0.833072 0.0728432 -1.12776e-20)
(0.907846 0.0125698 -3.48881e-20)
(0.910671 0.00955398 -1.11849e-21)
(0.911856 0.0134612 -1.14035e-20)
(0.99195 0.0167722 -7.17859e-21)
(0.991428 0.0176422 0)
(0.992164 0.017776 3.01657e-21)
(0.912171 -0.0630409 1.42168e-20)
(0.90048 -0.0632585 -3.3661e-20)
(0.842519 -0.0614656 -2.22851e-20)
(1.00106 0.00901122 4.6463e-22)
(1.00121 0.00887553 9.60334e-22)
(-0.0774731 -0.00733598 3.20038e-20)
(-0.0985969 -0.00655113 1.02081e-20)
(-0.0901412 -0.00684075 -2.86794e-20)
(1.09569 -0.0281374 2.14127e-22)
(1.09767 -0.0294794 8.09159e-21)
(-0.00265148 0.00458311 1.03433e-20)
(-0.023313 0.00685014 -1.51986e-21)
(0.000602668 0.00661542 1.80081e-21)
(1.01022 0.00115096 -3.83188e-22)
(1.0107 0.00113178 0)
(1.00972 0.000659543 8.5205e-22)
(0.999995 0.000741238 -2.91827e-22)
(1 0.000341861 6.15623e-22)
(0.999999 0.000374334 -5.3835e-22)
(1.02572 0.00231414 -3.48106e-23)
(1.02536 0.00261205 4.19369e-21)
(1.02514 0.00219264 2.96233e-21)
(0.688052 0.197402 1.0776e-20)
(0.703837 0.205927 -5.35863e-20)
(0.686319 0.218838 -3.83936e-20)
(1.05038 0.0326702 4.33428e-21)
(1.05159 0.0337589 -4.4389e-21)
(1.05204 0.0325457 -2.11008e-22)
(0.890404 0.028522 6.45703e-21)
(0.889068 0.0238986 -2.52654e-20)
(0.894451 0.025111 1.10493e-20)
(1.18653 0.0619737 0)
(1.18244 0.0641149 -5.14117e-23)
(1.21211 0.0339623 1.55106e-20)
(1.20903 0.0353032 1.67105e-20)
(1.20962 0.0317732 1.61353e-22)
(0.0873356 0.0932144 0)
(0.0861242 0.128718 8.87106e-20)
(0.116219 0.108988 0)
(1.00386 0.000900734 4.11848e-22)
(1.00422 0.000819056 1.27321e-22)
(1.00415 0.00126271 6.1727e-22)
(1.11947 0.0304826 -1.09143e-20)
(1.12044 0.0322937 -1.04955e-20)
(1.12187 0.0301868 1.5202e-21)
(0.966249 0.0187946 4.46376e-21)
(0.965017 0.0175094 1.11613e-20)
(0.964647 0.0197189 -2.24161e-21)
(0.0825137 0.0636597 0)
(0.0487348 0.0919217 1.0851e-19)
(0.904711 0.0156671 -1.68983e-20)
(0.903663 0.0112162 1.34443e-20)
(1.0193 0.0619602 -7.34755e-22)
(1.01779 0.0601366 -1.16962e-22)
(1.11114 0.0603385 1.88597e-20)
(1.10955 0.06271 -2.41417e-21)
(1.11284 0.0631268 -1.10901e-20)
(1.24086 -0.0417074 3.46073e-20)
(1.23903 -0.0438406 0)
(0.996926 0.0387462 -3.11068e-21)
(0.99688 0.0370344 -1.16806e-21)
(0.998071 0.0381629 5.0145e-21)
(1.09069 0.0641608 1.90915e-20)
(1.09307 0.0659679 -1.46136e-20)
(1.09017 0.0671348 1.53123e-22)
(1.04878 0.032741 -8.46609e-21)
(1.04909 0.0315562 3.8987e-21)
(0.335812 0.0389339 -2.79179e-20)
(0.227039 0.0199665 -7.76723e-21)
(0.264893 0.0255072 -6.50112e-20)
(1.02936 0.0528224 7.98396e-22)
(1.02938 0.0552095 6.87631e-22)
(-0.193557 0.00419424 -7.77234e-20)
(1.00187 0.00623946 -1.94522e-21)
(1.00209 0.00646165 7.19034e-22)
(0.376824 0.0779164 -3.40613e-20)
(0.401465 0.0491127 7.70256e-20)
(0.913036 0.340596 -1.04229e-19)
(0.865173 0.312472 4.70668e-20)
(0.618019 0.2139 -8.73244e-21)
(0.995727 0.00203249 -3.4353e-21)
(0.995272 0.00238165 -2.791e-21)
(0.987691 0.00398152 9.41748e-21)
(0.988456 0.00371002 -2.19117e-20)
(1.2499 0.0169149 2.13637e-20)
(1.25008 0.014435 0)
(1.25989 0.0166613 -1.51644e-20)
(1.06203 0.165364 4.02406e-21)
(1.06749 0.166285 -1.45456e-20)
(1.06289 0.171718 -9.36723e-22)
(0.996928 0.00542346 -3.23858e-21)
(0.996666 0.00612948 0)
(0.170144 -0.0205633 -6.00761e-20)
(0.15086 -0.0189331 -6.37673e-21)
(-0.178301 -0.0114974 -9.36413e-20)
(-0.159741 -0.0121956 -5.2666e-20)
(-0.163995 -0.0121522 -9.30409e-20)
(0.996586 0.0200075 4.18385e-21)
(0.996242 0.0188907 -4.10038e-21)
(0.0859606 0.163045 1.66757e-20)
(0.11976 0.182926 -7.10789e-20)
(0.086767 0.201243 -1.44555e-19)
(1.17633 -0.09064 1.47046e-20)
(1.17299 -0.0898904 -5.37147e-21)
(1.17499 -0.0871212 -6.33769e-21)
(-0.21092 -0.00708786 2.40023e-21)
(-0.188839 -0.0082602 -7.20094e-20)
(-0.204592 -0.00610043 -3.01404e-20)
(1.07151 0.0375328 1.10959e-20)
(1.07327 0.0384904 0)
(1.07149 0.0396696 2.66782e-21)
(0.220295 -0.031678 -8.88017e-21)
(0.215978 -0.0325293 1.82374e-20)
(0.250749 -0.0356533 4.36764e-20)
(0.999944 0.00220724 -7.13216e-21)
(0.999894 0.00260613 2.11613e-22)
(0.999913 0.00264403 2.10763e-22)
(1.0001 0.00359124 1.34538e-21)
(1.00011 0.00397423 1.2513e-21)
(1.00013 0.003501 1.24996e-21)
(0.996138 0.00215244 -2.47922e-21)
(0.385499 0.104635 -4.60719e-20)
(0.394745 0.135112 -8.30325e-20)
(0.417064 0.112377 -3.15744e-22)
(-0.0539989 -0.00853982 -3.03886e-21)
(-0.0620751 -0.00825707 5.97188e-20)
(-0.0972313 -0.00783027 1.58422e-20)
(-0.125769 -0.010471 1.47817e-20)
(-0.117978 -0.0101053 2.01389e-20)
(1.06964 0.0366821 -4.44655e-23)
(1.0714 0.0356185 6.55549e-21)
(1.00047 0.00507469 -1.41732e-22)
(1.00052 0.00497506 1.6497e-21)
(1.00039 0.00456597 2.38306e-21)
(0.94492 0.371332 -4.53587e-20)
(1.08089 0.435117 -7.56884e-20)
(1.11779 0.0284513 1.22498e-21)
(1.11665 0.0308569 -1.1089e-20)
(1.02603 0.00211095 9.16169e-22)
(1.02625 0.00252154 -6.92921e-22)
(-0.122064 -0.0103965 2.14817e-20)
(-0.142675 -0.0101889 -5.15887e-20)
(-0.134719 -0.00997132 -1.56057e-20)
(1.18086 0.186141 3.2554e-20)
(1.17504 0.186457 3.63233e-20)
(1.1769 0.191314 -1.75844e-20)
(1.0302 0.0312156 3.22133e-21)
(1.03066 0.030222 -7.50515e-22)
(1.02935 0.0301218 0)
(0.975132 0.0645381 -7.47683e-21)
(0.972963 0.0658968 -8.40827e-21)
(0.975537 0.0673467 6.60229e-21)
(1.0519 0.421515 3.18649e-21)
(0.854703 0.349647 9.25534e-20)
(0.374631 -0.011035 6.68414e-20)
(0.403637 -0.0166232 -9.17476e-20)
(0.381733 -0.0452672 -9.23742e-21)
(1.2382 -0.0113014 1.15126e-20)
(1.23998 -0.0090116 0)
(1.24328 -0.0120198 -2.0378e-20)
(1.20258 0.0416704 3.0366e-20)
(1.20515 0.0438047 0)
(1.20204 0.045024 3.06329e-20)
(1.21018 -0.0985922 2.22943e-21)
(1.20746 -0.0998853 -1.99534e-20)
(1.20745 -0.10164 -4.67984e-20)
(0.589224 0.127743 -4.16529e-20)
(0.609749 0.114551 1.75806e-20)
(0.610373 0.140599 -5.18739e-20)
(1.01358 0.00711815 -1.01514e-21)
(1.01415 0.00725458 -5.01019e-22)
(1.01393 0.00774302 -6.38757e-22)
(0.840885 0.00789798 1.19417e-20)
(0.844096 0.0154788 -2.22376e-20)
(0.84854 0.00872665 -2.41924e-20)
(0.672167 0.189843 4.85346e-20)
(0.690596 0.182286 4.8311e-20)
(1.08315 0.0309721 -6.49896e-21)
(1.08502 0.0309071 2.75363e-21)
(1.08371 0.0288543 -2.09995e-21)
(1.02061 0.0157828 0)
(1.02064 0.0150551 0)
(1.02138 0.0157411 -1.31765e-21)
(0.147695 -0.0185644 8.14623e-21)
(0.142767 -0.0187948 2.95006e-20)
(0.184071 -0.0182178 1.13652e-21)
(0.789919 0.497904 -1.70935e-21)
(0.761536 0.513375 -3.9976e-20)
(0.798028 0.523399 3.297e-21)
(1.21499 0.0331161 -7.69918e-21)
(1.21414 0.0366272 -2.42085e-20)
(1.02319 0.0594586 -1.3458e-22)
(1.02306 0.0615675 1.82081e-23)
(1.11702 0.164433 2.98084e-21)
(1.11272 0.166344 5.5369e-21)
(1.11706 0.169759 -1.97604e-20)
(-0.16628 -0.0168907 3.25913e-20)
(-0.187635 -0.0173913 -1.94816e-20)
(-0.178946 -0.0168548 2.81377e-20)
(0.0141556 0.00127505 -1.92001e-20)
(-0.010356 0.00442234 3.52957e-20)
(1.19485 -0.0723915 0)
(1.19374 -0.0749014 2.4892e-20)
(1.19685 -0.0739751 -1.17106e-20)
(0.147342 -0.0178786 0)
(0.113685 -0.0187913 0)
(0.949111 0.018096 -1.44055e-20)
(0.947691 0.020222 4.39013e-21)
(0.947 0.017483 -2.69594e-20)
(0.0921839 -0.162454 -8.65267e-20)
(0.102861 -0.132747 -4.12573e-20)
(0.0653105 -0.138414 5.9841e-20)
(1.0018 0.0173263 8.68246e-22)
(1.00195 0.0181782 0)
(1.00151 0.0177734 0)
(0.178926 0.0714208 -9.87101e-22)
(0.209458 0.0547311 7.46005e-20)
(0.209297 0.0896285 2.142e-20)
(-0.113444 0.00184623 -6.04166e-21)
(-0.106854 0.00195305 4.20351e-20)
(-0.0903719 -0.00129442 -2.70971e-20)
(0.907122 0.0236548 -8.56174e-21)
(0.904223 0.0269021 1.22605e-20)
(0.908831 0.0274089 1.09606e-20)
(1.00001 0.00113278 1.78702e-21)
(0.999989 0.00111816 -2.60487e-21)
(1.24975 0.0195799 5.23387e-20)
(1.25107 0.0176384 5.26256e-20)
(-0.130617 -0.00093162 -1.35967e-20)
(-0.109334 -0.00241519 -1.38781e-20)
(-0.114741 -0.00204351 -1.25212e-21)
(0.758447 0.113985 0)
(0.76958 0.123241 0)
(1.0059 0.000803508 -2.9177e-23)
(1.00619 0.00116819 1.75932e-22)
(1.00631 0.000693184 -1.40781e-24)
(0.9751 0.0615656 8.39893e-22)
(0.977532 0.0630351 -3.72219e-21)
(1.04479 0.0365617 1.81691e-21)
(1.04575 0.0377923 1.72292e-21)
(1.0443 0.0377614 1.82444e-22)
(1.00552 0.000816096 -1.17176e-22)
(1.00535 0.000402988 1.19386e-23)
(1.02183 0.00210153 6.67655e-22)
(1.02209 0.00186593 -1.78921e-21)
(1.02169 0.0017858 -2.19146e-21)
(0.346738 -0.0113963 1.21876e-19)
(-0.020661 -0.00977934 4.11814e-21)
(-0.029797 -0.0078075 0)
(-0.0417092 -0.0063227 3.11724e-20)
(0.950645 0.0156149 -7.07247e-22)
(0.951658 0.0183383 3.84738e-21)
(1.05272 0.0348007 -3.26232e-22)
(1.05105 0.0349954 -8.34291e-21)
(0.999969 0.00103837 -3.69188e-21)
(0.999999 0.000699164 -3.766e-21)
(0.865307 0.0481823 5.79255e-20)
(0.909648 0.0542818 3.30989e-20)
(0.809649 0.0427953 2.75549e-21)
(0.306315 -0.0325582 1.33764e-20)
(0.268459 -0.0294008 -2.02726e-21)
(1.09911 0.16587 -1.25412e-20)
(1.09515 0.161884 1.15233e-20)
(0.572197 0.13777 4.46797e-20)
(0.574002 0.110321 -1.14737e-19)
(0.995235 0.00285051 -1.05161e-20)
(0.994773 0.00267883 -1.71456e-21)
(0.90575 0.0196625 -1.32526e-20)
(0.91001 0.0208219 -5.03793e-21)
(0.974814 -0.0606688 -2.15808e-20)
(0.983293 -0.0614798 1.81894e-20)
(1.04579 -0.060297 -3.19692e-20)
(1.03228 0.0165981 4.52293e-21)
(1.0322 0.0173731 3.03789e-21)
(1.03126 0.0166753 2.93251e-21)
(0.963499 0.0316441 4.27386e-21)
(0.961325 0.0325749 1.56752e-20)
(0.962052 0.029772 1.76748e-20)
(0.655076 0.192698 2.51983e-20)
(0.634334 0.197549 2.32313e-20)
(0.652062 0.215219 -7.33414e-21)
(0.987479 0.00473817 1.5713e-20)
(0.986885 0.00433204 2.08295e-20)
(0.288426 -0.0200699 0)
(0.243277 -0.018735 4.27634e-20)
(0.285818 -0.0197084 0)
(0.7714 0.59846 4.64768e-21)
(0.780743 0.57117 -9.85631e-21)
(0.747551 0.569704 1.75495e-20)
(0.967605 0.0203569 -6.85211e-21)
(0.968143 0.0180456 -8.14133e-21)
(1.03027 0.0138027 -4.3469e-21)
(1.03036 0.0145529 2.63821e-22)
(1.02944 0.0139 -2.59293e-21)
(1.06369 0.123992 9.42389e-21)
(1.05964 0.123884 8.9647e-21)
(1.06178 0.128507 0)
(1.19119 8.00859e-05 0)
(1.19435 -0.000322462 0)
(1.1917 0.00299267 2.59606e-20)
(0.117137 -0.182728 -4.47994e-20)
(0.0779634 -0.194084 4.65662e-20)
(1.21306 -0.0348025 -1.74122e-20)
(1.216 -0.033299 -7.13302e-21)
(1.21553 -0.0369149 2.10225e-20)
(1.01649 0.206983 7.25865e-22)
(1.02031 0.202289 1.57412e-21)
(1.02428 0.207217 1.5077e-21)
(1.09565 0.0895748 6.26664e-21)
(1.09276 0.0913519 0)
(1.09256 0.087677 -4.14271e-22)
(-0.0680015 0.00992159 -3.07439e-20)
(-0.0817923 0.0133613 -8.88186e-20)
(-0.107298 0.00791055 -3.22822e-20)
(1.05666 0.165034 -2.77258e-21)
(1.0604 0.160416 -1.75613e-22)
(0.678674 -0.0315252 -1.82443e-20)
(0.726574 -0.0286833 1.13156e-20)
(0.745805 -0.030315 1.03558e-20)
(-0.236553 -0.00794016 3.88618e-20)
(-0.21471 -0.00830009 3.4399e-20)
(0.91847 0.0575636 2.39994e-20)
(0.811863 0.0416692 -9.8737e-23)
(0.941179 0.0556187 0)
(0.938286 0.0573414 1.02301e-20)
(0.938205 0.053534 2.08466e-20)
(0.790439 -0.0204635 1.95012e-20)
(0.784449 -0.012197 2.25117e-20)
(0.778978 -0.0234137 -8.73592e-21)
(1.00002 0.00273203 -9.48228e-22)
(1.00004 0.00262931 6.83255e-22)
(0.999994 0.00222483 4.14647e-21)
(1.23702 -0.0147622 3.35605e-20)
(1.23457 -0.0113857 2.62879e-21)
(1.19614 -0.0693074 0)
(1.1926 -0.0701926 1.30471e-20)
(1.20931 -0.0968078 2.40669e-20)
(1.21214 -0.0957056 5.10014e-20)
(1.08261 0.0327955 1.89171e-21)
(1.08135 0.0308892 0)
(1.19783 0.0213818 2.20061e-20)
(1.19768 0.0184269 -1.14025e-20)
(1.20105 0.0200109 -1.2694e-20)
(1.04203 0.0271825 1.23729e-21)
(1.04311 0.028075 -2.31847e-21)
(1.04169 0.0283365 -2.76801e-22)
(0.837978 0.0015707 2.43158e-20)
(0.83318 0.00854447 2.71268e-20)
(1.0428 0.204276 -1.83383e-21)
(1.03564 0.202702 4.40247e-21)
(1.04163 0.19728 5.02303e-21)
(-0.257329 -0.0161113 -4.46301e-20)
(-0.269586 -0.0155934 6.7276e-20)
(-0.248112 -0.0157216 -4.31972e-20)
(1.19304 -0.0829855 -7.07878e-21)
(1.19622 -0.0839268 -4.97221e-20)
(1.1951 -0.0806144 -1.73084e-20)
(1.01815 0.069445 -3.51125e-22)
(1.01803 0.0715724 4.13731e-22)
(1.01602 0.0699904 1.33114e-22)
(0.357989 -0.0211752 3.4246e-20)
(0.351499 -0.0210116 -9.03398e-21)
(0.408656 -0.020018 3.06321e-20)
(1.00638 0.224113 -9.56232e-22)
(1.00273 0.228737 -9.91776e-22)
(1.01067 0.22955 -4.51333e-22)
(-0.0124598 -0.00984283 -4.23267e-20)
(0.00266725 -0.0110284 -4.40219e-20)
(0.148718 0.0530226 -8.6638e-21)
(0.14813 0.090092 -8.25648e-21)
(0.297207 -0.02016 0)
(0.344 -0.0191596 -3.32274e-20)
(1.01651 0.0337554 0)
(1.01738 0.0346485 0)
(1.01634 0.0348418 6.67192e-22)
(1.18628 0.186521 1.50645e-20)
(1.18417 0.181737 5.40806e-21)
(1.12623 0.154468 -2.24546e-21)
(1.12611 0.149442 -1.50534e-21)
(1.03322 0.016452 1.50912e-21)
(1.03223 0.0157834 -1.51046e-22)
(1.00044 0.00520755 0)
(1.00056 0.00562853 0)
(0.933188 0.131981 3.56052e-20)
(0.929412 0.12759 3.13685e-20)
(0.935725 0.127405 5.11639e-21)
(0.264556 -0.0364307 2.58285e-20)
(0.259653 -0.0352809 0)
(1.24328 0.212368 -2.15104e-20)
(1.24763 0.211777 8.49168e-21)
(1.24626 0.217555 9.17633e-21)
(-0.0544938 0.0108857 -3.06829e-20)
(-0.00185107 0.0226911 1.00511e-19)
(1.14732 0.0764712 0)
(1.14575 0.0792203 5.49698e-21)
(1.14937 0.0789639 0)
(1.21977 -0.077853 -2.24602e-21)
(1.21849 -0.0801792 -1.77591e-22)
(1.22086 -0.0793278 -1.64734e-20)
(0.990964 -0.0408141 2.39223e-20)
(0.944294 -0.0404759 1.83999e-20)
(0.939931 -0.040266 -4.0787e-21)
(-0.0655155 -0.00540088 8.95291e-21)
(-0.0744071 -0.00626395 9.43307e-20)
(1.23036 0.248158 -2.86286e-20)
(1.23198 0.242623 1.22942e-20)
(1.23539 0.246576 -5.82762e-20)
(1.00003 0.0101245 -3.11022e-21)
(1.00008 0.00958961 -5.02109e-21)
(0.999906 0.00949453 4.73314e-21)
(0.56542 0.0485151 0)
(0.569963 0.0687026 8.74681e-20)
(0.545551 0.0615028 -5.31985e-20)
(0.795561 0.0398019 -4.16182e-21)
(0.794394 0.0508784 -3.23233e-20)
(1.01177 0.000479083 -1.66437e-21)
(1.01132 0.000474454 0)
(1.02968 0.0320392 1.67659e-21)
(1.03107 0.0322455 3.94101e-21)
(0.839173 0.468828 -4.50707e-21)
(0.835826 0.442245 3.19593e-21)
(0.861591 0.452384 3.57329e-21)
(1.13548 0.499828 2.78705e-20)
(1.12795 0.477229 -3.2513e-20)
(0.975177 0.410363 2.23728e-20)
(1.1133 0.000263813 -3.15147e-20)
(1.11544 -0.000655382 4.89011e-21)
(1.11537 0.00180101 -1.38088e-20)
(1.00364 0.00107767 3.71073e-23)
(1.00363 0.000672316 2.06471e-22)
(1.19284 0.0118229 -2.43753e-21)
(1.18941 0.012751 0)
(1.1929 0.0154775 -3.32743e-20)
(1.19095 -0.00323852 0)
(1.18789 -0.000127259 0)
(-0.192411 -0.0112717 -5.14542e-20)
(-0.196059 -0.0113791 6.85364e-20)
(0.878257 0.025417 2.86313e-20)
(0.894006 0.0247618 1.02911e-21)
(0.967819 0.0340093 2.97357e-20)
(0.992417 0.0161576 2.74472e-21)
(0.991925 0.016065 -9.9653e-21)
(0.995781 0.0390877 -7.00765e-21)
(0.996937 0.0401737 -6.23568e-21)
(1.20011 0.0395067 6.14621e-21)
(1.2031 0.038137 1.32028e-21)
(0.234272 -0.0316966 2.59414e-20)
(0.274901 -0.0346039 7.01121e-21)
(0.260891 -0.033433 0)
(0.965394 0.0304699 -1.67897e-20)
(0.965119 0.0330321 -1.71468e-20)
(0.172385 -0.0254552 -1.54571e-20)
(0.164671 -0.0248629 4.0653e-21)
(0.202289 -0.027358 0)
(-0.234476 -0.011088 -2.92815e-20)
(-0.214407 -0.0106606 6.91751e-20)
(-0.23155 -0.0107791 -1.6689e-20)
(1.21674 -0.0755298 0)
(1.22157 -0.0752326 2.48375e-20)
(1.01998 0.0156959 0)
(1.02059 0.0163758 -2.0352e-21)
(0.47567 0.373819 3.58179e-20)
(0.493378 0.409071 8.58845e-20)
(0.441108 0.40711 8.29997e-20)
(1.19203 0.0336378 1.07172e-21)
(1.19486 0.0354972 2.37556e-20)
(1.19159 0.0369156 -2.76309e-21)
(-0.258472 -0.0161282 -4.00194e-21)
(-0.234997 -0.0169441 3.43344e-20)
(-0.249045 -0.0148472 -2.87111e-20)
(1.00442 0.0230656 -3.8073e-21)
(1.00489 0.0235874 -1.41619e-21)
(1.00447 0.0240869 -3.40094e-21)
(0.452423 0.0605059 -1.14936e-20)
(0.419006 0.0564418 5.224e-20)
(1.01554 0.032737 0)
(1.01657 0.0326563 -1.00299e-23)
(1.20927 0.135812 2.94645e-20)
(1.20688 0.132413 0)
(1.20516 0.136135 0)
(1.01004 0.00149788 -3.38169e-22)
(1.00978 0.00103985 -6.33874e-22)
(-0.0819938 -0.00897342 4.62568e-21)
(-0.102045 -0.00935625 -5.0054e-20)
(-0.0886738 -0.00858802 -3.47805e-20)
(0.138448 -0.0186221 -7.81269e-21)
(0.133769 -0.0186339 -2.7914e-20)
(0.17312 -0.0177999 -1.91684e-20)
(0.995779 0.112314 0)
(0.999763 0.111281 3.59541e-21)
(1.13287 0.513983 5.44998e-20)
(1.15628 0.520653 3.47846e-22)
(1.14567 0.499201 -1.72791e-20)
(1.09886 0.0911127 1.09081e-20)
(1.09797 0.0875419 -9.34879e-21)
(1.0191 0.0155381 -6.1845e-22)
(1.01922 0.0148406 0)
(0.966192 -0.0662503 3.42062e-20)
(0.909573 -0.0636186 1.63503e-20)
(1.19095 -0.0852813 2.76253e-20)
(1.19006 -0.0820461 4.67422e-21)
(1.14545 0.0739812 0)
(1.14868 0.0737533 0)
(0.293943 -0.0309319 2.2815e-20)
(0.263592 -0.0299575 5.06994e-20)
(0.310588 -0.0321374 1.20871e-21)
(-0.238832 -0.00940616 -1.15149e-20)
(-0.253149 -0.0100273 6.75251e-21)
(1.01476 0.0038806 -8.09137e-22)
(1.01525 0.00393923 5.52218e-22)
(1.01497 0.00341159 -1.79289e-21)
(1.07417 0.116388 1.2793e-21)
(1.07277 0.120352 2.78014e-23)
(-0.106674 -0.0110124 1.22566e-20)
(-0.0992304 -0.0107314 3.52963e-20)
(-0.134888 -0.0103383 -1.45776e-20)
(-0.155144 -0.012195 -3.64574e-21)
(-0.137723 -0.0104655 -1.75736e-20)
(1.00001 0.00270108 -4.78602e-21)
(0.999992 0.00318012 -1.56492e-21)
(1.0074 0.0110725 8.97421e-24)
(1.00792 0.0114113 -1.19613e-22)
(1.00764 0.0116615 -1.6499e-22)
(0.0405282 0.00440569 -2.02455e-21)
(0.0601693 0.00206333 1.56121e-22)
(1.24918 -0.00310817 -4.73003e-21)
(1.24839 -0.005848 3.33372e-20)
(1.24864 -0.00585824 -2.34852e-20)
(1.00006 0.000145367 0)
(1.00003 0.000110358 1.45025e-21)
(1.00006 0.000182324 0)
(1.0451 -0.0737979 2.89672e-20)
(1.05367 -0.075568 -2.09406e-21)
(1.10567 -0.0759206 -1.70995e-20)
(1.225 0.0810922 1.12328e-20)
(1.22584 0.0775312 2.33266e-20)
(1.222 0.0785493 2.64168e-20)
(0.799677 -0.0200018 0)
(0.795581 -0.029876 0)
(1.09993 0.142043 7.50422e-21)
(1.10247 0.146496 0)
(1.10428 0.14129 -1.85713e-20)
(1.00004 0.00311907 0)
(1.00006 0.00260291 0)
(0.970877 0.23197 -2.36265e-21)
(0.973201 0.222379 0)
(0.963026 0.225618 2.46032e-22)
(-0.221641 -0.00904305 1.14269e-21)
(-0.221544 -0.00818978 2.60631e-20)
(-0.245141 -0.00807845 5.30075e-20)
(1.05514 0.00219816 -4.11648e-21)
(1.05551 0.00113054 -1.16493e-20)
(1.05668 0.00201792 -3.96339e-21)
(1.19675 0.204847 -1.50704e-20)
(1.1909 0.206432 2.62641e-20)
(1.19329 0.199626 -2.92911e-20)
(0.561194 0.154709 -1.97127e-20)
(0.575498 0.176028 -2.22737e-20)
(0.545529 0.17951 -1.08379e-20)
(1.04379 0.0352697 0)
(1.04523 0.0351797 3.90719e-21)
(0.996907 0.0355077 -1.79258e-21)
(0.995882 0.0359979 -7.14773e-21)
(1.19745 -0.0328666 0)
(1.20115 -0.0324752 -5.98378e-21)
(1.19931 -0.0358331 -1.57202e-20)
(0.0741446 -0.00420921 -1.12914e-20)
(0.0582571 -0.00128188 0)
(0.0550292 -0.00124452 -2.8902e-20)
(1.20992 -0.0366279 -8.495e-21)
(1.21036 -0.0326546 2.4152e-20)
(0.93598 0.136782 1.06842e-20)
(0.930143 0.137551 1.80524e-21)
(0.977014 0.11244 3.69592e-21)
(0.974054 0.116377 -1.5132e-21)
(1.00006 0.00031497 1.36913e-22)
(1.00005 0.000273767 -1.56854e-21)
(1.00002 0.000183356 -8.16729e-22)
(-0.151586 -0.000155924 0)
(-0.146296 -3.75892e-05 -3.47952e-20)
(0.242782 -0.012214 1.24325e-20)
(0.2983 -0.0117087 -1.24603e-20)
(0.296573 -0.010471 9.49494e-20)
(1.02192 -0.0898126 -2.94286e-20)
(0.998295 -0.0852388 -1.61124e-20)
(0.970007 -0.083977 3.20376e-20)
(1.0184 0.0154509 9.30495e-22)
(1.01904 0.0161516 -5.35058e-22)
(-0.201345 -0.0126858 -2.79155e-20)
(-0.180869 -0.0129064 -2.9448e-20)
(-0.187671 -0.0125565 1.4162e-21)
(-0.184327 -0.00343626 0)
(-0.182571 -0.00232578 0)
(-0.207479 -0.00222025 7.77859e-20)
(0.611705 -0.0320632 -2.09417e-21)
(0.634977 -0.0322059 -2.09054e-20)
(0.219686 -0.031995 -2.28733e-20)
(0.192813 -0.0303381 -1.98594e-20)
(1.17942 -0.0905732 2.55151e-21)
(1.17764 -0.0933038 7.86407e-21)
(1.00005 0.0036549 0)
(1.00759 0.000917357 7.90206e-23)
(1.00717 0.000977617 0)
(1.00766 0.00143343 4.66972e-22)
(1.1872 0.0592788 -1.2169e-20)
(1.18451 0.0574285 -3.67536e-20)
(1.18796 0.0561086 1.33682e-21)
(-0.124122 -0.00717346 -2.17891e-20)
(-0.141056 -0.00647583 -4.40475e-20)
(-0.143238 -0.00641865 -2.93198e-22)
(1.24049 0.0404442 -3.20025e-20)
(1.24072 0.0435189 -1.71912e-20)
(1.2435 0.0411363 -7.50642e-21)
(1.08824 0.0625929 9.29486e-21)
(1.09095 0.061489 1.40396e-20)
(0.859373 0.0252349 1.43589e-20)
(0.789528 0.0173299 -1.53305e-20)
(1.14216 -0.0621346 -1.46218e-21)
(1.13956 -0.0613595 -2.99941e-22)
(1.02159 0.00114257 0)
(1.02158 0.00143693 0)
(1.02184 0.00124846 0)
(0.565342 0.0416474 1.56745e-21)
(0.55715 0.0361339 -6.60321e-20)
(0.479348 0.0221763 -2.07824e-20)
(1.00236 0.00586643 1.74366e-22)
(1.00236 0.00560356 -1.19318e-21)
(1.00212 0.00543528 -1.22415e-21)
(0.35806 -0.0219546 -2.21104e-20)
(0.310978 -0.0215032 -4.14554e-20)
(1.11089 0.00159319 -4.77098e-21)
(1.11088 -0.000830128 -7.70935e-21)
(1.00007 0.000112673 1.25156e-21)
(1.0001 0.000179159 0)
(1.00163 0.12791 0)
(0.999957 0.132822 -2.62915e-21)
(0.997334 0.127835 3.03778e-21)
(1.01391 0.212731 -9.32684e-22)
(1.00998 0.206732 -2.49284e-21)
(0.778856 -0.00275954 5.43285e-20)
(0.789007 -0.00180464 -6.76733e-20)
(0.987709 -0.0707035 -1.5564e-20)
(1.03184 -0.0729193 6.96692e-21)
(0.995974 0.164457 4.03011e-21)
(0.995594 0.170659 0)
(0.990014 0.165927 0)
(1.05947 0.011586 0)
(1.06037 0.0129107 0)
(1.05872 0.0125438 -1.80096e-21)
(1.26769 0.11648 -4.64356e-20)
(1.26931 0.121607 2.59913e-20)
(1.19872 0.10689 5.63035e-20)
(0.319604 -0.0314061 0)
(0.275003 -0.0301176 -1.67928e-20)
(0.196392 -0.0164879 -5.87793e-21)
(0.200299 -0.0157968 -3.09054e-20)
(1.00389 0.0227553 0)
(1.00425 0.0222635 9.35941e-22)
(0.586124 -0.0273606 -8.62933e-21)
(0.639146 -0.0246222 2.5136e-20)
(0.572341 -0.0260661 7.94384e-21)
(0.998506 0.00146507 -8.56898e-22)
(0.998399 0.0017653 -1.2512e-20)
(0.998202 0.00166639 -4.86157e-21)
(1.05895 0.0102666 0)
(1.06058 0.0105249 -3.4041e-21)
(1.00163 0.0164259 8.55841e-22)
(1.00206 0.0168242 -5.85303e-23)
(0.798456 0.6289 2.21259e-21)
(0.752509 0.632313 5.8825e-21)
(1.00184 0.00110627 -1.19252e-21)
(1.002 0.000965381 1.78529e-22)
(1.00171 0.000866023 -1.77695e-22)
(1.21148 0.138862 2.85515e-20)
(1.21316 0.135232 -1.167e-20)
(1.09553 0.143688 -2.25441e-21)
(1.0969 0.138536 8.02607e-21)
(1.04086 0.0261909 -1.25346e-21)
(1.04227 0.0259743 -1.22493e-21)
(1.19567 0.0110687 -3.06341e-21)
(1.19231 0.00946377 -2.0719e-20)
(1.04608 0.0746679 -2.89463e-21)
(1.04735 0.072686 -4.25628e-22)
(1.04884 0.0750787 -2.37029e-21)
(0.118625 0.0312548 -1.34342e-19)
(0.105788 0.0134109 -2.5481e-20)
(0.103127 0.046675 -1.00671e-19)
(1.01071 0.219197 -4.98655e-22)
(1.00321 0.218652 -5.74716e-22)
(1.17347 0.180328 0)
(1.16913 0.185277 1.90586e-21)
(1.03913 0.0181329 0)
(1.04008 0.0190249 6.03965e-21)
(1.04015 0.0178465 2.22327e-21)
(0.997873 0.0349958 7.99184e-21)
(0.99691 0.03409 2.70625e-21)
(-0.178946 -0.016374 5.17574e-20)
(-0.194957 -0.0165287 0)
(-0.198065 -0.0168742 2.22183e-20)
(-0.141324 0.0013192 1.24119e-21)
(-0.148123 0.0011111 -2.50082e-21)
(-0.124413 -0.00083283 5.53107e-20)
(1.00199 0.0190454 -1.35747e-21)
(1.00233 0.0186051 0)
(1.00844 0.000854327 -4.49773e-22)
(1.00897 0.00114748 5.82341e-22)
(1.00847 0.00149497 1.17464e-21)
(0.56155 0.0397755 5.67809e-20)
(0.662167 0.0537822 4.1299e-20)
(1.02022 0.0319844 -3.89692e-22)
(1.02058 0.0332313 -3.02169e-22)
(1.02155 0.0326537 -5.90148e-22)
(-0.140381 -0.012632 2.93943e-20)
(-0.15469 -0.0120744 2.89638e-20)
(1.03809 0.0174973 -1.94657e-21)
(1.03808 0.0186239 0)
(-0.076064 -0.00873022 3.90102e-20)
(-0.0628082 -0.00861965 8.29512e-20)
(1.06651 -0.0112754 -3.24665e-21)
(1.06569 -0.0125278 4.18249e-21)
(1.06726 -0.0124224 -1.84484e-20)
(1.17952 0.366183 -1.19558e-20)
(1.1686 0.363945 -2.41919e-20)
(1.17169 0.376204 -4.03858e-20)
(1.14912 0.0220036 6.8942e-21)
(1.14772 0.0245402 -2.24963e-20)
(1.15107 0.024565 1.53656e-20)
(0.0891825 0.275071 5.9169e-20)
(0.088731 0.235478 5.6376e-20)
(0.122925 0.254484 1.40489e-19)
(0.944442 0.0568398 -8.96394e-21)
(0.944036 0.0532451 5.79417e-21)
(1.01526 0.075197 -3.38735e-20)
(0.94005 0.0646659 -4.70932e-20)
(0.503049 0.284319 1.21837e-19)
(0.47627 0.292909 -2.99375e-20)
(0.50258 0.316265 9.74016e-20)
(1.00592 0.128572 0)
(1.00364 0.124648 -1.59179e-21)
(1.24734 -0.00140698 4.32988e-21)
(1.25109 -0.000596938 -1.64848e-20)
(0.917651 0.520093 6.90753e-22)
(0.932913 0.538503 1.78118e-20)
(0.904483 0.541702 5.91842e-21)
(0.999232 0.0548558 1.93864e-21)
(0.997563 0.054273 -1.05031e-21)
(0.998067 0.0564314 -8.72818e-22)
(-0.0517436 -0.00705713 1.76892e-20)
(-0.0741517 -0.00536585 2.20838e-20)
(-0.0665115 -0.00597854 0)
(0.580956 0.0380461 -2.38182e-21)
(0.560747 0.0280006 0)
(-0.166583 -0.00290512 -1.95397e-20)
(-0.183524 -0.0034304 0)
(0.922746 0.0292633 5.3398e-21)
(0.919112 0.0305771 -1.27929e-20)
(0.921883 0.033359 2.52523e-20)
(-0.0714995 0.0026158 -8.25408e-22)
(-0.096925 0.00510981 -3.42508e-20)
(-0.0688024 0.00379806 -6.10766e-22)
(1.07793 0.116053 2.73977e-21)
(1.08004 0.12023 -8.98444e-22)
(1.08182 0.116466 1.08212e-20)
(-0.121431 -0.0139323 -4.84575e-20)
(-0.101629 -0.0131968 -7.99137e-20)
(-0.0950347 -0.0133865 -3.02946e-20)
(0.51098 0.254019 5.34075e-21)
(0.535125 0.278411 5.14457e-20)
(0.9063 0.365254 0)
(0.890324 0.361861 6.69327e-21)
(0.897727 0.379712 0)
(0.923628 0.371866 -2.8885e-21)
(0.917016 0.353234 0)
(0.195112 -0.0263607 0)
(0.176275 -0.0257158 3.46746e-20)
(0.999771 0.00294806 -1.92215e-21)
(0.999714 0.00333429 4.02494e-22)
(0.999744 0.00335929 -5.59837e-22)
(1.04987 0.204179 -4.64795e-21)
(1.04593 0.210648 -4.90435e-21)
(-0.142661 -0.0168022 3.13531e-20)
(-0.151268 -0.0169273 -7.76623e-20)
(0.984293 0.0387005 3.51887e-21)
(0.98337 0.0397826 -4.2614e-21)
(0.982958 0.0378934 -5.73719e-21)
(1.00516 0.089707 1.29279e-21)
(1.00611 0.087036 -4.26221e-21)
(1.00305 0.0873912 -4.08065e-21)
(-0.175361 -0.00190274 0)
(-0.170537 -0.00137439 3.21178e-20)
(0.81556 0.485832 0)
(0.846412 0.495355 0)
(1.02253 0.0658014 0)
(1.02245 0.0677439 -5.18057e-22)
(1.02466 0.0672588 1.57273e-22)
(1.04233 -0.0387956 1.20357e-20)
(1.04455 -0.040795 0)
(0.650672 0.545216 -1.30998e-20)
(0.677997 0.519441 3.59787e-20)
(1.01106 0.00632191 5.76726e-23)
(1.0116 0.00665488 3.79582e-22)
(1.01149 0.00604793 -2.1673e-22)
(-0.119661 0.00064338 1.94013e-20)
(-0.145129 0.00241858 3.48852e-21)
(0.951099 -0.0535282 6.23641e-21)
(0.899551 -0.0540786 -3.90637e-20)
(0.971286 -0.054838 3.04558e-20)
(1.00236 0.00612421 -4.54997e-24)
(1.00261 0.00631449 5.84132e-22)
(1.01239 0.0165463 -2.22766e-23)
(1.01173 0.0160642 7.9859e-23)
(1.01199 0.0168661 1.36241e-22)