/*--------------------------------*- C++ -*----------------------------------*\
| =========                 |                                                 |
| \\      /  F ield         | OpenFOAM: The Open Source CFD Toolbox           |
|  \\    /   O peration     | Version:  v2012                                 |
|   \\  /    A nd           | Website:  www.openfoam.com                      |
|    \\/     M anipulation  |                                                 |
\*---------------------------------------------------------------------------*/
FoamFile
{
    version     2.0;
    format      ascii;
    class       volScalarField;
    location    "400";
    object      k_0;
}
// * * * * * * * * * * * * * * * * * * * * * * * * * * * * * * * * * * * * * //

dimensions      [0 2 -2 0 0 0 0];


internalField   nonuniform List<scalar> 
13851
(
0.000207816
0.000156832
0.000156603
0.0147719
0.000148445
0.00015919
0.000158979
0.000148489
0.0419034
0.000148519
0.000178537
0.000148488
0.000149301
0.0213968
0.000172465
0.000188576
0.0124124
0.000149905
0.00101331
0.000207449
0.00017518
0.000157223
0.0278121
0.000149734
0.0631622
0.000189561
0.0479675
0.0677905
0.0432267
0.000147622
0.0329419
0.00015889
0.00020785
0.0558539
0.000171766
0.0441013
0.000149811
0.0480612
0.0470911
0.000149532
0.050933
0.0461794
0.00451703
0.000220546
0.0490168
0.000148258
0.000147054
0.00021048
0.000153886
0.000149241
0.0167894
0.000149486
0.000192594
0.000168727
0.0209932
0.000149512
0.000208257
0.0486925
0.0525386
0.0203665
0.000148535
0.0413431
0.000148622
0.000154151
0.000183059
0.000183551
0.0161573
0.00016749
0.000149973
0.0212489
0.0292995
0.000178968
0.000148874
0.0180785
0.000169865
0.000153781
0.0162937
0.000146993
0.0562838
0.000147991
0.000150072
0.000289115
0.000171227
0.0224735
0.0215678
0.0320154
0.000157537
0.0184741
0.000148513
0.0329646
0.000149603
0.000159026
0.00650067
0.028872
0.0416181
0.000200637
0.00014831
0.000199506
0.0175951
0.000196682
0.000193924
0.000162792
0.000163892
0.000149163
0.000148387
0.000177195
0.000148344
0.0310372
0.000158959
0.000149723
0.000161
0.000148311
0.000206786
0.000180737
0.00020844
0.000167787
0.000146984
0.000147897
0.0128684
0.0240823
0.000191288
0.00014889
0.000149817
0.035146
0.000289061
0.000173472
0.000148306
0.000173557
0.0481049
0.000178352
0.000157145
0.000164216
0.0267315
0.054495
0.000179221
0.0415375
0.00016708
0.0309611
0.000160919
0.000178472
0.000258797
0.00015105
0.000148543
0.000172649
0.0684764
0.000153207
0.000146904
0.0292874
0.0346635
0.000174314
0.000206297
0.000205092
0.00018189
0.000241435
0.000149886
0.000148832
0.000148622
0.0442013
0.000176592
0.000156882
0.000149583
0.0436345
0.000176907
0.000210512
0.0218296
0.0472898
0.0487627
0.020052
0.000160826
0.0766603
0.000148634
0.000146952
0.00018111
0.000148828
0.0441703
0.0419971
0.000218382
0.000146914
0.000170012
0.000214406
0.000283962
0.000219879
0.000160367
0.000178196
0.00516706
0.0355223
0.000207953
0.000158064
0.000149694
0.000147964
0.0607022
0.000176511
0.016648
0.000159452
0.000152942
0.000198544
0.000206798
0.000151639
0.000151004
0.000168071
0.000254592
0.0443548
0.0485208
0.000172398
0.000362585
0.0414395
0.000152707
0.000178919
0.0426037
0.00015808
0.000192965
0.000149744
0.000280205
0.000149535
0.0001724
0.000154954
0.000149143
0.000240054
0.000151416
0.000504025
0.000146886
0.000207023
0.0183796
0.042706
0.000157736
0.000179222
0.000149742
0.000171045
0.000148152
0.000172071
0.025716
0.00015765
0.000158063
0.000148735
0.0469088
0.000147668
0.0147595
0.0475196
0.000193191
0.000149645
0.000359244
0.0220458
0.050834
0.000189612
0.000167997
0.000175706
0.000232079
0.000170371
0.000199331
0.000162571
0.0184791
0.000204994
0.000147574
0.000160033
0.000195311
0.0419927
0.022662
0.00014788
0.000174049
0.000148485
0.000214866
0.000256399
0.000160767
0.000177341
0.000206357
0.000148569
0.000163417
0.000204253
0.0621189
0.000148541
0.000149106
0.00015787
0.0511217
0.00888604
0.000177659
0.000149068
0.000283157
0.000245816
0.000203088
0.000177181
0.0491359
0.0172742
0.000160831
0.000169568
0.0398239
0.000148443
0.000148613
0.000204182
0.000175502
0.000147866
0.000149516
0.000148126
0.000147918
0.000168257
0.000148571
0.0433424
0.000176137
0.000148996
0.0421811
0.0331608
0.000149604
0.00020795
0.0168992
0.000151294
0.000149677
0.000177019
0.0203365
0.0583523
0.000183993
0.00014836
0.0773129
0.000148586
0.000185284
0.0204457
0.0613081
0.000156509
0.0297758
0.00356682
0.0346407
0.000203853
0.000163546
0.0453611
0.039965
0.065496
0.000151258
0.0178909
0.00567639
0.000212499
0.000209368
0.000152732
0.000183193
0.000158639
0.0197905
0.000164078
0.00014715
0.000146085
0.000159547
0.0321125
0.000378504
0.000148388
0.0407665
0.000158687
0.000164463
0.000157167
0.0166832
0.000283962
0.000190718
0.000154534
0.000157364
0.0444348
0.000149735
0.000272105
0.000160757
0.000176932
0.000159361
0.000148507
0.000148973
0.000200143
0.0002001
0.000205694
0.0103566
0.0455818
0.000153333
0.0459566
0.000481051
0.000148399
0.0637169
0.000193767
0.0208366
0.000159015
0.000191463
0.0469757
0.0459389
0.000197721
0.0210773
0.000152382
0.0470782
0.00495649
0.000164825
0.0226575
0.000167053
0.0500708
0.000169163
0.000177692
0.00020474
0.000213732
0.000148847
0.000160023
0.000176491
0.000170252
0.000148394
0.000178027
0.0678106
0.000148868
0.000178841
0.00920806
0.000155862
0.00146366
0.000179512
0.0618047
0.000158771
0.000188465
0.0003049
0.000363552
0.000176642
0.0194117
0.0182632
0.000357577
0.000148592
0.000198476
0.000166963
0.000190988
0.000148812
0.00524935
0.0679908
0.0534626
0.000157324
0.000205591
0.0394394
0.00977718
0.000147089
0.0133051
0.000224307
0.0278709
0.00016324
0.0678084
0.000148807
0.000148755
0.017683
0.0394011
0.00014854
0.000156831
0.000179126
0.000147093
0.0705642
0.000183538
0.000193319
0.000160566
0.000152432
0.000149509
0.0363269
0.000148913
0.000149425
0.0644615
0.0693899
0.000156563
0.0375632
0.000148659
0.000148558
0.00015643
0.000206574
0.00017966
0.0001485
0.000153453
0.000190871
0.000155199
0.0624338
0.000148451
0.000163649
0.0498822
0.000161681
0.00014618
0.00014875
0.00016033
0.000152308
0.000342613
0.0616552
0.000168244
0.00060447
0.000156596
0.000148372
0.0473844
0.0447583
0.000160876
0.000149049
0.0382952
0.000160253
0.00124619
0.000149143
0.000164635
0.00019859
0.000171397
0.0432225
0.0423896
0.0477417
0.00015335
0.000205475
0.000148605
0.0418772
0.000179377
0.000206636
0.000166794
0.000154221
0.000161759
0.000181686
0.000148515
0.0100624
0.0453634
0.0644673
0.00565385
0.062735
0.0238927
0.000301515
0.00015724
0.000149336
0.00268417
0.000148514
0.000148353
0.000158461
0.045978
0.00015663
0.000150997
0.000175013
0.000175515
0.00014856
0.078036
0.000148254
0.0503512
0.000306168
0.000148004
0.000155889
0.000233253
0.064797
0.000147808
0.0660767
0.0131738
0.000149442
0.0406823
0.000603472
0.000206279
0.000153292
0.0651969
0.0208251
0.000149653
0.000323158
0.000149879
0.000148286
0.0639287
0.0506855
0.00017121
0.000179138
0.000148524
0.00018513
0.0500233
0.0438399
0.000150027
0.0170218
0.000148456
0.000149976
0.000176889
0.000164085
0.000147082
0.000153772
0.0421336
0.000210876
0.039422
0.000156001
0.000148481
0.0518917
0.000149144
0.000199373
0.000163158
0.000169738
0.00016759
0.0552062
0.0206254
0.000159354
0.0124618
0.000155891
0.000182516
0.0472844
0.0260401
0.000149731
0.000148624
0.000164141
0.0403353
0.033575
0.000184706
0.00565136
0.000164307
0.000168384
0.032226
0.0772835
0.000183968
0.0488045
0.000250167
0.0473829
0.000151718
0.0547404
0.0599975
0.00014849
0.00738752
0.0699197
0.000160904
0.00017841
0.000149329
0.000510251
0.00017739
0.047727
0.000148953
0.000149021
0.000155898
0.000174968
0.000148511
0.0436727
0.000148981
0.000207793
0.000153293
0.00019147
0.000149152
0.00014859
0.000169005
0.0172173
0.000176264
0.040111
0.00016467
0.000147171
0.000149001
0.000181384
0.000153384
0.000190491
0.000157438
0.000160565
0.0519495
0.000149153
0.0194837
0.000149668
0.000199277
0.0142693
0.0501523
0.000157047
0.0408945
0.000174367
0.000205301
0.0682912
0.00015039
0.0760962
0.000158739
0.000165674
0.00717522
0.0410548
0.000148604
0.000189922
0.000151561
0.044764
0.0176674
0.000150464
0.000167994
0.071571
0.000149736
0.000149658
0.000189932
0.0168346
0.0666674
0.00014969
0.000204252
0.000154726
0.00014863
0.0544103
0.000205004
0.00019577
0.000146665
0.000204225
0.000164776
0.000186746
0.000150898
0.000152631
0.000176165
0.0001557
0.000208024
0.000178947
0.000178754
0.000180299
0.000176236
0.000638374
0.0661166
0.0613087
0.000211589
0.0280795
0.000164545
0.0634066
0.000207891
0.00014947
0.00016771
0.000256166
0.000158533
0.000147967
0.000147906
0.000199229
0.0186001
0.000163816
0.0450812
0.000147204
0.066526
0.000179861
0.016063
0.000189429
0.000158966
0.000156704
0.0189018
0.000196284
0.000164219
0.0429998
0.000152059
0.00264825
0.000199552
0.000214671
0.000165899
0.000349038
0.000148804
0.000149609
0.000152263
0.000148657
0.0466343
0.000147907
0.0511201
0.0498973
0.000189939
0.0450542
0.0196473
0.000212768
0.00021039
0.000157159
0.000149136
0.00014902
0.000146909
0.000148946
0.000148845
0.000183039
0.000204999
0.000165449
0.0642867
0.000152687
0.0414317
0.000149953
0.0172075
0.000169808
0.000149879
0.000148826
0.0497255
0.000159402
0.069627
0.0704893
0.000177729
0.000186153
0.000149407
0.0538924
0.000154277
0.000156722
0.0537297
0.000149158
0.000150998
0.000149845
0.000179214
0.0197376
0.000162356
0.000166478
0.000230918
0.0411312
0.000157605
0.000157164
0.0480407
0.000146802
0.0468562
0.000149289
0.000155323
0.055838
0.000192619
0.000207351
0.000185398
0.000176564
0.000149469
0.000149954
0.000183657
0.000151909
0.000149525
0.000164837
0.000221513
0.000147819
0.000200777
0.000883615
0.0685659
0.000185188
0.033619
0.000161002
0.000149103
0.000196294
0.000147278
0.000160183
0.0675041
0.0457239
0.0758447
0.0507284
0.000150712
0.000150328
0.000170278
0.000152275
0.000148412
0.0226227
0.000220097
0.023595
0.000199781
0.000193239
0.00014872
0.000147663
0.00524374
0.000193161
0.000155936
0.000149657
0.000207625
0.000209428
0.0463184
0.000149834
0.00014894
0.0166813
0.000150834
0.000167319
0.000147074
0.0470087
0.000148672
0.0160406
0.000148523
0.00019045
0.000173077
0.000169812
0.000166307
0.000148856
0.000156742
0.000148048
0.0497337
0.000150891
0.0263281
0.000152348
0.0727807
0.048977
0.000164484
0.000147912
0.0103163
0.062581
0.000159955
0.000192713
0.000148989
0.0175635
0.000149618
0.000277664
0.000148424
0.000148028
0.0692315
0.000167902
0.000148688
0.000169295
0.0468734
0.000416715
0.070005
0.000147786
0.0302801
0.000148506
0.000147858
0.000149884
0.000145575
0.000149524
0.0697747
0.0676864
0.000151451
0.000148954
0.000171685
0.000148328
0.0130271
0.00019749
0.0243983
0.0464971
0.000156615
0.000207533
0.000148449
0.000174748
0.000176474
0.000150315
0.00014935
0.000631286
0.0189227
0.000185644
0.00615456
0.000185363
0.000148644
0.000172225
0.000193152
0.0147517
0.000167159
0.063747
0.000193698
0.000149455
0.0499485
0.0468287
0.0243876
0.0550166
0.0637398
0.000153313
0.000175441
0.000149426
0.0548002
0.000158014
0.000147172
0.0687508
0.000152417
0.000147917
0.000149761
0.000152079
0.0446057
0.00025635
0.000147572
0.000172701
0.0210344
0.000153105
0.00563389
0.000152099
0.000190819
0.0493263
0.000148594
0.0405831
0.000161032
0.000165542
0.000477736
0.000152417
0.000270901
0.000188114
0.0502617
0.000152307
0.0239122
0.00016432
0.0292741
0.0152231
0.0196421
0.000177946
0.000148919
0.000150774
0.000149735
0.000176374
0.000148772
0.0447718
0.000159641
0.000157212
0.000157441
0.000153202
0.000147703
0.000163178
0.000159202
0.000155831
0.000158256
0.0642769
0.0487595
0.000164113
0.000171109
0.0704465
0.000151097
0.0342318
0.000146803
0.000162159
0.000150911
0.000149112
0.000168068
0.000148347
0.000147537
0.000163502
0.000148886
0.000216264
0.000152939
0.00653576
0.0518047
0.000232808
0.000247609
0.000150814
0.0424525
0.000213058
0.000149473
0.000158996
0.000150768
0.0368462
0.000152059
0.000163375
0.0645043
0.00755212
0.00017932
0.000150589
0.0537473
0.0604041
0.063364
0.000160921
0.000147148
0.000150044
0.000184058
0.000148857
0.0177217
0.000201036
0.000149271
0.00048038
0.000220925
0.000149712
0.0664868
0.0145966
0.000220178
0.000152601
0.0540179
0.000182912
0.000148096
0.0191839
0.000156977
0.000149331
0.000148206
0.000168768
0.000176489
0.0457556
0.0355538
0.000176599
0.0483778
0.000169952
0.00014861
0.00016881
0.000147916
0.00319034
0.000150108
0.000148206
0.000153991
0.000151827
0.0496388
0.0201833
0.0206756
0.0200268
0.0685669
0.000157745
0.000148949
0.000152916
0.000295713
0.000150114
0.000150037
0.000170611
0.0621292
0.0447675
0.000147161
0.000166993
0.00016662
0.000205544
0.0053298
0.000149561
0.00014702
0.000156268
0.0429914
0.000164776
0.0495707
0.000152563
0.000149017
0.000149413
0.000148228
0.000154949
0.000210283
0.0487703
0.0478845
0.000157349
0.000148377
0.00154327
0.000152368
0.0712756
0.0259372
0.000158842
0.0194442
0.0455004
0.02999
0.000183564
0.000166974
0.0339306
0.000164947
0.000161219
0.000170632
0.000205776
0.000151666
0.00048449
0.000148634
0.0676864
0.0491179
0.000146801
0.000153465
0.00016834
0.000258595
0.000168113
0.000148869
0.000163349
0.000151958
0.000160263
0.000235914
0.000149024
0.0615079
0.0198706
0.000148694
0.000166029
0.000175974
0.000148524
0.0442077
0.0103767
0.0438275
0.0311132
0.00014827
0.000155375
0.00015841
0.000149966
0.0246234
0.00016855
0.000149683
0.000185908
0.000155376
0.0733109
0.000173308
0.0175743
0.0001518
0.00015307
0.000164229
0.000192641
0.000185322
0.000148516
0.0101724
0.0315914
0.0214067
0.0270446
0.0666876
0.0468445
0.0277732
0.000148471
0.000148462
0.000150613
0.0296976
0.000179081
0.000184922
0.0101216
0.000152023
0.000146301
0.000148538
0.0257698
0.000146893
0.000160956
0.000153532
0.0664571
0.000151724
0.000147287
0.000148562
0.000148786
0.000149005
0.000160772
0.0201358
0.000161347
0.0739477
0.000148402
0.000148273
0.0484839
0.0520862
0.0177368
0.0676277
0.000164569
0.0663136
0.000147091
0.000170484
0.000153017
0.000148541
0.000157877
0.0189883
0.000154189
0.000193021
0.00799987
0.000151905
0.000149025
0.000155696
0.000244323
0.000149799
0.0663544
0.000150549
0.0208738
0.000148781
0.000151373
0.000160207
0.000172396
0.000149343
0.0514335
0.0300041
0.0169706
0.0557461
0.00014879
0.0175295
0.0478869
0.000148398
0.048057
0.000149925
0.000162452
0.000149681
0.000152241
0.000147715
0.000148608
0.000151051
0.000156262
0.000185884
0.000150817
0.000148622
0.000166774
0.000148637
0.0739153
0.000148784
0.00016587
0.000170146
0.0241088
0.0583573
0.000148926
0.000216697
0.000147014
0.000167414
0.000174638
0.0672223
0.00017875
0.000149801
0.000202928
0.000168398
0.000192477
0.0413461
0.000161831
0.000201957
0.000184528
0.000186826
0.000151615
0.000148878
0.06873
0.00874419
0.000155783
0.000148076
0.00614688
0.000147277
0.000174022
0.000147905
0.000178614
0.0412148
0.00014676
0.0115717
0.000159127
0.000149072
0.000216632
0.000147153
0.000161938
0.0329203
0.000171946
0.0688554
0.000147688
0.000149748
0.000162959
0.000149467
0.000149607
0.000163327
0.000163574
0.000185794
0.000179988
0.000149306
0.000166929
0.000148682
0.000148411
0.000149391
0.000148406
0.000887586
0.000150024
0.000152221
0.0342944
0.00014724
0.000148001
0.052058
0.00014963
0.00808603
0.000154649
0.0552876
0.000264415
0.000165083
0.00333141
0.000179215
0.000276139
0.00015179
0.000213011
0.000158919
0.000148817
0.000148272
0.000152145
0.000165396
0.000148695
0.000172738
0.000147492
0.00015307
0.0050144
0.016724
0.000429642
0.00015768
0.000163693
0.0251413
0.0224416
0.000149099
0.000160681
0.000314288
0.000151148
0.000169842
0.00553956
0.0484338
0.000162174
0.000176651
0.00015179
0.000224761
0.000149891
0.000162086
0.0671757
0.000149649
0.000148802
0.0742444
0.000172171
0.0263815
0.0569584
0.0001993
0.000150437
0.000147511
0.000151511
0.0227978
0.0549821
0.0759751
0.000176055
0.000148697
0.0286389
0.000148687
0.000203956
0.000155806
0.00015571
0.000174777
0.000148402
0.06835
0.070037
0.000149806
0.000185114
0.000179768
0.00687773
0.000173149
0.000184666
0.0260149
0.000169999
0.04765
0.000185402
0.000148702
0.000171149
0.000168749
0.064487
0.000148254
0.0618659
0.000174117
0.000186344
0.000149804
0.0652105
0.000159908
0.000153096
0.000148399
0.000167937
0.000167455
0.000167344
0.000148809
0.000151506
0.000173561
0.00576238
0.000177136
0.000148987
0.000150845
0.00017121
0.000229992
0.000149093
0.000181717
0.0315079
0.000169065
0.0530313
0.000175945
0.0171315
0.000270483
0.000148506
0.0124202
0.000149551
0.000155727
0.000168297
0.000168537
0.000190956
0.000179106
0.000167111
0.000168654
0.000163936
0.000154171
0.000146818
0.000170738
0.00015895
0.000158144
0.0565038
0.000157485
0.00016021
0.000147934
0.021825
0.000180508
0.000149282
0.000157361
0.000151979
0.0201601
0.000200088
0.000168338
0.0495547
0.0398658
0.000466326
0.000191432
0.0432855
0.000147621
0.000186075
0.000150055
0.00015601
0.0400628
0.0442453
0.000398157
0.000889911
0.000148758
0.0171514
0.000147603
0.000192675
0.000155433
0.0657334
0.0683337
0.000161624
0.000148038
0.000289239
0.000162728
0.000148252
0.0271827
0.000148524
0.000153201
0.000159042
0.000149644
0.000163306
0.000152141
0.000148727
0.000164509
0.000297925
0.00017348
0.000177218
0.000148248
0.0201107
0.0458482
0.000147934
0.0364957
0.000155347
0.000157906
0.0739648
0.000147917
0.000151241
0.000157437
0.0315036
0.000148265
0.000149157
0.000171428
0.0632566
0.000147821
0.000160588
0.000162784
0.0558597
0.000173161
0.00017098
0.000369478
0.000148531
0.000173583
0.000146669
0.0189711
0.000162302
0.000148507
0.000162758
0.000187986
0.00014893
0.000151067
0.000207048
0.0548684
0.000152362
0.0201018
0.000149203
0.000146701
0.000183242
0.000148237
0.000150053
0.0741638
0.000149811
0.000172961
0.000215925
0.0386085
0.0508523
0.000150125
0.000153094
0.000157125
0.000148431
0.000148865
0.000148613
0.064548
0.000149261
0.0465749
0.000203565
0.000148795
0.000148803
0.000163144
0.000203631
0.0357946
0.000167591
0.000178188
0.000153823
0.0435728
0.000177683
0.00016744
0.000174986
0.000173295
0.000189394
0.0213944
0.000174752
0.0277335
0.0726215
0.0178954
0.000157355
0.000148972
0.000168795
0.000159924
0.00014919
0.000152443
0.000179539
0.000149594
0.000150763
0.000148345
0.000146787
0.00015578
0.000150416
0.0156845
0.000148016
0.0628952
0.000148484
0.000174841
0.000151827
0.000203706
0.000174762
0.000148933
0.0665104
0.000153032
0.000149469
0.000173862
0.000148611
0.000159746
0.000149948
0.0512996
0.000154584
0.000172957
0.000171057
0.0675617
0.000158934
0.0485665
0.0522818
0.00017103
0.000150726
0.000153476
0.000176828
0.000182094
0.0172214
0.000147989
0.0245496
0.000149604
0.000170421
0.0662351
0.000166575
0.0650365
0.000156113
0.000166198
0.000155051
0.0683452
0.00016311
0.000148857
0.000170111
0.000202934
0.000153548
0.00014842
0.000148876
0.0461562
0.000149659
0.000158202
0.0525623
0.000156269
0.000148538
0.00017299
0.00015572
0.071925
0.000146349
0.000148605
0.000147315
0.000155307
0.000151636
0.000150708
0.000185378
0.0482334
0.000148426
0.000148653
0.0758743
0.0001523
0.011895
0.000157286
0.0614999
0.000148456
0.000154199
0.000147031
0.0271574
0.0564645
0.000160178
0.000170127
0.000156012
0.000148702
0.000148731
0.0524594
0.000148818
0.000192719
0.00014881
0.000177715
0.000149215
0.0748405
0.000147226
0.000178139
0.000148407
0.000220179
0.00032659
0.000148417
0.00016749
0.0707851
0.00018668
0.0673634
0.0651706
0.000205163
0.000152285
0.00016724
0.000191658
0.0662861
0.000152362
0.000174337
0.00015728
0.000149078
0.0255099
0.0288809
0.00018628
0.000211644
0.000277002
0.000163881
0.0524622
0.000149167
0.000148327
0.000188746
0.0732045
0.000226345
0.000201768
0.0588681
0.000147134
0.0670498
0.0294679
0.0676333
0.000149298
0.0221134
0.0335237
0.000350099
0.00039818
0.0353636
0.000193515
0.000162928
0.000207472
0.000154905
0.00014885
0.00627902
0.000193491
0.000146733
0.0249103
0.000149211
0.000159448
0.000174672
0.000156213
0.0426963
0.000161136
0.00918258
0.000178186
0.000155417
0.071069
0.0512264
0.00020543
0.000150112
0.00015508
0.000184375
0.000169641
0.000147088
0.000174599
0.000168294
0.000199813
0.000148685
0.000217967
0.000154494
0.000170062
0.0645304
0.0499325
0.000151666
0.000186651
0.0238289
0.000149631
0.000151798
0.0621579
0.000240759
0.000155377
0.000156659
0.000148575
0.00017604
0.000159526
0.0465857
0.000190488
0.00015069
0.000149443
0.000167297
0.000160357
0.04603
0.0196054
0.000148179
0.000148278
0.000159397
0.00014925
0.000155702
0.000152099
0.000152562
0.000155278
0.000148255
0.000155053
0.000149539
0.000179075
0.0636503
0.000149742
0.0717465
0.0117043
0.000146706
0.000183542
0.000188198
0.000180583
0.000151312
0.000193667
0.000160635
0.000169401
0.00016386
0.000153269
0.000149344
0.0170981
0.000164407
0.0686286
0.00015125
0.000148586
0.000148186
0.000174661
0.000148353
0.000177613
0.000185001
0.00029198
0.000147751
0.0359888
0.0319743
0.0330783
0.000147084
0.000196797
0.00022197
0.0360682
0.037595
0.000150565
0.00015043
0.000195381
0.0578503
0.0673055
0.000173176
0.0402683
0.000149499
0.000149127
0.000165806
0.000149265
0.000149256
0.000201697
0.000149752
0.000170502
0.000148458
0.0520274
0.0690873
0.073453
0.0650925
0.0307347
0.0001493
0.000148919
0.0758697
0.000148217
0.000148502
0.000146769
0.000184856
0.055433
0.0182283
0.000156925
0.000151663
0.000152884
0.000164117
0.0210301
0.000148147
0.0655512
0.0534574
0.000149211
0.000149123
0.0284333
0.000191239
0.000155674
0.000148392
0.0711556
0.0306954
0.000150189
0.00021653
0.000149669
0.0347426
0.000192871
0.000156823
0.0209409
0.0117496
0.076176
0.000148298
0.000152259
0.000149605
0.000149897
0.0533431
0.000148315
0.000199325
0.0438683
0.0156448
0.00015241
0.000175454
0.0390845
0.000175173
0.0765693
0.0374227
0.000146151
0.000159105
0.000159169
0.000196989
0.0545283
0.000146547
0.020438
0.000161736
0.000175963
0.00015132
0.000147585
0.000238015
0.000169766
0.0143768
0.000149263
0.000175349
0.000152076
0.000203655
0.000156537
0.0470084
0.0677842
0.000203728
0.000197588
0.000148602
0.000153848
0.000192061
0.0001835
0.0507065
0.0724864
0.00014892
0.0663414
0.000171568
0.0517939
0.0001627
0.000171644
0.000170579
0.000150329
0.0748867
0.000148455
0.000166786
0.0292421
0.0513817
0.00130392
0.0529661
0.000158924
0.000177323
0.000148457
0.052324
0.000157926
0.0712626
0.000148487
0.0705404
0.000146807
0.000148096
0.000166169
0.000159286
0.000160825
0.000148891
0.0311077
0.000177506
0.000148344
0.000167438
0.027319
0.00022841
0.000148737
0.0410142
0.000154968
0.000169822
0.000168504
0.000146397
0.000179365
0.000148085
0.0423006
0.000174296
0.000162412
0.000148439
0.000245666
0.000171367
0.000148532
0.0742841
0.0554536
0.000268339
0.000149621
0.0543732
0.000148884
0.000192795
0.000162536
0.000182819
0.0566071
0.0295685
0.000160178
0.053458
0.000171395
0.000158665
0.000147587
0.0713106
0.000181115
0.000191038
0.000166434
0.000149589
0.0645478
0.00018461
0.000275119
0.0326716
0.0685429
0.0315057
0.0178318
0.023733
0.000158976
0.000159442
0.000148613
0.000150278
0.000146656
0.00021928
0.000159656
0.000160817
0.045257
0.000148161
0.000147191
0.00017604
0.00020362
0.00016194
0.000147833
0.0453158
0.000155644
0.000179442
0.000149991
0.0164985
0.000157938
0.0701602
0.000167663
0.000167437
0.000173065
0.000148576
0.00795041
0.0327136
0.000181403
0.000149255
0.000147342
0.0177569
0.0326187
0.0428384
0.000149398
0.000181532
0.0476763
0.000150475
0.000148021
0.000149784
0.0538413
0.000172729
0.00016453
0.000163364
0.000160208
0.0676487
0.000180974
0.000269122
0.000161707
0.000166504
0.00014682
0.000184747
0.00017466
0.000148571
0.0528038
0.0390307
0.0446784
0.0560982
0.0305514
0.0686898
0.0746176
0.000151783
0.000149997
0.0764533
0.0259551
0.0689773
0.000149356
0.00017251
0.000148687
0.000148409
0.0641837
0.0527636
0.000184158
0.000148122
0.0407892
0.00019301
0.000175928
0.0276841
0.0313266
0.0379511
0.000147372
0.0462726
0.0635554
0.000236385
0.000168326
0.000173495
0.000149472
0.000147565
0.00016984
0.000173633
0.00015497
0.000174409
0.000161862
0.000155296
0.0281594
0.0279022
0.000160143
0.000176044
0.0324009
0.0155226
0.000148698
0.000194489
0.000230442
0.0236769
0.000170784
0.000150532
0.00016332
0.00015855
0.000159383
0.000146429
0.000159624
0.000166638
0.000178181
0.000202582
0.000149497
0.000152793
0.0307564
0.0519576
0.0489187
0.0333569
0.000202466
0.000146467
0.000148594
0.000163676
0.000148264
0.067912
0.000148592
0.00014981
0.00014718
0.0517204
0.0152268
0.000150422
0.000184781
0.000159674
0.000162774
0.000162974
0.000160428
0.000173233
0.000167947
0.0156597
0.000159842
0.0276336
0.000168678
0.048102
0.00016181
0.000147485
0.000147492
0.000194066
0.000206861
0.000147038
0.000164075
0.000162176
0.000177225
0.0653454
0.0188282
0.0717775
0.000149809
0.0424855
0.000159684
0.000165938
0.000148416
0.000180756
0.00015356
0.0272447
0.000287594
0.000167402
0.000148532
0.0521292
0.000156343
0.026355
0.02532
0.0316293
0.000154522
0.000199876
0.0701279
0.0432849
0.0386733
0.000178432
0.000149345
0.000168688
0.000149608
0.0722166
0.00015487
0.0001638
0.0445882
0.0467632
0.000149103
0.000148687
0.0296914
0.000170948
0.0635649
0.000159371
0.000148381
0.000172275
0.000227446
0.000163269
0.0671598
0.000165823
0.0421659
0.00015683
0.000149604
0.000148632
0.0002209
0.000150974
0.000183783
0.000148776
0.000149523
0.000211531
0.000160409
0.000150279
0.000148255
0.000165752
0.0411825
0.00017659
0.000170247
0.000155901
0.000179386
0.000149105
0.000192716
0.000163858
0.000173963
0.000167424
0.000164135
0.000175906
0.000163961
0.00014946
0.000186077
0.0368534
0.0322655
0.000150801
0.000741714
0.0265696
0.000148551
0.000150928
0.000226549
0.0289502
0.00015673
0.0270655
0.000324142
0.000151332
0.000192688
0.00014654
0.000159252
0.000180212
0.0478415
0.000204211
0.0393269
0.0374939
0.0551515
0.0381654
0.00015586
0.0347523
0.000148526
0.0633236
0.035327
0.000148637
0.000148445
0.030647
0.000149234
0.000148562
0.0336219
0.0562547
0.000232341
0.000160614
0.0317413
0.000148596
0.0545337
0.0303732
0.000149209
0.0518755
0.0292023
0.0299348
0.0309025
0.031665
0.0289321
0.000147603
0.000151968
0.000180996
0.000184727
0.000148541
0.0192146
0.000148438
0.0329273
0.0321901
0.000165092
0.0283668
0.0340921
0.0309583
0.0234798
0.000166715
0.0136841
0.000280033
0.0001589
0.000146628
0.0650901
0.000162478
0.000148115
0.0635505
0.000148493
0.0662058
0.000149351
0.0524141
0.000159491
0.000148383
0.00382375
0.000156563
0.000161377
0.0275487
0.078747
0.000594381
0.000162913
0.000179158
0.000152436
0.000174898
0.000202475
0.000174942
0.000149348
0.000313524
0.000182099
0.000162985
0.0266462
0.000172499
0.000163361
0.00019981
0.000184607
0.000177609
0.000148364
0.000211108
0.000147549
0.000202815
0.0530069
0.0286223
0.00014734
0.000169727
0.0187826
0.000154725
0.000179688
0.000167571
0.000171748
0.0740155
0.000182478
0.000152354
0.0260072
0.00014735
0.0522956
0.000148785
0.000153553
0.000202997
0.0444452
0.000163147
0.000190038
0.000220341
0.000167072
0.000150869
0.000178149
0.000173136
0.0450192
0.000155785
0.00265666
0.000207212
0.000167325
0.00016296
0.000179645
0.000167751
0.000168301
0.000182652
0.000163683
0.000155577
0.000151586
0.00132532
0.000148741
0.000161561
0.000146414
0.000199726
0.000162285
0.000182967
0.0316922
0.000151524
0.000231335
0.000145632
0.000149424
0.000149214
0.000149323
0.000161682
0.000147823
0.000193153
0.0171584
0.000183179
0.000175816
0.000158766
0.000149676
0.0471644
0.000149037
0.0711305
0.0744835
0.0204056
0.000211412
0.000165221
0.000162338
0.000149138
0.000158896
0.000171628
0.000170445
0.0332058
0.000183391
0.0422536
0.000210875
0.000149353
0.000147117
0.0316702
0.000148607
0.0001641
0.000167149
0.000286737
0.000155329
0.0504533
0.000149091
0.000157063
0.000148695
0.000151048
0.000178012
0.000200017
0.000150511
0.000168667
0.000160367
0.000176736
0.000183478
0.000216904
0.000200021
0.000215049
0.00021088
0.000161788
0.000152692
0.000183578
0.0449955
0.0759596
0.0512733
0.000167259
0.0710594
0.000199994
0.000153049
0.000148056
0.000186772
0.000148912
0.000168878
0.016273
0.000148315
0.000148844
0.000427602
0.063703
0.00017937
0.000777559
0.000149248
0.0207031
0.000170332
0.0491587
0.000157755
0.00014917
0.0543175
0.000165903
0.000148784
0.000173248
0.00014966
0.000191308
0.000161328
0.000164744
0.0667651
0.000160341
0.0746077
0.000147931
0.0386329
0.000149364
0.000158551
0.000151165
0.000172642
0.000148882
0.000167193
0.0509268
0.000241587
0.000176288
0.000162487
0.000169124
0.000148879
0.000150006
0.000154069
0.0628641
0.000158834
0.0536576
0.025377
0.000190123
0.000149396
0.000193409
0.000206584
0.000204767
0.0001614
0.0267082
0.000148649
0.000146308
0.000148484
0.0382438
0.000150216
0.000148783
0.0517145
0.00014832
0.000202832
0.000172886
0.000149808
0.0500167
0.000164373
0.0515683
0.000149203
0.0612657
0.000152314
0.000167614
0.0233429
0.000184211
0.000148193
0.000162639
0.0716987
0.000168677
0.000194924
0.000165135
0.000157982
0.000188559
0.000159311
0.00015235
0.00498242
0.00016193
0.000164105
0.000194272
0.000148473
0.000148204
0.000149198
0.000167822
0.000149409
0.000156127
0.0739359
0.0125401
0.00017251
0.00714576
0.000186327
0.000171464
0.0480326
0.0362445
0.000150414
0.0115278
0.068689
0.0291315
0.00795063
0.000163695
0.0721037
0.052203
0.0401527
0.0103389
0.0737845
0.000163812
0.000170616
0.000158654
0.000160963
0.000150072
0.000330407
0.000149893
0.0139482
0.000175273
0.000198609
0.000145966
0.000188251
0.000164655
0.000152467
0.000149951
0.000148684
0.000174723
0.000155944
0.000152019
0.000175948
0.0403359
0.000156441
0.000193358
0.0001471
0.000174627
0.000170297
0.000149551
0.000157255
0.000147816
0.053129
0.0543738
0.00021323
0.00839997
0.000162457
0.000190827
0.000148825
0.000175964
0.00014901
0.000150841
0.00014952
0.0660969
0.000147774
0.000179713
0.000244761
0.000158569
0.000165605
0.000148302
0.0486313
0.00020887
0.0349702
0.0254422
0.00020328
0.000346043
0.0256896
0.000329676
0.0516961
0.0120525
0.000175159
0.000159616
0.028523
0.0534127
0.000148434
0.0147404
0.000189272
0.0681276
0.000146051
0.000184375
0.0510872
0.000149808
0.0161864
0.000154641
0.0193172
0.00014852
0.000149103
0.000179868
0.000183597