/*--------------------------------*- C++ -*----------------------------------*\
| =========                 |                                                 |
| \\      /  F ield         | OpenFOAM: The Open Source CFD Toolbox           |
|  \\    /   O peration     | Version:  v2012                                 |
|   \\  /    A nd           | Website:  www.openfoam.com                      |
|    \\/     M anipulation  |                                                 |
\*---------------------------------------------------------------------------*/
FoamFile
{
    version     2.0;
    format      ascii;
    class       surfaceVectorField;
    location    "400";
    object      Uf;
}
// * * * * * * * * * * * * * * * * * * * * * * * * * * * * * * * * * * * * * //

dimensions      [0 1 -1 0 0 0 0];


internalField   nonuniform List<vector> 
20580
(
(1.16978 -0.018434 -7.62671e-21)
(1.17091 -0.0171251 2.28503e-22)
(1.16866 -0.0174272 -3.5518e-20)
(1.0792 -0.0482575 -9.92204e-21)
(1.07922 -0.0495021 3.74913e-21)
(1.081 -0.0489123 -7.96634e-21)
(1.07907 -0.0465752 0)
(1.07724 -0.0472948 0)
(-0.181908 -0.00181842 -2.12633e-20)
(-0.163357 -0.00397325 -1.99181e-20)
(-0.181128 -0.00211672 -6.35504e-20)
(1.00237 -0.000618966 -2.5144e-21)
(1.00213 -0.000569187 1.33513e-21)
(1.00223 -0.000340152 -1.18766e-21)
(1.08568 -0.0647869 -1.34621e-20)
(1.08479 -0.066735 -3.89505e-21)
(1.08312 -0.0648634 -1.06998e-21)
(1.08454 -0.00940928 3.31242e-21)
(1.08556 -0.0088724 2.46926e-21)
(1.0173 -0.00131711 -8.7894e-24)
(1.01683 -0.00131939 -7.97353e-24)
(1.01606 -0.000824701 -1.23454e-21)
(0.045667 0.0175839 1.80686e-21)
(0.0486455 0.017695 1.78573e-21)
(0.0328088 0.0158591 -6.34973e-23)
(0.989695 -0.00783208 2.09497e-21)
(0.990182 -0.00710484 2.06812e-21)
(0.990558 -0.00777781 -5.69927e-21)
(1.14255 -0.13988 3.81535e-21)
(1.13809 -0.138807 -1.11794e-20)
(1.13974 -0.143554 -1.12769e-20)
(1.00099 -0.00884326 0)
(1.00117 -0.00923299 7.9456e-22)
(1.00099 -0.00928551 0)
(0.978134 -0.019625 7.79788e-21)
(0.977626 -0.020624 -7.9346e-21)
(0.978905 -0.0203321 -1.76857e-21)
(-0.0785547 0.00436225 4.66361e-20)
(-0.0871882 0.00370921 -1.89739e-20)
(-0.0736058 0.00573689 2.17167e-20)
(1.12272 -0.0312553 5.92881e-21)
(1.12433 -0.0318862 2.53534e-20)
(1.12247 -0.0328124 -9.41739e-21)
(1.14174 0.0133261 1.27594e-20)
(1.14083 0.0137309 6.6473e-20)
(1.14816 0.0136772 4.53358e-20)
(-0.25169 0.000987725 -5.89342e-20)
(-0.26581 0.00166058 -1.11906e-19)
(-0.258836 0.00378738 -5.53502e-20)
(1.04026 -0.0305932 -1.74087e-22)
(1.04136 -0.0309151 3.84215e-21)
(1.04067 -0.0317702 -1.19311e-22)
(1.21207 -0.0478883 -2.02541e-20)
(1.21389 -0.050521 -1.26196e-20)
(1.18228 -0.0446075 -3.68338e-20)
(1.1708 -0.0198513 4.10623e-20)
(1.16849 -0.0195946 -1.87607e-20)
(1.13197 -0.0412865 1.07917e-20)
(1.13033 -0.0424757 -1.37645e-21)
(1.12976 -0.0403226 2.51115e-21)
(1.03023 -0.106856 4.35927e-21)
(1.02695 -0.106568 -9.00572e-22)
(1.02909 -0.103498 -6.89942e-22)
(0.631928 -0.312485 7.41337e-20)
(0.491586 -0.248982 2.16238e-20)
(0.358788 -0.188728 1.56307e-21)
(1.00006 -0.000212833 1.17144e-22)
(1.0001 -0.000282959 -2.8651e-21)
(1.00006 -0.000179333 -4.05839e-21)
(0.841853 -0.0453797 -1.08031e-20)
(0.831093 -0.0446599 -4.40876e-20)
(0.734384 -0.0359336 -5.25435e-20)
(1.13225 0.00337153 -8.39527e-21)
(1.13282 0.00410791 -3.57552e-21)
(1.13335 0.00329772 0)
(0.869745 0.0256466 1.0385e-20)
(0.822729 0.0272587 -2.12349e-20)
(0.826736 0.0280666 -1.38172e-20)
(0.712228 0.0146542 -2.72162e-21)
(0.718536 0.0147279 -1.95582e-20)
(0.648993 0.0183482 -4.83136e-20)
(0.127565 0.018541 9.39426e-21)
(0.114193 0.0173681 1.56469e-20)
(0.109237 0.0169345 -6.64252e-21)
(1.02495 -0.0180676 1.49988e-21)
(1.02438 -0.0184028 1.42343e-22)
(1.02419 -0.0175521 5.44402e-22)
(-0.0959002 -0.0030374 -7.98135e-20)
(-0.116812 -0.00310338 -3.60955e-20)
(-0.0845451 -0.00370091 2.48685e-20)
(1.0849 -0.0102579 -1.23485e-20)
(1.08345 -0.00977059 -5.67088e-21)
(1.16616 -0.0137013 1.05051e-20)
(1.16524 -0.0123823 -4.40139e-20)
(1.16434 -0.0143248 -1.05942e-20)
(0.0836079 0.0251339 -5.67621e-21)
(0.078727 0.0251483 -5.61745e-21)
(0.107546 0.027138 2.35611e-21)
(1.11468 -0.120574 -7.07485e-21)
(1.11658 -0.117888 -1.9886e-20)
(1.11752 -0.122085 -3.83848e-20)
(0.128444 0.0179813 4.96042e-21)
(0.145898 0.0195946 0)
(0.133237 0.0178038 -2.33183e-20)
(1.00002 -0.000138234 9.46002e-22)
(1.00006 -0.000254561 2.59123e-21)
(1.00769 -0.166494 -3.76906e-20)
(0.906345 -0.145726 -5.38059e-21)
(0.877209 -0.13911 -4.73656e-21)
(-0.0780171 0.0114266 0)
(-0.0690302 0.0118398 -2.89646e-20)
(-0.0492475 0.0117508 0)
(1.00309 -0.0439079 2.54943e-21)
(1.00403 -0.0430402 1.8843e-22)
(1.00428 -0.0445372 -2.4368e-21)
(-0.00154706 0.0195809 -1.82715e-21)
(0.02184 0.0217642 -4.78621e-20)
(0.0033827 0.020245 -2.9774e-20)
(0.140505 0.0201396 9.35697e-21)
(0.145785 0.0202419 7.03432e-21)
(-0.229108 0.00372151 0)
(-0.231056 0.00269792 0)
(1.04949 -0.458474 2.91422e-20)
(1.03945 -0.464453 4.58428e-21)
(1.03669 -0.46982 4.34536e-20)
(0.153602 0.0230869 1.66759e-20)
(0.148166 0.0230639 1.39063e-20)
(0.133244 0.0206966 -1.48991e-21)
(1.01532 -0.0285967 -2.7466e-22)
(1.01448 -0.0284553 0)
(1.01487 -0.0275876 8.77151e-22)
(1.02905 -0.00093134 1.71097e-21)
(1.02902 -0.000649891 -8.72526e-21)
(1.14847 0.00766247 4.45302e-21)
(1.14785 0.00864021 8.18404e-21)
(1.14796 0.00794456 9.88827e-21)
(1.04252 -0.0748193 -1.5669e-21)
(1.04101 -0.0723388 1.78399e-21)
(1.04381 -0.0729616 -2.40738e-21)
(0.978617 -0.0184662 4.13193e-21)
(0.977141 -0.0187603 -1.35749e-20)
(-0.217472 0.00506985 -3.63303e-20)
(-0.216648 0.00438628 6.77878e-20)
(-0.240424 0.00397817 4.47493e-20)
(0.970678 -0.0119242 0)
(0.971943 -0.012082 0)
(0.970965 -0.0133013 1.30138e-20)
(1.14237 0.0128691 -5.13143e-20)
(1.14194 0.0126316 -6.02858e-20)
(1.10665 -0.00907635 2.92722e-21)
(1.10809 -0.00907106 1.00984e-20)
(1.10741 -0.00796847 5.59944e-21)
(-0.0537224 0.00268899 2.56667e-22)
(-0.0404116 0.00472713 5.08097e-20)
(-0.0566454 0.00275374 -4.45236e-21)
(1.00237 -0.0448719 -2.24969e-21)
(1.00204 -0.0432943 7.24973e-21)
(1.16764 -0.0126875 6.60228e-20)
(1.16717 -0.0147127 -1.37301e-20)
(-0.00792552 0.019819 1.94541e-20)
(-0.0222751 0.0166295 3.56014e-20)
(0.806933 0.0308189 -1.19983e-20)
(0.763471 0.0337995 -1.26981e-20)
(0.757345 0.0333306 1.38962e-20)
(-0.140542 0.00519778 1.38173e-20)
(-0.134441 0.00484673 -2.07285e-20)
(-0.123634 0.00609901 -2.23619e-20)
(1.00086 -0.00844706 6.16323e-22)
(1.001 -0.0084144 -4.05626e-21)
(0.91974 0.024366 -2.27749e-21)
(0.914972 0.0243401 2.66142e-20)
(0.995205 -0.00194293 4.54415e-21)
(0.995255 -0.0024027 -3.44278e-21)
(0.994738 -0.00235477 9.93718e-21)
(1.04117 -0.0760031 2.70695e-21)
(1.04367 -0.0763675 0)
(0.832403 -0.435562 -9.20813e-21)
(0.855416 -0.432075 -9.28435e-21)
(0.840762 -0.415262 -1.16417e-20)
(0.807451 -0.438724 4.81816e-21)
(0.82479 -0.462909 0)
(-0.147389 0.00299458 2.96348e-20)
(-0.159331 0.00294499 4.96988e-21)
(0.689722 -0.104261 8.24148e-20)
(0.682757 -0.120143 8.85604e-21)
(1.01933 -0.0490073 -4.57466e-22)
(1.01799 -0.0489297 5.00615e-22)
(1.01875 -0.0476732 0)
(-0.137375 -0.00071499 -4.7001e-20)
(-0.160433 0.00153293 6.74587e-20)
(-0.150932 0.000933634 -9.90374e-23)
(-0.142797 7.30472e-05 3.29272e-20)
(-0.164911 0.00143547 3.24967e-20)
(-0.144367 -0.00115367 -3.85112e-20)
(1.13969 -0.0415369 2.17298e-22)
(1.14005 -0.0432921 -9.59917e-21)
(1.14185 -0.0420466 2.95742e-21)
(0.991892 -0.0287183 -1.22667e-20)
(0.99107 -0.0282378 -2.76938e-21)
(0.991137 -0.0295432 -3.32424e-21)
(-0.131298 0.00489658 -3.88365e-21)
(-0.152338 0.00260036 -6.99458e-22)
(1.11235 -0.013667 -1.08516e-20)
(1.11127 -0.0144929 0)
(1.1127 -0.0148034 -2.5083e-21)
(1.0139 -0.0861969 0)
(1.01166 -0.0844529 0)
(1.01407 -0.0832546 -3.27932e-22)
(-0.239994 0.000977721 -5.39914e-20)
(-0.229573 0.00115864 2.46338e-20)
(1.02764 -0.0107766 1.41704e-21)
(1.02721 -0.0111825 1.84932e-21)
(1.02822 -0.0114237 -2.01083e-21)
(0.846282 -0.0450875 6.51148e-20)
(0.958897 -0.0596853 5.28054e-20)
(1.00458 -0.0211356 -5.14495e-21)
(1.00444 -0.0203494 -1.68298e-21)
(1.00401 -0.0206651 -5.81683e-22)
(1.02076 -0.0493678 -4.16915e-22)
(1.01983 -0.050657 6.65233e-22)
(1.22661 -0.149588 -5.20417e-21)
(1.22818 -0.145392 9.09908e-21)
(1.23543 -0.150666 3.89001e-20)
(1.11129 -0.119592 1.42382e-20)
(1.11202 -0.12364 2.63769e-20)
(-0.0901307 0.00399828 9.21657e-21)
(-0.0840738 0.00383132 7.93001e-21)
(-0.0736377 0.00669326 -1.4497e-21)
(-0.129293 0.00443206 5.0199e-20)
(-0.115113 0.00625045 -3.15775e-20)
(-0.128515 -0.00137791 4.26941e-20)
(-0.123091 -0.00180496 6.97011e-21)
(-0.100128 -0.00358989 -3.27583e-20)
(1.03185 -0.109825 -1.95737e-21)
(1.03345 -0.106626 8.45087e-22)
(0.00569159 0.000579164 -1.96586e-20)
(-0.00997609 -0.00153577 1.67279e-21)
(0.00658937 0.0012687 -1.92714e-20)
(0.990194 -0.0121796 -6.51791e-21)
(0.99065 -0.0127023 1.73033e-20)
(0.990816 -0.0117809 1.50567e-20)
(-0.0831837 -0.00398234 5.58882e-21)
(-0.111644 -0.00117333 -5.67505e-21)
(0.968627 -0.0118002 0)
(0.970211 -0.0101039 0)
(1.08532 -0.0110723 -4.32993e-22)
(1.08623 -0.010583 3.25462e-21)
(-0.229833 0.00243245 9.1741e-22)
(-0.230621 0.000911872 -3.64857e-20)
(-0.13553 -0.00114016 3.24519e-20)
(-0.15344 -0.000343752 2.4248e-20)
(-0.0919388 0.0137151 1.07909e-20)
(-0.101143 0.0118294 5.51582e-20)
(-0.113269 0.0105721 -8.04389e-20)
(1.04288 -0.437595 -3.54364e-20)
(1.0355 -0.420439 -1.11433e-20)
(1.0234 -0.43117 1.12969e-21)
(1.0094 -0.0287781 1.61652e-21)
(1.00863 -0.0286648 3.38624e-21)
(1.00928 -0.0296994 -3.43712e-21)
(1.14513 0.0110677 3.90456e-21)
(1.14434 0.0116798 -5.18919e-21)
(1.14442 0.010733 8.56336e-22)
(-0.190032 0.00474984 -2.69131e-20)
(-0.189356 0.00412456 0)
(-0.210934 0.00248801 0)
(1.1679 -0.226443 5.62544e-21)
(1.1744 -0.227749 2.94441e-20)
(1.16977 -0.232926 2.92904e-21)
(1.14623 0.0106147 -2.57157e-20)
(1.15208 0.0109917 0)
(0.796003 -0.112097 1.55421e-20)
(0.794905 -0.101546 4.24456e-20)
(0.805415 -0.106781 -2.58215e-20)
(0.801123 -0.145064 0)
(0.799953 -0.133607 -2.17856e-20)
(0.788729 -0.140989 0)
(0.986486 -0.0296226 -2.78188e-21)
(0.987444 -0.0300504 -1.30921e-20)
(0.986498 -0.0311702 -1.08913e-20)
(1.01878 -0.0286648 -2.08621e-22)
(1.01933 -0.0296674 -1.65081e-22)
(1.01953 -0.0287105 9.23311e-22)
(1.13832 -0.055564 -1.25071e-20)
(1.13882 -0.0574675 3.61387e-20)
(1.14063 -0.0553148 -3.58315e-21)
(1.01823 -0.0275675 -8.68447e-22)
(1.01778 -0.0285751 -3.14536e-23)
(-0.141228 -0.000249524 0)
(-0.118825 -0.00228228 0)
(1.08417 -0.0115958 1.35958e-20)
(1.08575 -0.0120073 -7.38929e-21)
(1.0392 -0.0303639 -3.4676e-23)
(1.03983 -0.0295646 -5.98363e-21)
(1.01141 -0.139416 -1.9109e-21)
(1.01281 -0.143927 -9.96702e-22)
(1.00793 -0.14206 -1.62842e-21)
(1.01621 -0.0288889 -2.01369e-22)
(1.01593 -0.0298194 -1.3493e-22)
(1.19903 -0.0893031 6.24754e-21)
(1.1992 -0.0868291 3.24562e-20)
(1.20166 -0.0891292 2.84124e-20)
(1.15446 -0.096196 0)
(1.15201 -0.0944765 0)
(1.15156 -0.0975073 -6.596e-21)
(1.15988 -0.00602187 7.02145e-21)
(1.15905 -0.00514717 -3.65164e-20)
(1.16052 -0.00487788 -9.77084e-21)
(1.10527 -0.00907019 -6.38247e-21)
(1.10585 -0.0100347 -1.95417e-20)
(1.01731 -0.0112203 -1.09869e-21)
(1.01696 -0.0114766 -1.15198e-21)
(1.01769 -0.0117287 -6.97747e-22)
(1.01787 -0.00119369 0)
(1.01784 -0.0017879 0)
(-0.199672 0.000252415 2.85462e-21)
(-0.184991 -0.00267964 6.27216e-20)
(-0.11809 -0.00239939 -3.97236e-20)
(-0.107484 -0.00261686 -5.00456e-20)
(1.06602 -0.357336 -2.67855e-20)
(1.05729 -0.366038 -2.21899e-20)
(1.07061 -0.367833 9.11059e-21)
(1.03427 -0.0254712 3.65819e-21)
(1.03305 -0.0250779 -4.0217e-23)
(1.03373 -0.0244936 -1.38294e-21)
(1.01293 -0.0475303 -1.69406e-21)
(1.01397 -0.048471 -9.18465e-22)
(1.01276 -0.0489815 0)
(-0.0636626 0.0105747 -9.44618e-21)
(-0.051282 0.0125111 -1.55917e-20)
(-0.0651593 0.0109841 4.44158e-21)
(1.19642 -0.0340356 1.56913e-20)
(1.19873 -0.0350206 -3.1035e-23)
(1.20327 -0.0330038 6.55562e-21)
(0.591412 -0.178308 -2.00059e-20)
(0.614512 -0.171867 -2.89101e-20)
(0.609776 -0.20126 2.71702e-20)
(1.01032 -0.0291483 -4.70974e-23)
(1.00969 -0.0279022 -1.76946e-21)
(1.10513 -0.180579 0)
(1.10439 -0.175 1.38548e-20)
(1.10053 -0.179155 -1.69733e-20)
(0.0218988 0.0213187 1.53413e-20)
(0.00231004 0.0195523 -3.59687e-20)
(0.0180499 0.0210903 3.88662e-21)
(1.1347 -0.0319879 4.82062e-21)
(1.13628 -0.0315736 1.19816e-20)
(1.13513 -0.0333812 0)
(1.02376 -0.10556 -9.14245e-22)
(1.02456 -0.1091 -4.90789e-22)
(1.09236 -0.0974423 0)
(1.09437 -0.0949243 2.0059e-20)
(1.09078 -0.0950784 0)
(1.14225 -0.195388 -2.64388e-20)
(1.11721 -0.183103 1.10751e-20)
(0.0927103 0.0254061 -6.69809e-21)
(0.0658958 0.0237572 2.98808e-20)
(1.14635 -0.141493 3.29399e-20)
(1.14471 -0.137286 5.86677e-20)
(-0.0911029 0.0130766 -2.27552e-20)
(-0.108942 0.0129378 -2.14487e-20)
(-0.114762 0.0125368 5.40625e-21)
(0.70673 -0.10323 6.59929e-20)
(-0.121244 -0.00187562 2.6039e-20)
(-0.142911 -0.000177524 1.49764e-20)
(0.842901 -0.0843797 -1.65779e-21)
(0.83369 -0.0825532 8.55774e-21)
(0.839081 -0.0755651 -4.0185e-20)
(1.13365 -0.0285332 -1.55505e-20)
(1.13199 -0.0281475 1.19836e-20)
(1.13353 -0.0268287 2.26335e-20)
(1.22596 -0.154972 -2.21651e-21)
(1.22072 -0.149724 -8.23807e-20)
(0.96901 -0.0476525 -9.00737e-21)
(0.969333 -0.0454342 -9.54889e-21)
(0.971074 -0.0465043 1.34379e-20)
(0.989653 -0.0117477 -7.64173e-21)
(0.989478 -0.0127495 -8.12848e-21)
(0.725128 -0.281192 6.30532e-20)
(0.708304 -0.294561 -5.93551e-21)
(0.730715 -0.298949 -4.3472e-20)
(0.791602 -0.0274329 5.4514e-22)
(0.723957 -0.0216416 -3.84141e-20)
(0.716762 -0.0203436 5.64394e-21)
(1.00093 -0.079592 -5.60898e-21)
(1.00025 -0.0816491 1.71816e-21)
(0.99825 -0.0800218 -5.45844e-21)
(1.02799 -0.0103888 3.77641e-21)
(1.02709 -0.0102565 2.64307e-21)
(-0.144052 -0.000467095 3.24695e-20)
(0.0398586 0.0107427 -1.08855e-20)
(0.0413632 0.0120846 -1.12507e-20)
(0.0262085 0.00917884 8.98239e-21)
(1.10727 -0.184811 0)
(1.11014 -0.180466 0)
(1.14661 0.00995185 8.09092e-21)
(1.1469 0.0105562 -1.16441e-20)
(1.1988 -0.0925939 -2.8602e-20)
(1.19588 -0.0900616 -3.08175e-20)
(1.15671 -0.0978952 -1.87e-20)
(1.15715 -0.0948846 0)
(1.20204 -0.0448854 3.2983e-20)
(1.20304 -0.0471575 -2.19905e-20)
(1.1995 -0.0468965 2.21524e-21)
(0.969468 -0.0219929 8.07463e-21)
(0.97001 -0.0235337 1.6757e-20)
(0.96817 -0.0234821 1.21194e-20)
(0.982124 -0.00915469 0)
(0.98157 -0.00843251 4.30012e-21)
(0.98262 -0.00819186 0)
(1.00128 -0.00727429 0)
(1.00117 -0.00739568 -9.83927e-22)
(1.0011 -0.00688931 0)
(-0.0858357 0.0112645 2.03763e-20)
(-0.101316 0.00966023 0)
(1.13009 -0.0303033 1.68601e-20)
(1.13057 -0.0289239 2.90839e-20)
(1.12917 -0.0292847 -7.06714e-22)
(1.08053 -0.0203632 -2.37149e-20)
(1.08159 -0.0200444 -2.98893e-21)
(1.0816 -0.0211239 1.13798e-20)
(1.00013 -0.000516226 0)
(1.00013 -0.000453246 0)
(1.0002 -0.000617862 2.00025e-21)
(0.120858 0.0166978 -9.56365e-21)
(0.117095 0.0172643 -1.14718e-20)
(0.136279 0.0187874 -2.47061e-20)
(1.13815 -0.0532619 -5.13965e-21)
(1.13596 -0.0553487 5.51092e-22)
(1.14827 0.00675699 9.74115e-21)
(1.14933 0.00728783 1.46283e-20)
(-0.0696519 0.00465892 -2.29398e-21)
(-0.0843573 0.00202443 2.81164e-20)
(0.0934912 0.0221819 -6.02313e-21)
(0.0781459 0.0206545 1.36322e-20)
(0.0966756 0.0209023 -1.98806e-20)
(0.087985 0.0221572 4.42981e-21)
(0.110633 0.0238745 2.51327e-21)
(-0.220183 0.00522782 -3.962e-20)
(-0.200023 0.00612284 -9.16788e-20)
(1.01498 -0.136625 -5.51906e-22)
(1.01038 -0.134878 -1.58591e-22)
(0.320723 0.0252452 8.47471e-21)
(0.33128 0.0247618 7.8513e-21)
(0.273888 0.02511 -1.83206e-20)
(1.00071 -0.00809351 5.74785e-23)
(1.0006 -0.00771512 2.33387e-21)
(1.00071 -0.00766944 -5.76978e-22)
(1.01774 -0.010965 -1.05748e-21)
(1.01696 -0.0106526 5.48869e-22)
(1.15077 -0.0626276 0)
(1.15081 -0.0650687 -1.10287e-20)
(1.14851 -0.0638307 2.42607e-20)
(1.00128 -0.000436537 -2.48532e-21)
(1.00115 -0.000557608 -3.53726e-23)
(1.00108 -0.000365526 1.7369e-21)
(-0.0858249 0.0142109 -4.88102e-20)
(-0.0691903 0.0147334 0)
(0.886845 0.0207137 -1.08973e-20)
(0.947596 0.0181052 4.34452e-20)
(0.893442 0.0209215 2.7348e-20)
(1.15202 0.00736476 0)
(1.15277 0.00687563 0)
(1.15895 0.00748884 0)
(1.01815 -0.0107447 -1.95337e-22)
(1.01845 -0.0112615 -1.38444e-21)
(1.11156 -0.0115839 8.64258e-21)
(1.11199 -0.0127065 -2.76672e-21)
(1.11051 -0.0123297 9.08283e-21)
(1.15102 0.00803817 0)
(1.15086 0.00671185 0)
(1.19523 -0.0319015 8.44898e-20)
(1.19279 -0.034574 3.18237e-20)
(1.06404 -0.446232 -9.39587e-21)
(1.01801 -0.133604 4.28033e-22)
(1.01677 -0.129372 -1.54239e-21)
(1.02083 -0.130556 -5.67851e-22)
(1.13407 -0.0299977 -1.22666e-20)
(1.13253 -0.031789 -1.27753e-21)
(-0.242264 0.00119078 -7.32727e-20)
(-0.239789 0.00257742 6.34326e-20)
(0.0505472 0.0124488 -7.51174e-21)
(0.0363855 0.00957205 1.82584e-20)
(1.16419 -0.0115351 -9.64635e-21)
(1.16582 -0.01088 -2.20513e-20)
(0.884089 -0.0617699 3.87973e-20)
(0.880022 -0.0574798 4.43731e-20)
(0.878375 -0.0640304 -6.51885e-21)
(0.973653 -0.0249997 -6.10071e-21)
(0.973216 -0.0236264 1.96323e-20)
(0.974757 -0.0236767 2.00946e-20)
(1.02111 -0.0222018 4.83764e-22)
(1.02103 -0.0229758 4.37995e-22)
(1.02199 -0.0227927 -2.19764e-21)
(0.867151 -0.0363333 -4.56429e-21)
(0.858929 -0.0321393 3.11372e-20)
(1.13072 -0.0315316 -1.34466e-20)
(1.1288 -0.031545 -2.71393e-20)
(-0.0939107 0.00218379 -5.15617e-20)
(-0.104093 0.00242613 -3.71922e-20)
(1.08601 -0.0625193 -8.65006e-21)
(1.08788 -0.0643041 8.03741e-21)
(1.0015 -0.0771287 -4.2135e-21)
(1.00362 -0.0789711 7.12617e-22)
(1.14386 0.0120578 1.58909e-20)
(1.14314 0.0124729 -3.04224e-21)
(1.14336 0.0116945 3.97355e-20)
(1.16323 -0.0110362 3.09137e-20)
(1.16275 -0.012505 1.55834e-20)
(1.05632 -0.0255133 -6.85416e-21)
(1.05728 -0.0263121 1.4548e-20)
(1.05598 -0.0264857 -5.26736e-21)
(1.0456 -0.0425161 3.24202e-21)
(1.04405 -0.0420934 3.18729e-21)
(1.04511 -0.0412043 3.33223e-21)
(0.688365 -0.134013 -7.76871e-20)
(0.708286 -0.138594 -6.02539e-20)
(0.696765 -0.151142 4.05148e-20)
(1.22584 -0.159553 4.51415e-21)
(1.22473 -0.164908 -4.81194e-20)
(1.21967 -0.159812 -2.34778e-20)
(-0.0812481 0.0145025 1.23246e-20)
(-0.0690842 0.0149878 -1.04816e-20)
(-0.0613688 0.015525 1.20786e-20)
(-0.0208422 0.0195855 -1.5507e-20)
(-0.0271331 0.0194159 1.99601e-20)
(-0.00105621 0.0209539 3.02736e-20)
(1.1211 -0.0306322 -1.85983e-20)
(1.12274 -0.0296177 8.34995e-21)
(0.883551 -0.670546 -2.85101e-21)
(0.881332 -0.720483 9.76153e-21)
(0.929665 -0.720453 0)
(-0.0986451 0.0139121 9.54302e-21)
(-0.0907469 0.0142491 1.03404e-20)
(0.932396 -0.0199032 -2.24934e-20)
(0.935035 -0.0188543 2.27457e-20)
(0.932481 -0.0167244 1.14471e-20)
(1.13057 -0.0188708 -6.03716e-21)
(1.13066 -0.0201153 1.71389e-20)
(1.12938 -0.0192086 1.64212e-20)
(0.0375643 0.0173429 -1.97224e-20)
(0.0494245 0.0187889 -2.74451e-20)
(0.031739 0.0169362 -1.05309e-20)
(1.0769 -0.0701886 -3.3657e-21)
(1.07753 -0.0718005 7.11377e-24)
(1.07529 -0.0713539 -5.37929e-21)
(1.14044 0.0140946 -5.88446e-21)
(1.14067 0.0146012 -3.30963e-20)
(1.14779 0.0144958 -3.03759e-20)
(1.01214 -0.0469154 1.03279e-21)
(1.01304 -0.0466306 -1.05869e-21)
(1.23376 -0.1597 0)
(1.00007 -0.00196162 4.51238e-21)
(1.00011 -0.00230261 -1.99338e-21)
(1.00009 -0.00235624 3.11395e-21)
(1.11927 -0.115005 0)
(1.12185 -0.113248 2.12639e-20)
(1.12191 -0.117513 2.58457e-20)
(1.01491 -0.0922359 -1.51514e-21)
(1.01736 -0.0931041 3.39422e-23)
(1.01548 -0.0950782 2.26281e-23)
(0.979383 -0.0173835 1.40428e-21)
(0.980034 -0.0182964 5.32856e-21)
(1.18001 -0.0162868 -5.38206e-20)
(1.18151 -0.0148759 -1.68761e-20)
(1.18262 -0.0160944 -1.86863e-20)
(1.05244 -0.0354223 -8.76852e-21)
(1.05143 -0.0343386 4.15699e-21)
(1.05311 -0.0342788 -2.20182e-21)
(0.17156 -0.500963 2.78609e-20)
(0.128282 -0.544051 1.44432e-21)
(1.01788 -0.0101411 6.64909e-22)
(1.01866 -0.0105141 1.20607e-21)
(1.17169 -0.0210406 1.42304e-20)
(1.17258 -0.0224855 2.34568e-21)
(1.17041 -0.0223061 2.14299e-20)
(-0.0946829 0.00456461 1.09988e-20)
(-0.11109 0.00254565 -6.12809e-21)
(-0.101247 0.0121573 -2.29895e-21)
(-0.10556 0.0128846 -4.64948e-20)
(-0.0803953 0.0133052 -8.489e-20)
(0.889388 -0.0712172 -2.65037e-20)
(0.894694 -0.0702167 -1.72037e-20)
(0.892543 -0.0758216 5.24198e-22)
(1.13035 -0.0176423 3.55385e-22)
(1.13159 -0.0184976 -1.44384e-20)
(1.00004 -0.00129973 -4.85517e-22)
(1.00002 -0.000974292 5.4194e-21)
(1.00002 -0.000983552 -8.57134e-22)
(0.735478 -0.26822 3.31985e-20)
(0.716466 -0.261379 8.59342e-22)
(1.00091 -0.014941 6.00782e-22)
(1.00098 -0.0142565 5.84713e-21)
(1.00129 -0.0148349 4.4335e-22)
(1.11619 -0.113561 0)
(-0.0198792 -0.0242902 -8.80784e-20)
(-0.0781622 -0.0181417 5.83639e-21)
(-0.0576433 -0.0218201 -8.02278e-20)
(0.886619 -0.0670486 1.61211e-20)
(0.889015 -0.060903 1.99975e-20)
(1.0759 -0.0680035 3.904e-22)
(1.07846 -0.0683862 -1.7788e-22)
(0.99627 -7.03293e-05 -8.07802e-21)
(0.995862 -0.000356021 4.63156e-22)
(-0.0384133 0.0182234 -2.94551e-20)
(-0.0168828 0.0185068 -5.28099e-21)
(1.02588 -0.0184866 3.05348e-22)
(1.02552 -0.0175906 2.95605e-22)
(0.808573 -0.386989 7.30608e-21)
(0.938389 -0.462043 7.5423e-21)
(-0.030877 0.0189 -2.52496e-20)
(-0.0358945 0.0183318 -1.00658e-20)
(-0.0122173 0.0197063 -1.79975e-20)
(1.16125 -0.224697 5.74398e-21)
(1.16623 -0.219758 -2.20169e-21)
(1.00012 -0.000575719 0)
(1.00007 -0.000413398 1.17569e-21)
(1.22287 -0.343311 1.52856e-20)
(1.24083 -0.341422 2.76558e-21)
(1.24609 -0.353508 2.08177e-20)
(-0.126404 0.00381123 1.96178e-20)
(-0.121711 0.00333889 -6.32981e-20)
(-0.109424 0.00634905 -6.82624e-20)
(0.175542 0.0249986 7.5606e-21)
(0.15831 0.0229173 -1.8653e-20)
(1.14032 0.0137039 4.94104e-20)
(1.1165 -0.0516049 5.21497e-22)
(1.11597 -0.0537713 5.0199e-22)
(1.11424 -0.0517115 -1.46952e-22)
(0.697115 -0.327018 3.51022e-20)
(0.691281 -0.308318 -2.76688e-20)
(0.673651 -0.322001 -3.04933e-20)
(1.17844 -0.0164823 -1.75505e-20)
(1.17947 -0.0176939 1.33544e-20)
(1.11246 -0.010816 1.06685e-20)
(1.11101 -0.0105095 0)
(1.04623 -0.410682 -1.27434e-20)
(1.03105 -0.406682 0)
(1.03071 -0.148562 -1.63979e-21)
(1.02618 -0.147694 1.16975e-21)
(1.02924 -0.144427 4.04413e-21)
(-0.0211914 0.00114153 0)
(-0.0333994 -8.16415e-05 2.47448e-20)
(-0.0332831 -0.000637048 -7.91066e-21)
(1.18273 -0.0422068 3.39126e-21)
(1.18202 -0.0397532 4.15182e-20)
(1.18013 -0.0424065 7.27868e-20)
(1.01227 -0.000819813 1.00662e-22)
(1.01301 -0.00116096 -1.40419e-22)
(1.01236 -0.00167055 1.18855e-21)
(1.09429 -0.0444057 -1.01252e-20)
(1.0926 -0.043521 -1.22389e-20)
(1.09246 -0.0452271 -5.91791e-21)
(1.15061 0.0119805 2.46897e-20)
(0.121438 0.0162349 1.789e-20)
(0.106557 0.0156633 1.10813e-20)
(0.0401855 0.000348775 2.79217e-20)
(0.0527828 0.00243153 -1.38337e-20)
(0.0454265 0.0011591 -1.55326e-20)
(1.02037 -0.0216487 1.51034e-21)
(1.02122 -0.0215807 -3.21122e-22)
(0.572595 -0.190937 0)
(0.99107 -0.0131541 4.75633e-21)
(0.991518 -0.0135928 -8.07895e-21)
(0.99169 -0.0127366 -4.34927e-21)
(1.17006 -0.00607885 -3.9392e-21)
(1.17092 -0.00717192 2.87874e-20)
(1.16898 -0.00739376 5.31086e-20)
(1.19891 -0.0370169 -1.02558e-20)
(1.2 -0.0390471 -1.59658e-21)
(1.19588 -0.0383925 -3.04633e-20)
(1.09549 -0.0454156 -3.20898e-21)
(1.09563 -0.0439531 4.70564e-21)
(1.13816 -0.0514326 2.56681e-21)
(1.14013 -0.0516119 2.43817e-20)
(1.18399 -0.0437883 -3.9803e-20)
(1.18515 -0.0411163 -1.80032e-20)
(0.997292 -0.027432 5.61689e-21)
(0.997979 -0.02834 5.4654e-21)
(0.998028 -0.0269443 -4.50974e-21)
(0.797859 -0.122067 -2.17514e-20)
(0.786585 -0.116921 2.24941e-20)
(1.14767 0.00395315 2.07458e-20)
(1.1478 0.00502481 -6.33829e-21)
(1.14682 0.00437266 -1.08769e-20)
(0.736804 0.0175475 -2.81433e-21)
(0.729779 0.0173124 1.46649e-20)
(0.800672 0.0131996 -3.80083e-20)
(0.997082 -0.00881514 3.62029e-21)
(0.997413 -0.00852714 7.44219e-21)
(0.997201 -0.0081626 3.57904e-21)
(0.980044 -0.016422 -5.57844e-23)
(0.978625 -0.0165817 4.36798e-22)
(0.883977 -0.0726461 -9.0481e-21)
(0.0829425 0.0235838 0)
(0.0880225 0.0234056 2.60832e-20)
(0.105323 0.025367 -1.21083e-20)
(-0.217729 0.00292422 0)
(-0.237911 0.00412585 -6.37378e-20)
(-0.219245 0.00243513 4.1633e-20)
(1.136 -0.0381566 -5.03802e-21)
(1.13461 -0.0387068 -1.74642e-20)
(1.13615 -0.0397739 0)
(1.03534 -0.0258224 -1.93271e-21)
(1.03468 -0.0264733 1.38931e-21)
(1.19424 -0.0303837 2.61479e-20)
(1.20069 -0.0297647 6.5671e-20)
(1.20131 -0.0427999 0)
(1.20045 -0.0408143 0)
(1.19774 -0.0424424 0)
(1.15993 -0.00976653 -8.2861e-22)
(1.15874 -0.00852897 8.68702e-21)
(1.15821 -0.010104 -3.22033e-20)
(1.13804 -0.0492637 -2.34991e-20)
(1.13607 -0.0510704 0)
(0.0778677 0.0230024 1.37461e-20)
(0.0637194 0.0204669 1.51758e-22)
(-0.174863 0.00471667 -1.93564e-20)
(-0.173482 0.00418534 3.31451e-20)
(-0.195524 0.0031188 2.89377e-20)
(1.09481 -0.0524915 8.40767e-21)
(1.09451 -0.0540785 -6.43074e-21)
(1.09636 -0.0530793 2.17658e-20)
(1.1171 -0.0317411 -4.36593e-21)
(1.11864 -0.0320068 -2.18636e-20)
(1.11772 -0.0305085 -2.12866e-20)
(0.970661 -0.18171 -6.2569e-22)
(0.932762 -0.170666 -6.96043e-22)
(0.794013 -0.134736 3.68378e-24)
(1.02192 -0.0279725 2.87562e-22)
(1.02231 -0.0290692 2.4153e-22)
(1.02099 -0.0282176 6.08976e-22)
(1.00136 -0.00709339 1.01324e-22)
(1.00143 -0.00693272 9.85e-23)
(1.00124 -0.0066007 3.35339e-21)
(1.16085 -0.0105668 -3.39777e-20)
(1.16123 -0.00903708 -7.61838e-21)
(1.12611 -0.152856 1.60234e-20)
(1.12531 -0.148676 0)
(1.12175 -0.151528 6.18307e-21)
(1.02682 -0.0187707 1.30569e-21)
(1.02766 -0.0190794 1.50364e-22)
(1.02723 -0.0182939 -1.8573e-21)
(1.00016 -0.00231744 -1.94642e-21)
(1.00013 -0.00230678 -7.09418e-22)
(1.00009 -0.00196796 5.71327e-21)
(1.00084 -0.0154396 -7.0023e-21)
(1.0006 -0.0148788 3.41941e-21)
(1.00469 -0.000848808 0)
(1.00505 -0.000882346 1.05967e-21)
(1.00467 -0.000505755 0)
(1.11514 -0.043971 -2.00924e-20)
(1.11685 -0.0447938 7.51122e-21)
(1.11696 -0.0428706 -2.12896e-20)
(1.00148 -0.00763989 0)
(0.0423498 0.017505 6.6434e-21)
(0.0592525 0.0192345 1.32663e-20)
(1.13399 -0.0417484 7.57388e-21)
(1.13302 -0.0398872 -1.87607e-20)
(1.01048 -0.0382833 -7.26784e-22)
(1.00965 -0.0380591 1.82328e-21)
(1.01023 -0.0391127 -1.45603e-21)
(0.112572 0.0144271 -2.59494e-20)
(-0.0654453 0.0106294 -2.36464e-20)
(-0.0761064 0.0096705 -1.13325e-20)
(0.971307 -0.0177829 4.37557e-21)
(0.971763 -0.019247 -1.1987e-21)
(0.972853 -0.0180132 9.2773e-21)
(1.17278 -0.0197104 9.98118e-21)
(-0.204691 0.00445564 -1.96031e-21)
(-0.226973 0.00358783 0)
(-0.20391 0.004084 3.06204e-20)
(0.967035 -0.0488269 1.6823e-20)
(0.969273 -0.0498352 -7.3736e-21)
(0.970649 -0.0163175 0)
(0.969351 -0.017874 -1.32089e-20)
(1.13511 -0.0432136 -6.47626e-22)
(1.13593 -0.0414162 6.90564e-21)
(-0.103227 0.00245378 -2.19984e-20)
(-0.105346 0.00311806 4.13622e-20)
(-0.0888936 0.00484945 4.49403e-20)
(0.109779 -0.0104712 3.11761e-20)
(0.0660256 -0.00748991 2.96267e-20)
(0.103138 -0.0116959 4.63775e-20)
(1.15463 -0.0539519 0)
(1.15669 -0.0550053 0)
(1.15445 -0.0557836 0)
(1.00267 -0.000603118 -9.57293e-22)
(1.00255 -0.000857621 -3.04424e-21)
(0.314492 0.0254485 3.53883e-21)
(0.376354 0.0244431 -1.85359e-20)
(1.00071 -0.00853276 3.41544e-21)
(1.15865 -0.0558964 -1.67154e-21)
(1.159 -0.0581898 -1.69941e-21)
(1.16108 -0.056667 7.31341e-22)
(-0.20746 0.0046595 7.09684e-20)
(-0.187611 0.00647482 1.1839e-22)
(0.739754 0.0155158 3.50424e-21)
(0.740276 0.0174573 -3.72993e-20)
(0.80473 0.0135242 -2.37642e-20)
(1.07929 -0.0209895 -1.70036e-20)
(1.07924 -0.0198924 -3.34154e-21)
(1.00846 -0.198277 0)
(1.11559 -0.230521 0)
(1.21605 -0.220087 2.44734e-21)
(1.25312 -0.221532 9.97037e-22)
(1.25565 -0.229028 -4.3285e-20)
(-0.129635 -0.000778832 -7.07633e-23)
(-0.1238 -0.000583697 1.24576e-20)
(-0.102371 -0.00202568 1.86709e-22)
(1.19872 -0.0952874 -3.02096e-22)
(1.19572 -0.096318 2.90188e-20)
(1.1986 -0.0982527 0)
(0.774172 -0.08998 -7.01845e-20)
(0.775167 -0.0786372 -7.3615e-21)
(0.762666 -0.0825535 1.57227e-20)
(-0.0738152 0.0134251 1.21404e-20)
(-0.0674165 0.0138738 -1.15782e-20)
(-0.0386408 0.0147183 -2.36498e-20)
(-0.026187 0.0162419 1.34762e-20)
(-0.0415324 0.0144301 0)
(0.766763 0.009494 4.19476e-20)
(0.696684 0.0150452 1.15536e-20)
(1.04704 -0.0430207 0)
(1.04592 -0.0440184 0)
(-0.231627 0.00278248 -2.88528e-20)
(-0.214665 0.00155726 -3.64015e-20)
(-0.208488 0.00180497 3.7075e-22)
(-0.0261852 -0.00170061 2.54479e-20)
(-0.0246659 -0.00338691 3.29391e-20)
(0.46169 -0.420961 2.24039e-20)
(0.430268 -0.394536 -4.63918e-20)
(0.430675 -0.440707 -2.18534e-20)
(0.490541 -0.401871 7.64697e-20)
(0.498921 -0.442673 -5.73471e-20)
(0.930306 -0.0211841 -6.06263e-20)
(0.931656 -0.0225078 -2.33844e-20)
(1.15518 -0.0604472 6.79284e-21)
(1.15301 -0.0614533 -2.4465e-20)
(1.15544 -0.062662 -2.45199e-20)
(0.931436 -0.119207 1.63192e-20)
(0.935154 -0.115038 -8.93882e-21)
(0.937247 -0.120931 3.27549e-21)
(0.0149711 0.00233642 1.44561e-20)
(0.00167437 -0.000241274 1.57637e-20)
(0.77755 -0.137204 -2.20727e-20)
(0.776528 -0.12397 1.61439e-21)
(0.762882 -0.132352 -7.26936e-21)
(1.00956 -0.00227442 0)
(1.0095 -0.00270108 0)
(1.01 -0.00255728 3.16257e-23)
(1.0289 -0.0012069 -1.10142e-21)
(1.02872 -0.000991435 -4.56899e-22)
(1.0605 -0.101585 0)
(1.06316 -0.102924 0)
(1.06016 -0.104203 -3.19946e-21)
(-0.152725 -0.00180164 3.05131e-20)
(-0.136129 -0.000792238 -4.38294e-20)
(0.234928 -0.529266 2.88648e-20)
(1.0227 -0.027753 6.14202e-22)
(1.02153 -0.0271038 0)
(-0.119972 0.0123816 1.96744e-20)
(0.920879 -0.115267 -7.13762e-21)
(0.926644 -0.117777 2.55039e-20)
(0.92494 -0.111426 -1.57438e-20)
(1.09081 -0.0995473 0)
(1.09406 -0.0991891 -6.88026e-21)
(1.08278 -0.0199334 1.38135e-20)
(1.08185 -0.019235 1.75157e-21)
(-0.103616 0.00289518 -5.21503e-20)
(-0.119722 0.00208989 -5.54637e-20)
(1.19304 -0.028521 -1.01267e-19)
(1.19106 -0.0309511 -3.78085e-20)
(1.14952 0.0127955 -1.32582e-20)
(1.01444 -0.0889904 -4.98692e-22)
(1.0123 -0.0906649 -1.60052e-21)
(1.0749 -0.0663047 -3.12281e-21)
(1.07356 -0.0677354 7.97659e-21)
(0.165441 0.0184895 1.22601e-20)
(0.168417 0.0180818 -9.7576e-22)
(0.152911 0.0167873 0)
(0.972721 -0.0264013 -9.50366e-21)
(0.974317 -0.0263318 -2.02542e-20)
(1.20832 -0.0433026 0)
(1.09313 -0.0515057 -3.92836e-21)
(1.09521 -0.0505366 -5.87249e-21)
(1.13436 -0.0447079 -7.50508e-21)
(1.13653 -0.0441962 3.8339e-21)
(0.917574 -0.120125 -6.43589e-21)
(0.914802 -0.113462 2.69867e-20)