/*--------------------------------*- C++ -*----------------------------------*\
| =========                 |                                                 |
| \\      /  F ield         | OpenFOAM: The Open Source CFD Toolbox           |
|  \\    /   O peration     | Version:  v2012                                 |
|   \\  /    A nd           | Website:  www.openfoam.com                      |
|    \\/     M anipulation  |                                                 |
\*---------------------------------------------------------------------------*/
FoamFile
{
    version     2.0;
    format      ascii;
    class       volVectorField;
    location    "700";
    object      ddtCorrDdt0(U);
}
// * * * * * * * * * * * * * * * * * * * * * * * * * * * * * * * * * * * * * //

dimensions      [0 1 -2 0 0 0 0];


internalField   nonuniform List<vector> 
13851
(
(0.00158991 -0.000244686 2.60558e-18)
(0.00115564 0.010456 -9.75133e-19)
(0.00482548 0.00155059 9.19975e-19)
(0.00154346 -0.000307351 -5.36878e-19)
(0.00426183 0.00449764 5.73921e-18)
(0.00280066 -0.00390903 -3.6638e-20)
(0.000277926 0.000616791 1.1337e-18)
(0.00316438 0.00216049 -2.27899e-17)
(0.000112188 -0.000300317 -4.97339e-19)
(0.00243882 -0.000213532 -1.14175e-18)
(-0.0105778 0.00925958 -5.25072e-19)
(-0.0224601 -0.0137124 -6.55525e-20)
(-0.0157146 0.00669976 -5.02006e-18)
(-0.00183952 0.008595 1.39659e-17)
(0.000310027 7.4461e-05 -3.56626e-18)
(0.00258603 0.0014047 -4.52419e-19)
(0.0016284 0.00151827 -3.73789e-18)
(0.0019855 -0.000388892 -3.34116e-19)
(-0.0194214 0.0078658 -6.21927e-18)
(0.000126256 -0.00029246 5.65357e-19)
(0.00150006 -0.000301767 -3.44821e-19)
(0.0048203 0.00186974 7.07318e-18)
(-0.000205271 -4.96751e-06 -9.33455e-20)
(8.19395e-05 -1.94237e-05 9.11973e-19)
(-0.000164608 -6.55826e-07 1.28406e-19)
(0.00320553 0.00198084 1.16783e-17)
(0.00090096 0.00184347 1.49797e-17)
(0.000385734 -0.000553937 2.47135e-17)
(0.00155849 -0.000225532 -2.53622e-18)
(0.00192878 0.000321621 1.03779e-18)
(0.00228215 -0.00472271 -6.95966e-19)
(0.00168241 0.00157403 7.52264e-18)
(0.00452769 0.00145839 -3.75708e-18)
(0.0109193 -0.00537371 -5.61597e-19)
(8.77715e-05 -2.58877e-05 -1.58212e-18)
(-0.0136975 0.00726483 2.16492e-17)
(-0.0123036 0.0052991 6.13097e-17)
(-0.0181389 0.00643143 -6.37209e-18)
(0.00112923 -0.000380159 2.76279e-18)
(0.0104822 -0.00502872 6.16022e-19)
(0.000958917 -8.3974e-05 9.72987e-19)
(-0.000294861 -0.000125841 -4.43501e-20)
(-0.00100107 -0.000368689 3.95362e-18)
(-0.00579571 -0.00337713 -1.31976e-19)
(-0.00619649 -0.00149144 5.46156e-19)
(-0.00381034 0.00278526 -5.01371e-18)
(7.26689e-05 -0.0134196 -6.99232e-19)
(-0.00349771 0.00874087 6.14475e-21)
(0.000909014 0.00194214 3.37207e-18)
(-0.000879636 -0.000723934 -3.20322e-19)
(0.00244971 0.0055135 -1.79844e-17)
(-0.0129839 0.00812841 9.17379e-19)
(5.49917e-05 -0.00183044 -2.36744e-17)
(0.000348532 5.01623e-05 6.82196e-18)
(0.000594453 -1.21624e-05 -1.00474e-18)
(-0.000291764 -0.00013527 -1.89126e-20)
(-0.00016134 -1.71217e-05 2.38906e-19)
(0.000565467 -0.00116854 -5.20005e-18)
(0.00186808 0.000310004 -8.46753e-20)
(0.000433779 0.000686486 -1.59671e-17)
(-0.0183965 0.00631299 7.3134e-18)
(-0.00787279 0.00666042 6.713e-18)
(-0.000362345 -0.00103289 -1.33377e-18)
(0.00439247 0.00505551 2.53696e-17)
(0.0156542 4.71969e-05 7.4877e-19)
(0.00180802 -0.00030837 4.87203e-19)
(-0.0113488 0.00493082 8.65524e-18)
(0.0020236 -0.0185464 7.0047e-19)
(0.00153095 0.00321423 9.11341e-18)
(0.00190652 -0.000389926 7.7697e-19)
(0.00190191 9.19328e-05 -1.18179e-17)
(-0.00878863 0.00418275 -1.74372e-18)
(0.00175465 0.0120739 3.98748e-18)
(0.000328929 4.79524e-05 -1.11632e-17)
(0.000576966 -2.30169e-05 9.64546e-19)
(0.000156969 -0.000435037 -5.63207e-19)
(0.00468622 0.00198891 -5.71572e-18)
(-0.00150578 0.000391131 1.73112e-17)
(0.00283863 0.00347603 2.44268e-17)
(0.00263115 1.22957e-05 -2.21238e-17)
(0.000645712 0.000880157 -8.41844e-19)
(-0.0146041 0.0265954 4.25914e-20)
(0.000591377 0.000280227 7.4606e-18)
(-0.00333985 0.00202457 3.99705e-18)
(-0.000383649 -0.00160831 4.56234e-20)
(-0.0249497 -0.0116442 -4.62602e-19)
(0.00166513 -0.00270845 -1.1019e-19)
(-0.0296538 0.0209738 2.3782e-18)
(0.00140385 0.00188378 -5.86999e-18)
(-0.000118013 2.34914e-05 -1.17504e-19)
(-0.0137641 0.00737675 -2.81261e-17)
(0.00124643 -0.000504891 -1.75666e-19)
(0.0026577 -0.0197269 -1.83409e-19)
(0.00156834 0.00224771 3.81783e-17)
(0.00132335 0.00188003 -1.86732e-19)
(-9.84606e-05 -1.1063e-05 3.37447e-20)
(0.0042697 0.00474667 -4.5585e-18)
(-0.00749636 0.0046014 1.42505e-18)
(-0.00105065 -0.000660857 3.04201e-19)
(-8.02112e-05 -7.16014e-06 -4.94926e-20)
(-0.00105743 0.000995649 5.6042e-18)
(0.00245153 0.00415307 -9.79613e-18)
(0.00139372 -2.2123e-05 1.48725e-18)
(0.000224776 0.0018946 -2.42973e-17)
(-0.000324541 -1.14382e-05 -3.80464e-20)
(0.000580903 -0.00242143 -6.7744e-21)
(0.00242423 0.00459474 7.14466e-19)
(-0.000372882 -0.000116722 1.12861e-20)
(-0.00573942 0.00330937 3.68796e-17)
(0.0035449 -0.0038423 6.24227e-19)
(-3.73142e-06 -1.10727e-05 -3.38972e-20)
(-0.000119591 2.98299e-05 2.61401e-19)
(0.0012025 -0.000562785 2.11481e-19)
(6.29271e-05 -4.822e-06 -1.00876e-18)
(-8.36269e-06 -1.60091e-05 6.26332e-19)
(0.00142352 0.013474 -1.2275e-18)
(-0.00812573 0.00490923 -2.84008e-17)
(-0.000347207 -7.18347e-05 1.76078e-19)
(0.000379124 -1.92299e-05 2.25387e-18)
(0.000579906 -2.06337e-05 3.47329e-18)
(-0.000785713 -0.00101237 -2.24935e-18)
(0.000283548 0.00186622 1.71815e-17)
(-0.0150779 0.00667123 1.06933e-17)
(0.00199567 0.00610425 2.22246e-19)
(0.00191314 0.0058683 -2.82949e-20)
(0.000290559 0.000265247 -1.51508e-19)
(0.00432937 0.00303792 5.18098e-19)
(0.00268164 0.00380663 -6.54316e-18)
(0.00146198 -0.000338013 -5.10003e-19)
(-0.00890531 0.00652093 -1.39404e-17)
(0.000935533 -7.91364e-05 -1.36172e-18)
(0.000331436 -0.000173788 -3.61797e-19)
(0.00170231 0.000187932 1.03528e-17)
(0.000568361 0.000277067 -9.15199e-18)
(0.000852432 0.00841252 1.28883e-18)
(0.000334048 -6.30187e-05 -6.36955e-21)
(-0.000353474 -6.56332e-05 -1.06745e-19)
(-0.00947919 0.00443391 -1.08321e-17)
(-0.00119542 0.00940283 2.62865e-18)
(-0.00354223 0.00325591 -2.84896e-18)
(-0.00114875 0.00100915 -1.76321e-17)
(0.000594397 -1.34752e-05 -1.12022e-18)
(0.00037668 -0.000753109 -1.84822e-19)
(-8.45755e-05 -0.000173582 4.28672e-20)
(0.00151508 0.00101827 -2.6013e-18)
(-0.00296426 -0.0086113 6.48848e-20)
(0.00191049 -0.00107363 1.22033e-20)
(-0.0103196 0.00665898 -4.88756e-18)
(0.000287522 0.000590225 -4.72245e-20)
(-0.00877196 0.00513472 -7.70987e-19)
(0.000464014 0.00601145 1.6722e-19)
(0.000582329 -2.46515e-05 1.02691e-18)
(-0.00153206 0.00737274 -1.77273e-17)
(-0.000167471 -1.50219e-05 4.18298e-19)
(0.00102409 0.00132692 2.96211e-18)
(0.00151763 0.000974546 -1.09179e-17)
(0.000607591 -0.000327113 4.73116e-19)
(0.00168114 0.000465888 5.95213e-18)
(-0.0135219 0.00896185 -1.32854e-17)
(0.00254722 0.0053861 -7.61196e-18)
(-0.000321938 -0.000291299 8.07854e-21)
(0.00109061 0.00253931 -9.05058e-19)
(0.000499722 -0.00127837 2.25625e-18)
(0.000313931 -0.000171021 1.28615e-18)
(0.0025252 0.000539903 4.55638e-18)
(-0.000181608 -0.00014485 1.04904e-19)
(0.0024462 -0.00084938 3.81561e-21)
(0.00147627 0.00331366 1.94627e-18)
(0.0014292 -0.000329285 1.92289e-18)
(-0.00584802 0.00372561 1.09872e-18)
(-0.0011531 0.000289075 -1.96669e-17)
(-7.93711e-05 -0.000110677 1.69863e-18)
(0.000627892 -0.000322534 -8.05242e-19)
(-0.00175808 0.00601846 -4.58284e-18)
(0.000305813 -0.000156238 -1.42756e-18)
(-0.00593434 0.0109957 -2.38382e-19)
(0.00267831 0.00367668 4.47661e-18)
(0.00046116 -0.000745045 7.8691e-19)
(-0.0188621 0.00767442 1.61354e-17)
(-0.00036302 -0.000145943 -4.30418e-20)
(0.00181501 0.00159163 9.24236e-18)
(-0.00834654 0.00407876 -8.41068e-18)
(0.000520907 0.0002643 -1.5471e-18)
(0.00509174 0.00201499 9.10969e-18)
(-0.000499217 -5.98686e-05 -7.39366e-21)
(-0.000183417 -2.16121e-06 -1.20089e-19)
(0.00181013 -0.000249399 -6.42182e-19)
(0.000589313 -1.8376e-05 -2.12046e-18)
(0.00492711 0.00445784 9.86679e-19)
(0.00163894 0.00340025 3.61052e-19)
(0.0014862 -0.0169262 -4.12878e-19)
(0.000110215 -0.00167118 1.2291e-17)
(-0.000105174 6.33214e-05 2.89885e-19)
(0.0018545 0.00301639 -1.32131e-17)
(-0.00839705 0.00676851 -1.22913e-17)
(0.00105127 0.00124082 -1.54643e-17)
(0.000354374 -0.000730055 2.99377e-19)
(0.00842909 -0.00266772 1.28444e-19)
(0.000436812 -0.00073175 -7.57999e-19)
(0.00017662 -0.000446577 -1.34056e-18)
(0.000225603 0.000281679 -5.79543e-19)
(-0.00510534 0.00420896 3.94204e-18)
(0.000362179 -8.79795e-06 -2.06503e-18)
(0.000735812 0.000136919 -2.6682e-18)
(0.00192544 0.00177202 -2.5969e-18)
(0.00052858 0.000283305 -5.67332e-18)
(-0.00326983 0.00261121 -9.58898e-18)
(0.00155452 0.00165307 5.41299e-18)
(-0.00101137 0.000848578 1.31491e-17)
(-0.000362885 -0.000209849 -7.37415e-21)
(-0.00487721 0.00273012 -9.45018e-18)
(0.00135947 -1.79181e-05 7.90245e-19)
(0.00867228 -0.00431914 -1.16471e-19)
(-0.000403529 -0.000138988 5.01892e-21)
(-0.000135796 -0.000173381 3.38989e-20)
(-0.00203009 0.0133357 -2.21359e-20)
(0.000559727 -0.00224324 -2.91458e-19)
(-0.00336794 0.00251475 8.85909e-18)
(0.000370246 0.000138011 2.45462e-18)
(-0.0012977 0.000954653 -2.71564e-17)
(0.00161505 0.00166515 2.95833e-19)
(0.000649533 0.000916767 3.6335e-19)
(-0.00829909 0.00368181 1.13651e-17)
(-0.00745631 0.00744404 5.27601e-18)
(-0.00236541 0.00207753 -3.48246e-18)
(-0.000149146 -1.88893e-06 1.19661e-20)
(0.00177634 0.00244748 -2.27308e-18)
(-0.000265252 -5.61585e-06 1.11872e-20)
(-7.13044e-05 -0.00128155 -2.75281e-18)
(-0.000404148 -0.000151703 1.27565e-20)
(0.00316708 0.00193292 5.07014e-18)
(0.00691135 -0.0104881 2.02259e-18)
(-8.31859e-05 -0.000101044 -1.68677e-18)
(-0.000100071 5.53872e-05 -4.57995e-19)
(0.00203243 0.00528432 -2.64711e-17)
(0.00345989 -0.00136985 2.10455e-19)
(-0.00453102 0.0028386 1.19646e-17)
(0.0189784 0.00016578 -7.56403e-21)
(-9.70542e-05 -0.000180863 -4.24207e-20)
(0.000737585 0.000151202 6.70621e-18)
(0.00151641 -0.0044795 3.43394e-19)
(-0.00117148 0.000790374 9.51994e-20)
(-9.66588e-05 -0.000410491 -1.31519e-20)
(0.00147735 0.0017525 -4.03715e-19)
(-0.00038502 -1.86694e-05 6.60567e-22)
(-0.00190084 0.00169305 -2.48325e-17)
(0.00260754 0.00415446 7.15274e-18)
(0.0101708 -0.00516929 -1.1729e-19)
(0.00158917 0.000913859 2.78703e-19)
(0.00200801 0.00121737 -1.20364e-17)
(0.000794812 -0.00106174 3.64878e-19)
(-0.000844996 0.00102124 2.95522e-21)
(0.0010391 0.000699432 -1.01767e-17)
(0.00158254 0.000957463 3.11384e-18)
(0.00161674 0.00470116 -3.66137e-18)
(-0.000315006 0.00918615 2.60091e-18)
(0.00216335 0.00332167 -5.00447e-19)
(-0.00907491 0.00435749 3.42268e-17)
(-0.00237003 0.00231748 -9.26625e-18)
(0.000298564 0.000270248 -2.71834e-18)
(-0.000122267 -0.000169034 -1.47304e-20)
(0.00180347 -0.000273612 -6.95023e-19)
(0.00842666 -0.01632 -3.68054e-19)
(6.00473e-05 -3.40365e-06 1.75171e-19)
(-0.0173644 0.00779953 1.29149e-18)
(0.00108152 0.00121704 1.25033e-17)
(0.00100306 0.000696189 2.35648e-18)
(0.00150232 0.0022049 -1.04609e-17)
(-0.00898323 0.00392689 -1.58323e-17)
(0.00037385 0.00100252 1.14187e-19)
(0.000746076 -0.00106416 -4.19714e-19)
(0.00106943 0.00130408 1.26647e-17)
(0.00444169 -0.0086591 6.58063e-19)
(0.00268817 0.00338922 -4.82159e-18)
(0.00257976 0.00135046 -2.93103e-18)
(0.000339945 -0.000187502 -1.96308e-18)
(-0.0138179 0.0251279 1.31403e-19)
(0.00351623 0.00156222 -2.48819e-19)
(-0.00148768 0.00201983 -1.11527e-17)
(-0.0105988 0.0132599 1.54396e-18)
(-9.12554e-05 -0.00045538 1.59222e-20)
(-0.000397949 -0.000202441 -6.63283e-21)
(-0.000347667 -1.21996e-05 1.86807e-20)
(0.00152586 0.00458795 1.8098e-18)
(0.0098702 -0.0170544 1.33869e-18)
(-0.00968488 0.0125532 -2.05881e-19)
(0.000165585 -0.000373225 -1.65481e-18)
(0.000215087 0.000138983 6.49465e-18)
(0.00280704 -0.00946199 -7.36453e-19)
(-0.00071215 0.00530816 -9.51035e-20)
(-0.0155537 0.00732523 3.08096e-18)
(0.00181399 0.000357336 -2.25073e-18)
(0.000463743 0.000703624 9.24566e-18)
(0.00184062 0.00332416 4.37508e-18)
(-0.00379562 0.0126387 1.77577e-19)
(-0.0178727 0.00776136 -8.75088e-18)
(0.00240272 0.000691268 9.60121e-19)
(-0.0261349 -0.00987025 -6.43217e-19)
(0.000362542 -0.000205813 -2.19422e-18)
(-0.00230059 0.00183744 -4.60865e-18)
(0.00103207 0.00248499 9.0445e-18)
(0.00165781 0.00145404 -1.30944e-17)
(-0.00195404 0.00213831 -4.2947e-18)
(0.00116039 0.000148197 -2.73948e-18)
(0.000861999 -0.00276035 3.30235e-19)
(-0.00547434 0.00224974 -6.71982e-18)
(0.000162513 -0.000355991 -5.92951e-19)
(0.00154964 0.00411206 5.42946e-20)
(0.001651 0.0022176 -2.68266e-17)
(0.00176437 0.000334227 5.23847e-18)
(-0.00173267 0.00889047 -1.26837e-17)
(0.00246151 0.000679083 3.99844e-18)
(0.00106583 0.000617148 -3.74817e-18)
(-0.00807958 0.00417055 8.16324e-18)
(-0.000260627 -0.000130236 1.56295e-19)
(0.00203742 0.00126038 1.21016e-17)
(0.000106271 0.000351832 3.64043e-19)
(-0.00213869 0.00224318 -2.32877e-17)
(-0.00228663 0.00798288 1.01553e-17)
(0.000373562 0.000154981 -1.4574e-17)
(0.00218491 0.00444298 4.85895e-18)
(0.000306983 0.000153245 -6.43188e-18)
(-0.00246084 0.00177625 7.99898e-18)
(0.000913878 -0.00119666 -2.99598e-19)
(-0.000205434 -3.13283e-06 4.61391e-19)
(0.000712817 -0.000446795 -2.17097e-19)
(-0.000110082 0.00759801 -1.92537e-17)
(0.00170365 0.00238665 1.4982e-17)
(0.000937086 0.00134275 -6.72121e-18)
(0.000202616 0.000127122 -1.05354e-17)
(0.00113445 0.000155296 3.16121e-18)
(0.00106652 0.000588531 4.61844e-18)
(-0.0102063 0.00654285 -4.8144e-19)
(0.00549149 0.00311176 -1.63008e-17)
(-0.00678182 0.00502297 6.2456e-18)
(0.001445 -0.00039854 1.11187e-18)
(-0.00253613 0.00237794 1.26542e-17)
(-0.0133324 0.006643 -1.54871e-17)
(0.000325324 7.00617e-05 5.98068e-18)
(0.0019657 0.00300987 4.49259e-17)
(-0.0165923 0.00733148 -3.25073e-19)
(0.00111396 -0.000344483 -3.25121e-20)
(0.00400738 -0.00278962 4.4133e-19)
(0.00235203 0.00683253 9.30182e-18)
(-0.019227 0.00788687 -5.44621e-18)
(0.00101414 -0.000784138 3.71945e-19)
(0.0182902 -0.0186197 1.81333e-18)
(-0.00403307 0.00204443 -1.76068e-18)
(0.000296007 6.28974e-05 6.2415e-18)
(-0.00133978 -0.00127441 1.56864e-19)
(-0.00186845 -0.00108622 -1.88326e-19)
(-0.0182105 0.00221509 -3.36277e-18)
(0.000891449 0.00134934 5.80241e-18)
(0.00425909 -0.00319557 1.35053e-18)
(-3.56378e-05 -0.00118161 1.97161e-18)
(0.000648092 -0.000334781 8.75253e-19)
(0.0164386 -0.0200963 -5.27419e-18)
(0.00069954 -0.000452142 -1.57469e-18)
(0.000297822 0.000144853 1.42488e-18)
(-0.00041859 -2.48279e-05 -8.45949e-21)
(-0.000374364 -0.000126482 2.89132e-20)
(0.000576644 -0.000282249 -5.56444e-19)
(-0.00457567 0.00230849 -9.69842e-18)
(0.00467245 -0.00653262 8.90093e-20)
(0.00083899 0.000225774 -1.6964e-18)
(0.00148831 0.00399016 2.8243e-17)
(-0.000229155 -0.000152297 -3.48842e-20)
(-0.0256889 -0.00982296 2.4814e-18)
(0.00284255 0.00143749 -2.46557e-18)
(-0.00352554 0.0118821 -2.94301e-19)
(-0.00640699 0.00415782 -1.01403e-17)
(0.000863036 0.000219822 1.05601e-18)
(0.000506675 -0.00254139 9.32307e-20)
(0.00176625 0.00211363 1.77365e-18)
(-0.00678653 0.0130127 6.57936e-19)
(0.000876874 -0.000105449 -2.21319e-18)
(-0.000337483 -7.45348e-05 -1.43302e-19)
(0.00115586 -0.000952305 2.38821e-19)
(0.000592629 9.55453e-06 -2.62897e-18)
(0.000582675 -2.34965e-05 9.39211e-19)
(-0.0017507 0.00847546 7.94564e-18)
(0.00122912 -0.000359172 2.09445e-19)
(-0.00753903 0.00827155 1.09942e-17)
(-0.00530522 0.00336877 -1.78258e-17)
(-0.00545565 -0.00208236 9.44214e-20)
(-0.0045815 -0.00321448 -1.37759e-19)
(0.000573056 -0.000902347 6.72831e-20)
(0.000416686 -0.000162288 -2.66012e-18)
(0.000280465 3.07389e-05 -2.63484e-18)
(0.00151613 -0.000326093 -7.81634e-19)
(0.00204692 0.00447863 7.11534e-18)
(-0.00122447 0.00909369 -2.47368e-17)
(0.00131659 0.00340818 -1.59706e-17)
(-0.0029701 0.00230253 1.34204e-17)
(-0.00504587 0.00221764 2.18877e-19)
(-0.000221751 -0.000148055 3.63305e-20)
(0.000293918 0.000287596 1.49855e-18)
(-0.00649212 0.00415121 5.61796e-18)
(0.00193962 0.000136504 1.41479e-17)
(0.00495409 -0.0101499 -1.31344e-18)
(-0.00835691 0.00490501 1.70381e-17)
(0.00119606 -0.000998748 1.00764e-19)
(0.00182744 0.00217711 -7.81723e-18)
(-0.000120613 -2.75754e-06 -4.87365e-19)
(-0.0145363 0.00672306 -5.59945e-18)
(-9.90069e-06 -0.000199811 9.58061e-19)
(0.00255312 0.00142594 -5.61628e-18)
(0.000573141 -0.000880586 -3.6133e-19)
(0.000392546 0.000546117 1.54555e-18)
(-0.000298988 -5.77542e-06 -2.46315e-20)
(0.000141343 -0.000344808 9.53075e-20)
(-0.000190556 -0.00014819 -6.2757e-20)
(0.00427973 0.00510843 -2.61024e-17)
(0.00463334 -0.00132658 8.34617e-20)
(-0.00284423 0.00198374 -2.68634e-17)
(0.0017648 -0.00041411 2.67126e-18)
(0.00228173 0.00460064 -1.09607e-17)
(0.00269139 -0.00097368 1.96443e-19)
(-0.000693397 0.00108665 -2.58392e-19)
(0.00216755 0.00118778 -7.42441e-19)
(-0.0181053 0.00150817 2.22356e-18)
(0.00161342 0.00140525 -1.3714e-19)
(0.00144722 0.0125666 -2.05048e-19)
(-0.000364275 -6.46315e-05 5.45564e-20)
(0.00013784 -0.00032843 -6.79446e-20)
(-0.000151755 -2.86128e-08 1.14468e-19)
(-0.0186186 0.00631552 9.23972e-18)
(0.00383549 -0.00229871 -7.33473e-19)
(-0.00366185 0.00635336 -1.4282e-18)
(0.00264463 -0.000765723 -8.95754e-20)
(-0.00244216 0.00182185 2.9988e-17)
(0.0104077 -0.00531827 2.22463e-19)
(0.00130123 -0.00251221 -4.59384e-19)
(0.000573487 -2.20432e-05 5.04561e-19)
(0.00190975 0.00538664 5.68392e-17)
(0.000853687 -0.00010124 2.76503e-18)
(-0.000415312 0.00121501 1.44332e-20)
(-0.000304395 -1.08834e-05 -8.10978e-21)
(-0.0184581 -0.00226926 1.00187e-18)
(0.00117634 0.000904009 -6.04848e-19)
(0.00409649 0.00122051 -3.36804e-18)
(-0.00131335 0.000694155 -2.06908e-17)
(0.000430988 -0.000747343 1.28593e-19)
(0.0043481 -0.00084758 6.54096e-20)
(0.00186643 0.000346889 6.51472e-19)
(0.00386648 -0.000156697 1.53387e-18)
(-0.00048694 -6.89743e-05 1.05564e-20)
(0.00197024 0.00228779 4.62273e-18)
(0.00283424 0.00361356 -2.65673e-17)
(0.000644639 0.00118614 -2.2963e-20)
(-2.05932e-05 -0.000157354 -2.29514e-19)
(0.00110853 0.000551014 -3.46134e-18)
(0.000454029 0.00583153 -3.0367e-18)
(-0.00896733 0.00752863 1.76067e-17)
(0.00172173 -0.00078956 6.68142e-19)
(-0.00400356 -0.00266157 3.00492e-18)
(-0.000176039 -3.4072e-06 -7.51111e-20)
(0.0007414 -0.000465425 -3.83574e-19)
(-0.00125224 -0.000163486 2.22735e-18)
(0.00261261 0.000464581 -5.55833e-18)
(-0.000409838 -0.000191158 1.34843e-21)
(-0.0266344 0.0231019 1.75894e-18)
(0.000403815 -0.000159835 -2.11334e-19)
(0.00158527 -0.000276201 8.08126e-19)
(5.66993e-05 -0.000207827 1.0253e-19)
(0.00380803 0.000702476 -1.90633e-18)
(0.00158542 0.000381599 4.64565e-18)
(-0.000378179 -0.000200383 3.69437e-20)
(0.000406929 -0.000739638 2.3171e-20)
(-0.00885784 0.00456192 3.39565e-18)
(0.000605158 0.000300199 -4.54183e-18)
(0.00149153 0.00353906 2.32809e-17)
(0.000345415 -7.14176e-05 1.05721e-18)
(0.00103563 -0.00107383 3.88838e-20)
(0.00726691 0.00360181 1.04939e-19)
(8.17253e-05 -3.67524e-06 -1.01884e-18)
(0.000914259 -0.000210691 2.45355e-18)
(9.32005e-05 -8.60318e-06 2.28165e-20)
(7.93191e-05 -7.06265e-06 1.37957e-18)
(-0.00626649 0.0108351 -3.30104e-19)
(0.000944901 0.000720701 -8.52084e-18)
(0.00182938 -0.00322158 1.41691e-19)
(0.000498396 0.000258289 2.57069e-18)
(-0.0001501 -6.79662e-06 3.82003e-19)
(-0.00299138 0.00368265 -1.07876e-17)
(-0.00104512 0.000602503 1.16274e-17)
(0.000520917 0.000318746 -8.76171e-18)
(0.000937408 -0.00107251 -1.1806e-19)
(0.00216457 0.00124968 -3.77254e-18)
(-0.00143532 0.000644015 2.28032e-19)
(-0.00338033 0.00214667 -1.34187e-17)
(0.000756636 -0.000457438 -5.2541e-19)
(0.00392925 -0.00734501 1.28171e-19)
(0.000893961 -9.06417e-05 2.46792e-18)
(0.0047022 0.00379312 -2.60724e-18)
(0.000455469 0.00060489 5.9013e-18)
(-0.000827363 -9.78204e-05 7.39808e-18)
(-0.000394743 -4.91361e-05 2.31474e-20)
(-4.71266e-05 -0.0019201 1.20081e-17)
(0.00310673 0.00385839 -1.19247e-20)
(-0.000284081 -0.000124598 1.26721e-19)
(0.0008877 -0.000949621 -1.47874e-20)
(-0.00596961 0.00379312 -1.77625e-17)
(0.00319884 0.00183151 -9.62951e-18)
(-0.000544628 0.000502082 -7.47399e-20)
(0.000410904 -2.56995e-05 -2.57557e-18)
(0.00853917 -0.00570902 -1.08195e-18)
(0.000588198 -1.08892e-05 4.05074e-18)
(0.000233196 -0.000153734 5.85046e-19)
(0.000337494 -0.000215714 -4.77721e-19)
(0.000294061 0.000529565 -8.1672e-18)
(0.00165341 0.000349499 3.32438e-18)
(0.00253857 0.00504265 -3.23531e-19)
(-0.0123543 0.00775515 6.66237e-18)
(-0.018387 0.00709477 2.15496e-17)
(0.000251638 -0.00180654 -2.51751e-20)
(-0.000294445 -0.000297622 6.10557e-21)
(-0.0132832 0.00709136 -3.98596e-18)
(0.00401254 -0.00142905 -6.30542e-19)
(0.00179745 0.00165658 3.99833e-18)
(0.00118063 0.00253461 -2.0609e-17)
(-0.00166854 0.000326036 -2.93163e-19)
(0.00226408 0.00347304 -3.68241e-19)
(-0.00556966 0.00300138 -5.15545e-19)
(0.000377438 3.49172e-05 -1.46261e-18)
(-0.000889266 6.80282e-05 1.11675e-17)
(-0.00384546 0.00260784 1.53125e-17)
(-0.00474253 0.00390242 6.01044e-18)
(0.00253459 0.000629751 -2.77355e-18)
(0.000809731 -0.000924326 3.55373e-20)
(-0.00115255 0.0131761 -3.33883e-19)
(0.00469537 0.000126318 5.32073e-20)
(0.00188723 0.00897827 3.53585e-19)
(0.0101447 -0.00341006 2.74289e-19)
(-0.0163745 -0.0023918 4.66999e-18)
(0.00172375 0.000410504 -2.92334e-18)
(-0.0154626 -0.00166216 -8.94709e-18)
(-0.00991037 0.00447561 1.78291e-17)
(-0.000385858 -5.6443e-05 -2.4567e-19)
(0.00357657 0.000710039 -2.64855e-19)
(0.00245359 0.00519248 4.49607e-18)
(-0.000753383 0.000373494 -1.18434e-17)
(0.0016515 0.000892243 5.7929e-18)
(0.000614812 0.00013354 -6.20518e-19)
(0.000590243 -0.000313764 -4.4035e-19)
(0.000865702 3.65604e-05 1.05927e-18)
(0.00477512 0.00455879 -3.43392e-18)
(0.00364019 -0.000503899 -1.18759e-18)
(-0.0299367 0.020543 -1.44644e-18)
(-0.00594447 0.000144133 6.52231e-18)
(0.000179259 -6.98924e-05 -2.31702e-18)
(-0.00113775 -0.000278777 -6.75791e-18)
(-0.0024458 0.000769836 -8.63642e-18)
(-0.000853457 -0.0028246 -3.18179e-19)
(0.0032497 -0.000989486 2.39855e-20)
(0.00154426 0.00343789 -1.67593e-17)
(-0.000430758 -0.00016548 -6.3263e-20)
(0.000117696 -0.000317995 -2.36588e-19)
(0.00765479 -0.000591817 -1.01162e-19)
(-0.0124052 0.00681803 4.30043e-18)
(0.00102076 0.00137649 -6.94831e-18)
(0.00104515 0.00661109 -6.4961e-17)
(-0.0144015 0.00771478 7.79861e-18)
(-0.00030267 -0.000137316 7.85576e-20)
(0.00310378 -0.00131104 -6.81495e-21)
(0.0026592 0.000508958 -4.63948e-19)
(-0.0183117 0.00245326 1.69618e-18)
(0.00373908 0.00734294 1.16666e-17)
(0.00148595 0.000429279 1.3385e-17)
(-0.00954003 0.00436803 -1.37127e-18)
(0.000918553 -9.46304e-05 5.21728e-19)
(0.000368682 0.000557923 8.91368e-18)
(-0.00974917 0.0314788 4.73623e-18)
(-0.00497056 0.00210358 -1.68907e-18)
(-0.00954307 0.00810763 -5.85065e-18)
(0.00120021 0.00340957 1.33288e-17)
(-0.000986178 -0.000614532 1.93101e-18)
(-0.000362473 -0.000135659 -1.34826e-20)
(0.000696234 1.04914e-06 4.0705e-19)
(-0.0173849 -0.00158008 -5.80919e-18)
(-0.000317189 -0.000128487 -3.48785e-20)
(0.0016529 0.000846769 4.81739e-18)
(-0.00037671 -0.00014731 3.46956e-20)
(0.000437488 -0.000100981 4.1814e-18)
(-0.00953806 0.00436406 -8.32281e-18)
(0.00452064 0.00486978 -1.35492e-17)
(0.00238663 -0.00074409 -1.93393e-19)
(-0.000326924 -0.000131125 4.6919e-20)
(-0.00252488 0.00804383 -7.0044e-19)
(0.00755493 -0.00170937 -7.1948e-20)
(0.000399168 -0.000199192 4.97093e-19)
(-0.000200883 -1.46222e-05 -5.68367e-20)
(5.41776e-05 1.27243e-05 -1.53968e-19)
(0.000298385 4.11353e-05 3.10725e-18)
(0.000571147 -8.86063e-05 6.77499e-19)
(0.0103136 -0.00479472 5.22558e-20)
(0.00881909 -0.00488959 -2.10006e-19)
(-0.00449268 0.00418349 1.92194e-18)
(0.00898843 -0.00607862 1.3739e-18)
(0.00109323 0.0032476 -3.87343e-18)
(-0.00047068 0.000249428 2.49581e-17)
(-0.000720492 0.000671 1.56383e-18)
(0.00105312 -0.000786372 -2.84117e-20)
(0.00164863 0.0032105 -1.46864e-17)
(-0.000436633 -0.000172797 4.56883e-20)
(0.000197235 0.000383053 3.45492e-19)
(0.00259625 0.00154432 3.5802e-18)
(-0.0103554 0.00534406 -7.87386e-18)
(0.0185992 -0.0190328 6.99752e-19)
(0.00116923 0.00653792 4.74062e-17)
(0.00205192 0.0019346 -9.73514e-18)
(0.00010158 -0.000265595 -3.89337e-19)
(0.00265293 0.00128969 -4.44558e-18)
(0.000234725 -0.000759782 -2.79153e-19)
(-0.000556682 0.00349947 -2.85147e-19)
(0.00303221 0.00519804 2.18342e-17)
(0.000492421 0.000238611 3.18859e-19)
(0.00147677 -0.000514633 -1.28364e-19)
(-1.21262e-05 -0.000153404 4.41882e-19)
(0.00136372 0.00224424 3.00177e-17)
(-0.00715611 0.00664494 -1.02876e-17)
(0.000430675 0.000658431 -1.79317e-19)
(0.000838101 -0.000114393 4.61772e-20)
(0.00279594 0.00146867 -6.67296e-18)
(0.000682273 0.000596556 -1.33563e-17)
(0.00450241 0.00437851 -2.10523e-18)
(-0.0185716 0.00587358 -6.06551e-18)
(-0.00049944 0.00673757 -3.51448e-18)
(0.0027523 0.00122757 -3.73896e-18)
(-0.0126331 0.00824199 -1.61893e-17)
(9.7717e-05 -0.000251699 -1.23142e-18)
(0.0028149 -0.0080189 -1.35476e-18)
(0.000870765 -0.00112162 -7.74193e-20)
(-0.00410986 0.00392578 -1.26868e-18)
(0.00133981 5.55928e-06 -9.29077e-19)
(-7.71641e-05 -1.09002e-05 3.69361e-20)
(-0.0064661 0.00350582 -4.05715e-17)
(0.00170573 6.08309e-05 1.73375e-18)
(-0.0049206 0.00300833 -1.18955e-17)
(-0.00317075 0.00184494 -1.45234e-17)
(-0.00253279 0.00178466 -6.31957e-18)
(-0.0236079 0.0253145 -2.15163e-18)
(-8.41326e-07 -0.000195657 7.23747e-20)
(-0.00788396 0.00390924 3.3348e-18)
(-1.93022e-05 -0.000487282 -3.84689e-21)
(0.000430109 -0.000124006 -7.67897e-19)
(-0.000406818 -4.80158e-05 8.17842e-22)
(0.000447267 -0.00011203 1.36821e-18)
(0.000642988 -0.000950713 1.72559e-22)
(0.00165058 -0.000425257 -1.21808e-18)
(0.00362663 0.000577232 2.35378e-18)
(-0.000339668 -0.000122384 9.55421e-21)
(-0.0126579 0.00511062 -5.9055e-18)
(0.00241984 0.00387832 1.05596e-18)
(-0.0118327 0.00543715 9.84107e-18)
(0.000514616 -0.000317661 -3.73453e-19)
(-0.000436999 -4.40026e-05 3.17678e-20)
(-0.000256515 -8.7721e-06 -1.08132e-19)
(-0.0143833 0.00696656 1.2181e-17)
(-0.00844646 0.00691149 -6.53829e-19)
(0.00105753 0.00491719 2.7823e-17)
(0.00142946 0.00226487 -1.79888e-17)
(3.05424e-05 -0.000468779 2.13157e-21)
(-0.000137346 -6.01731e-06 6.60098e-19)
(0.000183947 -4.3092e-05 5.0735e-19)
(0.000626201 -0.000372198 1.21403e-18)
(-0.0165946 0.0065922 -5.79943e-17)
(-0.00599011 -0.0237463 3.09998e-19)
(0.000671735 0.000572242 5.68279e-19)
(-0.000349319 -0.000124664 -2.2777e-20)
(0.000269061 0.000537461 -3.50002e-19)
(0.000627031 -0.000358121 -2.19069e-18)
(-0.0199144 -0.00176635 -1.64135e-19)
(0.00030455 -0.00149161 1.02846e-17)
(0.0026394 0.00134284 7.04555e-18)
(-0.00721084 0.00465652 5.44575e-18)
(0.00636669 -0.00326317 7.19595e-19)
(0.000817904 -0.000110223 -1.42489e-18)
(-0.00879894 0.00753885 2.82704e-17)
(0.00271137 7.55134e-05 -2.55989e-17)
(0.00171847 0.00332633 -1.69078e-17)
(-0.0208825 -0.0144732 -8.43587e-19)
(0.00067861 0.000857718 -6.80057e-18)
(0.00186555 -0.000298033 -2.18429e-19)
(0.00113482 0.00483663 -9.02503e-18)
(0.00175526 -0.000312146 6.19156e-19)
(0.00946717 -0.00349192 -4.70236e-19)
(0.000513413 0.000297794 -1.88035e-18)
(-0.000398265 0.0107165 -2.3463e-19)
(-0.00030212 -8.68218e-06 -3.25686e-20)
(0.000279447 0.00316733 -2.78079e-17)
(-0.00162156 0.000884921 -6.24126e-18)
(8.80797e-05 -0.000463445 -1.78654e-18)
(0.00157231 3.18294e-05 -7.16356e-18)
(-0.000815593 -2.78044e-05 1.09357e-18)
(0.000239993 -0.000169119 2.23111e-19)
(0.00176142 0.00154699 -3.2862e-18)
(0.00254135 -0.0125186 -2.68832e-18)
(-0.000992467 0.0126271 8.78526e-19)
(0.00309416 0.00503607 -7.65027e-19)
(-0.0183824 0.00794986 9.10413e-18)
(-0.00590508 -0.00237209 -3.9471e-20)
(-0.000389333 -0.000137291 9.91363e-21)
(0.000500522 -0.000301874 -5.1186e-19)
(-0.00283661 0.00405292 -2.40288e-17)
(-0.01434 0.00787449 2.2232e-17)
(0.00384612 -0.00151338 -3.12416e-19)
(-0.00360261 0.00199044 2.27038e-17)
(-6.56315e-05 -0.0002351 6.58758e-20)
(0.000194256 1.57184e-05 2.62499e-18)
(-0.000373143 -5.68533e-05 1.12469e-19)
(0.0102971 -0.00755721 -3.13578e-19)
(-0.0124392 0.00524422 -9.15523e-18)
(0.00220458 0.000653541 1.19796e-18)
(0.00124176 -0.000196608 3.37759e-19)
(0.00619884 0.00543436 6.18462e-20)
(0.00108202 0.00181137 -1.46812e-17)
(-0.000266913 -1.00343e-05 6.82688e-20)
(-0.00183289 0.000428774 -2.041e-17)
(-0.00252823 0.0104245 9.91377e-19)
(-0.00425621 0.00184682 5.30302e-18)
(-0.000270502 -0.00013221 -7.36776e-20)
(0.000639568 0.000570054 -1.36593e-18)
(-0.000843594 0.000257655 -8.39902e-18)
(0.000325753 -0.00142081 -1.76221e-17)
(-0.0143832 0.00764304 -9.00093e-19)
(0.000215259 -0.000727714 7.84536e-20)
(-0.00674199 0.00364417 -9.91185e-18)
(0.000554203 0.000292587 3.83226e-18)
(0.00369529 0.00960184 3.63723e-19)
(-0.00239468 0.00179217 1.29396e-17)
(0.00421486 0.00104858 -1.69156e-18)
(0.00188332 0.00119513 3.68409e-18)
(-0.00292286 0.00204055 -2.21238e-18)
(0.000618284 -0.000966303 3.74821e-20)
(4.2057e-05 -0.000790391 1.64929e-19)
(-0.0129714 0.00559538 5.32469e-18)
(-7.13104e-05 -1.38645e-05 -8.48408e-19)
(0.00024511 -3.90687e-06 -6.9183e-19)
(0.00163648 0.000400032 -3.27053e-18)
(8.01388e-05 -0.000242958 1.85826e-20)
(-0.00196561 0.000535842 -7.91385e-18)
(0.00245802 0.00165654 -1.90692e-18)
(0.00243125 0.00682041 1.79905e-17)
(0.00236082 -0.000599263 -7.74293e-20)
(0.00428709 0.00242694 -2.97343e-19)
(0.000120623 -0.000275715 -2.64098e-19)
(0.00511207 -0.0140586 2.27048e-18)
(0.00026191 -2.56488e-05 2.17229e-18)
(0.000591334 -0.000949364 -2.14113e-19)
(-0.000409999 -4.01147e-05 -3.65654e-20)
(0.000785006 -0.000117063 -1.40964e-18)
(0.000544465 -3.21673e-05 1.3848e-18)
(-0.00525838 0.00212508 -6.86766e-18)
(0.000592051 -0.000295834 -9.8269e-19)
(-0.000308606 -8.31895e-05 -1.89999e-20)
(0.00578722 0.00112969 -2.22491e-19)
(0.000371659 0.000587904 -5.37594e-19)
(-0.00124457 0.000402769 -1.68041e-17)
(-0.000231886 -6.14559e-06 -4.17446e-20)
(0.000316036 -0.000749167 7.62535e-20)
(0.00169288 0.0056575 2.728e-18)
(-0.0205091 -0.00281081 -1.89571e-18)
(0.00532272 -0.00389212 6.53611e-20)
(0.000121579 -5.54337e-05 4.16805e-19)
(0.00473657 -0.00641495 -5.44112e-19)
(-0.00787343 0.00499944 -2.81477e-18)
(0.000984911 0.000725941 2.42097e-18)
(-0.00705713 0.00295121 5.3116e-18)
(0.000340275 0.00311051 2.27445e-17)
(6.03782e-05 -0.000221706 1.94747e-18)