/*--------------------------------*- C++ -*----------------------------------*\
| =========                 |                                                 |
| \\      /  F ield         | OpenFOAM: The Open Source CFD Toolbox           |
|  \\    /   O peration     | Version:  v2012                                 |
|   \\  /    A nd           | Website:  www.openfoam.com                      |
|    \\/     M anipulation  |                                                 |
\*---------------------------------------------------------------------------*/
FoamFile
{
    version     2.0;
    format      ascii;
    class       volScalarField::Internal;
    location    "500";
    object      V0;
}
// * * * * * * * * * * * * * * * * * * * * * * * * * * * * * * * * * * * * * //

dimensions      [0 3 0 0 0 0 0];


value           nonuniform List<scalar> 
13917
(
0.00162143
0.0423391
0.00438109
0.043754
0.0902791
0.0538199
0.0229481
0.0438092
0.0213259
0.00125108
0.0473282
0.0627884
0.178039
0.0445246
0.0630258
0.00136176
0.164155
0.0470544
0.00652293
0.00164625
0.0324813
0.107129
0.0118503
0.117886
0.0328169
0.0333793
0.0212691
0.00133818
0.0419423
0.163344
0.00129642
0.00773072
0.0457482
0.0017104
0.141718
0.0446547
0.0506515
0.175255
0.0208651
0.0281938
0.201107
0.140799
0.031054
0.00561846
0.00675143
0.00837348
0.0398354
0.00321479
0.0513585
0.114149
0.0623459
0.00942965
0.00143313
0.0795227
0.0782385
0.00702086
0.00115572
0.0133416
0.150765
0.0104264
0.00764773
0.123681
0.161897
0.0375291
0.00250246
0.153398
0.0409068
0.0416946
0.0421571
0.00128465
0.00375366
0.00127285
0.0728337
0.149901
0.0323076
0.0387218
0.075073
0.157258
0.0443417
0.0334881
0.0850829
0.181114
0.0778034
0.003514
0.151035
0.0369207
0.00844624
0.171478
0.0295074
0.13867
0.152476
0.0280848
0.0606521
0.149965
0.0687612
0.0409536
0.0290352
0.176383
0.141111
0.0267906
0.17077
0.131663
0.0714783
0.15315
0.0978281
0.0028504
0.00261204
0.137416
0.139786
0.0200931
0.170376
0.001975
0.0385894
0.0032656
0.00277268
0.0383822
0.00738689
0.168235
0.00484422
0.0723271
0.173348
0.15825
0.0388018
0.00833098
0.00147217
0.00213317
0.0337001
0.031543
0.135472
0.00667923
0.0129472
0.0119432
0.00209045
0.0429788
0.00669314
0.0211541
0.00826611
0.00138415
0.0368962
0.18633
0.0621362
0.156751
0.0031232
0.0991199
0.0685635
0.152339
0.00347555
0.121345
0.00218194
0.0899729
0.0267244
0.200177
0.0702465
0.0616298
0.0243741
0.0962018
0.145541
0.00172299
0.183685
0.157057
0.139377
0.00375188
0.0548931
0.0702981
0.00452258
0.0237412
0.00122771
0.00449373
0.173363
0.0364343
0.104751
0.0023213
0.0248033
0.00789551
0.0103683
0.168033
0.0393942
0.00980572
0.0160594
0.0512233
0.0310781
0.114916
0.0517752
0.00556582
0.0046788
0.0141158
0.0593909
0.00770683
0.169003
0.0385639
0.0136975
0.00667446
0.00687444
0.00151031
0.114268
0.00150246
0.0267088
0.00214608
0.139922
0.102201
0.0348404
0.0013824
0.00119724
0.0518325
0.0161948
0.043215
0.0256626
0.1533
0.00892908
0.0840299
0.1439
0.0757784
0.0737195
0.00290904
0.00663609
0.0309437
0.00293011
0.171638
0.15239
0.144735
0.00427354
0.00778301
0.00758927
0.151001
0.168011
0.0218142
0.00147681
0.131212
0.146338
0.152751
0.147364
0.15157
0.00113202
0.00296283
0.076907
0.169149
0.011336
0.00143694
0.159695
0.153627
0.0208201
0.00272755
0.00557647
0.00262528
0.0110497
0.0874602
0.00493152
0.00994941
0.0335064
0.00871136
0.0513095
0.00233326
0.0588587
0.0146477
0.0144547
0.0843982
0.180129
0.0321282
0.101894
0.130674
0.00144152
0.037639
0.158436
0.143898
0.0960769
0.139542
0.0672375
0.179988
0.0160931
0.158076
0.00131823
0.0027516
0.0950659
0.0960712
0.0104123
0.159336
0.0228227
0.00147275
0.154604
0.00127127
0.135382
0.00452515
0.181275
0.0665545
0.071152
0.125287
0.00526364
0.171382
0.02235
0.0258182
0.0391193
0.124898
0.0206832
0.00132971
0.139873
0.0125751
0.101844
0.0398848
0.0974061
0.0362835
0.142151
0.174352
0.0118169
0.102231
0.0173123
0.0365027
0.125772
0.00179283
0.00110341
0.136338
0.16718
0.0371522
0.0844838
0.00502101
0.00278029
0.00672202
0.188976
0.0142113
0.0928141
0.00330863
0.0848876
0.00372774
0.141245
0.0599049
0.0191909
0.0964176
0.0406529
0.00656612
0.1793
0.00188502
0.149078
0.0102024
0.161873
0.00165245
0.12902
0.0153786
0.0386279
0.179437
0.188497
0.00745537
0.0030619
0.0708523
0.0945035
0.0018892
0.0029027
0.00541267
0.042958
0.164866
0.0767259
0.00263907
0.0119405
0.175551
0.120731
0.0578247
0.0291516
0.0134687
0.00782898
0.0148685
0.024056
0.00914211
0.00167117
0.12562
0.0725781
0.0647828
0.00491608
0.171196
0.00124091
0.0108958
0.118433
0.0605477
0.0146024
0.166335
0.0547976
0.128529
0.0068328
0.00899572
0.043622
0.0833139
0.0036675
0.1594
0.00497992
0.00622319
0.126688
0.0524499
0.0790615
0.132566
0.136604
0.0015759
0.126581
0.0427673
0.0201934
0.0265718
0.0581689
0.00605794
0.00401954
0.0445285
0.00560577
0.0772829
0.0265627
0.00461248
0.1285
0.0199776
0.0303445
0.135199
0.131748
0.135525
0.00766053
0.0232288
0.0594534
0.131666
0.104828
0.0141312
0.0457907
0.165301
0.190486
0.00587659
0.0164617
0.103061
0.0514857
0.0065799
0.0292084
0.144147
0.00596729
0.0030932
0.145776
0.163662
0.0370868
0.134447
0.16305
0.0656969
0.137923
0.142666
0.0040482
0.0736512
0.021611
0.00136415
0.0124914
0.13661
0.0714285
0.00551728
0.0398816
0.00122442
0.166164
0.0868808
0.152782
0.145499
0.0487634
0.0810829
0.00818858
0.145459
0.00245258
0.0949063
0.0134808
0.134611
0.0723089
0.0105249
0.00666245
0.0560639
0.0234694
0.135162
0.145528
0.102888
0.0798333
0.143032
0.15962
0.00186755
0.00645386
0.142727
0.017309
0.00496778
0.150386
0.0123536
0.00667179
0.00381474
0.0182028
0.00278374
0.131876
0.131755
0.0748849
0.156538
0.133748
0.0563466
0.00606454
0.141534
0.0760547
0.0583831
0.0203729
0.0273362
0.00436342
0.00829435
0.126691
0.0959274
0.0410345
0.0204112
0.0556771
0.0349547
0.0131816
0.0252352
0.00517299
0.129744
0.0171224
0.00837302
0.135242
0.00164867
0.121165
0.133248
0.012082
0.155187
0.171999
0.0123605
0.0017116
0.0206015
0.130093
0.0313171
0.117101
0.00688689
0.0096656
0.0611162
0.0864478
0.117859
0.0146339
0.108141
0.12739
0.198371
0.104685
0.117043
0.107622
0.0174403
0.158641
0.00794897
0.139024
0.107707
0.0327502
0.00189598
0.136645
0.0263591
0.130817
0.0153123
0.0110291
0.0285471
0.0118831
0.0225979
0.0436642
0.0414007
0.00208614
0.00369309
0.00142281
0.140195
0.104154
0.120248
0.0770077
0.00289462
0.147509
0.0823853
0.0276884
0.00249242
0.0218824
0.0269063
0.00140739
0.145037
0.00635662
0.180641
0.140138
0.00164025
0.167808
0.00330456
0.176564
0.139902
0.102165
0.00456787
0.107151
0.118657
0.00576895
0.01246
0.100645
0.00338118
0.00210718
0.0036977
0.123228
0.00108604
0.160957
0.00700128
0.110783
0.13003
0.155748
0.132478
0.0139149
0.0284381
0.162977
0.13748
0.154884
0.00375776
0.093122
0.00813015
0.0768966
0.123309
0.167296
0.00800296
0.00411797
0.00173693
0.00946582
0.0166017
0.00475511
0.00133332
0.134774
0.00630819
0.148872
0.00605084
0.0728841
0.00357523
0.117889
0.101863
0.0589718
0.0938808
0.0162275
0.00263421
0.15418
0.0153547
0.120568
0.135234
0.0015988
0.0264816
0.103553
0.00746168
0.112235
0.135099
0.177918
0.00166737
0.110653
0.0935473
0.12446
0.100146
0.00427992
0.18942
0.00696125
0.17007
0.142214
0.00709702
0.00681281
0.0799648
0.00114585
0.00311722
0.0491451
0.00685215
0.148129
0.0547961
0.00164097
0.00293989
0.0367042
0.0410159
0.0846505
0.137634
0.112286
0.155341
0.00981279
0.0269589
0.00509499
0.0161875
0.0471677
0.00924351
0.0966204
0.015535
0.00672337
0.00124578
0.137025
0.0872642
0.132489
0.13582
0.127031
0.184399
0.110186
0.152271
0.000961954
0.0138408
0.162721
0.00634406
0.122683
0.00227763
0.135676
0.128632
0.00165067
0.00927602
0.139058
0.0502759
0.157418
0.131012
0.0321575
0.0115238
0.116448
0.0011989
0.0228231
0.112419
0.13878
0.0850699
0.001541
0.0302484
0.13451
0.10948
0.00145872
0.0174569
0.0235915
0.00135909
0.0871828
0.133988
0.133592
0.0486941
0.00257791
0.140446
0.0144923
0.0373859
0.023883
0.00488029
0.0951572
0.00758142
0.0120687
0.0673256
0.0268632
0.133065
0.0180335
0.096682
0.00311552
0.0407515
0.122632
0.00129535
0.168635
0.0857943
0.0465884
0.0484623
0.0214589
0.00302498
0.174817
0.00776043
0.0037994
0.168999
0.0819124
0.0370723
0.149077
0.0793353
0.0701534
0.0613112
0.144136
0.00815227
0.00695394
0.139676
0.00334634
0.0175812
0.0165023
0.00718692
0.0764238
0.00645012
0.0226086
0.135021
0.00982315
0.0121376
0.0112335
0.0966659
0.138451
0.093117
0.00115732
0.0509554
0.14343
0.0115085
0.115296
0.135457
0.00604046
0.0233377
0.0615436
0.0281282
0.0307843
0.00247827
0.0503366
0.0625887
0.00432552
0.13066
0.132676
0.152849
0.149956
0.0548148
0.0373051
0.0263046
0.0949581
0.159159
0.106557
0.0844335
0.0424982
0.0166103
0.147028
0.00689514
0.0602344
0.00447392
0.0593006
0.142246
0.00215826
0.0329815
0.0014766
0.0302199
0.0631146
0.0936035
0.133289
0.0794363
0.00159185
0.0193822
0.0474094
0.0269096
0.0859341
0.0106328
0.179113
0.115588
0.115411
0.135188
0.00441284
0.0263585
0.057693
0.00649696
0.0846376
0.152661
0.128305
0.0147172
0.137998
0.076389
0.0446506
0.106092
0.00988422
0.122781
0.0316254
0.0643071
0.00124745
0.00142956
0.0710095
0.00241011
0.0217733
0.00123405
0.0867146
0.14778
0.129713
0.0774434
0.0429623
0.114481
0.0177634
0.0954463
0.0341124
0.0739517
0.00314156
0.04741
0.0147241
0.0152892
0.131581
0.0234183
0.0314373
0.135057
0.0207532
0.159799
0.00188564
0.00891665
0.149098
0.130171
0.0893182
0.102679
0.104842
0.00507631
0.142867
0.023707
0.114972
0.160225
0.0707682
0.0990098
0.00528146
0.092691
0.147795
0.140089
0.00539105
0.0561415
0.00688242
0.139748
0.0263626
0.161413
0.102919
0.00138644
0.13381
0.0343306
0.00693155
0.00146113
0.156997
0.0842898
0.0044115
0.147176
0.0874592
0.10299
0.00306772
0.104908
0.00523687
0.0502199
0.00172512
0.0602386
0.0117091
0.119574
0.16361
0.143608
0.166276
0.169037
0.00216004
0.0521369
0.130459
0.0794672
0.137957
0.131182
0.00903046
0.0441315
0.00249153
0.0218992
0.00704388
0.0081377
0.025158
0.00130363
0.0620432
0.00957273
0.0923757
0.00123656
0.136988
0.045911
0.163355
0.134775
0.050462
0.153852
0.139733
0.13724
0.0841497
0.0181272
0.13786
0.0528073
0.00739034
0.00448943
0.0039674
0.00706627
0.0900534
0.118286
0.110674
0.0043033
0.107862
0.00112547
0.121599
0.146373
0.160256
0.0792075
0.127189
0.14945
0.110522
0.0148479
0.131432
0.00140218
0.0832339
0.12415
0.00178695
0.0878762
0.104806
0.118521
0.00171232
0.0182547
0.156996
0.137255
0.149605
0.126426
0.00300848
0.133557
0.0274721
0.037487
0.0617144
0.148282
0.140312
0.0249776
0.0866933
0.0279414
0.00146647
0.0952386
0.123906
0.0807251
0.0925181
0.13763
0.00554434
0.0123553
0.0245194
0.00149243
0.00172833
0.0885789
0.00548027
0.140696
0.00146298
0.134186
0.00790522
0.0129485
0.0180599
0.0367686
0.0107772
0.0164715
0.00274696
0.165517
0.102135
0.159536
0.0850317
0.0125456
0.0650598
0.0491132
0.0127726
0.000792466
0.141393
0.0187042
0.00137383
0.17541
0.123674
0.0774114
0.00265471
0.0400247
0.16535
0.016446
0.0701604
0.125942
0.0606963
0.0389431
0.0860391
0.111514
0.164638
0.14373
0.11333
0.0964935
0.00143146
0.0481755
0.0477984
0.128608
0.00142127
0.139216
0.155625
0.0380019
0.0456053
0.0275799
0.159952
0.00486717
0.119144
0.0967502
0.00875911
0.0977898
0.182884
0.00855397
0.00478832
0.00751915
0.00712913
0.139508
0.00750309
0.00189999
0.182837
0.00672041
0.106093
0.0137552
0.0104433
0.111917
0.0222608
0.130962
0.0242484
0.0426504
0.0542326
0.00560211
0.0155969
0.0117445
0.00580693
0.106989
0.00534083
0.0414617
0.077956
0.0967614
0.13553
0.156115
0.137371
0.0280993
0.00274661
0.132722
0.0506863
0.0274721
0.0614
0.0589093
0.0144242
0.00618512
0.0884661
0.134128
0.0291222
0.113436
0.0483978
0.00136705
0.0504268
0.0969234
0.0234277
0.143311
0.0500669
0.00196414
0.00132353
0.0610801
0.0149617
0.0404833
0.00106954
0.0255459
0.025431
0.00353664
0.128324
0.00804402
0.00292115
0.00437954
0.108575
0.0520422
0.146159
0.103789
0.147844
0.0673944
0.0934826
0.00290601
0.136249
0.0127302
0.14319
0.00825462
0.00445756
0.0485445
0.00675351
0.0246772
0.091631
0.006452
0.0532886
0.048785
0.0916363
0.00142874
0.00965846
0.00114533
0.0266693
0.0052419
0.0132499
0.153515
0.0718965
0.0157531
0.14683
0.089156
0.0104864
0.0669393
0.0360699
0.0340076
0.0407335
0.0430613
0.00922937
0.0109396
0.1075
0.0111377
0.0516733
0.0760924
0.112527
0.133829
0.00278145
0.00526616
0.142933
0.0149864
0.154592
0.0854373
0.00121752
0.0584953
0.14124
0.135347
0.0799244
0.155051
0.0479966
0.00280525
0.103705
0.0198821
0.137988
0.157156
0.00705074
0.00284727
0.00550392
0.0516579
0.177247
0.141514
0.0528779
0.00724516
0.00186521
0.148353
0.0143284
0.0363251
0.0102471
0.0277434
0.153801
0.036922
0.00555377
0.0941692
0.0253224
0.150356
0.131561
0.0569595
0.00181417
0.015005
0.143231
0.00457026
0.0108765
0.129654
0.00950261
0.129328
0.136773
0.00528725
0.104533
0.101403
0.0575571
0.00629734
0.026223
0.0434645
0.143889
0.104304
0.141771
0.0915108
0.0184957
0.0186742
0.00113667
0.0251993
0.0224115
0.0140287
0.013741
0.132753
0.033227
0.00723886
0.00391622
0.00253343
0.0587207
0.123707
0.00133057
0.117166
0.119581
0.0319296
0.0200833
0.0514142
0.145469
0.00330792
0.0196288
0.0540053
0.0882001
0.011594
0.00335342
0.00137757
0.107725
0.0968812
0.0508275
0.149662
0.138678
0.014957
0.108778
0.0264776
0.0137204
0.0468708
0.00291714
0.118393
0.0646048
0.0446355
0.149307
0.00358924
0.114197
0.143769
0.0131598
0.00772316
0.0128994
0.00415129
0.106916
0.0145441
0.123799
0.128419
0.083859
0.165969
0.0532949
0.00387134
0.0486765
0.0127297
0.0975196
0.135143
0.0695218
0.150733
0.137122
0.001441
0.157874
0.0467707
0.00719053
0.153759
0.0095775
0.0106932
0.0140743
0.0746838
0.115935
0.122678
0.136696
0.151086
0.0479895
0.109726
0.131245
0.140503
0.126574
0.0374431
0.0993687
0.0029591
0.0126255
0.141729
0.116833
0.12727
0.0131277
0.133607
0.0246125
0.104025
0.154499
0.131994
0.0115821
0.0590506
0.00363818
0.129169
0.157202
0.0279701
0.159286
0.148865
0.00180211
0.0820815
0.134342
0.0141907
0.00994954
0.00102827
0.155131
0.0229608
0.0146528
0.132559
0.145228
0.00434949
0.0971982
0.181088
0.0117753
0.127604
0.0018458
0.157932
0.116926
0.0819454
0.131587
0.00238981
0.134303
0.147313
0.00761853
0.0898286
0.131835
0.148004
0.125915
0.0100645
0.0605617
0.0944488
0.152757
0.0179971
0.0863861
0.14976
0.147862
0.0452619
0.131969
0.0237908
0.103699
0.136806
0.0585314
0.160884
0.0528297
0.0764397
0.035925
0.134439
0.00661127
0.0907431
0.0348531
0.142229
0.0439244
0.107842
0.157798
0.0248904
0.0656481
0.0215045
0.0105722
0.128511
0.00152382
0.00294766
0.00643217
0.00235462
0.0931605
0.0801198
0.0214255
0.00839327
0.119915
0.00135872
0.141285
0.00478034
0.0835509
0.0200481
0.00673674
0.0314553
0.0144427
0.14231
0.00969237
0.121867
0.125038
0.0183412
0.00193387
0.00159841
0.0484213
0.088152
0.0179412
0.142476
0.0069142
0.15239
0.0415107
0.14796
0.121159
0.00143255
0.120058
0.0134388
0.0742304
0.0208359
0.0115855
0.0759684
0.138804
0.0028353
0.129212
0.0925446
0.0468578
0.138054
0.00696434
0.0638037
0.0178138
0.00147916
0.0943546
0.0229793
0.06669
0.117619
0.0137472
0.126566
0.141791
0.0135427
0.126112
0.13607
0.0279015
0.0757384
0.00561712
0.0486131
0.139114
0.116484
0.152972
0.130881
0.114347
0.00778371
0.0803931
0.10196
0.129311
0.112793
0.0866233
0.0702978
0.0027238
0.141168
0.0248964
0.0489283
0.128327
0.0034765
0.0793631
0.144931
0.00146726
0.00628113
0.00180819
0.123837
0.00223125
0.0267764
0.084077
0.00142623
0.0811441
0.0649405
0.00515955
0.0564235
0.0366799
0.00148068
0.0408835
0.00857678
0.0745335
0.00282416
0.0928753
0.114047
0.110373
0.00143996
0.0886557
0.149374
0.0893503
0.0795379
0.131326
0.117801
0.0150569
0.029462
0.104884
0.0349181
0.00141247
0.0496238
0.010593
0.010852
0.138954
0.00726608
0.0254998
0.0616034
0.0037488
0.158651
0.00767239
0.00120365
0.130821
0.00125543
0.12135
0.00240774
0.00714185
0.0385868
0.0730238
0.113344
0.0823542
0.10482
0.0345741
0.141473
0.0773378
0.00155401
0.0143688
0.00306286
0.106789
0.0203165
0.00180455
0.108169
0.0849749
0.00272851
0.102028
0.105887
0.00410762
0.00857758
0.0113853
0.0839862
0.00369569
0.0268686
0.0624848
0.00182352
0.00452054
0.108106
0.14985
0.00607671
0.0132329
0.0136252
0.0761622
0.0190291
0.0145563
0.0247773
0.0797978
0.133011
0.0358722
0.00147401
0.0319927
0.102045
0.0971575
0.0482524
0.131938
0.00167914
0.0215316
0.119408
0.0104107
0.136436
0.147474
0.0155785
0.0114503
0.0887407
0.0025085
0.106227
0.00178373
0.134004
0.00145195
0.00342899
0.00428463
0.154536
0.0292919
0.0373573
0.0294729
0.0117558
0.0076128
0.00200313
0.0254121
0.145771
0.0275006
0.131058
0.00601199
0.00134463
0.163164
0.151401
0.0451524
0.0106048
0.0286874
0.156773
0.01806
0.0110986
0.140615
0.134131
0.0475124
0.00162969
0.067627
0.132052
0.00259281
0.0180992
0.0418826
0.00451179
0.111792
0.0331541
0.00257164
0.155457
0.0236507
0.0147642
0.00817422
0.00812636
0.00246786
0.0717942
0.0537465
0.0261573
0.12196
0.00452066
0.0104914
0.0144265
0.00584701
0.0168775
0.0831001
0.00869927
0.00267988
0.0248932
0.00529657
0.132107
0.0549141
0.073389
0.125973
0.00360381
0.025222
0.153204
0.0392263
0.00395612
0.116138
0.104654
0.00198129
0.125439
0.0738101
0.151531
0.0587599
0.0100543
0.0715792
0.00505142
0.0131814
0.0110817
0.0574351
0.01355
0.0695655
0.0501883
0.0369041
0.0842798
0.0593005
0.153982
0.138475
0.00171233
0.00545293
0.0355957
0.00543592
0.104961
0.0698896
0.0392476
0.13611
0.13401
0.0178758
0.0236137
0.00154322
0.0131403
0.00705688
0.0741019
0.008301
0.100066
0.00292908
0.148401
0.00405719
0.00778978
0.141396
0.0111999
0.00130239
0.0432455
0.124307
0.136254
0.0272355
0.00670721
0.138951
0.0488074
0.13063
0.162003
0.00320093
0.128507
0.0242044
0.124447
0.183511
0.0043537
0.0157039
0.0616179
0.00480302
0.0493187
0.00199816
0.0555595
0.142835
0.0492171
0.00136829
0.0731793
0.00861665
0.0443963
0.00271107
0.112406
0.104347
0.0580021
0.00379067
0.104727
0.140597
0.146414
0.00432785
0.00150789
0.0106142
0.106813
0.0565555
0.120506
0.00138718
0.139475
0.00373209
0.00773397
0.10784
0.00919723
0.0481911
0.153248
0.0333728
0.114779
0.0231125
0.0262761
0.015335
0.0579136
0.0675395
0.112551
0.00181381
0.144156
0.174043
0.00250443
0.0494322
0.107875
0.02354
0.129068
0.139013
0.101866
0.0282235
0.0300862
0.15252
0.154436
0.027774
0.0511721
0.0101738
0.0160696
0.136426
0.15711
0.15462
0.0752093
0.0541743
0.00904306
0.00142055
0.00273169
0.121515
0.136441
0.028098
0.00322613
0.0862708
0.133673
0.00246989
0.00308064
0.125103
0.033879
0.0482155
0.087502
0.00170324
0.113898
0.125888
0.0161721
0.00506397
0.0605545
0.0302533
0.0534397
0.00430327
0.00381613
0.137064
0.0039899
0.0613734
0.105004
0.00598658
0.00832281
0.0268701
0.0552312
0.0261291
0.0635643
0.139067
0.0386649
0.0664093
0.0421436
0.0272844
0.135474
0.0223227
0.00345281
0.0108003
0.141245
0.0117315
0.00844661
0.0143037
0.135044
0.0565521
0.14988
0.00306919
0.0473088
0.109724
0.00919534
0.00502836
0.157615
0.00130696
0.0257461
0.0824014
0.010463
0.10137
0.101268
0.132479
0.152201
0.101022
0.121639
0.00219137
0.153299
0.133498
0.00731641
0.0224037
0.0584826
0.00449326
0.0766823
0.104754
0.0436331
0.049527
0.146863
0.15646
0.00336822
0.0540633
0.0540707
0.112876
0.0683546
0.00295222
0.00912592
0.00279851
0.15068
0.042428
0.0813565
0.0841008
0.13509
0.134236
0.00386049
0.00696988
0.0315385
0.112558
0.104415
0.00816524
0.0506525
0.0687031
0.0775806
0.00142873
0.0195002
0.00102926
0.0857477
0.154042
0.0658613
0.10532
0.0869448
0.010296
0.11681
0.00724858
0.00171392
0.0259526
0.00126596
0.0992061
0.161696
0.0146933
0.133034
0.0111819
0.154763
0.134442
0.152985
0.00270664
0.15251
0.0469657
0.0871844
0.00752172
0.0359652
0.038058
0.00770171
0.00228292
0.117868
0.15154
0.13171
0.0027051
0.0783
0.0738571
0.0550891
0.142459
0.009392
0.128094
0.147547
0.0383458
0.0730862
0.0122281
0.00169529
0.00178479
0.0224874
0.171904
0.0174789
0.0362305
0.0136338
0.128373
0.00449308
0.00576362
0.0688226
0.0822455
0.1558
0.0139137
0.0702116
0.00315186
0.0064374
0.0234223
0.00343411
0.00626883
0.00502874
0.00240359
0.0970701
0.00273689
0.0419144
0.00144665
0.00335053
0.00274432
0.00223733
0.146833
0.0139426
0.131484
0.102268
0.0011839
0.0775974
0.075182
0.0165144
0.0442364
0.0146489
0.0031166
0.00278084
0.00528685
0.0227702
0.0261629
0.0492709
0.103033
0.0623902
0.0108159
0.00648155
0.00799638
0.0190393
0.156489
0.139246
0.0975761
0.00350863
0.0527802
0.0810459
0.0274615
0.0205399
0.0144915
0.0286509
0.0599173
0.00292144
0.0231007
0.0137936
0.0840424
0.0166941
0.0103949
0.126541
0.0296645
0.138484
0.00632042
0.0156687
0.111311
0.0141813
0.00173914
0.131889
0.0366074
0.143413
0.00505989
0.0675314
0.11692
0.154716
0.0117862
0.00400177
0.161047
0.00703083
0.00336378
0.14277
0.0525337
0.0133195
0.00135954
0.0217703
0.00134633
0.0681648
0.124692
0.0965869
0.00215806
0.0132802
0.135962
0.00173586
0.0806231
0.0506548
0.0269191
0.00302563
0.0497749
0.00959671
0.0230136
0.0359167
0.00345075
0.11254
0.109617
0.0723908
0.0131291
0.0877733
0.0500668
0.156856
0.13183
0.00264879
0.0447276
0.00142007
0.157031
0.00162507
0.00135765
0.0726776
0.0538132
0.0214966
0.0247549
0.00371991
0.0105721
0.00174138
0.00307476
0.0265842
0.11118
0.00276135
0.00138516
0.0689828
0.00347213
0.0754759
0.10728
0.0743847
0.0581584
0.148111
0.0134719
0.0013086
0.0452029
0.153711
0.00318659
0.00270851
0.00739273
0.0022786
0.0652996
0.00206631
0.0078347
0.00561759
0.148215
0.103963
0.00756974
0.00132434
0.0906203
0.00440705
0.00185686
0.0961625
0.0652368
0.125619
0.0176031
0.068157
0.0105481
0.0026396
0.14235
0.0940643
0.139324
0.0434623
0.00498679
0.00202166
0.0342486
0.00261231
0.0116535
0.0943558
0.155225
0.0156478
0.152693
0.0032934
0.00305516
0.00811663
0.0107518
0.00156133
0.10591
0.0028263
0.00151424
0.00990033
0.00264279
0.156403
0.0508256
0.0378533
0.0269299
0.0024948
0.010881
0.0518998
0.0229858
0.138104
0.00146862
0.10883
0.151578
0.00179849
0.00194483
0.0592742
0.0286349
0.0111804
0.111942
0.106487
0.0109834
0.111922
0.00286973
0.15825
0.00238673
0.116659
0.0203243
0.00544829
0.112548
0.147638
0.0121428
0.010627
0.101937
0.050106
0.00858878
0.00369471
0.00216984
0.00721105
0.029322
0.154502
0.139584
0.0173126
0.122921
0.0453183
0.137137
0.15242
0.0014666
0.0270501
0.00984396
0.0237361
0.0869028
0.130468
0.118939
0.0434488
0.0365197
0.00641315
0.0242382
0.00725157
0.000881213
0.0216278
0.00810998
0.00589921
0.00222563
0.00660683
0.155118
0.0207657
0.0171464
0.0279566
0.0072086
0.139303
0.0438911
0.00674627
0.00144863
0.0276733
0.0059588
0.00766772
0.00565025
0.00535885
0.033183
0.00492658
0.00460537
0.00434298
0.00412354
0.00481407
0.00704718
0.0909579
0.130757
0.014821
0.00591654
0.11288
0.0073063
0.00216414
0.0107098
0.00183235
0.154061
0.133417
0.122249
0.00299394
0.0379174
0.0531177
0.00601889
0.00631533
0.0546007
0.0783581
0.0457087
0.0238216
0.00190013
0.155357
0.0235931
0.00462833
0.00150194
0.00617023
0.0020085
0.00876995
0.130989
0.00207479
0.125449
0.00210506
0.00147558
0.0514398
0.0152202
0.0121995
0.0628225
0.131448
0.0254531
0.0411504
0.14005
0.130814
0.00804803
0.00312426
0.0124439
0.0608356
0.00350686
0.00789394
0.00181028
0.00157638
0.0661062
0.105135
0.0417117
0.176527
0.00197149
0.0530417
0.00300531
0.00637211
0.00338988
0.108101
0.144717
0.143649
0.00145046
0.137997
0.00229742
0.12286
0.00216586
0.0381402
0.060559
0.0837998
0.145077
0.00599108
0.113136
0.147341
0.0551041
0.0362506
0.00359113
0.00133182
0.0109036
0.00167215
0.179924
0.148698
0.0222732
0.0128705
0.00198235
0.00585883
0.013131
0.00353957
0.00537326
0.0032685
0.170925
0.133509
0.140387
0.145111
0.00443439
0.0425817
0.124796
0.0252557
0.00422365
0.114495
0.105041
0.0305968
0.00137789
0.106545
0.0355624
0.151602
0.00155883
0.120292
0.0721082
0.00467295
0.00584995
0.00355043
0.151502
0.0125885
0.0107675
0.00398346
0.00313123
0.114506
0.00453612
0.0724498
0.107708
0.017872
0.053878
0.0113948
0.0784885
0.013823
0.0148697
0.00769499
0.00143172
0.00236664
0.00234809
0.129206
0.0113234
0.107744
0.00441195
0.111487
0.0118858
0.0682118
0.0123826
0.153167
0.113226
0.159171
0.0243069
0.00150003
0.00429462
0.0645067
0.0271737
0.00512983
0.154994
0.105943
0.00247431
0.0191115
0.0112968
0.00354294
0.129866
0.00131054
0.155434
0.00286662
0.00172596
0.0527486
0.0235797
0.0165005
0.00563862
0.00619402
0.00217463
0.049614
0.0427322
0.00334176
0.0515199
0.00725191
0.0329309
0.00506058
0.0114091
0.00294361
0.0179119
0.0388152
0.0394776
0.0015688
0.0107877
0.0033902
0.00114044
0.107345
0.152125
0.00150763
0.00216605
0.0946739
0.0454316
0.0220199
0.0581991
0.00274968
0.0419388
0.00145557
0.0295234
0.00143619
0.0111869
0.0612122
0.0443826
0.00732194
0.00546884
0.15908
0.00593668
0.153274
0.0234832
0.0641401
0.154786
0.100229
0.0778168
0.00205216
0.00274361
0.149238
0.00243305
0.0446103
0.098626
0.0923345
0.126305
0.0527902
0.00316575
0.00181784
0.140299
0.0261049
0.00753061
0.00887087
0.0040457
0.00617747
0.0281269
0.0163266
0.1211
0.155646
0.0463866
0.00196446
0.144252
0.00256349
0.00348288
0.0107741
0.00281056
0.00141222
0.133964
0.00142092
0.0119355
0.00854394
0.0713313
0.11169
0.0875994
0.00378339
0.0670359
0.07034
0.120962
0.00244879
0.00435802
0.00789504
0.00388107
0.00393096
0.00232908
0.0760949
0.0976154
0.00763248
0.0407639
0.0558452
0.0533483
0.0289947
0.113063
0.109326
0.0432296
0.0272857
0.0382513
0.0346113
0.150483
0.0614581
0.00497516
0.0374511
0.0022751
0.0391793
0.100427
0.00575034
0.00968486
0.127787
0.113572
0.0268332
0.0286537
0.001401
0.0270333
0.0101299
0.0971988
0.105961
0.0254787
0.00203541
0.0073656
0.0363034
0.149523
0.00175835
0.0624372
0.110869
0.00676479
0.0198326
0.00795102
0.00149117
0.00656143
0.0263332
0.0252135
0.00140946
0.0927199
0.0613351
0.0138517
0.153431
0.00784657
0.00957548
0.00527976
0.0323061
0.0640818
0.0190455
0.00362919
0.00727372
0.0653269
0.00554682
0.00542941
0.0104542
0.0583813
0.0607455
0.00853202
0.0111403
0.00282344
0.112446
0.0632365
0.0094348
0.0559643
0.00920192
0.00736466
0.0677344
0.00895918
0.153576
0.0100479
0.0558772
0.071279
0.0995823
0.117698
0.00206202
0.00360413
0.0472196
0.0249907
0.0050975
0.0593058
0.102364
0.0146517
0.00218918
0.00757151
0.00152838
0.0152754
0.0141946
0.00331388
0.0047841
0.0145221
0.0973379
0.00576132
0.0953409
0.0681269
0.00530187
0.00446798
0.0469451
0.0272786
0.0204445
0.0294088
0.0281165
0.0042337
0.115527
0.00153153
0.0232209
0.137072
0.135235
0.13641
0.0465338
0.0451432
0.129135
0.0242022
0.067501
0.0492609
0.152757
0.00654236
0.043587
0.010797
0.0273905
0.15588
0.133695
0.00974484
0.0950802
0.00312843
0.0693851
0.0712581
0.0138362
0.0110783
0.0624314
0.0645033
0.0115554
0.0267932
0.0127176
0.0109383
0.105607
0.00209109
0.0257062
0.0438836
0.0183483
0.00193203
0.134939
0.0116117
0.14643
0.0245721
0.108454
0.033653
0.0925794
0.0693954
0.0900679
0.0109737
0.00125728
0.0126425
0.0719453
0.0283732
0.00142762
0.0329216
0.00385271
0.00589969
0.0765517
0.0139159
0.073404
0.00375201
0.0277501
0.0284114
0.0013712
0.136728
0.043503
0.0586759
0.0137451
0.042954
0.00710959
0.00182348
0.0770915
0.0889143
0.0641667
0.00187869
0.0499269
0.0393753
0.0101329
0.00159196
0.1163
0.0229077
0.00842205
0.0144662
0.147734
0.0128953
0.141358
0.0356809
0.112881
0.0506506
0.00492278
0.00707748
0.113448
0.0455779
0.00486065
0.0721421
0.0564079
0.0198123
0.0557788
0.0784111
0.0250378
0.0528917
0.0537252
0.113572
0.00782739
0.00497891
0.00398431
0.116419
0.00804986
0.00140619
0.00102704
0.153666
0.0744689
0.0200275
0.0064101
0.0535224
0.114212
0.091703
0.135628
0.0543983
0.0190035
0.146712
0.00765244
0.0376903
0.126552
0.0475313
0.0078741
0.0133618
0.00485377
0.0451213
0.0298469
0.00137873
0.0434343
0.0224979
0.00132728
0.0014412
0.0052864
0.00854826
0.00376618
0.105917
0.141663
0.0475546
0.00333127
0.102452
0.120655
0.00277129
0.137161
0.152658
0.00791203
0.0450118
0.00119418
0.0166573
0.0154529
0.0365212
0.0137597
0.0445259
0.0260833
0.037365
0.129036
0.0236161
0.00143583
0.0801931
0.0979817
0.0225782
0.00143078
0.0461874
0.0463392
0.00191027
0.138008
0.0356547
0.00799039
0.13454
0.00188138
0.0239973
0.0520611
0.0151664
0.0069801
0.00333377
0.02687
0.0115929
0.0140371
0.00965849
0.00826696
0.0749545
0.0144375
0.00617589
0.0428719
0.0100444
0.0516095
0.028702
0.00169222
0.13766
0.0105593
0.0099766
0.0829256
0.0149684
0.02251
0.0386896
0.025049
0.00568094
0.0379015
0.0146869
0.0465563
0.00801949
0.106317
0.00142501
0.0124177
0.122188
0.0474029
0.118474
0.137308
0.134298
0.0790945
0.0737969
0.0230062
0.0244952
0.05974
0.148744
0.150041
0.147342
0.00784463
0.138767
0.0625056
0.0401012
0.0403188
0.0187497
0.103079
0.0292183
0.0259368
0.0366206
0.0499279
0.0611657
0.00486148
0.0820134
0.0116488
0.022296
0.00563701
0.0183539
0.0823986
0.00814105
0.013866
0.00140572
0.00175601
0.0236678
0.0509882
0.0262141
0.0154033
0.00991857
0.153275
0.121991
0.0123312
0.15339
0.0406218
0.0550639
0.0407521
0.0478665
0.0109177
0.0388835
0.0512834
0.114909
0.159951
0.0046505
0.0363552
0.0896305
0.00602171
0.00781802
0.106424
0.0189344
0.103939
0.06147
0.0777335
0.0452141
0.0756432
0.104505
0.0870587
0.0737605
0.00389695
0.130095
0.106402
0.0821877
0.0440679
0.0038206
0.00180576
0.0423497
0.0380664
0.00138849
0.0785398
0.101658
0.0880175
0.015536
0.14086
0.0638854
0.0674867
0.00960354
0.0816648
0.0212946
0.0637674
0.0364813
0.00149152
0.101993
0.0416721
0.0101988
0.0199385
0.0186178
0.118714
0.0557316
0.0223773
0.0284476
0.0276819
0.0379158
0.012405
0.00792475
0.139594
0.00893036
0.0537968
0.131373
0.0460971
0.00220084
0.105221
0.136636
0.028785
0.0676683
0.042285
0.102753
0.0486934
0.0273457
0.0563533
0.0394
0.0178278
0.0370191
0.152845
0.00320029
0.00329168
0.0738827
0.100416
0.00630605
0.141322
0.0519647
0.0697177
0.00751321
0.168246
0.145989
0.0208808
0.0412007
0.00274638
0.063647
0.14933
0.0270496
0.136665
0.00178149
0.0666682
0.0422436
0.0466054
0.0138278
0.00949658
0.0260076
0.0531681
0.00982027
0.0752196
0.139795
0.0304059
0.0472741
0.0256959
0.0990307
0.0633434
0.04443
0.082411
0.0129948
0.00822215
0.00214666
0.0792348
0.0440542
0.127035
0.00300616
0.0020004
0.0680282
0.0784577
0.026431
0.0233206
0.00678622
0.0674964
0.0236401
0.0220052
0.0143357
0.146938
0.00833267
0.0113612
0.0484911
0.0485328
0.0596035
0.0134562
0.0520356
0.151718
0.0234132
0.0128807
0.153891
0.0471105
0.0100192
0.152197
0.0739741
0.0566649
0.0208476
0.0071157
0.0179736