/*--------------------------------*- C++ -*----------------------------------*\
| =========                 |                                                 |
| \\      /  F ield         | OpenFOAM: The Open Source CFD Toolbox           |
|  \\    /   O peration     | Version:  v2012                                 |
|   \\  /    A nd           | Website:  www.openfoam.com                      |
|    \\/     M anipulation  |                                                 |
\*---------------------------------------------------------------------------*/
FoamFile
{
    version     2.0;
    format      ascii;
    class       volVectorField;
    location    "500";
    object      ddtCorrDdt0(U);
}
// * * * * * * * * * * * * * * * * * * * * * * * * * * * * * * * * * * * * * //

dimensions      [0 1 -2 0 0 0 0];


internalField   nonuniform List<vector> 
13917
(
(-0.00154953 -0.00313329 6.53983e-19)
(-0.000798023 -0.00119214 -4.09283e-18)
(0.0358252 0.00320238 1.88999e-18)
(-0.00265464 -0.000151246 -1.07461e-18)
(-1.96528e-05 -0.00035252 1.32247e-18)
(-2.01328e-05 -0.00172582 -3.52496e-17)
(0.031582 0.00269238 5.00398e-18)
(0.0383134 0.00355277 3.99816e-18)
(0.0414023 0.000936672 -1.24185e-18)
(-0.00153876 -0.00392403 2.20594e-18)
(-0.00533875 -0.000279666 6.14309e-18)
(-0.0042009 -0.00073963 6.22858e-18)
(-0.00270948 -0.000143857 1.94356e-18)
(0.0206528 0.00108401 -4.51607e-18)
(-0.00042323 -0.00196282 -6.20344e-18)
(-0.00059495 -0.00193644 1.19783e-17)
(-0.000718148 -0.0012918 2.53313e-18)
(-0.0037478 -0.00265886 -4.50571e-18)
(-0.00417578 -0.000749529 -7.14933e-18)
(-4.28446e-05 -0.000119516 -3.36001e-18)
(-7.28321e-07 -4.09395e-05 3.39004e-18)
(0.0309902 0.00251656 -2.13007e-18)
(-6.13394e-05 -0.00023387 8.15818e-18)
(0.0389148 0.00408402 3.3192e-18)
(-0.000130437 -0.000625923 -1.17202e-17)
(0.0293138 0.00307656 -1.9206e-18)
(-3.04939e-05 -0.00195973 -4.61129e-17)
(9.27562e-05 -0.00209156 -9.2887e-18)
(0.000898933 -0.00161174 -4.6366e-18)
(-0.00298203 -0.00449921 1.35875e-17)
(-0.00183034 -0.00321501 1.51016e-18)
(-0.00139012 -0.00234581 -7.64308e-19)
(-3.52093e-05 -0.0019702 -2.22589e-17)
(-5.44095e-05 -0.00169359 -3.34059e-17)
(-9.95434e-05 -0.000671381 2.07466e-18)
(-0.00803805 0.000168075 1.55725e-18)
(-5.48893e-05 -0.000218758 -1.61189e-18)
(0.0244708 0.000982867 2.05459e-18)
(-0.00310508 -0.000277365 -9.00538e-19)
(0.0165442 0.000306583 -9.89559e-20)
(-0.000215247 -2.21069e-05 1.77499e-18)
(3.59803e-07 -1.38574e-05 5.09065e-18)
(-0.0006028 -6.62785e-05 -1.16081e-18)
(0.00017236 -0.00199304 -6.04938e-17)
(-0.001257 -0.000899727 -4.59166e-19)
(-7.64634e-05 -0.0017793 -2.98404e-18)
(-0.00374964 -0.00258749 4.01623e-18)
(-0.00453231 -0.00227246 1.0848e-18)
(0.000421794 -0.0018271 1.63075e-17)
(-8.12095e-05 -1.98628e-05 1.99187e-18)
(-0.00277593 -0.00144974 5.8949e-19)
(-8.06727e-05 -0.00119394 4.74288e-18)
(0.00102389 -0.00147337 -3.49354e-17)
(-5.36151e-05 -0.00171864 -3.82604e-17)
(-0.000705655 -0.0013122 4.04921e-18)
(-0.0023719 -0.0018764 -1.49184e-18)
(-0.00532825 -0.000334809 -3.26282e-18)
(-0.000305936 -0.00095076 1.36993e-18)
(-0.00197166 -0.00177183 -6.34611e-20)
(-0.00121029 -0.000872367 1.15686e-18)
(0.0360548 3.67937e-05 4.32086e-17)
(-0.000826966 -0.0011983 -1.4363e-18)
(0.0142576 0.000640895 -2.16904e-19)
(-4.72e-05 -0.000131521 -2.12476e-19)
(5.39683e-05 -0.00181993 1.17991e-17)
(0.0058294 -0.00719628 -4.17249e-18)
(-2.20625e-06 -0.000383402 -4.77861e-18)
(-3.79408e-06 -0.000692838 -1.14372e-17)
(-0.00590425 -0.00256595 3.73581e-18)
(-0.00108568 -0.00289448 -2.29022e-18)
(-2.0401e-05 -0.000332904 1.13692e-18)
(0.0427659 0.000891503 1.32197e-18)
(0.0176988 0.000621201 -6.48596e-19)
(-0.000126783 -0.000605941 7.83991e-18)
(-1.65671e-05 -0.00207213 7.67308e-17)
(-0.00403467 -0.000832198 -5.22582e-18)
(0.0183739 0.000762796 7.34634e-19)
(-0.00171258 -0.0011528 2.94371e-20)
(0.0267639 0.00324788 4.33662e-19)
(-4.73711e-06 -7.53618e-05 -6.34468e-18)
(-9.90806e-06 -9.21297e-05 -6.73925e-18)
(-1.91226e-06 -0.000353844 1.00729e-18)
(5.36748e-05 -0.00186357 -3.06965e-17)
(0.0253787 0.00104398 4.98428e-19)
(0.0118024 0.000721758 1.6889e-17)
(-0.00169559 -0.00111101 -1.06501e-18)
(-1.85107e-05 -0.00010919 -6.50285e-18)
(-0.000350111 -0.00149604 3.6972e-18)
(-0.00274065 -0.00141908 1.01305e-18)
(-0.000621374 -6.55958e-05 3.08731e-18)
(0.0206143 0.000206331 -6.53076e-18)
(-0.00209083 -0.00440243 4.02278e-18)
(-0.000758809 -0.000738908 -5.0014e-18)
(-0.000341385 -0.00151056 -5.07431e-18)
(-0.000137584 0.00236343 -4.14678e-18)
(-2.07863e-05 -0.00178105 -3.12586e-17)
(-0.00558602 -0.00136895 -3.32275e-18)
(-0.00429093 -0.00238619 -5.30084e-18)
(-0.00370554 -0.000157016 -2.52562e-18)
(7.91295e-05 -0.00185573 -6.19999e-17)
(-0.000307524 -0.000170029 -4.1873e-18)
(-5.74638e-05 -0.00189665 -1.17324e-18)
(9.00285e-05 -0.00206588 1.06243e-17)
(-0.002025 -0.0011062 5.22361e-20)
(-0.000497329 -0.000378485 1.6269e-18)
(0.0444076 0.00304466 -1.05999e-18)
(0.00106201 -0.0020655 -2.50248e-17)
(-0.00459164 -0.00231124 -3.01533e-18)
(-0.000751908 -0.0013095 -5.57752e-18)
(-0.00163641 -0.00337185 -5.62495e-19)
(0.0134527 -0.000786848 -2.19569e-17)
(0.0168744 0.000394355 4.80669e-19)
(-0.00421349 -0.000570724 4.76738e-19)
(0.0436626 0.00263739 -6.14938e-19)
(-7.07823e-05 -0.00140628 -1.5895e-17)
(1.23146e-05 -0.0020077 8.85549e-17)
(-0.000142495 -0.000458674 -2.55569e-18)
(8.34768e-05 -0.00182688 -1.03974e-16)
(0.0211645 0.000885262 -3.62826e-18)
(-7.95916e-05 -0.00171312 -2.08437e-17)
(4.17729e-07 -2.91115e-05 -1.37209e-18)
(-0.00583171 -0.0025913 -4.02836e-18)
(0.0219545 0.000931942 -2.20738e-18)
(6.34942e-05 -0.00201122 -2.4731e-17)
(-0.000124137 -1.80311e-05 1.9655e-19)
(-0.000337073 -0.00147296 -1.98236e-18)
(-0.00110373 -0.000946431 -2.75813e-18)
(-0.000113939 -1.41559e-05 3.31133e-18)
(-0.000494484 -5.09449e-05 1.76235e-18)
(3.43192e-05 -0.00191078 4.3463e-17)
(0.0241064 0.00127945 5.12543e-18)
(-6.75913e-05 -0.00138223 1.92453e-17)
(-0.00126405 -0.000930544 -2.90088e-18)
(-1.62435e-06 -3.26916e-05 -1.94026e-18)
(-0.00933454 -0.00555473 2.63363e-18)
(0.0388218 0.00415029 -8.47888e-18)
(-0.00147282 -0.00314897 -7.03542e-19)
(5.70327e-05 -0.00183637 5.22089e-17)
(-5.06324e-06 -0.000399977 4.25568e-18)
(-7.10612e-05 -0.00170831 -6.75324e-18)
(-0.00919838 -0.000206365 2.66001e-18)
(-0.000784507 -0.000449064 -1.16188e-18)
(-0.000138336 -0.00129893 -1.97387e-17)
(0.000124265 -0.00197591 -3.02502e-17)
(-8.15105e-06 -0.000708538 1.36136e-17)
(0.0425359 0.000670547 -1.99892e-18)
(0.00122076 -0.00185609 -1.27157e-17)
(-8.44013e-05 -0.00116794 3.31802e-18)
(-0.000731585 -0.000375078 4.72985e-19)
(-0.00126757 -0.00241703 7.17772e-19)
(-0.00434867 -0.00151839 -4.81435e-18)
(-1.97241e-05 -0.00202593 4.3078e-18)
(-0.00482149 -0.000862476 -8.31024e-18)
(-0.000528752 -0.00290199 6.35852e-18)
(-0.00189456 -0.00215958 3.7702e-20)
(0.00956461 0.00244859 2.22102e-17)
(-0.00105812 -0.00283057 2.58221e-18)
(-0.00767911 -0.00064569 -5.16337e-18)
(0.0176004 0.000951751 6.15457e-18)
(-0.00920256 -0.00599833 -1.41143e-17)
(-0.00018318 -0.00162728 -1.35727e-17)
(-8.32525e-05 -0.00195775 1.7696e-18)
(-4.30831e-06 -6.62545e-05 7.81239e-19)
(-0.0054852 -0.00131646 1.66335e-18)
(-0.00423832 -0.000591119 -2.12428e-19)
(-0.00384101 -0.000186606 1.7735e-18)
(-0.00198427 -0.00111383 -6.49784e-20)
(-0.00437878 -0.0019094 2.05797e-18)
(-0.001045 -0.000738846 -1.16875e-18)
(-4.74912e-05 -0.00190326 8.62793e-18)
(-0.000689731 -0.00299641 -5.22802e-18)
(0.00363088 4.73185e-05 1.36189e-17)
(-0.00409977 -0.000540807 -9.65256e-19)
(-0.000729093 -0.00147042 -1.24559e-18)
(0.0406805 -0.000327444 4.64616e-18)
(-0.000329334 -0.00294912 -1.97431e-17)
(0.0247392 0.00133991 -4.64329e-18)
(0.000171415 -0.00185632 -5.84879e-17)
(0.0416907 0.000476188 -4.54722e-18)
(-0.000514351 -0.000792208 -1.97542e-18)
(-0.00220734 -0.00447655 3.39472e-19)
(-0.00191206 -0.0033033 2.64679e-18)
(-0.000802009 -0.000438077 2.58077e-18)
(-2.03857e-05 -0.000120505 3.70229e-18)
(-0.000241794 -0.00209357 -1.9727e-18)
(0.0305195 0.00335276 1.51989e-18)
(-0.00218832 -0.00590285 9.1041e-18)
(0.0141878 0.00355887 9.31527e-19)
(-0.00290805 -0.00246864 -1.81915e-18)
(-0.00441976 -0.000168853 9.24827e-18)
(-0.0105886 0.000258208 -5.28617e-18)
(0.0173504 0.00120981 -2.92404e-17)
(-0.00151603 -0.00581054 3.49041e-19)
(-4.9697e-05 -0.000264598 -4.79483e-18)
(0.000112715 -0.00190677 -1.85753e-17)
(-4.34191e-05 -0.00195471 1.8552e-17)
(-0.000196359 -9.66513e-06 2.83609e-19)
(-0.000769017 -0.000767036 -1.2619e-18)
(0.000945322 -0.00237355 -4.86031e-18)
(0.00170306 -0.00781106 -1.06141e-18)
(-0.00296573 -0.000927025 7.30599e-19)
(-7.35767e-05 -1.7539e-05 -2.36693e-18)
(-0.00427977 -0.0017391 -3.86973e-18)
(-0.00431069 -0.00147531 4.37181e-18)
(0.0167142 0.000680935 5.65772e-18)
(-0.00649578 -0.0022369 -6.16131e-18)
(-9.17523e-05 -0.000650661 2.98585e-18)
(-0.000308921 -0.000985337 -1.25084e-18)
(-0.00428989 -0.00230709 3.8509e-18)
(0.0328541 0.0030715 -3.76153e-18)
(-0.000144917 -0.00126895 1.96067e-17)
(0.0318504 0.00254365 5.74415e-18)
(0.0155747 0.000891387 2.69411e-18)
(-0.00447078 -0.000195828 -6.794e-18)
(-0.000485762 -0.000384437 -6.1682e-21)
(0.000189324 -0.00180175 -1.619e-17)
(-0.00414849 -0.00214791 4.2429e-18)
(0.0106526 -0.000117002 -2.11066e-17)
(-0.000235047 -0.00057327 3.00971e-19)
(0.028409 -0.00181315 -3.96803e-18)
(-0.00049499 -0.000763359 1.59675e-18)
(-0.00338372 -0.00416137 -1.58723e-17)
(-0.000211946 -2.70684e-05 -1.89452e-18)
(0.024712 0.000643295 -1.56369e-18)
(0.0446018 0.00355975 8.49178e-18)
(-0.000606508 -0.00198092 -1.81047e-18)
(0.00198616 -0.00476989 -9.47285e-18)
(-0.00195891 -0.00218661 -6.2722e-19)
(-0.000462005 -0.000368495 -8.83654e-19)
(-0.0115162 -0.00024225 -3.02465e-18)
(-0.00407593 -0.00058863 1.10368e-18)
(-0.00293203 -0.002409 2.98275e-18)
(0.0375732 0.00386311 2.67642e-19)
(0.0150642 0.000783673 -1.25339e-18)
(-0.00032603 -9.04523e-05 -2.00311e-18)
(-0.0014326 -0.00239387 -6.88348e-20)
(0.0216988 6.846e-05 1.85729e-18)
(0.00539627 0.000769946 -1.30375e-18)
(-4.83716e-06 -7.49829e-05 -1.43821e-18)
(-0.000182536 -0.000255002 4.79027e-19)
(0.0164737 0.000281455 1.01985e-17)
(-0.00587068 -0.00158674 -2.94018e-18)
(-8.76951e-07 -2.8267e-06 -8.67195e-19)
(-0.00696223 9.63476e-05 4.16985e-18)
(-0.00443695 -0.00326499 3.40679e-18)
(-6.52337e-05 -0.00194981 8.11816e-18)
(-0.00168212 -0.00294407 -5.64251e-19)
(-5.65456e-06 -7.07295e-05 4.7121e-20)
(-0.00017438 -0.0027295 -1.76712e-17)
(0.0159774 0.000668179 -1.32164e-17)
(-0.00157616 -0.000267951 1.85868e-20)
(-0.00202357 -0.00483544 2.28832e-18)
(0.000168876 -0.00190532 1.83381e-17)
(-0.00109556 -0.000910553 -2.34133e-19)
(-0.000286716 -0.00091974 1.97486e-18)
(-0.00453075 -0.000951394 -1.50161e-18)
(0.0170658 0.000463629 3.69572e-19)
(-0.00474009 -0.000871378 3.01281e-18)
(-0.000237715 -0.00211903 -1.59899e-17)
(-0.000442952 -0.00199144 8.31448e-18)
(-7.83294e-07 -4.99244e-06 2.17316e-18)
(0.0212457 0.000916179 -1.99906e-18)
(0.0419918 0.000752347 -3.74287e-18)
(-0.0116707 0.000435127 7.27108e-20)
(-0.000450059 -0.000374759 3.96714e-18)
(0.0167911 0.000912789 -1.97262e-18)
(0.0212937 0.00093013 -1.67837e-18)
(0.011044 0.00237323 -5.12122e-18)
(0.0261474 0.0030486 2.37895e-18)
(-0.00399669 -0.000821493 -4.28036e-18)
(-8.06086e-06 -8.7375e-05 4.86076e-18)
(-0.000155223 -2.20146e-05 2.55519e-18)
(-0.0038421 -0.00249289 -2.47288e-19)
(0.0225095 0.000310939 2.12734e-20)
(-0.0050934 -0.00277207 -6.74849e-18)
(-0.00196196 -0.00171464 1.12132e-19)
(-0.00965677 -0.00266517 4.00184e-18)
(-0.00404945 -0.000691213 3.08576e-18)
(-0.000486062 -3.40245e-05 1.55847e-18)
(0.00300174 -0.00722213 -2.01541e-17)
(-5.15909e-05 -0.000117782 -1.1991e-18)
(0.0417545 1.73386e-08 5.92727e-18)
(-0.00291039 -0.000895681 1.19649e-18)
(-1.52098e-06 -2.865e-06 -1.27047e-18)
(-0.000628814 -0.00217969 2.82892e-18)
(-0.000484494 -0.00289221 -5.38267e-18)
(-6.50182e-05 -0.0019408 -2.31674e-17)
(-0.00918099 6.9027e-05 -3.45395e-18)
(-0.00051302 -0.00248283 7.74029e-18)
(-0.00156779 -0.000539525 4.8233e-19)
(-0.00539906 -0.00551049 -4.99866e-18)
(0.0379923 0.00392292 -2.25427e-18)
(0.0442239 0.00108576 -1.01513e-17)
(-0.000221768 -0.000558389 4.38329e-18)
(0.015836 -0.000244727 2.65957e-18)
(-5.66099e-06 -0.0002039 1.82118e-18)
(-0.00158471 -0.000509341 -4.67164e-19)
(-0.000132845 -0.000432784 5.92105e-18)
(0.00131213 -0.0015041 2.06019e-17)
(-3.52694e-05 -1.93666e-05 -1.3322e-19)
(-0.00342815 -0.00426042 -5.16774e-18)
(-0.00162792 -0.00289246 2.97235e-19)
(-0.00103296 -0.000707526 1.24802e-18)
(-0.0043322 -0.00169847 2.41321e-18)
(-0.00116681 -0.00161777 1.2165e-18)
(-0.000230184 -0.00134074 3.70402e-17)
(-0.000367718 -0.0029175 1.32018e-17)
(-0.00209668 -0.0042968 -3.30062e-18)
(-0.000991783 -0.00051662 -8.58174e-19)
(-0.000277366 -0.000891539 2.36097e-18)
(0.0107882 -0.0010791 -7.68193e-18)
(0.021963 0.000962414 -1.3992e-18)
(-0.000154686 -0.00047454 4.26656e-18)
(-0.00017954 -2.35668e-05 -9.6859e-20)
(-0.00327404 -0.00886703 2.06292e-17)
(-0.000578947 -0.000754029 -1.83361e-19)
(0.0186172 0.000621559 -9.23246e-19)
(-0.000957431 -0.000506777 4.2253e-19)
(0.0253552 0.000690889 3.91127e-18)
(-0.00210403 -8.69824e-05 -4.78198e-19)
(0.000541546 -0.00495372 1.12135e-18)
(-0.00339017 -0.00159383 1.01595e-18)
(0.000170606 -0.00216571 7.57699e-17)
(-0.000191162 -0.00160277 3.09997e-17)
(-0.00441115 -0.00540368 2.76918e-18)
(0.000234845 -0.00184815 5.6038e-17)
(-0.000655617 -0.00217207 -5.41676e-18)
(-0.0058467 -0.00169729 -5.27168e-18)
(0.00141147 -0.00266073 8.60104e-19)
(-0.000444459 -0.00124996 -1.05823e-19)
(0.0242559 0.00120162 4.6759e-18)
(0.000128981 -0.00193584 8.66869e-18)
(0.0217106 0.00103353 2.26355e-19)
(-8.99516e-05 -0.00163985 -1.34598e-18)
(0.0188875 0.000611453 6.83333e-18)
(-0.00153737 -0.00243889 8.72165e-19)
(0.018007 0.000122005 -1.25936e-17)
(0.000209577 -0.00189519 9.19414e-18)
(0.000564426 -0.00275834 -1.95061e-17)
(0.000538514 -0.0027927 9.2548e-19)
(0.0343494 0.00278387 1.90395e-18)
(-6.26548e-06 -0.000106355 -1.31055e-18)
(-0.000702692 -0.00307847 -1.02586e-18)
(0.015025 -0.00122091 1.38235e-17)
(-0.000237347 -0.00111123 -6.72743e-18)
(-0.000639706 -0.00172013 4.48879e-18)
(0.0217286 0.000948142 5.90604e-19)
(0.000983724 -0.00234191 1.37579e-17)
(-0.000786973 -0.00142345 5.80062e-18)
(-0.0047137 0.000505233 -2.25877e-18)
(0.000729781 -0.00171304 2.30737e-18)
(-0.000246716 -0.000143233 4.90136e-19)
(0.0207596 0.000828072 -1.8702e-18)
(-0.0117485 -0.000721397 -2.09406e-18)
(-5.62336e-05 -0.000128787 2.86835e-18)
(-0.000300505 -0.000378378 1.13344e-18)
(-1.5906e-06 -0.000190675 -5.27062e-20)
(-0.000747525 -0.000365733 -1.35302e-18)
(-0.00609957 -0.00532432 6.34447e-18)
(0.0412131 -0.000111506 7.05619e-18)
(-7.54405e-05 -0.00181865 1.18382e-17)
(0.0130759 -0.00134036 1.10115e-17)
(-0.00013398 -0.000543737 -5.86878e-18)
(-0.00204891 -0.00494948 1.65272e-17)
(-0.00272077 0.000645265 1.38086e-17)
(-0.003852 -0.001662 -7.27074e-18)
(0.0311326 0.00240066 -1.13929e-17)
(0.0234634 0.000216988 3.26396e-18)
(0.0438972 0.00316895 -1.21787e-18)
(-0.000372765 -0.000167003 -2.07331e-18)
(-0.01071 0.000161882 2.71775e-18)
(-0.00032927 -0.000367304 4.12285e-18)
(0.0145207 -0.00370887 -1.64301e-17)
(-0.00117943 -0.000881382 -3.74223e-18)
(0.000337553 -0.00209932 -9.79496e-17)
(-0.00442495 -0.00334719 1.3605e-18)
(-0.00284741 -0.000517949 -3.11003e-18)
(-9.09275e-06 -0.000132622 -1.64126e-18)
(-0.00421556 -0.00226432 -6.16537e-18)
(-0.00222152 -0.00458529 -2.04774e-18)
(-0.00426247 -0.00284612 4.36908e-18)
(2.71452e-05 0.00168548 2.01757e-17)
(0.0131494 6.92598e-06 -5.3512e-18)
(0.0096167 0.000212988 1.16324e-18)
(-0.000155793 -0.00278603 1.61283e-17)
(-0.00152025 -0.00385386 -4.88899e-18)
(-0.000171061 -0.000241552 1.2824e-18)
(0.00679356 0.000739992 -1.54047e-17)
(0.0298919 0.00254975 2.03907e-18)
(-0.000387946 -0.00101018 -4.99503e-18)
(-0.00322695 -0.00500758 2.54004e-18)
(-8.65341e-05 -0.000514698 -6.27345e-18)
(-0.00665182 -0.00340749 6.01282e-18)
(-0.00208091 -0.00011369 2.56096e-19)
(-4.58865e-06 -9.10163e-05 7.57108e-19)
(-0.00107391 -0.00164278 -4.39878e-18)
(0.0227637 0.00205165 -7.33403e-19)
(-0.001043 -0.00163656 6.76763e-19)
(0.0174283 0.000583325 3.09002e-19)
(0.00717956 0.00329839 2.3854e-17)
(-0.0050194 -0.000228536 -6.71023e-19)
(0.000123628 -0.00183308 -1.12733e-16)
(-0.000458721 -0.00123406 4.65702e-18)
(0.000117145 -0.00178963 2.25094e-18)
(2.81525e-05 -0.00192077 3.61594e-17)
(-0.000102341 -0.00029654 -5.95349e-18)
(0.000954233 -0.00212796 1.68178e-18)
(-0.000238934 -0.00108915 5.03985e-18)
(-0.000106649 -0.000594923 -3.96232e-19)
(-0.00286377 -0.00449395 1.87965e-18)
(-1.49288e-06 -7.48943e-06 -2.99401e-18)
(-0.000124405 -0.000649808 -8.68937e-19)
(-0.000333705 -0.000361021 -3.97699e-18)
(-0.00616421 -0.00515613 -1.71657e-19)
(-2.80232e-06 -5.96635e-05 3.89346e-18)
(0.0194948 0.000723882 -6.33277e-18)
(0.0269084 0.00360673 3.86613e-18)
(-0.00104262 0.00196352 -3.26899e-17)
(-0.00140745 -0.00572167 9.66931e-18)
(0.0200811 0.00132519 3.79133e-18)
(0.0130984 0.000263302 -1.78891e-18)
(-0.00382379 -0.00162041 2.64188e-18)
(-0.000127804 -0.000516464 7.99407e-18)
(-0.00496442 -0.00393461 -6.81202e-19)
(-0.00304411 -0.000290995 -8.45069e-19)
(-0.00146309 -0.00252232 -1.62015e-18)
(-5.69342e-05 -0.00028513 2.09127e-18)
(0.0424437 0.000381394 -2.32946e-18)
(0.0316336 0.0027672 6.45822e-18)
(0.0281692 0.00392918 7.8086e-18)
(-0.000506851 -0.001904 -7.74478e-18)
(-0.00466767 -0.00321778 -5.24011e-18)
(-8.5493e-05 -0.00161789 7.65812e-18)
(-0.00316386 -0.000316471 1.87643e-18)
(-0.004275 -0.0027733 -2.73926e-19)
(-0.000846603 -0.0015993 -2.99391e-18)
(-0.00931751 0.00128752 -4.0847e-18)
(-0.00076549 -0.00128308 1.58996e-18)
(-3.50723e-05 -2.28835e-05 2.38622e-18)
(0.0200847 0.000645744 -5.47907e-18)
(0.0242814 0.00131245 1.84261e-18)
(0.0248151 0.00142549 9.59629e-19)
(-0.000900422 -0.00471973 -8.12697e-18)
(-0.00213987 0.00187818 5.21127e-17)
(0.0251533 0.00129364 -5.94421e-19)
(0.0208389 -0.000720472 1.34103e-18)
(0.0200258 0.000600902 -5.18826e-18)
(-0.000471233 -5.76662e-05 5.60616e-19)
(-0.00406235 -0.0024101 7.21088e-18)
(-0.000873503 -0.0015976 4.81888e-18)
(-0.000300864 -0.00102394 -9.3589e-19)
(-0.00454506 -0.00233106 8.4291e-18)
(-0.00383817 -0.00256009 5.48071e-18)
(-0.000497088 7.41831e-06 6.72251e-19)
(-0.0034297 -0.00334599 -5.69594e-18)
(-0.00371162 -0.00171364 -5.04204e-18)
(0.0204163 0.000413001 -4.0876e-18)
(-0.000110339 -0.000311117 9.41537e-18)
(-0.00541226 -0.00217845 8.40441e-18)
(0.00460165 0.00286004 -9.95119e-19)
(0.000780857 -0.00531851 1.62246e-17)
(0.0204975 0.000834199 1.31482e-17)
(-2.34062e-06 -5.61288e-05 1.42309e-19)
(-0.000378308 -0.00102962 -1.04844e-18)
(-0.000303495 -1.45358e-05 3.13112e-18)
(-0.000987075 -0.00281251 -2.21933e-18)
(-0.000369251 -0.000155473 1.02006e-18)
(0.0308282 0.00368104 1.30748e-18)
(-6.85826e-05 -0.00173216 7.79487e-18)
(-0.00055009 -0.00245792 -6.73001e-18)
(0.0104887 0.00131844 -6.72742e-18)
(-0.00239714 -0.00182487 1.52046e-18)
(-0.00550778 -0.00119743 -8.15408e-19)
(0.0235948 -0.000860552 -8.70953e-18)
(0.00116396 -0.00194468 -4.94898e-18)
(-0.00496995 -0.000218671 4.76068e-19)
(-0.0113223 -0.000455005 -3.54254e-18)
(-0.00549038 -0.0021405 -8.65408e-18)
(-0.00311121 -0.0035003 9.88755e-18)
(-0.00504182 -0.00345395 -6.17076e-18)
(-0.00397074 -0.00100046 1.96189e-18)
(-0.00479052 5.93028e-05 3.35309e-18)
(5.71332e-05 -0.00190062 3.67177e-17)
(-0.00407333 -0.000844568 2.12055e-18)
(-0.00481395 -0.00220289 -5.64367e-18)
(-0.000400464 -2.2459e-05 -1.6013e-18)
(-0.00682739 -0.00475394 -8.02647e-18)
(-0.00280087 -0.00156286 -9.2245e-19)
(-0.0010537 -0.000133184 1.70753e-18)
(-0.000971326 -0.00274681 2.95346e-18)
(-0.00180508 -0.00114902 -3.86419e-19)
(0.0205294 0.00049079 3.42739e-18)
(0.043965 0.00247296 -1.20585e-18)
(-0.00054779 -0.000725749 1.24069e-18)
(-0.000481491 -2.76135e-05 2.70265e-19)
(0.0330109 0.00346221 4.03509e-19)
(0.0122521 0.000567977 4.28566e-18)
(-1.33531e-06 -5.65321e-06 -3.91638e-18)
(0.0198425 0.000681699 7.40309e-19)
(-0.0021928 -0.000638218 -5.51561e-19)
(-0.00177544 -0.00553676 -2.37742e-18)
(-0.000549462 -0.000778639 3.64688e-18)
(0.0160456 0.000817274 -1.21363e-18)
(-0.0139902 -0.0055523 -1.60454e-17)
(-0.00132586 -0.00241531 -3.72125e-18)
(-0.00117179 -0.00120534 4.84399e-18)
(0.0209116 0.00159728 7.33876e-19)
(-0.00229462 -0.00578528 -1.73927e-18)
(-0.00259112 0.000929127 2.86093e-18)
(-9.84752e-07 -6.7883e-06 4.77274e-18)
(0.0158473 0.000835848 1.54737e-17)
(7.02845e-05 -0.00168 4.69223e-17)
(5.35498e-05 -0.00719983 -8.41809e-19)
(-0.00105538 -0.000156704 -1.01015e-18)
(0.00834722 0.00130406 -3.07685e-17)
(0.0460495 0.00125724 -1.20947e-17)
(-0.00391393 -0.00153349 -4.3641e-18)
(-0.000316357 -0.000381403 1.52459e-18)
(-0.000628374 -0.00129113 1.8838e-18)
(-0.00404054 -0.000927063 1.07995e-18)
(-0.00561383 -0.00305401 7.76548e-18)
(-0.000500246 1.00833e-05 -9.31216e-19)
(-0.00028256 -0.000356667 -1.51213e-18)
(-0.000124518 -6.50578e-05 -2.96082e-18)
(-0.000133159 -6.87241e-05 2.8838e-18)
(0.01613 0.000899659 2.4628e-18)
(-0.00454093 -0.00274859 1.14016e-18)
(-0.00385769 -0.00154507 6.54814e-18)
(-0.00242806 -0.00587399 -7.2228e-18)
(-0.000155069 -1.68194e-05 -1.46443e-18)
(-0.000293521 -0.000160308 3.08442e-18)
(-0.00465446 -0.00313835 -3.86027e-18)
(0.0372018 0.0028921 5.18562e-18)
(-0.00257043 -0.0024379 -1.21595e-18)
(-0.00108308 -0.000756823 7.34145e-19)
(-0.000115517 -0.000600003 1.29804e-18)
(-9.09874e-06 -0.000530788 -6.56958e-18)
(0.00594116 -0.00694117 3.12536e-18)
(0.0230426 0.00152911 2.37892e-17)
(-1.93601e-05 -9.73997e-05 1.69913e-18)
(-2.76091e-05 -0.000524386 -1.63131e-18)
(-0.0111303 0.000331073 1.73178e-18)
(-0.00394565 -0.00102787 6.81644e-19)
(-0.00341176 -0.00155863 -4.44805e-19)
(-0.000352605 -0.00100569 3.90192e-18)
(-0.000996906 -0.00166841 2.10861e-18)
(-0.00113672 -0.00226815 -1.00588e-18)
(-0.00479695 -0.00211778 6.84948e-18)
(0.00131552 -0.00267973 -1.75323e-18)
(-0.00227689 -0.00595989 1.35973e-18)
(-0.00508373 -0.00386861 1.51504e-19)
(-0.00482057 -0.00278411 -2.10691e-18)
(-0.00756972 -0.00209391 -2.92627e-18)
(-0.00221199 -0.00424247 -2.13452e-18)
(-0.000202203 -0.000550875 8.5576e-18)
(0.0161311 0.000652897 1.67662e-18)
(-5.27421e-06 -0.000514818 9.20122e-18)
(-0.000653976 -0.00176389 4.49366e-18)
(-0.00266604 -0.000738397 2.01161e-18)
(-0.00652856 -0.00412493 1.28197e-18)
(0.000240273 -0.00306708 -1.10061e-18)
(-0.000260424 -3.74384e-05 -2.9159e-18)
(0.000329233 -0.00532318 -8.26116e-18)
(-0.00318131 -0.00464797 -7.97768e-18)
(0.00147066 0.00643028 -8.35525e-17)
(-0.00479198 -0.0028271 -1.70412e-18)
(-7.33038e-05 -0.00214002 1.09353e-17)
(-0.00377483 -0.00174524 3.66637e-18)
(-1.06294e-05 -0.000147102 -9.03411e-19)
(0.0451819 0.00115601 5.37296e-18)
(0.000422909 -0.00511078 -7.40377e-18)
(0.030677 0.0019226 1.85174e-18)
(-0.000744368 -0.00123326 -1.31818e-18)
(-0.00254616 -0.00211437 -1.08089e-18)
(-0.00251869 -0.00592782 9.60926e-19)
(0.0238283 0.000122376 -4.23934e-18)
(0.0105114 9.62725e-05 1.36346e-17)
(-0.00437715 -0.0024324 1.37104e-18)
(-0.000892182 -0.00484451 8.0272e-18)
(-0.000563143 -0.00191498 -5.933e-18)
(-0.00154654 -0.00178518 -3.40188e-19)
(-0.00035019 -0.00102475 2.08905e-18)
(0.00014173 -0.00242818 3.95018e-18)
(0.00015533 -0.00199652 9.90975e-18)
(-3.39101e-06 -0.00104885 5.19015e-18)
(-0.00414152 -0.00207449 7.72014e-19)
(7.05952e-05 -0.00194943 -3.91829e-18)
(0.0313751 0.00203156 2.14311e-18)
(-0.0020558 0.000838678 -1.41565e-18)
(-0.00103578 -0.00186077 7.72972e-19)
(-0.00542509 -0.00114942 -6.67168e-19)
(-0.0114318 -0.0055506 1.64058e-17)
(-0.000650312 -0.00229002 -2.56564e-18)
(-0.000159748 -0.00124739 -2.14902e-18)
(-0.000310528 -0.00220119 6.06303e-17)
(0.0412457 0.0043432 5.12381e-18)
(0.0439675 -8.16458e-05 1.20117e-18)
(-0.00280077 -0.00586694 -1.27851e-17)
(-0.000493124 -5.88509e-05 -2.332e-19)
(0.0210987 0.000819946 -2.85189e-18)
(-0.00405126 -0.000870217 2.64028e-18)
(-0.000256496 -2.79568e-05 3.83428e-18)
(-0.00206401 -0.00254664 4.32951e-19)
(-0.00484507 -0.00152947 -2.31358e-18)
(-4.93657e-05 -0.00196521 1.16779e-17)
(-0.00303578 -0.00439531 -1.46747e-17)
(0.0271717 0.00314133 -1.90879e-18)
(-0.00498571 -0.00338748 2.31602e-18)
(-0.00381999 -0.000969231 -2.64104e-18)
(0.0452721 0.00166364 -1.9447e-18)
(-0.00179944 -0.00131566 5.17163e-19)
(0.0191527 0.000683222 5.29804e-18)
(-4.49084e-06 -6.92932e-05 1.20361e-18)
(-2.02297e-05 -0.000106677 -5.59028e-18)
(0.0222793 0.00121765 1.26523e-18)
(0.042179 0.0043396 -7.81889e-18)
(-5.03778e-05 -0.00185354 -5.57404e-17)
(-0.00183133 -0.00129315 4.36995e-20)
(-0.000739566 -0.00143609 -4.80429e-18)
(-2.88782e-05 -0.000507497 4.29628e-18)
(-0.00405129 -0.000716194 -5.3719e-19)
(0.000298634 -0.00211733 -3.13147e-18)
(-0.00388961 -0.000280107 -6.1684e-18)
(-0.00159208 -0.00181962 9.50084e-19)
(-0.00493666 -0.000323768 -8.89323e-19)
(-0.00421671 -0.00218907 7.24356e-19)
(-0.000556855 -0.00080023 -3.50963e-18)
(0.0019854 -0.00393022 4.21265e-18)
(-0.00384642 -0.000363825 -6.71153e-19)
(-0.000350942 0.0019415 5.07445e-18)
(-0.000278307 -0.000600523 1.0556e-19)
(-0.0049773 -0.00326882 5.04803e-18)
(-0.00176058 -0.00116819 -5.3956e-19)
(0.0104433 0.00389361 -8.92079e-18)
(-0.00163606 -0.00399773 4.16688e-18)
(0.000175909 -0.00311943 1.65956e-19)
(-0.00253148 -0.00216419 6.65198e-19)
(-0.000200785 -7.96745e-05 -4.72794e-18)
(-0.000934702 -0.000233663 3.26153e-18)
(-0.001141 -0.000972193 2.71636e-18)
(0.000581207 -0.00294289 5.94088e-18)
(-8.44008e-05 -0.00180625 9.17555e-18)
(-0.00447598 -0.00561929 1.85113e-18)
(-0.00344111 0.00064501 2.24114e-17)
(-0.00432118 -0.00194873 -5.63889e-18)
(-0.000233685 -0.000140615 -2.15606e-18)
(-0.00491919 -0.00356643 1.08111e-17)
(0.000124157 -0.00167621 1.40099e-16)
(-0.00644507 0.000496427 -3.26439e-18)
(-0.00153193 -0.000275577 4.57498e-20)
(-9.90905e-05 -0.00177148 -4.50749e-18)
(-0.000267678 -0.000352779 -3.996e-18)
(-0.00342015 -0.000693851 -5.44231e-19)
(-0.0020305 -0.00179738 1.1702e-19)
(0.04584 0.00166646 1.55054e-17)
(-5.85084e-06 -8.5464e-05 9.19778e-18)
(0.000892274 -0.00528788 -8.49784e-18)
(-0.00334167 -0.000767159 -4.64029e-18)
(-0.00523962 -0.000214077 7.05091e-20)
(-0.00186709 -0.00439453 -4.74428e-18)
(0.0175076 0.000603629 6.97008e-19)
(0.000126154 -0.0032726 -4.84994e-18)
(-0.000611411 -0.00125649 -2.95306e-18)
(0.0215028 0.000276908 -7.542e-18)
(0.0143413 0.0019523 -5.67377e-18)
(-0.000489013 -0.00101552 -3.73267e-18)
(-0.00265611 -0.00069306 -2.17476e-18)
(-0.0118749 -0.00514382 -1.94467e-18)
(-0.00285506 -0.00571877 8.24174e-18)
(-0.00509063 -0.00269817 6.39959e-18)
(-3.43904e-06 -8.16376e-06 1.11147e-18)
(-0.00120547 -0.00121619 -2.99447e-19)
(0.000380234 -0.00488228 -1.78746e-17)
(-0.00290202 -0.000513401 2.6782e-18)
(-0.00418165 -0.0028765 -1.76937e-18)
(-0.00447032 -0.000983801 -2.99491e-18)
(-0.000965148 -0.000231006 -2.15207e-18)
(-0.00432192 -0.00136644 5.55864e-18)
(0.0363334 0.00336781 2.33604e-18)
(-0.00154158 -0.000206261 4.76255e-19)
(-0.00241933 -0.000191 -8.5423e-20)
(-0.000110541 -6.85072e-05 3.27522e-18)
(0.021736 0.000827636 3.82652e-18)
(-3.18774e-06 -3.93428e-05 -1.81014e-18)
(-0.000504678 -0.00186041 -6.9011e-18)
(0.00359091 -8.10548e-05 -2.5877e-17)
(-0.000549825 -0.00166432 3.60974e-18)
(0.0405488 0.00388864 -6.92462e-18)
(-0.00184579 -0.00219301 -1.07953e-19)
(-2.6644e-05 -0.00197975 1.64079e-17)
(-0.00011941 -7.26258e-05 -1.21376e-18)
(-0.000278336 -0.00305141 5.27811e-18)
(-0.000120705 -0.000415104 2.67882e-18)
(-0.00288002 -0.00355126 -9.08362e-18)
(-0.000190514 -4.76297e-05 -4.03942e-18)
(-0.000118814 -0.00372045 -4.06465e-19)
(-0.0021614 -0.000654605 3.85651e-19)
(0.0103294 0.00431151 3.24334e-18)
(-0.00142245 -0.000613312 1.04305e-17)
(0.0379479 0.00310161 -1.02523e-17)
(-0.000286433 -1.40276e-05 -1.1554e-18)
(-7.85072e-06 -0.000118895 -1.42146e-18)
(-0.00221971 -0.0041162 -6.08807e-18)
(-0.0019331 -0.00346872 2.59344e-18)
(0.0223335 0.000966306 -8.11718e-20)
(0.0395331 0.00301858 -4.92664e-19)
(-0.00369428 -0.00270644 -1.30964e-18)
(-9.05575e-05 -0.000618427 -3.80671e-18)
(-0.00589787 -0.00495142 -1.79211e-18)
(3.11642e-05 -0.00207276 -4.5023e-17)
(-0.00477379 0.00118169 -5.69976e-18)
(-0.00403317 -0.00549006 4.30023e-18)
(-0.00384567 -0.00234739 -3.55064e-18)
(0.0260817 0.00325572 -3.13549e-18)
(-0.00135749 -0.00309102 1.60104e-19)
(-0.00401571 -0.000672909 -5.03154e-19)
(-0.00461278 -0.00410053 -1.23734e-18)
(0.000813467 -0.0023885 7.73195e-18)
(-0.00361985 -0.00270115 2.02999e-18)
(0.000314135 -0.00201671 3.7813e-17)
(-0.003501 -0.00279267 3.79212e-18)
(-0.00256984 -0.000405948 3.17072e-19)
(-0.00490906 -0.00154631 -5.54773e-18)
(-0.000692193 -0.00220635 3.98992e-18)
(-0.00119953 -0.000226628 -1.26148e-18)
(-0.00337832 -0.00070254 1.86323e-18)
(-0.00171725 -0.0033529 1.08001e-18)
(-0.00121925 -0.00236169 4.82538e-18)
(-0.000112206 -0.000438207 -2.04708e-18)
(-0.0001678 -1.34265e-05 -1.34569e-19)
(-0.00427944 -0.00206522 -2.36338e-18)
(-0.0022439 -0.000920825 -5.07208e-19)
(-0.00418335 -0.00294953 -7.28598e-19)
(-8.66275e-05 -0.000596455 1.83604e-18)
(-6.4279e-05 -0.000482743 -1.38857e-18)
(-4.33621e-06 -3.4582e-05 1.28215e-18)
(-0.000929192 -0.00165382 1.96664e-18)
(-0.00071877 5.23844e-06 -6.8401e-19)
(-0.00127892 -0.00215411 -1.54778e-19)
(-9.74378e-05 -7.18686e-05 5.42866e-19)
(0.0159207 0.00100081 1.90279e-18)
(-0.00414387 -0.000755096 -8.55224e-19)
(-0.000179796 -0.00173043 -8.90857e-18)
(-0.000333965 -0.000155606 5.81123e-19)
(-3.24415e-06 -4.35506e-05 -1.53586e-18)
(7.1466e-05 -0.00207057 -2.14689e-17)
(-0.00317385 -0.00355213 -1.10694e-17)
(-4.98637e-05 -0.00134679 6.58239e-18)
(0.0246267 -0.00470646 1.72118e-18)
(-0.000948691 -0.00407009 6.17392e-18)
(0.00359681 -0.00626876 9.2705e-18)
(-0.00337988 -0.000754669 3.07966e-18)
(-0.0047927 -0.00331315 1.54262e-18)
(-0.00177825 -0.000825174 4.92499e-19)
(2.43303e-06 -3.26401e-05 -5.9686e-19)
(-0.000139624 -6.11663e-05 -2.98017e-18)
(-0.00113139 -0.00162657 -2.50522e-19)
(-0.000428769 0.000498658 -1.83497e-17)
(-1.67457e-06 -3.60696e-05 2.7554e-18)
(-0.013779 -0.00301622 7.60364e-18)
(-0.00127867 -0.00220477 2.40673e-18)