/*--------------------------------*- C++ -*----------------------------------*\
| =========                 |                                                 |
| \\      /  F ield         | OpenFOAM: The Open Source CFD Toolbox           |
|  \\    /   O peration     | Version:  v2012                                 |
|   \\  /    A nd           | Website:  www.openfoam.com                      |
|    \\/     M anipulation  |                                                 |
\*---------------------------------------------------------------------------*/
FoamFile
{
    version     2.0;
    format      ascii;
    class       volScalarField;
    location    "300";
    object      ddt0(omega);
}
// * * * * * * * * * * * * * * * * * * * * * * * * * * * * * * * * * * * * * //

dimensions      [0 0 -2 0 0 0 0];


internalField   nonuniform List<scalar> 
13917
(
0.0572169
0.000425828
0.00089352
5.43472e-05
0.000434429
0.000324299
0.000334797
0.000972849
0.000184013
0.162631
0.0010325
2.02333e-05
6.29411e-05
-0.000666098
0.000154944
0.0667032
0.000132608
0.00110279
-0.000279953
0.180906
0.000752052
2.0421e-05
0.000895482
1.95395e-05
0.00014124
0.000831037
0.00749144
0.164483
0.00108178
-0.000113756
0.327635
0.000591738
6.15512e-05
0.104665
-0.000147635
0.000970245
0.000184958
-0.00022636
0.000336135
0.00110809
9.15678e-05
0.000276605
0.000142309
-0.000108179
-0.000202617
-0.00166349
0.000674166
-0.362076
0.0014993
-0.000144643
1.92118e-05
0.000707376
-0.324741
2.49005e-05
3.162e-05
0.000519363
-0.664561
0.000871017
0.000281128
-0.00164905
-0.33547
-0.0102597
-5.2681e-05
0.000128069
0.231083
-0.0432323
0.00104706
0.000835501
0.00117537
0.124738
-0.0205187
0.107521
7.1073e-06
0.000189973
0.000823269
0.000175627
0.000170974
0.000184503
0.000159767
6.63445e-05
6.90389e-05
5.8657e-05
9.61501e-06
-0.00455798
-3.79349e-05
0.00178466
0.000602272
-3.6382e-05
0.00107496
0.000126963
8.07707e-06
0.000128323
0.00512066
-0.000141098
6.96693e-05
0.00108567
0.0127348
-0.000182486
-3.47363e-05
0.00447459
-7.78969e-06
-1.09976e-05
7.32564e-05
-5.17021e-05
0.000185376
0.857481
0.112127
-0.00458633
0.000595638
0.0216325
-1.30751e-05
0.105501
0.00106203
-0.459332
0.172061
0.000213997
-6.67415e-05
7.88726e-05
-0.00166728
6.60122e-06
2.62654e-05
5.47348e-05
0.00111776
0.000403272
0.0574507
0.0303296
0.00011392
0.000913545
-5.42316e-05
0.000350397
0.000443599
0.00141217
0.286311
0.00020995
-0.00012406
0.0180523
-0.644952
0.068528
0.000917177
-0.000220855
0.0199888
0.000112788
0.973786
-2.00982e-05
3.99233e-06
0.00134748
-0.0161043
0.0716175
-0.331567
2.95961e-05
0.000913818
-1.64974e-05
1.29603e-06
5.88713e-06
0.0117492
3.70206e-05
-4.96087e-05
0.203425
0.000147176
0.000107758
-2.7379e-05
0.303698
0.000257283
0.0124191
0.0973149
0.00394686
1.26527
-0.21719
-2.54371e-05
0.000984617
2.35586e-05
0.312504
0.000178019
0.0224987
0.001579
4.62064e-05
5.30144e-05
0.000336472
0.000431845
0.00027644
0.000133029
1.94628e-05
2.06614e-05
-0.00274812
-0.00252257
0.00193699
1.61074e-05
-0.00299592
-0.000112358
0.00202823
0.00161024
1.86737e-05
-0.00116137
0.0683065
-0.000141079
0.0889504
0.000337711
0.360157
-0.00015907
2.77365e-05
0.000562565
0.147268
0.0904187
0.000150692
0.00292563
0.000609068
0.000953471
0.000111287
0.000274769
6.90073e-05
-4.64616e-05
-5.76551e-05
-0.00925061
-0.349775
-4.50214e-05
0.000911947
0.206103
-0.000116434
4.48751e-06
4.59285e-06
-0.216359
-0.00188232
-0.00325985
-2.52822e-05
-2.33365e-05
0.0853944
0.154828
-8.14355e-06
-9.60571e-06
8.33365e-05
1.02462e-05
1.04234e-05
0.101657
0.0662927
3.98567e-05
-2.58391e-05
0.0012392
0.11079
0.000191084
-2.73135e-05
0.00368041
1.09076
-0.00222591
0.186562
0.00143196
-1.83244e-05
0.0768718
0.00117994
0.00103126
0.000587373
0.000138366
0.0702955
6.14115e-06
0.00118688
0.00154039
4.47422e-05
6.27344e-05
0.000123892
0.000506581
-0.000314091
0.0731979
0.00888456
-2.61756e-05
-1.36793e-05
5.5129e-05
-1.33792e-05
6.81863e-06
5.74702e-05
0.000859916
6.65586e-06
0.0374857
0.107712
-2.44658e-06
0.000260736
-0.00340246
1.76577e-05
0.00314193
0.0664603
1.72424e-05
0.101173
-0.000287201
0.26092
3.56832e-05
0.000130898
4.98085e-05
-2.41756e-05
-0.00187141
-0.000223995
0.00945752
0.000500184
-0.00371564
0.00162585
-0.000145608
0.0745739
0.000112879
0.00102076
0.000458833
0.00023068
0.000472349
0.000155002
-0.000174664
-0.000177559
0.000546995
-0.0530395
0.00112629
0.000146874
-2.96855e-05
0.283149
0.0584566
-5.87726e-05
-4.16598e-05
0.000233954
-0.0262218
-0.000462351
0.105559
0.0416113
-0.0227536
0.0012163
0.000228492
-0.011906
-0.0320565
0.00116891
5.82218e-05
0.000138459
0.00381976
3.2947e-05
0.000493869
0.000207183
0.000161483
0.321411
-4.24443e-05
0.000255602
2.69491e-05
-0.254212
-4.07789e-05
0.00102571
0.000685694
-0.0202633
0.000144907
0.000661858
0.257773
6.31983e-05
3.14885e-05
0.11172
0.514864
0.0329495
0.000973088
1.26597e-05
4.0315e-05
1.16755
0.00129316
1.20224e-05
0.000250747
1.92856e-05
0.00153304
0.00103641
0.000109912
0.00171939
0.00315226
0.000329171
0.108232
-5.55087e-05
6.40747e-05
0.000116802
-0.00303431
0.000194383
0.0588947
0.000295157
0.00243785
3.03859e-05
0.00148676
0.000223278
0.00556647
0.000387205
-0.00248831
-0.00327277
0.000793292
1.8627e-06
-0.00120564
3.19331e-05
0.0948392
-0.00194428
0.000379716
0.00153655
7.06208e-05
-0.000495756
-5.26842e-05
0.121607
-0.000569327
0.000154949
0.0789265
0.00267605
0.000119126
0.0731557
0.0102798
0.000129681
-0.00171872
3.29496e-05
0.00264947
-0.000181077
-3.76525e-05
0.000277989
0.000143775
-2.26736e-05
-4.05644e-05
-5.00218e-05
-0.517747
0.00487244
5.18262e-05
-5.53064e-05
4.18111e-06
0.0011452
0.000542693
3.28583e-05
-2.59134e-05
-0.000358478
0.00148961
-2.42672e-05
0.000146239
-0.0761141
-0.00385736
-0.0221733
-0.000488205
-0.0231351
9.09034e-05
2.78611e-05
0.00056807
-4.18387e-05
3.27176e-05
4.27034e-05
2.7809e-05
8.17746e-05
0.113443
3.79479e-05
0.00121981
0.0131067
0.00108013
-4.76445e-05
-1.46111e-06
0.0859241
0.000565665
0.0420714
4.59732e-05
-2.50459e-05
7.55954e-05
1.85692e-05
0.000173178
7.95671e-05
-0.0321558
0.00123669
1.26612
-2.46021e-05
0.00058557
0.00199405
6.38978e-05
0.00131424
0.026585
1.6115e-05
-0.0557117
-4.71369e-05
-6.24874e-05
1.95966e-07
7.15081e-05
-4.37866e-05
-4.96128e-05
0.263514
-0.00489613
-4.31109e-05
-0.0032828
-0.000240686
-1.32842e-05
0.00109012
-7.36743e-05
0.079645
0.000309645
1.0361
0.000825065
0.000887801
8.02718e-05
-0.0393347
0.00285696
0.000129064
-0.0183701
2.31766e-05
2.01043e-05
6.91083e-05
0.000234918
0.000750868
-0.00144019
0.000833274
0.000758932
0.000401989
0.000956607
0.00156047
5.09254e-05
0.0736256
0.000792627
0.000501556
0.0806219
-4.24645e-05
0.0015898
-7.8467e-05
-4.32352e-05
0.0454588
-6.60723e-05
1.88097e-05
0.00117057
3.9297e-05
-0.000102318
0.000663883
0.119248
0.210713
-2.94208e-05
6.98044e-05
-0.00169501
-0.0163688
-0.0117247
4.01523e-05
2.87157e-05
-3.15355e-05
0.00138171
-0.00736278
-6.40838e-05
0.000194662
1.38976e-05
-2.55752e-05
-0.00111877
0.00049478
6.85979e-05
0.000821107
-4.56125e-05
1.09697e-05
0.000136256
0.105455
-2.41777e-05
0.000146142
-0.000302671
0.00056147
0.00113381
0.00140698
0.00156449
0.00481369
0.000116182
0.00112337
0.428838
0.117463
-0.0214743
-6.18807e-05
-6.14736e-06
0.00180838
-1.28971e-05
0.31139
2.18738e-05
-0.0268093
0.000337398
0.866475
0.00346699
0.000142297
-0.289608
-4.31331e-05
8.42991e-05
-0.000136383
-0.000743795
0.675938
3.47056e-05
0.00223501
-3.30254e-05
1.51689e-05
-3.96912e-07
-0.00126551
-0.000573508
-2.05288e-05
-0.00015264
0.00116472
-0.00888853
-0.0222204
0.281427
0.0815853
-2.42651e-05
0.118418
-2.24252e-05
-0.371591
0.0292797
-0.00197873
-0.000104063
-1.32538e-05
0.000776205
0.000107938
3.61603e-05
-0.000180064
4.19313e-05
-0.0187487
-2.47835e-05
0.000502573
1.77081e-05
-2.06676e-05
0.000165803
-0.00133117
-0.00686558
-0.751871
0.000750679
0.000480067
0.00432457
0.105887
-5.99364e-05
-0.0139494
3.9135e-05
-0.000510036
-1.19785e-05
-0.00727661
-2.63224e-05
-0.00117855
9.47637e-06
-0.00987261
0.000850777
0.352699
3.31687e-05
0.000801825
-0.000103196
-2.07692e-05
0.105584
0.00488625
-0.000130527
-0.000424883
-2.72252e-05
-0.000418105
-1.82495e-05
0.104911
-2.49836e-05
0.000471634
2.17055e-05
-0.000106056
-0.00283434
-1.06428e-05
-0.000288881
-8.55841e-06
-4.0776e-05
-0.682065
0.000699732
3.42393e-05
-0.478071
0.00162057
-0.000192199
-4.95442e-05
-4.27926e-05
0.00012832
0.106849
-0.00208662
0.000522662
0.000186428
-0.00239121
-4.46981e-05
-4.13028e-05
-0.00832648
0.00118523
0.000267562
0.0265797
0.000855451
-0.00106647
-0.0102439
-0.00449216
0.000927211
-0.00115246
0.107725
-0.000175131
-0.00383698
-0.00396653
-4.06715e-05
6.6935e-06
0.00015284
-0.00111132
-8.10577e-05
0.0989576
0.000341557
-5.59044e-05
0.000123334
1.97656e-05
0.107692
-0.000284526
-5.73283e-05
0.0666043
0.00109206
-0.0163201
1.5965e-05
-1.1405e-05
-7.00779e-05
4.65593e-05
0.000440584
-2.79749e-05
0.0478407
0.000643358
0.00557861
-0.0182304
-0.00329489
0.28536
7.22693e-05
-0.000143511
-9.87115e-05
0.0635121
0.330819
0.000363739
-0.0434287
-0.00526803
-4.16319e-05
-5.8855e-05
0.000171827
0.449927
-0.122253
0.000887389
4.0088e-05
0.000147466
-0.00112209
0.000167887
-8.25869e-06
0.00036582
6.5159e-05
6.9761e-05
-0.00018472
0.000440349
0.000401973
0.00162217
0.000252235
-0.00376424
0.0930596
-0.00203686
-0.0157095
0.000168346
0.000379655
0.000314452
0.00196789
4.18551e-05
-4.18038e-05
-0.0291179
0.00218716
-1.0938e-05
0.000253558
-0.00011524
-2.17393e-05
4.82311e-06
0.000121874
0.00144591
-0.00107576
-0.00023156
-4.19453e-05
-0.00560171
0.000186497
0.00025002
-0.000671319
4.58911e-05
0.000121391
0.0130595
-2.56477e-05
0.00108828
0.00157435
0.000365563
-4.32305e-05
-4.51956e-05
-4.2672e-05
0.138836
5.83073e-05
-0.000360223
0.00028965
-2.62519e-05
-4.81851e-05
0.000723556
0.00806031
-0.00240156
-0.000953523
0.00141262
1.39917
3.53061e-06
0.000197115
-0.00224949
-0.00122114
0.0543948
0.000137532
-3.6626e-06
1.5096e-05
0.000274373
0.00152836
-4.3551e-05
0.0112055
-1.4297e-05
0.0313548
0.000171337
0.000297669
4.06707e-05
0.000622044
0.000151461
0.161127
-0.00182768
0.000186499
0.106177
7.86013e-05
0.0906716
0.000102288
0.000269944
0.000129889
-6.47015e-05
-1.26369e-05
0.324347
0.000445591
9.61813e-05
0.00712212
-2.13874e-05
0.000395338
-2.85528e-05
-0.00710029
-0.0256974
-3.36134e-05
0.0891138
0.000149783
-0.00690678
1.53172e-05
0.101622
-1.95062e-05
-2.61019e-05
0.00161613
-4.33837e-05
2.2971e-05
0.000116451
-1.15442e-05
0.000315585
-1.9096e-05
0.00193761
6.52062e-05
0.0731624
0.0795867
-0.204154
1.64205
0.164974
-0.0165412
-0.00340418
-3.72761e-05
-0.000183268
-2.58468e-06
8.01392e-05
-3.1296e-05
0.000445486
-1.73293e-05
0.00041607
2.57131e-05
-0.0126476
5.08541e-05
0.000286322
0.00180722
-7.23685e-05
0.00121691
7.92994e-05
-0.00116065
0.00032115
1.79288e-06
0.242992
0.00106237
-0.128981
-6.1149e-05
-7.39618e-06
2.7055e-05
-9.58292e-07
0.0827318
-3.83663e-05
0.00423378
-2.79016e-05
0.00297255
0.000124381
-1.65058e-05
-4.78795e-05
-0.00868715
-3.9412e-05
-0.00736139
-0.014816
0.000165757
0.000534635
-4.53327e-05
0.00462217
5.31254e-05
-3.57626e-07
0.106612
-3.89691e-05
5.78241e-05
0.000295093
0.109887
-0.000207179
0.0309326
0.00244022
0.000467946
9.61062e-05
-6.5589e-06
-0.016603
-1.39541e-05
-0.000282068
1.05519e-05
0.0465946
0.0001326
-0.0158747
-5.15522e-05
4.54012e-05
-0.000553123
-7.96486e-05
-0.00167268
0.696292
0.000112829
-3.85966e-05
0.0377619
0.000449817
-0.000116664
0.00112477
0.000122944
0.337067
0.00113125
-8.68001e-05
0.000179867
0.000141601
0.104001
7.81033e-05
0.00109143
-1.91733e-05
0.0453952
0.00297547
2.32826e-05
7.22107e-05
-0.000681036
3.84267e-05
4.73667e-05
7.08e-05
-6.64929e-05
-1.42719e-05
0.00053172
-2.53955e-05
0.000100691
0.000578808
0.1111
0.237768
0.000264944
2.87174e-05
-0.000493877
-2.48829e-05
-0.00123998
-0.0171896
0.659083
1.87638e-05
-3.8565e-05
-2.75395e-05
1.89544e-05
1.82579e-05
7.1445e-05
-1.9954e-05
0.00096745
-3.79951e-05
-0.371705
0.0143221
-3.90524e-05
0.399395
-1.7083e-05
-4.87625e-05
-0.00160025
0.10429
0.0016795
0.000105184
-0.0307364
-0.000121792
-5.52221e-05
-0.014528
-0.000355795
0.00526321
7.01673e-05
-0.0041534
-4.71757e-05
2.95559e-05
0.000590207
0.130489
0.000105669
0.102374
-0.00162011
-0.000180322
0.000110464
-8.02757e-06
-4.36102e-05
-0.000145593
0.000300904
0.000255684
0.0623375
-0.154334
0.152477
6.65648e-05
-2.85743e-05
0.0271113
4.9889e-05
-0.00883404
0.0014816
0.000282655
9.30681e-05
-0.0793574
0.300878
0.0209074
-0.000601736
-0.0040484
1.31418e-05
-1.71529e-05
0.000284902
6.09014e-05
8.49326e-06
-0.00338687
0.113284
3.49595e-05
0.000205814
0.110818
-3.11876e-05
9.49807e-06
-0.0290349
0.101404
7.0621e-05
-2.69786e-05
0.00032002
-2.63448e-06
-5.86434e-05
-0.001544
0.000205971
-5.31509e-06
-0.035101
5.90355e-05
0.00103288
-0.0272237
-0.00128948
0.0554709
1.79702e-05
4.69155e-05
-0.000693429
0.105302
-0.000477737
0.000156841
0.000619783
3.24293e-05
7.39455e-05
-0.000228123
0.175783
0.00616885
4.16052e-05
0.000737608
-2.18306e-05
-0.0017827
0.000750893
-0.000379729
-2.87343e-05
-0.00155705
-0.0957889
-0.0150825
0.195415
-0.000243692
-0.00077922
1.25308e-05
0.00136333
0.00131978
-0.020219
0.000220535
-0.000829115
0.000298211
-0.000574267
0.000118984
0.0680644
0.000799902
0.00154761
0.0161937
-3.75622e-06
-0.000559506
0.000140808
2.25238e-05
0.000527532
0.00101378
4.35565e-05
-4.00173e-05
9.65846e-05
0.388637
-3.89196e-05
0.000113255
0.000104677
7.80596e-05
4.83569e-06
0.0017379
-0.000181887
4.16594e-05
-6.30271e-05
0.00187098
-0.000475166
0.0003559
0.150606
2.08544e-05
-1.64671e-05
0.135606
-0.000372954
0.000125957
0.208444
0.039718
9.86277e-05
0.0014119
0.000281474
0.0458715
0.00412075
0.000685737
-0.0168153
-6.34881e-05
0.00115848
0.0921766
-0.00229741
-0.00172915
0.00359754
7.5635e-05
4.28922e-06
3.09405e-05
8.39207e-06
1.65079e-05
0.00505485
-1.95048e-05
0.00100853
-2.45981e-05
6.72386e-06
0.0834428
0.00012508
-0.0158658
-0.0206116
-1.55647e-05
-0.000241397
0.000219488
0.000104262
-1.93738e-05
0.00546023
0.000793882
0.099887
0.000411793
-0.362311
0.0016337
-0.000132501
-0.326391
0.00078051
-0.000925479
-1.41074e-05
-0.00277085
-1.91395e-05
0.000275199
0.00082592
0.000206516
3.31084e-05
0.000797179
-0.0146714
-2.77264e-05
-0.000101272
-0.00657736
2.33207e-05
-2.64039e-05
0.000953259
0.179002
-0.00217502
-6.43514e-05
0.000276435
-0.0022267
0.0379934
0.156526
6.63313e-06
-4.78649e-05
7.42847e-05
-9.11706e-06
-0.00011273
0.000162945
0.118899
1.2369e-05
0.000186831
0.000935219
-0.00220792
0.000334542
0.111443
-0.246167
1.78091e-05
-8.61735e-05
-4.88298e-05
9.54207e-05
-0.000262374
0.306114
0.00157934
0.00182448
0.000521383
0.000716155
0.000115572
-0.00106037
0.000255245
9.58714e-05
-0.000120959
0.00383028
-0.00215427
-5.98983e-05
1.40425e-05
0.142526
0.00107887
0.00100446
0.112084
0.000860855
-6.77059e-05
-0.00218569
-0.000149479
-3.85921e-05
-0.00652159
-0.0262886
-0.000128551
0.000140555
1.45764e-05
0.000788624
5.89595e-05
-1.88038e-05
-2.5924e-05
-4.73998e-05
-2.28476e-05
0.00055005
0.00142872
0.0720609
0.000822654
0.000290869
0.000436463
0.00164161
-6.51542e-05
0.000746278
-0.00172281
0.0112461
0.110517
0.000103862
-1.57288e-05
0.0268785
-5.33e-05
-0.00045573
0.000109012
0.00123207
3.80432e-05
-5.47605e-05
0.00427548
0.000340641
9.67944e-05
-1.18243e-05
0.0133192
0.000823299
0.103561
-1.24304e-05
1.02744e-05
0.000200813
0.000110075
9.74031e-05
0.00183043
0.0178546
0.000372161
0.00064354
5.29545e-05
0.0394522
-2.96922e-05
0.000113124
3.30567e-05
-1.80635e-05
0.0122025
-2.91548e-05
-4.60594e-05
-0.0011544
0.000460332
-0.035964
0.00119396
-3.4243e-05
0.000503873
-4.69519e-05
-6.99963e-05
0.000121514
-1.62466e-05
1.36895e-05
0.00208015
6.63636e-06
0.0013528
0.000427635
0.00174701
-1.6565e-07
0.000216879
-5.17219e-05
-0.0265177
4.06576e-05
-0.000841028
0.000604774
-1.51636e-05
0.000746474
0.00063993
0.000519743
8.0897e-06
-0.00626631
-3.86079e-05
-6.02014e-05
-0.0280981
0.000353868
0.0229126
-4.00684e-05
-0.000116802
6.77848e-05
0.0011901
-2.03808e-05
0.156218
0.00101587
9.48038e-06
-3.10491e-05
-3.92953e-05
0.00105232
0.00146708
0.13188
0.00703032
-0.0154421
0.00210572
0.00142966
0.000129818
0.0549208
-2.38784e-05
4.09289e-05
0.000245431
-0.108159
-4.16598e-05
0.119705
1.91611e-05
-6.50535e-05
0.00182389
-0.00155095
-0.108336
-0.000691513
0.000304057
0.000962297
0.00186895
6.98136e-05
0.0818105
-1.69968e-05
3.5098e-05
-0.00546577
-3.22363e-05
0.143084
0.00414566
-2.89228e-05
-1.35351e-05
7.00965e-05
0.30324
0.000130763
-1.63657e-05
0.000407915
-3.71788e-05
-4.90459e-05
0.000155852
8.69639e-05
0.000657156
1.20767e-05
0.000167061
-3.29687e-05
0.000620741
0.0271848
-3.59652e-05
-3.70216e-05
6.65429e-05
-3.32761e-05
0.000150355
-2.87945e-07
-0.00025108
1.48532e-05
-4.10879e-05
8.43673e-05
-3.38675e-06
0.00114854
-3.85992e-05
0.000617981
9.48238e-06
0.000654433
-6.32966e-05
1.3094e-05
-2.73113e-05
3.98549e-05
0.000924907
0.000122474
0.000204951
-0.053617
-0.000190905
0.195804
0.109969
0.000561965
1.4689
1.11927e-05
-4.15724e-06
0.012241
-0.0321679
6.78082e-05
0.100437
-5.33194e-05
-0.000526593
0.051248
0.000149069
0.000717181
0.0724584
0.682335
-3.03806e-05
0.000705907
-3.86411e-05
0.15468
0.000183212
0.207043
0.168967
1.63749e-05
0.0195566
0.00623257
0.000162999
-0.0118887
0.0013378
0.000127563
-4.24964e-05
0.00203082
0.0548003
6.98642e-05
0.000442942
4.49685e-05
0.00754338
0.000796618
1.33365e-05
-6.46535e-05
-0.0216285
-7.0211e-05
-1.62447e-05
4.62175e-05
-4.16551e-05
-0.000626006
6.96855e-05
0.000454721
0.0285857
-2.25908e-05
0.0015159
7.88296e-06
-0.000799143
0.00129869
0.183099
-6.13988e-05
0.000357977
5.11307e-05
-8.73439e-05
0.000110222
5.93312e-06
-0.0174888
9.20217e-05
-4.47593e-05
-2.69551e-05
-0.0252988
-4.09049e-05
-0.0214784
-0.0190531
0.00966823
-1.54979e-05
-6.64721e-05
-2.88691e-05
0.0232017
3.5591e-05
0.676134
-3.64322e-05
0.00839258
0.000119322
-0.00102561
0.000427575
1.97835e-05
0.000110797
0.0603448
-3.73715e-05
0.121055
-0.00051654
0.785692
0.00124626
1.64231e-05
0.0951338
2.7796e-05
0.000129265
0.03569
0.000122416
0.000744316
0.0984018
0.000400619
0.000855336
-1.41247e-06
0.0143092
-1.70538e-05
-0.0218219
-3.01843e-05
0.11565
-1.56887e-05
-1.67943e-05
0.000109467
0.0140734
-6.62017e-05
1.36263e-05
0.00169953
0.0415073
-1.78362e-05
0.000467036
0.469627
0.000147078
-0.00193082
0.00134923
-6.33177e-05
3.57033e-05
0.0076313
0.000154596
-0.0014987
4.59749e-05
-0.00083942
-0.0209197
-7.15827e-05
0.0975241
-2.93748e-05
0.841127
-0.0017979
0.000171143
0.000133245
-0.0208593
-0.0271757
-1.35707e-05
0.000101275
-4.35661e-05
1.67543e-05
0.128193
0.00151637
0.00496775
-2.99493e-05
0.000419134
0.162557
0.0764964
0.0475719
0.0510853
-3.97653e-05
-1.96229e-05
0.000656114
-0.0966528
-0.00220751
-0.037126
0.00803744
0.00103286
-0.0071718
0.576983
0.0833177
0.00877453
-4.39485e-05
0.00111141
0.00104957
0.00166621
-4.82768e-06
0.000222452
0.00147025
0.00439976
0.014428
0.000572904
0.00286275
0.0465634
0.000970202
-1.75951e-05
-1.84995e-05
-0.000279541
-7.69005e-05
0.21845
0.000451754
6.79635e-05
-8.92548e-05
0.00850753
-3.54161e-05
0.000819761
0.000482265
-4.44472e-06
0.477628
-0.00163856
0.274798
-0.000127359
0.105159
0.000322585
-0.000769011
3.8667e-05
0.000335082
0.000440793
0.0023181
0.00141268
0.000616049
0.083964
0.00268973
-3.20672e-05
0.000302576
-0.000704867
-0.00052044
0.109922
1.40692e-05
-3.12494e-05
9.37555e-05
-0.00149294
0.00202439
-0.000136715
0.00137029
0.000696867
-4.0733e-05
0.00534723
0.000162179
0.326125
9.73969e-05
0.147581
1.11413
0.000443709
0.000174824
0.0028867
-2.68369e-05
0.00105845
0.112417
2.96063e-05
0.0025248
0.000285945
0.000608791
-0.0451407
0.759214
-3.08041e-06
-0.146903
0.00161977
-3.19704e-05
-0.000421656
0.00110534
0.00169446
-0.0188486
0.00635953
0.0221866
0.000977739
0.105234
0.000373606
0.000121146
-6.28215e-05
1.52918e-05
2.43108e-06
-4.07891e-05
0.0028293
0.00376354
4.49632e-05
0.000577355
-0.00106693
-2.69054e-05
-0.00821301
0.344283
-3.096e-05
3.28433e-05
-5.24255e-05
8.71343e-05
0.000639403
-1.65269e-05
-0.341317
0.000476125
0.00138426
0.000197226
0.00164901
-0.00601246
0.000257691
0.00179033
-3.66894e-06
9.42291e-05
4.45935e-05
-0.000104726
0.567836
-0.000590385
0.000430885
-0.705182
-2.48922e-05
5.62308e-05
0.000467683
-5.75131e-05
-5.77468e-05
0.00208469
0.000271778
0.106195
-0.0407856
0.0217513
-2.78006e-06
-0.398845
-1.82516e-05
-0.00341326
-3.26248e-05
-0.00109852
-0.049605
-6.51497e-05
-0.00156728
0.110676
0.000622696
-5.68396e-05
0.000103623
0.000404369
0.00919772
-4.03117e-05
1.46916e-05
-0.000173303
-0.000215929
5.11588e-05
-2.00533e-08
0.000298694
-3.87229e-05
-0.000258664
0.00133142
0.000756051
0.00011009
-0.00055313
-0.000551363
0.235965
-0.0684252
-9.73053e-05
7.90328e-05
0.111391
-4.80574e-07
0.000866814
4.61024e-06
0.164597
-9.53905e-05
1.03016e-05
0.000584975
0.222985
-2.0467e-05
-6.17689e-05
-2.38911e-05
-0.000806859
-0.145216
0.00106405
-1.08096e-05
0.000130067
-3.90605e-05
0.00658565
-3.60207e-05
-0.0109307
0.000651661
-2.27101e-05
-0.00182437
0.000309119
-0.148585
3.51408e-05
9.55281e-05
0.000582955
0.000805795
0.00199974
1.53213e-05
5.00222e-05
-0.000107913
0.112554
-7.01407e-05
-7.39422e-06
0.796812
0.000119578
0.0241906
0.00021412
-5.65844e-05
-0.000218438
0.00055822
0.000106495
-0.0452423
-0.0139915
3.48079e-05
0.00463261
3.64079e-05
0.000947525
0.00132505
2.36748e-06
4.12905e-05
3.52734e-05
-1.69072e-05
-0.015257
0.000678927
-0.033824
0.0992472
-3.90907e-05
0.00115036
0.00103013
-0.0117469
-1.58907e-05
0.0625078
0.870146
0.00625301
-6.38117e-05
0.000112805
4.10815e-05
0.0231256
0.587551
8.67694e-05
-1.73786e-05
0.000522847
-0.257064
7.30157e-06
0.000119948
0.000105809
-0.000383625
-0.00395111
-2.4007e-05
0.0952572
6.66412e-05
-1.94147e-05
-0.0140916
0.000730636
0.00447786
-0.00411616
0.000641591
0.000142281
-1.664e-07
0.000279887
6.10713e-05
0.000944516
0.00130027
-0.000261757
0.00019741
0.00566074
-0.0400631
-3.85522e-05
0.00142214
-0.230957
0.01012
-0.000323665
7.52669e-07
-0.0493469
-0.0229953
0.000305927
-2.78253e-05
-0.062144
0.000234301
3.85879e-05
0.0763342
0.000389814
2.82708e-05
-0.00237081
-1.23237e-05
-0.00160832
-6.59792e-05
2.95601e-05
-1.28675e-05
-2.45643e-05
0.145149
4.01589e-05
-4.45563e-05
0.000878441
0.000203305
0.000164616
-0.000788866
1.14513e-05
-1.399e-05
0.00011073
7.86102e-05
-0.00659128
-0.00717153
-0.00324504
-0.105948
4.67165e-05
-0.00868456
0.00514453
0.174871
-0.000775658
0.175418
-4.39685e-05
0.000401047
-1.47545e-05
1.63652e-05
-0.000129487
-0.000571971
0.00326637
0.000117541
0.000916876
-2.83839e-05
-2.00643e-05
0.000104175
1.88302e-05
4.68479e-05
1.32277e-05
-0.04354
0.000643906
0.148629
1.08897e-06
-0.0170053
5.37358e-05
-8.40807e-07
5.21054e-05
0.00055024
-3.01494e-05
0.00104374
0.106839
0.00113676
0.0511105
0.0162902
-0.000378162
0.000419024
0.00418321
0.00107062
3.58033e-05
-0.000120443
3.60831e-05
0.103831
2.93754e-05
-2.65595e-05
-0.000368226
0.00114136
0.00590406
0.00736063
0.000669242
0.33327
8.6034e-05
-2.10823e-05
0.00247534
0.155404
-5.32838e-06
-2.65969e-06
0.00287202
-4.39726e-05
-0.000947926
-2.73099e-05
-4.67384e-05
0.00025517
-6.3803e-06
0.00128458
0.103858
0.103557
0.000222244
-8.79495e-05
0.00210473
8.59952e-05
0.00170421
-4.02189e-05
-0.00051242
-0.000169242
4.62351e-05
2.37882e-05
3.47922e-05
0.00166495
0.00144759
0.000513316
-0.00035784
0.000547158
-0.00197042
0.000458635
-0.000449558
0.506998
-1.75035e-05
0.0931833
6.99194e-05
-0.053336
0.00461502
0.0942686
0.243836
8.88736e-05
0.00128735
0.00223013
-1.70344e-05
0.107009
9.26274e-06
-5.78831e-06
0.000264583
4.67085e-05
0.000458064
-0.00671417
-0.00571287
0.00226853
0.000308418
0.00106354
8.78634e-05
-2.74848e-05
8.00784e-06
0.000911066
0.000251713
-0.0329534
0.00122613
4.66175e-05
-4.24023e-05
4.46991e-05
0.0136419
0.000162094
6.10583e-05
0.000249647
0.00268324
0.000507607
0.000869161
-0.000862913
0.0912948
0.000523615
0.000551291
-1.64692e-05
0.000271403
-0.0026874
-0.0100499
0.00124267
-5.71056e-05
-0.0153861
0.000692475
-2.90333e-05
0.00104787
0.12021
0.150119
0.000679947
-4.42616e-05
0.0715396
5.04341e-05
-4.01463e-05
4.79723e-05
-0.000686062
0.00791822
-0.000401046
-0.0134583
-0.0114102
1.21315e-05
-0.000630747
0.00144183
0.265963
0.000606915
0.595985
5.29875e-05
-0.00512009
0.00233874
0.792015
0.000660422
-9.30929e-05
0.16307
-3.16448e-05
7.50813e-05
-0.38677
0.36243
-0.0014985
-0.00270003
0.000170851
9.00492e-05
-0.0147048
-2.92862e-05
-3.10037e-05
-3.44686e-06
0.00108202
-1.75288e-05
0.000250436
2.6359e-05
0.0325798
-0.0253439
5.25148e-05
0.0934021
2.33804e-05
0.122753
0.0598941
-5.92639e-06
1.62613e-05
0.000244649
0.00466151
0.0048803
0.00133128
0.113309
0.0808437
0.00194742
-0.00031843
0.194589
0.120642
0.00105084
0.00141904
2.01306e-05
-2.30836e-05
-2.74311e-06
8.13974e-05
-3.88288e-05
0.000548051
0.105787
5.79701e-05
-0.0351737
0.0965502
0.34044
-0.00102283
0.302289
5.5304e-05
0.57356
0.000269233
0.000311607
-3.02047e-05
-1.03494e-05
0.000728618
0.0651815
5.46625e-05
0.0637021
0.203341
-4.59943e-05
1.33505e-07
-0.000449552
0.00207521
5.74823e-05
0.001264
0.099232
-3.61928e-05
-2.13465e-05
-4.37068e-05
6.25605e-05
6.36227e-06
0.103462
0.000752024
0.114223
0.00121406
-2.62395e-05
0.00100693
0.00161025
0.000177255
-0.00535086
-0.0175093
-0.0498025
-0.00296435
0.0896789
-1.8666e-05
-0.015837
0.107643
4.0471e-05
0.00965385
-0.000108966
0.000126034
0.000171865
0.000118679
0.337552
0.00141359
1.49709e-05
0.000400133
0.00211439
0.0962703
-0.000293423
0.000287977
0.15165
0.311135
1.18364e-05
0.000406439
0.0010771
-2.47582e-05
-1.91041e-05
-0.0405024
-2.72302e-05
0.00913942
-0.00324019
0.652148
-3.09798e-05
0.00214002
-0.00165818
-3.2159e-05
4.34947e-05
0.279047
-0.00472038
-1.5885e-05
0.00017308
-0.00114852
0.00631953
0.358798
-0.00856527
0.00029425
0.0100444
-0.0845659
0.000812606
-3.77196e-05
0.000564705
-2.28822e-05
4.38193e-05
0.106537
0.000968495
0.00124768
0.000195918
-0.000239628
-7.37043e-05
-2.3618e-05
4.83085e-05
6.58371e-05
-0.0136848
0.000173684
-0.00242835
0.0453044
0.00119013
0.000876764
0.00693045
0.80553
-0.0121147
4.93501e-06
0.000227094
0.000845036
0.000275647
-0.0005762
-0.0141123
4.65993e-05
-0.0017702
0.061661
0.000335053
0.0001569
0.000833369
-4.04168e-05
-8.35373e-05
9.34208e-05
-7.32827e-05
-0.000461533
-0.00067343
-0.000940982
-0.000318314
0.000749346
0.000486822
-4.43626e-05
0.000631869
0.000147845
-2.85303e-05
-0.00105312
0.493163
-0.000459508
0.16137
4.20967e-05
-5.9502e-05
-0.00324474
-0.0169886
5.80954e-05
0.00015102
-4.13198e-05
-0.34245
-0.0020078
6.69561e-06
0.000363151
0.000263275
-0.199943
0.00785378
0.000150566
-0.00278134
0.100711
-0.000125254
0.514402
0.00116904
0.048481
0.335346
-2.52668e-05
0.541831
0.0511444
8.41985e-05
0.00159491
0.0015274
0.000125864
-6.49639e-05
0.00504419
-0.0504379
2.64742e-05
1.55571e-05
-0.0955244
-0.00973407
0.00165397
2.74057e-05
0.00296524
-0.000354122
0.201802
0.0221172
-1.28685e-06
-2.29696e-05
5.4766e-05
-0.000138925
0.65169
-0.00422199
0.302534
0.000433012
0.000143255
0.0136856
-0.000160836
-4.66765e-05
0.0917839
-0.000104951
0.596213
-2.74229e-05
0.390064
7.93692e-05
7.60426e-05
-0.00628387
-6.71117e-05
-0.000352347
-0.0179087
6.70894e-05
0.000122693
8.8913e-05
0.00228462
0.108458
0.000148413
0.141742
-0.000172577
-0.000269301
0.000384099
0.00166399
0.368308
-0.397965
0.00161803
0.00117283
-0.000432868
-0.0211041
-0.000854225
-0.000108417
-3.83837e-05
-3.07654e-05
-0.00641436
0.000827885
0.175253
0.00113015
-0.00136071
-3.09166e-05
0.00641074
0.00340567
-0.086781
-1.34538e-05
0.000101809
3.06441e-05
0.108933
-0.000391821
0.0120222
-0.00549337
-0.000447657
0.000157814
3.56909e-05
0.000720612
0.000713952
-0.00378654
-0.0136174
-3.06794e-05
-0.000291858
5.11928e-05
-8.30752e-05
0.002464
-0.113826
-0.00058593
3.41841e-05
0.00170364
0.0037221
0.0144379
0.070846
0.84404
0.673318
-6.01275e-05
0.00124208
-3.34388e-05
-0.000345623
-0.00014197
0.00150575
9.92838e-05
0.00105374
-0.0180785
-0.0226432
-0.000235683
0.00316883
0.0609364
-0.000484926
0.000112475
-0.24016
-0.000215985
-0.000191438
-7.8073e-05
0.499778
0.000492084
0.00110522
0.00322797
0.0884311
0.11765
-0.000365327
0.0219959
0.105781
-0.00903197
0.00703032
0.000618736
-0.000339583
-2.61817e-05
0.713215
-0.000594558
4.90114e-05
-0.00777941
-0.00156469
-0.000947838
0.000379497
0.0529939
-0.00241674
-0.0211673
0.000232347
0.00689055
0.000192742
0.104263
0.000426789
-0.00965452
0.00441794
-4.07388e-05
3.10086e-05
0.0996277
0.783099
-0.00140346
4.32353e-05
0.00118777
0.000102301
0.016252
0.000559664
0.0411427
0.000304404
0.0181224
0.000972479
-0.0179671
4.61177e-05
-0.00277078
0.00162798
-0.000187535
-0.00034476
3.64182e-05
0.000190639
2.47136e-06
0.00273282
-1.79059e-05
-9.15542e-07
0.479251
-0.0206225
-2.93686e-05
0.555505
6.48668e-05
-8.04153e-06
-1.98528e-05
-7.61826e-05
1.3941e-05
-0.013967
0.305182
-4.06782e-05
0.00449288
0.00067456
0.000610241
-0.00277416
0.000165284
0.000278885
0.000399539
-3.09481e-05
-0.00235369
0.000320374
0.46695
-6.07747e-05
0.0313869
-0.00280741
0.00146278
0.00729027
-0.00719517
-4.02846e-05
0.0968287
0.00122488
0.000899574
-0.00373798
-2.4326e-05
0.00136763
0.00242539
-2.57614e-06
-0.273848
-2.10342e-05
0.718316
-0.00109886
-0.0202202
0.00197106
-0.000205671
0.509166
1.14684e-05
-0.000146961
0.000679101
0.00010976
1.54727e-05
1.59063e-05
0.000370683
-3.26936e-05
-2.93353e-05
9.01121e-05
0.00115323
0.000130253
0.000351707
-4.95405e-05
-0.000820751
-0.000772033
0.000154438
0.978684
0.000138342
-2.04047e-05
-0.000158535
0.000515402
-0.000120206
-3.2555e-05
0.00339125
0.00010547
0.0893683
0.000116599
0.000802391
-2.59162e-05
-2.31772e-05
0.00289715
0.337648
0.000613384
0.000749451
1.44274e-06
0.205141
5.44807e-06
-2.94036e-05
0.000461291
0.000162482
-0.000820725
0.0765013
-7.80819e-05
0.00431944
0.00116679
0.117897
7.60191e-06
1.08234e-05
0.00160156
0.0125977
0.000727682
0.00104716
0.0675027
0.000381498
6.56989e-06
0.00040769
0.00312008
9.20267e-05
8.92364e-07
-0.000249635
-0.000392323
0.00119418
1.53827e-05
2.09885e-06
-0.00213444
0.00136529
-0.0180386
-0.00831543
0.000120174
0.000826441
1.20676e-05
0.000540946
-0.00965987
2.44352e-05
-0.00125907
0.00954793
0.0014055
-0.0183157
-5.84982e-06
-6.16658e-06
-3.15567e-05
0.593596
0.000677839
0.0001397
0.00293339
-0.000362655
9.74235e-06
-7.88282e-06