/*--------------------------------*- C++ -*----------------------------------*\
| =========                 |                                                 |
| \\      /  F ield         | OpenFOAM: The Open Source CFD Toolbox           |
|  \\    /   O peration     | Version:  v2012                                 |
|   \\  /    A nd           | Website:  www.openfoam.com                      |
|    \\/     M anipulation  |                                                 |
\*---------------------------------------------------------------------------*/
FoamFile
{
    version     2.0;
    format      ascii;
    class       surfaceVectorField;
    location    "300";
    object      Uf;
}
// * * * * * * * * * * * * * * * * * * * * * * * * * * * * * * * * * * * * * //

dimensions      [0 1 -1 0 0 0 0];


internalField   nonuniform List<vector> 
20642
(
(0.713056 -0.0115845 3.30133e-21)
(0.729728 -0.00937894 -5.97069e-21)
(0.732626 5.75175e-05 -1.006e-21)
(0.972817 0.0523275 3.24978e-23)
(0.972857 0.053996 0)
(0.974699 0.0532632 -3.9028e-22)
(1.03093 0.120548 -6.6881e-21)
(1.03132 0.11915 -3.70902e-21)
(1.0302 0.119356 -5.77754e-21)
(1.0348 0.029785 2.7602e-22)
(1.03431 0.0307534 -1.02678e-21)
(1.03367 0.029629 1.0829e-21)
(0.976914 -0.0197288 -2.46843e-22)
(0.974361 -0.0210561 -5.85356e-22)
(0.974583 -0.0178607 -6.77865e-22)
(0.973273 0.0500675 1.47756e-22)
(0.971238 0.0507021 1.01032e-22)
(1.05074 0.0574247 -9.91759e-21)
(1.04966 0.0561907 1.10735e-21)
(1.0493 0.0576624 2.94273e-21)
(0.975135 0.0730163 8.30811e-23)
(0.973401 0.0742675 4.65603e-23)
(0.976114 0.074969 0)
(1.07251 0.0440974 4.90812e-21)
(1.0712 0.0448159 -1.3454e-20)
(1.07266 0.0458867 4.25004e-21)
(0.000841821 -0.101006 -1.22305e-22)
(0.00982948 -0.109611 -1.06133e-22)
(0.977106 0.0719349 1.02192e-22)
(0.974616 0.0711215 7.34781e-22)
(1.01951 0.0237585 1.73203e-21)
(1.01958 0.0246455 1.42693e-21)
(1.02042 0.0241178 0)
(1.01107 0.000417653 -2.8475e-21)
(1.01145 0.000323287 2.0179e-21)
(0.98604 0.101921 -4.91004e-21)
(0.998927 0.1055 -4.5007e-23)
(0.990585 0.0982525 1.28672e-22)
(0.975548 0.0314681 3.49397e-23)
(0.974391 0.0328335 -1.90688e-23)
(0.97652 0.0332594 -1.86528e-22)
(0.695259 -0.013807 1.41604e-20)
(0.676217 -0.0237398 7.16e-22)
(1.00994 0.000374609 0)
(1.01009 0.000331471 0)
(1.00695 0.000162345 1.55895e-22)
(0.978935 0.0710952 3.29922e-23)
(0.980646 0.0701754 -1.52206e-23)
(0.978491 0.0692303 -4.22844e-22)
(1.04132 0.109952 5.39216e-22)
(1.04056 0.1106 -3.45102e-22)
(1.04026 0.109624 2.29857e-21)
(0.730596 0.0136652 -1.75433e-20)
(0.779652 0.0236467 -4.85825e-22)
(0.775052 0.0224625 5.22177e-22)
(1.00245 0.061424 1.32552e-21)
(1.0023 0.0627268 -1.16549e-21)
(1.00133 0.0618877 -9.01987e-22)
(0.994101 0.00247882 -4.70412e-22)
(0.994382 0.00339649 -2.28231e-22)
(0.993538 0.00308001 1.39499e-22)
(1.05081 0.0866782 -1.24798e-20)
(1.05213 0.0865868 -1.11385e-20)
(1.05111 0.088012 -1.6043e-21)
(0.993968 0.00123245 -2.15288e-22)
(0.994592 0.00171789 2.20405e-22)
(1.026 0.0413185 0)
(1.02655 0.0422502 1.74317e-21)
(1.02538 0.0419271 0)
(0.99772 0.0633106 -9.35015e-22)
(0.998846 0.0627929 9.82654e-22)
(0.997693 0.0619542 -9.84288e-22)
(0.992828 0.107392 7.98259e-22)
(0.995081 0.105616 -7.17348e-22)
(0.991977 0.103769 -4.84644e-22)
(0.0189532 -0.0937051 3.74853e-21)
(0.987729 0.0667485 -6.45149e-22)
(0.989174 0.0662871 -1.03503e-21)
(0.987719 0.0651296 -5.07761e-23)
(0.997379 -0.0113737 2.00746e-23)
(0.997912 -0.0122966 1.71478e-23)
(0.997977 -0.0114941 9.79367e-23)
(-0.0262846 -0.0778623 -5.33276e-22)
(-0.0018749 -0.0915255 1.56359e-20)
(1.06401 0.107481 1.1759e-20)
(1.06464 0.109082 2.91504e-21)
(1.06266 0.10814 -3.52096e-21)
(1.02604 0.032908 -7.32519e-21)
(1.02542 0.0320381 1.26447e-21)
(1.02648 0.0320728 -1.63235e-21)
(0.737776 0.0258911 1.56559e-21)
(0.762943 0.0338351 2.74155e-21)
(0.754815 0.0343901 -1.51851e-21)
(1.01959 -0.0210602 -4.60473e-23)
(1.02029 -0.0208927 -7.26597e-25)
(1.0205 -0.0220523 -1.60899e-22)
(0.971206 0.0747944 -4.74045e-23)
(0.972601 0.0771085 -1.41429e-21)
(1.00352 0.0406189 1.15585e-22)
(1.00436 0.0414858 -3.03887e-21)
(1.0031 0.0418649 -1.17365e-21)
(0.999049 -4.6911e-05 -2.25381e-22)
(1.00055 -3.42988e-05 2.18224e-22)
(0.998785 -6.50409e-05 -2.06058e-22)
(1.0517 0.0585957 -7.31933e-21)
(1.05204 0.0570701 -4.61012e-21)
(1.01278 0.070345 2.5483e-22)
(1.0129 0.071569 -9.29559e-23)
(1.01402 0.0707699 -4.24187e-21)
(0.999561 0.000124466 -3.6669e-23)
(0.9994 0.000116425 4.05723e-25)
(0.999598 0.000288538 3.54994e-25)
(1.05308 0.0107816 3.01794e-23)
(1.05588 0.0112823 4.60264e-22)
(1.05489 0.00908539 -3.71833e-22)
(1.06684 0.0361173 -4.5191e-21)
(1.06501 0.0366237 4.21039e-21)
(1.06564 0.0347776 9.38003e-21)
(1.04562 0.115526 -4.84289e-21)
(1.04649 0.116467 -8.49657e-21)
(1.04481 0.11664 -4.22819e-21)
(1.04638 0.114257 -5.26616e-21)
(1.04475 0.114277 4.60963e-21)
(1.02142 0.102517 3.50881e-21)
(1.02216 0.102459 -3.09415e-21)
(1.02159 0.103376 4.98086e-21)
(1.00274 0.0599849 8.67402e-22)
(1.00387 0.0608564 4.52172e-21)
(0.39649 0.0342324 -1.15105e-20)
(0.577609 0.055984 6.48609e-21)
(0.57462 0.0599897 0)
(0.937794 0.0783773 -7.52461e-22)
(0.938964 0.0808396 1.50078e-21)
(0.941621 0.0774442 1.33903e-22)
(1.01891 -0.0203979 8.34163e-24)
(1.01919 -0.0214996 7.70063e-24)
(1.01868 0.0235163 8.04189e-21)
(1.0194 0.0230119 -1.85352e-21)
(1.02899 0.100231 1.15703e-20)
(1.02809 0.100464 -5.30564e-21)
(1.02834 0.0994736 0)
(0.401549 -0.0178679 -6.14563e-21)
(0.498536 -0.011956 -7.30488e-21)
(0.392264 -0.0193853 2.34495e-21)
(1.0058 0.0207921 -2.27096e-22)
(1.00598 0.0200154 -3.39442e-21)
(1.00513 0.0201294 -3.28544e-21)
(1.00711 0.023008 -3.46767e-23)
(1.00716 0.0221968 7.95225e-23)
(1.00797 0.0226711 3.37381e-21)
(1.02967 0.100058 -9.28189e-22)
(1.02939 0.101019 4.39439e-21)
(0.233487 -0.0454935 -1.76797e-21)
(1.04947 0.0865005 0)
(1.05058 0.0851491 0)
(1.05044 0.0102842 1.34473e-22)
(1.05122 0.0123368 -3.02065e-22)
(1.0207 0.102539 5.07942e-22)
(1.02106 0.101701 1.57375e-21)
(0.855937 0.109054 -3.17901e-21)
(0.813767 0.103898 1.49908e-21)
(0.79555 0.10687 5.10115e-21)
(1.00866 -0.0311532 1.29827e-21)
(1.00958 -0.0272597 -1.38908e-22)
(1.01244 -0.0301877 -6.29889e-22)
(0.997381 -0.000241477 1.65993e-22)
(0.997213 -0.000296394 9.11876e-24)
(0.997431 -0.000450961 5.4091e-24)
(1.02672 0.0405424 2.96828e-21)
(1.02551 0.0403378 0)
(1.03919 0.102209 0)
(1.04064 0.102578 1.02734e-20)
(1.04038 0.100632 -7.27306e-21)
(0.948477 -0.0214706 -1.1523e-22)
(0.960595 -0.0254122 -2.81275e-21)
(0.959411 -0.0171237 6.74478e-22)
(0.986347 0.067339 8.44573e-23)
(0.984963 0.0679553 -5.30176e-22)
(0.984849 0.0662871 -2.65587e-22)
(0.970048 0.0726627 1.02746e-21)
(0.969072 0.0753711 -1.53985e-23)
(0.979396 0.0729264 -1.9403e-22)
(0.61899 -0.00220519 -2.03649e-21)
(0.608348 -0.00832267 4.71269e-22)
(0.597948 -0.00894397 1.42348e-21)
(1.02466 0.105479 2.37204e-22)
(1.02499 0.105844 -1.56197e-21)
(1.02764 0.104045 -6.37218e-21)
(0.723701 0.0197944 -3.73177e-22)
(0.716003 0.0205954 2.23247e-21)
(1.03444 0.0155609 -3.09268e-21)
(1.03532 0.0161227 -3.34357e-21)
(1.03413 0.0163155 -2.08664e-21)
(1.04804 0.00983844 -5.71558e-22)
(1.04964 0.00828165 3.2192e-22)
(1.00221 0.0640589 -3.49275e-21)
(1.00336 0.0635625 -3.62403e-21)
(1.01857 0.0435858 6.14519e-22)
(1.01903 0.0446153 -3.79832e-21)
(1.01772 0.0439983 1.32247e-21)
(0.981306 -0.00692004 -7.0061e-22)
(0.979976 -0.00704573 -6.7283e-22)
(0.980741 -0.00507645 -5.01211e-22)
(1.04582 0.00934657 -9.08176e-22)
(1.04637 0.0112303 -7.76178e-22)
(1.01953 0.0429471 -1.40488e-21)
(1.01812 0.0425399 6.45919e-22)
(1.02575 0.0334086 6.95349e-22)
(1.02666 0.0335429 -7.98391e-21)
(0.995088 0.0209205 -3.39252e-22)
(0.994538 0.0197506 1.21163e-21)
(0.995673 0.0198716 3.26721e-22)
(1.01119 0.000147994 0)
(1.01122 0.000185736 -4.05626e-23)
(1.00785 4.22461e-05 0)
(1.03479 0.0147452 6.21859e-21)
(1.03359 0.0149113 1.59858e-21)
(1.017 0.114213 -2.97756e-21)
(1.01507 0.114221 -5.80816e-22)
(1.01442 0.116195 2.70254e-21)
(1.00836 0.00306709 2.39888e-21)
(1.00836 0.00346903 -1.95213e-21)
(1.00795 0.00319304 -8.04467e-22)
(0.98735 0.0795539 0)
(0.988353 0.0802454 1.3555e-22)
(0.986908 0.0806683 5.55768e-23)
(1.06563 0.106488 0)
(1.06337 0.105876 0)
(1.0081 0.00171662 0)
(1.00773 0.00167315 -2.20457e-21)
(1.00729 0.00124735 -2.76584e-21)
(1.01287 0.0689656 0)
(1.01164 0.0697382 0)
(1.00944 0.000392125 0)
(1.01132 0.000561346 -8.84039e-23)
(1.01199 0.00120623 1.51652e-22)
(1.01147 0.00116778 2.87292e-22)
(1.01209 0.00151488 1.84597e-22)
(1.06775 0.0377126 5.22926e-21)
(0.936224 0.075758 0)
(0.937022 0.0783531 0)
(1.02391 -0.0179788 0)
(1.02523 -0.0186974 0)
(1.02472 -0.0174709 0)
(1.00319 0.0272955 2.10972e-21)
(1.00253 0.0263797 5.82384e-22)
(1.00215 0.0274202 -1.77902e-21)
(0.987804 0.0683378 3.44001e-22)
(0.986264 0.0906149 0)
(0.989464 0.0912639 1.00106e-23)
(0.98817 0.0886697 0)
(1.00958 -0.000436531 4.3357e-27)
(1.00937 -0.000466792 3.91813e-22)
(1.00613 -0.0002388 3.35009e-22)
(1.00839 0.00204225 2.74529e-21)
(1.00837 0.00169294 0)
(0.998966 0.0890589 4.81137e-22)
(0.999602 0.0872917 1.22823e-21)
(0.997969 0.0874748 -1.92302e-22)
(0.996921 0.000116891 1.28256e-22)
(0.997011 0.00014356 1.54428e-23)
(0.997451 5.86392e-05 4.56168e-23)
(0.996804 0.000112061 4.80894e-23)
(0.996812 0.000242101 -2.41978e-23)
(0.994641 0.0217804 -5.58537e-22)
(0.995724 0.0217924 4.03113e-22)
(1.01132 -0.000885975 1.31066e-22)
(1.01091 -0.000884827 5.84135e-22)
(1.00977 -0.000639093 -3.22567e-22)
(0.982886 -0.00685006 7.75925e-23)
(0.982197 -0.00884836 2.51511e-22)
(1.01657 0.178129 1.52715e-21)
(1.01681 0.174287 2.16883e-21)
(1.00611 0.177182 6.77422e-22)
(0.870389 0.0714651 0)
(0.862469 0.0661122 -9.46004e-21)
(0.850896 0.0645524 6.78341e-21)
(1.00868 -0.0354873 5.33865e-22)
(1.0045 -0.0330123 -4.86155e-22)
(1.05683 0.0137513 5.37108e-23)
(1.05898 0.0120527 6.78296e-22)
(0.990619 0.108889 -8.08053e-23)
(0.994466 0.111707 5.5035e-22)
(1.01991 0.00086782 -1.57991e-21)
(1.0201 0.00100676 3.2681e-21)
(0.792213 0.0429496 1.02848e-22)
(0.774537 0.0349333 1.35673e-21)
(0.990491 0.065789 -6.88172e-22)
(0.99047 0.0673247 1.12187e-21)
(1.03873 0.101797 0)
(1.03531 0.102789 0)
(1.01498 0.045699 -3.51696e-21)
(1.01565 0.04672 -2.93102e-21)
(1.0159 0.0452108 5.86089e-21)
(1.04205 0.108992 3.09818e-21)
(1.04246 0.110076 -5.38684e-21)
(1.00476 0.00112728 -1.05342e-22)
(1.00531 0.00158236 -9.45028e-23)
(1.00537 0.00128941 -2.80798e-23)
(1.03424 0.116872 -2.67338e-21)
(1.03394 0.11815 6.60277e-22)
(1.0354 0.11755 -2.6349e-21)
(1.03464 0.00960403 -2.68669e-21)
(1.03456 0.0104309 -1.02685e-21)
(1.03377 0.00970886 2.01964e-21)
(1.01312 0.000200087 2.42113e-22)
(1.01092 0.000108628 2.07743e-23)
(1.04432 0.00611268 0)
(1.0433 0.00472481 1.38578e-22)
(1.0421 0.00609648 0)
(0.983544 0.0685782 3.86221e-22)
(0.985112 0.0695382 -2.08777e-22)
(1.03805 0.102223 -3.08036e-21)
(1.03732 0.101707 3.20507e-22)
(1.03826 0.101267 -7.68868e-21)
(0.474078 -0.00499359 0)
(0.49648 0.00435113 0)
(0.487141 -0.00473493 0)
(1.01941 0.112699 5.6939e-22)
(1.0193 0.114814 -1.58613e-21)
(1.02731 0.0398606 2.82039e-21)
(1.02792 0.0391367 2.65267e-21)
(1.02684 0.0388985 2.43121e-21)
(1.00106 0.0645175 -1.14147e-21)
(1.00215 0.065359 3.35646e-22)
(1.00734 -0.0122748 3.52241e-22)
(1.00795 -0.0124644 -3.32896e-22)
(1.00742 -0.0116788 -4.39965e-22)
(1.03884 0.102566 -7.12694e-22)
(1.03798 0.102919 -4.24463e-21)
(1.07185 0.0704278 -5.43596e-21)
(1.07072 0.0715471 -6.60474e-23)
(1.07262 0.0717587 1.3724e-20)
(1.01581 0.0985054 1.94381e-21)
(1.01631 0.0978057 3.22778e-21)
(1.01645 0.0986172 2.20994e-21)
(0.844614 0.1332 -2.05643e-21)
(0.80359 0.125275 0)
(0.819006 0.124259 0)
(1.01396 0.0463458 -5.09e-21)
(1.01415 0.0447968 4.3996e-21)
(1.05892 0.112818 2.81617e-22)
(1.05705 0.112627 -7.30833e-21)
(1.05793 0.114544 -4.31506e-21)
(0.987283 0.109886 2.46493e-22)
(0.986987 0.105669 -3.00651e-22)
(0.761507 0.0883133 -1.27604e-22)
(0.840023 0.0941145 -2.21544e-21)
(0.854435 0.089755 -2.28058e-21)
(0.336082 0.00326873 0)
(0.324499 0.00305266 0)
(0.350491 0.0126178 -3.31782e-21)
(0.995346 0.0642596 -6.76833e-22)
(0.99666 0.0637786 0)
(0.995295 0.062924 7.49778e-22)
(0.999085 -2.55255e-05 0)
(0.724065 0.0668336 1.30693e-23)
(0.741245 0.0543066 -1.34881e-21)
(0.740233 0.0731711 -5.98236e-22)
(1.04521 0.00766929 -1.26337e-22)
(1.04369 0.00901639 9.5578e-22)
(1.01655 0.182964 -3.17516e-21)
(1.02102 0.178927 -3.87297e-21)
(1.00078 0.0035082 0)
(1.00089 0.00301816 2.27886e-22)
(1.00056 0.00295911 -1.10025e-21)
(1.03124 0.0146293 -5.10772e-21)
(1.03191 0.0152701 -3.99977e-22)
(1.03098 0.0154495 -1.10498e-20)
(1.0669 0.0275628 -1.59041e-22)
(1.0636 0.0284743 -1.36246e-23)
(1.06416 0.025301 -1.79734e-22)
(1.02294 0.106549 1.68848e-21)
(1.02454 0.105136 1.39817e-21)
(0.809329 -0.0838061 1.27709e-23)
(0.601807 0.0591931 -3.59441e-22)
(0.654244 0.065559 -7.24089e-21)
(0.473192 0.0287949 1.85692e-21)
(1.00644 0.0215437 1.91844e-21)
(1.00552 0.0217002 1.84226e-21)
(1.01294 0.0678052 0)
(1.01297 0.066618 0)
(1.01179 0.067183 -1.08662e-21)
(0.996556 4.5865e-05 -2.88613e-22)
(0.996547 5.90403e-05 -2.45901e-23)
(0.996406 6.99645e-05 6.08212e-24)
(1.03057 0.0140486 2.70946e-21)
(1.03142 0.0138204 2.80277e-21)
(0.984552 0.093333 0)
(0.983309 0.0895618 -3.53597e-22)
(0.993085 -0.00860722 0)
(0.992269 -0.00913727 -3.42352e-23)
(0.99314 -0.00989237 1.95718e-22)
(1.01174 -0.000938983 2.73037e-22)
(1.012 -0.00129061 -2.46883e-22)
(0.773066 0.12692 7.27842e-22)
(0.756616 0.125416 -1.79747e-21)
(0.733347 0.11762 -1.24136e-21)
(1.00205 0.00057614 -1.95961e-23)
(1.00174 0.000560783 -3.45013e-22)
(1.00096 0.000246034 -6.01593e-24)
(1.00413 0.000950213 3.7418e-23)
(1.00388 0.000720766 -2.60782e-23)
(1.00536 0.00534677 5.45485e-21)
(1.0053 0.00574659 1.07979e-21)
(1.00497 0.00528262 1.95914e-22)
(1.04661 0.115971 -1.93962e-21)
(1.04958 0.114939 3.32168e-21)
(1.03861 0.114108 0)
(0.993549 0.0444006 -6.46697e-23)
(0.994974 0.0441017 8.91621e-22)
(0.993665 0.0429544 -1.71244e-22)
(0.713949 0.0528991 1.20512e-21)
(0.906096 0.118466 -1.69538e-21)
(0.901304 0.117262 -9.25526e-21)
(0.931373 0.118653 -1.23774e-22)
(0.994974 0.0911947 -1.3068e-21)
(0.997022 0.0909032 2.00355e-22)
(0.995748 0.0894353 -5.48772e-22)
(0.410347 -0.0195131 2.25751e-21)
(0.693127 0.102834 9.83691e-21)
(0.785135 0.115117 3.02351e-21)
(0.710483 0.108417 8.24087e-21)
(0.999652 -0.00282808 6.09327e-23)
(0.999667 -0.00314704 -1.80535e-23)
(0.999977 -0.0030986 -8.20997e-25)
(0.994004 0.0646562 -5.73237e-22)
(0.995373 0.0655988 -1.03445e-21)
(0.99336 0.000558756 -3.92904e-22)
(0.992654 -0.00012546 2.21013e-22)
(0.992531 0.00116058 -4.65426e-22)
(0.892324 0.111556 1.4073e-21)
(0.890156 0.115773 7.06984e-22)
(0.854208 0.104866 -1.16731e-21)
(1.07254 0.0423816 1.93392e-20)
(0.929893 0.109923 7.04413e-21)
(0.894797 0.108935 -7.04159e-21)
(0.911909 0.106415 -5.37646e-21)
(1.02697 0.0903441 0)
(1.02775 0.0900606 -1.7603e-21)
(1.02744 0.0911608 -3.07909e-21)
(0.998208 0.000335549 5.99791e-26)
(0.998426 0.00052987 -1.69315e-25)
(0.998417 0.000313384 0)
(1.03588 0.0301083 1.21441e-21)
(1.03531 0.0290406 -3.04986e-22)
(1.02736 0.100779 2.94272e-21)
(1.02657 0.101142 1.46144e-20)
(1.02671 0.100178 1.13346e-22)
(1.07293 0.0689146 -5.91362e-21)
(1.07103 0.0688056 -5.47072e-21)
(0.99343 0.0458858 -2.99499e-22)
(0.992173 0.0446669 -1.13035e-22)
(1.06365 0.0369585 -6.268e-21)
(1.06256 0.0357309 4.72726e-21)
(1.06189 0.0374032 6.59323e-22)
(0.994088 8.36867e-05 -1.44838e-22)
(1.018 0.0232602 -3.54204e-23)
(1.01805 0.0240017 5.7539e-21)
(1.02958 0.106575 4.29269e-23)
(1.03026 0.106355 2.37687e-21)
(1.02981 0.107203 3.48131e-22)
(1.03449 0.115768 0)
(1.03321 0.116199 0)
(1.015 0.098403 -5.37507e-22)
(1.01527 0.0993663 -1.82332e-21)
(1.01787 0.022479 -5.78923e-21)
(1.0172 0.022965 -7.92551e-21)
(1.02865 0.106995 0)
(1.02892 0.105959 -1.4556e-21)
(0.996737 -0.0111409 1.45613e-23)
(0.997033 -0.0104301 0)
(0.986427 0.0785249 -1.58587e-22)
(0.988022 0.0784172 0)
(1.02612 0.0896371 2.57278e-21)
(1.02597 0.090816 0)
(1.04705 0.113088 -2.29363e-21)
(1.04804 0.114079 -1.64259e-20)
(1.03212 0.105217 4.71734e-21)
(1.03264 0.104925 0)
(1.03201 0.10451 -6.62994e-21)
(0.738051 -0.00648932 -1.37277e-21)
(0.75429 0.00452265 5.52549e-21)
(0.749694 -0.00270446 -5.07604e-22)
(1.02341 -0.0186171 -1.88996e-23)
(1.02307 -0.0174882 2.60214e-23)
(0.511617 -0.00297529 -3.17668e-21)
(0.520982 0.00531057 -2.98975e-21)
(0.498733 -0.00411102 0)
(1.02906 0.0545123 -1.63842e-21)
(1.0282 0.0552329 0)
(1.02802 0.0539548 1.85001e-21)
(0.88313 0.139391 6.0537e-22)
(0.870134 0.141037 -2.08887e-21)
(1.0213 -0.0208891 6.75057e-23)
(1.02024 -0.0199885 1.53664e-22)
(0.993865 -0.00812685 0)
(0.993102 -0.00730545 2.99117e-22)
(1.00427 0.0581179 -4.3411e-21)
(1.0054 0.0587482 -8.65113e-22)
(1.00528 0.0573347 -2.29332e-21)
(0.624215 -0.0101861 0)
(0.616247 -0.00902475 1.20426e-21)
(0.637109 -0.00315311 2.10454e-22)
(0.343765 0.00133113 -3.90767e-21)
(0.315497 -0.0068442 0)
(1.00013 0.0361609 -2.26865e-21)
(0.999863 0.037294 6.90104e-22)
(0.998934 0.0362951 -1.79576e-21)
(1.00082 0.108311 0)
(1.00246 0.105937 1.04319e-21)
(1.00345 0.108591 1.30527e-21)
(0.987852 0.057988 3.40572e-23)
(0.986568 0.0569942 -2.22007e-22)
(0.988176 0.0564002 -5.94165e-22)
(1.01405 0.0683608 -1.53098e-21)
(1.04656 0.00619481 1.52263e-22)
(1.02795 0.101379 -6.47137e-21)
(0.994201 0.0185457 0)
(0.993482 0.0194812 0)
(1.00866 -0.00847214 -1.20884e-22)
(1.00861 -0.00801488 5.26087e-22)
(1.00914 -0.00857328 0)
(0.972067 -0.0327088 9.43725e-22)
(0.975722 -0.031536 0)
(0.972158 -0.0291458 -4.48427e-22)
(0.971383 -0.0364252 -2.47309e-21)
(0.967203 -0.0338838 8.43081e-22)
(0.725769 0.0728456 -8.82299e-21)
(1.05983 0.111504 -2.04871e-21)
(1.06055 0.112983 -2.93866e-21)
(0.997774 0.06461 1.01207e-21)
(1.01212 0.0957984 1.37371e-20)
(1.01296 0.0974984 -7.39276e-21)
(1.03034 0.10037 1.35402e-20)
(1.00236 0.000234497 1.6119e-21)
(1.00146 0.000252229 1.66298e-21)
(1.00301 0.000311914 -1.82794e-21)
(1.0189 0.00988065 -1.17704e-22)
(1.01967 0.00999509 -1.58681e-22)
(1.01893 0.00924434 8.75301e-23)
(1.01881 0.0104857 1.76187e-23)
(1.01821 0.00978358 -1.11625e-22)
(0.674114 0.0961435 -1.50032e-20)
(1.03089 0.106042 4.42794e-21)
(1.03157 0.105558 6.58717e-21)
(1.03073 0.105293 1.91793e-21)
(1.02797 0.107399 0)
(1.0273 0.107857 8.08391e-21)
(1.02716 0.106757 0)
(1.01785 0.00342238 0)
(1.01805 0.00383882 -3.554e-21)
(1.01833 0.00343684 0)
(0.997588 -0.000222074 -6.88346e-24)
(0.997827 -0.000114492 4.50135e-24)
(0.987487 0.115269 0)
(0.983378 0.110793 0)
(0.522916 -0.00217877 -2.78771e-21)
(1.01756 0.00768843 2.70674e-22)
(1.01789 0.00814852 -3.10904e-22)
(1.0183 0.00782591 1.35422e-22)
(1.01726 0.00717176 1.26198e-22)
(1.01683 0.00751089 -3.57856e-22)
(0.999913 0.000276741 -1.88645e-22)
(0.999541 2.05529e-05 -6.58829e-24)
(1.01872 0.0111074 4.40025e-24)
(1.01953 0.0112951 -6.52212e-23)
(1.01856 0.0117811 -8.30361e-23)
(1.01804 0.0109979 -2.11175e-22)
(0.706416 0.010986 -2.41812e-21)
(0.723873 0.0164636 -3.04341e-21)
(0.808083 0.0860716 -5.10379e-21)
(0.807259 0.0886113 8.26931e-21)
(0.845285 0.0899088 1.1499e-22)
(0.993442 0.0111672 8.33438e-22)
(0.994029 0.0105496 6.58009e-22)
(0.994145 0.011604 1.61666e-21)
(0.999538 -0.00499947 0)
(0.999422 -0.00525964 0)
(0.999168 -0.00477788 -1.22739e-23)
(1.03369 0.0951218 -2.17594e-21)
(1.03283 0.094534 2.77037e-21)
(1.03378 0.0941989 -4.53977e-22)
(0.666784 0.0185392 8.61031e-22)
(0.656822 0.0109554 9.5095e-23)
(0.677283 0.0186637 9.88906e-23)
(1.00548 0.000778773 -1.43855e-22)
(1.00459 0.000521097 -5.20133e-23)
(1.00423 0.000503044 2.38427e-22)
(1.0174 0.00345839 5.37173e-21)
(1.01764 0.00307164 0)
(0.99757 0.107056 -4.28879e-22)
(0.999621 0.110602 -3.90758e-22)
(1.01498 0.186801 -4.7964e-23)
(1.01346 0.190908 -2.38645e-22)
(1.02242 0.188914 2.66439e-21)
(1.03106 0.106548 2.31156e-21)
(1.01359 0.0951046 -3.88206e-21)
(0.988859 0.0905007 1.85712e-20)
(1.02497 0.0950699 -4.09635e-21)
(1.02422 0.0945862 4.09398e-21)
(1.02417 0.0954772 0)
(1.00097 0.0039202 1.5424e-22)
(1.00065 0.00391386 1.21639e-21)
(0.848055 0.114657 -2.05157e-20)
(0.852799 0.116867 -1.0518e-20)
(1.03439 0.095853 0)
(1.03341 0.0961389 0)
(0.991665 0.0654283 -5.37828e-22)
(0.990362 0.0644688 -7.12036e-22)
(1.04792 0.102684 -4.17342e-21)
(1.0468 0.103148 -3.54116e-21)
(1.04788 0.104008 2.13565e-21)
(1.00037 0.0350657 7.07671e-22)
(1.00128 0.0359595 -2.12324e-21)
(0.825579 0.0829717 -1.25297e-20)
(1.03454 0.0111752 -3.93108e-21)
(1.03383 0.0112401 -5.03867e-21)
(1.03449 0.0119653 -4.07321e-21)
(1.02442 0.0760916 -3.01856e-21)
(1.02389 0.0766976 2.98417e-21)
(1.02503 0.076799 1.27149e-21)
(1.02833 0.089456 1.01031e-21)
(1.02913 0.088607 7.87992e-21)
(1.02792 0.0884202 3.14089e-21)
(0.991988 0.0101621 4.34543e-22)
(0.992798 0.0107203 -6.40019e-22)
(0.992554 0.00955389 0)
(0.99929 7.85998e-05 0)
(1.0278 0.0408158 -3.55801e-21)
(0.986293 -0.0225339 1.79241e-22)
(0.987259 -0.0210086 0)
(0.988287 -0.0227566 1.52124e-22)
(1.03115 -0.023279 -4.77515e-22)
(1.02993 -0.0238676 9.36581e-23)
(1.0315 -0.0248685 1.10438e-22)
(0.53952 0.0217433 3.2456e-23)
(0.529493 0.0135748 -2.14629e-21)
(0.516991 0.0133399 7.70494e-22)
(0.952858 0.101754 -3.09986e-21)
(0.954781 0.101691 -5.45613e-22)
(0.949735 0.0969287 9.45906e-22)
(1.04505 -0.00223307 1.72304e-22)
(1.04344 -0.0033215 2.97509e-22)
(1.04283 -0.00163366 9.30625e-23)
(1.01748 0.00666221 0)
(1.01689 0.00655077 0)
(0.991363 -0.00829943 -3.32134e-23)
(0.991435 -0.00966595 -1.22427e-22)
(1.01811 0.00677182 0)
(1.0176 0.00620582 -9.60869e-23)
(1.03543 0.0110992 3.12634e-21)
(1.01422 0.000679277 -2.81495e-21)
(1.01038 0.00039808 -2.09337e-21)
(1.04039 0.0752511 -7.51314e-21)
(1.04059 0.0765318 -2.50666e-21)
(1.03931 0.0761176 6.88456e-22)
(1.04669 -0.00110195 -2.99769e-23)
(1.04735 -0.00305967 1.28314e-22)
(0.301397 0.0117925 -8.58298e-21)
(0.324419 0.0215659 0)
(0.877095 0.0763541 1.31587e-21)
(0.89526 0.0785456 8.35262e-21)
(1.01403 0.0183129 -6.23323e-21)
(1.01461 0.0178518 8.87908e-21)
(1.01372 0.0175849 -2.97787e-21)
(0.987013 -0.0164027 2.3862e-22)
(0.985818 -0.0173007 -1.84559e-22)
(0.985342 -0.0154335 -1.853e-22)
(1.02031 0.102548 -1.58874e-22)
(1.02005 0.101788 1.26514e-21)
(1.0199 0.102434 -7.39455e-21)
(1.01016 0.0129193 9.09661e-23)
(1.00977 0.0134228 1.84338e-22)
(1.00955 0.0125404 4.03344e-22)
(1.00024 0.084964 -1.85381e-21)
(1.00042 0.0862126 4.20283e-22)
(1.00152 0.0851505 -8.12815e-22)
(0.563469 0.030704 -7.38044e-22)
(0.550565 0.0301573 -7.35424e-22)
(1.0105 0.0124572 -4.15903e-24)
(1.01082 0.0133451 3.00151e-23)
(0.638198 0.00467753 -1.42846e-21)
(0.627327 0.00427583 1.16612e-21)
(1.03228 -0.0224876 -2.33545e-23)
(1.0307 -0.0216736 -4.6966e-23)
(1.04563 0.115948 2.26665e-22)
(1.04588 0.117379 -6.7451e-21)
(0.998024 0.000310037 -9.56756e-24)
(0.998299 0.000139827 -2.12374e-24)
(0.977905 0.0289276 -6.5528e-23)
(0.977251 0.0270784 1.97944e-22)
(0.979108 0.0274989 1.46399e-22)
(0.991158 0.00984926 -6.76724e-22)
(0.991443 0.0109838 1.12539e-21)
(1.00053 0.00099769 -1.58035e-22)
(1.00072 0.000429805 1.77419e-21)
(1.00086 0.000962775 1.01014e-21)
(1.03581 0.108071 -3.16747e-22)
(1.03627 0.107949 0)
(1.03606 0.108504 0)
(1.0033 -0.0003419 -5.93015e-23)
(1.00297 -0.00031404 1.96904e-21)
(1.00099 -0.000162201 1.6043e-23)
(0.993024 0.0912578 -5.6386e-22)
(0.994335 0.093154 -1.02323e-21)
(1.02383 0.060453 -2.94369e-22)
(1.02292 0.0612087 1.04916e-21)
(1.02287 0.0598238 4.58676e-21)
(1.07 0.0266857 -1.3446e-21)
(1.06896 0.0304298 -2.63661e-22)
(1.00675 0.104196 -1.26378e-21)
(1.00446 0.104095 8.7121e-22)
(1.00563 0.101733 -1.81662e-21)
(0.290223 0.00260189 -2.79651e-21)
(1.00647 0.00107691 -1.24468e-22)
(1.00604 0.00106394 -3.12398e-23)
(1.04186 0.0883105 2.45612e-21)
(1.04214 0.0894328 -1.83172e-21)
(1.04313 0.0886314 2.22391e-21)
(0.982129 -0.0216804 5.70472e-22)
(0.984412 -0.0221376 8.37917e-22)
(0.983355 -0.0197305 6.49151e-22)
(1.01311 0.0468689 -6.32855e-21)
(1.01213 0.0473343 1.94815e-21)
(1.01232 0.045941 -2.98247e-21)
(0.979286 -0.0207684 -7.19812e-22)
(0.978958 -0.017836 -7.11811e-22)
(1.02032 0.0424163 4.01146e-21)
(1.02069 0.0434538 0)
(1.02644 -0.0193999 -2.25613e-23)
(1.02778 -0.0201271 1.23943e-22)
(1.02732 -0.0188102 -1.05427e-22)
(1.00482 -0.00057821 -6.57844e-22)
(1.00346 -0.000357756 -6.80535e-22)
(1.02522 0.099257 4.48701e-21)
(1.02523 0.10015 6.1123e-21)
(1.026 0.0996543 -2.66584e-21)
(0.994429 -0.0550458 1.19819e-21)
(0.996461 -0.0626469 6.86738e-22)
(1.00146 -0.0568653 -2.09855e-21)
(1.02524 0.075223 0)
(1.02393 0.0751769 3.55072e-21)
(1.02116 0.0418831 8.85164e-22)
(1.01995 0.0414956 3.70115e-22)
(1.01706 0.00342247 2.90474e-21)
(1.0169 0.00303233 -4.02327e-21)
(1.01664 0.00336997 -2.05921e-21)
(0.789925 0.126825 7.59299e-22)
(0.815169 0.134931 2.62204e-23)
(0.624998 -0.0149535 -8.55907e-23)
(0.59287 -0.0172825 0)
(1.00973 -0.012862 1.81101e-22)
(1.01034 -0.0129568 -3.14018e-22)
(1.00973 -0.0122415 -3.09281e-22)
(0.980637 0.0192921 -3.13616e-22)
(0.978356 0.0189445 -2.82667e-22)
(0.980067 0.0170663 1.96015e-22)
(1.01393 0.0477418 -4.3541e-21)
(0.899723 -0.0924175 4.22922e-22)
(0.915844 -0.093176 -7.858e-23)
(0.938736 -0.0866483 0)
(1.05192 0.13429 5.82865e-21)
(1.05034 0.135885 7.65323e-21)
(1.05319 0.136407 4.99722e-21)
(0.895014 0.0728249 3.07142e-21)
(0.875407 0.0653644 -7.13547e-21)
(0.870603 0.0657609 -1.75861e-20)
(0.942935 0.113762 3.44291e-21)
(0.959851 0.110264 4.70603e-21)
(0.965969 -0.0427241 3.19836e-21)
(0.962945 -0.0340625 -4.15651e-22)
(0.953177 -0.0413678 -5.60001e-22)
(1.01704 0.0971371 -4.29827e-22)
(1.01629 0.0967133 1.00262e-21)
(0.988063 -0.0155106 2.96687e-22)
(0.988497 -0.0171707 1.90912e-22)
(1.01485 0.114348 7.90173e-22)
(1.01591 0.11252 -2.84078e-21)
(0.852576 -0.0951685 -1.60559e-21)
(0.882405 -0.08801 1.86242e-21)
(1.03033 0.121901 -6.44651e-21)
(1.03165 0.121569 -5.26418e-21)
(1.01459 0.000712084 3.27071e-22)
(1.01044 0.000235686 1.63956e-21)
(0.976696 0.0302033 3.76519e-22)
(0.974728 0.0296394 5.67555e-22)
(0.99767 0.103783 -4.05766e-22)
(0.991937 -0.0034354 -2.69839e-22)
(0.992242 -0.00231436 -2.39728e-22)
(0.991332 -0.00259096 1.41612e-22)
(0.973347 0.055886 0)
(0.971382 0.0550755 0)
(1.04763 0.111913 1.57243e-20)
(1.04612 0.112043 7.24577e-21)
(1.00873 0.000471468 3.89225e-23)
(1.00803 0.000422698 -7.60807e-23)
(1.00589 0.000205004 0)
(0.918393 0.117558 -9.24084e-22)
(0.890317 0.107964 -1.38747e-22)
(1.00835 0.00233735 5.70238e-22)
(1.00834 0.00274048 2.30339e-21)
(1.00802 0.00246743 -4.75201e-21)
(1.0883 0.0849271 1.79914e-20)
(1.08953 0.0869348 -1.14862e-21)
(1.0025 0.0175379 4.59911e-23)
(1.00175 0.0168879 -6.39888e-23)
(1.00176 0.0179188 4.33531e-23)
(0.589176 0.00714407 -6.26677e-21)
(0.599992 -0.00360789 -1.05299e-20)
(1.00598 -0.00313641 3.91896e-22)
(1.00621 -0.00318503 8.64371e-22)
(1.00598 -0.00287757 1.46701e-21)
(1.02595 0.0746279 -5.11971e-21)
(1.02554 0.0736654 -3.19422e-21)
(1.02668 0.073944 -5.65193e-21)
(0.987798 0.0593081 -8.09958e-23)
(0.989325 0.0586432 2.10398e-22)
(0.97093 -0.0482103 2.57626e-22)
(0.97622 -0.0406003 -4.35855e-24)
(1.01041 0.00096381 1.19843e-22)
(1.0096 0.000648633 3.57512e-23)
(1.04877 0.104721 5.22348e-21)
(1.04976 0.105583 -5.87812e-21)
(1.05002 0.104225 0)
(1.01612 0.161225 -1.59343e-22)
(1.01401 0.158971 5.27928e-23)
(1.01459 0.156706 -1.53321e-22)
(1.00489 0.0268803 0)
(1.00399 0.0271362 0)
(1.00435 0.0259438 0)
(0.991723 -0.00455779 2.02856e-22)
(0.992616 -0.00421807 0)
(0.810419 0.0500673 -1.61858e-21)
(0.821296 0.0508059 1.03255e-21)
(1.01815 0.170014 0)
(1.01695 0.165571 0)
(1.0181 0.168622 -1.96796e-21)
(1.02838 0.119074 0)
(1.02673 0.117849 5.80105e-21)
(1.033 0.121156 0)
(0.983337 0.0972965 2.05063e-23)
(0.981 0.103002 7.81715e-23)
(1.01092 0.012017 -3.12149e-23)
(1.0102 0.0116209 -4.06858e-22)
(0.99526 0.0142247 2.40775e-21)
(0.995783 0.0135142 3.79404e-23)
(0.996035 0.0145023 1.25808e-21)
(1.01018 0.194861 -2.0643e-21)
(1.00723 0.198447 -4.82558e-22)
(1.02185 0.198067 2.51744e-22)
(1.01768 0.0966316 -1.09015e-21)
(1.0176 0.0976682 1.56966e-21)
(1.01166 0.0124659 3.80949e-23)
(1.0114 0.0116297 4.17213e-22)
(0.980631 -0.023677 1.17464e-22)
(1.01248 0.02233 -2.21931e-21)
(1.01256 0.0231542 3.79418e-21)
(1.01187 0.0225728 3.74291e-21)
(0.999249 0.0726749 -2.8332e-21)
(0.998242 0.0732682 -1.14331e-21)
(0.999389 0.0739173 4.98061e-22)
(1.02637 0.0754723 0)
(1.0334 0.103134 -1.96647e-22)
(1.03413 0.102849 -1.05656e-22)
(1.03351 0.102305 7.19236e-21)
(1.01924 0.0930245 -2.1168e-21)
(1.0191 0.0920667 2.81012e-21)
(1.0201 0.0924323 -1.63053e-21)
(1.00047 0.0835744 5.42782e-22)
(0.999124 0.0843992 -3.23217e-22)
(1.08219 0.084878 1.53953e-21)
(1.08041 0.0853258 1.42928e-20)
(1.08159 0.0869446 1.62992e-20)
(0.783092 0.0261985 1.30013e-22)
(0.763196 0.0171935 -4.45739e-21)
(0.772392 0.0244626 -2.73785e-21)
(1.00722 -0.0128637 2.89121e-22)
(1.00672 -0.0120386 1.96874e-22)
(1.00544 0.0278308 1.65495e-21)
(1.00577 0.026637 0)
(0.974031 -0.0231751 -7.51378e-23)
(0.97161 -0.0214425 8.87204e-22)
(1.03536 0.110037 6.8785e-21)
(1.03549 0.11059 -6.56119e-21)
(1.03468 0.110255 3.24899e-21)
(1.00539 0.000500241 2.02878e-23)
(1.00359 0.000216558 2.28797e-22)
(1.00586 0.0004857 1.53916e-23)
(0.712328 -0.014974 -8.16851e-21)
(1.08406 0.0847936 -1.29575e-20)
(1.0826 0.0832565 1.76571e-20)
(1.00127 0.0756443 -2.08426e-26)
(0.995123 0.0738088 6.83123e-23)
(1.00639 0.0233117 8.55315e-22)
(1.00721 0.023748 -9.65417e-23)
(1.01782 0.0953371 -4.34627e-22)
(1.01808 0.0961406 0)
(1.01871 0.0954274 0)
(0.98136 0.021549 -1.17544e-22)
(0.982596 0.0196401 1.91554e-22)
(0.934679 0.0737495 -6.33068e-22)
(0.932814 0.0716205 -8.84823e-22)
(0.933628 0.0741155 -6.43605e-22)
(1.04836 0.0185009 4.37456e-22)
(1.05025 0.0176195 4.66633e-22)
(1.04793 0.0166543 2.55623e-22)
(1.02859 0.107991 1.26462e-21)
(1.02065 0.103317 -3.39126e-21)
(0.986385 0.0604135 -1.85584e-22)
(0.987966 0.0610763 7.16689e-22)
(1.01349 0.0187071 -2.16155e-21)
(1.01438 0.0190164 -1.11485e-21)
(1.03319 0.108043 -1.65658e-22)
(1.0339 0.108205 6.33887e-22)
(1.03244 0.107511 1.24509e-20)
(1.00015 0.019709 1.02587e-22)
(0.999336 0.0188983 -3.28158e-23)
(1.00019 0.0185895 -8.84066e-23)
(0.909269 0.12024 8.58103e-21)