/*--------------------------------*- C++ -*----------------------------------*\
| =========                 |                                                 |
| \\      /  F ield         | OpenFOAM: The Open Source CFD Toolbox           |
|  \\    /   O peration     | Version:  v2012                                 |
|   \\  /    A nd           | Website:  www.openfoam.com                      |
|    \\/     M anipulation  |                                                 |
\*---------------------------------------------------------------------------*/
FoamFile
{
    version     2.0;
    format      ascii;
    class       volScalarField;
    location    "850";
    object      nut;
}
// * * * * * * * * * * * * * * * * * * * * * * * * * * * * * * * * * * * * * //

dimensions      [0 2 -1 0 0 0 0];


internalField   nonuniform List<scalar> 
13851
(
0.000347837
0.00104574
0.00111778
0.00356115
0.00672248
0.000842957
0.00178302
0.00676191
0.0109561
0.00619487
0.000253506
0.00672632
0.00282694
0.00624838
0.000616462
0.000707451
0.00189417
0.00321913
0.000136158
0.000406317
0.000539174
0.000606028
0.00207443
0.00672546
0.0124256
0.000830962
0.000457376
0.0103752
0.00690303
0.00674801
0.0099014
0.00209961
0.000441557
0.0142865
0.000329855
0.00578178
0.0067258
0.00836214
0.0169696
0.00239964
0.0167482
0.00622765
0.000156692
0.000250853
0.00628109
0.00457078
0.00673354
0.000558222
0.00110387
0.00255315
0.0031012
0.00257348
0.000695007
0.00117629
0.00599679
0.00240538
0.000376996
0.0174353
0.000487397
0.00543039
0.00672615
0.000498066
0.00672766
0.000992235
4.93973e-05
4.17969e-05
0.00292447
7.67288e-05
0.00222833
0.00554083
0.00899673
0.000448805
0.00328984
0.0041124
0.000989816
0.000851244
0.00301514
0.00673536
0.0119921
0.00673922
0.00201152
0.00069774
0.000330205
0.00676142
0.00599678
0.00975953
0.000628014
0.0030884
0.00550292
0.00978088
0.0019109
0.00179269
0.000214
0.00865149
0.0159782
8.37381e-05
0.00499529
0.000651875
0.00369186
0.000226595
0.000608515
0.000152538
0.000129216
0.00272952
0.00513351
0.000373554
0.004269
0.00960769
0.00181593
0.00330712
0.00037396
0.00495059
0.000447545
0.000292195
0.000431169
0.00122909
0.00673189
0.00675139
0.00292545
0.00634474
9.80699e-05
0.00456579
0.00192786
0.0132538
0.000307285
4.95168e-05
0.00465016
0.000224393
0.0159624
0.000487448
0.000615368
0.000526433
0.00691733
0.0145256
0.000283408
0.0157079
8.80422e-05
0.00947716
0.000201348
0.000584194
0.00050859
0.00131985
0.00542933
5.58447e-05
0.0130024
0.00103759
0.00673423
0.00878901
0.00951996
0.000215211
0.000566678
0.000394173
0.000295726
0.000652825
0.00179218
0.00365496
0.00672525
0.0160898
0.000594596
0.00174283
0.00672501
0.00668808
0.000420246
0.000585344
0.00640534
0.0104947
0.0092376
0.00439622
0.000401252
0.0154571
0.00672602
0.00672937
0.000357559
0.00672243
0.0168747
0.000413417
0.000505225
0.00673022
0.00103941
0.000542866
0.00055484
0.000164319
0.000427076
0.000571929
0.000169966
0.00953258
0.000430674
0.00031964
0.00217753
0.00579935
0.0126989
0.000599405
0.00340157
0.000775711
0.000961742
0.00064811
0.000381143
0.0026213
0.00215328
8.41272e-05
0.000532569
0.0173173
0.0178533
0.000681039
6.507e-05
0.0163267
0.000919488
0.000726675
0.0110187
0.000774786
0.000746359
0.00258421
0.000617576
0.00672583
0.000352916
0.000770999
0.00279083
0.000555399
0.00234011
3.15445e-05
0.00672909
0.000388239
0.0042836
0.016225
0.000342435
0.000642604
0.00672602
6.43193e-05
0.00673095
0.000321986
0.00547572
0.000342475
0.000835197
0.00672577
0.0174725
0.00674919
0.00143982
0.017819
0.000200795
0.00672526
0.000335167
0.00640311
0.00534676
0.000753115
0.000618478
4.79513e-05
0.000464503
0.00102311
9.91901e-05
0.000365778
0.00398077
0.0003653
0.00674083
0.000854389
0.000643778
0.00747143
0.00438791
0.00657698
5.07004e-05
0.00573284
0.000443378
0.000630693
0.000977727
0.000447546
0.000320173
0.0037857
0.000140772
0.000546251
0.00662065
0.00672839
0.00287377
0.000349587
0.0100784
0.00144359
0.000509796
0.00422604
0.000371475
0.000662823
0.000435423
0.00045222
0.0104796
0.00356412
0.000758058
0.000730753
0.0072226
0.00451762
0.00672492
0.000393184
0.000260483
0.00675402
0.00672574
0.00673183
0.00672342
0.000667
0.00672517
0.0102488
0.000531574
0.00318164
0.00652198
0.0124598
0.00228169
0.00036648
0.00312119
0.00117343
0.00200614
0.000494119
0.00554037
0.0152789
0.000366081
0.00672146
0.0160792
0.00672616
0.000322811
0.00482351
0.0057933
0.00170002
0.00652299
0.00388127
0.0111571
0.00039483
0.000131109
0.0169957
0.0147704
0.00978715
0.00200775
0.00371247
0.000346639
3.00101e-05
2.97902e-05
0.000724554
0.000368971
0.000339659
0.0035621
0.00011156
0.00672294
0.006723
0.000595491
0.0102373
2.91282e-05
0.00447412
0.0155458
0.000335067
0.00048603
0.00157192
0.00370444
0.000579623
0.000656205
0.000839742
0.000900669
0.0058174
0.00204709
0.000412236
0.000829622
0.000458002
0.000320199
0.00549015
0.00282144
0.000317555
0.00027094
0.000385768
0.0058522
0.00496373
0.000836601
0.0174293
0.00048651
0.00676439
0.00599449
0.000372244
0.00523424
0.000620532
0.00099204
0.000507642
0.00978311
0.000301296
0.00466929
0.00164061
0.000360929
0.000435315
0.000632657
0.00582984
0.000573074
0.0183544
0.000801837
0.00114597
0.000392057
0.000460556
0.00374246
0.000866395
0.000240028
0.000984576
0.00429295
0.00047475
0.0116572
0.00325689
0.000595787
0.00181183
0.00100956
0.000782142
0.000806011
0.0152923
0.000688105
0.000842973
9.16772e-05
0.000361401
0.00043165
0.00340415
0.00416133
0.000324741
0.00405548
0.000344959
0.000502216
0.000917325
0.00447149
0.000184375
0.013048
0.0111818
0.000900071
0.000352542
0.000482695
0.00164254
0.00673741
0.00208466
0.000447507
0.00151837
0.000323574
0.0128313
0.00367814
0.00672295
0.00448287
0.000458052
0.00536918
0.00110104
0.00061368
0.00673035
0.0123844
0.000337816
0.000437621
0.00116701
0.00150419
0.00221282
0.00891606
0.00305527
0.00240571
0.000311313
0.0117315
0.000631478
0.000524373
0.00672693
0.00672479
0.000967886
0.000372389
0.00096322
0.00392119
0.0014216
0.000108665
0.00141265
0.0138112
0.00672595
0.00114153
0.00604806
0.000232754
0.00672248
0.00672619
0.00125048
0.00249995
0.000368885
0.000783283
0.000608416
1.67846e-05
0.000994787
0.00672864
0.0136643
0.000540176
0.000210929
0.00292532
0.014259
0.000223258
0.000145973
0.00262126
0.000496252
0.000312565
0.000849662
0.0154423
0.000449853
0.0104487
0.000774554
0.000424334
0.00377637
0.0078439
0.000911397
0.000397348
0.000560352
0.000861282
0.000221072
0.000347399
0.00672197
0.0015563
0.0142529
0.012361
0.00107533
0.000926882
0.00646125
0.000387384
0.000383905
0.00672616
0.000948389
0.00625466
0.0050339
0.000309685
0.0175252
0.00119078
0.00132543
0.000117625
0.000391118
0.00571975
0.0134774
0.00548092
0.0141517
0.000332361
0.00640197
0.00150299
0.000462319
0.00707765
0.00675271
0.0103112
0.00212943
0.0062201
0.0139329
0.00014021
0.000382288
0.000882148
0.000424042
0.00549732
0.0057679
0.000585851
0.00229331
0.00426957
0.000566651
0.01847
0.000477549
0.000944281
0.00593024
0.000783805
0.0145734
0.0162569
0.00468802
0.00341737
0.00432558
0.00209497
0.000412592
0.0014556
0.00673755
0.000819616
0.0145032
0.000508589
0.0135884
0.00122608
0.00569447
0.00910785
0.00672642
0.000345073
0.001063
0.000940648
0.000609016
0.00423302
0.00513338
0.000867496
0.00196597
0.00180001
0.000307814
0.00591916
0.008235
0.00219207
0.00416187
0.000127097
0.0140069
0.000679394
0.000708955
0.000795653
0.00125717
0.000736884
0.00525308
0.0137938
8.53382e-05
0.0156476
0.00043324
0.00479549
0.00162354
0.000505025
0.0110098
0.00672775
0.000539636
0.0175843
0.000394775
0.000551262
0.0026349
1.40307e-05
0.000172156
0.00365378
0.0033745
0.00672311
0.000450383
0.000374266
0.00672564
0.0167955
0.00672305
0.000464874
0.000764194
0.00088275
0.00275086
0.00513195
0.000249758
0.00322872
0.000420573
0.0152012
0.000514337
0.00673153
0.00564906
0.000350519
0.00145879
0.000314625
0.0011171
0.000234239
0.000512976
0.00672632
0.00297909
0.00672589
0.000871504
0.00257951
0.00680582
0.00035534
0.00338308
0.000109818
0.000278946
0.019871
0.00393176
0.014704
0.000341677
0.000587667
0.00144932
0.00989525
0.00669402
0.000280755
0.00275321
0.00538211
0.00353168
0.00199849
7.16019e-05
0.0129328
0.00672613
0.00672617
0.000793003
0.00206663
0.000472597
0.00177913
0.000385061
0.00147776
0.0047849
0.000530712
0.000366309
0.000256022
0.00673051
0.000501381
0.000148343
0.000864063
0.00128671
0.00100358
0.000177191
0.000452931
0.000569158
0.00047158
0.000472894
9.89378e-05
0.00010105
0.0003322
0.00604562
0.00949529
0.000581427
0.00966159
0.000239616
0.000529971
0.000376798
0.00352823
0.000753153
0.000540418
0.00058039
0.00673744
0.00673602
0.000791816
0.00392857
0.00113484
0.017331
0.00673234
0.000441631
6.87738e-05
0.00279733
0.000287539
0.000753732
0.00116413
0.00379861
0.000251073
0.000256335
0.000485657
0.0017029
0.00133224
0.000791004
0.000446245
0.000531715
0.000690627
0.00378406
0.00672588
0.000890175
0.00486853
0.00627295
0.00672288
0.000576198
0.0101746
0.000265887
0.016753
0.00456996
0.000456846
0.000387858
0.000382002
0.00672489
0.00315202
0.00673407
0.00488212
0.00672259
0.000309042
0.000415258
0.000134573
0.00868601
0.00100617
0.0113541
0.00672647
0.00443551
0.000347365
0.00672625
0.00672551
0.00718723
0.000800842
0.000424121
0.0166021
0.000532289
0.000375395
0.00678163
0.0134719
0.000718625
0.00118191
0.000511628
0.00672511
0.0012887
0.0042262
0.000811931
0.00444728
0.000566804
0.000520961
0.000430158
0.0152621
0.000323554
0.000503054
0.00535154
0.00673268
0.00568501
0.00672416
0.00142388
0.0119994
0.000514799
0.0004507
0.000240476
0.00041515
0.00672564
0.0067264
0.000322874
0.0016211
0.00672566
0.00114105
0.000416542
0.00672364
0.000226463
0.000474653
0.000317076
0.000243609
0.00904783
0.000194321
0.00672494
0.000277714
0.006733
0.00085774
0.00528156
0.00463479
0.0174958
0.00436917
0.00196052
0.00224659
0.000115452
0.00107982
0.00465655
0.00180652
0.000412822
0.00652011
0.000822641
0.000541343
0.00429247
0.00674903
0.00263588
0.000359507
0.0013081
0.00672569
0.000455185
0.000512396
0.0176531
0.00184338
0.00672403
0.00327678
0.00143579
0.000569372
0.00672913
0.0179279
0.00676542
0.00315913
0.00673018
0.000188073
0.000562522
0.000102283
0.000540198
0.0032214
0.00104581
0.00672274
0.000603923
0.00132557
0.00599349
0.00190341
0.00552604
0.0124597
0.00054837
0.00672213
0.00239734
0.00135613
0.000784103
0.000563458
0.0031905
0.00290776
0.00332553
0.000491419
0.00672841
0.00672277
0.000337344
0.000619701
0.00672644
0.00111582
0.0170577
7.86142e-05
0.0146852
0.00647322
0.0105864
0.00672924
0.00672324
0.00191523
0.00671685
0.00672634
0.0155725
0.00714136
0.00221617
0.00672302
0.00046126
0.00441823
0.00336413
0.000294908
0.00772821
0.0172846
0.00123441
0.000600411
0.00672808
0.000540096
8.03236e-05
0.00418379
0.0067244
0.000716762
0.00373933
0.000408211
0.000421478
0.000467545
0.00672753
0.000430132
0.000508046
0.00241315
0.000660886
0.000495281
0.000347984
0.00672551
0.00392592
0.00489633
0.00646391
0.0118071
0.000623936
0.000835798
4.73187e-05
0.00234281
0.000915279
0.000622242
0.00672337
0.0177242
0.0010623
0.0067219
0.00234382
0.00120776
0.0172165
0.000454158
0.00673926
0.000412188
0.00587378
0.0011294
0.000418163
0.000934432
0.000470494
0.0179168
0.00672541
0.000685686
0.000473395
0.000520606
3.09929e-05
0.00123541
0.000612351
0.000853553
0.0175029
0.00284287
0.00539289
0.000642072
0.0106431
0.00247429
0.00355548
0.000579301
0.00321046
0.00180155
0.00672621
0.00115829
0.00672651
0.0158064
0.000450878
0.000391239
0.00042359
0.000859036
0.00674798
0.00161066
0.000595277
0.00153794
0.000576384
0.0200748
0.000646281
0.000691783
0.000240714
0.0141684
0.00125408
0.0110658
0.00673093
0.000338154
0.00128158
0.00312062
0.000266721
0.00672923
0.00673851
0.000128426
0.00332151
0.000436658
0.00147482
0.000458397
0.00483917
0.000551272
0.000531763
0.00260641
0.0158446
0.000384401
0.00672568
0.000539896
0.00139506
0.0119597
0.00105489
0.000137569
0.005933
0.00127876
0.000189474
0.00225552
0.00457319
0.00444384
0.00058084
0.000445906
0.0067322
0.00481778
0.000358205
0.00361932
0.00395639
0.000346564
0.0067262
0.000505654
0.000425712
0.00412602
0.0189356
0.0025987
0.000443066
0.00131204
0.00414038
0.000350339
0.00672575
0.00436532
0.000511032
0.00441781
0.00526059
0.00100426
0.00108238
0.010473
0.0102304
0.000821933
0.00935723
0.000837351
0.00445658
6.35169e-05
0.00673492
0.00277427
0.00444355
0.00672263
0.000886756
0.00162165
0.00997495
0.00358884
0.000549259
0.0048769
0.0168755
0.000352281
0.00318913
0.00162758
0.000627025
0.00452873
0.00677391
0.000335009
0.0128384
0.000917418
0.0067342
0.000356547
0.000543397
0.000375384
0.000342513
0.00669924
0.0067358
0.00166924
0.0097866
0.00125712
0.0153269
0.00102257
0.00672406
0.0042787
0.00524899
0.000756654
0.000471198
0.00431886
0.00779742
0.000333093
0.00672916
0.000865743
0.00245811
0.014139
0.00866167
0.00029696
0.00459071
0.0067012
0.0083686
0.000802495
0.000694874
0.0118126
0.000673242
0.000272932
9.94311e-05
0.000316129
0.00161036
6.88938e-05
0.0042382
0.00456912
0.0106042
0.00673117
0.000778942
0.000210304
0.000525507
0.000621107
0.00672344
0.000982508
0.000968879
0.0011841
4.33019e-05
0.00672614
0.00157378
0.00435849
0.00380498
0.000736192
0.00107206
0.00672753
0.00559358
0.000751283
0.016411
0.00703994
0.00672897
0.000777343
0.000649904
0.0018266
0.000536786
0.00065686
0.00672588
0.000592864
0.000539582
0.00713068
0.000555135
0.00408566
0.00102684
0.00109225
0.000118451
0.000356796
0.000332782
0.00499871
0.000544818
0.0119307
0.00141132
0.00792131
0.00514323
0.00992491
0.00977704
0.00477784
0.00593457
0.00304468
0.000676542
0.000909437
0.000345597
0.00148999
0.00286616
0.00672203
0.00573899
0.000785299
0.00673386
0.000971864
0.000918626
0.000567002
0.00112713
0.00673195
0.00672841
0.00338572
0.00672325
0.000240832
0.000562538
0.00028603
0.0119168
0.00673561
0.00446271
0.0156267
0.0126572
0.00336609
0.000395905
0.000128965
0.000474377
0.00673086
0.000160164
0.00113634
0.00672942
0.00159702
0.00439176
0.00159184
0.000348604
0.004605
0.00250015
0.00334736
0.000480516
0.000408618
0.00672607
0.000467323
0.00313547
0.000653421
0.00672579
0.00227435
0.00078149
7.30719e-05
0.00229315
0.000504169
0.0092206
0.000777554
0.0134472
0.00385787
0.00343276
0.000210984
0.00673197
0.0102247
0.0019011
0.000150496
0.00202621
0.00333107
0.00672539
0.00543694
0.00168062
0.000404158
0.000439613
0.00215373
0.00672705
8.7598e-05
0.00676885
0.0134852
0.00672547
0.000566151
0.00094524
0.00767702
0.00760394
0.00672647
0.000411618
0.00672791
0.00123213
0.000178865
0.000469311
0.000620264
0.00672605
0.000607423
7.89095e-05
0.000472798
0.00276496
0.000251754
0.000362351
0.000692301
0.000463945
0.00104044
0.00445131
0.000348537
0.0018146
0.00083255
0.00672594
0.000447112
0.00673423
0.000497563
0.00673387
0.000174298
0.00859251
0.00673292
0.00194587
0.000807789
0.00672414
0.000528694
0.00672255
0.000166155
0.00715001
0.000491338
0.000270199
0.00672571
0.006726
0.000142405
0.00672614
0.00672544
0.00114742
0.000669919
0.000426199
0.000177969
0.00254011
0.000346444
0.00476243
0.00672824
0.00672618
0.00673161
0.00103413
0.00441804
0.000951817
0.000579135
0.00673346
0.00672589
0.0091325
0.00672565
0.000597164
0.00155576
0.00857231
0.000581516
0.000119364
0.00226154
0.000264457
6.27612e-05
0.00201104
0.000546656
0.000615472
0.00470297
0.00485927
0.000944249
0.000664762
0.00351247
0.000251368
0.00672976
0.00119554
0.000363865
0.00308547
0.000107785
0.001671
0.000124627
0.00788677
0.00560465
0.00672634
0.00102484
8.34246e-05
0.00244981
0.000387292
0.0042417
0.00770935
0.00108033
0.000676038
0.0012781
0.000409467
0.00672641
0.000246153
0.0123941
0.00210853
0.00676395
0.0125854
0.00035992
0.000496876
0.012474
0.000755019
0.00152885
0.00672982
0.00202196
0.0060913
0.00949223
0.0113834
0.000280554
0.00391244
0.00982837
0.00672696
0.000401343
0.000460079
0.00185531
0.000494103
0.00672928
0.0198659
0.0169787
0.00678671
0.000400154
0.000896214
0.00383473
0.000375212
0.000779789
0.000511927
0.000917528
0.000721222
0.000728379
0.00672695
0.000824858
8.05291e-05
0.000414261
0.00672947
0.000477539
0.000367302
0.000884168
0.0067261
0.0167217
0.000966625
0.000815674
0.00480106
0.000328445
0.000383533
0.000122406
0.00672551
0.00133235
0.000232746
0.000177169
0.00026486
0.0067261
0.00127838
0.000884618
0.000634958
0.00672636
0.000203141
0.00637594
0.000237608
0.0066411
0.00113261
0.0033086
0.000589154
0.00438681
0.00640559
0.00672487
0.000720733
0.00079707
0.000556374
0.000311386
0.000765658
0.000245422
0.000259949
0.000555091
0.000828523
0.00673268
7.99256e-05
0.00109265
0.000377206
0.00616116
0.000646639
0.000394966
0.00673776
0.00529032
0.000204085
0.00264237
0.00110106
0.000958971
0.00542135
0.000341106
0.000902722
0.00566939
0.00137799
0.000662971
0.00033067
0.000651
0.00673693
3.49765e-05
0.00677372
0.000454935
0.00737199
0.005132
0.000899263
0.00107687
0.00672628
0.00393441
0.00673674
0.000583935
0.000593491
0.000593121
0.0169761
0.00155426
0.00672177
0.000530899
0.000142966
0.00673319
0.00822321
0.00673017
0.000853561
0.00106628
0.00203112
0.000531909
0.000941067
0.00394661
0.000367898
0.000588316
0.000547549
0.000272413
0.0067338
0.00467584
0.004128
0.00672266
0.000497072
0.000634457
0.000347387
0.00964617
0.00672287
0.00128085
0.000417771
0.0115986
0.00673125
0.00672427
0.000433262
0.000612611
0.00672243
0.000330745
0.000330951
0.00513615
0.000361185
0.000446266
0.000492321
0.00672922
4.95684e-05
0.00672761
0.00446514
0.000529494
0.00651925
0.00134591
0.000275
0.00672381
0.00249176
0.000374774
0.00272691
0.00253817
0.00511937
0.00672529
0.00672901
0.000345218
0.00672885
0.00433322
0.0168902
0.00672632
0.00051987
0.000538859
0.0126542
0.00398468
0.00483172
0.000748075
0.000395755
0.00672478
0.00337946
0.00672801
0.000776197
0.00672617
0.000820793
0.000449503
0.00676495
0.00677322
0.000575084
0.000404299
0.000508007
0.000137308
0.000270615
0.000944613
0.0100056
0.000186249
0.00128211
0.000686449
0.000176268
0.000287799
0.00114118
0.0010875
0.00631145
0.00569466
0.00449014
0.00113789
0.00316144
0.00040695
0.000226909
0.00514774
0.00251572
8.59848e-05
0.00672566
0.00179464
0.00672931
0.00673222
0.00167629
0.00278746
0.00278724
0.00672184
0.0102961
0.00672491
0.000128275
0.0015965
0.000439245
0.000145098
0.00302393
0.00761281
0.000728487
0.00672617
0.00065683
0.00513982
0.00033449
0.00323804
0.00347717
0.000824024
0.000453272
5.72374e-05
0.00634767
0.000451469
0.00078176
0.00547858
0.000238599
0.00268792
0.00153853
9.6529e-05
0.000325822
0.0030789
0.00675687
0.00640759
0.002234
6.84541e-05
0.0117223
0.000383871
0.000691492
0.000666858
0.000595156
0.000685621
0.0181027
0.000505792
0.0067229
0.000237331
0.000369162
0.00107027
0.00673483
0.0067236
0.0168053
0.00672632
0.000489721
0.0127145
0.000552525
0.00394471
0.000235901
0.000729126
0.00596352
0.00672281
0.00442178
0.00673058
0.000519829
0.00180096
0.00255975
0.000517675
0.0132469
0.00458772
0.00672678
0.010686
0.00300247
0.00212805
0.00212589
0.0170604
0.00471573
0.000735007
0.00672849
0.00707551
0.012206
0.000369882
0.000101003
0.000437123
0.00367597
0.00672625
0.00349131
0.00672278
0.0005906
0.00675933
0.00106958
0.0067262
0.0120346
0.00673124
0.000733895
0.00676161
0.000207464
0.000328687
0.00560354
0.00022483
0.0177398
0.00047987
0.000321523
0.000693161
0.000321909
0.000914919
0.000569757
0.000317612
0.00851644
0.00327519
0.0010736
0.000384222
0.00296829
0.00588993
0.00697229
0.000420487
0.000398487
0.00057618
0.000394753
0.00888229
0.00535763
0.005961
0.000264769
0.0168075
0.000661003
0.000368966
0.00333863
0.0067321
0.0166499
0.00874348
0.0119191
0.00672453
0.00534575
0.00941814
0.000340272
8.09543e-05
0.0122844
0.000553233
0.000539299
0.000395995
0.000558286
0.00343325
0.00503102
0.00039766
0.00673112
0.00800218
0.00672606
0.00047131
0.00054244
0.000477422
0.0096274
0.000260109
0.00165747
0.000812546
0.000491675
0.00430159
0.0189632
0.000366038
0.00165197
0.000558215
0.000319811
0.000144749
0.00672788
0.000366056
0.000114834
0.000338809
0.00362326
0.000502154
0.000775112
0.000244311
0.000583005
0.000654168
0.00102015
0.000157415
0.00666866
0.00218791
0.00123406
0.0122765
0.000491354
0.000880137
0.000965425
0.00672728
0.000171026
0.00128983
0.0055568
0.000295245
0.00145286
0.0067247
8.15088e-05
0.000449013
0.000581289
0.00429181
0.00556073
0.00673093
0.000528692
0.00672528
0.00103392
0.00116025
0.00135053
0.000527344
0.00469828
0.000757236
0.00224317
0.000713827
0.00783743
0.0067259
0.0122693
0.00128643
0.00672846
3.63208e-05
0.00018455
0.000195771
0.00119516
0.000400868
0.000794396
7.57753e-05
0.000709897
0.00128123
0.00672445
0.0030463
0.00150528
0.000304234
0.00134768
0.00474736
0.00673003
0.000171495
0.00475897
0.00044704
0.000600995
0.000158251
0.0067366
0.000145835
0.00822426
0.0126912
0.00673123
0.000294374
2.79688e-05
0.00868392
0.00992468
0.00143573
0.00175227
0.00024011
0.0024404
0.000463573
0.000544254
0.000489374
0.00672467
0.00440724
0.000264794
0.00672604
0.00253139
0.000360291
0.00672611
6.5816e-05
0.0046128
0.0187137
0.00978837
0.00707395
0.000731407
0.0115472
0.00247598
0.00672674
0.0173564
0.00631586
0.00525122
0.00673008
0.000159716
0.0140145
0.00358443
0.000431506
0.0030935
0.00111695
0.000268948
0.00587813
0.00672264
0.000639842
0.0189226
0.00672616
0.0067253
0.00906514
0.000595005
0.00195196
0.00673348
0.0128358
0.0113104
0.00296696
0.000442261
0.00672601
0.0131927
0.000161267
0.00217234
0.00449054
0.00186957
0.0120934
0.00514738
0.00306699
0.00672624
0.00672615
0.0123911
0.00430811
0.000197276
0.000590756
0.00243041
0.00148433
0.00026001
0.00089512
0.000367943
0.0160589
0.0126407
0.00672039
0.00102568
0.000963373
0.000854878
0.00617375
0.00672862
0.00462952
0.000347849
0.000670978
0.00112942
0.00672311
0.000503436
0.000393926
0.00367472
0.0067259
0.000286408
0.00176988
0.000392002
0.00117511
0.0136179
0.00291495
0.000252117
0.000764072
0.00377379
0.000795941
0.000398723
4.92683e-05
0.00985157
0.0180523
0.00672364
0.000523973
7.37226e-05
0.0186314
0.00154672
0.000374747
0.000438436
0.00244263
0.0127061
0.00672846
0.000603685
0.00651106
0.0184323
0.00222821
0.0151879
0.000477808
0.000426813
0.00676685
0.0168178
0.000503825
0.0147585
0.00658006
0.00673113
0.00673287
0.0067318
0.000621072
0.000324907
0.000305067
0.00303526
0.00923366
0.000818736
0.00444919
0.000366796
0.00730271
0.000161671
0.00403428
0.0137389
0.000806388
0.000808802
0.00100621
0.00672258
0.000305551
0.00673296
0.00777205
0.000131715
0.00131674
0.00622662
0.000471346
0.000473307
0.00676751
0.00954418
0.01009
0.00057255
0.00678138
0.00390858
0.00672646
0.000232321
0.0010084
0.000139998
0.0118194
0.00926717
0.00021305
0.0144847
0.000262437
0.000467673
0.0067442
0.0101019
0.000129795
0.000281806
0.000101833
0.00672516
0.00057364
0.00024877
0.000598479
0.000599054
0.0187533
0.00916318
0.00597824
0.00624458
0.00041005
0.000281008
0.0067279
0.00252531
0.00673007
0.000409847
0.000437049
0.000282362
0.0157876
0.005489
0.00672727
0.000838299
0.000374836
0.00081319
0.00674984
0.0176172
0.000989574
0.000798241
0.00195151
0.00334289
0.000399035
0.0152049
0.000134443
0.000568367
0.000266833
0.00672827
0.0010941
0.000752286
0.000282935
0.00263508
0.00672237
0.00452904
0.0100706
0.00676071
0.00422555
0.000284085
0.00150633
0.00268082
0.00672626
0.00239811
0.0137689
6.31607e-05
0.000371147
0.0013925
0.00112681
0.00493264
0.000198456
0.000404675
0.00136586
0.000578067
0.00673327
0.000149011
0.000268885
0.00465461
0.00307533
0.0132906
0.0167306
0.00234753
0.00870534
0.014342
0.0172143
0.000996414
0.00453357
0.0145074
0.00781232
0.0131793
0.00246849
0.000520373
0.00441269
0.00449879
0.000725945
0.0177389
0.000431027
0.00673219
0.000424666
0.000380672
0.000420416
0.00962318
0.00927131
0.000489589
0.0067223
0.013727
0.000580943
0.000432607
0.000982797
0.000477938
0.00230448
0.00673751
0.000433878
0.000404392
0.000794438
0.00070326
0.000811955
0.000675841
0.000715947
0.00901041
0.000309955
0.000742615
0.0124206
0.000648059
0.0067262
2.79272e-05
8.5006e-05
0.00534169
0.000401177
0.00231327
0.00069258
0.000607367
0.000371805
0.00672329
0.000238756
0.000812585
0.000595377
0.000298154
0.00672492
0.00128224
0.00929965
0.00426784
0.0185417
0.00115741
0.00061253
0.00672829
0.00502314
0.000614529
0.00676252
0.018991
0.00503465
0.0067263
0.0067388
0.00308069
0.00175207
0.0015762
0.000498836
0.000546045
0.000260057
0.000595441
0.000217543
0.000569759
0.000416322
0.00368197
0.000898822
0.00924406
0.000387827
0.0182498
0.00058088
0.00672206
0.00674151
0.000347898
0.000370886
0.00672716
0.00022736
0.000594146
0.000294962
0.000524131
0.00421084
0.00427649
0.00672631
0.00841225
0.000378878
0.000376499
0.00642674
0.00026716
0.000887258
0.00615793
0.000118605
0.000329172
0.0067293
0.00399504
0.000399803
0.00867062
0.00775842
0.000752832
0.00077207
0.000335648
0.00468357
0.00750588
0.0129748
0.000312577
0.00303555
0.000372772
0.00416034
0.0121333
0.000667417
0.000491627
0.000460131
0.0175227
0.00345456
0.0035769
0.00938188
0.000382138
0.0142694
0.000242595
0.00673326
0.000402555
0.000458762
0.00015483
0.000475507
0.000378416
0.00596683
0.000805039
0.00672619
0.00376781
0.000491353
0.00131294
0.000139768
0.00388731
0.00267123
0.000503031
0.00119397
0.00240571
0.00672856
0.000405008
0.00429142
0.000741245
0.000439529
0.000499003
0.00031656
0.00268474
0.000203564
0.000606072
0.000462815
7.95445e-05
0.00138221
0.000138348
0.000144655
0.00443664
0.000453347
0.00867103
0.0069554
0.00254699
0.000844795
0.00865294
0.0039855
0.00126006
8.71709e-05
0.0103531
0.000436418
0.00853351
0.00063503
0.00326669
0.000508958
0.00672802
0.000865808
0.000333156
0.00798302
5.16894e-05
0.000873
0.000322333
0.00209293
0.0143623
0.00185391
0.0116792
0.00610529
0.000685156
0.0138143
0.00672772
0.00672218
0.00709695
0.00257247
0.00672867
0.000344211
0.00695792
0.00060101
0.00111328
0.0121694
0.00672281
0.00347692
0.0101153
0.00672435
0.000388652
0.00780178
0.0102716
0.00824357
0.0102068
0.00716487
0.00673831
0.000966787
0.000345592
0.000429346
0.00672927
0.00069219
0.00673516
0.0101488
0.000497656
0.000143213
0.000476382
0.00999747
0.000486797
0.000571485
8.65872e-05
0.00207187
0.000523095
0.00116875
0.00672878
0.000727933
0.000295407
0.00645378
0.0173501
0.00442271
0.000618152
0.00248439
0.0161539
0.00125716
0.0051487
0.000563907
0.000421096
0.000234334
0.00640115
0.0156202
0.000556604
0.00109326
0.00103329
0.00095125
0.000871344
0.000358222
0.000746117
0.00672538
9.55887e-05
0.000379706
0.000382161
0.00719597
0.000491387
0.000269425
0.000281377
0.000337731
0.00074644
0.00512324
0.000523972
0.00674355
0.000367421
0.00055191
0.0104625
0.00672992
0.000421177
0.00469557
0.00154502
0.000283019
0.00108937
0.000421315
0.0149017
0.000391897
0.000871336
0.00294378
0.00672836
0.00373448
0.00672608
0.00148429
0.000408413
0.00565109
0.000413232
3.1674e-05
0.000129995
0.000934919
0.00215678
5.43362e-05
0.000384575
0.0160588
0.000508157
0.000609932
0.000371469
0.000970481
0.000638921
0.000144725
0.000401977
7.99744e-05
0.000411441
0.000267272
0.000915526
0.00311845
0.00157506
0.00356105
0.000615034
0.00672544
0.000474055
0.000626388
0.000430918
0.0114346
0.00107664
0.00064175
0.00671633
0.00230759
0.00672587
0.00672544
0.00131493
0.00673446
0.00047567
0.00351098
0.000466025
0.000485719
0.00127642
0.00254062
0.000776878
0.00290795
0.00340296
0.00881642
0.00492591
0.000545506
0.00039445
0.00113583
0.00672651
0.000346692
7.04492e-05
0.000347465
0.0127934
0.000507978
0.0135072
0.000558755
0.00672474
0.0067273
0.00699559
0.00385441
0.000743269
8.26276e-05
0.00059575
0.00169998
0.0128388
0.00672524
0.00067775
0.00411796
0.0013197
5.1094e-05
0.000534033
0.00199689
0.000954532
0.000220066
0.000487499
0.000589225
0.000145157
0.000105019
0.000489696
0.000674894
0.00150787
0.00124346
0.00065799
0.00532051
0.0165426
0.00495955
0.000827351
0.0108608
0.000611445
0.00158753
0.00673153
0.000825177
0.00672659
0.00105586
0.00330275
0.00510517
0.00500821
0.000911416
0.000789035
0.000773283
0.00144649
0.00261206
0.00591
0.000362789
0.0185518
0.000318022
0.0026565
0.00379488
9.0833e-05
0.00358997
0.000145271
0.00672623
0.000188306
0.000575794
0.000100078
0.0178817
0.00026283
0.0108807
0.00615522
0.01166
0.00273636
0.000799686
0.00139753
0.000344553
0.00672378
0.000132202
0.00410213
0.000144297
0.000407904
0.000389197
7.81719e-05
0.00356632
0.0067964
0.00160937
0.000353433
0.00112238
0.0171607
0.00846168
0.000211221
0.00672621
0.000245023
0.000429579
0.000376533
0.0019174
0.00892252
0.00371072
0.00672561
0.00419551
0.00924863
0.00251518
0.0036379
0.00453449
0.00526418
0.000386348
7.21916e-05
0.00489429
0.0112658
0.0014282
0.0165153
0.00309754
0.00314634
0.0013225
8.23618e-05
0.00365315
0.000394486
0.00544274
0.00128193
0.00536574
0.00108115
0.000261863
0.00065764
0.000641477
0.000173751
0.000422638
0.0029533
0.000147348
0.000560739
0.00125292
0.000788039
0.00462241
0.0054762
0.0067241
0.0012626
0.00238979
0.00059142
0.0111298
0.00112165
5.92374e-05
0.00105053
0.000834721
0.00123104
0.0178036
0.0113934
0.00151297
0.00149647
0.0111846
0.00876577
0.00515192
0.000535286
0.0052174
0.00488025
0.00246767
0.00584239
0.0166336
0.000163897
8.23169e-05
0.000369811
0.00135544
0.00656672
0.000302352
0.00672638
0.00347834
6.74386e-05
0.000110652
0.00671854
0.000446868
0.000154666
0.000918272
0.00672638
0.00672222
6.3982e-05
0.00159132
0.00247755
0.00095825
0.0143953
0.00108467
0.000215953
0.0067286
5.28358e-05
7.495e-05
0.00221846
0.000538573
0.00673372
0.0159771
0.00995403
0.000378165
0.00363131
0.000337801
0.000341837
0.0067262
0.000807691
0.00675908
0.0018503
0.00672616
0.00732264
0.00669197
0.00100942
0.000228475
0.000497563
0.000726545
0.00609975
0.0169417
0.000511329
0.00327581
0.00831447
0.000388874
0.00037662
0.00737348
0.000641904
0.000585534
0.00164936
6.09091e-05
0.00022155
0.00889955
0.0192812
0.00673395
0.00373289
0.000171519
0.0116698
0.00671937
0.000458125
0.0178297
0.00672621
0.00397
0.000575316
0.00419793
0.00672304
0.00283923
0.000273216
5.10777e-05
0.00126237
0.000300577
0.00501671
0.00230783
0.00753602
0.0132683
0.00737107
0.000837608
0.00326434
0.00154609
0.0067259
0.000285786
5.9137e-05
0.00924998
0.0041865
0.00989127
0.000486582
0.00672323
0.00672273
0.00551033
0.00249344
0.000497217