/*--------------------------------*- C++ -*----------------------------------*\
| =========                 |                                                 |
| \\      /  F ield         | OpenFOAM: The Open Source CFD Toolbox           |
|  \\    /   O peration     | Version:  v2012                                 |
|   \\  /    A nd           | Website:  www.openfoam.com                      |
|    \\/     M anipulation  |                                                 |
\*---------------------------------------------------------------------------*/
FoamFile
{
    version     2.0;
    format      ascii;
    class       volScalarField;
    location    "850";
    object      omega_0;
}
// * * * * * * * * * * * * * * * * * * * * * * * * * * * * * * * * * * * * * //

dimensions      [0 0 -1 0 0 0 0];


internalField   nonuniform List<scalar> 
13851
(
0.217269
0.0257633
0.0255924
4.49743
0.0220845
0.0290203
0.0252726
0.0218771
5.35896
0.0220553
0.0899537
0.0220886
0.0221528
6.58466
0.0492308
0.197795
8.62949
0.022042
1.86742
0.217661
0.0571855
0.0279492
22.2933
0.0222638
7.48985
0.0944939
0.402489
5.73715
4.79396
0.0217915
4.08445
0.0252946
0.212588
5.70008
0.0562657
4.62607
0.0222741
10.3602
4.46217
0.0221785
5.4201
4.75694
18.5745
0.974299
4.85263
0.0219345
0.0215576
0.195926
0.0242695
0.0221435
10.0067
0.0222014
0.198063
0.036846
6.11073
0.0221737
0.216733
5.33469
0.393175
7.88482
0.0220957
0.388031
0.0221041
0.0244801
0.286549
0.312602
11.8518
0.0719753
0.0222696
4.21029
4.34649
0.0713605
0.0220654
9.36981
0.0404182
0.0244477
7.23342
0.0216763
7.62934
0.021977
0.0222966
1.72009
0.054615
6.49485
7.47919
4.13948
0.0283163
7.73711
0.0220493
4.06949
0.0222455
0.0254917
27.1923
4.24418
4.69364
0.548515
0.0219618
0.2053
9.68777
0.291748
0.212281
0.0447245
0.0490351
0.0221192
0.0219249
0.0672607
0.0219264
4.24586
0.02549
0.0220039
0.0333982
0.0219331
0.311786
0.0919473
0.203782
0.0353243
0.0217912
0.0218246
4.72382
4.10713
0.329897
0.0218673
0.0222416
5.22609
0.419762
0.135786
0.0219602
0.0716573
5.48585
0.0661557
0.02786
0.0379479
10.9681
5.67882
0.0929944
4.63723
0.0692962
4.19349
0.0371047
0.0650887
1.34224
0.0227749
0.0220495
0.121694
6.88934
0.0240306
0.0216675
4.18969
4.92416
0.0746541
0.211638
0.293221
0.0991854
0.518251
0.022325
0.0220747
0.0221085
4.46688
0.0592204
0.0244957
0.022243
4.72598
0.0663846
0.196401
6.52935
5.34562
5.37543
8.33524
0.0329316
5.9887
0.0221104
0.0217941
0.0865019
0.0221396
4.66961
0.443109
0.232501
0.0217797
0.0401987
0.226904
0.418257
0.919198
0.0320662
0.0652749
21.3557
4.91115
0.212487
0.030189
0.0222577
0.021857
7.04087
0.0590989
9.79445
0.0291404
0.0238473
0.201539
0.204865
0.0223245
0.0224106
0.0777076
1.25867
4.84728
5.25311
0.0493719
3.19522
4.8671
0.0238356
0.0634573
5.404
0.0278716
0.195548
0.0222209
1.61628
0.0222365
0.0580627
0.0255078
0.0221201
0.372598
0.0224227
3.59055
0.0217771
0.219593
8.65296
4.64965
0.0297678
0.0645486
0.0222647
0.103089
0.0220291
0.0569623
4.77545
0.0295964
0.027879
0.0221225
5.22768
0.0217855
22.0385
5.18121
0.25169
0.0222514
5.54838
7.08455
4.64759
0.195701
0.0424973
0.169323
0.340781
0.0402478
0.513064
0.0359689
7.11261
0.237032
0.0218704
0.0289642
0.206402
4.70344
5.31395
0.0218521
0.140778
0.0220464
0.301192
0.444271
0.0295909
0.0672433
0.242071
0.0220213
0.046239
0.168523
5.27711
0.0220934
0.0221173
0.0298791
5.58044
6.34082
0.0652323
0.0218928
0.408915
0.487384
0.184293
0.0665358
5.60544
10.2022
0.0304644
0.0433399
11.3203
0.0219165
0.0221073
0.190916
0.0757386
0.0217837
0.0222337
0.0220211
0.0220057
0.0422704
0.0221012
5.42064
0.060645
0.0220505
4.67917
5.25205
0.0222353
0.221404
10.5054
0.0229384
0.0222618
0.0637522
7.44126
4.65561
0.0977534
0.0220741
5.97766
0.0221032
0.107704
8.29062
5.10182
0.0243248
11.971
10.3137
4.15918
0.286361
0.0470826
4.59496
5.25042
5.75091
0.02252
6.07425
25.3686
0.97429
0.82813
0.0238515
0.0960815
0.0309641
6.99094
0.0514644
0.0218816
0.0215057
0.0307298
4.24258
3.11228
0.0219062
4.69408
0.0312164
0.0383605
0.0247107
9.32161
0.407217
0.201926
0.0251175
0.0270039
4.27462
0.0222684
0.512528
0.0302723
0.0636537
0.0314767
0.0220458
0.0220477
0.278481
0.340402
0.236286
11.3149
4.26418
0.0241434
5.16294
0.367089
0.0217306
5.08634
0.144735
8.03705
0.0299487
0.0992579
0.370941
9.05901
0.257273
6.06707
0.0230992
0.470713
13.6506
0.0371948
5.7825
0.0418743
5.20567
0.0424486
0.0517989
0.236726
0.555676
0.0220735
0.0296236
0.0818926
0.0405552
0.0219582
0.0660024
5.56978
0.0220644
0.0640777
5.31421
0.0254737
10.7427
0.0596255
4.86234
0.0287482
0.0886511
2.70672
0.481176
0.0659246
6.06797
9.18403
3.10469
0.0220219
0.261947
0.0420028
0.0986838
0.0218843
20.1879
5.74582
8.28596
0.0269284
0.24299
0.398802
6.07415
0.0215929
7.71042
0.763994
19.7865
0.037391
6.24866
0.0220648
0.0221279
7.08711
0.404452
0.0220546
0.0258474
0.0653777
0.0218302
5.70788
0.0969336
0.140988
0.02836
0.0231181
0.0222112
9.43563
0.0220439
0.0221939
1.05491
5.55884
0.0271961
0.341698
0.0221103
0.0220995
0.0260453
0.239174
0.0583236
0.0219709
0.0235168
0.313533
0.0243046
5.11197
0.0220831
0.0311876
4.81826
0.0376374
0.0215696
0.0221277
0.028258
0.0225214
3.04521
2.07904
0.0430406
7.35603
0.0261294
0.0220683
5.55024
0.366995
0.0365776
0.0220915
5.22124
0.0355684
16.212
0.0221205
0.0385732
0.268149
0.0442544
5.32781
0.399148
8.53043
0.0242459
0.303493
0.0220204
4.766
0.0596747
0.205797
0.0417131
0.0248177
0.0375734
0.087184
0.0220956
6.76259
5.47048
5.37217
5.40333
1.94523
5.83977
0.486897
0.0287826
0.0222114
17.2611
0.0220586
0.0219545
0.0310962
4.69495
0.0254532
0.0227576
0.11295
0.0648781
0.022058
6.07994
0.0219646
5.60987
2.56242
0.0219751
0.024402
0.901518
5.33218
0.0217911
8.74975
18.3082
0.0217
4.28178
1.48207
0.220571
0.0242058
1.12926
8.01117
0.0217178
1.57495
0.0222519
0.0219661
0.482101
5.20907
0.0512199
0.0572356
0.0220585
0.0798158
5.5749
4.52609
0.0218496
7.16498
0.0219659
0.022278
0.0669225
0.0309133
0.0215859
0.0244494
4.29902
0.501171
4.31804
0.024885
0.0220434
5.5436
0.0221849
0.267297
0.0313613
0.0407476
0.0422324
4.17309
8.33793
0.0288797
7.48946
0.0239896
0.0957323
4.73896
5.29332
0.0222292
0.022025
0.0492897
4.33398
0.295607
0.078461
19.7436
0.0311163
0.0406775
5.91708
5.94188
0.217325
5.55753
0.273117
4.30698
0.0228047
0.395127
6.32305
0.022088
22.8481
5.42251
0.0330087
0.0653781
0.0221423
6.40813
0.101877
13.7939
0.0220443
0.0221661
0.0268876
0.0635664
0.0220922
4.70105
0.0221605
0.265049
0.0242976
0.100753
0.0221124
0.0220581
0.0543123
7.64166
0.0655936
4.6814
0.0385868
0.0218412
0.0218017
0.0868429
0.0235088
0.160467
0.0261878
0.0357658
0.389073
0.0221865
6.29872
0.0222546
0.137014
6.52429
5.19564
0.0285259
16.3081
0.108045
0.46385
5.34887
0.0219326
5.7457
0.0312221
0.0390383
5.04461
7.34744
0.0217435
0.153577
0.0222887
4.47442
8.74887
0.0224064
0.0774866
5.8126
0.0222646
0.0222539
0.0958142
7.76387
0.597324
0.0222687
0.239087
0.0239726
0.0220588
0.39306
0.243126
0.281266
0.0215732
0.169499
0.0500493
0.0815416
0.0227378
0.023641
0.094279
0.0267435
0.182017
0.0714988
0.0712199
0.174545
4.91005
1.70628
4.82849
9.10285
0.202687
5.42689
0.0439292
0.509313
0.225374
0.0219856
0.0394468
0.611197
0.0294933
0.0219788
0.0219737
0.13808
6.53961
0.0315114
5.10653
0.0218454
0.691232
0.191738
11.172
0.15328
0.0289985
0.0255806
9.44815
0.278951
0.0421737
0.404947
0.0229152
13.0919
0.138208
0.271142
0.0404493
2.96038
0.0220632
0.0222466
0.0235389
0.022058
4.85544
0.0220049
0.371103
5.56813
0.15659
4.54601
8.73513
0.279163
0.561983
0.0288379
0.0221829
0.0220971
0.0216861
0.0218026
0.0221418
0.0971456
0.296895
0.0541925
5.63117
0.0236172
5.35026
0.0222939
4.23336
0.0502492
0.0222841
0.0221376
5.27647
0.0292771
1.69465
5.51344
0.0617005
0.101419
0.0216784
5.71057
0.0250362
0.0254987
0.388837
0.0221866
0.0227871
0.0219188
0.0601287
6.4656
0.0345626
0.0412344
0.919541
4.55478
0.0295574
0.0279749
4.50056
0.0216819
4.54393
0.0222025
0.0243288
7.52479
0.120981
0.203208
0.137522
0.0662442
0.0222297
0.0222938
0.103949
0.0228823
0.0222367
0.0322603
0.746789
0.0219903
0.409494
10.0595
0.692022
0.134426
4.11392
0.0377442
0.0221787
0.248549
0.0218597
0.0296868
4.65311
4.19673
5.71817
4.26763
0.0225084
0.0223588
0.0809773
0.0234145
0.0218835
22.7482
0.305041
5.63432
0.137982
0.124229
0.0220625
0.0217984
13.5632
0.142593
0.0248521
0.022254
0.201553
0.366747
5.11314
0.0223082
0.0221538
7.688
0.0227087
0.0420931
0.0218341
4.72862
0.0219643
6.16704
0.0220851
0.220831
0.0526822
0.0807135
0.0409981
0.0220635
0.0258723
0.0220265
0.36012
0.0227413
4.48535
0.023023
4.64914
5.59242
0.0378946
0.0220079
4.60146
2.34791
0.0297443
0.12021
0.0220978
7.11738
0.0220162
0.702713
0.0220763
0.0220234
1.05088
0.0426054
0.0221183
0.0374722
5.31744
5.47378
5.84073
0.0218541
5.25047
0.0220872
0.021997
0.0223245
0.0214737
0.0222362
5.85078
4.94868
0.0224398
0.0221567
0.0517556
0.0219341
4.20612
0.258681
6.01169
4.57275
0.0258061
0.182631
0.0220816
0.0572262
0.148785
0.0219094
0.0222108
7.92524
8.88707
0.0998896
19.4801
0.0901297
0.0221088
0.0541421
0.122077
9.03155
0.0400439
0.437378
0.14632
0.0222253
9.70651
8.04064
5.21898
7.18738
0.449085
0.0242107
0.163649
0.0221941
2.33938
0.0287674
0.0218839
5.83513
0.0234628
0.0220085
0.022231
0.023241
4.71815
0.535627
0.0218933
0.0553328
7.14028
0.0237648
17.6776
0.023428
0.117008
5.10883
0.0221045
0.322686
0.032933
0.0399677
6.02784
0.0234486
1.42427
0.0870518
5.42869
0.0223747
5.13778
0.0366354
5.48762
9.91424
6.49678
0.0615604
0.0220772
0.0225182
0.0222643
0.0488107
0.0221302
5.36843
0.0310695
0.0286194
0.0292875
0.0241468
0.0218503
0.029102
0.0304005
0.0244104
0.0292618
5.26355
0.350527
0.0352627
0.0605001
5.86336
0.022814
4.21491
0.0216945
0.0357515
0.0227514
0.0220184
0.0519708
0.0220637
0.0218874
0.0465852
0.0220808
0.633294
0.0232501
23.9928
5.11565
0.369291
0.776429
0.0222231
4.56057
0.259765
0.0222279
0.030119
0.0226579
4.15445
0.0233801
0.0460295
5.10973
6.01821
0.111237
0.0223121
4.40412
4.62996
0.462531
0.0328236
0.021831
0.0218264
0.0981471
0.0220699
9.62144
0.282386
0.0222024
0.358229
0.71843
0.0219019
5.3918
6.83321
0.293674
0.0231827
4.24238
0.096278
0.02203
7.02122
0.0278672
0.021884
0.0219739
0.0381608
0.0497154
5.51196
4.08375
0.0535192
5.44052
0.0416279
0.022044
0.0883116
0.0219789
11.6088
0.0218756
0.0220499
0.0247141
0.0228332
5.62237
6.33542
0.319958
8.53037
5.1083
0.0298207
0.0220728
0.023256
1.93641
0.0218499
0.0219249
0.0531286
7.42111
0.308511
0.0216277
0.0448788
0.0415148
0.226205
18.6973
0.0216934
0.0215724
0.0242362
8.84375
0.0322462
5.52548
0.0236041
0.0221648
0.0218887
0.0219696
0.0254774
0.282959
4.11165
5.3275
0.0292512
0.0220692
13.0818
0.0225209
6.24893
6.23247
0.0315946
6.17026
4.85974
4.0899
0.0728011
0.0395854
5.17547
0.0371207
0.0357071
0.0834877
0.512588
0.0228172
5.67669
0.0220458
4.26131
8.537
0.0216991
0.0243188
0.0531048
1.36038
0.0424327
0.0221442
0.0317618
0.0233035
0.0278612
1.53817
0.0221689
2.99031
6.47899
0.0220514
0.0376353
0.0495252
0.0220935
4.18947
18.1341
4.57361
4.32274
0.0220523
0.0257864
0.029019
0.0223401
0.309373
0.0430151
0.0222579
0.0877342
0.0261612
4.79638
0.0529708
8.88021
0.0232344
0.0237663
0.0529765
0.143868
0.107912
0.0220187
20.0518
5.34417
26.1212
5.37047
4.49263
5.41654
5.66136
0.0220203
0.022044
0.0220957
0.295661
0.0579927
0.106699
7.47632
0.0222981
0.0216592
0.0220575
0.258607
0.021656
0.0295819
0.0242812
1.28791
0.0231493
0.0218674
0.0220982
0.0220296
0.0221634
0.0358836
0.309949
0.0358279
5.63035
0.02205
0.0219713
5.52577
5.65442
7.3085
0.548243
0.0511425
0.560756
0.0218259
0.0715906
0.0237652
0.0220906
0.0252344
5.50739
0.0235951
0.146805
13.2994
0.0224127
0.0220031
0.0268402
0.289091
0.0222724
1.02229
0.0220784
0.270881
0.0221312
0.0224373
0.0298937
0.110562
0.0221622
0.416816
4.26585
0.241444
5.69084
0.0220644
7.6124
1.10274
0.0220638
8.77097
0.0223297
0.0435112
0.0222571
0.0221746
0.0219705
0.0220558
0.0226621
0.0276751
0.0979877
0.0224008
0.0221035
0.0653864
0.0217168
5.88484
0.0221308
0.039415
0.0408752
6.52793
5.72413
0.0221545
0.295263
0.0218276
0.0349398
0.0872439
0.508079
0.0649839
0.0222728
0.162995
0.0818714
0.124642
4.84299
0.0378052
0.251615
0.0789209
0.0981021
0.0231237
0.0218842
0.908506
5.05306
0.0259337
0.0220265
16.5911
0.0218503
0.0562576
0.0219808
0.108541
9.98294
0.0215148
6.35319
0.0287934
0.0221721
0.226629
0.0218837
0.041518
4.29859
0.052092
0.891809
0.0219659
0.0222655
0.0450728
0.0222292
0.0222476
0.0314236
0.0349214
0.0990318
0.115323
0.0221493
0.0449067
0.0218669
0.0220749
0.0222189
0.0220667
9.44159
0.0219179
0.02346
0.339788
0.0218448
0.0220152
5.64304
0.0222511
22.6382
0.023826
5.38153
0.385345
0.0553876
13.7808
0.0901785
2.47844
0.0226382
0.381845
0.0296739
0.0218675
0.0219377
0.0234251
0.0375614
0.0220192
0.0666632
0.02192
0.0237667
17.264
9.89332
6.20725
0.0251677
0.0482361
6.55149
4.2441
0.022179
0.0290634
2.58157
0.0223344
0.0496023
12.2975
5.27157
0.0302409
0.0567119
0.023091
0.811688
0.0222859
0.0381367
6.10231
0.0222395
0.0218959
6.07885
0.0555394
0.333896
5.70324
0.14005
0.0225179
0.0219232
0.0224889
5.49107
6.26885
5.55867
0.0742934
0.0220619
5.7698
0.0221169
0.299023
0.0269197
0.0238772
0.0573259
0.0220715
5.40766
5.20073
0.0216438
0.0990525
0.0596145
12.3906
0.0577479
0.0771803
0.322844
0.0411219
0.341083
0.0823557
0.0221198
0.0442354
0.0858429
1.46055
0.0220487
0.432169
0.0618246
0.0812225
0.0222732
4.92764
0.0286559
0.0240209
0.0218941
0.0455711
0.0443456
0.0621906
0.0221319
0.0229506
0.0711313
28.4697
0.0813674
0.0221637
0.0227237
0.0438861
0.450147
0.0221778
0.122101
11.9526
0.0558076
5.01746
0.0487397
10.4
1.45964
0.022022
9.9496
0.0222386
0.0262084
0.0394627
0.0433285
0.159511
0.0608654
0.0489111
0.052034
0.03708
0.0248416
0.0216483
0.0946015
0.0274979
0.0297414
5.49232
0.0280517
0.032228
0.0219718
5.46507
0.112681
0.0221486
0.0261966
0.0233711
7.58059
0.27074
0.0394156
4.71672
3.8
4.92022
0.146429
0.323968
0.0219149
0.335805
0.0219069
0.027125
11.3121
4.1958
2.41467
8.68786
0.0221282
9.05671
0.0219117
0.118866
0.0261539
0.45676
5.82188
0.0274919
0.0220266
1.63164
0.0447795
0.0220378
4.80294
0.0220771
0.0241283
0.0274741
0.0222463
0.0362965
0.0234618
0.0220622
0.038671
2.12546
0.0529014
0.081196
0.0220339
8.59483
4.05494
0.0220095
0.368107
0.0260724
0.0299054
5.35469
0.0220063
0.0228757
0.0287505
5.34134
0.0220464
0.0221841
0.0514324
0.438759
0.0219925
0.0337799
0.0372153
5.27378
0.0596117
0.0506452
0.345659
0.0220818
0.135275
0.0217159
8.89818
0.0348434
0.0220605
0.0294088
0.147051
0.0221524
0.0223035
0.232377
3.48626
0.0224982
8.00333
0.0221906
0.0217044
0.0943507
0.0220478
0.0219139
5.7407
0.0222747
0.0530277
0.221611
4.15729
4.73354
0.0218258
0.0241944
0.028682
0.022081
0.0220703
0.0221065
0.423011
0.0221997
0.325751
0.179149
0.0218843
0.0217304
0.0354934
0.178612
0.359516
0.0626927
0.0844658
0.0244588
5.40637
0.101796
0.0345646
0.0528339
0.0809453
0.142425
12.9213
0.0467999
4.4646
4.62568
4.21144
0.0261227
0.0220316
0.0465316
0.0348357
0.021838
0.0225044
0.174106
0.0222444
0.0225075
0.0220647
0.0215756
0.0242105
0.0221461
7.36731
0.0220239
8.3318
0.0220885
0.109632
0.0228664
0.185049
0.0989087
0.0220818
4.95874
0.0241084
0.0222287
0.0515167
0.0218528
0.0322242
0.0220413
3.86675
0.0250742
0.0550917
0.110332
4.84108
0.0301967
0.326347
5.38561
0.0615442
0.0222174
0.0234677
0.139597
0.092928
9.19113
0.0217899
4.10083
0.0221913
0.0974096
5.43374
0.0422273
0.425694
0.0265762
0.0397388
0.0256679
5.07698
0.0361252
0.0221429
0.0575968
0.240642
0.0240332
0.0220542
0.0221452
4.47715
0.0222544
0.0292481
5.67063
0.0270873
0.0220206
0.0697573
0.026184
4.63274
0.021659
0.022042
0.0218808
0.0262814
0.0226207
0.0222443
0.0905783
5.57108
0.0220048
0.0221089
5.47341
0.0223227
5.88613
0.0241473
4.7268
0.021906
0.0249585
0.0218267
4.69568
5.68489
0.0322643
0.0819657
0.0272414
0.022003
0.0221228
3.76162
0.0221378
0.117229
0.0217881
0.0526606
0.0221951
5.62713
0.0218559
0.0584752
0.0218982
0.823297
3.25019
0.0218286
0.0507626
5.29877
0.0975821
0.825318
0.432122
0.408604
0.0235422
0.0422628
0.148252
5.513
0.022219
0.0468039
0.0287708
0.0220554
4.71005
4.27574
0.099443
0.25956
1.51602
0.0373465
5.47114
0.0218292
0.0218217
0.151921
5.50355
0.446281
0.2787
4.16175
0.0218278
5.02374
4.98732
5.98836
0.0222036
6.76406
4.08581
3.22921
4.19256
5.18398
0.122036
0.0355833
0.307813
0.0259617
0.0220325
10.0634
0.141759
0.0216296
6.39952
0.0221931
0.0310553
0.0563426
0.0273132
7.06462
0.0364967
5.73673
0.0568772
0.0263727
4.49811
4.99577
0.230675
0.0224131
0.0260946
0.10631
0.0681065
0.0218449
0.062998
0.0698881
0.246434
0.0220229
0.356331
0.0251078
0.0585487
1.87
0.34311
0.0231629
0.193093
5.21428
0.0222357
0.0231077
5.25365
1.00826
0.0255528
0.0261982
0.0221015
0.095149
0.0271569
4.65815
0.158799
0.0226326
0.0222236
0.0701388
0.0320072
1.8551
8.32443
0.0219169
0.0220488
0.0306454
0.022197
0.0254002
0.0232718
0.0231716
0.0261565
0.0219749
0.0256847
0.0222222
0.0619099
5.48601
0.0222647
5.6994
12.6883
0.0217153
0.315314
0.196107
0.115942
0.022905
0.140548
0.0302832
0.087551
0.0350387
0.0238554
0.0222099
8.87251
0.0303515
0.814419
0.0228648
0.0220538
0.0220374
0.0881488
0.0219981
0.0674807
0.0838713
2.30462
0.0219413
0.760865
10.0541
5.26265
0.0218191
0.231994
1.19372
9.69821
7.82289
0.0226025
0.0224425
0.258632
3.60599
0.52154
0.0531179
0.376176
0.0222316
0.0218921
0.0449637
0.0221999
0.022153
0.286104
0.0222662
0.0985411
0.0218934
5.22277
5.63752
4.78839
1.82346
5.4169
0.0221577
0.0221532
5.85686
0.0218078
0.0218418
0.0217056
0.173118
5.72081
8.26293
0.0282426
0.0221773
0.0236797
0.0410467
6.98648
0.0220414
0.446106
5.24693
0.0221939
0.0221817
5.1208
0.110278
0.0237577
0.0220568
5.85533
5.49256
0.0220842
0.312151
0.0222548
5.22945
5.06791
0.0238924
4.67962
7.02841
5.63461
0.0218724
0.0222202
0.0222471
0.0222863
5.66932
0.0219565
0.37716
0.333974
10.8977
0.0230453
0.0751526
3.04378
0.0643184
5.92966
4.27105
0.0216275
0.0277607
0.0280619
0.18848
4.84094
0.0215616
6.15266
0.0347785
0.0561176
0.0229026
0.0219552
0.854559
0.0490284
4.22604
0.0221994
0.0710762
0.0229181
0.189652
0.0254619
5.52941
4.13298
0.453314
0.130535
0.0220133
0.0245347
0.129658
0.284948
5.53392
5.52617
0.0221512
0.510732
0.102415
4.63824
0.0283497
0.0543758
0.0499367
0.0222219
5.6946
0.022082
0.0401563
4.26139
5.29125
9.18129
5.63275
0.0301426
0.0662264
0.0217661
5.20636
0.0289615
6.66848
0.0217508
4.79088
0.0215227
0.0220195
0.0392907
0.032446
0.0343579
0.0220422
4.97835
0.0563631
0.0219593
0.0442319
4.87308
0.948494
0.0220582
4.20965
0.0253939
0.0417916
0.0378987
0.0216927
0.087111
0.0220136
10.8808
0.100103
0.0290027
0.0220461
1.16757
0.0512385
0.0217493
5.23788
6.39624
0.396179
0.0216271
4.95863
0.0221487
0.229224
0.0307268
0.164709
6.92753
5.07597
0.0353519
5.67591
0.0595514
0.029925
0.0218526
5.34951
0.152745
0.161251
0.0643745
0.0222437
0.504171
0.125419
1.56867
0.32639
5.28779
4.9382
11.4457
6.03877
0.0305827
0.0327581
0.0221067
0.02221
0.0215829
0.267639
0.0311222
0.0344013
4.36109
0.0219713
0.0218712
0.0525689
0.240718
0.0315925
0.0218371
4.82778
0.0254516
0.0603811
0.0223242
6.32437
0.0297326
5.85611
0.0627457
0.0423693
0.0644576
0.0221002
7.42191
2.19131
0.0978928
0.0221179
0.0219172
7.16314
4.15839
4.61022
0.021904
0.0990579
2.99416
0.0221757
0.0220175
0.0222068
5.70875
0.114899
0.0385866
0.0293458
0.0283234
4.47082
0.121138
0.400957
0.0282418
0.0399939
0.021567
0.179108
0.0700148
0.0220392
3.46851
4.27297
5.2386
3.10358
4.09957
5.40114
5.79702
0.0232301
0.0218733
5.9188
6.38269
6.77794
0.0221517
0.0523504
0.0220608
0.0220015
0.419797
5.3142
0.0913531
0.0220202
0.423472
0.143652
0.0651116
5.54636
8.4257
0.379586
0.0219222
5.51027
0.416745
1.00627
0.0381468
0.0557362
0.0222056
0.0218997
0.0487048
0.0588185
0.0254339
0.0521942
0.031639
0.0259495
0.27864
5.17683
0.0331214
0.0548545
5.30172
0.264219
0.022117
0.513958
1.29783
5.50583
0.0512035
0.0222955
0.0346852
0.0292793
0.0316714
0.0216911
0.0338655
0.0371273
0.0602218
0.405826
0.022231
0.023536
5.0194
4.18777
4.86209
2.72463
0.159424
0.0215055
0.0220577
0.0360041
0.0217569
5.11195
0.0220533
0.0222744
0.0217357
3.59914
21.4772
0.0225155
0.088418
0.0310385
0.0381121
0.0352325
0.0360691
0.0524259
0.0449397
4.59309
0.028703
6.00308
0.0467684
4.76627
0.0337435
0.0219415
0.021845
0.14411
0.235936
0.021838
0.0428486
0.0342426
0.0776554
1.4441
4.60326
4.13448
0.0222742
6.68124
0.03143
0.0412959
0.0220468
0.0956244
0.0243401
4.35964
2.63536
0.0457154
0.0220902
4.04792
0.0276328
5.49435
6.52063
0.278623
0.0251445
0.21139
4.22063
6.38568
5.24475
0.0805854
0.022033
0.0469583
0.0218967
6.15957
0.025505
0.0372802
0.421133
4.62403
0.0219862
0.0220131
4.60529
0.0519456
5.10266
0.0333151
0.022058
0.0545557
0.344005
0.0453502
0.479819
0.0407586
6.02614
0.0268269
0.022247
0.0219995
0.627947
0.0227724
0.177553
0.0220656
0.0221087
0.492303
0.0284113
0.0222283
0.0220506
0.0404522
5.54189
0.0550736
0.04941
0.0269504
0.0829691
0.0221029
0.242385
0.0362906
0.0566184
0.0738177
0.0303165
0.108545
0.047848
0.021873
0.0973859
4.38128
4.21613
0.0222512
10.755
5.35124
0.022008
0.0227501
1.16421
5.50086
0.0281595
5.18025
2.22587
0.0221104
0.123483
0.0215808
0.0284604
0.0846775
10.7615
0.709022
0.286561
1.64319
3.12707
5.21384
0.0238746
5.1642
0.0220525
0.416337
5.18002
0.0221107
0.0220852
4.38288
0.0221427
0.0220963
0.428567
5.06397
0.406749
0.0283253
5.33371
0.0221054
3.94179
5.12222
0.0221913
0.472703
10.3815
5.58927
4.72435
5.06547
4.57428
0.0219048
0.0233387
0.0860539
0.0926284
0.0220908
0.257971
0.022056
5.03772
0.396582
0.0525292
0.356969
5.02475
0.389757
0.297531
0.0639704
8.61146
1.82601
0.0269712
0.0216289
0.425916
0.0374513
0.0218013
4.8207
0.0220132
0.436489
0.0221726
5.51844
0.0272015
0.0220109
25.3346
0.027839
0.0372808
4.52631
6.08913
7.06786
0.0307315
0.0564093
0.0236106
0.0496107
0.200933
0.0515886
0.0222121
2.22006
0.0870107
0.0361342
4.97548
0.0527189
0.0401706
0.334461
0.107635
0.0583524
0.0220069
0.377697
0.021845
0.197676
0.379945
5.65415
0.0218888
0.0483583
4.3934
0.0238837
0.0892359
0.0359621
0.0531828
5.90995
0.0864613
0.0236051
17.139
0.021898
3.90737
0.0221323
0.0235279
0.19366
4.55332
0.0360146
0.43405
0.905462
0.0369376
0.0223902
0.193754
0.0577377
4.41832
0.0268331
20.7517
0.229253
0.0364575
0.0343965
0.136464
0.0444231
0.0793172
0.0860762
0.0413609
0.0255359
0.0221779
9.82513
0.0220497
0.0329327
0.0215905
0.162694
0.0337096
0.0848397
5.24285
0.0231009
0.431723
0.021498
0.0221918
0.0221929
0.0222097
0.0286274
0.0219639
0.125748
10.2518
0.0836018
0.0603298
0.0265248
0.0221538
0.334125
0.0220864
3.96622
5.13773
5.18418
0.209761
0.0396351
0.0298414
0.0221837
0.0309274
0.106374
0.0517335
5.24047
0.0821502
4.1411
0.208179
0.0222111
0.0218551
4.26747
0.0220033
0.0351361
0.0685747
1.63484
0.0238798
5.64054
0.0221774
0.0275526
0.0220617
0.0227769
0.19335
0.154164
0.0224005
0.0384532
0.0361468
0.0614483
0.0791861
0.757237
0.513655
0.556912
0.186058
0.0275184
0.0234531
0.0772288
4.38011
5.92539
4.49614
0.0381246
6.09041
0.14825
0.0232064
0.0220132
0.082822
0.0221517
0.0378846
5.86255
0.0219979
0.0218521
3.91338
0.417741
0.0610364
7.88818
0.0221488
6.24132
0.0510449
4.80753
0.0303533
0.0221052
4.08094
0.061794
0.022061
0.0892316
0.0222549
0.238509
0.0330881
0.0561847
4.98159
0.0349037
5.45068
0.0219597
4.09003
0.0221672
0.0285621
0.0227481
0.0584094
0.0221459
0.0615837
4.12894
1.55695
0.0659723
0.0350961
0.0843095
0.021971
0.0220265
0.0235626
0.801834
0.0272279
5.49221
5.89328
0.212297
0.0222194
0.226286
0.405763
0.246608
0.0272494
6.11388
0.0220218
0.0215122
0.0220029
9.16154
0.0222138
0.0220525
4.3337
0.0220047
0.2835
0.114408
0.0218169
5.63661
0.0305969
5.46501
0.0220107
4.39388
0.0232482
0.0754872
6.12511
0.09463
0.021979
0.0298107
4.45598
0.0376034
0.236477
0.037436
0.0285535
0.209486
0.0307809
0.0223199
23.6851
0.0340016
0.0311978
0.195799
0.0220084
0.0219043
0.0221898
0.0349777
0.0221778
0.0269388
5.551
11.0858
0.114611
6.77426
0.0823969
0.0402756
4.6094
4.12245
0.0225198
10.3708
7.94596
5.04539
10.3458
0.0368262
4.39653
4.76332
12.1851
10.1715
5.86543
0.0458405
0.0937993
0.0305716
0.0278772
0.0222349
3.78016
0.0222857
4.36836
0.145344
0.484591
0.0215863
0.107313
0.0494815
0.0236876
0.0222933
0.0221194
0.141797
0.0243306
0.0224237
0.0508665
4.42335
0.025502
0.242303
0.0218438
0.142222
0.0927873
0.0222192
0.0281708
0.0219659
5.56533
5.5343
0.269488
15.0631
0.0360345
0.132967
0.0221386
0.0531521
0.0221068
0.0225228
0.0222363
4.83989
0.0218039
0.057601
1.51007
0.029721
0.0372273
0.0220226
4.41988
0.365877
8.56253
5.71389
0.296034
1.16547
5.29788
1.7337
0.366723
9.08485
0.145546
0.0345783
8.65
5.07282
0.0220596
4.22186
0.222104
5.71409
0.0216059
0.0894389
4.4829
0.0222739
4.42481
0.0255754
8.59706
0.0220949
0.0221193
0.0921007
0.281031
0.0289986
0.0886499
0.0218361
0.022296
4.6069
5.75467
4.48226
0.0713361
0.0222885
0.0225053
0.0221423
0.0391073
1.46307
5.46885
4.20485
8.00208
0.0377744
0.0219602
0.0219893
7.49289
4.67196
0.838737
0.0267725
0.025841
0.0917277
4.12398
4.74923
0.0215037
0.0219865
6.1942
0.0235775
0.342348
0.0287357
0.0221426
0.0351183
0.0495097
6.01864
5.53234
0.0222027
0.0218521
0.0262111
0.325088
4.63967
0.0222665
0.201987
5.41447
0.0215137
0.417779
4.00525
7.63671
0.0221182
4.2369
6.04018
0.0428747
0.417477
0.0257122
0.33337
1.83567
0.0277477
0.021979
4.57047
6.99861
0.0218742
0.227264
0.236965
0.0353894
0.563688
5.58995
5.69741
4.86491
0.0315231
0.0236506
0.0237295
5.47642
6.35848
6.06347
5.5516
5.86721
0.0217434
0.0588913
0.0220713
0.0221193
0.0255915
0.0219869
0.0220723
0.0220986
4.65925
19.1442
8.19457
0.0635721
0.347742
0.0363967
0.021897
0.021992
5.726
0.0221471
6.63427
4.56187
0.0221848
0.0219675
5.07779
0.022785
0.956835
0.0279964
0.0217609
0.02174
5.64797
0.0216861
4.43556
5.45804
0.0215602
0.0619074
0.0219901
0.0235013
0.0219363
0.154722
1.93934
0.0219891
5.56948
0.640436
0.024577
0.0219578
0.022825
0.0243504
0.0222297
2.61277
6.92963
5.47412
0.0512181
4.4475
0.0222738
0.0283279
0.0222847
0.254259
0.0236476
4.79839
0.0218736
4.61439
0.609558
6.47352
0.221265
0.0218687
0.0533397
0.0219818
5.37466
0.0219571
0.0305403
0.0288085
0.0278639
0.0222787
0.0222517
0.0339826
5.65435
0.022225
0.0232741
0.0252037
0.0357424
0.252767
0.0221932
4.24556
3.99686
0.0249498
5.66344
4.30926
0.436841
5.98178
0.0215267
0.0233963
0.739272
5.27209
0.221682
3.63476
4.80075
0.035372
0.0654038
0.0371319
4.85658
0.022052
0.0219724
5.69917
0.204075
4.13847
0.0265425
0.0217072
0.0220605
4.69046
0.105985
0.0237011
0.352935
0.0218945
0.0869549
0.036363
0.0369574
0.0220552
0.0221932
0.021943
0.0264582
1.90718
7.01717
0.02157
0.0219863
4.7424
0.0221596
0.0712191
0.026116
0.0257389
0.048223
0.0222861
4.99343
0.0354207
0.025418
23.4356
0.130742
0.0235808
0.0383367
0.0220549
0.022707
4.51698
0.314397
4.58923
0.0225325
0.0221612
0.0787403
0.0276665
0.0220473
0.0503051
4.31825
0.0272938
0.0483646
0.0262017
0.19153
0.0221235
0.0217285
4.17241
5.4715
5.36526
0.0220112
0.257275
0.0216069
0.0220403
0.0950883
5.44929
0.100441
0.0320007
0.264064
0.0233317
0.0353458
0.0529377
0.862916
0.0225445
0.0216387
0.0226435
0.0237933
0.0298237
0.021986
2.02744
6.70943
0.0222776
0.0335567
0.0224494
0.0216657
5.18772
5.89818
4.2589
0.11206
0.0224201
0.0802019
5.06872
0.150293
0.140545
0.0355479
0.0309499
6.0656
0.370131
1.86368
0.021773
0.031754
0.0221355
0.0354263
4.89963
0.0216205
0.044956
0.0256133
0.0318525
0.0233538
0.0218561
0.0218925
5.33189
0.0623835
0.0371759
0.0992837
0.0373509
6.72332
0.0328548
0.565234
0.021961
4.21528
6.26775
5.96733
0.0222648
0.0393147
0.0220875
0.0220243
4.17208
0.0621975
4.11882
0.022018
0.0473923
0.189739
5.66353
0.0287355
0.0216574
5.7162
0.0222858
0.0222845
0.0228217
0.0220512
4.30091
0.021864
0.0219139
0.0391993
0.027883
0.180055
0.174273
0.0340681
5.64414
0.022071
0.272255
0.0218416
4.10428
0.0373283
0.723542
0.245255
4.25099
0.169542
4.31936
0.0238194
5.65491
0.034075
5.15383
0.297227
0.0281937
0.365641
0.022238
4.57324
0.0238708
0.0431348
0.0277942
11.586
0.217714
4.27828
0.032221
0.0220435
5.54632
0.394538
0.0765565
0.244317
5.60331
4.37339
0.0429484
0.510907
0.0550546
0.0219203
0.0566908
0.447921
0.0820359
32.4056
0.165263
0.0218155
0.0220609
0.191244
0.0220894
5.63679
0.0814267
0.0220944
3.73685
6.92935
0.420706
0.14286
0.022145
0.0296721
0.0260545
4.51574
4.22872
0.026092
5.45679
0.021944
0.0325017
4.73041
0.0220256
0.048305
0.0219527
0.0281894
0.0222516
0.193957
4.06549
0.030914
0.0305252
0.0217358
0.205972
0.0219592
0.0218554
0.0341931
0.0219479
0.347084
4.49542
12.043
5.43806
0.021813
4.07514
0.0221941
0.037828
0.18628
0.0222088
5.80288
0.0831924
0.0221178
0.0216498
0.0529052
0.0409984
0.230672
0.286613
0.0260191
0.0245287
5.16126
0.0910377
0.649667
2.70401
19.4465
1.77407
4.10187
6.95296
0.0221858
0.0221182
0.0542742
0.0223259
0.0612603
0.0475411
7.05752
4.13988
8.67236
0.0217127
0.0218216
0.160532
0.436229
4.19232
8.85007
3.99549
0.0566973
0.0338173
7.63909
0.548628
0.0294095
4.6448
0.034448
0.0366293
4.99354
0.0558561
0.0220767
4.49128
1.92428
0.0263067
0.203152
0.0235068
5.77698
5.85503
6.40361
0.0220368
0.0216863
0.221451
0.0220374
0.0220355
0.0220397
0.021744
0.0220438
0.0220488
4.18766
0.0297351
0.0491002
4.53298
0.0219232
0.0220567
0.0386615
0.0282529
0.0294398
0.0220636
0.0806103
0.033031
0.0268375
0.096048
5.44285
0.0220738
0.0568691
0.0220852
0.0220516
0.0215664
0.0220969
4.7967
0.0219772
0.022053
0.0221092
0.0496378
4.87703
4.65015
4.24982
10.3317
0.0605622
5.24625
5.7008
0.0219762
0.0445473
5.89191
0.312212
0.0221223
0.0322917
0.059499
0.0379554
0.022073
0.0527737
0.0606939
0.0465316
0.021628
0.0658242
6.44986
0.0215689
10.2463
4.92399
0.0451204
0.754172
0.0398661
0.0221016
0.0281102
0.0220448
0.311673
4.34543
0.0216978
0.0466507
0.0220067
0.0219869
0.0222843
0.0222862
0.0403087
0.0221786
0.173883
0.216517
0.0275531
0.0254823
0.0587871
0.0220622
0.0464078
0.0409237
0.0225884
0.0221133
0.0221477
5.14917
0.0220492
0.638175
0.05573
0.0222554
0.0220925
0.0217943
5.85123
0.0267016
0.0444007
0.0635595
4.41263
0.028671
5.24144
9.82217
0.0447873
0.0219992
0.453583
0.0455259
6.45074
0.0874586
4.10165
0.0216545
0.0591428
0.0571722
5.42418
0.0220406
0.0613024
4.45634
0.0218998
5.61649
7.01032
1.08445
0.0220133
0.0218348
5.52236
0.0220633
4.94887
0.290247
4.37234
5.69047
0.0218943
0.353767
0.432809
5.86681
0.0254511