/*--------------------------------*- C++ -*----------------------------------*\
| =========                 |                                                 |
| \\      /  F ield         | OpenFOAM: The Open Source CFD Toolbox           |
|  \\    /   O peration     | Version:  v2012                                 |
|   \\  /    A nd           | Website:  www.openfoam.com                      |
|    \\/     M anipulation  |                                                 |
\*---------------------------------------------------------------------------*/
FoamFile
{
    version     2.0;
    format      ascii;
    class       volVectorField;
    location    "850";
    object      U_0;
}
// * * * * * * * * * * * * * * * * * * * * * * * * * * * * * * * * * * * * * //

dimensions      [0 1 -1 0 0 0 0];


internalField   nonuniform List<vector> 
13851
(
(1.17876 0.197979 1.07341e-19)
(1.09624 -0.00434934 -2.80134e-20)
(1.09356 -0.0034217 1.89432e-20)
(-0.213674 -0.0118719 -2.06164e-19)
(1.00279 -0.00060748 2.17164e-21)
(1.11562 -0.0221094 -6.2306e-20)
(1.05538 0.0439438 -2.05525e-20)
(1.01602 -0.000743543 0)
(0.246557 0.112274 6.73881e-22)
(0.992489 -0.0179629 -9.98408e-21)
(1.24329 -0.10817 0)
(1.00276 -0.0122904 0)
(0.984495 -0.0346547 0)
(-0.105035 0.0266962 -4.68024e-22)
(1.12701 0.0703678 -6.16596e-20)
(1.02443 0.148589 2.19926e-21)
(-0.41293 -0.0176028 7.7851e-20)
(1.04622 -0.0142634 0)
(1.38016 0.152342 1.43007e-19)
(1.1838 0.192955 -9.66887e-20)
(1.15303 0.0659494 1.04488e-19)
(1.06818 -0.105668 -1.6984e-20)
(0.267503 -0.154869 1.10589e-19)
(1.0001 -0.000294955 7.83117e-23)
(0.724879 -0.00419979 -2.055e-19)
(1.0581 0.123807 -2.69759e-20)
(1.03151 0.234194 5.40671e-20)
(0.970379 0.205505 0)
(0.591561 0.116334 -6.59815e-21)
(1.02655 -0.0111108 4.07398e-21)
(-0.166376 -0.0291205 1.3904e-19)
(1.05635 0.0430328 1.3667e-20)
(1.15369 0.198196 2.72382e-21)
(0.228427 0.141438 6.3776e-20)
(1.19587 -0.0842885 -2.33835e-20)
(0.656165 0.114765 6.56276e-22)
(1.00006 -0.00026513 1.4838e-22)
(0.706467 -0.0987106 2.22852e-21)
(-0.182723 -0.0215934 2.03232e-19)
(1.01727 -0.0484635 7.97116e-22)
(-0.0529779 0.0647133 0)
(0.647483 0.128418 0)
(-0.258561 -0.00530355 -1.45258e-19)
(1.13561 -0.552203 -3.56833e-20)
(0.647823 0.148375 -6.91046e-22)
(1.02257 -0.0267442 3.15658e-21)
(1.01807 0.00100559 8.61706e-21)
(1.04444 0.169576 0)
(1.07058 -0.0601761 -1.13071e-20)
(0.983869 -0.0336947 -1.4521e-21)
(-0.514637 -0.0211285 2.46781e-19)
(0.975684 -0.0294314 -1.54651e-20)
(1.02702 0.149874 0)
(1.0709 0.0724979 0)
(0.0516239 0.0282368 0)
(1.01613 -0.0489892 4.40224e-22)
(1.15817 0.202001 -6.4276e-21)
(-0.0930772 0.0528341 -3.1e-20)
(1.00261 0.198904 1.50159e-20)
(-0.341387 0.00591505 -3.19607e-20)
(1.00253 -0.0116601 -1.10914e-21)
(1.03988 0.231768 0)
(0.995817 -0.0100142 7.57668e-21)
(1.07171 -0.0629456 1.66957e-20)
(0.895803 -0.512293 -5.89672e-22)
(0.875473 -0.533396 -4.06773e-21)
(-0.374039 -0.000888017 0)
(0.698256 -0.171011 7.80112e-20)
(1.0342 -0.0457761 0)
(-0.195344 -0.0171131 0)
(-0.24016 -0.0242018 0)
(1.17073 0.0788234 9.65089e-20)
(0.999806 -0.0384207 1.35679e-21)
(-0.345998 0.00405248 0)
(1.08425 0.0744029 1.99968e-20)
(1.04252 -0.0875968 -7.304e-21)
(-0.387957 -0.0224403 0)
(1.02504 -0.0034289 0)
(0.807524 0.000202702 2.41537e-19)
(1.00976 -0.0240575 0)
(1.03592 -0.0460997 0)
(1.41494 -0.114938 0)
(1.19037 -0.0869701 2.71962e-20)
(-0.134361 0.0276454 -4.52988e-20)
(-0.319086 0.00888608 3.8071e-21)
(-0.19102 -0.027368 0)
(1.07258 -0.106686 1.87677e-20)
(0.340254 0.0296673 3.4433e-21)
(0.994049 -0.0223177 4.88458e-21)
(-0.162012 -0.027257 5.49039e-20)
(0.974183 -0.0289863 1.51985e-20)
(1.05824 0.043702 1.55492e-20)
(-0.388196 -0.0172932 -8.65875e-21)
(-0.216855 -0.0254877 -1.04306e-19)
(-0.26441 -0.017443 0)
(1.12262 -0.510247 4.88485e-20)
(1.01723 -0.0303705 3.14902e-21)
(1.03279 0.161342 0)
(-0.505276 -0.0171126 2.76052e-20)
(1.30356 -0.24373 1.02917e-19)
(1.03226 0.165451 0)
(0.817379 -0.158141 0)
(0.819763 -0.192868 9.40857e-20)
(0.99584 -0.0416755 0)
(1.02677 -0.0250601 0)
(1.18782 0.0497202 0)
(1.02582 -0.0250342 0)
(-0.220954 -0.0261194 0)
(1.05915 0.0425385 -3.67804e-20)
(1.04487 -0.0139642 5.67832e-21)
(1.05796 -0.154998 -4.81204e-21)
(1.02361 -0.0269321 -6.13789e-21)
(1.35279 0.0224128 0)
(1.24859 -0.0198139 -5.37633e-20)
(1.11305 0.198351 0)
(1.07109 0.0700487 0)
(1.01855 -0.00830719 0)
(1.01664 -0.000820841 -7.64095e-21)
(-0.226678 -0.0101034 8.37033e-20)
(-0.165533 -0.0200581 0)
(1.15987 -0.428835 -4.55067e-20)
(1.03697 -0.0125237 -1.52329e-21)
(1.02854 -0.0480213 -3.24504e-21)
(-0.166901 0.045241 1.32787e-20)
(1.29947 0.194675 -1.09183e-19)
(0.620621 -0.258413 0)
(1.0177 -0.029798 0)
(1.19371 -0.177719 3.78763e-20)
(0.0011486 0.0897501 4.75289e-20)
(1.14402 0.0892936 8.23618e-20)
(1.06426 -0.108622 0)
(1.14627 -0.0593031 -5.27353e-20)
(0.868786 -0.124762 1.25445e-19)
(0.211724 0.138085 0)
(1.25025 -0.104133 -3.19105e-21)
(-0.263894 -0.0175895 -8.26378e-20)
(0.710798 -0.162503 0)
(-0.20576 -0.0263483 -2.93464e-20)
(0.85467 -0.125692 0)
(1.13309 0.0925082 -3.76277e-20)
(1.40672 -0.119392 0)
(0.983511 -0.0630017 1.75602e-20)
(0.993351 -0.0227489 -1.60585e-21)
(0.755063 -0.364676 7.43651e-20)
(0.744853 0.0359258 1.18485e-19)
(1.02584 -0.0881133 -1.51348e-21)
(1.02457 -0.00303627 1.5364e-21)
(-0.207088 -0.0257796 -1.04861e-19)
(0.319571 0.0845433 0)
(1.20054 -0.180902 0)
(1.03527 0.167459 -1.31668e-20)
(1.34864 0.0166039 -2.53192e-20)
(1.25568 -0.0182887 0)
(1.33203 0.152653 6.70319e-20)
(0.976496 -0.0400238 -8.27319e-21)
(0.985147 -0.0222583 -4.54319e-21)
(1.00239 -0.00961005 -5.09006e-23)
(-0.213859 -0.0237242 -2.41545e-19)
(1.1317 0.0842969 0)
(1.06814 0.029956 -2.00536e-20)
(1.0002 -0.000686642 1.78082e-21)
(0.616804 0.114623 0)
(1.18227 0.0504965 0)
(1.04788 0.171081 2.10667e-20)
(-0.097061 0.0244947 -2.87276e-20)
(0.416113 0.147439 -1.26247e-21)
(0.428284 0.153489 5.88176e-21)
(-0.490093 -0.0205327 -2.25799e-19)
(1.05826 -0.14902 -5.06943e-21)
(0.433999 0.0991871 -6.16967e-20)
(1.00203 -0.010881 -1.28592e-21)
(1.01836 -0.00785219 0)
(1.21806 0.0461847 8.35774e-20)
(1.00148 -0.000572064 0)
(-0.236606 -0.0136616 0)
(1.10001 0.271823 0)
(1.04985 0.189753 7.18231e-21)
(1.01896 -0.00761216 -5.95004e-21)
(1.07987 0.0753105 -3.96731e-20)
(1.04962 0.185138 0)
(1.28923 0.193432 1.23144e-19)
(1.14439 -0.532439 5.1125e-20)
(1.06433 -0.139843 0)
(1.1399 0.0882095 -6.28126e-20)
(-0.30064 -0.00960646 0)
(0.33537 0.0876139 -9.69736e-22)
(1.14804 0.201518 7.32604e-20)
(0.895596 -0.0984427 2.74368e-20)
(0.981304 -0.0398607 1.54158e-20)
(1.02606 -0.0173771 -4.12553e-21)
(0.846859 0.0407597 -1.17259e-19)
(1.13427 0.0823634 0)
(-0.129095 0.0144594 3.36363e-20)
(1.11713 -0.0184301 3.38853e-20)
(1.02751 -0.0853071 4.46455e-21)
(1.0298 0.155528 6.27154e-21)
(1.14368 0.19758 -5.88961e-20)
(1.05492 0.00235893 1.42182e-22)
(1.05643 -0.023023 -3.54155e-21)
(0.715324 -0.207526 -5.72406e-20)
(1.40179 -0.136634 1.42371e-19)
(-0.237131 -4.40369e-05 -8.09499e-23)
(-0.119851 0.0484314 2.80085e-20)
(1.12331 0.0709396 3.59608e-20)
(0.967822 -0.805958 2.72856e-20)
(-0.275353 -0.00156544 2.15583e-19)
(0.940079 -0.0449403 5.59638e-21)
(1.11203 0.0998461 0)
(0.220744 0.114246 -6.54217e-21)
(1.10958 -0.0353844 -3.32808e-20)
(1.02253 0.143459 3.40169e-20)
(1.0275 -0.0471653 0)
(1.41096 -0.132152 -1.46053e-19)
(1.00023 -0.00324864 -9.29853e-22)
(1.20124 -0.0729846 0)
(1.04832 -0.0963274 1.19507e-20)
(0.985021 -0.0321449 -2.05611e-20)
(1.21088 0.236434 -5.41996e-20)
(1.05819 -0.0099507 0)
(0.1732 -0.610812 0)
(1.01888 -0.00712159 1.08411e-20)
(1.19665 0.189831 -5.73692e-20)
(-0.164792 0.0193899 5.17304e-20)
(-0.252322 -0.0172964 0)
(0.909079 -0.107239 2.72607e-20)
(1.10997 0.101512 0)
(1.00006 -0.00162609 -1.22079e-21)
(0.757788 -0.342107 -1.493e-20)
(1.00453 -0.0191463 3.35938e-22)
(1.19616 -0.0752043 -2.62569e-20)
(-0.104173 -0.0237492 -9.96885e-20)
(0.901701 -0.0987683 -7.54645e-20)
(1.10872 -0.0323041 2.71344e-20)
(0.996311 -0.00729994 0)
(-0.137279 0.0466075 0)
(1.02726 -0.0105869 -4.10053e-21)
(0.661108 -0.354107 -8.40843e-20)
(-0.145052 0.0400868 0)
(1.29459 -0.236343 0)
(1.00014 -0.00065707 -1.28085e-21)
(1.37669 -0.397815 -1.17458e-19)
(-0.302436 0.00863988 -1.25646e-19)
(0.695152 0.156349 -1.23398e-21)
(1.0248 0.144653 -3.32502e-20)
(1.14495 0.0275145 0)
(0.717457 -0.398583 -4.07245e-20)
(1.21166 0.229025 -4.41253e-20)
(1.07802 0.0767521 4.39704e-20)
(1.12665 -0.490658 5.19941e-20)
(1.08203 -0.155837 -1.70104e-20)
(0.19029 0.0260009 5.58097e-21)
(1.26538 0.146833 1.83413e-20)
(1.01297 -0.000906469 1.97512e-22)
(1.1071 0.0146312 -1.62226e-20)
(1.02955 0.159674 -9.76268e-21)
(0.602662 0.10883 0)
(0.489273 0.0375393 1.40838e-21)
(1.02534 -0.0166399 -9.1047e-21)
(0.595894 -0.254406 -3.19573e-20)
(0.995108 -0.0229122 -1.12859e-20)
(1.14548 0.232875 3.85557e-21)
(1.30976 0.178678 0)
(1.10962 0.0163357 -5.03912e-22)
(1.18151 0.0572536 0)
(1.2739 0.146976 0)
(1.00561 -0.0344972 -3.62184e-21)
(0.813077 -0.168846 0)
(1.05847 0.166059 6.04153e-21)
(1.09417 0.248515 8.04079e-20)
(0.999096 -0.0148095 2.0933e-22)
(0.984645 -0.0311197 2.13813e-20)
(0.90318 -0.10627 -3.11541e-20)
(0.348481 0.157915 6.55117e-21)
(-0.268481 -0.00600124 -1.66184e-20)
(1.15683 0.0775408 -5.17185e-20)
(1.03837 -0.0127926 -7.65527e-21)
(1.28492 0.203681 1.22264e-19)
(1.32101 0.166193 -1.27637e-19)
(1.12658 0.187983 0)
(1.17724 0.0579967 6.08928e-21)
(0.299304 0.144453 0)
(-0.47971 -0.0119767 0)
(1.11829 0.00481333 1.62709e-20)
(1.11902 0.0620779 -3.08629e-20)
(0.658169 -0.111967 -1.31667e-19)
(1.0289 -0.0231979 0)
(1.00248 -0.0090231 2.06296e-22)
(1.13124 0.19177 0)
(1.21986 -0.130039 3.9962e-20)
(1.02881 -0.0102626 0)
(1.00025 -0.00315815 2.06724e-21)
(1.0044 -0.0197596 8.67669e-22)
(1.00569 -0.00081692 1.05513e-22)
(1.13526 0.0416191 8.59655e-20)
(1.00263 -0.00965815 -2.23732e-22)
(0.259888 0.119453 0)
(1.15577 0.0693842 -4.46591e-20)
(1.02159 -0.0398568 -5.12603e-21)
(0.61476 0.105967 -1.53898e-21)
(-0.182079 0.0401771 0)
(0.978011 -0.0347423 0)
(1.19195 0.195712 6.61123e-20)
(-0.51862 -0.0194541 2.49132e-19)
(0.982651 -0.0657886 8.21206e-21)
(0.976408 -0.0344222 -1.2175e-20)
(1.16061 0.070191 4.38691e-20)
(-0.193502 0.0147536 2.04997e-20)
(0.0104187 -0.0320637 4.62999e-20)
(1.21783 0.0727607 4.06905e-20)
(1.00309 -0.000794054 -1.24614e-21)
(0.474898 0.10914 -1.06966e-19)
(1.00227 -0.0115197 1.14179e-21)
(1.23022 0.0731935 -8.87557e-20)
(-0.492041 -0.0182263 -2.26342e-19)
(1.11697 0.260229 1.22893e-19)
(1.06679 0.028816 -1.50302e-20)
(0.781452 -0.143307 1.38655e-19)
(1.17797 -0.183391 1.03408e-19)
(-0.205617 -0.0274595 -1.12068e-20)
(1.34915 0.000838823 0)
(0.785439 -0.137625 -3.89565e-20)
(-0.217877 -0.01736 8.50786e-20)
(-0.113491 0.0618366 0)
(0.997469 0.203196 -9.10612e-20)
(1.05839 -0.0235243 0)
(-0.327247 -0.0185432 0)
(0.199063 0.00785302 1.73248e-20)
(0.470897 -0.51626 1.31003e-19)
(0.505218 -0.521475 -1.27882e-19)
(0.938863 -0.0463295 0)
(1.22481 0.0565463 9.92718e-20)
(0.963703 -0.147993 0)
(0.35364 0.0326697 2.93976e-22)
(0.79372 -0.187027 -2.6201e-21)
(1.0105 -0.00228279 0)
(1.0184 0.00108207 4.6343e-21)
(1.10733 -0.0870585 1.84929e-20)
(-0.228442 -0.028604 0)
(0.225108 -0.615246 8.60601e-20)
(1.02871 -0.0221479 0)
(-0.272095 -0.0174704 2.58029e-21)
(0.951455 -0.146202 0)
(1.14787 -0.063588 8.29856e-20)
(1.06783 0.0315392 4.3594e-20)
(-0.204889 0.0077517 -6.4021e-21)
(1.27749 0.203602 -1.3451e-19)
(1.02659 0.15395 0)
(1.04507 -0.0940778 -1.55018e-20)
(1.10479 -0.0319579 -1.4078e-20)
(0.737779 0.103809 0)
(0.981497 -0.0416017 -1.61264e-20)
(1.3339 0.162958 -6.69303e-20)
(1.11544 0.00619449 -1.77412e-20)
(1.16381 0.0679016 1.05422e-21)
(0.945396 -0.148947 -1.69432e-20)
(0.994457 -0.0231819 5.52401e-21)
(1.02241 -0.0389946 -5.63136e-22)
(1.34515 -0.0998269 2.57475e-20)
(1.31427 -0.239846 1.46102e-20)
(1.25579 0.156587 0)
(0.985339 -0.149372 -2.3901e-19)
(0.750135 0.107635 0)
(1.0277 -0.0896021 0)
(-0.164992 0.0396792 -6.83106e-20)
(1.15711 0.250629 0)
(1.03247 -0.00310145 1.08593e-20)
(1.08504 0.260626 -1.32032e-19)
(1.18574 0.150946 0)
(-0.481876 -0.0149545 1.0052e-19)
(1.10418 -0.0840808 7.509e-20)
(1.04635 0.120698 7.06756e-21)
(1.01017 0.197306 -5.08796e-21)
(0.779601 -0.0612559 9.81974e-20)
(1.33643 -0.11389 -1.15485e-20)
(0.321598 0.0340052 1.6973e-22)
(1.06626 -0.0367939 0)
(1.10708 0.279923 -9.18853e-21)
(-0.367603 -0.0119964 1.47143e-19)
(1.14133 0.0052212 -2.7169e-20)
(0.214898 0.0371005 0)
(1.15347 0.00420111 3.2763e-20)
(-0.112324 0.03843 9.62137e-20)
(1.11839 0.0595442 5.69511e-22)
(1.06075 0.0919497 -2.11618e-20)
(1.28089 0.132035 2.996e-20)
(1.34848 -0.215911 -8.56064e-20)
(0.985501 -0.0232045 -9.76507e-21)
(1.11611 -0.00465276 0)
(1.22572 -0.13432 5.27303e-20)
(1.0824 0.0761603 -2.24443e-20)
(1.02115 -0.0299477 -9.58621e-22)
(1.15515 0.081647 2.7817e-20)
(0.536869 0.204564 -2.14788e-21)
(1.00062 -0.0381685 4.55305e-21)
(1.11616 0.0993602 4.02748e-20)
(-0.232257 -0.00960722 1.91444e-19)
(1.09429 -0.03058 -1.04027e-20)
(1.21004 -0.519385 0)
(1.07775 0.101033 0)
(0.0426695 -0.0314684 8.53926e-20)
(1.11363 -0.0369664 -1.72245e-20)
(1.05966 0.121489 -3.49135e-21)
(0.934361 -0.773025 0)
(1.3121 0.185988 0)
(1.1903 0.0390824 1.05085e-19)
(0.467723 0.0303044 1.08986e-23)
(-0.332682 0.00276511 1.2269e-19)
(1.37231 -0.411546 1.56522e-19)
(1.00474 -0.0347653 0)
(1.34105 -0.0938633 0)
(1.15775 -0.00666832 0)
(1.04896 0.121337 -6.67224e-21)
(1.03594 -0.0154045 -3.46134e-21)
(-0.276399 -0.00576374 -8.88222e-21)
(0.435905 0.172817 -4.54694e-20)
(0.749609 -0.0344481 1.54134e-20)
(1.10361 -0.0291643 3.34149e-20)
(1.281 0.138263 0)
(1.05575 0.244381 0)
(-0.257535 -0.00760309 0)
(1.02577 0.00165873 -1.73633e-20)
(-0.362078 -0.0142641 0)
(1.36918 -0.201514 1.32016e-19)
(0.117093 -0.0867435 6.48437e-20)
(1.08773 -0.158981 0)
(0.876975 0.125619 -1.75869e-19)
(0.990842 -0.0296821 4.14168e-21)
(1.00172 -0.000489773 -9.42652e-22)
(0.0464039 0.0204569 0)
(1.06434 0.251186 -5.12066e-20)
(0.99189 -0.0188467 0)
(1.09661 -0.00667921 -8.83473e-21)
(1.11941 0.100594 -4.23452e-20)
(1.01677 -0.00953305 0)
(0.513435 0.186411 9.0314e-20)
(1.22452 0.0624132 0)
(1.18782 0.147106 0)
(1.09008 0.0353644 2.83982e-20)
(1.06675 -0.0349784 0)
(0.973017 -0.0235131 7.76368e-21)
(0.852382 -0.0722239 -2.52573e-19)
(1.01999 -0.0392399 2.38856e-21)
(0.97387 -0.0221805 -1.70495e-20)
(0.980289 0.182816 -1.69472e-21)
(0.569573 0.207967 8.70827e-21)
(1.05995 -0.106074 8.15396e-21)
(1.02034 0.199198 -2.95346e-21)
(0.995929 -0.00927674 9.66337e-22)
(1.0027 -0.0090659 -1.14106e-24)
(1.09775 -0.0311611 0)
(1.26266 0.15697 -2.14419e-20)
(1.07064 0.0996964 0)
(1.02142 -0.031827 -1.90418e-21)
(1.07659 -0.0212297 -1.41412e-20)
(1.16215 -0.416863 -4.33881e-20)
(1.0819 0.000988102 0)
(0.0649607 -0.0352376 -1.8587e-19)
(1.00285 -0.011371 0)
(1.08111 0.0541522 -3.48523e-20)
(0.652671 0.153127 7.0963e-22)
(0.957726 -0.197262 -2.7878e-20)
(1.01939 0.000254266 4.76106e-21)
(1.00141 -0.0103865 1.50367e-21)
(1.09036 0.0335544 -2.7777e-20)
(1.05789 0.00528332 4.16136e-22)
(1.33333 -0.461433 -1.45955e-19)
(0.96137 0.176017 0)
(1.14581 0.0307542 0)
(0.345714 -1.20557 -3.74568e-20)
(1.09971 -0.0284942 0)
(1.00223 -0.0161883 0)
(0.0904934 0.110227 -1.84908e-20)
(1.01416 0.201262 -8.77035e-21)
(0.888454 -0.160241 3.63282e-20)
(1.00294 -0.0422356 0)
(-0.126914 0.0576823 1.19353e-20)
(0.865069 -0.130795 1.97812e-20)
(1.10334 -0.658557 1.63011e-19)
(0.994903 -0.0408533 2.42015e-21)
(1.14965 -0.0507253 -8.96343e-22)
(1.3436 -0.110141 0)
(1.09516 0.0781605 -5.67872e-21)
(-0.0677952 0.0737771 0)
(1.04944 0.243616 -2.92717e-21)
(0.821904 -0.0429511 2.73322e-20)
(0.990024 -0.0917866 4.85212e-21)
(1.35349 0.00697936 0)
(1.00724 -0.0356291 1.3907e-21)
(0.577352 0.1107 6.7996e-21)
(1.08001 0.100275 -1.25818e-20)
(1.13868 0.197854 0)
(1.15465 -0.00388839 -1.47243e-20)
(1.04526 -0.0900823 -8.36237e-21)
(0.964957 -0.193739 0)
(1.21837 0.0532081 -1.979e-20)
(1.0025 -0.000732556 -1.30827e-21)
(-0.295829 -0.008765 -1.29492e-22)
(0.0449245 0.0980456 0)
(0.0863676 -0.0356429 1.54212e-19)
(-0.189119 0.00232022 4.69265e-21)
(0.966098 0.180921 -8.21395e-22)
(-0.389711 -0.0205692 -1.09035e-19)
(1.32277 0.175103 1.47153e-19)
(0.921609 -0.109975 0)
(0.999879 -0.00537248 -6.22839e-21)
(1.04978 -0.458169 0)
(0.992347 -0.017172 1.02965e-20)
(1.02057 -0.0292295 1.48615e-21)
(0.916881 -0.128649 0)
(-0.218606 -0.0111525 1.60615e-19)
(1.08956 0.00511079 -1.01905e-20)
(0.977769 -0.0586528 -9.79372e-21)
(1.11914 -0.335761 4.18253e-20)
(1.20711 -0.00101307 -9.38967e-21)
(0.989431 -0.01316 0)
(0.293453 -0.0018529 -6.94071e-20)
(1.01542 -0.0296109 1.41026e-21)
(0.0748822 0.106356 -3.81161e-20)
(1.33613 -0.447467 1.9388e-19)
(1.01043 -0.0246793 0)
(1.07749 0.0158262 -3.27332e-20)
(1.38588 -0.168967 2.40036e-21)
(1.06204 0.249675 0)
(1.02823 -0.0109041 -9.65408e-23)
(0.511706 -0.0656495 2.01402e-19)
(0.779135 -0.320613 0)
(1.03331 0.00616506 1.4257e-20)
(-0.201361 -0.0260314 -1.75954e-19)
(1.37244 0.156233 -1.38328e-19)
(1.20858 0.184992 0)
(0.988013 -0.0900149 0)
(0.980718 0.187986 2.56977e-21)
(-0.415675 -0.00370322 0)
(1.03427 0.00621685 0)
(1.40746 0.0402674 -1.05219e-20)
(1.03127 -0.0468816 0)
(1.01616 -0.0301611 -1.79255e-21)
(0.972047 0.143417 3.37687e-21)
(-0.108045 0.0369561 0)
(1.17779 -0.00188056 4.9882e-20)
(1.06909 0.0980603 0)
(0.991463 -0.0160695 1.3413e-20)
(1.07741 0.119583 0)
(0.0470197 0.0995907 5.77305e-21)
(-0.226853 -0.0208378 1.07998e-19)
(1.04006 0.00368856 0)
(-0.412201 -0.0173785 -7.80955e-20)
(1.02077 -0.0311959 1.51243e-21)
(1.03302 -0.0473784 3.50514e-21)
(1.19133 0.0432838 -1.11107e-19)
(1.07185 0.0583928 1.61776e-20)
(1.02574 0.00216137 4.70067e-21)
(1.03898 -0.0883002 9.23543e-21)
(-0.192888 -0.0266912 -1.43083e-21)
(1.34317 -0.211477 6.89352e-20)
(-0.217447 -0.0259719 1.95408e-19)
(1.08677 0.00343969 9.39238e-21)
(0.995511 -0.0236538 0)
(0.397093 0.163765 3.98152e-20)
(0.999836 -0.00732568 0)
(1.34556 -0.0782666 2.08951e-19)
(1.09145 0.0477491 0)
(1.08895 0.0731612 4.37173e-20)
(1.14819 0.0201685 -5.82424e-20)
(0.7967 0.173837 0)
(-0.458239 -0.00933489 -9.36779e-20)
(1.1145 -0.0120223 -4.27841e-21)
(-0.348033 -0.0142014 -1.37166e-19)
(1.06664 0.0250225 2.13338e-20)
(1.23916 0.0300598 2.91339e-21)
(0.657854 0.134966 0)
(0.0825473 0.0434753 8.55872e-21)
(1.02391 -0.0495143 0)
(1.00636 -0.0357795 0)
(0.827815 -0.202006 -6.93381e-20)
(-0.213226 -0.0256722 2.66304e-20)
(1.00776 0.16731 1.72269e-20)
(1.07572 0.117466 0)
(0.930525 -0.531973 1.69527e-19)
(1.07077 0.0595167 0)
(1.11448 0.059325 6.0094e-20)
(-0.0579458 -0.0273371 1.0025e-19)
(0.250339 -0.00879258 -1.73474e-20)
(1.13207 -0.403719 0)
(0.0558914 0.102955 -4.42824e-20)
(1.09139 0.221708 -7.31191e-22)
(0.753375 0.121151 -3.97987e-22)
(1.06058 -0.0365675 0)
(0.998021 0.196069 0)
(0.982479 0.133794 0)
(1.00147 -0.0144292 -2.36317e-21)
(-0.550584 -0.0231687 0)
(0.136449 0.0147142 1.37409e-19)
(1.06444 -0.146376 0)
(1.13738 0.0925462 3.8894e-20)
(1.01165 -0.0466254 9.6563e-22)
(0.468792 -0.914616 9.83909e-21)
(1.21109 -0.225088 1.13557e-19)
(0.270804 -0.105244 1.35125e-19)
(1.01935 -0.0400534 -3.56658e-21)
(1.00104 -0.000677221 8.15928e-22)
(0.915705 -0.0758912 0)
(1.20505 -0.00608987 5.0612e-20)
(1.00284 -0.0109042 -6.85776e-22)
(-0.2485 -0.0128807 -1.7218e-19)
(1.00121 -0.000806526 0)
(1.09643 0.220825 0)
(0.981994 -0.0892111 -6.52954e-22)
(1.04936 0.123672 0)
(0.99682 -0.0409018 0)
(0.98874 -0.0135352 0)
(1.14475 -0.189566 4.52728e-20)
(-0.412565 -0.0197477 2.20288e-19)
(1.19449 0.0296187 4.03387e-20)
(-0.281518 -0.0175722 9.26991e-20)
(1.15058 -0.0553097 0)
(1.01721 -0.0107442 0)
(1.03701 -0.0049928 0)
(1.2236 0.0430165 -3.93056e-20)
(1.07541 -0.0231029 1.57294e-20)
(1.3021 0.00550987 0)
(1.09663 0.00392406 0)
(0.887773 -0.151909 0)
(1.00045 0.190336 -1.73908e-20)
(0.999681 -0.00715703 7.12368e-21)
(0.516156 0.0263693 3.91649e-21)
(1.00012 -0.00220281 -1.92041e-21)
(1.0368 0.130877 0)
(-0.33265 -0.0135273 -6.75305e-20)
(0.550803 0.161163 4.21057e-21)
(0.884279 -0.0591964 8.63212e-21)
(0.446512 -0.171006 0)
(1.10592 -0.334564 2.42837e-21)
(1.30143 -0.302567 5.71329e-20)
(0.11467 0.0141049 -1.79466e-19)
(1.04353 0.00344284 -3.06447e-20)
(0.225443 -0.00832183 2.11865e-19)
(0.957944 -0.150976 0)
(1.14557 0.0060759 -3.11474e-20)
(-0.182508 -0.000560702 0)
(1.01113 0.0402638 0)
(1.03324 -0.00352381 7.93112e-21)
(1.29752 0.00116202 -9.11593e-21)
(1.05359 0.00314253 0)
(0.702815 0.110996 3.91244e-21)
(-0.498701 -0.0240262 1.97457e-19)
(1.0396 -0.0474226 -7.27493e-22)
(0.696768 -0.19662 -1.20247e-19)
(0.467312 0.163136 0)
(1.00002 -0.00202443 0)
(1.00004 -0.00271073 2.01173e-21)
(1.05557 0.123922 2.94234e-20)
(0.494617 0.0209487 -7.55063e-21)
(0.981493 0.191481 -6.83024e-22)
(0.976345 -0.0328973 2.94422e-20)
(1.29035 0.120038 4.10141e-20)
(1.07951 0.000259566 -2.80361e-20)
(0.987801 -0.0151421 -7.73945e-21)
(0.996221 0.183276 -2.26029e-21)
(1.28991 0.127187 -4.41061e-20)
(1.30969 -0.220672 -9.48626e-20)
(1.02408 0.0015062 3.70759e-21)
(1.06207 0.167513 -7.50514e-21)
(0.925238 -0.251564 0)
(1.05998 0.116245 -3.63341e-21)
(0.960053 -0.0391193 -1.60927e-20)
(1.02546 -0.0824994 -3.09316e-21)
(1.20119 -0.22431 -9.90123e-20)
(0.92011 -0.076456 -2.26216e-20)
(1.05181 0.167909 -4.79243e-22)
(1.16543 0.0798058 -2.47841e-20)
(1.17273 0.0740596 -5.01691e-20)
(1.11903 -0.388433 -1.09243e-20)
(1.20779 -0.758556 -1.13064e-19)
(1.38357 0.141931 3.9876e-20)
(0.758008 0.247671 1.586e-20)
(0.598805 -0.0664751 -6.20681e-20)
(1.03872 0.166542 0)
(-0.0730573 0.0432727 5.44232e-20)
(1.05688 -0.211169 -1.65499e-20)
(0.974145 0.146579 -5.06461e-21)
(1.20435 0.191441 -9.05696e-21)
(1.04245 -0.0171695 0)
(1.11324 0.0564102 -2.58769e-20)
(1.35726 0.135843 -4.47824e-22)
(1.09136 -0.0970619 0)
(1.00964 -0.0231619 0)
(1.00998 -0.0217776 0)
(1.03967 0.134719 1.52311e-20)
(0.320145 0.0277058 -4.97833e-21)
(1.08345 0.0549336 2.94452e-20)
(-0.186011 0.0322489 7.13901e-20)
(1.0171 -0.0112512 0)
(0.984653 0.197108 2.69211e-21)
(1.03285 -0.434308 2.55288e-21)
(-0.523303 -0.0200694 -2.47883e-19)
(1.29744 -0.00913137 1.60784e-19)
(1.11671 -0.0355096 -9.37384e-21)
(1.09367 -0.00061914 -2.02905e-20)
(-0.502983 -0.018478 3.14467e-19)
(1.31385 -0.214033 5.99494e-20)
(1.05706 -0.202954 0)
(1.05725 0.250756 2.83214e-20)
(1.06456 -0.0327126 0)
(1.10904 -0.430741 1.63964e-19)
(1.03714 0.133878 -1.09943e-21)
(1.10308 0.224315 0)
(1.15545 -0.0239316 -6.29304e-20)
(1.40816 -0.193009 -8.26981e-20)
(0.991684 -0.0299417 -4.80538e-21)
(1.00015 -0.00260622 1.69705e-21)
(0.943435 -0.0439134 9.62961e-21)
(0.987338 -0.0162211 0)
(0.622218 0.134273 -1.19434e-21)
(1.00537 -0.00100097 0)
(0.999306 0.180358 0)
(0.340679 0.152567 -4.27337e-20)
(1.30306 -0.0123021 -1.4088e-19)
(-0.216536 -0.0189823 -1.73482e-19)
(-0.488137 -0.0154105 6.5149e-20)
(1.10661 0.228255 0)
(1.31414 -0.299477 0)
(0.887878 -0.0663499 -8.15693e-21)
(0.998591 -0.00429944 1.40541e-20)
(0.985786 -0.0298812 -4.82159e-21)
(1.02407 -0.00407022 7.39555e-21)
(1.03626 -0.00539632 0)
(1.00142 -0.000748304 2.0243e-21)
(1.23552 0.0428014 -4.55649e-20)
(1.34314 0.0366922 0)
(0.922282 -0.264414 -7.69834e-21)
(1.03546 0.217953 8.18842e-20)
(1.04393 -0.074099 0)
(0.214347 0.108706 0)
(0.999949 -0.000379148 0)
(-0.188266 -0.0140504 0)
(1.17926 -0.0949936 5.52116e-20)
(0.999863 -0.000787424 0)
(0.997068 -0.00691042 6.78316e-21)
(0.512408 0.160174 0)
(1.11758 -0.0244649 5.80601e-20)
(1.02024 0.262272 8.72476e-21)
(0.155065 0.0174735 1.80082e-20)
(1.13088 0.0895498 0)
(1.17933 0.115561 -9.42353e-20)
(1.03212 0.00704322 -1.51133e-20)
(0.175615 0.128087 -6.88914e-20)
(1.00188 -0.102593 5.59331e-22)
(1.09167 0.00366969 2.76868e-21)
(0.996539 0.18792 1.99765e-20)
(0.998675 -0.00475825 5.64329e-21)
(0.981881 -0.0612674 -1.746e-20)
(1.04308 -0.00394531 0)
(1.08528 0.100643 -6.10548e-20)
(0.249932 0.029389 0)
(1.13674 -0.0516553 2.39606e-20)
(1.15593 -0.0150799 -2.3927e-22)
(1.37618 -0.212246 -1.54626e-19)
(-0.255841 -0.021527 3.10745e-23)
(0.892408 -0.0894043 2.85898e-20)
(1.00767 -0.129452 0)
(0.71774 0.131237 2.99868e-22)
(1.02349 -0.00395664 0)
(0.705724 0.126118 -6.81456e-22)
(1.00057 -0.00171534 -6.60973e-22)
(1.08193 0.00372572 3.1592e-20)
(0.832595 0.00820904 5.33744e-20)
(1.09985 0.152213 0)
(1.11881 0.196562 0)
(1.2875 -0.107772 8.2105e-20)
(1.19546 0.0345577 -5.95922e-20)
(0.999566 -0.00328051 4.98577e-21)
(0.999974 -0.000360556 -3.13756e-21)
(1.24635 0.0319532 -3.14964e-21)
(1.06248 -0.0358484 0)
(0.999648 -0.00277677 2.98251e-21)
(1.07795 0.0602368 2.41403e-20)
(1.34773 -0.258518 0)
(1.00669 -0.00728805 4.36592e-21)
(1.28505 -0.317979 7.47042e-21)
(1.25971 -0.519291 -5.30287e-20)
(1.01109 0.238792 6.03157e-21)
(1.2861 -0.100576 -7.84486e-20)
(-0.123419 -0.0296126 -5.07408e-20)
(0.845247 -0.129654 -6.17176e-21)
(0.998463 -0.00482945 -1.52468e-20)
(1.33107 -0.130172 9.43436e-20)
(1.01656 -0.012016 4.86976e-21)
(1.11635 -0.00133966 0)
(0.811828 0.260009 0)
(0.767102 0.10366 -4.7528e-22)
(0.215749 -0.00847339 -4.12258e-20)
(0.771512 0.143444 1.85822e-21)
(1.04432 -0.0467748 -7.36701e-21)
(1.03925 -0.0464353 1.8465e-20)
(1.00862 -0.329917 0)
(1.02072 -0.0801594 1.10757e-21)
(1.03064 -0.0192275 0)
(0.33689 -0.196664 -1.13378e-19)
(1.13897 0.236398 0)
(0.173556 0.0400345 -1.66709e-24)
(1.03451 0.130191 0)
(1.1023 0.154671 -1.44904e-20)
(0.986232 -0.0186502 -9.26283e-21)
(1.0265 -0.0117506 -1.10794e-20)
(1.07228 -0.301188 2.00577e-19)
(1.19374 0.144427 -1.24802e-19)
(1.08482 0.00505813 0)
(0.999789 -0.00165 -2.05533e-21)
(1.10873 0.195687 0)
(1.36361 -0.0230122 -1.28141e-19)
(-0.171485 0.0316572 -1.07494e-19)
(0.976318 -0.0379101 0)
(1.00143 -0.00481126 5.29759e-22)
(0.224459 0.022165 -2.86091e-21)
(0.96087 -0.0374814 0)
(1.15096 0.0121567 6.45268e-20)
(1.01622 -0.00903525 1.91613e-21)
(-0.204427 -0.00925336 -1.8958e-20)
(1.01239 -0.000544444 6.50189e-21)
(-0.329963 -0.0187672 1.10155e-19)
(0.995741 -0.0138984 2.08109e-21)
(1.28348 -0.239977 0)
(1.15193 0.0528097 -3.78638e-20)
(0.982336 -0.334315 0)
(1.15812 -0.0205935 7.77909e-20)
(0.998867 -0.0374919 -2.82354e-21)
(1.09709 -0.0109556 1.41884e-20)
(1.00473 -0.00534076 0)
(0.998427 0.172681 1.03087e-20)
(0.96568 -0.0464457 0)
(0.509917 0.0459744 3.51542e-21)
(1.0671 -0.0305645 4.30047e-20)
(0.988002 0.294713 0)
(0.167252 0.12596 8.65434e-20)
(1.14962 -0.0323064 0)
(1.00541 -0.00375079 0)
(-0.209658 -0.0123874 -2.58424e-19)
(0.955894 0.189009 -1.28589e-21)
(1.11796 -0.0109571 0)
(1.09508 0.150433 5.23317e-20)
(0.985573 -0.0289034 4.1872e-21)
(0.417613 0.0265373 -3.43774e-21)
(1.04369 -0.017582 -5.56073e-21)
(1.35979 0.127423 -3.97192e-20)
(1.00102 -0.0160243 0)
(1.00511 -0.00554515 -1.85536e-21)
(1.02449 0.258824 -3.20412e-21)
(1.1487 0.0237979 7.33956e-20)
(1.0016 -0.0110996 -1.48781e-21)
(1.07259 0.0737573 5.39466e-21)
(-0.0944303 0.0623812 0)
(0.729684 -0.870386 2.89598e-20)
(0.409607 0.151256 0)
(1.02435 -0.0169601 -4.04807e-21)
(-0.044975 0.0515019 -2.30991e-20)
(0.999013 -0.0155954 2.73553e-21)
(1.0064 -0.00689316 -3.39878e-21)
(0.978209 -0.0407553 7.98226e-21)
(1.01844 0.00118169 -6.28909e-21)
(0.999984 -0.00390561 -7.02071e-22)
(0.307128 0.110037 0)
(0.743734 0.251896 3.63391e-20)
(1.05929 -0.0111272 2.41472e-22)
(1.00126 -0.00110648 0)
(1.17943 0.00357706 -6.31224e-20)
(1.02421 -0.0266528 1.43801e-20)
(-0.18383 -0.016207 0)
(1.3384 -0.125805 -1.02592e-19)
(-0.096083 0.0325184 0)
(-0.202564 -0.0177938 -4.29127e-20)
(1.09706 -0.0128652 -6.08312e-20)
(1.05506 0.169536 2.50851e-20)
(1.00166 -0.0151665 2.15459e-21)
(1.15464 0.0611679 -7.37224e-20)
(1.02701 -0.41455 1.35861e-20)
(1.04236 0.00392458 2.67898e-20)
(1.00049 -0.00169092 0)
(1.34923 -0.369194 -2.41212e-20)
(-0.488991 -0.0234785 0)
(1.17419 0.114956 9.13894e-20)
(-0.413806 -0.0171602 -8.77016e-20)
(1.12947 0.125465 0)
(0.996192 -0.0101168 -8.34194e-21)
(1.18765 -0.0164091 6.34421e-21)
(1.09149 0.151444 -5.53161e-20)
(-0.449753 -0.0193651 0)
(1.13226 0.03879 0)
(1.00701 0.232107 -1.61849e-20)
(1.19976 0.145839 1.36857e-19)
(1.00039 -0.00351302 -1.75194e-21)
(0.110763 -0.0583435 0)
(0.0503447 -0.0389214 3.05392e-20)
(0.296202 0.0431986 -2.90045e-21)
(0.897825 0.0369498 1.19359e-19)
(0.971132 0.137031 -1.93039e-21)
(0.993398 -0.0921456 0)
(0.739683 -0.412858 4.41061e-20)
(0.97289 -0.0205882 -4.68736e-21)
(1.19003 0.30548 -5.14337e-20)
(1.08943 -0.0929054 -2.67975e-20)
(1.01028 -0.00183173 7.90705e-21)
(0.339337 0.130702 -1.32591e-19)
(1.03912 -0.0739639 -1.28877e-20)
(1.00529 -0.00344404 -3.81844e-21)
(1.02543 -0.0492124 0)
(1.037 -0.0721156 1.11104e-20)
(-0.234896 -0.0112187 -1.05906e-20)
(1.34428 0.149472 0)
(1.01739 -0.0174707 -8.27736e-21)
(1.19061 -0.011425 5.71301e-20)
(-0.164467 0.0234825 -6.42683e-20)
(1.06 -0.0630588 3.11889e-21)
(-0.427153 -0.0163751 1.2949e-19)
(0.964831 -0.0651232 -8.25337e-21)
(1.11987 0.14923 0)
(-0.148151 0.0239201 6.76494e-20)
(1.00247 -0.0101009 0)
(1.00452 0.168238 -2.51514e-22)
(1.10465 -0.11136 0)
(1.15454 -0.0332054 -1.63258e-22)
(0.679802 -0.898673 0)
(1.04196 -0.0725568 1.81948e-21)
(1.41136 -0.0976574 0)
(1.05823 0.118988 3.21731e-21)
(-0.0395137 0.0720776 5.84693e-20)
(1.05214 0.0118508 -1.6831e-20)
(0.425496 0.0411839 -7.0185e-21)
(1.14007 0.000641213 -2.72463e-20)
(-0.209004 0.0297999 1.30762e-20)
(-0.485895 -0.0205067 0)
(0.402833 0.0303892 0)
(1.12389 0.0931995 -3.39729e-20)
(0.995301 -0.0366977 3.85307e-21)
(1.04385 -0.0484557 -1.09284e-20)
(0.999994 -0.00202408 3.61126e-21)
(1.06112 0.0896043 -4.22162e-22)
(0.997326 -0.0089222 0)
(-0.0538249 0.0770088 0)
(1.0591 -0.136624 5.04848e-21)
(0.936585 -0.117538 -8.84048e-21)
(0.894796 -0.0856056 0)
(0.995506 -0.0903023 0)
(1.02369 -0.0163592 -7.65518e-21)
(1.06114 0.0568057 -1.19033e-20)
(1.09892 -0.092973 1.56921e-20)
(1.07794 0.0138854 5.79927e-22)
(1.07415 -0.111011 2.28042e-20)
(0.0610915 0.016748 -2.0126e-19)
(0.99804 0.165293 7.7709e-21)
(1.13239 0.0139311 -6.48476e-21)
(1.17119 -0.175926 -1.52023e-20)
(0.367146 0.131901 9.43246e-20)
(0.978925 -0.0612087 4.14456e-21)
(-0.219335 -0.0269824 1.24273e-20)
(1.02291 -0.0043006 0)
(1.06316 -0.16594 0)
(0.963593 -0.0454514 0)
(1.03443 -0.0303079 1.44718e-20)
(1.12506 -0.194073 0)
(1.00211 -0.0168184 1.48452e-21)
(1.01764 -0.0169115 -3.93543e-23)