/*--------------------------------*- C++ -*----------------------------------*\
| =========                 |                                                 |
| \\      /  F ield         | OpenFOAM: The Open Source CFD Toolbox           |
|  \\    /   O peration     | Version:  v2012                                 |
|   \\  /    A nd           | Website:  www.openfoam.com                      |
|    \\/     M anipulation  |                                                 |
\*---------------------------------------------------------------------------*/
FoamFile
{
    version     2.0;
    format      ascii;
    class       volScalarField;
    location    "500";
    object      omega_0;
}
// * * * * * * * * * * * * * * * * * * * * * * * * * * * * * * * * * * * * * //

dimensions      [0 0 -1 0 0 0 0];


internalField   nonuniform List<scalar> 
13917
(
4.8672
0.0458375
0.211637
0.0223823
0.0344514
0.0451979
0.0256575
0.355512
0.0244127
5.6658
0.111169
0.022038
0.025593
1.13652
0.0312945
6.47819
0.02176
0.0643888
0.0926849
7.65262
0.0352876
0.0228582
0.0375502
0.0228741
0.0235714
0.0381835
1.8017
7.43075
0.0517668
0.0213887
6.32449
0.0501847
0.0225291
2.53944
0.0228173
0.795681
0.0251311
0.0269198
0.025705
0.0381113
0.0228604
0.0225421
0.0234528
0.0839058
0.0832229
2.26222
0.033427
4.88033
1.28584
0.0228548
0.0220098
0.11253
15.0966
0.0221957
0.0222593
0.110025
9.86372
0.037503
0.0223315
2.26418
2.47574
0.0320085
0.0210922
0.0233899
2.72969
0.243276
0.0573416
0.717347
0.110122
5.31002
2.89206
2.69935
0.0218313
0.0220922
0.0361479
0.0242841
0.0280086
0.0219327
0.0240251
0.0226165
0.0233578
0.021839
0.0218093
3.04654
0.0212143
1.61348
0.0488346
0.0219102
0.0376712
0.0216437
0.0206618
0.0235461
1.26638
0.0220876
0.0230095
0.0574122
1.81995
0.0223953
0.0217551
1.00754
0.0216868
0.021582
0.023385
0.0218313
0.0279763
3.32548
2.71611
0.0319061
0.0228522
1.74169
0.0215849
2.48157
0.0516195
3.54859
2.7665
0.0247824
0.0855491
0.0206156
0.15425
0.0217195
0.0216029
0.0216483
0.0660689
0.0777754
4.86778
3.04558
0.0231911
0.0381504
0.0220224
0.0791717
0.0286026
1.9632
2.95039
0.024752
0.0585944
1.7054
2.26576
4.72635
0.0411647
0.0268465
0.840518
0.0217758
3.3299
0.021584
0.0217643
0.0247332
2.90938
0.667695
5.56037
0.0222409
0.0349765
0.0213237
0.0217357
0.0217256
1.77258
0.0246101
0.0217307
2.90329
0.0217886
0.0208891
0.0212712
2.28598
0.0279312
0.830036
2.48413
1.87739
20.8898
3.4505
0.0199009
0.0437791
0.0231868
2.83298
0.0243448
2.2163
0.0620796
0.0215576
0.0223737
0.127424
0.0281785
0.0286626
0.02341
0.0229811
0.0220158
1.65034
0.158185
1.99811
0.0219925
1.84563
0.0214014
1.4604
0.0627447
0.0765317
0.141144
4.71577
0.0221027
4.69926
0.0257794
3.05836
0.0227158
0.0240977
0.031174
5.13229
6.06304
0.0248737
1.8405
0.0396207
0.0353428
0.0217919
0.127417
0.0233648
0.021309
0.0421837
0.0471561
5.37589
0.0569297
0.0401276
2.33824
0.0239361
0.020518
0.0204999
3.62313
0.349683
2.33592
0.0214216
0.0212329
1.64264
5.68268
0.0204424
0.0204256
0.0227607
0.0205278
0.0205147
2.87307
4.50191
0.0229437
0.0200119
0.0636826
2.94461
0.021656
0.0214188
1.80801
3.37205
0.888653
2.33344
0.0925365
0.021593
3.25207
0.0661001
0.0478371
0.0591377
0.0245303
4.99676
0.0217389
0.0387104
0.055811
0.0231936
0.0228459
0.0233359
0.0320855
0.0228729
3.27076
1.11352
0.0217596
0.02043
0.0248052
0.0204382
0.0217416
0.0255417
0.0328775
0.0219163
3.71933
2.53729
0.0217511
0.0290922
2.25723
0.0203158
0.161031
2.87566
0.0203295
3.87558
0.0226582
2.29581
0.0217701
0.0292492
0.023331
0.0215917
0.144854
0.0240627
1.90565
0.028003
1.08471
0.0253173
1.92066
4.98175
0.020929
0.0430248
0.032843
0.0251823
0.0337344
0.0239275
0.0222488
0.0235638
0.128327
0.0410122
0.0377997
0.0237712
0.0214038
2.96031
7.64573
0.021873
0.0267012
0.0252105
0.221026
0.0938393
2.4132
2.14398
0.241824
1.55658
0.0286411
3.01564
0.341126
0.185334
0.0252045
0.0309946
1.83175
0.0238451
0.0492867
0.0753538
0.0218742
2.8325
0.0212759
0.0328787
0.0205825
17.0613
0.0209502
0.0355812
0.0402027
0.238183
0.0213698
0.0586922
3.24044
0.0228167
0.0238367
2.41111
3.27801
2.20784
1.15469
0.0203039
0.0227702
3.41073
1.38545
0.020323
0.0337103
0.0220733
0.0567025
0.0364603
0.101059
0.0921143
0.137759
0.032906
2.80494
0.0220917
0.0228181
0.0361643
0.16913
0.0219991
5.72477
0.0326418
0.30447
0.022342
0.250239
0.0267404
1.2627
0.0223742
2.28138
2.27784
0.0432705
0.0217895
2.75704
0.0208779
2.5407
0.141877
0.0223646
1.29014
0.0240774
0.0308101
0.0211503
6.61132
0.0427539
0.0244214
1.61639
0.0956033
0.0240926
2.14316
0.170198
0.0238853
0.149201
0.0225312
0.101743
0.179289
0.0213096
0.0250632
0.0236944
0.0215184
0.0210468
0.0221835
2.2465
1.83616
0.0225463
0.0223726
0.0225401
0.0429291
0.925975
0.0203763
0.0199023
0.0927859
0.195755
0.0216404
0.0242475
2.06695
1.52631
0.24768
0.098593
2.98526
0.0209654
0.0203302
0.0325962
0.0210271
0.0203873
0.0230854
0.0203494
0.020902
3.66214
0.0225974
0.0403014
3.35935
0.0430023
0.021346
0.0217209
2.15779
0.0314371
5.99312
0.0205119
0.0214356
0.0209543
0.0205371
0.0250171
0.0244812
2.06291
0.0251106
3.37945
0.0214314
0.0304779
0.0255721
0.023294
0.0884571
2.17708
0.0220192
1.45759
0.0214025
0.0216574
0.0224708
0.0240946
0.0212128
0.0228543
2.90303
2.36912
0.0211749
1.91608
0.0918014
0.0219958
0.0468139
0.0518961
2.20098
0.0255383
3.32207
0.201139
0.162795
0.0244967
0.241827
0.0261025
0.024388
2.44614
0.0207805
0.0221008
0.0229975
0.0247404
0.0338745
0.14946
0.0425399
0.0247445
0.0304181
0.064491
0.0519315
0.0225549
1.10524
0.0319746
0.0279511
2.41018
0.0212225
0.0539364
0.258213
0.0209519
2.72303
0.0218195
0.02053
0.0439032
0.0205138
0.0234506
0.129042
2.97241
1.52147
0.0212542
0.0224769
0.0245255
2.4063
2.0919
0.0224265
0.0222291
0.0212182
0.0511144
0.15153
0.0222087
0.0216534
0.0239591
0.0214585
0.0299498
0.0274565
0.0209489
0.0433289
0.0209538
0.0225746
0.0235591
2.43401
0.0205652
0.0234598
0.022883
0.0298529
0.0544312
0.0634088
0.0583684
1.53319
0.0233814
0.0661875
3.10278
3.60103
2.98346
0.0217311
0.0224201
0.0253766
0.0215803
2.79008
0.0203478
0.873005
0.0257164
3.09749
0.270827
0.0234698
3.4417
0.0211734
0.0461887
0.0223154
0.024327
3.0354
0.0204185
0.15599
0.0213427
0.0232098
0.0224877
0.147238
0.0302132
0.0204045
0.0839781
0.0459458
0.715111
2.9182
3.05836
2.25331
0.0205727
5.53152
0.0205469
2.31456
0.696365
0.0249582
0.0263411
0.0215783
0.0316836
0.023248
0.0204386
0.0224011
0.0255319
2.8888
0.0213247
0.0458315
0.0220618
0.0203869
0.0213832
2.18971
2.48335
8.87443
0.0557042
0.0272558
2.6277
2.81874
0.021213
2.3299
0.0251554
0.0691342
0.0215825
2.75377
0.0214256
0.0303389
0.0217819
0.712035
0.0328067
2.59658
0.0210224
0.0319741
0.0227665
0.0219784
2.64949
1.82951
0.0232105
0.115968
0.0214035
0.0237113
0.0215283
2.47145
0.0213272
0.0327489
0.0203346
0.0229804
0.163871
0.0214065
0.101088
0.0219557
0.020949
2.43084
0.0469988
0.0223532
16.6117
0.158685
0.362106
0.393755
0.0211377
0.0327592
2.60063
0.142636
0.0312351
0.0251109
0.0309004
0.0217873
0.0220856
0.244427
0.0593653
0.0252279
2.68408
0.0331362
1.19071
2.08388
0.0415084
0.033605
0.138024
3.42583
0.0222601
0.0359523
0.240478
0.0209573
0.0211833
0.0213459
0.02509
0.0233111
5.27265
0.0294263
0.0215372
0.0701665
0.0209737
2.33175
0.0226449
0.0220206
2.87311
0.0507669
0.362265
0.021909
0.0219917
0.0220291
0.0222101
0.0266732
0.0216343
5.50344
0.0297906
0.372712
0.338005
0.0358973
3.09406
0.0224982
0.0225661
0.0229101
2.74595
1.56296
0.0261424
5.3102
0.842724
0.0209703
0.0219424
0.0250916
3.27717
0.334719
0.0332149
0.0221867
0.0234761
0.0712502
0.0275435
0.100097
0.0296328
0.022941
0.0226543
0.0225659
0.0266116
0.0304282
0.140756
0.0257069
0.0259868
5.2675
0.0268023
0.846635
0.0246834
0.0380341
0.0254124
0.152674
0.0215403
0.0437327
2.53238
0.217453
0.0215991
0.025687
0.0250484
0.0214678
0.0217564
0.0385401
0.0255611
2.08249
0.101946
0.021098
0.257464
0.0243745
0.0248015
0.121391
0.0229305
0.0461558
1.86931
0.0204307
0.0505792
0.0758679
0.0294326
0.0216152
0.0212503
0.0220755
6.60788
0.0224955
0.0229375
0.0326172
0.0216747
0.0214708
0.102623
1.89423
0.0504361
1.52104
0.0521093
3.44688
0.0217578
0.028786
2.6249
0.0249406
0.0352387
0.0215591
0.0211916
0.0219049
0.0263181
0.0658943
0.0216163
0.196208
0.0237064
0.705288
0.0247031
0.0254257
0.0205932
0.0599582
0.0295235
2.23887
0.0527249
0.0219411
2.4689
0.0227696
3.50615
0.0230911
0.0948315
0.026657
0.0215908
0.0215762
2.75119
0.0266349
0.536995
1.45344
0.0214552
0.0297009
0.0199922
0.0291138
0.110938
0.0200513
3.20268
0.0234825
0.102764
0.0839239
0.0883635
0.0206376
0.0213665
0.103361
0.0211373
0.0221722
0.023603
0.022367
0.0327937
0.0206183
1.28422
0.0229665
5.20444
3.60814
0.230137
3.41818
1.48653
6.92621
0.18104
0.0209175
0.02346
0.0217257
0.0228874
0.0212325
0.0267101
0.0214507
0.916793
0.0222181
2.86811
0.0224055
0.0273275
0.089725
0.0218612
0.0405112
0.0227884
0.0247478
0.0254068
0.0208677
3.19536
0.0636038
0.247329
0.0218705
0.0215596
0.0234245
0.0238478
2.37043
0.0209423
1.80806
0.0213764
0.277892
0.0289121
0.0215383
0.0449808
0.0324316
0.0209677
0.314317
2.39706
0.0254906
0.0592925
0.0211403
1.27784
0.0214155
0.0238321
3.19575
0.0215343
0.0224562
0.0687775
3.54367
0.0216225
0.256763
2.68829
0.0226038
0.0254257
0.0224336
2.94231
0.0215365
0.0909158
0.0218914
2.76082
0.0292925
1.93178
0.0223757
0.0203308
0.0655437
0.0242336
0.0260056
3.19813
0.0237319
0.0210747
0.736225
0.0225898
0.023451
0.0581014
0.0237817
2.74449
0.0382954
0.0520479
0.208082
0.0234398
2.7049
0.0232672
0.0539995
0.0214753
3.20148
0.263523
0.0219467
0.0214143
0.0238635
0.0224137
0.0211321
0.021111
0.0219073
0.0215542
0.0279378
0.0204309
0.0235059
0.0539281
2.65544
2.21761
0.0638051
0.0234321
0.0681465
0.0213676
2.58474
0.14244
21.4727
0.0204559
0.0209371
0.0219499
0.0222088
0.0204267
0.0209432
0.0213984
0.0344671
0.0210793
10.6519
0.531493
0.0212372
2.80959
0.0214877
0.0221959
0.0311728
2.41628
0.057664
0.0212317
0.377556
0.0224141
0.0222945
0.790304
0.0237005
1.69081
0.0225236
0.441109
0.0213475
0.0217788
0.0314347
0.0650557
0.0232765
2.60573
0.0337344
0.0244276
0.0259643
0.0215631
0.0212114
0.0660921
0.0288965
0.0250789
2.60375
8.66377
0.0599039
0.0694846
0.0217742
2.74274
0.0216563
2.06291
0.0531422
0.0251183
0.0230989
1.87561
1.49444
3.08923
0.0228221
0.709194
0.021052
0.0214512
0.0294846
0.0228928
0.0218694
2.02498
3.7957
0.0217756
0.0253584
3.00901
0.0213121
0.0203426
0.864489
2.2489
0.0227526
0.020656
0.0254445
0.0217064
0.0222074
0.0385238
0.0275074
0.021693
0.519374
0.0226694
0.0295311
0.114414
0.032723
3.09785
0.0219326
0.0223624
0.0252127
3.59735
0.0268481
0.0266975
0.0331916
0.0220396
0.0225624
0.0217467
2.20207
0.0267411
0.0242696
0.0412384
0.0215419
0.228722
0.0587068
0.0853805
0.0429353
2.42917
0.329671
2.10985
2.5228
0.0268467
2.43014
0.0203636
0.049763
0.0654635
0.112569
0.0242853
0.0243453
0.0252257
1.11785
0.0240269
2.19057
0.0316375
0.0797846
2.09581
0.0211801
0.0689614
0.0241033
0.0222669
0.0313995
0.0286331
0.0204859
0.0210242
0.0231239
3.22369
0.021097
0.0237984
0.0232211
0.0232301
0.0218503
0.0883964
0.0487736
0.0242647
0.0217975
0.451278
0.0252349
0.0410986
2.77248
0.0219991
0.0215182
1.53279
0.0229508
0.0240677
2.54832
2.96625
0.0341484
0.0503906
0.0279374
7.09512
1.82965
0.0325847
2.87432
0.0221203
0.0652869
2.41266
0.158064
0.319282
1.23934
0.0208575
0.0225144
0.0260356
0.0218807
0.022675
0.135509
0.0215138
0.0380217
0.0207208
0.0415938
2.16344
0.0238668
2.36399
1.4544
0.0215239
0.0529981
0.0281309
0.0234739
0.0214787
2.82285
0.0545412
3.28868
0.0274916
3.04416
0.0788696
0.0217059
0.300323
0.0315806
0.0247781
0.0215773
2.18272
0.021482
0.0262341
0.0375097
0.0272966
0.0220612
0.0425836
1.94075
0.0212926
1.76627
0.507042
0.0221913
0.0213428
0.0247205
3.04729
2.57145
0.0214602
0.0268923
0.0225964
0.110829
6.08535
0.0218151
0.0210737
0.0208482
0.0215668
0.0280105
0.0249538
3.1394
0.0239783
0.0238963
0.0288394
0.0242448
0.063018
2.24497
2.89051
0.0219243
0.0220702
0.021001
0.0234058
0.0489951
3.30627
0.233361
0.0920963
0.0310059
0.038945
0.0231925
0.0990815
0.0260572
0.0810661
0.0220896
1.13462
0.0397639
0.0212698
0.0218621
2.41395
0.0412494
0.0281635
2.70218
0.11834
0.0220325
2.241
0.0255051
0.0213039
2.27606
0.494619
0.0221286
0.0342119
0.0839863
0.0330983
0.0224907
0.0205884
0.0213669
0.0213089
0.0214474
0.0281806
0.0474726
4.0201
0.0334363
0.025104
0.0279152
0.0756656
0.0217268
0.0341191
2.21417
0.167581
2.66783
0.0238885
0.0205617
3.07392
0.0212332
0.0247337
0.0230386
0.040711
0.022344
0.0213085
1.70285
0.0256678
0.0238639
0.0215509
1.7337
2.5987
2.88183
0.0233271
0.0223837
1.2774
0.0208515
0.0210082
0.217412
0.314628
0.0268467
0.0298037
0.0224229
3.16651
0.0213275
0.026839
0.0220563
0.020539
0.167514
0.0213321
0.0212701
2.0407
0.043446
1.79997
0.155877
0.0212565
0.0276209
0.0214731
0.0219519
0.0261441
0.0230625
0.0219732
0.150868
0.0218049
0.0594254
0.030771
0.0252882
0.0217209
0.0266277
0.0220865
2.85921
0.0203844
0.883221
0.0513783
0.0235385
0.0402954
0.0296833
0.0278155
0.0218976
0.0296934
0.02125
0.0212689
0.24724
0.0405921
0.0268997
0.0217028
0.0225419
0.0211245
0.0676829
0.0215244
2.29772
0.0385638
0.0219131
0.0213748
0.0209903
0.0386844
0.0263645
1.50081
0.0354952
0.24481
0.0253327
0.0876764
0.0254959
2.40543
0.0207148
0.0203531
0.0250651
0.260136
0.0210404
2.40891
0.0222353
0.0218481
0.310137
2.21747
7.69255
0.222969
0.0252495
1.18508
0.0267033
0.0210355
2.40565
0.0214944
0.021546
2.01016
0.0208564
2.39701
0.146892
0.0213469
0.0215749
0.0211014
3.12981
0.0217704
0.0205854
0.0553636
0.0212671
0.0214264
0.0225059
0.0210098
0.0355096
0.0218666
0.027544
0.0208734
1.89443
0.0532531
0.020894
0.0209084
0.0227026
0.0213603
0.0235006
0.0234338
0.0224547
0.0218816
0.0216615
0.023202
0.0217352
0.0680511
0.0209857
0.0606572
0.0227139
0.0522963
0.0213934
0.021937
0.0215893
0.0204205
0.0353286
0.028929
0.02417
1.78877
0.0249632
2.80807
2.26079
0.0592853
3.45462
0.0225127
0.0216984
1.88884
2.03525
0.0212086
2.92317
0.0211515
0.0849357
0.804968
0.0234755
0.063449
1.18811
1.51038
0.0213872
0.0365389
0.0212693
0.0375807
0.0238326
2.5341
6.52129
0.0220511
0.0509164
1.94796
0.0218768
2.36949
0.228217
0.0237877
0.021037
0.231721
2.86184
0.021028
0.0281485
0.0227472
1.91129
0.124625
0.0219797
0.0214594
2.93892
0.0218644
0.0215271
0.0222577
0.0210595
2.40541
0.0323156
0.0267546
2.67539
0.0214514
0.0585211
0.0218071
0.236426
0.0474555
0.0375691
0.0213309
0.0260447
0.0207526
0.0220037
0.0232851
0.0218606
2.402
0.0232779
0.0211415
0.0212983
0.250574
0.0210289
0.318534
2.12173
0.826592
0.0226891
0.0215897
0.0213434
0.31487
0.0223843
3.29758
0.0214757
1.7652
0.0237761
0.0247459
1.03469
0.0221438
0.0216229
2.93406
0.0852516
2.39114
0.0235142
3.14522
1.45577
0.0221805
2.67888
0.0224069
0.0278461
2.94746
0.025007
0.0442049
3.37939
0.0317807
0.0515583
0.0216972
3.08973
0.0215181
0.19697
0.0213373
3.90793
0.0215348
0.0216374
0.0263537
0.713598
0.0216564
0.024712
0.060488
1.29936
0.0214191
0.0299051
2.92519
0.555184
2.14684
0.0639098
0.0213919
0.0913918
1.77792
0.0253934
2.62455
0.0203554
0.1378
5.81988
0.0217853
5.98872
0.0213774
3.19082
2.39691
0.0242586
0.0266898
0.0909001
0.862837
0.0215313
0.0229781
0.0211004
0.0221147
3.02096
0.055001
0.612123
0.0231123
0.0268058
2.41773
0.0291059
0.181619
2.98791
0.0212123
0.0214676
0.156585
2.03702
1.99974
0.83077
0.144709
0.0376962
0.0510154
2.91116
2.25852
0.199476
0.0210375
0.0638866
0.0381545
0.062275
0.021701
0.0247267
0.0516012
1.3595
0.83396
0.0228417
1.38569
2.67009
0.044421
0.0214986
0.0215058
0.340752
0.0217013
2.95407
0.0273672
0.0216809
1.9358
0.0285263
0.0208833
0.0320372
0.0273282
0.0217223
3.23844
0.0260912
3.18917
0.0218299
2.53743
2.47812
0.157123
0.0204168
0.0265957
0.0322507
1.72491
0.109943
0.0504121
3.00331
1.83616
0.0201703
0.0257123
0.0242318
0.10314
5.86086
0.0206706
0.0208562
0.0231435
2.17848
1.70475
0.0219547
0.0463099
1.9342
0.0210558
0.0275723
0.0250249
3.17358
0.0301972
0.0399677
3.3401
0.0266528
0.0258873
2.65543
0.0213426
0.0478133
2.66789
0.0264781
0.0939286
0.0275182
0.0434239
2.03704
3.10939
0.0216831
1.04947
1.83272
0.0208656
0.0937742
0.0531094
0.116324
2.4518
1.95859
0.791889
0.0937734
2.49946
0.0267698
0.0470231
0.0207605
0.0218722
0.0218107
0.021204
1.03057
1.43011
0.0204843
0.0499354
0.138534
0.0213167
0.365978
2.63754
0.0215251
0.0223279
0.0209062
0.0234937
0.0350634
0.0215163
3.13187
0.0272231
0.0577876
0.0277652
0.060418
0.0517988
0.0365276
1.3657
0.0217295
0.0236194
0.0204458
0.0216942
3.00449
0.0654292
0.0295401
2.83211
0.0232165
0.0230465
0.0338391
0.0212101
0.021898
0.0716568
0.0249639
2.83768
1.75645
2.20629
0.0217016
1.99087
0.0214185
1.69581
0.0208622
0.110474
1.90353
0.0219132
2.16628
3.06665
0.032939
0.0232439
0.0207884
0.0279196
2.20465
0.0210227
0.0219566
0.0238368
0.0273887
0.157197
0.0234601
0.0253254
0.0211817
0.0232248
2.65248
0.0308766
0.0261497
0.103421
0.232075
2.60725
1.03086
0.0246478
0.0236127
2.69767
0.0217516
0.050525
0.0217433
3.08403
0.0243081
0.0235571
0.0373447
2.26287
0.0214646
0.0213299
0.0206844
0.0978706
10.119
0.111638
0.0215327
0.0254693
0.0210998
2.73766
0.0212995
2.85387
0.0426331
0.0232199
2.18134
0.0371011
0.25742
0.0220906
0.021006
0.0290968
0.0435313
0.324162
0.0218915
0.022663
0.0240815
2.35799
0.0221344
0.0227381
3.07836
0.0238392
0.0280397
0.0242503
0.0219444
0.0224398
0.674601
0.0230626
1.22611
0.247964
0.0200335
1.55656
0.022321
0.0914283
0.0438685
0.0231629
0.0204626
0.0200137
0.0215081
1.17916
0.0366767
2.91383
2.3077
0.0212844
0.0251657
0.0373478
2.8344
0.0215357
0.0363596
3.06687
3.08439
0.0216884
0.0231471
0.0222853
0.129258
2.95935
0.0215723
0.0216108
0.0278467
3.31852
0.0218318
0.0231788
0.0241794
0.0818828
2.69682
0.020731
2.17466
0.032333
0.0214866
2.33438
0.0426812
1.54334
1.09635
0.0322674
0.0280951
0.0227356
0.0280463
0.0229289
0.065477
0.0462944
0.0224686
0.0240685
0.233241
1.83774
0.0209897
0.106118
1.94382
1.68484
0.0227055
0.0217564
0.249248
3.02398
0.130727
0.0217312
1.83166
0.0473754
0.0201137
4.02446
0.0272869
0.0225412
2.21003
0.0223705
0.0343189
0.0215244
0.0199064
0.0227764
0.0206796
2.71548
0.0203769
0.0212988
0.0602482
0.0240959
0.0259842
0.103795
0.0219567
0.0215365
0.0234997
0.0230139
0.243442
0.237294
2.62865
1.06131
0.0390681
0.143306
0.0489509
2.28189
1.78768
2.59649
0.0212913
0.0319215
0.0215521
0.0221986
0.0218319
0.0240126
0.141401
0.0435013
0.0386872
0.0212895
0.0214704
0.0408306
0.0219739
0.0226575
0.0220242
2.72917
0.0299589
7.19621
0.0216865
0.246908
0.0227306
0.0234449
0.0235313
0.034027
0.0213471
0.0695733
2.44867
0.0404165
3.15509
0.67763
0.0244754
0.0267354
0.1547
0.106609
0.0205316
0.0217225
0.0200325
2.33127
0.0199201
0.0971276
0.0463346
0.0627571
1.24234
1.28774
0.0487682
3.25929
0.021016
0.0206443
0.0280309
3.20622
0.0216594
0.021697
1.20528
0.0210516
1.76857
0.0236983
0.0212223
0.0261593
0.021664
0.0582202
2.40174
2.70675
0.0243487
0.0220151
0.076151
0.0229377
0.0693665
0.021173
0.102124
0.064111
0.0226256
0.0224681
0.020078
0.196114
0.051248
0.155333
2.44305
0.0288176
3.05503
0.0541085
0.0776271
3.12308
0.02144
2.26675
0.0227192
2.7639
1.67998
2.28912
2.94307
0.0218925
0.0463836
0.0282061
0.0225143
3.49313
0.0219174
0.0216913
0.0248203
0.0223244
0.0276056
0.248012
2.81977
2.71186
0.0253741
0.0392959
0.0231941
0.0235639
0.02178
0.12731
0.0638702
2.0239
0.0406043
0.0205105
0.0210968
0.0234128
0.169195
0.0253424
0.0241746
0.0251903
0.0986946
0.0280455
0.0439036
0.0423046
2.23237
0.0285187
0.0288629
0.0215366
0.0248338
2.20537
0.0379869
0.0462532
0.0212084
2.28443
0.0298625
0.0216832
0.040427
2.37366
0.0551345
0.0333207
0.0210755
2.19792
0.0226947
0.0210617
0.0205423
1.96529
2.69274
0.024339
2.32607
2.80828
0.0268496
0.0423692
0.0513838
3.13987
0.0295565
2.92921
0.0228117
0.0347313
0.0253115
3.2248
0.0297796
0.0215087
2.45069
0.0218899
0.0229425
1.38582
3.2595
0.0624863
2.21851
0.0237593
0.0228586
2.85658
0.0216353
0.0212794
0.0216758
0.0387275
0.0215196
0.0341167
0.0267273
0.0357077
2.94045
0.0223594
3.44267
0.0262861
2.44413
3.02252
0.0216679
0.0219278
0.024525
1.86228
0.147666
0.0544305
2.39154
2.19078
1.78939
0.0251871
3.17924
3.03265
0.0508753
2.79742
0.0221638
0.022236
0.0216717
0.0234866
0.0213997
0.0290202
2.74257
0.0345589
0.251294
4.59235
3.19073
2.12792
2.66198
0.0317387
3.08321
0.0906117
0.054705
0.0208417
0.0225808
0.0514011
3.61631
0.0247912
2.32276
2.51826
0.0214087
0.0217555
0.0232032
0.0883985
0.0228559
0.0592758
2.28796
0.0209548
0.0214596
0.0213247
0.0226137
0.0713097
2.51087
0.0370684
3.20047
0.106406
0.0213198
0.246131
0.275839
0.0216622
2.47942
2.86992
2.00123
2.10413
3.03701
0.0223055
3.01834
2.51271
0.736013
3.09044
0.0217908
0.0241449
0.0243364
0.0231309
3.11875
0.0545076
0.0219132
0.0266187
0.2682
2.59553
0.0249385
0.0266325
2.88007
2.64127
0.0218517
0.0281072
0.0943021
0.0214112
0.0214818
1.88345
0.0213158
0.142354
0.245376
3.18745
0.0213173
0.0710435
0.127507
0.0216373
0.0202355
1.62976
2.03991
0.0237013
0.0367792
0.363729
0.164334
2.90453
2.33041
0.0257136
0.251581
0.352839
0.03192
0.0211813
0.071354
0.0206114
0.0203698
2.89056
0.0368537
0.082147
0.0240168
0.0297931
0.0217055
0.0207275
0.0223199
0.0225359
2.30157
0.0238382
2.36724
5.57876
0.0399922
0.0556593
2.16243
3.17067
2.25308
0.0213236
0.0243115
0.0323459
0.0255314
1.36263
0.234035
0.0222766
2.43475
2.79161
0.0267382
0.0672537
0.0585275
0.0735624
0.0808938
0.0228876
0.0910373
0.100474
0.112557
0.131695
0.0822782
0.0648874
0.0309396
0.0211839
0.0294844
0.0672102
0.0213333
2.39083
3.11961
1.96554
2.40098
0.020167
0.0212093
0.0344813
2.80778
0.0224537
0.0249637
0.045929
2.59239
1.12323
0.0218727
0.0332652
0.0248338
2.2178
0.2945
0.0235843
2.55591
2.56751
0.0779306
2.7905
0.0821611
0.0367133
3.04138
0.0198988
3.27277
2.61871
0.0231581
0.0605911
0.0917021
0.0278409
0.0215206
1.86927
1.10465
0.0214132
0.0215055
2.00987
2.68738
0.0696082
0.022171
0.201244
0.119734
2.49525
3.26517
0.0217213
0.0214507
0.0224135
0.0244495
2.93804
1.24919
2.44439
0.062227
1.68797
0.249338
0.0243769
0.0211847
2.62887
0.0216897
3.03171
0.0210957
2.75922
0.0226976
0.0233668
0.419331
0.0220472
0.0857733
0.0906193
0.0248403
0.0249658
0.0228267
0.138057
2.90331
0.800724
2.44636
0.0277774
0.0237437
0.0261346
0.0668923
3.34182
2.68742
0.0917347
0.156054
0.0955015
2.84114
0.0231893
0.0216157
0.0209866
0.0208449
2.38018
0.0652125
0.0410633
0.0398876
0.118329
0.0215495
0.305464
1.61429
2.22897
0.0215216
0.0230176
0.0199214
2.46453
0.0243056
0.720101
2.35325
0.0942285
0.9955
0.0200536
0.03168
0.454154
2.41941
2.66353
0.0218322
0.104054
0.0229705
0.0238608
0.10546
1.02252
2.10681
0.0226801
0.0792035
1.91865
2.12105
4.82751
3.0419
3.22117
0.0217958
0.0505754
0.0230085
0.10797
0.0222765
0.109961
0.0249126
0.0410466
0.257948
0.0852629
0.0267513
0.241917
2.59094
0.0822779
0.0251657
1.40582
0.0753181
0.0223456
0.024471
3.15257
0.0274226
0.130505
2.61077
0.0378282
3.73361
0.0249185
2.72508
2.43247
1.15357
1.88569
0.028959
0.083193
0.0750461
3.05496
0.0655251
0.0223422
2.81116
0.0584548
2.39151
0.0279836
2.91253
2.14084
2.94175
0.0247948
1.27396
0.024623
2.68109
0.445001
2.82254
6.84813
0.0210365
0.0199346
2.64395
3.24813
0.0337339
0.0222841
0.0409721
0.0333514
2.86707
0.0700983
2.64517
0.0261717
2.70571
0.118824
1.18491
0.0223019
2.27318
2.51923
0.0274888
0.0607867
0.0201142
0.0240374
0.0217701
0.249841
0.0214881
0.0217129
3.02259
3.06029
0.0208282
3.28454
0.0226396
0.0225547
0.0214402
0.0216337
0.0218942
2.49875
2.86233
0.0210331
1.71036
0.0514096
0.0373098
2.72002
0.0640067
0.0256516
0.0279931
0.0213607
0.257967
0.032627
3.32456
0.0276296
3.12031
2.73815
0.0593923
2.93248
2.78071
0.0209433
3.27322
0.0472093
0.0515809
0.0494581
0.0216769
0.044191
0.14333
0.0217204
0.0723001
0.0214703
3.15632
0.112021
2.0808
0.136417
0.134095
3.00013
0.0219338
0.022276
0.0477719
0.0233972
0.0219166
0.0219423
0.0273821
0.0215122
0.0212958
0.0231134
0.0423067
0.0236748
0.027845
0.0238833
0.0412655
0.070976
0.0239821
3.2235
0.023657
0.0213964
0.0698167
0.033743
0.0244759
0.0215513
1.72154
0.0230373
2.7227
0.0232138
0.10469
0.0214044
0.0224383
0.291197
3.07239
0.0536868
0.0356642
0.020228
2.51091
0.0217892
0.0212627
0.0582178
0.0236539
0.140568
2.56415
0.0777319
1.83018
0.0402218
3.75955
0.0222249
0.0218714
0.0561638
0.244533
0.0458354
0.0896763
2.28619
0.0278443
0.0218031
0.0263503
0.222455
0.0428171
0.0217361
0.0764691
0.0691813
0.052968
0.0218661
0.021725
1.3785
0.0531073
2.98489
0.134497
0.0253333
0.0557578
0.02186
0.0351546
2.28859
0.0221459
0.266956
0.165861
0.0723814
1.13572
0.0216769
0.0220931
0.0213239
3.05988
0.156424
0.0242379
0.167185
0.0840522
0.0218379
0.0222475
1.95192
3.21978
1.74133
2.6359
1.16595
0.0273063
2.60542
0.092419
0.0273472
0.0694468
0.0643502
0.0836298
0.0217349
0.0690648
0.102722
0.0228632
1.64747
0.0373857
0.0964171
0.0272378
0.114578
0.0215136
3.54513
0.0238025
0.0209319
0.0217328
0.0210578
0.0232224
0.0228949
0.0214899
0.0235561
0.0220249
0.022832
0.25193
0.0593888
0.0223422
0.0530225
0.0247678
0.0245092
0.020662
0.037194
0.0308569
2.97996
0.021693
0.0216756
0.0621744
2.15224
0.0218447
0.0217747
0.110494
0.0231623
0.0873959
0.0505348
0.0228462
4.32683
0.0233367
0.0227312
0.0750788
3.28888
0.0232739
0.0492503
0.0214012
0.0246599
0.0226812
0.0276951
0.0213914
0.0216885
0.0488199
0.0504128
5.6366
0.0439495
0.021712
0.0287647
2.7202
0.0510597
0.144899
0.078028
0.0217362
0.0476693
0.750559
0.155883
1.47501
0.0260411
2.8768
0.276825
0.0315793
0.0218777
0.0694612
0.0225838
0.0426637
2.47906
0.0220362
0.0578519
0.0222782
2.33938
0.0523906
0.0226736
0.050517
2.44528
0.0548972
0.0235835
0.0586426
0.0281017
0.0208153
1.6982
0.0207596
0.0348492
0.0212622
0.026693
2.15208
0.055317
0.0205353
0.0311988
2.32983
0.0219207
0.0224213
0.0272614
0.0270474
0.021677
0.0235514
0.0259799
0.0225819
0.0213758
0.0477224
0.0752681
0.155824
0.0211246
0.0450973
2.54928
3.90525
0.0213255
0.0220779
0.0241265
0.0707376
0.022766
0.0214769
0.0215081
0.0215948
0.027865
0.0261886
0.0274241
0.0503712
0.0237263
0.0206848
0.0241032
0.0488577
0.0413255
0.0774136
0.0224911
0.0289993
2.76544
0.031439
0.0238881
3.73529
2.70492
0.0712141
0.0541467
0.131655
0.0223425
0.065873
0.0290433
4.73164
0.0214883
0.0213012
2.8773
0.0209385
0.246871
2.03675
0.0222168
11.308
0.0286872
0.028196
0.0276939
0.067047
0.0310371
0.0258387
1.27647
0.0211421
0.0236235
3.14092
0.0249833
0.0222831
0.0297391
2.69866
0.0225664
0.0225926
2.59047
0.0264201
0.0275542
0.0436431
0.0205094
7.32215
0.0237903
0.0229812
0.115768
0.0434423
2.83633
0.0231309
2.06637
0.0304143
0.0789769
1.98006
0.021965
0.0297945
0.0639323
0.022394
2.14597
0.0227989
0.0228918
2.48806
0.0223879
0.0336188
0.078866
0.366413
0.0273868
0.0262307
0.0224809
0.0233985
0.0636917
0.0250685
0.0275187
0.0928327
0.0407372
0.0231097
2.91769
0.0328606
0.0207026
0.0235421
0.0213107
0.0213363
0.020512
0.0221345
0.0218844
0.0293887
0.0236258
0.0454665
0.020321
0.0206318
0.0227006
0.0637569
0.0208989
0.0343401
0.0659812
0.0304336
0.0287747
0.022238
0.02292
0.0244057
0.0397033
0.0307639
0.0261353
2.14253
0.0225069
1.58821
0.0240313
0.0638883
0.088551
0.0221029
0.0450704
0.0283039
2.66313
2.4343
0.0244273
0.0220786
0.0231853
0.0267249
0.038748
0.0219891
0.0380313
0.0460144
0.0227425
0.0636188
0.0518567
0.0644859
0.0306336
2.14655
0.347823
0.0291326
0.0547819
0.0246248
0.100186
0.0226689
0.0214461
0.0604281
0.0692816
0.021469
0.047941
0.0215037
0.0218088
0.021798
0.0222342
0.0218233
0.0214821
0.0215366
0.0233088
0.146017
0.0233307
0.0214333
0.0242528
0.0230407
0.154108
2.38019
0.065505
0.0246784
2.81049
0.0216399
0.0214489
0.0607968
0.029514
0.0227974
0.0231635
0.0221024
1.74462
0.0225772
0.0244953
0.0232064
0.0351925
3.31442
0.0215154
0.0648431
0.0544043
0.024274
0.0407742
0.0208816
0.0218991
0.058521
1.61272
0.0229771
0.0377212
1.86054
0.0772323
0.0213093
1.87508
0.0234628
0.0201307
0.0640068
3.12752
0.0224853
0.0209921
0.022865
0.0356399
0.0362137
0.0215076
0.0229753
0.0398198
0.0218829
0.0303537
0.0248724
1.08122
0.020665
2.85578
2.46776
0.0464292
0.0220395
0.0654398
0.0219514
0.0241575
0.021986
0.0426498
0.0202575
0.0202317
0.0383013
0.0646008
2.775
0.0225413
0.0201668
0.0230707
0.0214202
2.37457
0.025101
0.0232898
0.0224697
0.054646
0.0388109
0.0233615
0.0244468
0.0364643
0.022296
0.0219328
0.0232257
0.0223803
1.8291
0.0214556
0.034327
0.0220674
0.0216724
0.0429816
0.0789006
2.36215
0.0218377
0.0635825
0.0371445
2.42281
2.73199
0.0366841
0.0219427
0.0246837
0.0295736
2.26658
0.0225174
0.0249222
0.0267083
0.0275047
0.0203622
0.0426382
0.0396743
1.07928
0.022386
0.0218507
0.0872891
1.07899
0.0201642
0.0243115
0.0296256
0.0200525
0.0230452
0.0372374
0.0241957
0.0216578
0.0219002
0.0240545
0.0624914
0.0339161
0.0228734
0.0208273
0.0231142
1.50864
0.0198834
0.0215032
0.0268224
0.0706518
0.0250732
3.65516
0.0250294
0.0218459
0.0216612
0.0235669
0.021287
0.0305313
0.0616244
0.0216257
0.0211001
0.0222662
0.021413
0.0234524
0.0463741
2.10377
0.0241133
0.0864002
0.0257912
0.0214582
0.2345
0.0239287
3.19919
0.0219439
0.0226865
0.0209939
0.0216742
0.0230776
0.0273285
0.0448907
1.78945
0.0302498
0.0448452
0.0224602
0.037974
0.0215037
0.0238808
0.0287198
2.18262
2.62751
0.0227173
2.81641
1.48777
0.0359894
1.65797
0.0203516
0.021494
0.022499
0.0235708
2.22415
0.0213283
0.0521377
2.48349
0.0234385
0.0725007
0.0200133
0.0337382
0.277348
1.88294
0.0224901
0.258237
0.0848015
2.47487
0.0263418
2.72374
0.0228078
1.81014
0.104824
0.0207028
0.0443238
0.0329025
0.0233017
0.0567705
0.0273161
0.021629
0.0218802
0.0284549
0.0222197
0.0617045
0.0216617
0.0198692
0.0256559
0.0289561
0.0216867
0.0704083
0.0288419
0.0268586
0.0201118
0.0220707
0.465907
0.0758637
1.19937
0.0308292
0.0246683
0.03039
0.0275203
0.0217721
0.0232532
0.0365317
0.0236133
0.0238673
0.0205867
0.0253505
2.57782
0.022081
3.03594
0.128013
0.0218951
0.0219806
0.0203903
0.0297393
0.0400596
0.0201262
0.0247314
0.0243185
0.0231639
0.0216841
0.022889
0.0224869
0.0223392
0.234292
0.0238577
0.0303098
0.0215204
0.14067
0.0511502
0.0217531
0.254886
0.022238
0.0237557
0.0359206
0.18996
0.0286779
0.0210869
0.0222431
0.0378835
0.0427638
0.126874
0.0247581
0.0440406
0.114849
0.0221967
0.0219293
1.22387
0.0461328
0.0289407
0.0218056
0.0219268
0.0229481
0.024462
0.0216111
1.65557
0.0259401
0.0238049
0.0209191
0.0279244
0.0205971
2.19011
0.0216547
0.0304844
0.0216126
0.0255961