/*--------------------------------*- C++ -*----------------------------------*\
| =========                 |                                                 |
| \\      /  F ield         | OpenFOAM: The Open Source CFD Toolbox           |
|  \\    /   O peration     | Version:  v2012                                 |
|   \\  /    A nd           | Website:  www.openfoam.com                      |
|    \\/     M anipulation  |                                                 |
\*---------------------------------------------------------------------------*/
FoamFile
{
    version     2.0;
    format      ascii;
    class       volScalarField;
    location    "50";
    object      p;
}
// * * * * * * * * * * * * * * * * * * * * * * * * * * * * * * * * * * * * * //

dimensions      [0 2 -2 0 0 0 0];


internalField   nonuniform List<scalar> 
13917
(
-0.149623
-0.0266817
-0.102427
-0.0608826
0.0251266
0.450927
-0.06642
-0.13682
-0.392008
-0.224115
-0.138712
-0.0990226
-0.0612761
-0.168856
0.0228559
-0.00348389
-0.0194632
-0.213601
-0.0980058
-0.00281892
0.0135103
-0.0590547
0.00390253
-0.144272
0.0177704
-0.0388895
0.212461
0.216204
0.0304616
-0.313787
-0.170343
-0.0901728
0.16195
0.109301
0.0249894
-0.104519
0.0040684
-0.178098
-0.0682922
-0.0231593
-0.0164803
0.0110432
-0.0287137
0.23518
-0.0497904
0.123628
-0.209003
-0.216039
0.490535
-0.00992591
-0.113948
0.0552975
0.495434
0.113234
-0.0179482
-0.118254
-0.142449
0.011479
-0.0978502
-0.0480241
-0.534385
-0.0286667
-0.164511
-0.00265879
0.440154
-0.504258
0.0296172
0.037048
-0.256921
-0.104589
0.024392
-0.391454
-0.425625
0.0169657
0.470356
-0.0811319
-0.358996
-0.070039
-0.0314412
0.0128641
0.00741512
0.0290527
0.420338
-0.182634
-0.541983
-0.0683384
0.00396931
-0.48436
-0.111123
-0.0290637
-0.36533
-0.281044
-0.0297649
0.0320519
-0.527813
0.448098
-0.188763
-0.217214
-0.07921
0.318106
-0.0188217
0.166557
0.245971
-0.0789987
-0.023261
-0.415498
0.00124075
-0.221799
-0.021984
-0.173233
-0.511601
-0.0233039
-0.0962857
-0.410374
0.0725486
0.521328
0.00552729
0.487208
-0.0467412
0.109673
0.0111521
-0.258154
-0.0743108
0.210482
-0.0120771
0.0309361
-0.0442089
-0.0117579
-0.0264493
0.453876
-0.0666975
0.0704982
-0.0503888
0.0141267
-0.475561
-0.137456
-0.146207
0.332639
0.0295719
0.109646
-0.116162
-0.0326634
0.0547286
0.271113
0.0373252
-0.386497
-0.0348996
0.0532313
-0.0313988
-0.0847292
-0.160216
0.519571
-0.140788
-0.0668955
-0.109282
-0.534475
-0.097748
-0.219868
-0.359641
-0.479397
0.0715504
0.218418
0.00871861
-0.184316
-0.098441
-0.0813352
-0.077917
-0.187368
-0.0413629
0.172602
-0.0918106
-0.525815
-0.0898497
-0.0178897
-0.332826
-0.0604638
-0.0628544
0.493573
-0.377928
-0.0146147
-0.290276
-0.178473
-0.0333168
0.00432365
0.0566289
-0.0433324
-0.42778
-0.532777
-0.170391
-0.0964162
-0.163801
-0.541685
-0.416005
0.00969934
0.355127
0.204221
-0.0210393
-0.0299142
-0.0136189
-0.486354
-0.094408
-0.00953276
-0.173054
-0.157001
-0.423055
-0.430419
0.0250132
0.0122212
-0.211604
-0.0601049
0.05231
-0.0733498
-0.424347
-0.0990638
-0.0228088
0.276385
-0.195592
-0.504653
0.000926265
-0.531552
-0.0141305
-0.301214
-0.0159361
-0.224919
-0.425019
-0.00517708
-0.424633
-0.113748
-0.0219624
-0.103601
-0.0885573
-0.167778
-0.111882
-0.426959
-0.0206429
-0.0948353
-0.368345
-0.542292
0.00941738
-0.00981953
-0.0286312
-0.202497
-0.00526076
-0.0955923
-0.286752
0.211493
-0.143145
0.00812632
-0.019319
-0.402454
-0.0487704
-0.320188
0.328988
-0.0438141
0.0127377
-0.132908
-0.0275019
-0.139514
0.0542702
0.018115
-0.00485536
-0.0710265
-0.48992
-0.0746595
-0.0213624
-0.46343
-0.192521
-0.220877
-0.0267435
-0.0805552
0.00809741
-0.013514
-0.207706
-0.271588
-0.272367
-0.0950869
-0.436929
-0.081342
-0.026312
-0.505047
-0.00443383
-0.325599
-0.0918049
-0.00533386
-0.0147832
-0.0608716
0.217222
-0.0957256
-0.0214558
-0.0536532
-0.453258
-0.117663
-0.483203
0.00149319
-0.257736
0.0257458
-0.0534881
0.00518638
-0.0740214
-0.00733154
-0.310228
-0.136451
-0.0407812
-0.17271
-0.0519673
0.507846
-0.0577473
-0.271482
-0.0390449
0.0120696
-0.514082
-0.0933993
0.00488348
-0.0145996
-0.513048
-0.0194635
-0.422257
-0.0380229
-0.230015
-0.0528002
-0.381082
-0.13805
0.443694
0.0676903
-0.472386
0.320433
-0.017259
-0.208156
-0.150132
0.00735472
-0.103055
0.353012
-0.198036
0.0950566
-0.0224601
-0.103237
-0.532817
0.318875
-0.0158232
-0.028917
-0.098442
0.0149666
-0.100332
-0.511567
0.0288414
-0.00746482
-0.171114
-0.022604
-0.023614
-0.164728
0.0706737
-0.0165623
-0.0461802
-0.128062
-0.00433125
-0.0133449
0.0258991
-0.0318032
-0.444904
-0.362617
0.431094
-0.516015
0.0121029
-0.330809
-0.530966
-0.155636
-0.0679256
-0.275907
-0.420081
-0.021466
-0.075152
-0.0153857
-0.53262
-0.0468943
0.429486
-0.292033
-0.0752407
0.0154538
-0.206204
-0.30021
-0.247947
-0.174612
-0.531085
-0.506091
-0.0270784
-0.213458
-0.00955112
-0.543199
-0.0508121
0.00491136
-0.469283
0.0188099
-0.406173
-0.0532053
0.0150425
-0.0462236
-0.0343593
-0.0440705
-0.0294474
-0.521355
-0.123464
0.356991
0.00525899
0.297701
0.337205
0.000790612
0.0107743
0.0272333
0.0198633
-0.311038
-0.0047408
0.0198746
-0.0157629
-0.432707
0.012876
-0.0238444
-0.0333976
-0.520779
-0.409026
-0.0253205
-0.493125
-0.151794
0.0115769
-0.361304
-0.0684008
-0.102787
0.00960433
-0.367257
-0.0591763
-0.0371956
0.0106683
-0.297467
0.0924328
-0.0696257
-0.24384
-0.0278959
-0.0679754
-0.0231601
-0.00722639
-0.424603
-0.0607922
-0.0591785
-0.300669
-0.520895
-0.105643
-0.489663
-0.30021
-0.0258314
-0.210664
-0.0301769
0.0153107
-0.433283
-0.211597
-0.0264787
-0.24665
-0.155151
-0.276914
0.000517669
-0.228377
-0.514342
-0.421099
-0.0286262
0.0135376
0.00633685
-0.0214057
-0.0911039
-0.0215165
-0.0396377
0.434886
-0.023305
-0.539722
-0.116728
-0.178546
-0.49074
-0.0437161
-0.12089
-0.119383
-0.227478
-0.242746
-0.343886
-0.114983
-0.101179
0.435094
-0.102469
-0.219545
-0.0238368
-0.467889
-0.119618
-0.0373416
-0.084496
-0.0728259
-0.288007
-0.412751
-0.0186321
-0.0261459
-0.0559314
-0.494243
-0.00500645
-0.0266896
-0.0690495
-0.38685
-0.0175665
-0.446707
-0.34437
-0.0882334
-0.0486756
-0.0254781
-0.41196
-0.539621
-0.00455375
-0.416244
0.503499
-0.513912
-0.0376159
-0.543185
-0.482634
-0.1506
-0.0141892
-0.0113427
-0.0772205
-0.418599
-0.0265068
-0.0129285
-0.0116836
-0.0120544
-0.463091
-0.434683
-0.15011
-0.425905
-0.0137892
-0.0183379
-0.290287
-0.458393
-0.154406
-0.0427697
0.0189236
0.0321443
-0.510727
-0.541203
0.00165575
0.0299526
-0.0709492
-0.116828
-0.135909
0.00812562
-0.0409229
-0.0683497
-0.213811
-0.126691
-0.434559
-0.366226
-0.263819
-0.431123
-0.269809
0.00320789
-0.406901
0.0321667
-0.00898922
-0.0807785
-0.463803
-0.0674089
-0.0180002
-0.420077
-0.330742
-0.518991
-0.267176
0.0999232
-0.15924
0.0158705
-0.487493
-0.397773
-0.120654
-0.0221945
-0.135494
-0.433477
-0.283554
-0.467224
-0.22269
-0.312764
0.00180336
-0.0778432
0.00952912
0.0675139
0.265576
0.0517369
-0.190328
0.334601
-0.125002
-0.540277
-0.0466275
-0.174509
-0.333743
-0.0223107
0.0475812
0.296874
-0.447269
-0.346884
-0.419647
-0.0263903
-0.0499941
-0.0794657
-0.0180028
-0.137226
-0.177276
0.153565
-0.307481
-0.0299932
-0.336554
-0.110317
-0.48548
-0.0770156
-0.304553
0.0100893
0.00189823
-0.250934
-0.445196
0.39977
-0.0774637
-0.0194547
0.0291399
-0.0830476
0.483625
-0.0823934
-0.0811279
-0.121604
-0.200917
-0.0171414
-0.404312
-0.0808427
-0.0586815
-0.00236134
-0.328035
-0.0721172
-0.520228
-0.232466
-0.0767521
-0.137455
-0.0152564
-0.0360294
-0.0458128
-0.0649475
0.124068
-0.42868
0.0197395
-0.188099
-0.0159762
-0.342149
0.390434
-0.117715
-0.0481678
0.112796
-0.0121131
-0.0884722
-0.101293
-0.486258
0.0135976
-0.461788
-0.091726
-0.134647
-0.278053
-0.437343
-0.103821
-0.0104217
-0.298096
-0.46791
-0.00554021
-0.0791171
-0.366962
-0.408832
-0.265066
-0.00522989
-0.0502001
-0.358458
-0.0758527
-0.247449
-0.132407
-0.0366482
-0.151858
-0.112664
-0.046969
-0.0594844
-0.0108694
-0.0873492
0.0148892
0.0113153
-0.528585
0.00411229
-0.442403
-0.107923
0.165217
-0.0112686
-0.0757827
0.00590139
-0.239453
-0.0149881
-0.172759
-0.0690599
-0.509205
0.132637
-0.461086
-0.020433
0.0155856
-0.260057
-0.194589
-0.151158
-0.434908
-0.216802
0.023347
-0.424606
0.419185
-0.0606255
-0.422329
-0.198495
-0.031545
-0.137225
-0.0812944
-0.348691
0.0112217
-0.213246
0.407304
-0.214182
-0.0676504
-0.180662
-0.0228552
-0.0412527
-0.0886581
-0.175014
-0.0786775
0.00906431
-0.0142186
-0.195007
-0.0789003
-0.252897
0.0225682
0.0212326
0.0154696
-0.0350497
-0.0303404
-0.0728912
-0.0100809
-0.446353
-0.0938071
0.394278
-0.0201007
0.00425365
0.174238
-0.249365
0.0688032
-0.511357
-0.227017
-0.52927
-0.0912329
-0.313302
-0.0645894
0.00988675
-0.0125002
-0.049805
-0.538486
0.00377472
-0.434111
-0.0745296
-0.532159
-0.0138408
-0.237194
-0.132405
-0.0292229
-0.00513734
-0.0956129
0.0343144
0.0210204
-0.504028
-0.0195872
0.024841
-0.121655
-0.0109282
-0.0252705
-0.0867192
0.135541
-0.147815
-0.125647
-0.0467104
-0.0170075
-0.286796
-0.0542211
-0.00101437
-0.0233137
-0.5068
-0.35096
-0.516305
0.0928345
-0.0691581
-0.0201679
-0.0254462
-0.105114
-0.132389
-0.186177
0.0987547
-0.107921
-0.037568
0.0401464
-0.512622
0.0196774
-0.120978
-0.00343068
-0.0078091
-0.164877
0.224028
-0.0636484
-0.431875
-0.0237889
-0.284338
0.00259418
-0.0325212
-0.0936384
-0.438056
-0.00440229
-0.414159
-0.0321497
-0.16847
-0.0395166
-0.0428268
-0.419203
-0.0505338
-0.0483219
-0.172908
0.0167018
-0.0285329
0.0423385
-0.0110272
-0.0592522
0.183522
-0.0463501
-0.0395398
-0.324121
-0.379777
-0.112126
-0.186016
-0.233214
-0.102483
-0.032515
0.127473
-0.418081
-0.186595
0.0180762
-0.046755
-0.428805
-0.163614
-0.517192
0.0161552
0.070739
-0.0950582
-0.148823
-0.0662268
-0.543119
0.446346
-0.0116153
-0.339606
-0.0128799
-0.0492292
-0.0203858
-0.461689
-0.029912
-0.0435973
-0.0331681
-0.046835
-0.068622
-0.394213
0.27978
-0.0429848
0.162691
0.000723999
-0.516791
-0.0076786
-0.0468916
0.0238907
-0.0946893
0.0244219
-0.335599
-0.0269271
-0.103823
0.108525
-0.132358
-0.529541
0.0102401
-0.0503986
-0.543014
-0.528345
-0.0249784
-0.317304
-0.528776
-0.334795
-0.0137785
-0.030054
-0.147991
-0.054224
-0.036956
-0.0309295
-0.0032221
0.00101806
-0.109243
0.107299
-0.107051
-0.030786
0.0274803
-0.536193
-0.124937
0.0426744
0.197991
-0.133548
-0.0574102
0.0679214
0.201615
0.0567936
-0.0696456
-0.0224153
-0.515682
0.48918
-0.0392724
-0.406329
-0.324206
-0.541274
-0.428826
-0.0847847
-0.0190564
-0.0659815
-0.0357926
-0.0265215
-0.0387649
-0.0257236
-0.0705597
-0.131633
-0.540124
-0.239038
-0.0443823
-0.30606
-0.4853
-0.158531
0.0427672
-0.32491
-0.0393353
0.0203286
0.179317
-0.539849
0.0265096
-0.00145474
-0.0797511
-0.136732
-0.313892
-0.268198
-0.108274
-0.00825133
-0.360647
0.0430927
-0.00293033
0.0468799
-0.0383962
-0.515649
-0.0405929
-0.0289361
-0.0035262
-0.3618
-0.0334004
-0.13728
0.0335088
-0.0222005
-0.358027
-0.0435837
-0.245087
-0.257772
-0.0526405
-0.0421776
-0.151713
-0.0470939
-0.444339
-0.481929
0.0189692
-0.51439
-0.239204
0.454551
0.0253347
-0.0337142
0.0252143
-0.115908
-0.150337
-0.270436
-0.0566568
-0.0613903
-0.0708711
-0.455972
-0.0161329
-0.366431
-0.0426432
-0.0258457
-0.0908922
0.0141657
0.0248814
-0.0508256
-0.0554958
-0.539524
-0.027909
0.00437059
-0.155828
-0.197824
-0.180589
0.425577
-0.073843
-0.541347
-0.0791473
-0.159761
-0.0793869
-0.303765
-0.115109
-0.534708
-0.0343482
-0.0938766
-0.0435244
-0.0295543
-0.062249
0.0518464
-0.304869
-0.158259
-0.0569933
-0.111207
-0.0569764
-0.153062
-0.00394205
-0.193871
0.285852
-0.0146246
-0.244562
-0.0421092
-0.0193068
-0.0152467
0.113687
-0.215698
-0.0809452
-0.0556652
-0.0406522
0.238461
-0.253786
-0.430819
0.0193152
-0.0322978
-0.193887
-0.00182545
-0.303846
-0.256565
-0.0570798
-0.289914
-0.0413634
-0.527031
0.0497868
-0.10675
-0.177778
-0.352177
-0.00617467
-0.0159686
-0.024842
-0.0033565
-0.0108241
-0.540648
-0.463116
0.0884137
-0.0691904
-0.0033748
-0.0551847
-0.0429018
-0.0512814
-0.0289774
-0.293866
-0.0431184
-0.264244
0.00732552
-0.02835
0.00119466
-0.0744315
-0.0296692
0.0275015
0.0114684
-0.00770284
0.0143079
-0.00798954
0.395543
-0.238931
-0.00418947
-0.354724
-0.0239388
-0.373132
-0.102546
0.346747
-0.0397254
0.040502
-0.00206474
0.0134219
0.0280851
-0.0321756
-0.5229
0.0641377
-0.0845034
0.466726
-0.189995
-0.0707968
-0.0946547
0.414986
-0.0601881
-0.0300598
-0.469328
-0.178458
-0.110554
0.00603684
-0.290575
0.208787
-0.037289
-0.0808119
-0.534499
-0.0720692
-0.0193073
-0.086503
-0.312289
-0.138318
-0.234789
-0.0320784
-0.456361
-0.0883878
-0.0586254
-0.323673
-0.409894
-0.129486
-0.0403869
-0.0224192
-0.099869
0.00182828
0.0598228
-0.0235274
-0.0439204
-0.0342558
0.0555376
-0.100138
0.419396
0.103809
0.270925
-0.0369389
-0.142522
-0.0371591
-0.341935
-0.0350102
-0.0307355
-0.0116688
-0.141744
-0.538599
0.0231116
-0.255581
-0.245305
-0.140753
0.0323068
-0.0677976
-0.0447944
-0.30771
-0.0646831
-0.0104744
-0.511672
-0.0314973
-0.0230604
-0.420426
-0.10832
-0.506112
0.00144472
-0.1054
-0.0481226
-0.406717
-0.0860224
0.190599
-0.0978594
0.0094825
-0.0499576
-0.0293333
0.0267248
0.0557817
-0.101686
-0.0042932
-0.151841
-0.0106048
-0.125425
-0.0415743
-0.238087
-0.118317
-0.458366
0.00977076
-0.415734
-0.049936
-0.0664114
0.0190405
0.109168
0.0174851
-0.192955
-0.439471
-0.0789387
-0.00538833
-0.245115
-0.011814
-0.105269
-0.439319
-0.0473823
0.0486145
-0.191565
-0.136878
-0.0768609
-0.00346914
0.00276893
-0.0607819
0.00865477
0.112917
-0.0168393
-0.0219487
0.0571752
-0.399528
-0.0758502
-0.185256
-0.353874
-0.217499
-0.0294959
-0.0724307
-0.0216793
0.0087041
-0.470318
-0.0661822
-0.0641563
-0.137752
-0.475272
-0.0133036
-0.516663
-0.249939
-0.252943
-0.0307876
-0.0280039
-0.0710435
0.045582
0.0178766
0.17007
-0.0366414
0.0724169
-0.111025
-0.136027
0.433403
-0.0553597
-0.0695414
-0.155629
-0.0502552
-0.0254322
-0.114578
0.133341
-0.541476
-0.175714
-0.541185
0.0877091
-0.497085
-0.517853
-0.037531
-0.00354691
-0.00838622
-0.0632136
-0.186853
-0.0418909
0.0893219
-0.0812791
-0.0781971
0.0501304
-0.370005
0.116404
-0.0910405
-0.388035
-0.0656289
-0.0289462
-0.0792028
0.0789375
-0.0149311
-0.452847
-0.524273
-0.0133437
-0.066017
-0.0343617
0.114448
-0.541092
-0.00889784
-0.0439334
-0.116349
-0.0691765
0.136796
-0.513482
0.0278741
-0.22808
-0.106962
-0.0284236
-0.0151722
-0.0304268
-0.531401
-0.0430625
-0.083755
0.0143239
-0.0730113
0.189735
-0.311821
0.0347607
0.372868
-0.242103
-0.0593886
-0.412115
-0.068246
-0.0753615
0.0411006
0.108183
0.0202557
-0.134647
-0.321741
0.0541263
0.165058
-0.157565
0.476284
0.409046
0.105101
0.00957889
0.0235785
0.031451
-0.521798
-0.19024
-0.0833075
-0.0676213
-0.0915273
0.00796834
-0.00178115
0.0328671
-0.157072
-0.0872991
-0.34179
0.107824
-0.521352
-0.0288567
0.00187893
-0.194756
-0.0193145
-0.0259957
-0.449794
-0.0246436
-0.0365243
-0.180449
-0.263411
0.263633
-0.0366658
-0.140882
-0.0384449
-0.183257
-0.0286717
-0.0585512
0.0364973
0.0179789
-0.048156
-0.270366
-0.477878
-0.043433
-0.0389762
-0.0304009
-0.0396849
-0.0364284
0.399402
-0.0969247
-0.0778077
-0.543992
-0.053391
-0.192507
-0.0269802
-0.0050617
0.100894
-0.00929413
-0.0290217
-0.258076
0.0353013
-0.0334944
-0.205038
0.222903
0.00845679
-0.519774
0.0760797
0.421725
-0.0606499
0.122198
-0.472539
-0.0397212
0.273971
0.0261429
-0.248604
0.195786
-0.00526776
-0.541539
0.00324635
-0.256856
-0.235486
0.339903
-0.0157073
0.0397754
0.0339887
-0.151603
0.0357594
-0.0239953
0.0643804
-0.135406
-0.0393633
-0.179787
0.0289837
-0.0786941
-0.0767694
-0.0229217
-0.0256652
0.459362
-0.0720114
-0.0486889
-0.061245
-0.0423088
-0.0579936
-0.122001
0.00105436
-0.00713116
0.0255082
-0.026133
-0.305103
0.00456492
0.203026
-0.0752732
-0.00492269
-0.442141
-0.0844852
-0.11503
-0.0519791
0.0278253
-0.517931
-0.185435
-0.083594
0.496869
-0.33732
-0.457413
-0.0592155
-0.515315
-0.0144636
-0.260291
-0.539144
0.445648
-0.00020543
0.0488411
-0.15195
-0.0348324
-0.0250566
-0.444413
-0.0504111
0.0899629
-0.178406
-0.0272938
-0.517179
-0.142303
-0.208866
-0.0348929
-0.246672
-0.0822766
6.74944e-05
-0.318592
-0.506529
0.0233064
-0.267969
0.00165128
-0.0487697
-0.226956
-0.32509
-0.0167922
-0.0515873
-0.0537792
-0.0430831
-0.0961944
-0.283971
-0.0680323
-0.00538904
-0.00220058
-0.11063
-0.105923
-0.0991627
-0.45135
0.0259943
-0.376273
-0.543671
-0.239522
0.0625606
-0.222431
-0.297511
-0.151763
-0.0346991
-0.198752
-0.521844
-0.0191991
-0.512072
-0.0271221
-0.0210266
0.00756381
-0.312725
-0.526958
-0.529634
-0.0430066
-0.00881717
-0.0548124
-0.487315
-0.517137
-0.0666852
0.0828953
0.510339
0.0135299
-0.0936085
-0.534621
-0.123586
-0.499588
0.0324816
-0.00733007
-0.0149541
0.100389
-0.111053
-0.135488
-0.0917433
0.0663614
-0.16627
-0.53043
-0.108332
-0.428141
-0.535836
-0.0429469
0.420263
0.0214951
-0.00108464
-0.0454605
-0.02741
-0.0372835
0.00255909
0.513822
-0.167988
-0.534219
-0.345474
0.011976
-0.43626
-0.169939
-0.0332026
-0.542183
0.187391
0.105467
-0.0545216
-0.517216
-0.507553
0.022792
-0.49622
-0.231456
-0.541188
-0.487852
-0.248282
-0.01031
-0.0633836
-0.412115
-0.103834
-0.0636283
-0.180168
-0.513518
-0.300297
0.0579952
0.0521952
-0.0159599
0.0403984
-0.535263
-0.0289372
0.030393
-0.540432
-0.146275
-0.00729165
0.0574825
-0.00740887
-0.324224
-0.0519248
0.48755
0.0626672
-0.0126524
-0.0158268
0.321927
-0.318087
-0.176452
-0.0388789
-0.184038
0.0291364
-0.0757472
-0.113358
-0.521791
-0.0304769
-0.518646
-0.0244652
-0.0158322
-0.0142747
-0.078373
-0.0154299
-0.0168042
-0.267471
-0.182269
-0.198377
-0.0367451
-0.496606
-0.0282816
-0.0050598
-0.535647
-0.220684
-0.116912
0.452231
-0.0153887
-0.540572
0.0668664
0.0349556
0.0734988
-0.027152
-0.0893077
-0.0198616
-0.0603699
0.153292
-0.0262568
-0.03155
0.00207566
-0.0102003
-0.0711801
-0.040908
-0.330211
0.0511491
-0.288944
-0.0834756
-0.314016
-0.0649571
-0.110385
-0.0252238
-0.466859
-0.0581074
-0.0278498
-0.541536
0.294553
0.343367
-0.115257
0.144413
-0.172551
0.03214
-0.502572
0.0315186
-0.014621
0.331135
-0.0891638
-0.536084
-0.537997
-0.313302
-0.483136
-0.342696
-0.48239
-0.0266076
-0.100813
-0.116397
-0.421439
0.10161
-0.477846
-0.0624698
-0.055854
0.0416118
-0.00188467
-0.413758
0.487619
-0.0815121
0.00899937
-0.0030146
-0.104366
-0.171715
-0.443688
-0.223342
-0.00576718
0.415939
-0.292879
-0.426174
-0.256855
-0.0339728
-0.0821161
-0.434091
-0.0149283
-0.298039
-0.0737795
0.0128904
-0.0733694
-0.279598
0.353608
0.0396881
-0.112411
-0.0902053
-0.361081
-0.0870355
0.0290086
-0.0705274
-0.510878
-0.0164367
0.0212936
0.498001
-0.533615
-0.213838
-0.250432
-0.0940342
0.0806124
0.0220465
-0.53506
-0.10814
-0.0511923
-0.138914
-0.00377737
-0.00375856
0.510554
0.0200903
-0.00612684
0.00136917
-0.197714
0.0519376
-0.103871
-0.161796
-0.393781
-0.332335
0.0240159
-0.0947489
0.179413
-0.401005
-0.289891
0.128584
-0.313377
-0.111621
-0.43709
-0.00372702
-0.500697
-0.0369259
-0.00416571
-0.0868546
-0.0267144
0.450891
-0.31848
-0.0536069
0.502437
-0.460435
-0.0190419
0.0498052
-0.0354992
-0.060773
-0.0907909
-0.0282001
-0.527359
-0.0302458
0.407053
0.00696886
-0.412986
-0.0821249
0.107297
-0.530406
-0.113264
-0.0264616
-0.13825
-0.388449
-0.147161
-0.0326669
-0.492976
-0.0265651
-0.459673
-0.059875
-0.53908
-0.0256717
0.253252
0.0567515
-0.0116787
-0.233034
-0.38179
-0.340102
-0.256472
0.00896321
-0.214597
-0.0173908
-0.519087
-0.0313142
0.0335685
-0.0449903
0.157504
-0.0446107
-0.190471
-0.152748
-0.500823
-0.218457
-0.0602218
-0.0547315
-0.284687
0.0562262
-0.204094
-0.0274912
0.000266514
-0.4409
-0.393708
-0.299734
0.291742
-0.00189488
-0.394988
-0.0193015
0.066714
-0.536313
-0.542586
0.0191761
0.0117063
-0.105487
0.0927024
0.0468805
-0.234764
-0.446124
-0.0374025
-0.0265768
0.0226477
-0.0072963
0.240739
-0.0403557
-0.0320512
-0.302192
-0.085085
-0.0339779
-0.143115
-0.496873
-0.151674
-0.0825258
-0.541626
0.01354
-0.430588
0.15408
0.186201
-0.0648936
-0.491081
-0.538991
-0.098858
-0.0128275
-0.23847
-0.0404943
0.100842
0.0402588
-0.0374823
0.042314
-0.504438
-0.0780377
-0.206589
0.0240833
-0.408596
-0.115605
-0.00325423
0.431529
-0.0267386
-0.0790359
-0.161505
0.0383244
-0.531639
-0.0137795
0.451957
0.0329188
-0.00776751
-0.54172
-0.0968315
0.0743624
0.165557
-0.11654
-0.209343
-0.130611
-0.0947404
0.00949894
-0.103261
-0.126667
0.0732047
-0.0355864
-0.00515255
-0.111681
-0.074823
-0.069149
-0.239437
-0.0262429
-0.070484
0.0866689
-0.513776
-0.513035
-0.52178
-0.502234
-0.404201
0.0501429
-0.0527104
-0.149097
0.0559249
0.0339665
-0.518099
-0.342143
0.054293
-0.0816528
-0.120431
-0.124389
-0.137104
-0.426651
-0.00522986
-0.0857835
-0.119794
0.015251
-0.000807652
-0.124151
-0.0315059
-0.0365046
0.0431879
-0.346881
-0.142159
-0.178981
-0.295602
-0.375769
-0.297752
-0.0238148
-0.205185
-0.0942737
-0.530203
-0.0626337
-0.0401361
-0.13284
0.504375
0.0310924
0.015747
-0.166969
-0.0984567
-0.54286
-0.503161
0.150554
-0.454182
-0.0178988
-0.0318692
-0.488862
0.280898
0.0075595
-0.339903
-0.0956484
0.058346
0.0280889
-0.259435
-0.0427825
-0.377862
-0.220238
-0.534948
-0.350314
-0.103255
-0.214166
-0.541494
0.00852073
0.0217993
-0.24998
-0.0249434
0.177315
-0.539109
-0.0337419
-0.11768
-0.148819
-0.0643031
-0.379306
-0.0283026
-0.164638
0.0115011
-0.523268
-0.0435245
-0.00172878
-0.0726349
-0.317994
-0.00704966
0.00790489
-0.5168
0.0429933
-0.242991
-0.0329118
-0.522727
-0.488217
-0.205105
0.306653
-0.0106983
-0.0600306
-0.129559
-0.179478
-0.0322038
-0.0624257
-0.00651398
-0.144756
0.0228524
-0.12657
0.0490683
-0.0373921
-0.512226
-0.0362219
-0.0978185
-0.0915068
0.00722045
-0.0780885
-0.0319117
-0.0781605
-0.281525
-0.0959041
-0.0366927
0.0359177
-0.514547
-0.0961627
-0.337382
-0.0328438
-0.164714
-0.0540617
-0.176374
-0.134652
-0.119453
-0.41264
-0.429496
-0.402474
-0.437971
0.113299
-0.147993
0.00210374
-0.482851
0.0695116
-0.0527465
0.0279372
-0.149969
-0.0558843
-0.403256
-0.195685
-0.0826134
-0.476993
0.342241
-0.0053135
-0.402047
0.148014
0.0504381
0.0642261
0.0256337
-0.176256
0.030429
-0.0343277
-0.0349641
-0.110978
-0.503664
-0.095346
0.0208925
0.0266918
-0.411101
-0.028566
0.0126914
-0.104461
-0.0719311
-0.111748
-0.0110938
-0.0754037
0.326352
0.0915819
-0.433376
-0.538235
-0.0739077
-0.467223
-0.0242687
0.0103229
0.00707583
-0.0647228
0.125216
-0.038354
-0.125044
-0.0279161
0.0310473
-0.0273264
-0.307803
-0.0282239
-0.0246035
0.104758
-0.53493
-0.0319109
-0.103083
-0.110723
0.0141522
-0.43921
-0.130171
0.31459
0.15885
-0.00432684
0.0560715
-0.169045
-0.4133
0.0575025
-0.0534398
-0.0950546
-0.0758908
0.0455864
-0.533937
0.0047812
-0.171422
-0.0556269
0.132819
-0.0210357
-0.00926405
-0.383996
-0.502679
0.272051
-0.0282175
-0.539036
0.0287371
-0.33263
-0.072829
-0.0231064
-0.277599
-0.149796
-0.219752
0.0220724
-0.0307401
-0.540707
-0.051125
-0.019507
-0.0351314
-0.138441
0.00283756
-0.0363268
-0.0569444
-0.088506
-0.287775
-0.38216
0.318951
-0.279467
-0.02466
0.00921159
-0.0855273
-0.0305432
-0.167227
0.117992
-0.0479002
-0.217963
0.00995686
0.013233
-0.418286
-0.00500769
-0.504858
0.0139785
-0.467374
-0.055148
-0.295825
-0.00356526
-0.00292066
-0.431893
-0.0273933
-0.0701492
0.0515082
-0.340923
-0.487938
-0.157975
-0.0808323
0.0309113
-0.30385
0.0645819
-0.177609
-0.0439168
0.0153192
-0.541156
-0.127981
-0.487752
-0.0607668
-0.208766
-0.193299
-0.542068
-0.335558
-0.403741
-0.168922
-0.0279988
-0.444167
-0.0455113
-0.045573
-0.371522
-0.134985
0.0717273
0.255518
0.0457392
-0.0332451
-0.109768
-0.450065
-0.0932875
-0.00461182
-0.543396
0.0253827
-0.0303511
-0.0235502
-0.00707238
0.0105365
-0.321929
-0.306213
-0.531574
-0.0295166
0.0618875
-0.0090438
0.361052
-0.0260379
0.463054
-0.275448
-0.0486005
-0.0263405
-0.515334
0.147218
-0.467503
0.483473
0.0142055
0.0355539
0.0814104
0.114339
0.499273
-0.333648
-0.530162
-0.0312823
0.514607
0.0149481
-0.203486
-0.00808128
-0.538746
-0.131835
-0.0722449
-0.0854273
-0.0635882
-0.0210429
-0.243689
-0.529359
-0.0239362
-0.0769292
-0.0158902
-0.398753
-0.0753629
-0.49112
-0.0383205
-0.494691
0.0236695
-0.0206748
-0.220955
0.438711
0.0192655
-0.187145
0.0107843
-0.333471
0.127979
-0.282899
-0.168282
-0.525774
-0.0282084
-0.0443392
-0.0923142
-0.0272383
-0.114565
-0.131432
-0.0079063
-0.0260443
0.0154355
-0.0129307
-0.0653717
0.0108546
-0.517154
-0.256754
-0.257165
-0.0854218
-0.44318
-0.451459
-0.0266733
-0.135082
-0.0280871
0.495948
-0.0526838
0.0319888
0.0150072
-0.0103332
-0.0416028
-0.283908
-0.0640974
0.39959
-0.0348518
0.164896
-0.0249701
0.469557
0.00592533
-0.144324
-0.117815
-0.191259
-0.531941
-0.0101701
-0.0722925
-0.251083
-0.0446423
-0.0266289
-0.00202369
-0.0268565
-0.52255
-0.0530195
-0.041674
-0.29577
-0.160156
0.198517
-0.181844
0.0153285
-0.158192
-0.132888
-0.0261569
-0.324328
-0.0579801
-0.0314606
0.0279184
-0.0600014
0.0105519
-0.265443
-0.0496489
-0.0273571
0.36858
-0.129073
-0.00728867
-0.0408451
-0.0174635
0.393278
-0.295143
-0.242487
-0.0730948
-0.175016
0.00556628
0.020333
-0.0802854
-0.00515749
-0.297119
0.0278882
-0.116091
-0.467173
-0.148721
-0.0259233
-0.0390032
-0.202621
0.00618894
-0.266718
-0.139943
-0.240131
0.0978416
-0.53743
-0.234414
-0.0100236
-0.298977
-0.297225
-0.0961403
-0.492183
-0.115449
-0.0801649
-0.246905
-0.0152832
-0.293048
0.271132
-0.278043
-0.00747709
-0.000294313
-0.0271272
0.172476
-0.129389
-0.138423
-0.458301
-0.542471
-0.0376443
0.0105769
0.511226
-0.0433362
-0.292999
0.0156714
-0.0104113
-0.184708
-0.0422659
0.0162331
-0.137591
-0.509726
-0.328437
-0.508428
0.34935
-0.332809
-0.0268636
-0.47266
-0.0319417
-0.441701
-0.34731
-0.0548323
-0.063007
-0.0243702
-0.527478
-0.309237
-0.237147
-0.0641434
-0.519595
-0.0440493
-0.408483
-0.0370173
0.0146753
-0.14468
-0.468096
-0.101106
-0.231436
-0.0685787
0.0169269
0.0524424
-0.177681
-0.105008
-0.501469
-0.298265
-0.0318984
-0.539447
-0.347235
-0.0551127
-0.00845928
-0.0016411
-0.0514668
0.410882
-0.00315067
-0.216798
0.307626
0.187623
-0.0361474
-0.0963271
-0.508354
-0.3544
0.0235425
-0.0348276
0.295819
-0.0335431
-0.523836
-0.0494803
0.150576
0.315599
0.401881
-0.0528247
0.00944776
0.333592
-0.392225
-0.512604
0.37476
-0.0261836
-0.0037029
0.421555
-0.365126
0.0382858
0.28501
-0.297329
-0.0279459
-0.291338
-0.259181
0.425275
0.0121659
-0.0263317
-0.274441
-0.522625
-0.0287685
-0.0791107
-0.0228481
-0.0593397
-0.0215953
-0.205315
-0.00440605
0.071448
0.402647
-0.143557
-0.326478
0.0653693
-0.0792155
-0.0752539
-0.501004
0.27428
-0.536051
-0.0559585
0.101425
-0.536979
0.338995
0.0363919
0.0514795
-0.4086
-0.24945
-0.412925
-0.00960438
-0.0151518
-0.0220923
-0.357662
-0.00819793
0.440051
0.474958
0.387366
-0.101394
-0.417414
-0.531784
-0.019545
-0.49429
-0.00252808
0.215381
-0.0274888
-0.04864
-0.224961
-0.480313
-0.00652745
-0.541257
-0.33561
0.331248
-0.383308
-0.0271957
-0.00201893
-0.138517
-0.0647279
-0.524043
-0.519403
-0.00386944
-0.363373
-0.0135861
-0.0422357
-0.0473526
0.0244325
-0.53208
-0.0795821
-0.522983
0.287424
-0.053059
0.45043
-0.499296
-0.0280523
-0.530463
-0.0850396
-0.0434299
0.0194715
-0.0624191
0.471904
0.336319
-0.46981
0.0182981
-0.0623825
0.089418
-0.00521259
-0.085271
0.0699131
0.142705
0.212881
0.0138315
-0.0301759
-0.030315
-0.206948
-0.0332106
-0.0418387
0.321359
0.019162
-0.0158257
-0.213014
-0.0184553
-0.468294
-0.0322576
0.490182
0.0213418
0.302035
0.00474677
-0.204415
-0.0723472
-0.0623668
0.107063
-0.525652
-0.0330444
0.317066
-0.0727579
-0.167869
-0.201679
-0.0336378
-0.462115
-0.00577001
-0.466093
-0.309194
-0.0317019
0.265686
-0.416043
0.329773
0.0143777
-0.229444
0.460994
-0.405367
-0.315434
-0.0557619
-0.270219
0.0290019
-0.00765044
-0.103303
-0.152791
-0.00238584
-0.0256676
-0.536028
-0.0906224
-0.538857
0.39758
-0.520328
-0.429084
-0.0291259
-0.0866819
-0.0358228
0.111657
-0.386884
-0.426837
0.0317826
-0.0379693
-0.0362978
-0.50908
-0.155189
-0.209424
-0.04061
0.348763
-0.537972
-0.49875
-0.00326492
-0.543991
0.0283564
0.0968358
0.11981
-0.0445262
-0.14858
0.0965325
-0.0607383
0.247497
-0.132061
-0.0454768
-0.515383
0.165859
-0.0306256
-0.101946
0.0244118
0.486098
-0.24207
0.0515058
-0.534388
-0.53099
-0.140285
0.0970535
-0.0846849
-0.529459
-0.000462918
-0.0481672
-0.0271023
-0.0263245
0.0581038
-0.538292
0.0227257
-0.261172
-0.0109476
-0.0497215
0.464556
-0.0584044
-0.0264233
0.00656205
0.0214481
-0.318427
-0.037096
-0.538653
-0.0525207
-0.0773443
-0.0814356
0.0510126
0.371608
-0.0378372
-0.000128088
-0.0346655
-0.117082
0.288093
-0.0889525
-0.0382272
-0.016082
0.0607475
-0.138171
-0.467477
0.0675278
0.00678152
-0.0396444
-0.0332416
-0.452049
-0.0144563
-0.0430485
-0.0978276
-0.500862
-0.0120159
0.163713
0.0150496
0.0030026
-0.132597
-0.541028
-0.125821
-0.147259
-0.0912573
-0.106152
0.0381188
0.343994
-0.427554
-0.0615099
-0.275133
-0.069754
-0.104193
0.0225029
0.0199578
0.496912
-0.106228
-0.381255
-0.263747
-0.0341483
0.00876799
-0.543147
-0.0317215
-0.127988
0.0174693
-0.0100048
-0.537031
-0.38492
-0.0291508
-0.00433991
-0.0544262
0.00710546
0.0115147
0.0307727
0.173238
-0.357694
-0.0190948
0.0366026
0.453126
-0.00109324
-0.37336
0.0186472
-0.0486729
-0.12165
-0.00964143
-0.2862
0.0438442
0.25096
0.000877145
-0.051393
-0.512493
-0.531808
-0.00622247
-0.136786
0.193411
-0.0114709
0.0762691
-0.00267103
-0.061677
-0.432192
-0.338392
-0.0849938
-0.185295
-0.0633324
-0.525217
-0.252613
-0.0652856
-0.460979
0.0514177
-0.137853
-0.254148
-0.0254961
-0.508213
-0.416191
-0.040743
-0.0373655
-0.102678
0.0975759
-0.0351341
-0.0410922
-0.134138
0.29703
-0.0401583
0.0957481
-0.160696
0.0314572
0.42464
-0.0848778
-0.122217
-0.43893
-0.521023
0.165162
0.101743
-0.0841788
-0.537609
-0.19234
0.0597882
-0.0355854
-0.0226376
-0.0342265
-0.142212
-0.111661
-0.311472
-0.0419123
-0.501694
-0.00592071
-0.0685116
-0.0345948
0.318301
-0.324261
0.32514
0.358639
0.0488656
0.16033
-0.0173339
0.0746409
-0.000335689
-0.0624715
-0.150362
-0.104641
0.00708568
0.0935829
-0.403426
-0.0185503
-0.0463862
0.102635
-0.537863
-0.329563
-0.236992
0.20075
-0.00333879
-0.03005
0.189781
-0.0723191
0.0243571
-0.0281156
-0.0629736
0.0293117
-0.0828126
-0.310715
-0.0202409
-0.0342038
0.220292
-0.0148365
0.0909052
0.12884
0.018394
0.000554466
-0.538076
-0.0295915
0.0149895
-0.0296642
0.0531868
-0.0283986
-0.522496
-0.090456
-0.385562
-0.0108886
-0.0464281
-0.0522114
-0.503417
-0.0867438
0.033827
-0.035533
-0.313033
0.100984
-0.216819