/*--------------------------------*- C++ -*----------------------------------*\
| =========                 |                                                 |
| \\      /  F ield         | OpenFOAM: The Open Source CFD Toolbox           |
|  \\    /   O peration     | Version:  v2012                                 |
|   \\  /    A nd           | Website:  www.openfoam.com                      |
|    \\/     M anipulation  |                                                 |
\*---------------------------------------------------------------------------*/
FoamFile
{
    version     2.0;
    format      ascii;
    class       volVectorField;
    location    "900";
    object      U_0;
}
// * * * * * * * * * * * * * * * * * * * * * * * * * * * * * * * * * * * * * //

dimensions      [0 1 -1 0 0 0 0];


internalField   nonuniform List<vector> 
13851
(
(1.20027 0.191966 0)
(1.0989 -0.00679695 0)
(1.09619 -0.00575619 0)
(-0.210747 -0.00758042 3.34726e-20)
(1.00279 -0.00060898 0)
(1.11794 -0.0256289 5.87993e-20)
(1.05876 0.0444155 4.90862e-20)
(1.01627 -0.000773652 -7.70396e-21)
(0.166116 0.100628 -1.75096e-20)
(0.992447 -0.0181009 0)
(1.24158 -0.116758 -8.25494e-20)
(1.00274 -0.0123386 0)
(0.984373 -0.0350277 0)
(-0.168079 0.0191781 -4.1461e-20)
(1.13439 0.0677996 0)
(1.03331 0.161102 0)
(-0.400145 -0.0132986 0)
(1.04727 -0.0153194 1.16508e-20)
(1.37439 0.126022 9.33181e-21)
(1.20473 0.186364 0)
(1.16076 0.0614552 -4.06397e-22)
(1.06771 -0.108407 3.9852e-20)
(0.261773 -0.150498 -2.15777e-19)
(1.0001 -0.000293364 -2.44798e-21)
(0.679791 -0.0128095 -2.00882e-19)
(1.06649 0.129418 0)
(1.05625 0.250383 6.66736e-20)
(0.898016 0.170068 0)
(0.519049 0.119416 -1.81789e-21)
(1.02704 -0.0116546 1.68051e-20)
(-0.164666 -0.0250119 4.50549e-20)
(1.05972 0.0434354 -1.33945e-20)
(1.17495 0.195109 0)
(0.158698 0.117146 6.92666e-20)
(1.19582 -0.0912059 7.18911e-20)
(0.591134 0.120935 5.19161e-22)
(1.00006 -0.000263768 2.46099e-21)
(0.678539 -0.0987882 1.39606e-19)
(-0.181601 -0.0198683 1.97806e-19)
(1.01726 -0.0494271 1.24502e-21)
(-0.0858653 0.0484312 -1.02525e-19)
(0.574952 0.132949 -1.49228e-21)
(-0.251994 -0.0020281 -1.41103e-19)
(1.12724 -0.551782 8.79164e-20)
(0.568418 0.150104 1.3555e-21)
(1.02278 -0.0274365 3.2716e-21)
(1.01852 0.00102767 -2.1668e-21)
(1.05811 0.180648 1.39511e-20)
(1.07112 -0.0626556 2.96939e-20)
(0.983756 -0.0340541 -1.45687e-21)
(-0.4996 -0.0181523 5.91648e-20)
(0.975594 -0.0297652 -1.51972e-20)
(1.03636 0.162173 -1.01938e-20)
(1.07628 0.0734872 0)
(-0.023565 0.0230818 0)
(1.01611 -0.0499484 0)
(1.17995 0.198506 0)
(-0.121789 0.0381115 1.18669e-19)
(1.01595 0.218387 0)
(-0.371208 0.0020743 -1.48983e-19)
(1.00251 -0.0116936 9.33992e-22)
(1.06082 0.245802 0)
(0.995805 -0.00999169 0)
(1.07218 -0.0654837 -7.97315e-21)
(0.890596 -0.510538 0)
(0.87022 -0.53131 -2.92509e-21)
(-0.403403 -0.00375248 2.04454e-19)
(0.697041 -0.169404 0)
(1.03445 -0.0471146 0)
(-0.192482 -0.0129808 -2.48514e-19)
(-0.235337 -0.0199883 0)
(1.17968 0.0731102 9.39746e-22)
(0.999707 -0.0389085 1.27299e-21)
(-0.378442 0.000457666 1.60925e-19)
(1.09041 0.0747534 -4.16849e-20)
(1.04225 -0.0896328 1.31305e-20)
(-0.376343 -0.0179808 0)
(1.02563 -0.00371714 -1.26908e-20)
(0.759523 -0.0100473 1.89223e-19)
(1.00977 -0.0244011 -5.69145e-22)
(1.03619 -0.0474975 0)
(1.40689 -0.130022 1.44944e-19)
(1.19029 -0.0936488 -8.96967e-22)
(-0.192929 0.0202992 9.56103e-21)
(-0.351728 0.00434758 -1.37286e-19)
(-0.188338 -0.0231946 -9.03001e-20)
(1.07209 -0.109537 -1.83916e-20)
(0.261755 0.0255609 2.65996e-21)
(0.993991 -0.0225097 1.08096e-20)
(-0.16046 -0.0232593 -5.35908e-20)
(0.974101 -0.0293289 0)
(1.0617 0.0440445 -1.53615e-20)
(-0.374632 -0.0141075 -1.35501e-19)
(-0.213125 -0.0213058 1.35068e-23)
(-0.261038 -0.0169616 0)
(1.11497 -0.510307 6.66789e-21)
(1.01732 -0.0309898 0)
(1.04439 0.173686 0)
(-0.499006 -0.0160534 0)
(1.29625 -0.251191 1.54561e-21)
(1.04439 0.178129 6.20134e-21)
(0.816202 -0.157672 0)
(0.818191 -0.192345 3.31475e-20)
(0.995714 -0.0421913 0)
(1.02709 -0.0258508 -4.32921e-21)
(1.1947 0.0426515 1.36562e-20)
(1.02612 -0.0257927 -3.5874e-21)
(-0.21698 -0.0218819 -5.29538e-20)
(1.0626 0.0428064 0)
(1.04589 -0.0149779 -1.14872e-20)
(1.0565 -0.157632 1.14972e-20)
(1.02385 -0.0276654 -2.90244e-21)
(1.3549 0.00420768 0)
(1.25088 -0.0302065 -5.36617e-20)
(1.13382 0.200821 0)
(1.07635 0.0709056 1.41028e-20)
(1.01882 -0.0086114 -6.42589e-21)
(1.01691 -0.000859176 7.53576e-21)
(-0.223401 -0.00588557 0)
(-0.163731 -0.0158705 1.01544e-19)
(1.15251 -0.43042 8.84951e-20)
(1.03777 -0.0133265 -1.23717e-20)
(1.02867 -0.0492566 0)
(-0.205845 0.0346515 -5.68524e-20)
(1.32494 0.175369 5.79345e-20)
(0.61883 -0.255838 -1.52659e-19)
(1.01781 -0.03042 -1.92844e-21)
(1.19058 -0.183524 -7.38319e-22)
(-0.0456201 0.0717465 0)
(1.15338 0.0857863 0)
(1.0637 -0.111289 -2.47653e-20)
(1.14738 -0.0643331 0)
(0.836264 -0.125147 1.24223e-19)
(0.142451 0.114549 -3.73451e-20)
(1.24856 -0.113084 9.8019e-20)
(-0.259585 -0.0164656 1.61892e-19)
(0.709659 -0.16102 0)
(-0.202468 -0.0221481 -1.14371e-19)
(0.853747 -0.125621 -4.43638e-20)
(1.14242 0.0900263 0)
(1.40128 -0.134552 -1.39054e-19)
(0.983192 -0.0637765 1.59257e-20)
(0.993293 -0.0229487 -1.42101e-20)
(0.752015 -0.362772 -4.98029e-20)
(0.690895 0.0211939 -1.23488e-19)
(1.02547 -0.089832 2.0866e-21)
(1.02515 -0.00330289 1.22698e-20)
(-0.203761 -0.0216297 2.04275e-19)
(0.237882 0.0788558 -3.41243e-21)
(1.19719 -0.186857 0)
(1.04804 0.179864 5.24786e-22)
(1.3505 -0.00115716 0)
(1.25793 -0.0290843 0)
(1.35194 0.130758 0)
(0.976334 -0.0404673 8.31244e-21)
(0.985094 -0.0224917 0)
(1.00237 -0.00962475 5.05583e-23)
(-0.210868 -0.0214817 -1.41209e-19)
(1.14039 0.0816629 6.39015e-21)
(1.07137 0.029461 0)
(1.0002 -0.000682816 0)
(0.54725 0.118973 -6.91167e-21)
(1.18918 0.0437484 1.62276e-21)
(1.06196 0.181804 -2.36361e-20)
(-0.160988 0.0166966 0)
(0.328041 0.136266 2.83586e-21)
(0.340534 0.141681 1.04656e-20)
(-0.476095 -0.0177777 0)
(1.0569 -0.15163 0)
(0.373614 0.0754637 -6.15305e-20)
(1.00201 -0.0108928 0)
(1.01863 -0.00814439 0)
(1.22474 0.0369444 0)
(1.00147 -0.000571057 0)
(-0.23501 -0.0138698 -1.98772e-20)
(1.14251 0.278832 -1.12862e-19)
(1.06676 0.201168 -8.19912e-21)
(1.01926 -0.00791288 0)
(1.08588 0.0759464 3.60975e-20)
(1.06593 0.196412 0)
(1.31106 0.173922 0)
(1.13612 -0.532309 -4.38959e-20)
(1.06315 -0.142599 -1.04117e-20)
(1.14906 0.0850502 -1.5909e-20)
(-0.291677 -0.00622927 0)
(0.253753 0.0822633 7.25662e-21)
(1.16978 0.199421 2.688e-20)
(0.894916 -0.0987459 0)
(0.981154 -0.0403053 1.19668e-20)
(1.02644 -0.0180316 1.88957e-23)
(0.790747 0.0246116 -1.06881e-19)
(1.14282 0.0795143 -4.61409e-21)
(-0.193284 0.0087661 5.91738e-20)
(1.1196 -0.021949 3.02259e-20)
(1.0272 -0.0870307 0)
(1.04016 0.167917 9.31787e-21)
(1.16478 0.195877 0)
(1.05669 0.00150985 1.64511e-20)
(1.05755 -0.0245297 -7.36069e-21)
(0.713817 -0.205959 5.77009e-20)
(1.39589 -0.150736 -7.84324e-20)
(-0.240342 -0.00339731 0)
(-0.143416 0.0350936 2.83275e-20)
(1.13067 0.0686173 0)
(0.960067 -0.80252 -1.52432e-20)
(-0.276248 -0.00434004 0)
(0.939876 -0.0454021 0)
(1.1213 0.0992633 3.0569e-20)
(0.142463 0.101274 2.87823e-20)
(1.11131 -0.038836 -2.13303e-21)
(1.03039 0.155835 3.24229e-20)
(1.02763 -0.0483606 0)
(1.4029 -0.146478 1.63809e-19)
(1.00022 -0.00322265 9.23202e-22)
(1.20151 -0.0801881 0)
(1.04795 -0.0985659 5.58143e-21)
(0.984915 -0.0324884 1.38763e-21)
(1.23317 0.225503 0)
(1.0597 -0.0112209 1.5053e-20)
(0.169564 -0.603115 1.91357e-19)
(1.01918 -0.00740969 0)
(1.21711 0.181732 -6.49804e-20)
(-0.223591 0.0132716 1.14796e-20)
(-0.249122 -0.0166081 0)
(0.908274 -0.10768 5.27335e-20)
(1.11941 0.101165 -5.27583e-20)
(1.00005 -0.00161315 1.83242e-22)
(0.754931 -0.340367 7.51409e-20)
(1.0045 -0.0193317 0)
(1.19635 -0.0822031 0)
(-0.104764 -0.0191853 2.91878e-19)
(0.901001 -0.0991258 0)
(1.11056 -0.0356852 5.00792e-22)
(0.99631 -0.00724456 -8.95693e-22)
(-0.160305 0.0337088 -1.51154e-20)
(1.02778 -0.0111337 -3.89681e-21)
(0.649906 -0.349194 0)
(-0.165377 0.0281104 7.82417e-22)
(1.28771 -0.243738 3.78331e-22)
(1.00014 -0.00065348 0)
(1.36073 -0.400569 7.02261e-21)
(-0.338435 0.00365506 4.44941e-22)
(0.618033 0.159929 -1.81322e-21)
(1.03316 0.156858 -3.17432e-20)
(1.15003 0.0231661 -8.29517e-20)
(0.714293 -0.396172 0)
(1.23624 0.218755 5.07322e-20)
(1.08402 0.0775734 -4.03061e-20)
(1.11914 -0.49103 -4.8539e-21)
(1.08047 -0.15895 1.65321e-20)
(0.108654 0.0202441 -3.20987e-22)
(1.28011 0.131671 -1.51541e-19)
(1.01311 -0.000933766 -1.10077e-20)
(1.11078 0.0120584 0)
(1.0406 0.172463 -1.11686e-20)
(0.533572 0.112648 5.44838e-21)
(0.428159 0.0351688 -1.59646e-21)
(1.02571 -0.0172651 -1.38378e-20)
(0.594218 -0.251627 1.23524e-19)
(0.995049 -0.0231097 0)
(1.1727 0.231587 0)
(1.33177 0.158295 0)
(1.11343 0.0136904 2.49706e-20)
(1.18884 0.0505871 -1.82318e-21)
(1.28855 0.131072 1.77377e-19)
(1.00556 -0.034969 0)
(0.811742 -0.168307 3.956e-20)
(1.07244 0.174746 0)
(1.02122 0.211737 6.72695e-20)
(0.99906 -0.014839 -2.08015e-22)
(0.984547 -0.0314493 6.85532e-22)
(0.902393 -0.106658 0)
(0.264907 0.139793 3.97111e-20)
(-0.263449 -0.00200826 -1.62242e-20)
(1.16548 0.0729659 0)
(1.03921 -0.0136315 -7.67544e-21)
(1.30966 0.184861 -2.0307e-21)
(1.34209 0.144868 0)
(1.14611 0.188422 0)
(1.18464 0.0516323 6.20861e-21)
(0.218498 0.127187 -3.89665e-20)
(-0.4817 -0.0121716 5.98397e-20)
(1.12175 0.00153062 -4.27672e-20)
(1.12569 0.0598899 -3.11517e-20)
(0.634429 -0.111115 -6.58315e-20)
(1.0293 -0.0240189 1.47044e-20)
(1.00246 -0.0090381 2.17353e-22)
(1.15139 0.19179 6.94557e-21)
(1.21775 -0.13737 -4.95985e-20)
(1.02939 -0.0108349 1.08788e-20)
(1.00025 -0.00313379 5.53065e-22)
(1.00437 -0.0199535 -8.7535e-22)
(1.00571 -0.000824657 -3.36415e-21)
(1.141 0.0379962 -7.1631e-21)
(1.00261 -0.00967985 -2.21269e-22)
(0.178914 0.106868 4.0823e-20)
(1.16384 0.0648161 4.58401e-20)
(1.0217 -0.0407642 -4.47994e-23)
(0.547664 0.110499 0)
(-0.221371 0.0306181 8.68926e-20)
(0.977882 -0.0351319 7.01541e-21)
(1.21317 0.188072 6.63394e-20)
(-0.506757 -0.0172214 -3.00824e-20)
(0.982311 -0.0665973 0)
(0.976283 -0.0348084 8.04373e-21)
(1.16885 0.0651969 0)
(-0.245445 0.00990616 8.37051e-20)
(0.00423529 -0.0285958 2.24882e-20)
(1.22651 0.0633613 0)
(1.00309 -0.000797448 0)
(0.411943 0.0840196 0)
(1.00224 -0.0115446 0)
(1.23879 0.0627255 4.58877e-20)
(-0.481177 -0.0163398 1.76663e-21)
(1.04647 0.223843 3.39537e-20)
(1.06993 0.0283248 2.99753e-20)
(0.754924 -0.142612 -6.8816e-20)
(1.14288 -0.18567 1.00922e-19)
(-0.202207 -0.0232284 0)
(1.35001 -0.0164225 -5.70691e-20)
(0.78444 -0.136878 -3.92263e-20)
(-0.216319 -0.0166694 -8.27471e-20)
(-0.15423 0.0486261 -1.07044e-19)
(0.924937 0.167975 0)
(1.05954 -0.0251021 1.57238e-20)
(-0.318894 -0.0143079 -6.11741e-20)
(0.142832 0.00460353 -1.29179e-20)
(0.467393 -0.511313 6.53549e-21)
(0.501733 -0.516841 0)
(0.938636 -0.0468053 0)
(1.23221 0.0467179 -1.61185e-19)
(0.962373 -0.149082 1.10768e-20)
(0.276444 0.0287791 3.86232e-22)
(0.792285 -0.186249 2.61933e-21)
(1.01059 -0.00232681 -5.51072e-21)
(1.01885 0.00110277 0)
(1.10745 -0.0907769 -1.8057e-20)
(-0.224116 -0.0242193 -4.79798e-20)
(0.22145 -0.607897 -8.05203e-20)
(1.02911 -0.0229504 -6.21073e-21)
(-0.267916 -0.0166701 0)
(0.950201 -0.14713 0)
(1.14879 -0.0686811 -1.63968e-20)
(1.07112 0.0310992 0)
(-0.25835 0.00395582 -1.2161e-19)
(1.29949 0.185111 -6.87165e-21)
(1.03645 0.16667 8.62023e-21)
(1.04471 -0.0962109 1.50158e-20)
(1.10659 -0.0351686 -2.74739e-20)
(0.689202 0.113066 7.16758e-21)
(0.981335 -0.0420737 -1.44611e-20)
(1.35526 0.141127 0)
(1.11894 0.00304111 3.66949e-20)
(1.17193 0.0626846 -4.70414e-20)
(0.944113 -0.149823 -8.12216e-21)
(0.994396 -0.0233863 4.59488e-23)
(1.02254 -0.0399183 3.11493e-21)
(1.34079 -0.113161 1.70845e-19)
(1.3066 -0.24764 1.42888e-20)
(1.27171 0.142134 1.57945e-19)
(0.950785 -0.149821 0)
(0.700718 0.117498 -6.22732e-21)
(1.02731 -0.0913761 -2.48517e-21)
(-0.184498 0.0280515 -1.65783e-20)
(1.1818 0.246766 0)
(1.03333 -0.00352928 -6.93657e-22)
(1.01255 0.224101 0)
(1.20178 0.144272 0)
(-0.476014 -0.0142512 1.01206e-19)
(1.10438 -0.0876851 1.51832e-20)
(1.0532 0.127271 1.41939e-20)
(1.02304 0.215725 1.28374e-20)
(0.743892 -0.0640706 2.56032e-19)
(1.33188 -0.126236 -1.87525e-19)
(0.242498 0.0300066 0)
(1.06728 -0.0388274 0)
(1.15419 0.287574 8.51227e-20)
(-0.358069 -0.00798551 1.27735e-19)
(1.14517 0.000788855 0)
(0.133363 0.0313848 -1.37692e-21)
(1.1574 -0.000867868 -1.66679e-20)
(-0.133131 0.026457 1.28163e-19)
(1.12486 0.0573184 5.7848e-20)
(1.06663 0.0946094 0)
(1.29396 0.116077 -4.04718e-20)
(1.34076 -0.225398 8.6408e-20)
(0.985441 -0.0234466 0)
(1.11914 -0.00797549 2.19226e-20)
(1.2233 -0.141814 1.28513e-20)
(1.08859 0.076697 2.16966e-20)
(1.02131 -0.0306631 -8.11651e-21)
(1.1641 0.0772124 7.1084e-21)
(0.455379 0.173856 0)
(1.00052 -0.0386591 -1.60792e-21)
(1.12546 0.0983516 0)
(-0.229225 -0.00544881 0)
(1.09597 -0.0333939 -3.13413e-20)
(1.19568 -0.517644 0)
(1.08551 0.103209 0)
(0.034887 -0.0283049 4.14174e-20)
(1.11532 -0.0405226 -5.05233e-20)
(1.06787 0.126758 0)
(0.926835 -0.769269 0)
(1.33545 0.165625 -2.92075e-20)
(1.1965 0.0319054 0)
(0.404474 0.0270175 0)
(-0.368342 -0.000853167 0)
(1.36084 -0.415968 4.95054e-20)
(1.00468 -0.035234 0)
(1.33719 -0.107214 -2.08362e-19)
(1.16112 -0.0120479 9.25975e-21)
(1.05616 0.127674 1.40314e-20)
(1.03665 -0.016257 0)
(-0.268882 -0.00247564 -8.66488e-21)
(0.361756 0.142422 0)
(0.710068 -0.0395818 2.45699e-19)
(1.10549 -0.0322929 2.6702e-20)
(1.29478 0.122106 0)
(1.08157 0.25606 -5.34731e-20)
(-0.252959 -0.00357098 2.05002e-21)
(1.02651 0.00154676 8.69082e-21)
(-0.352275 -0.0101165 2.06834e-19)
(1.36193 -0.212033 6.89072e-20)
(0.113319 -0.0824203 -2.51303e-19)
(1.08609 -0.162225 6.93094e-22)
(0.810875 0.0993368 1.54073e-19)
(0.990753 -0.0299847 -4.30203e-21)
(1.00171 -0.000489018 0)
(-0.0291604 0.0151376 8.2225e-21)
(1.09354 0.261669 -3.02353e-20)
(0.991846 -0.0190023 0)
(1.09918 -0.00918623 0)
(1.12898 0.0994614 0)
(1.01698 -0.0098165 0)
(0.436905 0.154604 -4.99812e-20)
(1.2324 0.0525742 6.72309e-20)
(1.20327 0.140236 2.3681e-20)
(1.09431 0.0340827 2.88947e-20)
(1.06783 -0.0369944 1.19258e-20)
(0.972962 -0.0238294 1.5654e-20)
(0.814838 -0.0750445 -1.23174e-19)
(1.02007 -0.0401056 0)
(0.973826 -0.0224848 -1.03931e-20)
(0.978233 0.208676 3.84713e-21)
(0.487774 0.176342 0)
(1.05943 -0.108622 1.63615e-20)
(1.03608 0.216431 -2.61828e-20)
(0.99592 -0.0092445 7.86584e-21)
(1.00268 -0.00908741 -1.82677e-23)
(1.09948 -0.0340995 0)
(1.27841 0.141891 -1.74864e-19)
(1.07776 0.10232 0)
(1.02157 -0.0325839 -8.80341e-22)
(1.07823 -0.0232946 4.16673e-20)
(1.15493 -0.418641 0)
(1.08442 -0.000804987 0)
(0.0568214 -0.031944 0)
(1.00282 -0.0114114 -4.6158e-22)
(1.08596 0.0538635 -2.86482e-20)
(0.572293 0.154033 0)
(0.955804 -0.198256 4.3205e-21)
(1.01986 0.000231092 -4.81753e-21)
(1.00139 -0.0103743 2.22521e-22)
(1.09448 0.0322065 -2.82718e-20)
(1.05986 0.00442678 -1.56649e-22)
(1.32223 -0.464114 1.92982e-19)
(0.940059 0.198394 2.41299e-21)
(1.15113 0.0264111 5.65188e-20)
(0.339463 -1.19607 -2.20578e-20)
(1.10155 -0.0314693 2.26211e-20)
(1.0022 -0.016284 2.4274e-21)
(0.0285224 0.0912713 2.13495e-20)
(1.02837 0.219198 -1.82107e-20)
(0.887113 -0.160474 -3.4005e-20)
(1.00284 -0.0428325 0)
(-0.167995 0.0453317 1.40881e-21)
(0.864093 -0.130826 -1.99485e-20)
(1.08976 -0.653551 6.32947e-20)
(0.994779 -0.0413499 2.54907e-21)
(1.15109 -0.0558587 0)
(1.33892 -0.122876 1.96055e-19)
(1.10205 0.0779969 4.60471e-20)
(-0.11107 0.0587443 5.56638e-21)
(1.07657 0.25651 6.95039e-20)
(0.780913 -0.0484128 -2.92309e-19)
(0.989445 -0.0929649 5.03495e-21)
(1.3546 -0.0107976 0)
(1.0072 -0.0361471 0)
(0.505915 0.113561 2.11877e-21)
(1.08781 0.102246 -1.63479e-20)
(1.15992 0.19675 0)
(1.15817 -0.009106 0)
(1.04496 -0.0922019 -7.40093e-21)
(0.963069 -0.194815 -3.61837e-21)
(1.22554 0.0439055 0)
(1.00249 -0.000733958 0)
(-0.289293 -0.00484299 0)
(-0.0123965 0.0808831 -1.19821e-20)
(0.0774148 -0.032485 0)
(-0.188152 0.00595826 1.46314e-19)
(0.947794 0.20402 -4.40334e-21)
(-0.377318 -0.0166603 0)
(1.34566 0.153929 9.02712e-21)
(0.920783 -0.110535 9.86516e-22)
(0.999871 -0.00530888 1.26594e-20)
(1.03364 -0.45456 0)
(0.992311 -0.0173003 0)
(1.02073 -0.0299142 5.79994e-21)
(0.915861 -0.129174 0)
(-0.21888 -0.0121503 -4.61686e-20)
(1.09242 0.00309929 5.03139e-21)
(0.977478 -0.0593355 0)
(1.11377 -0.338052 -2.5534e-21)
(1.21088 -0.00915673 -3.67812e-20)
(0.989414 -0.0132831 -2.22686e-20)
(0.261443 -0.00684047 1.32873e-19)
(1.01549 -0.0301719 1.38485e-21)
(0.0193187 0.0866398 0)
(1.32641 -0.450808 -1.46503e-19)
(1.01045 -0.0250457 0)
(1.08044 0.0145491 3.31126e-20)
(1.37962 -0.181157 0)
(0.987857 0.212812 -3.65171e-20)
(1.02878 -0.0114793 7.02356e-21)
(0.48686 -0.0647632 -9.81935e-20)
(0.764803 -0.316382 -6.59871e-20)
(1.03445 0.00604007 1.09026e-20)
(-0.197857 -0.0222615 0)
(1.38213 0.131735 0)
(1.22836 0.175482 4.56676e-21)
(0.987445 -0.0911518 -8.70884e-21)
(0.981242 0.214541 -4.5408e-21)
(-0.428456 -0.00599683 -9.70891e-20)
(1.03545 0.0060745 -8.60487e-21)
(1.41072 0.0175188 8.49215e-20)
(1.03146 -0.0481603 2.71889e-21)
(1.01623 -0.0307507 0)
(0.982419 0.16735 -5.92827e-21)
(-0.128866 0.0257263 1.5498e-19)
(1.18153 -0.00835093 -4.03745e-20)
(1.07598 0.100672 0)
(0.991433 -0.0161968 0)
(1.08669 0.122958 0)
(-0.00466872 0.0801371 -4.91446e-20)
(-0.22372 -0.0191806 2.11078e-20)
(1.04138 0.00330113 0)
(-0.399163 -0.0132052 -1.52186e-19)
(1.02091 -0.0319178 -1.49453e-21)
(1.03323 -0.0487099 1.25894e-22)
(1.19786 0.0360475 -1.40231e-20)
(1.07655 0.0587286 -4.90667e-20)
(1.02649 0.00207062 0)
(1.03869 -0.0902704 -8.94237e-21)
(-0.189841 -0.0230725 -8.8925e-20)
(1.33545 -0.220837 0)
(-0.213158 -0.0221944 9.50657e-20)
(1.08949 0.00150077 -9.47707e-21)
(0.995449 -0.0238631 0)
(0.311486 0.146432 3.8993e-20)
(0.999823 -0.00725653 6.60249e-21)
(1.34221 -0.0923499 -4.85978e-20)
(1.09635 0.0467211 0)
(1.09524 0.073178 -2.59986e-21)
(1.1529 0.0155344 0)
(0.727911 0.18141 0)
(-0.460104 -0.0101195 -9.4929e-20)
(1.11718 -0.0153697 0)
(-0.339093 -0.0100759 -1.18773e-19)
(1.06963 0.0244264 0)
(1.24454 0.0194871 0)
(0.584146 0.139379 0)
(0.00692161 0.0375261 0)
(1.02397 -0.0506549 1.33677e-21)
(1.00632 -0.0362854 0)
(0.826125 -0.201499 -9.9004e-21)
(-0.209167 -0.0220506 2.59098e-20)
(1.01911 0.185005 -9.68676e-21)
(1.0847 0.120802 0)
(0.917785 -0.526908 3.06203e-20)
(1.07549 0.0599442 3.07786e-20)
(1.1208 0.0573521 0)
(-0.0593885 -0.0227987 -9.77543e-20)
(0.223368 -0.0119922 -1.50483e-19)
(1.12551 -0.405293 0)
(0.00130702 0.083914 0)
(1.11625 0.227888 -1.45474e-20)
(0.696796 0.131057 2.75658e-21)
(1.06148 -0.0384318 -1.00642e-20)
(1.01073 0.216102 8.06181e-22)
(0.914626 0.106427 2.2301e-20)
(1.00143 -0.0144762 -2.79214e-21)
(-0.531149 -0.0191282 1.358e-19)
(0.109585 0.00695966 -6.6911e-20)
(1.06312 -0.14911 0)
(1.14683 0.0897192 0)
(1.01159 -0.0474412 -1.89711e-23)
(0.461659 -0.907804 1.06077e-21)
(1.20643 -0.230644 -1.09427e-19)
(0.263284 -0.101324 -8.816e-20)
(1.01942 -0.04091 2.52077e-21)
(1.00103 -0.000674831 1.24343e-21)
(0.915214 -0.0763384 0)
(1.20853 -0.0140706 0)
(1.00282 -0.0109405 2.51002e-22)
(-0.24685 -0.0133194 -4.22955e-20)
(1.0012 -0.000804364 4.45813e-22)
(1.12083 0.226193 0)
(0.981395 -0.0902714 0)
(1.05686 0.13022 -8.02704e-21)
(0.996692 -0.0414157 0)
(0.988728 -0.0136722 0)
(1.14199 -0.19396 2.33838e-20)
(-0.399481 -0.015504 0)
(1.2001 0.0221602 -5.45348e-20)
(-0.276379 -0.0164184 -9.07658e-20)
(1.15186 -0.0604996 0)
(1.01742 -0.011058 -1.59418e-22)
(1.03798 -0.00557556 1.50973e-20)
(1.23001 0.0334036 -6.44148e-22)
(1.07697 -0.0251625 0)
(1.30472 -0.00864774 0)
(1.09961 0.00161086 2.42292e-20)
(0.886526 -0.152142 -5.42806e-20)
(1.0115 0.20976 -2.15361e-20)
(0.999669 -0.00708396 -3.39209e-21)
(0.459771 0.0239635 0)
(1.00012 -0.0021852 -2.01555e-22)
(1.04399 0.139795 0)
(-0.324304 -0.00946166 1.98121e-19)
(0.463919 0.154543 0)
(0.883947 -0.0593934 -1.04175e-21)
(0.436133 -0.167086 0)
(1.10074 -0.3367 2.3514e-21)
(1.29275 -0.308433 5.75324e-20)
(0.0890234 0.00644794 -7.76244e-20)
(1.04496 0.00295448 1.52764e-20)
(0.199394 -0.0117535 -2.45753e-19)
(0.956621 -0.151935 -1.26957e-20)
(1.14952 0.00143425 0)
(-0.181493 0.00312979 -1.29422e-19)
(0.950309 0.0228456 -9.62701e-20)
(1.03411 -0.0039822 -7.96852e-21)
(1.29992 -0.0126442 -9.08729e-21)
(1.05535 0.00235412 -2.51669e-20)
(0.64539 0.119094 6.71106e-21)
(-0.482513 -0.0204328 -1.29616e-19)
(1.03993 -0.048935 -6.72034e-21)
(0.695398 -0.194932 -4.09767e-20)
(0.395533 0.132238 -5.03922e-20)
(1.00002 -0.00200342 -4.40583e-21)
(1.00004 -0.00268271 3.0385e-21)
(1.06375 0.129783 -5.09162e-21)
(0.437139 0.0177983 -5.54914e-21)
(1.00057 0.220695 -9.66527e-22)
(0.976233 -0.0332708 -9.92926e-21)
(1.30198 0.103513 -8.26346e-20)
(1.08192 -0.00146251 -1.42196e-20)
(0.987785 -0.0153052 -1.17214e-20)
(1.0051 0.202979 2.37555e-20)
(1.3024 0.11045 1.37136e-19)
(1.30268 -0.228848 9.2853e-20)
(1.02475 0.00142412 0)
(1.07648 0.175811 1.71979e-20)
(0.922709 -0.251943 2.72105e-20)
(1.06769 0.121009 1.56013e-20)
(0.95989 -0.039575 -1.61404e-20)
(1.02517 -0.0841489 2.16014e-21)
(1.19673 -0.229657 9.69282e-20)
(0.919609 -0.0769417 2.27812e-20)
(1.06558 0.177775 5.11666e-20)
(1.17432 0.0745032 1.10644e-19)
(1.18135 0.0681989 -1.04187e-19)
(1.11286 -0.390041 1.05705e-20)
(1.19653 -0.755437 -7.47291e-20)
(1.38619 0.117404 -1.2286e-19)
(0.671332 0.227286 0)
(0.571228 -0.0663009 6.05116e-20)
(1.0517 0.178454 -1.17865e-21)
(-0.133419 0.0337883 3.59385e-20)
(1.05434 -0.213603 -3.24713e-20)
(0.983626 0.171427 5.63544e-21)
(1.22497 0.182363 0)
(1.04332 -0.0182054 -1.62042e-20)
(1.11936 0.0544358 2.65096e-20)
(1.37464 0.112259 3.49818e-20)
(1.09116 -0.100361 0)
(1.00965 -0.0234895 5.47372e-22)
(1.01 -0.0220899 -1.14097e-21)
(1.04768 0.143636 0)
(0.240817 0.0237529 6.17799e-21)
(1.08843 0.0545607 3.01277e-20)
(-0.202637 0.0218393 -5.33199e-20)
(1.0173 -0.0115715 -5.95444e-22)
(0.997729 0.225407 0)
(1.02715 -0.434527 1.57086e-20)
(-0.510511 -0.017547 0)
(1.2993 -0.0228212 9.36307e-21)
(1.11848 -0.0391598 5.11249e-20)
(1.09641 -0.00290362 -2.33174e-20)
(-0.490832 -0.0162465 -2.60434e-20)
(1.30693 -0.222495 0)
(1.05468 -0.205428 1.50171e-20)
(1.08743 0.262557 0)
(1.06564 -0.0346299 0)
(1.09288 -0.42815 8.31766e-20)
(1.04477 0.143005 -1.17298e-21)
(1.12804 0.228711 0)
(1.15802 -0.029226 6.31102e-20)
(1.39555 -0.203652 -7.04397e-20)
(0.991594 -0.0302472 0)
(1.00015 -0.00258465 -1.90308e-21)
(0.943239 -0.0443794 -9.66636e-21)
(0.987314 -0.0163951 7.17472e-21)
(0.545568 0.136872 1.77297e-22)
(1.00538 -0.00101064 0)
(1.00824 0.199705 -1.7181e-20)
(0.25734 0.135505 -4.0536e-20)
(1.30449 -0.0261765 2.10414e-20)
(-0.214399 -0.0177694 0)
(-0.483207 -0.0148278 1.32569e-19)
(1.13317 0.232789 0)
(1.30541 -0.305694 -1.37355e-19)
(0.887485 -0.0665789 0)
(0.998592 -0.00420775 -8.50943e-21)
(0.985693 -0.0301953 4.83389e-21)
(1.0246 -0.00436665 -7.42372e-21)
(1.0372 -0.00597415 -1.44396e-20)
(1.00142 -0.000747025 0)
(1.24181 0.0322661 2.35602e-20)
(1.3466 0.0185348 5.00716e-20)
(0.919616 -0.264713 -2.15312e-20)
(0.961905 0.181728 -5.27245e-21)
(1.04389 -0.0760496 3.95848e-21)
(0.136204 0.0967216 -3.76334e-20)
(0.99995 -0.000373097 1.55197e-21)
(-0.186275 -0.00969954 -1.69445e-19)
(1.17895 -0.101225 -1.10418e-19)
(0.999864 -0.000774574 3.50819e-23)
(0.997066 -0.006837 0)
(0.424268 0.151461 -1.47927e-20)
(1.11981 -0.0281059 -6.68055e-20)
(1.0067 0.273792 2.35732e-20)
(0.125398 0.00864941 6.96834e-20)
(1.13985 0.0871501 -2.68105e-20)
(1.19158 0.109473 2.4931e-20)
(1.03324 0.00698459 0)
(0.110153 0.105307 9.72498e-21)
(1.00121 -0.104027 -1.10736e-20)
(1.09453 0.00154731 -2.79245e-21)
(1.00717 0.207736 2.47034e-20)
(0.998674 -0.00466735 -1.10322e-20)
(0.981576 -0.0620068 -1.02042e-20)
(1.04428 -0.00464489 1.12009e-20)
(1.09338 0.102212 0)
(0.168499 0.0248315 -1.8099e-23)
(1.1381 -0.0562694 -1.20208e-20)
(1.15891 -0.0203609 -4.80715e-22)
(1.36879 -0.22261 0)
(-0.250896 -0.0194975 0)
(0.891795 -0.0896789 3.01179e-20)
(1.00664 -0.13112 1.2437e-21)
(0.651696 0.139113 0)
(1.02401 -0.00424054 6.90118e-21)
(0.640877 0.133668 -5.38549e-22)
(1.00056 -0.00170667 -1.26679e-21)
(1.08454 0.00197884 0)
(0.782029 -0.0035432 -2.6068e-19)
(1.1139 0.154901 -5.97165e-20)
(1.13941 0.198219 0)
(1.28476 -0.118274 7.06039e-20)
(1.20142 0.0270179 0)
(0.999566 -0.00321605 -4.89116e-21)
(0.999975 -0.000355315 0)
(1.25178 0.0209436 -1.0375e-19)
(1.06344 -0.0377562 1.06529e-20)
(0.999648 -0.00272008 5.8513e-21)
(1.083 0.0603451 -3.62204e-21)
(1.33956 -0.266894 0)
(1.00671 -0.0073768 2.70255e-22)
(1.27657 -0.323173 0)
(1.24473 -0.51807 5.17579e-20)
(1.034 0.263241 1.55443e-20)
(1.28372 -0.111164 -1.16338e-19)
(-0.123 -0.0257456 0)
(0.844279 -0.129471 4.71621e-20)
(0.998463 -0.00473661 8.99615e-21)
(1.32611 -0.141739 1.03918e-19)
(1.01674 -0.0123282 -2.49709e-21)
(1.11952 -0.00460374 -4.68993e-21)
(0.729816 0.241128 -8.73646e-21)
(0.721668 0.113939 5.98122e-22)
(0.190742 -0.011424 1.38405e-19)
(0.707785 0.153109 -1.55743e-21)
(1.04473 -0.0483834 -1.99153e-20)
(1.03958 -0.047919 6.31457e-21)
(1.00454 -0.330825 -1.10827e-20)
(1.02042 -0.0816926 2.45514e-21)
(1.03113 -0.0200327 -2.10647e-20)
(0.330031 -0.191974 1.1266e-19)
(1.16661 0.236037 0)
(0.0927754 0.0341771 0)
(1.04138 0.139303 0)
(1.11685 0.157273 6.24446e-20)
(0.986198 -0.0188493 -2.3282e-21)
(1.02698 -0.012312 -1.14485e-20)
(1.05001 -0.299441 0)
(1.20888 0.136727 1.04789e-19)
(1.08754 0.00322094 0)
(0.999789 -0.00160784 -4.11745e-21)
(1.12894 0.198655 1.3226e-22)
(1.36219 -0.040324 0)
(-0.188195 0.0213154 0)
(0.976173 -0.038334 0)
(1.00142 -0.0047988 5.37739e-22)
(0.142807 0.0175337 4.01404e-24)
(0.960725 -0.0379209 -1.26359e-20)
(1.15528 0.00726896 0)
(1.01642 -0.00929866 0)
(-0.206474 -0.0108586 1.29798e-19)
(1.01252 -0.000559402 5.72268e-21)
(-0.32163 -0.0145084 -5.35846e-20)
(0.995713 -0.013934 6.17506e-21)
(1.27683 -0.247038 1.91543e-21)
(1.15866 0.0482831 3.92552e-20)
(0.978412 -0.334856 0)
(1.16089 -0.0260061 -6.86177e-20)
(0.998764 -0.0379563 2.75711e-21)
(1.09953 -0.0135568 0)
(1.00473 -0.0053883 0)
(1.00647 0.191877 9.83823e-21)
(0.965467 -0.0469567 1.27873e-20)
(0.449441 0.0449352 -3.8798e-21)
(1.06828 -0.0325328 -2.13395e-20)
(0.917903 0.265151 0)
(0.0965092 0.106106 -3.62849e-20)
(1.15182 -0.0373738 2.11687e-22)
(1.00543 -0.00379073 5.35388e-23)
(-0.207521 -0.00821458 -1.26172e-19)
(0.928343 0.209535 -3.52223e-21)
(1.12075 -0.0144488 0)
(1.10886 0.15367 -1.41955e-20)
(0.985486 -0.0292047 0)
(0.348326 0.0228065 -1.26684e-22)
(1.0446 -0.0186588 2.24721e-20)
(1.37577 0.103849 0)
(1.00098 -0.016096 0)
(1.00512 -0.00559928 0)
(1.03313 0.277556 0)
(1.15367 0.0191526 3.91408e-20)
(1.00157 -0.0110999 -1.93988e-21)
(1.07813 0.0747301 -1.12235e-20)
(-0.126935 0.0470786 0)
(0.72277 -0.865257 0)
(0.340883 0.121526 4.73049e-22)
(1.02469 -0.0175624 0)
(-0.106738 0.0410327 0)
(0.998975 -0.0156438 0)
(1.00641 -0.00697363 1.74181e-21)
(0.978046 -0.0412142 0)
(1.01889 0.00120518 0)
(0.99998 -0.00386262 3.43013e-21)
(0.248544 0.0846247 0)
(0.657056 0.227142 0)
(1.0608 -0.0124597 0)
(1.00125 -0.00110361 6.88385e-24)
(1.18348 -0.0029862 -2.12604e-20)
(1.02446 -0.0273924 3.26027e-21)
(-0.182534 -0.0119097 1.71009e-22)
(1.33333 -0.1378 -9.74841e-20)
(-0.156924 0.0243071 0)
(-0.201708 -0.0170516 0)
(1.09941 -0.0154977 -3.02932e-20)
(1.06924 0.179017 -2.78805e-20)
(1.00162 -0.015232 3.29293e-22)
(1.16203 0.0564264 5.94903e-22)
(1.02164 -0.414885 -2.15231e-20)
(1.04376 0.00348251 -9.2301e-21)
(1.00049 -0.00168208 1.54374e-21)
(1.33113 -0.371651 0)
(-0.473413 -0.0200902 1.39952e-19)
(1.18632 0.109267 0)
(-0.401097 -0.0129955 1.71214e-19)
(1.14175 0.124112 -1.48741e-20)
(0.996178 -0.0100882 -4.06477e-21)
(1.19063 -0.0233837 -5.22378e-20)
(1.10536 0.155075 -3.62054e-21)
(-0.434665 -0.0152023 -2.69078e-19)
(1.13776 0.0352896 9.12785e-20)
(1.04485 0.257656 3.08296e-22)
(1.21507 0.137779 -8.49289e-20)
(1.00039 -0.00348653 -1.54278e-21)
(0.10572 -0.0540953 -2.17254e-19)
(0.0464999 -0.034548 2.36876e-19)
(0.216006 0.0389582 0)
(0.840785 0.0208256 -3.62158e-21)
(0.980358 0.159696 -1.89209e-21)
(0.992831 -0.0933815 0)
(0.736279 -0.410563 0)
(0.972856 -0.0208913 -2.21931e-20)
(1.18037 0.288353 -1.38728e-20)
(1.08933 -0.0961394 1.31436e-21)
(1.01036 -0.00186609 -2.63348e-21)
(0.276169 0.103301 7.61017e-20)
(1.03905 -0.0758068 3.46896e-21)
(1.0053 -0.00348025 3.67937e-21)
(1.02551 -0.0503811 -4.79743e-21)
(1.03694 -0.0739019 -1.32509e-21)
(-0.234753 -0.0122128 -1.55301e-19)
(1.36433 0.126783 -6.72991e-20)
(1.01756 -0.0178819 0)
(1.19386 -0.0185713 4.68712e-20)
(-0.220174 0.017545 -1.02411e-19)
(1.06035 -0.0652783 -1.16241e-20)
(-0.414228 -0.0121361 1.26289e-19)
(0.964462 -0.0658049 1.52929e-20)
(1.13442 0.149587 0)
(-0.162891 0.0151627 -6.68439e-20)
(1.00244 -0.0101208 2.40362e-22)
(1.01485 0.186363 -1.11164e-20)
(1.10412 -0.115023 -2.35995e-20)
(1.15672 -0.0384997 0)
(0.672481 -0.893102 0)
(1.04193 -0.074457 -3.29267e-21)
(1.40671 -0.113945 0)
(1.06605 0.124152 0)
(-0.0759454 0.0549917 0)
(1.05415 0.0113588 -3.52778e-22)
(0.354755 0.0387564 6.09015e-21)
(1.14368 -0.00376813 -4.80105e-20)
(-0.249442 0.0220242 5.75902e-20)
(-0.469181 -0.0165898 -1.03482e-19)
(0.330627 0.0269872 4.04679e-22)
(1.133 0.0914224 2.59448e-20)
(0.995191 -0.0371198 1.03713e-20)
(1.04422 -0.0500769 5.62316e-21)
(0.999994 -0.00200126 0)
(1.0669 0.0920949 0)
(0.997313 -0.00885917 0)
(-0.0969115 0.0610869 0)
(1.05799 -0.139259 1.52615e-20)
(0.935672 -0.118255 0)
(0.89422 -0.0858967 1.54424e-20)
(0.994963 -0.0915325 0)
(1.02402 -0.0169374 -7.6553e-21)
(1.06531 0.0575442 3.56632e-20)
(1.09884 -0.0964739 0)
(1.08083 0.0125413 6.21721e-20)
(1.07358 -0.113922 -5.95696e-21)
(0.0373639 0.00863211 0)
(1.00536 0.18414 9.16409e-21)
(1.13654 0.0100736 0)
(1.16846 -0.181134 -1.6395e-20)
(0.302945 0.104314 -9.09558e-20)
(0.978616 -0.0619312 -1.30482e-20)
(-0.215333 -0.0227089 -1.93654e-19)
(1.0234 -0.00457902 -1.35659e-20)
(1.06146 -0.168663 1.56233e-20)
(0.963387 -0.0459506 -2.90504e-20)
(1.03487 -0.0314016 0)
(1.12233 -0.197995 0)
(1.00208 -0.0169234 -2.74589e-21)
(1.01781 -0.0173227 5.96794e-21)
(0.792445 -0.148339 4.09827e-20)
(0.983949 -0.0224782 -6.22057e-21)
(1.33469 -0.257122 -1.74455e-20)
(1.07418 -0.0251046 7.31072e-21)