/*--------------------------------*- C++ -*----------------------------------*\
| =========                 |                                                 |
| \\      /  F ield         | OpenFOAM: The Open Source CFD Toolbox           |
|  \\    /   O peration     | Version:  v2012                                 |
|   \\  /    A nd           | Website:  www.openfoam.com                      |
|    \\/     M anipulation  |                                                 |
\*---------------------------------------------------------------------------*/
FoamFile
{
    version     2.0;
    format      ascii;
    class       volVectorField;
    location    "900";
    object      ddtCorrDdt0(U);
}
// * * * * * * * * * * * * * * * * * * * * * * * * * * * * * * * * * * * * * //

dimensions      [0 1 -2 0 0 0 0];


internalField   nonuniform List<vector> 
13851
(
(0.0158601 -0.000222466 -9.01094e-17)
(0.00303127 -0.00127673 -1.02125e-17)
(0.00297928 -0.00120557 -4.31877e-18)
(0.00174431 0.00167189 -1.194e-17)
(5.17085e-05 -1.18004e-05 -1.1772e-20)
(0.00312584 -0.00210589 -6.38115e-18)
(0.00274604 0.00110687 -1.51706e-19)
(0.000380843 -2.31166e-05 5.45092e-19)
(-0.0492892 -0.00503313 -1.8034e-17)
(4.35283e-05 -0.000638027 -1.22586e-18)
(0.00249451 -0.00592434 -9.01648e-18)
(7.37885e-05 -0.000269093 3.86985e-20)
(0.000117888 -0.00104842 -2.31945e-18)
(-0.0395974 -0.00463274 4.42443e-17)
(0.00648839 -0.00025533 1.11477e-17)
(0.00757377 0.0093384 3.33465e-19)
(0.00610541 0.00127363 3.75656e-17)
(0.00131713 -0.000663071 -2.9061e-18)
(0.00198476 -0.0145504 -4.56277e-17)
(0.0155915 -0.000701115 7.1044e-17)
(0.00701789 -0.00155556 -2.70493e-19)
(0.00108475 -0.00251945 8.70395e-18)
(-0.00670609 0.00385681 9.27312e-17)
(1.83079e-06 -5.23203e-06 -1.50863e-18)
(-0.0435635 -0.00430001 8.86034e-18)
(0.00671447 0.00572616 1.88221e-17)
(0.0210466 0.0133506 -2.65317e-18)
(-0.0586656 -0.0197933 3.08741e-17)
(-0.0537382 -0.00377076 -1.34046e-18)
(0.000693031 -0.000376819 -7.46855e-19)
(-0.000727866 0.00153101 -5.81919e-17)
(0.00276537 0.00105201 1.11742e-17)
(0.0152003 0.00157836 7.81485e-17)
(-0.0503809 -0.011676 -2.14261e-20)
(0.00273233 -0.00465497 -2.60132e-18)
(-0.0534371 -0.00300709 7.64614e-19)
(1.08086e-06 -4.72258e-06 1.45421e-18)
(-0.0316253 0.000980034 7.20107e-17)
(-0.00478521 -0.000571855 5.57779e-17)
(0.00053919 -0.00117921 -4.22502e-18)
(-0.0289378 -0.0102965 6.94204e-17)
(-0.0553863 -0.00367323 4.62851e-18)
(0.00305692 0.00118719 -9.69975e-17)
(-0.00152307 -0.00258884 5.10609e-17)
(-0.0574316 -0.00434947 3.29282e-18)
(0.000569444 -0.000714903 -9.74685e-19)
(0.000498167 1.87136e-05 -8.74108e-18)
(0.00976101 0.00846218 -2.45196e-18)
(0.00152415 -0.00193638 1.86426e-18)
(0.00010824 -0.00104081 3.9485e-18)
(0.00344352 -3.89225e-05 2.05574e-17)
(5.43031e-05 -0.00110507 3.07134e-18)
(0.00777947 0.00920091 -5.4827e-18)
(0.00439187 0.00210413 2.43682e-18)
(-0.0438036 -0.00282172 -5.27751e-18)
(0.000524292 -0.00118775 4.05517e-18)
(0.0156177 0.00143491 -8.83706e-17)
(-0.0267073 -0.00945528 -8.22254e-17)
(0.0146121 0.012645 4.84795e-19)
(-0.0250455 -0.00324826 -6.54302e-17)
(6.68421e-05 -0.000252354 -2.27049e-20)
(0.015762 0.011395 3.37944e-17)
(8.55365e-06 -0.000395461 4.08631e-18)
(0.00151073 -0.00199368 -4.22797e-18)
(-0.00127277 -0.00208667 -3.01221e-18)
(-0.00123476 -0.00197557 -1.63707e-18)
(-0.0246203 -0.00282587 7.77356e-17)
(-0.000241413 -0.00192719 -2.64357e-18)
(0.000852438 -0.00123926 -5.55131e-18)
(0.000759675 0.00123747 -1.91674e-17)
(0.00128292 0.00123814 4.48505e-17)
(0.00810401 -0.00201259 -1.57993e-17)
(0.000248094 -0.000967386 -1.11537e-18)
(-0.0263146 -0.00310528 1.43773e-17)
(0.00513669 0.00169245 1.01744e-17)
(0.000867749 -0.0020344 3.07609e-18)
(0.00565618 0.00138 -6.87291e-18)
(0.00068126 -0.00016615 4.37139e-18)
(-0.0453736 -0.00468181 -1.3593e-17)
(0.000273287 -0.000582443 1.49817e-18)
(0.00088846 -0.0012595 2.59885e-18)
(0.00223758 -0.011208 5.22256e-17)
(0.00263411 -0.00454242 -5.02999e-18)
(-0.0379175 -0.0047832 -4.25717e-17)
(-0.0266311 -0.00347201 -1.17721e-17)
(-4.19912e-05 0.00143446 5.17677e-17)
(0.00112193 -0.00258927 -1.78814e-18)
(-0.0495665 -0.00384144 -2.11217e-18)
(7.93884e-05 -0.000683461 4.48857e-18)
(-0.000939958 0.00149939 -1.79562e-18)
(4.39959e-05 -0.00112197 1.18378e-18)
(0.00286583 0.00104027 -8.92675e-18)
(0.00459762 0.000773825 -8.04908e-17)
(0.000734727 0.00142003 -4.6904e-17)
(-0.00401554 -0.00177472 1.85145e-17)
(-0.0021829 -0.00347767 -1.2018e-17)
(0.00046013 -0.000768649 3.85799e-19)
(0.0086808 0.00906745 -1.81463e-18)
(-0.00406701 -0.00107856 -4.23192e-17)
(-0.000557054 -0.00635734 7.35107e-17)
(0.00885833 0.00916027 1.52969e-18)
(-0.000165007 -0.0020367 -2.75541e-18)
(-0.000168544 -0.00207999 1.50564e-17)
(0.000233886 -0.00105646 -2.18717e-19)
(0.000676611 -0.000712266 2.57757e-19)
(0.00695999 -0.0032692 2.1423e-17)
(0.000651013 -0.000701149 -3.95518e-18)
(0.000689511 0.00130015 -3.02342e-17)
(0.00287579 0.000975448 5.14429e-18)
(0.00127573 -0.000638438 1.28444e-17)
(0.000600752 -0.00289778 7.9542e-18)
(0.00059594 -0.000729972 -3.33284e-19)
(0.00521418 -0.0100347 -2.1452e-18)
(0.00482199 -0.00603261 -1.62546e-17)
(0.0140706 0.00475387 5.24112e-18)
(0.00430197 0.00196507 -1.70528e-17)
(0.000449138 -0.000244185 3.22487e-18)
(0.000395123 -2.70401e-05 -2.05775e-19)
(0.00204139 0.00156347 -5.30917e-18)
(-0.000117948 0.00119695 4.09443e-17)
(-0.00170916 -0.00380321 -8.65162e-18)
(0.00102631 -0.000515034 2.68976e-19)
(0.000740436 -0.00123968 1.9386e-18)
(-0.0313995 -0.00601999 7.01395e-18)
(0.021377 -0.00717728 1.68912e-17)
(-0.00021314 -0.00183447 -1.10217e-18)
(0.000467341 -0.000755569 -7.89396e-19)
(0.000910759 -0.00485841 1.54075e-17)
(-0.0369624 -0.00982481 5.63597e-18)
(0.00798392 -0.000544117 1.22732e-17)
(0.00102083 -0.00251407 -3.46252e-19)
(0.00281742 -0.00336524 -4.56297e-19)
(-0.0354016 0.00123836 -4.7116e-17)
(-0.0497763 -0.0111893 -2.74753e-17)
(0.00252292 -0.0061024 1.84155e-17)
(-0.00303224 -0.00126213 3.6757e-17)
(-0.00018399 -0.00196308 -3.95902e-17)
(0.000342168 0.00138341 -4.25551e-17)
(-9.99107e-05 -0.00199908 2.43996e-17)
(0.00782934 0.000137096 6.77568e-19)
(0.0038852 -0.0110842 -5.59432e-17)
(0.000244235 -0.00146583 1.71319e-18)
(7.88841e-05 -0.000705059 -5.23566e-18)
(-0.000503618 -0.00195312 4.9045e-17)
(-0.0461786 -0.00858374 1.31332e-17)
(0.000675664 -0.00191306 7.86398e-20)
(0.000668482 -0.000152419 -5.42195e-18)
(0.000486012 0.00144117 4.94558e-17)
(-0.0494187 -0.00519182 -1.22469e-17)
(0.000852611 -0.004953 2.05601e-17)
(0.00915382 0.0090433 -2.80386e-18)
(0.00518353 -0.00975121 -2.10048e-18)
(0.00488788 -0.00624155 -4.41687e-18)
(0.0199214 -0.0107298 9.24627e-18)
(0.000110293 -0.00121137 4.16896e-18)
(4.50274e-05 -0.00086597 1.4954e-18)
(5.56509e-05 -0.000199216 -1.33466e-19)
(-0.00342313 -0.000255295 -7.25454e-17)
(0.00741682 -7.685e-05 -2.06474e-17)
(0.00292461 0.000315456 -1.56593e-18)
(3.58467e-06 -1.22225e-05 -2.49123e-19)
(-0.0536113 -0.00340292 -1.00701e-17)
(0.00691271 -0.00306968 -2.45611e-17)
(0.00995858 0.00830387 1.84465e-17)
(-0.0400291 -0.0045991 1.19417e-17)
(-0.0556283 -0.00562771 3.59518e-18)
(-0.056035 -0.00569878 -8.18243e-18)
(0.00239059 -0.000217874 -2.15946e-17)
(0.000692397 -0.00283967 -2.60056e-18)
(-0.0492409 -0.0150401 -1.00085e-17)
(5.52033e-05 -0.00023184 -1.75067e-20)
(0.000443219 -0.000231712 7.46201e-19)
(0.00721207 -0.00461335 1.98631e-18)
(2.66009e-05 -1.04342e-05 -1.69251e-18)
(-0.00517765 -0.00223072 -4.14646e-17)
(0.0296067 0.0103252 -1.96807e-18)
(0.0109246 0.00867537 1.01065e-17)
(0.000462262 -0.000229568 -1.03343e-18)
(0.00497242 0.00190161 -3.14763e-17)
(0.0106298 0.00859777 -8.75869e-18)
(0.0175855 -0.00859935 -1.38861e-17)
(-0.00290063 -0.00248765 -3.36363e-17)
(0.000746868 -0.00274493 -1.23056e-17)
(0.00781115 -0.000347217 -3.33321e-18)
(0.00406074 0.00114634 1.26157e-17)
(-0.049664 -0.00515018 1.78298e-18)
(0.0153552 0.00224612 -1.2473e-17)
(-1.85354e-05 -0.00193191 -5.59815e-18)
(0.00013146 -0.00115701 3.4589e-18)
(0.000660738 -0.000525303 5.32783e-20)
(-0.0478135 -0.00905402 1.54773e-17)
(0.00735306 -0.000238539 1.79481e-18)
(-0.040411 -0.00400283 -2.4276e-17)
(0.00324294 -0.0020626 2.89107e-17)
(0.000703383 -0.00188212 -1.13714e-18)
(0.00824387 0.00913787 -3.30251e-18)
(0.0148682 0.00237962 2.56561e-17)
(0.00184029 -0.000347151 -2.40514e-18)
(0.00154464 -0.00100005 7.90516e-18)
(-0.000225743 -0.00190787 1.08452e-17)
(0.00284877 -0.0105768 -6.31177e-17)
(-0.00969501 -0.00403995 9.32902e-19)
(-0.023516 -0.00919199 6.82892e-18)
(0.00642157 -0.000103896 2.24069e-18)
(-0.00171037 0.000439714 3.81647e-17)
(-0.00831638 -0.00364792 6.78686e-17)
(2.11464e-05 -0.00156022 7.13035e-18)
(0.00753128 0.00143359 4.41752e-18)
(-0.0484913 -0.00573875 -1.52428e-18)
(0.00268936 -0.00221052 1.5791e-17)
(0.00716346 0.00937769 -9.47778e-18)
(0.000718905 -0.00121584 2.69047e-19)
(0.00144526 -0.0108474 9.56962e-17)
(5.37384e-06 -6.23559e-05 2.73511e-19)
(0.00300845 -0.00472702 -1.90492e-17)
(0.00091365 -0.00219558 -3.91955e-18)
(0.000105739 -0.00100501 5.26158e-18)
(0.0159976 -0.00237891 -1.89643e-17)
(0.00176188 -0.000722154 -4.56716e-18)
(0.000146883 -0.00172397 -2.35312e-17)
(0.000459959 -0.00021653 3.73307e-18)
(0.0154809 -0.00173849 2.45592e-17)
(-0.0380771 -0.00443413 4.10561e-17)
(-0.00390315 -0.00162175 -4.01298e-17)
(-5.96405e-06 -0.00194399 1.72451e-18)
(0.00762057 0.00160503 -4.93435e-19)
(1.34736e-06 -3.09745e-05 1.48831e-19)
(-0.000516829 -0.00200329 -3.43647e-17)
(0.000145735 -0.000454558 7.58183e-20)
(0.00289321 -0.00462571 1.39084e-17)
(-0.0011828 0.00236158 1.54405e-16)
(-6.01909e-06 -0.00191604 8.13786e-18)
(0.00274546 -0.00213838 -1.37039e-17)
(-1.86381e-07 -0.000341055 -4.29223e-19)
(-0.0232477 -0.00885492 -1.71845e-17)
(0.000717237 -0.00037032 4.66243e-18)
(-0.0014303 0.00467219 -1.91388e-17)
(-0.0212825 -0.00852904 9.89785e-18)
(-0.000317079 -0.00630088 -6.67205e-17)
(2.50111e-06 -1.17055e-05 -2.30615e-19)
(-0.00789898 -0.00633355 -8.33106e-18)
(-0.0282834 -0.00360621 3.57962e-17)
(-0.058185 -0.00414453 -1.72965e-18)
(0.007361 0.00927443 8.51393e-18)
(0.00524122 -0.00194516 4.69167e-17)
(-0.000572771 -0.00185787 -9.7699e-18)
(0.0185533 -0.00214302 -2.43157e-17)
(0.00494787 0.00205327 2.86353e-17)
(-0.00197333 -0.00353199 -2.07387e-17)
(0.000734678 -0.00313147 1.61973e-17)
(-0.0456171 -0.00385501 1.80739e-17)
(0.0129839 -0.00663926 6.07743e-17)
(0.000289175 -2.58828e-05 6.91219e-18)
(0.00382533 -0.00108214 2.00085e-17)
(0.00844401 0.00924032 5.70499e-18)
(-0.0530354 -0.00350879 1.06015e-17)
(-0.049035 -0.00340716 9.97164e-19)
(0.000640552 -0.000501705 3.88035e-18)
(-0.000235205 -0.00185432 1.87538e-17)
(8.95944e-05 -0.000675714 -1.73307e-18)
(0.0189028 0.00360057 -1.49981e-17)
(0.0193056 -0.00840563 4.62338e-17)
(0.00395135 -0.00109238 1.63419e-17)
(0.00715289 -0.00292289 -2.69936e-18)
(0.01306 -0.00702754 -5.17898e-17)
(0.00028449 -0.000849111 4.61836e-19)
(-0.000189348 -0.00202761 -1.10244e-18)
(0.00985111 0.00733295 2.76924e-18)
(-0.0597443 -0.0203832 4.16239e-17)
(5.02956e-05 -0.000387567 3.06251e-18)
(9.66174e-05 -0.000994853 -3.64723e-18)
(-1.15859e-05 -0.00195223 9.81534e-20)
(-0.0545864 -0.00778658 -3.63513e-18)
(0.0039082 0.00143555 -9.67602e-17)
(0.00770632 -0.00137159 8.63758e-18)
(0.00107054 -0.000535826 -3.15517e-19)
(0.0202315 -0.00711141 -1.98712e-17)
(0.0199605 -0.00922104 4.63187e-17)
(0.013693 0.00338658 1.58418e-17)
(0.00715254 -0.00274755 6.3803e-18)
(-0.0520302 -0.00733019 7.09612e-18)
(-0.00952812 -0.00180544 1.88433e-17)
(0.00385492 -0.00163666 1.41887e-17)
(0.00593519 -0.000128675 -6.29835e-18)
(-0.0271675 0.00143112 -1.07433e-17)
(0.000737245 -0.000687658 4.85767e-18)
(5.55816e-05 -0.000185431 7.35628e-19)
(0.014135 0.003215 -7.62017e-18)
(0.00187448 -0.00553787 -3.34633e-17)
(0.000769692 -0.000376555 -2.86533e-18)
(5.80495e-06 -5.99655e-05 -1.13221e-20)
(0.000148938 -0.000472146 -6.14466e-20)
(0.000113562 -1.82755e-05 -9.18638e-19)
(0.00561866 -0.00126386 1.80323e-17)
(6.02256e-05 -0.000201123 2.00622e-19)
(-0.0498782 -0.0055227 -2.72986e-18)
(0.00732063 -0.00149192 1.12723e-16)
(0.000586979 -0.00101446 -2.03349e-19)
(-0.0526103 -0.00318713 -7.26074e-19)
(-0.0312723 -0.00559 1.39208e-17)
(9.06656e-05 -0.00112973 2.72311e-18)
(0.0158909 -0.00133291 -4.26705e-18)
(7.84107e-05 -0.000268641 -1.40138e-16)
(0.000247105 -0.0015036 5.5644e-18)
(8.42864e-05 -0.00114608 3.40709e-18)
(0.0075187 -0.00177897 -2.76767e-17)
(-0.0347153 -0.00373149 1.82158e-17)
(-0.0086641 -6.58729e-05 2.92169e-17)
(0.0084966 -0.00435203 6.09712e-17)
(5.79633e-05 -1.58458e-05 -7.89899e-19)
(-0.0512279 -0.0157471 2.73922e-17)
(6.19878e-05 -0.000248646 8.69019e-20)
(0.00855653 -0.00499568 -2.90246e-18)
(-0.000617711 -0.000667979 1.32941e-16)
(-0.0585391 -0.0202699 7.35596e-17)
(0.00283831 0.000295055 -2.31534e-17)
(-0.0294569 0.00138836 2.23173e-18)
(-0.0342029 6.69666e-05 -4.68816e-17)
(-6.01535e-05 0.00109874 -1.49313e-17)
(0.00475529 -0.00935287 -3.1224e-20)
(-0.000158624 -0.00199686 9.64929e-18)
(-0.00481413 -0.00151844 -1.97092e-17)
(-0.0329924 -0.007416 -2.40506e-17)
(-0.0590138 -0.0195319 6.13814e-17)
(0.00159586 -0.00104663 8.44777e-18)
(0.00415816 0.00138129 -2.67071e-18)
(-0.0357064 -0.00196247 2.10696e-18)
(-0.00022557 -0.00157655 5.30046e-18)
(-0.000365908 -0.00151329 -2.33081e-18)
(1.75767e-05 -0.00157274 -2.18562e-18)
(0.00776433 -0.00482666 1.28856e-17)
(0.000118517 -0.00222163 -4.08163e-19)
(-0.049554 -0.00382142 -1.63177e-18)
(-0.000210079 -0.00204566 -2.25343e-17)
(0.000225856 -5.72007e-05 1.82742e-19)
(0.000503432 1.87178e-05 4.64223e-18)
(0.00179233 -0.00287789 1.16315e-17)
(0.000682089 0.00121776 -8.73594e-18)
(-8.22194e-05 -0.00189049 2.54914e-17)
(0.000732324 -0.000662432 -4.14749e-18)
(-0.00339321 -0.00158134 3.49263e-17)
(7.71817e-05 -0.00218294 -2.75797e-18)
(0.00272835 -0.00344129 1.86874e-17)
(0.00295421 0.000375073 1.5965e-17)
(-0.0352493 -0.00317332 -3.70187e-17)
(0.0173523 -0.00690235 3.40515e-17)
(0.00799485 0.00929144 3.01215e-18)
(0.000890094 -0.00213226 -1.842e-18)
(0.00266032 -0.00203237 -4.95714e-18)
(-0.0510381 -0.00133331 1.03749e-18)
(0.000143247 -0.00117914 -1.24661e-18)
(0.0214508 -0.0101958 -1.10587e-17)
(0.00383409 -0.00153379 -1.20288e-17)
(0.00741072 -0.00194138 2.70532e-17)
(4.0874e-05 -0.00218052 -3.55761e-18)
(8.82503e-05 -0.00069451 1.68015e-18)
(0.000600342 -0.00100009 -1.08893e-18)
(0.00232545 -0.00867984 -2.43345e-17)
(-0.000679507 -0.00644796 -3.086e-17)
(0.0135483 -0.00609831 4.43871e-18)
(-0.0365955 0.00152087 -1.99629e-17)
(-0.0516905 -0.00125052 -9.24519e-19)
(0.000690294 -0.00194915 -1.67202e-18)
(-0.0209279 -0.00824718 6.42449e-18)
(0.016156 0.00243538 1.07367e-17)
(0.000948526 -0.000228138 4.07268e-18)
(-0.0593395 -0.0204601 -7.65234e-17)
(0.0126832 -0.0014873 2.75478e-17)
(-0.004261 -0.00143506 5.88621e-17)
(0.00178886 -0.00278399 -2.30124e-17)
(0.00584061 0.00652073 -3.92008e-18)
(0.00977828 0.011454 -1.5144e-17)
(-0.0379013 -0.00352581 1.85914e-17)
(0.00196176 -0.00831798 3.41298e-17)
(-0.0489994 -0.00372861 2.46862e-18)
(0.00166912 -0.0014421 4.9254e-19)
(0.0266832 0.00972188 -2.07827e-18)
(0.00476235 0.0013339 -1.66521e-17)
(0.00442384 -0.0022954 -4.54037e-18)
(-0.0464314 -0.00427414 2.40819e-18)
(0.00463769 -0.00267576 -2.61974e-17)
(-0.0216577 -0.00841687 5.16142e-17)
(0.00579773 -0.000188146 1.31812e-17)
(0.00466934 0.00365931 1.33086e-17)
(0.0122653 -0.00732375 -4.89915e-17)
(-0.000505186 -0.0073401 -8.83313e-17)
(5.36001e-05 -0.000872183 4.90167e-18)
(0.00356073 -0.00178069 1.40496e-17)
(0.00163048 -0.00566173 -5.71391e-17)
(0.00513251 0.00184719 5.58273e-18)
(0.000545064 -0.000782007 -1.43943e-18)
(0.00786958 -0.00122189 -5.43112e-18)
(-0.0608173 -0.0149127 -1.89157e-17)
(0.000252942 -0.000954149 2.88613e-18)
(0.00760542 0.00116007 9.17288e-18)
(0.0021259 0.00162047 -1.11528e-16)
(0.00244009 -0.00179864 -8.98188e-18)
(-0.00941547 0.000873476 -2.98809e-17)
(0.00619182 0.00326323 1.45492e-17)
(-0.010345 -0.000297965 -1.09651e-17)
(0.00271568 -0.0022859 6.07587e-18)
(0.00658028 0.00551845 1.02741e-17)
(-0.00285183 -0.00161349 -3.80815e-17)
(0.0221243 -0.00713467 -3.99383e-17)
(0.00657305 -0.00347363 1.4753e-17)
(-0.0497113 -0.00347905 -1.38636e-18)
(-0.0276979 -0.00296482 -4.23094e-17)
(-0.00461799 -0.00665916 1.05533e-17)
(0.000275625 -0.000858437 -4.87077e-19)
(0.00262924 -0.00853791 3.70439e-17)
(0.00434471 -0.0029879 -7.71572e-18)
(0.00602029 0.00631416 -5.79235e-18)
(0.000975093 -0.000574948 -2.29687e-18)
(0.0034704 0.00116752 2.44137e-17)
(-0.0563307 -0.016672 -3.19574e-17)
(-0.0405667 -0.00503556 -3.18827e-18)
(0.0026899 -0.00195786 -5.45226e-18)
(0.0126857 -0.00730258 6.5206e-17)
(0.0209545 0.0112879 -3.065e-19)
(0.00290779 0.00144814 8.20943e-17)
(0.000762813 -3.46051e-05 -4.24469e-18)
(0.00504164 0.00125074 -1.0693e-16)
(0.00038725 -0.00857608 -1.78039e-17)
(-0.00288097 0.00356114 9.87877e-18)
(0.000753332 -0.00320226 -9.75609e-18)
(-0.0563157 -0.016842 8.97571e-17)
(0.000117486 -0.000879071 -3.98355e-18)
(3.10055e-05 -8.96447e-06 3.36234e-19)
(-0.0450787 -0.00242863 -1.19658e-17)
(0.0236191 0.0118008 5.75044e-18)
(4.64649e-05 -0.000665089 3.39184e-18)
(0.00298571 -0.00133838 2.61258e-17)
(0.00782427 0.00110199 7.27924e-18)
(0.000396692 -0.000262714 -1.11606e-18)
(-0.0583017 -0.0174158 -5.76381e-17)
(0.00806271 -0.00475901 -2.36832e-17)
(0.0123575 -0.0016791 -2.17045e-17)
(0.00393346 -3.09506e-05 -2.87202e-17)
(0.00170459 -0.001412 2.18708e-18)
(1.87918e-05 -0.0010911 -4.18758e-18)
(-0.0393123 -0.00325468 -5.72142e-18)
(0.000552743 -0.000990956 8.84665e-19)
(1.44738e-05 -0.00106932 2.5209e-18)
(-0.0348623 0.00416 4.08865e-18)
(-0.0613993 -0.0154873 1.46914e-17)
(0.000987264 -0.00244065 4.27055e-18)
(0.00821384 0.0103886 2.78235e-18)
(5.63821e-06 -0.000379998 3.28341e-18)
(5.96431e-05 -0.000187275 -8.6581e-19)
(0.00251607 -0.00187427 1.52307e-17)
(0.0135572 -0.00644522 -1.99288e-17)
(0.00567384 0.00366071 7.67492e-18)
(0.000556206 -0.000829402 1.07703e-18)
(0.00214477 -0.00128081 1.62521e-18)
(-0.001582 -0.0038959 -5.42189e-18)
(0.00272652 -0.000851039 -4.92409e-18)
(-0.0104202 0.000358502 5.84413e-17)
(7.09602e-05 -0.000244527 5.25345e-20)
(0.0041886 0.000917558 -4.51998e-18)
(-0.0582312 -0.00458046 8.15692e-19)
(-5.22945e-05 -0.00245857 3.18685e-19)
(0.000511118 -7.92856e-06 1.32937e-18)
(4.39418e-05 -0.000220962 3.87855e-19)
(0.00386792 -9.19616e-05 1.55751e-17)
(0.00199918 -0.000306951 -2.48828e-17)
(-0.00225117 -0.00598352 8.35629e-18)
(-0.0425634 0.00240042 -5.48684e-18)
(0.00540693 -0.00189397 -6.46228e-17)
(-0.00116018 0.00181963 -1.30587e-17)
(0.00260932 -0.00186618 -9.32477e-18)
(9.05142e-05 -0.000381681 -6.09269e-19)
(-0.0444606 -0.00906401 5.64411e-19)
(0.00995761 0.0109447 6.46218e-19)
(-0.000105119 -0.00212532 -1.33196e-17)
(0.000308282 -0.00103441 -7.07935e-19)
(-0.0329259 -0.00681599 1.79414e-17)
(-7.92504e-05 -0.00201731 -3.92845e-18)
(-0.00705704 0.0067311 7.75824e-17)
(0.000221686 -0.00104799 -1.10225e-18)
(0.00305158 -0.00333441 -8.04027e-18)
(0.00202212 -0.0085264 -6.75546e-17)
(0.00576762 0.00140328 -6.04441e-18)
(-0.0346648 -0.0083035 2.44126e-17)
(0.0218603 0.0117662 -1.63972e-17)
(-0.0413294 -0.00527803 -4.94866e-18)
(0.000337548 -0.00182403 3.21235e-18)
(0.00475698 -0.00964693 -3.21735e-17)
(0.000314978 -0.000873207 2.04551e-20)
(-0.0529182 -0.00375013 -2.72586e-18)
(0.0062389 0.00313297 -1.81034e-17)
(0.0148253 0.00269283 -5.14255e-17)
(0.00439737 -0.00286327 7.91228e-19)
(0.000905303 -0.00208956 3.77994e-18)
(-2.97457e-05 -0.00245649 -6.14721e-18)
(0.00752785 -0.00456065 7.50594e-18)
(4.60325e-05 -1.41019e-05 -3.52786e-19)
(0.00372496 0.00136468 -4.14969e-17)
(-0.0422875 -0.00835855 1.19584e-17)
(-0.0111858 0.000411326 -6.85995e-17)
(0.0010395 0.0012311 4.20702e-17)
(-0.0412727 0.00286933 3.30338e-18)
(0.00405773 0.000753175 -4.88674e-17)
(0.0224673 -0.00805909 -4.70266e-17)
(2.91425e-05 -0.00195565 -4.19084e-18)
(7.71804e-06 -0.000127328 7.1208e-20)
(-0.0136763 0.00413799 1.9793e-17)
(3.72799e-05 -0.000628104 -6.74155e-19)
(0.000529204 -0.000761125 2.54326e-18)
(3.30597e-06 -0.00204435 6.04672e-18)
(-0.00651822 -0.00278879 1.45857e-17)
(0.00306247 -0.00091136 -7.95909e-18)
(0.000196431 -0.00143246 -4.52122e-18)
(-0.000843913 -0.00380898 -4.88782e-17)
(0.00522993 -0.00453322 -4.37456e-17)
(4.79137e-06 -0.00065726 -3.3292e-18)
(-0.0324044 -0.00371413 2.79951e-17)
(0.000418696 -0.000740887 -2.63513e-19)
(-0.041468 -0.0103528 -1.1796e-17)
(0.000819338 -0.00404366 -1.22093e-17)
(0.000290304 -0.000599385 -1.17809e-19)
(0.00291347 -0.000346357 -2.57105e-18)
(0.00221598 -0.00884394 -1.12866e-16)
(-0.0599045 -0.0206601 -5.68858e-17)
(0.000747573 -0.000386703 -2.43319e-19)
(-0.0285592 0.00033397 -1.95447e-17)
(-0.0131213 0.00487409 -3.334e-17)
(0.00109804 2.51194e-05 -3.51615e-18)
(-0.00174379 0.000431705 -7.11884e-17)
(0.0148313 -0.0124549 9.17501e-18)
(0.0152379 -0.00269566 -2.8621e-17)
(0.000325165 -0.00179849 2.38575e-18)
(-0.0330509 0.00428849 -2.83268e-18)
(-0.016158 -0.00282879 -4.6336e-17)
(0.00113741 1.9181e-05 1.36146e-18)
(0.00654223 -0.0126976 -9.14959e-18)
(0.000792414 -0.00123608 2.21955e-18)
(0.000436414 -0.000758512 -2.148e-19)
(-0.00757951 0.0105297 -1.75197e-18)
(-0.0215174 -0.00819417 6.98162e-17)
(0.00484755 -0.00357072 3.94422e-18)
(0.0055346 0.00359455 -7.47421e-18)
(2.79245e-05 -0.000634154 3.4373e-18)
(0.00731598 0.00426482 1.22932e-17)
(-0.0392755 -0.0102909 2.97796e-18)
(-0.00347179 -0.000719802 3.52069e-17)
(0.00132122 -0.000119275 -1.62608e-18)
(0.00577366 0.000937043 8.72842e-18)
(0.000539152 -0.000808383 -3.19025e-19)
(0.000827761 -0.00125859 -7.6764e-19)
(0.00679152 -0.00345049 -1.28049e-17)
(0.00392491 0.00138841 5.60683e-18)
(0.000768688 -2.0096e-05 -4.96603e-19)
(0.000826564 -0.00200432 -4.40558e-18)
(-0.00234756 0.000372523 -4.67397e-17)
(-0.000637913 -0.00751154 -1.40791e-18)
(-0.00131824 0.000467323 -1.1174e-18)
(0.00293227 -0.000894356 1.15442e-18)
(9.66386e-05 -0.000684084 4.27166e-19)
(-0.05608 -0.0074174 -2.01626e-17)
(1.38465e-05 -0.000171862 -4.21555e-18)
(0.00305003 -0.00863697 -1.15822e-17)
(0.00437709 0.000356456 6.59686e-18)
(0.00528777 0.00144814 1.44061e-17)
(0.0050598 -0.00221484 -2.02414e-17)
(-0.0585042 -0.00330569 -5.29454e-18)
(-0.00953265 -0.00213484 -2.02532e-17)
(0.00333146 -0.00188852 -7.81787e-18)
(0.00554618 0.00143116 -4.5077e-17)
(0.00274336 0.000168362 -1.97669e-17)
(0.0066415 -0.00561435 -1.88447e-17)
(-0.0560537 -0.00384725 7.30731e-18)
(-0.0437389 -0.00283432 1.26339e-17)
(0.000655792 -0.00123775 2.7491e-18)
(0.000304136 -0.00087864 2.8042e-20)
(-0.000207847 -0.00207378 -2.39557e-18)
(-0.00169274 0.000417502 7.08985e-17)
(0.00762723 0.0108384 -1.48313e-17)
(0.00710457 0.00436046 -8.65112e-18)
(-0.0052737 -0.000131461 -2.41787e-17)
(0.00392434 0.00146763 -7.75695e-18)
(0.00564838 -3.91703e-05 -6.24037e-18)
(-0.00227708 0.00274858 -1.36423e-16)
(-0.0289563 -0.00257834 -3.68183e-17)
(-0.0013827 -0.00367685 2.45152e-17)
(-0.0407761 -0.00978676 -1.2897e-17)
(0.0160118 0.00735715 2.82488e-17)
(-0.0537446 -0.0020152 -1.16268e-18)
(0.00152037 -0.00134821 1.41489e-17)
(0.0152088 0.013298 1.66476e-17)
(-0.057707 -0.0175919 -1.50376e-17)
(6.85585e-05 -0.000336835 1.31484e-18)
(0.00684428 0.00077743 1.29944e-16)
(-0.0250649 -0.00689418 -5.07313e-17)
(0.000751792 -0.00279984 -9.29276e-19)
(0.00795576 -8.03113e-05 -7.74298e-18)
(0.000444962 -0.0011244 -2.87618e-19)
(0.00181106 0.000504096 8.21945e-18)
(0.00019214 -0.00505813 5.49672e-18)
(-0.0091119 0.0042657 -5.4349e-17)
(0.000544696 -0.00100778 8.11669e-19)
(1.84882e-05 -1.21367e-05 8.29051e-20)
(1.59982e-05 -0.00180765 -2.3112e-19)
(0.00502545 -0.00449264 3.07629e-17)
(6.84656e-05 -0.00023231 2.99589e-20)
(-0.00528396 -0.00240164 1.11817e-17)
(2.164e-05 -1.45823e-05 4.76785e-19)
(0.0161692 0.00690553 -3.24651e-17)
(0.000285203 -0.00178457 1.17109e-19)
(0.00624073 0.00641103 2.44273e-18)
(0.00023657 -0.00103731 2.62621e-18)
(5.25844e-06 -0.0006785 -3.45025e-18)
(0.000667744 -0.00409828 -2.86668e-17)
(0.00588939 0.00103325 5.45826e-17)
(0.00625125 -0.00376884 -6.51183e-18)
(-0.00259687 -0.00127479 6.32084e-19)
(0.00296724 -0.00341336 2.80369e-19)
(0.000409597 -0.000295288 -1.98152e-18)
(0.00109187 -0.000321332 -8.05027e-18)
(0.00710557 -0.00488008 -9.56967e-18)
(0.00208296 -0.0013 1.45042e-18)
(0.00556527 -0.00791244 -3.44013e-17)
(0.00324148 -0.00109507 7.76691e-18)
(-9.53572e-05 -0.00209537 7.97757e-19)
(0.012137 0.0128215 -2.78308e-18)
(1.20724e-05 -0.000174847 1.54339e-18)
(-0.0494135 -0.00298564 1.88637e-18)
(2.85574e-06 -4.19565e-05 -4.95331e-21)
(0.00638921 0.00783627 2.2779e-17)
(0.00434578 0.00127328 -5.23358e-17)
(-0.0585087 -0.00556089 -1.52745e-18)
(-3.86851e-05 -0.00183979 -1.76116e-17)
(-0.01269 0.00375254 4.58086e-17)
(-0.000813554 -0.00368818 -2.2492e-17)
(-0.00146047 -0.00636221 -7.51911e-19)
(-0.0240757 -0.00688993 5.94807e-17)
(0.00144441 -0.000165964 -3.15079e-18)
(-0.0275515 -0.00304681 -6.39522e-17)
(8.53007e-05 -0.00223113 -1.92104e-19)
(0.00454984 -0.00240445 -1.91817e-17)
(0.000554261 0.00116801 4.84003e-17)
(-0.0516824 -0.0086446 6.17393e-18)
(0.000969622 -0.000244799 -3.49717e-18)
(0.00539574 -0.00775646 2.59798e-17)
(0.0018072 -0.000307215 5.24168e-18)
(-0.052715 -0.00229625 -5.74282e-19)
(0.00481378 0.000467991 -9.94178e-18)
(0.000965118 -0.00132444 1.17036e-17)
(-0.000204326 -0.00201388 -1.1433e-17)
(-0.055134 -0.0181401 -5.4788e-17)
(1.30843e-06 -4.23697e-05 -4.87411e-19)
(2.22982e-06 -5.66396e-05 -8.37632e-19)
(0.00660595 0.00589514 -2.20431e-17)
(-0.0498219 -0.0030403 -1.21526e-18)
(-0.0202335 0.00730559 -8.96861e-18)
(7.67151e-05 -0.00113559 -3.50252e-18)
(0.0115855 -0.0079828 1.69598e-17)
(0.00263039 -0.000822144 9.08178e-18)
(1.05716e-05 -0.000720528 3.42065e-20)
(0.011618 0.0132449 -9.01224e-19)
(0.0121221 -0.00788324 -1.32934e-17)
(-0.00025682 -0.00657321 -6.03615e-17)
(0.000698773 -2.39173e-05 7.22929e-18)
(0.0100591 0.00714648 -9.13744e-18)
(-0.00032027 -0.00243958 -1.0444e-18)
(0.00623089 0.00520579 7.22351e-19)
(5.31508e-05 -0.00136468 -8.03361e-18)
(0.000681345 -0.00182824 1.33571e-18)
(0.000214109 -0.00493331 -2.64643e-17)
(2.24352e-05 -0.00179802 1.42507e-17)
(0.00973415 0.00789743 -1.26313e-17)
(0.00799153 -0.00175992 1.13173e-17)
(0.00785908 -0.00217862 4.3046e-17)
(-0.00127303 -0.0036594 -2.58628e-18)
(-0.00273012 -0.00529792 -3.94539e-17)
(0.00941486 -0.0137287 6.11223e-17)
(-0.0639684 -0.00839449 -1.20135e-17)
(-0.0310557 -3.555e-05 5.50583e-17)
(0.00938973 0.00885862 -4.82107e-18)
(-0.0390018 -0.00544345 -2.73414e-17)
(0.000156445 -0.00314726 -8.77828e-19)
(-0.0157637 0.00817257 1.50575e-18)
(0.0156904 -0.00232541 2.82189e-18)
(0.00116918 -0.000687734 -3.39072e-18)
(0.00549173 -8.41813e-05 1.73288e-18)
(0.0192319 -0.0128373 -1.35952e-17)
(0.00144863 -0.00273887 -6.93275e-18)
(0.000264839 -0.000559447 -3.36925e-19)
(0.000263163 -0.000526045 -2.04202e-18)
(0.00681968 0.00771728 -4.10132e-18)
(-0.0491827 -0.00348374 3.21446e-18)
(0.00430918 0.000882008 -6.67428e-18)
(-0.0190219 -0.00741284 9.12834e-18)
(0.000406739 -0.000307418 5.66585e-18)
(-0.0292101 0.00539669 1.22686e-17)
(-0.0013252 -0.00291091 2.12979e-18)
(0.00113944 -0.000259128 -2.04651e-17)
(0.0050933 -0.00774643 -2.92685e-17)
(0.00281537 -0.00232149 -1.19474e-17)
(0.00305005 -0.00114096 1.4297e-17)
(0.000418647 -0.000514791 4.81692e-17)
(-0.00013915 -0.00677888 -1.03063e-16)
(0.000226701 -0.00311743 3.34202e-18)
(0.0247963 0.0124393 2.36364e-17)
(0.00166716 -0.00133084 -7.15337e-18)
(-0.0132479 0.00266918 1.8732e-17)
(0.00665609 0.00786545 -1.87865e-18)
(0.0165764 0.00653429 -2.03896e-18)
(0.00381483 -0.0031347 1.26958e-17)
(-0.00412317 -0.00851733 9.59275e-17)
(0.000124124 -0.000869417 -4.24573e-18)
(3.60536e-06 -5.00278e-05 1.68092e-19)
(2.46871e-05 -0.00153182 -4.87922e-18)
(1.40778e-05 -0.000743823 -4.63374e-18)
(-0.0559145 -0.00413138 1.81041e-18)
(0.000106892 -2.20218e-05 1.17302e-18)
(0.00876544 0.0121326 2.71385e-19)
(-0.0534306 -0.00715724 1.65147e-17)
(0.00491234 -0.00783671 4.35582e-17)
(-0.00424927 -0.00106817 -1.10141e-17)
(-0.0050105 -0.00145465 5.1164e-17)
(0.0177986 0.00684946 -2.1752e-18)
(-0.000862032 -0.00624567 3.33734e-18)
(-3.3243e-05 -0.00183892 -2.65664e-19)
(-1.10738e-06 -0.000191519 -3.76503e-19)
(9.50085e-05 -0.000958953 -1.07079e-17)
(0.000642361 -0.000175455 8.15321e-18)
(0.00106063 -0.000323676 7.70891e-18)
(2.5591e-05 -1.36609e-05 8.37464e-19)
(0.00717367 -0.00544274 2.12764e-17)
(0.00612303 -0.010157 -6.09966e-18)
(-0.000363087 -0.00244882 1.77528e-18)
(-0.0595953 -0.0200243 -4.50105e-17)
(0.000958443 -0.00184684 5.63232e-18)
(-0.0481172 -0.00535929 1.19866e-17)
(-1.39699e-06 -1.05757e-05 6.59606e-18)
(0.00102886 0.00172807 -1.49283e-17)
(0.00239862 -0.00437323 2.70667e-17)
(-3.28031e-06 -2.27497e-05 -6.93099e-18)
(7.67001e-07 -0.000299603 6.1545e-18)
(-0.0581489 -0.00573149 -9.98067e-18)
(0.00310167 -0.00219986 1.09392e-18)
(-0.0418274 0.000248 9.54352e-18)
(-0.0268949 -0.00749589 5.7625e-17)
(0.00758795 0.000151328 2.57282e-17)
(0.0102363 -0.00179325 -1.1153e-17)
(0.00106748 6.22841e-05 3.65968e-18)
(-0.0475484 -0.0115676 3.03928e-17)
(0.000420145 -0.00197598 -1.42057e-18)
(0.00309387 -0.000993371 8.64423e-18)
(0.0127948 0.0132955 -1.23976e-18)
(3.52531e-07 -0.000190414 -1.69642e-18)
(0.000228401 -0.00144662 -3.49348e-19)
(0.00132376 -0.000363383 5.83124e-18)
(0.00649563 0.00285838 -2.37151e-17)
(-0.047625 -0.00369842 6.06105e-19)
(0.00283441 -0.00304527 -1.13436e-17)
(0.004071 -0.0030284 -9.82522e-18)
(0.000505887 -0.00824862 -8.00735e-18)
(-0.00221575 -0.000493684 -1.59237e-17)
(-2.92362e-05 -0.00190479 1.85184e-18)
(0.000394448 -0.00226895 -6.74548e-20)
(-0.0555259 -0.00288918 3.96819e-19)
(0.000623792 -0.000168805 -1.8155e-19)
(-0.0548385 -0.00290371 2.91542e-18)
(1.03204e-05 -3.07801e-05 5.62852e-20)
(0.0027848 -0.000786086 3.58863e-18)
(-0.046306 -0.00493114 -1.61541e-16)
(0.0102776 0.00415921 7.73691e-20)
(0.014093 0.00428867 -1.0889e-17)
(0.00231574 -0.00702048 -4.65585e-17)
(0.00648933 -0.00375201 3.05634e-17)
(2.67525e-06 -0.000109692 -3.60737e-18)
(-6.62666e-07 -9.44805e-06 -1.08827e-18)
(0.00675884 -0.00584486 3.04903e-17)
(0.00157853 -0.00136385 -1.96638e-18)