/*--------------------------------*- C++ -*----------------------------------*\
| =========                 |                                                 |
| \\      /  F ield         | OpenFOAM: The Open Source CFD Toolbox           |
|  \\    /   O peration     | Version:  v2012                                 |
|   \\  /    A nd           | Website:  www.openfoam.com                      |
|    \\/     M anipulation  |                                                 |
\*---------------------------------------------------------------------------*/
FoamFile
{
    version     2.0;
    format      ascii;
    class       surfaceVectorField;
    location    "1000";
    object      Uf_0;
}
// * * * * * * * * * * * * * * * * * * * * * * * * * * * * * * * * * * * * * //

dimensions      [0 1 -1 0 0 0 0];


internalField   nonuniform List<vector> 
20642
(
(0.0402019 -0.00250652 -2.7492e-21)
(0.0460627 -0.00282127 3.87981e-20)
(0.0571993 0.000595366 -2.90964e-21)
(1.00422 0.0640718 -3.99544e-23)
(1.00394 0.0650866 -4.34085e-22)
(1.00512 0.0651916 -7.34552e-22)
(0.99747 0.158769 -1.93912e-20)
(1.00526 0.160112 -1.6821e-21)
(0.952933 0.15443 7.59908e-21)
(1.06214 0.0345871 0)
(1.06189 0.0360088 2.88892e-21)
(1.06057 0.0346823 0)
(0.992609 0.0304886 2.69093e-23)
(0.992089 0.0310331 0)
(0.992852 0.0314266 -3.03712e-22)
(1.00479 0.0627117 3.94833e-23)
(1.00353 0.0625833 2.47401e-22)
(1.09783 0.0663395 -3.25057e-21)
(1.09573 0.0650654 -2.64325e-20)
(1.09602 0.0673854 1.12706e-20)
(0.997164 0.0791184 2.47456e-21)
(0.995249 0.0786118 1.80937e-22)
(0.996263 0.0811113 2.634e-23)
(1.1183 0.0394613 0)
(1.11705 0.0408483 0)
(1.11936 0.0414597 4.10492e-20)
(0.00505651 -0.0780263 -4.02495e-21)
(0.0132201 -0.0800332 2.24961e-20)
(0.99919 0.0799022 -8.65551e-22)
(0.998316 0.0775692 -4.07822e-22)
(1.0394 0.0311038 -4.1465e-21)
(1.03993 0.0322823 3.92064e-21)
(1.04071 0.0313229 -1.09401e-20)
(1.01797 0.000526082 5.30712e-21)
(1.01844 0.000396295 -3.77e-21)
(0.960222 0.0955847 9.26122e-22)
(0.908714 0.0933822 7.36916e-22)
(0.962012 0.100933 -7.83883e-22)
(1.00564 0.0506421 -1.66047e-22)
(1.00524 0.0515925 1.58049e-21)
(1.00639 0.051734 -1.47578e-21)
(0.0323199 -0.00475019 -4.65989e-21)
(0.0209004 -0.00767536 -6.21116e-21)
(0.982812 -0.000183487 0)
(0.982769 -0.000182913 -4.71941e-22)
(0.98542 -0.000114834 0)
(1.00101 0.0807328 -8.63167e-22)
(1.00292 0.0812874 0)
(1.00202 0.0789563 0)
(1.14278 0.158209 1.0846e-20)
(1.14286 0.160069 -7.51556e-21)
(1.14052 0.160118 -1.45986e-20)
(0.0589367 -0.0346896 -5.86816e-21)
(0.0807043 -0.0270516 -5.40875e-21)
(0.0708403 -0.0222531 -5.04968e-21)
(1.03067 0.0818863 9.68505e-22)
(1.03053 0.083692 -1.6333e-21)
(1.02925 0.0822956 -4.15818e-22)
(1.00183 0.0255623 0)
(1.00239 0.0256172 0)
(1.00217 0.0263996 0)
(1.12016 0.109303 2.35837e-20)
(1.12196 0.107906 -4.1892e-21)
(1.12208 0.111178 -2.07815e-20)
(1.00121 0.0253211 6.89484e-22)
(1.00152 0.0246428 5.13269e-22)
(1.05608 0.0524801 -1.32147e-20)
(1.05722 0.0535873 6.24953e-21)
(1.05558 0.0534366 -9.69004e-21)
(1.02451 0.0833283 0)
(1.02601 0.0829285 0)
(1.02464 0.0815032 0)
(0.862093 0.113777 1.65013e-21)
(0.917021 0.121991 -6.93059e-21)
(0.930754 0.121688 3.42746e-21)
(0.00578969 -0.0739059 -1.19621e-20)
(1.01152 0.0830733 -6.1551e-23)
(1.01333 0.0833372 7.61049e-22)
(1.01223 0.0811986 -1.00715e-21)
(1.01798 -0.0279533 9.03603e-24)
(1.0191 -0.0287635 3.08078e-24)
(1.01885 -0.0273459 -4.11534e-22)
(0.0106099 -0.0681354 7.41264e-21)
(0.0152932 -0.0733375 -1.57101e-20)
(1.15982 0.121175 2.82789e-20)
(1.16229 0.121867 7.2812e-21)
(1.1598 0.123253 -8.25011e-21)
(1.05219 0.0412652 5.56657e-21)
(1.05093 0.0402661 4.16049e-21)
(1.05232 0.0400111 2.73727e-21)
(0.0876784 0.0156025 9.38327e-21)
(0.104833 0.0199324 -5.7311e-21)
(0.101258 0.0201517 1.04751e-20)
(0.986852 0.0105487 0)
(0.98663 0.010189 -2.58462e-22)
(0.986544 0.0105435 0)
(0.99415 0.0771329 -2.49099e-21)
(0.993753 0.079177 -5.52333e-22)
(1.02893 0.0559513 1.51895e-21)
(1.03002 0.0568636 1.38575e-21)
(1.0288 0.0574231 -4.19049e-21)
(0.993643 0.000313116 -1.92023e-21)
(0.99321 0.000548867 -5.45018e-21)
(0.994046 0.000241785 2.71877e-21)
(1.09993 0.0675653 2.64978e-20)
(1.09941 0.0652192 1.22217e-20)
(1.04617 0.0968723 -2.9618e-21)
(1.04645 0.0989005 -4.3915e-21)
(1.04819 0.0976226 -2.56277e-21)
(0.992126 -0.000126937 0)
(0.993217 -4.66843e-05 -2.46668e-23)
(0.990386 -0.000746723 0)
(0.979551 0.00360151 4.53177e-22)
(0.979366 0.00390489 -4.94132e-22)
(0.97971 0.00393548 -4.96299e-22)
(1.10716 0.0319095 -1.57213e-20)
(1.10508 0.0332173 -2.11925e-20)
(1.10493 0.0306273 -4.42783e-21)
(1.15803 0.153866 1.48161e-20)
(1.16002 0.152829 7.82727e-21)
(1.1591 0.155683 1.20704e-20)
(1.15568 0.151555 -2.88005e-20)
(1.15536 0.154744 2.87153e-21)
(1.03909 0.176743 -1.96734e-21)
(1.06099 0.178702 -4.50753e-21)
(1.02094 0.175758 8.13343e-21)
(1.03101 0.0799476 2.29761e-21)
(1.03252 0.0812997 7.09524e-21)
(0.0787068 -0.00783767 -1.63665e-22)
(0.103319 -0.00557362 1.69921e-21)
(0.103618 -0.00159806 -3.17504e-20)
(0.996054 0.0558396 -2.15412e-21)
(0.994493 0.0567841 4.154e-21)
(0.994072 0.05829 -5.09383e-21)
(0.987054 0.0106064 7.20288e-22)
(0.98698 0.0109192 8.36763e-22)
(1.03821 0.0310571 0)
(1.03883 0.0301336 -8.52627e-21)
(1.09365 0.162385 -4.55761e-21)
(1.09072 0.164279 1.16037e-20)
(1.09097 0.160935 -5.53055e-21)
(-0.0684285 -0.0104257 2.001e-20)
(-0.057535 -0.00608702 -4.01304e-20)
(-0.0726468 -0.00872384 9.48962e-21)
(1.02213 0.0326259 7.03062e-22)
(1.02181 0.0315977 8.98207e-21)
(1.02106 0.0321571 -4.17008e-22)
(1.02478 0.0346893 3.5332e-21)
(1.02432 0.0336613 0)
(1.02545 0.0338914 0)
(1.09582 0.161048 6.02648e-21)
(1.09537 0.164105 5.29692e-21)
(0.0157091 -0.0560526 4.31423e-20)
(1.11797 0.110304 -1.02907e-22)
(1.11833 0.107017 8.93451e-21)
(0.979724 0.00329764 1.47474e-23)
(0.979415 0.00322791 1.14006e-21)
(1.00478 0.175045 6.5246e-21)
(1.05292 0.174715 2.6807e-21)
(0.234641 0.0674508 -2.16807e-21)
(0.203952 0.0654053 -5.13473e-21)
(0.188269 0.060623 2.10024e-20)
(0.983537 0.0154257 8.58907e-22)
(0.984055 0.0157661 0)
(0.984037 0.0150277 0)
(1.00655 -0.00102253 4.43528e-22)
(1.00651 -0.00111713 1.06572e-22)
(1.0084 -0.00156264 1.74301e-22)
(1.05665 0.0512306 -5.59109e-21)
(1.05495 0.0512792 1.71412e-21)
(0.435945 0.082664 3.40473e-21)
(0.439363 0.0828213 -2.64439e-22)
(0.405856 0.078559 1.97964e-20)
(0.958006 -0.0382113 -4.04611e-22)
(0.974301 -0.0425723 9.63005e-22)
(0.973533 -0.0369108 -1.19693e-22)
(1.00982 0.0827972 0)
(1.00811 0.0825335 0)
(1.00892 0.0807116 0)
(0.99466 0.0751247 0)
(0.993055 0.0754637 0)
(1.00004 0.0825859 3.60851e-22)
(0.00872909 0.00147602 0)
(-0.00207745 -0.00162864 0)
(-0.00725905 -0.00179887 0)
(0.569137 0.10648 1.12874e-20)
(0.591409 0.108846 -1.13497e-20)
(0.535695 0.0996757 -1.49043e-20)
(0.0754266 0.0122512 0)
(0.0721554 0.0125293 0)
(1.05502 0.0160464 -7.69894e-22)
(1.05652 0.0165248 3.34282e-21)
(1.05498 0.0170989 -4.50109e-21)
(0.979896 0.00304923 -2.57346e-22)
(0.980037 0.00338334 -7.08043e-22)
(1.03037 0.0855932 1.92733e-21)
(1.03194 0.0850863 2.59996e-22)
(1.04752 0.0572647 7.19911e-21)
(1.04846 0.0585198 -8.70524e-21)
(1.04666 0.057935 5.66328e-21)
(0.996346 0.030932 -9.1591e-22)
(0.996218 0.0315021 -2.2007e-21)
(0.996863 0.0316104 -9.50182e-22)
(0.980057 0.00280305 6.98891e-22)
(0.979774 0.00268708 1.90229e-22)
(1.04847 0.0561815 0)
(1.04644 0.0559523 3.1956e-21)
(1.05215 0.04198 3.05645e-21)
(1.05333 0.0418865 0)
(1.01351 0.0379444 1.86275e-21)
(1.01258 0.0371716 0)
(1.0134 0.0367134 0)
(0.982601 -0.000108964 -5.34033e-22)
(0.982511 -0.000106561 -7.13532e-22)
(0.984967 -8.59403e-05 1.17884e-22)
(1.05512 0.0149191 1.57038e-20)
(1.05353 0.0154348 -2.95634e-21)
(0.497644 0.098776 4.27046e-21)
(0.547572 0.105163 -2.98094e-21)
(0.535238 0.104231 -1.65745e-20)
(1.01337 0.00553921 1.56188e-21)
(1.01353 0.00624513 -5.93922e-21)
(1.0127 0.00592889 -4.41441e-21)
(1.00011 0.0979118 -3.05308e-21)
(0.999145 0.100712 -5.70093e-22)
(0.997167 0.098023 1.73989e-22)
(1.16012 0.118318 -1.29616e-20)
(1.15711 0.120048 0)
(1.01289 0.0030962 -1.37115e-21)
(1.01218 0.00310422 -5.83117e-21)
(1.01194 0.00227199 -7.34324e-21)
(1.04618 0.0945984 -4.93461e-21)
(1.04432 0.0957873 5.44788e-21)
(0.982962 -0.000192321 6.55947e-23)
(0.982311 -0.000227694 2.74959e-22)
(0.982718 -0.000423511 0)
(0.982709 -0.000458626 -2.1011e-22)
(0.982946 -0.000514629 2.10419e-22)
(1.10906 0.0336778 -2.67079e-20)
(0.999663 0.0557622 5.89335e-21)
(0.982405 0.0563514 -7.74013e-21)
(0.985613 0.00805523 -1.22521e-21)
(0.985346 0.00802518 7.93656e-22)
(0.985404 0.00771453 -6.71543e-22)
(1.02327 0.0411001 -3.41388e-21)
(1.02224 0.0403274 3.54538e-21)
(1.0224 0.0415823 -1.60606e-21)
(1.01085 0.0850238 -2.66129e-22)
(1.0002 0.1255 1.40454e-22)
(1.02472 0.128717 0)
(1.02449 0.126905 0)
(0.984089 0.000207018 7.1384e-22)
(0.984225 0.000209292 1.03705e-22)
(0.985628 7.35809e-05 8.72882e-22)
(1.01327 0.00367052 1.05291e-20)
(1.01342 0.00298255 4.37441e-21)
(1.02358 0.125265 -4.68413e-22)
(1.02572 0.123072 -3.88552e-22)
(1.02288 0.123049 1.66449e-22)
(0.995967 -0.000803588 1.79802e-23)
(0.995499 -0.000793175 -3.34191e-22)
(0.995853 -0.000415015 5.33749e-24)
(0.996425 -0.000867872 -9.4299e-24)
(0.99672 -0.00130169 3.14526e-24)
(1.0137 0.038937 -5.41924e-21)
(1.01438 0.0384578 -2.20506e-21)
(0.985315 0.000651385 -6.34139e-22)
(0.985432 0.000649618 -1.02625e-21)
(0.985052 0.000481689 -2.5527e-22)
(0.996542 0.0301299 1.3853e-21)
(0.995851 0.0300179 1.01122e-21)
(0.446688 0.0912436 2.1506e-21)
(0.446334 0.0913815 3.43254e-20)
(0.406846 0.0894862 3.20826e-20)
(0.188155 0.00547736 0)
(0.177571 0.00215089 0)
(0.165304 -0.00386778 2.60062e-20)
(0.982923 0.0149162 -4.46971e-22)
(0.982714 0.0157529 8.12003e-22)
(0.979009 0.00385616 -2.3737e-22)
(0.979186 0.00422775 -5.94395e-24)
(0.809407 0.103827 2.45722e-21)
(0.791409 0.102399 -2.43395e-21)
(1.02931 0.000788085 -7.31433e-21)
(1.02949 0.000876433 0)
(0.124673 0.0245533 -1.84363e-20)
(0.110794 0.0200018 -5.03969e-22)
(1.015 0.0835076 7.38713e-22)
(1.0144 0.0854469 7.38945e-22)
(0.426491 0.0826532 -3.55733e-21)
(0.470876 0.0890915 9.95891e-21)
(1.04368 0.0606635 4.86619e-21)
(1.04482 0.0618908 1.62404e-20)
(1.04469 0.0598629 -1.40429e-20)
(1.14229 0.155764 -3.04328e-21)
(1.14492 0.155957 2.41602e-20)
(0.98551 -0.000831696 1.12685e-22)
(0.985689 -0.00111733 -1.16087e-22)
(0.985274 -0.000914149 -3.2428e-24)
(1.10166 0.168773 5.75474e-21)
(1.09598 0.167863 -8.70746e-21)
(1.13227 0.170503 2.82972e-20)
(1.05276 0.00832146 8.763e-21)
(1.05298 0.00939843 -6.44741e-21)
(1.05162 0.00868006 1.18895e-20)
(0.982167 -6.56448e-05 9.51107e-22)
(0.982742 -0.000122251 7.34657e-22)
(0.980586 0.00295647 0)
(0.980842 0.0030068 6.4848e-22)
(0.980727 0.00270039 8.24889e-24)
(1.00643 0.0820985 0)
(1.00735 0.0843208 1.27648e-22)
(1.11979 0.153162 0)
(1.1172 0.15335 0)
(1.1186 0.150524 1.02202e-20)
(-0.0569181 -0.000719282 1.08512e-21)
(-0.039372 0.00278616 -5.98807e-24)
(-0.0519953 -0.000861438 2.16063e-20)
(0.470445 0.096743 3.23117e-20)
(0.460484 0.0969912 -1.85844e-20)
(1.05709 0.0501705 4.6164e-21)
(1.05755 0.0490082 -4.72861e-21)
(1.05599 0.0489853 9.14809e-21)
(1.02878 0.0859724 1.85315e-21)
(1.03023 0.0874782 -1.85762e-22)
(0.991505 0.0126794 4.71577e-22)
(0.99118 0.0122993 0)
(0.991501 0.0122606 0)
(1.12197 0.152362 1.5749e-20)
(1.12161 0.155072 0)
(1.13383 0.0716545 0)
(1.13342 0.0737946 1.06524e-20)
(1.13595 0.0728112 1.01578e-20)
(1.05084 0.157248 2.71504e-21)
(1.04986 0.156233 2.72315e-21)
(1.05376 0.159552 1.01348e-21)
(0.188923 0.0537031 -1.16209e-20)
(0.161638 0.0491232 -1.08367e-20)
(0.169578 0.0501669 2.79135e-20)
(1.04256 0.0616646 -1.45411e-21)
(1.04238 0.0595992 4.883e-21)
(1.16224 0.13191 -1.48843e-20)
(1.16046 0.133872 -3.26332e-21)
(1.16376 0.134217 -1.09021e-20)
(0.75687 0.0936673 5.41066e-21)
(0.827246 0.10508 2.66897e-21)
(0.187204 0.0640027 0)
(0.225442 0.0677177 1.74332e-21)
(0.236161 0.0696781 0)
(-0.1032 -0.00313644 1.92451e-20)
(-0.106795 -0.00338122 4.86305e-22)
(-0.0878835 1.30406e-05 -1.92582e-20)
(1.02137 0.0838231 2.8372e-21)
(1.02308 0.0835738 4.49055e-22)
(1.02153 0.0820624 3.69354e-22)
(0.993341 0.000314878 -5.60364e-22)
(0.967822 0.0490655 -6.75903e-21)
(0.97869 0.0450131 -1.39371e-21)
(0.973768 0.0495612 2.32846e-21)
(0.980328 0.00288987 2.28698e-22)
(0.980226 0.002553 4.84345e-22)
(0.436282 0.0907238 -2.57826e-20)
(0.488215 0.0958222 -2.44858e-20)
(1.00383 0.017847 -2.48444e-21)
(1.00338 0.01721 -1.61784e-21)
(1.00325 0.017887 2.30259e-21)
(1.0502 0.0156886 -2.33187e-21)
(1.05139 0.0163487 7.72733e-22)
(1.05022 0.0168255 0)
(0.976443 0.00489104 8.01747e-23)
(0.97632 0.00424471 -1.0598e-22)
(0.976965 0.00447009 -8.70041e-23)
(0.593351 0.110608 1.07164e-20)
(0.541926 0.104258 -8.98953e-21)
(0.936703 0.0435446 3.52049e-21)
(0.106284 -0.00724712 1.01452e-20)
(0.112042 -0.00798375 -9.37841e-21)
(0.0896987 -0.0132199 8.8969e-21)
(1.02322 0.0332018 -3.79174e-21)
(1.02241 0.0338003 -3.64117e-21)
(1.04617 0.0927213 -2.91822e-21)
(1.04604 0.0908113 1.1755e-22)
(1.04435 0.0916524 -2.75166e-21)
(0.998757 -0.000945212 3.90267e-25)
(0.998405 -0.00106141 1.00068e-23)
(0.999698 -0.00157813 3.07378e-23)
(1.04903 0.0150998 -2.38008e-21)
(1.0501 0.0145883 -2.2314e-22)
(0.968675 0.12166 -2.19039e-21)
(0.971399 0.120498 9.33184e-21)
(0.996424 0.0238931 6.27753e-22)
(0.996267 0.0243959 1.06003e-21)
(0.995958 0.0237492 3.68474e-21)
(0.985139 0.00064424 7.47952e-22)
(0.985601 0.00083843 0)
(0.146524 0.0472705 -6.15359e-21)
(0.13836 0.04514 2.02627e-20)
(0.122932 0.0423343 2.72401e-20)
(0.986947 -0.000561694 1.27414e-22)
(0.987213 -0.00055485 2.6685e-23)
(0.989071 -0.00026488 1.42111e-22)
(0.985773 -0.000759212 1.65491e-22)
(0.985617 -0.00059176 -5.98113e-22)
(1.00988 0.012204 4.87304e-21)
(1.01012 0.0129539 3.17367e-21)
(1.00925 0.0125543 -2.56806e-22)
(0.417462 0.07285 -1.51649e-24)
(0.423251 0.0737244 2.13849e-20)
(0.387075 0.0639447 -7.49735e-21)
(1.02005 0.0606532 -7.66076e-23)
(1.0213 0.0603198 8.36377e-22)
(1.0199 0.0591702 9.77117e-22)
(0.95724 0.0473287 -1.10369e-21)
(0.262622 0.048339 -3.66757e-21)
(0.253651 0.0449381 -3.51911e-21)
(0.287961 0.050815 -7.30808e-21)
(1.02281 0.127613 0)
(1.0207 0.127247 0)
(1.0189 0.125444 0)
(-0.0679457 -0.0126114 -9.3185e-21)
(0.133113 0.0274868 0)
(0.165586 0.0334174 -1.22273e-20)
(0.139569 0.0321145 0)
(1.01534 -0.00697965 2.96097e-22)
(1.01552 -0.00772354 2.18806e-22)
(1.01613 -0.00722936 5.4051e-24)
(1.01953 0.0836886 -1.6263e-22)
(1.02098 0.0856594 5.80937e-22)
(1.00071 0.0255394 1.61183e-21)
(1.00024 0.0256785 2.12929e-21)
(1.001 0.0263216 -2.54518e-21)
(0.208503 0.0559529 -8.57088e-21)
(0.209351 0.0571192 -9.24002e-21)
(0.182773 0.0516658 2.04736e-20)
(1.11741 0.0372686 0)
(0.321391 0.0788835 7.77565e-21)
(0.275634 0.0732702 -6.8049e-21)
(0.299755 0.0783466 1.87278e-21)
(1.07856 0.136362 -9.23094e-21)
(1.08035 0.135276 -1.2292e-20)
(1.08026 0.138223 -1.89787e-21)
(0.992092 -0.000780781 -1.0486e-22)
(0.991899 -0.0011313 5.84309e-24)
(0.991666 -0.000734408 -3.50619e-22)
(1.06374 0.0346806 5.63234e-21)
(1.0625 0.0334517 0)
(1.08851 0.166266 1.74495e-20)
(1.08861 0.168585 -9.00201e-22)
(1.08548 0.165214 -1.00676e-20)
(1.13402 0.0692209 -5.36986e-21)
(1.13165 0.0702611 1.29011e-20)
(1.02006 0.0621678 -9.58453e-22)
(1.01884 0.0607983 4.60477e-22)
(1.10358 0.0341788 -2.30962e-21)
(1.10158 0.0330243 1.54763e-20)
(1.10158 0.0353517 1.75706e-20)
(1.00047 0.0248499 -3.31629e-22)
(1.03725 0.0309431 4.82008e-22)
(1.03773 0.0319025 1.04988e-20)
(1.08602 0.178542 0)
(1.10152 0.179699 -1.14349e-20)
(1.07112 0.17684 1.30757e-20)
(1.10328 0.169277 -1.73223e-20)
(1.05921 0.166289 -1.85345e-20)
(1.04893 0.15499 1.26269e-22)
(1.04402 0.158542 0)
(1.03666 0.0299527 5.21736e-22)
(1.0361 0.0308112 -5.67436e-23)
(1.05899 0.178389 8.92401e-21)
(1.09502 0.177316 3.14555e-21)
(1.01694 -0.0283865 1.95154e-23)
(1.01698 -0.0270049 6.91115e-22)
(1.00078 0.0955768 -6.68998e-23)
(1.00258 0.098008 5.45642e-22)
(1.07613 0.134926 0)
(1.07633 0.138026 7.17141e-21)
(1.15353 0.149491 -1.43247e-20)
(1.1559 0.148525 3.69519e-21)
(1.11716 0.173994 -2.86402e-22)
(1.11479 0.171364 -2.46886e-21)
(1.11128 0.171123 -1.91275e-21)
(0.049611 -0.00344487 1.63742e-20)
(0.066107 -0.000599449 -3.87218e-20)
(0.051956 -0.00464431 -4.11171e-20)
(0.98576 0.0083896 -1.04357e-22)
(0.98579 0.00809588 7.39855e-22)
(-0.041141 -0.00106836 -2.04287e-20)
(-0.0290692 0.00299176 -2.60796e-22)
(-0.0470533 -0.000823176 2.21812e-20)
(1.06588 0.070179 -3.13685e-21)
(1.06493 0.071435 1.68686e-21)
(1.06419 0.0696295 4.4796e-21)
(0.217765 0.0585886 0)
(0.20969 0.0572717 2.32405e-20)
(0.986327 0.00985896 -1.45882e-22)
(0.986615 0.00985545 -1.82276e-22)
(0.996574 0.0233544 -1.11953e-21)
(0.996922 0.0240098 -5.12744e-22)
(1.03289 0.0776302 -1.57463e-21)
(1.03441 0.0786041 3.67166e-21)
(1.03414 0.0766567 0)
(0.00481989 -0.00302174 9.33714e-21)
(0.00149881 -0.00211196 -1.52292e-20)
(0.0176621 0.00106371 -2.21124e-21)
(-0.101582 -0.00388576 1.51144e-20)
(-0.124377 -0.00696169 4.73912e-20)
(1.02419 0.051472 0)
(1.02428 0.0527347 1.60554e-21)
(1.0231 0.0518122 -1.2284e-21)
(0.894568 0.12558 4.1808e-22)
(0.9417 0.131395 -9.30001e-22)
(0.881265 0.124079 -5.42745e-21)
(1.01446 0.0735896 -9.16049e-24)
(1.01341 0.0721266 3.31585e-22)
(1.015 0.0720862 -6.64767e-23)
(1.04797 0.0936524 7.77225e-22)
(0.980458 0.00322636 2.78616e-22)
(1.09108 0.167324 1.91235e-20)
(1.01175 0.0363237 0)
(1.01176 0.037441 0)
(0.990754 0.00882988 -4.06758e-22)
(0.990724 0.00844572 2.36804e-21)
(0.990416 0.00852384 1.70403e-21)
(0.989582 0.0306281 -6.41147e-23)
(0.990089 0.0299407 7.22427e-22)
(0.990375 0.0309488 -1.06741e-21)
(0.988877 0.0303383 -4.49921e-23)
(0.989071 0.031411 2.72452e-22)
(0.129724 -0.00142073 1.05198e-20)
(1.16108 0.130091 0)
(1.16384 0.130154 0)
(1.02436 0.0851455 0)
(0.313514 0.0500436 4.40384e-21)
(0.316484 0.049376 -1.92574e-20)
(0.343947 0.0574276 -1.12172e-20)
(0.999343 0.00132586 -2.71933e-21)
(0.998975 0.000954135 2.17581e-21)
(1.00052 0.00162979 -9.75563e-22)
(0.981866 -0.00196115 0)
(0.98176 -0.00180267 0)
(0.981936 -0.0017654 0)
(0.981792 -0.00215014 -3.81119e-22)
(0.981972 -0.00212729 0)
(0.127898 0.0226215 8.50918e-21)
(1.11616 0.178315 -3.35801e-20)
(1.11917 0.17589 -2.22588e-20)
(1.1158 0.175935 -7.16e-22)
(1.02935 0.174842 8.86277e-21)
(0.993809 0.171381 0)
(1.0445 0.175099 0)
(1.02745 0.00412741 1.65916e-21)
(1.02782 0.00463668 -6.59096e-22)
(1.02806 0.00407138 -1.59804e-21)
(1.0067 -0.000898069 6.42365e-24)
(1.0043 -0.000560543 7.0355e-24)
(0.68374 0.0818501 -4.23455e-22)
(0.701506 0.0832995 -4.55672e-21)
(-0.0355187 -0.000962469 -1.72867e-20)
(0.982301 -0.00159778 4.08569e-22)
(0.982205 -0.00169967 6.67697e-23)
(0.982186 -0.00150365 0)
(0.982372 -0.00148033 1.00771e-21)
(0.982408 -0.00167233 -5.37661e-22)
(0.990125 -6.69356e-05 -9.72291e-23)
(0.99357 -0.000148801 0)
(0.981725 -0.00234994 -7.44498e-22)
(0.981602 -0.0021982 2.17041e-22)
(0.981645 -0.00258731 -7.24727e-22)
(0.981842 -0.00254178 2.50632e-23)
(0.0603285 0.00818621 7.5978e-21)
(0.0727427 0.0105736 0)
(0.149876 0.00474875 2.48577e-21)
(0.152309 0.00782497 -7.27033e-21)
(0.174335 0.0107072 -2.7575e-22)
(1.00715 0.0310416 -5.60075e-21)
(1.00698 0.0301921 -2.71615e-21)
(1.00771 0.0308428 -1.49189e-21)
(1.01651 -0.0121123 1.90809e-22)
(1.01649 -0.012898 5.59495e-24)
(1.01568 -0.0122817 -3.58389e-23)
(1.0994 0.142864 -3.09529e-21)
(1.09664 0.142407 0)
(1.09825 0.140571 -8.2894e-21)
(0.0481949 0.011783 -1.39731e-20)
(0.0379079 0.0082103 -1.33568e-20)
(0.0530927 0.0120187 -1.44296e-20)
(0.984672 -0.000510284 2.5135e-22)
(0.98526 -0.000388185 2.65404e-22)
(0.985429 -0.000387625 1.51397e-22)
(1.02686 0.00425893 0)
(1.02708 0.00369553 3.50944e-21)
(0.906399 0.12366 -1.94802e-21)
(0.832395 0.115049 2.45658e-21)
(0.429463 0.0895329 3.64837e-21)
(0.420088 0.0879296 -4.85674e-21)
(0.469561 0.0933903 2.1094e-20)
(1.10763 0.178977 3.05703e-21)
(0.312693 0.0513195 1.12997e-20)
(0.287087 0.0426454 1.96627e-20)
(1.07611 0.150549 -7.25273e-21)
(1.07351 0.149436 -7.05688e-22)
(1.07413 0.152252 -6.38392e-21)
(1.00429 0.0177895 -1.2263e-21)
(1.00421 0.018445 2.98731e-22)
(0.193616 0.0356568 3.47225e-21)
(0.200639 0.039625 -1.25871e-20)
(1.10186 0.143912 1.31392e-21)
(1.09979 0.145794 -9.91677e-21)
(1.0165 0.0836507 0)
(1.01536 0.0818334 0)
(1.13678 0.136806 2.69291e-20)
(1.13638 0.138957 -2.10435e-20)
(1.1389 0.138389 4.96398e-20)
(1.02404 0.0502458 0)
(1.02522 0.0510376 3.18307e-21)
(0.151508 0.00228716 0)
(1.05325 0.0103501 -1.43838e-20)
(1.05229 0.0106429 5.79837e-21)
(1.05347 0.0113852 0)
(1.06693 0.106421 0)
(1.06623 0.10764 -5.1045e-21)
(1.06826 0.107625 -6.91425e-21)
(1.08119 0.133475 7.01885e-21)
(1.08253 0.131 4.47886e-21)
(1.07961 0.131148 6.18551e-21)
(1.00596 0.0313884 6.21167e-21)
(1.00661 0.0311538 -1.00261e-21)
(1.00578 0.0305938 4.15128e-21)
(0.993277 -0.000143573 4.30209e-22)
(1.05817 0.0513051 5.68044e-21)
(0.992313 0.0267823 4.76201e-22)
(0.992693 0.0264521 2.41298e-22)
(0.992238 0.0259681 -1.26266e-22)
(0.984359 0.00822426 5.31744e-22)
(0.98453 0.00855739 1.34486e-21)
(0.984276 0.00852213 1.36258e-21)
(-0.00801621 0.010048 -2.08978e-22)
(-0.018299 0.00664278 -2.25144e-21)
(-0.023709 0.00653232 -1.62772e-21)
(0.857675 0.0585806 0)
(0.890143 0.0626283 0)
(0.913139 0.0599601 0)
(0.981535 0.00408207 -7.99534e-22)
(0.981763 0.00412392 -4.43722e-22)
(0.98162 0.00383563 6.02909e-22)
(0.982373 -0.00127902 4.43046e-22)
(0.98246 -0.00139418 1.20481e-23)
(0.996575 0.0250824 -1.10096e-21)
(0.996076 0.0249108 -5.44492e-22)
(0.982301 -0.00117364 -1.16042e-22)
(0.982393 -0.00112088 5.3958e-23)
(1.05441 0.0100328 -9.21919e-21)
(1.02278 0.000848011 8.0172e-21)
(1.01701 0.000499387 -2.03584e-21)
(1.09421 0.098521 -7.75448e-21)
(1.09532 0.100645 -4.26658e-21)
(1.09296 0.100627 -1.37473e-20)
(0.981304 0.00407365 -1.04423e-22)
(0.981459 0.00437206 -4.11024e-22)
(-0.105115 -0.000666391 -9.3887e-23)
(-0.0885007 0.00267393 -2.52039e-20)
(0.197001 0.00835202 1.65845e-21)
(0.21159 0.0139455 1.18623e-20)
(1.0295 0.0258423 -4.38761e-21)
(1.02994 0.0249912 -7.52316e-21)
(1.02866 0.0249673 -1.70711e-21)
(0.993894 0.0267452 -7.2691e-22)
(0.993596 0.0272411 -2.41312e-22)
(0.994096 0.0275986 3.19705e-22)
(0.969073 0.170905 1.01096e-20)
(0.984207 0.169669 4.70519e-21)
(0.922118 0.16457 1.46954e-20)
(0.983283 -0.00609774 2.25668e-22)
(0.983285 -0.00649691 5.11602e-23)
(0.983552 -0.00627002 5.10076e-23)
(1.02629 0.119516 -4.2132e-22)
(1.02691 0.12144 -3.12175e-22)
(1.02787 0.119998 1.78227e-21)
(0.00828889 0.0140334 2.05684e-21)
(0.00266221 0.0133611 2.04953e-21)
(0.983274 -0.00574351 -1.4413e-22)
(0.983014 -0.00596287 1.66684e-22)
(0.0238002 0.00495944 0)
(0.0183412 0.00468728 4.50807e-21)
(0.984191 0.00789417 -1.74134e-21)
(0.984425 0.00792961 -8.91017e-24)
(0.459536 0.0820616 -7.39337e-21)
(0.419931 0.0730504 -6.75287e-21)
(0.992485 -0.000768021 -2.02362e-23)
(0.993119 -0.000386969 0)
(1.00638 0.0487648 -8.4712e-22)
(1.00568 0.0476858 1.14678e-21)
(1.0067 0.0476701 1.6634e-21)
(1.00544 0.0315943 5.20989e-22)
(1.00622 0.0321982 1.37103e-21)
(1.00125 0.0168797 -2.17736e-21)
(1.00071 0.0163518 -1.22745e-21)
(1.00121 0.0162649 -2.26334e-21)
(1.13841 0.173835 0)
(1.13655 0.171255 0)
(1.14111 0.17368 0)
(0.990179 0.000706365 1.88569e-21)
(0.990566 0.000690479 -1.35089e-21)
(0.99033 0.000330975 1.77009e-21)
(1.02562 0.128445 0)
(1.02817 0.130154 0)
(1.06072 0.0802395 5.3452e-21)
(1.05956 0.0815764 1.68205e-21)
(1.05909 0.0794657 -5.1424e-21)
(0.9766 0.00546013 0)
(0.975859 0.00527 0)
(0.988992 0.141647 1.29153e-22)
(0.988655 0.137899 -1.44285e-21)
(1.01902 0.142565 1.34981e-22)
(-0.118585 -0.00360675 -2.73072e-20)
(0.984385 -0.000647806 7.22442e-23)
(0.984607 -0.000679994 -1.81654e-22)
(1.10766 0.120359 4.3694e-21)
(1.10946 0.122262 -1.23867e-20)
(1.1102 0.119681 -1.80667e-20)
(0.992464 0.0284401 1.68239e-22)
(0.992366 0.0275993 2.38924e-22)
(0.992911 0.0281593 9.90564e-22)
(1.04169 0.0624798 -6.08161e-21)
(1.04062 0.0632067 5.75397e-21)
(1.04047 0.0613816 0)
(0.992508 0.0295314 2.81012e-22)
(0.993157 0.0299797 -2.89061e-22)
(1.04924 0.0553291 -3.75053e-21)
(1.05011 0.0566098 4.93219e-21)
(0.985126 0.00800854 2.3414e-21)
(0.984893 0.00798424 4.38573e-22)
(0.984942 0.00767395 -6.72632e-23)
(0.990447 0.00101028 0)
(0.989713 0.00065452 2.213e-21)
(1.07957 0.163882 0)
(1.08178 0.167132 0)
(1.08263 0.164286 -1.02658e-20)
(0.989032 0.0201511 -3.74144e-22)
(0.988828 0.020115 -3.69686e-22)
(0.9888 0.0197443 8.2478e-23)
(1.06811 0.104637 -8.26092e-21)
(1.06576 0.10482 -3.92531e-22)
(1.05007 0.054413 1.51035e-21)
(1.04834 0.0541645 -3.89545e-21)
(1.02641 0.00426753 0)
(1.02611 0.00378061 0)
(1.02586 0.00425375 -4.00195e-21)
(0.15489 0.0483101 -2.75453e-20)
(0.172876 0.0512451 -5.16594e-20)
(0.00418336 -0.00411366 2.08968e-20)
(-0.0118862 -0.00622719 3.54801e-20)
(0.990308 0.0112385 -1.19246e-21)
(0.990009 0.0108899 -8.1525e-22)
(0.990301 0.0108478 -4.06941e-22)
(0.974601 -0.0304512 7.49308e-23)
(0.972779 -0.0326458 -3.55905e-22)
(0.976365 -0.0324673 7.19921e-23)
(1.043 0.0635086 -5.18562e-21)
(0.981089 0.0261321 1.97538e-23)
(0.982206 0.0247451 2.76134e-22)
(0.983053 0.0264595 -8.87605e-23)
(1.18368 0.15191 1.29082e-20)
(1.18845 0.154485 2.5568e-20)
(1.18636 0.151334 -5.9178e-21)
(0.204819 0.0151529 -4.27292e-21)
(0.184894 0.00969908 1.04756e-20)
(0.182989 0.00583758 1.15294e-20)
(0.338934 0.0783585 -7.48505e-21)
(0.365101 0.0830502 4.99564e-21)
(0.975853 -0.0543336 0)
(0.9756 -0.0484075 3.17113e-22)
(0.958955 -0.050842 -4.13347e-22)
(1.04927 0.155078 -3.82284e-21)
(1.04604 0.152656 0)
(0.994175 0.0263019 -7.09099e-22)
(0.993708 0.0259611 -7.12331e-22)
(0.594999 0.112088 -2.38308e-22)
(0.558329 0.106934 7.32807e-21)
(0.977921 0.0259606 0)
(0.979737 0.0277382 0)
(0.980024 0.157071 0)
(1.03043 0.160575 1.9973e-20)
(1.02311 0.000913892 6.51819e-21)
(1.01682 0.000293934 -3.06275e-21)
(1.006 0.0497355 -1.81799e-21)
(1.00494 0.0496091 0)
(0.966371 0.130672 -2.74547e-21)
(0.9986 0.0255215 0)
(0.999127 0.025549 1.64394e-22)
(0.998979 0.0262046 1.42905e-21)
(1.00381 0.0665899 4.57285e-23)
(1.00285 0.0654555 1.82408e-22)
(1.15192 0.147446 1.50432e-20)
(1.15119 0.150357 0)
(0.98309 -0.000200973 3.58172e-22)
(0.983533 -0.000141953 2.35055e-22)
(0.985658 -0.000121362 1.9627e-22)
(0.230956 0.0605901 0)
(0.203791 0.0551286 1.17715e-20)
(1.01313 0.00421483 2.37503e-21)
(1.01321 0.00496546 2.58798e-21)
(1.01255 0.00458326 -8.72925e-24)
(1.16225 0.077161 -1.80708e-20)
(1.16495 0.0782424 -4.44533e-20)
(0.983689 -0.0126825 1.07367e-22)
(0.984159 -0.0130537 -3.62043e-23)
(0.983616 -0.0133245 0)
(0.045279 -0.0463123 3.09746e-21)
(0.0323179 -0.048468 3.19033e-20)
(0.992588 0.00548596 1.12668e-21)
(0.992249 0.00525877 0)
(0.992529 0.00508201 -1.67503e-21)
(1.06918 0.103405 -6.61609e-21)
(1.06813 0.101758 1.31259e-21)
(1.07023 0.101991 1.28412e-21)
(1.01408 0.0749019 7.09458e-23)
(1.01576 0.0747551 -2.78084e-22)
(0.97889 -0.0589815 0)
(0.991523 -0.0556145 0)
(0.982526 -0.000458654 -1.38445e-22)
(0.982735 -0.000385274 3.79787e-22)
(1.14106 0.137804 2.75062e-20)
(1.14351 0.137394 -3.99092e-20)
(1.14171 0.135443 -1.14372e-20)
(0.486516 0.0972292 1.17991e-20)
(0.534358 0.103224 -1.53707e-20)
(0.495547 0.0984418 -2.53507e-20)
(1.02471 0.0400245 0)
(1.02395 0.0406307 -4.56736e-21)
(1.02378 0.0391591 0)
(0.99809 0.0254439 1.36874e-21)
(0.99828 0.0248268 -7.29955e-22)
(0.138724 0.0288279 6.45056e-22)
(0.144766 0.0291019 0)
(0.465897 0.0965382 0)
(0.478183 0.0968091 4.2279e-20)
(0.515691 0.100934 0)
(0.527001 0.103598 3.54687e-21)
(0.550499 0.106591 0)
(0.500243 0.0993281 1.03096e-20)
(0.981803 0.0969976 -3.20503e-22)
(0.962462 0.0925736 1.55173e-21)
(0.983268 -0.00537377 -4.49448e-22)
(0.98354 -0.00551288 -3.3416e-23)
(1.00988 0.0320932 -1.42904e-21)
(1.00971 0.0311646 -3.70511e-23)
(1.0105 0.0318203 -8.69806e-23)
(0.411831 0.0869173 -2.61473e-21)
(0.403304 0.0858535 -2.77197e-20)
(0.451392 0.0909475 4.55822e-20)
(1.04992 0.154163 -2.84112e-22)
(1.0532 0.158556 -3.11385e-21)
(0.982965 -0.00524476 -3.3949e-22)
(0.983189 -0.00496888 5.44922e-22)
(0.991871 0.0288745 -1.8107e-22)
(1.03018 0.0316561 5.84176e-22)
(1.03074 0.0326813 -8.78588e-21)
(1.02961 0.0321957 -1.05819e-20)
(1.02512 0.0979926 2.03638e-21)
(1.02341 0.0986917 -1.30318e-21)
(1.02514 0.100195 1.78656e-21)
(1.07022 0.104866 -1.51889e-21)
(1.11017 0.163929 -8.10865e-21)
(1.11214 0.161888 2.5999e-21)
(1.10963 0.161513 2.04215e-22)
(1.05867 0.144445 0)
(1.0583 0.141729 3.59342e-21)
(1.06096 0.143058 -3.03431e-22)
(1.02661 0.117311 -1.64845e-22)
(1.02457 0.118558 1.31038e-22)
(1.15625 0.0814799 2.94029e-21)
(1.15453 0.0830979 1.20378e-20)
(1.15705 0.0837667 2.32976e-21)
(0.104092 0.0110101 6.49429e-22)
(0.0872565 0.00709306 -3.02069e-22)
(0.0990632 0.0115772 6.43223e-22)
(0.991529 0.0130566 4.55907e-22)
(0.991814 0.0130252 9.01718e-23)
(1.02571 0.0408978 1.65197e-21)
(1.02547 0.0394183 0)
(0.991494 0.0308258 4.67768e-23)
(0.991684 0.031732 -2.49947e-22)
(1.11328 0.173965 -2.34581e-22)
(1.12127 0.173979 5.84042e-22)
(1.08224 0.170405 0)
(0.984861 -0.000281011 0)
(0.98733 -0.0001584 3.67281e-22)
(0.984483 -0.000284672 5.53218e-22)
(0.0305184 -0.00688034 3.40336e-20)
(1.15799 0.0799227 0)
(1.15517 0.0794682 0)
(0.868761 -0.06767 -1.26501e-21)
(0.863697 -0.0621989 6.38455e-22)
(1.02428 0.0352897 8.56861e-21)
(1.02535 0.035497 -2.03009e-21)
(1.05273 0.150643 -5.42649e-21)
(1.05131 0.153192 -4.16405e-21)
(1.05571 0.151696 -6.04369e-21)
(0.973222 -0.0283027 0)
(0.976396 -0.0284553 0)
(1.00043 0.056139 2.60339e-22)
(1.00211 0.0560635 4.0884e-21)
(0.994668 0.0562524 8.71799e-23)
(0.978576 0.002351 -4.6073e-22)
(0.978656 0.00270869 -2.48923e-22)
(0.978883 0.00243866 -7.11716e-22)
(1.01185 0.1724 -3.38225e-21)
(0.94698 0.168783 -4.8575e-21)
(1.01239 0.0755443 1.90542e-22)
(1.01377 0.076921 -1.84693e-21)
(1.0291 0.0265517 6.23484e-21)
(1.03036 0.0266415 0)
(0.753884 0.132724 1.85312e-20)
(0.763979 0.134595 1.31737e-20)
(0.711593 0.126777 2.9315e-20)
(0.982865 -0.0148638 -1.98422e-24)
(0.983367 -0.0153317 -6.63384e-23)
(0.983463 -0.0146328 -6.04694e-23)
(0.271321 0.0527263 0)
(0.235779 0.0458298 2.93319e-22)
(1.1219 0.175973 9.22949e-21)
(0.978241 0.00226333 2.10573e-22)
(0.978521 0.00201066 -3.40427e-23)