/*--------------------------------*- C++ -*----------------------------------*\
| =========                 |                                                 |
| \\      /  F ield         | OpenFOAM: The Open Source CFD Toolbox           |
|  \\    /   O peration     | Version:  v2012                                 |
|   \\  /    A nd           | Website:  www.openfoam.com                      |
|    \\/     M anipulation  |                                                 |
\*---------------------------------------------------------------------------*/
FoamFile
{
    version     2.0;
    format      ascii;
    class       volVectorField;
    location    "300";
    object      ddtCorrDdt0(U);
}
// * * * * * * * * * * * * * * * * * * * * * * * * * * * * * * * * * * * * * //

dimensions      [0 1 -2 0 0 0 0];


internalField   nonuniform List<vector> 
13917
(
(-0.00303162 -0.00361407 4.13826e-18)
(-0.00126311 -0.00142108 -8.00542e-18)
(0.0302796 -0.00159876 1.70557e-18)
(-0.00275289 0.00109315 -8.85824e-18)
(-2.90274e-05 -0.000564641 -3.47094e-18)
(0.000349304 -0.00453959 -1.79642e-16)
(0.0292916 -0.00030528 1.93211e-17)
(0.0302554 -0.00167305 -4.43691e-18)
(0.0341377 0.00184308 2.09812e-17)
(-0.00349547 -0.00437911 7.87696e-18)
(-0.00962708 -0.000375926 3.33608e-17)
(-0.00690351 0.0027506 -1.29943e-18)
(-0.00279526 0.00113979 6.0296e-18)
(0.0207529 5.30912e-05 1.71971e-17)
(-0.000961273 -0.00282017 -9.00986e-18)
(-0.00123704 -0.00261237 2.04442e-18)
(-0.00118075 -0.00161215 -8.77171e-18)
(-0.00582639 -0.00240566 -5.76577e-18)
(-0.00675396 0.00282358 1.18745e-18)
(-7.2466e-05 -0.000184857 -5.13593e-19)
(-2.54836e-06 -6.77495e-05 -1.66222e-18)
(0.0290616 -0.00018302 -1.37465e-17)
(-0.000107837 -0.000360325 -4.61133e-19)
(0.0320018 -0.00159119 7.07825e-18)
(-0.000218943 -0.000914915 -6.99331e-18)
(0.0293697 0.00160528 4.06095e-18)
(8.80195e-05 -0.00350171 5.98645e-18)
(-1.00831e-05 -0.00380965 5.61269e-17)
(0.000606413 -0.00532684 -3.72005e-17)
(-0.00475642 -0.00442403 9.68713e-18)
(-0.00338031 -0.00353908 3.36519e-19)
(-0.00248 -0.00271433 -8.52658e-19)
(-9.08881e-05 -0.00334436 2.11108e-17)
(7.07723e-05 -0.00263227 2.09103e-17)
(-0.000164321 -0.000990187 -5.90577e-18)
(0.0365205 0.00349276 -1.69076e-18)
(-9.79514e-05 -0.000340692 3.05255e-18)
(0.0200848 -0.000786681 3.00868e-19)
(-0.00330902 0.00135207 2.95173e-18)
(0.0237446 0.00116601 2.8204e-17)
(-0.000292791 -2.80416e-05 -1.94566e-18)
(-2.30089e-07 -2.51495e-05 5.00405e-18)
(-0.000629362 3.58316e-05 8.96482e-20)
(0.000130455 -0.00414156 1.23712e-17)
(-0.00173307 -0.000753274 -6.98325e-19)
(1.87529e-06 -0.00283605 6.50891e-18)
(-0.00582485 -0.00228911 3.26181e-18)
(-0.00711675 -0.00150379 -4.99188e-18)
(-0.000203794 -0.0051146 1.36673e-16)
(-0.000122066 -2.70561e-05 4.53106e-18)
(-0.00396487 -0.000728306 -5.39424e-18)
(-7.35866e-05 -0.00176897 -4.06274e-18)
(-0.00199252 -0.00772318 -1.16699e-16)
(6.73453e-05 -0.002682 -7.45056e-18)
(-0.00116878 -0.0016531 7.05603e-18)
(-0.00357696 -0.00161122 2.70778e-18)
(-0.0100588 -0.000569427 -3.27603e-17)
(-0.000525737 -0.00133456 -2.12626e-18)
(-0.00299998 -0.00164388 -2.82018e-18)
(-0.00166695 -0.000739791 2.85949e-19)
(0.039118 0.00407119 3.42583e-17)
(-0.00130547 -0.00141694 2.36592e-18)
(0.017167 -0.000491464 -1.32175e-17)
(-7.9675e-05 -0.000201655 -3.45956e-18)
(0.000242691 -0.00445193 1.16663e-16)
(0.0207062 0.00293882 -7.32046e-18)
(1.08387e-05 -0.000604989 -2.32684e-18)
(2.87692e-05 -0.00101728 1.59874e-17)
(-0.00976986 -7.44338e-05 2.32512e-17)
(-0.00238079 -0.00360622 2.41441e-20)
(-3.22013e-05 -0.00053897 3.31693e-18)
(0.0373927 0.00205645 -3.24943e-17)
(0.0146661 -0.000667889 -2.27415e-17)
(-0.000215985 -0.000884357 3.30871e-18)
(-7.08662e-05 -0.00516438 2.85406e-17)
(-0.00627349 0.00435206 1.06368e-17)
(0.0153716 0.000116576 1.8541e-17)
(-0.0023985 -0.000877883 -1.56198e-18)
(0.0283793 0.00287896 6.01767e-18)
(-7.64843e-06 -0.000131985 -2.22887e-18)
(-1.89039e-05 -0.000157796 6.2771e-18)
(8.82522e-06 -0.000565603 8.09451e-19)
(0.000234305 -0.00446663 3.51259e-18)
(0.0203118 -0.000944204 1.27267e-17)
(0.00980686 -0.000743236 -1.71941e-17)
(-0.00235376 -0.000826549 4.96496e-19)
(-3.0658e-05 -0.000181863 1.2684e-18)
(0.00911027 -0.0024666 1.45264e-17)
(-0.00390226 -0.000711712 3.5717e-18)
(-0.00064666 4.99795e-05 -1.44341e-19)
(0.0167445 -0.00018121 3.22191e-18)
(-0.00413032 -0.00451097 -5.40584e-18)
(-0.00108623 -0.000777345 -1.64573e-18)
(-0.000642789 -0.00218118 3.44306e-18)
(0.0116805 -0.000896918 -7.85554e-18)
(0.000302822 -0.00438064 3.53722e-17)
(-0.00805397 -0.000696726 -6.52486e-19)
(-0.00676979 -0.00181419 3.89465e-18)
(-0.00788517 0.00609824 -4.39629e-18)
(0.000269683 -0.00401649 3.63596e-17)
(-0.000411329 -0.000185424 -3.4549e-18)
(0.000117369 -0.00315542 3.10318e-17)
(0.000159884 -0.00411964 7.34604e-18)
(-0.00276954 -0.000645457 -2.69619e-18)
(-0.00067439 -0.000390592 -5.46523e-19)
(0.0396925 0.00108268 6.01599e-18)
(0.000186545 -0.00549083 1.498e-17)
(-0.00724941 -0.00156153 -1.86322e-17)
(-0.00123374 -0.00161112 3.38351e-19)
(-0.00324544 -0.00380921 8.08509e-18)
(0.00621428 0.000165041 -2.22056e-17)
(0.0241479 0.00131276 -2.17393e-17)
(-0.00792399 0.00347938 -6.54317e-18)
(0.0375435 0.000824946 5.28153e-18)
(-3.56095e-05 -0.00210753 1.06923e-17)
(0.000515845 -0.00513205 -8.66965e-17)
(-0.0002403 -0.000655367 5.95004e-18)
(0.000372672 -0.00504211 -4.05558e-17)
(0.026152 0.000821728 4.41599e-18)
(-2.49371e-05 -0.00268245 2.4623e-17)
(-1.47724e-06 -5.00339e-05 -7.19249e-18)
(-0.0103758 -0.000356771 -1.27999e-17)
(0.0245405 0.000597661 1.32966e-17)
(-1.06793e-05 -0.00375833 1.44332e-17)
(-0.000180205 -2.34721e-05 -3.41265e-18)
(-0.000643852 -0.00213387 1.48766e-18)
(-0.0015686 -0.000900694 -1.59687e-20)
(-0.000166652 -1.88998e-05 1.08093e-18)
(-0.00053435 -7.86106e-06 -1.45475e-19)
(0.000167035 -0.004401 -2.94398e-17)
(0.0257157 0.00017381 1.8605e-19)
(-2.79159e-05 -0.00206571 7.09871e-18)
(-0.00175416 -0.000792637 4.26692e-19)
(-1.2289e-06 -5.56881e-05 3.4277e-18)
(0.0262338 -0.00248941 1.42074e-17)
(0.0325349 -0.00169756 -7.00022e-20)
(-0.00295089 -0.0036585 2.57705e-19)
(0.000298655 -0.0040608 1.20274e-17)
(4.91717e-06 -0.000624616 7.57573e-18)
(8.25616e-06 -0.00266766 -1.78779e-17)
(0.0334485 0.0033057 5.65453e-18)
(-0.00100775 -0.000358149 -7.9496e-19)
(-0.000226195 -0.00195777 1.40543e-17)
(0.000136269 -0.00418311 -2.15057e-17)
(2.01948e-05 -0.00103786 -2.50442e-17)
(0.0474206 0.00434783 2.1148e-18)
(0.000455993 -0.00558978 1.98494e-17)
(-8.90979e-05 -0.00172444 -2.87986e-19)
(-0.000923865 -0.000283553 1.9659e-19)
(-0.00234916 -0.00287873 1.62416e-19)
(-0.00676514 -0.000222595 -5.87733e-18)
(0.000374603 -0.00515993 1.10442e-17)
(-0.00842199 0.000725004 -5.4534e-18)
(-0.00173587 -0.00405556 7.02601e-18)
(-0.00303957 -0.00223469 -1.41582e-19)
(0.00704128 0.000687283 6.1927e-18)
(-0.00231936 -0.00352702 1.78428e-20)
(0.0409455 0.00375094 6.23955e-18)
(0.0152097 0.000162648 -2.03516e-17)
(0.0237893 -0.00197574 -5.9479e-18)
(-0.00033289 -0.00246511 -5.00532e-18)
(0.000199545 -0.00346267 -5.20989e-17)
(-8.88809e-06 -0.000114509 5.5528e-19)
(-0.00817733 -0.000626068 1.4579e-18)
(-0.0078735 0.00329302 4.34689e-18)
(-0.00965043 0.0056605 1.58887e-19)
(-0.00272208 -0.000677831 5.65524e-18)
(-0.00681693 -0.000932513 6.22748e-18)
(-0.00142077 -0.000634295 3.80083e-20)
(0.000139839 -0.00319801 -1.08474e-17)
(-0.00202881 -0.0039891 2.42686e-18)
(0.00382035 0.000223985 -8.04798e-18)
(-0.00790579 0.00419321 2.34056e-18)
(-0.00125122 -0.00186635 7.55353e-18)
(0.0480771 0.00627599 1.31366e-17)
(-0.00162812 -0.00422527 -1.26222e-18)
(0.026013 8.76796e-05 -8.3063e-18)
(0.000422681 -0.00527648 2.53745e-17)
(0.0489351 0.00507839 -9.9073e-19)
(-0.000797928 -0.000979429 2.2961e-18)
(-0.0042364 -0.00451011 1.50971e-18)
(-0.00350059 -0.00356756 9.13279e-18)
(-0.00102176 -0.00033538 -8.06501e-20)
(-3.61515e-05 -0.000199516 -4.71926e-19)
(-0.000733129 -0.00319447 -2.7841e-17)
(0.0300322 0.00173544 -8.65387e-18)
(-0.00528177 -0.00500855 -2.41688e-17)
(0.0143457 0.00318915 8.44168e-18)
(-0.00452804 -0.0022789 2.355e-18)
(-0.00992381 0.00370218 6.13581e-19)
(0.035518 0.00074255 7.9529e-18)
(0.0111028 -0.000775676 2.63818e-17)
(-0.00467973 -0.00533993 1.46774e-17)
(-8.82935e-05 -0.000414092 -1.27614e-17)
(0.000262412 -0.00404499 1.03918e-17)
(6.78064e-05 -0.00346874 3.68331e-17)
(-0.000264423 -9.93165e-06 1.82209e-18)
(-0.00110647 -0.000813348 -1.08788e-18)
(-0.000150914 -0.00545967 -6.24722e-18)
(-0.00100681 -0.00772854 5.1371e-17)
(-0.0038937 0.000274445 -8.27241e-19)
(-0.000111378 -2.43104e-05 -1.79446e-18)
(-0.00662999 -0.000646892 -9.59351e-18)
(-0.00670413 -0.000135148 6.66155e-18)
(0.0138377 -0.000576413 5.46864e-18)
(0.0185125 -0.00438188 7.36258e-18)
(-0.000150204 -0.000963911 -1.44513e-18)
(-0.000540191 -0.00137624 2.02853e-18)
(-0.00676093 -0.00166747 1.79584e-17)
(0.0306435 0.000151443 1.24501e-17)
(-0.000249107 -0.00188844 -5.47908e-18)
(0.0289558 -0.0007558 1.78002e-17)
(0.0128594 -0.000187266 4.7036e-18)
(-0.00983951 0.00347864 -2.19613e-18)
(-0.000662875 -0.000402341 -5.55146e-19)
(0.000282471 -0.00454162 -5.76078e-17)
(-0.00646036 -0.001418 1.51642e-17)
(0.00381019 -0.000436951 3.71698e-17)
(-0.000384237 -0.000784803 1.62518e-18)
(0.0433609 0.00515747 8.38157e-18)
(-0.000765381 -0.0009467 -9.11271e-19)
(-0.00506936 -0.00424118 2.20655e-18)
(-0.000286326 -3.42424e-05 6.60967e-19)
(0.0188338 -0.000535728 -1.02568e-18)
(0.0389955 4.53796e-05 -2.97351e-17)
(-0.00125467 -0.00268275 -7.04494e-18)
(-0.00235878 -0.00755448 -2.60089e-18)
(-0.00313545 -0.00223856 -4.92119e-19)
(-0.000631267 -0.000393472 9.00509e-19)
(0.0357417 0.00409428 -4.71845e-19)
(-0.00762814 0.00422528 -4.60888e-18)
(-0.0045445 -0.00218849 -3.24538e-18)
(0.0323813 -0.00154353 -5.82641e-18)
(0.0124487 -0.000147537 -4.27503e-18)
(-0.00041494 -8.98947e-05 2.02606e-18)
(-0.00254955 -0.00276038 9.73922e-19)
(0.0176325 -7.79084e-05 3.28359e-18)
(0.00703708 -9.65175e-05 -2.97677e-17)
(-1.09723e-05 -0.000131032 -1.4349e-18)
(-0.000275938 -0.000331195 -1.42638e-18)
(0.0231006 0.00130263 -1.35152e-17)
(-0.00763577 -0.000715915 1.69893e-17)
(-1.43501e-06 -4.5582e-06 -1.20072e-18)
(0.0287526 0.00651646 -1.32231e-17)
(-0.00688955 -0.00360746 -1.7689e-18)
(0.000202411 -0.00342412 4.18219e-17)
(-0.0031201 -0.00332354 6.52691e-19)
(-1.13603e-05 -0.000122317 2.10537e-18)
(-0.00124988 -0.00417213 -3.82013e-18)
(0.0137962 -3.00118e-05 -6.63523e-18)
(-0.00173807 0.00025612 -1.26377e-18)
(-0.00425896 -0.00477554 -2.4552e-17)
(0.000268922 -0.00418879 5.90767e-19)
(-0.00154537 -0.000853723 -6.39003e-19)
(-0.000486164 -0.00130284 -6.29917e-18)
(-0.00757201 0.0010192 -1.39461e-19)
(0.0237569 0.00152138 -5.11354e-18)
(-0.00821893 0.00078884 -1.68885e-18)
(-0.00076986 -0.00324567 -1.18777e-17)
(-0.00101709 -0.00284568 1.67329e-18)
(-1.2853e-06 -8.06181e-06 -2.01897e-18)
(0.0244444 0.000768147 6.25158e-19)
(0.0468613 -0.000566408 1.184e-17)
(0.0304267 0.00804889 8.29265e-18)
(-0.000618934 -0.000403386 -5.38129e-19)
(0.0107139 -0.0012585 1.48092e-17)
(0.01901 0.000199404 1.26647e-17)
(0.0414427 0.00321517 7.79009e-18)
(0.028088 0.00279384 -9.33693e-18)
(-0.00642188 0.00455503 -1.3879e-19)
(-1.59998e-05 -0.000150528 3.78708e-18)
(-0.000220248 -2.85192e-05 -9.77166e-19)
(-0.00597494 -0.002111 9.10553e-18)
(0.0173694 -0.000178713 7.58698e-19)
(-0.00861097 -0.00199405 -1.91637e-17)
(-0.00296264 -0.00156453 -8.58909e-19)
(0.0361515 -0.00239327 -6.78972e-18)
(-0.0049442 0.0025685 -8.07604e-18)
(-0.00051884 -2.66871e-06 -1.94151e-19)
(0.0496631 0.00448498 1.79527e-17)
(-8.51188e-05 -0.00017671 -3.89307e-18)
(0.0465363 0.00583379 1.45823e-17)
(-0.00378419 0.000283463 -8.55888e-18)
(-2.47875e-06 -4.6265e-06 6.30625e-19)
(-0.00138867 -0.00297075 -6.7714e-18)
(-0.001654 -0.00406547 -9.16881e-18)
(0.000160343 -0.00343594 -2.15259e-17)
(0.0318829 0.00592066 1.11151e-17)
(-0.00146159 -0.003495 -1.62773e-18)
(-0.00190051 -9.64709e-05 -4.67427e-18)
(-0.00973203 -0.00577849 -2.5887e-18)
(0.032781 -0.00145364 -7.47204e-18)
(0.0438761 -0.00102067 -2.26808e-17)
(-0.000363672 -0.000768222 -4.10853e-18)
(0.043249 0.00557045 -1.55421e-17)
(-4.90831e-06 -0.000345729 -3.95678e-18)
(-0.00190219 -4.7282e-05 -2.52101e-20)
(-0.000224732 -0.000621419 -4.00577e-18)
(0.00054992 -0.00578215 -7.96655e-18)
(-5.61657e-05 -2.93073e-05 4.35003e-18)
(-0.00509205 -0.00432371 -1.20739e-17)
(-0.00302052 -0.00327752 -2.08611e-18)
(-0.00139299 -0.000595395 -1.56277e-20)
(-0.00671947 -0.000566461 1.08e-17)
(-0.00188611 -0.001833 8.60288e-19)
(0.000814096 -0.00545646 -6.82173e-18)
(-0.00162593 -0.00416804 -3.32067e-18)
(-0.00409713 -0.00442304 -4.6914e-18)
(-0.00126365 -0.000351889 -6.01276e-21)
(-0.000474309 -0.00125248 6.33472e-18)
(0.005673 0.000290852 -2.10537e-17)
(0.0233959 0.000244575 7.79468e-18)
(-0.000259569 -0.000674836 -5.54432e-19)
(-0.00024857 -3.09689e-05 1.2291e-18)
(0.0491504 0.00439733 -1.04908e-17)
(-0.000866181 -0.000897615 2.03145e-18)
(0.0152978 -0.000587237 -9.61929e-18)
(-0.00121898 -0.000355275 -1.89836e-20)
(0.019052 -0.000557582 8.52411e-19)
(-0.00214893 0.000767899 2.53114e-18)
(-0.00300236 -0.00660043 4.71178e-18)
(-0.00499778 -0.000651484 -8.16437e-18)
(-0.000164746 -0.00515072 1.29287e-17)
(-0.000346736 -0.00241907 3.3848e-18)
(0.00123551 -0.00623204 -1.51604e-17)
(0.000311993 -0.00444855 9.42178e-17)
(-0.00142763 -0.00293441 4.96476e-18)
(-0.00753639 -0.000599738 1.66205e-17)
(-0.000343897 -0.00610196 3.70472e-18)
(-0.000768028 -0.00171508 -4.16876e-18)
(0.0232655 -0.000485627 2.47483e-18)
(0.000242416 -0.00404259 -4.92967e-17)
(0.0193242 -6.61349e-05 -2.21545e-17)
(-8.33633e-05 -0.0025372 4.22094e-18)
(0.0256935 0.000927862 -1.45827e-18)
(-0.00270076 -0.00276553 -5.40198e-19)
(0.0119477 0.00181914 3.33921e-17)
(0.000341889 -0.00441356 -1.6112e-17)
(-0.000593151 -0.00514576 -2.45811e-17)
(-0.000705403 -0.00516542 1.2641e-17)
(0.0291569 -0.0015959 1.31454e-17)
(-1.10856e-05 -0.00018483 1.0354e-18)
(-0.00206141 -0.00405672 -9.80388e-19)
(0.00749461 0.000355239 9.64412e-18)
(-0.0004082 -0.0015971 -1.74008e-18)
(-0.00120325 -0.0022898 3.98875e-18)
(0.0198601 -0.000204141 -2.49397e-17)
(-2.13225e-05 -0.00558966 3.21618e-17)
(-0.00133429 -0.00174571 1.34843e-18)
(0.0279666 -0.00013562 -1.32119e-17)
(0.000512717 -0.00513485 3.72866e-17)
(-0.000338355 -0.000166618 -1.30928e-18)
(0.0256732 0.00100756 5.64333e-18)
(0.0376181 0.00158864 -4.81622e-18)
(-9.27968e-05 -0.00019189 2.29234e-18)
(-0.00044576 -0.000467187 2.87463e-18)
(-4.34962e-07 -0.000323041 2.95045e-18)
(-0.000936697 -0.000261847 -3.90844e-19)
(-0.00591722 -0.00591495 2.04466e-17)
(0.0489125 0.00554332 -8.91504e-18)
(0.000403369 -0.00435841 1.42032e-17)
(0.00686936 0.000475916 -2.0692e-17)
(-0.000227773 -0.000791003 -1.71443e-18)
(-0.0043298 -0.00480965 3.74978e-17)
(0.00197058 -0.000402918 -1.9995e-17)
(-0.00587477 -0.000582491 5.48332e-18)
(0.0287277 -0.000578797 -2.49179e-17)
(0.0177839 -0.000203542 1.66285e-19)
(0.0367426 0.000270225 -1.52113e-17)
(-0.0004799 -0.000163927 3.29139e-19)
(0.0290315 0.00858135 -1.56915e-17)
(-0.000478233 -0.000442514 4.14256e-18)
(0.0458307 0.0064155 3.20744e-17)
(-0.00163145 -0.000766811 -5.45863e-20)
(-0.000391628 -0.00541513 -2.26351e-17)
(-0.00679571 -0.00376005 9.41599e-18)
(-0.00333395 0.000799647 -2.58491e-18)
(-1.73228e-05 -0.00022793 3.83724e-18)
(-0.00661457 -0.0016094 -7.82933e-18)
(-0.00430043 -0.00457701 -1.73002e-17)
(-0.0067236 -0.00270249 1.58695e-17)
(-0.000890679 -0.00461202 -2.02182e-17)
(0.0103344 0.00154851 -1.56113e-17)
(0.00319463 -0.000401956 -1.46795e-17)
(-0.00129559 -0.00426947 8.21599e-18)
(-0.00341934 -0.00429488 -8.92143e-18)
(-0.000259539 -0.000315481 7.58947e-19)
(0.00788761 -6.516e-05 6.50432e-17)
(0.0289923 0.00046296 -4.8457e-19)
(-0.000652537 -0.00137663 3.7283e-18)
(-0.0137941 -0.00912185 -1.34027e-18)
(-0.000160532 -0.000783672 2.68872e-18)
(-0.005709 -0.00700042 1.65549e-17)
(-0.00214875 0.000723212 1.23607e-18)
(-8.30423e-06 -0.000157996 -2.04884e-18)
(-0.00177296 -0.00191963 1.74835e-18)
(0.0255184 0.00344041 8.82581e-19)
(-0.00172954 -0.00192673 1.79562e-18)
(0.023959 0.00172005 1.21588e-17)
(0.00835455 0.000514785 6.2933e-17)
(-0.0111717 0.000841553 -1.64791e-17)
(0.000290409 -0.00442107 1.44462e-16)
(-0.000785452 -0.00166947 4.64032e-18)
(0.000353883 -0.00445066 4.43413e-17)
(0.000389819 -0.00445505 -2.46882e-17)
(-0.000173493 -0.000436226 -1.32607e-18)
(9.80691e-05 -0.00545025 -9.9034e-18)
(-0.00040974 -0.00156803 -4.1579e-18)
(-0.000167517 -0.00088443 3.17099e-18)
(-0.0046839 -0.00441519 -8.99669e-18)
(-2.4524e-06 -1.2127e-05 -5.57752e-19)
(-0.000209946 -0.00095145 8.10326e-18)
(-0.000481249 -0.000431803 -3.21574e-18)
(-0.00184688 -0.00583106 -1.23626e-17)
(-5.85611e-06 -0.000105657 -1.34891e-18)
(0.0259705 0.00107835 2.43386e-18)
(0.027513 0.00423104 -8.35746e-18)
(-0.000772957 0.000177606 -9.88948e-18)
(-0.00454008 -0.00540704 3.01618e-17)
(0.0260776 0.00187392 -6.06823e-18)
(0.00538473 -0.00077714 -1.05328e-17)
(-0.00580822 -0.000510292 -5.37472e-18)
(-0.000218528 -0.00075249 1.50837e-18)
(-0.00655701 -0.0052166 2.54639e-18)
(-0.00326844 0.00127537 -9.30729e-19)
(-0.00264253 -0.00291344 3.25119e-18)
(-0.00010114 -0.000439967 2.36786e-18)
(0.0474952 0.00482042 -9.05482e-20)
(0.0298074 0.00015021 1.93806e-18)
(0.0279888 0.00459082 1.6844e-18)
(-0.00108015 -0.00264895 9.74775e-18)
(-0.00744785 -0.00365142 3.85152e-18)
(-6.93939e-05 -0.00248555 -1.73455e-17)
(-0.00341078 0.00136344 5.92068e-19)
(-0.00673638 -0.00255999 -7.04142e-18)
(-0.00145055 -0.00197442 -5.67766e-19)
(0.0288447 0.00862601 3.55126e-18)
(-0.00124503 -0.00157257 7.52924e-19)
(-5.58453e-05 -3.46476e-05 2.45668e-18)
(0.0162 -0.000719525 -4.92285e-18)
(0.0261486 0.000257553 -1.9056e-18)
(0.0264011 0.000234416 5.44092e-19)
(-0.00355247 -0.00536183 -6.17929e-18)
(-0.00155109 0.00043652 4.14628e-18)
(0.0234726 -0.000717058 -1.12559e-17)
(0.00967423 -0.00164704 -1.34549e-17)
(0.0162935 0.000170819 -6.20524e-18)
(-0.000525889 -2.24375e-05 7.14921e-19)
(-0.00636329 -0.00191735 -9.03878e-18)
(-0.00149364 -0.00196806 -1.84612e-18)
(-0.000521104 -0.00144402 1.94174e-20)
(-0.00499863 -0.00893962 1.81644e-18)
(-0.00597392 -0.00222892 -8.26999e-18)
(-0.000443616 2.68251e-05 2.46528e-20)
(-0.00529221 -0.00341865 -8.6943e-18)
(-0.00562999 -0.000739762 -1.43611e-18)
(0.0166972 2.15065e-05 -9.45661e-18)
(-0.000185581 -0.000451844 4.21062e-18)
(-0.00813944 -0.000851253 -5.01372e-19)
(0.012925 0.00746673 1.18964e-17)
(-0.00267176 -0.00670768 -1.76655e-18)
(0.0264843 0.00112153 3.42378e-18)
(-4.02087e-06 -9.57181e-05 1.69257e-18)
(-0.00063959 -0.00140682 4.15566e-18)
(-0.000400159 -1.37433e-05 4.54306e-19)
(-0.0022311 -0.00354544 3.76569e-20)
(-0.000472816 -0.000150905 8.02233e-19)
(0.0304438 0.00245221 -1.00204e-17)
(0.000377195 -0.00435734 6.97167e-18)
(-0.00146544 -0.00342927 2.41793e-18)
(0.00899529 0.000239088 -6.31677e-18)
(-0.00358851 -0.00152421 3.37144e-19)
(-0.00823424 -0.000640697 2.70949e-18)
(0.0111633 -0.0017655 4.51523e-18)
(0.000496029 -0.00572091 1.69006e-17)
(-0.0111438 0.0011071 1.79935e-17)
(0.0367261 0.00288661 -8.10859e-18)
(-0.00814075 -0.000747511 3.32709e-18)
(-0.00487446 -0.0035906 -4.82259e-18)
(-0.00787204 -0.00487867 2.88651e-18)
(-0.00589138 0.00112926 -1.41965e-18)
(-0.00895195 0.00333792 6.74795e-18)
(0.00029538 -0.00447412 9.46577e-18)
(-0.00598433 0.00197103 -4.21717e-18)
(-0.00756671 -0.0012629 -1.48025e-17)
(-0.000478493 -1.63985e-05 1.0399e-20)
(0.0109968 -0.00554448 -6.76395e-18)
(-0.00409567 -0.000906307 -3.95343e-18)
(-0.00110927 0.000167533 -9.54942e-19)
(-0.00217271 -0.00347402 4.52759e-19)
(-0.00251048 -0.000825679 -4.00634e-18)
(0.0166363 -4.71905e-06 6.24255e-18)
(0.0385093 0.000734566 -1.37082e-17)
(-0.000827089 -0.000867437 -2.13123e-18)
(-0.000515095 -1.48972e-06 1.73016e-19)
(0.0315015 0.00101745 1.09594e-17)
(0.00485621 -0.000656267 1.56293e-17)
(-2.18644e-06 -9.13175e-06 -1.11703e-18)
(0.0261377 0.00103022 -3.43918e-18)
(-0.00267235 0.000133404 -1.66281e-18)
(-0.00460928 -0.00517023 7.73671e-18)
(-0.000839882 -0.000943017 1.10323e-18)
(0.0122224 -0.000792612 -4.58813e-18)
(0.0433579 0.00845518 -2.52033e-17)
(-0.00241682 -0.00284835 -2.82552e-19)
(-0.00174973 -0.00123773 -1.84057e-20)
(0.0263499 0.00205854 8.04467e-18)
(-0.00462526 -0.00484762 2.91198e-17)
(0.00310384 -0.000148554 2.05056e-17)
(-1.60169e-06 -1.09919e-05 1.18144e-18)
(0.0134054 -0.000166908 2.88811e-17)
(0.000619731 -0.00511183 1.20171e-17)
(0.0490682 0.00516487 -5.16772e-18)
(-0.00112433 0.000139944 -2.44981e-20)
(0.00864195 -0.000652703 -8.09734e-18)
(0.0306226 -0.00220512 -2.29297e-18)
(-0.00595762 -0.000307287 -1.36595e-17)
(-0.000464049 -0.000466923 -4.37913e-18)
(-0.0010497 -0.001662 -4.06745e-18)
(-0.00585495 0.00451766 5.16676e-18)
(-0.0163753 -0.00976121 -5.48364e-18)
(-0.000436461 3.56921e-05 -2.06719e-19)
(-0.000419074 -0.000442433 -1.97074e-18)
(-0.000180888 -8.42165e-05 2.59624e-19)
(-0.000192699 -8.74311e-05 -1.87997e-18)
(0.0103783 -0.000986934 -7.3953e-19)
(-0.00884632 -0.00932364 -2.66273e-17)
(-0.00585928 -0.000347624 1.50666e-17)
(-0.00526197 -0.00490067 -2.02592e-17)
(-0.000219547 -2.30055e-05 3.41223e-19)
(-0.000393978 -0.000176708 3.6199e-18)
(-0.00748215 -0.00344299 8.19881e-18)
(0.023574 -0.00282714 -1.62565e-17)
(-0.00404122 -0.002346 -8.55192e-18)
(-0.00147227 -0.000640849 8.30549e-20)
(-0.000189215 -0.000883071 -4.30652e-18)
(7.96691e-06 -0.000802395 -5.37476e-18)
(0.0489999 0.00467527 2.55584e-17)
(0.0142956 -0.000400752 1.20273e-18)
(-3.49519e-05 -0.000162392 3.26863e-18)
(-2.80386e-05 -0.000798658 8.65992e-19)
(0.0283098 0.00885564 -2.4285e-18)
(-0.00584597 0.00101407 -2.92152e-18)
(-0.00502115 -0.000578933 2.13867e-19)
(-0.000599289 -0.00138259 -4.59484e-18)
(-0.00167164 -0.0019944 -1.43081e-18)
(-0.00211977 -0.00275312 -9.01157e-19)
(-0.0075032 -0.00114567 6.51422e-18)
(-0.000361291 -0.00607772 -3.80454e-18)
(-0.00534831 -0.00494508 -1.11805e-19)
(-0.00673112 -0.00537562 1.34364e-17)
(-0.00793481 -0.00237674 6.24726e-18)
(0.0297289 -0.00255562 -6.82201e-18)
(-0.00416602 -0.0043593 -5.77961e-18)
(-0.000336656 -0.000766167 -4.12355e-18)
(0.0138498 -0.000115281 7.63245e-18)
(1.40283e-05 -0.000782317 7.59544e-18)
(-0.00123404 -0.00234688 -3.73069e-18)
(-0.00331665 0.000330504 -1.00486e-18)
(0.0068742 -0.00554582 1.36293e-17)
(-0.00122223 -0.00497818 1.76045e-18)
(-0.000340451 -4.2662e-05 2.32594e-19)
(-0.00307121 -0.00669622 5.06183e-18)
(-0.00486905 -0.00451607 8.40763e-18)
(0.00879842 0.00538898 -5.28377e-17)
(-0.00787972 -0.0025224 1.76637e-17)
(-0.000417624 -0.00365091 -9.49511e-18)
(-0.00576276 -0.000775917 -1.82756e-18)
(-1.72891e-05 -0.000258373 -5.77104e-19)
(0.0404303 -0.00178019 2.72966e-17)
(-0.00313834 -0.00658735 -1.57132e-17)
(0.0257981 -0.00157623 6.22017e-18)
(-0.00120828 -0.0015136 -2.14986e-18)
(-0.00390434 -0.00188849 -4.55981e-18)
(-0.00525612 -0.00483224 1.99032e-17)
(0.0179223 -0.000153964 -1.91702e-17)
(0.00517883 -8.9681e-05 1.07225e-17)
(-0.00689276 -0.00187497 1.27654e-17)
(-0.0036667 -0.00544265 7.3639e-18)
(-0.00120182 -0.00262076 3.32705e-18)
(-0.00244686 -0.0018731 2.07818e-18)
(-0.000597247 -0.00141093 -7.24251e-19)
(-0.00058577 -0.00425518 7.3192e-18)
(0.000117206 -0.00411497 -4.19736e-17)
(7.1492e-05 -0.00152701 9.2942e-18)
(-0.00643447 -0.00128628 -1.00847e-17)
(0.000308043 -0.00412415 7.85368e-18)
(0.0258483 -0.00164725 -6.61523e-18)
(0.0034853 -0.000179823 -2.85029e-17)
(-0.00182756 -0.00226153 -2.29356e-18)
(-0.00836436 -0.000543662 5.58628e-18)
(0.0384557 0.00856525 3.72586e-17)
(-0.00147907 -0.00311185 -1.07292e-17)
(-0.000260429 -0.00182824 -2.35445e-18)
(-0.000199186 -0.00482268 1.0348e-16)
(0.047914 -0.00163962 -2.17645e-17)
(0.0416322 0.00409279 -6.23978e-18)
(-0.00505336 -0.00480785 1.59232e-17)
(-0.000540221 -1.30628e-05 9.23631e-20)
(0.0257408 0.000944563 -4.85663e-18)
(-0.00602249 0.00433163 -1.33749e-17)
(-0.000338014 -3.25891e-05 -1.06575e-18)
(-0.00340377 -0.00267576 -1.85484e-18)
(-0.00752125 -0.000382372 5.93756e-18)
(-0.000112373 -0.0033107 -1.66723e-17)
(-0.00479011 -0.00436152 -8.52813e-18)
(0.0286111 0.00261338 1.84568e-17)
(-0.00800097 -0.0046247 -4.65189e-18)
(-0.00544341 0.00108137 -1.84975e-18)
(0.0403161 -0.00215796 2.40851e-17)
(-0.00258193 -0.00107233 -1.51147e-18)
(0.0161689 0.000269025 6.98366e-18)
(-8.88887e-06 -0.000120527 -1.61492e-18)
(-3.66008e-05 -0.000175162 9.02449e-19)
(0.043546 0.00494236 1.4567e-17)
(0.0471968 -0.00140202 2.41084e-17)
(0.000311396 -0.00457004 -1.64394e-16)
(-0.00261124 -0.00102231 1.89456e-18)
(-0.00126358 -0.00181216 4.04819e-18)
(-3.35014e-05 -0.000776665 -1.20783e-18)
(-0.00503531 0.00256656 2.14349e-18)
(-0.000339101 -0.00480017 -6.57046e-17)
(-0.00880195 0.00542179 -1.83878e-18)
(-0.00251766 -0.00190149 -1.20485e-18)
(-0.010247 0.00121468 -1.04035e-17)
(-0.00659858 -0.00147263 1.76298e-18)
(-0.000854752 -0.000970951 -3.0308e-18)
(-0.00166511 -0.00728673 -3.54726e-20)
(-0.00847706 0.00546317 8.79791e-18)
(0.0264523 0.00965851 2.89391e-17)
(-0.000448341 -0.0008074 2.22252e-18)
(-0.00836241 -0.00425086 2.76531e-18)
(-0.00246639 -0.000880853 2.14698e-18)
(0.0131886 0.00408367 -3.68353e-17)
(-0.00360947 -0.00439528 2.46098e-17)
(-0.00132921 -0.00496027 -6.76628e-19)
(-0.00390556 -0.00196327 2.80053e-18)
(-0.0002761 -9.58985e-05 3.03694e-18)
(-0.00105544 -7.14472e-06 1.11607e-20)
(-0.00162221 -0.000918136 2.68478e-20)
(-0.000867598 -0.00533128 -1.06572e-17)
(-2.01799e-05 -0.00286829 -4.69167e-18)
(-0.0049241 -0.00514121 -5.16769e-17)
(0.0011118 -0.00445439 4.24207e-17)
(-0.00672486 -0.00101542 4.94948e-18)
(-0.000322171 -0.00016617 -5.56714e-19)
(-0.00749364 -0.00485365 3.21371e-17)
(0.000207274 -0.00469082 1.04663e-16)
(0.0380934 0.00166275 -8.32538e-18)
(-0.00169733 0.000223495 9.52853e-19)
(-0.000112766 -0.00280549 -1.04922e-18)
(-0.000400206 -0.00044279 2.45421e-18)
(-0.00426211 0.00115835 -4.02725e-18)
(-0.00308654 -0.0016535 2.13616e-18)
(0.0292701 -0.00266481 7.21198e-18)
(-9.89302e-06 -0.000149614 1.22718e-18)
(-0.00568347 -0.0100668 -4.93802e-17)
(-0.0042618 0.000935558 5.26438e-18)
(-0.00977832 -6.75927e-05 -7.40161e-19)
(-0.00398173 -0.00458726 3.96692e-18)
(0.0135184 -0.000817077 8.21222e-18)
(-0.00152484 -0.00504823 -7.84201e-18)
(-0.00102123 -0.00162003 4.51621e-18)
(0.0167111 -9.87242e-05 -2.04029e-17)
(0.00816611 -0.000372744 -3.18155e-17)
(-0.00080508 -0.00132866 -1.63208e-17)
(-0.00326386 0.000388947 8.83249e-20)
(0.0430328 0.00737183 2.26641e-17)
(-0.00457637 -0.00470826 -9.00631e-18)
(-0.00846357 -0.00188023 2.73401e-17)
(-5.61859e-06 -1.32681e-05 2.84274e-18)
(-0.00179397 -0.00123504 3.47394e-19)
(-0.00293822 -0.00644795 -2.37021e-17)
(-0.00338473 0.000849345 1.3033e-18)
(-0.00655388 -0.00277699 -1.13833e-17)
(-0.00740556 0.00100245 1.72394e-19)
(-0.00108366 7.17095e-06 1.30483e-19)
(-0.00676227 0.000104104 2.02987e-18)
(0.0305109 -0.00165877 -1.16265e-17)
(-0.00166276 0.000314551 2.8847e-18)
(-0.00253898 0.000876404 4.37943e-18)
(-0.000162772 -9.01701e-05 4.90752e-18)
(0.023577 0.000362659 -2.24791e-18)
(-1.71145e-06 -7.17698e-05 -5.11335e-18)
(-0.00104822 -0.00259297 1.19732e-17)
(0.00410427 0.000304813 1.61423e-17)
(-0.00104259 -0.00226631 -4.53473e-18)
(0.0487528 -0.000728396 -3.00389e-18)
(-0.00298698 -0.00229782 -1.14573e-18)
(-0.000100227 -0.00338684 -1.71828e-17)
(-0.000175209 -9.34907e-05 -4.07317e-18)
(-0.00166306 -0.00441422 -2.55575e-18)
(-0.000205965 -0.000601447 3.51813e-18)
(-0.00463922 -0.00365135 1.33067e-18)
(-0.000261961 -5.84516e-05 3.5055e-18)
(-0.00225025 -0.00517658 -1.33806e-18)
(-0.00265004 9.25999e-05 1.94361e-18)
(0.025278 0.0118119 2.39491e-17)
(0.000571384 -0.00448625 6.45739e-18)
(0.0233865 -0.0028729 1.71509e-17)
(-0.000384121 -1.37751e-05 -1.61969e-18)
(-1.44164e-05 -0.000207837 -5.57543e-19)
(-0.00413616 -0.00428305 5.65833e-18)
(-0.00363312 -0.00375203 4.21523e-18)
(0.0205482 9.14274e-06 -2.21458e-17)
(0.0295046 -0.000852538 -9.70891e-18)
(-0.00573952 -0.00249378 2.59058e-18)
(-0.000156216 -0.000916411 5.36716e-19)
(-0.00239845 -0.00576442 1.31731e-18)
(0.000162505 -0.00446039 7.43532e-17)
(0.0262786 0.00984009 -2.28255e-17)
(-0.00623478 -0.00537858 3.99194e-17)
(-0.00597138 -0.001851 -1.80124e-18)
(0.0277966 0.0033314 -1.38064e-17)
(-0.00280355 -0.00365231 7.31932e-19)
(-0.00487511 0.00247998 -5.92099e-18)
(-0.00629856 -0.0048905 -3.14523e-17)
(-0.000119535 -0.0052909 -3.96141e-17)
(-0.00562132 -0.00249195 -2.66048e-18)
(-2.21977e-05 -0.00468557 1.34489e-16)
(-0.00543803 -0.00264567 1.53437e-17)
(-0.00290146 0.000711886 -2.79385e-18)
(-0.0076418 -0.000414025 -8.95814e-18)
(-0.00150166 -0.00296002 -5.99547e-18)
(-0.00132173 0.000123007 -2.00245e-18)
(-0.00422584 0.00109324 6.59608e-18)
(-0.00330916 -0.00374035 -2.35098e-18)
(-0.00227177 -0.00282523 7.23355e-19)
(-0.000192425 -0.000642795 2.6325e-18)
(-0.000234453 -1.89117e-05 -5.42217e-19)
(-0.00667985 -0.0012322 -1.7671e-17)
(-0.00293023 -0.000239261 9.7725e-18)
(-0.00655625 -0.00291302 4.47467e-18)
(-0.000150675 -0.000880996 6.26068e-19)
(-0.000108775 -0.000729297 1.10384e-18)
(-6.91563e-07 -5.95436e-05 2.63708e-18)
(-0.00159144 -0.00198966 1.52194e-18)
(-0.000691284 0.000178948 1.1381e-18)
(-0.00223722 -0.00251332 -7.40024e-19)
(-0.000145155 -9.63205e-05 -1.59756e-18)
(0.011837 -0.000761934 7.38457e-18)
(-0.00655447 0.00310501 -7.32355e-18)
(0.000242949 -0.00431184 2.34169e-17)
(-0.000436794 -0.000159832 5.4552e-19)
(-6.11367e-06 -7.34663e-05 -6.88777e-18)
(-0.000137936 -0.00379827 3.5466e-17)
(-0.00496411 -0.00363295 4.42297e-18)
(9.48212e-06 -0.00200685 1.41305e-17)
(0.0474069 0.00343483 1.2405e-17)
(-0.00309824 -0.00487646 -6.70461e-18)
(0.0467195 0.00735509 2.37676e-17)
(-0.00429422 0.00100089 -7.48965e-18)
(-0.00761073 -0.00401938 2.49659e-17)
(-0.00230776 -0.000375144 3.96447e-18)
(1.26742e-06 -5.82203e-05 -5.56975e-18)
(-0.00020066 -7.78984e-05 -6.70492e-19)
(-0.00184303 -0.00186249 -7.51873e-20)
(0.00513878 0.000220682 1.15815e-17)
(-4.35485e-06 -6.11612e-05 2.8581e-18)
(0.0524643 -0.000140326 -6.5375e-18)
(-0.00226798 -0.00257065 -1.05918e-18)
(0.00245153 -0.000263932 -4.29538e-18)
(-0.00115701 -0.00431761 -2.39711e-17)
(-0.00320443 -0.004904 1.21723e-17)