/*--------------------------------*- C++ -*----------------------------------*\
| =========                 |                                                 |
| \\      /  F ield         | OpenFOAM: The Open Source CFD Toolbox           |
|  \\    /   O peration     | Version:  v2012                                 |
|   \\  /    A nd           | Website:  www.openfoam.com                      |
|    \\/     M anipulation  |                                                 |
\*---------------------------------------------------------------------------*/
FoamFile
{
    version     2.0;
    format      ascii;
    class       surfaceScalarField;
    location    "300";
    object      phi;
}
// * * * * * * * * * * * * * * * * * * * * * * * * * * * * * * * * * * * * * //

dimensions      [0 3 -1 0 0 0 0];
oriented        oriented;


internalField   nonuniform List<scalar> 
20673
(
-0.1676
0.157695
0.00990273
0.371739
-0.306057
-0.0657068
0.0124684
-0.0294206
0.0169528
0.15112
-0.280959
0.129857
-0.356372
-0.122276
0.478632
-0.0237156
0.00139768
0.0223178
0.0198576
-0.0176618
-0.00219528
0.00622536
0.0109901
-0.017215
0.0101333
-0.0181787
0.00804522
-0.0544009
0.151358
-0.0969616
-0.102928
0.107815
-0.00488711
0.159192
-0.00109361
-0.158092
-0.101307
-0.000382016
-0.000195828
0.000578027
0.202349
-0.0376218
-0.164737
0.239253
-0.240559
0.00129102
-0.107376
0.300733
-0.193382
0.141739
-0.159979
0.0182374
0.153962
0.00524441
0.334799
0.268091
-0.602929
-0.381484
0.573936
-0.192454
0.019035
0.000822432
-0.600303
0.331513
0.268758
0.0279189
-0.02169
-0.304781
-0.0636345
0.36839
-0.00175922
0.0181543
-0.0163954
-0.106251
0.0760293
0.0302225
-0.0984018
0.0489253
0.0494776
-0.0611615
0.0470668
0.0140941
-0.140917
0.10575
0.0351635
0.151972
-0.166091
0.0141126
0.192468
-0.203524
0.0110337
-0.0976345
0.136753
-0.0391188
0.173838
-0.0476806
-0.126158
-0.389313
0.360543
0.0287557
0.0769689
-0.0897464
0.012777
-0.370675
-0.229659
-0.00254775
-0.00209657
0.00464419
-0.186676
-0.0591993
-0.00745085
0.00041045
0.00704076
-0.584625
0.594465
-0.00992109
0.685162
-0.394588
-0.290569
0.36799
-0.541252
0.173262
-0.0456236
-0.0209979
0.0666226
-0.171207
-0.156881
0.328076
0.094755
0.0723239
-0.16708
0.144335
-0.00260268
-0.0225463
-0.106848
0.129394
0.000813435
0.00633983
-0.00715324
-0.684406
0.439697
0.24464
0.0458912
-0.166847
0.120939
-0.281764
0.0316329
0.250126
-0.00190003
0.00271336
0.0544034
0.119433
0.166449
-0.273848
0.21245
-0.222086
0.00963679
-0.115842
0.0129139
0.268941
-0.353665
0.0846968
0.0856322
0.159251
-0.244894
-0.334329
0.16311
-0.0189702
-0.0206388
0.0396086
0.165903
0.205807
-0.000381885
-0.170184
0.504945
0.0116119
-0.0353276
-0.0805401
0.0874528
-0.0069134
-0.51579
0.328611
0.265916
-0.361343
-0.099719
0.103664
-0.0039452
-0.158814
0.177809
-0.0190035
-0.525899
0.169513
-0.0100427
0.0201759
0.000352299
-0.00156923
0.00121679
0.147226
-0.452033
-0.00349007
-0.00708814
0.0105781
-0.0250722
0.152363
-0.127283
0.00212324
-0.000104412
-0.00201899
0.0738286
0.190429
-0.264267
0.0188753
-0.0178619
-0.00101284
-0.612862
0.320426
0.292433
-0.332841
0.603242
-0.270417
-0.25226
0.0115679
0.0207793
-0.0323468
0.00445191
-0.00699978
0.00104414
0.00193301
-0.00297749
-0.212945
0.286768
0.364309
0.210037
-0.574368
-0.0883154
0.00777476
0.212989
-0.167097
0.519237
-0.15124
-0.00148865
0.000429026
0.00105952
0.116192
-0.0032525
-0.112941
-0.0529619
0.368137
-0.315204
-0.260173
0.0516266
0.208535
-0.0387553
-0.0495605
0.0217056
-0.0358222
0.0141168
0.0924507
-0.125382
0.032931
0.129277
-0.0062597
-0.123018
-0.0624057
-0.0434221
0.105822
0.0536624
-0.0617477
0.008087
-0.457945
0.563517
-0.105616
0.122992
0.00622018
-0.129212
0.0212782
-0.0669007
-0.272396
0.0719142
0.200479
-0.487544
0.0903184
0.397192
0.0243468
-0.0192059
-0.00514109
-0.00626789
-0.0567537
0.0630205
0.08894
-0.111487
0.10536
0.195346
0.157224
-0.146574
-0.0106563
0.000975955
0.00423757
-0.00521394
-0.00140886
-0.00604167
-0.109504
0.135279
-0.025768
0.0227573
0.00158919
-0.274149
0.11742
0.156728
0.0118598
-0.0107927
-0.00106711
-0.360911
0.502872
-0.141998
0.0111903
-0.00818974
-0.00300053
-0.00369876
0.00470847
-0.00100996
-0.0762051
0.164726
-0.0885213
0.505025
0.180141
-0.0966385
-0.00307943
0.000811787
0.00314719
-0.00395893
-0.0530432
-0.0453578
-0.61261
0.123588
0.488957
-0.245648
-0.0145393
0.100641
0.219538
-0.320199
-0.538568
-0.0741172
-0.495542
0.590832
-0.0952998
0.0231032
0.0051602
-0.00752465
0.00236436
-0.0830299
-0.191122
0.148778
-0.305672
0.200697
-0.582181
-0.12027
0.0634656
0.0568047
0.00586188
0.022056
-0.0158513
-0.151748
0.0500557
0.00360717
-0.108876
0.437487
0.101843
-0.178049
-0.0899781
0.101926
-0.0119486
0.454662
-0.192875
-0.261803
-0.214721
0.276705
-0.0619916
-0.0706023
0.0272405
0.0433637
-0.0657077
0.331622
0.0322858
0.00244347
-0.0347296
0.0192988
0.0382834
-0.0575835
0.0196964
-0.301466
0.507492
-0.169141
-0.338374
0.221098
-0.211361
-0.00975441
0.160118
-0.000886399
-0.159232
0.0017987
0.010061
0.029768
-0.120293
0.0905254
-0.0787676
-0.0436526
0.122414
0.216347
-0.212562
-0.00380182
0.00367795
-0.000290847
-0.00338726
-0.170531
0.0117068
0.0213041
-0.0698137
0.0485083
-0.000255268
0.00237823
-0.0682784
-0.0519921
-0.147727
0.218164
-0.0704411
-0.0838177
-0.00869282
0.0925107
0.237223
0.364275
-0.601501
0.112398
-0.0199495
-0.139568
0.0300698
0.0353781
-0.0977762
-0.203712
-0.068687
-0.15377
0.155133
-0.00136299
0.135423
0.22162
-0.357063
0.0269766
0.096015
0.146969
-0.138832
-0.00814551
0.0116945
-0.00497455
-0.00672007
0.116438
9.90844e-05
-0.116519
-0.00533204
0.234798
-0.229488
0.0419451
-0.0347869
-0.00715871
-0.0434639
-0.0668609
0.110319
0.00849291
-0.00333319
0.00430447
0.00688569
0.0414132
-0.00912802
-0.258136
0.403665
-0.145563
0.00479114
0.111398
-0.0130287
0.164993
0.299902
0.154746
-0.0956605
0.459948
0.187933
-0.0900456
-0.0978927
0.020652
-0.0224118
-0.0292836
0.118596
-0.089315
0.00280965
0.000867363
0.150503
-0.147989
-0.00251661
-0.106155
0.100815
0.00534253
-0.00290494
0.0649064
-0.0620009
0.0018332
-0.000789322
-0.106621
0.0887019
0.0179172
0.625722
-0.274606
-0.351151
-0.027906
-0.0172402
0.0451468
-0.100587
-0.00566382
0.636485
-0.636562
-0.306669
0.253679
0.00901909
-0.0784083
0.0693877
-0.0829027
0.0805938
0.0023081
0.0275881
0.175622
-0.203199
-0.342225
-0.342233
0.158338
0.00328471
-0.161622
0.154047
0.00606821
-0.00231665
0.00266875
-0.0736234
0.095684
-0.0220611
-0.278758
-0.110568
-0.0932308
0.362147
0.0134325
0.115844
0.00858505
0.01895
-0.0275355
-0.286899
0.072169
0.0215936
-0.0168767
-0.00471668
0.00387484
3.69432e-06
-0.00387867
-4.75942e-05
-0.106104
-0.417062
-0.0705141
-0.0544118
0.0365714
0.0178422
0.14982
-0.0102298
-0.139591
0.00646057
0.00221299
-0.00867366
-0.493564
0.294406
0.199131
0.0431622
-0.0621329
-0.398699
0.140525
-0.00203582
0.111296
-0.109263
-0.129231
-0.45546
-0.00386367
-0.000367824
0.00423133
0.0230357
-0.0180959
-0.00493999
0.0627234
0.176516
-0.110737
0.0204124
0.0903226
0.0366208
0.179713
-0.459626
0.0425249
0.0080253
0.0689431
0.126348
-0.0099096
-0.00831342
0.158812
-0.0343192
0.0116556
0.0226595
0.00452176
-0.000646945
-0.595567
0.492775
0.102743
0.191558
0.000892748
-0.00280294
0.0013141
-0.00204878
-0.00161997
0.00366829
-0.310512
0.547721
-0.462512
0.445877
0.0165918
-0.00839135
0.000672806
-0.11664
0.0982196
0.0184195
0.40076
-0.602486
0.20172
-0.0769213
0.0848586
-0.00793743
-0.1424
0.135214
0.00718421
-0.103433
0.019615
-0.163542
-0.0125462
0.176079
0.583816
-0.219552
0.137596
0.00364935
-0.141252
0.00339415
-0.00375735
0.000363112
-0.289481
0.390242
-0.100751
0.0504453
-0.12685
0.0764025
-0.033824
-0.0135088
0.047334
-0.23957
0.340195
-0.280434
-0.0732554
-0.0198725
-0.11075
0.130624
0.000373425
0.00679697
-0.00717038
0.109707
-0.0799381
0.120248
0.0676812
0.0131375
0.189201
0.239967
0.372618
-0.612587
-0.00182974
0.00264136
0.00237561
0.0356435
-0.0380193
0.0540052
-0.0785022
0.0244981
-0.384209
-0.0754497
-0.00074773
-0.00281405
0.00356187
-0.000830388
0.000627939
0.00020267
-0.0345402
0.0558435
0.0191941
-0.000318716
-0.129749
0.104674
0.250965
0.476065
-0.666175
0.190024
-0.142229
0.00635019
0.135875
-0.000917457
0.00177758
-0.000860094
0.119736
-0.130432
0.0106938
-0.169477
0.255118
-0.0981008
0.024477
-0.151371
-0.0107741
-0.0937491
-0.45631
0.550053
-0.0691878
0.0666084
0.00257943
0.252923
0.285578
-0.538536
0.0405024
0.00144224
-0.209159
0.23676
-0.0717771
0.472526
0.0826063
0.111526
-0.194145
0.0491298
-0.127904
0.104117
-0.11281
0.0161076
-0.0930298
-0.00454544
0.129725
-0.125189
0.379703
-0.0915978
-0.288105
0.0808052
-0.0889925
0.00818684
-0.0159639
-0.0183582
0.0222771
-0.0199023
-0.230378
-0.263217
0.0587115
-0.0152295
-0.0434817
-0.489718
0.0223916
0.467327
0.187871
0.191833
-0.477966
0.117018
0.0583208
-0.0390229
-0.0602266
0.523093
-0.462925
-0.10358
0.101542
-0.175948
0.0123876
-0.266342
0.401745
-0.00150567
0.159845
-0.246113
0.0286882
0.217404
-0.00824736
0.0044446
0.0038025
0.0817445
-0.125214
0.120145
-0.1234
-0.277028
-0.108921
0.385937
0.0710667
-0.351525
-6.54473e-05
-0.00533378
0.00539759
0.0034409
-0.00233427
-0.00110652
0.286651
0.21619
-0.394638
0.630205
-0.235639
-0.0618973
-0.00728962
-0.28955
-0.0703858
0.359901
-0.000905189
-0.000664117
0.103728
-0.380771
-0.00454884
0.000685022
-0.335108
0.258615
0.0765032
0.097813
-0.0130058
-0.0848091
0.216646
-0.140564
-0.0761076
0.0138491
-0.00777848
-0.00607059
0.0619201
-0.209653
0.00480847
-0.0730876
-0.0506916
0.0133058
0.0373876
0.180121
-0.0975267
-0.0566835
-0.059957
-0.0103603
0.0684643
-0.0581057
0.0566805
-0.281256
0.224555
-0.0023989
-0.00373918
0.00613704
-0.0509284
0.0230228
-0.000255397
-0.000574893
-0.188013
0.169874
0.0181364
-0.00559573
0.000130819
0.00546507
-0.157511
-0.0570268
0.214526
-0.000214136
0.000887554
-0.000673661
-0.0398
-0.0108902
0.0666625
-0.0896384
0.0229734
0.0906818
-0.0240229
0.0210624
-0.0085946
-0.564805
0.330718
0.234079
0.139655
0.00730712
-0.00308135
0.00405711
-0.177217
0.293466
-0.116263
0.221283
-0.000862179
-0.220437
-0.00139595
0.0012004
-0.0607866
0.0698038
-0.212386
-0.0539389
0.266298
-0.0779109
0.0750059
-0.0327881
-0.0283734
-0.60528
0.326031
0.279195
-0.00440184
0.000702638
-0.0981583
0.0252434
0.0729149
-0.270947
0.523832
0.511993
-0.360058
-0.151975
0.103318
-0.59303
0.237656
0.269809
-0.00819268
0.0889976
-0.0294504
0.0409641
-0.0115142
-0.0417091
0.0267533
0.0149545
0.00428904
-0.00435391
-0.371496
-0.00861041
0.380079
-0.0591051
0.109552
-0.00742434
0.00789966
-0.000475334
0.129318
-0.165834
0.0365137
0.00393229
-0.003421
0.00250352
0.00382965
0.213061
-0.483281
0.270185
0.0826239
-0.0286194
0.325707
-0.498717
0.17297
-0.0154429
0.0586046
-0.145217
-0.189125
0.0118476
0.00200151
-0.0316728
-0.11073
0.181054
0.0909387
-0.271967
0.457411
-0.574724
0.117302
0.140983
-0.127552
-0.0891709
0.0939624
0.124989
-0.125108
0.000115962
-0.0131245
-0.0334598
0.0465856
-0.00358962
0.00337538
0.00877051
-0.00230999
0.00751305
0.130077
0.0595276
-0.113933
0.019649
-0.482198
-0.00362421
0.00157508
-0.0126788
-0.00492514
0.0176036
-0.0331584
0.290457
-0.257327
0.0901635
-0.0853556
-0.310225
0.502603
-0.1924
0.0309074
0.074099
-0.105007
-0.0989964
-0.236101
-0.312873
-0.251941
-0.293347
0.110896
0.182436
-0.0144266
-0.00397704
0.0184036
-0.0775854
-0.215777
-0.00987103
0.0102447
0.00105978
-9.00305e-05
-0.000970008
0.0860447
-0.0864756
0.000430978
0.0223846
-0.0408525
0.0184694
-0.213663
0.270324
-0.033644
-0.0207665
0.0356917
0.590544
-0.241419
-0.349165
-0.067056
-0.296691
0.119457
0.218579
-0.340663
0.122068
-0.0727442
-0.0681761
-0.367565
0.607524
-0.389719
0.463004
-0.0733068
0.391238
-0.0655611
0.0889577
-0.0971511
-0.33587
-0.276994
-0.00490492
-0.000690558
-0.00094935
0.0211722
-0.020223
0.00360141
0.00208757
-0.005689
-0.075732
-0.0308905
-0.00311124
-0.0069835
0.0100947
0.00583339
0.00111057
-0.00694411
0.165785
-0.0364682
-0.475477
0.103952
0.102218
0.0177649
-0.119984
-0.270494
0.0838329
0.20416
-0.191956
-0.0122179
0.223044
0.402648
0.0119623
0.0210182
-0.0124333
-0.0288582
0.0279088
-0.187884
0.20706
-0.0191873
0.10917
0.0215136
-0.130685
-0.165375
-0.0226405
-0.264808
0.20563
0.0101238
0.114864
0.195507
-0.2418
0.0462732
-0.067754
0.0750889
-0.00733443
-0.173589
0.278923
-0.440762
0.380489
-0.000172463
-0.00073298
0.00696547
0.00152699
0.0091566
-0.00219177
0.0425227
0.0850105
-0.127537
0.00576566
-0.00216432
0.00619733
-0.00859574
-0.00107566
-0.00130584
0.00238204
0.0014292
-0.000493999
-0.000935422
0.148296
0.368452
-0.516767
-0.131593
0.00584199
0.12575
0.224885
-0.0293971
0.347411
-0.262169
-0.0852628
-0.106505
0.0244763
0.0820279
0.00210293
0.487309
-0.541078
0.053806
0.0151568
-0.13553
0.120369
-0.00936759
-0.146634
0.155998
0.000568627
-0.000395128
-0.000173692
0.347879
0.242632
0.115438
-0.00242619
-0.113012
0.0009904
-0.00178553
0.00079476
0.0937182
-0.0142474
-0.0794724
0.000436126
-0.00560042
0.00516433
0.238064
-0.25354
0.220355
0.525105
0.111316
-0.147021
-0.0235177
0.512282
-0.29926
-0.0190357
-0.00491165
0.023947
-0.0317927
-0.00991771
-0.152907
0.148352
0.00141255
-0.00243601
0.00102326
0.0245294
0.187924
0.103637
0.00875969
-0.00075898
-0.000316824
-0.0102474
0.0485303
-0.00542353
0.0914688
-0.00759851
-0.08238
0.104516
0.010924
0.116302
-0.142906
0.0266025
0.0877946
0.0265801
-0.114376
-0.170452
0.181222
-0.0107758
0.0990401
-0.110616
0.0115759
0.0231798
-0.143339
-0.00963536
0.152988
0.107478
-0.00140972
-0.10607
-0.534121
0.547956
-0.0138767
0.102355
-0.0311736
-0.0711807
0.212435
-0.0121844
-0.200267
-0.434646
0.306807
0.127845
-0.157555
0.0105244
-0.265514
0.186204
0.0793088
-0.000496283
0.00106471
0.00910013
0.013657
0.0924953
-0.382079
-0.519947
0.426189
-0.02104
-0.00466679
0.0257061
0.00742853
-0.00159539
0.594623
-0.222017
-0.00417681
0.00461285
-0.315388
0.23503
0.0803616
0.117803
-0.0904855
-0.0273198
0.00486953
0.327101
-0.332009
0.00401444
-0.00263292
-0.00138166
0.0607512
-0.0832894
0.0225379
0.0431677
0.177911
0.305686
-0.190342
-0.115359
0.0103565
-0.0134678
-0.108878
0.0795907
-0.0100231
0.00995802
6.50823e-05
0.239374
-0.60694
-0.00018405
-0.0036439
0.00382781
-0.00394297
0.0760644
-0.0108678
-0.0651961
-0.357116
-0.077529
-0.00244193
0.00437476
0.0199947
-0.00971038
-0.0102843
-0.125346
0.166333
-0.0409864
0.128876
0.383078
-0.216247
0.265811
-0.0495833
-0.141487
-0.06505
0.0959564
-0.0433417
0.530694
-0.521947
0.161845
0.653745
-0.442035
-0.211762
0.411048
0.242645
0.00295325
-0.00370128
-0.0406202
-0.065885
0.0404391
-0.0953661
0.107774
-0.0124124
0.576433
-0.10044
-0.0478587
-0.410122
-0.00533398
0.114503
-0.0111647
0.00501917
0.006146
0.147043
-0.165891
0.0188432
-0.116418
0.338021
0.453376
-0.234819
-0.290157
-0.0872029
0.377359
0.0141679
-0.000786155
0.0026191
0.393738
0.170752
-0.564511
-0.262557
-0.146133
0.408683
0.0148685
-0.0181068
-0.152352
0.10788
0.108747
0.040188
-0.293755
-0.149346
0.261337
-0.112009
0.181712
-0.218153
0.0364254
0.00118991
0.106288
0.0583852
-0.0687474
0.0232272
0.0964624
0.00575617
-0.145852
0.0555741
0.0902769
0.0126461
0.0830375
0.00779399
0.112348
0.455384
-0.291776
-0.163636
0.0036351
-0.000241067
-0.45262
0.248959
-0.0276906
0.256359
0.00364668
-0.260004
0.0698378
0.0325171
0.0777051
0.0216406
-0.0993498
-0.0142757
0.402353
-0.388126
-0.00296396
0.0966806
0.106533
-0.133018
0.0264805
0.000402783
0.00116628
-0.00156934
-0.076416
-0.0694376
0.00196105
0.093244
-0.0952075
0.138357
-0.147727
0.32675
0.130649
0.0351648
-0.012888
0.0948474
-0.0144491
0.0116786
0.00276655
0.172031
-0.345648
-0.156957
0.185181
-0.0282362
0.104201
0.00356627
-0.0017217
-0.00169936
0.0072138
-0.0072134
0.114367
-0.120628
-0.0609107
0.103432
-0.0369922
-0.20358
0.197649
-0.22706
0.0293992
-0.213825
0.253992
-0.0713137
-0.0169506
0.0882624
-0.0493233
0.0283016
0.143373
0.00644614
0.0162328
-0.0102636
-0.00419019
-0.00251346
-0.00750963
0.0193056
-0.216833
0.197509
-0.00364837
0.107285
0.0810389
-0.0202891
0.0846777
0.0913739
-0.176063
-0.291294
0.0894986
0.201787
-0.0253168
0.000975248
0.0243419
0.0403504
-0.0275404
-0.0128096
-0.0329592
0.0263738
0.00658502
-0.0348335
-0.0657367
0.100573
-0.542527
0.0469727
-0.00337257
-0.0010296
0.0108839
-0.470798
0.456459
0.18395
-0.180498
-0.00345992
-0.0138861
-0.109517
0.123402
-0.123657
0.0260231
-0.0131416
0.118888
0.020225
-0.00516085
-0.0150639
0.107153
-0.01936
-0.0256777
0.196969
-0.171287
0.0183062
0.0168583
0.265609
-0.197573
-0.0680462
0.00136036
6.86076e-05
0.265565
-0.576084
-0.0168427
0.410563
0.0503672
0.00834502
0.0311409
0.00921028
0.0279726
-0.00280575
-0.0251658
0.0981214
0.167478
0.258451
-0.263807
-0.44849
0.185926
0.000163572
-0.151546
0.0028497
0.121708
-0.0863161
0.220395
-0.0227529
0.105859
-0.111282
0.130752
-0.26491
0.26975
-0.0504254
-0.0603126
0.117273
0.00444551
-0.0660534
0.0620951
0.00395772
-0.0510459
0.362592
-0.311579
-0.084757
-0.0203722
0.105128
-0.0750889
-0.00395538
0.00501494
0.0316748
0.119679
0.105673
-0.0279725
-0.18735
0.0303864
-0.261497
0.540646
-0.279205
0.29402
0.0865125
-0.380535
-0.0926428
0.312162
-0.0825122
-0.012249
0.0947576
0.154012
-0.0592578
-0.0490267
0.0974863
-0.0484591
-0.0346825
0.021558
-0.14118
-0.0125899
-0.222996
-0.382335
0.0319433
-0.0888046
0.0568599
0.0218403
0.00613294
-0.0824045
0.0718069
0.0105976
0.0591616
-0.348636
-0.180119
0.147247
0.0328701
-0.123739
-0.39825
-0.157988
-0.0465472
0.204541
-0.0536372
0.212901
0.00427991
0.0157149
-0.294807
0.615224
-0.0624911
0.188304
0.000963871
-0.189245
0.0910492
0.0167662
0.141806
-0.0582968
-0.0835116
0.00228305
-0.00035206
-0.00193117
-0.0228902
-0.08531
0.108196
0.0503202
-0.26659
3.48187e-05
0.000842722
-0.000877696
0.00596402
0.00124998
0.355439
-0.264459
-0.0910077
0.223391
0.0329705
0.0884755
-0.0683799
-0.0200946
0.080982
-0.11583
0.115008
0.00472687
-0.349832
-0.241685
0.5915
0.0336343
0.272037
-0.0980918
0.0850838
0.245849
-0.0647935
-0.114144
-0.010968
-0.149464
0.129593
0.390644
-0.0966216
-0.150297
0.150026
0.000269681
-0.0177634
0.404106
-0.177835
-0.226262
-0.267865
-0.034206
0.302088
0.67624
-0.396146
-0.28015
0.00234915
0.00109193
-0.422231
0.622928
-0.200629
0.0127336
0.00253447
0.0091599
0.0101802
0.200416
-0.21061
0.0357638
-0.00462202
-0.0279704
-0.18461
0.0672975
0.0694563
0.234156
0.119787
-0.00625954
-0.113534
-0.1033
-0.374699
0.132972
-0.00306055
-0.129916
0.326743
-0.589846
0.263035
0.107929
-0.0963421
-0.0115903
-0.221334
-0.0940491
-0.0266443
0.0276341
0.0446366
-0.040163
-0.00447267
-0.00334577
-0.00781861
-0.563924
-0.0727163
-0.244019
0.124401
-0.11661
-0.143127
0.158395
-0.0152739
0.000657112
-0.00234316
0.00168598
0.0138783
-0.013063
-0.00081535
-0.129308
-0.0306739
-0.330018
-0.017446
0.347445
0.100183
-0.0112258
-0.0223482
0.0195433
-0.0722394
0.00618588
0.0568126
-0.105841
0.142364
-0.00348901
-0.138876
-0.0166783
-0.00277532
0.0194532
-0.161506
0.147902
0.0135937
0.167474
-0.178247
0.00543912
0.0877406
-0.0931806
-0.0721778
-0.00623183
-0.145981
0.0166715
-0.00505855
0.0180228
-0.0129638
0.141144
-0.150314
0.00916791
-0.284876
0.0837903
0.201063
0.094097
-0.107982
0.0701284
0.109982
-0.408445
0.320314
0.0881347
-0.187358
0.0294046
0.0144219
0.142796
-0.167454
-0.0439233
-0.380172
-0.0458681
0.426009
0.18173
0.144604
-0.00952709
-0.135078
-0.0648076
0.24424
-0.179427
-0.135517
0.0213712
0.0132866
-0.343319
-0.222455
0.463155
-0.240718
0.127075
-0.549305
0.214394
-0.156771
-0.0576393
0.224176
0.225816
-0.449978
0.0259341
0.184913
-0.210859
0.629097
-0.283786
-0.345363
0.00317239
0.000841923
-0.155639
0.148683
0.00694949
0.0396565
-0.041907
0.2381
-0.5198
0.281655
-0.349602
-0.210974
0.56057
-0.0373941
0.0852797
-0.0478857
0.147091
-0.0307928
0.250005
-0.193941
-0.0560649
0.0410677
0.0141224
-0.0551904
0.130991
-0.0395512
-0.0914407
-0.0775883
0.0621449
0.000967073
0.0973251
-0.119853
0.0225269
-0.0901844
0.262279
-0.172097
-0.629757
0.0171086
0.612648
0.601973
-0.190985
-0.255745
0.0096148
0.0110589
-0.0113499
0.000290974
-0.603982
0.254376
-0.0796723
0.0128122
0.0668597
-0.127228
0.153148
-0.00122108
-0.00620328
0.105958
-0.133871
0.0279077
0.106549
0.0244415
-0.00645326
0.0975014
-0.443339
0.103138
0.340192
0.27969
0.317328
-0.00166351
-0.429854
0.272553
0.157295
-0.298581
0.0791887
0.219376
-0.0470691
-0.0174724
0.0645408
0.251329
-0.0165496
0.104872
0.442808
-0.54769
-0.00878556
0.176457
-0.16768
-0.0614169
-0.418364
0.479734
0.326712
-0.47738
0.150647
-0.160383
0.012196
-0.000544436
0.00120153
0.162922
-0.173837
0.0109017
0.253759
0.150355
0.46807
0.126312
0.00332523
-0.00504709
0.00816627
0.332768
-0.103848
-0.228945
-0.107937
0.279946
0.0605113
-0.0194442
-0.0744306
0.0846392
-0.0102078
-0.00805553
-0.00108813
0.00914331
-0.112182
0.11414
-0.0527916
-0.232096
-0.236997
-0.358616
0.508818
-0.18212
0.00434794
-0.147681
-0.0130395
0.0148627
-0.0893739
0.074512
0.0504703
0.119402
-0.00616583
0.0024317
-0.28743
0.0889439
0.198465
0.0335423
-0.214861
0.18131
0.00728931
-0.00916811
0.00187867
0.140766
-0.451011
1.4531e-05
0.212413
0.273007
-0.358951
0.0859162
0.338481
0.260245
-0.598777
0.00455262
-0.151133
0.0879683
0.0161494
0.205255
-0.277832
0.0725715
0.0337414
0.00202258
0.000579933
0.00661172
-0.00719146
0.0288624
0.224982
-0.313404
-0.119384
0.432795
-0.0990762
-0.00565472
0.104735
-0.0670266
-0.327973
0.567338
-0.0819533
0.0948329
-0.01288
-0.440645
0.127246
-0.151675
-0.282601
0.36876
-0.0861438
0.44188
-0.155746
-0.286134
-0.105671
-0.24264
-0.103787
0.346421
0.0170199
-0.0559083
0.142508
0.0394562
-0.181971
0.401858
-0.586719
0.184864
0.377253
-0.508
0.130743
-0.0189088
-0.26527
0.284169
0.0330795
-0.323155
0.290041
-0.343794
0.0759459
-0.0293802
0.0391547
-0.00977365
0.291826
0.0520611
-0.343882
-0.110803
0.403873
-0.293078
0.0148092
-0.00475649
-0.0100527
-0.0192904
0.0217336
-0.156341
0.130652
-0.156163
-0.00384647
-0.117214
0.121059
-0.0532991
-0.165089
0.218384
0.47527
-0.164629
-0.31066
0.125241
-0.0529177
-0.00250091
0.1085
-0.000574145
0.278512
-0.483205
0.204677
-0.303835
0.113469
-0.00192027
0.0157985
-0.0472473
-0.0848749
0.132124
-0.000118914
0.00232611
-0.00220647
0.52893
0.166975
0.000348558
-0.00268289
-0.178838
0.155027
0.0238597
-0.278497
0.0655471
0.0115084
-0.0110913
-0.000417175
-0.0150243
0.0104374
0.00458696
0.356474
-0.323429
0.100858
-0.0954203
0.495098
0.106826
-0.340745
0.0981009
0.431776
-0.19371
-0.000374142
-0.00244002
0.475317
-0.251123
-0.332797
0.282375
-0.0301948
-0.277026
0.0730066
0.20402
0.0305584
0.0872426
-0.093177
0.0438406
0.307229
0.0748011
-0.382026
0.0987785
-0.122626
0.0238475
0.369108
0.171643
-0.540776
0.00417133
0.508645
-0.48367
-0.0250103
0.350994
0.354288
0.225867
-0.580165
0.00174097
0.459154
0.0223953
-0.00578934
0.00762442
-0.00183516
0.00864981
-0.0316823
0.0230314
-5.64667e-05
-0.180064
-0.03569
-0.0624682
-0.00811688
0.00914533
-0.00102847
-0.279484
0.350525
0.000178152
-0.00355084
-0.0300032
0.00936425
-0.00893507
0.00081808
7.80199e-05
0.00833703
-0.00841518
0.00383927
0.0109701
-0.0176515
0.0180537
-0.0667482
0.0986905
0.177963
0.0878288
0.00236347
-0.153614
-0.0252268
0.00324451
-0.0159234
-0.41569
0.0585742
0.0925804
0.275529
0.27582
0.0569217
0.53983
0.161855
-0.230113
0.0682546
0.120317
-0.145031
0.0247127
-0.0025469
0.0031364
-0.000589628
0.374449
-0.281894
0.425702
-0.189923
-0.235787
-0.00189735
0.00831346
-0.00641609
0.0115156
-0.074959
0.0634413
-0.270467
0.251548
0.0202888
0.0240191
-0.174643
0.150616
-0.0739381
-0.206558
0.280485
0.0236418
0.0209951
0.087642
-0.0673537
0.160674
-0.211228
0.0505475
-0.170326
-0.106704
0.00609008
-0.00551013
0.00819268
-0.000903522
0.0071246
-0.0153144
-0.367102
0.0845144
-0.0821627
-0.026719
-0.00744478
0.113974
-0.00535641
-0.00276144
0.00811768
-0.0200164
-0.129308
0.126145
0.00318219
0.25668
0.170095
-0.260283
-0.0778167
-0.209632
-0.511948
-0.114513
0.0650341
0.515084
-0.366802
0.167749
0.0139482
-0.0622783
-0.0992328
-0.00161952
0.000550105
0.00106935
-0.128762
0.028702
0.100059
-0.0969999
-0.235783
0.118838
-0.00044003
0.00177628
-0.00133635
0.162244
0.327352
-0.24384
-0.0835231
-0.00135325
-0.000461583
0.00181477
-0.363571
0.0972077
-0.305483
0.00688434
0.0751246
-0.10735
0.0322258
0.00421276
-0.00280067
0.482185
0.298513
-0.349591
-0.0149334
0.0199436
-0.00501047
-0.0998714
0.0641816
-0.0207968
0.0822421
-0.0614462
-0.133748
0.0321752
0.101572
-0.0360391
-0.0537074
-0.489011
0.172647
0.316336
-0.0938174
0.0962486
-0.00243119
0.171583
0.155759
0.0162372
0.357042
-0.373318
-0.0815123
-0.209789
-0.026377
0.00734092
0.000588937
-0.00864479
-0.372028
0.0904445
0.281579
0.503668
-0.126419
-0.0757254
0.348705
0.0140459
0.0680973
-0.182489
-0.00287774
0.185358
-0.23593
-0.19393
-0.303079
0.0906648
0.0026454
0.36737
-0.0601352
-0.00993599
-0.0685892
-0.0164287
0.0850152
-0.00734186
-0.00246253
0.00980397
-0.329005
0.0894126
0.113529
-0.0267694
-0.0867638
0.182491
-0.163204
-0.00277847
0.000145445
-0.0012727
0.000832632
0.00615498
-0.00191789
-0.121183
0.117335
-0.00100986
-0.0140144
0.465195
0.00282043
-0.0172471
-0.45888
0.480854
-0.0714846
-0.150602
0.167456
-0.152863
-0.0146033
-0.078175
-0.025317
0.00427622
0.0420628
0.0209008
-0.0629643
0.100923
0.0120006
-0.112931
-0.0100392
0.0344623
-0.0244235
-0.288466
-0.275253
0.563661
-0.0618596
0.097335
-0.0354766
0.107028
0.334854
-0.0843548
0.154475
0.0178632
-0.0136408
-0.00422277
0.228766
0.118626
0.183415
-0.642301
0.217081
-0.267235
0.0501344
0.100926
-0.256661
0.155722
-0.000693378
-0.000926287
0.470979
-0.103429
-0.367564
0.51591
-0.18443
0.00374745
-0.0197201
0.127636
-0.107921
0.144233
-0.14766
0.00342622
-0.025976
0.00362844
-0.107717
-0.0026783
0.110393
0.010794
0.00035301
-0.011147
-0.00745788
-0.133501
0.114571
-0.16182
0.00453819
-0.000459182
-0.174454
0.00593536
0.0591272
-0.0650628
0.000609681
0.0175444
0.204821
-0.00415027
-0.200665
-0.309541
-0.0590923
0.368642
0.0010385
0.0107119
-0.0117505
-0.0301763
-0.245868
0.265558
-0.140562
0.0322439
0.108317
0.15338
-0.00633966
-0.347989
0.117924
0.230073
-0.0299359
0.191788
-0.144721
0.245635
0.151597
0.283476
0.313545
0.133245
0.00911843
-0.0226174
0.0498591
-0.369883
0.134758
-0.127751
-0.00701388
0.111064
0.21014
-0.321214
0.102175
-0.0935887
-0.00859059
-0.254862
0.581536
0.156246
-0.00221379
-0.129381
-0.233195
0.168394
0.322845
-0.0832804
-0.239566
-0.298784
-0.0732489
0.0337875
-0.0345632
0.000776812
-0.0870654
-0.0286577
0.11572
-0.0156069
0.0387815
-0.0231747
0.262607
0.20038
-0.324672
0.268772
0.0558778
0.00342335
-0.27024
-0.088738
0.0151649
0.113352
-0.128519
-0.121353
0.0342793
-0.237579
-0.110403
0.0223706
0.112842
-0.25989
0.370947
-0.0197401
0.0526655
-0.0329263
-0.291038
0.0451642
0.00464491
0.192324
-0.000779235
-0.00061647
-0.07833
0.0969922
-0.0186634
-0.096762
0.403733
-0.307008
-0.222014
0.191999
0.0299975
0.000863463
-0.00665277
0.357793
-0.341589
0.4779
-0.121568
-0.356372
-0.00769195
0.00233535
-0.00160955
0.00123528
0.03054
-0.195917
-0.00469199
-0.0942026
0.0988978
0.546686
-0.278633
0.231245
-0.00572539
0.238793
-0.210126
-0.35614
-0.087212
-0.0914645
0.0160804
0.0753835
0.309031
-0.28978
-0.0192566
0.0142329
0.0589123
-0.0731448
0.20374
0.399488
-0.449597
0.0934358
-0.29758
0.193709
0.000739311
-0.108462
0.00668276
0.00120353
-0.00788646
-0.219259
-0.0774469
0.00287345
-0.23789
0.234996
-0.351753
-0.137289
0.196319
-0.183191
0.484405
-0.14597
0.0167824
0.134523
-0.119369
-0.585125
0.257152
0.00985741
0.0311063
0.113465
-0.0934139
0.0315537
0.00832158
-0.00212286
-0.0188558
-0.00646077
0.398381
-0.30794
-0.30212
0.0582689
-0.25712
0.339673
-0.0825795
-0.0105174
-0.17694
0.139309
0.000506888
0.00676576
-0.00727275
-0.00290026
-0.0064073
0.00930763
0.229808
-0.167895
0.00292959
0.00424302
-0.0113311
-0.143577
0.142265
0.00131103
-0.0990834
0.0943977
-0.110458
0.0875638
-0.00519599
-0.00636774
0.106281
-0.00410865
0.0309276
0.0514421
-0.0823708
0.00695056
-0.0024986
0.132712
0.00943331
-0.142142
0.170055
0.000346249
-0.0273461
0.0762721
-0.402097
-0.0135912
0.215343
-0.14343
0.0434212
-0.0374865
-0.124611
0.14084
-0.0162373
0.375714
-0.28325
0.119412
0.000370045
-0.0976721
0.112835
-0.00384862
0.00149486
-0.000541256
-0.000953681
0.213332
-0.000825355
-0.212526
-0.0421762
0.032137
0.0343023
0.130533
-0.164828
-0.0127198
0.0723057
-0.0595852
-0.0537496
-0.0459878
0.0997367
0.114076
-0.0835195
-0.157396
0.181405
-0.3707
0.204484
0.0256021
0.311105
-0.433245
0.122111
-0.0456019
0.20627
-0.507338
-0.0268268
0.183734
-0.372298
0.114459
0.257815
0.00398371
0.108773
-0.112761
-0.0099046
0.108945
0.0118915
0.00228743
-0.0141789
0.0783341
0.0278166
-0.106152
-0.0353503
-0.0578277
-0.0238141
-0.00504422
0.0698987
0.261882
-0.366224
0.104321
0.0013495
0.00383292
-0.0237925
0.0199595
0.327007
-0.395044
0.0680243
0.35412
-0.149128
-0.0122146
0.161337
0.00166855
0.00939024
0.329751
-0.593908
0.264156
0.123851
-0.00288224
-0.120971
0.0710441
-0.00582028
-0.0652254
0.116991
-0.148358
0.0313607
0.374507
-0.266525
-0.107994
-0.289138
0.233258
0.0558867
-0.181327
0.325499
-0.144174
-0.0746735
-0.0658894
-0.144153
0.100493
0.232902
0.0033874
-0.0300323
0.0194563
-0.0137806
-0.00567634
-0.117226
0.120869
-0.0919261
0.0099723
-0.0237114
0.156427
0.0909195
-0.0834546
-0.00746624
-0.211905
0.222071
-0.205079
0.151776
0.00562585
0.0256279
-0.0312537
-0.0640629
0.0863239
-0.0222616
-0.00295575
-0.00637467
0.0340268
-0.0364204
-0.593336
-0.418953
0.312177
0.106773
-0.145257
0.311131
0.348244
-0.0740926
-0.274165
0.117032
0.159668
-0.0564025
-0.0732686
0.129664
0.374266
-0.080385
-0.293914
0.00568906
0.0984799
-0.10417
-0.506153
0.444687
-0.166189
-0.301413
0.12336
-0.0168077
0.000190396
0.10567
-0.0561474
0.0870744
-0.356777
0.0772685
0.0319106
-0.176829
-0.242127
0.00625282
0.0271932
-0.0334462
0.27091
0.231674
-0.184153
0.136472
0.459162
-0.180666
0.0131679
0.0809062
-0.0940717
-0.000495513
0.0652182
-0.108639
0.277471
-0.0770893
-0.0516732
0.360218
-0.146558
-0.213683
0.147121
0.000776386
-0.0011286
0.2348
0.103817
-0.338628
0.193938
-0.275458
-0.135139
0.115414
0.168572
0.0153686
0.00306693
0.282175
0.115555
-0.175468
0.0599044
0.25225
-0.286439
0.12396
-0.504164
0.135631
-0.0153162
-0.0940198
-0.169809
-0.216462
-0.23883
0.455262
-0.162239
-0.0489958
-0.00164933
-0.00210807
-0.20047