/*--------------------------------*- C++ -*----------------------------------*\
| =========                 |                                                 |
| \\      /  F ield         | OpenFOAM: The Open Source CFD Toolbox           |
|  \\    /   O peration     | Version:  v2012                                 |
|   \\  /    A nd           | Website:  www.openfoam.com                      |
|    \\/     M anipulation  |                                                 |
\*---------------------------------------------------------------------------*/
FoamFile
{
    version     2.0;
    format      ascii;
    class       volScalarField;
    location    "600";
    object      nut;
}
// * * * * * * * * * * * * * * * * * * * * * * * * * * * * * * * * * * * * * //

dimensions      [0 2 -1 0 0 0 0];


internalField   nonuniform List<scalar> 
13851
(
0.000569606
0.00185828
0.00201944
0.00085649
0.0067224
0.00122178
0.00356531
0.00675327
0.0021088
0.00611123
0.000174442
0.00672759
0.00303692
0.000879371
0.0019035
0.000628449
0.00286032
0.00430969
0.000373702
0.000506176
0.00100059
0.000617789
0.00232406
0.00672544
0.00289396
0.000706029
0.000750208
0.000549671
0.00473932
0.0067351
0.011457
0.00393603
0.000543561
0.00062279
0.000291638
0.00535547
0.00672578
0.0117393
0.00763078
0.00279447
0.000740086
0.00482323
0.0002069
0.000234637
0.0040001
0.00550964
0.00673932
0.000627358
0.00130841
0.00283063
0.00245872
0.0028565
0.000700832
0.00342206
0.000851869
0.00269307
0.000518261
0.000767408
0.000697905
0.00105478
0.00672741
0.000763164
0.00672939
0.00113341
5.21511e-05
4.40198e-05
0.000837108
7.71976e-05
0.00256197
0.00337197
0.0102182
0.000685264
0.00375343
0.000967595
0.00490239
0.000915458
0.00432036
0.00672616
0.00215014
0.00673474
0.00245259
0.000651773
0.000291817
0.000932031
0.0010728
0.0104164
0.000635565
0.000975163
0.00568232
0.011777
0.00203065
0.00400767
0.000216346
0.0107296
0.00232677
0.000120183
0.00568559
0.000693244
0.00185179
0.000188807
0.000643757
0.000151658
0.000128215
0.00325232
0.00606898
0.000562348
0.00517417
0.0109682
0.00404855
0.0043892
0.000352676
0.00580665
0.000229565
0.000242211
0.000602699
0.00392746
0.00672477
0.00674308
0.000728319
0.00400162
0.000113035
0.00582463
0.00231748
0.00139046
0.000440426
5.03813e-05
0.00553912
0.000156464
0.000577396
0.000956705
0.000629374
0.000551733
0.0104213
0.000619419
0.000185434
0.00447524
8.73321e-05
0.0116212
0.000200873
0.00104127
0.000604263
0.00142107
0.00571732
5.67985e-05
0.00068719
0.00108235
0.00672483
0.0104688
0.00301737
0.000147801
0.000669929
0.000275899
0.000237125
0.000389696
0.00196729
0.00401933
0.00672625
0.00735407
0.00126116
0.00417836
0.00672495
0.00498647
0.000605272
0.000626219
0.00094418
0.00214275
0.00195591
0.00233543
0.000384624
0.000495685
0.00672736
0.00672409
0.000397267
0.00672231
0.00296461
0.000761054
0.000654275
0.00672416
0.0041066
0.00071076
0.000497835
0.000248123
0.000410169
0.00100006
0.000189533
0.00310633
0.000540082
0.000317251
0.0023812
0.00674082
0.00050561
0.00121825
0.000496291
0.00120168
0.00103315
0.000682694
0.000590115
0.00424461
0.00280511
8.49661e-05
0.00070879
0.000885229
0.00079362
0.00166628
6.31006e-05
0.000840768
0.000899962
0.00124636
0.00185592
0.000984281
0.000600668
0.00289199
0.000641379
0.00672526
0.000299216
0.000804627
0.00306105
0.000601122
0.00350211
3.27762e-05
0.00672335
0.000489436
0.000843205
0.00346017
0.000350424
0.00129185
0.00672562
6.41362e-05
0.00673308
0.000282947
0.0023357
0.000345084
0.00115054
0.00672749
0.000788529
0.00673565
0.00213801
0.000822175
0.000166144
0.00672521
0.00317072
0.00104963
0.00405029
0.000715701
0.00126141
4.92094e-05
0.000552304
0.00355537
0.000135531
0.00032825
0.000808566
0.000418457
0.0067388
0.00194154
0.0006747
0.0050053
0.00189189
0.00673948
5.12451e-05
0.00579034
0.000639776
0.000432834
0.00232164
0.000661949
0.000390961
0.00447995
0.000139833
0.000568148
0.000664286
0.00673069
0.00313411
0.000352609
0.000650725
0.000415632
0.000795168
0.00556095
0.000472688
0.000407475
0.000542915
0.000602332
0.000760542
0.00154999
0.0013982
0.00232863
0.0108832
0.00539041
0.00672578
0.000515144
0.000173449
0.00673836
0.00672515
0.00673367
0.00672357
0.00138746
0.00672613
0.0019723
0.000868438
0.00374305
0.00511449
0.00144178
0.00243371
0.000512192
0.00226995
0.00128263
0.0021682
0.000804644
0.000878952
0.0145527
0.000368462
0.00672148
0.000492175
0.00672749
0.000368253
0.00167339
0.000692322
0.00405127
0.00994831
0.00770094
0.0113314
0.00024944
0.000130638
0.00463054
0.00079605
0.000576875
0.00273057
0.00488805
6.92047e-05
3.03358e-05
3.02258e-05
0.00077322
0.000367264
0.000338164
0.00107316
0.000111053
0.00672256
0.0067271
0.000615188
0.0109739
3.05268e-05
0.00547207
0.00443188
0.000331787
0.000487072
0.0040764
0.000668083
0.000476836
0.000641022
0.000877652
0.00122443
0.00672698
0.00225119
0.000384382
0.00150117
0.000723124
0.000315192
0.00559074
0.00340514
0.000179676
0.000238332
0.000418785
0.00938409
0.00667589
0.000895211
0.000821974
0.00070377
0.00674763
0.000695444
0.000464084
0.00189154
0.000657254
0.000594632
0.000725371
0.010087
0.000205946
0.00114281
0.00202648
0.000753673
0.000759757
0.00101918
0.00121739
0.000813425
0.000791308
0.00242659
0.00131038
0.000387675
0.000518661
0.0038394
0.00142771
0.000160203
0.00411095
0.00516584
0.00085665
0.000705685
0.00375331
0.00130486
0.000861212
0.00138985
0.00188382
0.00126891
0.0143052
0.000983528
0.000699128
0.00010614
0.000427231
0.000610261
0.00138274
0.000971713
0.00132152
0.00459445
0.00021908
0.000659594
0.000595429
0.00564927
0.000214282
0.000709436
0.00760033
0.00124938
0.000343894
0.000767874
0.000489571
0.00673281
0.00284358
0.000764806
0.00189447
0.000299981
0.000404437
0.00401504
0.00672284
0.000646273
0.000768409
0.00553635
0.0019199
0.00113463
0.00672547
0.000717264
0.000366314
0.000423093
0.00424624
0.0019907
0.00246313
0.00939216
0.0036769
0.00246552
0.00190816
0.000708461
0.000643186
0.00076206
0.00672883
0.00672555
0.00134819
0.00040921
0.00129295
0.00468864
0.00206784
0.000116812
0.00268188
0.0159676
0.00672722
0.0061136
0.00379698
0.000224507
0.00671965
0.00672775
0.00486606
0.00431169
0.00100581
0.00343732
0.00101675
1.82067e-05
0.00136189
0.00673062
0.000605598
0.000741955
0.000211243
0.00345252
0.00103367
0.000224207
0.00041169
0.00298944
0.000564469
0.000197117
0.0035291
0.000593041
0.000763964
0.00738894
0.000805569
0.000238682
0.00454147
0.00474133
0.00154125
0.000550596
0.000744153
0.000917044
0.00021505
0.000384476
0.00672188
0.000885535
0.000588575
0.0143906
0.00128814
0.00295017
0.00748722
0.000406027
0.000383155
0.00672582
0.00249961
0.00636116
0.0058119
0.000306728
0.00233268
0.00237268
0.00142909
0.000103437
0.000389337
0.00572557
0.00609014
0.00633516
0.00057978
0.000794563
0.00673514
0.00351327
0.000710682
0.000687484
0.00673799
0.0134537
0.00355813
0.00677538
0.0108782
0.000387635
0.000476738
0.000905465
0.00148805
0.00149008
0.00678126
0.000284554
0.00259695
0.00527509
0.00400983
0.000806184
0.000555811
0.00128799
0.00602534
0.000874574
0.00057959
0.00634108
0.00679311
0.00522871
0.00510952
0.00246409
0.000495751
0.00597657
0.00673375
0.00089844
0.0102214
0.00052032
0.0119383
0.00238796
0.00589525
0.000692558
0.00672726
0.000229065
0.00606681
0.00550536
0.00102673
0.00374228
0.0017124
0.00136226
0.00258698
0.00398808
0.000307427
0.00468495
0.00142058
0.00253821
0.00473321
0.000125163
0.0123801
0.000755855
0.000884288
0.00115346
0.0051199
0.00266412
0.0028931
0.00760859
8.30413e-05
0.000584616
0.000713853
0.00605156
0.00204776
0.000695496
0.000368298
0.00672964
0.000711999
0.00130511
0.000378307
0.00106352
0.00308938
1.49353e-05
0.000114833
0.00387275
0.00379437
0.00672303
0.000460787
0.000385015
0.00672672
0.00233441
0.00672292
0.000713079
0.000798691
0.000589776
0.00331069
0.00508853
0.000196938
0.0048111
0.000519197
0.00446688
0.000565036
0.00672674
0.00676301
0.000348722
0.00207911
0.000219595
0.00219159
0.000230741
0.000692857
0.0067271
0.00155292
0.00672543
0.000568823
0.00303106
0.0027008
0.000356122
0.0043815
9.71182e-05
0.000269863
0.00118563
0.00618688
0.00633726
0.000337166
0.000946617
0.00151988
0.000357228
0.00675091
0.000264376
0.00450101
0.00593231
0.00314746
0.00226971
7.19473e-05
0.000705863
0.00672568
0.00672553
0.000623936
0.000982872
0.000558167
0.00206493
0.000349649
0.00268758
0.00472776
0.00069213
0.000337691
0.000204466
0.00672762
0.000599929
0.000144411
0.000741503
0.00136361
0.00107909
0.00011895
0.000459228
0.000588087
0.000782379
0.000686172
9.35366e-05
0.000137617
0.000400303
0.000692038
0.012085
0.000691192
0.00140854
0.000215755
0.00415637
0.000485788
0.00448239
0.00299891
0.000354448
0.000593947
0.0067345
0.00673343
0.000549781
0.001047
0.00608232
0.000850945
0.00672724
0.000664515
7.18256e-05
0.00202631
0.000211942
0.00102251
0.00213735
0.00176325
0.000184612
0.0002315
0.000765203
0.00225093
0.00275766
0.00051005
0.000675309
0.000693553
0.00172598
0.00404363
0.00672531
0.000915938
0.00496941
0.00443319
0.00672319
0.000700099
0.000860825
0.000202144
0.00589076
0.00195729
0.000632489
0.000441084
0.000375364
0.00672555
0.00338773
0.00672525
0.00676156
0.00672255
0.000334685
0.000265042
0.000130977
0.000579692
0.00111596
0.00199216
0.00672632
0.00112874
0.000300193
0.00672597
0.00672731
0.00245122
0.00113041
0.000721209
0.00103914
0.00129312
0.000523561
0.00677501
0.000625709
0.000740455
0.00231058
0.00069571
0.00672577
0.0014145
0.0060923
0.00149853
0.000963811
0.000629149
0.000740464
0.000719882
0.0065327
0.000321345
0.000500354
0.00525448
0.00672367
0.00541145
0.00672406
0.00271663
0.00127328
0.000615724
0.000567778
0.000152069
0.000478894
0.00672497
0.00672631
0.00030961
0.00206252
0.00672498
0.00604663
0.000687345
0.00672441
0.000208515
0.00137728
0.000713033
0.000165525
0.0100682
0.000195456
0.00672595
0.000199814
0.00672784
0.00158547
0.000698643
0.00708035
0.0089005
0.00514076
0.00230605
0.0026135
0.000112184
0.00116222
0.00573984
0.0023962
0.000644552
0.00128894
0.000473707
0.000567246
0.00433566
0.00673576
0.00540181
0.000477813
0.00254769
0.00672526
0.000568676
0.00025102
0.000853514
0.00199004
0.00672422
0.00066934
0.00147284
0.000899745
0.00672488
0.001636
0.00676611
0.00390265
0.00673189
0.000146075
0.00102139
9.94082e-05
0.00067818
0.00377142
0.00173674
0.0067232
0.000698133
0.00142457
0.00298069
0.00230735
0.000690196
0.000578008
0.000655932
0.00672255
0.00101041
0.00261524
0.00123855
0.000654913
0.00341325
0.00107326
0.00428232
0.000319591
0.00673064
0.00672326
0.000716562
0.000995475
0.00672802
0.00344097
0.000675819
8.35398e-05
0.000706544
0.00673783
0.00146191
0.0067315
0.0067239
0.0021136
0.00672229
0.0067255
0.000651006
0.000704029
0.00328821
0.00672292
0.000604802
0.00521415
0.00115413
0.000202031
0.00128934
0.0051378
0.00190679
0.000601453
0.00672993
0.000920048
7.93137e-05
0.00659169
0.00672429
0.00416976
0.00269101
0.000571198
0.000656051
0.000796607
0.00672944
0.000464406
0.00063539
0.00384163
0.00147549
0.000691555
0.000449794
0.00672505
0.00346623
0.00343476
0.00168843
0.000603254
0.00451364
0.0008701
4.86499e-05
0.0024643
0.000723092
0.000646111
0.00672308
0.000702811
0.00115164
0.00672235
0.00267255
0.00128553
0.00192279
0.000381085
0.0067323
0.000465803
0.000825137
0.0013256
0.000845184
0.000990361
0.000620917
0.000874888
0.0067264
0.000730208
0.000465909
0.000615074
3.83409e-05
0.00132023
0.000594764
0.000702109
0.000715963
0.00470189
0.0019011
0.000989512
0.00150958
0.00338412
0.00111581
0.00117023
0.00376331
0.00211931
0.00672548
0.00142262
0.0067287
0.000613227
0.000435548
0.000393894
0.000414334
0.00090775
0.00673659
0.0034985
0.000596125
0.00342395
0.000577996
0.000878187
0.000697118
0.00127972
0.000181092
0.000695163
0.00135067
0.0112821
0.00672222
0.000314061
0.00134123
0.00379035
0.000213779
0.00673121
0.00673183
0.000127012
0.003525
0.000630893
0.00212359
0.000617458
0.000580105
0.000491603
0.000267546
0.00379828
0.00614137
0.000476609
0.00672516
0.000551193
0.00151781
0.0108871
0.00109238
0.000135579
0.000681403
0.000738687
0.000119929
0.00289961
0.00374035
0.000703669
0.00461995
0.000464728
0.00672638
0.00679447
0.000429608
0.00394104
0.00127296
0.000212145
0.00672625
0.000677108
0.000717946
0.00588247
0.000781285
0.00341957
0.000652337
0.00175959
0.00402143
0.000329918
0.0067272
0.000838701
0.000514062
0.00610745
0.00605978
0.00567742
0.0014815
0.00153896
0.00953906
0.00179428
0.0017549
0.00483572
0.0047339
6.39956e-05
0.00673317
0.00644992
0.00679789
0.00672294
0.000935361
0.00211892
0.000553158
0.00112495
0.000817583
0.00175557
0.0108494
0.000348943
0.00373418
0.00219685
0.000595305
0.00679883
0.00675628
0.000281661
0.00157849
0.000687661
0.00672895
0.000304013
0.000679856
0.000442604
0.000565775
0.00677815
0.00673344
0.00394046
0.00794214
0.00606246
0.000586418
0.00109798
0.0067242
0.00584848
0.00602228
0.000800389
0.000687411
0.00625501
0.00250487
0.000332587
0.00673096
0.00276991
0.00434334
0.000383983
0.00169967
0.000293723
0.00536602
0.00456773
0.00934316
0.000937968
0.00168821
0.00167859
0.00121692
0.000261937
9.44574e-05
0.000356319
0.00200197
8.68884e-05
0.00455362
0.000693336
0.00855616
0.00672244
0.000804486
0.000173448
0.000723282
0.00128199
0.00672355
0.00602353
0.000999926
0.0045731
5.35623e-05
0.00672787
0.00279767
0.000957409
0.00424906
0.00180428
0.00159384
0.00672926
0.00710996
0.000246714
0.00543732
0.00400142
0.00673105
0.000830538
0.00070168
0.00201073
0.000801181
0.00140094
0.00672545
0.000828991
0.000537191
0.000693072
0.000975296
0.000681447
0.00105668
0.00123676
0.000114603
0.000404252
0.000380671
0.00548691
0.000228481
0.00152964
0.00185259
0.00677864
0.000683963
0.0019829
0.00151551
0.00538171
0.00608545
0.00462492
0.000779879
0.00133845
0.000354145
0.00145949
0.0048405
0.00671621
0.0058629
0.000758149
0.00672524
0.00263435
0.000974536
0.000687419
0.00120282
0.00672766
0.00673054
0.00401052
0.00672316
0.000236989
0.000817556
0.000273004
0.000697875
0.00673795
0.00539267
0.000580113
0.000597224
0.000882609
0.000683403
0.000127314
0.000802927
0.00672558
0.000135769
0.00126821
0.00673131
0.0044062
0.00583054
0.00288913
0.000385411
0.00781456
0.00416255
0.00403122
0.000487826
0.000656406
0.00672579
0.000614143
0.00482771
0.000804532
0.0067279
0.00321758
0.00130471
7.27514e-05
0.0025262
0.000736274
0.0111417
0.000808318
0.000623725
0.0041736
0.00513445
0.000725814
0.00673404
0.00944677
0.00205894
0.000150535
0.00221094
0.00524437
0.00672602
0.00524614
0.00189585
0.000403881
0.00061104
0.00275925
0.00672879
8.7522e-05
0.00675332
0.0126275
0.00672723
0.000841839
0.0047273
0.00144849
0.000518329
0.00672868
0.000648505
0.00672391
0.00370314
0.000125125
0.000671933
0.00114286
0.0067258
0.000577756
7.9085e-05
0.00060052
0.000516976
0.000242041
0.000259808
0.000841459
0.000671376
0.00114543
0.00561417
0.000716036
0.000853547
0.000949982
0.00672733
0.000706162
0.00672839
0.000780551
0.00673286
0.000112735
0.0112621
0.00673639
0.00117406
0.00123419
0.00672418
0.000692185
0.00672218
0.000161424
0.00448842
0.000622014
0.000714225
0.00672634
0.0067256
0.000142491
0.00672537
0.00672496
0.00606425
0.0010636
0.000607614
0.000113003
0.0029138
0.000282304
0.00597097
0.00673013
0.00672562
0.00673367
0.00501502
0.00655565
0.00097757
0.000779759
0.00672773
0.00672717
0.000581282
0.00672507
0.000762504
0.00284418
0.000610475
0.00053234
0.000117494
0.00550097
0.000182506
7.64648e-05
0.00285707
0.000239117
0.000654529
0.00598181
0.00564163
0.000984542
0.00123738
0.00416345
0.000176376
0.00672802
0.0013265
0.00064988
0.00239387
0.000256831
0.00440714
0.000126145
0.00182981
0.00203455
0.00672757
0.00253607
0.000116188
0.0035973
0.000349023
0.00800014
0.00269516
0.00571423
0.00159785
0.00139045
0.000755224
0.00672601
0.000235589
0.000409835
0.00237891
0.006754
0.0131524
0.000332168
0.000799005
0.000630492
0.000547853
0.00168209
0.00672786
0.00295632
0.0082142
0.000397039
0.000673674
0.000203825
0.00420971
0.00111118
0.00672904
0.000224377
0.000460662
0.00395462
0.000807197
0.00673157
0.00095859
0.00995299
0.00678677
0.000486486
0.00125595
0.00766138
0.000370906
0.000877089
0.000799829
0.00528845
0.000691652
0.000829568
0.00672924
0.00427533
7.92595e-05
0.00157064
0.00673166
0.000690605
0.00035005
0.000788026
0.0067258
0.0123113
0.00213035
0.000870802
0.0057633
0.000282237
0.000343229
0.000117511
0.00672461
0.00145988
0.000165317
0.000170924
0.000181393
0.00672809
0.00137044
0.00393166
0.000318129
0.00672778
0.000127053
0.009878
0.000188605
0.00228551
0.00148458
0.00197694
0.000581382
0.00495942
0.0081584
0.00672485
0.000753192
0.0040827
0.00111215
0.000256279
0.0014679
0.000204091
0.000208898
0.00066282
0.000842259
0.00672412
8.00494e-05
0.00248363
0.000374008
0.000568729
0.000671608
0.000377994
0.00673385
0.00149613
0.000125132
0.00293459
0.00212158
0.000973411
0.000914859
0.000221593
0.00445767
0.00428245
0.000579823
0.00332896
0.000333122
0.000708266
0.00673141
3.53287e-05
0.00675559
0.000455994
0.010928
0.00730619
0.000276674
0.00410333
0.00672878
0.000747993
0.00673138
0.000623723
0.000605081
0.00134824
0.000691112
0.00380724
0.00672205
0.000327185
0.000142552
0.00673543
0.00960658
0.00673169
0.000905089
0.00259654
0.00220531
0.000586815
0.000955438
0.00413162
0.000330033
0.00151314
0.0011003
0.000196776
0.00673607
0.00178138
0.00759836
0.00672321
0.000781155
0.000652547
0.000346731
0.000698091
0.00672344
0.00139621
0.000416083
0.000983258
0.00673387
0.00672423
0.000505255
0.00507331
0.0067231
0.00032009
0.000303655
0.000579524
0.000321387
0.000490601
0.000692054
0.00673075
5.021e-05
0.00672048
0.00113388
0.000556188
0.0065756
0.00531557
0.000197032
0.00672396
0.00367148
0.000443467
0.00566571
0.00436939
0.00115898
0.00672532
0.00672113
0.000401229
0.00673106
0.00666244
0.00082523
0.00672581
0.000840381
0.000702425
0.0113034
0.000607654
0.00679942
0.000761628
0.00039765
0.0067256
0.00372169
0.00673013
0.000983704
0.00672605
0.00068861
0.000571032
0.00675339
0.00675517
0.000706632
0.000613715
0.000780466
0.000128849
0.000190675
0.000991751
0.00212404
0.000120154
0.00313138
0.00171579
0.000128866
0.000245888
0.00177072
0.00174878
0.00309646
0.000692324
0.00154591
0.0023108
0.00372099
0.000391489
0.000225746
0.00676886
0.00448608
8.26743e-05
0.0067252
0.00215126
0.00673151
0.00672949
0.00368602
0.00388198
0.00405882
0.0067221
0.0105793
0.00672577
0.000106453
0.00199645
0.000548524
0.000112832
0.00347108
0.000699915
0.000749967
0.00672539
0.00146376
0.00643382
0.000326504
0.00442621
0.00618683
0.000877433
0.000574636
5.6798e-05
0.000701338
0.000441044
0.000685025
0.000546734
0.000178049
0.00384636
0.00234384
9.26302e-05
0.000310411
0.00386386
0.00674071
0.00381867
0.00260885
6.93466e-05
0.0130921
0.000348087
0.00242539
0.000691374
0.000936071
0.000698998
0.0103948
0.000520618
0.00672282
0.000183965
0.000320988
0.00123758
0.00673732
0.00672377
0.00754614
0.00672548
0.000480495
0.000610379
0.000558556
0.00463356
0.000170899
0.000772875
0.000715948
0.00671662
0.00474527
0.00672714
0.000523845
0.00267516
0.00359698
0.00075454
0.000603928
0.00528326
0.00672833
0.000677277
0.00498111
0.00105165
0.00361111
0.0125483
0.00568961
0.000755009
0.0067243
0.00246934
0.000626965
0.000355638
9.65753e-05
0.000439233
0.00430839
0.00672811
0.00593005
0.00672272
0.000635743
0.00674438
0.00137479
0.00672656
0.000691103
0.00672717
0.00156894
0.00675627
0.00020585
0.0014641
0.00675045
0.000188026
0.00497385
0.000691476
0.000647418
0.00148798
0.000277058
0.000940583
0.0008318
0.000310799
0.000641976
0.00520223
0.00187283
0.000385102
0.00349305
0.00245558
0.00449166
0.000590817
0.000475229
0.000325708
0.000359991
0.000761378
0.00676705
0.00674796
0.000192864
0.0108995
0.000314631
0.000232822
0.000709992
0.00672648
0.0115086
0.00225744
0.0143922
0.00672437
0.00574897
0.0103724
0.00131288
0.000104579
0.00165594
0.000570028
0.000612551
0.000241035
0.000558095
0.00403765
0.00718455
0.000479729
0.00672374
0.00148297
0.00672629
0.000450214
0.00100554
0.000482023
0.000308949
0.000255341
0.000732392
0.00159956
0.000492532
0.000693188
0.000765223
0.000412112
0.00170482
0.000576863
0.000359733
0.000125848
0.00672451
0.00036915
0.000110494
0.000215895
0.00429667
0.000298091
0.000784116
0.000187107
0.00127402
0.000698678
0.00104777
0.0001189
0.00800187
0.00248291
0.00135874
0.0145785
0.000673916
0.000991011
0.00138279
0.00672905
0.000117858
0.00477545
0.0051024
0.000250261
0.00158675
0.00672456
8.1753e-05
0.00042891
0.000734457
0.00247416
0.00623623
0.00673352
0.000552873
0.00672515
0.00139147
0.00127164
0.00178239
0.000534224
0.0055849
0.000771222
0.00242894
0.00146709
0.000650146
0.00672558
0.000714221
0.0019148
0.006721
3.81638e-05
0.000136111
0.000122288
0.00127521
0.000513358
0.00142488
7.59863e-05
0.0013885
0.00143616
0.00672431
0.00427866
0.00327888
0.000707497
0.00143641
0.00519413
0.00673234
0.000123053
0.00550888
0.000697979
0.000865092
0.000135331
0.00673201
0.000700224
0.0102805
0.00142354
0.00672551
0.000186948
2.94357e-05
0.010122
0.000727247
0.00148379
0.00203429
0.000191908
0.000713996
0.000717546
0.000923392
0.000764373
0.00672463
0.00571645
0.000230117
0.00672598
0.00267131
0.000210548
0.00672564
6.61318e-05
0.00566373
0.000801596
0.000706832
0.000693034
0.000896102
0.00157706
0.00271079
0.00672888
0.000769894
0.00674547
0.0065763
0.00672237
0.000115536
0.000637825
0.00455086
0.000433905
0.00518053
0.0012648
0.000242611
0.000972475
0.00672302
0.000955889
0.000799819
0.00672668
0.00672616
0.00161434
0.000650226
0.00401646
0.00673603
0.000688844
0.00132621
0.00409881
0.000619365
0.00672547
0.00138324
0.000125585
0.00369264
0.00202711
0.001739
0.000667935
0.00621813
0.00491121
0.00672539
0.00672603
0.00061687
0.00508901
0.000178584
0.000714231
0.00284506
0.00214223
0.00018396
0.000621002
0.000362221
0.000595474
0.0109235
0.00671517
0.0022649
0.00204168
0.000637629
0.00219917
0.00672691
0.00110218
0.000325601
0.00154334
0.00122493
0.00672379
0.000277324
0.00037073
0.00113564
0.00672578
0.000211252
0.00225345
0.000536793
0.00219439
0.000576066
0.000695705
0.000261619
0.000544304
0.00445924
0.000849302
0.000499746
5.23274e-05
0.000979755
0.00142221
0.00672373
0.000628267
7.43929e-05
0.00438592
0.00341289
0.00034935
0.000471334
0.00311814
0.000680274
0.00673041
0.00117606
0.0039383
0.000761139
0.00638133
0.000624957
0.000462552
0.000693309
0.0067482
0.000830079
0.00050224
0.000468286
0.00674898
0.000727424
0.00673628
0.00673355
0.00111281
0.000321735
0.000291869
0.00360751
0.00231687
0.00165289
0.00525942
0.000329202
0.00220615
0.000147928
0.00425244
0.0118687
0.000857453
0.00482539
0.00567979
0.00671688
0.000238573
0.00673447
0.0103899
0.000108551
0.00501214
0.00628282
0.000718006
0.000612809
0.00674936
0.000700163
0.000383412
0.000490413
0.00678437
0.000600615
0.00672885
0.000170691
0.00477079
0.000101128
0.000334663
0.00189397
0.000213087
0.000627103
0.000194041
0.000455374
0.00673438
0.00070825
0.000101623
0.000215679
0.000101288
0.00672503
0.00329346
0.000162073
0.000714552
0.000782406
0.00196714
0.00243937
0.00974426
0.00726489
0.000400938
0.000278704
0.00673004
0.00326193
0.0067264
0.00057489
0.000425102
0.00027621
0.00981894
0.00636161
0.00672499
0.00191073
0.000333744
0.00162196
0.00674323
0.000882736
0.00129961
0.0013636
0.00222531
0.00471574
0.000394926
0.000668418
0.000126678
0.000850901
0.000192813
0.00673042
0.000511049
0.000610077
0.000218985
0.00308439
0.00672273
0.000622376
0.0109765
0.00540628
0.00574928
0.000200437
0.000709258
0.00369428
0.00672773
0.00273254
0.00062813
6.33423e-05
0.000333053
0.00364915
0.00373086
0.000695575
0.000123457
0.000497985
0.00512201
0.00104019
0.0067313
0.000108021
0.00019607
0.00493538
0.00671744
0.0109391
0.000688486
0.0057161
0.00961263
0.0133361
0.000693422
0.00102244
0.00679094
0.000530588
0.00159493
0.000524585
0.00288423
0.000842113
0.00455586
0.00524655
0.00265548
0.000767202
0.000591486
0.00673401
0.000764311
0.000421267
0.000493944
0.00127134
0.00235162
0.000779638
0.00672273
0.00057485
0.000731826
0.000699774
0.00564564
0.000675405
0.00249591
0.0067317
0.000470825
0.000428617
0.000844495
0.00199921
0.00183419
0.000682097
0.000774367
0.0015352
0.000302554
0.00178957
0.0014429
0.000829501
0.00672793
2.86221e-05
0.000115235
0.00173236
0.000393251
0.00298344
0.00116754
0.000654226
0.000363027
0.00671735
0.000237372
0.00375096
0.00138564
0.000264128
0.00672476
0.00143043
0.00222169
0.00489821
0.000836146
0.000594251
0.000560426
0.00673249
0.00536092
0.000858315
0.00674422
0.00561653
0.00525468
0.00672583
0.00672802
0.00699824
0.00235772
0.00173535
0.00072742
0.000551118
0.000242733
0.000754956
0.00021323
0.00115761
0.000397822
0.00118805
0.00193424
0.00156301
0.000345403
0.00125318
0.000651931
0.00672263
0.00673251
0.000477262
0.000411099
0.00672389
0.000209861
0.00068874
0.000215371
0.00104766
0.00209714
0.0007199
0.00672587
0.000336554
0.000363692
0.000335017
0.00649347
0.000213722
0.000940117
0.00337224
0.000134961
0.000271165
0.00673135
0.00522979
0.000414971
0.0012493
0.0014498
0.000751874
0.000810521
0.000303681
0.000722969
0.000351326
0.00151866
0.000247493
0.00378315
0.000324688
0.00591073
0.013757
0.000695081
0.000522456
0.0007615
0.00358682
0.00426191
0.00423227
0.00971601
0.000366033
0.0159484
0.000242099
0.00673552
0.000427429
0.000587449
0.000151732
0.000667827
0.000333175
0.000409414
0.000993149
0.00672546
0.00443672
0.000502188
0.00139649
0.000106553
0.00419961
0.00321496
0.000495854
0.00398427
0.00304559
0.00673052
0.00036966
0.000478564
0.00177532
0.000499721
0.00050393
0.000266162
0.00323189
0.000156861
0.000807065
0.000626214
7.96776e-05
0.00342244
0.000108327
0.000142386
0.00620133
0.00066218
0.00899057
0.00471916
0.00360196
0.0041789
0.00129878
0.00471427
0.00131336
0.000124106
0.0015328
0.000436912
0.00160753
0.00028339
0.00535397
0.0006224
0.00672447
0.00155395
0.000302848
0.0117053
6.47282e-05
0.000698182
0.000644471
0.0064714
0.00097267
0.00399063
0.00177715
0.00608821
0.00157267
0.00112002
0.00672998
0.00672222
0.00371865
0.00276272
0.00673083
0.000747984
0.000906806
0.00040844
0.00425365
0.00149464
0.00672271
0.00461108
0.00171583
0.00672425
0.000744879
0.0104266
0.00156822
0.00293387
0.00194579
0.00295771
0.00673185
0.00100188
0.000341235
0.000604649
0.00673159
0.00080423
0.00673748
0.00223446
0.00078203
0.000140495
0.000795208
0.00257148
0.000786927
0.000802416
8.57592e-05
0.00316349
0.00145107
0.00327542
0.00672185
0.000811194
0.000277044
0.00674252
0.0119077
0.0051123
0.000652728
0.002629
0.00070132
0.00416039
0.0056676
0.00102818
0.000422688
0.000225763
0.00302563
0.000483101
0.0016853
0.00612498
0.00123539
0.00101005
0.00217251
0.000436831
0.00201943
0.00672513
0.000132992
0.000473832
0.000350683
0.00204609
0.000702886
0.000247979
0.000222028
0.000278502
0.00165746
0.0057455
0.000233864
0.00673371
0.000460137
0.000692679
0.00166272
0.00672717
0.000425225
0.00237052
0.00297558
0.000204191
0.00581888
0.000433873
0.000556919
0.000516468
0.000903026
0.0044049
0.00672651
0.00556829
0.00672752
0.0022161
0.000464333
0.0056324
0.000384511
3.25844e-05
0.000157759
0.00567669
0.00283879
5.63922e-05
0.000396903
0.00937921
0.00051537
0.00126313
0.00045182
0.00575738
0.000894167
0.000106812
0.000375218
7.99769e-05
0.000558495
0.000245019
0.00110261
0.00518616
0.00489554
0.00406201
0.000733083
0.00672131
0.000530359
0.000806226
0.000631364
0.00157683
0.00109721
0.000361629
0.00671932
0.00249835
0.00672607
0.00672521
0.00595563
0.00673213
0.000593697
0.00155321
0.000720319
0.000760671
0.00392777
0.00305492
0.000678693
0.00344923
0.000727088
0.000688748
0.00615132
0.000663673
0.00035681
0.00618277
0.00672708
0.000342377
7.06312e-05
0.000291309
0.00124795
0.000796813
0.0123581
0.000651774
0.00672453
0.00672452
0.00433928
0.00451727
0.00156565
8.23075e-05
0.000321682
0.0035946
0.000571964
0.00672629
0.000715356
0.00429664
0.00141564
5.34693e-05
0.000561605
0.00237049
0.00563645
0.000218645
0.000931934
0.000894483
0.000245759
0.000163087
0.000484278
0.00060732
0.00331319
0.00146291
0.00094534
0.00624571
0.000493574
0.00432216
0.00331141
0.000410267
0.000557098
0.00239266
0.00673324
0.000772938
0.00672846
0.0047964
0.00376142
0.00584093
0.00648044
0.00150147
0.00397959
0.00138413
0.00514747
0.00280584
0.000877297
0.000315184
0.00104234
0.00031897
0.00312739
0.00429856
9.12759e-05
0.0039706
0.000114719
0.00672542
0.000152724
0.000637515
0.000100277
0.0111464
0.000257023
0.000699229
0.00673439
0.0128275
0.00291323
0.000983885
0.00162711
0.000302102
0.00672401
0.000125711
0.00547186
0.000186466
0.00045618
0.000366411
7.77555e-05
0.00433178
0.00679207
0.00284894
0.000709037
0.00279689
0.000736126
0.00122639
0.000153584
0.00672565
0.000178382
0.00026642
0.000322269
0.00369079
0.00175583
0.00443176
0.00672868
0.00494581
0.00864353
0.00317672
0.00410219
0.00459416
0.0058902
0.000241104
7.25952e-05
0.00678904
0.000610233
0.00379806
0.000716304
0.00386791
0.00070886
0.00152266
8.234e-05
0.00278118
0.000523064
0.00626603
0.00620734
0.000721355
0.00571018
0.000187925
0.00113122
0.000693624
0.000129032
0.000414761
0.00505773
0.000159045
0.000635398
0.00593332
0.000616109
0.00525443
0.0065049
0.006724
0.00322449
0.00269931
0.000597588
0.000701381
0.00146305
6.08952e-05
0.000583014
0.000795007
0.00203345
0.0042529
0.010995
0.00163239
0.00228423
0.0116549
0.0020837
0.00832202
0.00059534
0.000714809
0.00335356
0.00322162
0.00838203
0.000518963
0.000158317
8.18262e-05
0.000364685
0.00567895
0.00676741
0.000646765
0.00672608
0.000882507
6.79262e-05
0.000146636
0.00671513
0.000622633
0.000150059
0.000937425
0.00672633
0.0067221
6.50348e-05
0.00366684
0.00414665
0.00180235
0.0115854
0.00188844
0.00016503
0.00672487
5.41868e-05
7.51914e-05
0.00252507
0.000536312
0.0067318
0.000676091
0.000568073
0.000443588
0.00600039
0.000310797
0.000384476
0.00672832
0.00189564
0.00675297
0.00218801
0.00672529
0.000696808
0.00673706
0.00123042
0.00038919
0.000490079
0.00168018
0.00648251
0.00927827
0.000249793
0.00338031
0.00111162
0.000222678
0.000333848
0.00158639
0.000288263
0.000692586
0.00240725
6.17317e-05
0.000218838
0.00366435
0.000756541
0.00673628
0.00161078
0.000136631
0.000706101
0.00671503
0.000687209
0.00867668
0.00672582
0.00114545
0.000579484
0.00180455
0.00672326
0.00295503