/*--------------------------------*- C++ -*----------------------------------*\
| =========                 |                                                 |
| \\      /  F ield         | OpenFOAM: The Open Source CFD Toolbox           |
|  \\    /   O peration     | Version:  v2012                                 |
|   \\  /    A nd           | Website:  www.openfoam.com                      |
|    \\/     M anipulation  |                                                 |
\*---------------------------------------------------------------------------*/
FoamFile
{
    version     2.0;
    format      ascii;
    class       surfaceVectorField;
    location    "250";
    object      ddtCorrDdt0(Uf);
}
// * * * * * * * * * * * * * * * * * * * * * * * * * * * * * * * * * * * * * //

dimensions      [0 1 -2 0 0 0 0];


internalField   nonuniform List<vector> 
20642
(
(-0.00286311 0.00183506 3.86606e-18)
(-0.00249838 0.00203841 -1.65689e-20)
(-0.00411838 0.00234788 1.74344e-18)
(0.00478397 0.0043869 2.82086e-19)
(0.00543836 0.00408177 1.99305e-20)
(0.00464377 0.00353665 7.52984e-20)
(-0.00185958 0.00433022 7.70922e-18)
(-0.00182985 0.00433858 -8.06633e-18)
(-0.00180858 0.00430005 -1.28318e-18)
(0.000569374 0.00162513 4.31519e-18)
(0.000547153 0.00166428 -2.45324e-18)
(0.000529394 0.00162094 -1.64509e-18)
(-0.00114312 0.00224344 2.08226e-19)
(-0.000898667 0.00185927 6.42278e-20)
(-0.00142983 0.00188935 1.24404e-19)
(0.00398623 0.0046799 3.52218e-20)
(0.00454111 0.00543968 -1.3887e-19)
(0.000817904 0.00252458 -4.41224e-19)
(0.000806477 0.00249013 4.95043e-18)
(0.000783439 0.00252001 7.79042e-20)
(0.0130582 -0.0109594 2.82007e-20)
(0.0168574 -0.0119095 2.66375e-19)
(0.0130354 -0.0147798 1.88105e-19)
(0.00161022 0.00238975 -5.59696e-18)
(0.00156078 0.00239463 4.37803e-18)
(0.00158871 0.00245057 -1.08496e-17)
(0.00102016 -0.00264783 7.92225e-19)
(0.00179023 -0.0028913 -1.68124e-18)
(0.00976719 -0.0105193 3.2162e-20)
(0.0124927 -0.00830883 1.16128e-19)
(1.34515e-05 0.00147529 1.50491e-18)
(1.5546e-05 0.0015133 2.29265e-18)
(4.97517e-05 0.00148026 2.17732e-18)
(-5.40529e-06 2.98657e-05 -3.59212e-18)
(2.23006e-05 2.52811e-05 3.19978e-18)
(-0.0942682 -0.100563 -2.39435e-18)
(-0.0942709 -0.0914003 -3.02772e-19)
(-0.0900558 -0.0831691 -9.25465e-19)
(-0.000742381 0.00487671 -7.90301e-21)
(-0.000518431 0.00512708 2.78504e-20)
(-0.000392408 0.00475176 -2.17297e-19)
(-0.00275461 0.00166464 6.75237e-18)
(-0.000391159 0.00142025 2.87524e-18)
(-0.000528952 -9.89426e-05 -1.2213e-20)
(-0.000567525 -0.000100831 -2.88002e-19)
(-0.000563491 -5.92494e-05 -5.39272e-19)
(0.00718523 -0.00989394 -3.89821e-20)
(0.00473658 -0.00889751 1.24397e-19)
(0.00717595 -0.00762404 1.77484e-19)
(-0.00189068 0.00377702 -1.45238e-18)
(-0.00195969 0.00387183 1.59579e-18)
(-0.00202328 0.00376131 7.60658e-18)
(0.0046579 0.00168052 -7.69774e-18)
(0.00261651 0.00235679 5.82394e-18)
(0.00133346 0.00232666 -8.48945e-18)
(-0.00138548 0.00192565 -5.808e-19)
(-0.00160345 0.00198424 9.32752e-20)
(-0.0015107 0.00172884 -1.75884e-18)
(-0.00217487 0.00192788 1.60451e-19)
(-0.00210643 0.00190566 9.28066e-20)
(-0.00214799 0.00199691 -2.54332e-20)
(0.000142647 0.00292425 3.78469e-18)
(0.000161117 0.00298327 -5.18075e-18)
(7.77698e-05 0.00294187 -8.25041e-19)
(-0.00225686 0.00194991 -3.56185e-19)
(-0.00220045 0.00185983 2.58537e-19)
(0.000227186 0.00205779 7.71031e-18)
(0.000241427 0.00208558 5.23768e-19)
(0.000205254 0.00207928 -2.85539e-18)
(-0.00190769 0.000913486 -5.32055e-19)
(-0.00176822 0.00120384 -6.80002e-19)
(-0.00153837 0.000938724 -6.01212e-20)
(0.0277422 0.0454922 -1.17449e-18)
(0.0256707 0.0394674 -9.34632e-21)
(0.0198937 0.0429838 6.1566e-19)
(0.00101206 -0.00182398 -3.33812e-18)
(-0.000777637 -0.00394438 1.68649e-19)
(-0.00131805 -0.00308416 2.89717e-19)
(-8.91573e-05 -0.00311664 -9.68415e-20)
(0.00238039 8.99424e-05 -1.23756e-20)
(0.00239112 0.000116658 -6.26643e-20)
(0.00234772 0.000105543 1.95162e-20)
(0.000616347 -0.00136295 -3.61891e-18)
(0.00112665 -0.00188758 8.16957e-18)
(-0.000283815 0.00416556 -3.45726e-18)
(-0.000312094 0.00426081 6.60768e-18)
(-0.000387973 0.00415553 1.89419e-18)
(0.00024911 0.0017754 -4.52157e-18)
(0.000226361 0.00174605 -2.40284e-19)
(0.000263865 0.00174125 -4.84056e-18)
(-0.00547673 0.00176783 2.62293e-18)
(-0.00515453 0.00194958 -2.51164e-18)
(-0.00497085 0.00146636 7.16956e-18)
(-0.00341095 -0.000741521 -2.85549e-20)
(-0.00337255 -0.000798321 -1.78575e-20)
(-0.00350218 -0.000807283 -6.34314e-20)
(0.0205209 -0.0102043 -1.28852e-19)
(0.0207105 -0.0148554 7.41291e-19)
(-0.000210853 0.00218 7.05896e-20)
(-0.000211001 0.00216307 -1.06605e-18)
(-0.000195522 0.00217369 3.4858e-19)
(-0.00121721 2.51552e-05 -7.69891e-20)
(-0.00160264 2.96593e-05 -7.88812e-20)
(-0.00113391 1.91012e-05 6.61786e-19)
(0.000825439 0.00255896 -1.78041e-18)
(0.000851821 0.00252583 -5.09777e-18)
(-0.000575471 0.00394185 3.78029e-19)
(-0.000470761 0.00414642 1.82513e-19)
(-0.000343501 0.00392986 -2.9314e-18)
(0.000432873 -3.30957e-05 -5.53133e-20)
(0.000378851 -2.31649e-05 5.56801e-19)
(0.000646977 -2.96404e-05 -2.56128e-19)
(-0.00264281 -0.00289069 2.46466e-20)
(-0.00305012 -0.00307745 -1.65003e-20)
(-0.00301656 -0.00266866 2.56833e-19)
(0.00155124 0.00205287 3.3512e-18)
(0.00148721 0.00205017 -7.07267e-18)
(0.00153115 0.00199704 -9.35175e-21)
(-0.00149607 0.004195 2.28937e-18)
(-0.00145095 0.00425508 -7.64787e-18)
(-0.00154259 0.00425642 -4.51186e-18)
(-0.00144155 0.00411897 1.23518e-18)
(-0.0015485 0.00411643 1.21291e-18)
(-0.00380347 -0.00868312 -3.05118e-18)
(-0.00381201 -0.00744499 -5.71792e-19)
(-0.00489949 -0.00835036 -2.7656e-18)
(-0.00115041 0.00191561 2.17036e-20)
(-0.00121659 0.00209896 -1.13048e-18)
(0.0228684 0.00300546 -1.49893e-18)
(0.02723 0.00516458 -9.98992e-19)
(0.029443 0.00638514 3.12816e-19)
(0.0292697 0.0482728 -6.09269e-19)
(0.0358634 0.04961 -9.79799e-19)
(0.0330462 0.0416455 -1.42348e-18)
(-0.00338318 -0.000686243 4.49717e-20)
(-0.00346989 -0.000700826 -4.02013e-20)
(-2.16502e-05 0.00147629 -1.78456e-20)
(7.76463e-06 0.00144253 -1.74221e-18)
(-0.00203349 -0.00104135 9.39511e-18)
(-0.00212552 -0.00156557 1.71368e-18)
(-0.00157615 -0.00132845 -1.09266e-19)
(-0.00105309 0.000506446 7.30377e-19)
(-0.00149885 0.000700155 -3.4324e-18)
(-0.000847568 0.000481727 -4.98737e-19)
(-0.000630834 0.00172693 6.70623e-20)
(-0.000643976 0.00168221 3.89601e-19)
(-0.000680444 0.00172916 -3.48137e-19)
(-0.000519754 0.00176129 7.06548e-19)
(-0.000536152 0.00172359 9.01766e-19)
(-0.000489474 0.0017122 -7.07342e-19)
(-0.00202935 -0.000669969 4.84644e-19)
(-0.0024325 -0.000834072 2.61447e-18)
(0.00195327 -0.00043643 -4.79295e-18)
(0.000111432 0.00285978 6.50859e-18)
(0.000200049 0.0028752 -1.05845e-18)
(-0.00230185 -0.00267555 -2.34041e-19)
(-0.00226701 -0.00301875 -1.52119e-19)
(-0.0039418 -0.010352 1.02743e-17)
(-0.00239293 -0.00919669 -2.79565e-18)
(-0.0049951 0.0162445 -8.78493e-19)
(-0.000620661 0.0197074 2.71085e-18)
(0.00803403 0.0227905 4.80915e-18)
(-0.0100781 0.0071987 1.83853e-19)
(-0.00824962 0.00838585 -1.22295e-19)
(-0.00828153 0.00578041 1.11055e-19)
(0.00112682 9.33192e-06 4.53991e-19)
(0.00119191 2.25947e-05 9.82534e-21)
(0.00133795 2.84179e-05 3.08523e-20)
(0.000251526 0.0020313 8.09709e-18)
(0.000215614 0.00202914 1.25598e-18)
(0.000203948 0.008515 -4.19316e-19)
(-0.00026849 0.00932596 1.32102e-18)
(-0.000245631 0.00912799 5.56391e-18)
(0.00381993 -0.000669844 -1.10823e-19)
(0.00347727 -0.000545314 -5.13558e-20)
(0.003447 -0.000625308 5.54641e-20)
(-0.000140213 -0.00492685 -4.00049e-19)
(0.00081881 -0.00584476 -3.09599e-19)
(0.00132045 -0.00459402 -9.89781e-20)
(0.0196851 -0.00617962 1.60713e-19)
(0.0231576 -0.00744676 4.48205e-20)
(0.00676632 -0.0127343 -6.40443e-20)
(-0.00483141 0.000841275 -3.17755e-18)
(-0.00448248 0.000992063 1.30403e-19)
(-0.00423496 0.00086241 1.79254e-18)
(0.000263604 0.00572429 3.16491e-18)
(-0.00015084 0.00618555 1.36842e-18)
(0.000795515 0.00628645 -8.11526e-18)
(-0.00577194 0.00186558 -1.36393e-18)
(-0.00562959 0.00157136 1.46641e-18)
(0.00067953 0.00102378 1.34816e-18)
(0.000698988 0.00105128 -1.40335e-18)
(0.000657331 0.00105638 2.90696e-18)
(-0.00202702 -0.0025225 -1.62908e-19)
(-0.00230788 -0.00240792 -3.17723e-20)
(-0.00186846 0.00208426 1.07126e-18)
(-0.0016627 0.00223275 -1.52591e-18)
(-3.10196e-06 0.0021463 4.7875e-18)
(4.65769e-06 0.00217461 -2.29916e-18)
(-2.97244e-05 0.00215764 -1.93892e-18)
(-0.00248914 0.00248215 2.71716e-19)
(-0.00248962 0.00243127 2.19185e-19)
(-0.00255193 0.00246651 -8.30951e-20)
(-0.00183653 -0.00234135 3.81879e-20)
(-0.00175119 -0.00255485 -7.80454e-20)
(2.62749e-05 0.0021267 -8.13802e-19)
(-1.11841e-05 0.0021189 1.44918e-18)
(0.000238443 0.00179579 3.55956e-19)
(0.000270105 0.00179378 -1.74427e-18)
(-0.00106574 0.00236892 2.0507e-19)
(-0.00113985 0.0023686 -6.76965e-19)
(-0.00108923 0.00229288 1.32678e-18)
(-0.000900543 -9.73131e-05 -1.35526e-19)
(-0.000859129 -9.7272e-05 -1.38664e-20)
(-0.000883454 -5.72151e-05 -7.98852e-20)
(0.000703747 0.000987926 1.12598e-18)
(0.000655579 0.000990156 -2.20548e-18)
(-0.00175655 0.00189918 -8.70592e-18)
(-0.0011787 0.00237208 -2.0293e-18)
(-0.00166354 0.00213066 -2.93534e-18)
(-0.000740989 0.000308505 -3.83632e-19)
(-0.000735576 0.000348927 -3.17123e-19)
(-0.000781486 0.000331985 -3.5173e-19)
(-0.0173474 -0.023065 -3.55412e-19)
(-0.0237276 -0.0228423 -9.72005e-19)
(-0.019091 -0.0285179 -1.2372e-19)
(-0.000170476 0.00416907 -1.23546e-18)
(-0.000251229 0.00408441 -1.31316e-18)
(-0.000768551 0.000163819 -8.10881e-19)
(-0.00081098 0.000163414 -6.59341e-19)
(-0.000786761 0.000116344 5.30077e-20)
(-0.000604808 0.0037006 5.63917e-18)
(-0.000786148 0.00387113 1.69895e-18)
(-0.000493393 -9.38743e-05 2.59927e-20)
(-0.000484805 -0.000137879 2.368e-19)
(-0.000284928 -0.00021139 5.6816e-20)
(-0.000246574 -0.000198356 7.60692e-20)
(-0.000247058 -0.000240523 2.22051e-19)
(0.0015593 0.00211289 4.90053e-18)
(0.0239227 0.0475027 2.4937e-18)
(0.0421449 0.0488377 -7.11e-19)
(-0.00287207 -0.00102701 -2.98875e-19)
(-0.00288131 -0.00112267 2.04028e-19)
(-0.00278479 -0.00105993 -5.95696e-21)
(-0.000551311 0.00206547 4.77596e-19)
(-0.000595942 0.00207348 6.76804e-19)
(-0.00057253 0.00211499 1.51422e-18)
(-0.00159591 -0.00493552 9.50458e-20)
(-0.00945997 0.0469782 1.42913e-18)
(-0.00537433 0.0412371 -2.44517e-18)
(-0.0132619 0.042854 -5.91432e-19)
(-0.00157635 -4.7512e-05 -3.4157e-19)
(-0.00160214 -4.4836e-05 7.89915e-19)
(-0.00151313 -2.07431e-05 -9.74945e-20)
(-0.000749513 0.000196951 -1.80344e-19)
(-0.000737309 0.000157139 -4.54216e-19)
(0.000283909 0.0214978 -6.97253e-19)
(-0.00133426 0.0188479 3.40813e-19)
(-0.00286357 0.0212123 -2.13973e-19)
(0.00104819 -5.29076e-06 -5.55249e-19)
(0.0010373 -1.1472e-05 -7.52141e-20)
(0.00079266 -8.5177e-07 -2.37809e-20)
(0.00107613 -4.74511e-06 1.95169e-19)
(0.00118868 -3.16286e-05 -8.24861e-20)
(-0.00103734 0.0024302 4.90398e-19)
(-0.000999243 0.00235286 5.06121e-19)
(-0.00167734 -7.41488e-05 -6.93488e-20)
(-0.00170417 -6.50005e-05 3.25928e-19)
(-0.00170262 -4.59705e-05 2.65455e-19)
(-0.00252277 0.00254198 -1.40916e-20)
(-0.00246556 0.00258207 -2.3725e-20)
(-0.00359636 0.00793165 1.53706e-18)
(-0.00387771 0.00779124 4.6227e-18)
(-0.00335166 0.00825339 3.87181e-18)
(0.00417303 0.00700664 -2.49983e-19)
(0.0034948 0.00655047 1.03514e-17)
(0.00505251 0.0058963 -2.34242e-19)
(-0.0122691 0.00525469 -2.96483e-18)
(-0.0147811 0.00871593 -1.67738e-20)
(-0.00304393 -0.00365159 -3.03485e-19)
(-0.00354991 -0.00333866 2.22635e-19)
(0.0318445 0.0508563 -1.01405e-18)
(0.0366072 0.0470009 -6.46402e-19)
(0.000284051 8.01405e-05 5.30861e-19)
(0.000294656 9.82396e-05 2.59931e-19)
(-0.00469916 0.00219028 1.96839e-18)
(-0.00524221 0.0024505 -1.83262e-18)
(-0.00163878 -0.00225939 1.1487e-19)
(-0.0024048 -0.00289865 -6.08078e-19)
(0.000638798 0.00782944 4.04736e-18)
(0.000728412 0.00792725 3.57989e-18)
(-0.000112698 0.00219672 -1.22311e-18)
(-0.000103666 0.0022244 8.01585e-19)
(-8.57815e-05 0.00218862 -3.39089e-18)
(-0.00181067 0.00366292 -2.31485e-18)
(-0.00175841 0.00378522 -3.07381e-18)
(0.00043978 -0.000139121 1.09447e-19)
(0.000454906 -0.000178816 2.66589e-20)
(0.000404122 -0.000154289 -3.45515e-20)
(-0.00183048 0.004455 1.87327e-18)
(-0.00181165 0.00442295 8.52102e-18)
(-0.00182575 0.00442425 1.06947e-17)
(0.000759067 0.000754425 -9.90893e-19)
(0.000746641 0.000791388 3.80713e-19)
(0.000721067 0.000751641 -9.74272e-19)
(-0.00089255 -0.000132268 1.47529e-19)
(-0.000948213 -9.08331e-05 6.5461e-20)
(-0.00191636 -0.00199318 -5.61145e-21)
(-0.0019111 -0.00186011 -2.86274e-19)
(-0.00175912 -0.00191498 -2.57148e-20)
(0.00184768 -0.00679715 -1.62459e-19)
(1.43712e-05 -0.00732469 -5.64854e-20)
(-0.00192057 0.00229907 6.76487e-18)
(-0.00191021 0.00209507 -7.88188e-18)
(-0.00173358 0.00223114 -1.01587e-17)
(-0.000812095 0.000736938 -5.06893e-19)
(-0.000642835 0.000610437 7.60571e-18)
(-0.001032 0.000679595 5.35066e-19)
(-0.0012303 0.00165836 2.58165e-18)
(-0.00201804 0.00135307 -3.81161e-18)
(0.000272778 0.00200576 3.57368e-18)
(0.000293438 0.00197993 1.73362e-18)
(0.00026147 0.00197779 -4.13109e-19)
(-0.00207523 0.00186535 7.02506e-19)
(-0.00213117 0.00221341 1.31284e-18)
(-0.00314171 0.000264513 -1.30562e-19)
(-0.00312456 0.00018947 -4.44602e-22)
(-0.00305127 0.000246037 2.11104e-19)
(-0.00185258 0.002472 2.19866e-18)
(-0.00207433 0.00236635 1.15239e-17)
(0.0010997 0.00317738 7.487e-18)
(0.00104043 0.00318234 3.26604e-18)
(0.00108533 0.00323011 4.52412e-18)
(0.015671 -0.00395541 1.20321e-18)
(0.0138086 -0.00376546 5.07635e-19)
(0.0149549 -0.00583994 6.59765e-19)
(-0.00367325 0.0076383 3.41242e-18)
(-0.00376289 0.00748588 -2.05803e-18)
(-0.00336518 0.00680303 8.19153e-18)
(-0.000142082 0.00220706 -8.96312e-19)
(-0.000124599 0.00217338 1.14651e-18)
(-0.000677705 0.00427818 1.08857e-18)
(-0.000773582 0.00423083 6.50223e-18)
(-0.000773654 0.0043533 6.29092e-18)
(0.0394188 0.0565407 1.60114e-18)
(0.0261852 0.0543147 7.01875e-19)
(-0.0180275 0.0173873 3.34304e-18)
(-0.0148393 0.0127786 8.16701e-19)
(-0.0231522 0.00774954 4.54909e-18)
(-0.00280161 0.0018786 -1.02251e-19)
(-0.00335726 0.0019271 3.62039e-18)
(-0.003809 0.00241956 8.07792e-18)
(-0.00209899 6.53287e-05 1.83885e-20)
(-0.00201492 0.000532674 -1.27596e-19)
(-0.00162771 0.000136896 1.05271e-20)
(-0.00123806 1.76379e-05 -8.45446e-19)
(-0.028058 -0.00321985 1.19695e-18)
(-0.0333388 -0.00482365 3.01073e-20)
(-0.0267796 0.00887505 8.26498e-19)
(-0.00190321 -0.00216164 5.71306e-20)
(-0.00168651 -0.002203 1.19302e-19)
(-0.00328859 0.0080777 1.13916e-18)
(-0.00338965 0.00771957 5.34184e-18)
(-0.00170448 0.00115451 7.66183e-19)
(-0.00172712 0.00110866 2.8061e-19)
(-0.00176383 0.00116561 4.7165e-19)
(0.00056315 0.000971054 -7.33837e-19)
(0.000584534 0.00100313 -1.97817e-18)
(0.000543775 0.00101026 -9.27051e-19)
(-0.00521775 -0.0103873 -2.00872e-19)
(-0.00289451 -0.0101181 -4.36666e-19)
(-0.00384957 -0.00843806 1.11214e-19)
(-9.90052e-06 0.0052207 4.15905e-18)
(0.000717984 0.00531439 -3.68821e-18)
(0.00720938 -0.00446096 -7.09534e-19)
(0.0245568 0.00435549 -3.46306e-18)
(0.0234923 0.00441897 -3.37422e-18)
(0.0214425 0.00137636 -5.92821e-18)
(-0.000581199 0.00172702 -6.79166e-19)
(-0.000616478 0.00177599 -3.43123e-18)
(-0.000616658 0.00352914 1.16497e-18)
(-0.000621728 0.00336279 -4.15295e-18)
(-0.000775477 0.00344101 -3.82294e-18)
(0.00111024 -5.2925e-06 -2.46267e-19)
(0.00114533 -5.14653e-06 -5.2613e-19)
(0.00130082 -4.99048e-06 -2.01575e-20)
(0.000541469 0.000941606 1.12829e-20)
(0.000578872 0.000932246 6.50663e-19)
(-0.00257453 0.0501241 2.25676e-19)
(-0.0111934 0.0527967 1.21295e-18)
(-0.00299968 0.00230189 -1.83607e-20)
(-0.00299809 0.00241903 -1.03823e-19)
(-0.00310326 0.00238989 2.40651e-20)
(-0.00165269 -8.56807e-05 3.46957e-20)
(-0.0016596 -0.000100201 -1.58298e-19)
(-0.00444287 0.00846923 1.31723e-18)
(-0.00480439 0.00879303 -8.06345e-18)
(-0.00483048 0.00818889 4.07194e-18)
(0.000529012 -7.18473e-05 -6.07438e-20)
(0.000564053 -6.94716e-05 5.08476e-20)
(0.000404235 -3.67644e-05 4.09748e-20)
(0.000466727 -0.000121184 2.79569e-19)
(0.000401386 -0.000101808 4.28659e-19)
(-0.00106519 0.000717338 -4.08221e-19)
(-0.00106539 0.000762185 1.14921e-18)
(-0.00111341 0.000741799 -2.07316e-19)
(0.00201718 0.0101539 1.87511e-18)
(0.00156574 0.0105695 3.08612e-18)
(0.00321823 0.0105923 2.74855e-18)
(0.000212782 0.0023016 3.76666e-19)
(0.000102832 0.00226379 8.66723e-19)
(0.000135281 0.00237981 9.52497e-19)
(-0.0261856 -0.0148167 7.34242e-21)
(0.00244159 0.0160272 -4.42167e-18)
(0.0042733 0.0152003 -6.05682e-18)
(0.00213256 0.0140885 -1.08404e-17)
(-0.000126224 0.0295281 1.12265e-18)
(0.00129529 0.0264109 -5.45084e-20)
(-0.00269543 0.0266998 -3.24223e-19)
(-0.00113086 0.000576096 8.4351e-18)
(0.0362858 0.0198184 2.71893e-18)
(0.028294 0.0203389 5.21555e-18)
(0.0352396 0.0217013 1.26952e-18)
(0.00169602 3.20626e-05 -8.74919e-21)
(0.00170682 3.29471e-05 1.04283e-20)
(0.00169876 3.93674e-05 -1.26856e-21)
(-0.00211852 -0.000489769 -1.66139e-19)
(-0.00256053 -2.79423e-05 6.20858e-19)
(-0.00232635 0.00200168 -4.77147e-19)
(-0.00238455 0.00204479 -1.20721e-19)
(-0.00229229 0.00206014 -3.77536e-20)
(-0.00131415 0.000991853 -1.33212e-18)
(-0.00149526 0.00188713 6.77214e-19)
(-0.00157697 0.00128772 3.60439e-18)
(0.00163941 0.00233677 -9.11626e-19)
(-0.0219748 0.00713293 9.18553e-19)
(-0.0152363 0.0127471 3.66102e-19)
(-0.0225539 0.00726319 5.38166e-18)
(0.00162471 0.000949097 4.58987e-18)
(0.00138658 0.00108969 1.57793e-18)
(0.00141765 0.00071527 1.70101e-18)
(0.000920214 -3.50231e-05 -7.21964e-20)
(0.00102101 -5.46165e-05 1.50973e-19)
(0.000872467 -3.24259e-05 -3.53893e-20)
(0.000604921 0.00163743 3.81753e-19)
(0.000592092 0.00159668 -8.30877e-19)
(-0.00223762 -0.00211258 -6.03798e-19)
(-0.00245493 -0.00278393 -9.75915e-19)
(-0.00172696 -0.00249216 -6.6085e-19)
(0.00116365 0.00315411 -1.03336e-17)
(0.00111269 0.00311173 -3.15399e-18)
(0.000267785 0.00218032 -3.94027e-19)
(0.00032688 0.0023375 -4.76261e-19)
(0.00143932 0.00204427 -6.37366e-18)
(0.0014193 0.00199118 7.00594e-18)
(0.00137555 0.00204108 -3.05844e-18)
(-0.00234879 0.00194608 -2.75276e-20)
(-5.07645e-05 0.0014749 -1.14376e-18)
(-4.6394e-05 0.00150775 6.13229e-19)
(-0.00599156 0.000284041 -5.81713e-18)
(-0.00566209 0.000615248 2.00276e-18)
(-0.00623135 0.000784271 -2.34591e-18)
(-0.00185556 0.00450054 -3.37093e-18)
(-0.0018166 0.00449943 -4.30689e-19)
(0.0167766 -0.00195022 -2.39745e-19)
(0.018687 -0.00418493 -4.33795e-19)
(-5.98902e-05 0.00144108 -5.2558e-18)
(-8.66697e-05 0.00147438 -3.77893e-19)
(-0.00660606 -0.000154708 -2.75386e-18)
(-0.0058156 -0.000347379 7.09925e-19)
(0.00240951 7.29625e-05 -1.46959e-19)
(0.00235755 6.32523e-05 -6.27799e-20)
(-0.0114438 -0.0215089 2.21263e-19)
(-0.0163489 -0.0176088 6.63375e-19)
(0.00194205 0.00113518 6.68712e-19)
(0.00194886 0.000722362 -5.338e-19)
(-0.00139067 0.0040489 2.86599e-19)
(-0.00133693 0.00412454 2.65001e-19)
(-0.00433349 0.00121966 -6.431e-18)
(-0.00396914 0.00142262 -3.80337e-18)
(-0.00397313 0.00101476 -3.12997e-18)
(-0.00214678 0.00219024 7.10866e-19)
(-0.00298127 0.00267937 -1.03945e-18)
(-0.00142713 0.00224293 1.85609e-18)
(-0.00295542 -0.00100904 -2.70307e-19)
(-0.00287297 -0.000956411 4.47401e-19)
(-0.00154563 0.00057781 -1.39164e-18)
(-0.00109252 0.00042072 1.23212e-17)
(-0.00125906 0.000607695 -2.17211e-18)
(0.000294189 0.00246707 1.21667e-18)
(0.000267071 0.0024961 -1.08111e-18)
(0.000260222 0.00245585 -1.14228e-18)
(-0.00394561 0.00776053 -7.85757e-19)
(-0.00428485 0.00841693 4.88908e-18)
(-0.00334674 -0.000871817 -3.74907e-20)
(-0.00324777 -0.000794912 -2.59592e-19)
(-0.00299467 0.0021883 -3.75378e-20)
(-0.00289963 0.0022249 -1.18702e-19)
(-0.000875078 0.00204537 -5.15339e-20)
(-0.000895302 0.0021919 -9.75838e-19)
(-0.000784056 0.00213253 -2.31018e-18)
(-0.00450333 0.0011555 -5.06318e-19)
(-0.00454538 0.00109479 -1.64542e-18)
(-0.00517633 0.00115331 -3.04244e-18)
(-0.00234753 0.0017074 -3.79887e-18)
(-0.00166489 0.0013053 9.47654e-18)
(-0.000283256 0.0023011 -1.3332e-20)
(-0.00024893 0.00230462 -5.87599e-19)
(-0.00027456 0.00235096 -5.97963e-19)
(0.0350709 0.0303379 7.72763e-19)
(0.0320909 0.0264799 4.19414e-19)
(0.0386869 0.0254398 9.1357e-19)
(0.00116823 -5.79352e-05 -2.19193e-19)
(0.00162131 0.000316253 -5.18908e-20)
(0.00115057 0.000501491 1.23917e-19)
(-0.000440431 0.00357204 3.29446e-18)
(-0.00208776 -0.00208526 -8.57285e-20)
(-0.00270996 -0.00170713 -1.13534e-18)
(-0.00121691 0.002361 3.18308e-19)
(-0.00120113 0.00243799 -9.5174e-19)
(-0.00251223 4.21896e-05 -9.34034e-20)
(-0.0024538 3.40416e-05 -3.43968e-19)
(-0.00249926 -3.10771e-06 -2.15866e-19)
(0.00197739 0.00105916 1.70549e-19)
(0.00164563 0.00186876 2.09117e-19)
(0.000967713 0.00109696 3.00892e-19)
(0.00298283 0.000850802 1.98615e-22)
(0.00203393 -0.000164975 -1.53885e-19)
(0.0232661 0.00710197 -2.42602e-18)
(-0.000587137 0.00423378 -9.11253e-18)
(-0.00060398 0.00432702 -7.55776e-18)
(-0.00229438 0.000935683 -8.20108e-19)
(0.000998945 0.0109267 -7.95949e-19)
(0.00145428 0.0110754 1.35989e-18)
(0.000964759 0.0114528 -1.17672e-18)
(-0.00147567 5.94279e-05 -1.20671e-19)
(-0.00139601 2.82046e-05 1.22025e-19)
(-0.00144536 8.80956e-05 7.89482e-19)
(-0.000369729 -0.00118892 3.54623e-20)
(-0.000416924 -0.00121442 1.38363e-20)
(-0.000397961 -0.00114824 9.66513e-21)
(-0.000342157 -0.00122747 -2.06864e-19)
(-0.000325466 -0.00116273 2.12613e-19)
(0.0364499 0.0177038 -1.35426e-18)
(-0.00515498 0.000751627 9.43703e-18)
(-0.00468113 0.00102554 7.80241e-20)
(-0.00475688 0.000495875 8.14945e-18)
(-0.00711742 -0.000561146 -1.0126e-18)
(-0.00779157 -0.00105124 -1.31788e-18)
(-0.00686967 -0.00133485 1.40862e-18)
(7.23525e-05 0.000267924 1.37198e-18)
(7.75146e-05 0.000299786 1.21029e-19)
(0.00010545 0.000271569 2.58636e-18)
(0.00106872 8.68938e-06 -2.54276e-20)
(0.000800604 2.19052e-06 2.72444e-21)
(0.0537691 0.05592 -1.01899e-18)
(0.052318 0.0583819 8.83211e-20)
(-0.00182238 0.000553192 3.52845e-18)
(-0.0003775 -0.00100425 -1.72685e-20)
(-0.000374073 -0.00104031 5.68318e-20)
(-0.000424357 -0.00103353 -4.66845e-20)
(-0.000387959 -0.000959649 -7.44542e-20)
(-0.000333565 -0.000972806 -1.10768e-19)
(0.000565309 -5.54983e-05 1.91666e-19)
(0.000308863 -1.71718e-05 7.30436e-20)
(-0.000314784 -0.00126785 -1.35459e-19)
(-0.000362291 -0.0012948 -2.75009e-19)
(-0.000284846 -0.00131184 1.66082e-19)
(-0.000268853 -0.00124452 1.76122e-20)
(-0.00582839 0.00186635 -2.41218e-18)
(-0.00586776 0.0020852 -7.15873e-18)
(0.0197664 0.00796082 -2.92059e-18)
(0.0211066 0.00917498 1.25063e-18)
(0.0150759 0.00941735 2.37305e-18)
(-0.00165066 0.00217074 2.17716e-19)
(-0.00166255 0.0021055 1.05235e-19)
(-0.0015954 0.00212949 1.20123e-18)
(0.00180933 4.12264e-05 -5.31282e-20)
(0.00183263 4.02586e-05 -5.27114e-20)
(0.00181559 2.79315e-05 1.05226e-20)
(-0.00055465 0.0010521 4.3988e-18)
(-0.000329462 0.000905479 -5.00262e-18)
(-0.000334444 0.00115616 4.56884e-18)
(-0.00454574 0.000368498 4.59221e-18)
(-0.00502328 0.000701273 5.50557e-18)
(-0.00487274 0.000592869 7.43058e-18)
(0.000226648 -0.000108556 -2.57199e-19)
(0.000153457 -7.31881e-05 -1.65669e-19)
(0.000197223 -7.14608e-05 9.97455e-20)
(3.7448e-05 0.00027124 4.52157e-18)
(6.21369e-05 0.000239041 -1.36575e-18)
(0.0300194 0.0353263 -2.67682e-19)
(0.0378578 0.0362162 2.1549e-19)
(-0.00297638 0.00816883 -2.81427e-18)
(-0.00266939 0.00819183 -2.57883e-18)
(-0.00283095 0.00790828 2.22644e-18)
(-0.00544966 0.00111332 -2.12868e-19)
(0.000606532 0.0107498 7.78415e-18)
(0.000693405 0.0103769 6.24228e-18)
(0.00175622 -0.00141671 -1.21388e-18)
(0.00234449 -0.00132194 1.22337e-18)
(0.00211191 -0.00188622 -2.08523e-18)
(-0.0016603 0.00114505 2.47586e-19)
(-0.00168671 0.0011989 1.30443e-18)
(0.017672 0.0186227 6.27815e-19)
(0.0155869 0.0195653 4.5541e-18)
(-0.000742783 0.00114073 4.66082e-18)
(-0.000742076 0.000902271 7.58626e-19)
(-0.00184387 -0.00156096 -6.13712e-19)
(-0.000935727 -0.00190946 -1.87714e-20)
(-0.00095927 0.00329611 -2.63578e-18)
(-0.00108028 0.00327679 -1.15157e-19)
(-0.00103931 0.00339972 -3.81109e-18)
(-0.000320074 0.00229347 7.9176e-19)
(-0.000291951 0.00225947 -8.26341e-20)
(0.0177246 0.00729237 1.86083e-18)
(0.000737862 0.000826204 1.70898e-18)
(0.000708546 0.000824983 -6.44728e-20)
(0.000729993 0.000861307 4.96018e-19)
(0.000907953 0.00321402 7.39036e-19)
(0.00101014 0.00325781 -5.77436e-19)
(0.000981735 0.00313686 -1.01699e-18)
(0.00118855 0.00127346 -2.56013e-19)
(0.00103565 0.00137212 2.85057e-19)
(0.00117924 0.00135755 1.0976e-18)
(-0.00177256 0.00225903 -3.60969e-19)
(-0.00170421 0.00220892 -4.58173e-20)
(-0.0017883 0.002196 -5.40086e-19)
(0.000399756 -9.50765e-06 -3.92321e-19)
(0.000286029 0.00203583 1.30794e-19)
(-0.00160497 0.00433299 -1.82078e-19)
(-0.00206079 0.00418213 -2.44015e-19)
(-0.00199626 0.00478484 -1.74202e-19)
(-0.00298683 -0.00165941 1.24874e-20)
(-0.00315318 -0.00162269 3.77566e-19)
(-0.00312798 -0.00177992 3.45959e-19)
(-0.000260366 0.0003386 -1.45819e-18)
(-0.000591547 0.000354527 9.73701e-18)
(-0.000415758 0.000488593 2.40621e-18)
(-0.0469601 -0.0222786 -5.12831e-19)
(-0.0451243 -0.031277 -3.38636e-19)
(-0.0183433 0.00048024 2.74771e-18)
(-0.00216259 -0.00146649 -1.63469e-19)
(-0.00208785 -0.00141787 -1.23352e-19)
(-0.00204652 -0.00148102 -4.12286e-20)
(-0.000429109 -0.000930632 -3.15308e-19)
(-0.000390109 -0.000897853 5.54575e-20)
(-0.00289071 0.0024364 -4.58751e-20)
(-0.002979 0.00252867 -1.30421e-19)
(-0.000469789 -0.000962249 -1.76733e-19)
(-0.000462827 -0.000904101 -5.68537e-20)
(0.000775503 0.000828025 -3.33711e-19)
(-3.19673e-05 5.12664e-05 -3.66934e-18)
(-2.92334e-05 2.70497e-05 1.56221e-20)
(0.000546085 0.00265457 1.07444e-17)
(0.000535287 0.00263562 -1.56669e-18)
(0.000558264 0.00263212 6.12767e-18)
(-0.00224159 -0.00152928 3.29915e-19)
(-0.00226952 -0.00141613 3.52922e-20)
(-0.00634942 0.00259565 -1.09005e-17)
(-0.00692894 0.0032279 -2.61211e-18)
(0.00508989 0.00747289 1.72675e-18)
(0.00374604 0.0079825 -8.95711e-18)
(-0.000268279 0.0013092 3.92133e-18)
(-0.000240986 0.0012706 -8.79383e-19)
(-0.000290321 0.00127548 -9.5465e-19)
(-0.00253839 0.00340135 -3.82241e-20)
(-0.00224223 0.003433 3.25783e-20)
(-0.00235234 0.00319237 -3.88951e-20)
(-0.00400364 -0.0120433 2.72894e-18)
(-0.00221264 -0.0129297 -5.09897e-18)
(-0.00435134 -0.0142134 -3.8121e-18)
(0.000503349 -0.00129057 3.62232e-19)
(0.000566853 -0.00133086 1.84236e-19)
(0.0005457 -0.00124254 1.20044e-19)
(-0.00342035 0.0157299 -3.26516e-19)
(-0.00198685 0.0172357 -4.46525e-20)
(-0.00183099 0.0146957 -1.02455e-19)
(-0.000146019 0.00021672 -6.3572e-19)
(-6.81164e-05 0.000471178 -3.93241e-19)
(0.000448254 -0.00125304 1.98663e-19)
(0.000456733 -0.00134296 3.68161e-19)
(-0.00503095 0.000751211 -4.8606e-18)
(-0.00473674 0.000622773 6.36024e-18)
(-0.00283331 -0.0016606 -1.3132e-20)
(-0.00286339 -0.00153906 -2.3965e-20)
(-0.000668051 0.00946324 -1.20807e-17)
(0.00200885 0.00973578 -3.41793e-18)
(0.000937249 -3.20794e-05 9.26634e-20)
(0.000706369 -1.56098e-05 1.06874e-19)
(-0.000999015 0.00434569 6.21983e-20)
(-0.00125317 0.00432626 1.47556e-19)
(-0.00110569 0.00409797 8.93082e-20)
(-0.00182511 0.00229884 -2.85083e-19)
(-0.00174476 0.00231548 3.18737e-20)
(-0.00194434 0.00110016 -6.70624e-19)
(-0.00197845 0.00105757 1.31278e-18)
(-0.0019145 0.00104783 9.80019e-19)
(-0.00331008 0.00373872 1.95079e-18)
(-0.00310879 0.00361201 -2.73983e-18)
(-0.00313746 0.00388806 5.06415e-19)
(-0.00184694 1.65368e-05 -1.07618e-19)
(-0.00182433 2.11186e-05 6.74477e-19)
(-0.00164932 9.67094e-06 -4.8116e-19)
(-0.00159233 0.0334291 9.91482e-19)
(0.00323491 0.0323366 -1.50488e-19)
(0.000138147 0.00273362 -4.5901e-18)
(0.00010428 0.00278091 2.60202e-18)
(8.91804e-05 0.00272044 2.23649e-18)
(-0.00780665 -0.00970471 3.25511e-19)
(-0.00808005 -0.0124102 2.14676e-19)
(0.02967 0.0171989 4.35267e-19)
(0.0282159 0.0221852 -1.73216e-18)
(0.0249864 0.0176688 1.01654e-18)
(-0.00497534 0.00199646 -3.61475e-19)
(0.000238194 -0.000142414 -3.65802e-21)
(0.000281381 -0.000136631 -1.97129e-19)
(2.91636e-05 0.00241634 8.93108e-20)
(-6.60334e-05 0.00240511 -7.89752e-19)
(-1.22127e-05 0.00249869 -3.77185e-18)
(-0.00116643 0.00338187 1.34422e-19)
(-0.0013015 0.00388624 2.80496e-20)
(-0.00157063 0.00338995 9.36328e-20)
(-0.000167062 0.00221192 1.18605e-18)
(-0.000194052 0.00221243 3.73099e-18)
(-0.000172144 0.00218745 -2.06455e-19)
(-0.00104887 0.00278231 -7.22625e-20)
(-0.00144955 0.00257265 -1.3101e-19)
(5.10138e-05 0.00211053 -2.87611e-18)
(5.74785e-05 0.00213927 -3.03689e-18)
(-0.00289188 -0.00121658 1.86897e-19)
(-0.00289118 -0.00131466 -1.05817e-19)
(-0.00278717 -0.00124557 -5.20703e-20)
(-0.0018786 2.49741e-05 1.96244e-20)
(-0.00185631 1.52361e-05 5.43598e-19)
(-0.000587383 -0.00337997 -2.97006e-19)
(-0.00134509 -0.00378711 1.58738e-18)
(-0.00116872 -0.00290775 2.35019e-18)
(-0.0323648 -0.00590966 8.73877e-19)
(-0.0334424 -0.0114367 4.00075e-19)
(-0.0299077 -0.0114543 -1.55107e-18)
(0.00082985 0.00313486 4.18628e-19)
(0.000825883 0.00324542 -1.23812e-18)
(7.72836e-05 0.00209189 -5.97399e-19)
(4.35779e-05 0.00208496 7.96527e-19)
(1.17555e-05 0.000267852 -6.61064e-19)
(8.15256e-06 0.000239249 -5.21098e-18)
(-1.54374e-05 0.000261558 -5.97184e-18)
(-0.00409759 0.00804252 -3.97779e-18)
(-0.00433069 0.00873161 -7.26135e-18)
(-0.00406521 0.00115482 2.32055e-18)
(-0.00259445 0.000996066 1.03332e-18)
(-0.00303894 -2.42721e-06 7.63905e-20)
(-0.00301011 -6.08604e-05 -2.32719e-19)
(-0.00295491 -5.1196e-06 -1.24807e-19)
(0.00223286 -0.00471615 1.67099e-19)
(0.00307836 -0.00531811 -1.43087e-19)
(0.00289099 -0.00442933 -1.25015e-19)
(-0.000157682 0.00223696 5.91093e-19)
(0.019893 -0.00117409 -8.74425e-19)
(0.0237562 0.0057339 -1.84109e-19)
(0.0247173 0.00298552 -4.59769e-19)
(-0.00138876 0.00515586 -1.66751e-18)
(-0.00150623 0.00518637 -1.39401e-17)
(-0.00137137 0.00527449 -8.92961e-18)
(0.00145668 0.00794575 4.09739e-18)
(0.000878947 0.00712251 -4.44006e-18)
(0.00218979 0.00696865 5.57178e-18)
(-0.0203799 0.00844636 2.77703e-18)
(-0.0230109 0.00456983 -6.45511e-18)
(0.00356329 -0.000268408 4.11009e-20)
(0.003501 -0.000430866 1.89774e-20)
(0.00377113 -0.000392163 1.98538e-20)
(0.0115422 -0.00350182 4.12068e-18)
(0.0123686 -0.00187101 8.27985e-19)
(-0.00273546 0.00330177 3.12392e-20)