/*--------------------------------*- C++ -*----------------------------------*\
| =========                 |                                                 |
| \\      /  F ield         | OpenFOAM: The Open Source CFD Toolbox           |
|  \\    /   O peration     | Version:  v2012                                 |
|   \\  /    A nd           | Website:  www.openfoam.com                      |
|    \\/     M anipulation  |                                                 |
\*---------------------------------------------------------------------------*/
FoamFile
{
    version     2.0;
    format      ascii;
    class       volScalarField;
    location    "400";
    object      ddt0(omega);
}
// * * * * * * * * * * * * * * * * * * * * * * * * * * * * * * * * * * * * * //

dimensions      [0 0 -2 0 0 0 0];


internalField   nonuniform List<scalar> 
13851
(
0.0198112
1.44931e-05
8.05007e-06
-0.0238637
4.91307e-06
-1.59829e-05
3.60162e-05
8.05952e-06
-0.041761
8.63285e-07
-0.000417978
2.41076e-06
1.9931e-06
-0.0469417
-9.59053e-05
0.252896
-0.051098
9.82384e-06
-0.0307703
0.016242
-0.000164237
-2.01997e-06
0.00555883
8.18728e-07
-0.0267587
6.73264e-06
-0.0231553
-0.0556629
-0.0461135
7.6676e-06
-0.0222874
3.3683e-05
0.0206045
-0.0518617
-0.000114157
-0.0474831
1.81191e-07
-0.0240901
-0.0312376
7.72499e-06
-0.0430365
-0.0507294
-0.0762269
0.00987632
-0.0545383
6.70697e-06
4.80111e-06
0.106871
7.70557e-06
1.06738e-06
-0.0688703
1.41172e-06
0.292218
-1.95787e-07
-0.0458417
7.49328e-06
0.0258078
-0.0416981
-0.0241792
-0.0617163
2.42781e-06
-0.0201214
7.97331e-08
6.23579e-06
-0.00828393
-0.0169045
-0.0989072
-0.0106505
8.22299e-06
-0.0227059
-0.0269597
-0.000225774
4.24161e-06
-0.0749059
-3.50043e-05
6.91304e-06
-0.0450945
6.66884e-06
-0.0262769
4.63982e-06
9.34844e-06
0.0192334
-0.000103754
-0.0484524
-0.0589903
-0.0236491
-3.0626e-06
-0.0328002
1.82843e-06
-0.0219735
5.92012e-07
3.06699e-05
-0.143395
-0.025419
-0.0344516
-0.00513472
6.06488e-06
0.230264
-0.0692083
-0.114823
0.498196
-0.00392521
-0.00209496
3.76769e-06
6.99461e-06
-0.000232904
7.06262e-06
-0.0258108
3.02733e-05
9.62242e-06
-4.60637e-05
6.92434e-06
0.00104132
-0.000809897
0.0163772
1.23589e-05
6.3986e-06
7.73383e-06
-0.0251367
-0.019129
0.00229061
8.52817e-06
8.24077e-06
-0.0388522
-0.0281173
-0.000979832
6.77261e-06
-0.000326747
-0.0438309
-0.000202848
-1.90221e-06
-4.32309e-05
-0.0277494
-0.0510077
7.35163e-05
-0.0338568
-0.00588194
-0.0247948
-0.00140949
-0.000198579
0.0171943
4.7135e-06
1.68994e-06
-0.00428734
-0.0330699
7.34788e-06
7.13423e-06
-0.0245311
-0.0333715
-0.000945992
0.471669
-0.0341406
-0.0013257
-0.0160848
2.24799e-06
4.10472e-07
2.63772e-06
-0.0314915
-0.00016104
2.8923e-05
1.13586e-06
-0.0469835
-0.000210992
0.0136247
-0.0490895
-0.0497342
-0.0515355
-0.0595635
2.03983e-05
-0.0558796
2.11134e-06
6.63879e-06
-0.000600379
4.03949e-06
-0.0333946
-0.024551
0.317686
6.89925e-06
-2.81151e-05
0.37686
-0.0197534
-1.58217e-05
2.69576e-07
-0.000194303
-0.0880409
-0.0344538
0.0156366
0.000148999
2.31392e-06
7.10085e-06
-0.031862
-0.000161616
-0.0860639
-1.33242e-05
7.38497e-06
0.222845
0.0118395
1.65682e-05
1.26636e-05
-0.00206671
0.022211
-0.036802
-0.0415941
-0.000101852
0.660071
-0.0366089
3.03667e-06
-0.000181808
-0.0426989
-9.70594e-06
0.192059
8.17863e-06
0.0389881
-1.73355e-07
-8.42258e-05
2.75362e-06
1.21437e-06
-0.00890375
1.48136e-05
0.0155592
6.44651e-06
0.0049516
-0.0708333
-0.0343137
-5.44435e-05
-0.00018356
-1.45297e-07
-0.00103109
3.24132e-06
-0.00012827
0.0045339
-0.000181588
-1.01679e-05
-4.05032e-07
-0.0408963
7.71445e-06
-0.0919934
-0.0405276
-0.157312
4.72776e-07
-0.146223
-0.0578171
-0.0576252
0.0839056
-9.42188e-05
0.00458027
0.0416669
-4.00023e-05
-0.00294041
-4.69398e-05
-0.0345006
0.00299654
7.41455e-06
-1.0622e-05
0.331517
-0.0437752
-0.00658479
6.81468e-06
-0.00425039
1.65591e-06
0.0488132
-0.0202844
-4.70689e-06
-0.000209149
0.00900629
4.12157e-06
-0.0100291
0.00162084
-0.0530446
1.88167e-06
7.26514e-07
0.000243127
-0.0549617
-0.0322458
-0.000196846
7.12092e-06
-0.0244489
-0.0186283
0.0106127
-0.000235253
-0.0505715
-0.0753854
-2.42162e-05
-6.37721e-05
-0.021422
8.32208e-06
2.72395e-06
0.00612935
0.000300486
7.88453e-06
6.05789e-07
3.68331e-06
6.29824e-06
-8.63062e-05
2.8215e-06
-0.0435925
-0.000177557
7.83105e-06
-0.0447097
-0.038773
2.1069e-06
0.00780083
-0.075178
4.05463e-06
1.38726e-06
-0.000223303
-0.0608432
-0.0183458
-0.000291743
5.13667e-06
-0.0575879
2.07408e-06
-0.000603075
-0.0608981
-0.0498887
2.68525e-05
-0.0227985
-0.0352134
-0.0245638
0.078794
-0.00623809
-0.0332967
-0.0391067
-0.0527008
1.30218e-05
-0.0369352
-0.193675
-0.0661092
-0.0225543
2.09072e-06
-0.000721489
4.81651e-06
-0.0220829
0.0090152
6.98114e-06
3.47173e-06
-2.05486e-05
-0.0257134
0.0201019
8.17419e-06
-0.034401
-2.17085e-06
-4.88132e-05
2.74362e-05
-0.0776659
-0.0202469
0.293072
4.46701e-06
-3.50167e-06
-0.0485715
2.64339e-06
-0.0209178
-1.74868e-05
-0.000209619
-3.84629e-05
1.7993e-06
7.50871e-06
-0.00238059
-0.295661
0.0116211
-0.030331
-0.0505577
6.22452e-06
-0.040029
-0.0108278
1.80083e-06
-0.049982
0.00196072
-0.0582784
-2.36423e-05
0.000297923
-0.0182121
-0.0260607
0.0142793
-0.0227473
1.35365e-05
-0.0278413
-0.075269
-7.17634e-05
-0.0285919
-8.24852e-05
-0.0410663
-7.4411e-05
-9.27603e-06
0.00185972
0.0723682
6.72752e-07
-1.67915e-05
5.0897e-05
-3.78817e-05
6.7721e-06
-0.000205299
-0.0645052
4.10728e-06
-0.000195445
-0.0267304
4.71701e-06
2.48006
-0.000101952
-0.0175895
-1.47534e-05
0.000117555
0.00623341
-0.0219703
-0.000262079
0.00618346
-0.0726614
-0.333189
4.2602e-06
0.00541774
-8.44829e-05
0.000304568
8.1629e-06
-0.0834216
-0.0599951
-0.0263463
-1.57842e-06
0.00511154
-0.0217478
-0.0318628
5.41681e-06
-0.0422695
0.453967
0.0060374
-4.323e-05
-0.0475899
2.05161e-06
4.11232e-06
-0.0577936
-0.0218018
8.27712e-07
1.37289e-05
-0.000207305
6.41388e-06
-0.0627099
-0.000681113
0.000524955
6.23461e-06
1.41075e-05
-1.03637e-07
-0.0268446
7.70807e-06
-3.85295e-07
-0.0755774
-0.0659627
4.65918e-07
-0.0153007
-6.73882e-07
3.10583e-06
4.56981e-07
0.0117609
-5.52351e-05
6.30908e-06
6.43835e-06
0.000305459
1.88552e-05
-0.0129408
2.99241e-06
-1.85002e-06
-0.0556414
-4.71657e-05
3.82934e-06
2.23783e-06
5.86936e-06
1.79802e-05
-0.928001
-0.0738995
-9.4441e-05
0.00992521
1.98863e-06
2.60678e-06
-0.0450085
-0.0177005
-0.000491453
4.89941e-06
-0.0388046
-0.000739873
-0.181138
3.81458e-06
-5.10098e-05
0.000156142
-6.90644e-05
-0.0406466
-0.0229047
-0.0280042
4.59332e-06
0.0147927
4.95798e-06
-0.0442667
-0.000114879
0.010182
-8.19291e-05
5.05313e-06
0.000158347
-0.000446257
4.57724e-06
-0.0362377
-0.0429617
-0.0114012
-0.0244107
-0.0749508
-0.039988
-0.0252202
2.3462e-06
-6.57355e-08
-0.279754
2.87023e-07
6.19535e-06
3.06757e-05
-0.0341967
8.84832e-06
3.94511e-06
0.00150651
-0.000247516
-2.95836e-07
-0.0312509
5.27811e-06
-0.0459206
0.127277
4.64394e-06
1.86456e-05
0.0869598
-0.0549847
7.89939e-06
-0.0208957
-0.0845059
9.1209e-06
-0.0282858
-0.0264545
0.00257466
4.83359e-06
-0.0754118
-0.0608456
1.17105e-05
-0.0098743
7.98895e-06
5.40284e-06
-0.0664331
-0.0410545
-0.000143798
-6.79083e-05
1.60771e-07
-6.48112e-05
-0.0453298
-0.0321549
1.07718e-05
-0.0426791
6.99508e-06
7.82519e-06
-0.000245062
1.97132e-05
1.3515e-06
7.52378e-06
-0.0286893
-0.0522412
-0.0290532
9.36179e-06
2.01053e-06
-0.0541099
7.69954e-07
-0.050753
-1.39218e-05
-4.37364e-05
-8.88491e-05
-0.064411
-0.0627859
-1.32129e-05
-0.0430863
2.33924e-05
-0.00064883
-0.0525665
-0.0358457
7.82738e-06
4.45298e-06
0.00415027
-0.0291483
-0.0100008
-8.27083e-05
-0.275202
2.48877e-05
-3.2441e-05
0.0107164
-0.0289095
0.00859502
-0.0450056
0.07133
-0.0533788
1.1701e-05
-0.0252375
-0.0412731
2.29206e-06
-0.144622
-0.0399621
-7.12226e-05
-0.000191824
6.61209e-06
0.0149009
-0.0027782
0.0143827
7.25535e-06
3.03114e-06
5.4652e-05
-0.000215757
3.29999e-06
-0.0339186
3.07587e-06
0.0902319
2.94771e-06
0.000349534
4.35663e-06
-2.67915e-07
-0.000103863
-0.0457394
-0.000264773
-0.0344734
-4.53151e-05
5.90561e-06
2.00602e-05
-0.000460456
6.94162e-06
-0.00265331
6.01162e-06
-0.000951644
-0.0215899
-5.41797e-08
-0.000990927
-1.76893e-07
0.00278586
-0.0384327
-0.0542992
-0.00303034
0.00867062
0.000512988
0.51205
-0.0402139
1.29776e-05
-0.0303023
1.97911e-06
-7.48284e-05
-0.0191773
-0.0270781
-2.00275e-05
0.00448278
1.67131e-05
-0.0489587
-0.058898
1.0617e-05
0.00065152
-0.0603573
-2.48167e-07
-2.3096e-07
0.000290313
0.015096
-0.0705064
1.22098e-06
0.00124946
2.0244e-05
1.4173e-07
-0.0247341
0.00538966
0.0639834
5.02278e-06
0.000791747
0.000229483
8.93802e-05
1.34848e-06
7.85394e-06
0.00848752
6.63196e-05
-0.0205275
-0.000230297
-0.000217226
-0.00671544
0.1841
-0.0259008
-0.070866
-0.0230422
0.219543
-0.0381312
-0.00038761
-0.0716867
0.0133025
9.77143e-06
-3.54046e-05
-0.016746
-1.27035e-05
4.51097e-06
4.50793e-06
0.00194986
-0.0281529
-6.00309e-06
-0.0393292
6.29117e-06
-0.0742097
-0.011922
-0.0789137
-0.00308033
-1.85368e-05
8.23302e-06
-0.0711497
0.0575317
5.97521e-05
-0.0239875
1.25894e-05
-0.0132045
0.00306097
0.0972455
-7.22566e-05
0.00281708
1.95392e-06
-2.60861e-07
-8.73493e-07
-5.03456e-08
-0.0512347
6.22716e-06
-0.0195192
-0.0540315
-0.00353847
-0.0326308
-0.0640075
0.0273009
0.082185
7.49131e-05
-7.72235e-07
7.69662e-07
7.07318e-06
-4.73892e-07
3.38584e-06
-0.000602472
-0.000186864
0.000110888
-0.0520072
6.52297e-06
-0.0412268
-9.38261e-07
-0.0203408
-9.26366e-05
-6.40929e-07
-4.93038e-07
-0.0530377
-1.73075e-05
-0.0748718
-0.0418217
-0.00015807
-9.60112e-05
8.81469e-06
-0.0496105
3.03559e-06
8.23304e-06
-0.0236337
-5.61365e-07
4.28075e-06
1.27929e-05
-0.000121096
-0.0300957
-4.92013e-05
-8.23513e-05
-0.219706
-0.032307
7.34385e-05
1.3879e-05
-0.0543824
6.45982e-06
-0.0522664
2.08632e-06
1.82159e-05
-0.0270695
0.00170587
0.0189993
0.00910074
-0.000272996
-4.03512e-07
-9.97029e-07
-0.00102311
1.19501e-05
-6.56017e-07
1.05128e-06
-0.180182
4.8015e-06
-0.220426
0.883568
-0.0661531
-0.0048254
-0.0171937
2.74434e-05
-5.29373e-07
0.0169874
5.74051e-06
-1.8629e-05
-0.0737849
-0.0511932
-0.0296422
-0.0584699
1.00751e-05
1.03734e-05
0.00383628
7.76587e-06
7.78967e-06
-0.020817
0.0237793
-0.0320678
0.00414755
0.00209981
3.5241e-07
7.60705e-06
-0.0510575
-0.0014629
1.2341e-05
-4.93444e-07
0.0203335
0.0522317
-0.039658
1.60554e-06
1.9204e-06
-0.0396273
1.21233e-06
-9.17603e-05
6.04296e-06
-0.0349456
7.77236e-06
-0.036939
6.36492e-07
0.0110602
-0.000150367
-0.000109456
-7.96903e-05
3.84214e-06
1.13954e-05
4.40261e-06
-0.0179183
2.58022e-06
-0.0139099
1.21065e-05
-0.0691777
-0.0470522
-6.19181e-05
5.9327e-06
-0.0217445
-0.0746615
-2.05829e-05
0.00105259
9.94835e-07
-0.0193912
1.02245e-05
-0.0126411
2.46568e-06
4.36876e-06
-0.068297
-9.42891e-05
2.23941e-06
2.17518e-05
-0.0416511
-0.00885807
-0.0580059
6.76457e-06
-0.0368056
1.82083e-06
4.68527e-06
3.18905e-06
3.80775e-06
-1.76514e-07
-0.0540486
-0.070982
1.44445e-05
3.16943e-06
-0.000143806
6.76396e-06
-0.0167897
0.0438042
-0.0420254
-0.0330382
8.68215e-06
-0.000509228
2.25811e-06
-0.000172537
0.000931617
1.24413e-05
1.28144e-06
-0.102829
-0.0622459
5.00289e-05
-0.0924852
-6.29922e-05
7.03853e-07
-0.000155876
0.00031903
-0.0534166
-8.00909e-05
-0.0442559
-0.00142448
9.08446e-07
0.0227082
0.0192394
-0.0239757
-0.0300855
-0.0639765
4.60363e-06
0.00392153
-3.79983e-07
-0.0370218
-1.51024e-05
6.91254e-06
-0.0554743
7.70741e-06
5.27583e-06
8.31052e-06
9.16724e-06
-0.0343846
-0.016727
5.80421e-06
-0.000171867
-0.0562376
9.46387e-06
-0.0874421
2.63316e-06
-0.000348244
-0.0394559
3.36219e-06
-0.0123107
1.53476e-07
-6.54584e-05
-0.0164833
8.37105e-06
0.00797149
2.91231e-05
-0.0432038
1.99071e-06
-0.0194265
-6.3886e-05
-0.0400111
-0.0655082
-0.0177028
-0.000160903
3.40295e-06
1.02875e-05
-3.87247e-07
-2.02229e-06
2.70121e-07
-0.0417985
8.48407e-06
-1.48153e-05
1.09479e-05
4.95872e-06
6.77818e-06
3.87242e-05
-1.33861e-05
1.85372e-05
-3.84164e-06
-0.0406556
-0.0157902
-6.04034e-05
-0.000185577
-0.0566288
4.57996e-06
-0.0262736
6.68402e-06
5.92451e-05
1.68282e-06
8.40273e-06
-0.000169257
2.92182e-06
6.09083e-06
-0.0112388
4.78056e-07
-0.408152
1.01279e-05
-0.150843
-0.0425182
0.0530418
0.0223634
1.26899e-05
-0.0327062
0.136421
5.20582e-07
-1.3813e-05
4.29694e-06
-0.025428
2.30894e-06
-0.00290851
-0.0497988
-0.0295923
-0.00637533
1.1953e-05
-0.0618796
-0.0447343
-0.0703587
-4.58356e-07
6.07868e-06
1.22589e-05
-0.000278461
2.8617e-06
-0.0727491
-0.0405048
-8.66237e-08
-0.00382824
0.305936
1.4923e-05
-0.0421401
-0.0404656
0.0481187
1.49853e-05
-0.0628005
-0.00071568
3.88262e-06
-0.0409917
4.0626e-06
8.32055e-06
5.09864e-06
-2.49408e-05
9.59068e-06
-0.0470066
-0.0196925
-7.28763e-05
-0.0501593
-5.41284e-05
2.38066e-06
0.0022294
4.47899e-06
-0.0388133
1.11405e-05
4.13489e-06
3.55377e-06
1.23345e-05
-0.049534
-0.0137625
-0.0115959
-0.0630078
-0.0258737
-5.69907e-06
4.86358e-06
3.56689e-06
0.00176465
1.10863e-05
8.33415e-06
-0.000124993
-0.0271395
-0.00573906
5.0141e-06
-1.23198e-05
-8.26948e-05
0.0207628
-0.09153
9.74665e-06
2.86209e-06
2.50056e-05
-0.0271918
3.02969e-06
-0.0445209
7.64528e-06
1.90994e-06
1.84904e-05
5.20789e-06
2.31837e-06
0.0477985
-0.0560179
-0.0504141
0.0011906
2.61681e-06
-0.0599325
1.77639e-05
-0.0501389
-0.0474437
-7.82973e-06
-0.0372699
-0.0495565
-0.0208068
-0.000103139
-7.60533e-05
-0.0367448
-5.82646e-05
-6.5478e-05
-0.00350596
-0.0492299
1.06465e-05
-0.093391
2.21705e-06
-0.0759033
-0.0273504
6.45147e-06
4.18092e-06
-0.000287926
0.193556
-8.59718e-05
2.69019e-06
-2.88707e-05
1.48039e-06
7.65923e-06
-0.0313067
-1.19887e-07
-0.0734262
-0.0248391
2.30238e-06
-6.2511e-05
-2.4928e-05
2.24901e-06
-0.0481756
-0.0372996
-0.032975
-0.0243459
2.92274e-06
8.33223e-07
-1.8862e-05
2.99317e-06
-0.0124299
-8.28776e-05
-3.56938e-07
-9.77007e-05
1.02089e-05
-0.0741353
-0.000146788
-0.0728637
1.0161e-06
8.52437e-06
0.008343
0.00484207
-0.000719884
3.81492e-06
-0.0769836
-0.0400933
-0.029813
-0.0374592
-0.074236
-0.0487878
-0.0417302
3.5801e-06
2.31951e-06
1.44359e-05
-0.00804227
-8.4541e-05
-0.000277246
-0.0405118
1.4342e-05
5.99066e-06
3.43444e-07
0.0216343
7.14722e-06
2.28325e-06
7.45436e-06
-0.0751017
4.94751e-06
5.78851e-06
1.73565e-06
6.46137e-06
2.88261e-06
-0.000145928
-0.0092736
7.85715e-06
-0.0656117
2.02568e-06
5.21431e-06
-0.0444784
-0.0503954
-0.0240745
-0.069083
0.00463307
-0.0725299
6.22774e-06
0.000560613
8.58414e-06
8.09386e-07
2.52469e-05
-0.0335139
1.62595e-05
0.000139485
-0.0289373
1.69405e-05
8.98415e-06
-5.46112e-06
0.040593
-5.93498e-07
-0.0745678
1.30217e-05
-0.000821768
-6.58539e-07
1.35125e-05
-2.24111e-05
0.00029475
2.01106e-06
-0.02817
-0.0260044
0.0522724
-0.052992
1.80767e-06
-0.0470384
-0.0322112
1.67119e-06
-0.0261093
2.6315e-06
0.00380433
2.81782e-06
2.08132e-05
4.82069e-06
-6.72558e-07
9.58435e-06
-3.38284e-05
-0.000483574
1.25003e-05
-8.01853e-07
-0.00225361
8.1146e-06
-0.0181399
-3.99865e-07
-7.05988e-05
-4.39017e-05
-0.0512563
-0.0455422
4.63541e-07
0.035551
6.0267e-06
1.18502e-05
0.00213869
-0.0630072
-0.000196331
-3.84228e-07
-0.00445843
0.00171433
-0.00320783
-0.0382929
-0.000443242
-0.0149308
-9.45501e-05
-1.0157e-05
3.97739e-06
8.44244e-06
-0.065169
-0.0255491
-6.6259e-07
3.89201e-06
-0.0724991
6.12327e-06
-0.000168084
4.27285e-06
0.00665158
-0.0256721
4.09391e-06
-0.0350462
-1.33045e-05
1.75319e-06
0.37664
6.72846e-06
0.00790762
-0.0273401
-0.000140363
-0.0689112
5.15847e-06
-4.6254e-08
-0.00275295
-1.75503e-07
-2.04527e-08
-1.66227e-05
-6.01149e-05
-0.000251692
-0.0369493
4.53063e-06
-1.02138e-05
8.53207e-06
2.61238e-06
-1.4503e-07
1.54314e-06
0.0122895
1.28802e-05
3.46706e-06
-0.0151411
6.15772e-06
4.20342e-06
-0.0523655
-3.60632e-07
-0.119165
1.71656e-05
-0.0577221
-0.0149536
0.00331506
-0.049662
-0.000651153
0.00461205
8.86803e-06
-0.0747386
-2.84002e-05
8.25702e-06
7.05641e-06
1.82878e-06
-6.41622e-05
6.08853e-06
0.000264424
5.3347e-06
9.60399e-06
-0.0801637
-0.0675651
0.464317
2.33481e-05
0.000471781
-0.0488518
-0.00708465
4.12336e-07
-8.86525e-06
-0.0657674
1.20068e-05
-0.000108911
-0.0316678
-0.0513924
-9.27845e-06
-0.000131731
9.56241e-06
-0.106936
-1.08891e-06
-7.01543e-05
-0.0495649
5.05551e-06
8.13258e-06
-0.0174626
-0.000129876
-0.0153783
-0.0540067
-0.000934644
4.41108e-06
5.29822e-06
4.3364e-06
-0.0356958
-0.0389694
-0.0691894
-0.000409117
1.43697e-07
-0.0420657
7.63476e-07
-0.000894699
-8.55544e-05
2.56696e-05
-0.00017973
2.4259e-06
-0.0409565
-0.027276
1.12046e-05
-0.000752143
-9.57424e-05
-0.0314673
-0.000157097
-8.25805e-05
-0.0143684
-4.90155e-05
-0.0135172
-2.6466e-06
6.98035e-08
-6.96604e-05
0.00210238
-0.0761986
3.00731e-06
-0.0416569
-0.000192267
1.3961e-05
-5.97987e-07
-0.0239193
-7.35262e-06
5.58009e-06
8.24838e-06
-5.14294e-05
-4.64381e-05
0.000128781
4.6329e-06
9.32692e-06
0.000781104
-0.149373
-0.000320812
6.51268e-08
1.43559e-06
-6.60845e-05
0.066014
7.25239e-07
0.00852824
-0.022176
-0.000488734
-0.0588629
3.34335e-05
-0.073656
0.0360784
3.46164e-06
-0.0283178
1.57071e-06
1.24906e-06
-4.20244e-05
-9.40902e-05
0.00244984
-0.000143704
-2.95151e-05
-2.18429e-05
-6.01066e-05
2.51065e-06
6.89039e-06
-0.00350005
-1.58345e-07
6.11795e-06
-0.0447087
-1.52159e-05
-0.000175136
4.67146e-06
-0.0312208
0.0167132
3.45325e-06
5.90213e-06
6.95664e-06
-0.059575
0.0324934
-4.67484e-05
-0.0557381
-0.0359343
-2.82999
0.00134248
-0.0126362
5.88358e-06
0.0069255
7.41054e-06
-0.000120918
-0.0232301
-0.0483084
-0.0098916
-0.0448344
-2.91479e-07
-0.0733847
5.55172e-06
-0.000475972
3.15994e-06
-0.0671056
-0.053518
4.4107e-05
5.03419e-06
-0.00792904
-0.00436226
2.79499e-06
-0.0314339
-4.28195e-07
6.75275e-06
3.03069e-07
2.0473e-06
-4.0354e-05
4.26778e-07
6.0381e-07
-1.7048e-05
-0.0095382
-0.000137515
-0.000408949
3.43571e-06
-0.0618586
-0.0512704
5.42656e-06
-0.0193517
2.66207e-06
-4.77003e-05
-0.0708883
4.81381e-06
5.09261e-06
4.80429e-06
-0.0393755
2.80529e-06
1.75096e-06
-0.000145452
-0.0678172
5.26071e-06
-4.0472e-05
2.32479e-05
-0.0448508
-0.00018659
-0.000137221
-0.00711695
-4.18101e-07
0.000887933
6.28806e-06
-0.0739238
-3.40036e-05
1.88503e-07
5.65879e-05
-0.00888145
2.29797e-06
1.38601e-05
0.0211688
-0.0652385
1.79359e-05
-0.0674536
1.2955e-06
6.28143e-06
-5.75743e-05
3.25007e-06
1.28105e-05
-0.0430696
-9.60101e-07
-0.000146306
0.546465
-0.0254461
-0.0423081
1.26435e-05
3.12279e-05
4.59081e-06
3.34784e-06
3.06624e-06
1.78482e-06
-0.0505109
5.70127e-07
-0.00869634
-0.00901173
8.29396e-06
6.82137e-06
-5.53351e-05
-0.00340061
-0.0182562
0.000932052
-0.000455148
7.94077e-06
-0.0440365
-0.00236654
3.32452e-05
-0.000111906
-0.00363683
-0.00250352
0.0171693
-6.83859e-05
-0.0183652
-0.0678565
-0.0117659
6.27088e-06
7.88057e-06
-8.87878e-05
0.000735201
1.35251e-05
1.98064e-05
-0.000557575
7.12025e-07
1.04396e-05
2.85316e-06
7.66542e-06
2.09549e-05
1.07247e-05
-0.0439848
5.35123e-06
-0.0249781
3.10281e-06
0.00459357
1.18856e-05
0.00691496
-0.00142955
3.1309e-06
-0.0703119
1.98775e-05
6.527e-08
-0.00011293
8.14291e-06
5.36435e-05
9.33456e-06
-0.0599196
3.63494e-06
-0.000160522
-0.000402422
-0.072652
-4.32916e-06
-0.00991321
-0.0422825
1.39108e-05
1.26934e-05
1.52271e-05
0.00220842
-0.000533034
-0.0633237
8.65965e-06
-0.017791
7.74687e-06
-0.00192269
-0.0127794
-3.56627e-05
-0.0606174
-7.79868e-06
-7.4493e-05
3.9877e-06
-0.0281959
-2.47842e-05
3.34833e-06
0.00031999
-0.00160264
1.01136e-05
1.95038e-06
2.71074e-06
-0.0315964
-4.69474e-07
4.33194e-06
-0.0496635
5.65195e-06
3.88303e-06
0.000280109
2.21523e-06
-0.075822
5.74843e-06
2.65192e-06
5.84491e-06
9.23225e-05
1.65953e-05
8.24429e-06
-9.15255e-05
-0.0455746
4.53712e-06
-4.56723e-07
-0.0706662
9.41098e-06
-0.0327736
3.91108e-05
-0.0243324
8.34541e-06
3.56364e-06
5.85926e-06
-0.0233157
-0.0543606
-0.000193048
-0.00125777
-0.000289747
7.12851e-06
-6.38795e-07
-0.0616069
3.4339e-06
0.000636788
5.3378e-06
-8.82539e-06
-1.44939e-07
-0.0662997
6.14722e-06
-0.000114024
7.95503e-06
-0.102032
0.151936
8.21383e-06
0.000274039
-0.0340469
1.07371e-05
-0.0743417
-0.0584572
0.0656534
-1.2898e-06
-7.89741e-05
0.00175894
-0.0578277
2.06707e-05
-9.85394e-05
5.23225e-06
8.05297e-06
-0.0205436
-0.010498
-0.000347711
0.0750722
0.0068404
-1.05732e-05
-0.0535267
1.29395e-05
7.76381e-06
-0.00290712
-0.0247261
0.129736
-0.0220344
-0.0428307
6.70138e-06
-0.0247635
-0.0296101
-0.0117207
1.43484e-06
-0.0462672
-0.0193059
0.270154
-0.218063
-0.0371915
-3.47904e-06
-4.52868e-05
6.86298e-05
-1.98744e-05
6.98141e-06
-0.0290459
0.00162591
4.37852e-06
-0.0503282
9.05779e-07
0.000537028
-0.000155278
-1.55972e-05
-0.0289924
-0.000244987
-0.0295571
-0.000105597
0.00028628
-0.061604
-0.0386541
0.0139356
2.2659e-07
-3.00315e-05
-0.000866018
-0.000665245
5.96798e-06
-0.000195626
0.00165635
0.00316768
5.62839e-06
-0.00635264
3.4896e-06
-2.01925e-05
-0.0759674
-0.0145927
-7.04151e-06
0.031209
-0.0334304
4.79214e-06
8.84715e-06
-0.0102284
0.144195
3.2157e-06
1.22865e-06
2.25325e-06
-0.00265311
1.0954e-05
-0.0515669
0.000911618
4.35661e-06
1.3348e-06
-0.00525611
2.60666e-07
-0.0331847
-0.0580133
7.31083e-06
2.70704e-06
-1.04963e-05
1.30048e-06
6.75711e-06
8.80125e-06
1.32365e-05
-2.28494e-06
5.0334e-06
2.75009e-06
1.01372e-06
-0.000154035
-0.0531047
-5.34552e-08
-0.0632074
-0.072794
6.365e-06
-0.0172124
0.00571508
0.0210488
5.6567e-06
-0.00262324
-1.90087e-05
-4.79523e-05
-5.88317e-05
8.43651e-06
1.35315e-06
-0.0583423
4.13002e-05
-0.0711515
5.79002e-06
1.08322e-06
3.28584e-06
-0.000559071
4.59321e-06
-0.000228883
-0.000110852
-0.0521176
5.20144e-06
-0.0306464
-0.027163
-0.0392852
5.97733e-06
-0.0311024
-0.039165
-0.0271501
-0.0266239
1.97689e-07
9.03144e-06
0.00629171
-0.0409096
-0.0571445
-0.000153254
-0.0198278
1.57201e-06
7.74723e-06
-2.11252e-05
7.6696e-07
-2.62821e-07
0.0364869
-2.78359e-07
0.000217538
8.51871e-06
-0.0415744
-0.0651341
-0.0736187
-0.07593
-0.0411231
1.52496e-06
6.82897e-07
-0.0448221
8.05888e-06
8.15282e-06
6.54142e-06
-0.0311152
-0.0500222
-0.0557793
1.50057e-05
1.50545e-05
8.76794e-06
-4.6874e-06
-0.0547351
4.11427e-06
-0.0614441
-0.0414527
8.53886e-07
-6.74376e-07
-0.033998
0.000543882
2.74638e-05
1.80115e-06
-0.0584425
-0.041324
1.14345e-05
0.0243279
-2.40888e-07
-0.038499
-0.217204
3.57801e-05
0.000552286
-0.0401076
-0.0673044
7.76412e-06
2.05288e-05
-1.45949e-07
-1.85942e-07
-0.0513235
6.11247e-06
-0.154801
-0.0136966
-0.0721152
7.44406e-06
7.79021e-05
-0.0354382
-0.00021911
-0.0463944
-0.0278077
5.29545e-06
-4.96512e-07
-4.87143e-06
0.172777
-0.0610921
3.89222e-06
-0.0217843
8.75859e-05
-0.00014036
5.44566e-06
5.35025e-06
0.23515
-0.000108778
-0.0167324
8.77411e-07
-0.000288671
1.3088e-05
0.00620543
7.40547e-06
-0.0448564
-0.0537443
0.494326
0.00206216
5.50643e-06
6.76755e-06
-0.00333815
-0.00654687
-0.0523491
-0.0394479
2.45836e-06
-0.0678353
-0.00017519
-0.0335046
3.56193e-05
-0.000134249
-0.000109998
1.18977e-05
-0.0645679
2.49669e-06
-8.29504e-05
-0.0196706
-0.0422464
-0.0300113
-0.0471215
-1.45833e-06
-0.000228215
2.43846e-05
-0.0405204
3.52017e-06
-0.0373113
-4.07202e-06
-0.0741659
5.21835e-06
3.4899e-06
-7.55404e-05
-1.11781e-06
-1.4952e-05
6.85192e-06
-0.0307867
-0.000117975
6.97553e-06
-4.09868e-05
-0.0263746
0.601441
1.81854e-06
-0.0265344
1.40956e-06
-5.64827e-05
-1.48487e-05
6.14886e-06
-0.000571842
3.66663e-06
-0.0246066
-0.000261857
5.01977e-05
2.34828e-06
-0.0801865
-0.000144445
-9.70111e-06
-0.0720499
-0.0375471
-0.0186951
1.0852e-05
-0.0464355
4.56519e-07
-0.0934648
-2.87041e-05
0.00345736
-0.0313142
-0.033035
-0.000535937
-0.0480993
-3.77474e-05
-0.000382256
6.52757e-06
-0.0695577
-0.00319336
-0.0036687
0.00203884
7.92851e-07
-0.0689847
0.0151655
-0.18135
-0.0140394
-0.038154
-0.0306924
-0.0276016
-0.0416423
-0.000135303
9.37588e-05
1.24302e-06
1.1735e-05
6.58156e-06
0.225002
4.28422e-06
-0.00093906
-0.0292958
5.2749e-06
5.69064e-06
-7.82049e-05
0.0115839
-2.5744e-05
7.72559e-06
-0.0367298
3.38557e-06
-0.000117773
7.12315e-06
-0.038057
-4.57638e-06
-0.0555122
0.00078978
-8.66057e-05
0.000193808
1.21222e-06
-0.0367611
-0.0363427
-0.000907725
6.59671e-06
6.17667e-06
-0.0561548
-0.0240473
-0.0455307
-9.80303e-06
-0.000196661
-0.0359132
9.55925e-06
4.06776e-06
9.62302e-06
-0.049058
0.00116497
-2.3687e-05
3.49712e-05
5.69794e-07
-0.0750259
0.0131963
-0.023912
4.5974e-05
-7.2019e-05
1.98316e-06
-0.00514124
-0.00021154
2.57036e-06
-0.0631389
-0.028024
-0.0403534
-0.0673198
-0.0212454
-0.0161749
-0.0449801
4.44889e-07
1.09385e-05
-0.0596741
-0.0469948
-0.0351512
6.37894e-06
-0.000142719
-8.52721e-08
4.8288e-06
-0.0508789
-0.0425098
-9.3498e-05
3.59053e-06
-0.0232266
-0.00124876
-0.000212064
-0.040404
-0.0272819
-0.0190534
6.14436e-06
-0.0441771
-0.0441762
-0.00486306
-2.41417e-05
-0.000175318
5.56452e-07
5.62373e-06
-0.000100547
-0.000183505
2.36047e-06
-0.000122684
-3.26643e-05
1.87133e-06
0.00127241
-0.0348159
-2.68342e-05
-0.000119932
-0.0397893
0.0169699
-5.20164e-07
0.022167
0.0066376
-0.0223123
-0.000132005
1.14516e-05
-5.65371e-05
-2.20503e-05
3.14424e-06
6.05665e-06
-0.000184436
-2.5707e-05
-0.000154278
-0.196861
8.03526e-07
9.97656e-06
-0.0313725
-0.060378
-0.0370539
-0.0334198
0.00196589
4.09378e-06
1.51449e-07
-5.63553e-05
1.22713e-05
-0.0332635
8.71416e-07
-6.31498e-07
7.22997e-06
-0.061456
-0.12349
4.15953e-06
1.84318e-07
-1.56569e-05
-5.16671e-05
-5.13909e-05
5.35647e-05
-0.000142075
-7.61889e-05
-0.0258262
-5.91508e-06
-0.0450249
-8.87882e-05
-0.0356909
-4.79846e-05
6.08001e-06
6.61427e-06
0.00221949
0.0139279
5.92872e-06
0.00107093
-4.62948e-05
-0.000319848
-0.0761381
-0.00326216
-0.0765042
-6.35621e-07
-0.0303674
3.98176e-05
-1.62975e-05
1.96385e-06
0.000283372
6.23551e-06
-0.0151212
-0.001266
-5.50885e-05
1.01306e-06
-0.0608862
-5.01508e-06
-0.0381293
-0.0479168
-0.0022361
3.65345e-06
-0.00227753
-0.0765663
-0.0338946
-0.0389387
-0.000409304
9.65479e-06
-7.18559e-05
1.68321e-05
-0.0148297
4.25062e-06
-3.54929e-05
-0.0251269
-0.0337139
9.33099e-06
6.42127e-06
-0.0302672
-0.000131036
-0.0133518
0.00133793
1.64579e-06
-0.000147529
0.00836923
-0.00128472
-0.0654613
-2.51176e-05
-0.0363064
-4.62147e-06
-6.68462e-07
6.9502e-06
0.0161049
2.33299e-06
0.0122175
5.12644e-07
9.5038e-06
0.0802188
3.9625e-06
1.15769e-05
2.92998e-06
-2.89786e-05
-0.038019
-0.00010481
-0.000119164
4.07014e-07
-0.000545221
5.64093e-06
0.0452187
-6.24656e-05
-0.000192514
0.00241627
3.63545e-05
-0.00208532
-0.00259763
2.20848e-05
-0.000360127
-0.0094889
-0.0250782
9.38699e-06
-0.0689587
-0.0363991
5.43118e-06
1.5423e-06
0.0119698
-0.0401071
8.2153e-05
-0.0338633
-0.00224671
1.44265e-05
-0.00113586
5.71028e-06
-7.95325e-06
-0.000259111
-0.0198211
0.00420456
-0.00366507
-0.0335532
-0.0666974
-0.0383639
2.62493e-05
-0.0368859
9.50386e-07
-0.0421758
-0.0388942
1.45258e-06
4.18239e-06
-0.0255615
7.8675e-07
1.02074e-06
-0.0239365
-0.0621322
0.0660854
4.86574e-06
-0.0401892
4.35118e-06
-0.0643643
-0.0349068
1.43884e-06
-0.0308228
-0.0271206
-0.0411194
-0.0295531
-0.0344806
-0.0249294
5.82056e-06
1.63441e-06
-0.000388807
-0.000194729
9.8162e-07
0.0167136
1.35926e-06
-0.0340702
-0.0206845
0.00147064
-0.0178738
-0.033624
-0.0199906
-0.0111762
-0.00728742
-0.0496905
-0.0526125
1.46939e-05
4.15903e-06
-0.0533031
-2.57043e-05
8.29389e-06
-0.0249815
4.74287e-06
-0.0593401
9.63222e-07
-0.0448379
9.97265e-06
3.79202e-06
0.0659698
-5.60641e-05
-6.31713e-05
-0.0215628
-0.0492252
-4.60104
-6.93141e-06
-7.82522e-05
4.13269e-06
-5.71621e-05
0.01164
-9.15395e-05
-5.32031e-07
0.00501182
-0.00016401
-1.10259e-05
-0.0257308
-0.000146672
-0.000112578
-0.0157537
-0.000743143
-0.000129613
4.12725e-06
0.0357766
6.64766e-06
-0.00699334
-0.0217214
-0.0431904
5.90456e-06
-0.000116628
-0.0243921
1.78363e-05
-0.00041723
-1.10513e-05
-0.000135899
-0.0570376
-0.000356253
-3.31848e-07
-0.0112617
5.26996e-06
-0.0612174
1.89735e-06
1.08498e-05
0.00764038
-0.0483628
-4.79848e-06
0.00528111
0.0288992
-3.81699e-05
1.21166e-05
-0.0037691
-0.00015437
-0.0304027
2.49228e-05
0.127019
0.0269004
-2.27417e-05
-5.92705e-05
-0.00809707
-6.85922e-05
0.000929732
-0.00018019
-0.000167408
3.54062e-06
1.48062e-05
-0.0859659
3.5872e-06
-4.71887e-05
4.10263e-06
-0.00876332
-5.31935e-05
-0.000157264
-0.0376544
1.27071e-06
0.0511726
2.84692e-06
1.69356e-06
1.23428e-06
-9.17981e-07
-5.93126e-06
4.85923e-06
0.00119726
-0.0754436
-0.000182659
-0.000196169
1.38316e-05
9.94729e-06
-0.01144
5.59288e-06
-0.0771311
-0.0721841
-0.0317943
0.196038
-1.93454e-05
4.7913e-06
5.77471e-07
-8.55313e-06
-0.000788565
-0.000103916
-0.0393276
-0.000199373
-0.0238093
0.12595
1.11946e-06
5.85423e-06
-0.0244893
6.1375e-06
-5.69162e-05
-0.00242074
-0.000618153
2.08882e-05
-0.0464154
-5.72968e-07
-6.044e-06
-2.80323e-07
5.55127e-06
-0.00355181
0.00237362
1.11804e-05
-3.31229e-05
-0.00364794
-0.000189146
-8.97657e-05
-0.0586608
0.00438559
0.0689836
0.0995587
4.81914e-05
1.00317e-05
-0.000162488
-0.0496004
-0.0492507
-0.0587435
-5.43491e-05
-0.0549977
0.00283671
1.28801e-05
3.80808e-06
2.34505e-05
1.07091e-06
-1.5487e-05
-0.0348592
4.54505e-06
8.90028e-06
-0.00346556
-0.0508482
-0.000137736
-0.00668627
1.20891e-06
-0.0458447
-0.000107691
-0.036236
0.000875696
6.2514e-06
-0.0636715
0.00471368
2.83626e-06
0.000133229
-5.77741e-07
0.108098
-4.06585e-05
0.00846393
-0.0269281
-0.000243062
-0.0691816
5.15385e-06
-0.0208877
2.70026e-06
-1.38616e-05
9.7799e-06
-0.000152154
2.55372e-06
0.000168046
-0.0588992
0.635299
-0.000253732
-4.41143e-06
-0.00049559
8.61791e-06
8.12422e-06
1.64691e-05
-0.0449506
-3.6267e-06
-0.0443194
-0.0429546
0.0408525
2.60816e-08
0.0341604
-0.20533
0.0094451
4.45578e-05
-0.0454649
5.19213e-06
3.262e-06
5.19152e-06
-0.0271
1.15688e-05
3.83223e-06
-0.0597048
3.89818e-06
-0.0182079
-0.000197196
8.35148e-06
-0.0506221
3.27712e-05
-0.0436794
9.39323e-06
-0.0451259
9.90557e-06
0.000681596
0.0140234
-0.000518845
4.97744e-06
-2.13197e-06
-0.0767086
2.84089e-06
-0.045239
-6.74904e-05
-1.37861e-05
0.0324537
-0.000167077
1.50879e-05
-0.099713
-4.16339e-05
1.87937e-05
0.270219
5.1222e-06
7.64615e-06
1.80962e-06
2.82955e-05
2.844e-06
3.50172e-06
-0.0670215
0.0259397
0.00049702
-0.0335481
-4.85194e-05
1.55896e-05
-0.0333189
-0.0237871
3.01243e-06
-0.0584611
-0.0246684
-0.0302426
-0.0291002
-4.08527e-05
-0.0763659
-0.0592265
0.0327932
-0.0291223
-0.0506526
0.000421864
-0.00476834
-3.13726e-05
-1.2888e-05
5.90026e-06
6.68132
-9.67366e-07
-0.0206508
0.00448831
-0.00563408
7.11083e-06