/*--------------------------------*- C++ -*----------------------------------*\
| =========                 |                                                 |
| \\      /  F ield         | OpenFOAM: The Open Source CFD Toolbox           |
|  \\    /   O peration     | Version:  v2012                                 |
|   \\  /    A nd           | Website:  www.openfoam.com                      |
|    \\/     M anipulation  |                                                 |
\*---------------------------------------------------------------------------*/
FoamFile
{
    version     2.0;
    format      ascii;
    class       volVectorField;
    location    "400";
    object      ddt0(U);
}
// * * * * * * * * * * * * * * * * * * * * * * * * * * * * * * * * * * * * * //

dimensions      [0 1 -2 0 0 0 0];


internalField   nonuniform List<vector> 
13851
(
(-0.00026329 -0.00637956 -2.38948e-17)
(6.02669e-05 -0.00158442 -7.39159e-18)
(-7.60404e-05 -0.00155281 -1.95712e-18)
(0.000976291 0.000972625 -1.30741e-16)
(0.000204772 2.74471e-06 1.87823e-18)
(-0.000445268 -0.00162958 -6.14612e-19)
(0.00104195 -0.00160151 7.17053e-18)
(0.000326713 -1.56596e-05 9.79798e-19)
(-0.000725512 -0.00128229 -1.67942e-17)
(-2.84113e-05 0.000282337 6.01956e-19)
(-0.00256974 -0.00167901 -1.53757e-18)
(5.65552e-05 8.88386e-05 -2.9744e-19)
(-0.000124649 0.000357427 8.6472e-18)
(0.00275269 0.000128102 5.05529e-17)
(0.000386872 -0.00355765 -6.46258e-18)
(0.00347855 -0.00707458 8.94064e-18)
(0.00310607 0.00095341 8.66438e-17)
(9.3835e-05 -0.00060288 1.3949e-17)
(-0.0114538 -0.00372962 -4.26653e-17)
(-0.00052073 -0.00637367 2.25538e-17)
(-0.00034139 -0.0037185 2.69223e-17)
(-0.000776333 -0.000367175 2.13846e-17)
(0.00107506 -9.05691e-05 8.88134e-18)
(3.57532e-05 3.05401e-06 -1.86285e-18)
(-0.00375053 2.65495e-05 -2.84309e-17)
(0.00319075 -0.00493894 4.81804e-18)
(-0.0193645 -0.00756672 -6.32622e-17)
(-0.0099765 -0.00282503 3.46422e-17)
(-0.00603567 -0.00263043 1.24787e-18)
(0.00023118 -0.000261512 -6.63335e-18)
(0.00122123 0.000897115 -5.23881e-17)
(0.000981537 -0.00160465 5.77752e-18)
(1.50622e-05 -0.00646739 -1.22433e-18)
(-0.000445022 -0.000857378 -5.43765e-17)
(-0.00199345 -0.00163155 3.82702e-17)
(-0.00730775 -0.00285663 -1.21001e-17)
(7.52974e-06 2.78502e-06 2.00332e-18)
(-0.00122199 -0.000335824 1.25202e-17)
(0.00176086 0.00109403 2.11354e-17)
(-0.000132396 -1.27702e-05 2.93716e-18)
(0.00166474 -8.24516e-05 6.90199e-17)
(-0.00657206 -0.00293115 -3.59888e-18)
(0.001726 0.000716342 5.12167e-17)
(-0.00230125 0.00249499 1.75258e-17)
(-0.00595289 -0.0030226 -2.59753e-17)
(5.43353e-05 -0.000140922 -3.10495e-18)
(0.000323809 -4.36969e-05 -8.30963e-18)
(0.00479869 -0.00655877 1.35094e-17)
(-0.000386444 -0.000672098 8.25622e-18)
(-0.000150628 0.000363928 -7.09421e-18)
(0.00519818 0.00095277 -7.33212e-17)
(-9.49891e-05 0.000428804 1.00156e-18)
(0.00531448 -0.00702026 -8.35951e-18)
(0.00146687 -0.00278669 4.69801e-18)
(0.000948943 -0.000128279 -8.1622e-18)
(-0.000138547 -3.58511e-06 -2.01929e-18)
(8.30535e-06 -0.00646319 -1.04071e-18)
(0.00198231 5.00896e-05 -7.05842e-17)
(-0.0211094 -0.00830762 -1.59118e-17)
(0.00452902 0.000510593 2.37294e-18)
(6.15937e-05 8.91481e-05 1.02644e-19)
(-0.0192924 -0.00784671 3.94736e-17)
(-1.08749e-05 0.000237133 -1.25021e-18)
(-0.000380843 -0.000675197 1.3933e-17)
(-0.00207431 0.00228522 -3.85037e-19)
(-0.00203033 0.00238846 8.22439e-20)
(0.004944 0.000590998 -3.31203e-17)
(-0.00084016 0.00205908 -1.83493e-17)
(-0.000154537 -0.000254527 2.58607e-18)
(0.00113523 0.00104317 5.13209e-17)
(0.00172032 0.000888739 -7.02377e-17)
(-0.000733245 -0.00414578 2.42158e-17)
(-9.40648e-05 0.000197024 1.27731e-18)
(0.00464798 0.000532223 1.20241e-16)
(0.00119806 -0.0031131 2.85766e-17)
(-0.000513924 -0.000195939 -4.32504e-18)
(0.00286429 0.000969922 -1.01359e-16)
(0.00029309 -0.000243552 1.28485e-18)
(-0.00420277 -0.000131185 1.60516e-17)
(4.97963e-05 4.33179e-05 -1.59335e-18)
(-0.000152336 -0.00028223 3.70786e-18)
(-0.00526189 -0.00193934 8.80208e-17)
(-0.00199956 -0.00156025 -3.52554e-17)
(0.00300768 0.00016616 -5.19399e-17)
(0.00438204 0.000479676 -1.20628e-16)
(0.00137605 0.000890317 -2.7715e-17)
(-0.000825665 -0.000400258 -2.61802e-17)
(-0.00392845 -0.000648303 -3.60913e-18)
(-2.14938e-05 0.00026244 4.09316e-18)
(0.00119486 0.00089676 3.16233e-17)
(-0.000110651 0.000442414 1.09859e-17)
(0.000928634 -0.00167867 -1.60736e-17)
(0.00343871 0.00074864 6.48235e-18)
(0.00154321 0.000902913 5.15886e-17)
(0.00294314 0.000976901 -4.75187e-17)
(-0.00301625 0.00199484 -2.86354e-18)
(8.47096e-06 -4.85188e-05 -6.34404e-19)
(0.00195526 -0.007451 6.90006e-17)
(0.00551294 0.000832178 -3.04703e-17)
(-0.00404116 -0.000726107 -4.87545e-17)
(-0.00310535 -0.00822449 -1.11808e-17)
(-0.000835743 0.00151264 -3.27428e-17)
(-0.000973369 0.00154675 1.16951e-17)
(-0.000143916 0.000238785 -4.1552e-19)
(5.32945e-05 -0.000212418 4.90507e-18)
(-0.00115437 -0.00365474 7.26431e-18)
(6.52472e-05 -0.000195708 1.69043e-19)
(0.0015786 0.00088424 -2.49169e-18)
(0.000872967 -0.00167206 1.23146e-17)
(0.000104277 -0.000578292 3.14311e-18)
(-0.00108952 -8.14243e-06 5.35378e-18)
(5.06313e-05 -0.000158289 3.53992e-18)
(-0.00409504 -0.00351347 6.73469e-17)
(-0.00225268 -0.0028142 -4.15156e-17)
(0.000514877 -0.00725574 -7.25407e-18)
(0.00156462 -0.00270173 9.04489e-18)
(0.00023041 -0.000126548 -3.76706e-18)
(0.000327278 -2.0835e-05 3.99197e-18)
(0.00105236 0.000945145 1.20028e-16)
(0.000928419 0.00106933 7.16261e-17)
(-0.00310933 0.00115035 -2.81642e-17)
(0.000174246 -0.000448179 5.81489e-19)
(-0.000148057 -0.000170386 5.81755e-19)
(0.00305025 8.98461e-05 -3.25961e-17)
(-0.0144498 -0.00589642 1.5617e-17)
(-0.0009146 0.00250161 -2.76403e-17)
(4.33594e-05 -6.41065e-05 9.28428e-19)
(-0.00225055 -0.000761028 2.66454e-17)
(0.00140827 -0.000330242 -3.50773e-18)
(0.000146879 -0.00420085 -1.62941e-17)
(-0.00078553 -0.000318617 -1.49608e-17)
(-0.000957453 -0.0015434 5.06472e-18)
(-0.00180599 -0.000542997 9.16852e-17)
(-0.000277298 -0.000826894 8.01832e-17)
(-0.00243231 -0.00179379 1.14792e-17)
(0.00279962 0.00102124 -2.61711e-17)
(-0.000810066 0.0020021 -3.64176e-17)
(0.00147551 0.000888203 -1.47152e-17)
(-0.00066943 0.00126731 7.23484e-19)
(0.000319445 -0.00417873 -1.19289e-17)
(-0.00506663 -0.00205646 -1.09021e-16)
(-0.000306039 0.000351991 6.46206e-19)
(-2.83408e-05 0.000271227 -8.29098e-18)
(-0.00147128 0.00229468 6.3454e-18)
(-0.00470891 0.000165622 6.00115e-17)
(-0.000497568 -2.61093e-05 -8.35384e-18)
(0.000328637 -0.000234804 -3.15888e-18)
(0.00147669 0.000906196 -3.96834e-17)
(-0.0022352 -0.00134404 7.15956e-17)
(-0.00245969 -0.000749256 2.6733e-17)
(-0.00174779 -0.00858114 4.17133e-17)
(-0.00414946 -0.00343143 -1.94196e-17)
(-0.00249829 -0.00284982 4.48825e-17)
(-0.01312 -0.00532178 -8.49339e-17)
(-0.000170208 0.000417349 -3.43506e-18)
(-7.09593e-05 0.000356616 -5.1714e-18)
(8.19305e-05 7.22178e-05 1.2352e-18)
(0.00198411 0.0010974 -5.4414e-17)
(0.000245163 -0.00398825 -2.14202e-17)
(0.000719336 -0.00161702 7.67203e-18)
(4.91207e-05 6.88828e-06 -8.40823e-19)
(-0.00652605 -0.00272584 3.94085e-17)
(-0.000761719 -0.00363559 8.11427e-18)
(0.00488922 -0.0077292 1.54444e-17)
(0.00266536 0.000135473 -3.57737e-17)
(-0.00235879 -0.00194672 1.25138e-17)
(-0.00245982 -0.00203121 2.11302e-18)
(0.00497975 0.000957217 1.4175e-16)
(-0.00106583 -4.18689e-05 -1.07999e-17)
(-0.00252709 -0.000791115 -1.02923e-17)
(5.40687e-05 9.2573e-05 -2.06569e-19)
(0.00024681 -0.000123035 -3.3727e-18)
(-0.00174883 -0.00379333 -2.47193e-18)
(0.000170947 3.76058e-06 -1.62892e-18)
(0.00267093 0.000941609 2.25101e-17)
(-0.0173145 -0.00604338 2.22616e-17)
(-0.011371 -0.00910266 -3.13901e-17)
(0.000262626 -0.000132492 5.44282e-18)
(0.00124163 -0.00307155 1.97174e-17)
(-0.00600615 -0.00863488 4.06573e-17)
(-0.0148139 -0.00624114 6.36832e-18)
(-0.00294783 0.00231368 -4.45183e-17)
(-0.00103651 -0.000151341 2.34094e-18)
(0.000248238 -0.00412943 2.07399e-17)
(0.00207801 0.000729135 -2.59369e-17)
(-0.00245723 -0.00145808 -2.61878e-17)
(0.000154481 -0.00658286 -1.1175e-17)
(-0.000501973 0.000972979 -2.17184e-17)
(-0.000163058 0.000378227 -6.30424e-18)
(0.000141639 -0.000234051 2.4168e-19)
(-0.00545371 -5.06231e-05 -1.03084e-16)
(0.000159088 -0.00395643 1.47258e-18)
(0.00306977 0.000279636 -3.9848e-17)
(-0.000419777 -0.00169267 -5.30245e-17)
(-0.000472287 -4.85125e-05 2.00099e-18)
(0.00379846 -0.00787059 1.77738e-17)
(-5.5988e-05 -0.00654823 9.40863e-18)
(0.000377618 -0.00092654 1.29339e-17)
(3.44384e-05 -0.000721319 7.3068e-19)
(-0.000949587 0.00208888 2.37148e-17)
(-0.00453368 -0.00209222 3.86693e-17)
(0.00306431 0.000632365 3.17844e-17)
(0.00222546 8.55245e-05 3.83323e-17)
(0.000404277 -0.00353926 -1.5671e-17)
(-0.00414642 0.000951408 -1.27067e-17)
(0.00337736 0.000655225 3.92837e-17)
(-0.000232955 0.000666875 1.59292e-18)
(0.000829325 -0.00425472 -5.93142e-18)
(-0.000396902 -0.00119627 1.95607e-17)
(-0.00049091 -0.00139205 5.06649e-18)
(0.00515818 -0.00706598 6.30703e-17)
(-0.00015406 -0.000159729 2.43977e-18)
(-0.00513354 -0.00193276 -2.1929e-17)
(-8.91625e-06 4.35719e-05 1.08398e-19)
(-0.00168818 -0.00183428 -3.75846e-17)
(-0.000606477 -0.000223649 7.83742e-19)
(-0.000137949 0.000353044 -3.57001e-18)
(-0.0173041 -0.00613195 -1.89965e-17)
(0.000194861 -0.000865067 1.10898e-17)
(-0.00121035 0.00417235 -3.58299e-17)
(0.000244741 -0.000129428 2.47638e-18)
(-0.00050471 -0.00639102 -3.99749e-17)
(0.003348 0.000274591 4.10264e-17)
(0.00279573 0.00100542 1.87624e-17)
(-0.000580837 0.000913352 1.15666e-17)
(0.000884562 -0.00430345 7.31392e-18)
(-5.91824e-06 2.29154e-05 -3.76828e-19)
(-0.00140106 0.00220694 -4.22826e-18)
(4.52685e-05 0.000100762 2.18849e-19)
(-0.0018975 -0.00174774 2.3147e-17)
(0.000512388 0.000952771 -2.9409e-17)
(-0.000500738 0.000946624 7.04653e-18)
(-0.000447962 -0.0014147 1.12951e-18)
(-1.79094e-05 0.000227928 -4.64359e-18)
(0.0023886 0.000110479 -2.36702e-17)
(0.000238874 -0.000275706 8.55071e-18)
(-0.00449946 -0.00290168 -4.90034e-17)
(0.00241411 0.000161456 -3.69473e-17)
(-0.00360661 -0.00075683 3.92613e-17)
(1.99065e-05 6.70427e-06 5.40365e-20)
(-0.00251464 -0.000140666 -1.16662e-17)
(0.00434786 0.00047855 -4.72655e-17)
(-0.00655848 -0.00330502 3.39987e-17)
(0.00697204 -0.00667966 -6.38485e-17)
(-0.000662759 -0.00279269 -1.20137e-17)
(-0.00143921 0.00250421 -6.45944e-17)
(-0.0171341 -0.0063331 2.537e-18)
(0.00137123 -0.00307741 -2.317e-17)
(-0.00306828 0.00201104 2.69105e-17)
(-0.00122066 -0.000189841 -3.98583e-19)
(-0.00123005 -0.000285529 5.1969e-18)
(-0.00189272 -0.00655688 -1.09543e-17)
(0.000308459 -1.14926e-05 -7.38534e-18)
(-3.47663e-05 -0.00205349 4.05236e-17)
(-0.000353699 -0.00842598 -8.68206e-17)
(-0.00649496 -0.00257469 -4.0703e-17)
(-0.00716967 -0.00113529 5.33644e-18)
(0.000142954 -0.000225404 -1.04179e-18)
(-0.00089649 0.00257245 5.40016e-18)
(-3.67812e-05 0.000251292 4.75584e-18)
(-0.0164316 -0.00677136 -3.8875e-17)
(-0.0144461 -0.00606265 -7.19025e-17)
(1.39804e-05 -0.00211426 5.79925e-18)
(-0.000703841 -0.00376653 3.60526e-17)
(-0.00221349 -0.00661976 1.3358e-17)
(-5.86076e-05 0.000125459 -2.40827e-19)
(-0.000950798 0.00155864 2.3211e-17)
(0.00271128 -0.00732116 3.27074e-17)
(-0.0125245 -0.0033925 5.57489e-17)
(2.96956e-05 0.000182313 7.81546e-19)
(-0.000138874 0.000357776 4.83397e-18)
(-0.000551828 0.000948442 3.55376e-18)
(-0.00137294 -0.00165682 3.75381e-17)
(0.00142682 0.000906797 -6.61634e-17)
(-0.000381303 -0.00402975 -2.21824e-17)
(8.68819e-05 -0.000469847 4.97186e-18)
(-0.0149404 -0.00604142 -3.81919e-17)
(-0.0138639 -0.00571927 -5.5075e-17)
(6.91527e-05 -0.00672787 9.92181e-18)
(-0.000786288 -0.00374962 -3.66158e-17)
(-0.00103906 -0.00147604 -4.1354e-17)
(0.00543615 0.000752445 2.91062e-17)
(-0.00016483 -0.00206606 4.68578e-18)
(0.000728876 -0.00325013 1.75353e-17)
(-0.000409304 -0.000164513 -3.47343e-17)
(0.000122073 -0.000257364 -3.68699e-19)
(8.73446e-05 6.47733e-05 5.64838e-19)
(-9.87975e-05 -0.00672362 -8.3459e-18)
(-0.00247415 -0.0013161 1.28204e-16)
(0.000242714 -0.000306099 3.28265e-18)
(2.53281e-05 4.08587e-05 5.43626e-19)
(5.88443e-05 0.000104715 8.59339e-20)
(0.000263126 1.0789e-06 2.89786e-18)
(-0.00026343 -0.00297872 4.01824e-17)
(8.84129e-05 6.84699e-05 -1.30734e-18)
(-0.00079907 -0.00133531 -5.26503e-19)
(-0.00039864 -0.0037973 3.6688e-18)
(-4.55659e-05 -8.3232e-05 -1.88176e-18)
(-0.00682266 -0.0026558 2.69355e-17)
(0.00320932 0.000132941 3.15965e-17)
(-0.000127522 0.000404154 2.42731e-18)
(-0.000376252 -0.00639146 6.56214e-18)
(0.00551204 0.000892852 2.2333e-17)
(-0.000330542 0.000357149 -1.19118e-18)
(-0.000150006 0.000421642 1.1542e-17)
(-0.000428993 -0.00387782 -2.56546e-17)
(0.00358324 0.000325953 -2.43441e-17)
(0.000185158 0.000671129 3.66079e-17)
(-0.0017825 -0.00434726 6.49285e-17)
(0.00021315 2.90913e-06 -2.29104e-18)
(-0.00290677 -0.000928263 3.22674e-17)
(4.78485e-05 9.32232e-05 3.7845e-19)
(-0.00193825 -0.00444029 -1.47956e-17)
(0.00528625 0.000884622 -2.70264e-17)
(-0.0128796 -0.00347844 9.90173e-17)
(0.000692402 -0.00158099 -2.89581e-17)
(-0.000623401 -0.000297921 -2.07282e-17)
(-0.00278996 -0.000931025 -5.65471e-17)
(0.00143154 0.000854438 1.87386e-17)
(-0.00387877 -0.0031495 -3.27509e-17)
(-0.000752907 0.00163548 2.61006e-17)
(0.00239862 0.00103291 -1.90036e-18)
(0.0024839 -6.36491e-05 3.82077e-18)
(-0.01015 -0.00293154 2.12783e-17)
(5.13425e-05 -0.000751092 2.19005e-17)
(0.00237559 0.000932008 1.05757e-17)
(-0.00196756 -0.000245835 1.61578e-17)
(-0.00131993 0.00339149 5.55816e-17)
(-0.00137564 0.0033643 -4.86581e-17)
(-0.000264759 0.000662643 -8.58115e-18)
(-0.00190209 -0.0040474 7.21245e-17)
(-0.000836156 0.000660809 9.42867e-18)
(-0.0041539 -0.000738229 -1.93513e-17)
(-0.00092674 0.00168167 -2.84989e-17)
(0.000291283 -1.31964e-05 -1.73965e-18)
(0.000323582 -5.29586e-05 -2.74944e-18)
(-0.000885674 -0.000879559 1.322e-17)
(0.00159456 0.000889223 -1.58331e-17)
(-0.00129725 0.00414163 2.76974e-17)
(0.0001221 -0.000259392 9.78272e-19)
(0.0029689 0.00098865 7.20527e-18)
(-0.000805994 0.000731751 -9.75078e-18)
(-0.00111419 -0.00150284 6.518e-19)
(0.000770392 -0.00164256 -8.52551e-19)
(0.00372303 0.000387801 2.43562e-17)
(-0.0153049 -0.00631525 3.51067e-17)
(0.00183789 -0.00827093 3.20272e-18)
(-0.000565807 -0.000195854 -9.6005e-18)
(-0.000372854 -0.00137463 -1.58465e-18)
(-0.009422 -0.0031128 -3.64019e-17)
(-0.000179521 0.000373053 1.63813e-18)
(-0.0133736 -0.00526526 -2.71385e-18)
(-9.78132e-05 -0.00203317 -2.55498e-17)
(-0.000516159 -0.00385429 -3.88167e-17)
(-0.000820657 0.000757681 -2.27033e-19)
(-3.16339e-05 0.000257839 -2.04392e-18)
(-4.92771e-05 -0.000113728 5.72832e-18)
(-0.00391267 -0.00222173 -1.60044e-17)
(-0.0041993 -0.000759128 8.5993e-17)
(-0.0014057 -0.00661394 2.11374e-16)
(-0.00202172 -0.000711233 -7.50696e-17)
(-0.0094249 -0.00321472 4.36826e-17)
(-0.000518428 -3.81538e-05 8.73588e-18)
(0.0026046 0.000176134 -7.59461e-18)
(-0.0179202 -0.00608801 -3.12334e-17)
(-1.12532e-05 -0.000406616 7.80603e-18)
(-0.0122307 -0.0032221 -1.23546e-16)
(-0.000674494 -0.00578586 3.80406e-17)
(0.00528132 0.000811299 -2.52612e-17)
(-0.000857097 -0.000867237 2.61242e-18)
(0.00386181 -0.004697 -1.79555e-17)
(-0.0210017 -0.00857507 1.06891e-17)
(-0.00238793 -0.000476969 6.63301e-17)
(-0.00416102 -0.00198206 6.33918e-17)
(-0.00345394 -0.000712797 1.2379e-17)
(-0.000120633 -0.00076848 -9.52859e-18)
(-0.0170315 -0.00570855 5.06184e-18)
(0.00254791 0.000914181 1.66342e-17)
(-0.000554661 -0.00235918 -8.56627e-19)
(-0.00142394 -0.000502543 2.94485e-17)
(-0.000723605 -0.00247682 2.48159e-17)
(0.00210138 0.000145556 -4.2913e-17)
(0.000403585 -0.00318573 -2.22876e-17)
(0.00214413 -0.00332883 3.4828e-17)
(-0.00293942 -0.00624308 9.22887e-17)
(-0.00447938 -0.00117533 -8.28483e-18)
(-7.13585e-05 0.000352138 2.77293e-18)
(-0.000304876 -0.00187597 -5.78816e-18)
(-0.00262258 -0.00129352 -3.02407e-17)
(0.00124855 -0.00314133 -2.80611e-18)
(2.30964e-05 -0.00011291 5.87321e-18)
(-0.000362902 -0.00412804 2.42478e-17)
(-0.00365407 -0.00159104 2.50786e-17)
(-9.99674e-05 0.000188373 3.13385e-19)
(0.000685375 -0.00428648 2.62161e-18)
(0.000990668 0.000899096 -1.57845e-16)
(-0.000275222 -0.00123957 -5.39394e-18)
(-0.00458837 -0.00626357 -3.28526e-17)
(0.00194294 -0.00399844 3.87988e-17)
(3.32852e-05 0.000635302 -5.00057e-17)
(-0.000547597 -0.00142072 -1.01326e-17)
(0.00305531 -0.00481726 2.62149e-17)
(-0.00459801 -5.57576e-05 8.91798e-18)
(-0.0143364 -0.00576415 3.1735e-17)
(-0.00142921 -0.00344681 2.01225e-17)
(-0.00699425 -0.000989926 2.79632e-17)
(0.00462264 0.000551468 7.35467e-17)
(-0.00425552 0.00173145 2.81128e-17)
(-5.76725e-05 0.000133809 5.1511e-19)
(-0.00338452 -0.00230206 1.37146e-17)
(-0.000869186 -0.00236651 1.43775e-17)
(0.00371054 -0.00475047 -6.73462e-18)
(0.000131547 -0.000411197 3.24739e-18)
(0.00187444 0.000709335 4.76443e-17)
(-0.00273934 -0.00118955 -8.96731e-18)
(-0.00295059 -0.000337817 1.71781e-16)
(-0.000344017 -0.00138942 5.90707e-18)
(-0.00251918 -0.00646067 -1.20256e-16)
(-0.0189577 -0.00741045 5.03237e-17)
(0.00133959 0.000922719 5.00276e-17)
(0.000311394 -0.000285617 -1.13382e-17)
(0.0026138 0.000924818 6.2914e-17)
(-0.00669186 -0.00111552 5.13143e-17)
(0.00136039 -6.8902e-05 -6.89582e-17)
(-0.00130287 -0.000206368 -3.89816e-18)
(-0.00707622 -0.00168519 1.34201e-17)
(-7.80419e-05 0.000297299 1.4902e-18)
(0.000173192 3.17147e-06 1.24699e-19)
(0.00104391 -2.30133e-05 -3.37939e-17)
(-0.0185041 -0.00710047 -1.76418e-18)
(-3.55473e-05 0.000286869 -4.43989e-18)
(3.15651e-05 -0.00156054 -5.4207e-18)
(0.000634603 -0.00434617 -2.01143e-17)
(0.000219637 -0.000101492 2.28225e-18)
(-0.0035937 -0.0013493 5.25223e-17)
(-0.00191082 -0.0041694 1.85547e-17)
(-0.000777347 -0.00573061 -3.61764e-17)
(0.000369323 -0.00215976 3.33665e-18)
(-7.24425e-05 -0.000793864 9.41907e-18)
(-0.000116606 0.000449262 -1.0283e-17)
(-0.00255042 -0.000565623 2.26893e-17)
(-4.55789e-05 -7.58121e-05 -2.82437e-18)
(-0.000108488 0.000443773 6.96106e-18)
(-0.0141632 -0.00575576 7.31752e-18)
(-0.00411561 -0.00159473 -6.53426e-18)
(-0.000723522 -0.000292214 2.55176e-17)
(-0.0202988 -0.00888209 3.6974e-18)
(-3.97237e-05 0.000234992 -2.77689e-18)
(0.000103256 6.12029e-05 1.14095e-19)
(-0.000329433 -0.00127923 1.30542e-17)
(-0.00155569 -0.00672503 -1.98102e-16)
(0.00234416 -0.00383351 -1.98406e-18)
(-1.99519e-05 -0.000107258 1.85887e-18)
(-0.00034912 -0.0010551 -5.69392e-18)
(-0.00310309 0.00112903 1.97645e-17)
(0.000248075 -0.00142234 -1.29859e-17)
(0.000118264 0.000582004 4.99852e-17)
(8.68035e-05 7.93805e-05 5.93526e-19)
(0.000821643 -0.00245459 1.8492e-17)
(-0.00588472 -0.00301051 5.56608e-18)
(-0.00110976 0.000830907 -4.6731e-18)
(0.000280587 -5.609e-05 1.65915e-18)
(6.66189e-05 0.000103476 -1.55235e-19)
(0.000382984 -0.0021277 -5.47346e-18)
(0.000412831 -0.00101903 -2.62405e-18)
(-0.00495651 -0.00145538 1.38212e-16)
(-0.0125431 -0.00523743 4.13315e-18)
(-0.000535351 -0.00286867 6.33769e-18)
(-0.00223961 0.00604411 -2.63133e-18)
(-0.000307443 -0.00133638 -1.04104e-17)
(4.3766e-05 0.00012515 1.00363e-19)
(0.00086271 -0.000603762 1.86781e-17)
(-0.0206967 -0.00862157 -1.23017e-19)
(-0.000873397 0.00113113 -7.73937e-19)
(-0.00011969 0.00015967 3.98798e-19)
(0.00265757 -3.03086e-05 -4.55131e-18)
(-0.000688311 0.00121829 6.66435e-18)
(0.000131752 0.00120881 6.72414e-17)
(-0.000123783 0.000246083 -1.72039e-18)
(-0.00101057 -0.00166183 4.52544e-17)
(-0.00393829 -0.00210192 -6.79401e-17)
(0.00101682 -0.00339607 -5.75809e-17)
(0.00207219 -0.000176006 -1.77761e-17)
(-0.0190097 -0.00721729 -1.17867e-18)
(-0.00318164 -0.00050439 -1.58638e-16)
(-0.000518436 0.000321219 -2.41268e-18)
(-0.00404548 -0.00320062 -8.59472e-18)
(-4.38734e-05 0.000103411 9.86722e-22)
(-0.00601352 -0.00252479 -2.49574e-17)
(0.0017629 -0.00399214 -3.05434e-17)
(-0.00012094 -0.00660258 3.13427e-17)
(-0.000737386 -0.00236989 -1.67179e-17)
(-0.000565888 -0.000209525 3.51939e-18)
(-0.00108875 0.00077582 4.38401e-18)
(-0.00170948 -0.00393618 2.65639e-17)
(0.000190529 3.53678e-06 -4.13088e-18)
(0.0018588 0.000931092 9.68709e-17)
(0.00124216 -0.000480866 1.7625e-17)
(8.56862e-05 0.000543986 -1.2589e-16)
(0.000409861 0.000840237 1.00917e-16)
(-0.0127715 -0.00535698 -8.02046e-18)
(0.00314968 0.000982541 7.90973e-17)
(-0.0141243 -0.00548927 9.99998e-17)
(-0.000592379 0.000841483 -1.08998e-18)
(-3.85019e-06 0.000102655 1.50227e-18)
(-0.00212868 -0.00455179 -2.35163e-17)
(-4.58915e-05 0.000284769 -2.08704e-18)
(8.51203e-06 -0.000103514 -5.38459e-18)
(-0.000702195 0.000909601 5.68744e-18)
(0.00261895 0.00089953 1.51539e-17)
(7.64476e-05 -0.00161534 1.03304e-17)
(-0.000275388 0.00039643 2.31576e-18)
(-0.00251229 0.000768041 -4.45751e-19)
(-0.00173592 -0.00285753 4.52678e-17)
(-3.88588e-05 0.000313971 7.17387e-18)
(-0.00156811 0.000856587 -3.71958e-17)
(-9.84537e-06 -2.57605e-05 -8.37373e-19)
(0.000817352 -0.000492583 -3.44896e-17)
(-0.00440307 -0.00137476 -9.91359e-17)
(4.04322e-05 3.54562e-05 -3.31259e-19)
(0.000437102 -0.0015679 7.58965e-18)
(-0.00377083 -0.00183359 3.75828e-17)
(-0.0121137 -0.00325067 -2.78232e-17)
(0.000229077 -0.000291601 -3.7794e-18)
(-0.000959412 -5.17711e-05 -6.44644e-18)
(0.00117947 -0.00329874 -2.41333e-17)
(0.000398224 -0.000501072 6.41428e-18)
(0.00151273 0.000939117 1.17108e-16)
(-0.012468 -0.00440217 -1.17154e-17)
(-0.000632187 -0.00644614 3.62886e-17)
(-0.0005005 0.000332826 3.16976e-18)
(-0.0143893 -0.00590363 4.51606e-19)
(0.00499108 0.000646724 -5.02445e-17)
(0.000495913 -0.000519175 1.38047e-17)
(-0.00853529 -0.00214588 -9.27512e-18)
(-0.000160469 -0.000204932 -7.78199e-19)
(-1.45678e-05 -3.63601e-05 -4.69668e-19)
(-0.0183341 -0.00653725 1.15754e-17)
(0.00206509 0.00013796 3.16421e-17)
(-0.00120268 -0.00261705 -2.299e-18)
(0.00229266 -0.00374488 1.32058e-17)
(-4.21768e-05 0.000292684 -1.08688e-17)
(0.00227416 -0.0047968 -1.32044e-17)
(0.00100622 -0.000437141 1.68061e-18)
(0.00225441 0.00108108 -5.3787e-17)
(0.000353833 -0.000626412 1.70854e-17)
(0.00311083 0.000926542 5.62946e-17)
(1.4262e-05 -9.73875e-05 -3.21804e-18)
(-0.000186472 -0.000235898 -4.07918e-18)
(-0.00125314 -0.00354323 -3.02416e-17)
(0.00130967 -0.00236196 2.07208e-17)
(0.000133209 -0.000289114 8.17011e-18)
(-0.000498227 -0.000160489 7.23692e-18)
(0.00147578 0.000966045 -5.20985e-17)
(-0.00436937 -0.00126452 6.55611e-17)
(0.00165562 0.000956391 -5.81711e-17)
(-1.8069e-05 -0.00154258 1.06854e-17)
(-2.70596e-05 0.000245361 -1.12989e-18)
(-0.00196791 -0.00179142 -4.33543e-17)
(2.62855e-05 0.000124595 1.23376e-19)
(-0.00354942 -0.00238212 2.77588e-17)
(0.000528886 -0.00248817 -4.78296e-18)
(0.00108879 -0.00314825 -1.9503e-17)
(-0.000636953 -0.00269139 -3.57848e-18)
(-0.00793103 -0.00384424 2.11158e-17)
(0.00521997 0.000721338 -1.00796e-17)
(-0.00032603 -0.00175162 -2.5777e-17)
(0.00248953 0.000934495 4.32547e-17)
(0.000638965 -0.0014948 -1.07655e-17)
(-0.00213781 -0.00359685 -1.99016e-17)
(-0.00654063 -0.00301527 3.60323e-17)
(0.000631581 -0.000368934 -4.49415e-17)
(-0.000162629 -0.000100311 8.28453e-19)
(-6.49675e-05 0.000117517 5.29773e-20)
(-0.00103318 0.00157735 -4.04167e-17)
(0.00163664 0.000975564 5.35615e-17)
(-0.0213849 -0.00942446 -8.89658e-17)
(0.00219135 -0.0047044 1.11697e-17)
(0.00282781 0.000850019 -1.82615e-17)
(0.00141928 -0.00238228 -1.59283e-17)
(0.00116216 -0.00310556 -6.81213e-18)
(0.000568616 0.000911924 5.19461e-17)
(-0.00127747 0.000810141 -7.02696e-17)
(-0.00281404 0.00115788 -1.54272e-18)
(0.00100756 -0.000462138 -2.11994e-18)
(-0.0177635 -0.00843674 -2.57799e-17)
(-0.00881632 -0.00335987 6.46001e-18)
(-0.000114934 -0.000684037 -1.41067e-18)
(-0.0212188 -0.00826567 -1.84091e-17)
(-0.00791634 -0.00204342 4.11288e-17)
(4.43654e-05 0.000132065 6.72142e-20)
(0.00500624 0.00101156 5.01257e-17)
(-0.00017868 0.00064483 -5.58696e-17)
(-0.00103173 -0.000111188 1.02365e-17)
(0.000331142 -0.00423045 1.17515e-17)
(-0.000131623 5.75481e-05 5.32857e-19)
(-0.00187357 0.00432312 1.65964e-18)
(-0.00287184 -0.00040983 6.35942e-17)
(0.0018876 0.000263625 -1.86976e-17)
(-7.09401e-05 -6.28155e-05 9.25916e-19)
(0.000127951 5.16344e-06 1.15996e-19)
(-0.000396566 0.000835752 -7.46161e-18)
(-0.00165668 -0.00276344 -3.53414e-17)
(0.000103671 7.52404e-05 -2.6643e-19)
(0.00281913 0.00091741 -2.24509e-17)
(0.000128936 5.69127e-06 6.38966e-20)
(-0.016077 -0.00842141 -1.80728e-17)
(-0.000542174 0.000382112 -2.13582e-18)
(0.00373966 -0.00489161 5.24006e-19)
(-0.000110392 0.000233661 -2.62105e-18)
(-4.05487e-05 0.000318012 9.08593e-19)
(-0.0018443 -0.000386452 1.15696e-17)
(0.00311438 0.000948678 -1.94961e-17)
(-0.00150291 -0.00330127 2.36288e-17)
(0.0029974 0.00100948 1.84628e-17)
(-0.000972956 -0.00162814 -3.96232e-17)
(0.000189281 -0.00010709 2.23592e-18)
(0.000792706 -0.00049601 -2.46383e-18)
(-0.00182928 -0.00376628 -3.86824e-17)
(-0.000303511 -0.00101942 -2.3653e-18)
(-0.00334939 -0.0033715 1.33994e-16)
(3.33205e-05 -0.00171202 -2.90471e-17)
(-0.000828501 0.00112386 2.77909e-17)
(-0.0214786 -0.008472 3.99959e-17)
(-7.60763e-06 0.000130542 -1.64569e-18)
(-0.008283 -0.000964489 3.5e-17)
(-8.26381e-06 3.02171e-05 -5.34754e-21)
(0.00436868 -0.00542189 6.55677e-17)
(0.00237676 0.00092375 2.492e-17)
(-0.00411433 -0.00260325 7.66188e-18)
(-0.000327458 0.00101009 -1.34514e-17)
(0.00191389 0.000532838 3.6185e-18)
(-0.00241795 0.000807526 -9.34907e-19)
(-0.00431573 -0.000169684 1.09953e-17)
(2.73677e-05 0.000618084 3.89275e-17)
(0.000412106 -0.000703074 -6.89863e-18)
(-0.00116583 0.000896565 6.58072e-17)
(-0.000820722 0.000702417 -1.56833e-18)
(-0.00066275 -0.00241738 -2.62312e-17)
(0.000472429 0.000845948 -5.76886e-17)
(-0.0060341 -0.000423559 6.95151e-17)
(-0.00105516 -0.000408575 -8.74765e-18)
(-0.00321689 -0.00329908 -1.17518e-16)
(0.000403258 -0.000908982 -1.27162e-17)
(-0.00833179 -0.00306396 8.01922e-18)
(0.00471568 0.00102948 -1.09674e-17)
(-0.000132892 -0.000332575 -3.25677e-18)
(-0.000884626 0.00210675 1.8986e-17)
(-0.00313798 -0.0011686 -3.57549e-17)
(-9.02662e-06 3.53659e-05 -5.71107e-19)
(-8.90104e-06 4.59501e-05 -9.60302e-20)
(0.0032891 -0.00494491 -5.52111e-19)
(-0.00815858 -0.000819179 -5.27694e-17)
(-0.0161132 -0.00652375 -3.02574e-17)
(-0.000140262 0.000423209 -1.80669e-17)
(-0.00322684 -0.00594436 4.09971e-17)
(0.000416228 -0.00137474 -5.72947e-18)
(-3.08913e-05 0.000326716 -2.551e-18)
(-0.0215005 -0.00846471 7.00295e-17)
(-0.00316999 -0.00619861 -2.6778e-17)
(-0.00374449 -0.000925803 -1.89087e-17)
(0.000318211 -0.000241722 -7.53481e-18)
(0.00255227 -0.00724633 7.89326e-18)
(-0.00131951 0.00120778 1.9874e-18)
(0.00293797 -0.00453573 -2.06312e-18)
(-0.000194011 0.000526492 1.16547e-17)
(-0.000437135 -3.71792e-05 6.46288e-19)
(-0.00267836 -0.000395724 -4.0608e-17)
(-0.000403683 0.000805329 4.72602e-18)
(0.00286228 -0.00800382 1.14146e-17)
(-0.000559691 -0.0041315 -2.9223e-17)
(-0.000805477 -0.00404896 1.68055e-17)
(-0.00267263 0.00109777 -5.05151e-18)
(-0.00494997 0.00521558 2.57436e-18)
(-0.0116872 -0.00381257 8.95271e-18)
(-0.00623009 -0.0030783 -4.11047e-17)
(-0.00131772 -0.000198794 1.26483e-17)
(0.00312408 -0.00860634 3.84382e-17)
(0.00237764 -4.75661e-05 -6.90802e-17)
(-0.00147453 0.000300195 -2.02662e-18)
(-0.0172307 -0.00623166 -1.8117e-17)
(-0.00033059 -0.00644278 1.56277e-17)
(0.000111038 -0.000518275 3.80884e-18)
(0.00113446 -0.00302933 2.32104e-17)
(-0.0124308 -0.00428647 -2.48263e-17)
(-0.000834551 -0.000648774 5.51143e-19)
(5.33855e-05 4.13421e-05 6.05519e-19)
(6.20069e-05 3.11872e-05 -1.39348e-18)
(0.00426786 -0.00569691 5.85812e-18)
(-0.0035749 -0.000606749 -5.69628e-17)
(0.000846143 -0.00251593 -5.9966e-18)
(0.00275901 0.000242606 2.65957e-18)
(0.000201361 -0.000106851 -2.79723e-18)
(-0.0150288 -0.00620818 -9.95665e-18)
(-0.00232128 0.00154601 -2.54352e-17)
(0.00554785 0.000913132 -3.59725e-17)
(-0.00324633 -0.00313775 -9.71634e-18)
(-0.000592415 -0.00146686 1.09644e-17)
(-3.08554e-05 -0.00159655 -5.44161e-18)
(0.00530917 0.000901211 9.91576e-17)
(-0.00387844 -0.00102848 -9.55684e-17)
(-0.00142185 0.00025137 -4.49676e-18)
(-0.0187303 -0.00705137 -5.15862e-17)
(-6.15265e-05 -0.000780069 9.11849e-20)
(0.000387469 0.00349943 -2.15142e-17)
(0.00439442 -0.00564914 -8.97042e-18)
(-0.015781 -0.00799141 -3.0686e-17)
(-0.000976773 -0.00206657 6.2448e-19)
(-0.00552527 -0.00135855 7.16087e-17)
(-8.76526e-05 0.000287462 5.16865e-19)
(-1.19685e-05 3.62587e-05 -7.63611e-20)
(-0.000215449 0.000646343 9.46633e-18)
(-4.25894e-05 0.000331955 8.0362e-23)
(-0.0059389 -0.00287358 -7.83696e-18)
(0.00025932 1.1625e-06 -2.95434e-18)
(-0.0217031 -0.0087333 -4.70948e-17)
(-0.00137368 -0.00162826 2.72658e-17)
(-0.00325115 -0.00308558 2.35554e-17)
(0.00226404 0.00106586 3.77264e-17)
(0.00536408 0.000808141 3.98074e-17)
(-0.0183765 -0.00813646 1.30851e-17)
(-0.00451613 -8.41392e-05 3.01353e-18)
(-0.000336795 0.000988615 2.50878e-17)
(-2.63734e-05 0.000163832 -7.25449e-18)
(-0.000131765 0.000346737 -2.70631e-18)
(0.000302635 -0.000222063 -2.18256e-18)
(-0.000170184 -0.000465386 3.22537e-18)
(0.000141663 4.85884e-06 -2.3748e-18)
(-0.00205383 -0.00382184 -3.51856e-17)
(-0.00409625 -0.00374854 2.00279e-17)
(-0.00138207 0.00126179 -1.4319e-18)
(-0.0108948 -0.00311586 -3.04757e-17)
(-0.000484517 -0.000266542 -2.6696e-18)
(-0.000388884 -0.00116362 6.89212e-18)
(-3.91576e-05 1.06842e-05 -7.97024e-19)
(0.000816937 0.000983402 9.26038e-17)
(-0.00174648 -0.00141316 1.40831e-17)
(-2.26942e-05 2.25282e-05 1.93704e-18)
(-2.05608e-05 0.000212769 -6.61264e-18)
(-0.00352728 -0.00239258 3.99917e-17)
(-0.000433015 -0.00163303 1.87845e-17)
(-0.0134673 -0.00537178 -1.27979e-17)
(-0.000255076 0.000546407 -1.28432e-18)
(0.000460365 -0.00409122 5.11235e-18)
(-0.000713138 -0.00503764 -2.6847e-17)
(0.000412127 -0.000480605 -2.06517e-18)
(9.03673e-06 -0.000711675 2.98834e-17)
(-0.000578033 0.000237974 -1.14528e-18)
(1.15338e-05 -0.00162766 1.4185e-17)
(-0.0214472 -0.00835803 -3.37745e-17)
(-1.80705e-05 0.000161377 -4.71966e-18)
(-0.000295953 0.000364565 -9.46383e-19)
(0.000362282 -0.000623189 7.69002e-18)
(0.00162699 -0.00406335 -8.19082e-17)
(-0.00215469 -0.000470825 -3.44706e-17)
(-0.000988141 -0.00151547 4.40044e-18)
(-0.000972868 -0.00219511 1.00337e-17)
(-0.00514276 -0.00135645 -5.89689e-18)
(0.00245072 0.00107759 -2.90292e-17)
(-0.000504391 0.000995179 5.50907e-17)