/*--------------------------------*- C++ -*----------------------------------*\
| =========                 |                                                 |
| \\      /  F ield         | OpenFOAM: The Open Source CFD Toolbox           |
|  \\    /   O peration     | Version:  v2012                                 |
|   \\  /    A nd           | Website:  www.openfoam.com                      |
|    \\/     M anipulation  |                                                 |
\*---------------------------------------------------------------------------*/
FoamFile
{
    version     2.0;
    format      ascii;
    class       volScalarField;
    location    "400";
    object      omega_0;
}
// * * * * * * * * * * * * * * * * * * * * * * * * * * * * * * * * * * * * * //

dimensions      [0 0 -1 0 0 0 0];


internalField   nonuniform List<scalar> 
13851
(
0.403121
0.0285258
0.0282638
3.51893
0.0220876
0.0324439
0.0295346
0.022003
2.92927
0.0220913
0.0991787
0.0221018
0.0222722
5.64093
0.0584642
0.877995
6.70763
0.0225329
5.83906
0.404965
0.0661244
0.0300312
20.7616
0.0222637
6.01695
0.12218
4.14082
4.59815
2.88243
0.021932
2.92756
0.0295321
0.38592
2.89455
0.0626866
2.88488
0.0222742
8.90295
2.79132
0.0224632
2.83051
2.88923
15.9655
1.06903
2.91132
0.0220779
0.021722
0.387311
0.0256679
0.0222595
7.16309
0.022318
0.776935
0.0473444
6.16838
0.0224483
0.400019
2.83755
3.98018
6.4096
0.0221079
4.15018
0.0221188
0.0259164
0.311155
0.339929
9.66747
0.0740667
0.0226887
3.18714
3.02903
0.0813982
0.0221899
7.79129
0.0508599
0.0256469
5.39979
0.0218066
6.24446
0.0220374
0.0227348
5.40686
0.0609111
5.55435
6.07136
2.93245
0.0305684
6.31298
0.0220952
2.93163
0.0223673
0.0297479
20.9374
3.00465
2.88352
0.600796
0.0220844
1.07654
7.11916
0.332308
1.62067
0.0455924
0.0515404
0.0222686
0.0221003
0.0758854
0.0220957
2.96547
0.0297369
0.0224535
0.0358225
0.0220853
0.566144
0.102254
0.358757
0.0450671
0.0218629
0.0219285
3.7347
3.12172
0.360142
0.0221559
0.0226118
3.3157
5.50012
0.140281
0.0220868
0.0797109
2.85684
0.0767639
0.0299487
0.0423225
9.68377
2.88177
0.102815
2.87295
0.0703753
2.95285
0.0388149
0.0765605
4.56673
0.0231623
0.0220976
0.127371
5.38317
0.025016
0.0217929
2.97926
3.18405
0.0832561
1.4425
0.455741
0.109368
5.74934
0.0225003
0.0221377
0.0221174
2.80655
0.0696305
0.0274928
0.022243
2.88031
0.0748696
0.449025
5.95552
2.87611
2.87967
5.85718
0.035344
3.52565
0.0221211
0.0218584
0.0972814
0.0221402
2.83133
4.39296
3.05541
0.0218499
0.0509225
2.24597
5.4112
1.01329
0.0345704
0.0762009
17.7755
3.13788
0.368112
0.0310025
0.0224211
0.022001
5.69191
0.0695235
9.87752
0.0326258
0.0248076
0.943977
0.346302
0.0232647
0.0231412
0.080662
3.91766
2.85405
2.83101
0.0586505
3.30634
2.92722
0.0241937
0.0762908
2.91932
0.0307781
0.820752
0.0225747
4.89194
0.0222385
0.0644897
0.0270242
0.0222226
4.91571
0.0232948
3.60998
0.0218447
0.396991
8.16669
2.85358
0.0306995
0.0776736
0.0222656
0.10696
0.0220601
0.0634782
4.0475
0.0304
0.0308182
0.0221323
2.8464
0.021933
21.885
2.83415
0.288491
0.0222516
9.62662
5.81184
2.94318
0.589787
0.0491557
0.179699
4.72932
0.0512243
0.564485
0.0388748
7.13119
0.392038
0.0219304
0.0330636
1.30895
2.88566
4.68143
0.0219881
0.143891
0.022092
4.40025
5.56858
0.0341563
0.0758931
0.428668
0.0221276
0.0481803
0.258158
4.65172
0.0221124
0.0222187
0.0307986
2.88242
5.21492
0.075151
0.022219
5.38446
5.66507
0.278541
0.0753664
2.87286
7.66915
0.0346902
0.0518064
9.90975
0.0221054
0.0221154
0.290466
0.0842048
0.021951
0.0222357
0.0220556
0.0220158
0.0494358
0.0221104
2.90415
0.0697783
0.022269
2.88741
3.48803
0.0223738
0.417958
7.59044
0.0233777
0.0224046
0.0727774
6.69864
3.31553
0.11162
0.0220763
3.60012
0.0221149
0.121034
5.88893
4.62836
0.0271714
10.7312
10.6735
2.86629
0.419214
0.0481466
2.81052
3.03802
4.69271
0.0233187
4.52246
24.941
1.00704
0.851488
0.0242079
0.108924
0.0325364
6.06265
0.0542941
0.021904
0.0216087
0.0337385
2.92403
3.06736
0.0220956
2.90308
0.0327055
0.0427675
0.0278949
8.71518
5.33208
1.06378
0.0265126
0.0296968
2.89024
0.0224412
5.73378
0.0345307
0.0729049
0.0329509
0.0220939
0.0222694
0.357854
0.404544
0.410272
10.4377
2.90292
0.0251693
2.85326
4.66269
0.0219811
4.54032
0.183221
5.81303
0.0328216
0.131013
3.97224
7.65666
0.310819
6.0006
0.024173
4.38591
13.148
0.0427735
5.13512
0.0476485
2.81569
0.050756
0.0677179
0.373154
0.837998
0.0221362
0.0335034
0.0903823
0.0512558
0.0221053
0.0762951
3.20938
0.022194
0.0765121
4.32484
0.0276524
12.4579
0.0752776
3.47459
0.0318723
0.115307
2.75942
5.54669
0.0742686
5.90553
7.70387
4.79474
0.0221252
0.32052
0.0474712
0.130824
0.0221613
17.1397
3.1733
6.85146
0.0296415
0.426134
4.23181
4.96077
0.0217666
6.0029
1.4651
18.3622
0.040587
4.88848
0.022145
0.0221295
7.79229
4.27301
0.0220933
0.0285689
0.0779284
0.0218885
3.2847
0.110136
0.176746
0.033107
0.024205
0.0223044
8.06196
0.0222502
0.0222836
3.53651
3.27644
0.0291075
3.97828
0.0221233
0.0221078
0.0284299
0.424764
0.0745236
0.0221317
0.0249529
0.344468
0.0264364
3.8087
0.0220959
0.0378876
2.91999
0.0397448
0.0216522
0.0221374
0.0328712
0.0236779
4.50773
3.3696
0.0497203
6.72967
0.0285875
0.0220896
2.86752
3.98611
0.0380849
0.0222535
3.10778
0.0370201
18.9817
0.0222623
0.0431119
0.329397
0.0545587
2.93019
4.20839
7.16786
0.0250755
0.520239
0.0221386
2.88881
0.074995
0.337555
0.0472486
0.026128
0.0396786
0.0986398
0.0220975
5.50719
2.89029
4.05485
4.60686
3.42115
3.99037
5.64319
0.0297246
0.022216
18.1569
0.0220911
0.0220974
0.0322033
2.81386
0.0282013
0.0231039
0.123927
0.0725532
0.0220868
4.02043
0.0220722
2.85447
3.607
0.0220389
0.0268855
2.19874
4.55728
0.0219519
7.15872
18.0966
0.0220985
2.82338
5.82737
0.368033
0.025017
3.58039
6.10459
0.0221448
6.72046
0.0226389
0.0220811
3.67663
2.81322
0.0577248
0.0733562
0.022091
0.0997318
2.85168
2.81609
0.0223753
5.19314
0.0221163
0.0226911
0.0753554
0.0381308
0.0217639
0.0256353
2.81775
0.728603
2.83789
0.0273383
0.022091
2.89446
0.0221918
0.336254
0.0375553
0.0508896
0.0485106
3.05316
6.17786
0.0324109
6.09138
0.026543
0.107455
2.89776
4.43796
0.0225649
0.0221411
0.0528357
2.83179
3.79168
0.0987218
21.195
0.038556
0.0488978
5.08961
3.94723
0.24135
2.85854
4.0334
2.92147
0.0236795
3.96142
5.15092
0.0221054
17.276
3.18788
0.0355982
0.0764367
0.0223739
6.32363
0.113237
12.2392
0.0222493
0.0221667
0.0275103
0.0706906
0.0221033
2.84926
0.0221612
3.9614
0.0250828
0.13225
0.0222637
0.0220882
0.0596816
5.5556
0.0736708
2.91586
0.0431521
0.0219011
0.0221246
0.0979911
0.024918
0.185557
0.0291925
0.0371263
3.94492
0.0221931
6.13863
0.0222558
0.193961
5.17466
2.90379
0.0301101
14.7934
0.11839
0.552649
3.12324
0.0225316
3.74994
0.0327739
0.0446275
4.22407
6.15021
0.022008
0.178542
0.0232242
2.8913
6.21371
0.0229218
0.0812594
3.29591
0.0222657
0.0222557
0.125061
8.26106
3.74415
0.0224123
0.365468
0.0258963
0.0220941
3.91607
0.416361
0.325952
0.0217154
0.259957
0.0527568
0.105021
0.022965
0.0244978
0.104708
0.0273787
0.279092
0.0816367
0.0811146
0.192545
5.70956
5.94442
3.2872
7.5741
0.770809
4.0728
0.0472462
3.62796
0.426766
0.0223771
0.0475051
5.97542
0.0321151
0.0220339
0.0220254
0.196197
7.40447
0.0382149
2.86413
0.0219071
3.68005
0.206349
8.06514
0.17748
0.0321874
0.0282792
6.70186
0.320841
0.0454995
4.24654
0.0239077
14.7752
0.19795
3.94385
0.0455159
6.31767
0.0221463
0.0222482
0.0238642
0.0220959
2.89002
0.0220141
3.89996
2.87686
0.181607
2.80703
6.37499
4.29606
0.727097
0.0296827
0.0221876
0.0221866
0.0218052
0.0221102
0.0221428
0.109356
0.475288
0.0571521
4.69265
0.0245971
2.94386
0.0222944
3.29718
0.0560169
0.0222847
0.0221464
2.89555
0.0326695
3.8015
3.20334
0.0728566
0.119146
0.0220712
2.87265
0.0261339
0.0282403
3.92948
0.0221917
0.0231722
0.0224023
0.0750001
6.34503
0.0386594
0.0465857
1.9182
2.86202
0.0303658
0.0294817
2.91634
0.0217933
2.90346
0.022203
0.0265053
6.16063
0.154298
0.360454
0.154762
0.0743738
0.0222326
0.0222941
0.11503
0.0238213
0.0222391
0.0397683
1.19647
0.0220041
0.473246
12.5606
3.88237
0.148586
3.07539
0.0393347
0.0221841
0.297037
0.0219205
0.0336103
3.36683
2.90845
3.73069
2.96586
0.0230969
0.022865
0.0864185
0.024178
0.0220878
21.6251
4.466
4.88706
0.198521
0.158975
0.0221096
0.0219394
14.0812
0.177978
0.0272992
0.0222556
0.353086
0.662233
2.84456
0.0224744
0.0221568
8.60038
0.0229209
0.0480841
0.0218869
2.80665
0.0220588
4.65551
0.0221065
0.250492
0.0610921
0.0862436
0.0462717
0.0221801
0.0285123
0.0220349
3.8617
0.0230119
3.87837
0.0240986
3.98363
2.86229
0.0427986
0.0220161
3.69626
3.38807
0.0335211
0.153033
0.022186
7.63306
0.02244
5.99359
0.0220963
0.0220322
3.89264
0.0490318
0.0221295
0.048231
2.85802
5.39341
3.21711
0.0219794
3.76097
0.0221081
0.0220092
0.0225036
0.0215531
0.0222395
3.17307
3.3231
0.0233061
0.0221574
0.0584027
0.0220899
3.36827
0.316488
4.83108
2.79924
0.0283973
0.292403
0.0221003
0.0659244
0.16066
0.0225077
0.0222114
11.2655
6.26266
0.11617
14.7989
0.108463
0.0221234
0.0605146
0.157428
6.62801
0.0470935
4.03533
0.183292
0.0222272
8.25434
6.76639
4.75469
5.89182
3.67516
0.0250711
0.174096
0.0222794
4.50648
0.0312515
0.0219068
3.14917
0.0243681
0.0220161
0.0225748
0.0240512
2.83536
5.82481
0.0219682
0.0617695
6.53196
0.024946
14.4478
0.0238939
0.144216
2.81524
0.022114
3.80975
0.036065
0.044849
6.09074
0.0243559
5.48681
0.113359
2.83523
0.0235486
4.59349
0.0418214
3.9595
7.14026
6.22767
0.0731226
0.0221898
0.0231105
0.0222657
0.063784
0.0221415
2.89742
0.0333547
0.0296992
0.0300904
0.0250083
0.0219683
0.0359747
0.0332212
0.0268789
0.0315822
2.98661
3.82199
0.0408831
0.0670514
3.21319
0.0231806
2.8837
0.0217953
0.0385684
0.0230135
0.0223069
0.0567925
0.0220869
0.0219618
0.0490544
0.022147
0.954661
0.0245204
18.1339
4.90139
4.89953
5.79438
0.0229198
2.84118
0.926597
0.02223
0.0328525
0.0229738
2.84676
0.0238083
0.0486274
4.51568
4.98047
0.12296
0.0229298
3.00704
4.59793
3.63446
0.0359308
0.0218958
0.0223535
0.111924
0.0221657
7.44183
0.37287
0.0222076
4.69939
1.19305
0.0223549
3.0502
5.2627
4.31725
0.0243316
3.02432
0.108574
0.0220461
6.68891
0.0294292
0.0222596
0.0220644
0.0480214
0.0644557
2.87923
2.97164
0.0668841
2.87593
0.0514059
0.022111
0.0920401
0.0220267
12.5471
0.0224006
0.0220564
0.0258879
0.0237428
2.87208
6.06789
4.05628
6.30956
3.38082
0.0307791
0.0222178
0.024517
6.04562
0.0223772
0.0221817
0.0593244
5.9736
3.64429
0.0217704
0.0495994
0.0468944
0.374337
14.5878
0.0221019
0.0217459
0.0269937
7.48331
0.0398357
2.84885
0.0244605
0.0221671
0.0222817
0.0220685
0.0270007
4.26721
2.95029
2.88391
0.0301093
0.0220918
14.94
0.0236959
4.74427
4.57132
0.0329631
4.39547
2.88413
3.01482
0.091275
0.0465353
3.37252
0.0428149
0.0379523
0.0893058
0.641702
0.023666
5.79489
0.0221132
3.42602
7.12312
0.0217994
0.0251251
0.0581187
3.86842
0.0493057
0.0221465
0.0378444
0.0236067
0.0325414
1.6245
0.022177
3.32104
6.56339
0.0221277
0.0443877
0.0640546
0.0221097
2.8902
18.4226
2.82442
3.28206
0.0220758
0.027465
0.0317678
0.0225424
3.99024
0.0500849
0.0222597
0.1081
0.0269104
3.76399
0.0613518
8.04152
0.0235215
0.0248749
0.0538684
0.176371
0.121266
0.0221074
18.0552
3.68187
25.0663
3.60684
3.35574
2.87511
4.25097
0.022099
0.0220896
0.0227598
3.80485
0.0737227
0.119769
6.06575
0.0233629
0.0217286
0.0220912
3.53406
0.0217861
0.0342996
0.025368
3.61731
0.0236461
0.0219231
0.0221167
0.0221981
0.0221642
0.0376849
4.00675
0.0380883
3.47545
0.022087
0.0220792
2.85819
2.87169
7.66742
3.80783
0.0543789
3.69882
0.0218864
0.0785154
0.024866
0.022111
0.0288296
4.05335
0.0253506
0.181005
12.6498
0.0234443
0.0222777
0.0275227
4.26835
0.0222731
3.62208
0.0227334
3.78384
0.0221409
0.0232831
0.0337568
0.118295
0.0222909
4.15464
2.98655
3.44949
2.90304
0.0221399
5.46965
4.56876
0.0220924
7.37144
0.0225214
0.0435044
0.0224162
0.0233104
0.0219911
0.0220863
0.0232716
0.0284232
0.115299
0.0230765
0.0221169
0.0665213
0.0219994
4.12174
0.0221399
0.0451965
0.0512893
5.06344
4.86621
0.0221641
4.35653
0.0218773
0.0445668
0.0971929
3.84312
0.0769892
0.0222734
0.245905
0.0855742
0.156692
5.07229
0.0400829
0.366589
0.0985106
0.118035
0.0236212
0.0221676
3.9027
4.1025
0.0278862
0.0220436
13.3514
0.021918
0.0642882
0.0220252
0.120607
8.48616
0.0216901
5.09365
0.0322326
0.0221744
2.63405
0.0219052
0.0421656
3.14038
0.0589437
3.85185
0.0219877
0.0222663
0.0452682
0.0222327
0.0222492
0.0375956
0.0401183
0.115888
0.128363
0.0223205
0.049535
0.0221174
0.0220946
0.0222231
0.0220941
12.1158
0.0224389
0.0239242
3.99648
0.0219109
0.022033
2.88785
0.022253
16.8635
0.0258025
2.94948
5.15795
0.0574929
14.0925
0.100078
2.54211
0.0235944
0.929448
0.0325672
0.0221484
0.0220773
0.023869
0.0436147
0.0221748
0.0740874
0.0219597
0.0249193
14.6584
7.07448
6.76762
0.0286226
0.0515887
4.70535
3.42191
0.0221861
0.0337035
2.67067
0.0231215
0.055078
11.9923
2.88708
0.03586
0.068603
0.0238187
1.43347
0.0222867
0.0405581
4.81037
0.022458
0.0220468
4.31262
0.0618467
4.08474
2.91903
0.199728
0.0228068
0.0219627
0.0233644
3.82019
5.21832
3.7159
0.0826798
0.0221091
3.91154
0.0221299
0.460906
0.0274012
0.0264255
0.0657042
0.0220942
3.11772
3.41856
0.0220935
0.115008
0.0754486
12.2375
0.0642247
0.097692
4.03867
0.051234
3.77968
0.102503
0.0221331
0.0544
0.0894555
3.50813
0.0220739
4.03953
0.0685775
0.104589
0.0222739
3.31047
0.0327515
0.0248664
0.0220909
0.0504296
0.0491668
0.0664255
0.0221372
0.0236053
0.0789748
21.8825
0.0899173
0.0221722
0.0229619
0.054391
4.34608
0.022185
0.135974
10.7492
0.0612784
2.94655
0.0635692
7.61433
5.94776
0.0221079
9.00961
0.0222386
0.0279986
0.0482123
0.0501784
0.183703
0.0752715
0.0533097
0.0572857
0.0415736
0.0260392
0.0217733
0.10054
0.0312234
0.0311564
4.85592
0.0303832
0.0344489
0.0220289
5.00129
0.125864
0.0223133
0.029171
0.0236257
6.70522
0.349305
0.0482277
2.92352
4.95509
7.43274
0.173894
3.80107
0.0219786
0.348001
0.0221715
0.0277371
9.89665
2.89505
7.05991
11.232
0.0221393
8.22045
0.021975
0.153563
0.0275623
3.73811
3.12339
0.0333679
0.0220327
7.03737
0.0453241
0.0220734
3.28162
0.022095
0.0249932
0.0312273
0.0223926
0.0405716
0.0237587
0.0221159
0.0423343
5.84632
0.0616178
0.0899554
0.0220713
6.20875
2.91753
0.0220191
4.13073
0.0274549
0.0309582
3.57884
0.0220167
0.023341
0.0300297
3.53235
0.0220767
0.0221857
0.0579077
3.63992
0.0220032
0.0357862
0.0402847
4.82125
0.0660612
0.0569649
4.60846
0.0220984
0.142956
0.0217941
7.21571
0.0387203
0.0220906
0.0357438
0.165567
0.0221551
0.0230802
0.419873
3.11352
0.0236677
6.81605
0.022194
0.0217922
0.107787
0.0220713
0.0224392
3.37552
0.0222758
0.0608311
2.02635
2.83482
4.85989
0.022356
0.0246193
0.0296923
0.0220906
0.0221687
0.0221234
3.79251
0.0222047
3.69984
0.268331
0.0220434
0.0220208
0.0400677
0.271931
4.08629
0.0671783
0.0932565
0.0256321
2.8992
0.113244
0.0443309
0.0639272
0.0898468
0.166716
11.8572
0.0603891
3.65094
4.02148
3.40103
0.0291495
0.0222649
0.0521392
0.0355255
0.0221875
0.0237095
0.191224
0.0222456
0.0231147
0.0220883
0.0217268
0.0267113
0.0227533
5.5455
0.0220303
6.8696
0.022098
0.119103
0.0237753
0.279322
0.108745
0.0221946
3.27472
0.0244624
0.0222318
0.0619605
0.0221008
0.0340179
0.0225417
3.01012
0.0265142
0.06206
0.113691
3.34098
0.0322937
3.69297
4.95336
0.0681075
0.0229042
0.0249367
0.153267
0.105035
6.52787
0.0219716
3.13689
0.0224999
0.10124
4.05311
0.0469836
3.75662
0.0284156
0.045757
0.0270382
3.30897
0.0401271
0.0221441
0.0635738
0.347256
0.0253634
0.0220895
0.0221476
2.79391
0.0222566
0.031196
2.86986
0.0285361
0.0221145
0.0775658
0.0279762
3.62888
0.0217332
0.0221094
0.0219292
0.0268186
0.0235363
0.022923
0.108668
2.86284
0.0220991
0.0221214
3.83275
0.0234852
4.70623
0.0275183
3.17415
0.0221037
0.0260658
0.0218786
3.92026
2.91972
0.0344834
0.0875133
0.0278509
0.022181
0.0221339
3.03685
0.022139
0.15212
0.0219874
0.0683274
0.0222009
3.54206
0.0219121
0.0718426
0.0220016
0.943066
4.96524
0.0220516
0.0554188
3.29397
0.117032
3.70362
3.76111
0.495307
0.0238841
0.0479471
0.178022
4.5608
0.0233783
0.0602323
0.0298297
0.0223106
4.08986
3.33835
0.117705
0.681101
6.85738
0.0409598
2.90507
0.0221793
0.0220277
0.174593
3.692
3.35552
0.379899
4.58528
0.021893
3.34907
3.70316
4.63767
0.0222047
4.67166
3.00248
4.94294
4.24691
3.25787
0.157294
0.0396958
0.583481
0.0265913
0.0222165
9.43751
0.179092
0.0217546
4.98045
0.022198
0.0330482
0.0653275
0.0282994
5.91121
0.0384306
4.65151
0.0711296
0.0269078
4.17564
2.80004
0.383625
0.0225496
0.0266316
0.117987
0.0747603
0.0218911
0.069938
0.0746969
0.33524
0.0221645
1.60007
0.0263907
0.0645917
3.4866
3.77073
0.0234199
0.214855
3.61754
0.0224475
0.0238404
4.0105
2.76348
0.0274468
0.0286795
0.0221164
0.105701
0.0314103
2.89617
0.181007
0.0229604
0.0222241
0.0730714
0.0345244
4.64574
5.85854
0.0220556
0.022078
0.0335228
0.0222001
0.0275412
0.0240847
0.0243031
0.0268297
0.0220743
0.0270519
0.0223484
0.0758624
4.65902
0.0222653
3.33741
9.74439
0.0217979
0.340487
0.221256
0.129057
0.0233712
0.178486
0.034443
0.0919434
0.0404863
0.0251004
0.0222107
6.33022
0.0379705
3.81992
0.0232989
0.0220986
0.0220649
0.098144
0.0220871
0.0764141
0.102738
2.42633
0.0219998
4.69291
8.69963
3.49911
0.0218833
0.292753
1.23293
8.30757
6.55075
0.0227699
0.0229302
0.300358
4.55916
3.9471
0.061194
4.10638
0.0222316
0.0222256
0.0490011
0.0222045
0.0222268
0.387224
0.0222672
0.102452
0.0220945
2.81199
3.25598
3.81491
3.5176
3.78639
0.0222658
0.0221631
3.47846
0.0220095
0.0220685
0.0217988
0.192118
2.8811
5.83997
0.0293234
0.023126
0.0247665
0.0444237
6.39012
0.0220485
3.76057
2.8148
0.0221995
0.0221873
3.91238
0.139408
0.0263042
0.0220894
3.25686
3.70804
0.022639
4.52283
0.0222563
3.35666
5.57757
0.0269513
3.94225
5.6193
3.6879
0.0220551
0.0233703
0.0222495
0.0222867
2.87972
0.0220916
0.434915
3.84202
7.87725
0.0241354
0.0834889
4.90101
0.0718614
3.51736
2.85078
0.0216979
0.0314648
0.0317581
0.49305
2.98117
0.0216968
6.15612
0.0374566
0.0673977
0.0233573
0.0219705
3.42259
0.0545397
3.36505
0.0222037
0.0787059
0.023902
0.291398
0.0281397
2.86928
4.28923
0.546966
0.180685
0.0221436
0.025693
0.160775
0.310621
2.88496
3.31985
0.0221536
3.75549
0.108316
2.79866
0.0348659
0.0603091
0.0560981
0.0227796
3.51763
0.0221016
0.046671
3.45939
2.81844
10.9793
2.85339
0.0322373
0.0752664
0.0220096
2.81378
0.0309377
5.06477
0.0220026
3.49069
0.0216981
0.0220534
0.045375
0.0338924
0.0364502
0.0222375
3.50349
0.0700656
0.0220923
0.0491534
4.00011
1.09806
0.0221273
2.82076
0.0269525
0.0514707
0.0476504
0.0217553
0.0964626
0.0220515
9.45762
0.109531
0.0352048
0.0220882
3.06425
0.0579116
0.0220057
3.66904
5.28494
5.24534
0.0220621
4.79511
0.022159
0.264117
0.0363937
0.183047
5.65005
3.73366
0.0364435
2.86137
0.0661335
0.0317672
0.021956
3.41002
0.171234
0.191131
0.0655021
0.022244
3.71571
0.140849
4.5322
3.9495
3.14747
3.46601
10.3596
4.12892
0.032442
0.0342852
0.0221231
0.0227676
0.0217192
3.38458
0.0334205
0.036269
2.80373
0.0220575
0.0219099
0.0658014
0.356138
0.0364025
0.02193
2.83222
0.0275407
0.0755389
0.0226521
4.71463
0.0311167
3.19488
0.0672614
0.0482694
0.0718731
0.022118
6.17021
4.90398
0.10769
0.0223454
0.0219344
7.63986
2.92364
2.88408
0.0222939
0.109442
4.72894
0.022788
0.0220363
0.0225861
2.86885
0.122195
0.042282
0.0361842
0.0328157
3.39932
0.136616
5.30522
0.0339698
0.0462592
0.0217271
0.198957
0.0780824
0.0221052
3.0717
2.83462
2.89137
3.16904
2.99503
3.87097
3.38987
0.0235065
0.0223952
3.53786
4.37995
5.26817
0.0223859
0.0600874
0.0221014
0.0220972
3.74094
2.81899
0.106397
0.0220558
4.35528
0.177861
0.0729305
4.30439
7.13996
4.17881
0.0219386
2.87624
3.79585
2.32459
0.047573
0.063186
0.022306
0.021968
0.0545597
0.0653098
0.0269779
0.0630528
0.0363937
0.0273539
3.70321
4.04521
0.0350473
0.0669283
3.57424
3.71589
0.0221281
0.528308
1.39729
4.65555
0.0570815
0.0229058
0.0396906
0.032016
0.0335531
0.0217576
0.0349871
0.0448532
0.0727384
0.492229
0.0222316
0.0246449
3.55316
2.99018
2.79904
4.96276
0.239775
0.0216571
0.0220901
0.0407429
0.0219767
3.17871
0.0220981
0.0222754
0.0218572
3.04152
21.3122
0.0227961
0.105865
0.0338992
0.0407732
0.0395591
0.03753
0.0612845
0.0501096
3.57061
0.0327476
4.16904
0.0520558
2.8004
0.0376281
0.0219551
0.0219412
0.182977
0.423523
0.0218828
0.0461051
0.0381554
0.0864184
3.56231
3.82551
3.73617
0.0222752
5.6446
0.0335034
0.0455083
0.0220874
0.105496
0.0254498
3.73873
2.72299
0.0505419
0.0221107
3.00455
0.0282892
4.51858
4.57922
3.6954
0.0265355
0.295154
3.5643
5.46766
3.06887
0.0899384
0.0223796
0.0521914
0.0223257
4.55593
0.0268771
0.0414907
4.32385
2.80061
0.0222948
0.0221715
3.11713
0.0576791
3.75848
0.0342755
0.0220896
0.0607743
4.69025
0.0481165
3.81396
0.0449529
5.32254
0.0291913
0.0222493
0.0221638
1.25927
0.0230662
0.198172
0.0221206
0.0224656
0.749167
0.0329918
0.0227701
0.0220731
0.044898
5.20291
0.0676933
0.0554819
0.0278839
0.0928291
0.0222825
0.276035
0.0412425
0.0641623
0.0775046
0.0377866
0.119457
0.0499951
0.0222749
0.115358
3.40383
3.17864
0.0229445
12.9233
4.36534
0.0221292
0.0230143
1.25928
4.06286
0.0288396
4.17813
7.0453
0.0229622
0.156539
0.021707
0.0320778
0.0949438
9.2317
0.764365
3.61592
4.79241
3.15562
3.12855
0.0264316
3.29192
0.0220936
3.75886
3.30334
0.0221263
0.0220883
3.33439
0.0222332
0.0221152
4.5556
2.99722
4.98681
0.033112
3.63306
0.0221078
3.06084
3.71744
0.0221929
4.29467
9.06655
3.7236
3.48018
3.525
3.60967
0.0219744
0.0236746
0.0968854
0.10884
0.0221116
3.66439
0.022091
3.36872
4.4207
0.0553177
4.18118
3.25213
4.37225
3.94057
0.0650689
6.61887
4.80434
0.0307967
0.0217428
3.80588
0.0402297
0.0219869
3.21185
0.0221109
3.83138
0.0222695
2.83771
0.0314437
0.0220883
25.8936
0.0285293
0.039295
3.70469
3.75699
8.92695
0.0368639
0.0728741
0.0242307
0.0620932
0.299558
0.0632347
0.0222156
2.33034
0.0988927
0.0392656
4.15893
0.0600127
0.0432442
0.392968
0.120085
0.0712843
0.0220845
0.774275
0.0219487
0.296464
3.88302
4.04784
0.0219341
0.0542177
3.35208
0.0258354
0.0988516
0.0452312
0.059379
3.36796
0.0990916
0.0239813
16.2103
0.0219363
3.01994
0.0221416
0.0250056
0.290955
2.8877
0.0394663
0.453004
0.993915
0.0452401
0.0230846
0.205959
0.0640835
2.80336
0.027431
22.0499
0.41546
0.0452543
0.0391912
0.153009
0.0497601
0.0828081
0.0990573
0.044435
0.0275274
0.0231186
12.0573
0.0221544
0.0369775
0.0216831
0.230626
0.0381205
0.0988292
3.65357
0.023315
4.76598
0.0215765
0.0223114
0.0221974
0.0222136
0.0342873
0.0220125
0.160951
7.67419
0.0982516
0.0688948
0.0303964
0.0225451
3.7413
0.0222577
3.69433
3.83802
3.79188
0.67106
0.0437701
0.0356601
0.0221907
0.0325191
0.111647
0.0576882
3.42932
0.0975136
2.84921
1.14753
0.0222124
0.0218969
3.22823
0.0221534
0.0408128
0.0723375
7.00403
0.0261516
2.85801
0.0221834
0.0297928
0.0221026
0.0231816
0.205098
0.220332
0.0229577
0.0480591
0.0362501
0.0711259
0.0955791
0.839643
0.56537
0.910419
0.290203
0.0334882
0.0245313
0.0943838
2.89394
3.46028
2.95858
0.046215
4.66009
0.212424
0.0245334
0.0220472
0.106095
0.022161
0.0479962
4.5132
0.022079
0.0221401
7.52951
3.70729
0.0757658
10.3069
0.0222504
6.18178
0.0566098
2.79648
0.0312813
0.0223112
3.04284
0.0630817
0.0221475
0.0977987
0.0222571
0.270442
0.0367539
0.0582666
3.27111
0.0365953
3.59929
0.0220271
2.92344
0.0223024
0.031573
0.023401
0.0646975
0.0221487
0.0659147
2.97958
1.78959
0.0739341
0.0382604
0.0881799
0.0222261
0.0221846
0.0253144
4.19356
0.0309839
2.83599
4.77666
0.241757
0.0222236
0.261249
0.554451
0.416275
0.0329643
4.30605
0.0221528
0.0216461
0.0221167
7.79272
0.0227505
0.0221587
2.97593
0.0220787
0.401993
0.123179
0.022283
2.87243
0.0381435
2.83293
0.0223274
4.51455
0.0242172
0.0793155
5.22413
0.109386
0.0220622
0.0359578
3.65477
0.0476923
0.276422
0.0432474
0.0311328
0.238631
0.0329475
0.023491
19.4433
0.0379319
0.0384326
0.673027
0.0221058
0.0220566
0.022191
0.0448711
0.0223323
0.0283901
3.50179
9.81703
0.120952
5.63242
0.105441
0.052824
2.79472
2.87276
0.0227603
7.94955
6.40466
3.74957
9.85393
0.0413718
3.71751
2.95839
10.6083
9.44071
3.33229
0.0485874
0.0994558
0.0321519
0.0330618
0.0223211
5.03772
0.0222863
3.45672
0.155173
0.534
0.0216591
0.127823
0.0524304
0.0239871
0.0222936
0.0221206
0.150867
0.0268507
0.023484
0.0647468
2.84533
0.0281137
0.275935
0.0218924
0.150502
0.0981483
0.0223919
0.029983
0.0220118
2.84369
2.92031
0.936009
14.6946
0.0389615
0.160749
0.022149
0.0659515
0.0221912
0.023146
0.0222395
3.2755
0.0219535
0.0741936
1.95403
0.0318657
0.0436621
0.0220765
2.8028
0.621773
7.29547
4.67362
0.431201
6.25576
4.33426
6.82554
3.84794
7.18386
0.154824
0.0347355
7.36441
2.80749
0.0220917
3.42193
0.250796
3.19285
0.0216774
0.105563
2.80423
0.0222748
3.43516
0.0260353
6.07508
0.0220994
0.0221821
0.10199
0.30554
0.0347708
0.0988551
0.0221316
0.0229484
3.53713
3.43208
3.54508
0.0901939
0.0234652
0.0227143
0.0221502
0.0421752
1.55729
2.93494
4.10764
6.70771
0.0420842
0.0219758
0.0220005
6.23183
3.88797
3.00124
0.0274439
0.0274875
0.0970046
3.17945
3.94994
0.0216634
0.0220522
4.2018
0.0247631
0.37405
0.0299769
0.022359
0.0379896
0.0520473
4.54039
3.68237
0.0222035
0.0221487
0.0282787
3.67984
2.80739
0.022268
0.231716
3.57901
0.0216601
3.7254
3.07276
6.64088
0.0221309
3.43177
4.08231
0.046566
0.454843
0.0298597
0.346013
6.81891
0.0314167
0.0220701
3.85268
5.96867
0.0221283
0.424109
0.296274
0.0412292
5.83487
3.71071
3.14235
2.79933
0.0381408
0.0240041
0.0257236
2.84832
4.33486
4.09752
4.68564
4.18647
0.0219572
0.0708441
0.022077
0.0221251
0.0268297
0.0220276
0.022097
0.0227272
3.04903
21.0524
5.9105
0.0682422
1.16968
0.0374
0.0220336
0.0220015
4.22265
0.0221575
5.70469
2.93888
0.0221916
0.0222952
2.94049
0.023392
1.15339
0.0308205
0.0218309
0.021964
3.91613
0.0218114
2.84233
3.83742
0.0216846
0.0691914
0.0222928
0.0252651
0.0225331
0.169796
3.83255
0.0220269
2.84915
0.692946
0.025662
0.0223049
0.0232915
0.0258069
0.0222334
6.91342
4.8072
4.4284
0.0654724
3.53377
0.0222751
0.0324433
0.0234867
0.285697
0.0242697
3.44349
0.0219103
3.95684
4.68945
4.76544
2.184
0.0219029
0.0593979
0.0222123
3.63381
0.0223312
0.0328652
0.0315723
0.031042
0.0226748
0.0222526
0.0358115
2.87216
0.0223519
0.0242858
0.027518
0.038268
3.58965
0.0221987
3.44444
2.99431
0.0268597
2.95654
3.30594
3.74425
3.51102
0.0216191
0.0241647
3.72149
2.92798
0.270382
3.09413
3.03104
0.0383122
0.0732256
0.0441016
4.41112
0.0220845
0.0219861
3.45039
0.303923
3.28872
0.029979
0.0218586
0.0220889
3.71855
0.125997
0.0255791
0.401438
0.0222599
0.107903
0.0413202
0.0423262
0.0229855
0.0221979
0.0219978
0.0292865
2.04476
7.63745
0.0216914
0.0223034
2.82228
0.0224526
0.0763237
0.0265862
0.0262414
0.0612483
0.0222865
4.19809
0.041717
0.0257922
18.0781
0.161502
0.0243343
0.0502753
0.0221294
0.0232854
3.56576
0.327501
3.2334
0.0233601
0.0221694
0.0872405
0.0286319
0.0220825
0.0625244
2.85475
0.0291869
0.0536488
0.027526
0.287285
0.0221357
0.0221432
3.22402
3.74542
3.77427
0.0221179
0.697421
0.0219951
0.0220787
0.123804
2.95555
0.118412
0.035647
0.699891
0.0249093
0.0420829
0.0556979
0.888162
0.0232633
0.0217408
0.0229081
0.0258359
0.0366707
0.0220475
2.36616
5.5919
0.0229263
0.0354695
0.0226013
0.0220238
3.16956
3.30801
3.34869
0.140839
0.0225602
0.0963164
2.80445
0.171501
0.201636
0.0375828
0.0325739
4.20531
4.79013
2.79398
0.0218346
0.0335008
0.0222173
0.0394431
3.24013
0.0216913
0.0489917
0.0260963
0.0340729
0.0240574
0.0222651
0.0219307
2.91259
0.0707332
0.043877
0.116057
0.0401173
5.28247
0.0349565
0.593932
0.0220652
2.82467
4.47953
3.67601
0.022265
0.0451528
0.022092
0.0222101
3.14915
0.069769
2.8472
0.0220735
0.0497028
0.463365
2.89033
0.0299106
0.021977
3.43996
0.0222865
0.022285
0.0234094
0.0220824
3.34534
0.0220495
0.022034
0.0422719
0.0289718
0.198197
0.193892
0.0355783
2.86446
0.023085
0.325645
0.022306
2.85108
0.0407099
0.814994
0.326968
4.91193
0.239272
2.80861
0.0254539
3.20082
0.0360318
3.85209
0.343049
0.0288846
0.48388
0.0225002
3.61098
0.0255156
0.0477258
0.0289099
12.6101
0.710525
2.87354
0.0339914
0.0221202
3.89517
0.496588
0.0973378
0.323293
4.05822
2.80409
0.0466412
0.827712
0.0616593
0.0220564
0.0628214
0.562039
0.0895339
26.1609
0.183573
0.021947
0.0226319
0.213004
0.0220942
3.77433
0.0882549
0.0221125
3.02562
5.81221
3.73693
0.157849
0.022766
0.0308839
0.0266717
2.83471
2.93931
0.0268615
4.16187
0.0222434
0.0337885
8.503
0.0220785
0.0536921
0.022006
0.0304866
0.0222522
0.206707
4.70939
0.0321569
0.0322252
0.0219343
0.232353
0.0222384
0.0219658
0.0358617
0.0220055
0.430848
2.79029
11.4175
2.85814
0.0219578
2.93804
0.0221999
0.0392398
0.210843
0.0230553
3.91489
0.0912509
0.0223532
0.0219965
0.0587758
0.0443723
0.257015
3.74385
0.0265565
0.0256482
3.15726
0.108249
6.03043
4.53849
20.1882
3.42362
2.86554
10.3048
0.0222897
0.0221234
0.0600026
0.0226472
0.0681729
0.0608416
5.33344
2.86848
6.48413
0.0220786
0.0220872
0.178198
4.35853
2.85659
10.9608
2.96231
0.058588
0.0352524
10.7412
4.64809
0.0350242
2.79074
0.0361351
0.0417817
3.39467
0.0681109
0.0229185
3.48097
2.48893
0.0301569
0.229682
0.0249841
6.54024
3.16748
5.08353
0.022095
0.0217764
0.357938
0.0220883
0.0225357
0.0220849
0.0218682
0.0220843
0.0220844
2.82369
0.0318821
0.0516119
3.04626
0.0219819
0.022088
0.0437959
0.0339576
0.0339606
0.0220911
0.089521
0.035708
0.0276981
0.102684
3.65952
0.0220977
0.0646768
0.022106
0.0220917
0.0217432
0.0221148
2.84731
0.0222953
0.0221297
0.0221245
0.0544996
3.02779
3.17575
2.83011
10.1497
0.0683162
3.43019
3.25757
0.0220206
0.0469035
3.65307
3.76427
0.0221352
0.0396841
0.0721045
0.0398769
0.0220907
0.0687556
0.0616873
0.0486463
0.0217281
0.0730667
5.25832
0.0216804
9.76695
2.79615
0.0477512
0.777831
0.043831
0.0221194
0.0316824
0.0221301
0.342195
2.8064
0.0219792
0.0498026
0.0220932
0.021999
0.0225357
0.0222866
0.0433433
0.0221859
0.196299
0.247942
0.0297261
0.0269132
0.0653824
0.0220928
0.0484639
0.0507388
0.0231854
0.0221288
0.0221552
2.8147
0.0221434
5.86341
0.0698714
0.0222575
0.0222569
0.0222586
4.01336
0.0285052
0.0461132
0.0707881
2.81018
0.0295252
2.9335
9.05944
0.0464871
0.0220577
2.94453
0.050689
4.59109
0.0969418
2.88029
0.0221255
0.0657199
0.0633074
2.84922
0.0221348
0.0713526
2.81763
0.0220559
3.83148
5.99332
3.9429
0.0221042
0.0222347
2.84089
0.022094
3.41516
0.517114
2.94562
3.9387
0.0219301
1.08833
4.20981
3.41994
0.0274129
8.33907
0.0233246
0.030476
0.0221112
3.56426
4.52095
0.0558662
3.72432
0.0221926
2.95296
3.59409
3.38685
0.0221871
0.0221034
2.7922
0.100642
0.0219681
0.0220925
1.39261
7.67809
0.0220979
0.0220532
0.0221443
0.0221557
0.0249722