/*--------------------------------*- C++ -*----------------------------------*\
| =========                 |                                                 |
| \\      /  F ield         | OpenFOAM: The Open Source CFD Toolbox           |
|  \\    /   O peration     | Version:  v2012                                 |
|   \\  /    A nd           | Website:  www.openfoam.com                      |
|    \\/     M anipulation  |                                                 |
\*---------------------------------------------------------------------------*/
FoamFile
{
    version     2.0;
    format      ascii;
    class       surfaceScalarField;
    location    "400";
    object      phi;
}
// * * * * * * * * * * * * * * * * * * * * * * * * * * * * * * * * * * * * * //

dimensions      [0 3 -1 0 0 0 0];
oriented        oriented;


internalField   nonuniform List<scalar> 
20580
(
-0.150156
0.00621203
0.143945
0.143339
-0.265956
0.122613
0.272544
-0.129209
0.00671269
0.00229859
-0.00901134
0.580812
-0.616611
0.0357589
0.276682
-0.209105
-0.0675808
-0.317609
0.0503703
0.576886
-0.580297
0.00336959
0.0084632
-0.00865196
0.000189016
0.423263
-0.25103
-0.172237
0.143151
0.0284825
-0.171636
-0.517014
0.312868
0.204133
-0.214816
0.286228
-0.0714148
-0.0184458
0.00880916
0.00963666
0.211416
-0.0435837
-0.167831
-0.136351
0.11361
0.0227435
0.00934964
0.00561422
-0.0149636
-0.166
0.362075
-0.196086
0.0831929
-0.0861765
0.0029837
-0.138486
-0.0116691
0.0602515
-0.208783
0.148531
0.234455
-0.215388
-0.0190746
0.0169834
-0.0189673
0.00198354
-0.582959
0.591088
-0.00813582
0.0329467
-0.0347181
0.00177117
-0.00606402
0.132087
-0.126021
-0.0147281
-0.0383526
0.053082
-0.0325296
0.0278561
0.00467347
-0.00146021
-0.00363084
0.00509135
0.488407
-0.332556
-0.155867
0.0117745
-0.00572418
-0.00605019
-0.23849
-0.0791131
-0.134849
0.147245
-0.0123965
-0.00773625
0.00821762
-0.000481182
-0.155325
0.163943
-0.0086182
0.00481231
-0.00247955
-0.00233282
-0.614825
0.0318648
0.00946532
-0.0309671
0.0215016
0.00807065
-0.0119662
0.00389561
-0.141851
-0.153928
0.295768
0.0096424
0.000557373
-0.0101997
0.00157852
-0.00303855
0.0140867
-0.0140867
0.110522
-0.014248
-0.0962754
-0.00334629
0.00194679
0.00139972
0.451993
-0.285836
-0.166174
-0.543373
-0.069812
-0.149611
0.0583043
0.0913085
-0.0687579
-0.210829
0.279576
-0.299067
0.0842488
0.0199298
-0.0198975
-3.22124e-05
0.135108
-0.28103
0.145919
-0.114251
-0.0220987
-0.0535297
-0.136086
0.18962
-0.0148583
4.57183e-05
0.0148128
0.0959354
-0.237795
0.00755611
-0.142405
0.0120233
-0.0023809
-0.0199183
0.0583574
-0.0384386
0.0130216
-0.0179274
0.0049056
-0.35422
-0.16281
0.0495762
-0.0643035
-0.218811
-0.19555
0.41436
-0.206687
0.13792
-0.0533494
0.0954962
-0.0421474
-0.0880559
0.034706
0.0168864
-0.00386472
-0.0943254
0.0713403
0.354947
-0.259159
-0.0957989
0.00549477
0.00385048
-0.00934513
0.0125118
-0.000632149
-0.0118795
0.189092
-0.203045
0.0139523
-0.0240133
-0.227624
0.25163
-0.0172858
-0.000641807
0.19523
-0.0190089
-0.176219
0.218841
-0.225074
0.00622474
0.0183794
-0.00902977
0.352549
-0.53369
0.181123
0.034928
-0.00198156
0.448326
-0.210148
-0.238196
0.254958
0.099977
-0.0983863
0.124644
-0.0262573
-0.00683216
-0.148497
0.0143603
-0.0170783
0.00271808
-0.0175147
0.000228848
0.00794717
-0.0122048
0.00425771
0.0535639
0.180884
-0.0130946
0.00276743
0.0103273
0.22434
0.151255
-0.375601
0.00772954
0.00404509
0.26563
-0.130524
-0.322857
0.0843709
0.0179375
-0.0179374
0.0131494
-0.00520219
-0.00971431
0.01448
-0.00476553
0.0174556
0.0839952
-0.101452
0.159279
-0.358149
0.198854
-0.0998609
0.126132
-0.0262706
0.0183382
-0.0194823
0.00114418
0.0351414
0.0931936
-0.128336
-0.128606
0.0287465
0.126007
-0.0570923
-0.0689142
0.0932303
-0.12109
0.0278605
-0.177413
-0.0706043
0.248012
-0.470378
0.124585
0.345777
0.155884
-0.191747
0.0358621
-0.157604
-0.312792
0.0115057
0.00100617
-0.0794286
-0.243425
-0.342854
0.176842
0.00518994
0.149797
-0.154992
0.34681
0.105163
-0.104326
0.131747
-0.0274213
0.00428383
0.131958
-0.136242
-0.136151
0.128474
0.00767748
0.175449
-0.228975
0.175266
-0.402473
0.227188
0.467609
0.109236
-0.00312371
0.00983645
0.0102351
-0.00474025
0.0876239
-0.106467
0.0188411
0.152687
-0.424704
0.272
-0.272192
0.293871
-0.0216891
-0.010184
-0.00148892
0.0116733
0.0856151
-0.10594
0.0203245
0.0183323
-0.0649223
0.0465911
0.347039
-0.18778
0.0423054
0.109604
-0.151913
-0.00919954
-0.000439725
0.00963938
0.168673
0.0136147
-0.182288
-0.198769
-0.0166259
-0.156073
0.195229
-0.0391628
-0.0355315
0.0449969
-0.00604408
-0.00169197
-0.0177579
0.160909
0.00352914
-0.0149313
0.0114023
-0.0405767
-0.00958589
-0.00261878
-0.000891061
0.119758
-0.118867
-0.186105
0.0325454
0.153561
-0.11984
0.0214546
0.249997
-0.238648
-0.0113531
-0.0724083
0.296743
-0.0769244
-0.00599625
0.0829216
0.00228638
-0.0218558
0.0195694
-0.0254722
0.226132
-0.200667
0.521698
-0.169163
0.0074253
-0.01254
0.00885368
0.00368629
-0.0821716
0.124475
-0.0691438
-0.0594621
-0.130442
0.0261167
-0.125887
0.13017
0.0960896
-0.0992177
0.00312825
-0.222248
-0.0114549
0.2337
0.135738
0.182166
-0.317906
0.309545
0.212623
-0.522185
0.0120121
-0.00394135
-0.206638
0.0967701
0.109869
-0.0485962
0.219375
-0.170775
-0.413889
-0.165581
0.579461
-0.00264716
0.00474006
-0.00209242
0.175483
-0.0196021
-0.052231
-0.0973775
-0.00907037
-0.00937546
0.00605645
0.000394578
-0.00645066
0.00699753
-0.000940593
0.0182784
0.00165163
0.168998
-0.163813
0.00572941
-0.00532504
-0.000404453
0.533427
-0.326179
-0.207262
0.441221
-0.265981
0.169563
-0.165073
-0.00449073
0.547166
-0.109561
-0.437635
-0.0125085
0.00279381
-0.0434703
-0.0152041
0.0586746
0.101427
-0.119884
0.0184586
0.262652
0.178546
0.200631
-0.181289
-0.0193379
0.12591
-0.0244837
0.0966866
-0.0110726
0.127976
-0.00572595
-0.173078
0.178799
0.202201
-0.0335279
-0.0153699
0.0153699
-0.00494236
-0.0075977
0.111469
0.0357758
-0.0607283
-0.0688817
0.12961
0.23535
-0.00365929
-0.231694
-0.126981
-0.250418
0.37738
-0.027281
0.0295678
-0.149701
-0.0569359
0.012625
-0.00381584
0.149348
0.127329
-0.22385
0.198371
-0.109266
0.135681
-0.0264134
0.137686
-0.0262167
0.214717
0.0999001
-0.314619
0.119441
-0.319764
0.200311
-0.0217567
-0.0656306
0.0873878
0.112145
-0.127801
0.0156568
-0.00464447
0.0127999
-0.00815521
-0.0137989
0.0117647
0.00203456
0.0231875
0.18823
0.00463906
-0.0574002
0.0527607
0.0069877
-0.0116321
0.199492
-0.207468
0.00797589
0.131062
-0.150957
0.0198969
-0.00970525
0.00100766
0.00869788
0.223081
-0.0238059
-0.19928
-0.122525
0.120003
0.00252319
-0.249585
-0.0226146
-0.00769353
-0.645455
0.391343
0.254113
-0.130635
0.171173
-0.0405372
-0.21386
0.194134
0.0197195
-0.254533
-0.0445366
-0.00309279
0.0804864
-0.0773936
-0.19011
-0.134447
0.32455
0.000127921
0.0272747
-0.198655
0.461284
0.138006
-0.129877
-0.00812838
0.0166024
-0.00224222
-0.0150416
0.0128834
0.0021585
0.0231917
-0.135575
0.112382
0.156704
-0.0256415
0.667942
-0.372514
-0.295427
-0.0208116
-0.0561121
0.166863
-0.454044
0.287165
0.0333083
5.10182e-05
-0.00669272
0.00664182
0.0930711
-0.1538
-0.023851
0.246926
-0.480203
0.221557
-0.00196571
-0.011833
0.223076
0.265314
0.0459232
-0.0289403
-0.0130597
0.0112961
0.00176379
-0.101139
0.136279
0.144804
-0.558697
-0.0272878
0.0825962
-0.055309
0.0170703
-0.0193727
0.00230247
-0.00286808
-0.000477991
-0.00891371
0.186867
-0.19731
0.0104437
0.069277
-0.0590136
-0.0102626
0.0914995
-0.094592
0.0314099
0.169224
0.104841
-0.020847
0.148998
-0.168694
0.0196901
-0.00225704
0.0119128
-0.00965575
-0.131057
0.132268
-0.00121155
-0.308473
0.645088
-0.336667
0.0528644
0.172299
-0.225165
0.0168671
-0.0044046
0.00175757
0.00651416
0.000818533
-0.00733271
-0.347538
0.220542
0.0498924
0.180732
0.159491
-0.340228
0.104834
-0.102158
-0.00267555
0.0995829
-0.09971
0.000127754
-0.11138
0.164244
0.168592
0.00688896
-0.14914
0.0180825
-0.103287
0.305236
-0.201959
0.0630349
0.0629722
-0.147941
0.0491409
0.0988003
0.038748
-0.0300127
-0.00873728
0.456996
-0.188188
-0.268817
-0.293843
0.0393086
0.116262
0.00781114
-0.00697953
-0.000833762
0.0120858
-3.72619e-05
-0.0120483
0.166031
-0.0119006
-0.15413
0.392534
-0.239865
0.0932502
0.00343549
-0.0976363
0.0956815
0.00195487
-0.109979
0.135999
-0.0260202
0.173376
-0.0047857
0.00762253
0.000188438
0.0187354
-0.0187729
3.76389e-05
0.165934
-0.208452
0.0425156
-0.104946
-0.0711417
0.176093
-0.031897
0.0387776
-0.00688061
0.195722
0.161703
-0.357443
0.225594
0.295293
-0.520903
-0.129701
0.0197225
-0.0398638
0.160263
-0.120402
-0.465019
0.2265
0.238506
0.487651
0.135828
-0.623484
0.402717
-0.235869
-0.561075
0.567599
-0.00657077
-0.010141
-0.174064
0.184204
0.535122
0.00883018
-0.000366697
-0.105789
0.166041
0.16279
-0.292415
0.129613
0.000407827
-0.0132133
0.00302948
0.0488273
0.220318
-0.269148
-0.000479582
0.0188811
-1.82487e-05
-0.0188626
0.0612418
0.188752
-0.190205
0.239031
-0.238115
0.132327
-0.0148605
0.0158234
-0.000962582
-0.000637261
-0.00240806
0.00304533
0.181011
-0.0397608
-0.141251
0.458978
0.121794
0.00533193
0.000397531
0.179195
0.166393
-0.163394
-0.00299963
0.0182821
0.000599369
0.0362666
-0.0333196
-0.00294744
-0.267504
0.218911
-0.0441338
0.0122367
-0.0120523
0.0692171
-0.0571649
0.00806784
-0.0119902
0.00392207
0.114396
0.0125481
-0.126944
0.0541727
-0.113414
0.0592418
0.0122692
-0.00874001
-0.0106687
-0.000405682
0.0110745
-0.0110878
-0.0214417
0.320214
-0.200782
-0.0055447
0.0156909
-0.0101461
0.0124442
-0.0124442
0.0103802
-0.0369495
0.0265704
-0.0363946
0.0467762
0.143367
0.0561246
0.174739
-0.0208729
-0.153867
0.00876135
-0.152254
0.143491
-0.00565641
-0.00743808
0.0636222
-0.115731
0.0521093
-0.214207
-0.301055
0.515218
-0.108066
-0.43531
-0.0350728
0.182647
-0.147581
-0.00398232
0.01205
0.0321903
0.376086
-0.180384
-0.000561503
0.0384124
0.122353
-0.160768
-0.192921
0.0368436
-0.0516463
0.271025
-0.0157382
0.000877786
0.09128
0.00197029
0.0214312
0.00405749
-0.217926
0.202742
-0.226599
-0.00166456
-0.000391996
0.00205681
0.243528
-0.00818131
-0.00154656
-0.0565782
0.222509
-0.133379
-0.104737
0.136986
-0.0985756
0.331982
0.292325
-0.129548
0.143285
-0.145655
0.00236957
-0.0380404
0.131233
-0.136847
0.135981
0.00086476
-0.0475839
0.00143496
-0.00309929
0.195627
0.0304993
-0.00129487
-0.0981833
0.0871894
0.010994
-0.203097
0.439006
-0.235938
0.0358899
0.000377048
-0.115518
0.142818
-0.0272991
0.0169353
0.00140296
0.183874
-0.218953
-0.151108
0.0134086
-0.0642936
0.0443755
-0.0344582
0.0360671
-0.00160889
0.108887
-0.137101
0.0282146
-0.0127152
0.0115617
0.00115356
0.302283
-0.239571
-0.0627192
0.0121547
-0.0556249
0.00184789
0.0122389
0.0075555
-0.191815
0.184258
-0.00989321
0.00763629
-0.0189479
-0.172645
0.191591
0.0122672
-0.00308294
-0.00918411
0.0936477
-0.198593
-0.037589
-0.140111
0.127269
-0.135157
0.00788884
0.0796271
-0.103115
0.0234863
0.308753
-0.173017
0.250375
-0.173753
-0.0766248
0.0878115
-0.127678
0.0139441
-0.289569
-0.0315782
0.321135
-0.0132771
0.179308
-0.00340195
0.00155491
0.0018472
-0.205274
0.181255
-0.0863621
-0.0645941
-0.0100804
0.0119748
-0.00189421
0.0944614
-0.263043
0.168575
-0.0488407
0.108021
-0.0591813
-0.172779
0.165829
0.00695386
0.00215199
-0.00278917
0.187478
-0.211289
0.141448
-0.14751
-0.0674434
0.0720816
-0.00635667
0.171969
-0.17644
0.00447167
0.0102953
-0.00378116
-0.000444549
-0.0931922
0.0659039
-0.283911
0.180615
0.125286
0.0179963
0.178036
-0.194701
0.0166638
-0.13217
-0.0189359
0.423009
-0.202366
-0.220657
-0.0151327
0.0151326
-0.00145942
0.000545499
0.000914023
-0.0279277
0.0336615
-0.00573368
-0.0455604
0.248297
-0.0218701
0.0601644
-0.0531036
-0.00706019
0.0112349
0.000850995
0.48998
-0.212887
-0.277098
-0.0158031
0.0102583
-0.12854
0.10603
0.0225029
-0.00179738
-0.00227714
0.00407456
0.175601
-0.0266064
-0.00396938
-0.0237048
0.0276744
-0.0328078
-0.242377
0.27518
0.565135
-0.0179995
0.000139567
-0.0149978
0.0610154
-0.00917255
-0.0518426
0.150043
0.273217
-0.215158
-0.050801
-0.151252
0.0648914
-0.152026
0.459665
-0.307664
-0.00335767
0.00189845
0.0291634
0.145575
-0.141008
0.02549
-0.234589
0.235208
-0.000618137
0.0241804
0.278094
-0.334511
0.247457
0.0870542
-0.0360965
0.0016384
-0.0907737
-0.201656
-0.0377461
-0.296765
0.00896222
-0.0207236
0.0117617
-0.00220991
-0.00119188
-0.18064
-0.0181359
0.019401
-0.072129
0.0527284
0.215672
-0.434481
0.513516
-0.218242
0.281305
-0.18685
-0.00457976
0.136159
-0.158845
0.0226884
-0.322974
0.0214177
0.301545
-0.327622
0.231808
0.0957989
-0.0258175
0.11344
-0.116169
0.308496
-0.192326
0.00166667
0.000627428
-0.00229374
-0.169223
-0.378467
0.54767
-0.16585
-0.0605187
0.226368
0.00359154
-0.00164457
0.0172355
-0.102563
0.0853261
0.435452
-0.613505
0.178033
0.496665
-0.19975
-0.296927
-0.213096
-0.0214874
0.329693
-0.122075
-0.207616
0.105135
-0.107414
0.0022789
-0.016852
0.011828
0.00502433
0.209013
-0.0221463
-0.00696715
-0.039598
0.046566
0.235738
0.263138
-0.484388
0.221236
0.00801572
-0.00934006
0.00132444
-0.0448922
-0.160801
0.0767717
0.0840296
-0.297
0.277944
0.0190494
-0.0121574
-0.121801
0.12091
0.0567057
-0.00770364
-0.0490027
-0.238998
0.0615803
-0.191486
0.0189285
0.172553
-0.0367692
-0.213495
0.186641
0.0268564
0.010799
-0.0112046
0.059679
0.000485755
-0.0377167
0.00978972
-0.239367
0.0922194
0.147145
-0.0160456
-0.168863
-0.14173
0.310581
0.00110962
-0.150483
-0.0222926
0.0467526
0.0909336
0.19013
-0.0120973
0.222891
-0.104122
0.121356
0.148689
-0.444045
-0.172598
-0.0129733
0.0123924
0.000580952
-0.00139826
0.00941406
0.00209435
-0.000427437
-0.0090099
-0.000659122
0.009669
-0.00788947
0.00968806
-0.0190866
0.00939875
-0.00402811
0.145111
-0.0163189
-0.128793
0.576331
-0.299835
-0.276498
0.0251171
-0.0739581
0.143287
-0.394319
-0.377778
0.0881954
0.0072663
-0.134462
0.127195
0.00988303
-0.0127104
0.00282714
-0.0534191
-0.204286
0.257702
0.211965
-0.225195
0.0132262
-0.142715
0.109306
0.0334072
-0.153496
-0.00122695
0.154723
0.395803
-0.177758
-0.218045
-0.00407472
-0.00134779
0.00542259
0.459409
-0.292522
-0.166901
-0.00905033
0.00920954
-0.000159153
0.0904273
0.0147067
0.160386
0.287926
-0.315236
0.222755
0.0924804
0.102554
-0.123697
0.0211457
0.00542771
-0.241959
0.0247751
-0.0248682
9.30889e-05
-0.0246215
0.0497384
-0.151158
0.365823
-0.214639
-0.0133449
0.0100126
0.00333251
-0.00118226
0.0843753
0.121873
-0.122992
0.00111886
-0.0591841
-0.180187
-0.00808401
-0.0126393
-0.0181044
0.00194468
0.0161598
-0.347791
0.196646
0.00428079
-0.0844469
0.0801659
0.371601
-0.189393
-0.182221
0.101246
-0.0182967
0.0274367
-0.00913962
0.00554873
0.00671855
0.20482
-0.193737
-0.0110843
0.158044
-0.0218816
0.235125
-0.405325
0.170198
0.130048
-0.133678
0.00363081
-0.00919997
5.48675e-07
0.0107351
-0.0128772
0.00214226
-0.268802
0.406132
-0.137332
-0.0185293
0.0109766
0.0075527
-0.354566
0.112432
-0.0197781
0.176795
-0.172022
-0.00476928
0.343085
0.146875
-0.0899437
-0.135136
0.0100952
-0.0114849
0.00139
0.132318
-0.0526916
-0.00324944
0.222542
-0.275969
-0.169099
0.328585
0.0062812
-0.0052102
-0.0010713
0.147647
0.403008
-0.550661
-0.138975
0.0133164
0.125657
-0.196318
0.262791
-0.0664718
0.197074
-0.181339
-0.0157322
0.199669
-0.0271883
-0.172481
0.000246131
0.00319417
-0.00344012
0.0176637
0.00107187
0.0828963
-0.239275
0.156375
0.0157201
-0.0138721
0.0888666
0.192814
-0.281678
-0.0133043
0.149783
-0.136481
0.0037717
-0.00219299
-0.0126078
0.0126536
0.291812
-0.315616
0.023793
0.136365
0.00145813
0.0917724
-0.011137
-0.000347802
0.0154137
-0.076407
0.0609938
-0.0208764
0.150925
0.0759475
-0.0192425
0.199388
-0.0225876
-0.0768871
0.170543
0.00394458
-0.00389361
0.00279017
0.00120063
-0.00399068
-0.0462924
0.126883
-0.0805926
-0.00885277
-0.000197493
-0.0884106
0.0994975
-0.0110865
0.00241593
-0.000792532
-0.00162321
0.315495
-0.222587
-0.0929161
0.0481419
0.0102162
0.0329407
-0.0369099
0.514612
-0.243299
-0.271325
0.015931
0.0020066
-0.00243506
0.0006599
0.00177536
0.163266
0.0160954
0.311581
-0.125815
-0.185775
-0.0503824
0.0434155
-0.105683
0.135514
-0.029832
-0.00700304
0.0131979
-0.00619505
-0.269073
0.178288
0.601373
-0.0574404
-0.543956
-0.0876024
0.131718
-0.0441162
-0.147934
-0.00556346
-0.500957
0.331714
-0.00262584
0.50105
0.1003
-0.106294
0.0178837
0.231489
-0.212518
-0.0189736
0.0155154
-0.147684
-0.250191
0.179581
0.206933
0.18887
-0.150982
0.0125459
0.138432
-0.00818833
-0.0103409
0.183856
-0.169319
-0.0145364
-0.00204761
0.00373714
-0.292404
0.484756
-0.192374
-0.42258
0.0102125
0.412391
-0.00690649
-0.158168
-0.144982
-0.182652
-0.0961098
0.13909
-0.0429806
-0.278724
0.193683
0.085039
-0.108404
-0.0523972
0.0578515
-0.0097088
0.321599
-0.557138
0.235537
0.00678698
-0.00688635
9.94809e-05
0.316154
0.351788
-0.120174
0.115734
0.00444194
0.0116696
0.00405058
0.00549225
-0.00195337
-0.0035389
0.0267598
0.0166332
-0.0236366
-0.0429639
-0.0997536
0.089592
-0.126008
0.036415
-0.00161369
-0.00082103
0.241032
-0.390329
0.149295
-0.00377602
-0.000298652
0.131112
-0.171167
0.178721
-0.000435318
-0.00857454
-0.00168419
0.0441056
-0.0424215
-0.359173
0.156002
-0.139281
0.0431708
-0.103117
0.317832
0.00279946
-0.000383397
-0.0205125
0.0038558
0.0166568
0.0304965
0.188525
-0.219031
0.049584
-0.000558718
-0.00151426
0.00207313
0.616698
-0.340838
-0.275859
0.389813
0.226886
0.142301
-0.0102119
0.00736896
-0.000581917
-0.0164959
0.025284
-0.00878794
-0.220906
0.0306999
0.132914
-0.130586
-0.00232804
0.175736
-0.291899
0.321473
-0.380143
0.0586691
0.0361442
-0.0510531
0.0149092
-0.00224167
0.150922
-0.0894328
-0.0614896
0.163024
0.319128
-0.482159
-0.0749277
-0.0730128
0.0857162
0.0499309
-0.135648
0.0303856
-0.152318
0.121935
-0.270059
0.0935065
0.176551
-0.205768
-0.0180899
-0.138651
0.0329657
-0.1753
0.0876974
-0.146099
0.0938693
0.0218038
0.167289
-0.144835
-0.0582109
-0.124339
0.0780448
-0.095361
0.0876566
-0.0215252
-0.0646511
0.00159315
-0.00458343
0.00299094
0.000815735
0.0239594
-0.0864014
0.0172585
-0.0127964
-0.000331638
0.0131282
-0.0108901
-0.11535
0.126237
0.00703081
-0.0253271
-0.00800335
0.147076
0.198708
-0.345794
0.117207
-0.194085
-0.112227
0.0907023
0.000122149
0.183224
-0.183352
0.22621
-0.436377
-0.451806
0.24042
0.211369
0.131976
-0.111009
-0.0209657
-0.00158642
-0.0111286
-0.221219
0.055369
0.0131263
-0.0018301
0.18456
-0.476987
0.00736661
-0.0238622
-0.028395
0.0982046
-0.069811
0.0201883
-0.00190588
-0.111491
-0.0277906
-0.0332877
0.220761
0.0984494
0.174091
0.00282303
0.0173655
0.0954283
0.0554927
-0.140872
0.129978
0.00791224
-0.319302
0.343473
-0.0720322
0.089377
-0.0173456
0.0118047
-0.0659829
-0.0403106
0.189797
-0.0154347
-0.174364
0.124041
-0.109159
-0.0148842
-0.247318
0.214507
-0.329299
-0.0197604
-0.187709
0.336842
-0.01537
-0.00256732
-0.00177407
0.00434158
-0.40995
-0.151162
0.0552777
-0.0191335
-0.000700345
-0.136504
0.0250123
0.0101537
-0.0128193
0.0026657
-0.00772611
-0.0117561
-0.101291
0.0353086
-0.0290165
0.118608
0.170285
-0.143525
0.132786
-0.243766
-0.0500788
0.0306394
0.338002
-0.368655
0.00525054
-0.427864
0.391464
0.170284
-0.138841
-0.0314445
-0.0115143
-0.110014
0.121528
0.108793
-0.0230773
-0.00317681
0.0310327
-0.240659
0.00104611
0.239607
-0.000874696
0.499284
0.0977394
0.00806237
-0.00576378
-0.00555754
-0.144466
0.150021
0.0583222
0.440965
0.231861
0.247239
-0.479099
0.00594803
-0.0046585
-0.00128977
0.0188202
-0.227931
0.00516387
0.011722
-0.0168859
-0.00208982
0.000476576
0.129315
0.111594
-0.141104
0.0295098
-0.242318
-0.147956
0.390308
0.00136943
0.00684833
0.0142798
0.154485
-0.168769
0.0523444
-0.256635
0.00679877
0.346387
0.177397
-0.523781
0.0119402
-0.250593
-0.150731
-0.19419
0.344921
-0.0202444
0.162296
-0.142049
0.011163
-0.0110118
-0.000151055
0.0141339
-0.197173
0.183035
-0.191631
0.177933
0.0136972
-0.122754
-0.00578783
0.0143184
-0.00358329
-0.178672
0.10979
0.0268448
0.132384
-0.159233
0.000313741
-0.00288953
0.00257618
-0.357157
0.387782
-0.00216542
-0.325949
-0.193625
0.519559
0.0409091
0.267587
-0.0323083
-0.00104756
0.0333558
-0.0852263
0.13282
-0.0475929
-0.0183458
-0.117805
0.137283
-0.0301038
-0.10718
0.00741582
-0.535922
0.319352
0.216572
0.388933
0.208091
0.125089
-0.138394
0.248198
0.0672882
-0.112332
-0.423586
0.215421
-0.239678
0.0242615
0.136374
-0.0193909
-0.116985
-0.395954
0.433365
-0.037434
0.0914731
-0.120954
0.02948
0.0359882
-0.0201681
0.0203413
-0.000172454
0.0158353
0.121446
-0.00380934
-0.00383863
0.00764803
-0.0129293
0.132687
0.479175
0.12013
-0.134062
0.0139318
-0.519769
0.242843
0.276905
0.137789
0.112584
-0.00509071
0.006684
0.00256171
-0.00295338
-0.000985791
-0.00242045
-0.000468907
-0.195276
0.309684
-0.114422
-0.190538
0.221025
0.119012
-0.0874216
-0.0315917
0.221887
-0.21736
-0.00453332
-0.198252
-0.186799
0.385036
-0.00733145
-0.0116361
0.101613
0.00322123
-4.85106e-06
-0.0100152
0.0100202
-0.0120277
-0.13291
0.0476839
-0.343662
0.307199
0.0364614
0.000687424
-0.333255
0.0745472
-0.0389262
-0.0356213
-0.0991395
-0.0418693
0.263447
0.49741
0.127552
-0.624958
0.0338787
0.094596
0.11141
0.0145033
-0.125914
0.0100435
-0.251416
0.0291658
-0.626717
0.360233
0.266469
0.012253
-0.00109007
-0.249
-0.0210594
-0.00657413
-0.179209
0.185782
0.364186
-0.516242
0.0104423
-0.0123929
0.00195056
-0.476511
0.167991
-0.0184918
0.00461982
-0.28023
-0.123759
0.403986
0.0277733
-0.128913
0.193682
-0.175028
-0.0186542
0.135503
-0.0635892
-0.071915
-0.00183432
-0.312293
0.0846622
-0.278659
0.169173
0.109483
0.594796
-0.346279
-0.248547
-0.0184649
-0.0393361
0.0578012
0.0634924
-0.236827
0.173333
0.00719794
-0.00637932
-0.0614168
0.26809
-0.206685
-0.0248782
0.00869673
0.0161816
1.57523e-05
0.00832264
-0.00833833
0.00381967
-0.180554
0.176731
-0.157492
0.409147
-0.251684
-0.00125216
-0.00790186
0.00915401
-0.00734345
-0.00606422
0.0134078
0.237794
-0.1549
0.110389
0.0224322
0.0366602
-0.280429
0.0101918
-0.000105075
-0.0100866
0.330184
-0.18312
-0.0560912
-0.0561362
0.472078
-0.221815
-0.250274
0.426068
0.168705
0.0214984
-0.0163338
0.00235951
0.288263
0.20839
-0.197296
0.061212
0.00161249
0.00961689
-0.0112292
-0.061257
0.0683149
-0.00705808
-0.00140159
0.000842901
-0.123111
-0.224444
0.000842578
-0.0136388
0.11306
0.343927
-0.604519
0.208535
-0.225017
0.213558
-0.41005
0.301983
0.280728
-0.550191
0.269461
-0.000620791
-0.000709356
0.00133025
0.00626032
-0.00395933
-0.00230036
-0.286327
0.0962051
-0.432685
0.532961
0.165486
0.0393321
0.0775342
0.269266
-0.00913303
0.00788079
-0.0169708
0.00930505
0.00960369
0.00266555
-0.182538
-0.0961225
-0.0969568
0.250309
0.264291
-0.0231555
-0.185627
0.0818323
-0.110229
-0.139584
0.380616
0.187569
-0.513526
-0.104399
0.0782916
0.0261072
-0.00786125
-0.0126511
0.137335
-0.0257384
-0.00975565
0.1729
-0.0273272
-0.145572
-0.408866
0.213313
0.165022
0.00433437
-0.169358
0.134532
-0.0241431
0.0159284
-0.0166761
0.000747821
0.173574
-0.183715
0.0281458
0.0070926
-0.0352376
-0.136034
0.0368955
0.0572558
0.43039
-0.0010053
0.00453706
-0.00353183
-0.00138956
0.0003842
-0.000461519
-0.00943951
0.00990109
-0.0289647
-0.0184776
0.0279988
-0.00952072
-0.0865272
0.178743
0.0575872
0.0116904
-0.0116783
0.0428222
-0.0311437
-0.19139
0.191506
-0.580733
0.366481
-0.000482909
-0.000264955
0.000747951
-0.230889
0.230177
0.000705559
-0.473616
0.316092
0.0464988
0.245302
-0.226697
-0.00420017
-0.00226828
-0.1004
0.232031
-0.383634
0.151585
-0.00580413
0.170825
0.014255
0.00234729
-0.139766
-0.109495
0.249253
0.00244831
0.0129217
0.0688545
-0.218537
0.14968
0.00221213
0.120597
-0.122808
-0.00357342
-0.00794358
0.0115171
-0.288352
0.0630798
-0.0476655
-0.229239
0.109053
0.120182
0.182819
-0.179001
-0.0685091
0.00725182
-0.0104893
-0.119171
0.01417
0.105
0.171837
-0.00836285
0.00997538
-0.16067
0.331607
-0.170963
-0.000327141
0.00823004
-0.00790277
-0.0102486
-0.181569
-0.0155951
0.00211531
0.0134798
-0.0177541
0.0167717
0.000982422
-0.00941639
0.00908932
-0.00405824
0.146613
-0.142554
-0.151928
-0.149902
0.301824
0.111265
-0.306553
-0.315615
0.658245
-0.342628
-0.19059
0.418827
-0.110065
-0.308765
0.0103595
-0.173783
0.00069986
0.0107424
-0.149892
0.139148
-0.0629524
-0.115719
0.127313
-0.213845
-0.367651
0.244522
0.00123619
-0.201216
0.199986
-0.187223
0.164448
0.0227676
-0.151548
-0.163688
-0.139412
0.19297
-0.00288888
-0.00106008
0.00394907
-0.0161933
-0.0431503
0.059344
0.014877
0.186166
-0.201045
-0.154127
0.011091
0.143033
0.000529884
-0.00101268
0.223902
-0.00801153
-0.00397894
-0.566168
0.208996
0.139179
0.0139794
-0.153163
-0.142178
0.205668
-0.183398
0.357088
-0.173703
0.102586
-0.148246
0.0456568
-0.160126
0.423252
-0.141914
0.373925
-0.0535839
0.107757
-0.0983465
0.280511
0.106624
0.0297489
-0.312357
0.167364
-0.015931
0.00169912
0.0142319
-0.0392939
0.0440195
-0.00472611
0.00560927
-0.100382
0.0947725
0.0934704
-0.0891896
0.129177
-0.335454
0.20627
-0.00272348
-0.130179
0.128048
0.00213068
0.527166
-0.00400452
-0.0128342
-0.212364
0.00350882
-0.0115204
0.214582
-0.203961
-0.010622
-0.0580554
0.0268592
0.00903104
-0.0107052
0.00062485
-0.135928
0.0810958
0.0548312
0.116445
0.203236
-0.319692
-0.00262177
-0.00934782
0.0362067
0.00895936
-0.12258
-0.106665
0.328258
0.156477
-0.26947
0.396708
-0.127232
0.078095
0.102916
0.259246
-0.303361
0.0441103
0.000672387
-0.0187767
-0.0136907
0.282344
0.293986
-0.0426494
-0.0555338
-0.123344
0.0426536
0.0806895
-0.309174
0.158445
0.000674459
-0.00356322
-0.0112422
-0.00724945
0.112603
-0.0109889
-0.225979
0.164558
0.0029133
0.000281038
0.163377
-0.16346
0.477034
-0.313596
-0.0114295
0.0114247
-0.126135
0.152976
0.382088
-0.270123
-0.111972
0.424101
-0.173697
-0.250418
-0.205211
0.186205
-0.17997
0.150266
0.0297094
-0.00709409
0.00810157
0.00161169
0.00611792
0.022488
0.146779
-0.169265
-0.00607145
-0.00100535
0.00707721
0.0707593
-0.233076
0.162319
0.158832
0.164142
-0.322978
-0.0895093
0.0478844
0.0416254
-0.231537
-0.220286
-0.0144353
-0.0563267
0.0707617
-0.408387
0.589525
-0.244247
-0.345304
0.121049
0.0889562
-0.21001
-0.0711142
-0.00360521
0.00834166
-0.00473643
0.00971254
0.00047947
-0.0639782
0.0785218
-0.0145433
0.00214794
-0.0176182
0.0154703
0.00135944
-0.00236625
0.00100693
0.128418
0.0166923
-0.0830022
-0.214006
-0.147221
-0.165154
0.00547273
0.136661
0.501596
0.0369181
-0.538546
0.147227
-0.152788
0.00261939
-0.0330169
-0.0323912
-0.114001
0.549442
-0.125954
0.150465
-0.024515
-0.0167707
-0.120099
0.124275
-0.00417584
-0.00568072
-0.00840598
0.123522
-0.0973214
0.440393
-0.178634
0.0352586
-0.039155
0.00389657
0.021843
0.193583
0.000195084
0.00944439
0.0161129
-0.301434
-0.325298
0.136724
0.245376
0.440897
-0.278435
-0.162476
0.220087
-0.0259601
0.101247
-0.0987479
-0.00249808
-0.00336591
0.00257363
0.000515852
0.00543218
0.0648392
0.105446
0.310672
-0.470809
0.0255439
0.0638325
0.240513
0.0891828
0.00241957
-0.0261242
0.0157546
-0.0138098
0.12796
-0.120694
0.00194328
0.00903333
0.00120454
-0.00960729
0.00579804
0.0222379
0.12359
-0.145825
-0.0174743
0.191047
0.0121235
-0.0112808
0.197525
-0.182649
0.0892429
0.0838474
-0.173093
0.095726
0.0232846
-0.0345355
0.341758
-0.136292
-0.205475
0.0584398
0.00987447
0.325027
-0.1662
-0.00419753
-0.00473153
0.00892917
-0.00245746
-0.375641
-0.190542
0.172302
0.153385
-0.0508018
0.122059
-0.0195005
0.19446
-0.161345
-0.0331173
-0.342017
0.549506
-0.207506
0.0255087
-0.221833
-0.180199
0.209751
-0.0295539
-0.120461
-0.12944
0.249902
0.00929259
0.0581689
-0.067462
0.281273
-0.457943
0.176669
0.00455842
-0.0119016
-0.0116629
0.0112015
0.172954
0.152069
-0.192107
0.174633
-0.0328669
-0.1471
-0.486477
0.243167
0.000455271
0.00210654
0.0108578
-0.00321555
-0.00559487
0.000169958
0.00542499
0.20578
0.245726
-0.45152
0.0132593
-0.208196
0.194929
0.0046041
0.188479
-0.19309
-0.227738
-0.0151588
0.242893
-0.0861576
0.0195848
0.0665733
0.0203934
0.388493
-0.598177
0.209686
-0.0156264
0.127795
-0.112168
-0.139821
-0.0354798
-0.0170131
0.00522991
0.0117835
0.170526
-0.00148306
0.0297073
-0.209907
-0.234076
0.0666186
0.16745
0.0914826
0.130193
-0.00784961
-0.122343
0.12663
-0.237776
0.365506
-0.127739
-0.00967679
0.0155897
-0.00295895
-0.0126306
-0.0199804
0.0181829
-0.00421191
0.0139001
-0.00791427
0.00371702
0.000926375
-0.0126542
-0.00294076
0.365416
-0.186352
-0.179073
-0.336545
0.167441
0.194348
0.113766
-0.308119
-0.0186167
-0.0577898
-0.115915
-0.0429262
-0.134231
-0.0134462
0.012965
0.000481202
-0.329046
0.168372
0.183577
0.341799
-0.525395
0.378411
-0.0209652
-0.0660241
0.309192
0.212493
0.149423
-0.223749
0.0743295
0.0903381
0.105284
0.0203185
-0.0186484
-0.0016701
-0.101549
0.213567
-0.112021
-0.333123
-0.186663
-0.446621
0.258424
-0.134575
0.329839
-0.195275
0.185738
-0.618447
0.130668
-0.108819
-0.0218501
-0.065513
-0.0206442
-0.0350984
0.124339
-0.00703078
0.00195725
0.00507369
-0.203882
0.345392
-0.141515
0.148362
9.67699e-06
0.00640147
-0.0063855
0.0115721
-1.03113e-05
0.0238258
0.00275517
-0.0265808
0.0564328
0.0513551
-0.107788
0.0172003
0.0298857
0.429761
-0.124533
0.122531
0.00199971
0.0099946
-0.244079
-0.424367
0.144133
-0.193988
0.20944
-0.0154491
0.00444888
0.107901
-0.293468
0.185565
0.13285
-0.00265543
-0.0449345
0.0304991
0.306064
-0.206164
-0.305185
0.121775
-0.155209
0.132664
0.0225447
-4.45184e-05
0.372215
0.199857
-0.572068
0.009637
0.0106815
-0.121035
0.315379
0.0673886
-0.0860047
0.463135
-0.231272
-0.111625
-0.174715
0.0640378
-0.0570193
-0.0384181
0.095437
0.0625824
0.223643
0.0122739
-0.0506264
0.00637308
0.00513275
-0.0945833
0.00570063
-0.000385369
-0.00531506
-0.34271
0.10033
0.00145084
0.0144776
-0.0487048
0.0370267
-0.395723
0.298253
0.097465
-0.00581039
-0.0333445
0.0157875
-0.107156
0.071879
0.0352777
-0.22868
-0.202142
-0.115927
0.318076
0.427579
-0.441283
0.0136806
0.310204
0.251806
-0.0357059
-0.216109
-0.14314
0.137592
0.00554755
-0.12932
-0.0116418
0.140963
-0.197663
0.314098
-0.216556
0.432231
-0.106051
0.0404215
-0.251613
0.427841
-0.176232
-0.00376978
0.00480721
-0.00103735
-0.190116
0.0208574
0.000846733
-0.0150362
0.0141895
0.0322918
-0.0433797
0.251267
-0.473007
0.221737
0.0138555
0.241302
-0.5329
0.29157
0.203719
-0.0282654
0.107049
-0.138809
0.0317586
0.033348
-0.00952208
0.143048
-0.147105
0.341421
-0.59311
0.251692
0.13033
-0.0315285
-0.089084
0.0467496
0.042335
0.122438
-0.120225
0.0101789
-0.05787
0.0476913
0.14
-0.0948634
-0.0451383
0.126864
-0.138379
-0.0867961
-0.0468813
0.146747
-0.00688445
-0.139862
0.0890153