/*--------------------------------*- C++ -*----------------------------------*\
| =========                 |                                                 |
| \\      /  F ield         | OpenFOAM: The Open Source CFD Toolbox           |
|  \\    /   O peration     | Version:  v2012                                 |
|   \\  /    A nd           | Website:  www.openfoam.com                      |
|    \\/     M anipulation  |                                                 |
\*---------------------------------------------------------------------------*/
FoamFile
{
    version     2.0;
    format      ascii;
    class       volVectorField;
    location    "400";
    object      U;
}
// * * * * * * * * * * * * * * * * * * * * * * * * * * * * * * * * * * * * * //

dimensions      [0 1 -1 0 0 0 0];


internalField   nonuniform List<vector> 
13851
(
(1.31999 0.0648184 3.44941e-22)
(1.13203 -0.0376552 2.95145e-22)
(1.12934 -0.0356813 2.97811e-20)
(-0.194378 -0.0136076 -6.6642e-20)
(1.00364 -0.000797941 0)
(1.14702 -0.0639852 0)
(1.11038 0.0383531 2.31243e-20)
(1.02272 -0.00124699 1.00953e-22)
(-0.167445 0.00947945 -6.33135e-20)
(0.992589 -0.0256173 2.28935e-21)
(1.24824 -0.177284 4.54678e-20)
(1.00366 -0.0160763 0)
(0.984909 -0.0474783 6.41259e-21)
(-0.311901 -0.0104476 0)
(1.20627 0.0187174 2.42542e-20)
(1.23404 0.1742 7.21141e-20)
(-0.323198 -0.0165836 -7.53062e-20)
(1.06427 -0.0295925 -3.73885e-22)
(0.941742 0.0036381 9.24434e-21)
(1.31917 0.060106 0)
(1.22629 9.99248e-05 8.04615e-22)
(1.07589 -0.139857 0)
(0.20049 -0.139638 -3.76326e-23)
(1.00013 -0.000379211 -2.46693e-22)
(0.40306 -0.0297625 -2.55231e-20)
(1.20248 0.122765 -4.03656e-20)
(0.709101 0.109119 1.0737e-19)
(0.383209 0.0284645 -1.81621e-19)
(-0.0721842 0.0257634 0)
(1.03689 -0.0190828 0)
(-0.169217 -0.0250659 -2.18965e-19)
(1.11078 0.0367072 0)
(1.30833 0.0778423 1.55817e-19)
(-0.106536 0.0116986 0)
(1.20974 -0.146372 -7.16222e-20)
(-0.0442056 0.0303878 1.63333e-20)
(1.00008 -0.00034113 1.8838e-24)
(0.487133 -0.0942128 1.38434e-19)
(-0.186902 -0.0154127 1.48351e-19)
(1.02244 -0.0649248 7.40292e-21)
(-0.174795 -0.00158087 -1.04783e-19)
(-0.045598 0.0302321 -3.89099e-20)
(-0.211085 -0.00881477 1.31245e-19)
(1.1157 -0.586451 -2.71434e-20)
(-0.0384277 0.0314635 -5.49401e-23)
(1.02948 -0.0380553 -5.4463e-21)
(1.02969 0.000783135 1.80245e-20)
(1.25329 0.153662 -4.21797e-20)
(1.08509 -0.0905169 2.3293e-20)
(0.984182 -0.0463685 6.03961e-21)
(-0.365469 -0.0165736 -5.12944e-20)
(0.975314 -0.0426464 7.34747e-21)
(1.23609 0.171359 -6.55345e-20)
(1.15354 0.0614429 -1.55675e-20)
(-0.283775 -0.0092471 -7.17499e-20)
(1.0211 -0.065481 -9.06627e-21)
(1.31304 0.0769447 -1.86173e-19)
(-0.190558 -0.00456494 1.2156e-19)
(0.681076 0.122313 -2.56488e-20)
(-0.347072 -0.0122991 -4.74946e-20)
(1.00335 -0.015229 2.24236e-22)
(0.777089 0.115 1.42047e-20)
(0.995733 -0.0148456 7.67425e-21)
(1.08582 -0.0939319 1.02948e-20)
(0.882728 -0.540555 0)
(0.862148 -0.560789 0)
(-0.363537 -0.0143221 0)
(0.69413 -0.195842 7.98372e-20)
(1.04319 -0.0646466 0)
(-0.182337 -0.0186967 -1.22789e-19)
(-0.217548 -0.0203256 1.28968e-20)
(1.2475 0.000729601 -6.81477e-20)
(1.00186 -0.0509043 0)
(-0.355391 -0.0130992 8.25084e-22)
(1.16976 0.0524587 4.41595e-21)
(1.04944 -0.115461 1.00671e-21)
(-0.308276 -0.0192822 0)
(1.03683 -0.00845616 2.04241e-20)
(0.468004 -0.0310343 4.60477e-20)
(1.01284 -0.0322901 3.22554e-21)
(1.04524 -0.0654824 1.17302e-20)
(1.32466 -0.188937 0)
(1.20398 -0.147735 5.91359e-20)
(-0.3144 -0.0111845 0)
(-0.341421 -0.0124767 -5.91599e-21)
(-0.185821 -0.0231948 -4.39404e-20)
(1.08049 -0.141734 0)
(-0.225969 -0.00750441 6.59147e-20)
(0.994518 -0.0306766 -9.93037e-21)
(-0.166239 -0.0241878 5.1877e-20)
(0.973691 -0.042347 1.56339e-20)
(1.11364 0.0361529 1.29878e-20)
(-0.272637 -0.0137963 1.32795e-19)
(-0.202107 -0.0221114 0)
(-0.233408 -0.0142683 0)
(1.10472 -0.546044 0)
(1.02241 -0.0417307 3.20366e-21)
(1.24927 0.164663 -7.01752e-20)
(-0.368772 -0.016989 -2.5032e-22)
(1.28715 -0.303568 9.99769e-20)
(1.24744 0.164742 -3.99989e-20)
(0.813304 -0.183606 -3.40023e-20)
(0.815242 -0.218944 4.53375e-20)
(0.997583 -0.0551622 0)
(1.0352 -0.0369347 0)
(1.24596 -0.0292029 0)
(1.03393 -0.0366323 5.90832e-21)
(-0.205368 -0.0216392 0)
(1.11389 0.0342522 0)
(1.0625 -0.0287191 -1.72093e-20)
(1.06 -0.19083 1.18752e-20)
(1.03084 -0.0386049 0)
(1.36031 -0.0971765 -1.30368e-19)
(1.27191 -0.104884 -4.52135e-20)
(1.29456 0.104543 4.25976e-20)
(1.15145 0.0583931 1.29534e-20)
(1.02552 -0.0130803 0)
(1.02362 -0.00143205 1.29431e-20)
(-0.203453 -0.012507 0)
(-0.162098 -0.0208898 4.89739e-23)
(1.14325 -0.46875 2.5125e-21)
(1.05174 -0.0243214 2.84121e-20)
(1.03603 -0.0662603 1.00598e-20)
(-0.264258 -0.00644486 8.07057e-20)
(1.08391 0.0205889 0)
(0.615759 -0.282679 0)
(1.02302 -0.0410474 0)
(1.1925 -0.232219 0)
(-0.180352 0.00262478 6.17397e-20)
(1.23337 0.022963 0)
(1.07128 -0.142426 -7.15597e-21)
(1.16768 -0.110681 -3.17644e-20)
(0.622839 -0.118121 -1.24332e-19)
(-0.115972 0.010703 0)
(1.25532 -0.17504 -1.05797e-19)
(-0.232401 -0.0135836 0)
(0.706657 -0.187357 -6.21436e-20)
(-0.195429 -0.0222347 0)
(0.851423 -0.150572 -2.39415e-20)
(1.22696 0.032872 0)
(1.36285 -0.203021 0)
(0.984701 -0.0814707 3.70101e-21)
(0.993786 -0.0313559 1.34682e-20)
(0.747297 -0.390446 0)
(0.361042 -0.0141674 2.24495e-19)
(1.03087 -0.113738 0)
(1.03628 -0.00777713 -1.24609e-20)
(-0.195726 -0.0225625 9.95541e-20)
(-0.17823 0.00685731 -9.70542e-20)
(1.19853 -0.236113 0)
(1.25209 0.161846 -7.55627e-22)
(1.35435 -0.100294 5.41519e-20)
(1.27793 -0.105272 1.8333e-19)
(1.17883 -0.00421674 2.07816e-19)
(0.976602 -0.0547889 0)
(0.98498 -0.0325463 9.23722e-21)
(1.0031 -0.0125146 9.87854e-22)
(-0.203922 -0.0162718 -2.20848e-19)
(1.22064 0.0267063 0)
(1.11637 0.0141023 -3.17641e-20)
(1.00026 -0.000883556 -1.92911e-21)
(-0.0611152 0.0271728 3.12449e-20)
(1.24236 -0.0266965 1.67177e-20)
(1.25533 0.150914 -3.51417e-20)
(-0.309925 -0.011958 0)
(-0.11031 0.0186193 0)
(-0.101992 0.0202964 -4.14139e-20)
(-0.35242 -0.0161071 1.00716e-19)
(1.06087 -0.184568 0)
(0.0722744 0.00835914 5.66895e-20)
(1.0027 -0.0141799 -2.64021e-22)
(1.0253 -0.012413 4.40776e-21)
(1.26882 -0.0443945 9.21618e-20)
(1.00191 -0.000743826 2.54648e-21)
(-0.219155 -0.0125977 0)
(0.727881 0.0909068 -1.11432e-19)
(1.24648 0.150279 0)
(1.02626 -0.0122438 -1.5175e-20)
(1.16608 0.05681 0)
(1.26201 0.150564 -3.91106e-20)
(1.15113 0.0250892 1.58125e-20)
(1.12432 -0.56748 0)
(1.06809 -0.175674 0)
(1.22949 0.0249715 -2.41786e-20)
(-0.235865 -0.011166 0)
(-0.171704 0.00741964 5.53196e-20)
(1.30832 0.0837317 -2.2561e-20)
(0.89325 -0.122141 0)
(0.981702 -0.0540632 0)
(1.03508 -0.0270083 6.62424e-21)
(0.449554 -0.0162939 0)
(1.22108 0.0238882 0)
(-0.331263 -0.0135645 0)
(1.14996 -0.0606492 3.93082e-20)
(1.03293 -0.110703 4.85455e-21)
(1.24256 0.16842 -5.68672e-20)
(1.30404 0.083987 -1.64799e-21)
(1.08293 -0.0128131 -1.19374e-20)
(1.07562 -0.0436032 -1.53917e-20)
(0.710549 -0.232672 0)
(1.37058 -0.216529 -6.95637e-20)
(-0.225183 -0.0101935 -7.37804e-20)
(-0.19422 -0.00362698 -5.7011e-20)
(1.20358 0.0213242 3.37405e-20)
(0.94874 -0.832822 0)
(-0.243944 -0.0105828 8.22769e-20)
(0.938688 -0.0637838 -5.81932e-21)
(1.21628 0.0533132 1.71935e-20)
(-0.169432 0.00937726 8.41186e-20)
(1.13577 -0.075572 -7.74903e-21)
(1.22721 0.177101 -1.23814e-19)
(1.0348 -0.0650258 -5.91533e-21)
(1.3369 -0.205412 1.42964e-19)
(1.0003 -0.00417801 4.50987e-22)
(1.21704 -0.137089 4.37176e-21)
(1.05525 -0.126267 -7.06252e-21)
(0.985367 -0.0443801 -2.17103e-20)
(1.12926 0.0641906 -1.4917e-19)
(1.08222 -0.0288723 -4.19654e-22)
(0.172632 -0.627209 4.77705e-20)
(1.02621 -0.0115426 -9.05979e-21)
(1.3231 0.0524983 -1.75766e-19)
(-0.334398 -0.0120932 2.36424e-20)
(-0.226669 -0.013787 -1.40896e-19)
(0.90691 -0.131223 2.6837e-20)
(1.2169 0.0558677 1.10277e-21)
(1.00007 -0.00208875 6.75843e-22)
(0.750423 -0.368027 6.03168e-20)
(1.00614 -0.0253188 -4.05702e-22)
(1.21143 -0.138178 -7.25538e-21)
(-0.117292 -0.0205788 4.84903e-20)
(0.899498 -0.122411 2.51874e-20)
(1.13581 -0.0720536 0)
(0.996159 -0.0114699 -7.70516e-21)
(-0.203476 -0.00423559 0)
(1.03803 -0.0186244 0)
(0.566755 -0.332475 -2.54946e-19)
(-0.201946 -0.0051091 -6.53999e-20)
(1.27997 -0.296265 -9.05002e-20)
(1.00018 -0.000845307 6.3597e-21)
(1.28011 -0.417672 -1.09289e-19)
(-0.339817 -0.0144313 -2.03e-19)
(-0.0173079 0.0350995 0)
(1.23041 0.174587 1.29745e-19)
(1.1984 -0.0280706 0)
(0.709276 -0.42346 1.11418e-20)
(1.21838 0.0626589 -7.06087e-20)
(1.16553 0.060022 0)
(1.10939 -0.527255 0)
(1.08486 -0.194695 -1.90037e-20)
(-0.263959 -0.0108088 1.19652e-19)
(1.33889 0.00127482 1.62155e-19)
(1.01779 -0.0013962 -1.94235e-20)
(1.15318 -0.0227688 4.46429e-20)
(1.24477 0.168394 8.12741e-20)
(-0.0697067 0.0248435 0)
(-0.156957 -0.000964041 0)
(1.03415 -0.0258641 -2.35199e-22)
(0.591308 -0.278386 0)
(0.995702 -0.0312312 -5.44051e-21)
(1.22014 0.0942947 -1.15448e-19)
(1.1441 0.0118829 -1.18268e-19)
(1.15685 -0.0219429 0)
(1.24507 -0.021148 1.52614e-19)
(1.3439 -0.00130479 -1.88385e-19)
(1.0083 -0.0458305 0)
(0.808885 -0.194473 4.02326e-20)
(1.25112 0.138319 6.83667e-20)
(0.460579 0.0393835 -1.31322e-19)
(0.999531 -0.0198127 -2.23035e-21)
(0.984901 -0.0431863 2.18302e-20)
(0.90093 -0.130281 0)
(-0.108027 0.0176738 -1.10614e-19)
(-0.231708 -0.010506 0)
(1.2364 0.00733677 9.37319e-21)
(1.05366 -0.025076 -2.27701e-20)
(1.09251 0.0302821 0)
(1.16336 0.00448465 0)
(1.29172 0.0912518 1.8559e-20)
(1.2422 -0.0182854 -1.34196e-19)
(-0.124812 0.0147258 9.82728e-20)
(-0.367754 -0.0158286 -5.78752e-20)
(1.16055 -0.0379473 1.47568e-20)
(1.19432 0.0167475 7.21972e-20)
(0.465663 -0.10327 -1.39248e-19)
(1.03835 -0.0351656 -7.53487e-21)
(1.00321 -0.0117521 8.37875e-23)
(1.29631 0.0900921 -2.46155e-20)
(1.22352 -0.192579 -8.7248e-20)
(1.04042 -0.018715 0)
(1.00033 -0.00405887 9.58785e-22)
(1.00602 -0.0261409 2.75485e-22)
(1.00751 -0.00111359 0)
(1.19693 -0.0108833 -5.07445e-20)
(1.00341 -0.0125915 0)
(-0.15893 0.0106626 -5.22369e-20)
(1.23105 0.00185397 -1.62368e-19)
(1.02777 -0.0546915 -3.05534e-21)
(-0.0623122 0.0257183 0)
(-0.274902 -0.00700595 -9.92955e-20)
(0.978013 -0.048421 7.37071e-21)
(1.32456 0.0570025 1.02441e-19)
(-0.369224 -0.0165503 0)
(0.983795 -0.0847365 -1.17794e-20)
(0.976319 -0.0482846 -3.86879e-21)
(1.23556 -0.000982103 -1.2884e-21)
(-0.327096 -0.0126822 0)
(-0.0568694 -0.0246085 2.1374e-19)
(1.27976 -0.0251723 2.56367e-20)
(1.00403 -0.00104868 5.72209e-21)
(0.0889408 0.00919476 0)
(1.00302 -0.015034 5.77423e-22)
(1.28853 -0.0298384 0)
(-0.354979 -0.0159394 0)
(0.472959 0.0413702 -3.88452e-20)
(1.11372 0.0132754 0)
(0.570372 -0.131728 5.9191e-20)
(0.905603 -0.178662 0)
(-0.196373 -0.0216692 0)
(1.35141 -0.111181 1.16303e-19)
(0.781603 -0.162664 4.26582e-20)
(-0.208072 -0.0136124 7.79567e-20)
(-0.23533 -0.00274687 0)
(0.41127 0.0280464 1.9735e-19)
(1.07802 -0.0448864 0)
(-0.271942 -0.0175498 -1.20801e-19)
(-0.194725 -0.0118541 -7.46973e-20)
(0.464661 -0.536433 -1.03833e-19)
(0.498375 -0.541962 8.59678e-20)
(0.937505 -0.0653751 0)
(1.27828 -0.0393012 2.42243e-20)
(0.962323 -0.175496 -1.07404e-20)
(-0.217067 -0.00632943 0)
(0.789171 -0.21268 3.99013e-20)
(1.01415 -0.00327875 0)
(1.02992 0.000771417 -1.53745e-20)
(1.12091 -0.128331 0)
(-0.210468 -0.0224043 4.6269e-20)
(0.223523 -0.631493 -4.14496e-20)
(1.03818 -0.0337994 -3.42438e-21)
(-0.237146 -0.0139557 1.56418e-19)
(0.949776 -0.17313 -7.64499e-22)
(1.1681 -0.115356 7.80057e-20)
(1.11703 0.015986 3.40012e-20)
(-0.33917 -0.0129123 0)
(1.14084 0.0312037 -2.37342e-20)
(1.23929 0.171574 7.30657e-20)
(1.05184 -0.12313 -1.47588e-20)
(1.13157 -0.0703306 0)
(-0.000829777 0.0360705 -4.69163e-21)
(0.981986 -0.0561159 5.47943e-21)
(1.1105 0.00334711 -7.21102e-20)
(1.15833 -0.0354293 0)
(1.23659 -0.00408648 6.42454e-20)
(0.943469 -0.175876 0)
(0.995017 -0.0317039 1.06189e-20)
(1.02879 -0.0538153 6.06725e-21)
(1.33439 -0.185394 -2.60464e-20)
(1.29633 -0.300452 -1.45955e-20)
(1.33778 0.0102672 3.0162e-21)
(0.726629 -0.140211 1.16762e-19)
(0.00566607 0.0378841 0)
(1.03286 -0.115673 4.00941e-21)
(-0.21244 -0.00518372 7.047e-20)
(1.03661 0.0867177 0)
(1.04826 -0.0107951 -1.70742e-20)
(0.436004 0.0425111 0)
(1.29838 0.0390985 -1.80812e-20)
(-0.355522 -0.0159694 -3.48217e-22)
(1.11813 -0.124435 0)
(1.19088 0.137041 5.8726e-20)
(0.750645 0.127187 7.70486e-20)
(0.513767 -0.0676323 -9.45631e-20)
(1.32652 -0.195464 -1.45365e-19)
(-0.224258 -0.00447756 6.14988e-22)
(1.08476 -0.0627965 0)
(0.675579 0.0845755 1.48218e-19)
(-0.301615 -0.0140507 1.58187e-20)
(1.18465 -0.0474093 0)
(-0.245216 -0.00689967 -4.1843e-20)
(1.19611 -0.0531595 4.19486e-20)
(-0.18343 -0.00499867 -1.56187e-19)
(1.19182 0.0147085 0)
(1.16298 0.0927154 3.34181e-20)
(1.34236 -0.0114403 -5.89218e-20)
(1.33688 -0.283801 0)
(0.985443 -0.0336068 -2.03673e-20)
(1.15432 -0.046492 2.22122e-20)
(1.22807 -0.197338 -5.58398e-20)
(1.16953 0.0557026 0)
(1.02744 -0.0419224 1.70534e-21)
(1.23754 0.011115 3.95696e-20)
(0.0259491 0.0247964 2.83163e-20)
(1.00274 -0.0505601 -6.42167e-21)
(1.21837 0.0492796 -1.69244e-20)
(-0.208808 -0.0124874 2.48207e-19)
(1.11999 -0.0651797 2.74784e-20)
(1.12828 -0.523792 0)
(1.19011 0.0831863 1.18784e-19)
(-0.035485 -0.0246367 -1.18448e-19)
(1.13959 -0.078237 -4.7429e-20)
(1.19974 0.119716 -3.49697e-20)
(0.914626 -0.798204 -2.84304e-20)
(1.09125 0.0184977 1.26523e-19)
(1.2437 -0.03839 1.02059e-21)
(-0.176 -0.00694137 -1.03617e-22)
(-0.355969 -0.0142354 1.98359e-19)
(1.3313 -0.456618 1.16488e-19)
(1.00731 -0.0461615 -1.14597e-21)
(1.3319 -0.180135 0)
(1.19554 -0.064955 0)
(1.19307 0.133359 1.81045e-20)
(1.04954 -0.0275312 0)
(-0.222188 -0.00877705 1.36871e-19)
(0.00458857 0.0181714 -6.99476e-21)
(0.46047 -0.0485636 -2.29672e-19)
(1.13123 -0.0670103 1.69625e-20)
(1.34558 -0.00804897 0)
(0.779528 0.106968 -7.47716e-21)
(-0.224154 -0.0113825 0)
(1.04045 -0.00203931 0)
(-0.294553 -0.0149014 0)
(1.36514 -0.274632 0)
(0.072935 -0.0748739 6.34738e-20)
(1.09037 -0.198775 7.87572e-22)
(0.378876 0.0122201 2.17268e-20)
(0.991493 -0.0404844 0)
(1.00223 -0.000637153 3.43467e-22)
(-0.295885 -0.0113359 -3.77551e-20)
(0.773576 0.1041 1.03404e-21)
(0.991986 -0.0268286 2.82544e-21)
(1.13158 -0.0403549 -4.72707e-20)
(1.22231 0.0487171 1.83409e-20)
(1.02274 -0.0143251 8.06702e-21)
(0.0399603 0.0207889 -1.03518e-19)
(1.28062 -0.0350831 0)
(1.29657 0.0361848 -3.80695e-20)
(1.14647 0.00786504 4.35375e-20)
(1.08587 -0.0608911 1.41799e-20)
(0.972302 -0.0364013 0)
(0.57636 -0.0781752 0)
(1.02579 -0.0536926 2.50546e-21)
(0.97313 -0.034766 -1.41247e-20)
(0.244727 0.0757411 5.60404e-20)
(0.0433479 0.0251583 0)
(1.06688 -0.138885 -1.88135e-20)
(0.840549 0.133556 -5.20785e-20)
(0.995819 -0.0139208 -9.10771e-21)
(1.00349 -0.0118224 1.61846e-21)
(1.12387 -0.0669519 -1.41181e-20)
(1.34198 0.00779363 2.68024e-20)
(1.18178 0.089504 -6.3495e-20)
(1.02773 -0.0443958 -3.39712e-21)
(1.10189 -0.048653 5.6885e-20)
(1.14584 -0.457431 4.55026e-20)
(1.11738 -0.0258875 2.05624e-20)
(-0.0147675 -0.0290666 -4.3704e-20)
(1.00373 -0.0148586 9.57547e-22)
(1.14935 0.0333726 -1.13202e-20)
(-0.0353359 0.0327491 -1.9742e-20)
(0.954504 -0.227096 8.5264e-21)
(1.03002 -0.000483086 0)
(1.00193 -0.0135234 0)
(1.1453 0.00575016 -4.25952e-20)
(1.08845 -0.0105073 -5.25751e-22)
(1.29901 -0.502357 1.9773e-19)
(0.184411 0.0685376 -3.74109e-21)
(1.20115 -0.025455 0)
(0.339464 -1.21295 0)
(1.12696 -0.064808 -4.621e-22)
(1.00321 -0.0213101 -7.56612e-22)
(-0.170597 0.00579748 -3.17206e-20)
(0.771447 0.127798 -5.43676e-20)
(0.885119 -0.186448 7.16277e-20)
(1.00558 -0.0558255 -2.22069e-21)
(-0.245199 -0.00355895 0)
(0.861897 -0.15585 -4.19158e-20)
(1.02861 -0.651979 -7.76655e-20)
(0.996505 -0.0541525 0)
(1.17334 -0.103249 -6.86376e-20)
(1.33233 -0.19317 2.02442e-19)
(1.18348 0.0475261 -3.82164e-20)
(-0.214044 -0.000282896 0)
(0.746869 0.107183 0)
(0.526729 -0.0574784 2.0929e-19)
(0.991622 -0.114983 0)
(1.35738 -0.107913 -5.74154e-20)
(1.01027 -0.0474007 1.31854e-22)
(-0.0799021 0.0242171 -4.29793e-20)
(1.19087 0.0807919 -9.88601e-20)
(1.30271 0.0866799 -5.84112e-20)
(1.19381 -0.0612741 1.8301e-20)
(1.0523 -0.118699 8.38124e-22)
(0.962027 -0.223725 0)
(1.27174 -0.0391677 -1.2184e-19)
(1.00324 -0.000960945 0)
(-0.250433 -0.0127381 -1.77246e-19)
(-0.187088 0.00362411 -1.72359e-20)
(0.00116809 -0.0299792 -7.22494e-20)
(-0.17944 -0.00564965 6.85436e-20)
(0.198159 0.0705428 5.56382e-20)
(-0.303575 -0.0157722 -1.041e-19)
(1.09577 0.0122998 0)
(0.919778 -0.134105 0)
(0.999951 -0.00712893 -5.08946e-21)
(0.929122 -0.439525 0)
(0.992385 -0.0246852 0)
(1.02672 -0.0408619 2.6873e-21)
(0.914665 -0.153807 0)
(-0.21075 -0.011879 -1.39086e-19)
(1.12854 -0.0248188 -7.36799e-20)
(0.978468 -0.0765011 9.56553e-21)
(1.10806 -0.37653 4.34181e-20)
(1.24263 -0.0773727 3.2905e-20)
(0.989085 -0.020835 1.66399e-20)
(0.0869183 -0.0135868 9.22263e-20)
(1.0201 -0.0404135 -2.28868e-22)
(-0.158475 0.00566013 5.97039e-20)
(1.31863 -0.495173 -1.71318e-19)
(1.01371 -0.0331921 0)
(1.1193 -0.00728931 -1.53838e-21)
(1.37982 -0.246398 0)
(0.425726 0.039917 2.12085e-19)
(1.0394 -0.0193307 0)
(0.315758 -0.06155 6.56487e-20)
(0.654293 -0.29494 0)
(1.05406 0.000792896 -2.27105e-20)
(-0.194578 -0.0184156 2.44575e-19)
(1.00093 0.00276949 0)
(1.326 0.0444641 -6.36887e-21)
(0.989486 -0.112868 -1.0151e-20)
(0.259358 0.0765531 8.02969e-21)
(-0.351206 -0.0147469 0)
(1.05553 0.000526601 -2.75118e-20)
(1.17098 -0.0667409 1.03796e-20)
(1.03945 -0.0653692 7.89461e-21)
(1.02103 -0.0412542 -1.02085e-20)
(0.353558 0.0973173 0)
(-0.180067 -0.00417411 3.65435e-20)
(1.21647 -0.0681316 0)
(1.17847 0.089559 7.97461e-20)
(0.991387 -0.0235974 6.20639e-21)
(1.20858 0.0982984 0)
(-0.164258 0.00441547 -6.82936e-20)
(-0.211783 -0.014945 0)
(1.0627 -0.00511404 1.3653e-20)
(-0.320688 -0.0149984 0)
(1.0269 -0.0434276 0)
(1.04156 -0.066352 -5.33817e-21)
(1.24671 -0.0354625 0)
(1.14224 0.0449632 -5.51839e-20)
(1.0407 -0.00138113 1.51034e-20)
(1.04549 -0.115712 1.24212e-20)
(-0.189703 -0.0187196 0)
(1.32869 -0.279135 0)
(-0.204203 -0.0183195 -1.81143e-19)
(1.12434 -0.0254513 1.33407e-20)
(0.996189 -0.0321177 -5.08417e-21)
(-0.0949073 0.018934 -9.62206e-20)
(0.999972 -0.00969736 2.83366e-21)
(1.33726 -0.168382 -1.9856e-19)
(1.15599 0.0197192 -5.54642e-21)
(1.17336 0.0475358 4.36619e-21)
(1.198 -0.0362828 -7.81909e-20)
(0.0371678 0.0437944 0)
(-0.354714 -0.0150983 1.06775e-19)
(1.14949 -0.0533093 -4.04241e-20)
(-0.286914 -0.0152384 -1.32697e-19)
(1.11126 0.00888351 -4.35467e-20)
(1.27911 -0.0638415 -5.02206e-20)
(-0.0397054 0.0313931 0)
(-0.260635 -0.00537001 -6.91318e-20)
(1.03038 -0.0672532 -1.66399e-21)
(1.00925 -0.0475448 0)
(0.823177 -0.228239 -6.18301e-20)
(-0.201897 -0.0180231 -2.4584e-20)
(0.906768 0.152626 9.02685e-20)
(1.20523 0.098232 -4.54345e-21)
(0.849614 -0.516564 1.07904e-20)
(1.14229 0.0468422 5.93679e-20)
(1.18785 0.0170645 -4.61548e-20)
(-0.0813664 -0.0225434 9.6905e-20)
(0.0694094 -0.0161367 1.17478e-19)
(1.11741 -0.443236 0)
(-0.168532 0.0048144 0)
(1.18652 0.121153 0)
(0.00521058 0.0388075 4.2862e-20)
(1.07758 -0.0606574 0)
(0.654958 0.122032 -2.92947e-20)
(0.471849 0.0126351 -6.68773e-20)
(1.0022 -0.0189651 2.6258e-22)
(-0.388401 -0.01789 -2.64834e-19)
(-0.0270544 -0.00605601 3.01256e-20)
(1.06756 -0.182555 1.47939e-20)
(1.23029 0.0300652 3.89642e-20)
(1.01578 -0.0619596 -5.48758e-23)
(0.454283 -0.928217 0)
(1.20395 -0.278459 0)
(0.186268 -0.0896387 0)
(1.025 -0.0545925 4.97178e-21)
(1.00134 -0.00087704 0)
(0.913894 -0.0980287 0)
(1.23913 -0.0808498 0)
(1.00371 -0.0142407 -1.50082e-21)
(-0.225841 -0.0124288 1.79129e-19)
(1.00156 -0.00104651 0)
(1.22683 0.11734 0)
(0.983053 -0.111747 9.18056e-21)
(1.19657 0.134248 0)
(0.998625 -0.054164 -6.01234e-21)
(0.988357 -0.021445 -1.11989e-20)
(1.14415 -0.236964 0)
(-0.320566 -0.0165408 1.41513e-19)
(1.2433 -0.0477615 -1.65724e-20)
(-0.241808 -0.0136926 -2.16041e-20)
(1.17302 -0.108068 7.84637e-20)
(1.02327 -0.0160539 8.58196e-21)
(1.05424 -0.0147837 2.31886e-20)
(1.27181 -0.0487744 0)
(1.09982 -0.0502939 0)
(1.31952 -0.0982977 0)
(1.1362 -0.0291215 0)
(0.884574 -0.177816 0)
(0.694274 0.124677 2.55704e-20)
(0.999812 -0.00954743 0)
(-0.155075 -0.00158332 -9.22632e-20)
(1.00016 -0.00283007 6.47894e-22)
(1.20364 0.15528 0)
(-0.275991 -0.0147912 0)
(-0.0657444 0.0258655 -7.70965e-20)
(0.881771 -0.081668 8.94306e-21)
(0.336837 -0.150332 0)
(1.09524 -0.374606 -3.39282e-20)
(1.28181 -0.35655 0)
(-0.0400358 -0.00628273 1.75703e-20)
(1.06755 -0.00679096 0)
(0.0511189 -0.0156466 -1.88173e-19)
(0.95632 -0.178392 1.1204e-20)
(1.18934 -0.0483021 0)
(-0.174282 -0.00782484 -1.6151e-19)
(0.598055 -0.0229129 -9.60998e-20)
(1.04923 -0.0115895 -1.25716e-20)
(1.31472 -0.100583 3.91941e-20)
(1.08152 -0.0113419 2.5205e-20)
(-0.0204215 0.0336086 -4.31025e-20)
(-0.358577 -0.0183191 0)
(1.04972 -0.0679791 9.79242e-21)
(0.692296 -0.221389 -3.97707e-20)
(0.0366765 0.0168495 5.26612e-20)
(1.00004 -0.00262927 -2.24969e-21)
(1.00006 -0.0035206 1.15978e-21)
(1.20119 0.1255 1.25114e-20)
(-0.171668 -0.00380023 7.01507e-20)
(0.332976 0.0865682 6.07544e-20)
(0.976184 -0.0465394 6.65978e-21)
(1.34371 -0.0213626 5.43216e-20)
(1.11398 -0.0256746 4.01652e-20)
(0.98744 -0.0235607 0)
(0.673467 0.125027 0)
(1.34663 -0.0174398 5.22868e-20)
(1.29389 -0.283307 -9.54223e-20)
(1.03779 -0.00154461 -2.3706e-20)
(1.25351 0.135274 -4.29213e-20)
(0.919715 -0.281398 2.72323e-21)
(1.19336 0.115586 0)
(0.959304 -0.0555709 0)
(1.03078 -0.107158 -8.26812e-22)
(1.19469 -0.276764 4.90928e-20)
(0.918397 -0.098449 0)
(1.25085 0.145936 0)
(1.24385 0.00411135 5.16808e-20)
(1.24639 -0.00358071 7.12752e-20)
(1.10533 -0.427564 0)
(1.17266 -0.784772 1.13074e-19)
(0.993887 -0.00197781 -4.09569e-20)
(0.0783271 0.0399512 -9.11522e-20)
(0.38444 -0.064274 -5.94881e-20)
(1.25054 0.160294 5.79862e-20)
(-0.280598 -0.00744028 7.76037e-20)
(1.05444 -0.248427 1.79683e-20)
(0.317708 0.0901963 -6.5641e-21)
(1.3278 0.0492452 1.05703e-19)
(1.0583 -0.031839 -3.18575e-20)
(1.1848 0.0150732 8.6333e-22)
(1.11831 -0.0123898 1.76801e-19)
(1.10205 -0.135196 -1.78677e-21)
(1.01266 -0.0310927 -3.10178e-21)
(1.01306 -0.0293109 0)
(1.20971 0.152199 0)
(-0.232731 -0.00698005 8.76075e-20)
(1.15248 0.0327347 0)
(-0.218737 -0.00641877 5.3815e-20)
(1.02305 -0.0167226 0)
(0.295896 0.0811236 0)
(1.01939 -0.468629 1.40215e-20)
(-0.371053 -0.0165376 -2.32456e-19)
(1.31257 -0.10869 4.01626e-20)
(1.14348 -0.0775572 5.85278e-20)
(1.1308 -0.0327365 -3.21858e-20)
(-0.360061 -0.0156427 2.34638e-19)
(1.29807 -0.277812 6.00884e-20)
(1.05521 -0.240091 1.5822e-20)
(0.739578 0.104061 0)
(1.08361 -0.0575414 1.71002e-21)
(0.994469 -0.420155 8.20713e-20)
(1.20783 0.154822 0)
(1.22399 0.116061 5.31619e-20)
(1.1873 -0.0797408 0)
(1.30604 -0.246057 0)
(0.992408 -0.0406883 4.38e-21)
(1.0002 -0.00335091 0)
(0.942125 -0.0623906 0)
(0.987014 -0.0249454 -1.88014e-21)
(-0.0539466 0.0286771 0)
(1.00708 -0.00135878 -4.25944e-21)
(0.716944 0.132674 0)
(-0.115318 0.0162611 1.26603e-19)
(1.31598 -0.111991 0)
(-0.206619 -0.0141284 0)
(-0.360658 -0.0166266 -2.11096e-19)
(1.18012 0.10889 5.67264e-20)
(1.29804 -0.355602 0)
(0.88544 -0.088904 -3.67351e-20)
(0.99852 -0.0067298 0)
(0.986078 -0.0415167 5.45882e-21)
(1.03503 -0.00896518 1.04851e-20)
(1.05295 -0.0150322 -2.2172e-20)
(1.00184 -0.000973113 -8.10552e-21)
(1.28072 -0.0534563 2.6625e-20)
(1.35486 -0.0862508 -5.44202e-20)
(0.916366 -0.294365 0)
(0.432299 0.0310604 1.80726e-19)
(1.05227 -0.100351 -2.91118e-21)
(-0.175226 0.00826736 7.1123e-20)
(0.999929 -0.000522693 -1.47548e-21)
(-0.177244 -0.0149407 -1.34578e-19)
(1.19187 -0.152852 6.17592e-20)
(0.999817 -0.00109277 -1.80199e-21)
(0.996956 -0.0106365 -3.42604e-24)
(-0.0780671 0.0237961 0)
(1.14814 -0.0671758 0)
(0.29522 0.0710552 0)
(-0.0212421 -0.00628282 -1.07901e-19)
(1.22276 0.0319068 0)
(1.27389 0.0213895 0)
(1.05287 0.00237995 1.15499e-20)
(-0.125005 0.00923377 5.06215e-20)
(1.00407 -0.127921 4.24005e-21)
(1.13041 -0.0272831 6.22947e-20)
(0.668317 0.123503 0)
(0.998625 -0.00719317 2.20502e-23)
(0.982909 -0.0794253 0)
(1.06352 -0.015782 -1.69443e-20)
(1.19546 0.075942 -5.93473e-20)
(-0.247062 -0.00574014 0)
(1.1599 -0.100564 0)
(1.19097 -0.0716446 -7.89153e-20)
(1.36576 -0.283025 0)
(-0.227377 -0.0152118 0)
(0.890081 -0.112802 5.96889e-20)
(1.00906 -0.158138 -6.82662e-24)
(-0.0132698 0.0364617 7.49284e-20)
(1.03421 -0.00867491 1.27515e-20)
(-0.0199149 0.0351124 0)
(1.00073 -0.00221127 -4.15854e-21)
(1.11863 -0.0229717 3.44829e-20)
(0.478444 -0.0286086 -5.13264e-20)
(1.25217 0.0958391 -2.87346e-20)
(1.29488 0.0998944 7.89953e-20)
(1.28674 -0.184346 -8.53512e-20)
(1.24639 -0.0442422 0)
(0.99956 -0.00470668 4.92308e-21)
(0.999965 -0.000490435 -6.03519e-21)
(1.28512 -0.0642979 1.17047e-19)
(1.08018 -0.0604764 0)
(0.999634 -0.00400805 -5.88845e-21)
(1.15078 0.0423822 0)
(1.33847 -0.323288 -1.4345e-19)
(1.00875 -0.0098436 -9.08797e-21)
(1.26501 -0.369332 0)
(1.17465 -0.525445 -4.00405e-20)
(0.358868 0.0803051 -6.55503e-20)
(1.28674 -0.178118 8.15931e-20)
(-0.137391 -0.0280951 -9.68252e-20)
(0.841858 -0.15465 5.45106e-20)
(0.998387 -0.00741001 0)
(1.32032 -0.208194 -9.53598e-20)
(1.0222 -0.0175809 0)
(1.15602 -0.0431387 -2.48487e-20)
(0.104802 0.0446156 1.17244e-19)
(0.0170866 0.0388435 0)
(0.0464684 -0.0152584 3.71535e-20)
(0.0152452 0.0418426 7.20422e-20)
(1.05562 -0.0682218 0)
(1.04939 -0.0666852 1.64358e-20)
(0.999773 -0.364296 0)
(1.02558 -0.10385 9.00955e-22)
(1.04125 -0.0306855 0)
(0.269986 -0.17984 -8.62195e-20)
(1.17412 0.0974364 1.20181e-19)
(-0.25149 -0.00646124 4.39898e-20)
(1.20233 0.157744 -8.61793e-22)
(1.25635 0.0958122 0)
(0.985927 -0.0279804 -9.51069e-21)
(1.03669 -0.019933 5.54363e-22)
(0.896259 -0.283817 0)
(1.29793 0.0304532 4.0216e-20)
(1.12262 -0.0229064 -1.32887e-20)
(0.999767 -0.00252661 2.1809e-21)
(1.29008 0.106225 -3.38854e-22)
(1.36156 -0.13045 -1.27361e-19)
(-0.210459 -0.00624845 7.2005e-20)
(0.976318 -0.0523214 -3.85071e-21)
(1.00183 -0.00622555 -3.62523e-21)
(-0.263326 -0.00756742 4.35693e-20)
(0.960087 -0.0536502 0)
(1.19704 -0.0449837 0)
(1.022 -0.0135474 -6.84455e-21)
(-0.20457 -0.0115647 0)
(1.01704 -0.00084018 5.80903e-21)
(-0.274251 -0.0182258 1.89515e-22)
(0.995838 -0.0196104 2.00179e-21)
(1.26991 -0.298914 0)
(1.21799 -0.00996907 0)
(0.973622 -0.367338 -2.82075e-21)
(1.19133 -0.0776064 -5.78153e-21)
(1.00076 -0.0497283 0)
(1.13069 -0.0452615 -3.86698e-20)
(1.00615 -0.00711606 -2.96795e-21)
(0.740473 0.136416 3.79136e-20)
(0.965354 -0.063212 1.26127e-20)
(-0.139433 0.00310785 0)
(1.08728 -0.0561066 0)
(0.283241 0.0492229 -7.71581e-20)
(-0.150682 0.00918883 9.71398e-20)
(1.17895 -0.0858454 3.92844e-20)
(1.0071 -0.00504782 -4.75255e-21)
(-0.193537 -0.0145235 1.25401e-19)
(0.177186 0.0657018 0)
(1.15375 -0.0536353 3.58034e-20)
(1.24938 0.0996017 -1.15238e-19)
(0.985786 -0.0403741 0)
(-0.20128 -0.00596207 0)
(1.05997 -0.0328901 8.35385e-21)
(1.14718 -0.0166614 0)
(1.00179 -0.0211592 1.91097e-21)
(1.00667 -0.00741149 -8.41246e-21)
(0.339873 0.0787797 -1.83952e-20)
(1.20049 -0.0334206 9.25671e-20)
(1.00218 -0.0144708 1.74027e-22)
(1.15668 0.0614992 0)
(-0.200036 -0.00219691 5.25432e-20)
(0.71206 -0.888484 -2.43766e-21)
(0.0137288 0.0145714 0)
(1.0327 -0.0259951 -7.09158e-21)
(-0.267757 -0.00550292 0)
(0.999504 -0.020886 2.04205e-22)
(1.00836 -0.00929079 7.54263e-21)
(0.978436 -0.0554337 7.96241e-21)
(1.02996 0.000797296 0)
(1.00002 -0.00511085 0)
(-0.00830148 0.00827765 0)
(0.0814512 0.0390248 1.72914e-19)
(1.08328 -0.0307103 5.72697e-20)
(1.00163 -0.00143566 -1.27063e-21)
(1.22005 -0.0639175 0)
(1.03164 -0.0383416 0)
(-0.17592 -0.0168132 0)
(1.32658 -0.20526 4.97976e-20)
(-0.297769 -0.00980487 0)
(-0.19966 -0.0137796 -7.87451e-20)
(1.12967 -0.0471291 -7.57695e-22)
(1.25308 0.14289 0)
(1.00247 -0.0199522 0)
(1.22493 -0.00486492 -2.37289e-22)
(1.01445 -0.448906 -2.82061e-20)
(1.06611 -0.00572801 0)
(1.00063 -0.00217846 4.83609e-21)
(1.2262 -0.382115 4.59191e-20)
(-0.352885 -0.017762 0)
(1.27016 0.0237825 0)
(-0.323601 -0.0169542 2.54642e-19)
(1.24849 0.0579521 0)
(0.996144 -0.0148132 -4.32645e-21)
(1.22036 -0.0840552 0)
(1.24961 0.102296 9.09827e-20)
(-0.339924 -0.0161934 1.76242e-20)
(1.19242 -0.0120184 -6.84814e-20)
(0.498921 0.0965581 -6.75668e-20)
(1.30218 0.029224 0)
(1.00051 -0.0045163 -1.08766e-21)
(0.0493043 -0.0500987 5.46602e-20)
(0.00216074 -0.0340483 2.98268e-20)
(-0.219526 -0.0015987 -7.38026e-20)
(0.500878 -0.0196304 1.13448e-19)
(0.374227 0.100537 0)
(0.995238 -0.115583 0)
(0.730958 -0.438101 0)
(0.972009 -0.0332049 -9.56415e-21)
(0.568081 0.0651937 -5.64044e-20)
(1.10064 -0.130433 -3.36405e-20)
(1.01383 -0.00262976 0)
(-0.00726147 0.0113595 -1.22341e-19)
(1.04678 -0.0992904 1.8187e-20)
(1.00693 -0.00463428 3.99903e-21)
(1.03222 -0.0671258 -3.07423e-21)
(1.04449 -0.0968365 -1.56822e-20)
(-0.219624 -0.0120857 0)
(1.1274 -0.00525448 -1.41189e-19)
(1.02298 -0.0249415 -1.19214e-21)
(1.22479 -0.0807436 0)
(-0.323149 -0.010211 5.77232e-23)
(1.07226 -0.091061 -1.54355e-20)
(-0.336311 -0.0161032 -1.24258e-19)
(0.964808 -0.0844468 -7.64751e-21)
(1.26039 0.078874 -7.51977e-20)
(-0.192018 -0.00713246 -6.38117e-20)
(1.00322 -0.0131653 -5.58059e-22)
(0.84521 0.146886 -1.5567e-21)
(1.11399 -0.152546 2.70112e-20)
(1.18353 -0.0882082 4.08536e-20)
(0.661206 -0.915096 4.19888e-20)
(1.05014 -0.0981912 0)
(1.34423 -0.180679 4.47229e-20)
(1.19544 0.119519 0)
(-0.175521 -0.000232324 1.6435e-20)
(1.08418 -1.25251e-05 2.54492e-20)
(-0.179976 -0.000155088 6.39383e-20)
(1.18148 -0.0511613 -7.05607e-20)
(-0.29505 -0.00910791 6.5824e-20)
(-0.355035 -0.0161146 0)
(-0.200291 -0.00448568 -6.98598e-20)
(1.22032 0.0392157 8.24945e-21)
(0.996737 -0.0488882 5.86562e-21)
(1.05481 -0.0701195 -7.29399e-21)
(1 -0.00264224 -3.36641e-21)
(1.16071 0.0897817 5.13193e-20)
(0.997311 -0.0128848 0)
(-0.204595 0.000198274 0)
(1.06294 -0.171516 -2.23583e-20)
(0.935088 -0.142187 -2.58495e-20)
(0.892502 -0.108771 -6.80281e-20)
(0.997553 -0.113519 -4.73006e-21)
(1.03186 -0.0250759 0)
(1.12792 0.050512 -4.62015e-20)
(1.11072 -0.132581 0)
(1.11897 -0.0097316 1.90494e-21)
(1.08164 -0.146669 -2.70464e-20)
(-0.0756552 -0.00611487 0)
(0.759605 0.140488 0)
(1.17967 -0.0352765 -7.74518e-20)
(1.1713 -0.227466 0)
(0.00752788 0.0117314 1.04202e-19)
(0.979743 -0.0794457 0)
(-0.205054 -0.0210462 1.86111e-19)