/*--------------------------------*- C++ -*----------------------------------*\
| =========                 |                                                 |
| \\      /  F ield         | OpenFOAM: The Open Source CFD Toolbox           |
|  \\    /   O peration     | Version:  v2012                                 |
|   \\  /    A nd           | Website:  www.openfoam.com                      |
|    \\/     M anipulation  |                                                 |
\*---------------------------------------------------------------------------*/
FoamFile
{
    version     2.0;
    format      ascii;
    class       volScalarField;
    location    "400";
    object      ddt0(omega);
}
// * * * * * * * * * * * * * * * * * * * * * * * * * * * * * * * * * * * * * //

dimensions      [0 0 -2 0 0 0 0];


internalField   nonuniform List<scalar> 
13917
(
-0.0719694
0.000904044
0.00704845
8.25245e-05
0.000259639
0.000777527
0.000513622
0.00185153
0.000401119
0.0380614
0.00271821
4.60809e-05
9.10132e-05
-0.487105
0.000215456
-0.105018
-0.000250237
0.00215063
0.0057649
-0.159483
0.000850663
3.54278e-05
0.00193484
3.53218e-05
0.000164311
0.000964561
0.0200603
-0.0166592
0.00150893
-4.6274e-05
0.0618783
0.00308687
8.37583e-05
0.0352567
-7.93068e-06
0.00336746
0.00018026
-8.62024e-06
0.000512775
0.00119611
-0.000238341
-0.000107062
0.000248605
0.00488644
0.00504153
0.00915079
0.000743363
-0.0258727
0.437456
-7.09201e-06
4.28225e-05
0.00403928
-0.0107807
3.94607e-05
4.4377e-05
0.00381675
-0.559899
0.0019438
-0.000148765
0.0095587
-0.102483
-0.000352927
7.54766e-05
0.000150548
0.126804
-0.0607533
0.00169387
0.0033122
0.0024621
-0.00302662
0.0378488
0.0308458
3.53008e-05
-4.2635e-05
0.000910925
0.000191202
0.000122131
-4.7407e-05
0.000176215
9.04551e-05
6.07972e-05
-0.000281896
3.28698e-05
0.0314542
1.16799e-05
0.00300095
0.00291585
2.23347e-05
0.00115804
-0.000222894
-3.09699e-05
0.000267782
0.574592
-1.06478e-05
6.65906e-05
0.00163379
0.000748689
-0.000194883
1.98127e-05
0.00226337
-0.000106516
-9.432e-05
6.33768e-05
-3.63968e-05
0.000109439
0.0660828
-0.0122042
-0.000359462
-5.91103e-05
0.0228685
5.02326e-06
0.034856
0.00148954
0.132165
0.0961482
0.000217928
0.00525448
-5.13596e-05
0.00630464
2.28796e-05
-0.000170632
-3.39917e-05
0.00180346
0.00377671
0.0166497
0.00993864
0.000138578
0.0010269
1.01602e-05
0.00393488
0.00109123
0.00406715
0.0120817
0.00021283
0.00363358
0.0561702
-0.162775
0.00627711
0.00110724
-9.50859e-07
-0.0385611
-5.05162e-05
0.037366
1.89064e-05
2.80959e-05
-0.000741874
0.0245684
-0.00259109
-0.0473941
4.19505e-05
0.000988783
-5.97499e-05
2.55665e-05
2.29041e-05
0.0174847
3.68663e-05
-3.62976e-05
0.0351674
-0.000181215
-9.31297e-05
1.40168e-05
-0.046796
0.000274614
-0.00523491
0.0173691
0.00213431
0.378555
-0.0400636
-1.10012e-05
0.0012366
3.93908e-05
0.0287353
0.000396892
-0.00959407
0.00284556
-0.000139816
8.32344e-05
0.00477494
0.00100892
0.00030292
0.000240035
3.4746e-05
4.32147e-05
0.000154004
0.0071468
0.0039184
4.12322e-05
-0.000320202
-5.32808e-05
0.0015054
0.00281929
0.0047113
0.00348573
-0.0766592
-9.8709e-06
0.0218417
0.000378277
-0.0058756
-1.01645e-05
3.66001e-05
0.000612343
-0.0108365
0.0189089
0.000141566
0.0219608
0.000871028
0.00102603
-4.90676e-05
0.00426948
6.05058e-05
4.77512e-06
0.000449673
0.000441893
-0.0951458
0.00352926
0.00107332
-0.0046177
9.6876e-06
-3.72122e-06
-2.98996e-06
-0.0361965
0.00274963
0.00287488
6.92081e-06
0.000103871
0.0935729
0.0325118
-2.26525e-06
-1.66139e-06
-0.00023296
-2.57813e-06
-1.77273e-06
0.0151817
-0.206897
4.54187e-05
-1.43581e-05
0.00307405
0.0330877
-0.000206427
7.31579e-06
0.0282172
0.0998817
0.00132917
0.00613288
0.00399358
1.91307e-05
-0.0306597
0.00316169
0.00135669
0.00367373
0.000130049
-0.282076
2.5342e-05
0.001492
0.00257887
4.92013e-05
-0.000232416
0.000149917
5.06384e-05
-2.83011e-05
0.0445873
-0.0387003
-1.42881e-05
-1.8768e-06
4.41933e-05
-2.20956e-06
2.529e-05
9.25203e-05
0.00132932
-9.55771e-06
0.0165966
-0.00434429
2.76848e-05
8.04985e-05
0.0134799
2.49311e-06
0.00217261
0.0543583
2.55132e-06
0.00519038
-2.33297e-05
-0.0575957
-0.000148197
0.00016268
5.10704e-05
1.78021e-05
0.00674127
-3.62278e-05
0.00101985
0.00055831
-0.0647306
-0.00102446
0.00318172
-0.0253817
-9.09415e-05
0.00219545
0.00012802
0.000234997
0.000203838
0.00017473
-1.35782e-05
-3.48206e-05
0.00530997
-0.00180108
0.00141439
0.000161898
8.05503e-06
0.0155261
-0.0402114
6.88872e-06
0.00507657
0.000239037
0.00877221
0.00394407
0.00476568
0.0108762
-0.039502
0.0033261
5.30323e-05
0.0207871
0.0140339
0.00659693
9.0893e-05
0.000197113
0.0187686
4.13269e-05
0.0010622
0.00476768
-0.000272147
0.0296491
1.34358e-05
0.00169808
-8.25431e-06
-0.167149
5.89743e-06
0.00128901
0.00093355
-0.0302263
-0.000182397
0.00367456
-0.00971118
6.22797e-05
4.08485e-05
0.04202
0.0058598
-0.0955138
-0.584633
2.48622e-06
4.49631e-05
0.153829
0.00377858
2.76854e-06
0.000211651
4.09675e-05
0.0017167
0.00135392
0.0035742
0.003253
0.0021714
0.0016992
-0.000609801
1.1236e-05
6.31554e-05
0.000342395
0.00869717
-0.000253905
-0.106958
0.00168071
0.0137878
4.76931e-05
0.00403748
-0.000249029
0.330126
-0.000119634
0.00210315
0.0158661
0.00110323
2.97508e-05
0.0215634
-1.37584e-06
0.0212689
0.00276114
-0.000217418
0.320817
6.1992e-05
-0.0144497
-9.15105e-06
-0.156228
-0.0104688
0.000156406
0.118081
0.00206077
0.000109266
0.0194895
0.00419934
0.000134094
0.0062616
4.14085e-05
0.00205772
0.00796363
1.31728e-05
0.000468421
0.000161907
1.72608e-05
1.07511e-05
1.30738e-05
-0.0977431
0.00210066
5.36685e-05
1.33926e-05
3.09639e-05
0.00208481
0.00339036
-1.76406e-06
-1.1004e-05
0.00405427
0.00360016
1.89283e-05
0.000148914
0.0269218
0.142429
-0.02795
0.00594391
0.00492838
1.52437e-05
-3.43676e-07
0.000647618
1.04513e-05
1.14284e-07
4.84311e-05
4.90862e-07
1.54731e-05
-0.0902345
4.3918e-05
0.00136986
0.0244374
0.00215834
5.48688e-06
2.46823e-05
0.0158222
0.000611643
0.00452959
-9.54217e-08
1.18495e-05
1.11127e-05
-8.39605e-07
0.000168104
6.78303e-05
0.0450516
0.00572823
0.105839
1.19167e-05
0.00131465
0.0124479
5.71736e-05
0.0040157
-0.0608293
3.88488e-05
0.0683783
6.93444e-06
1.2518e-05
2.89232e-05
6.26372e-05
3.51922e-06
3.38832e-05
0.0292847
-0.00806366
2.86061e-06
0.0030594
0.00411509
2.3266e-05
0.00237433
0.00315063
0.0205092
0.000540626
0.0341832
-0.0123968
-0.0170529
6.84008e-05
-0.055067
0.0151643
0.000119139
-0.0316511
-4.79314e-05
3.6971e-05
6.7378e-05
0.000435386
0.000820714
0.00784885
0.00242725
0.000230899
7.3175e-05
0.00204677
0.00184687
5.39458e-05
-0.0527707
0.00132982
0.000561867
0.0224836
1.24269e-05
0.00192843
0.00469694
8.09724e-06
0.0577532
1.27094e-05
-4.62892e-07
0.00215497
-3.30923e-06
1.77231e-05
0.00560051
0.0476545
0.0222742
1.38158e-05
0.000101743
0.000174314
-0.0218957
0.070448
4.84838e-05
4.18375e-05
1.30529e-05
0.00236606
0.0226664
9.87765e-06
-0.00020934
3.16512e-05
1.65005e-05
5.41953e-05
0.000619464
-8.43834e-05
0.00243955
7.96986e-06
3.28983e-05
0.000150645
0.00828797
-4.77133e-06
0.000222086
-2.42848e-05
0.00120555
0.0027953
0.001792
0.00272065
0.00228431
0.000129575
0.00193328
-0.0349293
-0.0866276
0.0349357
3.50513e-06
2.71299e-05
-8.12547e-07
1.97739e-05
0.058171
2.87718e-06
0.0080158
0.000379773
-0.137866
0.00234617
0.000247648
0.15626
2.20776e-06
0.00262934
-0.000131881
-5.35501e-05
-0.0958301
-5.16769e-06
0.00262362
2.36128e-05
5.14667e-05
2.85266e-05
0.00750586
0.00014097
-1.03792e-06
0.00462552
0.00231811
-0.0454538
0.0346474
0.0103374
0.0211248
-4.83995e-06
0.0273705
-2.31543e-05
-0.121888
-0.00286397
-4.03833e-05
0.000236363
-9.19934e-05
0.00126737
0.000216331
-2.89444e-06
-0.000126718
7.88152e-05
0.0251147
1.46297e-05
0.0027111
3.47744e-05
-3.32418e-07
-0.000173521
0.00861721
0.0202326
0.105983
0.0033089
0.000613797
0.00492575
0.0417917
-9.88316e-06
-0.254975
7.36769e-05
0.00381451
2.00315e-05
0.0235062
1.58922e-05
6.14394e-05
2.92344e-05
-0.0379786
0.00136284
0.0721276
-6.84294e-05
0.00122077
4.45743e-06
-9.59158e-05
0.00741414
0.00202925
2.96616e-06
0.0033995
7.3677e-06
-1.68245e-05
-5.55249e-05
0.0192834
1.47299e-05
0.000125832
2.08512e-06
1.73743e-06
0.00869417
-6.43916e-05
0.00406853
-0.000282815
6.59901e-06
-0.103453
0.00280945
4.51992e-05
-0.0651624
0.00246599
0.00364286
0.0053889
1.70237e-06
0.000229864
-0.00317365
0.00293497
0.000571655
0.000181517
-3.31946e-05
-0.000183378
1.49947e-05
-0.0166924
0.00298624
0.000297591
0.0177177
0.00140513
0.00307376
0.103635
-0.0012079
0.0011983
0.00359326
0.0173508
-1.32671e-05
-0.000348136
-0.00528314
7.01364e-06
-6.85787e-05
-0.000172156
0.000513303
2.85798e-05
0.0232401
0.00127118
-1.07811e-05
0.00441084
-6.37251e-05
0.00798371
-2.43775e-05
9.24782e-06
0.050615
0.002696
-0.00121455
4.15917e-05
-3.49724e-05
5.9782e-06
7.02925e-05
0.000652789
1.70224e-05
0.0160257
0.000715143
-0.00100564
0.00703056
-0.000522526
0.0170134
0.000101581
-7.44317e-05
4.93023e-06
0.0566482
0.0923314
0.000410532
-0.00916816
0.0627671
6.22087e-06
7.66573e-06
0.00016725
-0.00605697
0.00334565
0.00137222
6.83783e-05
0.000221315
0.00399365
6.24274e-05
0.00362515
0.00127977
6.25474e-05
9.18222e-05
-8.57849e-05
0.000642626
6.49985e-05
0.00544719
0.000258758
-0.000456418
0.0185905
3.02619e-05
0.0716405
0.000164695
0.000594932
0.000375607
0.00251173
-0.000152703
0.00255915
0.0237996
-0.0023407
2.02217e-05
0.000261001
1.63105e-05
1.51401e-05
2.59815e-05
0.000305797
0.0115169
0.00776865
0.00389662
4.2979e-07
0.00651458
0.000397192
0.000439173
0.00367217
4.80012e-05
0.00268278
0.000761492
-1.12169e-06
0.00270092
0.00333702
0.00126055
1.09951e-05
4.94912e-06
1.44451e-05
-0.0269436
7.99351e-05
-2.19274e-05
0.00168386
1.77645e-05
6.01647e-06
0.00376266
0.000358713
0.000600165
0.121556
0.00158239
0.173514
2.54577e-05
0.00013933
0.00635185
6.48209e-05
0.000206335
-0.000218333
-6.84345e-05
4.12463e-05
0.000286869
0.00183138
1.07305e-05
-0.000101283
2.39955e-05
-0.0277456
0.000169515
0.000540424
-5.42142e-06
0.00364286
0.000177587
-0.0528052
0.00053612
-0.000319515
0.00202249
9.7245e-05
0.0409378
0.000193567
-0.000731187
6.5696e-05
2.47812e-07
1.90949e-05
0.0627539
0.00063019
0.00430436
0.0521975
1.44891e-05
0.0012791
-1.33963e-05
-0.000630505
0.02661
-1.53674e-05
-0.0355984
0.000230386
-0.000863975
0.00510592
-0.00227353
-8.88895e-06
-4.34974e-05
0.00355066
1.00147e-06
3.72139e-05
0.000122552
2.52339e-05
0.00169591
-8.49359e-06
0.00173674
6.21682e-05
-0.0575346
0.0389151
-0.00275766
0.156761
0.112846
-0.0786248
0.00473348
3.25589e-06
7.11195e-06
2.64611e-05
9.34663e-05
1.35911e-05
0.000641922
1.6995e-05
0.0029269
3.96677e-05
0.00646413
7.32671e-05
0.000925533
0.00285086
1.88342e-06
0.00134478
9.64721e-05
-3.03238e-05
0.00041836
-1.16201e-06
0.0666671
0.00314341
0.00814466
6.07372e-06
8.08855e-06
3.96345e-05
2.67946e-05
0.0211732
4.24247e-06
0.00197973
1.51173e-05
-0.0101843
0.000147676
1.88279e-05
0.00257638
-0.000157332
4.63041e-06
0.0132264
-0.155859
0.000153303
0.00366078
-1.07138e-06
0.00179077
-2.14015e-05
2.72859e-05
-0.0130484
-0.00010269
9.01623e-05
0.00441302
-0.0243769
5.92776e-05
0.105035
0.0125189
-6.01908e-05
7.71439e-05
2.66312e-05
0.0060482
8.48909e-06
0.00478499
3.76552e-05
0.0556026
0.000160096
0.0939231
1.35616e-05
-3.08659e-05
-0.00814928
3.1695e-05
0.000147549
0.0308662
0.000108904
1.00486e-05
0.250492
-0.000115785
2.01821e-05
0.00298804
0.000125545
0.113784
0.00125252
0.00314689
0.00533898
0.000214939
0.0643472
7.2174e-05
0.00281883
1.18507e-05
0.0406116
-0.0138721
4.44605e-05
-2.0661e-05
-4.99801e-05
4.89032e-05
-2.10313e-05
-3.15842e-05
-7.43559e-06
1.74842e-05
0.000655975
-1.19739e-06
9.98753e-05
0.00336131
0.00801774
-0.0205431
0.00400019
3.99559e-05
-0.0114468
1.57197e-05
0.00834004
0.0224582
0.657128
2.87888e-06
3.66264e-06
2.3239e-05
3.40062e-05
2.53548e-06
6.04535e-06
1.54167e-05
0.00128401
1.0024e-05
-0.150733
0.165683
1.06192e-05
0.0332271
1.17109e-05
1.3674e-05
-0.000516743
0.0212149
0.00197681
-0.000135749
-0.00254556
-4.3954e-06
1.17492e-05
0.00794527
-1.65128e-05
0.0453536
9.636e-05
0.000337658
6.22705e-06
-1.79517e-05
0.000636158
-0.000861213
0.000124124
0.0479839
0.000223796
-1.55366e-05
8.67031e-05
9.69726e-06
4.17679e-06
0.00369582
0.00117746
0.000284566
0.0643648
-0.288615
-0.00097872
0.00379332
-1.25768e-05
0.0558638
-2.70443e-05
0.00160296
0.00249982
0.000475172
0.000109117
-0.000169327
-0.0293884
-0.0174711
-0.000153619
-0.0118597
-1.70092e-05
1.71756e-05
0.00128151
5.88357e-05
3.50931e-05
0.00258089
-0.00524378
-2.28861e-05
0.000579091
0.0390017
3.70182e-05
2.57082e-06
-0.0287785
0.00670345
8.53492e-05
-5.97274e-06
0.000466612
2.41036e-05
1.02202e-05
0.000318318
0.000217259
2.51394e-05
-0.0261082
-0.000176138
-0.00199262
0.0308107
7.13908e-05
0.045714
4.38514e-05
6.94805e-05
0.0289044
-0.0371465
-0.0335188
0.00129896
0.000693564
5.47883e-05
9.81855e-05
4.27587e-05
-0.0220569
0.00146754
4.31555e-05
0.00233776
1.75543e-05
-0.00234513
0.00346691
0.0040255
0.00252478
-4.88521e-05
0.000800515
0.0374318
0.0802855
-1.54456e-05
0.00671131
2.66615e-06
0.00228374
0.00310361
0.0230404
0.000289625
-1.73378e-05
0.000343558
0.00349542
0.000109722
0.0235453
0.001137
0.00351936
0.0218429
-6.91644e-05
0.00377576
0.000146622
3.5961e-05
0.00024242
0.00383012
-2.80747e-05
-1.80421e-06
0.000111253
-0.0278637
9.80925e-06
0.000108438
0.000216944
7.24943e-05
3.06953e-05
0.00307108
0.00291302
4.34918e-05
4.42318e-06
0.00191177
0.0229513
0.000648796
0.0575753
4.76078e-05
1.00443e-05
0.0845375
-2.09467e-05
0.000119477
0.0809347
0.0486154
0.000272339
0.00225039
0.000302152
0.0138581
0.0022121
0.0007393
0.0371774
8.65853e-06
0.0031465
0.0181624
0.00534125
0.00265387
0.148662
1.44024e-05
3.13436e-05
7.71711e-05
3.19631e-05
3.43166e-05
0.00422865
-8.93734e-05
0.0017826
-7.70372e-06
0.0023841
0.0178185
0.00012567
-0.0124583
0.0699881
1.11105e-05
0.0031525
0.000231647
0.000107622
1.59748e-05
0.0483055
0.00327093
-0.00578398
0.000440931
-0.0428291
0.0032999
-3.65085e-05
0.00108356
0.00117113
-0.0023927
1.92846e-05
0.0108095
1.59751e-05
0.000288211
0.000956888
0.00020526
5.6776e-05
0.00246767
0.056772
1.45465e-05
0.00902729
1.94547e-05
3.72436e-05
1.53196e-05
-0.00144948
-0.0136734
0.00161248
-2.9802e-06
0.00083625
-0.0221829
-0.00346638
-0.0178557
3.11709e-05
9.76291e-06
2.00272e-05
9.73698e-06
2.0178e-05
0.000154044
-0.0187796
3.11087e-05
0.000270602
0.00682452
-0.0118408
0.00402305
0.000478994
-0.0525725
4.32999e-05
-7.91765e-06
9.62598e-06
9.2761e-05
0.00289466
0.121265
0.00449713
0.0029875
0.000572703
0.0021873
0.000206665
-0.055648
0.000263959
0.00476745
-7.24518e-06
0.00184043
-0.0661342
-6.56473e-06
3.91391e-05
0.0555083
0.00196571
0.0198108
0.0141211
0.00561207
6.10411e-06
0.0149409
7.70961e-06
1.13743e-05
-0.231047
-0.00507318
-8.24747e-06
0.000279666
0.00491052
0.000844696
8.29495e-05
-7.60775e-06
1.56e-05
4.07385e-06
1.38182e-05
0.000687135
0.00173404
0.0214104
0.000889511
0.00037948
0.000961157
0.00314853
2.64742e-06
0.000821337
0.00147078
0.00431415
-0.00894266
9.13454e-05
-6.68367e-06
0.0394438
1.06915e-05
-0.0158566
0.000133914
0.0013711
5.24383e-05
1.08544e-05
0.0135417
0.000407588
8.39081e-05
8.34009e-06
-0.0464488
0.0135748
0.0448257
2.49283e-05
3.11363e-05
0.172959
-8.72499e-05
1.2787e-05
0.00313922
0.00074399
0.000397686
0.00106235
7.71437e-05
-0.0160649
1.10148e-05
0.000113276
5.65984e-05
-5.94417e-06
0.00386963
1.18232e-05
3.42455e-06
0.0021668
0.00254653
0.0168679
0.00295722
1.13871e-05
0.000797863
6.78618e-06
3.89415e-06
8.50286e-05
4.55662e-05
3.63932e-05
0.00491181
3.14793e-05
0.00288245
0.000209384
-0.00280968
2.50724e-05
-0.000828392
1.202e-05
0.0401717
-1.41003e-05
0.00540179
0.0031807
4.98991e-05
0.00231023
0.00106658
0.000836529
3.06865e-05
-0.000676652
9.60255e-06
-7.53001e-06
-0.00776209
0.00066879
-0.000178643
-2.76632e-05
-1.89801e-06
3.02591e-05
0.00210595
1.75985e-05
-0.00139025
0.00183413
-1.26866e-05
8.79326e-06
-1.01993e-05
0.00179913
-0.0350008
0.0410547
-0.000558363
-0.003451
-0.00306214
0.00385616
0.000110321
-0.22419
-7.95346e-06
-1.60628e-05
0.000272509
0.0114472
-9.83803e-06
0.0477424
3.4163e-05
-3.74534e-05
0.00325401
0.0113785
-0.00891036
0.00461739
0.000358344
0.00247009
-0.0611235
-2.748e-05
-0.0863593
1.17853e-05
-0.000130908
0.0315558
-9.90317e-06
0.0490879
-0.0174611
1.46488e-05
1.89404e-05
-2.85833e-05
0.00692633
-0.00019428
-7.63988e-06
0.00333695
1.19311e-05
5.5464e-06
4.19908e-05
-9.40105e-06
0.0019144
3.74574e-05
6.47396e-05
1.34587e-06
0.00230243
0.00286927
2.32557e-06
2.64818e-06
8.14653e-05
9.35987e-06
0.000229346
2.81694e-05
-1.66371e-05
3.87544e-05
1.94658e-05
8.50022e-05
2.7279e-05
0.00196487
-1.01527e-05
0.0036485
3.31741e-05
0.00127433
-4.37453e-06
3.46747e-05
1.73845e-05
-8.28105e-06
0.000990769
0.000148689
0.000352658
-0.0093732
0.0187792
0.0515472
0.00394233
0.00368369
0.217752
3.27096e-05
2.5631e-05
0.00221753
0.0137074
4.92409e-05
0.0459888
-8.94218e-06
0.00383919
0.15997
0.000215804
0.00351384
-0.297144
-0.0583893
-5.6331e-05
0.00203363
1.1139e-05
-0.00475972
0.000262221
0.077551
-0.159046
4.23956e-05
0.00130749
0.00868184
-0.000295762
-0.00611423
0.00629985
0.000133755
1.10161e-05
0.00335978
0.0520983
-2.26815e-05
0.000987725
4.72473e-05
0.00336293
0.00567833
3.25989e-05
-3.81832e-06
-0.001166
2.58949e-06
1.09319e-05
7.11131e-05
-1.39648e-06
0.00864656
0.000185508
0.000628869
0.0600462
1.37348e-05
0.0017191
3.27146e-05
0.0010792
0.00213852
0.0530322
-5.66843e-06
0.000565518
-7.88267e-05
-7.02637e-05
0.000226204
2.93006e-05
-0.0349237
9.84881e-05
-4.30777e-07
1.45186e-05
-0.00194604
1.07742e-05
0.019213
0.111173
0.103944
2.47849e-05
-4.80934e-07
1.25953e-05
0.100295
4.53767e-05
-0.0329884
-6.02798e-05
-0.000801955
0.000117598
-2.69908e-05
0.0129269
3.52105e-05
-0.000207233
0.0523559
0.00513488
0.0416874
-3.57838e-05
-0.095969
0.0349712
3.23171e-05
0.0536523
3.8527e-05
0.000137812
0.0011068
0.000103608
0.00110195
-0.0177897
0.000474843
0.0030515
2.22815e-05
-0.0182242
1.23718e-05
0.0247451
1.19205e-05
0.00111022
1.23211e-05
9.24289e-06
5.08282e-05
-0.0278918
1.11864e-06
0.0144101
0.00206124
0.00343484
1.57147e-05
0.000509018
-0.017166
0.00391279
0.00566616
0.00306473
-5.21178e-06
0.00403368
-0.000242428
0.000140516
0.0047883
-2.88958e-05
0.00307514
-0.0609533
-1.71084e-07
-0.00351093
8.55586e-06
0.133813
0.015908
0.00018125
9.48665e-05
0.0171196
0.0246574
8.55149e-06
0.000126841
-1.66512e-06
3.33725e-05
-0.116554
0.00252372
0.00515202
2.11679e-05
0.000473771
0.0573434
0.00796245
0.0535295
-0.0201835
1.20797e-05
1.04838e-05
0.00435937
0.0305095
0.0665137
0.0447918
0.00487489
0.00109797
0.000635694
-0.0230108
0.0225956
0.0129176
1.14163e-05
0.00314344
0.00174283
0.00267335
2.54711e-05
0.000442641
0.00225555
0.00165929
0.101135
-6.58396e-05
0.00783949
0.0620658
0.00123936
8.87142e-06
9.96715e-06
0.00381017
-2.636e-06
0.0231719
0.000515302
-0.000223517
0.00837203
-0.0439065
1.69572e-06
0.00118673
0.000748102
2.62798e-05
0.0769092
0.00094789
0.0515957
-1.10932e-05
0.0488537
0.0143519
0.0049207
-8.61733e-06
0.000359975
0.000522838
0.000641567
0.00455801
0.00310634
-0.0403441
0.00022872
-1.99144e-05
0.000328935
-0.000107695
0.00436802
0.0137878
-5.94543e-05
4.55348e-07
0.000108816
0.0102575
0.000904149
-1.09368e-05
0.00166614
0.00759714
1.05683e-05
-0.0174196
0.00015261
0.0281589
0.000161698
-0.0188702
-0.0272144
0.000612146
0.000165828
0.00795694
1.51797e-05
0.00135011
-0.0117366
7.33683e-05
0.00203721
0.000942769
0.0025453
0.0550624
-0.138974
2.21535e-05
0.250813
0.00260262
-9.67379e-06
0.0039134
0.00272658
0.00333619
-0.0239803
0.00509726
0.185973
0.00362018
-0.000430476
0.000400704
0.00274939
4.36943e-05
3.82313e-05
2.98184e-05
9.22761e-06
0.0126038
0.00193192
-2.92042e-05
0.00116504
0.00406957
1.48728e-05
-0.00650802
0.0995121
-8.71477e-05
4.24853e-05
8.06174e-05
7.79439e-05
0.00189167
1.22694e-05
-0.0402366
0.000736313
0.00280601
0.000202083
0.00257337
0.000464541
0.000425146
0.00849183
2.66573e-05
8.45317e-05
-3.02193e-05
-9.31084e-06
-0.0520565
0.00359714
0.000475111
-0.0568241
2.2755e-05
5.32277e-05
0.000592265
-7.7182e-06
-7.53966e-06
0.00221211
0.000328915
0.00648158
-0.00569693
-0.0185638
2.02135e-05
-0.206397
1.56656e-05
0.00544895
7.06079e-07
0.00690571
0.00861376
1.56802e-05
0.0103728
0.0421063
0.000697357
3.23769e-05
-8.38758e-05
0.000438989
-0.114632
-2.47275e-06
4.53379e-05
-2.45011e-05
-4.39669e-06
0.0031927
4.83118e-05
0.000342971
1.19297e-05
-9.25231e-05
0.00664008
0.0010412
0.000102113
0.00445385
0.00278746
0.0789934
0.483364
2.93622e-05
6.80601e-05
-0.010347
2.68521e-05
0.00295496
2.10391e-05
0.0108402
1.96637e-05
3.15726e-05
0.000337601
-0.0545208
9.55856e-06
-6.43399e-06
-7.49612e-06
0.00443383
-0.26013
0.00463104
5.67232e-06
0.000110827
1.00679e-05
0.0529534
0.000129284
0.0253496
0.0025161
2.29373e-05
0.00544555
0.00051928
0.0149926
6.12291e-05
4.64717e-06
0.000665323
0.00112185
0.00316249
3.95106e-05
5.20536e-05
1.39203e-05
0.0272462
1.47989e-05
3.9825e-05
-0.178567
0.000117088
0.00124404
0.000276146
8.46382e-06
-1.67484e-05
0.0126867
0.000186545
-0.199832
-0.00459537
-7.5599e-06
0.010316
5.25435e-05
0.00373006
0.00173307
4.5328e-05
-3.10662e-06
-7.97289e-06
1.23637e-05
0.505032
0.00204398
0.0347053
0.00819037
1.01653e-05
-0.00144099
0.00110049
0.00596277
1.60902e-05
-0.017745
-0.189699
0.0260173
-1.41592e-05
0.000138276
6.37788e-05
0.000282238
-0.0479048
-9.89973e-05
9.32414e-06
0.000819227
-0.0399942
3.46944e-05
0.000146152
9.10764e-05
0.00382933
0.0121883
-7.11255e-06
0.0117911
0.000185654
9.02706e-06
-0.219649
0.00251857
0.0103868
0.341287
0.000693899
0.000149756
4.21004e-05
0.000301148
5.86217e-05
0.00207433
0.00144071
-1.77488e-05
0.000264061
0.00451767
0.0177441
-2.87244e-06
0.00434506
-0.205326
0.0288152
-1.70926e-05
2.82578e-05
-0.00663832
-0.00340485
0.00241391
1.71057e-05
-0.109069
0.00277382
-1.00007e-05
0.030195
0.000420655
3.90098e-05
0.0100459
2.46453e-05
0.000269014
-2.17424e-06
-3.12331e-06
2.63144e-05
-7.58655e-06
0.128803
-1.21802e-05
1.46569e-05
0.00336698
0.000338945
0.000150343
0.00665954
3.12959e-05
8.05886e-06
0.000114769
8.3948e-05
-0.000744839
-0.00387693
0.0179386
0.410437
0.000244007
0.026577
0.000811996
-0.00883292
-0.0436218
0.086847
6.76645e-06
0.000474569
1.6312e-05
3.2362e-05
-1.11077e-05
-5.66902e-05
0.00500606
0.00254573
0.00102548
1.44818e-05
1.01475e-05
0.00239307
4.45418e-05
4.9047e-05
3.16283e-05
0.0462053
0.00071342
-0.0337484
1.86857e-05
-0.00587661
5.50754e-05
2.78497e-05
5.32366e-05
0.00179115
1.4332e-05
0.00330404
0.030433
0.00122555
0.0435474
-0.00935128
-5.99419e-05
0.000474317
-0.0144518
0.00464969
-1.36101e-05
-1.12085e-05
-7.7179e-06
0.00700712
-5.6028e-06
0.00188691
-0.0002689
0.00306684
-0.176846
-0.097146
0.00291335
0.0859429
-1.88759e-05
-5.87278e-06
0.0107196
-0.0209746
2.40341e-05
2.17755e-05
0.0447746
1.13581e-05
0.00388907
4.92719e-05
0.000105497
0.000263087
2.3066e-05
0.00286219
0.01678
0.0190253
0.000289139
-3.01159e-05
0.00231908
0.000101858
0.00286925
8.78275e-06
0.00515178
0.00367158
4.90952e-05
3.66737e-05
-6.56916e-06
0.00328067
0.000287057
0.00330945
0.00253719
0.000613536
0.0254296
0.00335111
0.00390066
0.0686538
1.61305e-05
0.00937051
8.56671e-05
0.0403047
0.0144064
0.0108444
-0.199626
-0.000304892
0.00207645
0.0183972
2.37218e-05
-0.011592
2.98554e-05
2.51511e-05
0.000417899
7.0476e-05
0.000855987
0.00720917
-0.0014815
0.00916237
0.000359545
0.00115687
9.19196e-05
2.18102e-05
2.88606e-05
0.00558054
0.00397365
-0.00201524
0.00155979
-2.64272e-05
-2.8202e-07
4.93857e-05
0.0043048
0.000151561
5.79941e-05
0.000273677
0.00208387
0.000941281
0.00118307
0.000221737
0.00499351
0.00058099
0.00102834
1.60403e-05
0.000425185
0.0136139
-0.0145364
0.00141252
-8.40189e-06
-0.241359
0.00094267
1.62929e-05
0.00194773
0.0367853
-0.00791454
0.000749193
1.13191e-05
0.0222816
5.19782e-05
1.06294e-05
-2.31843e-05
0.0237967
0.0105359
-0.00010025
-0.00351956
0.0456008
6.10503e-05
0.000237321
0.00231519
0.0445807
0.000670751
-0.0365859
5.23632e-05
-0.0638547
-0.000634367
0.0533561
0.00102921
-1.05473e-05
0.0687412
2.2113e-05
7.88163e-05
-0.00651894
-0.0267222
0.000505686
0.0117159
0.00028579
0.000115784
0.0317273
1.6697e-05
1.21751e-05
1.99604e-05
0.0017555
1.57261e-05
0.000375873
6.87535e-05
-0.0102281
-0.0162047
7.71996e-05
0.00118724
7.16434e-05
0.0579395
0.0497334
2.14276e-05
4.16202e-05
0.000374062
0.000468256
0.00409039
0.00268625
0.036578
0.0162655
0.001652
-3.9174e-05
-0.021021
-0.0282263
0.000631647
0.0189622
3.51971e-05
2.16908e-05
1.79243e-05
7.19789e-05
1.37669e-05
0.00106405
0.032032
0.000241371
-0.00238359
-0.247654
-0.023528
-0.0107363
0.0802709
0.000179557
-0.0509019
0.0037571
0.00327468
-3.48167e-07
2.58428e-05
0.00314993
0.0265489
4.45904e-05
-0.174472
0.0727644
7.55886e-06
2.80297e-05
-2.29804e-05
0.00261496
5.54216e-05
0.0029082
0.00859737
-3.86877e-06
5.3505e-06
7.47696e-06
8.01346e-05
0.00401443
0.0293683
0.000891715
-0.0223797
0.00460669
1.46966e-05
-0.0127347
0.00352439
-0.00023484
0.0193068
0.000702372
0.0143797
0.000607933
0.0386289
2.28827e-05
-0.0128789
0.045015
0.00665046
0.0166532
-8.36259e-06
0.000119084
0.000180785
0.0001736
0.0505646
0.00265163
3.99663e-05
0.000447098
-0.0165185
0.055118
-5.08871e-05
-0.000885448
0.043753
0.0817535
3.66204e-05
0.00044135
0.00381381
1.0896e-05
8.25885e-06
0.0168433
1.46854e-05
0.00427664
-0.00782512
0.191411
1.38965e-05
0.00211834
0.00702677
1.50718e-05
-1.83872e-05
-0.165039
0.0920226
2.36706e-05
0.000419504
0.00307131
0.00371711
0.00978072
0.00296768
0.000317093
-0.0168362
0.00609412
0.00100792
1.17852e-05
0.00264816
-6.49632e-06
-2.47145e-05
0.0121667
0.00103901
0.00368164
0.00026469
-7.53383e-05
-1.08147e-06
-1.05391e-05
7.41302e-05
9.14881e-05
-0.192493
0.000243742
0.0131146
0.00960288
0.00148879
0.00314991
-0.0535995
-0.0573387
-0.201306
-3.56591e-05
0.000301618
0.00105447
0.000299275
0.00577792
0.000990654
7.0937e-05
0.0167993
0.0547323
0.000359004
0.00414494
0.00334984
0.00442299
0.00449527
0.000122589
0.00461555
0.00484775
0.00391671
0.00436514
0.00417354
0.00350462
0.000118023
1.31153e-05
0.000995504
0.00427295
1.47883e-05
0.000861615
-0.0127478
0.00831957
0.050467
-1.24386e-05
-1.00076e-05
-0.0798109
0.0432985
8.45544e-05
0.000140081
0.00267709
-0.0576282
0.194118
2.9506e-05
0.000470017
0.000313965
0.0909301
-0.0105658
0.000252252
0.00504387
0.0522688
0.0048779
0.0500333
0.00359992
-0.0103621
-0.019753
-1.05852e-05
0.12787
0.066121
8.5371e-05
0.00270947
0.00378621
0.000136635
-1.28362e-06
-0.000639068
-0.0338576
-3.04711e-05
-2.80017e-05
0.0373383
0.0179892
0.00303605
4.33458e-05
0.00335906
0.00353037
0.0741337
0.0319663
2.59174e-05
9.57165e-06
8.05774e-05
4.54267e-06
-0.0695319
0.0727899
-0.0132363
0.00388617
0.0140209
0.0117155
-8.45147e-06
1.24265e-05
0.0570099
-9.39034e-06
-0.0683634
7.01194e-05
0.0524678
0.000104126
6.75311e-05
0.228511
1.59987e-05
0.00519665
0.00295276
9.23893e-05
0.000104497
0.000115932
0.00401301
0.0281238
0.00627642
0.0664673
5.15427e-06
-6.50272e-05
0.000567542
0.0028853
0.191965
-0.0768231
0.00353535
0.00280356
0.00538279
0.0373475
-0.000525682
-1.12867e-05
-3.52952e-06
-2.11555e-07
0.00931013
0.00212475
-0.022043
0.00122193
0.0068332
1.63755e-05
0.0132407
-0.00171566
0.103322
5.04904e-06
0.000127559
-3.24252e-06
0.0568167
0.00114849
-0.0590711
0.00642584
0.00551829
0.0119756
-7.12472e-06
0.00139818
0.00675293
0.0116942
0.0220469
2.06865e-05
0.00635741
5.08175e-05
1.73272e-05
0.00280948
0.567475
-0.000827645
4.19418e-05
0.00311139
0.00343838
-0.0330652
0.00708566
-0.216627
0.202886
5.25681e-06
0.00245128
1.96373e-05
0.00660469
-9.59603e-06
0.00425285
8.39921e-05
0.00199531
-0.00216558
0.0102623
-8.51632e-06
0.00207308
0.0679367
0.00384939
9.46413e-05
-0.0150183
0.00385706
-0.00020214
1.97965e-05
0.134784
0.000595891
0.00525731
0.0162627
-0.0158455
-0.0175619
-5.76214e-05
0.175184
0.0258176
0.394173
-0.000742682
0.000857661
0.00514734
0.00477345
-0.235434
0.000724585
7.40183e-05
0.0145837
0.000262822
0.00398439
0.000411533
0.00104915
0.00540478
-0.0026701
0.000446025
-0.0851853
0.000198508
0.0130542
0.00654559
0.0318849
-0.00976858
1.08584e-05
-6.02601e-06
0.0515461
0.0972259
0.000152361
6.72733e-05
0.00129046
0.000225305
-0.00936696
0.00241082
0.0634024
0.000327298
0.0564441
0.00538498
0.312482
7.06502e-05
0.00490486
0.0151528
1.75822e-07
0.00347991
-8.42309e-06
0.000252162
2.91289e-05
-0.0163894
1.80148e-05
2.17808e-05
-0.0324074
-0.0190926
-1.21728e-06
0.139022
8.56536e-05
2.6345e-05
1.52513e-05
-3.56773e-06
4.03502e-05
0.0187778
0.0253799
-1.00125e-05
-0.00116497
0.00317732
0.00207062
0.0179193
0.00394222
0.000299919
0.00100572
8.87607e-06
-0.0138973
0.000409627
0.189218
3.59543e-05
0.0194652
0.0142084
0.00285909
-0.0158579
0.0484682
5.4532e-06
0.0430337
0.00223839
0.00297826
0.000696724
1.79967e-05
-0.000330544
0.00507735
2.56546e-05
0.00250453
5.32283e-06
0.101825
0.0046917
0.0929449
0.00339042
0.00295249
-0.0410964
3.3412e-05
-1.02694e-05
0.00287943
0.000120969
4.09166e-05
4.34389e-05
0.000399773
1.53257e-05
1.20281e-05
0.000102004
0.00128095
0.000140329
0.000382272
4.0244e-05
0.000213076
0.00383848
0.000163576
0.170022
0.00015085
1.48982e-05
0.00418546
0.0017838
1.85801e-05
1.45153e-05
-0.000239509
0.000186797
0.0547631
0.00020619
0.00407976
1.25728e-05
2.15818e-05
0.00208012
0.00505619
0.00334359
0.000850357
2.9869e-06
0.0782348
3.09526e-05
1.2627e-05
0.00368488
0.000232163
0.00320739
0.0685504
0.00477102
0.0024141
0.00127264
-0.00094748
2.96992e-05
3.44101e-05
0.00241543
-0.0180102
0.00271338
0.00390023
0.0212671
0.000412516
3.05054e-05
0.000576216
0.00509764
0.00250222
2.67181e-05
0.00442801
0.00368377
0.00266288
3.74739e-05
2.13518e-05
0.00066576
0.00257934
-0.00410747
0.0240955
0.000101038
0.00325032
3.75229e-05
0.00191627
0.00903775
4.12046e-05
0.00201366
-0.0207896
0.00334897
0.106615
2.30524e-05
2.49765e-05
1.0361e-05
-0.0625075
0.00356016
0.00013934
0.00212744
0.00438469
3.54717e-05
2.58728e-05
0.0033438
0.0565182
0.000322532
0.0643168
0.00289007
0.000884531
0.0129331
0.00471167
0.000858127
-0.202219
0.00371437
-0.214245
2.70429e-05
0.00369438
0.0050102
8.29952e-05
-0.000730869
0.0012318
0.00194206
0.000399484
0.00385818
1.56833e-05
0.0284088
0.000296639
6.57967e-06
-1.16897e-05
6.11958e-07
9.86412e-05
8.82721e-05
-5.58259e-08
0.000253183
3.62077e-05
7.8054e-05
-0.00902635
0.00371329
7.75219e-05