/*--------------------------------*- C++ -*----------------------------------*\
| =========                 |                                                 |
| \\      /  F ield         | OpenFOAM: The Open Source CFD Toolbox           |
|  \\    /   O peration     | Version:  v2012                                 |
|   \\  /    A nd           | Website:  www.openfoam.com                      |
|    \\/     M anipulation  |                                                 |
\*---------------------------------------------------------------------------*/
FoamFile
{
    version     2.0;
    format      ascii;
    class       volScalarField;
    location    "400";
    object      p;
}
// * * * * * * * * * * * * * * * * * * * * * * * * * * * * * * * * * * * * * //

dimensions      [0 2 -2 0 0 0 0];


internalField   nonuniform List<scalar> 
13917
(
-0.0640527
-0.00680394
-0.0578015
-0.0420756
-0.000994425
-0.00664169
-0.0540553
-0.00239275
-0.0712157
-0.0785274
-0.00327171
-0.0313136
-0.0286706
0.01344
-0.00778781
-0.0627734
-0.000344914
-0.00450198
-0.0566442
-0.0694785
-0.0182833
-0.00902706
-0.0569894
-0.00871182
-0.0360142
-0.0156756
-0.0123051
-0.0788604
-0.00922057
0.000142384
-0.0787283
-0.0684317
-0.0359837
-0.058267
-0.000677309
-0.0022312
-0.020909
-0.00947978
-0.0552083
-0.0253838
0.00148895
0.00117148
-0.0666224
-0.0606877
-0.0602388
-0.033551
-0.0190937
-0.0672873
-0.0149478
-0.000759807
-0.0309459
-0.0404985
-0.0467862
-0.0208731
-0.0223339
-0.0416336
-0.075614
-0.0560026
0.00112561
-0.0321575
-0.0363364
0.00237584
0.000204864
-0.0360942
-0.0597394
0.00226854
-0.00759553
-0.00259155
-0.0036874
-0.0520699
-0.0583063
-0.0573814
-0.0424112
0.00103772
-0.0184972
-0.0306197
-0.00376334
0.000964746
-0.0308193
-0.0361487
-0.0144184
-0.000629748
-0.0421598
-0.0557774
-0.0207894
0.000494127
-0.0685572
-0.0202931
-0.0248361
-0.000336481
2.95185e-05
-0.0679132
-0.0116464
-0.00061307
-0.0196401
-0.00832666
-0.00879247
-0.00250058
-0.0206568
-0.0133419
-5.41601e-05
-0.000164747
-0.014669
-0.0031611
-0.00367983
-0.0508619
-0.0697926
0.00254882
0.00126316
-0.0127345
-0.0312544
-0.0591211
-0.0100101
-0.0731351
-0.059872
-0.0282353
-0.0568706
0.000225057
-0.0579807
-0.0419119
-0.000566549
0.000789105
-0.00673233
-0.0503021
-0.0433055
-0.0552794
-0.037013
-0.0177997
-0.00390737
-0.0511373
-0.0712008
-0.0224015
-0.0439387
-0.0275835
-0.0659729
-0.0119787
-0.0270215
-0.0362023
-0.0140911
-0.00912601
0.0162372
0.000895716
-0.0515009
-0.0121168
-0.0400452
0.00172152
-0.057866
0.00163164
-0.0776162
-0.0211301
-0.0252681
0.000234426
-0.0397941
-0.0423466
-0.00869068
-0.00457715
-0.00305642
-0.0438059
-2.87379e-05
0.000165092
-0.0175567
-0.0605414
-0.0155687
0.0133079
-0.0565151
-0.0121766
-0.047646
-0.0586459
1.50988e-05
-0.0133693
-0.00801635
-0.0494368
-0.0719135
-0.0317523
-0.0370886
0.00023791
-0.042901
-0.0390857
-0.0712006
-0.0150188
-0.0642884
-0.00825337
-0.0302572
-0.0453778
-0.0576791
-0.0214275
-0.0298697
-0.0443917
0.000187704
-0.00107674
-0.0360262
-0.0606993
-0.0470089
-0.0666587
-0.000714204
-0.0450953
-0.0376387
-0.0444553
-0.000593841
-0.00503367
-0.0206013
-0.0541328
-0.0363844
-0.0185558
-0.0139662
-0.0111047
-0.0256914
0.000873669
-0.0401834
-0.013711
-0.00460934
0.000437367
0.000720889
-0.0717895
-0.066603
-0.015012
-0.0640501
-0.0132478
7.80131e-05
7.71471e-05
-0.0616997
-0.0460565
-0.0432166
-0.0299566
-0.000204542
-0.0123369
-0.046649
0.000264185
0.000222205
-1.34125e-05
0.00010293
8.88571e-05
-0.0581507
-0.0673769
-0.0117898
6.47557e-05
-0.0439947
-0.0536389
0.000162168
-0.0297026
-0.0141326
-0.0514451
-0.0462718
-0.0651099
-0.0344609
-0.0124511
-0.054909
-0.0445658
-0.0107469
-0.0578261
-0.019059
-0.0720874
-0.0420629
-0.0342669
-0.0381698
-0.0109258
0.00137823
-0.03696
-0.000958297
0.000424167
-0.0444822
-0.00385236
0.000669638
5.43043e-06
-0.00448955
-1.74863e-05
-0.042442
-0.0286724
-0.0472236
0.000760245
-0.0352753
-0.0681742
-0.0268557
-0.00209116
-0.0299664
3.62356e-05
-0.0143823
-0.0447324
5.04258e-05
-0.0525223
0.000317181
-0.0568511
8.94034e-06
-0.00837385
-0.0106468
-0.0106645
-0.0530671
-0.00718233
-0.0116771
-0.0335592
-0.00491122
0.00172833
-0.0152242
-0.0344427
0.000189806
-0.0503847
-0.00105823
-0.0264257
-0.00117632
-0.0318095
-0.000174793
-0.00693004
-0.0369042
0.00295639
-0.0342411
-0.0320226
-0.0291144
-0.0425766
-0.0540524
-0.00338237
0.000534772
-0.0271957
0.00165396
-0.0659603
-0.0688106
-0.0335033
0.0012127
-0.0235655
-0.00218874
-0.05581
0.00116423
-0.0579503
-0.0286512
-0.00771948
-0.0133744
-0.00655466
-0.00642338
-0.0601928
-0.000244786
-0.0506657
-0.0204981
-0.0838814
3.98558e-05
-0.0688577
-0.00695454
-0.0355418
-0.0111825
3.78827e-05
3.47117e-05
-0.0594688
-0.0524942
-0.020659
-0.00614257
-0.0585157
-0.0521335
-0.0442928
0.0125032
7.61002e-05
-0.0134651
-0.0514615
-0.0246097
2.53845e-05
-0.00085927
-0.0257934
-0.0139634
-0.0353876
-0.0473533
-0.0287748
-0.0136607
-0.0783017
-0.0634467
-0.00391059
-0.021284
-0.000529394
-0.0553164
-0.000182324
-0.0657467
-0.079196
-0.0019052
-0.0220752
-0.0265971
0.000575992
-0.00706164
0.00118631
-0.0442296
-0.0314139
-0.0102684
-0.0268061
-0.0565648
3.95289e-05
-0.0532088
-0.0470337
0.00123305
-0.0104101
-0.00897949
0.00427968
-0.0010677
-0.0724062
0.00363695
-0.0237273
-0.0133613
-0.0141781
-0.0191679
-0.051534
-0.0661687
-0.0252225
-0.0526615
-0.0150734
-0.0129336
-0.0578538
-0.0207717
-0.0610273
-0.0328915
-0.0115051
-0.0113253
-0.004162
-0.0290864
-0.0133529
-0.021679
-0.00354151
-0.00931715
-0.0456769
-0.0030228
1.80088e-05
4.95827e-06
-0.0659877
-0.0258786
-0.0107177
-0.0239775
-0.0363273
-0.0043452
0.00195562
-0.0569959
-0.0561182
0.000401724
3.77572e-06
-0.0178281
-0.0113596
1.0315e-05
-0.0114809
-2.49637e-05
0.000355103
-0.0606195
-0.0153082
-0.0264943
-0.0357174
-0.0494271
-0.00464369
-0.0389873
-0.0531848
-0.0196552
-0.041936
2.06595e-05
-0.0288449
8.27427e-06
0.000156732
-0.020766
-0.00806076
-0.0331339
0.00195579
-0.0507068
-0.0284282
-0.0638199
0.00233147
-0.0136249
-0.0356606
-0.042263
-0.0260625
-0.00597361
-0.00496789
-0.0105491
-0.00929056
-0.00938707
-0.0044878
-0.0173477
-0.0425029
-0.0343683
-0.00445682
-0.015179
-0.0646521
-0.0295106
-0.0485436
-0.0830397
-0.0554907
-0.0636164
-0.0510918
0.000449309
-0.000468886
-0.0084195
0.00132766
0.00274348
-0.0187133
-0.0463717
-0.000116548
-0.0212324
-0.0203055
-0.065202
-0.0212588
-0.0574549
-0.0604776
0.00149457
-0.00166152
-0.00515693
-0.0256772
-0.0212378
0.0175354
-0.0518956
-0.0345145
-0.0489009
-0.0209777
-0.0252485
-0.0386747
-0.00873132
-0.040243
-0.0109466
0.000106473
-0.046173
-5.66098e-06
-0.012643
-0.0359631
-0.039944
-0.0185495
-0.0177794
-0.0490066
0.00134139
-0.0427126
-0.0233193
-0.0209646
-0.0218795
-0.0176325
-0.0397465
0.00237369
-0.00304285
-0.000126908
-0.00509999
-0.0118522
0.00112978
-0.0427474
-2.57287e-05
-0.059469
-0.00874729
-0.0100049
-0.0332152
-0.0674267
-0.000631129
-0.0547845
0.000283256
-0.0637063
-0.0493705
-0.0102699
-0.0382098
-0.0140385
-0.0310895
-0.00605185
-0.0451874
-0.0618639
-0.036442
-0.00289693
-0.00877219
0.00156772
-0.028759
-0.0589894
8.73e-05
-0.00156591
-0.0385741
-0.0504053
-0.0144257
-0.0654372
-0.0813566
-0.00417675
-0.0800908
-0.00233465
0.00148973
-0.049923
8.22051e-06
-0.059274
-7.74578e-05
-0.0294459
-0.0088156
-0.0577046
0.00129176
-5.21305e-05
-0.0619002
-0.0480422
0.00716652
-0.0578059
-0.0440908
-0.0537096
-0.000715756
-0.0473622
0.000101859
-0.0341398
0.00618245
0.0016378
0.000800281
0.000630094
-0.0516717
-0.0640016
-8.29807e-07
-0.00248629
-0.0260102
-0.057405
-0.0190502
-0.0700867
-0.0208484
-3.61277e-05
0.000213641
-0.0350281
-0.0545513
-0.0782093
-0.0579838
-0.0436562
-0.0528564
-0.0526347
-0.000949659
-0.045632
-0.0269783
-0.0781558
-0.0282478
-0.0566501
-0.0116587
0.00108372
-0.0407321
0.00517298
-0.048958
-0.0602285
-0.000291553
-0.0475814
-0.00143882
0.000386381
-0.0642868
-0.0102523
-0.000876875
-0.0472066
-0.0293904
0.0012514
8.01405e-05
-0.0636854
-0.0194501
-0.0008042
4.60979e-05
-0.00105132
-0.0548817
-0.000403245
-0.049783
-0.00101275
-0.00757435
-0.0349441
-0.0698773
-0.0207725
-0.0337801
-0.0598714
-0.00348207
-0.0375426
-0.00413144
-0.00713639
-0.0682779
-0.0617872
-0.0185476
-0.021594
0.00121867
-0.000913412
-0.0053628
0.00158995
-0.0481262
-0.0343174
-0.0494107
-0.049606
-0.00374768
-0.0240084
0.00320703
-0.0387564
-0.0479843
-0.0534082
-0.000345072
0.00185983
0.000712761
-0.00787485
-0.000503378
-3.64796e-05
0.00142029
-0.0146209
-0.0493783
-0.0793093
-0.00426922
-0.0605868
-0.000286997
-0.067682
0.000430211
-0.00358816
-0.0400175
-0.0506504
0.00149705
-0.0416992
0.000289661
-0.00260479
-0.0464732
-0.054821
-0.00941498
-0.0383909
-0.0331289
0.00181637
0.00100258
0.0019397
-0.0417322
-0.0484042
-0.00329448
-0.00126044
-0.0453635
-0.0140782
-0.0373814
-0.0407054
-0.0026418
-0.00705155
-0.00336203
-0.0198107
-0.0521611
-0.000381589
-0.0479179
-0.0457186
-0.0540825
-0.078718
-0.00264167
-0.0483984
-0.0779504
-0.0194281
-0.035625
-0.00355016
-0.054062
-0.00137426
-0.0648823
-0.0250586
0.0016901
-0.0395598
0.000688872
-0.00406133
-0.022105
-0.00859245
-0.0422484
-0.0622156
-0.000589427
-0.0821596
-0.0534544
5.75413e-06
-0.0298358
-0.0258578
-0.0144906
-0.0273842
-0.040927
-0.00151903
0.00243004
-0.034896
-0.0491014
-0.00382181
-0.0624408
-0.0700104
-0.0645119
-0.0480602
-0.0131101
-0.0786055
-0.0102046
-0.000226591
-0.0515922
-0.0338759
-0.0764018
-0.00572814
-0.00483833
-0.00511724
-0.0529072
-0.0351164
0.000732347
-0.0821455
-0.00948615
-0.00439132
-0.0423645
-0.010438
0.000660049
-0.003556
-0.0147618
-0.0517085
-0.0415854
-0.00330091
-0.0547481
0.00171348
0.0026987
-0.000197751
-0.000698242
-0.039803
-0.023679
-0.0100867
-0.00555249
-0.00119812
-0.00441439
0.00885241
-0.0227739
-0.0646038
4.65497e-08
-0.0569828
-0.00840196
-0.0526192
0.00115776
0.000196998
-0.067785
-0.0347042
-0.045115
-0.0644166
0.00333166
-0.00340701
-0.00244073
-0.0297919
-0.0540257
-0.0520329
-0.00342417
-0.000532877
-0.0272587
-0.0755367
6.10026e-05
0.00218633
0.00238815
3.50278e-05
-0.0580947
-0.0568313
0.00362206
-0.0564593
0.00227646
-5.742e-05
-0.00105123
-0.0280431
-0.00385758
-0.0198475
-0.0264145
-0.00827631
-0.0807784
-6.75237e-05
-0.00313182
-0.0186801
-0.0594548
-0.0435467
0.00155521
-0.0505437
-0.00831172
-0.0599341
0.000689957
-0.00567311
0.00118225
-0.0335058
-0.0305247
-0.0174058
-0.0529161
-0.0176064
-0.00259675
-0.0201454
-0.0566365
-0.0352565
-0.0792913
-0.0264508
-0.00219675
-0.0248006
-0.0340528
0.00149518
-0.0472654
6.84815e-05
-0.0425612
-0.0478422
-0.0027363
-0.00310478
-0.035281
-0.00702265
-0.00436235
-0.0500586
-0.00605843
-0.0114375
-0.0119374
-0.000782665
-0.0071947
-0.013914
-0.0819889
0.00225568
-0.00614003
0.000600669
-0.0466323
-0.0163888
-0.0585487
-0.00316646
-0.0121491
0.000153272
-0.00473089
-0.06378
-0.00106722
-0.0422733
-0.0600294
-0.0627043
0.000175944
0.000469124
-0.0551911
0.00124993
-0.00584508
-0.00830406
-0.0565095
-0.0343606
-0.0614142
-0.0328531
-0.0392922
-0.00773989
-0.0178786
-0.00378951
0.00019949
0.00143613
-0.0172059
0.000437396
-0.046012
-0.0222915
-0.00995053
0.00010345
0.001288
0.00124302
-0.0490561
-0.0247007
-0.0588712
-0.0270584
-0.080444
-0.0366835
-0.0529407
-0.0416911
-0.0184756
-0.0503114
-0.0306687
-0.0385785
-0.00149769
-0.0437326
0.00011653
0.00116252
-0.0213919
9.1589e-05
0.000511804
0.000607354
-0.0302598
-0.0408557
-0.000225655
-0.0226881
-0.0641862
-0.0571449
-0.0550144
-0.0603508
-0.00735434
0.000293729
-0.0175086
-0.0551053
0.00231559
-0.0338723
0.000238696
-0.00574791
-0.024766
-0.0161795
0.000223101
-9.54983e-06
-0.0218466
-0.0385249
-0.0102846
-0.0768761
-0.000802827
-0.00847494
-0.0544574
-0.0310617
-0.00438657
0.00251468
-0.0642208
-0.0239803
9.63027e-05
0.00240115
-0.00112524
-0.00358374
-0.0599349
0.00129359
-0.00440304
-0.0429462
0.00487948
-0.00493498
0.000727771
-0.0212234
0.00146083
-0.0315101
-0.0527566
0.00197939
-0.00953617
-0.00537968
-0.0355189
-0.00478256
-0.0687147
-0.0820507
-0.033737
-0.0454899
-0.0768334
0.00207973
-0.0682434
0.000610158
-0.0403082
0.000720003
-0.0308639
-0.0394712
-0.062068
-0.0306221
-0.0160415
-0.0157312
-0.0551826
0.000465528
0.00489656
7.92984e-05
-0.0180627
-0.0824083
-0.0184346
-0.0322612
-0.0191153
-0.0551539
0.000783215
-0.0768179
-0.0517969
-0.000145687
0.000187499
-0.000402351
-0.064696
-0.0308371
8.35949e-06
-0.053967
-0.0377433
-0.00329605
-0.0010513
-0.0143974
-0.0333644
-0.000375683
0.000327515
-0.000667526
0.00263787
0.00200486
-0.0403753
-0.042471
-0.0345571
0.000730785
-0.0656588
0.00476092
0.000837546
-0.0179894
-0.0497039
-0.0430011
0.000266121
-0.051637
0.00170423
-0.00533859
-0.062633
-0.0117268
0.000305177
-0.0557388
-0.0653672
-0.0838474
-0.0416962
0.000536228
-0.03352
-0.0522843
-0.00889333
-0.0430227
0.000220566
-0.0388296
-0.0428739
0.00481826
-0.0467348
0.00138476
-0.0398688
-0.00315028
-0.0199444
-0.0528221
-0.0447164
-0.0344278
-0.0389345
-0.00070515
-0.0758733
-0.0249211
-0.0164216
0.00137986
-0.00156435
0.000175729
-0.00326765
-0.0312142
-0.0536766
-0.00937634
-0.0214872
-0.0650319
-0.0191504
-0.0250466
-0.0281553
-0.0824808
-0.00567992
-0.00288357
-0.00451149
0.00090898
-0.00730718
-0.0420938
-0.0394533
-0.0334371
-0.0119829
0.000590501
-0.021071
-0.0536787
-0.0398847
-0.00227075
-0.0370148
-0.0172243
-0.0393089
-0.00961739
-0.0219615
-0.0573432
-0.00307711
-0.0455925
-0.0563738
-0.0580065
0.00248964
-0.00254151
-5.34985e-05
-0.00983418
-0.0253243
-0.0251363
-0.00966834
-0.0635956
-0.000980776
-0.0466953
-0.00119885
-0.0841367
-0.0561133
-0.0238847
-0.0415239
-0.00443
-0.0333651
-0.0812145
-0.0129928
-0.0247285
-0.0264809
-0.0382847
-0.0571015
-0.0554385
-0.0283064
-0.0509916
-0.0326484
0.000234421
0.00229947
-0.0466815
0.000591655
-0.013665
-0.0295941
-0.0269637
-0.0244962
-0.0166153
-0.0145903
-0.0506395
-0.0625124
-0.0174262
-0.0178256
-0.0297233
0.00488442
-0.0191752
-0.0167782
0.00202848
-0.0562628
-0.0523601
-0.00204017
-0.0790293
0.000553986
0.00090957
-0.0348117
-0.0320918
-0.00976136
-6.25814e-05
-0.0356329
-0.0164126
-0.0195533
-0.0554589
-0.00469869
-0.0529228
-0.00184745
0.000479202
-0.059821
-0.0632419
-0.0485278
-0.0430341
-0.0068768
-0.00977071
-0.0222983
-0.0835275
-0.0432536
-0.00259536
-0.0268762
-0.0194749
-0.0639959
-0.0624044
0.000116126
-0.0234457
-0.0615263
-0.00100188
-0.00984497
3.49004e-05
-0.00151796
-0.0432193
-0.0574317
-0.0459854
-0.00276028
-0.0584953
-0.0339442
-0.00284665
-0.0295494
-0.0134294
-0.0237509
-0.0447652
0.00106244
-0.000872169
-0.00189887
-0.0551007
-0.025437
-0.0368241
-0.000112572
-0.0170204
-0.00428223
-0.0274214
-0.0415727
-0.0273526
-0.0390102
-0.0259409
-0.0471931
-0.067395
-0.0320453
-0.00263961
-0.0202614
-0.0422489
-0.0637561
-0.0680823
-0.0178679
5.92621e-05
-0.0379604
-0.0100415
0.00516536
-0.0395597
-0.02543
-0.0255924
-0.0103704
-0.0571509
-0.0420053
-0.0162792
-0.0349239
-0.0118361
-0.0570907
-0.0513311
-0.00481704
-0.0109325
-0.00472274
5.89699e-05
0.000154402
-0.0226302
0.00148155
-0.0298443
-0.0535235
-0.0368098
-0.0535458
-0.024906
-0.00691892
-0.051271
6.27104e-05
-0.0648995
-0.024374
-0.00424936
-0.0190057
-0.0718007
-0.0126869
-0.0594752
-0.0226771
-0.0560201
-0.00466031
-0.00262872
-0.00494015
-0.0248292
-0.0256922
-0.0661532
-0.0316422
-0.0442998
0.00130943
0.00226832
-0.0384791
0.000154239
-0.00419119
-0.0370115
0.000140944
-0.00362527
-0.0646551
-0.0251872
-0.0638188
-0.0545964
-0.0555684
-0.0220607
0.00223284
-0.00740318
-0.00135595
-0.00626494
-0.00798366
0.00141577
-0.0027304
-0.00108564
-0.000241342
-0.00528658
-0.012153
-0.0623504
-0.0474793
0.000785439
-0.0280165
-0.000841385
-0.045617
0.000978602
-0.00877516
0.00274302
-0.00051377
0.00221717
-0.0338065
-0.0119724
-0.055733
-0.00111184
0.000154683
-0.032414
-0.00461501
-0.000971667
-0.0577631
-0.0155923
-0.00324744
-0.0230108
-0.03046
-0.0392626
-0.00177464
-0.0415253
-0.0221791
0.00118687
0.000494653
-0.056336
-0.0316052
-6.3864e-05
-0.0193204
-0.000740303
-0.0590186
0.00012558
-0.0117643
-0.0303008
0.000504766
-0.0438576
0.000497285
-3.08976e-05
-0.064629
-0.0228309
-0.00436826
0.00026998
0.000327049
-0.0691716
-0.0376816
-0.00298898
-0.00492239
-0.0141782
0.00173533
-0.00529319
-0.00536718
-0.0303341
-0.0273184
-0.0559468
-0.00553863
0.000465855
-0.0390205
-0.0198767
-0.0226745
-0.0275268
-0.00632985
-0.000719691
-0.0562133
-0.00893712
-0.00643424
-0.00184055
-0.0260223
-0.010254
9.46777e-05
-0.0241081
-0.00772753
-0.0654358
-0.0115842
-0.000998589
-0.0424044
-0.0650977
-0.0601315
-0.0505875
-0.0105429
-0.0275616
-0.0120378
-0.0295691
-0.000272631
-0.0496528
-0.0012108
-0.0684032
-0.000105587
-0.0523898
-0.0528458
0.0182965
-0.00816287
-0.00138151
-0.0689418
-0.00856628
0.00228458
-0.0521675
-0.053961
-0.0696698
-0.0278083
0.00187443
-0.0157891
-0.000220876
-0.0399463
0.000467165
-0.0260583
-0.0124836
0.00160967
-0.0424909
0.000483666
-0.0685382
-0.014924
-0.0124091
-0.0345619
-0.0211546
-0.00184133
-0.0552188
-0.00240802
-0.0336735
-0.0417451
-0.00330977
-0.0402631
-0.00529473
-0.0509385
-0.0410888
-0.0278993
-0.0128739
-0.0428714
0.00141388
-0.0393146
0.000797356
-0.00167075
-0.055828
0.000237785
-0.00270208
-0.0663812
-0.0217026
-0.0436913
-0.0250807
-0.00339606
-0.0183922
-0.00663075
-0.0116515
0.00515943
-0.0325269
-0.00538776
-0.00632937
-0.00222126
-0.0243311
-2.64224e-05
-0.0200477
-0.0531642
-0.00141776
-0.0056146
-0.0234819
0.00158123
-0.0575566
-0.0189089
-0.000259449
-0.0425732
-0.0556615
-0.059271
0.00105079
-0.0503404
0.00142733
-0.0153676
-0.0497216
-0.0154538
-0.00899572
-0.0504859
-0.0131068
-0.00941747
-0.0617502
-0.0140327
-0.0574825
-0.038692
-0.0541865
-0.0327245
0.00656712
-0.0248511
-0.0548454
-0.0335864
-0.0308208
-0.00348604
0.00557482
-0.00243832
-0.000606045
-0.0238087
0.0159487
-0.0222578
-0.0201293
-0.0487251
-0.00318611
-0.0242952
-0.0421177
-0.001674
-0.0496696
-0.00499876
-0.0160715
-0.0525885
0.000189266
-0.0460656
-0.0561833
-0.00221878
-0.0354336
-0.0283541
-0.0507981
-0.039051
-0.0286612
-0.00456284
0.00349783
-0.00193176
-0.0340986
-0.0388332
-0.00313885
-0.0179962
-0.0554456
-0.03705
-0.0579459
-0.00454555
-0.0362964
-0.0580388
0.00213155
0.00144887
-0.0559522
-0.0210586
-0.0309787
-0.0605944
-0.0295701
-0.0192669
0.000310838
-0.0689395
-0.0222458
0.00240518
-0.0526228
-0.0568637
0.00200547
-0.0122223
-0.0470313
-0.0447853
-0.0343956
-0.0252113
-0.0675273
-0.035845
-0.0105348
-0.00322634
0.00129559
0.004369
-0.0427605
-0.0123229
-0.0327284
-0.0329154
-0.00365835
-0.00182132
-0.0429391
-0.0349899
-0.00047489
-0.0304565
0.00344347
-0.00499942
-0.0455514
-0.0555143
-0.0262026
-0.0436574
0.00141248
-0.0421505
-0.000360923
-0.0537276
-0.057153
-0.0599214
9.92438e-05
-0.0282299
-0.0141254
-0.00193344
-0.0325755
-0.0639534
-0.0555589
-0.0058197
2.06985e-05
-0.0329661
0.00133853
-0.0502992
-0.0440563
8.39594e-05
-0.00456264
-0.0300035
-0.0253812
-0.000526869
-0.000600911
-0.0266637
-0.0282794
-0.0105418
0.00290302
-0.0187621
-0.0424799
-0.0065949
0.00306574
-0.0532448
-0.0500101
-0.0160064
-0.0541111
-0.0162153
-0.0116319
-0.0685625
-0.0248645
-0.012569
-0.0809646
-0.0695172
-0.0289533
-0.0513225
-0.0374973
-0.0126495
-0.00494825
-0.000846613
-0.0647973
-0.0488548
-0.0266932
-0.0450351
-0.0159437
-0.00392646
-0.0421483
-0.0669112
-0.0306379
-0.0823806
3.47712e-05
-0.0415388
-0.0261055
-0.0076448
-0.0575448
-0.0085253
0.000156459
-0.00670598
-0.0612006
-0.0159697
0.0019708
-0.0602315
0.000142069
-0.0197356
-5.97002e-05
-0.0180559
-0.0704584
-0.0324368
-0.0531656
-0.0544474
-0.0436468
-0.0129857
-0.0336942
0.00193456
-0.00795005
0.00455017
-0.025554
-0.0183235
0.000184871
-0.000816337
-0.047689
-0.0767524
-0.0198562
-0.0434288
-0.00450399
-0.0140753
-0.0134324
-0.00135943
0.000676367
-0.0209435
-0.0417936
-0.0613473
-0.010694
-0.0343648
-0.0412943
-0.0203273
-0.0228009
-0.0571401
-0.00464398
-0.0573544
-0.0159586
-0.0122063
-0.0249006
-0.0504925
-0.0189937
-0.0179311
-2.79143e-05
-0.0253003
-0.0442896
-0.00304857
-0.0393291
-0.00743322
-0.0102738
-0.0619372
-0.0266414
-0.0389335
-0.0192153
-0.00441506
-0.053725
-0.0449761
-0.00741897
-0.0509867
-0.00320599
-0.0538332
-0.00200761
-0.0162929
-0.0143683
-0.0691094
-0.0243612
-0.0567731
-0.0417075
-0.0542715
-0.0007683
-0.00552173
-0.000258688
-0.0554306
-0.0311871
-0.00150379
-0.00104183
-0.0741359
-0.0752818
-0.0366328
-0.0339422
-0.0125669
-0.00971035
-0.0389117
0.000167435
-0.0573294
-0.0708348
-0.0048629
-0.0374589
-0.0085651
-0.0041758
-0.0521499
5.51614e-05
-0.0335919
-0.0106091
-0.0214479
-0.0384116
-0.0186334
-0.000862185
-0.0635143
-0.0119286
-0.0285014
-0.0533516
-0.0226907
0.00215435
-0.0450143
-0.00363502
1.97902e-07
0.00335635
-0.0619732
0.0159507
-0.00678028
0.000181702
0.00148198
-0.0262482
-0.041276
-0.0321557
-0.0262898
0.000101804
0.000185434
-0.031982
-0.0133637
-0.0711911
-0.036107
-0.0657189
-0.00749248
0.00204957
-0.0233478
-0.0566324
-0.0306974
0.00446568
-0.0516844
-0.054684
-0.00451339
-0.0378657
-0.0346393
0.00178424
-0.0527749
-0.000440403
-0.0307087
-0.0536582
-0.0566547
-0.037551
-0.0394495
-0.0158717
-0.0696199
-0.0562519
-0.00141203
-0.0566149
-0.00582398
-0.0322621
-0.0438988
-0.0686079
0.000432837
-0.000179409
-0.0209667
-0.00902315
-0.0289481
-0.016512
-0.0177635
-0.0049986
-0.0178841
0.000340084
-0.0468877
-0.0580073
-0.0137861
-0.00300637
-0.0319426
-0.0177137
-0.00511406
0.000623002
-0.0313641
-0.00510462
-0.0555962
-0.00372473
-0.00826463
-0.0153721
-0.0808307
0.000177035
-0.0407784
-0.0280369
-0.013636
-0.0318479
-0.00785465
0.00184761
-0.00201972
0.000186413
-0.00633015
-0.000967535
-0.0599435
0.000126884
-0.0162643
-0.0531306
-0.0641891
-0.0148283
-0.0576681
-0.0201795
-0.0342556
-0.0259594
-0.0249458
-0.000680051
-0.00038822
-0.0568225
-0.0112653
-0.00373993
0.00670773
0.000898884
-0.0618973
-0.0120449
-0.0598968
-0.00549744
-0.0132947
-0.0316992
-0.0147998
-0.000504782
0.00140563
-0.0662034
-0.0765587
-0.0168141
-0.0152424
-0.0313194
-0.0827961
-0.0366145
-0.0170433
-0.0183267
-0.0374064
-0.0320538
-0.0545658
-0.0407988
-0.00627631
-0.0188713
-0.00514805
-0.00963946
-0.0706062
-0.0113158
-0.0460259
-0.0606069
-0.0204255
-0.0393515
0.00552143
-0.00457313
-0.0371851
-0.00270701
-0.0357869
0.00010225
-0.000415515
0.00018047
-0.0656447
0.000191174
-0.00364008
0.00145118
-0.0464059
0.00971527
0.00530296
-0.0643234
-0.0454002
0.00021921
-0.00117939
-0.00422541
-0.0532061
-0.0253784
-0.0391277
0.0016951
-0.0124165
-0.0379305
-0.022697
-1.3108e-05
-0.0225873
-0.0337759
-0.045402
-0.0654169
-0.0604081
-0.0458023
-0.00417305
-0.0212325
-0.0322038
-0.0326252
-0.00754844
-0.0614798
-0.069876
-0.0176849
-0.013477
0.000168683
-0.0242419
0.00208208
-0.0626569
-0.0428963
-0.0321911
-0.0552623
-0.0657365
-0.0703088
-0.0529685
-0.0232153
-0.0644839
-0.0316476
-0.0366404
-0.0572783
-0.0645649
-0.0573765
-0.000567851
-0.0386089
-0.00448213
-0.00668264
-0.0610388
-0.019843
-0.0309044
-0.0592898
-0.0375837
-0.0625358
-0.0611819
-0.0557
-0.0472148
-0.040543
-0.0202069
-0.0246167
-0.0041314
-0.0412541
-0.0325917
-0.0618512
-0.0271497
-0.032164
0.000137462
-0.00358314
-0.00964255
-0.0648215
-0.0172016
-0.00769636
-0.0315038
-0.0147188
-0.0625525
-0.0114634
-0.00243992
-0.0636646
-0.0317693
-0.0614206
-0.0311518
-0.060648
-0.027005
0.00205004
-0.0164321
-0.00120776
-0.0431114
-0.0462776
-0.00819249
-0.0471407
-0.06097
0.00289412
-0.0199941
-0.012159
-0.0505627
-0.0179398
-0.0109188
0.000122634
-0.017795
-0.0549102
-0.00437262
-0.0383644
-0.0590471
-0.0227015
-0.0030112
-0.0376284
-0.0413382
-0.0316331
-0.0517942
-0.016639
0.00284906
0.00172783
-0.0476315
-0.0521105
-0.000615337
-0.0551906
-0.0255661
-0.0245287
0.0049208
-0.0532174
-0.0020624
-0.0277723
-0.0604686
-0.0389135
-0.0572794
-0.0089875
-0.0219722
-0.0387772
-0.0437187
-0.0301561
-0.00922926
-0.0240341
0.00438984
-0.0555337
-0.0406087
-0.0550263
-0.0244848
-0.0543446
-0.0416059
-0.0368128
-0.0365285
-0.0576333
-0.00726025
-0.0650138
-0.0458305
-0.0603153
-0.0557002
-0.00335571
0.000719334
-0.0536072
-0.0694669
0.0014502
-0.0572059
-0.0182605
-0.00739979
-0.0400157
-0.0164683
-0.0234713
-0.0625142
-0.0557166
-0.00601281
-0.00675426
-0.0642394
-0.0558233
-0.0313913
-0.0532437
-0.00539347
-0.0467084
-0.0485301
-0.0665568
-0.00421892
-0.00709726
-0.0610508
-0.041179
-0.00486155
-0.051151
-0.0556707
-0.0051829
-0.0359232
0.000910424
-0.0217854
-0.0175138
-0.0463485
-0.065457
-0.00275875
-0.0311441
-0.0056054
-0.0318935
-0.0658737
-0.0598059
-0.0154735
-0.0528059
-0.033853
-0.0186121
-0.00533675
-0.0245383
-3.07981e-05
-0.0569717
-0.0563221
-0.0256091
-0.0227435
-0.0483594
-0.00744523
-0.0554981
-0.0550415
-0.0325844
-0.0545846
-0.000766832
-0.0202904
-0.0278513
-0.0551965
-0.0536241
-0.0439963
-0.0352337
-0.0359013
-0.00298394
-0.0506313
0.000662372
0.000396832
-0.0409237
-0.0549552
-0.0407902
-0.0243956
-0.0401793
-0.0283115
-0.0320979
-0.017559
-0.0154626
-0.0636662
-0.00636626
-0.0518552
-0.0111521
-0.0195546
-0.0543362
-0.0077477
0.00019306
-0.0118037
-0.0216336
-0.00406741
-0.00735823
-0.0437077
-0.0638828
-0.0472328
-0.0370164
-0.0314053
-0.00334272
0.0013098
-0.0374651
-0.0195269
-0.00347656
-0.000789298
0.000159513
-0.0610527
-0.0220041
-0.0398534
-0.0478733
-3.39831e-05
-0.00202271
-0.00013397
-0.0398498
-0.0397579
-0.0412782
-0.0479661
-0.0375182
-0.0371533
-0.0316242
-0.0544571
-0.040842
-0.0495675
-0.0389823
0.000190895
-0.0483639
-0.0381999
-0.0310513
-0.0371102
-0.000600783
-0.041219
-0.0415923
-0.0437242
-0.027308
-0.0629596
-0.0541376
-0.0628764
-0.0627628
-0.0402623
-0.0625175
-0.0622042
-0.0617614
-0.0612131
-0.0651256
-0.0519628
-0.00151505
-0.0161364
-0.0513093
-0.061496
-0.012662
-0.03933
-0.0457199
-0.0324142
-0.0595554
0.000183302
-0.000813814
0.00291018
-0.058255
-0.0398001
-0.0177261
-0.0827943
-0.0421127
0.00148901
-0.0210875
-0.0112115
-0.0410928
-0.0851679
-0.0017485
-0.0601898
-0.0540965
-0.0521805
-0.0580378
-0.0534697
-0.041737
0.00465422
-0.0455115
3.86224e-05
-0.0459163
-0.0434948
-0.0234357
-0.0355754
-0.0325787
-0.00839779
-0.0022193
-0.00810728
-0.0150912
0.000588337
0.000652784
-0.026447
-0.0564306
-0.0344456
-0.0244227
-0.0583106
-0.0462203
-0.0550115
-0.0376602
-0.0357672
-0.0307288
-0.0390841
-0.0123245
-0.0543298
7.98557e-05
-0.0611519
-0.0628307
-0.0572978
0.00366297
-0.0102509
-0.0123119
-0.0491203
-0.000675109
-0.0490629
-0.00010935
-0.0515628
-0.0396274
-0.0162502
0.00438431
-0.0126162
-0.0594053
0.00345716
-0.0304776
-0.0137077
-0.0396418
-0.0652016
-0.0551895
-0.0304932
-0.0543375
-0.012354
-0.00521565
-0.0532082
-0.033869
-0.0442489
-0.0435682
-0.0307138
-0.0588798
-0.0593595
-0.0577443
0.000413418
-0.000333108
-0.00279503
-0.00430165
-0.05487
-0.00453751
0.00315573
-0.0214646
-0.0589191
-0.00972623
-0.00227964
0.00285334
-0.0806867
-0.0335015
-0.0379523
0.000183996
-0.0536743
0.000423769
0.00736439
-0.0538679
-0.0591221
-0.0575436
0.000177201
-0.0577386
-0.0318829
-0.0556539
-0.0566258
-0.0256564
-0.0590683
-0.0139061
-0.00143522
-0.0189987
-0.00400932
-0.0222172
-0.0132442
-0.0307545
-0.0200473
-0.0268675
-0.0473869
-0.0528862
-0.0511227
-0.00312978
-0.0435304
-0.00424372
-0.059243
-0.000775812
-0.0306848
-0.00997573
-0.0483928
0.000613748
0.00425966
-0.0085992
-0.0125858
-0.044663
-0.0713127
-0.011259
-0.000271301
-0.0716038
-0.00215436
-0.00162021
-0.0528453
-0.0411038
-0.0305875
-0.0570768
0.0040163
-0.0608545
-0.00519134
-0.0590126
-0.0627083
-0.00533222
-0.0094582
-0.0475009
-0.0590013
-0.057552
-0.0536055
-0.0025273
-0.0390843
-0.0571397
-0.000785452
-0.040698
-0.0231311
-0.0536962
-0.0233475
-0.0558922
-0.0666094
0.00527551
-0.0274635
-0.0624068
-0.0339481
-0.0573016
-0.0387822
-0.0119822
0.000189244
-0.0513465
-0.0467461
0.00188362
-0.0368436
-0.0217692
-0.00644275
-0.0586124
-0.00408913
-0.0421917
-0.0287498
-0.0399643
-0.031922
-0.0197273
-0.0383166
-0.0409844
-0.0451006
-0.0105935
-0.0703932
0.000166186
-0.0451562
-0.0371555
-0.00233788
-0.0146709
-0.0401528
-0.0467651
-0.0551014
-0.00389202
-0.0458922
-0.0332691
-0.00748138
-0.0252717
-0.00184284
-0.0403837
-0.0568502
-0.0464573
-0.000860152
-0.00366996
-0.0628193
-0.0721515
-0.0560347
-0.0633866
-0.0301642
-0.0726046
-0.0276434
-0.000992779
-0.0111969
-0.0447914
-0.0191313
-0.0540794
-0.0570717
-0.0425202
-0.0556692
-0.0383011
-0.00665578
-0.0479053
-0.0431409
-0.0557664
0.000906004
-0.00992402
0.00153318
-0.0674916
-0.0362759
0.00161191
-0.0310147
-0.0517839
-0.0609939
-0.0297261
-0.0642462
-0.0626247
-0.0477136
-0.0241035
-0.000495526
-0.0654691
-0.0289116
-0.0371492
-0.0379083
-0.0258482
-0.00919685
-0.0222798
-0.0287182
-0.018379
-0.0290475
-0.0219732
-0.0199218
-0.00256239
-0.0743228
-0.0290729
-0.049986
-0.0312815
-0.0229351
-0.0633882
-0.0742841
-0.014097
-0.00803518
-0.00215371
-0.06288
-0.0484571
-0.0614792
-0.0398703
-0.0269612
-0.00629159
-0.0108104
-0.0438451
-0.0624581
-0.0173639
0.00012514
-0.0530534
-0.0379034
-0.0204709
-0.0626958
-0.0505428
-0.0450108
-0.0461342
-0.0567227
-0.00611306
-0.0229352
-0.0556354
-0.0118314
-0.0308136
-0.0342191
-0.00443076
-0.065845
-0.0394684
-0.0468799
-0.024055
-0.030219
-0.0521269
-0.0581383
-0.0781069
-0.0369745
-0.0632577
-0.0717777
-0.0469326
-0.0421183
-0.0410088
-0.0435932
-0.0431978
-0.0551016
0.00368889
-0.0113075
-0.0560465
-0.0402005
-0.0728103
-0.0354665
-0.0233741
-0.0448181
-0.00105852
-0.0394663
-0.0174878
-0.0354217
-0.0100036
-0.025443
-0.0480654
-0.0589956
-0.0224972
-0.0120897
-0.0630438
-0.0394312
-0.00916815
-0.0189126
-0.0460607
-0.04248
-0.0438582
-0.0237085
-0.0711503
-0.0570062
-0.0627404
-0.0660366
0.00455325
-0.0680622
0.00493468
-0.0297568
-0.0737428
-0.0623407
-0.0272488
-0.00033835
-0.028119
-0.0057271
-0.0267285
-0.0618322
-0.00961067
-0.0369868
-0.062722
-0.00751369
3.44293e-05
-0.00400192
-0.0258607
-0.0284969
-0.00264371
-0.06111
-0.0232595
-0.0260303
-0.000344434
-0.0632435
-0.0412745
-0.0450855
-0.0327982
0.000479832
-0.000111735
-0.0653895
0.000780847
-0.055938
-0.0360949
-0.0391038
-0.0324833
-0.025943
-0.0302163
-0.0296916
-0.0345542
-0.0601963
-0.0319814
-0.0454011
-0.00488932
-0.0768148
-0.059631
-0.0295406
-0.0198563
-0.043383
-0.00498053
-0.0428011
0.000644799
-0.0622225
-0.000851368
-0.0228546
-0.0176878
-0.039795
0.000811261
-0.0472967
-0.079709
-0.0427057
-0.0292468
-0.0237995
-0.0372594
-0.0143947
-0.0641966