/*--------------------------------*- C++ -*----------------------------------*\
| =========                 |                                                 |
| \\      /  F ield         | OpenFOAM: The Open Source CFD Toolbox           |
|  \\    /   O peration     | Version:  v2012                                 |
|   \\  /    A nd           | Website:  www.openfoam.com                      |
|    \\/     M anipulation  |                                                 |
\*---------------------------------------------------------------------------*/
FoamFile
{
    version     2.0;
    format      ascii;
    class       surfaceScalarField;
    location    "50";
    object      phi;
}
// * * * * * * * * * * * * * * * * * * * * * * * * * * * * * * * * * * * * * //

dimensions      [0 3 -1 0 0 0 0];
oriented        oriented;


internalField   nonuniform List<scalar> 
20537
(
-0.377731
0.499316
-0.121581
0.0490435
-0.284849
0.235807
-0.195743
0.164271
0.0314731
-0.0298066
-0.291712
0.321522
-0.156501
0.176614
-0.0201116
0.28799
-0.432011
0.144023
0.194087
0.205036
-0.399121
0.254774
-0.0974653
-0.157306
-0.448752
-0.10054
0.549298
-0.0198582
0.200554
-0.180695
0.559138
-0.128916
-0.430221
0.0589806
-0.0988493
0.0398692
0.0711068
0.0130596
-0.0841659
-0.0216952
0.00277995
0.0189156
0.671541
-0.542906
-0.128637
0.27829
-0.292621
0.0143341
-0.0429179
0.284064
-0.241142
0.437033
-0.254795
-0.182235
-0.128798
0.135569
-0.00676977
0.0883511
-0.537097
0.336043
-0.365845
-0.0932335
-0.102508
-0.367267
0.590104
-0.222832
-0.687622
0.0987611
0.588868
-0.553825
0.186562
0.21949
0.0352859
-0.0854582
-0.184645
0.270107
-0.00677605
-0.00197923
-0.0011103
-0.376617
0.219843
-0.350858
0.13102
0.423966
-0.135974
0.235779
-0.278692
-0.0330105
0.197283
0.421005
-0.399258
-0.0217469
-0.599278
-0.088337
0.1252
-0.13858
0.0133808
-0.00309221
0.0822482
-0.0791547
0.232341
-0.131944
-0.100397
0.144792
-0.164649
0.0818627
0.339143
0.0406909
0.334416
-0.375102
0.493094
-0.665833
0.17274
-0.00893947
0.00537353
0.00356587
0.322539
-0.522594
0.200054
0.515929
-0.193391
-0.0132707
-0.000463891
0.0137346
-0.526133
0.223373
0.302759
0.0954411
-0.53349
0.43805
0.176825
-0.26228
0.301071
0.233546
-0.534616
0.174018
-0.0201362
-0.15388
0.160592
-0.0820099
-0.0785815
-0.00331329
-0.000554321
0.00386759
-0.728792
0.370626
0.358164
0.645554
-0.528255
-0.117295
0.664369
-0.171274
0.657556
-0.298569
-0.35898
0.00596904
-0.0119207
0.0059519
-0.18855
0.408397
0.286838
0.091834
-0.378669
0.0689027
0.163439
0.0473334
-0.0570853
0.00975209
-0.38845
0.295421
0.0930316
-0.155307
0.137391
0.017917
-0.121154
0.328641
-0.207485
-0.437786
0.134846
0.302942
0.0574915
-0.0605834
-0.56159
0.274507
-0.219069
0.222961
-0.00389
0.18781
0.249226
0.0107042
-0.013024
0.00231973
0.0681464
-0.0613089
-0.00683715
0.248863
-0.199819
-0.289807
-0.438988
0.277173
-0.576496
0.299327
-0.527717
0.42619
0.10153
-0.144688
0.0514553
-0.0162868
0.00116024
0.0151265
-0.00452649
-0.180408
0.184937
0.0128759
-0.00101817
-0.167912
0.431055
-0.263139
0.539801
0.00963441
-0.549436
-0.433295
-0.0477314
0.48103
-0.000628982
0.0110628
-0.0104339
-0.320131
-0.0683168
0.0960671
-0.0370859
0.446818
-0.134603
-0.312213
-0.0098212
0.225835
-0.216013
-0.267905
0.326806
-0.0588965
-0.362892
-0.248368
0.611264
0.0259476
0.0992524
-0.0893155
-0.296098
0.385416
-0.18495
-0.0952711
0.257312
-0.162039
-0.0326974
-0.235203
0.566203
-0.553936
-0.0122613
0.0349019
-0.191402
0.0146937
0.0206743
-0.035368
-0.182216
0.48329
-0.0243921
0.590603
0.0280411
-0.0305886
0.00254776
0.185139
-0.180802
-0.00433492
0.0687492
-0.375411
0.306666
0.268124
-0.015712
-0.458865
-0.0995203
0.558386
-0.464311
0.370701
0.0936123
-0.190952
0.186739
0.0042144
0.52713
-0.683781
0.156652
0.0511292
0.00708953
-0.123938
-0.308071
-0.541214
-0.0191727
0.560393
0.273508
-0.636396
0.292023
-0.381336
-0.648487
0.648494
-0.0730141
-0.468193
0.428969
-0.204492
-0.0376574
0.0523513
0.0710563
-0.473172
0.402117
-0.566199
0.567721
-0.00151605
-0.189591
0.553788
-0.364193
-0.00767118
-0.00126833
0.240158
0.0279675
0.0781873
-0.0070802
-0.00380837
0.473508
-0.378065
-0.787792
0.347901
0.439893
0.104323
0.369186
0.163706
-0.196477
0.0327724
0.0224229
0.313624
0.19181
-0.0954236
-0.0963854
0.417648
-0.376953
0.550753
-0.162706
-0.388041
0.0141149
-0.00341071
-0.547609
0.114317
0.234988
-0.565895
0.599348
-0.033447
0.557509
-0.486451
-0.0565967
0.0697278
-0.0131308
-0.0113031
-0.0079516
0.0192549
-0.0361434
0.0217564
0.0143873
0.00920171
0.0188395
0.370928
0.27463
0.181267
-0.561012
0.379748
0.721333
-0.388643
-0.332688
0.411123
-0.0805941
-0.330525
-0.201243
-0.321351
-0.430113
0.607605
-0.177491
0.0531179
0.138693
-0.270077
0.464166
0.131717
0.384212
-0.000816675
0.136332
-0.415957
0.60593
-0.189969
0.00436107
-0.026056
0.312383
0.345178
0.365828
-0.206698
-0.159126
0.307923
0.103205
-0.488373
0.186802
0.301575
0.237921
0.122686
-0.360603
0.01546
0.145133
0.00338049
0.170639
-0.347274
-0.250158
0.597432
-0.0798518
0.230883
-0.151029
0.00841075
-0.00244172
0.165093
0.385665
0.279418
-0.37079
0.0913756
0.643328
-0.227152
-0.416174
-0.674235
0.244121
0.00638421
-0.225451
-0.317253
0.339679
0.0349783
-0.0100698
-0.0249086
-5.14946e-06
-0.0162817
0.244378
-0.547331
0.302959
-0.172741
-0.315628
-0.0260448
-0.0100983
0.560542
-0.395444
-0.151764
-0.381726
0.192866
-0.0291573
0.529934
-0.493272
-0.0366588
-0.0205027
-0.108295
-0.522403
0.667693
-0.145289
-0.27185
0.0519712
0.219883
0.0115499
-0.126513
-0.361713
0.488228
0.0625225
-0.16503
-0.362859
-0.236722
0.599581
-0.452625
0.620527
-0.167896
-0.16173
-0.276053
0.35079
-0.540378
-0.184111
0.169706
0.0144061
0.233717
0.00774048
-0.241456
-0.251627
0.00288768
-0.00620089
0.268268
-0.544843
0.276579
0.192873
-0.215579
0.0227071
0.0591932
-0.0118597
0.403012
-0.176666
-0.226343
0.539379
-0.358109
-0.137259
0.416381
-0.279122
0.442475
0.0874617
-0.42078
-0.106933
-0.306612
-0.481178
-0.0145025
0.0247268
-0.0102242
-0.572632
0.0827796
0.489857
-0.533505
0.142829
0.39068
-0.0192518
0.21613
-0.196877
-0.488704
0.362194
-0.0517644
-0.010385
0.0621497
0.15469
0.137916
-0.292602
0.0219357
-0.00165997
-0.0202757
0.124757
0.445038
-0.569795
-0.0109794
-0.0265331
0.0375126
-0.354522
0.423276
-0.468419
0.140609
0.32781
0.454386
-0.635845
0.181459
-0.721737
0.435712
0.286027
0.616987
-0.175258
-0.441729
-0.135262
0.388483
-0.253219
-0.00796263
-0.00530813
-0.106123
-0.408291
0.514414
0.0230574
-0.00112174
0.269307
-0.114614
0.197631
-0.365539
0.000377323
0.0346614
-0.0350384
-0.0736818
0.159624
-0.0859414
0.000639362
0.0264346
-0.0270739
-0.604118
0.585281
0.0188422
-0.0512788
-0.193202
0.244484
-0.527911
0.0690475
-0.00885949
0.00230008
0.00655941
0.673445
-0.219058
0.229121
-0.00962952
0.328799
-0.308179
-0.0206181
-0.283175
0.527559
0.541779
-0.164084
0.154577
0.00950866
-0.0478479
-0.260797
0.308647
0.00888836
-0.0606525
0.163067
-0.284219
0.27733
0.444004
-0.452213
-0.0812894
0.108671
0.315297
0.321004
-0.415197
0.0941936
0.575094
0.051313
-0.626408
-0.192251
0.173001
0.458865
-0.558384
0.0221877
0.00287366
-0.0250613
0.203191
-0.0180512
0.468182
-0.36969
-0.0984921
-0.395583
0.297896
0.097691
-0.220437
-0.128246
0.348688
0.624945
-0.374894
-0.250048
0.405436
-0.084431
-0.248686
-0.103707
0.352396
-0.087656
-0.0325958
-0.125549
0.158146
0.419838
-0.185448
-0.234388
0.259644
-0.0259258
0.00668682
0.0630413
0.00524909
-0.00778874
0.00251054
-0.185717
-0.347761
0.533479
-0.444405
-0.442065
0.353122
0.0889461
0.441024
-0.147829
-0.293193
-0.636826
0.206796
0.430032
-0.115638
0.0960945
0.0195437
0.192092
0.210923
-0.36674
0.118058
-0.210558
0.11529
0.0394229
-0.0390452
0.395219
0.14837
-0.543588
0.268881
0.356066
0.189166
0.510709
-0.171088
-0.339619
0.18215
-0.186675
0.260859
0.0174339
-0.529174
0.366475
0.668712
-0.128912
0.59982
-0.162227
-0.437592
-0.000371355
0.0270298
-0.0266583
0.0522206
0.506917
0.029677
0.545417
0.0768926
-0.556659
0.479766
-0.504761
0.601394
-0.0966331
-0.157588
0.124994
0.0429448
0.39808
0.496249
-0.33638
-0.159868
0.0414403
0.446755
-0.48819
-0.383048
0.495366
-0.11232
0.157929
0.352781
-0.71115
0.304572
0.406577
0.166434
-0.113315
0.143212
-0.331758
-0.101387
0.388228
-0.226931
0.222807
0.00412615
-0.447896
-0.263254
-0.0328482
-0.0827892
0.0773391
0.165427
-0.242764
0.0756883
0.0203794
0.427577
-0.564218
0.136646
0.026897
-0.00470932
0.106046
-0.185895
0.0757691
0.208299
-0.009602
-0.0217662
0.0313683
-0.145702
0.364911
-0.219205
-0.345139
-0.11917
-0.0309619
0.0273169
0.00364528
0.481291
-0.439844
-0.0166637
-0.15068
0.167346
0.228787
0.0285284
-0.228062
0.371278
0.015295
-0.0265977
0.226694
-0.149352
0.383305
-0.362047
-0.0212551
0.0402627
-0.0442748
0.00401235
0.653072
-0.255633
-0.397438
0.0611781
-0.281612
0.753071
-0.375781
-0.377288
-0.0350017
0.0346305
0.134649
-0.0182677
-0.11638
-0.504176
0.398052
-0.200206
0.0498931
0.150314
-0.263027
0.488354
-0.225328
0.0145376
-0.00928847
0.0166254
0.414492
-0.431115
-0.459131
0.649688
-0.190553
0.597056
-0.245916
-0.351136
0.132806
0.00184359
0.201531
-0.252807
-0.32677
0.0767627
0.25001
0.106027
-0.36759
0.221892
0.328528
0.0547806
0.452468
-0.581384
0.0378399
-0.0122926
-0.0388675
0.0051227
0.0337448
0.0719126
-0.375076
0.303167
0.0308582
-0.0404601
-0.00419514
-0.0735808
0.0777762
0.381732
-0.0178484
0.210724
0.137424
0.0290104
0.519981
-0.316213
-0.203766
0.0560971
0.213273
-0.269369
-0.000531644
0.123569
-0.123037
0.102721
-0.228509
0.494124
-0.265612
0.347587
-0.042452
-0.305134
-0.00417546
-0.0252014
0.029377
0.0379713
-0.58088
0.687045
-0.0574905
-0.629554
0.156948
0.530098
0.198152
-0.0710711
-0.12708
-0.113257
-0.213509
-0.198762
0.25486
0.000290122
-0.0091496
-0.484903
0.312167
-0.000131039
0.347719
0.3524
0.244659
-0.499135
0.236107
-0.113099
0.571964
-0.0523096
0.57944
-0.182169
0.54424
-0.362067
0.028612
-0.0327874
0.624858
-0.310436
-0.314421
0.31535
-0.43886
0.123513
0.184487
-0.201148
-0.656551
0.36362
0.292933
0.0930474
-0.0173587
-0.303096
0.242846
0.0602524
0.192814
-0.430737
0.0289544
0.00602389
-0.115879
0.431232
-0.238148
0.102888
-0.0281341
-0.20246
0.230597
-0.326343
0.519157
0.0827699
-0.439689
0.356923
0.161424
-0.634594
0.186531
0.208645
-0.395174
-0.0101866
-0.0172167
0.0274035
0.627966
-0.0172288
0.032524
0.223885
-0.111981
0.11145
-0.0264263
0.0163565
-0.707009
0.142522
0.564487
-0.142622
-0.564387
0.00140481
-0.334657
0.333255
0.624848
-0.154545
-0.470298
0.511936
-0.525176
0.0132371
0.381624
-0.309708
-0.0911268
-0.109078
0.0178437
-0.0150635
-0.263425
0.221791
0.0416353
-0.0332659
0.0339054
0.0321898
-0.00595838
-0.0262313
-0.396333
-0.260217
0.234174
-0.419891
-0.0099131
0.00354926
-0.0137797
0.0102304
0.0639577
0.264843
-0.0435461
0.00588878
0.418254
-0.23172
-0.217847
0.189715
0.504534
-0.538122
0.0335946
-0.0945375
0.0903426
-0.432713
0.517801
-0.0850835
-0.11497
-0.177649
0.360651
-0.359244
-0.445937
0.343031
0.102908
0.0536263
0.101134
0.380162
0.317083
0.326246
-0.131485
-0.0238214
0.249709
0.0516793
-0.301387
-0.0114852
-0.00251467
0.0139998
0.352498
0.00126235
-0.353757
-0.141057
-0.447236
0.0383269
0.408912
0.277295
0.128142
-0.330968
0.0868039
0.244168
0.163466
0.0346858
0.287404
-0.211631
0.136984
0.480004
0.121261
0.43625
0.495595
-0.394454
0.0939743
-0.546594
0.140521
-0.174662
0.0341416
0.0900565
-0.429127
0.339071
0.142376
-0.129922
-0.0124526
-0.0650494
-0.382184
0.00305238
-0.241843
-0.157414
0.101682
0.137836
-0.064066
-0.100017
0.436887
-0.354113
0.362685
-0.0853892
0.66279
-0.502116
-0.160672
-0.155322
-0.0172954
0.172618
-0.202738
0.391874
-0.189135
0.0182119
0.174809
-0.193019
-0.0161059
-0.00231894
0.0184249
0.58603
-0.143553
-0.632355
0.19775
0.434605
-0.451288
0.24855
0.0487636
-0.0235347
0.307545
-0.670404
-0.234479
0.227397
0.00708467
0.0124587
0.53494
-0.13972
-0.484602
0.54464
-0.060032
-0.400573
0.101552
0.299025
0.138775
0.0296631
-0.111672
0.0646658
-0.353438
0.288775
0.161214
-0.0978417
-0.0633719
-0.55093
-0.0531829
-0.550369
0.304456
0.00326742
0.00599809
-0.00926555
-0.0679376
0.347359
-0.459354
0.536247
0.182378
-0.192199
0.457353
0.167499
0.207608
-0.161252
-0.372375
0.533633
0.106876
0.198975
-0.305848
-0.120001
-0.247457
0.367461
-0.431901
0.443085
0.142948
-0.00451267
0.0447756
0.378651
-0.426379
0.209369
-0.204012
-0.00535524
-0.0794103
-0.48648
0.259103
-0.366153
0.107053
-0.634989
0.177896
0.457093
0.559356
-0.559349
0.508653
-0.151688
-0.356961
-0.549719
0.134027
0.514474
-0.151637
0.510045
-0.358407
0.262938
0.105211
-0.368145
0.328584
-0.463185
0.112821
-0.474532
-0.167872
0.672412
0.0257548
-0.0114402
-0.0143144
0.00122141
-0.0173273
0.137631
0.321906
-0.459535
0.383073
-0.123968
-0.292283
-0.0386809
-0.241922
-0.173274
0.0120609
-0.01269
-0.356701
-0.193665
0.252729
0.372129
-0.071281
-0.368404
-0.162638
-0.00126825
0.163907
-0.335202
-0.0616576
0.396862
-0.0138734
0.0110928
0.00278061
-0.132478
0.547245
-0.414764
-0.00218151
0.00162719
-0.239924
0.249392
-0.00946644
-0.211448
-0.454383
0.215406
0.16767
0.032528
-0.00412777
-0.0284002
0.212185
0.0169377
-0.32489
0.479423
-0.154533
-0.511776
-0.0544177
0.309419
-0.383222
0.0738043
-0.563384
0.0351323
-0.170292
0.57366
-0.403363
-0.573036
0.188601
0.384441
-0.447302
0.3404
0.106903
0.0170004
-0.0134511
-0.166471
0.165505
0.000967186
0.139117
-0.0219844
-0.117132
0.0881989
-0.0811144
-0.00708401
0.0683548
0.32878
-0.676054
-0.0760386
-0.00819216
0.084231
0.420351
-0.330294
-0.0541751
-0.217672
0.00718996
0.223696
-0.43927
0.197349
-0.391695
0.387887
-0.0473602
0.036381
-0.511317
-0.00975967
0.521075
-0.00425309
-0.0096203
0.011597
0.00050755
-0.0150101
-0.144094
-0.129703
0.34511
0.494066
-0.435806
-0.479335
-0.15302
0.306586
0.113254
0.282028
-0.419287
-0.143688
-0.00568323
0.149372
0.352279
-0.114354
-0.138358
-0.00532955
0.0566917
-0.0045682
-0.0521233
-0.539422
0.406945
0.120486
-0.163089
0.00173313
-0.0148434
0.0131103
0.378375
-0.0804753
0.332119
0.167938
-0.500055
-0.346941
0.533749
0.334911
0.116917
-0.451825
-0.0191168
-0.164994
0.257463
0.0469916
-0.304452
0.00466752
0.221169
0.0990692
0.0621453
-0.433216
0.59187
-0.158649
0.00984383
-0.00657637
0.000402212
-0.018875
0.0184728
0.456142
-0.38248
-0.0736596
0.121058
0.299293
0.215755
0.580591
-0.477776
-0.102814
0.39506
0.468343
0.0627876
-0.531132
-0.0802937
0.00425538
-0.227266
0.0205705
0.128812
-0.12644
-0.00237132
-0.0905554
0.110968
-0.0204119
0.209562
0.454809
-0.385974
0.427372
-0.0413955
-0.011012
0.37535
-0.364337
-0.225453
0.154382
-0.154709
0.159453
-0.00474278
0.00180869
0.0151917
-0.00395526
0.0556417
-0.0516862
0.346371
-0.103793
-0.342141
-0.124652
0.204773
-0.0801202
0.00122807
-0.105812
-0.00833312
0.114146
-0.122887
-0.140537
0.375839
-0.0804165
-0.574712
0.311385
0.191657
-0.503038
-0.161005
0.695975
-0.486412
0.289715
0.0886636
0.179935
0.487758
-0.159599
-0.3891
0.548704
0.0590892
-0.0023973
0.172294
-0.467713
0.402667
0.293659
0.402317
0.0200785
-0.037307
0.309629
0.106752
0.624167
-0.183953
-0.44021
-0.418403
0.568729
-0.150321
-0.0909817
-0.545842
0.549904
-0.0288337
0.0186473
0.354264
0.113918
-0.114155
-0.0149389
0.0154465
0.395567
-0.086148
-0.0494459
-0.168621
0.218068
-0.0110801
0.0128133
-0.0151773
0.0135173
0.140045
-0.368551
0.0240975
0.198865
0.0624402
0.51815
0.44646
-0.235135
0.0110916
0.224046
0.000168509
-0.0526925
0.0525242
-0.370482
0.328031
0.00249128
0.126321
-0.281365
0.0401683
0.241199
0.0864205
-0.477748
0.391333
-0.315767
0.248676
0.0670932
0.148009
-0.530165
0.382159
0.132197
-0.457087
0.142931
-0.152613
0.0096832
-0.37075
0.483573
-0.308896
-0.0661777
0.0259936
-0.51059
0.151633
-0.230665
0.0790348
0.127536
0.0148407
0.408941
-0.317104
0.100196
0.336695
-0.110432
-0.192662
0.0582924
-0.315463
0.257174
0.157498
0.170975
-0.0304532
0.0444821
-0.118163
-0.304175
0.065567
0.238611
0.0100606
-0.115872
0.470744
-0.384317
0.0687296
-0.333547
0.26482
-0.358267
-0.00959017
-0.00534869
0.127335
-0.481853
-0.634876
0.291536
0.343347
-0.00114539
0.0522748
-0.212517
0.421096
-0.208575
-0.0139842
-0.0124422
0.0248536
-0.0267626
0.00190898
0.0137294
-0.0105789
-0.00315046
-0.0383328
0.220712
0.0850707
-0.517778
-0.0624541
-0.453727
0.483404
0.333699
-0.529593
0.195899
0.122649
0.424597
0.374429
-0.534023
-0.605977
0.264617
0.341359
-0.0182959
0.370797
-0.236234
0.343113
0.703817
-0.410157
-0.0779383
-0.0232682
0.101207
0.019722
0.0184377
-0.0963756
0.160675
-0.535357
0.374687
0.138052
-0.56022
0.42217
0.633363
-0.146957
-0.486402
-0.00671549
0.14414
-0.0122111
-0.0495875
0.0617988
0.115119
-0.157504
0.0423861
-0.0589226
0.131888
-0.585615
-0.454626
-0.0834908
-0.135279
-0.449703
0.584987
-0.248888
0.417228
-0.168336
0.0596272
-0.0810524
0.0214257
0.0624413
-0.0391683
-0.0232726
-0.254646
0.312941
0.239135
0.464683
-0.132976
-0.314324
-0.461889
0.213005
0.176672
-0.155721
-0.0209496
0.00294376
0.00596628
-0.00890997
-0.0549054
0.0438419
-0.0468708
0.00302898
-0.352088
-0.0311339
0.449722
-0.349522
0.144805
-0.00568691
0.031547
-0.202831
-0.00873032
-0.0901185
0.112908
0.318151
-0.254252
0.157353
-0.0422326
0.354387
0.422637
-0.351071
-0.00616586
0.390186
0.272606
0.132305
0.0547641
0.0190497
-0.0213686
0.160893
-0.546461
0.385572
0.386075
-0.106786
-0.279286
0.291525
0.0843164
-0.563227
0.392941
0.287753
-0.2362
0.394131
-0.0148642
-0.00519787
0.0200623
-0.00420316
0.147136
0.116235
-0.0201398
-0.441167
0.583689
-0.455909
0.552442
-0.391762
0.0230779
0.00267713
-0.10663
0.0160751
-0.30066
0.252815
-0.00426139
0.0291151
0.171527
-0.588934
0.417412
-0.00821643
-0.480283
0.488496
-0.418159
0.268278
0.12729
0.0661853
0.00454483
-0.07073
0.341425
-0.107585
-0.233837
-0.409978
0.0902722
0.319709
-0.176461
-0.458527
0.069662
0.224127
-0.293785
0.414095
0.21927
-0.000666012
0.00907853
-0.00841253
0.0913651
-0.276812
0.0213955
-0.0231716
0.00177622
0.441626
0.0844266
-0.33907
-0.000528041
0.0135669
-0.0130388
-0.00896587
0.000780015
0.0081858
-0.077021
0.102969
-0.369645
0.517657
0.0438249
-0.0502437
0.0064189
-0.185413
0.619574
-0.482589
-0.00401178
0.168246
-0.164234
0.194844
-0.176631
-0.129807
0.322706
-0.192895
0.00576672
0.545076
-0.208888
-0.336186
-0.603519
0.368177
0.235345
-0.00994617
0.0921949
-0.149105
-0.485764
-0.572627
-0.360598
0.240601
0.124492
0.346257
-0.00968814
0.00902211
-0.208546
0.039397
0.169151
-0.125045
-0.341239
-0.126473
0.441452
-0.603678
-0.389391
-0.384027
0.560864
-0.0602072
-0.50065
0.210421
-0.409161
0.531811
-0.121096
-0.348737
0.469837
-0.606592
0.240468
0.366128
-0.00363929
0.0309564
-0.529105
-0.5206
0.0148937
0.505708
-0.1039
0.418178
-0.314277
-0.438653
0.334862
0.0151189
-0.0156469
-0.549168
0.00338683
0.545784
0.526155
-0.362782
-0.16337
0.0870283
0.0427934
-0.129821
0.0252787
0.151394
-0.241271
0.491669
-0.250397
0.188025
0.337224
-0.525242
0.195631
-0.366717
0.00183293
0.0420091
-0.103799
-0.0394196
0.00179649
0.0376234
0.194783
-0.062475
-0.500285
0.339039
0.594944
-0.424584
-0.170358
0.00680496
-0.00143134
-0.263473
0.459106
0.0905234
-0.33076
0.24024
-0.568489
-0.444645
-0.33023
-0.168013
-0.0191041
0.187118
-0.129997
0.269962
-0.139964
-0.201729
0.367159
0.427399
0.167547
-0.494459
-0.01686
0.372313
0.153845
0.0985743
0.0265819
-0.399263
0.322828
0.0764355
0.00414448
0.165563
-0.327536
-0.301295
0.385725
-0.158492
0.111889
-0.144268
0.0323799
-0.00563304
0.112022
0.229407
-0.0506731
0.0383917
0.0122818
0.00521038
0.0829889
-0.368988
-0.0696625
-0.0149521
0.00478224
0.0101698
0.323061
-0.25433
-0.0564055
0.0561859
0.000219768
-0.000380565
-0.0144834
-0.0119847
-0.0228715
0.0348564
0.552112
-0.178533
-0.373578
-0.224299
-0.0146247
0.238926
-0.375787
0.3019
0.0797266
-0.00330419
-0.00861644
-0.00388937
-0.52058
0.142531
0.378053
0.59114
-0.599665
0.00853052
-0.00416707
0.158745
-0.351313
0.570073
-0.218761
-0.418702
0.564509
-0.145806
-0.00583143
-0.00037462
0.00620611
-0.394905
0.566438
0.343028
-0.449287
0.106262
-0.00369009
0.0138521
-0.00040825
-0.0134438
0.0271106
-0.468277
0.47326
-0.139557
-0.493659
-0.00547764
-0.00390334
-0.00506264
0.083398
-0.0237704
0.118282
-0.126614
-0.179888
-0.290171
0.470062
-0.0395381
0.0446608
-0.116707
-0.108745
-0.0709889
0.058778
0.0101522
0.176588
0.182495
0.00199376
-0.072043
0.0650405
-0.40024
0.00633322
0.242531
-0.00747487
0.153301
-0.145825
-0.00797957
-0.00580015
0.471845
-0.0535893
-0.00365784
-0.000953136
0.00997519
-0.00459777
-0.0518077
0.0148386
-0.0144364
0.320517
0.111392
-0.431906
0.204972
-0.0208479
-0.184123
0.467342
0.15683
-0.0554967
0.279119
0.106959
0.0773716
-0.0604308
-0.0169405
0.648007
-0.64801
-0.0155944
-0.00512535
0.0207198
-0.541781
0.12308
0.130947
-0.0439183
-0.426632
0.527972
-0.101336
-0.141749
-0.0372664
0.179017
-0.172331
0.201141
0.00383205
-0.0261965
0.0369056
-0.166978
0.130074
-0.145935
0.344912
-0.481063
0.615096
0.0668823
0.344487
0.363197
-0.0464072
-0.316788
-0.370903
0.105261
0.265646
-0.000328136
0.0141802
-0.377848
0.584647
0.602051
-0.349322
-0.4356
0.148189
0.287416
-0.0343472
0.00781419
-0.00318493
-0.00106959
0.0161886
0.43079
0.121322
0.0987963
0.373051
0.0174604
0.382196
-0.399653
-0.00232247
0.0237181
0.123834
0.52417
0.139358
-0.343849
0.000400901
-0.0188486
0.0184478
0.376681
-0.550737
0.174062
0.0833888
0.198904
-0.28229
-0.105759
0.425521
-0.115892
-0.0481368
0.0351053
0.0130319
-0.271744
0.390174
-0.118427
0.217983
-0.516546
-0.00976969
0.170432
-0.160661
0.00393552
0.0191219
0.131596
0.0278585
0.322841
-0.232314
0.462162
-0.14672
-0.315439
0.215664
0.386387
-0.00286686
-0.00774892
0.0106157
-0.016416
0.128306
-0.534698
0.0140996
0.0423136
-0.26661
-0.559352
0.388289
0.171068
0.405726
-0.322943
-0.471868
0.628817
0.0212909
-0.475911
0.13887
-0.16116
0.0222905
0.186706
0.17598
0.447493
-0.104461
-0.117925
0.369864
-0.237908
-0.0117647
0.009165
0.00259978
0.0361407
-0.00361274
-0.0122187
-0.222258
-0.0428745
-0.00779837
0.0434336
-0.470062
0.212936
0.0144639
-0.0729797
0.45518
-0.398344
-0.161002
-0.145716
0.425784
-0.280063
0.337342
0.110154
0.0137374
-0.00116603
-0.0125713
-0.144448
0.466356
0.11232
0.0450344
0.431339
-0.11082
-0.243952
-0.614489
0.00710758
-0.00056189
-0.00654571
0.204253
0.363473
0.0727794
-0.19743
0.129073
-0.259068
0.0309379
-0.0976552
0.0667178
-0.249405
0.0408617
0.201994
-0.000440889
-0.201551
-0.00279365
-0.201636
-0.0290263
-0.313058
0.0522628
0.0686417
-0.0926962
0.398886
-0.306189
-0.00107894
0.0040344
-0.0029555
-0.140516
0.183145
-0.0426273
0.584185
0.413339
-0.286
0.206462
-0.169554
-0.170648
-0.00974492
-0.31306
0.50109
0.0394799
-0.0238717
-0.015608
0.401606
0.15084
-0.158671
0.0128085
0.0050354
-0.192857
0.621509
-0.428651
-0.0931686
0.0726665
-0.25805
-0.145453
-0.347645
-0.0968709
-0.4893
-0.00436088
-0.115261
0.50123
-0.385969
0.382518
-0.269606
0.0794894
-0.0894347
-0.400684
-0.150049
0.0617335
0.0216649
0.00648312
-0.00935001
0.239071
-0.0199841
-0.219085
0.00757832
-0.0127759
0.408074
-0.0212351
0.582105
0.234139
-0.609918
0.439792
-0.104878
-0.392524
0.143694
-0.119058
-0.0246349
-0.0956831
-0.233759
0.329445
0.329681
-0.510164
0.180488
-0.0862551
-0.323719
0.108116
-0.567242
0.0159989
0.0460992
0.0163424
0.294883
-0.0404907
-0.00305527
-0.00860359
-0.0749859
0.0835899
0.428068
-0.11668
0.13921
0.292729
-0.431938
-0.106139
-0.175224
0.143561
-0.0749382
0.462043
-0.387105
0.33845
-0.443065
0.104617
-0.402106
0.333147
0.0689589
-0.414944
-0.161549
-0.301148
0.524521
0.323486
0.102035
-0.0107846
-0.00526568
0.0160504
0.404358
0.0968023
-0.501155
0.0136544
0.0645333
-0.220994
0.260394
-0.210834
0.280499
-0.565988
0.450727
0.420616
-0.596086
0.175474
-0.135229
0.0694393
0.0657903
0.260679
0.0623841
-0.488016
0.556053
-0.395156
0.350746
0.122419
-0.473163
-0.324477
0.428801
-0.292469
-0.143128
-0.173016
0.597393
-0.381729
-0.314817
0.0255536
0.289265
-0.00518031
0.0966453
-0.0914645
0.260377
-0.424915
0.164538
0.486449
0.104697
-0.089565
0.441238
-0.351669
0.365489
-0.166508
-0.198979
-0.19549
-0.170661
-0.30212
0.0673027
0.23482
-0.14576
-0.197999
0.0574845
-0.341383
0.245702
0.320435
0.14173
-5.52488e-05
0.0816937
-0.0816381
-0.151657
0.481342
-0.017127
0.0146123
-0.0884731
0.0767037
0.0117699
-0.184218
0.323577
0.131955
-0.125338
-0.00661597
0.451504
-0.459724
0.67777
-0.244778
-0.43299
0.11859
0.318067
-0.436653
0.259379
0.176945
-0.436324
-0.0544056
-0.303002
0.357408
0.501029
-0.0966656
-0.491391
0.491397
0.176807
0.379251
0.127471
-0.147607
0.573778
-0.143476
-0.4303
0.557018
-0.380207
0.379492
-0.181857
0.215065
-0.206963
-0.00809999
-0.00921646
0.0754019
-0.0555925
0.327189
-0.26252
-0.14147
-0.465118
0.142064
-0.149538
0.1066
-0.0217598
-0.0848403
-0.0850887
0.326321
-0.00920199
0.111733
-0.127539
0.0158065
0.143981
-0.0302374
-0.113742
0.583216
-0.171279
-0.411936
-0.156675
0.00599521
0.469795
-0.137673
0.356162
0.293529
-0.323581
0.442175
0.0139199
-0.0144427
0.000522773
0.0124638
0.120343
-0.099586
-0.329541
-0.0619603
0.443113
-0.362997
-0.129904
0.492902
-0.381198
-0.146712
-0.428222
0.118143
0.310083
-0.295036
0.434247
-0.391989
0.0743891
0.317601
-0.540425
0.290268
0.20227
0.0127968
0.310165
-0.0604531
-0.0144214
0.0137019
0.000719568
0.00965036
0.549713
0.258051
-0.262266
0.00421659
-0.353547
-0.25243
0.0504449
-0.0122712
-0.0381734
0.185885
0.00966487
-0.195549
0.00451502
0.0406811
-0.0451958
0.125168
-0.0265928
0.00537993
0.138315
0.0286904
0.142285
-0.00125204
-0.017623
0.438554
-0.178177
0.00875707
0.0159697
-0.58627
0.202996
-0.215742
0.0127468
0.163793
0.409988
-0.0811841
0.224404
0.0296419
-0.254043
0.209987
-0.370267
0.160283
0.0185324
-0.00177331
-0.0167591
-0.0664386
0.272041
-0.205599
0.0263307
0.41886
-0.0149382
0.141612
-0.126673
0.128321
-0.513541
0.390222
0.123318
-0.0785729
0.291047
-0.212471
-0.309311
0.66166
-0.26063
-0.401028
0.385913
-0.0840102
0.166885
-0.176654
0.0939121
-0.373295
-0.0174962
0.238179
-0.220681
-0.221237
0.481104
-0.259863
-0.247116
0.0454826
0.260587
-0.440473
-0.402706
-0.0450514
0.0509404
0.127342
0.265587
0.412185
0.365278
-0.110306
-0.254969
-0.0157115
0.0114584
0.219694
-0.00750697
0.141611
-0.112773
-0.0288372
0.0695288
0.00612919
-0.0756577
-0.492094
0.349893
0.142203
0.40204
0.181179
0.0676626
-0.0553115
-0.0123508
0.296195
0.0897199
0.182968
-0.000816083
0.230063
-0.0377944
0.00386634
0.0339283
-0.156344
0.415724
0.0342296
-0.129653
0.0135062
0.315832
-0.329336
-0.379281
0.00387203
-0.386427
0.190939
-0.450987
0.347489
0.103501
-0.00483446
-0.00132682
0.00616132
-0.248979
0.0174628
-0.132687
0.609942
-0.477254
0.0835218
0.140885
-0.00429508
0.10463
-0.100335
0.121213
-0.307146
0.185935
-0.00498628
-0.032808
-0.0195165
0.0812505
-0.506126
0.567948
-0.0618196
-0.230428
0.0297824
0.200647
0.0209425
-0.00189278
-0.19302
-0.0374075
-0.0567348
0.0501172
0.00661779
-0.496962
0.0426297
0.454334
0.34129
-0.430851
-0.0111959
-0.000299867
0.0114959
0.017043
0.0895577
-0.00716513
-0.00177384
0.00893895
0.120151
-0.549069
0.428919
-0.095181
0.435584
-0.101514
0.00249017
-0.0169266
-0.136183
0.0591625
0.279058
0.103463
0.425023
-0.0865712
0.0181115
-0.186123
0.090967
-0.0189536
-0.0720131
-0.0572907
-0.00838512
0.0656762
-0.48621
0.0620878
0.389749
-0.451835
-0.00647435
0.0502994
0.213008
-0.0113375
-0.201667
0.197763
0.310894
0.0945458
-0.116529
0.00960586
-0.140354
0.345391
-0.561916
0.403172
0.158749
-0.00096388
0.0080714
-0.0349044
-0.22723
0.575133
-0.111867
0.551751
-0.439881
0.0279135
0.0115667
-0.53151
0.0253866
0.621595
-0.153252
-0.466372
0.245138
0.0232631
0.328727
-0.440862
0.112139
0.154392
-0.0420706
0.20569
-0.223185
-0.0448827
-0.101806
-0.241135
0.342946
-1.05231e-05
-0.0075282
0.00753876
0.348739
-0.162032
0.105313
-0.0204797
-0.0848326
0.0795138
-0.0846937
0.0400602
-0.479192
0.360057
0.119137
0.365063
0.128916
-0.493976
-0.0265338
0.138267
-0.203616
-0.355728
-0.0251879
0.416884
-0.117949
-0.284157
0.328629
-0.00758463
-0.0715694
-0.160305
-0.235612
-0.367906
0.00421914
-0.0135075
-0.184947
0.206187
-0.0212388
-0.0221336
0.367624
-0.223888
-0.143732
0.620252
-0.149694
-0.470558
0.555081
0.207826
-0.211482
-0.0595303
0.0555752
0.00757292
-0.019013
0.203195
0.396158
0.00508207
0.160424
0.0430729
-0.459238
0.416165
-0.0991216
-0.329575
0.428701
-0.168313
0.0202119
-0.0214639
-0.0200904
-0.195486
-0.29667
0.241767
0.120263
0.0245419
-0.0793292
-0.312658
-0.0549852
-0.0500478
-0.121432
-0.357757
0.339396
-0.514654
-0.384635
-0.0728868
-0.24193
0.160724
-0.164926
0.540616
-0.402563
-0.00287023
-0.108848
0.111718
-0.485372
0.355308
0.130068
0.169447
-0.584387
-0.0522708
-0.00508476
0.0573559
0.0192644
-0.0210377
-0.154931
-0.235392
0.390327
-0.0140641
0.0301846
-0.315875
0.266716
0.0491599
0.0188869
-0.0146676
0.146443
0.309701
-0.0105796
0.381282
-0.340311
0.449228
-0.108913
-0.0551938
0.187245
-0.622609
0.435366
0.327397
-0.501087
0.173692
-0.328145
-0.0282773
0.0319228
0.0311613
0.000495998
-0.0316571
-0.0155466
0.273598
0.0384813
-0.0434674
0.0762608
-0.324598
0.24834
0.0229852
-0.00195167
-0.0210335
0.0324785
0.211001
-0.00317301
0.425214
-0.305062
-0.138288
-0.346744
0.485037
-0.438262
-0.494106
0.36961
0.1245
-0.0522554
-0.0287966
0.598553
-0.432458
-0.166094
0.255345
0.0248405
-0.280182
-0.367445
0.101943
-0.0823985
-0.0060828
0.0369411
-0.0107504
0.0239236
-0.013173
0.109973
-0.433258
0.323289
-0.0510697
0.0636305
-0.0125604
-0.232407
0.344432
0.25911
-0.327044
-0.202433
0.501763
-0.313962
-0.217544
-0.00101827
0.00697037
0.313385
-0.0692141
0.015726
-0.015325
0.165629
-0.159295
0.33293
0.0920944
0.121202
-0.00291902
0.398512
0.222458
0.259574
-0.0167249
-0.384659
0.238947
-0.00531861
0.103167
-0.0978482
-0.25778
-0.23549
0.332529
-0.206114
-0.126412
0.428043
0.330266
0.275667
-0.0910159
0.0867214
-0.236598
-0.0937255
0.330327
0.236798
-0.136087
-0.100709
-0.14766
0.475059
0.00166477
-0.153973
0.011422
-0.0104166
-0.0010053
0.319461
-0.474862
0.155406
-0.138075
-0.0584013
-0.470374
0.0891773
0.365532
-0.0740051
-0.162511
-0.425362
0.587874
-0.0132422
0.0827712
0.0151015
0.187896
-0.189468
-0.2031
-0.0840513
0.287155
0.137709
-0.492241
0.354534
-0.13739
0.481395
-0.344001
0.619348
0.32528
0.170083
0.388977
-0.532979
0.144007
0.1766
0.0191085
-0.031093
0.252056
-0.225722
-0.276988
0.411836
0.52004
-0.228014
0.56629
-0.031843
-0.534443
0.138777
0.00223335
0.000106859
-0.0405974
0.0944753