/*--------------------------------*- C++ -*----------------------------------*\
| =========                 |                                                 |
| \\      /  F ield         | OpenFOAM: The Open Source CFD Toolbox           |
|  \\    /   O peration     | Version:  v2012                                 |
|   \\  /    A nd           | Website:  www.openfoam.com                      |
|    \\/     M anipulation  |                                                 |
\*---------------------------------------------------------------------------*/
FoamFile
{
    version     2.0;
    format      ascii;
    class       surfaceScalarField;
    location    "150";
    object      meshPhiCN_0;
}
// * * * * * * * * * * * * * * * * * * * * * * * * * * * * * * * * * * * * * //

dimensions      [0 3 -1 0 0 0 0];
oriented        oriented;


internalField   nonuniform List<scalar> 
20537
(
-0.0152658
0.000923977
0.0144641
0.0187642
-0.0144741
-0.0042875
-0.00304836
-0.00611016
0.00919504
-0.0233695
0.0117699
0.0117147
0.0041427
0.00453658
-0.00862886
0.0136572
0.00363608
-0.0172431
-0.00579555
0.00648893
-0.000587255
0.00667181
-0.0108393
0.00423253
-0.00790288
0.00982385
-0.00166457
0.0125697
-0.00455518
-0.00798156
-0.00146564
0.00438169
-0.00290973
-0.00850944
-0.00113201
0.00964877
0.00513514
-0.00549199
0.000372031
0.00248948
0.00354661
-0.00602625
0.000180211
-0.00218701
0.00245192
-0.00531989
-0.00650603
0.0119003
0.0130938
-0.00214086
-0.0108279
-0.000199246
-0.0119898
0.0122559
0.00262363
0.00408937
-0.00669492
-0.00953197
0.00189484
-0.00948653
-0.0137056
-0.0109834
0.00797776
-0.000334303
8.29097e-05
0.000350729
0.000817185
-0.000971061
0.000655857
-5.81099e-05
-0.000174239
-0.00387971
0.0106194
0.00778894
-0.00781745
0.000132101
-0.00222123
-0.00138179
-0.0187225
0.00358324
-0.0160287
0.000830122
0.01532
-0.00334703
0.0170486
0.0087095
0.00450556
-0.0113302
0.00526162
-0.00588412
-0.00428772
0.0101802
-0.000733836
0.00206998
-0.00207771
-0.00171816
0.00380078
0.00420887
-0.00136064
-0.00283292
0.00544709
0.002915
-0.00834749
0.0100415
0.00255631
-0.0136761
0.00780087
-0.0166362
0.0104669
0.00640456
0.000626485
0.00014915
-0.000735133
0.00291051
-0.000696074
-0.00221768
0.00319831
0.000982716
-0.00418046
-0.00083605
0.00403386
0.00492279
-0.00312052
-0.00181049
0.0010039
-0.00408327
0.00307368
-0.0165776
0.00414183
0.0124542
0.00768389
0.000201102
0.0128033
-0.010667
-0.00208762
-0.0027041
0.00691239
-0.00415709
0.00452823
-0.00727942
0.00278392
0.00113849
-0.00290109
0.00176333
-0.00031605
-0.00102674
0.00179925
-0.000237458
-0.00178607
0.00275936
-0.000133526
0.000794118
-0.000225177
0.00134668
-0.000871198
-0.00148762
-0.00228192
0.00377161
-0.0148069
-0.00108438
0.00849928
-0.00801062
-0.000326893
0.00839973
-0.00293702
-0.00414927
-0.00169478
0.00583985
0.00492817
0.0116206
-0.0165017
-0.004234
-0.00315609
0.00742617
0.0145816
-0.00191163
-0.0126377
0.00331599
-0.0159257
0.0127019
0.00290972
0.00130597
0.000541964
-0.00415161
0.00253121
0.00567521
-0.00812551
-0.0126942
0.0125718
-0.00162652
-0.000430639
0.00205745
0.00219842
0.00110544
-0.00329588
0.0120947
0.00666837
0.00167248
-0.00149069
-0.00400984
0.000333839
0.00434778
0.00280623
0.00645386
-0.00909159
-0.00362753
-0.00732076
0.00193342
-0.00346592
0.00153162
-0.00892702
0.00394546
0.00504897
6.86493e-05
0.00195959
0.00918919
-0.000670905
-0.00834117
0.000243853
-0.000341485
9.27953e-05
-0.00909231
0.0104522
-0.00103325
0.0030668
-0.00491336
0.00183629
-0.0105266
0.0154968
0.00129918
-0.00980074
-0.00378456
0.0167145
-0.0128703
0.0120356
-0.00852818
-0.0034933
-0.0103004
0.00136507
0.00906211
0.0067882
-0.00546117
-0.00122728
-0.00436906
0.00229873
-0.0216136
0.0118279
0.00986676
-0.00295303
-0.0104459
0.00694319
0.00359017
-0.0129684
0.00280441
-0.000650541
-0.000151548
0.00106254
0.00787447
-0.00368281
-0.00527625
0.00480898
0.000466933
0.00984249
0.0030031
-0.000582718
0.000239431
-0.00453644
0.00486874
-0.00032607
0.00620133
0.00175584
-0.00788838
-0.0169845
0.00595156
0.0111763
-0.00228513
0.00552858
-5.20226e-05
7.61236e-05
-6.35849e-06
0.00383131
0.0123769
-0.0161499
-0.00515293
-0.00176973
0.00697878
0.000351815
5.91835e-05
-0.000385304
-0.001114
0.00292781
0.0168031
-0.0131188
0.000622781
-0.000647619
0.000373828
0.00524948
0.00164516
-0.0113343
-0.0101958
0.00022579
0.000274636
0.00150081
-0.00050523
0.00774778
-0.0155019
-0.00383849
-0.00143783
-0.000563507
0.000377869
0.000215931
0.000936517
0.00077453
-0.00110554
0.00235967
-0.000305851
-0.00140842
0.00312491
-0.000215982
0.00477392
-0.00697268
-0.000897517
0.00604427
-0.0167146
-0.00443189
-0.0121211
0.000436875
-0.00280102
0.00240569
-0.0168986
0.0124915
-0.00547352
-0.00132106
0.00685248
-0.0205542
0.0112123
0.00413098
-0.00717644
0.0030675
-0.00567425
-0.0106925
-0.00198905
0.00801678
-0.00561391
0.000506848
-0.00213586
1.58781e-05
-0.00876362
-0.00797909
0.00170631
0.00158314
-0.00280931
-0.000213225
-0.000311171
0.00108951
0.00247361
-0.00355243
-0.00770833
0.00459575
0.00310873
-0.00435033
0.00818245
-0.00382753
-0.000565733
-0.00396763
0.00243622
-0.0018681
-0.014066
0.00552044
0.00868315
-4.78973e-05
-0.00139272
0.00147882
-0.0035383
0.0109348
-0.00727309
0.00415614
-0.00317182
0.000278963
-5.70431e-06
-0.000268239
0.00801257
-0.00385268
-0.00637923
0.000755596
-0.00383406
0.00299706
-0.00505038
0.00336748
-0.00196569
4.68689e-05
0.00261718
-0.00289391
0.00539445
-0.000905347
0.000897683
0.00240754
0.00575874
-0.00805301
0.00882986
-0.0122293
0.00125633
-0.0120037
0.0110012
0.0128885
-0.0136253
0.000859784
0.00550522
-0.000945591
-0.00700868
0.00436244
0.000186268
-0.000192436
7.80928e-06
-0.00838451
0.00593233
0.00252688
0.00173983
-0.00322689
-0.006626
0.00500804
0.0141177
0.00229352
-0.0163076
-9.86693e-05
0.00138509
-0.00124189
4.08946e-05
0.000239745
0.00774075
-0.00513425
-0.0123779
-0.00802703
-0.0024228
0.00466033
-0.00224515
0.00271369
-0.000781403
-0.00412694
0.000756994
0.00360334
0.0121654
-0.0106639
-0.00835005
0.00400271
-0.00156496
-0.00467665
0.0162779
-0.012117
0.00379311
-0.00919704
-0.00668849
-0.00436207
0.0111683
0.00697237
-0.00433224
-0.000360071
-7.35288e-05
0.000451893
0.00253678
-0.0114467
0.00901099
0.00329634
0.00850655
-0.0073342
-0.000868409
0.00820771
-0.000200345
5.8796e-05
-5.44571e-05
1.81319e-07
-0.000480203
2.97001e-06
0.000643603
0.0158186
-0.0124128
0.00284995
0.000172199
-0.0049829
-0.00286362
0.00788416
-0.00813835
0.0125605
-0.00438482
-0.00315237
0.00305795
-0.00192239
-0.00619646
0.000830593
0.00544175
0.00600704
0.00188936
-0.00782958
0.00333969
-0.00749486
0.00265528
0.00696654
-0.0094996
-0.00386672
-0.0100631
0.012152
-0.00359797
-0.00854304
0.00694179
-0.0134885
-0.00659186
0.00956727
0.00294004
-0.00246026
0.00582245
-0.00248506
-0.00334395
-0.000425609
0.00133258
-0.00025402
0.00305674
-0.0102828
0.00756636
0.0118367
-0.00449189
-0.00731272
0.000253506
0.00855882
-0.00904472
0.00576806
0.00327997
0.0126882
-0.00986728
-0.00269772
-0.00123483
0.00315302
-0.0019131
-0.000297102
0.000233648
7.17607e-05
-0.0039066
0.00233769
0.00157299
-0.0135173
-0.00330671
0.00398444
-0.0125806
0.00859063
0.000243916
5.49088e-05
-0.000281997
0.000258924
0.00119764
-0.00141613
-0.00100949
0.00371927
-0.0026971
0.0176348
-0.00495917
-0.0126184
0.00198405
0.00293074
0.00463696
-0.00364112
-0.00062765
0.00178826
-0.00302213
0.00499232
0.00779547
0.00977556
-0.000426064
-0.00452724
0.00314645
0.00139278
-0.00733677
0.00360971
0.00375734
-0.0034257
0.00250295
0.000922776
0.000237654
0.000177717
-0.00026487
-0.0104324
0.00551625
0.00500368
1.09563e-05
-4.0316e-05
0.00216059
-0.00305564
0.000894158
1.20373e-06
0.000251517
0.0075133
-0.0113235
-0.00366337
-0.00965822
0.0133443
-0.00340746
-0.000488329
-0.000869215
0.00128316
0.00513872
-0.00637011
0.0154311
-0.0128572
-0.00252473
-0.00663201
-0.00240922
0.0125907
0.00201078
-0.00146052
0.00145447
-0.00603336
0.00938999
-0.0169103
0.0136073
0.0116821
-0.0010003
-0.010666
0.000174278
-0.000246955
7.12082e-05
0.00428958
0.00757333
8.35486e-05
1.35892e-05
-0.00148548
0.00281153
-0.00132537
-0.000600305
0.00686151
-0.00334657
-0.00829423
0.0116388
0.00218443
0.00973388
-0.0117869
0.0111742
-0.011341
0.000279787
0.00410137
0.00945526
-0.0134706
0.00198711
0.00969141
-0.0111505
0.0100712
0.00120969
0.0111327
-0.00857882
0.00397084
0.00467554
-0.00230828
0.0154888
-0.0131487
0.00591547
-0.0140172
0.00318905
-0.000705327
-0.00372901
0.00103172
0.0027047
0.00507249
-0.0050605
0.000244254
-0.00116315
0.0003819
0.0142278
-0.0145288
0.0109681
-0.017018
0.0060624
0.00107102
-0.00317983
0.00216598
-0.00343583
-0.00298121
0.00642498
0.00846709
-0.00570475
-0.00202227
-0.00898973
-0.00187673
-0.00848627
-0.00138964
-0.0031272
0.0050839
-0.005573
0.000533878
0.0134687
-0.00927992
0.00949994
0.00880909
-0.0166583
0.00787461
-0.0032824
-0.00557656
0.00803875
-0.0132799
0.00294838
0.00546394
-1.60044e-05
0.000256004
-0.000791817
0.00311991
-0.00231115
-0.0031392
0.00245552
0.000686943
-0.0034916
0.00203185
0.000177444
-9.85423e-06
-0.000203182
8.84729e-05
0.000126887
-4.42457e-05
-5.39898e-07
5.75181e-05
-0.0047209
-0.00379739
0.0162584
-0.00527937
-0.00359261
-0.0134396
0.0170447
-0.0115024
0.00689413
0.00484131
-0.00308475
0.000589772
0.00274712
0.0165476
-0.00771214
-5.30187e-05
0.000110119
-6.6762e-05
0.00499931
0.00303641
-0.013854
-0.000832385
0.00639061
0.00226351
-0.00594564
-0.0018847
0.00790055
0.000142938
-0.000201888
-0.00694173
0.00351606
0.0147586
-0.0119901
-0.00269896
0.0110889
-0.00978059
0.00543482
0.00236832
-0.00745762
0.00148556
-0.00297066
-0.00639648
-0.00191693
-0.012015
0.00999075
-0.00330757
0.00189005
0.00142028
-0.0173529
0.00686603
0.010655
-0.0126742
0.0165644
0.000519467
0.00373382
-0.00424201
-0.00412008
-0.00711779
-0.00791916
0.00375813
0.00422833
-0.00348749
0.010532
-0.013456
-0.000281873
-0.0047049
-0.00300357
0.00856114
0.00625145
-0.00487884
-0.00508281
0.0100912
-0.00282735
-0.00151665
0.00435189
-0.000235756
0.00100759
-0.000729112
0.0125163
-0.00125586
-0.000145295
0.00317388
-0.00299153
-0.00191515
-0.00121966
-0.00108029
0.00432811
-0.00322732
0.000783955
0.00419402
-0.0040927
0.00730042
-0.00314749
-0.0054178
0.00246489
0.00327987
-0.000357514
-0.00337017
-0.0174918
0.0113228
0.00625668
-0.000316832
-3.52969e-05
0.000474167
0.000856174
0.00975915
-0.0104254
0.00373835
-0.0047898
-0.00348722
-0.006853
-0.00666053
0.00913434
-0.00236561
-0.00232894
-0.00520288
-0.0119632
0.00715872
-0.0118928
0.00335901
0.00102673
-0.00301055
-0.00283982
0.00237493
-0.00538072
0.00299742
-0.0163784
0.0048217
0.011631
-0.00136441
-0.00193829
-0.00742861
0.00279328
0.00463789
0.00224865
0.00789353
-0.0018238
-0.00223152
0.00725088
0.00268261
0.010401
-0.0130202
0.0166891
-0.00621801
-0.0104286
0.00592497
-0.00124153
-0.0046515
-0.00283944
0.0151239
-0.00173264
-0.0132905
0.0120738
-0.0163802
0.00430815
-0.00361188
0.00166751
0.00194719
-0.00179189
3.28724e-05
0.00238564
-0.00387224
0.00150532
0.00418903
-0.00178169
0.00539538
-0.008617
0.00323029
-0.00947442
0.00292473
0.00911371
0.00760146
0.00296964
-0.000809243
0.00133135
0.0110665
0.0161372
-0.00406175
-0.00933211
0.0103838
-0.00191905
-0.00316728
0.000114128
-1.35921e-05
0.000449842
-7.67134e-05
0.0116274
-0.00267002
-0.00867181
-0.00174071
-0.00186715
-0.0005602
0.00752236
-0.00695442
0.0105963
0.000225442
-0.0106058
-0.00243866
-0.00540263
4.88622e-05
0.000982786
-0.000993088
0.0015306
0.00956523
0.000158096
0.0116747
-0.0117694
-0.017859
0.00126321
0.00289413
-0.00532458
0.010941
-0.000137243
0.00428221
0.0133775
0.0108546
-0.00842184
-0.00234299
-0.0136127
-0.00423494
-0.0160469
0.00541093
0.0109194
0.00044784
-3.89344e-05
0.0184678
-0.0135352
-0.00484761
-0.000957196
0.00362265
-0.00266015
-0.000412726
-0.00858081
0.00387433
0.0145854
0.00117343
0.00478082
0.00138118
0.00327031
-0.00219751
0.00401601
-0.00180534
-0.0041725
0.00198769
-0.0167518
0.00947305
0.00736591
-0.0022281
0.00661642
-0.00405532
0.00111964
0.000145846
-0.000861732
-0.00402486
-0.0122758
-0.00675647
0.00271135
-0.00266672
0.00621946
-0.00387307
-0.00308206
0.00702685
-0.0022237
-0.00119847
0.00288977
-0.00414614
0.00126488
0.000845208
-0.000767449
0.00570689
-0.000434633
0.00526068
-0.00196415
-0.000206793
0.00217056
-0.0128775
0.00923697
0.00173799
-0.00557273
0.00528421
0.0132626
0.00343961
0.00750459
0.000592459
0.000106075
-0.000466394
-0.00447903
-0.00294629
-0.00468327
-0.00141421
0.00631442
-0.0112744
0.00482659
-0.00558234
-0.0110691
6.55095e-06
0.00679213
-0.00663327
-3.2818e-05
-0.0106075
0.00673073
-0.000951406
0.000885586
0.00256472
-0.00676456
0.0128311
-0.0153081
0.00252405
0.00333947
-0.00397457
0.00063475
0.0127925
-0.0170595
0.00435039
0.00220369
-0.0126466
0.0164183
-0.00370427
0.0105004
-0.00851823
0.00204212
-0.0124246
0.010484
-0.00324719
0.00865461
-0.0021405
-0.00976486
-0.00340859
0.00241135
-0.000497462
0.000321609
-0.00339216
-0.00696116
-0.000372831
6.52953e-05
-0.00320548
-0.00483393
0.00805215
-0.0106857
0.00323419
0.00743027
0.00495781
0.00318586
-0.00810912
-0.0162022
0.00361905
0.00298242
0.00776946
-0.0120516
-0.0163986
-0.00153354
0.00540104
-0.00407443
-0.00512091
-0.0106344
0.00026984
0.0102504
-1.37416e-05
-8.66733e-05
0.000135885
0.00337531
-0.00959159
0.00622847
0.0112695
-0.00138548
-0.0098784
0.0107398
-0.00479777
-0.00590193
0.00141185
-0.00307451
0.00166132
-0.00580138
0.0128839
0.000674745
-0.00273212
0.00207255
0.00190029
0.00935809
-0.00413503
-0.00110228
6.35302e-05
3.7597e-06
-0.00674794
-0.0028505
0.00967523
0.00779513
-6.21956e-05
0.00517964
-0.00421119
-0.00079275
0.0052267
0.00211368
-0.0112468
0.00928293
-0.00162696
-0.00715551
-8.88794e-05
-0.0171404
0.00587051
0.0113393
-0.00367282
-0.00606425
0.00973337
-0.000218413
0.000613322
-0.00242279
0.0123645
-0.00188773
-0.00167126
0.00355445
0.0150715
-0.000873331
-0.000132436
-6.5663e-05
0.00600961
0.00603341
0.00386665
-0.00577412
0.0128
0.00709582
-0.00509442
-0.00174303
-0.0151472
0.0140645
0.00114716
0.0134458
-0.0119663
-0.0013566
-0.000196865
0.00683251
-0.012496
-0.00564216
0.00282484
0.00743148
0.00330573
-0.00246676
-0.00487292
0.00741468
0.00399303
-0.00181498
0.0166842
-0.00190048
-0.0147152
0.000732598
-0.00311288
0.00239258
0.000308251
0.000160573
-0.00196676
0.0130935
-0.0109161
-0.000258433
0.00093401
-0.000195825
0.0172426
-0.00468525
-0.0125328
0.0112011
-0.0105922
-0.000451228
0.0130459
0.00372337
-0.00797277
0.000936141
0.000802191
1.01481e-05
-0.00572918
0.00327252
0.00246099
0.00275719
-0.00134768
-0.00818765
0.00784097
0.000596567
9.22359e-05
0.0166698
-0.00948915
0.0116271
-0.011259
0.0102727
-0.00157372
0.00463183
0.00780479
-0.010075
-0.00654196
0.00598943
0.0158341
-0.0101538
0.0029302
-0.00802191
0.00513249
-0.0070344
0.00767262
-0.000477039
0.00136535
-0.00317609
0.00180815
0.000401713
-0.00012662
-0.000239609
-0.00289732
-3.721e-06
0.00591344
0.00677967
-0.0126602
0.000825552
-0.000636763
0.0166253
-0.0164548
0.00213162
-0.00509418
0.0029576
-0.00234428
0.0099104
-0.00404524
-0.00112411
0.00516709
-0.00079614
0.00230739
0.0110437
0.00508877
-0.0161273
0.000558534
-0.00157021
0.00596467
-0.00156766
-0.0040453
0.00227161
-0.00806887
0.00615658
-0.000530976
0.00618065
-0.00550344
-0.0004697
-0.00149552
0.00244366
0.00458465
-0.00697538
-0.00155714
0.00535436
-0.00377606
-0.00160499
-0.00336267
0.00498385
-0.0154369
0.000174777
1.39543e-05
0.00399572
-0.00637681
0.00238363
-0.00315618
-0.0075417
0.0105715
-0.00794305
0.00796921
-0.00195139
-0.00372229
-0.00751317
-0.0119127
-0.00480364
-0.00219621
-0.00170608
0.000817577
-0.00107028
0.000779782
-0.00210859
0.00346889
-0.00470346
0.00373011
0.00208729
0.0109206
0.0126163
0.00406918
-0.00364953
-0.0124243
-0.00219586
0.00288643
0.0147406
-0.0170136
0.00913067
0.00301937
0.00342389
-0.00873158
0.00532022
-0.000934842
0.0139397
-0.00570312
0.00913785
0.00371463
-0.00458483
0.000882431
0.000158483
0.000279935
-0.00297121
-0.00451508
0.00291955
-0.00159698
-0.00132181
-0.00171227
0.0115643
0.00890863
-0.00847844
-5.19399e-05
-0.00913395
-0.00260047
0.0106351
-0.0110326
0.000629061
-0.00769905
0.00275614
0.0127947
-0.0152839
0.00254357
-0.0145833
0.00606864
0.00603463
-0.00971292
-0.00245829
-0.000391389
0.00326057
-0.00372251
0.00183028
0.00350944
-0.00216261
-0.00134455
-0.00362249
-0.0126215
0.0162878
-0.0113882
0.00821657
0.00535363
7.06125e-05
3.95882e-05
-0.000107188
0.006678
0.000234795
-0.000321344
8.32624e-05
-0.00201436
0.00601358
-0.00316506
0.00900302
-0.0024089
-0.0026064
0.00503666
-0.00455296
0.000929981
0.00363433
-0.000673069
0.000572803
-0.0133056
-0.00278673
0.0161494
0.0167047
-0.00442157
-0.0122779
-0.00386835
-0.00473566
0.00177521
0.00490384
-0.00663572
-0.00185998
0.00138886
-0.00390708
0.00273425
0.00117922
0.0104167
0.00650209
-0.00633678
-0.00697357
-0.00575129
0.0127224
0.00341792
0.00179907
-0.00503378
0.00325026
-0.00683357
0.00301372
-0.00436672
0.016031
0.000114391
0.0100512
-0.00985404
0.000180891
-0.00534354
-9.54076e-05
-0.000544889
0.0101037
-0.0116939
-0.000346437
0.000290518
0.00594722
-0.00447333
-0.00102281
0.00047215
0.00325199
0.00476021
-0.0104191
-0.00570489
-0.00052442
0.000459089
-0.00430827
-0.00427209
0.00779175
-0.0113805
-0.00236218
0.00739222
-0.00470257
-0.00087092
-0.000137109
0.0011931
0.00303242
-0.0019058
-0.000212486
0.00280385
-0.0037548
0.00787616
-0.0112242
0.0118593
0.0053012
-0.00157637
-0.00521979
0.0162679
0.00743436
-0.00490424
-0.00245745
0.00141152
0.00150682
0.000818281
0.00233684
0.0126135
0.00259164
0.00822246
-0.00247828
8.70658e-05
-1.53958e-05
0.00283144
0.00558157
-0.0123648
0.00685503
0.00557278
-0.00342153
-0.00214357
-0.0117193
-0.00465223
-0.00537519
0.00298896
-0.00565054
0.0093942
-0.00366551
-0.00903656
0.00323829
0.00606095
0.00334049
0.00920123
-0.0124692
-0.0122805
0.00367208
0.00870759
-0.00504586
0.000997735
-0.00263074
-0.00423518
0.00691136
-0.00710388
-0.000546842
-0.0117709
0.0166656
-0.00498935
0.00101407
0.0100925
-0.00325725
-0.00675537
-0.0018209
0.00680345
-0.000536171
-0.00730044
-0.0144694
0.00961908
0.0107165
-0.0105025
-0.01024
0.00160328
0.00879131
-0.00312115
0.00524794
-0.0084394
-0.00557133
-0.00173987
0.00276789
-0.0127871
0.0100883
0.00467261
-0.00284926
-0.00306151
-0.00571069
-0.0157819
0.00544193
0.0103751
-0.00796103
0.00465116
0.000645899
-0.0158319
0.00249572
0.000145195
-0.000767182
0.000938573
-0.00301165
0.00190129
-0.0136066
0.00136691
0.0123459
0.00326432
-0.00189219
-0.00191387
-0.00141218
0.00332771
-0.00480976
0.00288882
0.0019141
0.0126859
-0.00666661
-0.00566065
0.00118823
-0.00189994
0.000151549
2.57457e-05
0.00691968
-0.000700922
-0.00579613
-0.000292778
0.00019864
0.00572191
0.000665681
4.94779e-06
-6.84405e-05
6.18586e-05
0.0167228
-0.00385625
-0.0122429
-0.00283768
-7.1305e-05
-0.000426194
0.00479337
-0.00863208
0.00384382
0.0118596
0.00720066
-0.00240017
-0.0105802
0.00240523
0.00844681
-0.000172567
6.44153e-05
0.000129314
0.000223903
-0.000347861
0.000202347
-0.00913863
0.00693468
-0.00690224
0.00333084
0.00356735
-0.00526414
-0.00064971
0.00595627
0.00829507
0.00016773
-1.44551e-05
-0.000473095
0.000778508
0.00241513
-0.00174499
-0.00025073
-0.012993
0.00362881
0.00953022
-0.00366908
-0.0018552
0.00554095
0.00511066
0.0036416
-0.00874875
-0.0081164
-0.00196872
-0.000450346
0.000407304
0.00508526
-0.00548048
0.000930724
-0.0136718
0.00660799
0.00361113
-0.0102047
-0.00132348
0.00314058
-0.00181595
0.0114448
-0.00311918
-0.00227978
0.00539456
-0.0113691
0.016464
-0.00387934
-0.0103068
0.00422759
-0.00575769
-0.000506388
0.00235485
0.00774006
-0.00886466
-0.00909771
0.00860747
-0.0122435
0.00131829
-0.00653757
-0.00274884
-0.0034546
-0.00764875
-0.0173422
9.83529e-05
-7.61028e-05
-0.00471804
0.00559577
-0.00137694
-0.00169715
-0.00980368
0.00245487
0.00751143
-0.000768525
0.0129826
-0.0121156
0.0118831
-0.0162031
0.00161723
0.00468967
-0.00263651
0.0172431
-0.000668143
0.00358205
-0.00723137
0.00365377
-0.00728516
0.00470438
0.00391357
-0.00688511
0.00380865
0.000219022
-0.000276131
-0.00235557
-0.00793952
-0.0030505
-0.00267294
-0.000964809
-0.00357657
0.00266332
0.0128171
-0.00327994
0.001367
-0.00741994
0.00216825
0.00545478
0.00063
-0.000240369
-7.41556e-05
-0.000301186
0.0112453
-0.0164631
-0.00180278
0.00415213
-0.00233801
-0.000965973
0.0128379
-0.0117823
0.00345251
-0.0147391
0.0114293
0.00309807
-0.00235263
-0.00964643
0.0091058
0.000668731
-0.000155472
0.00044506
0.00212159
-0.00415061
0.00202141
0.0158992
-0.000391771
0.00241541
0.000933885
-0.00334239
0.000628763
-0.00984612
0.00189213
-0.00286217
0.00191122
0.000950586
-0.00292173
0.000113974
0.00280749
-0.00484825
0.00048972
-0.00829469
-0.0038787
-0.00115398
-0.00223587
0.00339327
0.00891451
-0.0007758
-0.00262201
0.00998792
-0.0040033
-0.00596148
0.00587434
0.0049031
0.0122453
-0.0021759
-0.00996929
-0.00283243
0.00380434
-0.0110236
0.00728734
0.0023315
0.0083259
-0.0105671
-0.00408484
0.0027378
0.00120337
-0.000739876
0.000262785
0.000925106
0.0126441
-0.00803631
0.00521764
0.00376086
-0.00164526
0.00432467
-0.0117161
0.00745481
-0.00533708
0.00503463
-0.015392
0.00232896
0.00080589
-0.00602805
0.000250799
-0.000859896
0.00227448
-0.000861143
0.01337
-0.00017528
-8.70219e-05
0.0126895
-0.00945979
-0.0029578
0.000307002
-0.00256168
0.00286503
0.00305404
0.000684543
0.00276677
0.000517205
-0.00067007
0.000185442
0.0165695
-0.00363021
-0.0129109
-6.24177e-05
0.00672292
-0.00105086
-0.00181075
8.06262e-05
-8.96164e-05
5.69984e-05
-0.00378754
-0.00911953
0.0130174
-0.0044219
0.00486652
-0.000410779
0.0101828
-0.00355948
0.00760553
-0.000869271
-0.00672582
-0.00262964
0.00236877
0.000694264
-0.0180894
0.00146465
-0.00642491
0.00330303
0.00932134
-0.00269382
0.0044763
-0.00177141
0.00133593
-0.00597666
0.0021878
0.00514768
0.00399209
0.00558796
-0.00953325
-0.00240216
0.00170477
-0.0139687
-0.00407176
-0.0117615
0.00106843
0.0107881
0.000354212
-0.000367381
-0.00949766
0.00390784
-0.010252
0.00637573
0.0116296
0.000472254
-0.0120699
-0.0126679
0.000765456
-0.00532837
0.00936703
-0.000662699
0.0019281
0.00872533
-0.0124054
0.00506184
-0.00429243
0.0034464
0.00732947
-0.010783
-0.0078929
0.00506841
0.00454688
-0.00842018
-0.00123895
-0.0049225
0.00563785
-0.00127417
-0.00432521
-0.00294105
-0.0139013
0.0130361
-0.00194564
0.00712453
-0.00517612
-0.00529813
0.00371096
-0.00720535
0.00732169
0.0027522
-0.00478438
0.00202198
-0.00360516
-0.0121437
0.00235782
0.00386449
-0.00622644
0.00751978
-0.00393034
-0.00493829
0.00252748
0.00242108
-0.0010397
0.00620684
-0.00514772
0.00560063
-0.012075
0.00653854
-0.00559062
0.01189
-0.0158382
-0.00417456
0.00189502
-0.00216856
0.00335776
-0.0125855
0.0094344
0.00030855
0.000291184
-0.000389079
0.00738261
-0.00218903
0.000260063
7.3446e-06
-0.000268841
-0.000690497
-0.000140461
0.000863554
-0.00173174
-0.00137971
0.00311139
-0.00552396
-0.00169597
0.0110816
7.62612e-05
-0.0109182
0.0020841
0.00253556
-0.00328869
0.000753438
0.00387113
-4.85882e-05
0.00175937
0.00550744
0.00189592
-0.00350298
-0.000783163
-0.00213922
0.000774068
-0.00442947
-0.00180575
-0.00320067
0.0157369
-0.0127686
-0.00285372
-0.0030591
-0.00232864
-0.00825387
0.00439715
-0.0037389
-0.00316575
-0.00718977
0.00548115
0.00500455
-0.00737098
0.00938828
-0.00729442
0.000422132
0.0136216
-0.00153624
0.00532069
-0.00121572
-0.00405653
-0.00128022
0.00107307
-0.00905531
0.0144129
-0.00812544
0.00227333
-0.00392672
0.00592596
-0.0035727
0.00218448
0.00132728
0.00785135
-0.0076398
-6.42769e-06
-0.00207087
0.00719692
-0.00505124
0.00474013
-0.00677293
0.0120329
0.011763
-0.0124344
-0.000375701
-0.00590486
0.00628404
0.000468144
0.000167563
0.0015369
-0.00274039
0.0012039
8.33677e-05
-0.000741301
0.00138315
-0.00578268
-0.00907034
-0.000136042
0.00947886
-0.00732434
0.00955604
-0.00221072
0.000652946
0.00542042
-0.00741246
0.00252636
-0.00742312
0.00143231
0.00605419
0.0110547
0.00306244
0.000764405
0.00057843
0.00680689
0.012699
-0.00402169
0.0149659
-0.0109138
0.00182869
-0.0126712
0.0109662
0.00250365
3.25459e-05
-0.00256917
-0.000550758
-0.00071231
-0.00582032
0.00295392
-0.0120996
0.00931849
-0.000310132
0.00265079
0.00221329
-0.00312822
0.00207818
0.00525122
-0.00627226
-0.0180512
0.009086
0.0153133
-0.00487409
-0.0102189
0.00333641
-0.000915324
0.00123693
-0.000170934
-0.0146251
-0.000887563
0.00288463
-0.00184509
-0.00103793
0.00836678
0.00271553
-0.0107994
-0.00760366
0.00659689
0.00110823
0.00357844
-0.00404288
0.0118418
-0.00379818
0.00774505
-0.003943
-0.00886631
-0.00156606
0.0106158
0.00124781
0.000305239
-0.01331
0.00762073
0.00568157
0.00317097
-0.00138408
-0.00226187
0.00720433
-0.00123044
-0.0104393
-0.00266305
0.0148664
-0.0120831
-0.00643439
0.00573065
0.00165568
0.00234044
-0.00400135
0.00590732
-0.000218512
-0.000147517
0.000699967
0.0106993
-0.00503815
0.00166796
0.0046521
-0.00595857
0.000675443
0.0011065
0.00431539
-0.000105154
-0.00042639
0.000157619
-0.00350369
-0.00554708
0.00906324
0.0104059
-0.0101159
0.00065528
0.0106534
0.0124775
0.00617482
-0.0125774
0.000318754
0.00235969
-0.00267819
-0.00250298
0.00462871
-0.0106669
0.00400766
-0.00607515
0.004132
-0.00939078
0.000598782
0.00715355
-0.00992388
-0.0133423
0.00867584
-0.00456166
0.00659303
0.0143024
-0.00236629
-0.0117231
0.0118355
-0.0109385
0.00152314
-0.00273983
0.00121567
0.00732825
0.000743996
0.00733217
-0.00597014
9.94394e-05
0.00795455
-0.0112593
0.000165393
0.00293809
-0.000933047
-0.0020054
0.0018894
-0.000658726
-0.0125405
0.00556335
0.00976857
0.00188839
0.00461138
-0.00111678
-0.00347786
-0.00463794
0.0090186
-0.00335907
0.0100995
-0.00667381
0.0017402
0.00562937
-0.00879604
0.00218614
-0.0149939
0.00737014
0.0165209
-0.00301442
-0.0134951
-0.0015225
-0.00170014
0.00322177
0.00736273
0.00276705
-0.0100744
-0.000472221
-0.00220723
-0.0134659
-0.00187806
-0.00545932
-0.00537319
0.00332689
-0.00159607
-0.000668489
0.00670194
-0.00762173
0.000920548
0.00791774
-0.00998862
0.0110427
-0.0062393
0.00357897
0.00374769
-0.00106253
-0.00263721
0.00072203
0.00626634
0.00100917
0.00804169
0.00316959
0.00742692
-0.00156527
0.00372391
0.000299221
-0.00013293
-0.00016399
-0.000643832
-0.00829069
-0.0016466
-0.00242404
-0.00797981
0.0109677
0.0053516
-0.00456284
-0.00218186
0.00383342
-0.00538979
0.0127416
-0.00731154
-0.00360447
-0.00362118
-0.000335406
-0.00104542
0.000730867
0.00362293
-0.000414382
-0.000813863
0.0116714
-0.00416869
0.00517596
0.00149019
-0.00662678
0.00563788
-0.00536671
-0.000173301
0.0080855
0.00118293
-0.00907972
0.0143925
-0.0108042
-0.000277858
9.22921e-05
-0.00127857
-0.00392391
0.00903749
0.0115051
-0.00319494
0.00493512
-0.00516711
0.00132722
0.00385627
0.00232135
0.00801758
-0.0148488
0.0113051
0.00355895
-0.00931756
0.00373274
-0.0103793
0.00707155
-0.00171161
-0.00536457
0.0131232
0.00316525
-0.0162376
-0.00530536
-0.00624952
0.0115625
-0.00336722
0.00429178
-0.00307942
-0.00100495
0.00725984
-0.0112981
-0.00164967
0.00392395
-0.002275
0.00350022
-0.00367897
0.000425362
-0.00559792
0.00471129
-0.00943902
-0.00220041
-0.0087924
-0.000739287
9.70449e-05
0.000203979
0.00506775
0.00228262
-0.00714771
-0.00148884
0.00728031
-0.00578177
0.0116859
-0.0152594
0.00381873
-0.00241469
-0.00722222
0.00795291
-0.00852692
0.000863695
-0.0127087
-0.00416323
-0.0082486
0.011355
-0.00596607
-0.000647388
-0.00577382
-0.0108912
0.0151213
-0.00422205
0.00621891
-0.00216801
-0.00403455
0.00797149
0.00180533
-0.0097842
-0.000272925
0.000769902
0.0122703
-0.00113651
-0.0108977
0.00732647
-0.0145069
0.00720705
-0.0172559
0.0154263
0.000863659
-0.00615951
0.00537887
0.00268591
-0.00066615
0.00808307
-3.31724e-06
0.00574142
0.0121822
-0.0147218
0.00982349
-0.00437628
-0.00544766
0.00908971
-0.00083071
-0.00233891
-0.00163427
-0.00275807
-0.00186855
0.00464202
-0.015556
0.000917686
-0.00227639
-0.00306765
0.00536434
0.000757783
0.00015294
-0.000335062
0.00226858
-0.00188017
-0.0160608
0.0120146
0.00421728
0.00375492
-0.00484982
0.00110195
0.0123664
-0.00751339
-0.00484654
-0.000343197
0.00406968
0.000231105
0.000258935
-0.00970556
0.00746193
0.00524572
0.00170628
-0.000112175
0.00116513
-0.00101183
-0.00225223
-0.00728264
0.00330855
0.00660876
-0.00154975
-0.00615723
0.00777059
-0.00423813
0.00244294
0.0150306
-0.00502376
-0.0120435
0.00355764
-0.00261115
0.00420586
0.00115742
0.00391965
-0.00680754
0.00289324
0.00592698
0.000359669
-0.00152722
-0.00326525
-0.00486007
0.00813359
0.00405165
-0.00563637
0.00161353
-0.000213802
0.00166358
-0.00140201
-0.00144732
0.00525418
0.00267151
0.00652106
-0.000255536
0.000317691
-0.0125871
-0.00329553
0.00186767
0.00120075
-0.00306753
0.00553659
-0.00177295
0.0108045
-0.00759126
0.00571567
0.00233278
-0.00744056
0.00821302
-0.000453463
-5.06505e-05
8.25459e-05
0.00429709
-0.0148771
0.0107576
-0.0111737
-0.00365385
0.00354961
-0.0168717
0.0133409
-9.13952e-05
-9.83487e-05
0.00552109
-0.00701171
-0.00422571
0.0171074
-0.00167624
-0.000958923
0.00263543
0.00106553
-0.000222411
-0.00376604
-0.00955821
0.0133303
-0.000172234
0.00017577
-0.000201799
0.00523905
-0.0050325
-0.00374182
0.0105539
-0.00678041
0.00425847
-0.0017622
-0.00248629
0.00111157
0.00397171
0.00497899
0.000228675
0.0083805
-0.00311996
-0.00341673
0.00125631
-0.00112621
0.00908645
-0.0054702
0.00297687
0.000127108
0.00631226
0.00333524
-0.009626
-0.0010646
0.00099439
0.0120462
-0.0022747
0.0058188
-0.00349145
-0.0107604
-0.00134199
0.0122938
0.00186109
-0.00317972
0.00131874
0.0112616
-0.0017778
-0.00940223
-0.011797
0.00557193
0.00533958
-0.00174283
-0.00357561
-0.016778
0.00132338
0.00369841
-0.0046671
0.00868701
-0.000299538
-0.00827487
0.000257217
-0.000298347
0.00262884
-0.00227343
-0.00424901
0.0162151
-0.00631795
-0.00699341
-0.0161811
0.00408823
0.0147693
-0.00381136
-0.0109565
-0.00575821
0.00258008
0.00358576
-0.00254523
0.00825993
0.013183
0.00266079
0.00479416
-0.00335556
-0.00221309
0.0116312
-0.00203051
0.00174654
0.000105506
0.00553765
-0.00552915
0.00230814
-0.0044214
0.0083048
-0.0105906
0.00558213
0.00429014
-0.00985991
-0.00293997
0.00669234
-0.00375247
0.00408249
0.0109829
-0.0149992
0.00134215
-0.00150839
0.00188371
0.00263025
-0.00450431
0.0121104
-0.0162817
0.00580873
-0.00902095
0.00713936
-0.00225742
0.00393021
-0.00166642