/*--------------------------------*- C++ -*----------------------------------*\
| =========                 |                                                 |
| \\      /  F ield         | OpenFOAM: The Open Source CFD Toolbox           |
|  \\    /   O peration     | Version:  v2012                                 |
|   \\  /    A nd           | Website:  www.openfoam.com                      |
|    \\/     M anipulation  |                                                 |
\*---------------------------------------------------------------------------*/
FoamFile
{
    version     2.0;
    format      ascii;
    class       volVectorField;
    location    "850";
    object      ddt0(U);
}
// * * * * * * * * * * * * * * * * * * * * * * * * * * * * * * * * * * * * * //

dimensions      [0 1 -2 0 0 0 0];


internalField   nonuniform List<vector> 
13917
(
(-0.00991035 0.0147289 1.81674e-18)
(0.00257466 0.00222162 -3.76756e-18)
(-0.00141407 -0.0110059 -5.83337e-18)
(-0.00297634 0.00124582 -2.68869e-18)
(0.00107079 -0.00314604 -3.17163e-19)
(0.00194541 -0.0285187 -7.38831e-17)
(0.00294643 -0.00750153 4.2976e-18)
(-0.00874922 -0.0156859 8.97148e-18)
(-0.0059152 -0.163793 -4.41369e-17)
(-0.0253766 0.0240281 -2.66024e-17)
(0.00510429 -0.0210253 -3.45708e-17)
(-0.00119544 -0.0164966 -4.871e-18)
(-0.00308328 0.00125228 3.61088e-18)
(0.0289591 0.00553818 -1.1497e-17)
(-0.00458971 -0.00271506 -4.94278e-18)
(-0.00362357 -0.000294322 1.09639e-17)
(0.00131383 0.00179854 2.04347e-19)
(0.0196544 0.0112318 -4.88422e-19)
(-0.00161278 -0.0161324 4.48172e-18)
(0.00101399 -0.000876074 6.04829e-18)
(0.000226071 -1.85934e-05 6.45997e-18)
(0.00532542 -0.00708048 -7.57224e-18)
(0.00138425 -0.00179428 3.02653e-18)
(-0.00876995 -0.0164573 4.07719e-17)
(0.00145465 -0.00285746 1.26784e-17)
(0.0123521 -0.0164458 6.75102e-18)
(-0.00133253 -0.0147656 -3.58949e-17)
(-0.00563695 -0.0180444 5.00973e-17)
(-0.00916397 -0.0363744 2.56144e-17)
(0.00100451 0.0587922 -3.33381e-18)
(-0.00836768 0.0184472 -1.36809e-17)
(-0.00225556 0.00767574 -3.9153e-18)
(-0.00325408 -0.0122716 -4.63834e-18)
(0.000479845 -0.00685769 2.459e-17)
(0.000730405 -0.00337184 2.59627e-18)
(0.00981383 -0.0198591 -1.25493e-17)
(0.00145227 -0.00170465 -2.18438e-18)
(-0.0190648 -0.0116716 -4.1365e-18)
(-0.00355365 0.000458014 8.16908e-19)
(0.172726 0.014859 -1.19997e-17)
(-0.000802623 -3.98216e-05 1.63263e-18)
(-0.000109145 -7.0454e-06 -1.91842e-18)
(-0.00105331 0.000559664 3.66292e-18)
(-0.00676902 -0.0223491 3.40033e-17)
(0.00234125 0.00282043 1.12432e-18)
(-0.000387801 -0.00814744 1.2985e-18)
(0.0208166 0.0100993 9.24497e-19)
(0.0220968 -0.00441391 2.24418e-18)
(0.00399283 -0.033876 -1.24443e-16)
(0.000219723 -0.000105006 -1.37464e-18)
(0.00404813 0.0034571 1.7003e-18)
(0.000216593 -0.00456363 8.33848e-18)
(-0.000776308 -0.0331104 1.10196e-16)
(0.000364515 -0.00714878 -1.80278e-17)
(0.00115318 0.00169953 -3.60794e-19)
(0.00641729 0.00734512 -1.23401e-18)
(0.00562182 -0.0210137 2.30586e-17)
(0.000776401 -0.00192634 2.87271e-18)
(0.00375586 0.00665096 -1.23468e-19)
(0.00253894 0.00269957 -3.09373e-18)
(-0.0028406 0.0465065 -7.20736e-17)
(0.00276335 0.00234626 7.91211e-19)
(0.0242499 0.0024583 1.87317e-18)
(0.000963349 -0.000976538 -1.83046e-18)
(0.00158742 -0.0289779 4.37432e-17)
(0.159668 0.0426919 1.70422e-17)
(0.000318504 -0.00338308 1.2308e-18)
(0.00039384 -0.00389814 -1.45203e-17)
(0.0223445 -0.0288274 3.34299e-18)
(-0.0114882 0.00721723 -1.20646e-18)
(0.000896429 -0.00297731 2.38411e-19)
(0.000208205 -0.157442 2.40802e-17)
(-0.367101 0.00233419 5.33249e-17)
(0.000849531 -0.00284359 -1.04669e-17)
(0.000440208 -0.035459 -1.70048e-17)
(-0.009288 -0.021211 3.99327e-18)
(-0.208137 -0.0440325 -3.98217e-17)
(0.00314811 0.00377999 9.25932e-19)
(0.010025 -0.026523 5.47724e-19)
(0.000373735 -0.000113619 2.72041e-18)
(0.00077751 -0.000239464 1.24038e-17)
(0.000285851 -0.00317031 1.40122e-18)
(-0.00126926 -0.029125 5.36388e-18)
(-0.0231094 -0.0132197 1.20645e-17)
(0.0659032 0.0539774 3.29319e-17)
(0.0031802 0.00366407 -2.54747e-19)
(0.00117663 -0.000517546 -2.59941e-18)
(0.17052 0.0636318 1.24029e-18)
(0.00323588 0.00325207 -2.19323e-18)
(-0.00119973 0.000557397 -2.42902e-18)
(-0.192218 -0.0926921 8.65298e-17)
(-0.0236951 0.0422814 7.82101e-18)
(0.00220108 0.00189157 1.01095e-17)
(-0.00190257 -0.00236847 -1.64118e-17)
(0.160419 0.0646841 -1.85743e-17)
(0.00345009 -0.0286455 1.97158e-17)
(0.0129436 -0.0203183 -1.01523e-18)
(0.0224277 0.000479616 9.05108e-19)
(3.01634e-05 -0.0273611 2.00666e-18)
(-0.00265597 -0.0231478 1.34463e-16)
(0.000191465 0.000315912 -6.7121e-18)
(0.000402379 -0.0110823 8.3647e-18)
(-0.00610546 -0.0218514 -3.92852e-17)
(0.00226793 0.00343778 4.39472e-19)
(0.00129447 0.00109079 9.96705e-18)
(0.0191919 -0.187529 3.00644e-17)
(-0.0138258 -0.0340997 2.07787e-18)
(0.0241583 -0.00516598 7.1893e-20)
(0.00135938 0.00198928 -8.1031e-18)
(-0.0124252 0.0183477 1.09602e-17)
(0.00535309 0.0306619 -8.6808e-17)
(0.179963 0.013574 1.32231e-17)
(-0.00175337 -0.0202476 1.01574e-19)
(0.00730068 -0.190254 1.17678e-17)
(9.5782e-05 -0.00494826 -1.89413e-17)
(0.00631377 -0.0344701 9.94107e-17)
(0.00145707 -0.00203947 1.48178e-17)
(-0.00139472 -0.0336932 4.7806e-17)
(0.0388519 0.0017524 8.2768e-18)
(-0.000535788 -0.00705613 -4.26896e-17)
(-3.80542e-06 -9.61056e-06 4.06413e-18)
(0.0233302 -0.0283982 -6.88865e-19)
(0.0347789 0.00752061 -2.97542e-17)
(-0.00489648 -0.0174152 -5.70208e-18)
(8.32948e-05 -6.67004e-05 -7.32855e-18)
(-0.00155881 -0.00232161 1.94552e-17)
(0.00297753 0.00263815 1.12404e-18)
(0.000141088 -5.14372e-05 3.57372e-18)
(-0.0011202 0.000377713 -9.15088e-19)
(0.00101746 -0.029212 1.77006e-17)
(0.0236224 0.00440006 4.87054e-17)
(0.000161131 -0.00489503 2.39871e-18)
(0.00192233 0.00287077 2.14184e-19)
(2.2547e-05 -2.15883e-05 -6.21107e-18)
(-0.149913 0.19913 1.06806e-16)
(-0.0070162 -0.0158789 -3.23094e-17)
(-0.0108749 0.0140925 7.72856e-18)
(-0.00209763 -0.0234921 -9.99984e-17)
(0.000318698 -0.00348791 2.74006e-18)
(-0.000257324 -0.007015 1.17659e-17)
(0.00998061 -0.0205164 -4.86239e-18)
(0.00112357 0.00155752 2.0665e-18)
(-0.000344178 -0.00436828 -1.34047e-17)
(-0.00580806 -0.0239019 -4.67023e-17)
(0.000421038 -0.00390554 1.28612e-17)
(0.0311518 -0.138051 -1.73182e-17)
(-0.0106984 -0.0357376 -1.49493e-17)
(2.75052e-05 -0.00450276 -5.89029e-18)
(0.000627541 0.0013969 4.83122e-19)
(-0.00421334 0.00692074 -7.37596e-19)
(0.0131172 -0.00833464 -2.20594e-18)
(0.00419017 -0.0336402 9.34371e-18)
(0.00627485 -0.0169241 3.14108e-18)
(-0.0158429 -0.00142212 1.58596e-19)
(0.00176594 0.00894782 -3.65084e-18)
(0.0719957 -0.139839 -4.86585e-17)
(-0.010345 0.00659283 -6.15113e-19)
(-0.0026846 -0.0317632 3.47569e-17)
(-0.225033 -0.0355301 4.79592e-17)
(-0.163143 0.199123 -3.42562e-17)
(-0.00192257 -0.00494296 6.77097e-19)
(0.00164495 -0.0147305 2.08208e-17)
(0.000105361 -6.71042e-05 -2.76742e-18)
(0.0140392 -0.0197529 6.14137e-18)
(-0.000301023 -0.0196924 -1.6543e-18)
(0.00139799 -0.0267059 -2.22602e-18)
(0.00222811 0.00353923 -3.06796e-19)
(0.016365 -0.00560799 3.31734e-20)
(0.00190149 0.00227775 -1.04453e-18)
(0.000672619 -0.0115614 -3.07844e-17)
(-0.0163184 0.00157991 1.19998e-19)
(0.0749717 0.00418468 9.31769e-17)
(-0.0039465 -0.0222725 3.11444e-18)
(0.00039392 0.001714 2.65097e-19)
(-0.00588111 -0.069287 -3.1381e-17)
(-0.0171782 -0.00453792 2.77593e-18)
(0.0209275 0.00362729 -4.65625e-17)
(0.00142355 -0.032571 -3.22875e-17)
(0.0223356 -0.121488 6.07753e-18)
(0.00246258 0.000713009 2.37585e-18)
(-0.0223596 0.0459894 -3.77603e-17)
(-0.00832202 0.0202707 8.01398e-18)
(0.00113588 0.00157007 -2.66233e-18)
(0.00137786 -0.000641038 5.09862e-18)
(-0.0064589 -0.00639285 -1.84604e-17)
(0.0146926 -0.0166659 3.53293e-19)
(-0.0774563 0.0886555 9.17807e-17)
(0.0575728 -0.15091 2.3957e-17)
(0.0134295 0.0128348 2.19711e-18)
(0.00028193 -0.0229572 -9.05866e-19)
(0.0046924 -0.0232981 -1.06755e-17)
(0.0491495 0.0508419 -5.19596e-17)
(-0.0872867 0.0603947 -3.65619e-17)
(0.00129421 -0.00214386 -2.7196e-18)
(-0.00172766 -0.0239943 4.11487e-17)
(-0.00154206 -0.0141996 1.06949e-17)
(-0.00211522 1.88179e-05 -3.69075e-19)
(0.0031 0.00196138 4.23786e-18)
(-0.016309 -0.0311218 -4.05456e-17)
(0.110266 0.0534286 7.72202e-18)
(0.00107647 1.96801e-05 3.29529e-19)
(0.000318385 -0.000101443 -1.11456e-18)
(0.0103537 -0.00550558 1.05259e-18)
(0.0121431 -0.00824344 2.09885e-18)
(-0.379169 -0.0033186 2.39916e-17)
(0.173887 -0.0689778 7.69233e-18)
(0.000829217 -0.00338821 8.78313e-18)
(0.000810569 -0.00186648 -3.45945e-18)
(0.020822 -0.000537545 -4.80035e-18)
(0.00868327 -0.00992074 1.34643e-18)
(-0.00033343 -0.00410816 1.64334e-17)
(0.00136483 -0.00729966 1.78467e-17)
(-0.37758 -5.60641e-05 -6.86479e-18)
(0.00196223 -0.0225569 4.14714e-18)
(0.00115791 0.00105024 -8.3953e-18)
(-0.00618053 -0.0335209 -2.08715e-18)
(0.0190868 -0.000508155 2.20073e-18)
(-0.020102 0.0135679 -8.78517e-17)
(0.00150226 -0.00166506 1.81909e-18)
(-0.00487279 0.0495448 1.30417e-17)
(0.00237233 0.000608994 4.0417e-18)
(0.0134327 0.0511591 2.36201e-17)
(-0.000732285 -4.83597e-05 -2.3533e-18)
(-0.0339935 -0.0188456 6.01596e-17)
(0.0102037 -0.174221 -1.02324e-17)
(-0.00389923 -0.000225959 6.69066e-18)
(-0.00192724 -0.025818 8.39113e-18)
(0.00136984 0.00928783 -3.18691e-18)
(0.00128064 0.00095016 9.66793e-18)
(0.00973881 -0.0201999 1.34524e-17)
(-0.00418871 -0.022063 -1.2174e-19)
(0.0141353 0.0119338 -1.56098e-18)
(-0.00401967 -0.0137015 6.181e-19)
(-0.346454 -0.0398944 -6.82339e-17)
(-0.000787177 0.000279812 -7.71787e-18)
(-0.0025792 0.00818487 4.01516e-18)
(-0.186581 -0.107567 -9.09223e-17)
(0.0234006 0.0749284 1.33766e-17)
(0.000658281 -0.000107816 -8.55489e-18)
(0.00102482 -0.000695692 -2.6749e-18)
(0.204183 0.00701062 -3.58978e-18)
(0.0153043 -0.022723 -3.69226e-18)
(-8.20848e-07 5.94783e-06 3.93439e-18)
(0.00752237 -0.0218814 4.84074e-18)
(0.0433259 0.0169073 1.46001e-17)
(0.00225184 -0.0142731 -2.33235e-18)
(-0.00656721 0.0142587 -2.25257e-18)
(0.000479991 -8.65803e-05 5.19169e-18)
(-0.0151078 -0.00823043 1.97444e-18)
(-0.374047 -0.020233 -1.09609e-17)
(-0.00039194 0.00127134 -1.60676e-18)
(-0.0360686 0.0510358 -9.30279e-17)
(-0.00320379 -0.0249199 -1.19802e-17)
(0.00258684 0.00257659 -2.08283e-18)
(0.000873975 -0.00217561 5.32666e-18)
(0.00461263 -0.0144874 -1.74073e-18)
(0.182775 -0.000618427 6.17606e-18)
(0.00583845 -0.0165281 -2.55504e-18)
(-0.00695975 -0.00653333 8.38983e-18)
(-0.00467365 -0.00244553 8.94208e-19)
(-7.96742e-05 9.91653e-06 -1.22833e-18)
(0.042731 0.00863179 2.42434e-18)
(-0.176265 0.201709 -8.8405e-17)
(0.0102069 -0.0255189 -1.70014e-18)
(0.00132468 0.000909322 -5.80742e-18)
(-0.238524 0.0532222 -3.31734e-18)
(-0.0140201 0.00109675 -4.69156e-17)
(-0.00458455 -0.0307406 -2.09847e-18)
(0.0111818 -0.0271939 -4.61496e-18)
(-0.00959511 -0.0222405 5.08353e-18)
(0.000432041 -0.000199852 6.0928e-18)
(-1.70015e-05 -6.51826e-05 2.35575e-18)
(0.0213502 0.00768395 -6.33578e-19)
(-0.0630171 -0.0243775 -4.39916e-18)
(0.0386607 -0.0152273 -7.89296e-19)
(0.00260256 0.00626809 1.79609e-18)
(0.195808 -0.069758 -6.57324e-18)
(-0.00999678 -0.00853166 5.66462e-19)
(-0.0014588 0.000272654 1.50421e-18)
(-0.0718039 0.0918948 -5.32077e-17)
(0.000987079 -0.000852598 -8.18466e-18)
(-0.00845296 -0.0652776 2.34284e-17)
(-0.0019485 0.00018357 2.49138e-19)
(0.000121599 6.29041e-06 -4.40561e-18)
(-0.00568256 -0.000447832 -4.02494e-19)
(-0.0150393 -0.00189782 -1.68229e-18)
(0.00116061 -0.0145697 1.12232e-17)
(0.00906371 -0.0214488 -7.07154e-18)
(-0.00960154 -0.00212294 6.99229e-18)
(0.000941027 0.00204861 -4.41753e-18)
(-0.0229689 0.159936 -4.19221e-17)
(-0.00479863 -0.0146022 1.95556e-17)
(-0.183137 0.197578 3.63889e-17)
(0.00151854 -0.0017103 2.73918e-18)
(-0.0089399 -0.0382721 -8.66962e-18)
(0.000326258 -0.00141621 4.9007e-18)
(0.00093013 0.00194504 3.10873e-18)
(0.00140846 -0.00202072 -1.06987e-17)
(-0.0122837 -0.0388126 1.456e-17)
(0.00045913 -0.000132969 -6.92305e-18)
(0.0137365 0.0548742 7.1343e-18)
(-0.00681999 0.0132237 1.11669e-18)
(0.00172167 0.00222347 -3.70152e-18)
(0.0120899 -0.00642567 -9.9925e-19)
(0.00192622 0.0039987 1.62898e-18)
(-0.00803619 -0.0323131 3.50493e-17)
(-0.0168227 -0.00408045 5.58246e-18)
(-0.0208216 0.0400677 8.77142e-18)
(0.000931854 0.00193036 2.15366e-18)
(0.000816628 -0.00215948 -1.20401e-18)
(0.0213065 0.0233077 6.86488e-17)
(0.0337726 0.00759053 -1.13704e-17)
(0.00138754 -0.00198131 -6.55204e-18)
(-0.000490424 -5.88513e-05 2.01423e-18)
(-0.0731153 0.0918927 5.89196e-17)
(0.00221174 0.00123278 3.46047e-18)
(-0.34878 -0.0163647 -3.4872e-17)
(0.00105924 0.00189666 -1.2599e-18)
(-0.0352732 -0.0217438 -5.03653e-17)
(-0.00159207 0.00127679 1.6708e-18)
(-0.0733515 -0.0345477 1.23657e-17)
(0.00463183 0.001142 6.38573e-19)
(0.000709756 -0.035005 -2.3589e-17)
(-0.00204227 -0.00472792 1.011e-17)
(-0.151079 0.195712 4.1143e-17)
(-0.00559772 -0.0304497 -6.16038e-18)
(-0.00554769 0.00035343 -1.45702e-18)
(0.0167467 -0.0228766 2.18965e-18)
(-0.0187658 -0.0349145 1.46729e-17)
(0.000137567 -0.000608397 -7.27999e-19)
(0.0110913 0.00123266 4.28537e-18)
(-0.00098851 -0.0232572 4.16402e-17)
(-0.0223846 -0.00306819 4.49636e-17)
(-0.000876989 -0.00620407 8.56138e-18)
(0.0978025 -0.00812608 1.62415e-17)
(-0.00206238 0.00918959 2.6021e-19)
(0.0417979 0.0325865 1.60764e-16)
(-0.00397594 -0.0288647 4.19938e-17)
(-0.0172744 -0.0231856 -5.52618e-17)
(-0.0174183 -0.0222047 1.55625e-17)
(-0.00124226 -0.00972152 2.49231e-18)
(0.000550805 -0.000316873 -1.91573e-18)
(-0.0183739 0.00171071 -3.47915e-19)
(0.00265744 0.0357941 4.93025e-17)
(6.57705e-05 -0.00295196 -7.41662e-18)
(-0.00180561 0.000701367 -1.95913e-17)
(0.000619419 0.000488456 6.16272e-18)
(-0.0135215 -0.0315641 9.89503e-18)
(0.000669179 0.00213179 7.97232e-18)
(0.00456813 -0.0232178 -6.34328e-18)
(-0.00896146 -0.0359088 -3.75573e-17)
(8.28251e-05 3.04905e-05 4.35509e-18)
(0.0436879 0.00315007 -1.49417e-18)
(0.00874854 -0.0205575 -4.50897e-19)
(0.000969042 -0.000925796 4.89902e-18)
(0.00129203 -0.000271511 -3.56453e-18)
(3.23471e-05 -0.00122705 -4.03186e-18)
(0.000809265 0.00141714 -2.78704e-18)
(0.0441927 0.134373 9.12386e-17)
(0.0109338 -0.0976084 3.85447e-17)
(0.00673686 -0.0302986 2.33763e-17)
(0.0154898 0.0297903 -7.6285e-17)
(0.0011048 -0.00253112 5.43626e-18)
(-0.0403774 0.0543084 7.23737e-17)
(-0.051536 -0.00671353 -2.26317e-17)
(0.0101175 -0.00224685 6.69824e-19)
(0.00129267 -0.00682091 -6.80671e-18)
(-0.0614445 -0.0296146 2.54406e-18)
(-0.000405328 -0.1811 -4.66697e-17)
(0.000285228 0.000540148 -2.47567e-18)
(0.00935961 -0.0259461 1.3875e-17)
(0.00159309 4.0776e-05 -7.52361e-18)
(-0.00977303 0.0521741 7.49135e-17)
(0.00242374 0.0026703 4.64092e-19)
(-0.00125974 -0.0375589 -1.52704e-17)
(0.0453031 0.0195352 -2.83618e-17)
(-0.00389667 0.000186323 -1.71254e-18)
(0.000590413 -0.000580224 -3.40714e-18)
(0.0212249 -0.000213237 -2.46688e-18)
(-0.025568 0.0491114 4.14916e-17)
(0.0339889 0.00858198 -6.19746e-18)
(-0.00885859 -0.062651 -2.84747e-17)
(0.0522913 0.0289775 -1.99106e-17)
(-0.00781447 0.0077354 -3.49223e-17)
(-0.016721 -0.00878299 1.25678e-17)
(-0.022712 0.0230639 4.00529e-17)
(0.00106574 -0.000699238 3.61085e-18)
(0.0165613 0.0696648 -2.8084e-17)
(0.00810901 -0.00833983 2.30114e-18)
(0.000720091 -0.00101851 1.78011e-17)
(-0.101792 0.181489 7.6774e-17)
(0.000777577 -0.00310837 -5.12544e-18)
(0.128909 -0.00565543 -1.97433e-17)
(-0.00152531 0.00122837 -5.73306e-20)
(0.000582321 -0.000192151 4.47317e-18)
(0.000564638 0.0035214 -2.4877e-18)
(0.00992661 -0.0587407 3.79832e-19)
(0.000192874 0.00338822 2.56926e-18)
(0.152178 -0.00807552 -4.41925e-18)
(0.0594508 0.0845766 2.39881e-17)
(0.0053853 -0.0209008 1.87846e-17)
(-0.0041956 -0.0309253 -3.20591e-17)
(0.000240417 -0.000437561 -2.62751e-18)
(-0.00529138 -0.0319512 -1.64379e-17)
(-0.0038912 -0.0311319 4.03053e-17)
(0.00140461 -0.00169533 -5.66182e-18)
(-0.0134011 -0.0314732 -1.3378e-18)
(0.000215594 -0.00293499 7.88437e-19)
(0.000823365 -0.0030909 6.44548e-18)
(-0.00533534 0.0566161 -4.30348e-17)
(6.52148e-05 1.52039e-05 2.50519e-18)
(0.000601288 -0.00304453 -4.03165e-18)
(0.00111961 0.000104822 6.81128e-18)
(0.105049 0.111344 3.27467e-17)
(0.000362064 -4.89842e-05 9.79709e-18)
(0.0754474 -0.0107008 -1.87693e-17)
(0.0161041 -0.0404325 1.43712e-18)
(-0.00621164 0.053503 3.40012e-18)
(-0.0873731 0.0559592 1.43684e-17)
(0.0458136 -0.0200906 -4.22411e-18)
(-0.0861645 0.0257588 -6.41194e-17)
(0.00848572 -0.00228866 -2.91439e-19)
(0.00102633 -0.00250555 -4.14587e-18)
(0.0730078 0.040405 1.06482e-17)
(-0.00312451 0.000468408 -7.03997e-19)
(-0.00341816 0.009109 -8.5683e-19)
(0.00125846 -0.00227657 4.59457e-19)
(0.0142453 -0.11183 -2.07864e-17)
(0.0079443 -0.00881035 -2.08792e-17)
(0.0201847 -0.0394615 -2.55067e-18)
(-0.00358905 -0.00137908 2.28581e-18)
(0.0495875 0.00972794 -7.60562e-18)
(-0.000559173 -0.00596691 8.47068e-18)
(-0.00457138 0.000176678 -1.53303e-19)
(0.0310722 0.00734384 2.23114e-18)
(0.000174013 0.00243805 -8.34396e-18)
(0.00966627 -0.0274281 1.72387e-18)
(0.00195368 0.00209761 -2.0563e-18)
(0.000414052 -0.000158594 8.56214e-18)
(-0.329069 -0.0194459 -1.99347e-18)
(0.0247755 0.00414909 4.99148e-19)
(0.0222598 0.00332583 1.64361e-18)
(-0.0549199 0.0187711 3.59717e-17)
(-0.0199121 0.0492507 -1.53966e-17)
(0.00192497 -0.00122946 -8.72208e-19)
(-0.105648 0.0766168 2.24791e-17)
(-0.110116 -0.0207987 1.60553e-17)
(-0.00124495 0.000367719 -3.8418e-19)
(0.0219886 0.00367534 -6.14301e-18)
(0.000332112 0.00249757 7.78638e-18)
(0.000405972 -0.00210485 -1.37067e-18)
(0.189884 -0.0474058 -1.18417e-18)
(0.0218658 0.00877383 -1.05623e-18)
(-0.00299791 7.38647e-05 4.2726e-18)
(0.0196174 0.0278815 1.70533e-17)
(0.00930719 -0.000700485 -1.25042e-18)
(-0.086751 -0.013051 -1.0012e-17)
(0.00131889 -0.00165964 -3.74746e-19)
(0.022107 -0.0193537 6.70826e-19)
(0.0652531 0.0312597 -3.84752e-17)
(-0.065794 -0.0404327 1.18287e-17)
(0.043068 -0.0119163 2.04278e-17)
(0.000274251 -4.38138e-05 -6.67525e-18)
(0.000926643 -0.0011093 4.81197e-18)
(-0.00261293 3.20669e-05 -5.4396e-18)
(-0.0107857 0.00581767 1.00387e-18)
(-8.23999e-06 0.000510103 6.11673e-19)
(0.0177974 -0.0201203 2.27092e-18)
(0.00624619 -0.029644 3.70705e-18)
(-0.00963696 -0.00145431 1.55791e-17)
(-0.0202604 -0.0150381 -1.53729e-19)
(0.00378226 0.00698143 -3.81183e-18)
(0.0130468 -0.0199172 1.478e-19)
(-0.0997147 0.0920753 -1.25899e-16)
(-0.0106997 -0.036061 -8.9462e-18)
(0.00509343 -0.0209214 -1.06916e-17)
(0.0109434 -0.0203366 -5.77639e-19)
(0.0185196 -0.0198288 -1.14406e-18)
(0.00745969 0.0314812 -2.41672e-17)
(0.0744689 0.011032 -3.28772e-19)
(0.00124695 -0.00839704 -3.11518e-19)
(0.00502007 -0.0226336 -3.32592e-18)
(0.00017209 -0.0291615 3.43692e-18)
(-0.00253628 -0.0110104 1.05999e-18)
(0.023921 -0.0100198 1.90127e-19)
(-0.00313582 9.93377e-05 -7.31239e-19)
(0.0319806 0.125225 3.24461e-18)
(0.00294287 0.00400397 -3.58828e-18)
(-0.000133431 0.000930181 1.733e-18)
(-0.00986747 0.00556393 2.32313e-19)
(0.00320813 0.00381208 -3.92018e-19)
(-0.0920409 -0.0173422 1.05536e-17)
(0.0150123 -0.191218 7.73428e-18)
(0.00216506 0.00108058 -1.52671e-18)
(-0.00206349 0.000231053 -9.27321e-19)
(0.0132195 -0.0134208 1.37043e-17)
(-0.0677236 0.0199338 4.16369e-17)
(0.00013347 1.21701e-05 -3.29907e-18)
(0.0659385 -0.00799509 8.15108e-18)
(5.82917e-06 0.0016016 2.48622e-20)
(-0.0649251 0.0625213 -1.13501e-17)
(0.00246598 0.00105486 -5.7098e-18)
(-0.322781 0.0368057 -1.80639e-17)
(0.0102138 -0.0612358 2.51506e-17)
(-0.00364225 0.00734089 8.1431e-19)
(0.00213264 0.00315085 3.59089e-18)
(0.0406727 -0.0231403 -2.81829e-18)
(-0.0598884 0.087153 -5.15415e-17)
(0.304872 -0.0727063 3.91079e-17)
(-0.000138485 1.25468e-05 2.15159e-18)
(-0.375317 -0.00631239 6.61249e-18)
(-0.00245449 -0.0329343 -7.81609e-17)
(-0.0628287 0.0832729 8.58424e-18)
(8.57424e-05 0.00101024 6.32616e-19)
(0.0744024 0.0589608 -6.17994e-18)
(-0.167422 0.175506 2.33766e-17)
(0.00760332 -0.00355407 -2.81163e-19)
(0.00125133 -0.000147284 -6.43802e-19)
(0.000807323 0.00107794 2.38018e-18)
(-0.0106793 -0.0216045 -5.14641e-18)
(0.148841 -0.0178515 -1.89544e-17)
(-0.00351369 7.64276e-05 -3.64661e-18)
(0.00129874 -0.000357518 -3.93093e-18)
(0.000335001 -0.000217305 -2.78927e-18)
(0.000206221 -0.000216898 3.10491e-18)
(-0.258871 0.0380564 -8.30913e-19)
(0.190289 -0.0301464 -1.66549e-17)
(0.00816252 -0.00302462 1.83845e-19)
(-0.0672937 0.0973473 -5.37818e-17)
(-0.000133715 -4.67805e-05 -1.69752e-18)
(0.000213435 0.000254036 5.27196e-18)
(0.0468377 0.00745772 6.69836e-18)
(-0.241649 0.139884 6.93475e-19)
(0.00580332 0.0126931 -6.65188e-18)
(0.0022229 0.00233735 -2.05076e-19)
(0.000951816 -0.00303031 -3.07799e-18)
(0.000299645 -0.00381762 6.88297e-18)
(-0.0631432 0.0836332 1.2086e-16)
(0.0416484 0.0466453 6.74507e-17)
(0.000796842 -0.000461901 -1.89849e-18)
(0.000784931 -0.00376733 6.48493e-18)
(0.00943293 -0.0269305 -6.85525e-19)
(0.00195034 -0.00782207 6.01085e-19)
(0.0045544 0.000694193 -2.98715e-19)
(0.000811912 -0.00141602 5.45547e-19)
(0.000957255 0.00329458 -4.8747e-19)
(-0.00312845 0.0053258 9.72734e-19)
(0.0223906 -0.0101468 3.96777e-19)
(-0.0187211 -0.0331524 -7.57683e-18)
(-0.0831 0.0922111 -7.96378e-17)
(0.0791747 0.0359411 6.88498e-18)
(0.0382719 -0.00602474 -1.99445e-18)
(0.169121 -0.0806666 5.85538e-19)
(-0.0177305 0.0406363 -2.29673e-18)
(0.00143152 -0.00184888 1.41159e-18)
(-0.361802 -0.0210279 -5.23356e-17)
(0.000239997 -0.00380471 -4.36372e-18)
(-0.00219254 0.000708042 1.6365e-17)
(0.00174347 0.000740858 1.32676e-18)
(0.0738411 0.0952528 -2.96707e-17)
(-0.0213169 -0.0155652 -6.87213e-18)
(-0.0011351 3.04542e-05 6.85708e-18)
(-0.0823769 -0.0430091 -1.31478e-17)
(0.000740838 0.067116 2.22562e-17)
(0.0317908 0.0420047 1.40102e-17)
(0.0396009 -0.00438971 1.0631e-18)
(-0.00691376 -0.0107775 4.25797e-17)
(0.0106253 -0.000973717 2.49058e-18)
(0.000512782 -0.000760402 4.79851e-18)
(-0.180815 0.196299 -4.71759e-17)
(-0.0808304 -0.0373156 1.48425e-17)
(-0.00736078 -0.0102524 1.5498e-17)
(0.00159069 0.00195965 6.79048e-18)
(0.00817946 0.00936763 3.59801e-18)
(-0.0706906 0.100087 1.4137e-17)
(-0.0656201 -0.0354043 -5.42405e-17)
(-0.180086 -0.00261201 -1.00281e-19)
(0.0249867 -0.000220941 3.33853e-18)
(-0.0583831 0.0204589 -5.34855e-18)
(-0.00360889 -0.000616267 -4.26002e-18)
(0.00259061 0.00583246 -1.97659e-19)
(0.000409709 -0.0014567 -1.06972e-17)
(-0.0122359 -0.0159223 -1.91301e-17)
(-0.0050874 -0.0227374 8.28983e-17)
(0.000569169 -0.00456241 1.53987e-18)
(0.0178924 -0.0012485 -1.23118e-18)
(-0.00276646 -0.0243714 7.64347e-17)
(-0.00562869 -0.0116708 -1.41519e-17)
(0.295575 -0.0680014 -6.06714e-17)
(-0.00137619 0.00380176 7.41033e-19)
(0.0117962 -0.0193459 2.47689e-18)
(0.013656 -0.0583023 -3.4346e-17)
(-0.0064112 0.000464126 2.03286e-18)
(-0.000669473 -0.00402474 2.69863e-17)
(-0.000828269 -0.0371697 2.32399e-17)
(0.0188364 -0.06034 -4.78473e-19)
(-0.00566368 -0.0890306 -4.92362e-17)
(-0.0477942 0.107445 7.7589e-18)
(-0.00113773 0.000414146 4.72646e-19)
(0.040113 0.00433281 6.29438e-18)
(-0.0107496 -0.0208105 3.02014e-18)
(-0.00112661 1.15203e-05 1.57904e-18)
(0.00350012 0.0129014 -7.93018e-18)
(0.0134639 -0.0131676 4.84926e-18)
(-0.00366223 -0.0118058 -7.81875e-18)
(0.00168063 0.0545702 1.98621e-17)
(0.0112281 -0.0242756 2.00434e-17)
(0.0692087 0.00666567 1.65262e-17)
(-3.05041e-05 -0.00655702 -1.39401e-18)
(-0.18187 0.201589 1.69188e-17)
(0.00209466 0.00433967 1.28687e-19)
(-0.119218 -0.0171215 -9.03124e-18)
(0.000370163 -8.56845e-05 2.79239e-18)
(0.000864946 -0.000573367 1.92002e-18)
(-0.0101147 -0.0364686 -4.79578e-18)
(0.021327 -0.080861 -8.71e-19)
(-0.000305672 -0.0308281 3.00162e-17)
(0.00230116 0.00426193 5.22502e-20)
(0.000638241 0.00180889 -6.21422e-18)
(0.000807309 -0.00373532 4.48273e-18)
(-0.00918104 -0.00917779 8.62186e-19)
(-0.000706899 -0.0352886 2.30652e-17)
(-0.00108591 -0.0262857 -1.81817e-20)
(0.00244826 0.00611297 -1.27156e-19)
(0.00478652 -0.0205898 -6.67743e-20)
(0.0197685 -0.000966939 6.65544e-19)
(0.00224982 0.0010508 -5.67422e-18)
(-0.0271623 -0.0339297 -1.16727e-17)
(-0.00213201 -0.0265006 3.74085e-19)
(0.00604019 -0.0360604 1.60792e-18)
(0.00159711 -0.0013356 -1.75445e-19)
(0.0637879 0.000239965 -7.56121e-21)
(0.00302305 0.00386277 -6.09255e-19)
(0.0755242 0.0880115 -1.87346e-17)
(-0.0248896 0.0265054 -1.29683e-17)
(-0.0221855 -0.014378 6.76314e-18)
(0.00583933 0.00970039 -7.48081e-18)
(-0.0001308 -8.68729e-05 2.76376e-18)
(0.000415614 0.00129877 2.70417e-18)
(0.00304375 0.00274862 1.19138e-18)
(-0.0202856 -0.022441 1.23214e-17)
(-0.00078735 -0.00829278 -1.60974e-17)
(0.016951 0.132702 -1.05014e-17)
(0.00346149 -0.0449977 1.84449e-17)
(0.0164115 -0.00450499 8.50601e-19)
(0.000110404 -3.75365e-05 3.03871e-19)
(0.0759133 0.018405 -1.39888e-17)
(-0.00201941 -0.0325651 -3.66364e-17)
(0.00786257 -0.0195497 5.20016e-19)
(-6.86866e-05 0.00130048 -1.7588e-19)
(-0.000872433 -0.00758689 1.33424e-17)
(0.00118682 -0.0004759 5.49944e-18)
(-0.0043163 -0.00251437 -1.41463e-18)
(0.00335848 0.00678627 -1.61314e-18)
(-0.169988 0.175488 -1.1486e-18)
(0.000624463 -0.000161455 -3.87166e-18)
(0.0798488 0.0336919 -1.14158e-17)
(-0.00179643 -0.0022045 8.34756e-19)
(0.00501962 -0.020987 3.01204e-18)
(-0.029164 0.0378377 -2.31043e-17)
(-0.354629 0.0246274 -9.02549e-18)
(-0.0245872 -0.013293 1.23982e-18)
(0.00112685 0.00100061 -1.54199e-18)
(-0.0895997 -0.0314978 2.70924e-18)
(-0.261413 0.00758264 -7.61664e-18)
(0.00135461 0.000134272 -1.23792e-18)
(0.000821486 0.000704204 -1.37095e-18)
(0.0198563 -0.0717325 -3.29567e-17)
(-0.0290732 0.0991307 7.62268e-18)
(0.035559 -0.0149792 6.96378e-19)
(0.000350673 1.15793e-05 -4.17066e-18)
(0.00233828 0.00324874 4.83225e-18)
(-0.0673729 -0.0265054 -4.02951e-18)
(-0.00406123 6.68826e-05 1.33974e-18)
(0.0332623 0.0106534 -6.609e-18)
(0.00485185 -0.0138016 1.12037e-18)
(0.000204858 0.00128686 -1.36007e-18)
(0.00968576 -0.00909691 6.59737e-19)
(-0.00340242 -0.0119778 2.12533e-17)
(-0.000671554 0.00114441 7.43272e-19)
(-0.00227346 0.00118122 -1.51382e-18)
(0.000460067 -0.000254899 -6.36755e-18)
(0.0369787 0.00782163 -2.69023e-17)
(7.27136e-05 -2.59969e-05 2.22462e-18)
(-0.00337626 -0.00121771 -1.60249e-17)
(0.0763466 0.00576971 5.87823e-17)
(-0.0015561 -0.000154092 -1.07991e-18)
(0.0698872 -0.129047 -3.37745e-18)
(0.00176878 0.00907115 2.31568e-18)
(-0.00376286 -0.0127344 2.32588e-17)
(0.000357889 -0.000253115 7.38406e-19)
(-0.0192881 -0.0049722 5.62881e-18)
(0.00137028 -0.00210755 -2.38089e-18)
(0.00584749 0.0319369 -1.15204e-17)
(-0.000215455 -8.08975e-05 -2.73551e-18)
(-0.0341219 -0.00754379 3.62494e-18)
(-3.28415e-05 0.00170001 5.10033e-19)
(0.0914331 0.0348143 1.78513e-17)
(-0.00543288 -0.0398499 1.1035e-17)
(-0.241504 0.156872 -7.2652e-18)
(-0.00214233 3.13785e-05 1.70125e-18)
(0.000538015 -0.000426577 8.81203e-19)
(-0.0153862 0.0383502 -1.69143e-17)
(-0.00989409 0.0229747 4.94796e-18)
(0.00650999 -0.000701631 -4.37525e-18)
(-0.108244 -0.117694 -1.05099e-18)
(0.0193919 0.0127626 1.90532e-18)
(0.00104806 -0.00329047 -3.01923e-19)
(0.126303 0.0932783 -2.60518e-17)
(-0.000791812 -0.0295549 -1.80998e-17)
(0.00559097 -0.0336368 -2.20599e-18)
(0.053676 0.124985 -1.14276e-16)
(0.0191314 0.00533844 1.18589e-17)
(0.0125109 -0.032213 -1.39003e-17)
(-0.0121094 0.0118695 -2.40702e-18)
(-0.00928935 -0.00778634 -1.55045e-18)
(0.059677 0.0486381 -1.3915e-17)
(-0.015327 -0.0288047 1.79556e-17)
(0.0167836 0.0133108 2.06974e-19)
(-0.00242359 -0.0323782 1.54293e-16)
(0.0161934 0.0157957 -8.66284e-18)
(0.000653248 0.000786881 -1.46727e-18)
(0.012161 -0.0138497 -3.12863e-18)
(-0.00558125 0.000898818 2.17868e-18)
(-2.3652e-05 0.00122289 3.55826e-18)
(-0.00463715 -0.00226418 1.30234e-18)
(-0.0107617 0.0189991 7.39151e-19)
(-0.00357468 0.00642715 -5.64795e-19)
(0.00126577 -0.00238049 -5.04387e-18)
(-0.00023572 -3.89053e-05 -2.71742e-19)
(0.0184618 -0.00302842 -5.05756e-19)
(0.00120513 0.00234838 7.65349e-19)
(0.0337621 0.0116926 8.82826e-18)
(0.00081253 -0.00325213 -3.08494e-18)
(0.00092734 -0.00331105 5.52869e-18)
(2.77002e-05 -2.44882e-05 -2.564e-18)
(-0.000602254 0.00282859 -6.35053e-19)
(-0.00120643 0.000352305 -2.15349e-18)
(-0.00140425 0.00595308 -1.99807e-19)
(0.000607795 -0.000304797 2.8009e-18)
(-0.310045 0.0337567 8.28382e-18)
(-0.00423161 -0.0165578 2.47822e-18)
(0.00683149 -0.0293033 -2.38945e-18)
(0.000117937 0.000429592 4.40592e-18)
(0.00027445 7.86747e-06 3.23958e-18)
(-0.00625819 -0.016535 2.01895e-17)
(0.010915 0.0324187 2.15848e-17)
(0.000520951 -0.00486088 1.554e-17)
(-0.0775808 0.0991147 -6.5528e-17)
(-0.0373379 0.0130668 5.8272e-18)
(-0.0116031 0.0557719 -6.95682e-17)
(-0.0037607 -0.00237152 -8.53498e-19)
(0.0576914 0.0102314 1.53585e-17)
(0.00105427 0.00273036 8.82729e-19)
(1.69382e-05 6.69512e-07 8.11482e-18)
(0.00019099 -0.000183205 -1.00186e-18)
(0.00121247 0.00383635 -2.77231e-18)
(0.135527 0.00991252 7.69403e-17)
(-1.90567e-05 1.47841e-05 6.25069e-19)
(0.172637 -0.108549 -3.04579e-18)
(-0.000497286 0.00628971 -4.1585e-19)
(-0.0298495 -0.0272766 1.76639e-17)
(-0.0157299 -0.0108206 2.70098e-17)
(-0.0391093 0.015082 -1.58001e-17)
(0.00634613 -0.0209506 -2.63152e-18)
(-0.000188793 0.00103471 3.64226e-19)
(-0.000110435 1.58626e-06 -1.62968e-18)
(-0.00241948 -0.0168802 -3.33628e-18)
(0.000491868 -0.0038429 7.97494e-18)
(-0.00086743 -0.00173119 -8.98351e-19)
(-0.103967 0.123641 -6.35324e-17)
(1.151e-06 0.00179517 -1.55999e-18)
(0.000736944 -0.00119722 1.2539e-18)
(0.00267291 0.00946153 -2.34172e-19)
(0.000697576 -0.000566873 2.88178e-18)
(-0.00186824 0.000187802 -1.22588e-18)
(-0.0029035 0.00729594 -9.77607e-19)
(0.00189929 -0.00854502 3.29453e-17)
(0.0232099 0.00452913 -7.26775e-18)
(-0.00725866 0.0116818 3.98346e-19)
(-0.000667903 0.00110761 1.87504e-18)
(-0.000853839 -2.16676e-05 1.56206e-19)
(-0.0620652 -0.0417368 -4.24413e-17)
(-0.0185385 -0.0229963 -3.01192e-17)
(0.00074562 3.79264e-05 5.94484e-18)
(0.0021072 0.00205545 -4.36236e-18)
(-0.0877482 0.107732 7.70997e-17)
(0.0163664 -0.0650434 -1.96755e-17)
(0.0370816 0.00486757 -2.08769e-17)
(-0.00754989 -0.0106439 4.65512e-17)
(0.000363594 0.000753969 -8.44945e-19)
(-0.000854607 0.000269531 1.44407e-18)
(-0.00175005 0.000218132 -1.28215e-18)
(-0.00201661 -0.0112953 -9.05256e-19)
(-0.00782771 0.0125972 1.08931e-18)
(0.00624776 -0.0258243 -4.63504e-18)