/*--------------------------------*- C++ -*----------------------------------*\
| =========                 |                                                 |
| \\      /  F ield         | OpenFOAM: The Open Source CFD Toolbox           |
|  \\    /   O peration     | Version:  v2012                                 |
|   \\  /    A nd           | Website:  www.openfoam.com                      |
|    \\/     M anipulation  |                                                 |
\*---------------------------------------------------------------------------*/
FoamFile
{
    version     2.0;
    format      ascii;
    class       volScalarField;
    location    "100";
    object      omega_0;
}
// * * * * * * * * * * * * * * * * * * * * * * * * * * * * * * * * * * * * * //

dimensions      [0 0 -1 0 0 0 0];


internalField   nonuniform List<scalar> 
13917
(
0.050413
0.02276
3.37936
0.0278415
0.0221277
0.446331
3.24858
3.39997
3.14452
0.090225
1.74328
0.118773
0.0280566
19.7392
0.028196
0.0270445
0.0229164
0.0822918
0.11772
0.0221219
0.0222698
3.20328
0.022113
3.49503
0.0220785
3.2396
0.0423828
0.0564567
0.947958
0.162114
0.0552812
0.0332681
0.0374311
0.0259108
0.022087
4.279
0.0221201
3.43985
0.0329975
7.72467
0.0219802
0.0222867
0.0216569
0.0883997
0.0228313
0.0278716
0.0800795
0.120583
2.7842
0.0220285
0.0349491
0.0225003
3.10597
0.0264526
0.0229357
0.0337276
1.54099
0.0222129
0.0293291
0.0227021
5.54258
0.0227782
26.002
0.0221115
0.410682
19.42
0.0221168
0.0220745
1.70657
0.0440592
0.0221349
3.22655
3.80661
0.0220791
2.88446
0.143655
5.65145
0.0245495
3.22203
0.0222421
0.0222111
0.0221235
0.396883
3.23479
3.02841
0.0243328
0.0221881
20.5651
0.0342658
0.0216548
3.46927
0.128489
0.0221667
0.0237207
20.9674
0.391108
0.272369
0.105827
0.277265
0.114253
0.021864
0.0328215
0.0874167
0.0257278
0.0219051
3.26146
0.597681
0.128849
0.0229504
0.0591634
3.2774
6.19136
0.163724
3.19134
0.0231958
3.40155
0.0220584
1.51391
5.32061
0.0264536
0.022276
1.17155
5.33665
0.0531843
0.0220114
0.0234425
0.0226563
0.0220208
0.0216523
0.430041
3.34675
0.0230942
0.0228742
0.0222767
6.18224
3.53231
0.0508707
0.120599
0.0221112
0.0263257
4.31951
0.0219781
0.0228463
0.114094
0.0220759
3.62183
1.01623
0.0224428
0.0219146
0.0338794
0.093438
3.14996
0.166968
0.048667
0.0330023
3.88157
0.0416176
4.53622
8.38024
6.27451
0.024993
0.0424788
0.0222416
0.26689
0.159414
0.217562
0.0256267
0.0995014
0.0223643
0.0338727
0.0497547
5.94003
0.179389
0.0234512
3.91468
0.0537946
3.2165
1.97308
3.73635
0.0221186
0.139186
0.058082
0.0219769
0.0221803
0.0322977
3.33145
0.998645
4.51174
0.052077
0.260283
4.51332
3.10581
0.742058
0.0221237
0.118114
0.0413183
0.0231163
0.0221818
0.307815
17.9117
0.0342173
0.0220421
0.0914315
0.0932179
4.39777
5.69854
0.0220862
0.0222403
0.103161
3.38431
0.0227309
3.22715
6.58161
0.260408
0.0219062
0.658054
0.0888372
5.52468
0.0220448
6.4668
0.0220991
0.147793
0.0219471
3.37247
3.2378
0.0276178
5.48485
0.0337591
0.0219076
4.26249
0.176163
0.0514576
3.53391
9.20662
0.021814
0.0342474
3.23898
3.12311
0.0222346
0.0219841
5.45134
0.261691
0.0222668
4.18716
0.171455
0.0402308
0.04679
0.0222342
0.0523154
7.31344
0.0228123
0.185041
0.1507
0.0226171
0.0221866
0.126052
3.98181
0.157207
0.0327264
0.0284526
0.0222714
7.37471
3.9376
4.04618
0.0219107
4.02763
8.36042
4.44417
3.17808
0.156363
0.0222218
0.0219585
0.0814233
3.87906
0.253752
0.0287533
5.60015
0.0725446
0.0216384
5.8538
0.0220985
3.80304
0.0330237
0.022262
0.0303924
0.0482842
0.0429701
4.2033
0.036593
0.0229858
7.35064
3.56181
3.67543
0.0220436
4.42619
0.0221808
0.02298
0.0220621
1.47251
0.022108
0.164232
0.0450196
0.0223238
0.0922563
0.0247642
2.20856
0.0522894
0.118249
0.0221465
0.0221679
3.41921
5.61865
0.0220558
0.0219552
6.17933
0.0221208
3.54212
0.0221104
3.24082
0.0243572
0.92269
0.0499304
2.95698
0.0246358
6.58859
0.345646
0.0304252
0.277547
0.741173
0.0226756
3.43865
0.11828
7.45194
0.0253435
7.81642
0.0356183
2.92735
0.29754
0.141557
0.131621
3.28897
0.0222249
0.0520874
3.0824
0.0223824
0.0247827
7.88183
0.388187
0.02341
4.53454
0.862314
0.0218955
8.15286
4.37123
0.0220931
0.0219597
0.0221874
0.0219108
7.30614
3.81553
0.626776
3.15417
0.0220716
0.215639
5.22841
0.0671556
3.19134
3.47178
3.17844
0.0218214
4.0318
0.0219438
7.18185
0.0226912
3.70075
0.173614
0.0306442
0.0222085
0.0973842
0.155398
0.121993
6.55705
2.96745
8.58639
0.054848
0.0830181
0.0219885
3.09046
3.185
0.0222942
6.8402
0.0220868
6.50968
0.0243352
0.0222337
0.0247478
3.20509
0.0246724
3.53335
3.63853
0.325221
0.462254
0.0226665
0.509879
0.427246
0.0220668
0.433819
0.0223689
0.022085
0.162513
0.0222616
0.0220826
0.0219396
7.2252
0.0222524
6.21072
3.43427
4.27616
0.7344
3.28014
5.66449
0.0662632
0.0220726
0.397078
0.0324216
0.0361485
0.0221187
3.66101
3.28923
3.54064
0.0268643
0.207378
0.0249541
0.0341896
0.121088
0.0241312
3.98925
0.022953
0.0220999
3.27281
3.26596
3.17487
0.19744
5.66176
3.23384
3.06054
6.11995
0.0216809
0.0919373
0.0242476
0.0222855
5.93139
0.0832373
0.0221753
0.092838
0.0623076
6.72511
0.0220642
0.264244
7.4944
2.56035
4.81
0.0222594
0.0222943
0.0230649
0.0418453
0.0218224
3.43618
0.477915
0.0364676
3.21661
0.0335761
0.266869
2.95284
1.05417
0.291373
4.33238
0.263891
0.089389
0.401066
0.070753
1.86579
0.595514
0.0826004
0.149697
0.0220611
6.16327
0.0364973
0.0219656
0.0397068
0.0248632
5.80965
3.23434
0.0220904
0.0216668
3.49738
7.98991
0.0222617
6.60251
0.0253288
0.469179
0.0221146
4.64838
4.90353
0.0338328
0.0232496
3.15053
0.628221
5.60297
0.0222696
6.40605
2.26824
6.21705
0.0219828
3.04559
3.15432
0.0679262
0.0219559
0.0228406
0.143527
6.38658
0.0220693
0.0219599
0.0219743
0.02197
4.68935
6.05203
0.0668441
0.783765
0.0220383
0.0218686
0.204113
2.93575
0.045374
0.0224143
0.0220814
0.0220862
5.86751
3.21225
0.0221812
0.0220915
3.99561
0.0700139
0.0498957
0.0222772
0.0248255
0.0312403
0.145615
0.594891
1.00018
0.454299
0.186977
5.57844
0.113513
0.0220482
6.02379
0.0220876
0.0252437
0.029283
6.13512
0.0959703
0.0218747
2.03004
0.191069
10.9983
0.189312
0.0386852
0.065556
0.0222002
3.46459
1.23909
3.07519
0.0227737
0.0391773
1.11152
3.35579
21.8233
0.112794
0.237709
0.026922
0.0270947
0.0222742
0.0608422
0.0956298
0.0222349
0.08774
0.142787
3.08964
5.00706
0.0262827
0.265234
4.97871
0.0318718
0.0226388
3.30477
3.68117
3.48039
0.797217
0.02167
6.58799
0.142435
0.0219376
0.0409274
0.137357
0.0359075
0.159763
3.20823
0.375638
0.0616678
3.46702
0.0254813
8.16039
0.0222428
0.0221752
4.34894
3.59062
0.665549
0.0254671
0.0233965
0.022095
0.0733375
3.23349
0.254545
0.0275569
0.26094
0.0956842
0.0221261
5.22422
0.253678
3.85944
0.0220401
0.363194
0.0247778
5.12362
0.0922621
0.0927559
0.0400657
0.0219085
0.0219212
0.0227583
0.147784
0.0282307
3.94165
6.35241
0.0978902
0.0219027
0.355086
0.748496
4.33839
0.022728
0.0278455
0.0219653
0.0418966
0.0296952
3.10864
0.0222355
16.7063
0.0410789
1.73076
0.12975
3.79795
0.099309
0.0227448
4.19974
18.2641
0.022313
0.0290913
5.03027
0.571641
0.254394
0.0222376
0.0233452
0.648238
0.0310201
0.119366
0.116899
0.021938
0.0936865
3.39938
0.0227245
0.0260807
0.0219924
6.47885
0.0222687
0.0263961
5.28384
0.0244353
3.73897
0.0330835
0.0380892
0.0219864
0.0607321
0.0220667
0.0855986
0.0219119
0.116115
0.0253159
17.5612
2.98925
2.93203
0.022833
0.0222147
0.106646
0.0648723
5.59045
3.02021
0.0804376
0.0220857
7.0451
0.766668
3.85958
1.58351
0.0790167
3.25932
0.0487923
0.068548
0.31385
0.230891
0.0790949
1.14286
0.0771037
0.0275382
0.149074
0.0306633
0.0221749
0.0413125
0.0588887
0.0327783
0.0220748
0.0219716
0.0971875
0.0264665
0.121414
0.0220859
0.022093
0.0222758
0.0245583
0.0216548
0.0297626
0.0220112
4.83959
0.117817
0.318483
0.0218408
0.0222501
0.0517278
0.0913366
0.022871
5.14807
0.113202
8.21838
0.0413545
0.252348
0.0239779
0.0222715
0.0219541
0.0247766
6.65315
0.0222573
5.2459
0.0303491
4.64978
0.0580365
0.116029
1.46916
0.0217843
0.022291
0.118799
0.0220856
0.0228045
5.56799
0.0236472
0.0221889
0.035246
0.0219742
0.0217394
0.033289
0.0283553
7.66062
0.0430822
0.0227221
0.0219404
3.16908
0.153286
0.0225983
0.0227881
5.50329
5.0049
7.77366
0.0390309
0.0275564
0.0218256
0.0217156
0.0837319
0.0449038
4.65501
0.0256573
3.70097
0.0230763
0.0245536
8.3658
0.0220908
0.0369716
0.0222013
0.0220851
0.0561094
0.0433567
0.0238616
3.61818
4.71163
0.135281
0.0220485
0.0217556
0.259751
5.3685
0.0222613
5.58913
0.021742
0.0556152
0.0223372
0.0222627
6.27815
0.0227118
3.89983
0.0529314
0.0222755
0.0216929
0.0221211
0.0220276
0.0258132
3.87659
0.0225638
0.0221026
3.07685
3.45519
0.0644268
0.0618318
0.113788
0.0304094
0.0219986
0.0288621
4.78396
0.12423
0.0221499
0.0231246
3.05466
0.0535724
2.96498
0.0222694
0.0229982
8.04969
0.0493326
0.024097
6.61274
1.63255
0.0220197
0.269907
0.0219522
0.0226235
0.0218325
3.62339
0.0216408
0.0229254
0.0219982
3.88044
0.0310148
0.464084
0.0634125
0.0222846
0.0337555
0.0221801
3.08777
0.022002
0.0226297
0.022191
0.261353
0.0221834
0.388912
5.53954
3.59885
0.0273156
4.39343
4.445
0.0221696
8.43072
4.95409
3.89228
3.3094
3.05752
35.6726
0.320353
0.0228995
3.17599
0.0489416
3.14249
0.0219472
0.0221641
0.0226019
0.0221739
0.0325251
0.0327707
5.04415
0.0221464
0.0220986
5.10256
0.42425
0.022117
0.0380071
0.0387268
0.0232507
2.84176
0.0379558
0.0245788
0.0307912
6.32503
7.06764
1.30538
0.0222752
0.630415
0.190443
3.52452
3.16575
0.175597
0.0221211
0.0241135
0.0230781
0.0215488
0.0247712
0.0216686
0.0314555
0.0472298
3.25761
0.292632
0.0229488
0.245619
3.02742
0.0532146
0.0225047
7.19503
0.0222665
0.0226854
0.0390699
3.58107
0.0221809
0.0220442
3.20267
4.41736
4.96221
0.215858
4.29198
0.0220228
0.466464
0.0225722
0.0220328
0.0225505
3.35996
5.60316
0.0221286
0.0216946
0.0222481
4.9397
0.0243015
0.0397803
0.0220832
0.0231551
0.409347
0.0223406
0.0886501
0.526101
3.14901
0.0225231
0.1109
0.0265042
4.01793
3.09378
0.0220802
3.52277
0.12324
1.4567
0.0221811
3.16631
0.0222479
0.033193
0.0538436
0.214641
3.42636
3.93143
2.70422
3.6162
0.0218928
5.92304
0.0222529
0.0307197
3.18148
0.0223126
0.0222553
0.0241845
0.023113
3.15876
0.0217591
0.0221054
0.0942309
0.0643863
0.0811187
0.610452
0.248263
6.41077
0.118438
0.0517681
0.0672106
4.64334
0.0662007
9.97426
3.19914
0.0320676
0.0223787
3.21004
3.9031
0.0224484
0.210861
0.0464515
0.0239773
0.0335199
0.0232465
0.0537432
0.0222922
0.0772299
0.118618
0.0219475
0.0904544
0.022223
0.0734797
0.0219089
0.0265924
0.0940536
0.0268412
0.0231231
0.022138
2.13303
0.116662
3.80896
0.0220861
0.0227056
0.0995214
0.0221952
0.15736
0.118308
0.0239782
0.176861
0.0221829
6.29486
0.0224205
0.0609694
6.45086
5.80644
0.0220314
0.0251274
7.81524
0.0220351
0.0219762
3.2759
3.32099
0.0247087
1.70981
0.0221126
0.023126
3.39554
0.0245808
0.0217958
5.14222
0.0222765
4.70049
0.0222057
0.0217907
0.0225769
0.241268
3.70256
0.0223023
0.0226464
0.0220205
0.0280359
0.0220823
1.0663
0.08846
0.0222691
3.73916
0.0578366
5.92666
3.14713
3.4216
0.0220884
0.0224615
0.0223097
0.974925
0.0282693
3.74264
4.89971
0.0246023
3.15221
2.39387
0.0787551
0.701118
0.0881411
0.407366
3.46722
0.0761068
10.7029
3.13266
0.116023
0.0272039
4.51924
0.0576913
0.0219722
0.0261102
8.31878
0.0452031
0.0220824
0.0633323
0.170929
0.0479543
4.45713
0.0255149
3.85938
0.0669289
3.75826
0.256082
0.682517
0.0375617
0.0221405
0.0234506
3.48035
0.0220465
0.0248932
0.0219249
0.0248425
0.0221892
0.0387332
1.43394
1.81459
0.0494135
0.0577701
3.5981
0.524758
0.0222136
4.9227
3.44053
0.0218816
0.0219706
0.0411076
5.61523
0.0222575
0.113676
0.951576
0.0602181
0.0221569
0.0263144
0.0223432
0.212083
0.0464644
0.0220033
28.9983
3.24162
0.0499417
5.5263
0.118252
16.8647
0.0243494
0.0310452
3.70609
5.32978
0.176538
1.8635
0.0342306
0.0222782
0.0226952
0.022776
0.0221025
0.0228992
0.0645747
0.0220374
0.257789
0.0219724
0.0363846
0.0221919
0.115232
0.261205
7.26825
0.0221413
0.670547
0.0226881
3.78075
0.0220847
0.0259289
0.0221446
4.71477
4.22662
0.514652
0.0220374
0.298153
0.0223287
0.0362089
3.43668
0.0225258
0.0225697
0.0614792
0.0408856
3.17065
0.0220391
0.0328479
0.026493
0.0220802
0.0340046
0.0232147
0.0217934
0.0243117
6.50904
0.027551
4.62194
3.54652
0.0788291
3.48675
0.027018
0.0217996
0.0342844
8.17446
0.0270012
0.0425838
0.0683023
18.5533
0.0220102
5.16736
0.0957783
0.116553
0.0218684
0.0217042
1.97156
0.0226567
0.0222872
0.0344668
0.0219407
0.0251711
0.0352937
0.129154
0.274817
3.26413
0.0323235
0.137758
3.93651
8.76303
0.0609898
0.332615
5.4325
0.0581177
8.66622
0.0239281
27.8045
5.02065
0.0219903
0.0222622
0.0219932
0.0246898
0.0600757
0.0222273
0.0242443
0.175333
0.0257169
0.0389792
3.74612
0.0315895
0.0283483
3.13042
0.0240938
6.468
0.0295853
0.0609729
0.0220012
6.60293
5.17392
0.0223342
0.0249876
3.28216
0.030756
5.47195
0.0220331
0.0222856
3.10671
0.0247965
0.0479002
5.55058
0.0220949
0.0819457
0.0357613
0.0217045
0.0219366
3.21145
4.68251
0.0229548
0.0266718
0.0222456
0.0307703
0.036202
6.54286
0.023164
2.50359
4.4286
3.81337
5.23823
0.0246085
0.253989
0.245632
0.0303833
0.0220971
0.105839
3.60891
0.0240474
0.0511358
3.44774
3.72545
0.279362
0.025633
0.0226525
0.0222497
0.0220901
6.49763
0.0900719
0.0278179
0.0252904
0.0280418
0.0222724
0.0221589
0.0220891
0.134369
0.0632956
3.7878
0.051951
3.57777
3.3926
0.0338168
0.0805496
0.021858
0.0319681
8.06614
0.0226387
0.0252853
0.0837855
0.254698
0.0553329
3.43451
4.43627
0.0222651
3.69067
0.0216686
0.0233381
0.0523156
0.0222758
0.0228088
1.34628
4.18956
0.0222761
3.59311
0.0226359
0.0220767
0.025197
2.59875
0.0350669
0.029541
7.46206
0.0244505
4.69698
3.10917
0.0222464
0.0533687
0.0220229
5.53975
0.116399
0.0220859
3.34856
0.086034
0.0869259
0.0222804
5.77148
0.0309568
0.411478
0.0258518
0.082517
6.60222
0.0220938
1.54479
0.0222896
0.0943401
0.0556475
0.0222455
3.22355
0.0248734
0.247954
0.0865766
0.100816
0.0466346
0.0494056
0.0230341
3.45369
0.0348363
7.73631
0.0321415
0.115123
0.0224412
0.0579167
0.0221558
0.127834
3.50622
0.0237322
0.0219951
3.35513
0.0248165
3.91123
0.0237651
3.54478
3.8099
0.0431423
0.0220432
0.0220023
0.0221288
0.0216753
0.188363
0.0670752
0.0389186
0.0297177
0.0220919
5.71038
0.0269143
0.0412062
3.92574
0.022126
6.20294
0.0828049
0.0446041
1.32102
4.05811
7.52769
3.61295
8.05658
0.0220092
0.594239
3.93307
0.360384
0.0221789
0.0223505
0.264223
3.3088
6.24785
2.00535
0.0240833
0.0564815
0.059249
3.16336
4.38654
0.0677698
0.286751
0.0258279
0.11667
0.175389
0.0221716
0.183543
5.25744
0.0221478
4.60172
0.0222551
0.0226122
5.01445
3.32405
0.0218884
0.0243049
0.0236215
0.0222587
0.0595681
1.58533
0.0262174
0.0220233
0.0221087
0.0670329
0.0340496
0.0332802
7.4694
0.0220919
3.16772
6.25763
3.00345
0.188892
0.0754933
4.92819
0.0479732
3.18824
4.55722
9.84408
0.0231278
3.20279
3.41898
0.0218112
0.0220753
0.168536
2.95241
6.48892
0.0223225
0.0223166
3.22696
17.0735
10.168
0.0265346
0.0244606
1.78968
0.0225101
3.12768
4.00909
4.36061
13.4865
0.0221794
0.02203
0.0219134
0.0269864
4.37401
0.0650147
0.032386
0.0228125
0.117066
6.06894
0.0670125
4.06125
4.12347
5.98272
2.12263
0.02209
0.0221773
3.58935
0.021737
0.0219512
0.0240107
3.07414
0.0550798
4.83459
0.258787
0.022075
2.97869
0.0522163
0.0221898
4.87935
0.200403
0.0253751
0.0232538
3.94085
2.93704
0.0221908
4.51488
4.34442
3.2926
13.4084
0.119602
0.0220977
0.0240059
5.21197
0.0305926
3.65925
0.0558406
12.1046
5.21319
0.0232589
0.0312573
0.0221354
0.0231421
2.93928
8.54508
0.0220924
3.71653
0.0686325
0.0223241
0.0259482
0.0220017
0.366758
0.0235531
2.38395
0.0593361
0.0220917
0.021903
0.0923062
9.0658
0.0569883
0.0260378
0.0575647
0.0221405
0.0253223
0.0364813
7.74295
4.34732
2.9401
0.0217838
0.0218956
0.0229758
0.256024
0.0219529
0.0230816
1.76129
0.0988463
4.60017
0.0219543
2.9512
4.26441
0.0222842
7.5324
0.265466
0.0600579
2.04296
0.022884
3.17422
0.031516
0.0237507
0.0245286
0.0217288
4.13353
0.0230776
0.0254146
0.031344
3.61006
3.53532
0.0222484
0.022036
0.0258554
0.0225245
0.285569
0.022645
0.138003
0.0268573
3.76088
0.0249273
3.09006
0.0217957
2.96845
0.0235659
0.0217163
3.54143
0.399186
0.113057
4.32466
0.0475985
0.0616681
0.0220856
4.48016
0.0220883
0.0219569
0.0884715
0.117187
5.13506
3.28795
0.251946
4.10336
0.243987
8.28682
0.0221872
0.0296987
0.0377952
3.14662
0.0251984
3.12969
4.98886
0.0235584
0.0221346
0.0222507
3.81058
3.37735
0.0263325
0.0221308
0.0281036
0.034331
0.0563452
6.38592
0.4868
0.0220746
0.560807
0.133179
8.52384
0.119945
0.0248046
0.0268093
2.95432
0.0219096
0.148605
3.39661
0.0233866
0.0290675
2.0851
0.130197
0.0232668
7.7818
0.0280383
5.85056
0.0685488
0.0331427
0.0249646
2.97465
0.0219079
0.120305
1.49125
2.93008
0.0730856
0.0970966
0.0326873
0.0541871
0.0222683
2.95407
0.0349356
0.022772
0.0404118
0.0221021
0.0222696
3.08238
0.0221019
0.0221798
0.0223004
0.266008
0.0223784
0.0396805
0.133939
0.490729
0.214076
0.0222565
0.335121
0.54976
0.540995
0.130832
0.0276303
0.342792
3.6421
2.42111
0.0222845
5.62707
3.48296
0.0222839
0.0274017
0.0217076
0.537907
0.172877
0.0230703
1.38734
3.16933
0.0218536
0.0223516
3.33795
4.42287
0.119039
0.0217479
8.77884
3.14936
3.15282
0.0220693
3.09924
0.158795
0.0813943
3.07379
0.0325136
0.0217219
0.0398796
0.40666
0.045688
3.34803
2.92728
0.0219943
3.96765
0.721671
3.44944
0.0217961
0.049665
0.0224036
0.0221009
3.02124
5.04251
5.70327
4.55698
0.0322688
0.0753793
0.022594
2.89408
6.93109
0.0220827
0.0230825
0.0326136
0.0224433
0.0816093
3.10369
4.2639
0.0772309
0.0237762
0.0234396
3.01598
0.0262929
0.0829761
0.0219666
0.0239783
2.79563
5.06213
5.06295
2.81787
0.0221753
6.40547
0.0228033
0.0541463
5.66047
5.6051
0.0221055
0.0222943
0.0571993
0.0266118
0.0223327
3.01013
3.12899
0.0220797
0.0215823
0.0222005
0.0220022
2.65432
0.0221064
3.3744
0.191828
0.116571
0.0221685
0.0601107
2.89736
0.0490233
0.629259
3.28382
0.0226105
7.21738
0.0342577
0.035704
0.507824
6.6429
3.54799
0.10785
0.0220183
0.393676
0.0221189
0.0257587
0.0223811
3.45056
0.0346977
10.9278
4.07878
0.0731548
0.0221425
0.710712
0.0349606
0.0222708
0.281257
0.0216478
0.063659
0.0473747
0.0223516
6.02096
0.0247414
0.495698
0.0234429
0.0219972
3.15178
3.19649
0.0248248
0.0329304
0.0646373
0.0790677
0.104057
0.0345042
0.0281549
0.0304977
4.36075
0.0261218
3.52974
0.071693
4.29273
0.252577
0.0246679
3.03015
0.0216517
3.35035
0.0246821
3.02954
9.18811
8.39575
6.05949
6.57118
0.0933582
0.0229764
3.05739
0.103596
0.0220894
6.93796
3.59229
0.0238476
0.0277985
0.0385511
0.0386322
0.048162
4.97973
0.022284
0.044769
0.0553721
0.0358398
0.02217
0.167503
0.0217437
3.53247
0.0245509
0.25329
0.041962
0.0582359
0.19276
4.95014
0.139784
0.0219928
0.370136
3.13213
13.6945
0.0240442
3.66516
0.0384653
1.78397
0.0220884
0.0261428
3.1108
0.0912319
3.95499
6.63444
0.0346583
2.9174
0.0222656
0.0217426
8.2188
0.0602952
0.0261197
3.11961
0.0323088
0.0520244
0.0321458
0.103756
0.0228965
3.97662
3.58484
5.6028
5.76028
0.0305026
0.0782859
3.95667
0.025515
0.0226581
0.119925
0.0217666
0.374198
3.97715
7.20325
6.34376
0.0948234
0.0242342
3.03836
0.0216686
0.13759
0.0222408
13.49
0.0257548
0.054939
3.66177
0.230289
0.0220423
0.0357982
4.46324
0.0221415
0.362774
0.0220217
6.51257
3.12057
0.263645
0.0841358
0.021981
3.71749
0.361567
0.0573369
0.0220211
0.0244577
0.0221487
0.0941563
0.0221422
0.168635
0.0221907
0.0221094
3.14786
0.0222148
0.0322519
0.0314308
0.0222765
3.28079
0.0221451
0.0399144
3.08984
0.0840154
3.5571
0.0221526
2.92924
0.0904194
3.04756
0.0253043
0.255956
0.0235878
0.0620011
0.259564
0.259785
1.08827
3.19618
0.50945
5.45276
0.0276038
0.263228
0.0480084
8.03676
0.0260645
0.0234348
0.0221196
0.0879901
0.0553065
5.24208
0.0860701
3.55058
4.54785
0.0976184
0.0222549
4.96106
0.249184
0.0227401
0.0249138
0.02223
3.81812
0.0221044
10.5545
0.0221672
0.0359049
4.18692
0.101577
0.0220881
0.0221063
7.83773
0.0221296
0.0254662
0.0305332
0.0379809
0.0342069
0.0226087
1.84979
0.0843576
0.0487728
2.14861
3.09753
3.36803
5.71247
0.0218058
0.0221143
0.125698
0.0242377
0.0518638
3.64427
3.54828
0.0217375
0.0220864
3.10299
5.04703
0.0217694
0.0220083
0.0274216
6.83406
3.29108
0.0320295
0.0413475
0.0222107
6.25535
0.261084
0.153483
0.0326529
0.0507422
0.0225724
0.0513208
6.72625
0.0231027
0.0230508
0.0313545
3.32815
0.026698
6.16126
0.022126
3.18027
0.0427083
0.0283827
0.0218327
0.0219888
2.08052
5.3366
0.0595286
4.43367
4.99134
0.0229825
3.24231
0.676134
0.0220939
4.39669
4.45781
0.263942
0.0222573
3.2667
3.35764
0.022767
0.0456003
4.56371
0.0568113
0.0223104
0.0220761
0.0235719
0.0278758
0.131115
6.07558
0.0794013
0.120183
0.0218163
0.0225387
3.67302
0.0220909
0.0631471
0.0271137
0.0236485
0.0756365
0.0220705
0.0249637
6.8385
0.0220288
3.63295
0.0220739
27.8222
3.08587
0.170061
0.0227182
0.0222929
3.05239
0.0217161
0.0270432
0.0225296
0.61587
8.44544
0.0467869
3.14666
0.0475857
4.89652
0.0227046
0.12499
0.0223227
0.0221579
3.93328
3.29814
11.8539
0.0260928
0.121988
0.123245
3.08238
3.09517
6.47977
0.0519155
0.0216584
3.32664
0.0224436
0.0225521
6.09227
0.261728
0.0301885
0.2363
0.0536601
0.0360313
0.0341814
2.93701
0.0282576
0.0220283
5.57034
0.0535706
0.0218577
3.43042
0.0220473
0.0221329
0.3338
0.244098
6.38428
0.0218739
0.025962
0.0220286
2.17646
0.0220919
0.550564
4.54357
3.12958
3.46754
34.2688
0.0311412
3.79353
0.869497
0.0222191
0.0335523
0.0489411
0.0319315
1.26813
3.72271
2.99704
3.08945
2.22346
0.0224409
0.22815
0.0220508
3.65602
0.0376884
0.0263518
0.0274138
0.0242961
0.0220753
0.220501
2.98529
0.0217843
0.0262744
0.0218938
4.36273
0.0260339
2.94737
3.49848
11.9667
0.0221187
0.0220838
4.56055
0.370674
0.0221576
0.455442
0.0222348
0.236278
0.225297
0.177971
0.0856958
8.64843
0.0219702
0.0223587
4.11661
3.25259
0.0366948
0.0585709
0.0220997
7.89071
0.0220781
0.0219836
0.0251585
0.0221349
3.69535
3.73234
4.72762
0.10798
3.04014
6.61862
0.0217287
0.0452887
0.0218008
1.24306
0.0228333
0.0263974
0.0220901
0.0219813
0.0221856
3.50634
0.0255326
1.67639
0.0219154
0.0328543
0.023997
1.52458
0.0220821
0.0450962
0.0555512
0.0951106
3.28315
0.0219845
4.58341
0.0998612
0.0540028
0.0223323
0.0220363
3.38157
13.7128
0.0228931
0.0223306
5.29127
4.53604
0.0392293
3.05342
0.0234315
4.47996
0.0460398
0.0217886
3.87109
0.0263491
3.18741
0.0221023
0.0241462
0.0221398
4.17655
3.19144
0.0217583
0.252331
4.35359
0.0220687
0.0222905
0.0219973
0.274197
3.11622
0.0933156
0.0298068
0.0533718
0.0220707
0.0222131
0.0265327
0.0220325
1.99404
0.022205
0.114719
7.09256
0.0465531
0.0216616
3.7085
0.134804
0.0220765
0.12035
0.0432257
4.69628
0.024915
5.43642
0.0841024
0.0222588
0.143307
0.140164
0.0288476
3.02681
0.106918
0.0450419
4.68007
0.0221722
0.237557
0.0983243
0.19544
0.0219981
0.0221536
0.0217079
0.0331709
0.0966464
0.0944157
4.2704
3.51053
3.47836
0.0222694
2.04367
3.0753
2.99814
0.0220994
0.0223281
0.0882232
3.22802
0.0256878
0.0544718
32.8439
5.07731
23.9882
0.110353
0.361516
3.13354
8.71972
0.0217553
22.3149
5.73556
0.023368
0.0238247
0.0239045
2.90881
0.162249
3.56282
0.0265666
9.60186
0.0228536
5.49532
3.89841
0.0225393
0.0511419
3.41849
3.68842
0.0807044
0.0246741
0.0249064
0.0225926
0.321298
0.261247
12.7923
3.02761
0.0219353
4.11857
0.298275
3.88233
0.0220406
0.02217
3.86147
0.270774
0.0221287
0.0722005
0.0736608
0.0408514
3.55603
3.26777
2.89132
3.08177
0.0274078
0.021873
0.0673506
5.00765
6.93374
0.022643
0.363202
0.0965563
0.373856
0.0247042
0.02226
1.30103
4.95981
7.75177
1.65806
4.41389
0.0220212
0.26963
3.1165
0.0224564
0.0626448
0.207271
0.02178
0.664483
3.10314
0.260715
0.0222591
5.94152
0.254602
19.4692
0.0215899
0.0276432
0.0226883
0.0267301
0.0226105
0.0737985
0.0466086
0.0479875
0.294563
0.0504193
3.905
0.0264272
0.0427018
0.0329833
8.20822
0.0582763
3.95937
0.0322714
0.0291486
16.0038
0.0931613
0.0221737
0.0476706
5.05626
3.44691
6.65855
0.0222118
0.0220891
0.0222138
5.16742
0.0243419
2.46944
1.35618
0.272815
0.0385404
0.657189
4.63516
0.0225963
4.53896
0.0377291
0.05341
0.02228
0.02258
0.0806949
2.99716
0.022087
3.88252
0.890628
0.0960604
0.405507
0.0221284
0.0220522
0.0411881
0.0258522
18.0053
13.9455
0.10257
1.59594
0.0222075
0.0227336
0.0229889
0.0222487
3.54253
0.0260863
3.5326
0.0898694
0.0247921
0.415126
13.1722
3.20998
7.44464
0.0268383
0.0223035
0.02215
0.0277316
0.67488
0.269264
3.03693
0.022171
0.0242403
0.198321
0.0222602
4.1154
0.0242933
0.178089
0.206781
0.0468504
0.0461254
0.0218795
0.0695315
0.0444385
0.280483
0.0825571
0.048602
0.0219164
0.356961
0.022061
15.9163
3.08723
1.03155
0.0222515
0.11682
0.0222299
0.0762334
0.0249891
0.0252069
0.0294282
7.89143
3.26467
0.0829668
0.0574511
0.339382
0.108312
3.42189
3.02869
0.0346508
3.23647
0.594344
0.022128
0.0575936
2.99684
0.0965582
0.0222423
0.078627
2.22306
5.88544
9.93402
0.0230903
4.8323
0.0221125
0.0220787
0.0714177
4.4634
0.0222643
4.53653
2.96958
4.16108
6.4072
0.393333
2.89124
1.70282
0.0218588
0.0285771
0.021899
0.0474622
5.93888
6.35961
0.0257656
0.0491046
0.0219205
3.00978
0.0602672
0.0683306
3.19459
0.102589
3.58976
2.88879
0.0221561
5.54086
0.0221299
0.0297629
0.0522334
3.09462
1.70435
0.02911
0.0269129
0.616532
0.0432486
3.31461
4.07455
0.032164
3.19452
0.0772378
0.0222745
0.975932
0.0909265
0.0234741
7.71852
7.92007
0.0410962
0.0269164
0.204999
4.59516
0.0220983
0.0230626
0.0217486
0.0218761
0.0224588
3.21221
0.0348446
3.40956
0.0219794
0.0226555
0.770434
0.0233059
0.0253702
0.0220887
0.022085
4.90721
0.0220442
3.51867
0.0229437
0.0257897
0.0497239
0.0222659
0.13635
0.0220745
0.022266
0.0220477
0.0349242
0.0957014
0.0299755
3.08072
0.0221665
0.0493798
0.0405394
3.06927
0.0229831
0.0222707
0.0222415
0.0218695
7.55464
0.0220698
0.0223791
0.0291521
10.8154
0.0219611
0.0467982
0.036453
0.0222321
3.66121
3.4883
4.36519
3.67739
0.0308519
0.256867
0.0223026
0.0999887
7.1144
0.023842
4.74955
0.222412
3.81966
0.0338667
0.0220842
1.41479
0.052669
1.67543
3.18142
0.0218798
0.0221138
6.11703
3.13754
0.106235
0.0669632
0.0241879
5.3745
4.07678
0.0216039
0.0220186
0.0230245
0.022184
0.0222526
0.0220883
0.0367481
2.99806
0.0348872
0.0223921
0.439797
0.0220364
1.88513
0.0525121
0.0234955
0.0348781
0.0220278
0.607155
0.0262615
0.0486914
0.0220993
0.023193
3.58683
3.97696
0.0221793
0.0892061
0.0470782
0.0347768
0.0245454
0.0222718
0.0254865
5.39429
1.08565
0.0690135
3.86766
0.0244768
17.3595
0.218843
0.0297131
17.0206
0.0236323
3.06982
3.58518
3.31402
9.42756
3.21169
3.08063
0.0220374
0.0331935
0.0251631
0.0218696
0.0221496
0.0398296
0.0803758
0.0221414
0.0311544
0.256271
0.090467
0.265653
4.08106
0.0415762
5.59468
7.09525
0.035067
0.025281
0.216214
4.53807
3.17445
0.0268298
0.0218912
0.0220643
0.0220239
0.0420556
3.69204
0.631704
0.0222996
3.87791
0.0220179
0.466442
3.4643
0.077706
0.319889
0.0855818
0.319747
0.0232951
0.0341207
0.021976
0.301517
0.0221248
0.0247328
0.0483877
1.71462
0.0221867
0.0248812
3.08457
0.0218624
0.0227152
0.0304907
3.34756
0.211767
4.75644
0.0393485
0.0221542
3.3773
0.0383426
0.025546
0.0220952
0.0347755
0.0307246
0.0221
0.0400043
4.29249
0.0251533
0.0218519
0.0502628
0.0219864
0.034023
0.0314601
0.0221009
0.0220433
3.28
0.0218514
0.02208
0.0217673
0.0272008
0.0215657
3.9891
0.0304616
0.448561
0.0219817
0.0224771
0.0232901
3.36633
0.118859
0.0220959
0.0219187
3.60653
0.0255326
0.115151
0.0219395
0.338074
0.0247084
0.021629
13.0102
0.0223577
0.0225009
0.0221641
0.0228652
0.0247715
0.0221385
0.0220607
1.68689
1.49767
3.29693
3.75664
4.04317
0.0220777
2.89472
0.0219925
3.36007
3.86483
0.0218409
5.37593
0.0220028
4.60606
7.06794
0.264629
3.34503
3.63392
1.60181
3.86115
3.34136
3.50663
0.0538262
0.0716284
4.61675
0.0241005
0.0217803
5.6444
0.0268307
0.0297183
8.88393
0.0239747
3.75478
3.41015
3.52719
7.00461
0.272655
0.0222533
0.030109
0.0498937
0.0232035
3.96895
0.5729
0.111677
0.0221003
0.0220769
4.28831
0.0218634
5.15301
0.0222321
4.47493
2.99867
0.0344416
0.0287145
0.0221911
5.73506
3.57779
0.0272169
0.040349
0.0222867
0.022286
0.104378
0.0236564
0.0330366
0.0811584
0.0256317
0.0503199
0.0220858
0.034487
8.10986
0.0244672
7.23162
0.0225402
4.02847
0.054626
0.0220815
8.53571
0.258701
0.0219909
0.178656
0.0220878
5.00349
0.0224342
0.0220705
3.4118
0.0221635
0.207825
0.0255939
0.415456
0.0221879
0.02266
0.0219351
0.0318627
0.025199
0.0226087
0.0230386
0.0257635
0.022825
0.261341
0.0768996
0.0452353
0.0235818
0.0219939
2.35215
10.4635
0.0231715
0.0229119
0.0230294
0.0438726
0.0227171
0.0426218
0.0216512
0.0222853
4.59721
0.023852
0.0222847
0.0220046
3.76916
5.58037
0.021658
0.0916098
0.0574755
0.576281
4.23684
3.25386
3.0375
4.56226
0.025161
0.39119
0.0219546
0.0321987
3.59844
3.41986
0.160401
0.0244479
8.25697
0.0220765
0.0596368
7.89137
0.0225192
0.350168
0.0249543
0.0245556
0.109155
0.928768
3.63348
3.4263
0.022003
0.0217547
3.69764
3.7254
0.0225511
0.0313543
0.261494
0.0221042
0.0220396
0.0261104
3.91687
0.021894
3.82473
0.0314975
0.0231346
3.70782
0.140819
0.12776
0.185634
5.03956
0.0251547
0.049761
0.0277067
0.0245347
4.80942
0.0469429
3.78299
3.08684
0.0834385
3.2987
0.0593869
0.0577456
0.513941
0.0218493
3.02768
0.147359
0.037707
0.0309562
0.0221904
0.0218954
3.48914
0.0539617
3.46012
3.86186
0.022135
3.64778
0.0219119
0.022102
0.0304009
6.3651
0.142925
0.022185
3.71646
0.0221413
0.0250582
3.17093
0.0253977
3.51495
0.0222745
2.97961
6.0027
0.0705335
11.2092
0.0240363
3.34227
0.0219549
4.27256
3.69594
3.14993
3.0298
0.0219695
0.022264
0.417669
3.0946
3.16498
4.10044
3.85641
0.0226071
2.95902
3.41385
0.0227791
9.63397
0.0320188
0.0397302
8.275
0.0435273
3.35128
0.0221588
0.0433173
0.0502003
0.433109
3.36209
0.0421928
3.55272
3.52711
0.02218
0.025598
0.024958
0.0294898
3.18474
0.0220591
0.02187
0.0444803
3.07225
3.10766
0.0351378
4.04661
3.20773
0.0221236
4.08452
4.0922
2.48642
4.22996
0.0951994
0.0256803
0.0221863
0.249885
0.0313553
0.123392
5.19393
3.41976
0.0315165
0.13938
0.0264942
0.0658672
0.0216993
0.0709698
0.0254191
0.141982
3.58187
8.19043
3.65064
0.0220085
0.26033
0.114169
3.31951
0.0233899
2.95903
3.51887
2.99013
0.0236847
0.193246
4.7726
6.66555
3.67618
0.0422636
3.75586
11.7495
0.11258
0.125494
0.0276384
0.0319834
2.90906
0.0474777
0.0221942
3.1952
0.0227337
0.0236415
0.261206
0.261556
0.0224019
0.116346
0.0263681
3.70914
8.14837
0.0257019
3.65207
0.0233048
0.0219537
0.10334
3.756
2.90219
3.4457
24.7244
3.26628
0.421284
0.0222636
10.1171
4.5729
0.0271718
0.251725
0.0225993
0.0227332
0.0236351
7.65022
3.42727
0.0705319
3.6039
3.08733
4.32634
0.131845
3.07443
3.20889
2.99962
2.9111
6.68455