/*--------------------------------*- C++ -*----------------------------------*\
| =========                 |                                                 |
| \\      /  F ield         | OpenFOAM: The Open Source CFD Toolbox           |
|  \\    /   O peration     | Version:  v2012                                 |
|   \\  /    A nd           | Website:  www.openfoam.com                      |
|    \\/     M anipulation  |                                                 |
\*---------------------------------------------------------------------------*/
FoamFile
{
    version     2.0;
    format      ascii;
    class       volScalarField;
    location    "700";
    object      p;
}
// * * * * * * * * * * * * * * * * * * * * * * * * * * * * * * * * * * * * * //

dimensions      [0 2 -2 0 0 0 0];


internalField   nonuniform List<scalar> 
13917
(
-0.162225
-0.0331928
-0.166941
-0.0744563
0.0255777
0.450088
-0.124329
-0.203898
-0.425551
-0.238993
-0.177567
-0.118939
-0.0749739
-0.237922
0.0190014
-0.00852869
-0.0253016
-0.236805
-0.117594
-0.00680401
0.0121882
-0.115952
0.000883742
-0.211289
0.0162012
-0.0809019
0.213911
0.215294
0.0211843
-0.335529
-0.18436
-0.100403
0.16227
0.111919
0.0243462
-0.148613
0.00108157
-0.244938
-0.0827998
-0.0292941
-0.0226196
0.00928785
-0.0373375
0.232477
-0.0592048
0.125636
-0.232114
-0.244789
0.487064
-0.0150081
-0.129931
0.0565481
0.492249
0.115785
-0.0236593
-0.132802
-0.181007
0.00862971
-0.110379
-0.0572597
-0.54802
-0.0353609
-0.233788
-0.00662176
0.439079
-0.515542
0.0312002
0.0389052
-0.297667
-0.114653
0.0247338
-0.424598
-0.455682
0.0152736
0.466006
-0.096442
-0.400386
-0.0812403
-0.0562894
0.0114072
0.00502271
0.0306088
0.41835
-0.248757
-0.553722
-0.0794827
0.00102016
-0.499486
-0.126888
-0.0377633
-0.404449
-0.299027
-0.0370136
0.0297423
-0.541385
0.448269
-0.225472
-0.244064
-0.09796
0.317065
-0.02527
0.169216
0.243729
-0.0915522
-0.0301551
-0.445433
-0.00776856
-0.250978
-0.0280358
-0.18684
-0.535041
-0.0305009
-0.117422
-0.44097
0.0742857
0.522278
0.00257784
0.48499
-0.100309
0.111516
0.0094133
-0.29827
-0.137912
0.209726
-0.0174996
0.0286499
-0.0528356
-0.0171322
-0.0346375
0.453587
-0.126185
0.0722725
-0.0597787
0.012921
-0.507064
-0.203982
-0.158512
0.331481
0.0310508
0.111788
-0.161094
-0.0408134
0.0551172
0.268498
0.0391003
-0.420558
-0.0449092
0.054369
-0.0395332
-0.0944329
-0.185991
0.521097
-0.170321
-0.0750674
-0.121705
-0.545298
-0.107537
-0.275467
-0.400857
-0.511336
0.0712984
0.221649
0.00655479
-0.220239
-0.119881
-0.100727
-0.0902768
-0.213949
-0.0500506
0.17539
-0.101091
-0.545907
-0.109404
-0.0235729
-0.375201
-0.0684167
-0.1219
0.491129
-0.41239
-0.0200667
-0.308787
-0.192931
-0.0415828
0.00142526
0.0536498
-0.0854177
-0.449401
-0.543734
-0.188501
-0.121535
-0.216798
-0.553282
-0.435563
0.00753247
0.354959
0.205581
-0.0280037
-0.0371539
-0.0224249
-0.499516
-0.110199
-0.0145533
-0.19878
-0.182351
-0.4535
-0.463144
0.0244747
0.00939733
-0.238395
-0.113948
0.0525738
-0.133673
-0.454776
-0.124668
-0.029625
0.270205
-0.221152
-0.52926
-0.00270245
-0.545643
-0.0195376
-0.324133
-0.0219841
-0.285774
-0.453756
-0.0103581
-0.441866
-0.126507
-0.0286747
-0.147024
-0.10733
-0.185923
-0.176864
-0.457166
-0.0274856
-0.105327
-0.406564
-0.552959
0.00736464
-0.0148282
-0.0264488
-0.241247
-0.00961729
-0.131582
-0.315142
0.214912
-0.155877
0.00585784
-0.0259698
-0.436082
-0.059872
-0.338916
0.326703
-0.0524632
0.0100552
-0.158977
-0.029258
-0.16844
0.0510925
0.0140188
-0.00914934
-0.134581
-0.517617
-0.102923
-0.0279732
-0.490374
-0.258545
-0.276758
-0.0502692
-0.0958011
0.00581696
-0.0191646
-0.23138
-0.326133
-0.306095
-0.107521
-0.47005
-0.097107
-0.0345091
-0.5279
-0.0086627
-0.369529
-0.107303
-0.00970167
-0.020593
-0.0688162
0.220076
-0.133185
-0.0277422
-0.0645834
-0.488205
-0.182321
-0.510717
-0.00205365
-0.310422
0.0269131
-0.064477
0.00221247
-0.084679
-0.0120069
-0.33353
-0.148832
-0.0494754
-0.1988
-0.0603578
0.505975
-0.0655985
-0.289184
-0.0479311
0.00936513
-0.536882
-0.160607
0.00183392
-0.0204222
-0.535735
-0.0254772
-0.452614
-0.0467897
-0.290073
-0.0652345
-0.396262
-0.157382
0.438293
0.0673505
-0.505334
0.315797
-0.023179
-0.246703
-0.161589
0.00376817
-0.170499
0.353337
-0.262916
0.096509
-0.0532109
-0.114299
-0.550186
0.314739
-0.0235218
-0.0368656
-0.162841
0.013862
-0.109757
-0.534957
0.0273248
-0.0125541
-0.239021
-0.031633
-0.0297718
-0.214928
0.0620139
-0.0226561
-0.101014
-0.175863
-0.00854488
-0.0188087
0.0271576
-0.0400244
-0.479968
-0.399587
0.436505
-0.538666
0.00993703
-0.349854
-0.542361
-0.177975
-0.127836
-0.329976
-0.449434
-0.0283784
-0.102475
-0.02114
-0.546898
-0.0559779
0.423555
-0.32027
-0.0897816
0.0143993
-0.232389
-0.319037
-0.275535
-0.180337
-0.548617
-0.530591
-0.0340304
-0.227976
-0.0145247
-0.553747
-0.10309
0.00136872
-0.502684
0.0176579
-0.441867
-0.0655771
0.0139727
-0.0540996
-0.037289
-0.0517622
-0.0313147
-0.534076
-0.15701
0.352639
0.00151158
0.292206
0.33253
-0.00271258
0.00212483
0.0255587
0.0187045
-0.332283
-0.00901685
0.0185723
-0.0215778
-0.466988
0.0114249
-0.055826
-0.0438757
-0.533229
-0.428107
-0.0428617
-0.518757
-0.173827
0.00937022
-0.392444
-0.0828789
-0.113624
0.00739905
-0.40336
-0.112968
-0.0482074
0.00637688
-0.328467
0.0940168
-0.084269
-0.271039
-0.0343561
-0.0938862
-0.0293193
-0.0118856
-0.454519
-0.118367
-0.116074
-0.316193
-0.533278
-0.173116
-0.51569
-0.350742
-0.0338202
-0.235871
-0.0368122
0.0127272
-0.468248
-0.235333
-0.0352773
-0.268719
-0.176711
-0.330758
-0.00303079
-0.264068
-0.526744
-0.43628
-0.0668511
0.0121993
0.00291065
-0.0284341
-0.100544
-0.0284451
-0.0754583
0.439509
-0.0297112
-0.550192
-0.131315
-0.214946
-0.516725
-0.0537576
-0.153361
-0.165202
-0.263726
-0.263145
-0.376564
-0.13542
-0.131286
0.433333
-0.121812
-0.250359
-0.0313901
-0.50131
-0.135903
-0.0471379
-0.0936574
-0.084412
-0.340911
-0.443448
-0.024565
-0.0343186
-0.103926
-0.519801
-0.00932361
-0.0645631
-0.0820587
-0.406394
-0.0233554
-0.474811
-0.388507
-0.0982009
-0.057331
-0.0437658
-0.433547
-0.550023
-0.00880118
-0.447837
0.501572
-0.535503
-0.0473838
-0.554677
-0.509544
-0.173189
-0.0197691
-0.0164993
-0.091001
-0.457338
-0.0353436
-0.0183427
-0.0170329
-0.0174613
-0.490285
-0.467536
-0.172364
-0.448193
-0.019483
-0.0247122
-0.320596
-0.484601
-0.170591
-0.0515956
0.0176021
0.0336622
-0.53323
-0.552986
-0.00164785
0.0308537
-0.0976455
-0.137326
-0.155256
0.00489897
-0.0483539
-0.0771616
-0.244428
-0.137448
-0.456767
-0.398352
-0.295248
-0.465207
-0.287718
-0.000118843
-0.439799
0.0338002
-0.0142013
-0.0951975
-0.497355
-0.0758526
-0.0243971
-0.435729
-0.353564
-0.533137
-0.298383
0.0975225
-0.181333
0.0148794
-0.514243
-0.412924
-0.189153
-0.0282802
-0.151086
-0.455857
-0.33624
-0.494174
-0.250113
-0.328519
-0.00294227
-0.088268
0.00640608
0.062611
0.2634
0.0541129
-0.215624
0.333012
-0.19363
-0.550646
-0.0543299
-0.210038
-0.376066
-0.0285394
0.0474818
0.288617
-0.474633
-0.387344
-0.443196
-0.0345305
-0.106234
-0.0940698
-0.0244028
-0.151065
-0.207426
0.153792
-0.32919
-0.0584819
-0.369196
-0.129634
-0.512364
-0.0885845
-0.354483
0.00815188
-0.00137145
-0.305691
-0.472733
0.395874
-0.0891666
-0.0253138
0.0299143
-0.0990567
0.479695
-0.101414
-0.0917908
-0.153335
-0.226994
-0.0228711
-0.42037
-0.0986901
-0.0747001
-0.0064
-0.360675
-0.0835236
-0.533128
-0.24784
-0.0853771
-0.15302
-0.0211739
-0.0452956
-0.0545811
-0.0737081
0.125843
-0.458297
0.0106602
-0.214497
-0.0219816
-0.373962
0.385979
-0.167602
-0.0591403
0.113941
-0.0174157
-0.104905
-0.114089
-0.512804
0.0122632
-0.476613
-0.108177
-0.172101
-0.295303
-0.466151
-0.113135
-0.0154915
-0.34851
-0.494973
-0.010087
-0.0934168
-0.403798
-0.432249
-0.298701
-0.00958145
-0.0590138
-0.37338
-0.0905139
-0.273791
-0.157974
-0.0460175
-0.176999
-0.178033
-0.0580079
-0.0726463
-0.01609
-0.153367
0.0138215
0.00712632
-0.548227
-0.000212896
-0.470045
-0.120122
0.165349
-0.0165511
-0.0841723
0.00304037
-0.259064
-0.0208719
-0.183954
-0.0818629
-0.522969
0.123404
-0.487224
-0.0272787
0.0145796
-0.277772
-0.209704
-0.219524
-0.463036
-0.239809
0.0226204
-0.459432
0.415581
-0.0776118
-0.452431
-0.222058
-0.049294
-0.148996
-0.0971
-0.378024
0.00320986
-0.235773
0.402529
-0.236092
-0.0813414
-0.211669
-0.02906
-0.0513421
-0.104904
-0.18889
-0.0880353
0.00662037
-0.0199814
-0.221278
-0.0921238
-0.279362
0.021797
0.020541
0.0145151
-0.0420258
-0.0395191
-0.0821927
-0.0151775
-0.474423
-0.11255
0.400406
-0.0267801
0.00137004
0.172587
-0.270263
0.0708311
-0.53595
-0.240697
-0.544271
-0.107719
-0.345257
-0.0761413
0.00792631
-0.0179797
-0.0579984
-0.55412
0.000816197
-0.465453
-0.0838807
-0.543386
-0.0204716
-0.251318
-0.169006
-0.0374331
-0.00947484
-0.114883
0.0353593
0.0184291
-0.530455
-0.0254301
0.0257805
-0.135489
-0.0161121
-0.03318
-0.0966757
0.139296
-0.216644
-0.13734
-0.0578016
-0.0232301
-0.338821
-0.062767
-0.00525291
-0.0295069
-0.531963
-0.390311
-0.539278
0.090258
-0.0829318
-0.0269218
-0.033393
-0.124961
-0.144421
-0.235694
0.1003
-0.175247
-0.0450577
0.0380279
-0.535083
0.0186856
-0.137544
-0.007733
-0.0125581
-0.17807
0.226614
-0.0742346
-0.460016
-0.0337229
-0.302116
-0.000819965
-0.0417806
-0.116996
-0.469768
-0.00862641
-0.447502
-0.0413225
-0.182199
-0.0502807
-0.0529019
-0.459299
-0.0605843
-0.0524711
-0.188081
0.015986
-0.0369682
0.043977
-0.0161115
-0.0723015
0.175055
-0.0570971
-0.048817
-0.368809
-0.41455
-0.131817
-0.200656
-0.260216
-0.116752
-0.0405631
0.129687
-0.449276
-0.19816
0.0173032
-0.0552667
-0.457465
-0.18317
-0.539497
0.0153261
0.0727249
-0.162682
-0.167952
-0.0771496
-0.55607
0.441949
-0.0167768
-0.368411
-0.0184188
-0.0591364
-0.0270998
-0.488763
-0.0390683
-0.0550474
-0.0413313
-0.0510859
-0.0830164
-0.414181
0.284002
-0.0532844
0.164374
-0.00272164
-0.539159
-0.0123728
-0.057762
0.0245664
-0.118872
0.0252087
-0.368358
-0.0289254
-0.166324
0.109569
-0.182357
-0.548561
0.00735904
-0.107513
-0.55617
-0.547622
-0.0461036
-0.363494
-0.542971
-0.365966
-0.0191414
-0.0572163
-0.166855
-0.10808
-0.0465996
-0.038325
-0.00766718
-0.00238452
-0.124453
0.106175
-0.175257
-0.0382112
0.0279981
-0.546861
-0.135514
0.0444602
0.20222
-0.148087
-0.0677685
0.0586764
0.205554
0.0556945
-0.0840516
-0.0319775
-0.537943
0.487525
-0.0499435
-0.427384
-0.347021
-0.554845
-0.457456
-0.10209
-0.0250129
-0.0777136
-0.0431052
-0.0353757
-0.0460139
-0.033715
-0.079539
-0.143114
-0.550653
-0.276611
-0.0558341
-0.337364
-0.511613
-0.171572
0.0424482
-0.370826
-0.0478768
0.0177482
0.179894
-0.550278
0.0279377
-0.00538847
-0.142803
-0.183243
-0.358074
-0.300835
-0.154509
-0.0129989
-0.393223
0.0426555
-0.0069575
0.0468801
-0.0763081
-0.538694
-0.0501253
-0.0374502
-0.00785333
-0.400259
-0.0402693
-0.153352
0.0345434
-0.0282532
-0.39017
-0.0540038
-0.265223
-0.270694
-0.106904
-0.0506763
-0.162301
-0.0548018
-0.472605
-0.508365
0.017595
-0.537491
-0.266731
0.450753
0.0263745
-0.037637
0.0265982
-0.130151
-0.162568
-0.302731
-0.106795
-0.0800115
-0.0873179
-0.482874
-0.0221988
-0.407712
-0.0527997
-0.0321938
-0.155535
0.0114325
0.0261698
-0.0592803
-0.0655224
-0.550178
-0.0359766
0.00141111
-0.181289
-0.213813
-0.205062
0.422587
-0.0887109
-0.55555
-0.0936817
-0.179064
-0.0949426
-0.35353
-0.13519
-0.546144
-0.0751354
-0.109213
-0.0540944
-0.0330568
-0.0801048
0.0527573
-0.334609
-0.174788
-0.0691704
-0.126672
-0.0671529
-0.165551
-0.00809519
-0.217357
0.283289
-0.0202732
-0.265878
-0.0516003
-0.0263781
-0.0211702
0.115976
-0.24097
-0.0943214
-0.0666357
-0.0501475
0.230397
-0.269496
-0.45919
0.0178839
-0.0393852
-0.220598
-0.0059575
-0.32858
-0.272154
-0.0691888
-0.318951
-0.0508179
-0.543483
0.0505885
-0.125651
-0.244701
-0.391956
-0.0106716
-0.0216155
-0.027851
-0.00744235
-0.0159429
-0.554396
-0.490075
0.0898684
-0.0830591
-0.00744436
-0.0662086
-0.0828285
-0.059665
-0.0371104
-0.339482
-0.0528772
-0.315997
0.00490947
-0.0363811
-0.00286829
-0.0901428
-0.0669903
0.0260776
0.00819864
-0.0123806
0.0100855
-0.0127669
0.390613
-0.260564
-0.00838084
-0.393215
-0.030836
-0.413128
-0.16962
0.339227
-0.0492212
0.0400759
-0.00629853
0.00410132
0.0244308
-0.0726448
-0.543584
0.0635383
-0.148747
0.462539
-0.213872
-0.0850747
-0.103708
0.412375
-0.111686
-0.0374783
-0.48659
-0.245048
-0.132753
0.0014754
-0.342344
0.207576
-0.0469183
-0.0935068
-0.545719
-0.0804396
-0.0253349
-0.0952719
-0.337474
-0.150254
-0.295081
-0.0387857
-0.483837
-0.105246
-0.0698375
-0.353905
-0.430349
-0.143751
-0.0497065
-0.028485
-0.162713
-0.00159755
0.0587688
-0.0310065
-0.0515706
-0.0421006
0.0517663
-0.129221
0.413981
0.100517
0.275073
-0.0494309
-0.15358
-0.0454276
-0.380227
-0.0620619
-0.0388647
-0.016902
-0.15721
-0.554064
0.0238535
-0.280698
-0.258234
-0.15178
0.0319301
-0.0811603
-0.0547961
-0.33708
-0.0727613
-0.0156317
-0.527779
-0.0521076
-0.0297711
-0.454554
-0.130314
-0.518736
-0.00302088
-0.119858
-0.0851382
-0.440572
-0.104049
0.182179
-0.108618
0.00745472
-0.0604611
-0.0361084
0.0261055
0.0560715
-0.110978
-0.00856367
-0.187486
-0.0157372
-0.139368
-0.0516201
-0.252376
-0.149118
-0.477572
0.00688324
-0.436796
-0.0603434
-0.114641
0.0178544
0.111976
0.0165891
-0.241041
-0.468133
-0.0981228
-0.00979175
-0.282197
-0.0169601
-0.116343
-0.467788
-0.0570182
0.0488359
-0.207359
-0.150809
-0.139064
-0.00764449
-0.00240615
-0.0740535
0.00617424
0.111836
-0.0224896
-0.028998
0.0562665
-0.433624
-0.08589
-0.237404
-0.39251
-0.239902
-0.0656086
-0.0822395
-0.0286908
0.0036753
-0.496879
-0.0797266
-0.0722377
-0.159677
-0.493563
-0.0186736
-0.528482
-0.271909
-0.278673
-0.0389561
-0.0362926
-0.0868633
0.0452822
0.0174054
0.171882
-0.0460656
0.0720426
-0.122958
-0.162719
0.433704
-0.107875
-0.0840419
-0.184948
-0.0599692
-0.0250372
-0.13429
0.126507
-0.555518
-0.195601
-0.552428
0.0901439
-0.508646
-0.53014
-0.047489
-0.00763943
-0.0131785
-0.0757473
-0.202015
-0.0520988
0.0919144
-0.0971236
-0.089685
0.0462295
-0.408587
0.116074
-0.104833
-0.42133
-0.0764069
-0.0697597
-0.0937906
0.0743093
-0.0205098
-0.480492
-0.545478
-0.0186396
-0.0787071
-0.0378129
0.114233
-0.551709
-0.0138079
-0.0538151
-0.184228
-0.0815557
0.134404
-0.52566
0.0283754
-0.249517
-0.11832
-0.0367927
-0.0210927
-0.0493962
-0.549809
-0.0512312
-0.0967432
0.0116974
-0.0822251
0.193451
-0.360106
0.0329471
0.366019
-0.29748
-0.0735084
-0.445543
-0.0804421
-0.0904511
0.0334713
0.107831
0.0194473
-0.159643
-0.368163
0.0531457
0.163358
-0.223362
0.482944
0.407387
0.107518
0.00618486
0.0244348
0.0328242
-0.54257
-0.21587
-0.0972668
-0.0804536
-0.103654
0.0056887
-0.00589072
0.0336044
-0.18606
-0.103999
-0.382957
0.104441
-0.533879
-0.032125
-0.0033924
-0.218705
-0.025849
-0.0323742
-0.477588
-0.0309771
-0.0435533
-0.205139
-0.297605
0.267286
-0.0399521
-0.187918
-0.0468452
-0.249532
-0.0372328
-0.0689777
0.0313397
0.0175226
-0.059277
-0.309919
-0.505793
-0.0531797
-0.0676213
-0.0373139
-0.0492636
-0.0434769
0.393016
-0.107438
-0.0922439
-0.555227
-0.0620134
-0.241871
-0.0439984
-0.00938768
0.097187
-0.0142643
-0.0277543
-0.283722
0.0364776
-0.0604194
-0.229657
0.220307
0.00626079
-0.541434
0.0741022
0.426295
-0.0737152
0.117751
-0.499136
-0.0490845
0.266521
0.0246399
-0.26987
0.194401
-0.00962549
-0.552298
-0.0011802
-0.291083
-0.257323
0.341407
-0.0221239
0.0348379
0.0322105
-0.217999
0.0317187
-0.057273
0.0616808
-0.160985
-0.0475538
-0.194543
0.0282366
-0.0930252
-0.134466
-0.0290192
-0.0326507
0.454409
-0.0836051
-0.0544434
-0.0713826
-0.0782433
-0.0710711
-0.1334
-0.00247431
-0.0117385
0.0260788
-0.0341869
-0.33316
-0.00185163
0.206435
-0.0847883
-0.00922549
-0.4748
-0.0977087
-0.126087
-0.0617894
0.0270801
-0.531032
-0.210198
-0.0996134
0.496266
-0.381065
-0.49105
-0.107
-0.533984
-0.0199759
-0.273386
-0.553643
0.447051
-0.00379184
0.0497274
-0.186732
-0.0598294
-0.0600173
-0.460657
-0.0626352
0.0859702
-0.198757
-0.0487597
-0.528996
-0.1643
-0.246851
-0.0417821
-0.261763
-0.0987508
-0.00347883
-0.343942
-0.532522
0.0235386
-0.319121
-0.00163979
-0.0585559
-0.288236
-0.370861
-0.0229162
-0.0638964
-0.0628376
-0.0527139
-0.10532
-0.322887
-0.081321
-0.00975866
-0.00609797
-0.130319
-0.117518
-0.110216
-0.486359
0.0254291
-0.413202
-0.555515
-0.297543
0.0554709
-0.241706
-0.344736
-0.170085
-0.0566792
-0.255569
-0.537421
-0.025009
-0.535969
-0.0456219
-0.0279318
0.0049408
-0.333409
-0.546477
-0.547014
-0.0534565
-0.0136756
-0.110147
-0.503131
-0.533667
-0.0760304
0.0839779
0.511452
0.01054
-0.159677
-0.545218
-0.175317
-0.515422
0.0320567
-0.011969
-0.020818
0.101062
-0.17914
-0.156937
-0.107106
0.0682368
-0.177252
-0.548928
-0.127772
-0.457124
-0.546508
-0.0949157
0.414649
0.0207796
-0.00480404
-0.082931
-0.0354697
-0.0468187
-0.0017902
0.512554
-0.18772
-0.544944
-0.37296
0.00985881
-0.463875
-0.185171
-0.040906
-0.552596
0.181902
0.108334
-0.0658951
-0.529452
-0.531791
0.0231923
-0.523556
-0.28661
-0.553428
-0.500969
-0.262997
-0.0152928
-0.0737131
-0.430921
-0.116652
-0.112548
-0.195549
-0.52863
-0.34655
0.0580597
0.049165
-0.0215583
0.0390219
-0.551589
-0.0712361
0.0314513
-0.55086
-0.168636
-0.0120113
0.055907
-0.012053
-0.358779
-0.0608226
0.484379
0.0578121
-0.0178965
-0.0218511
0.322054
-0.364655
-0.195888
-0.0460373
-0.199807
0.0284649
-0.0870217
-0.129873
-0.542054
-0.0705017
-0.540617
-0.0319165
-0.0218435
-0.019684
-0.0953249
-0.021168
-0.0224178
-0.307567
-0.208636
-0.253475
-0.0466197
-0.522227
-0.0652097
-0.00938537
-0.552898
-0.256626
-0.13671
0.447636
-0.0208839
-0.551032
0.0643901
0.0327927
0.0736379
-0.0352053
-0.123714
-0.0265986
-0.0733061
0.155602
-0.0329607
-0.0706888
-0.00114943
-0.0153273
-0.0812876
-0.0492409
-0.360701
0.0514999
-0.313272
-0.0967647
-0.36181
-0.0776303
-0.178101
-0.0327382
-0.493132
-0.0678954
-0.0360683
-0.553171
0.289379
0.343021
-0.164997
0.14229
-0.193656
0.0328863
-0.52724
0.0328286
-0.0202491
0.333556
-0.106591
-0.546616
-0.553141
-0.343803
-0.510953
-0.369595
-0.509711
-0.0353627
-0.114409
-0.133246
-0.4516
0.104082
-0.50436
-0.122602
-0.0676023
0.0429481
-0.00607161
-0.430227
0.493114
-0.0942927
0.0067394
-0.00811092
-0.115732
-0.191866
-0.47278
-0.235635
-0.0101967
0.422016
-0.314346
-0.456067
-0.283128
-0.0408569
-0.0932842
-0.461799
-0.0207959
-0.322833
-0.132031
0.00940048
-0.0828315
-0.319275
0.358314
0.038162
-0.181263
-0.102112
-0.399052
-0.103708
0.0248522
-0.08307
-0.534544
-0.0224444
0.0143401
0.496813
-0.550578
-0.234489
-0.268213
-0.109514
0.0764664
0.0225156
-0.551299
-0.124254
-0.0616379
-0.154912
-0.00790835
-0.00788368
0.508847
0.0193184
-0.010616
-0.00256005
-0.23566
0.0531462
-0.114292
-0.190807
-0.413112
-0.358595
0.0250226
-0.104661
0.17254
-0.424717
-0.310606
0.131939
-0.348361
-0.174676
-0.45377
-0.00784719
-0.528101
-0.0657403
-0.00835327
-0.0984912
-0.0347574
0.454741
-0.339152
-0.0648006
0.50355
-0.48749
-0.0256222
0.0508874
-0.0381047
-0.120038
-0.108761
-0.0363598
-0.542327
-0.0328045
0.400617
0.00424674
-0.444172
-0.0981112
0.102585
-0.548986
-0.127625
-0.034425
-0.153454
-0.411518
-0.165116
-0.0509236
-0.518871
-0.0336742
-0.487085
-0.0699598
-0.553733
-0.0332425
0.257137
0.0586353
-0.0168128
-0.292233
-0.417271
-0.379948
-0.309608
0.00409504
-0.235896
-0.0236824
-0.540993
-0.0750962
0.0347299
-0.0533128
0.15936
-0.055276
-0.214784
-0.220871
-0.527847
-0.240275
-0.0701966
-0.0663754
-0.336892
0.0544552
-0.228212
-0.0348125
-0.00420695
-0.458741
-0.42793
-0.347306
0.283979
-0.00573705
-0.432176
-0.0259363
0.0622746
-0.55215
-0.55539
0.0182915
0.0100694
-0.124097
0.0930294
0.0476481
-0.294289
-0.473865
-0.0461646
-0.0353973
0.0230643
-0.0119379
0.232701
-0.0500975
-0.0411376
-0.330901
-0.101376
-0.0418391
-0.154308
-0.522529
-0.170587
-0.0928101
-0.552394
0.0104529
-0.460178
0.154843
0.189733
-0.0746734
-0.516679
-0.553926
-0.118459
-0.0181329
-0.251016
-0.050202
0.102562
0.0399359
-0.0445361
0.0384513
-0.522887
-0.109156
-0.228066
0.0244443
-0.428336
-0.131569
-0.00730172
0.432998
-0.0350033
-0.0946208
-0.178639
0.0379247
-0.548477
-0.0192639
0.455163
0.0308427
-0.0124618
-0.553743
-0.163327
0.0743667
0.1679
-0.136652
-0.223929
-0.154971
-0.110679
0.00502132
-0.117323
-0.170397
0.072536
-0.0494926
-0.0118934
-0.156378
-0.0891113
-0.0813426
-0.298486
-0.0343905
-0.12797
0.0878712
-0.536791
-0.532125
-0.539787
-0.528874
-0.443572
0.0440531
-0.0637705
-0.217567
0.0497622
0.034845
-0.539863
-0.383331
0.0534596
-0.0955381
-0.132585
-0.136848
-0.15613
-0.456733
-0.00958161
-0.10202
-0.139337
0.0103769
-0.00448607
-0.151282
-0.0403987
-0.0581977
0.041216
-0.373222
-0.156688
-0.198849
-0.31127
-0.41234
-0.319068
-0.0305464
-0.217037
-0.160079
-0.540853
-0.074586
-0.0668385
-0.148618
0.506781
0.0322572
0.0118279
-0.23445
-0.117426
-0.555293
-0.527548
0.151027
-0.480755
-0.0236614
-0.0409375
-0.514572
0.282971
0.00320765
-0.381916
-0.106589
0.0538719
0.0239996
-0.277371
-0.0509785
-0.413205
-0.279512
-0.545745
-0.387938
-0.116141
-0.22913
-0.555157
0.00428431
0.0193888
-0.264997
-0.0327704
0.170746
-0.549672
-0.0804185
-0.186475
-0.174214
-0.0763818
-0.415553
-0.0367884
-0.194236
0.00980192
-0.536103
-0.0510365
-0.00796268
-0.13494
-0.347647
-0.0116701
0.00277416
-0.52953
0.0444347
-0.281659
-0.0409572
-0.541618
-0.514289
-0.241136
0.30682
-0.0158519
-0.0718332
-0.16428
-0.198884
-0.0401341
-0.0748105
-0.0110637
-0.169596
0.022951
-0.154456
0.0513217
-0.0460302
-0.536273
-0.0443498
-0.108996
-0.106597
0.00481954
-0.141674
-0.0394872
-0.086992
-0.334375
-0.114248
-0.0442896
0.0360918
-0.537501
-0.11462
-0.379917
-0.0396175
-0.201858
-0.0659317
-0.197564
-0.168426
-0.149543
-0.441882
-0.458809
-0.431634
-0.456441
0.114889
-0.181704
-0.00379797
-0.512439
0.0686209
-0.0644916
0.0273102
-0.174543
-0.0636697
-0.437903
-0.220569
-0.141069
-0.505656
0.345254
-0.00982399
-0.435233
0.141648
0.0504473
0.0634106
0.0242137
-0.239588
0.0303345
-0.0820888
-0.0429664
-0.127394
-0.528153
-0.104466
0.0200447
0.0260135
-0.44357
-0.0357007
0.00871583
-0.118513
-0.0804871
-0.124083
-0.0162058
-0.094097
0.327797
0.0879949
-0.460372
-0.553228
-0.136369
-0.494178
-0.0316111
0.00756702
-0.000273418
-0.0767598
0.122368
-0.0601171
-0.193573
-0.0360659
0.0316512
-0.0415354
-0.353262
-0.0363063
-0.0314154
0.105507
-0.545565
-0.060471
-0.114944
-0.121481
0.0128518
-0.468935
-0.163788
0.312393
0.161032
-0.0105239
0.0574622
-0.184649
-0.451266
0.0576714
-0.063345
-0.106147
-0.135897
0.0431309
-0.551033
0.00190193
-0.238576
-0.063375
0.136092
-0.0278663
-0.0141593
-0.398612
-0.529602
0.274425
-0.0292117
-0.549607
0.0265905
-0.377099
-0.0881141
-0.0304955
-0.328529
-0.200295
-0.256662
0.0225365
-0.067383
-0.554718
-0.0617916
-0.026
-0.0811099
-0.149603
-0.000946988
-0.0448456
-0.0665648
-0.102168
-0.310539
-0.420276
0.321259
-0.29978
-0.0324165
0.00583595
-0.143176
-0.0380193
-0.17977
0.120233
-0.0599078
-0.239133
0.0076316
0.00935239
-0.45331
-0.00932397
-0.529313
0.0121147
-0.48243
-0.110111
-0.323348
-0.00806546
-0.00691668
-0.460772
-0.0355271
-0.0797304
0.0521256
-0.355523
-0.514034
-0.174851
-0.14463
0.0258237
-0.350915
0.066513
-0.206731
-0.0540387
0.014108
-0.551605
-0.196545
-0.506043
-0.0696545
-0.237403
-0.222435
-0.55276
-0.379379
-0.437942
-0.183714
-0.0364692
-0.472217
-0.0548821
-0.054651
-0.40803
-0.167688
0.0697144
0.250878
0.0407831
-0.0400045
-0.121848
-0.476991
-0.105798
-0.00887284
-0.55647
0.0198557
-0.0384871
-0.0434426
-0.0116978
0.00851582
-0.356785
-0.321372
-0.542639
-0.0374532
0.0605528
-0.0138818
0.354326
-0.0328911
0.464991
-0.326345
-0.100225
-0.0344025
-0.524874
0.149363
-0.494308
0.484655
0.0129579
0.0315809
0.0774005
0.113726
0.499799
-0.378051
-0.547957
-0.065838
0.515095
0.0121263
-0.238748
-0.0128658
-0.549212
-0.147201
-0.0856268
-0.0968515
-0.0736492
-0.027291
-0.277765
-0.548204
-0.0313004
-0.0876105
-0.0219182
-0.432374
-0.0860061
-0.517309
-0.0405532
-0.511567
0.023716
-0.0268614
-0.283089
0.441289
0.0187488
-0.198776
0.00895418
-0.350935
0.121523
-0.312547
-0.193171
-0.541624
-0.0356365
-0.0547189
-0.12658
-0.0355963
-0.126616
-0.142075
-0.012624
-0.0258065
0.0135888
-0.0184876
-0.0751121
0.00811446
-0.529804
-0.313676
-0.308717
-0.101771
-0.471064
-0.48694
-0.0346404
-0.153426
-0.0360445
0.497694
-0.0632741
0.0289689
0.0129129
-0.0153794
-0.051167
-0.297567
-0.0770918
0.394048
-0.0449289
0.16818
-0.0328226
0.466186
0.0031183
-0.162265
-0.137286
-0.203494
-0.549324
-0.0151848
-0.135155
-0.268222
-0.0520556
-0.0353427
-0.00600662
-0.0570235
-0.540329
-0.0637212
-0.0505163
-0.338504
-0.208148
0.200133
-0.248159
0.0119741
-0.211048
-0.151477
-0.0338356
-0.369469
-0.071196
-0.0638263
0.0274695
-0.0695196
0.00854556
-0.320826
-0.102277
-0.0353304
0.36591
-0.17217
-0.0119519
-0.0496539
-0.0237679
0.391318
-0.345819
-0.259475
-0.0874073
-0.190849
0.00267764
0.0183763
-0.0914044
-0.00949527
-0.335413
0.0267783
-0.139207
-0.486228
-0.162349
-0.0339893
-0.0516124
-0.232794
0.0034015
-0.283528
-0.157539
-0.293632
0.100062
-0.550564
-0.254559
-0.0149892
-0.321041
-0.320366
-0.10879
-0.518342
-0.138077
-0.0959278
-0.300632
-0.0207948
-0.307589
0.26947
-0.292298
-0.0121331
-0.00423959
-0.0352493
0.17626
-0.153198
-0.16281
-0.486565
-0.55482
-0.0424979
0.00873599
0.513061
-0.0915006
-0.343791
0.0136086
-0.0154261
-0.210069
-0.0877699
0.0124139
-0.157794
-0.518041
-0.374009
-0.521253
0.353157
-0.367128
-0.0422089
-0.501507
-0.0409232
-0.455473
-0.384326
-0.0642691
-0.0745248
-0.030574
-0.546826
-0.331738
-0.295538
-0.0732559
-0.536277
-0.0524513
-0.442994
-0.0833643
0.0117259
-0.164335
-0.494899
-0.161568
-0.250763
-0.0790669
0.0132913
0.0529879
-0.188984
-0.13241
-0.517592
-0.348262
-0.0400452
-0.549888
-0.364969
-0.0673313
-0.0133019
-0.00544551
-0.0573133
0.409815
-0.00737816
-0.235553
0.310265
0.188293
-0.0546399
-0.160552
-0.532548
-0.395042
0.0198241
-0.0439569
0.298392
-0.0778105
-0.540658
-0.0595922
0.143713
0.314954
0.408244
-0.0654299
0.00741292
0.327168
-0.427053
-0.534438
0.368656
-0.0310432
-0.00786387
0.423621
-0.403928
0.0376252
0.287791
-0.326905
-0.0359485
-0.328817
-0.3147
0.426234
0.0105934
-0.0270058
-0.307941
-0.535441
-0.0378223
-0.092972
-0.029012
-0.0726922
-0.0276517
-0.220149
-0.0104456
0.0671565
0.407948
-0.162958
-0.372123
0.0640782
-0.0948612
-0.084374
-0.525541
0.276999
-0.552003
-0.0638886
0.101144
-0.554591
0.342596
0.0365016
0.0468488
-0.441588
-0.305526
-0.450382
-0.014524
-0.0206824
-0.0283315
-0.397464
-0.0132876
0.434837
0.472228
0.384785
-0.111776
-0.444065
-0.549293
-0.0254129
-0.522354
-0.00816487
0.214979
-0.0343058
-0.0587971
-0.246532
-0.506682
-0.0110748
-0.554426
-0.350296
0.334141
-0.405813
-0.0341622
-0.00591186
-0.155412
-0.0778505
-0.536185
-0.532992
-0.0111404
-0.378471
-0.0189108
-0.0504821
-0.05609
0.0255416
-0.549378
-0.0924989
-0.543784
0.286391
-0.0657407
0.45239
-0.513076
-0.0586358
-0.549261
-0.0980332
-0.0537185
0.0189485
-0.0760308
0.473184
0.332783
-0.495766
0.0176623
-0.0745818
0.0826895
-0.00956153
-0.11893
0.0699514
0.13678
0.207828
0.00828864
-0.0370222
-0.0383545
-0.227231
-0.0401319
-0.0511058
0.322349
0.0136971
-0.0217396
-0.225039
-0.0243982
-0.485049
-0.0672566
0.490741
0.0194186
0.300449
0.00121399
-0.227079
-0.0832406
-0.075205
0.10689
-0.546726
-0.0656113
0.318924
-0.0811691
-0.179034
-0.21416
-0.0471401
-0.488984
-0.0113867
-0.492972
-0.323151
-0.0392954
0.267195
-0.446653
0.330364
0.0131942
-0.249009
0.467794
-0.441721
-0.363464
-0.0659381
-0.320483
0.0303684
-0.0123358
-0.122381
-0.203769
-0.00629988
-0.057866
-0.551893
-0.127056
-0.551641
0.394715
-0.541901
-0.455501
-0.0370549
-0.097654
-0.0452868
0.108734
-0.420674
-0.4631
0.0288093
-0.0451219
-0.0460649
-0.533017
-0.176556
-0.227878
-0.0847174
0.349902
-0.548433
-0.524306
-0.00751837
-0.555953
0.029769
0.0961608
0.11669
-0.0932066
-0.188052
0.095976
-0.0741417
0.241026
-0.144383
-0.0911466
-0.527585
0.169713
-0.0319475
-0.121062
0.0255758
0.48788
-0.259279
0.0507346
-0.551821
-0.541988
-0.156795
0.0974714
-0.106129
-0.541041
-0.00436411
-0.0569133
-0.0350726
-0.0337409
0.0599697
-0.548734
0.0182046
-0.317268
-0.0161568
-0.0599525
0.468334
-0.0691172
-0.0352173
0.00385944
0.0205295
-0.363144
-0.0459234
-0.5491
-0.0634558
-0.0900656
-0.0902557
0.0528629
0.375017
-0.0467077
-0.00369411
-0.0429476
-0.130008
0.286767
-0.103655
-0.0819351
-0.0216831
0.0563045
-0.154696
-0.494226
0.0691369
0.00430778
-0.0502228
-0.0419409
-0.479672
-0.0199159
-0.0520335
-0.111279
-0.519466
-0.0173876
0.162515
0.0100944
-0.000669414
-0.196362
-0.551884
-0.172795
-0.212287
-0.106199
-0.132917
0.0378183
0.344677
-0.460704
-0.0732954
-0.324652
-0.0816617
-0.163985
0.0180231
0.0188674
0.499274
-0.11591
-0.396328
-0.318723
-0.0441472
0.00585394
-0.554181
-0.0321808
-0.152283
0.0113371
-0.0151988
-0.547638
-0.418831
-0.038256
-0.008576
-0.0645504
0.0046353
0.00982527
0.0310704
0.174552
-0.397631
-0.0252614
0.0358212
0.453934
-0.0048945
-0.389341
0.0129902
-0.0605682
-0.135655
-0.0145555
-0.299792
0.0414175
0.255266
-0.00288907
-0.0604706
-0.535517
-0.549261
-0.0107268
-0.160612
0.193018
-0.0172985
0.0766522
-0.00662889
-0.074631
-0.44955
-0.353174
-0.101358
-0.247708
-0.0756996
-0.537016
-0.285911
-0.0740215
-0.488097
0.0505049
-0.206616
-0.310014
-0.0497637
-0.528006
-0.447079
-0.0859807
-0.047571
-0.114177
0.0996039
-0.0445419
-0.0509489
-0.150699
0.29681
-0.0493914
0.0945648
-0.196918
0.025018
0.427247
-0.116469
-0.133871
-0.45728
-0.540513
0.166345
0.104451
-0.104774
-0.548054
-0.257499
0.0580619
-0.0452835
-0.0290981
-0.0425045
-0.156558
-0.179462
-0.325568
-0.0524105
-0.526565
-0.0103666
-0.0800496
-0.0580555
0.321544
-0.339269
0.329118
0.355302
0.0480219
0.1617
-0.0232547
0.0671035
-0.00426614
-0.0719934
-0.168961
-0.13578
0.00461684
0.0954424
-0.435219
-0.0250434
-0.0553111
0.101968
-0.548303
-0.355386
-0.289533
0.202792
-0.00740073
-0.0310332
0.191317
-0.0827251
0.023524
-0.0345631
-0.0714611
0.0291274
-0.0986432
-0.359108
-0.0261638
-0.0432899
0.220774
-0.0204258
0.0889954
0.12922
0.0173599
-0.00302876
-0.548525
-0.0376244
0.0132866
-0.0380336
0.0510153
-0.03756
-0.543421
-0.10124
-0.405742
-0.0160923
-0.0560316
-0.0638252
-0.52811
-0.103562
0.0344545
-0.0454812
-0.359454
0.102869
-0.244524
-0.0229642
-0.382039
-0.0151075
-0.0373604
-0.518056
-0.0535106
0.0371905
0.0147836
-0.0631906
0.0806011
0.029297
-0.00534166
0.305975
0.502947
-0.549788