/*--------------------------------*- C++ -*----------------------------------*\
| =========                 |                                                 |
| \\      /  F ield         | OpenFOAM: The Open Source CFD Toolbox           |
|  \\    /   O peration     | Version:  v2012                                 |
|   \\  /    A nd           | Website:  www.openfoam.com                      |
|    \\/     M anipulation  |                                                 |
\*---------------------------------------------------------------------------*/
FoamFile
{
    version     2.0;
    format      ascii;
    class       surfaceVectorField;
    location    "700";
    object      Uf_0;
}
// * * * * * * * * * * * * * * * * * * * * * * * * * * * * * * * * * * * * * //

dimensions      [0 1 -1 0 0 0 0];


internalField   nonuniform List<vector> 
20673
(
(1.15497 0.148957 0)
(1.16067 0.14531 2.68947e-20)
(1.15382 0.14213 2.32322e-20)
(1.03915 0.0516156 4.84905e-22)
(1.03742 0.0510944 -6.93499e-21)
(1.03819 0.0535713 8.98327e-21)
(0.471507 -0.170337 1.09515e-20)
(0.508157 -0.1782 -1.91376e-20)
(0.54513 -0.184404 -1.29325e-20)
(1.06102 -0.0411118 1.29475e-20)
(1.0621 -0.0395043 -1.54748e-21)
(1.06014 -0.0395128 1.96564e-21)
(0.996913 0.0114651 -1.3625e-21)
(0.996664 0.0111018 1.75385e-21)
(0.996458 0.0120781 2.81762e-21)
(0.376153 0.144832 -3.07261e-21)
(0.364338 0.118394 4.15861e-20)
(0.34804 0.147332 5.91087e-20)
(0.444298 -0.151323 5.62854e-21)
(0.432077 -0.152462 -2.93572e-21)
(0.499282 -0.164379 8.55055e-21)
(0.508146 -0.175827 1.28419e-20)
(0.452937 -0.165767 2.35612e-20)
(0.468767 -0.170877 2.20296e-20)
(0.162735 -0.0715108 -6.49832e-20)
(0.130905 -0.0636545 -1.85288e-19)
(0.101146 -0.05914 -1.05586e-20)
(1.21284 0.182016 0)
(1.22147 0.182032 4.6745e-20)
(1.21794 0.190134 -3.2209e-20)
(1.13568 -0.209911 1.30579e-20)
(1.13085 -0.21026 -3.23912e-20)
(1.13368 -0.214735 1.67091e-21)
(1.08924 -0.134396 1.26556e-20)
(1.08876 -0.138032 3.65671e-20)
(1.09256 -0.135303 2.79504e-20)
(1.06193 -0.0422059 9.0983e-21)
(-0.251774 0.00910223 5.07285e-20)
(-0.267507 0.0037803 4.07651e-20)
(-0.257103 0.00746888 -2.6825e-20)
(0.994528 0.127861 1.63756e-22)
(0.989596 0.127792 2.4247e-21)
(0.992494 0.123035 2.4074e-21)
(1.01952 0.118565 1.23172e-21)
(1.01626 0.116053 -1.34394e-21)
(1.02042 0.113755 8.43132e-22)
(1.03225 0.0609768 -2.07017e-21)
(1.03395 0.0601634 0)
(1.03217 0.0589637 0)
(1.22031 -0.0202964 1.46244e-20)
(1.22229 -0.0160029 6.92989e-20)
(1.22554 -0.0220884 7.30336e-20)
(1.08594 -0.134201 -3.3134e-20)
(1.08873 -0.131345 -3.38512e-20)
(1.00275 0.00765112 1.69218e-21)
(1.00273 0.00728616 -1.63812e-21)
(1.00244 0.00709239 1.89636e-22)
(1.00002 0.00200041 -2.04051e-22)
(1.00002 0.00265694 -2.5524e-21)
(1.00003 0.00199803 -2.78707e-21)
(0.446311 -0.15082 -2.32677e-21)
(0.398471 -0.145428 1.57177e-20)
(1.00249 0.0125405 -8.41957e-23)
(1.0027 0.0132279 5.62214e-23)
(1.00281 0.0128887 -1.20821e-22)
(0.557301 -0.190314 -1.66852e-20)
(0.562941 -0.190407 -1.61405e-20)
(0.998816 0.0265658 -3.57056e-21)
(0.99825 0.0265935 -6.03049e-21)
(0.998833 0.0274511 -6.32116e-21)
(0.55299 -0.155912 1.25195e-20)
(0.505665 -0.145264 -8.78697e-21)
(0.496496 -0.147392 1.94317e-20)
(0.791116 0.0878743 -1.60301e-20)
(0.78243 0.0945431 -6.21644e-22)
(0.78271 0.082162 3.86473e-20)
(0.769813 0.178023 -3.90424e-20)
(0.76897 0.191047 -3.53918e-20)
(0.759451 0.18251 1.14312e-20)
(0.737898 0.648252 -2.16495e-21)
(0.770241 0.660118 6.96137e-21)
(0.747304 0.695264 6.46632e-21)
(1.30211 0.106087 5.40828e-20)
(1.30223 0.0987795 -1.96833e-20)
(1.30973 0.101031 0)
(1.18017 0.129796 0)
(1.1757 0.134226 -8.88947e-22)
(1.17392 0.127853 -2.90053e-20)
(1.10504 0.106353 1.16536e-20)
(1.10118 0.107737 1.32225e-20)
(1.10183 0.10308 0)
(0.84877 0.117713 -4.10879e-21)
(0.841135 0.121319 5.47568e-20)
(0.84156 0.111451 2.1386e-20)
(0.90736 0.0373848 4.83323e-21)
(0.909684 0.0338234 -3.26164e-20)
(0.91153 0.0375394 -4.74401e-21)
(0.994173 0.0246234 0)
(0.993795 0.025643 0)
(0.994586 0.0255676 4.6928e-21)
(1.10807 -0.25454 -4.89964e-21)
(1.11226 -0.257678 4.4402e-20)
(1.1071 -0.261419 5.02175e-20)
(1.00222 0.0121158 -1.90589e-22)
(1.00239 0.0118485 -1.0704e-22)
(-0.105125 -0.0439923 -7.08674e-21)
(-0.135966 -0.0363255 1.09202e-20)
(-0.11912 -0.0396554 5.33236e-21)
(1.06756 -0.0523668 -2.56704e-21)
(1.0681 -0.0542222 3.50177e-20)
(0.290111 -0.0324968 4.1785e-21)
(0.266385 -0.024553 1.07203e-20)
(0.297209 -0.0315241 5.98574e-21)
(1.01184 0.00118645 2.39243e-21)
(1.01233 0.00114946 0)
(1.01138 0.000682523 4.41925e-21)
(1.00001 0.00132496 -1.3629e-21)
(1.00001 0.000630965 -1.48211e-21)
(0.999999 0.000669481 -6.12169e-23)
(1.02455 -3.0848e-05 1.45088e-21)
(1.02439 0.000342272 1.49679e-21)
(1.02405 3.61222e-05 3.99104e-21)
(0.708435 0.262003 1.37555e-20)
(0.725775 0.269839 -3.88439e-20)
(0.708367 0.285496 -3.64641e-20)
(1.05575 0.0223226 -1.10559e-20)
(1.05725 0.022966 -5.70183e-21)
(1.05727 0.0216255 -1.83854e-20)
(0.892586 0.056714 -1.50992e-20)
(0.890229 0.0522588 1.88076e-20)
(0.896049 0.0524977 3.6736e-20)
(1.2186 -0.0262951 -6.90484e-20)
(1.2147 -0.0199921 -6.63215e-20)
(1.2237 -0.0899719 -3.75009e-21)
(1.22092 -0.0844705 1.26824e-20)
(1.21771 -0.0901317 6.66572e-21)
(0.105422 0.237806 4.69898e-20)
(0.104536 0.271943 0)
(0.132715 0.248188 5.95369e-20)
(1.00488 0.00105364 -1.77061e-21)
(1.00531 0.000953471 -1.38919e-21)
(1.00523 0.00147534 0)
(1.12169 -0.0121989 4.05353e-20)
(1.12381 -0.0108818 3.23944e-20)
(1.12397 -0.013718 5.6628e-21)
(0.967848 0.0322639 -5.29757e-21)
(0.966335 0.0311803 -2.89395e-21)
(0.96639 0.0335521 5.52526e-21)
(0.0968152 0.207457 -9.45619e-20)
(0.0644592 0.251017 1.28129e-19)
(0.904733 0.0411073 4.12453e-21)
(0.902882 0.0367986 1.23142e-20)
(1.03237 0.0629927 -2.06637e-21)
(1.03037 0.0614753 2.21028e-21)
(1.12882 0.0249908 5.11255e-21)
(1.12811 0.0284298 1.47925e-20)
(1.13196 0.0271843 2.9062e-20)
(1.14175 -0.210241 -6.70608e-21)
(1.13677 -0.204559 4.02254e-20)
(1.00378 0.0453633 -2.98114e-22)
(1.0034 0.0436529 -3.23785e-22)
(1.00485 0.0445115 -5.9733e-23)
(1.1082 0.0392138 7.19694e-22)
(1.11153 0.0401597 -1.17518e-20)
(1.10885 0.0427982 -1.28598e-20)
(1.05428 0.022962 5.04759e-23)
(1.05421 0.0216298 1.56611e-20)
(0.234274 0.0511792 1.13806e-20)
(0.13818 0.0422555 8.78317e-21)
(0.172531 0.0441636 -5.2951e-20)
(1.04061 0.0503896 5.4138e-21)
(1.04117 0.0528364 4.25635e-21)
(-0.248688 0.0125093 -4.72065e-20)
(1.00278 0.00797461 -2.71507e-22)
(1.00307 0.00818633 5.96159e-22)
(0.386713 0.1805 0)
(0.408958 0.147076 4.9223e-20)
(0.784156 0.298251 4.92768e-21)
(0.725324 0.269858 6.50764e-21)
(0.464506 0.176098 -2.77783e-21)
(0.995497 0.00802128 -1.50696e-22)
(0.995053 0.00859404 4.5327e-21)
(0.987206 0.0127698 -7.03832e-21)
(0.987927 0.0123233 -1.01963e-20)
(1.25488 -0.181667 5.32399e-21)
(1.24978 -0.185615 8.1169e-20)
(1.25108 -0.187731 1.18931e-20)
(1.10919 0.165557 1.08959e-20)
(1.11615 0.165272 -1.7339e-20)
(1.11202 0.173213 2.13856e-20)
(0.997308 0.0109169 -3.09168e-21)
(0.997134 0.0118274 0)
(0.224488 -0.0839215 1.15983e-19)
(0.193994 -0.0790651 7.43457e-20)
(-0.370143 0.010557 3.03572e-20)
(-0.342362 0.00693787 3.17381e-20)
(-0.348954 0.00854585 -1.23796e-20)
(0.999595 0.0265055 4.10865e-21)
(0.999027 0.0253838 4.37378e-21)
(0.106632 0.306189 0)
(0.140733 0.319345 0)
(0.11046 0.343321 -1.78699e-20)
(1.06203 -0.140328 -2.36048e-20)
(1.06199 -0.137657 -1.18598e-20)
(1.06487 -0.138566 -2.39542e-20)
(-0.402845 0.012632 2.27283e-20)
(-0.370434 0.00600505 1.18386e-19)
(-0.39124 0.0120501 -5.43473e-21)
(1.07784 0.0193071 3.7954e-21)
(1.07996 0.0196281 -5.91282e-21)
(1.07867 0.0215833 -1.73754e-21)
(0.554425 -0.132074 -2.20322e-21)
(0.546845 -0.135366 1.58518e-20)
(0.602523 -0.143193 5.91954e-21)
(1.00006 0.00385492 0)
(1.00003 0.00452669 0)
(1.00005 0.00452853 -1.99258e-21)
(1.00036 0.00552729 0)
(1.00042 0.00601244 0)
(1.00038 0.0053437 0)
(0.995966 0.00793745 3.47995e-21)
(0.396751 0.205245 -6.01692e-20)
(0.40842 0.234798 1.23679e-20)
(0.428467 0.208481 -6.67368e-20)
(-0.0689962 -0.0539247 -2.14483e-20)
(-0.0860693 -0.0505368 -1.81362e-20)
(-0.151833 0.0393152 2.5167e-20)
(-0.182584 0.0372323 1.49338e-20)
(-0.175756 0.0375784 0)
(1.07563 0.0192434 7.96019e-21)
(1.07692 0.0174319 3.98267e-21)
(1.00096 0.00719476 2.81574e-22)
(1.00102 0.00701391 -2.34778e-22)
(1.0008 0.00653339 1.28842e-22)
(0.83583 0.331281 -9.84145e-21)
(1.04077 0.421935 1.25923e-21)
(1.11859 -0.0132948 9.47172e-21)
(1.11904 -0.0100526 -2.00403e-20)
(1.0247 -0.000302199 -1.0225e-20)
(1.02504 -1.41877e-05 1.14536e-21)
(-0.273461 -0.00861269 4.57277e-20)
(-0.304894 -0.00455519 -9.72421e-21)
(-0.291434 -0.0065694 4.02204e-20)
(1.27562 0.154304 1.03247e-21)
(1.26683 0.156938 3.29758e-20)
(1.27137 0.163157 3.17096e-20)
(1.03608 0.027525 4.74609e-22)
(1.03628 0.0263118 4.18797e-21)
(1.03498 0.0266211 6.67292e-21)
(0.986645 0.0770148 9.90258e-22)
(0.984676 0.0788398 -2.79633e-21)
(0.987624 0.0797651 -3.0034e-21)
(1.00112 0.404196 4.64315e-20)
(0.719266 0.300535 0)
(0.377625 0.0906226 5.03141e-20)
(0.405446 0.0811684 -1.01052e-19)
(0.382009 0.0563145 -2.34445e-20)
(1.18557 -0.176402 1.7234e-20)
(1.19049 -0.177078 1.67676e-20)
(1.18685 -0.182153 -1.06012e-20)
(1.22004 -0.0689731 -1.12947e-20)
(1.22544 -0.0690113 2.84487e-20)
(1.22284 -0.0639983 5.79361e-21)
(1.05823 -0.170787 -1.31398e-20)
(1.05527 -0.172819 -1.25053e-20)
(1.05474 -0.169797 -5.20718e-20)
(0.600437 0.201129 3.97591e-20)
(0.620274 0.185393 3.79285e-20)
(0.622988 0.212464 9.10272e-20)
(1.01548 0.00677703 -1.28785e-21)
(1.01605 0.00682351 4.43536e-21)
(1.0159 0.00735502 7.86161e-21)
(0.840074 0.0444939 -7.0175e-20)
(0.844278 0.0515131 -4.72268e-20)
(0.847754 0.0440898 1.84636e-20)
(0.69091 0.256201 1.16157e-19)
(0.708961 0.24534 1.92464e-20)
(1.08645 0.00770324 5.68528e-21)
(1.08812 0.00673551 -3.55555e-21)
(1.08621 0.00529358 0)
(1.0235 0.0141656 -2.90334e-21)
(1.02341 0.0134021 9.72093e-21)
(1.02426 0.0139405 -2.53338e-21)
(0.16778 -0.0600468 0)
(0.156495 -0.0563123 0)
(0.227897 -0.0650754 2.92815e-20)
(0.847908 0.582887 -2.02536e-21)
(0.817907 0.602389 7.04935e-21)
(0.860102 0.611356 0)
(1.22589 -0.0939618 3.28762e-20)
(1.22881 -0.0890858 -1.25419e-20)
(1.03581 0.059178 0)
(1.03621 0.0614543 0)
(1.17847 0.147715 -2.91725e-20)
(1.17338 0.151591 -1.44389e-21)
(1.18023 0.154506 9.52489e-21)
(-0.304834 0.0251223 4.40782e-20)
(-0.335752 0.0247742 3.85688e-20)
(-0.325208 0.0252687 0)
(0.306434 -0.0392999 -2.37649e-21)
(0.278879 -0.0309505 -5.19445e-21)
(1.08433 -0.152565 -1.63889e-20)
(1.08142 -0.152498 2.24605e-20)
(1.0823 -0.155415 1.62095e-20)
(0.16921 -0.0622046 4.27035e-20)
(0.109967 -0.0550021 0)
(0.950103 0.0349617 -2.31937e-20)
(0.949061 0.0373312 2.13303e-21)
(0.94789 0.0348341 -1.45721e-20)
(0.0939563 -0.0186599 7.1155e-20)
(0.10076 0.0102315 5.31643e-20)
(0.0646047 0.00571902 1.04581e-19)
(1.00457 0.0216433 -4.67862e-22)
(1.0049 0.0225266 -8.88282e-22)
(1.00436 0.0222773 -7.66287e-22)
(0.189611 0.201593 0)
(0.219172 0.179597 5.86328e-20)
(0.222042 0.215475 1.02864e-19)
(0.0178014 -0.0237845 9.32149e-21)
(0.029339 -0.0258775 -5.33282e-22)
(0.0417502 -0.0336591 3.12641e-20)
(0.908657 0.0486542 1.53028e-20)
(0.906312 0.0525341 -1.12623e-20)
(0.91112 0.0520811 -4.43031e-21)
(1.00005 0.00198731 -6.46287e-23)
(1.00003 0.00200038 2.54034e-22)
(1.25959 -0.178276 -3.42077e-21)
(1.25411 -0.176445 5.08926e-20)
(-0.0563209 -0.0211401 0)
(-0.0322721 -0.0300823 0)
(-0.0442474 -0.0280769 1.89633e-20)
(0.770893 0.165128 -5.78011e-20)
(0.78379 0.173551 0)
(1.00724 0.000917014 -2.88188e-21)
(1.00755 0.00131284 5.45313e-23)
(1.00769 0.000776534 -2.49967e-21)
(0.985959 0.0739469 8.03118e-21)
(0.988872 0.0748483 5.23179e-21)
(1.05157 0.0282717 7.29702e-21)
(1.05288 0.0292372 -4.56517e-21)
(1.05145 0.0297265 7.0988e-21)
(1.00681 0.000938147 3.87722e-21)
(1.00663 0.000475847 5.98625e-22)
(1.02162 0.00098158 1.26084e-21)
(1.02172 0.000761367 -4.39158e-21)
(1.02144 0.000819383 -6.82674e-21)
(0.349412 0.0948322 -2.04101e-20)
(0.101082 -0.0688379 1.61023e-20)
(0.0843879 -0.0631387 1.83022e-20)
(0.0738762 -0.05693 1.81295e-21)
(0.951209 0.0322126 -4.2727e-21)
(0.952724 0.034775 -6.9067e-21)
(1.05875 0.0236625 -3.87389e-22)
(1.05717 0.0244789 -1.61661e-21)
(1.00001 0.00199816 5.06784e-21)
(1.00002 0.00134506 3.85527e-21)
(0.932801 -0.0309913 1.0078e-19)
(0.987055 -0.0337828 2.3778e-20)
(0.875872 -0.0298245 3.90503e-20)
(0.611788 -0.203297 -5.13395e-21)
(0.551039 -0.189809 1.57029e-23)
(1.15561 0.155319 0)
(1.14933 0.151687 -2.0971e-20)
(0.584727 0.213834 0)
(0.584638 0.185523 -9.84181e-20)
(0.995117 0.00906961 0)
(0.994578 0.009148 -1.15889e-20)
(0.906476 0.0449349 -1.48447e-22)
(0.910958 0.0452745 5.47476e-21)
(1.11696 -0.253803 -1.34842e-20)
(1.10828 -0.249899 -1.47271e-20)
(1.1061 -0.243708 1.33142e-21)
(1.03436 0.0117908 0)
(1.0345 0.0125769 0)
(1.03345 0.0121429 7.31358e-21)
(0.967565 0.0458787 -1.73254e-22)
(0.965609 0.047196 -1.4447e-20)
(0.965749 0.0442994 -1.00543e-20)
(0.673977 0.262092 2.83213e-20)
(0.653432 0.269263 3.70859e-20)
(0.672948 0.285818 -4.99588e-20)
(0.987137 0.0135158 -1.934e-20)
(0.986436 0.0133138 -6.26311e-21)
(0.427216 -0.110783 -4.00652e-20)
(0.34968 -0.0969027 -2.36659e-20)
(0.417 -0.105559 6.50346e-21)
(0.835359 0.695773 0)
(0.842835 0.664527 0)
(0.806435 0.664862 0)
(0.969555 0.033615 -1.61523e-20)
(0.969668 0.0311617 7.21541e-21)
(1.03181 0.0095521 0)
(1.03211 0.0102753 3.73284e-21)
(1.03112 0.00989896 -3.44585e-21)
(1.09895 0.116883 -1.12841e-20)
(1.09418 0.117954 -1.49927e-20)
(1.09805 0.122623 -3.68005e-20)
(1.16347 -0.102781 -4.04858e-21)
(1.16608 -0.107166 -5.63528e-20)
(1.16745 -0.100759 -4.194e-20)
(0.114141 -0.0396569 -4.83289e-20)
(0.0778167 -0.0448178 2.10272e-20)
(1.13628 -0.156377 3.90569e-20)
(1.13997 -0.159196 1.7502e-20)
(1.13466 -0.160298 4.54704e-20)
(1.06527 0.224879 0)
(1.06854 0.218851 -6.49926e-21)
(1.07449 0.223479 -2.59176e-20)
(1.12409 0.0655332 -1.44489e-20)
(1.12137 0.0688059 1.67402e-20)
(1.11981 0.0647385 2.30419e-20)
(-0.0994101 0.0475476 0)
(-0.10849 0.0488866 9.59844e-20)
(-0.131804 0.0461141 -7.76847e-20)
(1.10252 0.166691 -2.21342e-20)
(1.10585 0.159986 2.36654e-20)
(1.02164 -0.2532 1.67264e-20)
(1.06507 -0.25522 4.00877e-20)
(1.08645 -0.25968 0)
(-0.442171 0.0158457 -1.02697e-19)
(-0.410312 0.0119931 -7.51128e-20)
(0.98614 -0.0273125 -6.92624e-20)
(0.868057 -0.0274476 2.18877e-20)
(0.949373 0.0747741 -6.94085e-21)
(0.946798 0.0770589 -1.56793e-20)
(0.945971 0.0732239 3.61675e-21)
(0.785901 0.0245224 1.97216e-20)
(0.781226 0.033103 1.53669e-20)
(0.774787 0.0234049 4.29854e-20)
(1.00016 0.00439419 1.03934e-21)
(1.00019 0.00421075 4.08354e-22)
(1.00009 0.00361799 1.20453e-21)
(1.1793 -0.177465 2.29759e-21)
(1.18271 -0.171494 2.50255e-20)
(1.08822 -0.153063 -1.02893e-20)
(1.08639 -0.149512 1.21461e-20)
(1.06067 -0.168975 -8.71869e-22)
(1.06147 -0.172012 -2.55158e-22)
(1.08666 0.00971886 -7.58486e-21)
(1.08479 0.00842481 -2.10054e-21)
(1.19309 -0.0882829 0)
(1.1896 -0.0916877 0)
(1.19488 -0.093726 0)
(1.04624 0.0194923 6.68592e-21)
(1.04755 0.0200545 5.17802e-21)
(1.04629 0.0208296 -2.5484e-21)
(0.836269 0.0384485 -1.19533e-20)
(0.832293 0.0464546 -4.21639e-20)
(1.09593 0.21639 1.48213e-20)
(1.08706 0.21598 1.07669e-20)
(1.09299 0.208383 -3.97601e-21)
(-0.41473 0.0299543 3.71254e-20)
(-0.432945 0.0305099 3.05522e-20)
(-0.403341 0.0297305 3.61508e-20)
(1.07266 -0.153722 1.51886e-20)
(1.07228 -0.156831 1.2573e-20)
(1.07565 -0.155229 2.39851e-20)
(1.03303 0.0710993 1.58687e-21)
(1.03346 0.0733996 3.05125e-21)
(1.03093 0.0722958 -7.13808e-22)
(0.571327 -0.149986 6.38766e-21)
(0.555656 -0.145581 0)
(0.639217 -0.157085 0)
(1.05699 0.246795 0)
(1.05396 0.252936 0)
(1.06331 0.252347 9.19748e-21)
(0.118648 -0.0713692 -2.33695e-20)
(0.134623 -0.078538 -3.67316e-20)
(0.157162 0.187168 -1.34427e-20)
(0.160497 0.225246 5.87713e-20)
(0.446506 -0.116927 1.46349e-20)
(0.51338 -0.122888 2.09228e-21)
(1.02303 0.0343647 1.64814e-21)
(1.02411 0.035053 -2.97434e-21)
(1.0231 0.035607 4.78172e-21)
(1.2839 0.152826 -9.01434e-20)
(1.27914 0.146677 -2.64218e-20)
(1.18747 0.131716 -2.95783e-20)
(1.18534 0.125343 0)
(1.03517 0.0113582 0)
(1.03411 0.0109735 0)
(1.00094 0.00740763 2.31768e-22)
(1.00113 0.00790097 3.46727e-22)
(0.956064 0.15668 9.93826e-21)
(0.951171 0.152769 1.058e-20)
(0.957737 0.151315 -2.84635e-21)
(0.6143 -0.167721 -5.17597e-21)
(0.603742 -0.168019 0)
(1.37703 0.173067 4.26594e-21)
(1.38445 0.170376 -8.13763e-20)
(1.38404 0.179828 -8.36225e-20)
(-0.0904504 0.048263 0)
(-0.0534821 0.0534081 0)
(1.17936 0.0222309 1.53251e-20)
(1.1789 0.0265809 3.26385e-20)
(1.1833 0.0240712 -4.06705e-22)
(1.08256 -0.178037 1.15173e-22)
(1.08003 -0.177519 9.89205e-23)
(1.08014 -0.180923 8.79382e-24)
(1.17844 -0.266869 2.78349e-20)
(1.1788 -0.271063 2.35068e-20)
(1.18633 -0.272137 2.76349e-20)
(-0.119263 0.0408688 5.14631e-20)
(-0.126967 0.0403294 -2.80046e-21)
(1.36413 0.230583 8.10056e-20)
(1.36577 0.222147 -5.54774e-21)
(1.37233 0.227156 2.02653e-19)
(1.0013 0.0141372 0)
(1.00125 0.013445 0)
(1.00106 0.0134648 -1.64521e-21)
(0.570459 0.123736 -4.68994e-21)
(0.577251 0.14378 2.97898e-20)
(0.551884 0.139921 5.47029e-20)
(0.799321 0.0835264 -1.75687e-20)
(0.799458 0.0949737 -2.22887e-20)
(1.01311 0.000440198 -5.22866e-21)
(1.01268 0.000436361 3.40188e-22)
(1.03578 0.0285223 1.35722e-21)
(1.03719 0.0283144 -3.90501e-21)
(0.899211 0.547496 -2.15398e-21)
(0.893158 0.517129 -5.83835e-21)
(0.923272 0.527156 1.49387e-21)
(1.15606 0.516329 0)
(1.13287 0.483011 5.27719e-20)
(0.907881 0.38301 0)
(1.09809 -0.0379529 1.31345e-20)
(1.09936 -0.0399019 0)
(1.10072 -0.0377405 2.05481e-20)
(1.00463 0.00127124 -1.89812e-21)
(1.00459 0.000791985 2.28716e-21)
(1.17796 -0.0925725 1.06004e-20)
(1.17583 -0.0880923 1.32279e-20)
(1.18158 -0.0888054 -5.89192e-20)
(1.16007 -0.105737 5.29108e-20)
(1.16001 -0.0997827 6.22628e-20)
(-0.390845 0.0120027 1.23852e-19)
(-0.396495 0.013132 -6.88611e-20)
(1.04495 -0.103286 -5.14536e-20)
(1.06995 -0.110082 0)
(1.14824 -0.10965 0)
(0.994514 0.023867 5.20941e-21)
(0.993969 0.0239869 3.63737e-22)
(1.00269 0.0460445 5.75829e-23)
(1.00412 0.046811 -1.81192e-21)
(1.21496 -0.0690435 3.75941e-20)
(1.21698 -0.0740725 3.30482e-20)
(0.5426 -0.172102 -1.1844e-20)
(0.612911 -0.183988 -1.42325e-21)
(0.58614 -0.181223 -3.87248e-20)
(0.969308 0.0442337 1.91662e-20)
(0.969601 0.0470002 1.47185e-20)
(0.418687 -0.152201 -1.09527e-20)
(0.401037 -0.150471 0)
(0.470902 -0.163228 -2.21162e-20)
(-0.454054 0.0185543 -3.47469e-20)
(-0.423786 0.0166978 -5.42964e-20)
(-0.449403 0.0180692 5.35144e-20)
(1.08545 -0.176031 0)
(1.086 -0.180065 -6.45267e-22)
(1.02291 0.0142686 -1.41417e-20)
(1.02363 0.0147517 -4.33185e-21)
(0.508627 0.472732 0)
(0.528932 0.508044 0)
(0.476422 0.510957 5.92375e-20)
(1.19959 -0.0677153 4.64845e-20)
(1.20474 -0.068404 3.46985e-20)
(1.20237 -0.0632513 -4.01213e-20)
(-0.456089 0.0251212 -4.37584e-20)
(-0.420832 0.0234816 0)
(-0.444118 0.0267785 0)
(1.00846 0.0268887 -1.16534e-22)
(1.00905 0.0272365 6.41119e-22)
(1.0087 0.0279793 2.55625e-22)
(0.34653 0.0606729 4.16062e-20)
(0.311508 0.0591558 0)
(1.02185 0.0336077 3.64638e-21)
(1.02284 0.0332104 1.40924e-22)
(1.30049 0.0661395 1.02526e-19)
(1.29499 0.0621927 -2.97323e-22)
(1.29405 0.069008 0)
(1.01163 0.00153138 -1.47795e-21)
(1.0114 0.00107573 1.01435e-21)
(-0.147114 -0.0398004 -9.00456e-21)
(-0.176441 -0.0346278 8.99367e-21)
(-0.153137 -0.037474 -3.42244e-20)
(0.14731 -0.0525154 6.89539e-20)
(0.136934 -0.049587 -6.41397e-20)
(0.203827 -0.056469 3.53883e-20)
(1.01954 0.122665 1.28735e-21)
(1.02354 0.120456 -1.3105e-21)
(1.25634 0.588573 6.60309e-20)
(1.22993 0.565928 0)
(1.27192 0.572331 0)
(1.12834 0.0659214 1.20912e-20)
(1.12589 0.0620799 2.17803e-21)
(1.02203 0.0142968 5.22283e-22)
(1.02205 0.0135604 -7.74276e-21)
(1.09872 -0.247556 -4.04155e-20)
(1.10333 -0.252919 -5.90217e-20)
(1.07001 -0.152324 -2.81197e-20)
(1.0729 -0.150725 -3.69486e-20)
(1.17562 0.0204551 0)
(1.17944 0.0179458 0)
(0.601289 -0.195838 0)
(0.553571 -0.188172 0)
(0.631475 -0.201122 0)
(-0.460879 0.0229675 -5.18913e-20)
(-0.479933 0.022612 -6.84055e-20)
(1.01629 0.00349171 -8.33964e-21)
(1.01673 0.00349121 -2.70623e-21)
(1.01645 0.0030445 -5.27895e-21)
(1.10888 0.104541 6.89957e-21)
(1.10843 0.109744 -1.19765e-20)
(-0.250851 -0.0115546 -7.17464e-20)
(-0.237586 -0.0139354 3.97462e-20)
(-0.1806 0.036778 2.57202e-20)
(-0.202875 0.0349795 -8.91337e-21)
(-0.181948 0.0365556 -9.556e-20)
(1.00015 0.00439952 4.69092e-23)
(1.00017 0.00507109 1.00443e-23)
(1.00961 0.0122646 -2.05355e-22)
(1.01021 0.0125143 -4.44898e-21)
(1.00995 0.0128851 1.17123e-22)
(0.358627 -0.0354731 -4.94819e-21)
(0.379368 -0.0419225 4.22412e-21)
(1.20358 -0.182716 9.30201e-20)
(1.19801 -0.183574 -2.76064e-20)
(1.20238 -0.189086 4.20236e-20)
(1.00009 0.000207 -2.81548e-22)
(1.00004 0.000158771 0)
(1.00009 0.000260202 -1.85967e-21)
(1.07247 -0.229674 0)
(1.0678 -0.226096 2.95039e-20)
(1.07229 -0.224945 0)
(1.29004 -0.0352052 0)
(1.2883 -0.0419189 0)
(1.28298 -0.0361142 0)
(0.795155 0.023754 3.19246e-20)
(0.790048 0.0147429 -6.28512e-20)
(1.14896 0.125947 0)
(1.15343 0.130529 0)
(1.15392 0.123606 0)
(1.00024 0.00489559 -1.05326e-21)
(1.00021 0.00412802 -6.94264e-22)
(1.01724 0.261958 0)
(1.01816 0.250468 0)
(1.00703 0.255993 1.24611e-21)
(-0.431912 0.0173567 6.05181e-20)
(-0.430967 0.0182232 5.34562e-20)
(-0.467346 0.0221489 7.71975e-20)
(1.04939 -0.00918217 -3.64027e-21)
(1.04927 -0.0103396 0)
(1.05065 -0.00990534 0)
(1.30497 0.17585 -7.84468e-20)
(1.29655 0.179855 -2.39914e-22)
(1.29839 0.169342 6.87024e-20)
(0.575513 0.232908 -2.52063e-22)
(0.591782 0.253612 -2.49305e-22)
(0.561738 0.260733 4.93227e-20)
(1.05026 0.0272767 -2.24976e-21)
(1.05161 0.0267107 3.00912e-21)
(1.00312 0.0421077 -6.64893e-22)
(1.00216 0.0428869 -9.18206e-23)
(1.13008 -0.136712 0)
(1.13279 -0.140093 0)
(1.12801 -0.140437 3.44043e-20)
(0.38312 -0.0532481 3.17692e-21)
(0.367757 -0.0472416 -2.19109e-21)
(0.361817 -0.0474661 6.00878e-21)
(1.13253 -0.154292 -4.44251e-21)
(1.13782 -0.152569 -2.80588e-21)
(0.959903 0.161273 8.08785e-22)
(0.953692 0.163501 0)
(0.999066 0.126963 -4.55482e-21)
(0.996779 0.131842 -1.77377e-21)
(1.00008 0.000452021 1.19179e-21)
(1.00008 0.000392327 -1.45213e-21)
(1.00003 0.000265472 -1.37168e-21)
(-0.0791067 -0.0135838 0)
(-0.067252 -0.0149046 0)
(0.243094 -0.0150004 0)
(0.316465 -0.0237683 1.53831e-20)
(0.309282 -0.0194422 2.21682e-20)
(1.0418 -0.21054 -1.93235e-21)
(1.04538 -0.213963 -2.84519e-21)
(1.04361 -0.213024 1.18722e-20)
(1.02139 0.0143568 7.55976e-21)
(1.02208 0.0148712 1.45988e-20)
(-0.402411 0.0188716 1.0506e-19)
(-0.371016 0.0172795 1.49063e-20)
(-0.380426 0.018701 2.32746e-20)
(-0.265538 -0.00121026 -4.25947e-21)
(-0.257711 -0.000975088 4.25381e-20)
(-0.295864 0.00671179 7.4671e-22)
(0.953236 -0.243877 2.54988e-20)
(0.982261 -0.250093 -4.21154e-20)
(0.553757 -0.130528 -1.09616e-20)
(0.512773 -0.126928 -4.95166e-22)
(1.0623 -0.142825 1.76964e-20)
(1.05955 -0.141641 -7.30647e-21)
(1.00031 0.005675 -1.60167e-22)
(1.00909 0.000994408 8.68655e-25)
(1.00863 0.00106663 0)
(1.00916 0.00155018 0)
(1.21732 -0.030357 6.18537e-21)
(1.21232 -0.030385 2.13748e-20)
(1.21555 -0.035271 2.95367e-21)
(-0.235835 -0.0187414 -3.95083e-20)
(-0.257451 -0.0135461 2.40604e-20)
(-0.264949 -0.0118823 -4.70345e-20)
(1.26743 -0.119904 -1.4409e-21)
(1.27192 -0.115386 1.78162e-20)
(1.27295 -0.123708 1.73103e-20)
(1.10485 0.0386621 2.09965e-20)
(1.10728 0.036261 -8.56811e-22)
(1.01657 -0.0967049 -7.79503e-20)
(0.941138 -0.096474 -5.02931e-20)
(1.07379 -0.102973 2.16273e-20)
(1.07297 -0.100586 1.38594e-20)
(1.02121 0.000445624 6.02377e-21)
(1.02128 0.000607268 -3.3672e-21)
(1.02137 0.000426812 -9.93501e-22)
(0.524314 0.0240986 5.21578e-20)
(0.520523 0.0195649 -7.10422e-20)
(0.434514 0.0153371 -9.42456e-20)
(1.00334 0.00732296 7.55864e-23)
(1.00331 0.00698275 2.29962e-22)
(1.003 0.00683266 -1.59982e-21)
(0.575928 -0.154382 4.05622e-20)
(0.500229 -0.14192 3.03935e-20)
(1.09673 -0.0353654 1.34073e-20)
(1.09524 -0.037596 1.74781e-21)
(1.0001 0.000160278 9.87451e-22)
(1.00015 0.000252087 -1.935e-21)
(1.02973 0.138232 2.20834e-21)
(1.02895 0.144038 7.90173e-21)
(1.02486 0.139061 2.1078e-21)
(1.06351 0.231844 0)
(1.0577 0.225645 0)
(0.776753 0.0439149 5.62182e-21)
(0.787396 0.0431303 -3.88514e-20)
(1.07705 -0.235921 8.99152e-21)
(1.07809 -0.233047 1.47443e-20)
(1.03177 0.18007 3.63123e-21)
(1.03271 0.187286 -5.96874e-21)
(1.02521 0.182934 0)
(1.05685 -0.00185898 4.62357e-21)
(1.05808 -0.000930923 1.03791e-20)
(1.05655 -0.000671887 4.92026e-21)
(1.37504 -0.00699066 1.78581e-21)
(1.37217 0.00141795 1.08956e-19)
(1.28792 -0.00818418 9.56792e-21)
(0.640699 -0.202837 5.39159e-21)
(0.567086 -0.191336 1.61825e-23)
(0.184723 -0.0147691 0)
(0.186034 -0.013435 0)
(1.00786 0.0267793 -4.05943e-22)
(1.00811 0.0260935 3.26405e-23)
(0.908846 -0.227024 -5.29901e-20)
(0.961135 -0.230929 9.08215e-23)
(0.887253 -0.220318 5.37433e-20)
(0.998483 0.00549576 0)
(0.998386 0.0058492 -1.53185e-21)
(0.998159 0.00598469 0)
(1.05589 -0.00288127 0)
(1.05746 -0.00325674 0)
(1.00421 0.0207044 -9.52613e-23)
(1.00474 0.0209793 6.10972e-22)
(0.867266 0.72948 1.45761e-20)
(0.817239 0.734186 -1.06745e-20)
(1.00242 0.00137658 -1.6738e-21)
(1.00262 0.00119663 -1.62433e-21)
(1.00226 0.00108386 1.05748e-21)
(1.30561 0.069684 5.22023e-20)
(1.30657 0.0630651 -4.11969e-20)
(1.14397 0.129595 0)
(1.14394 0.122702 0)
(1.04484 0.0188959 3.332e-21)
(1.04609 0.0182251 2.09755e-20)
(1.17969 -0.097253 1.19846e-21)
(1.17406 -0.0950428 -1.4686e-21)
(1.06406 0.0679806 -2.10602e-21)
(1.06478 0.0655365 -6.6592e-21)
(1.06708 0.0674969 7.00688e-23)
(0.126835 0.168911 2.15174e-20)
(0.113264 0.156664 -4.26642e-20)
(0.115898 0.185448 -8.45677e-20)
(1.06084 0.24007 0)
(1.05194 0.240943 0)
(1.26257 0.148727 1.0845e-21)
(1.25772 0.157317 2.62322e-20)
(1.04097 0.0112814 -3.88195e-21)
(1.04204 0.0118924 -1.32005e-20)
(1.04175 0.0107239 -4.78213e-21)
(1.00401 0.0413298 0)
(1.00283 0.0406717 -1.71255e-21)
(-0.318326 0.0267603 -1.94005e-19)
(-0.343051 0.0265333 -8.83588e-21)
(-0.345165 0.026511 -1.26554e-19)
(-0.0969869 -0.015882 2.18494e-20)
(-0.109697 -0.0141072 9.84178e-21)
(-0.0829559 -0.0242654 2.1138e-20)
(1.0051 0.0234583 -3.1406e-23)
(1.0054 0.0228328 -1.20475e-22)
(1.00998 0.000901778 -9.0518e-25)
(1.01054 0.00119481 -2.42029e-21)
(1.01001 0.00157764 0)
(0.516804 0.0234785 1.47046e-19)
(0.62714 0.0265772 1.71436e-19)
(1.0264 0.0313607 -3.64303e-21)
(1.027 0.0325832 3.27588e-22)
(1.02789 0.0316952 -1.17595e-21)
(-0.312769 0.00354817 2.54171e-20)
(-0.334366 0.0055118 2.31729e-20)
(1.03984 0.0109369 -8.2264e-21)
(1.04018 0.0121067 -2.0297e-20)
(-0.142243 -0.0411952 2.0753e-20)
(-0.117886 -0.0454445 -5.36503e-21)
(1.05323 -0.0254561 6.07205e-21)
(1.05205 -0.0261773 0)
(1.05324 -0.0268649 -1.61302e-20)
(1.30501 0.399842 0)
(1.28956 0.396869 1.65395e-20)
(1.29485 0.412405 0)
(1.14483 -0.0416446 -6.37517e-20)
(1.14554 -0.037743 -2.0162e-20)
(1.14896 -0.0405734 -9.67675e-22)
(0.1191 0.417315 6.77789e-21)
(0.115466 0.377855 -7.57483e-20)
(0.150404 0.391178 -6.14768e-20)
(0.953027 0.0754575 -5.71908e-22)
(0.951875 0.0717776 -9.33064e-21)
(1.08863 -0.0198172 -1.28042e-19)
(0.999873 -0.0193507 -5.12065e-20)
(0.528567 0.375595 -3.68634e-21)
(0.502645 0.388341 5.46248e-20)
(0.53121 0.408724 -9.24328e-20)
(1.03459 0.13786 -1.77818e-21)
(1.03094 0.134269 -1.49875e-21)
(1.20601 -0.178229 7.82494e-21)
(1.20957 -0.183773 6.34179e-20)
(0.993629 0.602535 3.22311e-21)
(1.01292 0.623267 -1.93881e-21)
(0.980416 0.627957 2.91452e-21)
(1.00963 0.0611568 -5.96662e-22)
(1.00783 0.0610418 3.53261e-22)
(1.00886 0.0630589 7.40741e-22)
(0.00175222 -0.0584196 4.68726e-20)
(-0.0306558 -0.0488071 1.34172e-20)
(-0.0142718 -0.0517083 3.18034e-20)
(0.584784 0.111378 7.43855e-20)
(0.563904 0.104566 6.423e-20)
(-0.24464 -0.00708239 0)
(-0.269369 -0.00256986 0)
(0.925609 0.0513765 -1.76148e-20)
(0.92207 0.0533395 1.24255e-20)
(0.925414 0.05571 -4.26622e-20)
(0.146667 -0.0269716 -3.89363e-21)
(0.122853 -0.0177641 -1.45876e-20)
(0.154068 -0.0257175 -1.27321e-20)
(1.11312 0.102804 1.11199e-21)
(1.11686 0.107098 5.31575e-21)
(1.11779 0.102051 -2.1327e-20)
(-0.210992 0.0312787 -1.65372e-20)
(-0.184831 0.0315806 -5.63383e-20)
(-0.178131 0.0310183 7.3174e-20)
(0.533217 0.343112 0)
(0.559746 0.365024 0)
(0.964072 0.423888 -6.99217e-21)
(0.945643 0.42127 -7.62784e-22)
(0.95623 0.440914 -1.6801e-21)
(0.984419 0.429877 -4.62519e-21)
(0.974421 0.409218 6.38366e-21)
(0.441847 -0.164787 5.18373e-20)
(0.399967 -0.159545 1.96518e-20)
(0.999936 0.00524824 6.01837e-21)
(0.999935 0.00590276 1.22252e-21)
(0.999959 0.00584074 3.23e-21)
(1.10462 0.214598 0)
(1.10132 0.223471 -1.96493e-20)
(-0.271015 0.0248836 7.07022e-20)
(-0.281391 0.025149 1.14185e-19)
(0.990563 0.048512 -7.41431e-22)
(0.989885 0.049795 8.942e-22)
(0.989099 0.047996 -9.14142e-22)
(1.02413 0.0960066 3.9995e-22)
(1.02452 0.0929288 2.1068e-21)
(1.02134 0.0940939 5.19514e-22)
(-0.234785 -0.00489155 2.9787e-20)
(-0.22346 -0.00571027 -2.23213e-20)
(0.874513 0.567643 -1.37857e-21)
(0.909597 0.576969 -8.93473e-21)
(1.03668 0.0660685 -1.29704e-21)
(1.03717 0.0681488 -9.32802e-21)
(1.03933 0.0668963 -1.38565e-20)
(1.17669 -0.260034 4.11603e-21)
(1.16618 -0.25913 -2.50578e-20)
(0.701546 0.642965 -3.34688e-20)
(0.728243 0.613171 -7.18865e-21)
(1.01293 0.00633985 2.15828e-21)
(1.01351 0.00660469 4.87285e-21)
(1.01335 0.00598846 2.65438e-21)
(0.00543575 -0.0217854 -2.17272e-20)
(-0.0106977 -0.0139775 -2.68517e-20)
(1.13911 -0.26269 7.97586e-21)
(1.13608 -0.267482 -2.26063e-20)
(1.13108 -0.257942 1.87787e-20)
(1.00336 0.00765881 -1.60369e-21)
(1.00367 0.00782545 -2.19489e-21)
(1.01561 0.0170825 4.13899e-21)
(1.01485 0.0167256 -2.39339e-21)
(1.01525 0.0175354 2.56884e-21)
(0.998429 0.00520496 7.67408e-21)
(0.998692 0.00500542 0)
(1.03265 0.00919282 0)
(1.03165 0.00887911 -3.27295e-21)
(1.41772 -0.00791792 5.33138e-20)
(1.37703 -0.0144836 -1.1229e-20)
(0.474516 -0.12319 7.98379e-20)
(0.498638 -0.129087 7.92684e-20)
(0.559032 -0.135064 -2.49056e-20)
(0.384721 -0.168278 -4.83528e-21)
(0.391843 -0.199916 9.34908e-20)
(0.350693 -0.189846 -3.998e-21)
(-0.292384 0.0263118 -3.78321e-20)
(-0.28868 0.0254065 -8.31001e-20)