/*--------------------------------*- C++ -*----------------------------------*\
| =========                 |                                                 |
| \\      /  F ield         | OpenFOAM: The Open Source CFD Toolbox           |
|  \\    /   O peration     | Version:  v2012                                 |
|   \\  /    A nd           | Website:  www.openfoam.com                      |
|    \\/     M anipulation  |                                                 |
\*---------------------------------------------------------------------------*/
FoamFile
{
    version     2.0;
    format      ascii;
    class       volScalarField;
    location    "300";
    object      p;
}
// * * * * * * * * * * * * * * * * * * * * * * * * * * * * * * * * * * * * * //

dimensions      [0 2 -2 0 0 0 0];


internalField   nonuniform List<scalar> 
13917
(
-0.0637445
-0.00864935
-0.0611283
-0.0396322
-0.00383964
-0.00848822
-0.0513953
-0.00536543
-0.0662494
-0.0748122
-0.00602215
-0.029992
-0.0268418
0.00301013
-0.00969705
-0.0629146
-0.000715949
-0.0071697
-0.0577232
-0.0673611
-0.0189564
-0.010397
-0.0557558
-0.0100991
-0.0346397
-0.0166642
-0.0071412
-0.0751881
-0.0111377
1.09845e-05
-0.0751158
-0.0681779
-0.0343282
-0.0610725
-0.00206841
-0.00485438
-0.0212265
-0.0101886
-0.0524682
-0.0251839
0.000963061
0.000581662
-0.0616888
-0.0622956
-0.0616888
-0.0335662
-0.0196799
-0.065112
-0.00746892
-0.00214618
-0.0296521
-0.0403346
-0.0557629
-0.0208668
-0.0221749
-0.0415093
-0.0723665
-0.0547737
0.000549559
-0.0321212
-0.0361533
0.000750884
0.000186641
-0.0346758
-0.0588435
0.000696721
-0.0097626
-0.00489697
-0.0065052
-0.0571626
-0.0585011
-0.060101
-0.0393205
0.000429854
-0.0191256
-0.0298758
-0.00607396
0.000393099
-0.0300291
-0.0345148
-0.0153512
-0.00120794
-0.0390533
-0.0603821
-0.0202414
-0.00383059
-0.0681175
-0.019788
-0.024711
-0.000690104
-0.000310819
-0.0628624
-0.00305109
-0.00190826
-0.0199449
-0.0103857
-0.00577026
-0.00340978
-0.0200944
-0.0122423
0.000168789
0.000100526
-0.0155737
-0.0041906
-0.00596867
-0.0618854
-0.0673693
0.000819175
0.000682018
-0.00688129
-0.0286494
-0.0614973
-0.0118056
-0.0700135
-0.0602565
-0.0278037
-0.0578804
0.000237787
-0.060635
-0.0385554
-0.001244
0.000130577
-0.00906081
-0.0503917
-0.0546726
-0.0599432
-0.0354544
-0.0184971
-0.00530895
-0.0513179
-0.0676791
-0.0216052
-0.0580539
-0.0271968
-0.0665767
-0.00591803
-0.0291678
-0.0531114
-0.0152817
-0.00989499
0.010639
0.000308124
-0.0626697
-0.0128734
-0.0371883
0.00126767
-0.0594041
0.00526886
-0.0733588
-0.0211224
-0.0251431
0.000342772
-0.036921
-0.0389162
-0.0048463
-0.00646255
-0.00408706
-0.0593624
0.000159671
0.00022405
-0.017552
-0.0596428
-0.0165311
0.00898538
-0.0535578
-0.0103796
-0.0561189
-0.054334
3.30053e-05
-0.0146557
-0.00954624
-0.060116
-0.0667875
-0.0317141
-0.0365442
0.000402731
-0.0403807
-0.0389551
-0.0675935
-0.0160497
-0.0596654
-0.00974697
-0.0290531
-0.0454127
-0.060186
-0.0204687
-0.0286951
-0.0444097
3.8828e-05
-0.004928
-0.0354644
-0.0619855
-0.0471223
-0.0656915
-0.00202084
-0.0552431
-0.036395
-0.0585364
-0.00211806
-0.00684876
-0.0210416
-0.0581883
-0.0529489
-0.0191196
-0.00881139
-0.0126318
-0.0255119
0.000228789
-0.0400615
-0.0147512
-0.00581557
-0.0027772
-0.00256358
-0.0688869
-0.0670729
-0.0160775
-0.0632122
-0.0136492
2.17395e-05
5.99353e-05
-0.057434
-0.0461512
-0.0431921
-0.0279113
-0.00013697
-0.00461839
-0.0560016
-4.92625e-06
-3.10125e-05
0.00023391
0.000113375
0.000146763
-0.0605742
-0.0642387
-0.0129528
4.37744e-05
-0.0436254
-0.0585436
0.000108695
-0.0276915
-0.00912738
-0.0631459
-0.0463872
-0.064263
-0.0340527
-0.0131725
-0.0513805
-0.0442267
-0.0124216
-0.057977
-0.0195526
-0.0687293
-0.0387619
-0.0335335
-0.0375728
-0.0122058
0.000997393
-0.0354289
-0.00344713
-0.00099111
-0.0555611
-0.00277252
-0.000189466
-0.000194306
-0.00643398
-0.000252988
-0.0390674
-0.0269256
-0.0458961
-6.58115e-05
-0.0534141
-0.0659537
-0.0259232
-0.00448319
-0.0302658
0.000409464
-0.0138693
-0.0559854
0.000388245
-0.0576718
-0.00105679
-0.0556082
0.000235847
-0.0102425
-0.0119921
-0.0115635
-0.0537355
-0.00805565
-0.00951935
-0.0327651
-0.00268061
0.0012671
-0.0111849
-0.0526432
0.000122868
-0.0495617
-0.00366867
-0.0261775
-0.00387967
-0.0309105
-0.00154648
-0.00787615
-0.036733
0.00133058
-0.0335068
-0.0310792
-0.0272205
-0.0573726
-0.057802
-0.00476033
0.00058001
-0.0268627
-0.00168388
-0.0691107
-0.0669064
-0.0329908
0.00014371
-0.0228168
-0.00450286
-0.0607147
-0.00269118
-0.0615746
-0.0266456
-0.00967351
-0.00969095
-0.00824402
-0.00824792
-0.0613153
-0.000360732
-0.0609769
-0.019975
-0.0799603
0.000618182
-0.0664272
-0.00791916
-0.0347454
-0.0127148
-0.000478155
-0.000298326
-0.0596962
-0.0622137
-0.0208219
-0.00790969
-0.0610301
-0.0635699
-0.0432394
0.00253115
0.000357795
-0.0144277
-0.0632514
-0.0239548
0.000321506
-0.00358597
-0.0251693
-0.0148849
-0.0346027
-0.0474388
-0.0281134
-0.0133488
-0.0750592
-0.0635914
-0.00534219
-0.0213811
-0.00354184
-0.0564875
-0.000168105
-0.0649145
-0.0757417
0.00173893
-0.0219727
-0.0259401
0.000656892
-0.00207431
0.00072715
-0.0443004
-0.0314981
-0.0119499
-0.0259194
-0.0572604
0.000636905
-0.0501417
-0.0471702
0.000799467
-0.00606822
-0.0105867
-0.000873603
-0.00220453
-0.0695654
-0.000487261
-0.0237091
-0.00620495
-0.0141711
-0.0196241
-0.0497787
-0.072797
-0.0250017
-0.0532801
-0.0158116
-0.0129952
-0.0608711
-0.0202056
-0.0575292
-0.0318609
-0.012278
-0.0119544
-0.00554781
-0.0312971
-0.0115078
-0.0216693
-0.00501864
-0.0106288
-0.0448497
-0.00422299
0.000532266
5.24676e-06
-0.0689057
-0.0251029
-0.0116088
-0.0239139
-0.0366117
-0.00373467
0.000602847
-0.0581908
-0.0603775
0.00062037
0.000452403
-0.0185772
-0.0119804
0.000504533
-0.0127069
0.000430425
0.000610542
-0.0568872
-0.0160349
-0.026172
-0.05359
-0.0485793
-0.00587159
-0.0362117
-0.0514834
-0.0201991
-0.0537277
0.000594588
-0.0272293
0.000666362
0.00022642
-0.0210852
-0.00979932
-0.0333269
0.00146188
-0.0620721
-0.0268764
-0.0613552
0.00160533
-0.0146486
-0.035268
-0.0421643
-0.0253835
-0.00194294
-0.00615846
-0.0111924
-0.0105612
-0.0109513
-0.00567619
-0.0172382
-0.0572133
-0.0339631
-0.00562845
-0.0117979
-0.0674598
-0.0274386
-0.0478609
-0.082137
-0.0532128
-0.0600138
-0.0629804
8.2599e-05
-0.00115883
-0.010115
7.47186e-05
0.00193973
-0.0192385
-0.0460935
-0.000438105
-0.0211597
-0.0205351
-0.0611206
-0.0215843
-0.0596336
-0.0595683
0.000967036
-0.00412272
-0.00774499
-0.02518
-0.0212767
0.00472952
-0.0503032
-0.0336409
-0.0463624
-0.0203987
-0.0247117
-0.0385828
-0.00957782
-0.0567529
-0.0115506
0.000248945
-0.0453887
0.000585832
-0.0130828
-0.035737
-0.0572326
-0.00983086
-0.0177341
-0.0457505
0.000714878
-0.042952
-0.024196
-0.0209913
-0.021764
-0.0175797
-0.0391014
-0.00472858
-0.00449296
-0.000100206
-0.00687042
-0.0125854
-0.00066108
-0.041261
-0.000331704
-0.0586646
-0.00957687
-0.0112443
-0.03212
-0.0659168
-0.00133158
-0.0513792
-0.00113226
-0.0611513
-0.0489894
-0.011927
-0.0376409
-0.0124941
-0.0301994
-0.00846951
-0.0584676
-0.0581074
-0.0542947
-0.00424768
-0.0100637
0.00111687
-0.0274139
-0.0599192
0.000477256
-0.00659293
-0.0372363
-0.0603543
-0.0133936
-0.0607248
-0.0769865
-0.00536296
-0.0786664
-0.00328929
0.000124596
-0.0595948
0.000558901
-0.0644179
2.3235e-05
-0.0273929
-0.0101248
-0.0598784
-0.00046035
-0.000401794
-0.0637654
-0.047317
0.00619949
-0.0591053
-0.0601838
-0.0509732
-0.00141299
-0.0556123
0.000198497
-0.0351558
0.00977102
0.000275822
0.000636872
0.000644618
-0.0500472
-0.0593351
0.000553857
-0.00349316
-0.0243069
-0.0594098
-0.0188841
-0.069294
-0.0208059
-0.000374031
0.000297204
-0.0348764
-0.0516359
-0.0743513
-0.0579704
-0.0420907
-0.0529701
-0.0580809
-0.00208881
-0.0467542
-0.0254072
-0.0793947
-0.0269917
-0.0574714
-0.0124017
-0.000721946
-0.0378005
0.00534185
-0.0475733
-0.0604104
-0.000726895
-0.0461849
-0.0029548
0.000493369
-0.064098
-0.00909253
-0.00242037
-0.0473098
-0.0274523
5.5605e-05
0.000245134
-0.0637875
-0.0192232
-0.00337196
0.000478455
-0.00257748
-0.0559349
-0.000122563
-0.0500204
-0.0017393
-0.00849922
-0.0360934
-0.069311
-0.0208185
-0.0517581
-0.0649869
-0.00453898
-0.0374569
-0.00530927
-0.00914664
-0.0664887
-0.0682749
-0.0192152
-0.0218401
-0.000546312
-0.00177161
-0.00672328
0.000775193
-0.047827
-0.0333063
-0.0465599
-0.048233
-0.0040956
-0.024992
0.00145608
-0.0377913
-0.0481575
-0.0581497
-0.00169429
1.9049e-05
0.000222292
-0.00877062
-0.00122859
0.00017005
0.000825031
-0.0148196
-0.0568391
-0.0751086
-0.00528144
-0.0615272
-0.000760127
-0.0659267
-0.000932941
-0.00501243
-0.0575123
-0.0501982
0.00182512
-0.0388573
0.00053953
-0.0040209
-0.0433272
-0.0522842
-0.0104378
-0.0528222
-0.0323938
-0.000905951
0.00232013
0.000115292
-0.0572241
-0.0452493
-0.00430773
-0.00279654
-0.0562141
-0.0063393
-0.0361718
-0.0532625
-0.00637435
-0.00802302
-0.00476593
-0.0202513
-0.0616364
-0.00117803
-0.0465997
-0.0426378
-0.050794
-0.0800813
-0.00488966
-0.0485276
-0.0739763
-0.0197397
-0.0340746
-0.00454041
-0.0516009
-0.00381734
-0.072032
-0.0249672
0.000674109
-0.0531072
0.000138305
-0.00817586
-0.0222784
-0.0103033
-0.0405723
-0.0684532
-0.00114759
-0.0802216
-0.0502816
0.000201304
-0.028341
-0.0256879
-0.0147716
-0.0260953
-0.0379046
-0.00464271
0.00175192
-0.0348652
-0.0492943
-0.00499158
-0.0701503
-0.065153
-0.0605722
-0.0482222
-0.0141332
-0.0773443
-0.00719333
-0.000730763
-0.0511208
-0.0333471
-0.0725228
-0.00692643
-0.0060267
-0.00649327
-0.0574941
-0.0335522
-0.000615619
-0.0783428
-0.0105236
-0.00566122
-0.0422516
-0.00831032
-0.00298007
-0.00150493
-0.0156271
-0.0634881
-0.0384742
-0.00580227
-0.0553242
0.000369808
0.00112874
-0.000471289
-0.00143138
-0.0372344
-0.0237473
-0.0117162
-0.00676085
0.00114718
-0.00613371
0.0118633
-0.0228804
-0.0608587
0.000618606
-0.0571848
-0.0102548
-0.0513386
-0.00262115
-0.000354851
-0.0659344
-0.0332847
-0.0555109
-0.059575
-0.00100583
-0.00560092
-0.00376869
-0.0282807
-0.0621132
-0.0498067
-0.00440921
-0.000229328
-0.0259722
-0.0718288
3.46214e-06
0.000496866
-0.00179197
3.94756e-05
-0.0543696
-0.0532057
-0.000666838
-0.0573152
-0.00078216
-0.000625559
-0.00195523
-0.0273711
-0.00504939
-0.0199546
-0.0260348
-0.00958558
-0.0772306
-0.000629275
-0.00619318
-0.0190908
-0.0606297
-0.0551691
-0.00252432
-0.0618273
-0.00221351
-0.0608309
-0.00257179
-0.00670914
7.74673e-05
-0.0316273
-0.0295943
-0.0173901
-0.050647
-0.0176944
-0.00420053
-0.0202317
-0.0608204
-0.0336393
-0.074471
-0.0256504
-0.0035823
-0.0246104
-0.0327201
2.60057e-05
-0.0451607
0.000612257
-0.0584858
-0.0476145
0.000986958
-0.00449957
-0.0324031
-0.00861687
-0.00613041
-0.0475614
-0.0070797
-0.0101919
-0.0126354
0.000636533
-0.00925883
-0.0144765
-0.0802596
0.000619626
-0.00717065
0.00189068
-0.0465919
-0.0172137
-0.0588215
-0.00436997
-0.0112377
0.000551043
-0.00648018
-0.0637371
-0.00194448
-0.0398436
-0.0608377
-0.0629218
0.000566503
-0.00242691
-0.0554966
0.000718549
-0.00785659
-0.00964778
-0.0604745
-0.03163
-0.0634952
-0.0312337
-0.05589
-0.00970317
-0.0186465
-0.00524188
0.000493625
-0.00229128
-0.0171826
2.60087e-05
-0.0588199
-0.0223739
-0.0107138
-0.00305811
0.00079397
0.000175725
-0.0487701
-0.0245291
-0.0596547
-0.02672
-0.0797836
-0.0365778
-0.0497416
-0.0567036
-0.018945
-0.0499213
-0.0287658
-0.0541854
-0.000275484
-0.0406387
0.000593004
-0.000233601
-0.0213801
0.000588389
0.000247425
-0.000349814
-0.0286317
-0.0395364
-0.000711914
-0.0227075
-0.0643396
-0.0538807
-0.0538745
-0.0609908
-0.00895343
-0.00284893
-0.0175606
-0.0558669
-0.00339023
-0.0516213
0.000417641
-0.00678999
-0.0235883
-0.0167182
0.000412016
0.000684804
-0.0213385
-0.0375904
-0.0110106
-0.073553
-0.00330884
-0.00942982
-0.0621324
-0.0291137
-0.00577745
0.000781001
-0.0640843
-0.0234742
0.000256891
0.00241463
-0.00252378
-0.00505381
-0.0682397
0.000138512
-0.00470762
-0.0404798
8.00461e-05
-0.00614444
-9.39188e-06
-0.0215771
-0.00120053
-0.0305499
-0.058363
0.000293189
-0.0102315
-0.00749934
-0.0326822
-0.00595074
-0.0700295
-0.0773663
-0.0327735
-0.056496
-0.0730608
-0.000723064
-0.069827
-0.000282004
-0.05494
3.81161e-05
-0.0319909
-0.0388654
-0.058499
-0.0297215
-0.0184649
-0.00795222
-0.0649622
0.000560611
0.00852428
0.000618705
-0.0181012
-0.0778281
-0.0188604
-0.0307081
-0.0177684
-0.0575372
7.41366e-05
-0.0715388
-0.0576863
-2.14021e-05
0.000353636
-0.00578782
-0.0630966
-0.0298416
9.52831e-05
-0.0512655
-0.0351517
-0.00473703
-0.004292
-0.0154717
-0.0314641
0.000303313
0.000508855
0.00104536
-0.00412729
0.000318752
-0.0544566
-0.0395491
-0.0330009
-0.000395797
-0.0651387
0.000665085
0.000491574
-0.0187146
-0.0458327
-0.0405614
0.000532406
-0.0504329
0.000753878
-0.00717746
-0.0616002
-0.0124978
0.00101551
-0.0557443
-0.0679112
-0.0816488
-0.0418131
-0.000200686
-0.0337081
-0.0589438
-0.00976557
-0.0430589
0.00036672
-0.0381612
-0.0425042
-0.00192841
-0.0444583
1.55453e-05
-0.0383727
-0.00393326
-0.0203074
-0.0506309
-0.0434193
-0.0339447
-0.0384424
-0.0013898
-0.0773326
-0.0247512
-0.0169489
-0.000262042
0.000761042
0.000516753
-0.0044245
-0.0302487
-0.0640804
-0.0101998
-0.0216624
-0.060194
-0.0195381
-0.0243966
-0.0274425
-0.0811994
-0.00750595
-0.00425923
-0.00723172
-0.000393365
-0.0091166
-0.0573025
-0.0370354
-0.0310005
-0.00311237
-0.000760177
-0.0213107
-0.0600611
-0.0544631
-0.00518361
-0.0363433
-0.0180108
-0.0524732
-0.00908442
-0.0222201
-0.0604033
-0.00450553
-0.0453056
-0.0532641
-0.0609523
-0.00170727
2.65468e-05
0.000563653
-0.011073
-0.0240925
-0.024502
-0.0109858
-0.0708559
-0.00184265
-0.0456679
-0.00214002
-0.0816428
-0.0543092
-0.0238069
-0.0410235
-0.000883507
-0.0310067
-0.0806122
-0.0142499
-0.0245178
-0.0253607
-0.0544307
-0.0569928
-0.058052
-0.0279424
-0.0477187
-0.0320999
0.000573241
-0.00179148
-0.0452934
0.000454017
-0.0142729
-0.029606
-0.0257709
-0.0244793
-0.0174851
-0.0156443
-0.0466669
-0.0615759
-0.0177304
-0.0177971
-0.0295088
0.000309696
-0.0193713
-0.0169115
0.00141939
-0.0660188
-0.052594
-0.00331943
-0.0741052
0.000738749
-0.00197386
-0.0526544
-0.0305169
-0.0105039
0.000602961
-0.0327519
-0.0163902
-0.0200161
-0.0654092
-0.00649457
-0.0499378
0.00064298
0.000774322
-0.0603158
-0.0617255
-0.0457104
-0.0400011
-0.00782185
-0.0105122
-0.0223461
-0.0822028
-0.0588022
0.000610293
-0.0261083
-0.0200364
-0.0626897
-0.0578997
0.00102836
-0.0235272
-0.0631591
-0.0023579
-0.0100248
0.000832753
-0.00272173
-0.040036
-0.0605444
-0.045105
0.000691544
-0.0551102
-0.0336726
-0.00425127
-0.0296801
-0.0137088
-0.0227642
-0.0452822
-0.000279939
-0.0021945
-0.00488692
-0.0557484
-0.0253313
-0.0350622
-0.000563637
-0.0171405
-0.00551284
-0.0260966
-0.0402266
-0.0268456
-0.0534368
-0.0257708
-0.0450428
-0.0640688
-0.0314551
-0.00400516
-0.0206989
-0.0422994
-0.0701438
-0.0656877
-0.0184554
-0.000445645
-0.0540674
-0.0107363
0.00158444
-0.0376862
-0.0251721
-0.0250794
-0.0110307
-0.0625914
-0.0403878
-0.0170515
-0.0320808
-0.0137887
-0.0601669
-0.0577815
-0.00649021
-0.0120519
-0.00334214
0.000133866
0.000591531
-0.0215223
-0.00100915
-0.02932
-0.05166
-0.0350196
-0.0626878
-0.0238333
-0.00896837
-0.0471728
-0.000426384
-0.0711363
-0.0234039
-0.00545786
-0.0179553
-0.0706607
-0.0131143
-0.063906
-0.0218989
-0.0536486
-0.00590659
-0.00402437
-0.00708211
-0.0236482
-0.0250404
-0.0719414
-0.0300898
-0.0438933
-0.00036808
0.0016649
-0.0358078
0.000510385
-0.00560787
-0.054599
0.000546498
-0.00411923
-0.0646097
-0.0239534
-0.0626668
-0.0526469
-0.0532864
-0.0218167
0.000529412
-0.00844249
-0.00256135
0.000311175
-0.0097515
0.000851289
-0.00379697
-0.00253223
0.000886572
-0.00797688
-0.0129091
-0.0611188
-0.0464684
1.29312e-05
-0.0263404
-0.00187921
-0.0446442
0.00143245
-0.000804173
0.00105811
0.000379294
0.00154717
-0.0333459
-0.0133266
-0.0553287
-0.0020274
0.00053245
-0.0315692
0.000658594
-0.00202053
-0.0607946
-0.0162039
-0.00429538
-0.0219865
-0.0305681
-0.0525883
0.00143505
-0.0398912
-0.0210552
0.00135742
0.000295987
-0.0545964
-0.0295635
0.000202944
-0.0197994
-0.00169688
-0.0612228
0.00151065
-0.0124648
-0.0287009
0.00029135
-0.0580052
0.000464084
-0.000485108
-0.0649312
-0.022034
-0.0056285
0.000552968
0.000486269
-0.0671443
-0.0353713
-0.0052405
-0.00598003
-0.0102428
-0.00100382
-0.00634187
-0.0064219
-0.0293793
-0.0257581
-0.0524484
-0.00721303
-0.000850322
-0.0365353
-0.0194356
-0.0226607
-0.0264946
-0.00881049
-0.00175173
-0.0563051
-0.010304
-0.00836125
-0.00310743
-0.0253105
-0.0112043
0.000566029
-0.024083
-0.00971389
-0.0611136
-0.0131738
0.000414804
-0.0572328
-0.0636902
-0.0604688
-0.0625884
-0.011734
-0.0265058
-0.00860308
-0.0305439
0.000964695
-0.0570937
-0.00235842
-0.07115
-0.0035187
-0.0492891
-0.0528637
0.00623235
-0.00673323
-0.00222217
-0.0670771
-0.00952887
0.00197411
-0.0492323
-0.0591746
-0.0671214
-0.0269207
-0.000777702
-0.0132
-0.000579255
-0.0400697
0.000513234
-0.025741
-0.0129572
0.00166007
-0.0553705
0.000341285
-0.065187
-0.0157195
-0.00963095
-0.0343406
-0.0210515
-0.00312474
-0.0637972
-0.00378951
-0.0312372
-0.0392353
-0.00448312
-0.0402606
-0.0076416
-0.0488053
-0.0553912
-0.0264977
-0.0139609
-0.0396288
0.001925
-0.0386114
0.0020711
-0.00291105
-0.0531105
0.000402239
-0.0037678
-0.0614176
-0.0214848
-0.0435521
-0.0248108
-0.00459083
-0.0182795
-0.000231835
-0.0122058
0.00121801
-0.0327741
-0.00869944
-0.00782119
-0.0035563
-0.0233826
-0.00230116
-0.0201833
-0.063538
-0.00227814
-0.00497668
-0.0234355
0.00012529
-0.0621935
-0.0191178
-0.000715957
-0.0549031
-0.0564482
-0.0613514
-0.000382652
-0.060094
0.000700611
-0.0159867
-0.0572901
-0.0161207
-0.0107771
-0.047285
-0.0143089
-0.0112423
-0.0625989
-0.0152008
-0.0572543
-0.0359083
-0.0630187
-0.0305212
0.000273613
-0.0238051
-0.0589955
-0.0312314
-0.0283825
-0.00561267
0.00723167
-0.00378366
0.000392075
-0.0232344
0.00486284
-0.0217095
-0.0206154
-0.0579505
-0.00453953
-0.0245024
-0.0416972
-0.00293095
-0.0498716
-0.00484411
-0.0169371
-0.0523552
0.000503134
-0.0461406
-0.0592225
-0.00358096
-0.0526708
-0.0266285
-0.0601702
-0.0389578
-0.0281029
-0.00678571
-0.00114529
-0.00660624
-0.0313687
-0.0370186
-0.0043248
-0.0183033
-0.0597885
-0.0364267
-0.0643281
-0.00615751
-0.0352343
-0.0607101
0.000976789
-0.00112346
-0.065497
-0.0204827
-0.0289755
-0.0649303
-0.0301431
-0.0193383
-0.00549822
-0.0745415
-0.022373
-0.0016635
-0.0607827
-0.0543302
-0.00373189
-0.0127173
-0.0468038
-0.0437945
-0.0338007
-0.0244672
-0.0631787
-0.0351922
-0.0101762
-0.00591695
0.000762007
-0.00134152
-0.0557258
-0.0137677
-0.0303572
-0.0305525
-0.004266
-0.00317281
-0.0587353
-0.0340547
0.00111205
-0.0303251
0.00229772
-0.00606398
-0.0442465
-0.0531112
-0.0253472
-0.0571926
0.000759241
-0.0577563
-0.00163529
-0.0589154
-0.0599448
-0.0642349
0.000565318
-0.0278542
-0.0152893
-0.00500711
-0.0321768
-0.0637931
-0.0610677
-0.00603391
4.74291e-05
-0.0320957
-0.000137624
-0.0506047
-0.0545966
0.000235364
-0.00562626
-0.0291934
-0.0255818
-0.00409645
-0.00193209
-0.0262091
-0.028054
-0.011221
0.00191807
-0.0193139
-0.0583236
-0.00874746
0.00363046
-0.0637927
-0.047918
-0.0168841
-0.0542257
-0.0164217
-0.0131661
-0.0662073
-0.0236837
-0.0129375
-0.0759916
-0.0684988
-0.0295405
-0.059885
-0.0348929
-0.0022792
-0.00578728
-0.00181827
-0.0678584
-0.0483892
-0.0259631
-0.0446765
-0.0130443
-0.00732093
-0.0419789
-0.0646108
-0.0300399
-0.0809533
6.49035e-05
-0.0386664
-0.0253102
-0.0086548
-0.0628159
-0.00893778
0.000527774
-0.00859585
-0.0653465
-0.0161887
0.000125877
-0.060464
6.57132e-05
-0.0198954
-5.51228e-05
-0.0185926
-0.0682584
-0.0303026
-0.0492107
-0.0521541
-0.0431852
-0.0142484
-0.0330687
-0.00206269
-0.00974558
-0.00112816
-0.0247957
-0.0188382
0.000508641
-0.00210895
-0.0569182
-0.077839
-0.0203728
-0.0420619
-0.00615779
-0.0150228
-0.0146775
-0.00254352
-0.000249145
-0.020306
-0.0400988
-0.0624919
-0.0111838
-0.0353313
-0.0379821
-0.0243429
-0.0221741
-0.0639387
-0.00571345
-0.0589958
-0.0180461
-0.0126937
-0.0248961
-0.0573235
-0.0195993
-0.0177567
0.000108562
-0.0252313
-0.0432685
-0.00421134
-0.0368878
-0.00829157
-0.0109682
-0.0671909
-0.0251782
-0.0375319
-0.0188889
-0.00540948
-0.0538799
-0.043621
-0.0093743
-0.0513516
-0.00423208
-0.0593579
0.00166841
-0.0162778
-0.01534
-0.0669839
-0.0237511
-0.0564503
-0.038525
-0.060037
-0.00241431
-0.00723627
-0.00323508
-0.0545319
-0.0290951
-0.00273942
-0.00195508
-0.0776702
-0.0719612
-0.0363791
-0.031157
-0.0138501
-0.0105059
-0.0547218
0.000156151
-0.0594316
-0.0696529
-0.00649681
-0.0374441
-0.0102975
0.000359926
-0.0479569
0.000525989
-0.0328199
-0.012247
-0.0202118
-0.0360296
-0.0189909
-0.00248116
-0.0636134
-0.0124566
-0.0267565
-0.0606433
-0.0227385
0.000921439
-0.0428988
-0.00501164
-0.00137019
0.00596801
-0.0574436
0.00517381
-0.000500304
0.000438716
-0.000952503
-0.0256541
-0.0410584
-0.0315025
-0.0248916
0.000615347
0.000422535
-0.0298983
-0.00530284
-0.0691773
-0.0542521
-0.0636674
-0.00854344
0.00155715
-0.0233728
-0.0609477
-0.028963
0.00371628
-0.0598661
-0.0606406
-0.00552063
-0.036207
-0.0330397
-0.00143136
-0.0621825
0.00101638
-0.0283244
-0.0514492
-0.0526587
-0.0352157
-0.037626
-0.0167074
-0.072245
-0.0574326
-0.00239458
-0.0550128
-0.00808309
-0.0299569
-0.043689
-0.0675278
-0.000175051
0.00212712
-0.0213516
-0.010794
-0.0269232
-0.0173777
-0.0182702
-0.00737905
-0.0183877
-0.000986954
-0.0445521
-0.062459
-0.0153789
-0.00415291
-0.0314828
-0.0219776
-0.0048826
-0.000696712
-0.0298595
0.000863745
-0.0607994
-0.00498198
-0.00941259
-0.0206742
-0.0795367
0.000476556
-0.0542942
-0.0276905
-0.0145311
-0.0319483
-0.00920683
0.000223741
-0.00334283
0.000381429
-0.00785713
-0.00185353
-0.0619963
0.000552441
-0.016294
-0.0530681
-0.0599688
-0.0158394
-0.0592784
-0.0201842
-0.0314648
-0.0256184
-0.0246545
0.000442018
-5.06506e-05
-0.0611894
-0.00158689
-0.00624174
9.53593e-05
-0.00231501
-0.0606202
-0.0150204
-0.0589478
-0.00664034
-0.0145437
-0.0298199
-0.015492
-0.0017892
0.000134981
-0.0716751
-0.0751001
-0.0176377
-0.0155361
-0.0292396
-0.0803556
-0.0345625
-0.0175871
-0.0185719
-0.0550037
-0.0314042
-0.0581064
-0.037513
0.000397717
-0.0192191
-0.00684364
-0.0110978
-0.068242
-0.0120663
-0.0458314
-0.0620104
-0.0207105
-0.0542755
0.00750498
-0.00560824
-0.0360432
-0.00203869
-0.0354789
0.000632617
-0.00165931
0.000437427
-0.0636773
0.000366496
-0.00504496
-0.00118642
-0.0461056
0.00178044
-0.000661235
-0.0639823
-0.0611474
0.000411835
-0.0020505
0.000154314
-0.0634499
-0.0245885
-0.036251
0.00229022
-0.0128905
-0.0378947
-0.0218264
2.27614e-05
-0.0227628
-0.0317657
-0.0449751
-0.0646678
-0.0620083
-0.04364
-0.00521749
-0.0204891
-0.0311027
-0.0320301
-0.00855184
-0.0642286
-0.0710481
-0.0181468
-0.01437
0.000464462
-0.0233226
-0.00200492
-0.067899
-0.0430791
-0.0315159
-0.0610979
-0.0658749
-0.0726082
-0.0601744
-0.0225463
-0.0625247
-0.0305514
-0.0547645
-0.0623301
-0.0624908
-0.0603183
-0.0010852
-0.0378858
-7.61046e-05
-0.00812324
-0.062552
-0.0198718
-0.029359
-0.0559165
-0.0356457
-0.0596142
-0.0689241
-0.064173
-0.044684
-0.0390073
-0.0205571
-0.0243843
-0.00582736
-0.0382346
-0.0322998
-0.0626048
-0.0287242
-0.0315196
0.000553219
-0.00476118
-0.0110781
-0.0712622
-0.0179357
-0.00941959
-0.0307532
-0.0144738
-0.0597056
-0.0130195
-0.00518225
-0.0620212
-0.0311193
-0.058842
-0.0293357
-0.0571316
-0.0271331
0.00126126
-0.0171809
-0.00238417
-0.0416126
-0.0447817
-0.00932254
-0.0461989
-0.0622006
0.00416965
-0.020489
-0.0126543
-0.0484342
-0.0183875
-0.0115685
0.000570428
-0.0178591
-0.0551473
-0.0054375
-0.0383547
-0.0589128
-0.0217995
-0.00563847
-0.0369759
-0.0570356
-0.0310117
-0.0599444
-0.0172543
0.0014205
0.00130044
-0.0596995
-0.0502948
-0.00182423
-0.0597119
-0.0242733
-0.0242707
0.00320492
-0.0633233
-0.00389017
-0.0279369
-0.0565406
-0.0370517
-0.0596545
-0.0100532
-0.0213338
-0.035899
-0.0427751
-0.0284835
-0.010899
-0.0229977
0.00352567
-0.0618139
-0.0383265
-0.0588887
-0.0233718
-0.0592552
-0.0548185
-0.0342851
-0.0344487
-0.054322
-0.0069398
-0.0706519
-0.0453481
-0.0618984
-0.0534274
-0.00470477
-0.000894111
-0.063957
-0.0670076
-0.00239137
-0.0593075
-0.0185535
-0.00872432
-0.0368094
-0.0171878
-0.0225152
-0.0598568
-0.0593244
-0.00814959
0.000159585
-0.0615164
-0.0659053
-0.0328774
-0.0593162
-0.00774508
-0.0591875
-0.048626
-0.0667505
-0.00528719
-0.00853345
-0.0609112
-0.0543287
-0.00677825
-0.050038
-0.0598654
-0.00636623
-0.0337207
-0.00046117
-0.0208599
-0.0180368
-0.0459695
-0.0635452
-0.00388964
-0.0287449
-0.00676845
-0.0307416
-0.0674628
-0.0615955
-0.0164996
-0.0623401
-0.0334717
-0.0184766
-0.000464735
-0.0236717
-0.000273617
-0.0615172
-0.0612559
-0.0272838
-0.0229741
-0.056739
-0.00880039
-0.0609887
-0.0592824
-0.0323869
-0.0609376
-0.00208388
-0.0206258
-0.027401
-0.0515903
-0.0604375
-0.0434837
-0.0333161
-0.0348557
0.00015173
-0.0577586
-0.000933621
0.00059067
-0.056868
-0.0599718
-0.0379921
-0.0244158
-0.0399575
-0.0267378
-0.0297836
-0.0191074
-0.0157466
-0.0704811
-0.000361422
-0.0606452
-0.0119012
-0.0190433
-0.0552539
-0.00889206
0.000489063
-0.0141998
-0.0226748
-0.00580326
-0.00921025
-0.0437212
-0.0698597
-0.0581974
-0.0371008
-0.0307065
-0.000654998
0.000883327
-0.0365153
-0.019168
-0.00581589
-0.001606
0.000525228
-0.062952
-0.0221893
-0.0395523
-0.0454298
-0.00209134
-0.00336803
-0.000818112
-0.0376327
-0.0376875
-0.0410834
-0.0454626
-0.0376043
-0.0535718
-0.031003
-0.0543034
-0.0403102
-0.0601642
-0.0390855
0.000589668
-0.0459342
-0.0372243
-0.0303655
-0.0370224
0.000594712
-0.0388108
-0.0415313
-0.0556031
-0.0270207
-0.0640209
-0.0540732
-0.0643116
-0.0646255
-0.0382677
-0.0648186
-0.0649755
-0.0650337
-0.0650177
-0.0674074
-0.0519758
-0.00408658
-0.0161826
-0.0494932
-0.062416
-0.0132675
-0.0394022
-0.060158
-0.0324045
-0.0613673
0.000491182
-0.0019421
0.00145607
-0.0590566
-0.03767
-0.0183859
-0.081155
-0.0411573
0.000573471
-0.0209512
-0.0126757
-0.0394372
-0.0794922
0.00082023
-0.0562213
-0.0545871
-0.0583312
-0.0589801
-0.058672
-0.0414937
0.00357243
-0.0587675
4.83343e-05
-0.0594501
-0.0560827
-0.0233295
-0.0349886
-0.0320964
-0.0102661
-0.00354165
-0.00686002
-0.00619912
-8.22884e-05
-6.46958e-05
-0.0277207
-0.0621087
-0.0338996
-0.0239925
-0.062953
-0.0462824
-0.059663
-0.0543565
-0.0335456
-0.0287001
-0.0370155
-0.0128569
-0.0606549
-0.000761432
-0.0604555
-0.0635548
-0.0616676
-0.00255972
-0.0109345
-0.0127908
-0.0572171
-0.00195186
-0.0594773
-8.665e-05
-0.0571326
-0.0376499
-0.0169829
0.00168198
-0.0130491
-0.0609077
0.00182815
-0.0281164
-0.0148381
-0.0376907
-0.0704924
-0.0591806
-0.0302355
-0.0593338
-0.0129205
-0.00622256
-0.0507334
-0.0332896
-0.0593757
-0.0418356
-0.0301507
-0.0633147
-0.0611392
-0.058945
7.15709e-05
-0.00153456
-0.00394577
-0.00537609
-0.055668
-0.00692153
0.00287726
-0.0216417
-0.0612312
-0.010703
0.000534499
-0.00191542
-0.0764146
-0.0307867
-0.0362529
0.000390922
-0.0590002
0.000388274
0.00859289
-0.0543596
-0.0607289
-0.0615962
0.000448957
-0.0558584
-0.0316383
-0.0567073
-0.0616558
-0.0243224
-0.0610133
-0.0148537
-0.00307018
-0.0178333
0.000777581
-0.0223208
-0.0142148
-0.0301396
-0.0186191
-0.02874
-0.0564688
-0.059312
-0.0608457
-0.00449455
-0.0429193
-0.00583796
-0.0614283
-0.00210762
-0.0301981
-0.0115556
-0.0474676
-0.000114563
-0.000422174
-0.00943899
-0.012183
-0.0562699
-0.0739574
-0.0126948
0.0004649
-0.073724
-0.00312432
-0.00334754
-0.0606914
-0.0397327
-0.0301985
-0.0595978
0.00363575
-0.0619619
-0.00624312
-0.0597423
-0.0632904
-0.00260389
-0.00803756
-0.0458569
-0.0603139
-0.0583432
-0.0601005
-0.00431568
-0.0369785
-0.0598457
-0.00372911
-0.0407795
-0.0232859
-0.0502701
-0.0233958
-0.0613833
-0.0624086
0.000908304
-0.0270719
-0.0631142
-0.0337554
-0.0589256
-0.0527843
-0.0124967
0.000376244
-0.0579286
-0.0597205
0.000249703
-0.0349751
-0.0218731
-0.00855406
-0.059487
-0.00619993
-0.0556676
-0.0283101
-0.055049
-0.0315582
-0.00715398
-0.0362774
-0.0410092
-0.0432003
-0.0112425
-0.0712797
0.00047607
-0.0429843
-0.0347869
0.000142797
-0.0151298
-0.0371224
-0.0589794
-0.0609313
-0.00495977
-0.0601254
-0.0319675
-0.00889078
-0.0242883
-0.00317298
-0.0377143
-0.0620824
-0.0583524
-0.00189611
-0.00362226
-0.0627301
-0.0701587
-0.0565718
-0.0642606
-0.0295628
-0.0687717
-0.0260415
-0.000432075
-0.0126604
-0.0596339
-0.0187382
-0.0605069
-0.0590276
-0.0420592
-0.0649911
-0.0547924
-0.00764233
-0.0564624
-0.0424428
-0.0554806
-0.00279719
-0.0109244
-0.00102305
-0.0730511
-0.033963
-0.00194193
-0.0286187
-0.0602833
-0.0639487
-0.0302364
-0.069258
-0.0670325
-0.0586864
-0.0236223
-0.00195274
-0.0650254
-0.0282404
-0.0349703
-0.0356511
-0.0257183
-0.0102045
-0.0216137
-0.0280295
-0.0189126
-0.0284002
-0.0222464
-0.0194162
-0.00534774
-0.0760248
-0.0284617
-0.0603524
-0.0304086
-0.022271
-0.064634
-0.0715273
-0.0143436
-0.00914126
-0.00353519
-0.0581953
-0.056939
-0.0571305
-0.0396723
-0.0256455
-0.0077277
-0.0110426
-0.058662
-0.0625372
-0.0181494
0.000238107
-0.0587037
-0.0354553
-0.0200484
-0.0630682
-0.0477164
-0.0450452
-0.05675
-0.0574853
-0.00681777
-0.0229339
-0.0590368
-0.012832
-0.0294638
-0.0335822
-3.09476e-05
-0.0652088
-0.0391999
-0.0449543
-0.0241105
-0.0288899
-0.0497849
-0.0622626
-0.0764272
-0.0345869
-0.0648987
-0.0733974
-0.0464414
-0.0391357
-0.0378621
-0.0435766
-0.0426367
-0.0642041
-0.00187097
-0.0127449
-0.0559816
-0.0375088
-0.0704481
-0.0352764
-0.0230615
-0.0448644
0.000771543
-0.0390803
-0.00599931
-0.0331633
-0.0111287
-0.0242663
-0.0596755
-0.0630792
-0.0226087
-0.0120627
-0.0651346
-0.0368189
-0.0103991
-0.0172529
-0.0599319
-0.0424721
-0.0558736
-0.0227738
-0.0673087
-0.0606997
-0.0652896
-0.0627263
0.00331139
-0.0692282
0.0043866
-0.0284296
-0.0753011
-0.0653845
-0.0266753
-0.0022784
-0.027717
-0.008285
-0.026509
-0.0653848
-0.0105737
-0.053937
-0.0585396
-0.00841794
-0.00113011
-0.00515857
-0.025496
-0.027792
-0.00395542
-0.0569988
-0.0229227
-0.0255862
0.000489888
-0.0637739
-0.0388947
-0.0445535
-0.0318967
0.000543439
-0.000726881
-0.0638043
-0.00118058
-0.0607499
-0.0337644
-0.0361451
-0.0318532
-0.0257639
-0.0289249
-0.0284092
-0.0342394
-0.0559627
-0.0314452
-0.0448122
-0.00646314
-0.0729219
-0.0555783
-0.0286857
-0.0192283
-0.0589352
-0.0059932
-0.042152
7.75708e-06
-0.0584577
-0.00234488
-0.0230337
-0.0177223
-0.0367564
-0.00221626
-0.0467449
-0.0759806