/*--------------------------------*- C++ -*----------------------------------*\
| =========                 |                                                 |
| \\      /  F ield         | OpenFOAM: The Open Source CFD Toolbox           |
|  \\    /   O peration     | Version:  v2012                                 |
|   \\  /    A nd           | Website:  www.openfoam.com                      |
|    \\/     M anipulation  |                                                 |
\*---------------------------------------------------------------------------*/
FoamFile
{
    version     2.0;
    format      ascii;
    class       volScalarField::Internal;
    location    "300";
    object      V0;
}
// * * * * * * * * * * * * * * * * * * * * * * * * * * * * * * * * * * * * * //

dimensions      [0 3 0 0 0 0 0];


value           nonuniform List<scalar> 
13917
(
0.00162269
0.0422529
0.00434885
0.043556
0.0901325
0.0537136
0.022801
0.0437457
0.0212286
0.00125325
0.0472484
0.0625244
0.177288
0.0444849
0.062876
0.00136029
0.163832
0.0469729
0.00646888
0.0016466
0.0323779
0.106854
0.0117819
0.11758
0.0326519
0.03328
0.0212467
0.00134452
0.0418492
0.163327
0.00130168
0.0076745
0.0455436
0.00170423
0.14144
0.0445989
0.0504758
0.174294
0.0207399
0.0280888
0.200895
0.140639
0.0309808
0.00558228
0.00669692
0.00835765
0.0396992
0.00322757
0.0513314
0.113925
0.0621038
0.00938638
0.00143155
0.0792192
0.0779389
0.006988
0.0011709
0.0132569
0.150601
0.0104068
0.0076582
0.123552
0.161867
0.037347
0.00248307
0.15339
0.040823
0.0416408
0.0420841
0.00128285
0.00372781
0.001268
0.0725815
0.149704
0.0322032
0.0385363
0.0749242
0.157061
0.044127
0.0333279
0.0848121
0.180665
0.0775911
0.0034912
0.150265
0.036865
0.00837268
0.170537
0.0293959
0.138391
0.152191
0.0279815
0.0606149
0.149674
0.0685177
0.0408691
0.028995
0.175779
0.140378
0.0267384
0.17066
0.131583
0.0712538
0.152603
0.0976307
0.0028404
0.00261404
0.137268
0.139631
0.0200734
0.170133
0.00196602
0.0385054
0.00327961
0.00274832
0.0382367
0.00733103
0.167996
0.00480469
0.07223
0.172919
0.158037
0.0387233
0.00827893
0.00147046
0.00211794
0.0335358
0.0314432
0.13513
0.00663415
0.0128502
0.0119242
0.00208695
0.0428164
0.00663084
0.0211297
0.00826989
0.00138265
0.0367891
0.185317
0.0621117
0.156554
0.00310611
0.0987587
0.0683618
0.152209
0.00345121
0.121319
0.00219497
0.0896368
0.0266161
0.200076
0.0700457
0.0615387
0.0243431
0.095985
0.145025
0.00171814
0.18346
0.156858
0.138774
0.00374817
0.0547179
0.0702699
0.00453037
0.0237012
0.00122639
0.0045043
0.173358
0.036335
0.10446
0.00231377
0.0246915
0.00789974
0.010319
0.167889
0.0392123
0.00977012
0.0159696
0.0510635
0.0309604
0.114597
0.0515741
0.00554518
0.00464148
0.0140892
0.0591504
0.0076777
0.168986
0.0385023
0.0136334
0.00662593
0.00683846
0.00150292
0.114048
0.00150043
0.026571
0.00213918
0.13965
0.101959
0.0347149
0.00137835
0.00119563
0.0516517
0.0161814
0.0431051
0.02556
0.153107
0.00889373
0.0837637
0.143471
0.0756716
0.0736263
0.00291945
0.00658849
0.0308555
0.00291678
0.170647
0.152192
0.144546
0.00428238
0.00774535
0.00756652
0.150557
0.167988
0.0217973
0.00147421
0.131001
0.146109
0.15259
0.147178
0.151378
0.00112803
0.00297284
0.0766691
0.169132
0.0112682
0.0014346
0.159459
0.153133
0.0208002
0.0027162
0.00554888
0.00261499
0.0110055
0.0871473
0.00494077
0.00989018
0.0334235
0.00863857
0.0511233
0.002341
0.0587526
0.0145783
0.0143785
0.0841303
0.179951
0.0319668
0.101729
0.130452
0.00144056
0.0376159
0.158198
0.143662
0.095859
0.139313
0.0671242
0.179211
0.0159976
0.157867
0.00131767
0.00275286
0.0946794
0.095898
0.0103968
0.159183
0.0227797
0.00147021
0.154456
0.00126997
0.135155
0.00451976
0.181121
0.0664007
0.0709506
0.124856
0.00522234
0.170549
0.0223142
0.0257061
0.039101
0.124782
0.0206579
0.00132871
0.139667
0.0124926
0.101664
0.0397323
0.0972497
0.0361058
0.141891
0.173509
0.0117776
0.102128
0.0172232
0.0363278
0.125316
0.00179057
0.00110052
0.135996
0.167125
0.0370102
0.084414
0.00499562
0.0027744
0.00672429
0.188968
0.0141813
0.0926471
0.00328385
0.084817
0.003698
0.140671
0.0597598
0.0191738
0.0961852
0.0405716
0.00651796
0.17897
0.00187898
0.148237
0.0101426
0.161759
0.00165309
0.128505
0.0152967
0.0385238
0.179428
0.188148
0.00739601
0.0030547
0.0706032
0.0942735
0.00188001
0.00290294
0.00541178
0.0429177
0.164681
0.0764812
0.00263075
0.0119139
0.175353
0.120527
0.0575926
0.0290754
0.0133906
0.00778451
0.0148176
0.0240014
0.00908401
0.00166214
0.125284
0.0723252
0.0646905
0.00488172
0.170931
0.00124128
0.0108133
0.118425
0.0602835
0.0145631
0.166281
0.0547607
0.128389
0.00681168
0.00898407
0.0435177
0.0829698
0.00364314
0.159302
0.00498642
0.00618886
0.12655
0.0524172
0.0788601
0.13254
0.136296
0.00157551
0.126549
0.0426026
0.0201743
0.0265199
0.0579625
0.00606027
0.00400338
0.0443439
0.00556689
0.0770204
0.0265098
0.00457622
0.127829
0.0198577
0.0301951
0.134722
0.131159
0.13518
0.00766514
0.023189
0.0592555
0.131359
0.104498
0.0140426
0.0457317
0.165168
0.190467
0.00584488
0.0164154
0.102688
0.0512727
0.00657776
0.0291856
0.144137
0.00591863
0.00307118
0.145621
0.163514
0.0369669
0.13383
0.162919
0.0654802
0.137797
0.14251
0.00405641
0.0734028
0.021525
0.00136352
0.0124101
0.13619
0.071212
0.00551837
0.0397419
0.00122559
0.166041
0.0865621
0.152683
0.145313
0.0485877
0.0808837
0.00818565
0.145352
0.00244006
0.094554
0.0133834
0.134511
0.0720833
0.0104807
0.00666152
0.0558404
0.0234519
0.134744
0.144752
0.10259
0.0796297
0.142588
0.158665
0.00186579
0.00645497
0.142291
0.0172824
0.00493151
0.149896
0.0122703
0.00664852
0.00381976
0.0181068
0.00277401
0.131846
0.13173
0.0747035
0.156531
0.13365
0.0561483
0.00605052
0.141271
0.0757589
0.0581736
0.0202606
0.0272406
0.00432718
0.00822944
0.12656
0.095771
0.0409692
0.0203358
0.0554793
0.0349325
0.0130901
0.0251225
0.00517886
0.12901
0.0170517
0.00834151
0.134632
0.00164621
0.120518
0.133078
0.0120073
0.155073
0.171007
0.0123143
0.00171095
0.0205865
0.129502
0.0311819
0.116981
0.00687462
0.00965406
0.0608926
0.0861242
0.117312
0.0145548
0.108106
0.127081
0.198084
0.10444
0.116601
0.10748
0.0173393
0.158354
0.00788959
0.138388
0.107377
0.0325983
0.00188749
0.136322
0.0262218
0.130598
0.0152069
0.0109672
0.0284834
0.0118271
0.0225502
0.0434737
0.0413164
0.00208065
0.00370316
0.0014209
0.139854
0.10385
0.120154
0.0767069
0.00286976
0.147359
0.0823584
0.0275432
0.00248157
0.0218367
0.0268422
0.00141589
0.144593
0.00632154
0.180044
0.139961
0.00163424
0.167675
0.0032824
0.176514
0.139388
0.101868
0.00453151
0.107014
0.118446
0.00572676
0.0123756
0.100606
0.00335585
0.00210248
0.00370085
0.122929
0.00108516
0.160901
0.00701016
0.110748
0.129871
0.155692
0.132398
0.0138252
0.0282961
0.162849
0.136994
0.15411
0.00372588
0.0927278
0.00807621
0.0766064
0.12309
0.167089
0.00797904
0.00410836
0.00174715
0.00939251
0.0165019
0.00473029
0.00133065
0.134479
0.00629851
0.148159
0.00602459
0.0726046
0.00354843
0.117448
0.101725
0.0588261
0.093845
0.0161328
0.00261963
0.153856
0.0152568
0.120313
0.135158
0.00158843
0.0264387
0.103353
0.00741894
0.111875
0.134929
0.177834
0.00165631
0.110171
0.0933812
0.124333
0.0999557
0.00425024
0.189323
0.00691663
0.169604
0.141646
0.00710456
0.00674566
0.0796645
0.00114615
0.00309763
0.0490826
0.00682808
0.147675
0.0546726
0.00163229
0.00292556
0.0365797
0.0408764
0.0845164
0.13725
0.111982
0.155337
0.00975063
0.0268256
0.0051033
0.0160797
0.0471159
0.00923313
0.0965236
0.015449
0.00668455
0.00124479
0.136779
0.087154
0.132487
0.135274
0.126715
0.184178
0.110074
0.151366
0.000961507
0.0137545
0.162076
0.00629383
0.12243
0.00227395
0.135449
0.128307
0.00164651
0.00922107
0.139043
0.0501005
0.157344
0.130701
0.0320518
0.0114597
0.116061
0.00119725
0.0227126
0.112387
0.138763
0.0849641
0.00153746
0.0301198
0.134015
0.10926
0.00145666
0.0174461
0.0234661
0.00136032
0.0871526
0.133456
0.133253
0.0485181
0.00257813
0.140416
0.0144102
0.0372466
0.0237585
0.00485496
0.0949698
0.00753481
0.011989
0.0670867
0.0267379
0.132576
0.0179298
0.0965219
0.00309763
0.0405975
0.122502
0.00129385
0.168618
0.0857667
0.046424
0.0483495
0.0213425
0.00300878
0.174388
0.00770835
0.0037882
0.168993
0.0816066
0.0369312
0.14818
0.0790181
0.0699721
0.0612121
0.144027
0.00812752
0.0069123
0.139254
0.0033326
0.0174914
0.016417
0.00714577
0.0761834
0.00641297
0.022585
0.134745
0.00976396
0.0120893
0.0111576
0.0963767
0.138009
0.0928633
0.00115443
0.0507266
0.143212
0.0114327
0.114919
0.135081
0.00600715
0.0233013
0.0614526
0.0281047
0.0306982
0.00247163
0.0502076
0.0624522
0.00429841
0.130499
0.132553
0.152566
0.149591
0.054624
0.03716
0.0262445
0.0946751
0.159125
0.106311
0.0844084
0.0423438
0.0165175
0.146924
0.00684173
0.0600871
0.00447051
0.0592117
0.141979
0.00215428
0.0328344
0.00147588
0.0301085
0.0630393
0.0934167
0.132964
0.0791389
0.00158601
0.019261
0.0473444
0.026886
0.0856084
0.0105639
0.179103
0.115457
0.115373
0.135178
0.00442415
0.0262255
0.0576176
0.00644369
0.0845669
0.152385
0.12794
0.0146697
0.137573
0.0761074
0.0444653
0.105789
0.00981226
0.122562
0.0315794
0.0640803
0.00124383
0.00142704
0.0709475
0.00240148
0.0217596
0.00123301
0.0866415
0.14724
0.129549
0.0771514
0.0427811
0.113946
0.0176599
0.0950886
0.0340692
0.0736711
0.00311851
0.0472048
0.014651
0.0152428
0.131271
0.0233272
0.031305
0.134885
0.0206306
0.1597
0.00188186
0.00885845
0.149066
0.129843
0.0892217
0.102418
0.104595
0.00508363
0.142336
0.0236717
0.114532
0.160209
0.0706124
0.0986382
0.00524861
0.0925968
0.14724
0.14007
0.00537925
0.055961
0.00682955
0.139343
0.0263144
0.161328
0.102678
0.00137513
0.133451
0.0341643
0.00687794
0.00145311
0.156923
0.0842286
0.00438412
0.147023
0.0872475
0.102689
0.0030444
0.104715
0.00519578
0.0500143
0.00172214
0.0601015
0.0116959
0.119294
0.163508
0.143574
0.165261
0.16902
0.00215463
0.0519362
0.12994
0.0794119
0.137812
0.131013
0.00896875
0.0439534
0.00247021
0.0218091
0.00701003
0.00810883
0.025021
0.0013013
0.0618231
0.00951507
0.092085
0.00123513
0.136969
0.0457885
0.163269
0.134588
0.0502704
0.153763
0.139563
0.137036
0.0838471
0.0180252
0.137588
0.0526043
0.00733508
0.00449972
0.00396502
0.00701344
0.0898245
0.118252
0.110213
0.00427357
0.107825
0.00112514
0.121442
0.145829
0.159492
0.0789277
0.127042
0.149353
0.11007
0.0147656
0.130913
0.00140836
0.0831751
0.123699
0.00177966
0.0876184
0.104539
0.118394
0.00169804
0.0181887
0.156827
0.137241
0.149287
0.12612
0.00299523
0.133389
0.0274455
0.0373194
0.0616466
0.147824
0.140137
0.0248841
0.086611
0.0278071
0.00146333
0.095118
0.12324
0.080551
0.0923729
0.137202
0.00550586
0.0122849
0.0244019
0.00149071
0.00173502
0.0884959
0.00543901
0.140491
0.00146199
0.134017
0.00790503
0.0128715
0.0179581
0.0366032
0.0107706
0.0164616
0.00273831
0.165448
0.102107
0.159445
0.084709
0.0124765
0.064829
0.0489178
0.012751
0.000790747
0.141217
0.0186194
0.00137063
0.175364
0.123531
0.0773862
0.00265055
0.0398494
0.165293
0.0163501
0.0699416
0.125636
0.0605947
0.038811
0.0857234
0.11149
0.16457
0.143652
0.113294
0.0963788
0.00143049
0.0480127
0.0475874
0.128565
0.00141124
0.139181
0.15557
0.0378789
0.0454945
0.0274634
0.159877
0.00486484
0.119029
0.0965194
0.00868616
0.0974496
0.182875
0.0084917
0.00475616
0.00747148
0.00711066
0.139479
0.00749792
0.00189723
0.181858
0.00670053
0.105966
0.0136849
0.0103853
0.111888
0.0221377
0.1308
0.0241188
0.0426071
0.0540397
0.0056074
0.0155017
0.0116969
0.00580632
0.106724
0.00530937
0.0412871
0.0776815
0.0966353
0.135449
0.156018
0.136961
0.02798
0.00273584
0.132213
0.0504953
0.0273275
0.0611811
0.0586781
0.0143772
0.00614213
0.0882564
0.133791
0.0290647
0.113396
0.0482925
0.00136378
0.0502307
0.096686
0.023416
0.143098
0.0498816
0.00195973
0.0013223
0.0609733
0.0148904
0.0403534
0.0010685
0.0255041
0.0253391
0.00350617
0.128013
0.00799524
0.00292372
0.0043456
0.108552
0.0520034
0.146003
0.103458
0.147028
0.0671281
0.0932226
0.00288759
0.135883
0.012646
0.142849
0.00820705
0.00446075
0.0483528
0.00674312
0.0246621
0.0913933
0.00643009
0.0531319
0.0485879
0.0912798
0.00142651
0.009582
0.00114249
0.0265595
0.00524684
0.0131997
0.153443
0.0718335
0.0156521
0.14677
0.088827
0.0104634
0.0666812
0.0359284
0.033903
0.0406051
0.0429604
0.00915813
0.0109301
0.107025
0.0111098
0.0516209
0.0758132
0.112057
0.133713
0.00277175
0.00523888
0.142604
0.0149162
0.154545
0.0853661
0.00121667
0.0582799
0.140556
0.135205
0.0797928
0.154061
0.0478284
0.00279572
0.103461
0.0197853
0.137905
0.157108
0.00699545
0.00284231
0.00551313
0.0514825
0.176436
0.14082
0.0526754
0.00720032
0.00186038
0.148321
0.014284
0.0362009
0.010173
0.0276242
0.153757
0.0367784
0.005518
0.0939737
0.0252778
0.150313
0.131258
0.0567916
0.00180445
0.014913
0.14315
0.0045805
0.0108377
0.129346
0.00948306
0.128579
0.136077
0.00528217
0.104502
0.101199
0.0574554
0.0062475
0.0261235
0.043265
0.143633
0.103868
0.141347
0.0911603
0.0183923
0.0186009
0.00113571
0.025093
0.0222763
0.0139368
0.0136883
0.132426
0.0331084
0.0072142
0.00389657
0.00253613
0.058521
0.123493
0.00132873
0.116572
0.119544
0.0317768
0.0200078
0.0512036
0.144732
0.00328572
0.019513
0.0538251
0.0880726
0.0115878
0.00332746
0.00137446
0.107464
0.0965725
0.0507913
0.149472
0.138529
0.0149199
0.108746
0.0263643
0.0136274
0.0466636
0.00290105
0.117885
0.064454
0.0445333
0.149046
0.00357127
0.1137
0.143345
0.0131373
0.00766849
0.0128918
0.00412139
0.106417
0.0144528
0.123455
0.128109
0.0836785
0.165062
0.0530803
0.00385383
0.0484876
0.0126567
0.097395
0.135033
0.0693145
0.150674
0.136754
0.00143903
0.157763
0.0467182
0.00713504
0.152906
0.00949785
0.0106203
0.0139779
0.074394
0.115802
0.122251
0.136377
0.151066
0.0478835
0.109625
0.13078
0.140214
0.126484
0.037376
0.0990234
0.00294882
0.0125437
0.141549
0.116377
0.126999
0.0130453
0.133525
0.0245955
0.103933
0.154494
0.131888
0.0115373
0.0588786
0.00362962
0.128866
0.157095
0.0278373
0.159257
0.148558
0.00179342
0.081794
0.133864
0.0141534
0.00992578
0.00102731
0.155099
0.0228356
0.0146199
0.132479
0.145054
0.00434126
0.0969137
0.180938
0.011762
0.127319
0.00183503
0.157892
0.11648
0.0816364
0.13143
0.00238581
0.134161
0.147058
0.00756786
0.0893658
0.13146
0.147935
0.12577
0.00999319
0.0603403
0.094263
0.152212
0.0179786
0.0862942
0.149216
0.147322
0.0450637
0.131411
0.0236748
0.103444
0.136579
0.0583319
0.159962
0.0526249
0.0761223
0.0358504
0.134144
0.00655997
0.0904802
0.03478
0.141906
0.0437506
0.107471
0.157684
0.0247904
0.065507
0.0214045
0.0105632
0.128452
0.00151923
0.0029393
0.00638154
0.00234797
0.0928749
0.0798042
0.0213971
0.00839399
0.119828
0.00135654
0.140963
0.00474764
0.083519
0.0199467
0.00668475
0.0314377
0.0144374
0.141905
0.00962272
0.121426
0.124966
0.018246
0.00192531
0.00160019
0.0482179
0.0880607
0.0179135
0.14219
0.00690201
0.152385
0.0413341
0.147249
0.121155
0.00143019
0.119909
0.0133615
0.0739876
0.0208021
0.0115445
0.0756798
0.138484
0.00282274
0.128907
0.0923001
0.0466716
0.137639
0.00694904
0.0636689
0.0177043
0.00147757
0.0939978
0.0229214
0.0665049
0.117613
0.0136754
0.126495
0.141474
0.0134488
0.126001
0.135602
0.0277829
0.0754424
0.00560785
0.0484159
0.138712
0.115971
0.152949
0.130266
0.114325
0.00777748
0.0803565
0.101689
0.128994
0.112301
0.086561
0.0700362
0.00271297
0.140761
0.0248601
0.0487404
0.128165
0.00345131
0.0790719
0.144634
0.00146521
0.0062322
0.00179831
0.123638
0.00222091
0.0267546
0.08379
0.00142359
0.0808674
0.0647803
0.00516836
0.0562531
0.0365933
0.00147336
0.0407677
0.00851201
0.0743367
0.00281115
0.0925976
0.114026
0.109883
0.00143863
0.0884073
0.149035
0.0891691
0.0795157
0.131
0.117741
0.0150086
0.0294458
0.104461
0.0347941
0.00140744
0.04956
0.0105768
0.0107943
0.138639
0.00721617
0.0254697
0.0614065
0.00373199
0.158545
0.00763133
0.00120248
0.130513
0.00125315
0.1209
0.0023973
0.00712614
0.0384098
0.0728623
0.113312
0.0823258
0.104633
0.0344032
0.141071
0.0770568
0.00154365
0.0142969
0.00304722
0.106532
0.020216
0.00179389
0.10807
0.0849149
0.00272002
0.101473
0.10557
0.00407802
0.00857404
0.0113722
0.0839669
0.00367864
0.0267747
0.0623976
0.00181666
0.00452261
0.108072
0.149095
0.00603819
0.0131509
0.0135658
0.0758578
0.0189269
0.0144891
0.0247293
0.0797605
0.132862
0.0358352
0.00147201
0.0319071
0.101803
0.0968979
0.0481894
0.131632
0.00167431
0.0214204
0.119333
0.0103834
0.136345
0.146938
0.0154826
0.0113834
0.0883852
0.00250193
0.106121
0.00178063
0.133739
0.00144819
0.0034
0.00425449
0.154424
0.0291638
0.037243
0.0294289
0.011716
0.00755208
0.00198974
0.0253755
0.145765
0.0273666
0.130873
0.00597486
0.00134261
0.163056
0.150866
0.0449504
0.0105854
0.028644
0.156465
0.0179892
0.011072
0.140002
0.13404
0.0473464
0.00162643
0.0674762
0.131993
0.00258424
0.0179859
0.0417505
0.00448822
0.111328
0.0330743
0.00257191
0.154573
0.0235965
0.0146889
0.0081169
0.00812288
0.00245748
0.0715924
0.0537192
0.0261221
0.12169
0.00449453
0.0104227
0.0143835
0.00583389
0.0168469
0.0830696
0.00866124
0.00268241
0.0247866
0.00526705
0.132093
0.0547501
0.0730959
0.12552
0.00357867
0.0251769
0.153107
0.0391511
0.00392968
0.115659
0.104635
0.0019688
0.125427
0.0735414
0.151523
0.0585532
0.00998065
0.0713715
0.00506155
0.0130991
0.0110169
0.0572731
0.0134913
0.0694786
0.0500766
0.0368635
0.0839458
0.0590897
0.153889
0.13819
0.00170763
0.00542204
0.0354715
0.0054429
0.104705
0.0696629
0.03914
0.135795
0.13381
0.0178243
0.0234881
0.00153495
0.0131305
0.00705957
0.073928
0.00830027
0.099655
0.00291094
0.147872
0.00402446
0.00778679
0.140616
0.0111808
0.00129991
0.0431051
0.123565
0.136083
0.0271227
0.00670306
0.138537
0.0486078
0.12999
0.161098
0.00317959
0.12791
0.0240779
0.123805
0.182761
0.00433325
0.0156101
0.0614636
0.00477243
0.0492567
0.00198761
0.0555339
0.141963
0.0490637
0.00136513
0.0728969
0.00854905
0.0442984
0.00269423
0.1122
0.104087
0.0579155
0.00378682
0.104421
0.140279
0.146067
0.00430841
0.00151472
0.0105708
0.106663
0.056391
0.120035
0.00138567
0.139462
0.00370155
0.00767678
0.107578
0.00916952
0.0480814
0.153221
0.033294
0.114662
0.0229897
0.0262144
0.0152978
0.0577187
0.0672976
0.112345
0.00180159
0.143386
0.173302
0.00249184
0.049243
0.107767
0.0234121
0.128741
0.138772
0.101832
0.0281184
0.0300655
0.152498
0.154322
0.0277478
0.0509606
0.0101249
0.0160025
0.135816
0.156991
0.154511
0.0749816
0.0541464
0.00898548
0.00141815
0.0027318
0.121089
0.13634
0.0279991
0.00320189
0.0859695
0.133611
0.00245893
0.0030629
0.124609
0.0337103
0.0480128
0.08743
0.00169601
0.113826
0.125597
0.0160612
0.00507449
0.0603359
0.0301045
0.0532647
0.00427535
0.00379037
0.1367
0.00398948
0.0612455
0.104724
0.00597774
0.00826238
0.0268413
0.0551965
0.0260341
0.0634038
0.138556
0.0385447
0.0661753
0.0420681
0.0272014
0.135251
0.0222028
0.00342809
0.0107925
0.140832
0.0116907
0.00844787
0.0142914
0.134833
0.0563364
0.149861
0.00304887
0.0472404
0.109371
0.00919541
0.00500072
0.157498
0.00130499
0.025634
0.0821331
0.0104367
0.10108
0.101151
0.132159
0.152095
0.100752
0.12135
0.00217524
0.153191
0.132765
0.00726466
0.0223017
0.0583049
0.00446053
0.0763909
0.104566
0.0434561
0.0493281
0.146857
0.156452
0.0033437
0.0540365
0.0539699
0.112858
0.0682659
0.00294576
0.00911903
0.00278203
0.150204
0.0423078
0.0810847
0.0838146
0.134823
0.134063
0.00384157
0.0069259
0.031439
0.112087
0.104101
0.00811673
0.0504507
0.068463
0.0772948
0.00142668
0.0194069
0.00102648
0.0856086
0.154023
0.0656221
0.10506
0.0866968
0.0102248
0.116365
0.0072073
0.00170525
0.0258663
0.00126421
0.0991754
0.16101
0.014621
0.132999
0.0111403
0.154655
0.134181
0.152872
0.0027051
0.152415
0.0469002
0.0870831
0.00747059
0.0359307
0.0380247
0.00764357
0.00227662
0.117733
0.151135
0.131647
0.00269172
0.0779904
0.0736594
0.0550491
0.141744
0.00936166
0.127352
0.147527
0.0381981
0.0728355
0.0121537
0.00168173
0.00177628
0.0223655
0.171236
0.0174258
0.0360771
0.013578
0.127912
0.0044609
0.0057224
0.0685803
0.0819788
0.155674
0.013877
0.0701225
0.00313104
0.00642221
0.0233119
0.00341202
0.00623058
0.00499685
0.00239127
0.0966736
0.00273619
0.0417293
0.00144395
0.0033278
0.00274583
0.00222087
0.146487
0.0138686
0.131422
0.101982
0.00118211
0.0773036
0.0748922
0.0164254
0.0440466
0.0145576
0.00310419
0.00276833
0.00529276
0.0226486
0.0260751
0.0490741
0.102795
0.0622326
0.0107792
0.00643171
0.00799482
0.0189488
0.156386
0.138827
0.0973023
0.00349484
0.0526059
0.0808356
0.0273331
0.0204904
0.0143967
0.0285716
0.0598147
0.00291908
0.0229916
0.0136998
0.0837452
0.0166095
0.0103752
0.126456
0.0295793
0.138163
0.00631125
0.0155712
0.110956
0.0140892
0.00172675
0.131839
0.0364821
0.142699
0.00506425
0.0672912
0.11641
0.154611
0.011772
0.00398041
0.160368
0.00701953
0.00334039
0.141916
0.0524469
0.0132568
0.00135682
0.0216672
0.00134113
0.067933
0.124598
0.0964981
0.00215193
0.0131966
0.135689
0.00172845
0.0802095
0.0504526
0.0269025
0.00301289
0.0497046
0.00957729
0.0228973
0.0357451
0.00342489
0.112165
0.109117
0.072213
0.0130511
0.0874562
0.0499494
0.155942
0.131769
0.00263327
0.0445425
0.00141935
0.156134
0.00161991
0.00135657
0.072456
0.0536129
0.0213703
0.0247209
0.00370113
0.0105057
0.00173124
0.00307563
0.0265472
0.111011
0.00274923
0.00138469
0.0688935
0.00344452
0.0752012
0.106975
0.0742396
0.057963
0.147329
0.0133817
0.00130523
0.0451069
0.153688
0.00319727
0.0026996
0.00739774
0.00226672
0.0651656
0.00206134
0.00778669
0.00558614
0.147694
0.103674
0.00751214
0.00132331
0.0904168
0.00440213
0.0018473
0.0958662
0.0650028
0.125421
0.017559
0.0679228
0.0104856
0.00263749
0.141942
0.0938497
0.138881
0.0432727
0.00494978
0.00201195
0.0341509
0.00260058
0.0116123
0.0939498
0.155206
0.0156064
0.152416
0.0032685
0.00303284
0.00811609
0.0107356
0.00155923
0.105603
0.00280671
0.0015111
0.00987067
0.00262677
0.156072
0.0506405
0.0376818
0.0268067
0.00248083
0.0108167
0.0516996
0.0228736
0.138077
0.00146592
0.108665
0.151518
0.00179558
0.00193432
0.0590759
0.0285183
0.0111297
0.111533
0.106223
0.0109731
0.11146
0.00285498
0.15823
0.00237567
0.116214
0.0202675
0.00540956
0.112191
0.147541
0.0121385
0.0106132
0.101701
0.0499938
0.00855222
0.00367574
0.00216282
0.0071993
0.0291839
0.154485
0.139561
0.0172205
0.122298
0.0452404
0.136816
0.152316
0.00146139
0.026955
0.00979742
0.0236063
0.0867653
0.130167
0.118699
0.0432595
0.0363543
0.00640511
0.0241063
0.00723686
0.00088014
0.0215309
0.00804991
0.00589584
0.00221621
0.00659913
0.155037
0.0206555
0.0170553
0.0278281
0.00718561
0.139277
0.0437175
0.0067303
0.0014464
0.0275547
0.00591046
0.00761045
0.00560642
0.00531605
0.0330152
0.0048897
0.00457052
0.00431076
0.00409434
0.00477934
0.0069955
0.0908006
0.13005
0.0147213
0.00586522
0.112433
0.00728785
0.00215698
0.0106809
0.00182023
0.153953
0.133123
0.122158
0.00297041
0.0377525
0.0529326
0.00598154
0.00632326
0.0545667
0.0780553
0.0455892
0.0236948
0.00190955
0.155336
0.0234815
0.00459989
0.00149914
0.0061206
0.0019977
0.00872514
0.130928
0.00206951
0.125438
0.00209939
0.00147346
0.0512375
0.0151498
0.0121552
0.0626669
0.131127
0.0254156
0.0411285
0.139853
0.130618
0.00804378
0.00310337
0.0123916
0.0605988
0.0034813
0.00785193
0.00180189
0.00157462
0.0658818
0.104799
0.0415263
0.175506
0.00196125
0.0530055
0.00299197
0.00632061
0.00336565
0.108078
0.143917
0.1429
0.00144788
0.137712
0.00229127
0.122837
0.00215521
0.0379696
0.0603569
0.083756
0.144264
0.00593966
0.113103
0.146949
0.0549377
0.0360715
0.00357166
0.00132821
0.0108723
0.0016656
0.178852
0.14805
0.022128
0.0128152
0.00197614
0.00586718
0.0130852
0.00351433
0.00532953
0.00324114
0.170908
0.133252
0.139977
0.144597
0.00440438
0.0425045
0.124743
0.0251721
0.00418833
0.114098
0.105034
0.0305564
0.00138776
0.106369
0.0353893
0.151491
0.00155467
0.120235
0.0720844
0.00464431
0.00580097
0.00352302
0.151384
0.012498
0.0107355
0.00395658
0.0031094
0.113939
0.00449943
0.0722149
0.107506
0.0178293
0.05385
0.0113786
0.0782428
0.0137722
0.014841
0.00769522
0.00142989
0.00235494
0.00233801
0.128879
0.0112574
0.107486
0.00437728
0.111276
0.011846
0.0680289
0.0123016
0.153157
0.113194
0.15833
0.0242495
0.00149861
0.00426799
0.0643281
0.0271591
0.00509798
0.154487
0.105737
0.0024619
0.01901
0.0112617
0.00351526
0.129804
0.00130653
0.154745
0.00284758
0.00171388
0.0527178
0.0235461
0.0163998
0.00559053
0.00614204
0.00216323
0.0495454
0.0425479
0.00331548
0.0514431
0.00723228
0.0328056
0.00507008
0.0113895
0.002924
0.0178156
0.0387793
0.0393071
0.00155908
0.0107535
0.00336109
0.00113928
0.106842
0.152026
0.00150479
0.00216095
0.0945544
0.0452339
0.0219397
0.0580716
0.00272847
0.0418714
0.00145353
0.0293945
0.00143574
0.0111503
0.0611801
0.0441888
0.00729887
0.00547559
0.158183
0.00589633
0.153159
0.0233578
0.063917
0.154773
0.0998421
0.0776244
0.00204703
0.0027263
0.148722
0.00242665
0.0444008
0.0983518
0.0919647
0.126004
0.0526025
0.00314357
0.00181221
0.140012
0.0260722
0.00747278
0.00881448
0.00401892
0.00612922
0.0279986
0.0162322
0.120627
0.155632
0.0462681
0.0019589
0.143338
0.00254865
0.00345315
0.0107144
0.00280063
0.0014098
0.13343
0.00141979
0.0118662
0.00848026
0.0712271
0.111327
0.0874982
0.00376605
0.0668044
0.070266
0.120693
0.00243742
0.0043217
0.00788843
0.00385816
0.00390591
0.00232388
0.0757945
0.0974305
0.00757261
0.0405875
0.0556334
0.0531422
0.0288761
0.112677
0.10885
0.0430448
0.0272005
0.0380816
0.0344798
0.149588
0.0613529
0.00494536
0.0372836
0.00226598
0.0389983
0.10001
0.00570588
0.00962366
0.12702
0.113198
0.0268028
0.0285462
0.00139884
0.0269206
0.0100821
0.0968132
0.105669
0.0254286
0.00203135
0.00730648
0.0361849
0.149332
0.00175309
0.0622261
0.110361
0.00671008
0.0197272
0.00791229
0.00148911
0.00651072
0.0262915
0.0251209
0.0014073
0.0924191
0.0610988
0.0137899
0.153415
0.0077893
0.00952993
0.00528498
0.032182
0.0638295
0.018926
0.00359935
0.00722731
0.065113
0.00550564
0.00539451
0.0103848
0.0582054
0.0606122
0.00849761
0.0110748
0.00281143
0.112418
0.0630582
0.00936406
0.0557786
0.00913654
0.00735327
0.0674676
0.00891664
0.153537
0.00999949
0.0558447
0.0710411
0.0992662
0.117193
0.00205708
0.00357752
0.0470284
0.0249397
0.00505997
0.0590983
0.102053
0.0146235
0.0021838
0.00754384
0.00152658
0.0152384
0.0141053
0.00328918
0.0047495
0.0144306
0.0972757
0.0057184
0.0952803
0.0678643
0.00526819
0.00443611
0.04675
0.0272458
0.0203584
0.0293513
0.0280011
0.00420428
0.115133
0.00153042
0.0231044
0.136482
0.13499
0.135978
0.0463422
0.0449529
0.128799
0.0240848
0.0672335
0.0490603
0.152747
0.00649073
0.0434042
0.0107289
0.0272603
0.15582
0.133454
0.00967517
0.0949447
0.00310549
0.0691654
0.0710793
0.0137786
0.0110553
0.0621781
0.0642474
0.011515
0.0266766
0.0126715
0.0108715
0.105342
0.00210407
0.0255864
0.0436946
0.0182963
0.00192606
0.134355
0.0115441
0.146222
0.0244366
0.108237
0.0335242
0.0921748
0.0692439
0.0899502
0.0109038
0.00126276
0.0125691
0.0716662
0.0282635
0.00142503
0.0328354
0.00383186
0.00585366
0.0763282
0.0138453
0.0733555
0.00372082
0.027722
0.0282867
0.00136954
0.136708
0.0433822
0.0584641
0.0136925
0.0427639
0.0070617
0.00181392
0.0768013
0.0888389
0.0639144
0.00186386
0.049832
0.0391914
0.0100616
0.00158638
0.116247
0.0227839
0.00836106
0.01437
0.14723
0.0128893
0.141007
0.0355695
0.112401
0.050502
0.00492605
0.00702518
0.113371
0.0454537
0.00483309
0.0718589
0.0561871
0.0197028
0.0556129
0.078101
0.0249057
0.0527314
0.0535163
0.113136
0.00776633
0.00494537
0.00395557
0.115862
0.00798811
0.00140252
0.00102521
0.153586
0.0741895
0.0199321
0.00636172
0.0533137
0.113821
0.0913429
0.135351
0.0542446
0.0188872
0.145783
0.00759191
0.0375193
0.126312
0.0473476
0.00781873
0.0132856
0.00482523
0.0449266
0.0297316
0.00137686
0.0433136
0.022392
0.00132615
0.00143948
0.00525342
0.00848326
0.00373981
0.105627
0.141627
0.0474238
0.00334399
0.102162
0.120118
0.00275947
0.136549
0.152636
0.00791125
0.0448231
0.00120083
0.0165554
0.0153684
0.0363868
0.0137047
0.0444045
0.0259462
0.0373342
0.128574
0.023506
0.00143382
0.0800112
0.097681
0.0224731
0.00142901
0.045988
0.0461418
0.00190005
0.137303
0.0355224
0.00793704
0.134248
0.00188909
0.0238644
0.0518558
0.0151262
0.00693331
0.00331258
0.0267478
0.011576
0.0139452
0.00960895
0.00826433
0.0746662
0.0143439
0.00614213
0.0426771
0.0100294
0.0514048
0.0285976
0.00168362
0.137358
0.0104854
0.00992957
0.0828837
0.0148719
0.0223917
0.038505
0.0249378
0.00564825
0.0377413
0.0145992
0.046479
0.00796707
0.10606
0.00142316
0.0123274
0.121956
0.0472152
0.117945
0.13707
0.134005
0.0788091
0.0735071
0.0229022
0.0243654
0.0596199
0.148532
0.149653
0.147278
0.00778707
0.138233
0.0623829
0.0400301
0.0401975
0.0186484
0.102765
0.0291144
0.0258136
0.0365208
0.0497961
0.0609986
0.00486225
0.0817449
0.0116421
0.0221805
0.00560054
0.0183085
0.0821086
0.00808772
0.013777
0.00140346
0.00174655
0.023539
0.0507809
0.0261023
0.0153216
0.00985011
0.153097
0.12191
0.012259
0.153323
0.0405441
0.0549561
0.040681
0.0477405
0.0108943
0.0388314
0.0511415
0.114857
0.159264
0.00461494
0.0361881
0.08925
0.00597986
0.00776168
0.106113
0.0188619
0.103709
0.0612432
0.0774328
0.0450269
0.0753524
0.104228
0.0867369
0.0735294
0.00386563
0.129346
0.10606
0.081976
0.0438798
0.00380307
0.00179405
0.0422806
0.0379014
0.00138736
0.0782372
0.10133
0.0879422
0.0154354
0.140016
0.0636666
0.0672198
0.00957763
0.0813889
0.0211789
0.0635459
0.0363675
0.00149009
0.101798
0.0415924
0.0101324
0.0198236
0.0185377
0.118602
0.0555159
0.0223047
0.0284157
0.0275636
0.0378067
0.0123931
0.00787191
0.139396
0.00892825
0.0535927
0.131361
0.046023
0.00219137
0.104928
0.136189
0.0286775
0.0675579
0.0421747
0.102454
0.048495
0.0272545
0.056126
0.0392816
0.0177203
0.0370016
0.152749
0.00317532
0.00326608
0.0737784
0.1001
0.00627217
0.141041
0.0517494
0.0694412
0.00745907
0.168053
0.145807
0.0207829
0.0411344
0.00272972
0.0634145
0.149225
0.0269241
0.136424
0.00176976
0.0664858
0.0420608
0.0464054
0.0137615
0.00942851
0.0258714
0.0530047
0.00974775
0.0749524
0.139316
0.0302505
0.0470658
0.0256567
0.0986433
0.063218
0.0442698
0.0821061
0.0129186
0.00817829
0.00213708
0.0789325
0.0439843
0.126971
0.00299458
0.00198916
0.0679176
0.0781574
0.0263042
0.0232166
0.00677776
0.0672484
0.0235161
0.0218988
0.0142553
0.146723
0.00826981
0.0112819
0.0484702
0.0483226
0.0593791
0.0134088
0.0520124
0.151536
0.0232883
0.0127906
0.153789
0.0469165
0.00994834
0.152149
0.0736855
0.0564439
0.0207373
0.0070597
0.017887