/*--------------------------------*- C++ -*----------------------------------*\
| =========                 |                                                 |
| \\      /  F ield         | OpenFOAM: The Open Source CFD Toolbox           |
|  \\    /   O peration     | Version:  v2012                                 |
|   \\  /    A nd           | Website:  www.openfoam.com                      |
|    \\/     M anipulation  |                                                 |
\*---------------------------------------------------------------------------*/
FoamFile
{
    version     2.0;
    format      ascii;
    class       volScalarField;
    location    "150";
    object      k_0;
}
// * * * * * * * * * * * * * * * * * * * * * * * * * * * * * * * * * * * * * //

dimensions      [0 2 -2 0 0 0 0];


internalField   nonuniform List<scalar> 
13851
(
0.000214939
0.000155091
0.000154872
0.0194489
0.000148472
0.000157728
0.000157136
0.000147193
0.0249936
0.000148367
0.000178639
0.000148607
0.000148772
0.00913373
0.000164608
0.000292348
0.0466562
0.000148641
0.000294555
0.00021461
0.000168917
0.000156659
0.0557562
0.000149734
0.000522157
0.000184501
0.000802201
0.000417412
0.0471782
0.000146396
0.106109
0.000157008
0.00021513
0.0191485
0.000171156
0.0511184
0.000149811
0.0728497
0.0448191
0.000148511
0.00736224
0.0492047
0.0201279
0.000268473
0.0457592
0.000147392
0.000145735
0.000240941
0.000152927
0.000148739
0.0234909
0.000149155
0.000269898
0.000164447
0.0123879
0.000148516
0.00021542
0.00871088
0.0176556
0.00870505
0.000148654
0.000539748
0.000148742
0.000153261
0.000186303
0.000187592
0.0066437
0.000167029
0.000148771
0.0474641
0.105934
0.000174433
0.00014812
0.00754002
0.000163656
0.000152839
0.0600138
0.000145733
0.000535294
0.000147608
0.000148854
0.000304906
0.00017063
0.00914904
0.00852469
0.108126
0.000157004
0.0193694
0.000148241
0.104087
0.000149299
0.000157097
0.0148809
0.101652
0.0125105
0.000216812
0.00014755
0.000260979
0.0147674
0.000214306
0.000275137
0.000162225
0.000163323
0.00014842
0.00014733
0.000174451
0.000147335
0.108468
0.000156987
0.000148429
0.000160106
0.000147384
0.000227288
0.000181641
0.000218225
0.000163706
0.000146303
0.000146724
0.0159491
0.0512419
0.000199355
0.000147431
0.000148665
0.0156159
0.000263466
0.000173495
0.000147536
0.000172571
0.0190127
0.000171106
0.000156566
0.000163892
0.0527372
0.0198723
0.000179554
0.0180869
0.000166576
0.107138
0.000160265
0.00016997
0.00030051
0.000150342
0.000148236
0.000172439
0.000513985
0.000152231
0.000145671
0.101772
0.0305527
0.000173255
0.00026438
0.000224388
0.000183349
0.000264216
0.000149398
0.000148524
0.000148714
0.0533465
0.000167984
0.00015484
0.000149585
0.0490539
0.000173964
0.000238838
0.00951553
0.0304274
0.0300952
0.0238635
0.000159967
0.000696726
0.000148751
0.0001463
0.000180548
0.000148834
0.00851567
0.000351901
0.000261589
0.000146207
0.000164161
0.00025624
0.000259848
0.000267213
0.000159556
0.000170333
0.0242495
0.0316269
0.000215238
0.000157685
0.000149146
0.000146855
0.000453483
0.000168016
0.00688809
0.000157852
0.000151959
0.000265338
0.000213898
0.000150176
0.000149884
0.000167773
0.000304966
0.00289604
0.00578002
0.000164315
0.000358229
0.00406268
0.000152413
0.000168461
0.0235624
0.000156963
0.000305871
0.000148609
0.000303741
0.000149573
0.000171905
0.000154134
0.000148635
0.000255071
0.000150194
0.000454289
0.000146177
0.000214152
0.00789657
0.0136076
0.00015722
0.000168823
0.000149755
0.000170499
0.000148106
0.00017161
0.033884
0.000157157
0.000156912
0.000148823
0.00689642
0.000146379
0.0469523
0.00460309
0.00020567
0.000149647
0.00549962
0.00816055
0.0473598
0.000274396
0.000164044
0.000176806
0.000243225
0.000164717
0.000217048
0.000161605
0.0149457
0.000214005
0.000147118
0.000157444
0.000280262
0.0484574
0.0292484
0.000146815
0.00017374
0.000148203
0.000244488
0.000262676
0.000157862
0.000173993
0.000216594
0.000147837
0.000162624
0.000217676
0.000392729
0.00014868
0.000148635
0.000157273
0.0245159
0.0133888
0.000171711
0.000147658
0.000260307
0.000263111
0.000209103
0.000173618
0.0237384
0.0122197
0.000158445
0.000162811
0.0807598
0.000147302
0.000148696
0.000210278
0.000174813
0.00014645
0.00014955
0.000148021
0.000147973
0.000163322
0.000148667
0.0249501
0.000170176
0.000147999
0.0491064
0.0148156
0.000149157
0.000215209
0.0183873
0.000150583
0.000149267
0.000171742
0.00776162
0.108517
0.000183234
0.000148377
0.000696887
0.000148706
0.000185777
0.0189764
0.000386839
0.00015453
0.0767842
0.0118741
0.116244
0.000223126
0.000162737
0.0163043
0.0180192
0.000411552
0.000150171
0.0646488
0.00724282
0.000228631
0.000217692
0.000152433
0.000183064
0.000157948
0.0208011
0.000163965
0.000146989
0.000145021
0.000159204
0.11207
0.000385946
0.000147222
0.0130685
0.000158043
0.000164125
0.000155092
0.00746347
0.000259119
0.000286239
0.000153671
0.000156223
0.0572254
0.000149152
0.000266848
0.0001583
0.000171754
0.000158581
0.000148199
0.000147969
0.000214812
0.000223538
0.000214262
0.036706
0.0577411
0.000152409
0.00658481
0.000267161
0.000146571
0.000395548
0.000194781
0.0163231
0.000158616
0.00019038
0.0112984
0.0110488
0.00021099
0.0220118
0.000151328
0.000374076
0.0195202
0.000162206
0.0190939
0.000164533
0.00165137
0.000162606
0.000172335
0.000214967
0.000265505
0.000148518
0.000157991
0.000176011
0.000164168
0.000147535
0.000171657
0.00360262
0.00014811
0.000168778
0.00983677
0.000154775
0.0192595
0.000170277
0.105209
0.000157642
0.00018208
0.000361713
0.000264847
0.000174335
0.0243005
0.0075103
0.00254102
0.000147846
0.000214901
0.000164995
0.000188878
0.000147386
0.0233274
0.000640223
0.00154789
0.000156127
0.000215938
0.000407305
0.012954
0.000145571
0.0466461
0.000307321
0.0379977
0.000162277
0.000438207
0.000148263
0.000148769
0.0114098
0.000387182
0.000148353
0.000155135
0.000169467
0.00014659
0.000593366
0.000183218
0.000194129
0.000157488
0.000151377
0.000149291
0.0121728
0.000147959
0.000149239
0.0534953
0.0018189
0.000155928
0.0028835
0.000148768
0.000148645
0.000155336
0.000215913
0.000171784
0.000147601
0.000152342
0.000199214
0.000153553
0.107052
0.000148557
0.000159978
0.0450462
0.000160835
0.000145093
0.000148872
0.000157332
0.000150773
0.00267062
0.0562748
0.000164092
0.000660208
0.000155425
0.00014848
0.0200914
0.00664027
0.000160319
0.000148237
0.0169798
0.000159713
0.00602203
0.000148413
0.000164142
0.000214075
0.000163825
0.0189486
0.000436379
0.00173217
0.000152572
0.000225795
0.000147845
0.046729
0.000170081
0.000213321
0.000164717
0.000153319
0.000160873
0.000180897
0.000148532
0.0221174
0.0195386
0.10633
0.00601255
0.0548364
0.0687026
0.000265764
0.000156645
0.000149442
0.036268
0.000148399
0.000147512
0.000157907
0.00573983
0.000154717
0.000150345
0.000175268
0.000174881
0.00014847
0.00137384
0.000147556
0.0196023
0.00174779
0.000147588
0.000153957
0.000301816
0.000397991
0.000146456
0.0823369
0.0564252
0.000147228
0.108031
0.000290421
0.00021337
0.000152521
0.0513889
0.0113464
0.000147462
0.00028621
0.000148704
0.000147567
0.0623746
0.00166913
0.000169599
0.000171737
0.000148414
0.00017581
0.0190891
0.0335676
0.000148291
0.0628245
0.000147582
0.000148776
0.000174528
0.000161023
0.000145561
0.000152819
0.104525
0.000253387
0.105046
0.000154245
0.000148162
0.0257852
0.000149266
0.000216608
0.000159266
0.00016322
0.000164158
0.049334
0.0134422
0.000157602
0.0420208
0.000153972
0.000182931
0.0488866
0.0162224
0.000148634
0.000147864
0.000163545
0.101331
0.0127478
0.000175442
0.0252865
0.000161182
0.000162053
0.0381467
0.00411951
0.000186926
0.0197565
0.000253412
0.0565037
0.000150626
0.0212277
0.000397463
0.000148634
0.0195727
0.0009327
0.000160016
0.000170231
0.000148419
0.000532501
0.000177164
0.0564582
0.000148011
0.000149028
0.000155455
0.000174372
0.000148616
0.00763574
0.000148989
0.000249064
0.000152563
0.000189758
0.00014839
0.000148475
0.000167904
0.062128
0.000174482
0.0180662
0.000164166
0.000146666
0.000147282
0.000180954
0.000152288
0.000196968
0.000155477
0.000159953
0.0213929
0.000149277
0.026136
0.000149688
0.000212588
0.0456518
0.0365849
0.000157044
0.0644092
0.000174524
0.0002475
0.000926135
0.000148779
0.00240445
0.000158077
0.000163088
0.00718353
0.000392245
0.000146703
0.000195853
0.000150064
0.0545189
0.0311841
0.000149259
0.000167751
0.000611776
0.000149759
0.000149694
0.000185592
0.0220241
0.0468552
0.000149278
0.000214994
0.000153168
0.00014848
0.0269967
0.000215806
0.000211109
0.000145342
0.000216164
0.000164077
0.000179693
0.000150555
0.000151629
0.00017567
0.00015526
0.000227528
0.000174017
0.000174451
0.00018195
0.000437672
0.000292519
0.0242911
0.06706
0.000256272
0.0126866
0.000163663
0.0624552
0.000215351
0.000148148
0.000161747
0.000270974
0.000158134
0.000147633
0.000147611
0.000211165
0.0198196
0.000160028
0.00611075
0.000146704
0.0468198
0.000180998
0.0191917
0.0001955
0.000157832
0.000154923
0.0195243
0.000210678
0.000163268
0.000421319
0.000150996
0.0345222
0.000213125
0.000248342
0.000164662
0.00050083
0.000148239
0.000149638
0.000151969
0.000148478
0.0467013
0.000147952
0.0252506
0.0249137
0.000196126
0.0244632
0.0151523
0.000251233
0.000270912
0.000156907
0.000149214
0.000148538
0.000145742
0.00014722
0.000148855
0.000183287
0.000224655
0.000164818
0.00040244
0.000151644
0.0236719
0.000149959
0.024452
0.000169117
0.000149889
0.000148918
0.0344756
0.000157984
0.0268104
0.000899181
0.000168696
0.000183425
0.000147113
0.0192433
0.000153482
0.000154856
0.0238361
0.000149247
0.000150308
0.000148357
0.000169191
0.0185495
0.000161685
0.000164757
0.000304951
0.0410746
0.000157177
0.000156361
0.0530057
0.00014569
0.0530145
0.000149296
0.000153622
0.00052049
0.000189864
0.000215357
0.000188497
0.000174684
0.000149546
0.000149955
0.000184989
0.000150827
0.000149588
0.000161062
0.000298083
0.000147829
0.000224917
0.0127189
0.0300874
0.0001885
0.0885657
0.00016052
0.000149187
0.000209148
0.000146826
0.000158039
0.0239774
0.0590554
0.00380654
0.0543395
0.000149471
0.000149076
0.000169878
0.000151272
0.000147129
0.0506341
0.000248393
0.0183586
0.000215483
0.000190725
0.000148491
0.000146446
0.0548541
0.000194214
0.000154126
0.000149689
0.000216539
0.000232895
0.00396275
0.000149365
0.000148972
0.0150744
0.000150502
0.000164384
0.000146614
0.00404422
0.000148233
0.0552088
0.000148634
0.00019858
0.000167395
0.000169445
0.000164788
0.000148111
0.00015514
0.000148083
0.027513
0.000150433
0.034568
0.000151309
0.000530142
0.0209212
0.00016336
0.000147948
0.0102657
0.0525694
0.000158147
0.000189812
0.000148548
0.0211432
0.000148322
0.000271795
0.000148549
0.000148062
0.0254195
0.000164234
0.000148813
0.000164581
0.0152223
0.000462559
0.000620784
0.000146811
0.0139458
0.000148639
0.000147876
0.000149375
0.000144699
0.000149594
0.000716407
0.0199979
0.000150268
0.000148963
0.000169883
0.00014739
0.0149199
0.000211143
0.0111605
0.0170992
0.000155102
0.00022529
0.000148587
0.00016898
0.000177378
0.00014866
0.000149357
0.0121052
0.0303573
0.000182148
0.0253878
0.00017829
0.000148774
0.000171334
0.000190672
0.0513982
0.000162511
0.0186353
0.000195364
0.000149493
0.0493188
0.0470489
0.0243527
0.000454153
0.0638272
0.000152492
0.000176522
0.000149284
0.00036439
0.000157559
0.000147013
0.00065098
0.000151361
0.000147946
0.000148631
0.000150981
0.00515474
0.000267694
0.00014707
0.000171733
0.00845321
0.00015206
0.0236129
0.000151564
0.000187906
0.00159788
0.000148698
0.0197185
0.000160642
0.000164614
0.000512978
0.000151352
0.00029417
0.000181837
0.0112952
0.000150675
0.0283378
0.000161981
0.0122484
0.0407386
0.0227342
0.000168259
0.000148227
0.000149544
0.000149762
0.000171395
0.000148902
0.019129
0.000158854
0.000156566
0.000157025
0.000152381
0.00014677
0.000160919
0.000158901
0.000153894
0.000157793
0.000939337
0.0300214
0.000161027
0.000169941
0.000653682
0.000150424
0.11492
0.000145706
0.000161291
0.000150489
0.000147855
0.000166969
0.000148442
0.000147026
0.000162779
0.000148593
0.000295375
0.000151867
0.0182626
0.000364797
0.000244135
0.000268791
0.000149592
0.0317843
0.000223418
0.000149515
0.000158639
0.00015012
0.118266
0.000151551
0.000162802
0.000393988
0.00940411
0.000179459
0.00014941
0.0479964
0.000382259
0.0639399
0.000160562
0.000146591
0.00014824
0.000183267
0.000148219
0.0103471
0.00021661
0.000149383
0.000260506
0.000300532
0.000148215
0.000893938
0.0511775
0.000246592
0.000151575
0.0502818
0.000183163
0.000148143
0.0142098
0.000156254
0.000147855
0.000147585
0.000163178
0.000170534
0.0245571
0.10497
0.000166881
0.0284799
0.000162976
0.0001481
0.000169089
0.000147654
0.0403782
0.00014848
0.000148245
0.000153075
0.000150764
0.0225369
0.0240546
0.000382622
0.0139313
0.0440486
0.00015723
0.000148167
0.000151849
0.000307472
0.000148415
0.000147413
0.00016985
0.000533157
0.0386049
0.000145624
0.000165823
0.000164881
0.000213058
0.0212274
0.000147275
0.000145488
0.000154293
0.00327495
0.000161086
0.0184971
0.000151582
0.000149048
0.000147953
0.000147572
0.000154128
0.000247628
0.0581524
0.033259
0.000157075
0.000148491
0.0248192
0.000150819
0.000453778
0.0143623
0.000158299
0.0746229
0.0469529
0.0867725
0.000174357
0.000162186
0.0158425
0.000161833
0.000160406
0.000170261
0.000247346
0.000150561
0.00054318
0.000148127
0.0267997
0.00249335
0.000145732
0.000152733
0.000167305
0.000302924
0.000163634
0.000148894
0.000159384
0.000151585
0.000157304
0.000270028
0.000149152
0.051913
0.0193688
0.000148144
0.00016151
0.000169656
0.000148671
0.0581611
0.00973045
0.0234834
0.0406955
0.000148339
0.000154593
0.00015789
0.000149374
0.000634033
0.000163699
0.000149718
0.00017731
0.000154996
0.000605109
0.000167427
0.00708341
0.000151471
0.000151993
0.000163972
0.000194548
0.000185542
0.000147833
0.00793868
0.0147124
0.047032
0.0767907
0.026863
0.0286505
0.0115565
0.000147851
0.00014817
0.000149239
0.0071939
0.000170771
0.000185487
0.0282747
0.000150412
0.000145415
0.000148398
0.0204391
0.00014564
0.000157868
0.000152578
0.044054
0.000150987
0.000146875
0.000148724
0.000147935
0.000149012
0.000160024
0.000435071
0.000160467
0.0006005
0.000148263
0.000147588
0.0194319
0.0215065
0.0177574
0.0396022
0.00016406
0.0492789
0.000146552
0.000169906
0.000151969
0.000148671
0.000155688
0.0715224
0.000152669
0.000194974
0.0705053
0.000150413
0.000147782
0.000155293
0.00025113
0.000149806
0.0451129
0.000149146
0.00319274
0.000148884
0.000150196
0.000158235
0.000172123
0.000148787
0.00118461
0.106799
0.0128839
0.0204465
0.000148274
0.0595695
0.000341811
0.000148441
0.00575824
0.000149351
0.000161856
0.000149162
0.00015049
0.000147674
0.000148487
0.000149894
0.000155903
0.000181107
0.000149661
0.000148723
0.000165948
0.000146673
0.0737056
0.000148874
0.00016339
0.000163686
0.0109635
0.000380593
0.00014906
0.000249205
0.000146567
0.000163595
0.000174043
0.0393533
0.000169527
0.000149807
0.000213877
0.000168308
0.000190014
0.000343696
0.00016104
0.000216166
0.000174957
0.000181154
0.000150884
0.000147454
0.0261488
0.00941117
0.000155001
0.000148115
0.0234563
0.000146748
0.000169627
0.00014768
0.000178638
0.0450617
0.000145254
0.0240665
0.0001575
0.000149097
0.000263203
0.000147002
0.000161544
0.0434091
0.000169656
0.0285289
0.00014764
0.00014976
0.000162236
0.000149555
0.000149647
0.000159452
0.000161159
0.000181638
0.000180368
0.000148544
0.000165862
0.00014725
0.000148534
0.000149492
0.000148469
0.0173795
0.000148489
0.000151675
0.00124926
0.0001467
0.000148024
0.0231963
0.000149676
0.0207898
0.00015298
0.0274566
0.000256493
0.000164645
0.054511
0.00017963
0.000353884
0.000150678
0.000234645
0.000158471
0.000147349
0.000147417
0.000151619
0.000161995
0.000147869
0.000171687
0.000147272
0.000152015
0.0209249
0.0248289
0.000408716
0.000155526
0.000163353
0.0161282
0.03269
0.000149225
0.000157637
0.000411843
0.000149944
0.000169399
0.0556889
0.0352597
0.000158574
0.000166315
0.000150683
0.000310234
0.000149903
0.000161347
0.000430628
0.000148869
0.000147279
0.0742024
0.00017195
0.000432168
0.0197097
0.000210178
0.000149755
0.000147293
0.000150353
0.0822479
0.000392982
0.000642063
0.000175531
0.000148466
0.0174668
0.000148821
0.000222763
0.000155576
0.000153822
0.000169998
0.000148511
0.000895363
0.0290124
0.000147258
0.000183005
0.00017092
0.050771
0.000172839
0.000175826
0.000513737
0.000163278
0.0323069
0.000176087
0.000148842
0.000163471
0.000168782
0.0510763
0.000148306
0.0181007
0.000173789
0.000178749
0.000149812
0.0744909
0.000157264
0.000152201
0.000147174
0.000167002
0.00016659
0.000166767
0.000148865
0.000150408
0.000172685
0.0146103
0.000176907
0.000149115
0.000150453
0.000163756
0.000251816
0.000149217
0.000182975
0.0772583
0.000167999
0.0369578
0.000170559
0.0153648
0.000293555
0.000147857
0.00291161
0.000149551
0.000155003
0.000161923
0.000164097
0.00019693
0.000168577
0.000166002
0.000167463
0.000163025
0.000153273
0.00014558
0.000170313
0.000156494
0.000157387
0.000371598
0.000156972
0.000159336
0.000147588
0.0237264
0.000181194
0.00014854
0.000155449
0.000151777
0.00782935
0.000217929
0.000161955
0.0480021
0.000334536
0.00520684
0.000194628
0.0243636
0.000147212
0.000187188
0.00014733
0.000155696
0.0799296
0.0585646
0.00029487
0.0192388
0.000148878
0.00713909
0.000147196
0.00018974
0.000154722
0.0539431
0.00070137
0.000159529
0.000148069
0.000290877
0.000162129
0.000148161
0.0963584
0.000148555
0.000152362
0.000156554
0.000149169
0.000162805
0.000151895
0.000148429
0.00016349
0.000484334
0.000166908
0.000177111
0.000148109
0.0166654
0.0604279
0.000147961
0.000441327
0.000154635
0.000157302
0.000528395
0.000147939
0.000150427
0.000156726
0.0143453
0.000148265
0.000149181
0.000170018
0.0652809
0.000147833
0.000159666
0.000161856
0.00036775
0.00017284
0.000169895
0.000259279
0.000148582
0.000173978
0.000145765
0.00827109
0.000162026
0.000148431
0.000159781
0.000193289
0.000148958
0.00014983
0.000215409
0.0601748
0.00015078
0.00818314
0.000149258
0.000145721
0.000182564
0.000148296
0.000148504
0.000784732
0.000149829
0.000168369
0.000259009
0.118748
0.00035892
0.000148354
0.000152886
0.000156579
0.000148519
0.000148217
0.000148782
0.0532155
0.000149355
0.03717
0.000210598
0.000147167
0.000146783
0.000162068
0.000210705
0.000548339
0.000167034
0.000178391
0.000152861
0.026199
0.000177439
0.00016408
0.000165119
0.000172625
0.000193909
0.0219075
0.000169086
0.0361149
0.000533831
0.0228645
0.000155345
0.00014789
0.000168408
0.000159414
0.000147605
0.000150853
0.000181114
0.000149617
0.000149535
0.000148452
0.0001454
0.000153824
0.000149196
0.0584376
0.000148055
0.019447
0.00014857
0.000174948
0.000150715
0.000209944
0.000174666
0.000148246
0.0215226
0.000152781
0.000149548
0.000165392
0.000147136
0.000158855
0.000148675
0.059616
0.000153719
0.000170898
0.000171298
0.0219718
0.000158166
0.040028
0.000367934
0.000169931
0.000149505
0.000152267
0.000177762
0.000182515
0.0421048
0.000146534
0.0485847
0.000148523
0.000169782
0.105024
0.000165835
0.0582465
0.000155415
0.0001633
0.000154225
0.0275275
0.000162964
0.000148868
0.000168985
0.000214514
0.000152531
0.000148315
0.000148905
0.0420954
0.000149706
0.000157466
0.0209288
0.000155592
0.000147841
0.000172011
0.000154988
0.00824295
0.000145425
0.000148075
0.000146986
0.000155004
0.00015053
0.000149525
0.000178244
0.0204907
0.000147748
0.000148752
0.000634692
0.000150637
0.0219283
0.000155543
0.0856378
0.000147253
0.000153405
0.000146553
0.0308663
0.0211067
0.000159311
0.000169735
0.000155762
0.000147785
0.000148838
0.05936
0.000148833
0.000189896
0.000146558
0.00017145
0.000149333
0.000619126
0.000146784
0.000167433
0.000147493
0.000236239
0.00280198
0.000146914
0.000166436
0.00166608
0.000180575
0.0419763
0.0560203
0.000237358
0.000151948
0.000164876
0.000195351
0.000405351
0.000150618
0.00016826
0.000156665
0.000147971
0.032165
0.0508916
0.000182235
0.000221173
0.000291967
0.000163024
0.0272193
0.000147519
0.000146814
0.000194689
0.0330992
0.000249626
0.000220339
0.00037412
0.000146562
0.0597382
0.0244026
0.102964
0.000149316
0.0548362
0.0966766
0.00289344
0.00043742
0.0162716
0.00019129
0.000162414
0.000227047
0.000154603
0.000147957
0.00392505
0.000193468
0.000145495
0.0110631
0.000149308
0.000158588
0.000168073
0.000155652
0.000379057
0.000160328
0.0102534
0.000168349
0.000155109
0.000549452
0.00137513
0.000213382
0.000149908
0.000154667
0.000185578
0.000169052
0.0001467
0.000174201
0.00016785
0.000213744
0.000147885
0.000237387
0.000153611
0.000168991
0.048754
0.0360982
0.000151438
0.000191311
0.087594
0.000148858
0.000150702
0.10746
0.000300118
0.000154543
0.000155443
0.000148725
0.000175664
0.000156825
0.0512326
0.00019657
0.000150015
0.00014945
0.000166682
0.000159553
0.000342073
0.0254207
0.000147283
0.00014829
0.000159104
0.0001493
0.000154644
0.000151012
0.000151514
0.000154764
0.000147596
0.000154224
0.00014915
0.000168354
0.000401009
0.000149752
0.000583084
0.0435608
0.000145766
0.000187465
0.000194209
0.00018123
0.000150504
0.000193303
0.00015837
0.000169007
0.000160744
0.000152264
0.000149353
0.0467492
0.000162166
0.0324383
0.000150459
0.000148323
0.000148193
0.000174138
0.000147718
0.000173679
0.000175833
0.000369547
0.000147396
0.000321131
0.0295544
0.0155281
0.000146502
0.000207511
0.000234744
0.0227965
0.000505976
0.000150365
0.000149266
0.000211221
0.00036942
0.0273471
0.000167943
0.00073768
0.0001495
0.000147699
0.000164774
0.000149347
0.000149125
0.000218069
0.000149769
0.000169986
0.0001472
0.00133311
0.0019366
0.000527757
0.0471671
0.0146313
0.000148862
0.000149054
0.000763122
0.000146717
0.000147021
0.000145743
0.000188429
0.0169671
0.0464893
0.000156303
0.000150047
0.000151806
0.000163152
0.00914248
0.000148189
0.0538374
0.00119711
0.000149324
0.000149221
0.0182739
0.00018766
0.000153819
0.000148347
0.000632883
0.0163812
0.000148942
0.000247267
0.000149693
0.0157125
0.000350029
0.000155044
0.0248191
0.0313517
0.000653739
0.000147051
0.000150542
0.00014966
0.000149901
0.0214175
0.000147521
0.000222071
0.0209796
0.0338743
0.000151362
0.000174729
0.000330697
0.000174769
0.000737634
0.112248
0.000145257
0.000156704
0.000156872
0.000296459
0.0381508
0.000145262
0.0208314
0.000160847
0.000166038
0.000150522
0.000147558
0.000268534
0.000169306
0.0168173
0.000149339
0.000174696
0.000151017
0.000209606
0.00015473
0.0203221
0.000531543
0.000236728
0.000205096
0.000147828
0.000152919
0.000191094
0.000186578
0.026268
0.00087392
0.000148944
0.049275
0.000171007
0.00838292
0.000160621
0.000171413
0.000169766
0.000149129
0.000647105
0.000148596
0.000162997
0.0396577
0.00155379
0.0127101
0.0162963
0.000158156
0.000173109
0.000146707
0.00138923
0.000157282
0.000496839
0.000146669
0.0137836
0.00014529
0.000148008
0.000162715
0.000158568
0.000159905
0.000147982
0.0251845
0.000167462
0.000147533
0.000166569
0.0288345
0.000159914
0.000148248
0.11473
0.000154148
0.000162759
0.00016272
0.00014559
0.000180348
0.000147936
0.074444
0.000174287
0.000159621
0.000148205
0.000301623
0.000169262
0.000146688
0.000523881
0.000397212
0.000257379
0.000147098
0.000363346
0.000149024
0.000202326
0.000158824
0.000184959
0.000420737
0.0205254
0.000159679
0.0173302
0.000170123
0.000157797
0.000146772
0.00148178
0.000182698
0.000197729
0.000165776
0.000149595
0.0598828
0.000187252
0.000305093
0.00188239
0.00103757
0.0266114
0.0545624
0.0673189
0.000158124
0.000158725
0.000148776
0.000149071
0.000145354
0.000235538
0.000158867
0.000159918
0.0880271
0.000147564
0.000146902
0.000166775
0.000214801
0.000159016
0.000146849
0.00295208
0.000154657
0.00016969
0.000149026
0.0630929
0.00015725
0.000686105
0.000167055
0.000164698
0.000171912
0.000148734
0.0100741
0.000321331
0.000182734
0.000148309
0.000147261
0.010125
0.111085
0.0510891
0.000147973
0.000183189
0.000348122
0.000149291
0.000148038
0.000148566
0.0182506
0.000172401
0.000163519
0.00016099
0.000157245
0.0253582
0.000181589
0.000259837
0.000159023
0.000163173
0.000145404
0.000187961
0.000173778
0.000148052
0.062586
0.110588
0.0160263
0.0613073
0.092889
0.0959858
0.000760715
0.000151501
0.000148333
0.000714896
0.0184731
0.000493345
0.000148457
0.000168137
0.000148509
0.000147734
0.0596394
0.00129447
0.000179679
0.000148009
0.000358747
0.000194682
0.000174543
0.0114879
0.000547519
0.000406357
0.000147303
0.0198964
0.0525973
0.000303055
0.000162316
0.000170343
0.000149206
0.000147115
0.000169155
0.000173184
0.000154147
0.00016477
0.000158933
0.000154562
0.0135388
0.0171565
0.000159273
0.000165769
0.0157382
0.00203867
0.000148798
0.00019676
0.00027309
0.0264271
0.000170338
0.000149351
0.00016086
0.000158105
0.00015859
0.000145585
0.00015908
0.000161107
0.000167511
0.000232883
0.000149504
0.00015175
0.0237038
0.05386
0.00181519
0.000324283
0.000214003
0.000145102
0.000148459
0.000161985
0.000146547
0.00248293
0.000148333
0.000149826
0.000146006
0.0627413
0.0505015
0.000149759
0.00017785
0.000159382
0.000161722
0.000161855
0.000159929
0.00016688
0.000167604
0.0256499
0.000157311
0.0168377
0.00016799
0.0029926
0.000161236
0.000147453
0.000146709
0.000195299
0.00021567
0.00014664
0.000163224
0.000161477
0.000177234
0.0489814
0.0225196
0.0103485
0.000149824
0.000368777
0.000158852
0.000164962
0.000148217
0.000181923
0.0001526
0.0365545
0.000399311
0.000166473
0.000148667
0.055811
0.000155892
0.0130212
0.0175884
0.0183305
0.000153667
0.000208546
0.0205958
0.000364943
0.0177804
0.00017883
0.000148032
0.000167993
0.000148115
0.0964146
0.00015406
0.000163545
0.000392585
0.0101685
0.000147782
0.000147847
0.10188
0.00017057
0.105977
0.000158944
0.000148377
0.000171552
0.000251701
0.000162658
0.0417632
0.000164869
0.000360228
0.000155999
0.000149657
0.000147758
0.000263325
0.000150499
0.000186551
0.000148481
0.000148246
0.000258389
0.000157378
0.000149055
0.000148321
0.000165104
0.000351804
0.00016617
0.000169306
0.000155374
0.000179874
0.000148282
0.000201936
0.000162249
0.000171052
0.000167364
0.00016168
0.000176038
0.000163281
0.000147947
0.000180728
0.0770031
0.0437505
0.000149624
0.0222857
0.0146321
0.000147797
0.000150569
0.000269455
0.012064
0.000156303
0.0181765
0.000299592
0.000149729
0.000190046
0.000145294
0.000157215
0.000180519
0.0823358
0.000219341
0.0329358
0.000324858
0.0634755
0.0173965
0.000153978
0.017512
0.000148302
0.0567219
0.0174456
0.000148798
0.00014847
0.0393055
0.000148929
0.000148709
0.000319453
0.0320872
0.000247855
0.00015757
0.0158723
0.000148617
0.0545461
0.0170224
0.000149229
0.00043916
0.0388198
0.0135523
0.032641
0.0196388
0.034509
0.000147149
0.000151582
0.000180846
0.000180122
0.000148667
0.00683006
0.000148336
0.0227394
0.000325358
0.000164515
0.000369159
0.0261383
0.000328099
0.000867202
0.00016579
0.0511149
0.000515276
0.000156323
0.00014544
0.0510352
0.000161568
0.000146619
0.073046
0.000147799
0.0464738
0.000149053
0.0100744
0.00015672
0.000147784
0.0266729
0.000156112
0.000160591
0.0352532
0.000672012
0.00985238
0.000159231
0.000172697
0.000151686
0.000166229
0.000208463
0.000165088
0.000149427
0.000392231
0.0001804
0.000162025
0.0272283
0.00016912
0.000162462
0.000219784
0.000185925
0.000166943
0.000147758
0.000231245
0.000146713
0.000208427
0.0291969
0.0148506
0.00014704
0.000169255
0.0395391
0.000153099
0.000180332
0.000162672
0.00017108
0.000731566
0.000179621
0.000151995
0.0635457
0.00014711
0.0576259
0.000148894
0.000152386
0.000208371
0.0529736
0.000162284
0.000192904
0.000247533
0.000161385
0.000149725
0.000179339
0.000172841
0.0692854
0.000155377
0.0242867
0.000215131
0.000161872
0.000161149
0.000180672
0.000167202
0.000168102
0.000179136
0.000162812
0.000154695
0.000149972
0.0269677
0.000148027
0.000160691
0.000145229
0.000204347
0.000161
0.00017811
0.0136438
0.000151345
0.000250625
0.000144739
0.000149006
0.000149297
0.000149415
0.000158712
0.000147554
0.000190876
0.0122063
0.000176962
0.00017139
0.000156222
0.000148394
0.0348695
0.000148195
0.0164187
0.000574095
0.0734704
0.000241778
0.000164417
0.00015884
0.000149261
0.000158105
0.000170992
0.000169876
0.0160098
0.000175854
0.120146
0.000254403
0.000149371
0.000146775
0.0421949
0.000147788
0.000160654
0.000166641
0.00029134
0.000153456
0.0200434
0.000149187
0.000156477
0.000148535
0.000150265
0.000179161
0.000206699
0.000149264
0.000162764
0.000159692
0.000170459
0.000174287
0.000243267
0.000217971
0.000258045
0.000248346
0.000159805
0.000151639
0.000173633
0.0558988
0.000723592
0.049613
0.000161463
0.00044694
0.000209038
0.000151892
0.000147956
0.000179036
0.000149039
0.000163638
0.0529956
0.000147713
0.000147328
0.000434158
0.063075
0.000169136
0.012008
0.000148855
0.0118961
0.000169813
0.00228362
0.000157433
0.00014827
0.0524478
0.00016542
0.000148179
0.000172935
0.000149709
0.000200478
0.000160884
0.000164689
0.0432414
0.000159686
0.00058043
0.0001475
0.115837
0.000148766
0.000157545
0.00015
0.000172266
0.000148915
0.000166675
0.0561844
0.00113024
0.000174864
0.000161612
0.000168761
0.000147641
0.000148956
0.000152545
0.00061541
0.000156326
0.00197419
0.0102416
0.00019715
0.000149495
0.000204229
0.000232724
0.000216177
0.00015931
0.0162963
0.000147866
0.000145046
0.000147762
0.00627842
0.000148985
0.000148057
0.0518054
0.000147745
0.000221906
0.000172829
0.000148051
0.0235294
0.000161803
0.00884389
0.000147923
0.000381939
0.000151224
0.000167524
0.0251849
0.000181679
0.000147607
0.000159369
0.0112652
0.000163248
0.00020673
0.000162129
0.000157462
0.000194631
0.000158491
0.000150681
0.0232015
0.000161387
0.000160792
0.000300251
0.000147772
0.000147196
0.000149211
0.000164226
0.00014875
0.000155438
0.000582831
0.0150218
0.000172055
0.00972597
0.000178166
0.000167675
0.0111755
0.117381
0.000149887
0.0424557
0.0233311
0.0228697
0.00808286
0.000163001
0.00730738
0.0438019
0.039372
0.00554562
0.000754354
0.00016316
0.000170315
0.000157847
0.000158183
0.000151052
0.00314143
0.0001499
0.0166005
0.000175802
0.000217452
0.000145076
0.000184348
0.000164018
0.000152256
0.000149953
0.000148695
0.000175047
0.000153979
0.000150512
0.000168016
0.0837867
0.000154842
0.000205844
0.00014669
0.000174825
0.000169946
0.000148897
0.000156628
0.00014758
0.0116104
0.0249757
0.000224034
0.0732596
0.000161516
0.00019203
0.000148946
0.000166244
0.000149689
0.000149608
0.000149599
0.0232395
0.000146505
0.000172755
0.000626498
0.000157932
0.000161371
0.00014793
0.0673819
0.000231425
0.0316799
0.0117059
0.000221404
0.000282071
0.0209411