/*--------------------------------*- C++ -*----------------------------------*\
| =========                 |                                                 |
| \\      /  F ield         | OpenFOAM: The Open Source CFD Toolbox           |
|  \\    /   O peration     | Version:  v2012                                 |
|   \\  /    A nd           | Website:  www.openfoam.com                      |
|    \\/     M anipulation  |                                                 |
\*---------------------------------------------------------------------------*/
FoamFile
{
    version     2.0;
    format      ascii;
    class       volVectorField;
    location    "100";
    object      U;
}
// * * * * * * * * * * * * * * * * * * * * * * * * * * * * * * * * * * * * * //

dimensions      [0 1 -1 0 0 0 0];


internalField   nonuniform List<vector> 
13917
(
(0.408746 0.0903217 6.55675e-20)
(1.00551 -0.0199127 0)
(1.10976 0.388833 0)
(1.02462 0.0194547 2.50326e-21)
(1.04077 0.0428829 0)
(1.00439 -0.0236949 0)
(1.03296 0.0569004 -1.30513e-20)
(1.13445 0.0666066 0)
(1.0622 0.0367273 0)
(0.0597687 -0.101485 -3.63837e-22)
(1.11817 0.0501229 0)
(1.01727 0.0116161 -2.43902e-21)
(1.00786 0.000116425 0)
(0.54475 -0.353748 6.24325e-21)
(1.02829 -0.0267929 2.5657e-22)
(0.380564 0.0647642 -1.01223e-19)
(1.00701 -5.18437e-05 2.70575e-22)
(1.10463 -0.0118472 -3.76145e-23)
(1.03728 0.260226 -6.28399e-20)
(0.557798 0.281121 6.96211e-20)
(0.967023 -0.0170292 -2.28851e-22)
(1.02036 0.00335804 0)
(1.03949 0.127293 -1.55961e-20)
(1.02004 0.00364901 7.84474e-22)
(1.0112 0.0246319 4.98526e-21)
(0.972889 -0.0321512 -8.59948e-22)
(0.703968 0.245599 -5.09926e-22)
(0.019715 -0.0174869 -1.11991e-20)
(1.01842 -0.0646622 5.62312e-22)
(1.01879 0.00959212 2.85631e-23)
(-0.0471993 -0.091361 0)
(1.11348 0.16298 0)
(1.01751 0.0181666 -5.81157e-21)
(0.379208 0.142345 0)
(1.01574 0.00248002 0)
(1.10762 0.126647 1.55536e-20)
(1.00424 0.00136039 4.50737e-21)
(1.00387 3.09169e-05 0)
(1.0354 0.0578479 -3.79134e-21)
(0.936562 0.0330478 4.55512e-23)
(1.00371 -8.22471e-05 -8.87659e-25)
(1.01823 -0.00635676 6.56828e-22)
(1.05415 0.0279082 -6.16572e-21)
(1.09583 0.25729 1.07674e-21)
(1.08721 0.253684 3.79827e-20)
(0.930119 0.160016 0)
(0.97024 -0.0119659 1.67043e-23)
(0.315143 0.426851 -2.19727e-20)
(0.815547 0.152404 1.70018e-20)
(1.0159 0.00235323 0)
(1.01725 0.0111697 1.17089e-21)
(0.938937 0.178271 0)
(0.038987 0.0123417 0)
(1.01508 0.00536761 4.38387e-21)
(1.01469 0.00635652 2.46181e-21)
(0.94092 0.181641 0)
(0.2066 0.118508 0)
(1.03539 0.125566 7.17213e-21)
(1.01843 -0.00684793 0)
(0.934226 0.161621 0)
(0.604651 -0.186603 -1.25843e-20)
(1.01056 0.0368171 -2.54607e-21)
(1.00843 0.000191537 0)
(1.01221 0.0238504 -8.56573e-21)
(0.794381 0.397976 1.15407e-21)
(1.02083 0.0470903 3.59733e-22)
(1.04237 -0.0623162 -5.08264e-22)
(1.07826 0.141211 0)
(1.13442 -0.0020543 8.04654e-21)
(0.193448 0.0454271 -5.11316e-20)
(0.887185 0.411615 -5.16468e-20)
(0.351341 0.123714 0)
(1.02782 0.00881562 0)
(1.01858 -0.00661545 3.9286e-22)
(0.961089 -0.0165217 9.29828e-22)
(1.00348 0.0188541 6.12778e-21)
(1.03657 0.0178967 -2.85777e-22)
(1.01879 -0.00673224 -3.74754e-22)
(1.00488 0.0185539 5.3417e-21)
(1.01713 0.0186643 -1.2708e-20)
(1.0196 -0.000800938 0)
(1.00667 -0.00010362 3.63881e-22)
(1.02762 0.00816019 5.80505e-21)
(0.824628 0.332179 7.44342e-20)
(1.01212 0.00172267 0)
(0.960817 -0.388651 1.68529e-20)
(1.1098 0.157975 0)
(1.01187 0.000930825 4.63741e-21)
(0.93928 0.0279283 -4.37348e-22)
(1.00802 -3.90163e-05 8.14277e-23)
(1.0103 9.48038e-05 0)
(1.05604 0.0284955 0)
(0.853835 0.0438213 -1.77848e-20)
(1.01392 0.000847006 -3.26937e-22)
(1.01411 0.00318768 0)
(1.02928 -0.0753212 -7.38769e-23)
(0.599959 0.118009 0)
(1.00562 -8.39885e-06 0)
(1.01221 0.00103074 -2.90603e-21)
(0.745311 0.0676748 -4.5039e-21)
(1.00683 -6.42097e-05 0)
(1.00775 -0.000154438 -4.21594e-25)
(1.01932 -0.00113439 -1.97554e-23)
(1.00794 0.00017986 9.60379e-22)
(1.03392 0.0183001 3.76559e-22)
(0.690499 0.166065 -1.14147e-19)
(0.566592 0.408148 3.70441e-20)
(1.00214 0.0360391 1.30119e-21)
(1.01775 -0.00631736 -1.139e-21)
(0.695179 0.271529 -7.09752e-21)
(1.01751 0.000181676 -2.02695e-21)
(0.413579 0.162917 -6.10914e-20)
(1.00492 -0.0710516 5.78879e-22)
(0.255041 0.444541 -1.21236e-20)
(0.803635 0.397047 1.78259e-20)
(0.99961 0.0162601 9.90779e-21)
(1.0419 0.251415 1.7701e-20)
(1.00867 0.000247915 3.18617e-24)
(1.08476 0.349531 -4.2042e-20)
(1.02779 0.00436078 -1.2725e-20)
(1.00755 -0.00013583 0)
(1.01813 -0.00573413 0)
(1.06084 -0.0700693 -1.22747e-21)
(0.988353 0.205797 -1.88033e-20)
(0.0505311 0.0269231 1.69019e-21)
(0.789732 0.32547 5.77101e-20)
(1.01433 0.0236781 0)
(0.956921 -0.0217297 -1.4075e-21)
(1.01306 0.000990218 -2.35474e-22)
(0.991896 0.211064 3.65804e-20)
(1.07306 0.0735873 1.82799e-20)
(0.896178 0.195206 -7.88841e-22)
(0.38562 0.119372 -6.59652e-20)
(0.999675 0.0148272 4.25309e-21)
(1.11696 0.191946 5.21399e-20)
(0.664658 0.275355 7.44615e-21)
(0.745745 -0.266898 8.525e-21)
(-0.0405645 0.0116213 -8.41401e-21)
(0.977421 -0.0429546 6.01026e-22)
(1.00213 1.65375e-05 0)
(0.888426 0.323363 -8.65667e-22)
(1.01869 -0.00634362 0)
(0.707627 0.162565 1.33225e-19)
(1.01407 0.00173211 2.94625e-21)
(1.02569 0.00810628 1.89316e-20)
(1.00937 -0.00900332 0)
(0.888402 0.406898 3.02293e-20)
(0.810371 0.0679297 -3.38879e-20)
(0.360506 0.469298 0)
(1.01491 0.0055868 -1.96866e-21)
(0.949031 0.0242632 -5.56757e-22)
(1.00859 -8.33419e-05 0)
(1.02558 0.00737615 -6.1044e-21)
(1.02824 0.00403673 1.49378e-20)
(0.591545 0.137886 1.42819e-21)
(1.01831 0.00967171 -1.72814e-23)
(1.00822 0.000143882 -1.25997e-21)
(0.330876 0.0976824 8.88672e-20)
(1.00604 5.08407e-05 0)
(1.00798 0.000115834 4.41669e-23)
(1.0123 0.0023325 2.3874e-21)
(0.729057 0.368906 5.8333e-21)
(1.00665 -0.0110112 0)
(0.850204 0.337005 9.01262e-21)
(0.555312 0.182385 0)
(0.698871 0.100952 6.7348e-21)
(0.0151041 0.00940188 -3.29853e-20)
(0.353327 0.145242 0)
(1.01186 0.00116084 1.16223e-23)
(0.977113 -0.0511065 6.85145e-22)
(1.02124 0.0044543 7.66854e-22)
(0.440737 0.160358 -9.53647e-20)
(1.06286 0.0348317 -8.53327e-21)
(0.75308 -0.128767 -2.4246e-20)
(0.947432 0.140852 5.48421e-21)
(1.00718 -0.000117247 5.37008e-25)
(1.02562 0.0194031 -2.76342e-21)
(0.933124 0.175481 -4.85715e-21)
(1.07214 0.0704483 -2.95418e-20)
(1.00636 -0.0127595 0)
(1.05115 0.029094 -3.6125e-20)
(1.02028 0.00425217 -8.14322e-22)
(1.01683 0.0109455 9.56356e-21)
(0.906629 0.210815 4.19289e-21)
(1.072 0.354625 0)
(0.887643 0.201374 2.57901e-22)
(1.01678 0.0105275 -1.44127e-20)
(0.905539 0.202861 -1.99619e-21)
(1.01973 0.00943069 4.47938e-23)
(1.00322 -0.341004 1.07435e-20)
(0.943311 0.139422 -7.27925e-21)
(1.08795 0.240629 -1.25221e-20)
(0.936099 0.217426 1.39691e-20)
(0.463411 0.11765 4.06796e-20)
(1.01395 0.00119086 -4.59686e-22)
(0.0723087 0.0310374 -4.71861e-20)
(1.00065 0.0401034 -5.69869e-21)
(0.429305 0.128237 -4.66655e-20)
(1.01529 0.00229232 2.12087e-22)
(1.01834 0.00830107 4.03668e-22)
(0.976165 -0.0038382 0)
(0.223467 0.0496302 -2.27591e-20)
(-0.0536018 0.00873384 0)
(1.00967 -0.00155434 -9.56401e-22)
(0.764544 0.256388 0)
(1.00957 -0.0294806 8.76751e-24)
(0.946341 0.0285785 5.6416e-22)
(1.01834 -0.00596279 0)
(0.934597 0.178667 -3.32582e-22)
(1.0205 -0.00114636 -2.06725e-21)
(1.01191 0.00118571 1.24184e-21)
(1.03804 0.0666638 0)
(1.0414 0.0721165 0)
(0.3577 0.441764 6.62573e-21)
(1.11784 0.1854 -3.92507e-20)
(0.970341 -0.0385215 1.809e-22)
(0.709551 0.408644 2.90226e-20)
(1.00853 0.000290047 2.94218e-21)
(1.0157 0.00101247 1.76942e-22)
(1.01562 0.0013147 -3.93654e-24)
(0.304178 0.189352 -1.6746e-20)
(0.922377 0.213242 2.22926e-21)
(0.894929 0.190128 0)
(1.01704 0.00154829 0)
(1.00699 3.77081e-05 0)
(0.657067 0.303495 -1.05295e-20)
(0.0710045 0.0265039 7.40647e-22)
(1.01446 0.000678092 -1.0422e-22)
(1.01409 0.000672376 1.06709e-22)
(1.00336 -0.000164149 0)
(1.01617 0.00160231 -1.89712e-24)
(1.01606 0.00192071 -1.77954e-22)
(0.347613 0.114486 0)
(0.426783 0.404378 0)
(1.02134 0.00113442 -1.95265e-21)
(1.01321 0.00233109 7.8071e-24)
(0.969585 0.162996 -9.08593e-21)
(0.257504 0.0861289 4.20729e-20)
(1.00686 0.000143166 1.31735e-22)
(1.01685 0.00144732 -5.13935e-22)
(0.743955 0.262203 1.846e-21)
(0.690336 0.144361 1.22485e-19)
(0.915298 0.213931 -3.10821e-21)
(0.695431 0.401464 -6.56252e-20)
(0.932937 0.158079 4.2618e-22)
(1.01419 0.00176547 -1.20441e-21)
(0.428806 0.157376 2.25537e-20)
(0.970296 0.168201 1.01841e-20)
(0.999302 -0.060747 3.84952e-21)
(1.04914 0.194969 2.07089e-20)
(1.01001 -0.000312217 0)
(0.41907 0.425883 9.63397e-21)
(1.02781 0.00544797 3.86606e-21)
(0.954396 0.0808551 2.61912e-22)
(0.953286 0.135017 -4.2383e-21)
(1.02281 0.00117089 0)
(1.00197 -3.07419e-05 0)
(1.01344 0.0245013 0)
(1.01536 0.0354321 -5.20506e-22)
(1.0145 -0.000365573 -9.93911e-22)
(0.0966468 0.0453315 -3.22005e-21)
(0.816766 0.228028 -6.61394e-21)
(1.01735 -0.00479828 1.2124e-22)
(1.01381 0.000401641 0)
(1.01953 0.0107369 -1.43486e-24)
(1.01387 0.000181635 2.17639e-22)
(1.02819 0.0051376 1.02325e-20)
(1.01214 0.000218832 6.72018e-21)
(1.00458 0.0962383 -7.28481e-21)
(1.01785 -0.00487142 -7.44099e-23)
(-0.0348246 0.0131848 3.43393e-20)
(0.578834 0.413619 -3.57518e-20)
(1.01622 0.00793025 5.34426e-21)
(1.02217 0.0263541 0)
(0.945736 0.158816 2.37565e-22)
(1.01281 0.00329478 -1.28756e-22)
(0.777311 0.0449136 5.51199e-21)
(0.12225 0.0560021 2.40783e-21)
(1.01305 0.00347782 -7.87845e-24)
(0.212718 0.0600436 1.50394e-21)
(1.01451 -0.000775332 3.25679e-22)
(0.732053 0.347396 -1.3848e-21)
(1.00631 -9.92598e-05 4.12658e-24)
(1.03076 -0.0198183 6.51468e-23)
(1.02363 0.000984581 0)
(1.01384 0.00133019 0)
(0.972493 0.27571 -9.50462e-21)
(1.00669 0.000122612 1.45086e-21)
(0.682287 0.121755 0)
(0.98382 0.0409682 4.27043e-21)
(0.848371 0.190281 1.14166e-20)
(1.00736 -0.00628304 0)
(0.788293 0.229713 -1.4829e-21)
(-0.0636965 0.0074771 0)
(1.0082 0.00020107 1.55785e-22)
(1.00934 0.139506 0)
(1.02434 0.038618 -1.8322e-22)
(0.99776 0.0126223 -4.02621e-21)
(1.03495 0.0403444 -5.04719e-22)
(1.00578 0.0201734 -7.08847e-21)
(1.01417 0.000276025 0)
(1.00789 0.000150943 0)
(0.932926 0.170303 -3.19571e-21)
(0.931841 -0.0846683 2.77252e-21)
(0.956694 0.0784613 -2.56135e-21)
(1.00705 0.0198416 0)
(1.01652 0.00147457 -9.88202e-21)
(0.362978 0.107714 -8.69778e-20)
(0.222153 0.0408644 -3.47903e-20)
(1.01319 0.00112116 0)
(1.00854 -0.0208174 -9.65611e-22)
(0.997805 0.0142705 0)
(0.995772 0.132617 0)
(1.19967 0.247016 -1.01079e-19)
(0.594843 0.382911 0)
(0.787791 -0.0912151 1.49111e-20)
(1.01595 0.0383701 1.48213e-22)
(0.896144 0.183952 -3.28779e-23)
(1.01931 0.0239685 0)
(0.859875 0.349903 -1.17226e-19)
(0.995113 0.146706 -4.55322e-22)
(1.12191 0.382309 -3.1203e-20)
(1.01183 0.000223786 0)
(1.03044 -0.0251819 -3.6611e-22)
(0.728066 0.24173 2.26085e-21)
(1.02176 0.00673233 -1.38867e-22)
(1.00322 -0.0163576 0)
(1.08014 0.237075 0)
(1.00691 -6.5352e-06 -1.41424e-22)
(0.459522 0.171861 -3.73095e-20)
(1.01202 0.00131961 -2.75727e-21)
(1.11141 0.0755693 -7.64992e-21)
(1.01092 -0.00171519 0)
(0.604288 0.267393 3.82141e-21)
(1.01044 0.000587675 -3.08702e-21)
(0.964459 0.0767144 -8.44433e-22)
(1.00844 -0.0327071 0)
(1.01394 0.0344411 -1.55614e-22)
(1.00842 0.000107497 1.85635e-22)
(1.06198 0.195571 -1.64552e-20)
(0.757319 0.206719 1.07323e-19)
(1.01384 0.00456614 0)
(1.02108 0.00719149 2.19976e-22)
(0.44372 0.185358 2.46622e-22)
(0.736759 0.188251 0)
(0.776519 0.130457 -6.79768e-21)
(0.572643 -0.246843 -1.67614e-20)
(1.01296 0.00316562 -1.2877e-22)
(1.01976 0.000946866 0)
(0.673173 0.12817 0)
(0.90336 0.180996 6.28133e-22)
(1.01327 0.00332821 -2.57776e-25)
(1.02888 0.0427412 4.09822e-22)
(1.01509 0.00865095 -4.00434e-21)
(0.899616 -0.0570539 -4.61505e-21)
(0.962133 0.079298 9.64131e-22)
(0.956852 0.207969 1.76015e-21)
(0.909871 0.14847 0)
(0.775118 0.0268468 0)
(1.10166 0.0858113 7.97818e-21)
(0.456881 0.166841 0)
(1.01307 0.00095786 0)
(1.01356 0.00513972 0)
(1.04319 0.0479323 0)
(0.985548 0.318299 1.78222e-21)
(1.00625 6.20715e-05 1.18308e-22)
(0.438282 0.0873071 -9.04251e-20)
(1.1021 0.0826524 3.33144e-21)
(0.871192 0.10349 5.98267e-22)
(1.01455 0.00611747 9.01522e-21)
(0.905169 0.168639 4.7725e-22)
(1.00944 -0.0175754 0)
(0.866243 -0.1844 -3.13223e-20)
(1.01962 -0.00942504 0)
(0.894757 0.199621 2.22944e-21)
(0.939403 0.154727 -2.70988e-22)
(1.01285 -0.0372201 0)
(1.01611 0.00812634 -6.00206e-21)
(0.930146 0.399159 0)
(1.01063 -0.0040318 4.29593e-23)
(0.543863 0.135615 -2.31944e-20)
(0.928415 0.220125 -7.22291e-21)
(1.02054 -0.0103562 0)
(0.819164 -0.048258 4.20434e-20)
(1.02717 0.00136809 -8.54426e-22)
(1.07355 0.00888251 0)
(1.01202 -0.000772753 -1.59335e-23)
(0.564225 0.303413 2.73888e-21)
(1.0655 0.0268134 0)
(1.00445 0.00657104 -7.07009e-21)
(0.679419 0.319206 1.13643e-20)
(0.801837 0.00137923 0)
(1.01142 0.000624342 -2.11676e-21)
(0.676284 0.188222 -1.17514e-20)
(1.14746 0.171732 8.60054e-20)
(1.00643 0.00919237 0)
(0.96346 0.273598 -1.00635e-21)
(1.01803 0.00164597 2.93457e-21)
(0.787678 -0.0167978 6.39422e-21)
(1.10109 0.380252 4.6568e-20)
(1.01218 0.00117958 3.20446e-21)
(1.04712 0.0505017 1.82024e-20)
(1.00786 0.0210476 0)
(1.01359 0.00138905 -4.18178e-21)
(1.01079 0.000348843 -1.54474e-21)
(1.01295 0.00106127 0)
(0.688171 -0.331395 -2.92663e-21)
(0.728607 0.109593 -6.7635e-21)
(1.0141 0.00577558 0)
(1.01309 0.000802626 0)
(1.01863 0.00306 -5.34169e-23)
(0.990144 0.128315 -2.03944e-21)
(0.935175 0.1486 -1.07474e-20)
(1.01163 0.001511 -9.89662e-24)
(1.01184 0.00103678 -4.95584e-24)
(1.18968 0.24515 8.57821e-20)
(0.899484 0.164858 -1.03825e-21)
(1.01412 0.00148161 0)
(1.00543 0.00713377 9.35878e-23)
(0.900557 0.00355687 0)
(0.585231 -0.0857739 -3.74205e-22)
(1.01612 0.0482395 -1.54108e-22)
(1.04237 0.269228 4.57277e-20)
(0.901662 0.360551 0)
(1.0225 0.00461824 1.22124e-22)
(1.01191 0.00209674 0)
(0.98235 -0.015721 5.62499e-22)
(1.01068 0.00036232 -1.58409e-21)
(1.01178 0.00210823 0)
(1.02208 0.000901612 0)
(1.0121 0.00262425 -1.26422e-22)
(1.02149 0.00461424 1.24901e-22)
(0.406736 0.243104 1.0402e-21)
(1.01803 0.0015419 -4.54288e-21)
(0.932232 0.0455402 -1.57672e-22)
(-0.0145371 0.0174427 -1.21528e-19)
(1.00571 0.135441 1.41955e-21)
(1.01206 0.00117623 -1.63744e-21)
(1.02489 0.0072304 0)
(0.680788 0.225583 1.03256e-20)
(0.977484 -0.00806008 7.8185e-23)
(0.0283647 0.0205744 0)
(1.01111 -0.000389937 4.49486e-23)
(1.01699 0.00407202 2.27358e-23)
(1.01009 -0.00349023 1.05933e-23)
(1.01658 0.00234894 1.85711e-22)
(1.00562 0.00124022 -5.93483e-21)
(1.02909 0.00248927 5.19317e-22)
(0.929431 0.0189121 0)
(1.02182 -0.0386384 -2.13896e-22)
(0.671362 0.148096 -1.03502e-19)
(1.01668 0.00409989 1.45417e-23)
(1.05838 0.0909679 -3.98051e-21)
(1.00752 -0.033505 0)
(1.02058 -0.000673978 1.15171e-21)
(0.936576 0.158287 0)
(0.787178 0.106672 8.84615e-22)
(1.01533 0.00866016 -4.16061e-21)
(0.626101 0.0469255 3.291e-21)
(1.01219 0.00112514 -1.34983e-21)
(1.01 0.000218635 2.54824e-21)
(1.01795 0.00296782 0)
(1.02688 0.000593215 -1.39654e-22)
(1.01157 0.00121134 -2.2024e-21)
(1.0105 0.000577316 -1.08045e-21)
(0.353483 0.109466 8.24809e-20)
(0.649745 -0.147872 -1.67883e-20)
(1.0114 0.00121189 1.57527e-21)
(0.801512 0.242565 0)
(1.17161 0.253197 -5.74964e-21)
(1.0163 0.00045545 -6.29275e-21)
(0.999881 0.145424 -2.15939e-20)
(1.17751 0.114462 -6.3886e-20)
(0.624022 0.255682 1.22157e-20)
(1.05217 0.0542282 1.05182e-20)
(0.699778 0.175681 0)
(1.07386 0.0465537 2.883e-21)
(1.10462 0.0203531 -1.74144e-21)
(1.0289 0.00148214 1.27863e-21)
(1.0193 0.0412826 -2.10627e-22)
(0.999713 -0.0333999 0)
(1.01113 -0.000410053 0)
(0.819566 0.189134 0)
(1.01013 4.22881e-05 0)
(1.01508 0.00564015 0)
(1.01367 0.00388151 0)
(1.05405 0.0447628 1.88787e-20)
(0.960321 -0.00122861 -5.02567e-22)
(1.05419 0.328606 -9.79769e-21)
(1.05774 0.146173 0)
(1.01611 0.000394362 -3.87229e-22)
(1.02184 0.0302779 0)
(1.1029 -0.0500915 5.39043e-21)
(0.90466 0.0710548 0)
(1.01424 0.00549197 0)
(0.52998 -0.3391 -7.9484e-21)
(1.02058 0.0981659 1.15186e-20)
(0.985916 0.0430509 -8.97389e-21)
(0.58462 0.0624764 -6.27011e-21)
(1.01218 0.00154072 3.1755e-21)
(0.899151 0.0745213 -6.6878e-22)
(0.928909 0.174831 3.52254e-22)
(1.01034 0.00029517 -1.16143e-21)
(0.210111 0.0674515 4.73434e-20)
(1.00994 0.000217651 3.63089e-21)
(1.01641 0.00266698 0)
(0.991861 0.132887 0)
(1.01114 0.000475368 -8.21164e-23)
(1.00896 0.000281827 2.77082e-21)
(0.933305 0.168219 2.66578e-22)
(0.285178 0.0662378 1.17347e-20)
(0.653315 0.347985 -3.15016e-20)
(1.01218 0.00225588 2.5457e-21)
(1.03252 0.0210434 -1.69834e-20)
(1.02305 0.00047741 -1.22884e-21)
(0.848407 0.156632 -9.05745e-21)
(0.982188 0.183677 -3.1772e-21)
(1.01468 0.0052617 8.23344e-21)
(1.01481 0.00614464 0)
(1.01187 0.00204445 -2.80667e-21)
(0.961847 0.130932 -1.27492e-21)
(0.730536 -0.0415583 -5.57003e-21)
(1.01353 0.000811047 0)
(1.00708 0.000102667 -1.82192e-23)
(1.01737 0.00744409 -4.96351e-22)
(1.01327 0.00130717 -8.69386e-22)
(1.01815 -0.0296786 -1.8779e-22)
(1.00296 0.0599967 -2.7445e-21)
(1.00959 0.000127506 0)
(1.05305 0.148807 1.36331e-20)
(1.01029 0.000312307 -1.18022e-21)
(1.01923 0.00278495 0)
(1.00903 0.0209177 0)
(0.583024 0.328802 -8.89698e-20)
(1.01053 -0.000836269 0)
(1.03791 0.0338582 2.76737e-22)
(1.01443 0.000400752 -3.68755e-22)
(1.05729 0.0877527 3.50643e-21)
(0.998562 0.166232 0)
(0.935457 -0.110753 -4.12854e-21)
(0.951837 0.138813 2.82232e-21)
(0.744279 0.0960024 -2.95865e-21)
(1.0091 0.0172511 -5.98395e-21)
(1.07227 -0.0459787 -1.85285e-21)
(0.463997 0.140428 0)
(0.428668 0.284252 4.76117e-21)
(0.014157 0.0228274 5.3411e-20)
(1.01314 0.00141505 4.92299e-22)
(1.01719 0.00293313 0)
(1.0149 0.00258645 4.07614e-22)
(1.01725 0.0067941 7.53563e-21)
(0.780418 0.378547 -7.06361e-20)
(1.01284 0.00356561 1.39313e-22)
(0.889126 0.126892 0)
(1.00256 0.0412994 -1.19957e-20)
(0.603371 0.215873 0)
(0.765137 0.0596432 -3.20942e-22)
(1.05289 0.0295763 3.47992e-20)
(0.469386 0.409411 0)
(1.01141 0.00127513 -8.93562e-22)
(1.15056 0.116563 -2.91466e-20)
(1.00662 -2.92298e-05 0)
(1.01771 -0.00813361 7.14881e-23)
(0.567301 0.205925 0)
(1.01136 0.00069317 3.01619e-23)
(1.17281 0.338789 -4.36055e-20)
(1.00703 6.74522e-06 9.75692e-24)
(1.01485 0.000234285 9.03324e-21)
(1.0178 0.00313939 0)
(1.06043 0.321853 -3.82857e-20)
(1.02429 -0.0329222 0)
(1.01282 -0.000214357 0)
(1.11432 0.254391 0)
(0.997452 0.14089 3.47845e-20)
(0.981784 0.271688 1.36516e-21)
(0.919322 0.410164 0)
(0.3764 0.101071 -7.62369e-20)
(0.602261 0.239992 -2.57086e-20)
(1.01042 -0.000767898 8.09354e-23)
(0.115405 0.0347382 6.33825e-20)
(1.01064 9.74879e-05 0)
(0.720252 -0.224828 -1.00583e-20)
(0.770662 0.0391235 0)
(1.01841 -0.0103412 2.92374e-22)
(1.01074 -0.0133673 -5.24509e-22)
(1.00765 -4.8858e-05 0)
(1.01972 0.0959284 -1.02349e-20)
(1.05073 0.0270174 1.29705e-20)
(1.01147 0.00142864 9.24291e-23)
(1.00645 1.74361e-05 -9.2864e-22)
(1.01077 0.000284784 8.90243e-22)
(0.949286 0.415946 -5.5958e-20)
(1.01285 0.00300991 0)
(1.11197 0.146051 3.91063e-20)
(1.01514 0.00543317 2.3332e-21)
(1.01265 -8.52274e-05 -7.15263e-23)
(1.0069 9.3416e-05 0)
(0.927277 0.164478 0)
(0.786576 0.297319 -5.35183e-22)
(0.571273 0.454471 5.04325e-20)
(1.0495 0.187786 -4.43183e-20)
(1.00566 0.0602761 0)
(0.873436 0.299831 -6.84633e-21)
(0.253484 0.0895585 5.72908e-21)
(1.01232 -0.000898367 -3.11886e-22)
(0.8033 0.157655 -6.12908e-21)
(1.01045 7.00124e-05 -9.24977e-22)
(1.22126 0.146646 -1.05309e-19)
(1.01699 0.00681678 3.83272e-21)
(0.944659 0.402943 0)
(1.01301 0.0011829 8.14571e-22)
(1.01063 -0.0325493 8.30555e-22)
(1.02631 0.00836472 -1.46799e-20)
(0.964782 0.274046 -1.13208e-21)
(1.01079 0.0986994 1.60028e-20)
(0.77353 0.406026 -1.68132e-20)
(1.00951 -9.17218e-05 0)
(1.0067 0.0922989 0)
(1.01555 0.00113242 1.38607e-21)
(1.00604 -0.000153219 1.1029e-24)
(0.488627 0.195066 0)
(0.665742 0.0538378 -3.71475e-21)
(1.01688 0.00141798 0)
(0.950236 0.211721 4.93935e-21)
(1.01671 0.0016009 1.17381e-20)
(1.02003 -0.0070668 1.55842e-24)
(1.00722 -7.81502e-05 1.19416e-24)
(0.504756 0.217663 -3.51497e-20)
(1.01294 0.00313619 0)
(1.01864 0.0395128 -9.57556e-22)
(1.01259 0.00326538 2.39155e-22)
(1.01629 0.00142384 5.60392e-22)
(0.978303 0.31125 1.48017e-20)
(1.008 -8.5688e-05 0)
(0.969426 0.222674 2.54508e-21)
(1.00605 -0.000103179 0)
(1.01045 0.000493806 -5.09403e-22)
(0.629433 -0.242196 -2.01406e-21)
(1.11492 0.150253 -2.47533e-20)
(1.01493 0.00514611 -6.35906e-21)
(-0.115798 -0.00125203 0)
(1.19001 0.33236 0)
(0.883294 0.0525334 -4.85931e-21)
(0.928359 0.172455 4.58376e-21)
(1.01124 0.00126713 2.25622e-23)
(1.02843 -0.0302582 2.5126e-23)
(0.573221 0.318113 3.61897e-20)
(1.12861 0.241945 1.36686e-19)
(0.983718 -0.0118263 -2.77439e-22)
(1.00361 0.00273901 0)
(1.00428 -0.0361479 -1.21685e-21)
(1.00675 -0.000124772 0)
(1.01309 0.00136488 0)
(1.01426 0.0402213 2.52128e-22)
(0.989283 0.170654 0)
(0.999746 0.0301213 -8.51202e-21)
(0.519238 0.0392 -1.96562e-20)
(1.01294 0.101789 -1.64994e-20)
(0.855132 0.165552 -4.20433e-21)
(0.989598 0.170007 1.09579e-21)
(0.922346 -0.0573162 1.91035e-21)
(0.977255 0.080183 7.09958e-23)
(0.942289 0.223362 2.89277e-21)
(0.237985 0.0708814 0)
(1.01412 0.000752683 3.5724e-22)
(0.955565 -0.00654163 -3.08921e-21)
(1.0131 0.0381907 -2.93722e-22)
(1.01045 0.000445221 2.7072e-21)
(1.0089 -0.00017733 -4.66245e-22)
(1.00692 3.64197e-05 -6.74392e-23)
(1.02349 0.00272566 -3.89309e-23)
(1.00932 0.000412943 0)
(0.124418 0.0371431 3.47593e-20)
(1.09079 0.0676907 0)
(1.0089 0.000276121 -1.68851e-21)
(1.08097 0.226828 -2.38702e-20)
(1.00977 -0.000128849 0)
(0.612129 0.392288 0)
(1.01475 -0.00150481 -2.67997e-22)
(1.01318 0.000961902 2.47646e-22)
(0.244901 0.060683 8.54834e-20)
(1.0068 0.16083 0)
(0.782973 -0.102013 0)
(1.02675 0.0112816 8.8064e-21)
(1.01341 -0.0128104 -4.26579e-22)
(1.01374 0.00119462 -4.71324e-22)
(1.03055 0.0166953 7.64165e-21)
(1.03301 0.0671333 0)
(1.01371 0.00117521 0)
(-0.00885334 0.0158015 0)
(0.975714 0.0459546 0)
(0.669558 -0.187449 -1.87389e-20)
(0.794963 -0.0766261 0)
(0.956385 -0.0149954 -3.07887e-21)
(0.374802 0.0961903 0)
(1.03162 0.0215868 -8.54609e-21)
(1.00721 0.000117985 -9.89377e-22)
(1.01603 0.00103672 -5.13784e-22)
(0.147323 0.0651479 -4.84668e-20)
(0.675196 0.342456 1.74424e-20)
(0.998538 0.0410668 0)
(0.0282117 0.022761 5.98228e-20)
(0.944329 0.0926743 2.62835e-21)
(1.01057 0.000595849 1.9768e-21)
(1.01327 0.00104153 -2.44189e-22)
(1.00629 -0.000265146 -1.03667e-21)
(0.723756 0.195076 -1.30513e-19)
(0.745657 -0.0374139 1.83547e-21)
(1.00669 0.0994507 0)
(1.02981 0.016214 0)
(1.03665 0.0346401 1.24463e-20)
(1.2299 0.144164 9.47868e-20)
(1.02007 0.0208834 -2.93768e-22)
(0.963405 0.212068 -2.13314e-21)
(1.08953 0.0708982 -2.178e-20)
(1.01464 0.0031705 -1.02212e-21)
(1.01639 0.0185978 1.2386e-20)
(1.00707 0.000117117 -1.4561e-22)
(1.0314 0.0655803 -2.10187e-21)
(1.01716 0.0309387 5.48012e-22)
(1.10255 0.16765 0)
(0.99603 0.00976375 -4.96901e-21)
(1.03225 -0.00785597 0)
(0.00644187 0.0164927 1.62267e-20)
(1.02436 0.021149 1.2737e-23)
(0.926419 0.103535 -2.76947e-21)
(1.00447 0.00418554 3.61544e-22)
(1.01112 -0.0238501 0)
(1.00973 0.0454326 4.52407e-21)
(1.16175 0.252581 -5.49931e-20)
(1.00782 -0.000138349 -3.35001e-22)
(1.14683 0.106885 -2.42253e-20)
(0.80022 0.30291 0)
(0.998088 -0.0507739 -9.52045e-23)
(1.01788 0.00701829 -7.42716e-21)
(0.995854 0.0116635 0)
(1.00759 0.00017407 0)
(1.01633 0.0052873 0)
(1.02668 0.00708974 0)
(1.0871 -0.00463061 0)
(1.01415 -0.0416507 0)
(0.9298 0.165996 0)
(0.963706 0.219787 0)
(1.01106 0.0012942 6.06363e-22)
(1.04439 0.175055 -3.22797e-21)
(1.06045 0.0371712 0)
(1.05308 0.046145 -2.22394e-20)
(0.949954 0.219547 -1.93105e-21)
(1.02047 0.000549784 -1.09862e-21)
(1.14737 0.120115 0)
(0.631063 0.14181 -1.70593e-21)
(1.01169 -0.000654839 -1.99661e-22)
(1.01171 0.161385 8.56963e-21)
(0.932443 0.146579 -3.30721e-21)
(1.08592 0.0715853 2.20623e-20)
(1.01267 0.00104584 9.26041e-22)
(1.01172 0.00114103 -1.35456e-21)
(1.01302 0.00134291 0)
(0.196199 0.0396345 0)
(1.01709 0.017314 6.44977e-21)
(1.01531 -0.00283537 4.35908e-22)
(1.10704 0.0772651 6.5039e-21)
(1.01399 0.0013282 -1.22243e-21)
(1.01239 0.00119461 0)
(0.944964 0.18144 0)
(0.647042 0.113102 4.35472e-23)
(1.11875 0.0242722 -2.19894e-22)
(0.594999 -0.00957695 -1.50525e-20)
(0.91221 -0.0508954 -6.93569e-21)
(0.660189 0.11295 -5.99011e-20)
(1.02732 0.00674439 0)
(1.03897 0.0194685 -2.42215e-22)
(0.914386 0.341765 -1.12709e-20)
(1.02074 -0.0110296 1.71997e-23)
(1.00167 0.0584156 1.22995e-21)
(1.0081 7.45484e-05 1.21122e-22)
(1.00867 -0.000238768 6.68096e-24)
(1.02485 0.0116836 0)
(0.994544 0.0064569 -1.57886e-21)
(0.916852 -0.117251 2.67941e-21)
(1.01262 0.00109347 -9.56469e-22)
(0.968314 -0.0282532 2.30008e-21)
(1.01397 0.00559326 4.31598e-23)
(0.788872 0.0874221 -7.22945e-21)
(1.0039 0.00525996 6.0986e-21)
(1.0538 0.0523882 -1.14444e-20)
(1.01085 -0.0007153 3.65618e-24)
(1.04323 0.197462 -3.41727e-20)
(1.02923 -0.0217485 9.65926e-23)
(0.724693 0.258332 5.10879e-21)
(1.13594 0.0197404 2.93377e-22)
(1.00679 8.72331e-05 1.14456e-22)
(0.589947 0.36348 0)
(1.01505 0.0186012 1.43413e-20)
(0.0963049 0.0426581 -5.2885e-20)
(1.05117 0.0242009 0)
(1.1805 0.0224718 6.65276e-21)
(1.02305 0.0173786 2.34763e-22)
(1.01287 0.00162396 0)
(1.01786 0.00665973 1.1343e-20)
(0.515312 0.207444 4.14074e-20)
(1.02671 0.0648388 7.78622e-21)
(0.886505 0.0882972 5.00095e-21)
(0.597469 -0.177865 0)
(1.01623 0.0051837 6.44227e-21)
(1.085 0.0747216 2.39204e-20)
(1.01285 0.00214992 6.07613e-24)
(1.00508 0.0172848 0)
(0.823804 0.0328901 2.05638e-22)
(1.01342 0.00253505 -2.38759e-23)
(0.454264 0.203278 4.89658e-21)
(1.0409 0.0338265 0)
(1.17592 -0.00560572 -7.09722e-21)
(1.03641 0.243358 -2.26191e-20)
(0.975113 0.105725 0)
(1.01383 -0.00215554 2.18652e-22)
(1.00848 -0.000183438 0)
(0.907979 0.154217 -1.14629e-21)
(1.01125 0.00131373 6.17295e-22)
(1.01536 0.00472014 3.25598e-21)
(1.00759 0.0108643 -1.12951e-22)
(1.01639 0.00280593 5.14467e-22)
(1.10625 0.0807692 0)
(1.01371 -0.00196748 -1.50435e-22)
(0.865164 -0.312718 0)
(1.0151 0.0024889 -9.51982e-22)
(0.347239 0.0729095 7.36854e-22)
(0.0740246 0.0372964 -1.65199e-21)
(1.02131 0.146187 -1.73908e-22)
(0.654313 0.131848 -6.78892e-20)
(0.612961 0.122379 0)
(0.354339 0.0639376 2.58532e-22)
(0.986209 0.126965 -1.60787e-21)
(1.01023 0.000769203 -1.71033e-21)
(1.02098 -0.00622961 0)
(1.02016 0.00885881 8.99966e-21)
(1.01191 0.0149283 3.06751e-21)
(1.01196 0.00209572 -2.89508e-21)
(1.02868 0.0666904 -1.62982e-20)
(1.01347 0.0030645 0)
(0.972778 0.169807 0)
(1.01528 0.00485627 -4.44068e-21)
(0.972425 0.383762 0)
(1.01777 0.0165291 0)
(1.08275 0.0547587 1.73392e-20)
(0.894969 0.138071 -8.39835e-22)
(1.01361 0.00160303 9.58745e-22)
(0.929316 0.0339846 -5.48767e-23)
(1.0143 0.0182459 -1.05398e-20)
(1.0136 -0.00551058 5.70137e-22)
(1.01934 0.0506978 0)
(1.01102 -0.00524618 -4.2855e-23)
(0.368154 0.0759179 9.08491e-20)
(0.985219 0.175678 7.51237e-21)
(0.967825 -0.0636747 6.97544e-22)
(1.01332 0.00117906 -1.02115e-21)
(1.02141 0.00130468 -8.58119e-21)
(1.02099 0.00562819 -5.61374e-22)
(1.01444 0.00647484 0)
(0.592854 0.108561 2.27267e-20)
(1.01039 0.000736485 0)
(0.696692 0.0689794 -3.65363e-21)
(1.01274 0.00115114 2.6261e-21)
(1.01621 0.063948 0)
(1.0382 -0.0174972 0)
(1.01394 0.00201972 0)
(1.15086 0.109939 0)
(1.01637 0.042359 5.49539e-21)
(1.01052 0.000752775 -7.90281e-22)
(0.823532 -0.0777428 0)
(0.803324 0.182853 7.11823e-21)
(1.01166 -0.00564408 0)
(1.0556 0.198845 3.91988e-20)
(1.01127 0.00137464 5.4476e-22)
(0.723154 0.0519028 0)
(1.01143 -0.00949816 0)
(1.01548 0.00663659 -9.87182e-23)
(0.442659 0.14364 4.32804e-20)
(1.00775 -0.000213021 1.81442e-23)
(1.02433 0.0205589 3.10494e-21)
(1.07402 0.222758 2.17262e-20)
(0.409716 0.116521 -4.17992e-20)
(1.01128 -0.0106283 0)
(0.970377 0.124659 -2.05419e-21)
(0.904874 0.354362 1.41047e-21)
(1.01816 -0.00816098 0)
(1.03082 0.00861426 -1.54355e-22)
(1.01698 0.00305314 -4.67875e-22)
(0.932771 0.376116 0)
(1.02059 0.00166099 0)
(1.11497 0.265108 7.37219e-20)
(1.01897 0.010881 0)
(0.222081 0.0670559 2.35096e-20)
(1.03404 -0.0205231 -6.88047e-22)
(1.01195 0.241888 0)
(1.01297 0.000943422 0)
(1.014 -0.00587697 -6.4741e-23)
(1.07197 0.0406297 0)
(1.00902 0.000306735 0)
(1.02293 0.0199799 -5.66985e-24)
(0.509374 0.149434 0)
(1.00939 0.0051094 0)
(1.01097 0.00034726 1.35387e-21)
(0.972424 0.16574 7.27106e-23)
(1.01858 -0.00938938 3.55523e-22)
(1.02182 -0.00583412 2.9684e-22)
(0.994564 0.171707 -1.60698e-20)
(1.00727 0.00852579 1.9126e-21)
(0.773174 0.381364 6.05941e-20)
(0.938226 0.0440098 -8.65573e-22)
(1.17194 0.125709 2.97288e-20)
(0.930181 0.17025 0)
(1.0351 0.03392 0)
(0.254477 0.085334 -5.49708e-20)
(1.01463 0.00161125 -4.08031e-21)
(1.00359 0.16666 0)
(1.01817 0.00418371 0)
(0.0263708 0.0283196 0)
(1.05981 0.0404738 -2.78098e-21)
(1.02876 0.0115022 -1.28968e-21)
(1.01081 -0.00835841 0)
(1.01508 -0.00447562 -2.89934e-22)
(1.01448 0.00562985 -6.78356e-21)
(1.01123 -0.00732243 0)
(1.02019 -0.00351935 -2.56252e-24)
(1.01716 -0.00443933 0)
(1.01813 0.00624306 -3.67234e-21)
(0.997245 0.0592389 1.44081e-20)
(1.01159 -0.000542519 0)
(1.01 0.0058209 3.12258e-21)
(1.09448 0.182561 0)
(0.519014 0.257563 -1.23277e-20)
(0.712231 0.280106 -8.15793e-21)
(1.07446 0.212582 0)
(1.02157 0.00520209 8.36725e-23)
(1.08377 0.031083 -5.1898e-22)
(1.01294 0.00276121 7.12822e-22)
(0.929569 0.349192 -1.22836e-20)
(0.766287 -0.0209541 -2.44693e-21)
(-0.0988705 0.000659675 0)
(1.0154 0.00381479 1.16542e-22)
(1.01036 0.000793939 1.53894e-21)
(1.01415 0.000974295 0)
(1.01672 0.00264068 0)
(1.01498 0.00367982 0)
(1.00985 -0.00210666 -2.77604e-23)
(1.01389 0.0043567 5.80296e-21)
(0.974876 0.0832741 -7.4294e-23)
(1.01098 0.000343791 0)
(0.548998 0.390764 0)
(0.979024 0.150104 -1.57592e-22)
(1.01179 0.000520722 0)
(0.55032 0.221751 -3.64284e-20)
(1.01849 0.00430517 7.39475e-21)
(1.01292 0.00114218 0)
(1.00015 0.0280517 0)
(0.532536 0.244526 3.39496e-20)
(0.889528 0.0713151 2.61124e-21)
(1.00733 -6.7345e-05 -3.45917e-23)
(0.757095 -0.10094 -4.78247e-21)
(1.01484 0.00201731 3.93664e-22)
(1.01316 0.000829779 2.16573e-22)
(0.986727 0.181951 5.62252e-20)
(1.02132 -0.00698342 0)
(0.570996 0.00517775 -4.04607e-22)
(1.02484 0.0215998 -1.16966e-20)
(1.17236 -0.0203931 1.83671e-20)