/*--------------------------------*- C++ -*----------------------------------*\
| =========                 |                                                 |
| \\      /  F ield         | OpenFOAM: The Open Source CFD Toolbox           |
|  \\    /   O peration     | Version:  v2012                                 |
|   \\  /    A nd           | Website:  www.openfoam.com                      |
|    \\/     M anipulation  |                                                 |
\*---------------------------------------------------------------------------*/
FoamFile
{
    version     2.0;
    format      ascii;
    class       surfaceScalarField;
    location    "100";
    object      meshPhi;
}
// * * * * * * * * * * * * * * * * * * * * * * * * * * * * * * * * * * * * * //

dimensions      [0 3 -1 0 0 0 0];
oriented        oriented;


internalField   nonuniform List<scalar> 
20537
(
-0.000689258
-2.43434e-05
0.000721122
0.000988293
-0.000708491
-0.00027884
-0.00012167
-0.000359633
0.00048379
-0.00112832
0.000611157
0.000524168
0.000249078
0.000205307
-0.000451377
0.000623211
0.000241806
-0.000861884
-0.000168004
0.000210048
-3.91895e-05
0.00029905
-0.000548278
0.000253323
-0.000339541
0.000455548
-0.000103399
0.000673153
-0.00028588
-0.000384924
-0.000100034
0.000248788
-0.000147812
-0.000483321
-1.64456e-05
0.000500127
0.000253314
-0.000296747
4.45126e-05
0.000150528
0.000180184
-0.000330363
8.15606e-06
-7.37057e-05
8.00378e-05
-0.000328665
-0.000277752
0.00061161
0.000649532
-0.000147902
-0.000493595
-8.5142e-05
-0.000555528
0.000645542
0.000171084
0.000186614
-0.00035638
-0.000440094
0.00011372
-0.000503913
-0.000614313
-0.00056525
0.000446444
-1.60732e-05
2.72267e-06
1.86173e-05
3.87493e-05
-3.97861e-05
2.19549e-05
-1.77111e-06
-9.02732e-06
-0.000247466
0.000550915
0.000359575
-0.00033626
-1.73766e-05
-0.000119441
-7.53102e-05
-0.000908364
0.000226906
-0.000826069
9.82129e-05
0.000735842
-0.000226009
0.000852052
0.000393218
0.000264195
-0.000595695
0.000238887
-0.000324723
-0.000157872
0.000483409
-2.60018e-05
8.63584e-05
-0.000123708
-6.92693e-05
0.000193545
0.000220568
-8.56212e-05
-0.000134184
0.00024778
0.000182369
-0.000429144
0.000502716
0.000172374
-0.000656533
0.000332775
-0.000783623
0.000457799
0.000338316
3.15402e-05
1.29399e-05
-4.24502e-05
0.000157725
-3.92946e-05
-0.000118527
0.00016485
7.48674e-05
-0.000239151
-6.58508e-05
0.000231195
0.000261477
-0.00015984
-0.000102005
7.67222e-05
-0.000233982
0.00015748
-0.000806408
0.000265867
0.00054168
0.000334586
3.04659e-05
0.000586076
-0.000525725
-5.71276e-05
-0.000168375
0.000359831
-0.000188597
0.000208182
-0.000367231
0.000160982
6.06991e-05
-0.000157111
9.65229e-05
-1.11272e-05
-3.65273e-05
6.3129e-05
-1.9815e-05
-7.37263e-05
0.000127054
-1.15386e-05
4.49375e-05
-1.50915e-05
6.36332e-05
-3.69281e-05
-8.05185e-05
-0.000123542
0.000204196
-0.000698424
-0.000118667
0.000314789
-0.000293872
-1.394e-05
0.000438062
-0.000189201
-0.000237058
-7.27113e-05
0.000309631
0.000318275
0.000532065
-0.000846704
-0.000193589
-0.000193553
0.000389341
0.00077877
-0.000160645
-0.000615986
0.000224935
-0.000795699
0.000576197
0.000140869
7.99766e-05
5.27972e-05
-0.000238908
0.000155612
0.000250361
-0.000400999
-0.000665388
0.000585729
-9.59763e-05
-1.3074e-05
0.000109103
0.000100662
7.04145e-05
-0.000170745
0.000586255
0.00040269
5.6658e-05
-5.09494e-05
-0.000188915
2.9017e-05
0.0001904
0.00016355
0.000271335
-0.000426584
-0.000163452
-0.00039951
0.000118253
-0.000187738
6.95003e-05
-0.000462698
0.000237923
0.000228694
-5.90825e-06
0.000106695
0.000387391
-4.81255e-05
-0.000330561
1.27616e-05
-1.9801e-05
7.26934e-06
-0.000357863
0.000437669
-6.53251e-05
0.000157449
-0.000259339
0.000101402
-0.000472999
0.000794793
2.9634e-05
-0.000512581
-0.000247752
0.000831414
-0.00058012
0.000616007
-0.000485314
-0.000129786
-0.000460511
2.23062e-05
0.000446051
0.000363816
-0.000270722
-8.71671e-05
-0.000227027
0.000104142
-0.00101012
0.000596706
0.000417705
-0.00015324
-0.000498551
0.000304406
0.000199672
-0.000615459
0.00016336
-3.12299e-05
-3.80943e-06
4.67792e-05
0.000409374
-0.000157404
-0.00028524
0.000245437
3.9993e-05
0.000483928
0.000105001
-2.51566e-05
7.78219e-06
-0.000242504
0.000266726
-2.39057e-05
0.000288314
0.000120454
-0.000404948
-0.000826587
0.000337527
0.000497782
-8.83556e-05
0.000214898
-2.67424e-06
4.30274e-06
-5.87002e-07
0.000251668
0.00054471
-0.00079302
-0.000233092
-0.000122061
0.000358299
1.79485e-05
5.76565e-06
-2.22935e-05
-7.01022e-05
0.000151918
0.00084058
-0.000595783
2.85205e-05
-2.59945e-05
1.20724e-05
0.000259527
0.000110383
-0.000570891
-0.000434875
1.07399e-05
9.26862e-06
6.22637e-05
-1.81365e-05
0.000315564
-0.000748508
-0.000188377
-9.66015e-05
-3.21302e-05
2.34547e-05
1.05684e-05
4.81374e-05
3.01356e-05
-5.0699e-05
0.000109998
-2.03751e-05
-5.99333e-05
0.000169486
-1.17823e-05
0.000187317
-0.000271655
-7.04936e-05
0.000324695
-0.000805821
-0.000273902
-0.000530968
4.41549e-05
-0.000162732
0.000121317
-0.000819999
0.000547603
-0.000312662
-3.38888e-05
0.000349842
-0.000995801
0.000500182
0.000182927
-0.00036414
0.000182665
-0.000306077
-0.000463356
-0.000113611
0.000377674
-0.000244999
1.67261e-05
-0.000112712
2.23763e-05
-0.000365166
-0.000443366
8.92488e-05
6.12275e-05
-0.000127861
-1.40659e-05
-1.56205e-05
6.89304e-05
0.000114672
-0.000183219
-0.000411673
0.000258631
0.000152918
-0.000210813
0.000439632
-0.000228663
-2.64592e-05
-0.000215972
0.000104795
-8.79294e-05
-0.000666042
0.000303821
0.00036883
-1.28071e-05
-7.22569e-05
8.74159e-05
-0.000229546
0.000540677
-0.000303542
0.000236651
-0.000161192
1.69567e-05
-1.10987e-06
-1.50822e-05
0.000417931
-0.000233118
-0.000204017
4.22766e-05
-0.000218754
0.000153379
-0.000248359
0.000151433
-8.40405e-05
-6.03711e-06
0.000122047
-0.000148558
0.000299511
-4.32901e-05
3.82861e-05
7.42849e-05
0.000283867
-0.000351509
0.000382384
-0.000603457
9.76139e-05
-0.000579977
0.000494982
0.000593531
-0.000682737
9.70313e-05
0.000287127
-7.70835e-05
-0.000361627
0.000196463
1.09717e-05
-1.03964e-05
-1.56796e-07
-0.000387789
0.000255683
0.000136354
9.39311e-05
-0.000174367
-0.000311383
0.000214986
0.000661786
0.00018355
-0.000837635
-1.2636e-05
8.00509e-05
-6.48069e-05
4.20314e-06
1.33565e-05
0.000383674
-0.000223514
-0.000556087
-0.000431562
-0.000141994
0.000247818
-0.000106072
0.000146545
-2.82956e-05
-0.000194392
4.84071e-05
0.000157148
0.000588482
-0.000478658
-0.000442929
0.000232112
-9.17577e-05
-0.000201788
0.000800461
-0.000533353
0.000162034
-0.000470711
-0.000357941
-0.000157648
0.000520905
0.000377792
-0.000205495
-1.81466e-05
-6.2639e-06
2.55913e-05
0.000169739
-0.000575981
0.000412917
0.00016991
0.000347509
-0.000283063
-5.17085e-05
0.000424987
2.3421e-05
3.5174e-06
-2.99588e-06
-1.64312e-07
-2.0883e-05
-2.21557e-06
3.1229e-05
0.000796607
-0.000566274
0.000123548
1.70089e-05
-0.000227949
-0.000185526
0.000415828
-0.000474756
0.000655948
-0.000178647
-0.00016194
0.000163282
-0.000102677
-0.000331157
6.56658e-05
0.000270287
0.000272411
0.000127856
-0.000395676
0.000160798
-0.000398072
8.09493e-05
0.000337313
-0.000411294
-0.000224065
-0.000435423
0.000596202
-0.000218559
-0.000376551
0.000282286
-0.000633741
-0.000277659
0.00044956
0.00016959
-0.00012257
0.000311674
-0.000142025
-0.000169967
-1.70372e-05
5.99341e-05
-1.31131e-05
0.000172289
-0.000467326
0.000310813
0.000625902
-0.000281646
-0.000341973
2.56785e-05
0.000334854
-0.000473691
0.000322132
0.000151484
0.000597812
-0.000500221
-8.97531e-05
-8.01617e-05
0.000170941
-9.0713e-05
-1.68889e-05
1.21815e-05
5.44727e-06
-0.000203445
0.000134873
6.89194e-05
-0.000602746
-0.000214164
0.000238622
-0.000618675
0.000380506
1.2866e-05
4.6336e-06
-1.64076e-05
2.3679e-05
6.12453e-05
-8.24881e-05
-7.3991e-05
0.000213505
-0.000138292
0.000917768
-0.00032137
-0.000591936
0.000109357
0.000151735
0.000168427
-0.000129656
-2.57484e-05
8.17772e-05
-0.000161871
0.000204715
0.000399466
0.000398078
-2.63144e-06
-0.000241846
0.000152851
8.96877e-05
-0.000374566
0.000160483
0.000215987
-0.000182533
0.000122166
6.04755e-05
1.34094e-05
7.08171e-06
-1.28499e-05
-0.000510841
0.000304815
0.000211632
8.65305e-07
-2.24666e-06
0.000117324
-0.00016513
4.78403e-05
-1.11112e-06
1.46522e-05
0.000347823
-0.000590766
-0.000252838
-0.000437867
0.000692378
-0.000148889
-3.44708e-05
-6.67936e-05
8.99521e-05
0.000238068
-0.000325178
0.00079739
-0.000607043
-0.00018677
-0.000365691
-0.00010796
0.000624022
0.000156271
-8.52016e-05
7.49706e-05
-0.000237807
0.000423905
-0.000837682
0.000614451
0.000533401
-9.71533e-06
-0.000522144
8.92868e-06
-1.40957e-05
5.49182e-06
0.000267064
0.000360778
4.3131e-06
1.20168e-06
-8.95499e-05
0.000148892
-5.92023e-05
-6.62267e-05
0.000357832
-0.000207763
-0.000356261
0.000564458
0.000164575
0.000428748
-0.000585268
0.00059703
-0.000543358
-4.60629e-05
0.000121907
0.00048091
-0.000598208
5.78639e-05
0.000476243
-0.00048411
0.000472363
1.93944e-05
0.00055419
-0.000425107
0.000216067
0.00021273
-0.000182649
0.000799916
-0.000615113
0.000254714
-0.00072695
0.0001655
-5.04791e-05
-0.000203604
6.80768e-05
0.000136031
0.000153812
-0.000164611
1.89314e-05
-5.91836e-05
9.3392e-05
0.000649306
-0.000737061
0.000467454
-0.000813171
0.000346892
7.35177e-05
-0.000179581
0.000109555
-0.000154818
-0.00018309
0.000338655
0.000371327
-0.000284177
-5.68503e-05
-0.000419171
-6.26143e-05
-0.000430698
-8.97961e-05
-0.000151343
0.00024924
-0.000300251
5.33963e-05
0.00059524
-0.00046867
0.00041903
0.000352858
-0.000790488
0.000439521
-0.000203139
-0.000255509
0.00036255
-0.000685759
0.000159574
0.000236314
-2.07526e-06
1.51249e-05
-5.87032e-05
0.000178063
-0.000117902
-0.000166435
0.00012063
4.60018e-05
-0.000197045
9.78399e-05
1.00141e-05
-1.12522e-06
-1.14925e-05
5.90774e-06
6.52782e-06
-2.28765e-06
-2.27458e-07
3.28196e-06
-0.000214323
-0.000207407
0.000793856
-0.000325182
-0.000232809
-0.000602639
0.000836246
-0.000532055
0.000291287
0.000252246
-8.47436e-05
3.03273e-05
6.05772e-05
0.000786577
-0.000431779
-1.89239e-06
6.09803e-06
-4.16182e-06
0.000235234
0.000184195
-0.000702241
1.14962e-05
0.000239687
8.2081e-05
-0.000264618
-0.000129264
0.000398297
9.30698e-06
-1.11246e-05
-0.00036304
0.000209104
0.000729819
-0.000632723
-9.2206e-05
0.000559849
-0.000529786
0.000230952
0.000136595
-0.000351657
6.69005e-05
-0.000156311
-0.000312207
-7.10156e-05
-0.000599729
0.00045942
-0.000172259
0.000108485
6.39364e-05
-0.000799386
0.00028111
0.000527951
-0.000564184
0.000819289
4.26176e-05
0.000186356
-0.000228408
-0.000216537
-0.000302559
-0.000392748
0.000208061
0.000188291
-0.000206505
0.000517348
-0.000623498
-7.13494e-05
-0.000266871
-0.000144766
0.000390641
0.000343156
-0.000264313
-0.000195738
0.00046767
-0.000167935
-6.11823e-05
0.000229741
-1.83815e-05
5.8712e-05
-3.8084e-05
0.000617024
-1.41511e-05
-2.82868e-05
0.000184534
-0.000153734
-9.01368e-05
-7.61423e-05
-7.27792e-05
0.000222175
-0.000148349
2.93077e-05
0.000151332
-0.000177125
0.000365213
-0.000184714
-0.000177887
8.6325e-05
0.000102427
-3.3163e-05
-0.000170279
-0.000815126
0.000479327
0.000340429
-1.47535e-05
-3.73975e-06
2.48424e-05
-1.44164e-05
0.000483267
-0.00045991
0.000172228
-0.000243606
-0.000203549
-0.000301442
-0.000271415
0.00040593
-0.000128358
-4.90404e-05
-0.000202237
-0.000586725
0.000294815
-0.000550702
0.000171646
7.80355e-05
-0.000173077
-0.000147124
0.000139922
-0.000285428
0.000145208
-0.000830102
0.000305338
0.0005296
-8.26357e-05
-8.9433e-05
-0.000398876
0.000169289
0.000229768
7.78063e-05
0.000402491
-0.000125805
-0.000145975
0.000382505
6.1102e-05
0.000534215
-0.000591724
0.000844027
-0.00035825
-0.000482641
0.000309187
-8.69619e-05
-0.000220417
-0.000175391
0.000736729
-0.000137636
-0.00059381
0.000535015
-0.000800258
0.000265821
-0.000190971
0.000101187
9.00579e-05
-5.74248e-05
-2.82821e-06
0.000107857
-0.000208711
0.000102526
0.000223449
-0.000113849
0.000250747
-0.000450908
0.000200726
-0.000412428
0.000147296
0.000505618
0.00034058
0.000160743
-4.33494e-05
0.000102854
0.000497353
0.000794217
-0.00025859
-0.000471636
0.000466318
-6.73356e-05
-0.000100459
6.4795e-06
-1.13765e-06
2.52817e-05
-6.06531e-06
0.000560594
-0.000164192
-0.00038213
-0.000105361
-8.53015e-05
-7.05079e-05
0.000404905
-0.000333398
0.000451479
4.66213e-05
-0.000486769
-0.000147016
-0.000241691
8.90745e-06
5.13624e-05
-5.80358e-05
4.43783e-05
0.00051583
6.95627e-05
0.000555656
-0.000620853
-0.000883488
0.000114739
0.000140073
-0.000282314
0.000506024
-4.36577e-05
0.00026124
0.000658494
0.000545792
-0.000386989
-0.000152983
-0.000613484
-0.000269122
-0.000755723
0.000293579
0.000476907
2.46267e-05
7.64039e-07
0.000842079
-0.00065727
-0.000180615
-4.60811e-05
0.000196453
-0.000150077
-3.10058e-05
-0.000457895
0.000190826
0.000661959
8.11201e-05
0.000229801
8.51592e-05
0.000162307
-9.69463e-05
0.000215077
-0.000116815
-0.000222908
0.000127302
-0.000774891
0.000472581
0.000306572
-0.000129953
0.000314371
-0.000168352
3.72702e-05
1.96917e-06
-2.68326e-05
-0.000264689
-0.000560328
-0.000329124
0.000154668
-0.000156971
0.000337389
-0.00015745
-0.000180211
0.000342093
-0.000105718
-7.65455e-05
0.000139035
-0.000218804
8.01838e-05
5.11176e-05
-4.05349e-05
0.000186145
-2.61224e-05
0.000279702
-0.000108379
-1.04748e-06
0.000109479
-0.000674497
0.000423342
0.00011064
-0.000298565
0.00019789
0.00064821
0.000206202
0.000345456
2.56895e-05
7.08406e-06
-2.19764e-05
-0.000218031
-0.000180578
-0.00019489
-8.33099e-05
0.000288764
-0.000557786
0.000284064
-0.000294242
-0.000475812
-5.53814e-06
0.000245637
-0.00023349
-1.84845e-06
-0.000492984
0.000288317
-5.66291e-05
4.59076e-05
0.000160534
-0.000352062
0.000610475
-0.000794513
0.000187354
0.000185555
-0.000207784
2.23082e-05
0.000578831
-0.000851001
0.000277857
0.000135248
-0.000552755
0.000796961
-0.000240288
0.000482673
-0.000424169
0.000161713
-0.000639161
0.000484611
-0.000209847
0.000461309
-0.000147861
-0.000444864
-0.000194651
0.000121854
-2.83772e-05
1.66526e-05
-0.00018197
-0.000298636
-1.75642e-05
4.90726e-06
-0.000200526
-0.000225241
0.000426605
-0.000528392
0.000198272
0.00033043
0.000235692
0.000194715
-0.000428196
-0.000782096
0.000233056
0.000152542
0.000392213
-0.000549305
-0.000808461
-7.0451e-05
0.000283458
-0.000191308
-0.000277515
-0.000463295
-2.14951e-05
0.000505802
-1.32594e-06
-4.35768e-06
7.71769e-06
0.000219126
-0.000515685
0.000297209
0.000569591
-0.000105911
-0.000462308
0.000567378
-0.000291477
-0.000273184
8.68218e-05
-0.000163661
7.69288e-05
-0.000320291
0.000609019
5.23819e-05
-0.000157444
0.000106374
0.000137276
0.000433164
-0.000232547
-5.35633e-05
3.46238e-06
6.60547e-07
-0.000301099
-0.000181191
0.000487337
0.000403197
-2.76684e-05
0.000278796
-0.000173464
-5.26681e-05
0.000237046
0.000141702
-0.000530616
0.000397634
-9.47962e-05
-0.000380807
1.56678e-05
-0.00087134
0.000357493
0.000518713
-0.000236152
-0.000285785
0.000522086
-9.00317e-06
3.03321e-05
-6.17359e-05
0.000553604
-0.000100788
-8.98747e-05
0.000190504
0.000775256
-0.000107345
-6.76888e-06
-4.21028e-06
0.000264714
0.000351895
0.000160208
-0.000274701
0.000593282
0.000326021
-0.000215136
-9.85789e-05
-0.0007978
0.000683631
0.000118675
0.000670856
-0.000543875
-0.000119372
-1.00892e-05
0.000277114
-0.000591101
-0.0002989
0.000131753
0.000292931
0.0001573
-0.000151716
-0.000214382
0.000370307
0.000185729
-7.4355e-05
0.000767341
-4.25369e-05
-0.000721029
5.7278e-05
-0.000178558
0.000122451
1.18051e-05
8.23394e-06
-0.000142747
0.000631308
-0.000477613
-9.1914e-06
3.65902e-05
-8.97465e-06
0.000842732
-0.000286666
-0.000554613
0.000481632
-0.000484882
1.2271e-05
0.000585718
0.000249047
-0.000320409
4.96352e-05
3.85442e-05
-2.45723e-06
-0.000310056
0.00018234
0.0001278
0.000147631
-6.07376e-05
-0.000331914
0.000305376
3.70302e-05
-4.63487e-05
0.000817819
-0.000425371
0.000593833
-0.000518198
0.000509935
-8.90759e-05
0.000246162
0.000402838
-0.00045731
-0.000353197
0.000283661
0.000746797
-0.000439268
0.000187452
-0.000424709
0.000239745
-0.000258737
0.000286968
-2.14243e-05
7.32836e-05
-0.000170906
9.75778e-05
2.2855e-05
-8.34963e-06
-1.23924e-05
-0.00015606
-1.00694e-06
0.000357815
0.000302244
-0.000657877
4.79532e-05
-3.30235e-05
0.000768395
-0.000810574
9.75696e-05
-0.000266104
0.00016845
-0.000165727
0.00051706
-0.000198588
-8.25187e-05
0.000281442
-3.16079e-05
0.000105921
0.000471094
0.000301975
-0.000772264
3.24255e-05
-7.12998e-05
0.000272925
-8.882e-05
-0.000167842
0.000132214
-0.000380379
0.000264665
-3.67777e-05
0.000207027
-0.000165349
-3.65783e-05
-7.17868e-05
0.000153578
0.000208664
-0.000359229
-0.000103949
0.000281124
-0.000175595
-0.000106788
-0.000159415
0.000267229
-0.000790472
9.30247e-06
2.17822e-06
0.000236397
-0.000338278
0.000102325
-0.000194827
-0.00033284
0.000535041
-0.00035931
0.000379997
-0.000119381
-0.000139279
-0.000377149
-0.000515683
-0.000289658
-9.96224e-05
-0.000103448
3.18237e-05
-3.9222e-05
2.68248e-05
-0.000112925
0.000186095
-0.000249347
0.000194069
0.000117329
0.000579107
0.000622103
0.000149435
-0.000246227
-0.000544575
-0.000111436
0.000165166
0.000682854
-0.00086311
0.000407039
0.000189601
0.000223408
-0.000473002
0.000250186
-9.99817e-05
0.000700935
-0.000275149
0.000499026
0.000180674
-0.000240155
6.01138e-05
1.04934e-05
1.45931e-05
-0.000168703
-0.000205228
0.000156166
-7.50867e-05
-8.09748e-05
-0.000141012
0.000577041
0.000370378
-0.00037404
2.10188e-05
-0.000404363
-0.000162345
0.000459855
-0.000516701
6.87045e-05
-0.000403749
0.000178271
0.000605094
-0.000789164
0.000187988
-0.00075092
0.000266505
0.000284934
-0.000520913
-9.84073e-05
-2.69272e-05
0.000143379
-0.00020003
9.90822e-05
0.000188657
-0.000103406
-8.50547e-05
-0.000240223
-0.000553974
0.000797003
-0.000566429
0.00037223
0.00023651
3.47653e-06
2.81425e-06
-6.00653e-06
0.000285628
1.24805e-05
-1.87492e-05
6.51234e-06
-8.29221e-05
0.000319813
-0.000122871
0.000411324
-0.00013847
-0.000115127
0.000254777
-0.000221573
3.14094e-05
0.000191015
-3.81893e-05
2.84573e-05
-0.000594049
-0.000198755
0.000796325
0.000805117
-0.000268469
-0.00053587
-0.00016341
-0.000286584
0.000121843
0.000227797
-0.000347115
-0.000101224
6.46683e-05
-0.000204502
0.000129621
7.53316e-05
0.000454282
0.000222187
-0.000221674
-0.000318652
-0.000341018
0.000660155
0.000182074
0.000108308
-0.000257135
0.000150154
-0.000319199
0.000165346
-0.000286023
0.000821336
8.58106e-06
0.000437014
-0.000457466
3.87509e-05
-0.000253231
-8.96532e-06
-2.75301e-05
0.000449087
-0.000582532
-1.99677e-05
1.48406e-05
0.000277857
-0.000192103
-6.42708e-05
8.97318e-06
0.000172187
0.000218368
-0.000441126
-0.000336476
-3.03722e-05
2.29673e-05
-0.000244265
-0.000213728
0.000339167
-0.000556671
-0.000139227
0.000352426
-0.000197786
-3.78567e-05
-1.05814e-05
5.7212e-05
0.00016873
-9.18618e-05
-5.53579e-06
0.000157
-0.000202699
0.00034059
-0.000547924
0.000579812
0.000285658
-9.18864e-05
-0.000308036
0.000779933
0.000366576
-0.00021734
-0.000145143
8.55377e-05
7.06475e-05
5.43125e-05
0.000116707
0.000576107
0.000164946
0.000407444
-0.000152518
4.84456e-06
-1.1697e-06
0.000143817
0.000335972
-0.000641667
0.000310485
0.000296758
-0.000162864
-0.000133199
-0.00051465
-0.000284644
-0.000271455
0.000134292
-0.00023713
0.00046877
-0.000226544
-0.000415438
0.000170203
0.000258127
0.000234262
0.00042462
-0.000653822
-0.000582746
0.000213109
0.000375201
-0.000273978
7.56789e-05
-0.000162173
-0.000193025
0.000357713
-0.000271503
-3.5687e-05
-0.000535955
0.000846164
-0.000223632
6.15066e-05
0.000469129
-0.000127559
-0.000336586
-0.000122004
0.00035931
-2.11753e-05
-0.000265285
-0.000681864
0.00041823
0.000578769
-0.000505366
-0.000434197
8.36027e-05
0.000358177
-0.000195959
0.000249036
-0.000448624
-0.000303665
-6.93036e-05
0.000202444
-0.000669558
0.000471988
0.00023904
-0.000129574
-0.000159697
-0.000242954
-0.000822109
0.000344114
0.00048047
-0.000330174
0.000245556
3.98477e-05
-0.000774601
0.000182756
9.86587e-06
-3.4356e-05
3.87283e-05
-0.000157248
8.74067e-05
-0.000633662
2.2144e-06
0.000638497
0.000175488
-9.06906e-05
-0.000114222
-6.28243e-05
0.000177239
-0.000256566
0.000152267
0.000103991
0.000653002
-0.000387509
-0.000257799
7.30711e-05
-8.65384e-05
9.36474e-06
9.45763e-07
0.000307147
-1.27372e-05
-0.00027396
-1.6589e-05
1.01743e-05
0.000249122
4.98265e-05
1.03947e-06
-4.09944e-06
3.34681e-06
0.000839246
-0.000255314
-0.000581589
-0.000211431
-7.07906e-06
-2.1853e-05
0.00028024
-0.00046074
0.000180718
0.000614606
0.000384533
-0.000103996
-0.000506475
0.000150717
0.000368798
-9.83064e-06
4.47219e-06
6.69732e-06
9.30144e-06
-1.74942e-05
1.24147e-05
-0.000488033
0.000343763
-0.000366965
0.000194325
0.000172472
-0.00027349
-1.36405e-05
0.000289329
0.000411466
9.31127e-06
4.77427e-07
-2.00444e-05
3.64309e-05
0.000104955
-6.86365e-05
-1.77512e-05
-0.000592492
0.00013683
0.000463983
-0.000204759
-8.08797e-05
0.000286679
0.000238886
0.000228657
-0.000467505
-0.000326678
-0.000100108
-2.60839e-05
2.0485e-05
0.000141915
-0.000174298
8.1837e-05
-0.000661797
0.000317928
0.000229324
-0.000546353
-7.03401e-05
0.000170359
-9.98739e-05
0.000601419
-0.000181908
-0.000101076
0.00028302
-0.000487908
0.000790748
-0.000218749
-0.000448778
0.000194169
-0.000296194
-3.57489e-05
0.00014758
0.000424447
-0.00044055
-0.000384436
0.000345424
-0.000567009
4.57258e-05
-0.000316447
-0.000196041
-0.000211106
-0.000294287
-0.000839547
5.08447e-06
-4.3597e-06
-0.000216394
0.000247122
-8.56741e-05
-7.78875e-05
-0.000463307
0.00014889
0.000322371
-9.37648e-05
0.000648895
-0.000548633
0.000545104
-0.000827868
9.33946e-05
0.000195372
-0.000176228
0.000884252
-9.55513e-05
0.000209523
-0.000391228
0.000181772
-0.000378005
0.000218626
0.000181757
-0.000364008
0.000223194
-6.94413e-06
-1.43274e-05
-0.000147203
-0.000345779
-0.000159954
-0.000149969
-3.43424e-05
-0.000186304
0.000193461
0.000607405
-0.000173198
5.90986e-05
-0.000349457
0.000126126
0.00023347
1.55293e-05
-7.25695e-06
-6.79005e-07
-1.55935e-05
0.000478649
-0.00078599
-0.000108541
0.000216924
-0.000107864
-0.00010758
0.000661261
-0.000547621
0.000215904
-0.000715723
0.000508006
0.00017797
-0.000119498
-0.000454708
0.00040146
6.0898e-05
-9.49671e-06
2.23635e-05
0.000111017
-0.000220298
0.000108912
0.000773713
2.75768e-05
0.000115455
6.46507e-05
-0.000179671
3.16813e-05
-0.000412189
9.32501e-05
-0.000153893
9.18171e-05
6.21215e-05
-0.000157233
5.99286e-06
0.000151298
-0.000237034
1.06608e-05
-0.000356262
-0.000220531
-7.30098e-05
-0.000103706
0.000177079
0.000371829
-6.00813e-05
-0.000133484
0.000538085
-0.0002501
-0.000286419
0.000271561
0.00029836
0.000629716
-0.00016151
-0.000461617
-0.000147479
0.000119089
-0.000488446
0.000372871
0.000154428
0.000361662
-0.000511341
-0.000211366
0.000126478
5.35447e-05
-2.93985e-05
1.40542e-05
9.87997e-05
0.000579804
-0.000369337
0.000221498
0.000200867
-9.00858e-05
0.000262777
-0.000609787
0.000351327
-0.00025646
0.000296059
-0.000733517
0.000119135
6.02764e-05
-0.000256952
7.29938e-05
-4.11819e-05
9.84297e-05
-3.26993e-05
0.000596333
-9.01495e-06
-5.77956e-06
0.000599201
-0.000409855
-0.000175645
2.5421e-05
-0.000116626
0.000118615
0.000165473
2.13012e-05
0.000169959
3.26271e-05
-3.80899e-05
7.50093e-06
0.00080166
-0.000227607
-0.000572131
-1.13825e-05
0.000239819
-6.78725e-05
-8.59408e-05
5.09945e-06
-4.92342e-06
2.49882e-06
-0.000218615
-0.000391928
0.000616467
-0.000236401
0.00024043
-2.35522e-06
0.000544989
-0.000226214
0.000401393
-7.79709e-05
-0.0003224
-0.000114674
9.56661e-05
3.73593e-05
-0.000915759
0.00012759
-0.00034109
0.000159295
0.000433077
-0.000127726
0.000237988
-0.000109683
4.8462e-05
-0.000261579
0.000119252
0.000218292
0.000143138
0.000296784
-0.000437078
-0.000130548
9.12423e-05
-0.00064417
-0.000268424
-0.000604042
0.000111571
0.000499096
2.44703e-05
-1.89705e-05
-0.000428187
0.000244169
-0.000542459
0.000300401
0.000628084
-2.89047e-05
-0.00059665
-0.000599547
-2.70112e-05
-0.000284689
0.000430693
-2.28194e-05
7.03558e-05
0.000374624
-0.000587459
0.000241174
-0.000216806
0.000209481
0.000320145
-0.000528823
-0.000419488
0.000236409
0.000280095
-0.000333817
-6.9695e-05
-0.00022959
0.000272677
-4.21567e-05
-0.000228733
-0.000153861
-0.000712286
0.000611555
-7.43212e-05
0.000372152
-0.000297933
-0.000283378
0.000177725
-0.000246746
0.000242183
0.000150165
-0.000249312
9.8695e-05
-0.000246505
-0.000573045
0.000143159
0.000189184
-0.000332419
0.000408289
-0.000198577
-0.000257717
0.000146287
0.000112121
-8.6143e-05
0.000334675
-0.00024719
0.000337929
-0.000625696
0.00029202
-0.000237667
0.000542172
-0.000801923
-0.000226575
0.000103206
-0.000109491
0.000203383
-0.000602265
0.000408415
1.18472e-05
1.57708e-05
-1.7723e-05
0.000378449
-0.000137363
1.5834e-05
-4.80162e-07
-1.49558e-05
-3.58921e-05
-1.23334e-05
5.02477e-05
-9.28717e-05
-7.53484e-05
0.000168311
-0.000237291
-0.000102041
0.000466091
3.70043e-05
-0.00049065
0.000110756
0.000125247
-0.00017711
5.19367e-05
0.000210525
1.388e-05
6.33864e-05
0.000260264
4.74858e-05
-0.000105331
-4.18398e-05
-0.000115342
2.37029e-05
-0.000227589
-0.000110093
-0.000145815
0.000762328
-0.000569022
-0.000187521
-0.000146983
-0.000138636
-0.00042198
0.000259383
-0.000179711
-0.000187314
-0.000371411
0.000252783
0.000224873
-0.00036796
0.000443229
-0.000265139
1.31218e-05
0.000725974
-0.000139573
0.000257729
-7.37614e-05
-0.00018166
-6.33008e-05
6.22745e-05
-0.000477503
0.000679211
-0.000398455
0.000117893
-0.000208365
0.000317245
-0.000174174
0.000106532
8.23086e-05
0.000302007
-0.000302184
9.04185e-06
-0.000120885
0.000346471
-0.000221398
0.000197723
-0.000321549
0.000631552
0.000532203
-0.000619561
-6.09832e-05
-0.00029126
0.00035236
1.62721e-05
5.64369e-06
9.09607e-05
-0.000144155
5.32192e-05
9.09778e-06
-4.30045e-05
5.07894e-05
-0.000285416
-0.000384504
-4.50239e-05
0.000442861
-0.000365896
0.000522582
-0.000155259
5.11754e-05
0.000238096
-0.000354377
0.0001444
-0.000370446
9.08117e-05
0.000283055
0.000597096
9.02392e-05
3.4279e-05
1.90167e-05
0.000336187
0.000568457
-0.000270291
0.000767294
-0.000494355
0.000147176
-0.000635549
0.000496195
0.000135582
-1.02571e-05
-0.000133139
-4.28691e-05
-7.50285e-05
-0.00027725
0.00017756
-0.00056658
0.000398449
-2.86313e-06
0.000137989
0.000116893
-0.000167742
9.9977e-05
0.000250524
-0.000335355
-0.000853115
0.000380351
0.000720067
-0.000262746
-0.00044714
0.000179857
-6.40036e-05
4.34658e-05
-6.64195e-06
-0.000761443
1.33339e-05
0.000155107
-8.78264e-05
-6.72044e-05
0.000366312
0.000166658
-0.00051915
-0.000304962
0.000261881
4.80346e-05
0.000213715
-0.000241305
0.000581677
-0.000172985
0.000409704
-0.000236752
-0.000366601
-9.69161e-05
0.000472559
5.48743e-05
1.85994e-05
-0.000687341
0.000348287
0.000339169
0.00016786
-8.60073e-05
-0.000143909
0.000373974
-0.00011708
-0.000480681
-0.00017684
0.0007179
-0.000535082
-0.00034729
0.000273128
8.89092e-05
0.000124645
-0.000213791
0.000307673
-3.28267e-05
-4.88632e-06
3.96885e-05
0.000550339
-0.00020845
9.59574e-05
0.000196028
-0.000275233
2.72233e-05
5.3213e-05
0.000250553
-2.53393e-05
-1.96788e-05
9.04611e-06
-0.000221089
-0.000264929
0.000486665
0.000488844
-0.000508641
-6.11656e-06
0.000483991
0.000586982
0.000257518
-0.000576224
2.66746e-05
0.000119824
-0.000146421
-0.000146645
0.00024409
-0.000531784
0.000236546
-0.000312024
0.000237703
-0.000432561
6.14971e-05
0.000325596
-0.0005015
-0.000622328
0.00036919
-0.000194004
0.000306839
0.000682686
-0.000156429
-0.000514785
0.000502908
-0.000496471
7.20155e-05
-0.000146689
7.46845e-05
0.000302174
1.30741e-05
0.000350204
-0.000301762
-9.31073e-06
0.000320175
-0.00052085
2.95124e-05
0.000159451
-5.23718e-05
-0.000107025
8.41883e-05
-3.32614e-05
-0.000649911
0.000331665
0.000480646
0.000149655
0.000236745
-3.52054e-05
-0.000200527
-0.000190946
0.000457531
-0.000210213
0.00052025
-0.000305725
9.64525e-05
0.000294996
-0.00041699
0.000170915
-0.000774298
0.000363745
0.0008396
-0.000213623
-0.000624762
-8.19587e-05
-9.21022e-05
0.000174084
0.000410855
0.000108471
-0.000515874
-4.63625e-05
-0.000157887
-0.000607247
-0.000119026
-0.000247345
-0.000247552
0.000198932
-6.51219e-05
-3.41371e-05
0.000337263
-0.000409762
7.23647e-05
0.000342284
-0.000476021
0.000529993
-0.000339434
0.000182608
0.000210652
-7.47925e-05
-0.0001328
6.29996e-05
0.000315991
9.32406e-05
0.000378476
0.000206332
0.000348916
-5.60972e-05
0.000110718
1.73409e-05
-8.52241e-06
-8.32876e-06
-4.61051e-05
-0.00033033
-9.89288e-05
-0.000111877
-0.000346929
0.000526869
0.000268714
-0.000244054
-0.000116781
0.000205543
-0.000332384
0.000671682
-0.000336486
-0.000210022
-0.00018107
-1.2722e-05
-4.34636e-05
2.59661e-05
0.000192273
-5.43995e-06
-7.68455e-05
0.000548254
-0.000176478
0.000242691
9.40416e-05
-0.000334451
0.000181021
-0.000183055
6.16361e-06
0.000352873
8.69097e-05
-0.00043045
0.000700688
-0.000477016
-1.41722e-05
6.15474e-06
-8.1012e-05
-0.000239937
0.000478846
0.000527211
-0.000151965
0.000262958
-0.000268292
8.42918e-05
0.000184944
7.87274e-05
0.000371986
-0.000701885
0.000488155
0.00021502
-0.00045071
0.000217875
-0.000497659
0.000375671
-0.000120033
-0.000255271
0.000583005
0.000214278
-0.00079434
-0.000198802
-0.000331421
0.000531226
-0.000143772
0.000199543
-0.000157109
-7.64588e-05
0.000314181
-0.000554372
-8.8508e-05
0.000212497
-0.000123911
0.000146255
-0.000164256
3.00096e-05
-0.000302653
0.000233001
-0.000442002
-0.000162459
-0.000384263
-6.37346e-05
7.14054e-06
1.07565e-05
0.000213348
0.000131314
-0.000334666
-3.77267e-05
0.000374898
-0.00033675
0.00054683
-0.000790841
0.000241023
-0.000146017
-0.000308988
0.00031892
-0.000363833
5.79984e-05
-0.000562258
-0.000255995
-0.000346552
0.000532451
-0.000285507
-6.97274e-05
-0.000276519
-0.000513977
0.000788477
-0.000273391
0.000333369
-0.000139148
-0.000193111
0.000372319
0.000122999
-0.000494894
-1.41332e-05
3.48816e-05
0.000568857
-9.11605e-05
-0.000465519
0.000303784
-0.000705333
0.000403817
-0.000804543
0.00076595
4.06885e-05
-0.000251489
0.000214956
0.000173661
3.24249e-06
0.000410979
-1.62191e-05
0.000201383
0.000537408
-0.000708185
0.000521725
-0.000266663
-0.000255028
0.000429985
-6.86275e-05
-0.00011077
-9.68171e-05
-0.000122983
-0.000119559
0.000243513
-0.000752491
-8.70641e-06
-0.00014817
-0.000137212
0.000286607
2.32769e-05
-9.32299e-07
-3.16532e-05
0.000130111
-9.54273e-05