/*--------------------------------*- C++ -*----------------------------------*\
| =========                 |                                                 |
| \\      /  F ield         | OpenFOAM: The Open Source CFD Toolbox           |
|  \\    /   O peration     | Version:  v2012                                 |
|   \\  /    A nd           | Website:  www.openfoam.com                      |
|    \\/     M anipulation  |                                                 |
\*---------------------------------------------------------------------------*/
FoamFile
{
    version     2.0;
    format      ascii;
    class       volScalarField;
    location    "300";
    object      ddt0(k);
}
// * * * * * * * * * * * * * * * * * * * * * * * * * * * * * * * * * * * * * //

dimensions      [0 2 -3 0 0 0 0];


internalField   nonuniform List<scalar> 
13851
(
5.56366e-07
3.41578e-08
4.31612e-08
-0.000147338
-3.0633e-08
6.10672e-08
1.30337e-07
5.07681e-09
0.000204233
-2.45017e-08
1.1115e-07
-2.1104e-08
-3.06859e-08
0.000124171
2.13555e-07
5.13157e-07
-5.33086e-05
1.89029e-08
3.06701e-07
5.69171e-07
2.94423e-07
-1.82656e-08
0.00222802
-5.55293e-09
9.91787e-06
3.71845e-07
8.69915e-07
-8.10941e-07
0.00010925
-1.01006e-08
-6.45759e-06
1.32923e-07
5.37618e-07
0.000228903
1.84215e-07
7.47166e-05
-1.6615e-09
-2.94708e-05
0.00154952
-4.30563e-08
0.000703945
9.77304e-05
-2.3858e-05
-1.87793e-06
8.57578e-05
-2.54642e-08
2.87869e-08
5.41883e-07
-2.0704e-08
-2.44169e-08
0.000258498
-3.03141e-08
6.94169e-07
1.87872e-07
0.000171922
-4.53971e-08
5.25091e-07
0.000750379
7.95225e-07
0.0003974
-2.15168e-08
8.61379e-07
-1.42189e-08
-2.9142e-08
-2.1975e-06
-1.85628e-06
0.000334548
-3.21911e-06
-2.98396e-08
-0.000178367
1.02574e-05
3.31398e-07
-3.75038e-08
0.000343548
1.96194e-07
-4.02223e-08
-3.32857e-05
-2.72421e-09
9.10413e-06
-2.97286e-08
-3.24063e-08
6.05447e-07
1.43792e-07
0.000113576
0.000396618
6.80833e-06
-1.29269e-08
6.77653e-05
-2.88873e-08
-3.10426e-05
-2.62428e-08
1.30117e-07
0.000222002
-2.52709e-05
0.00113369
4.32053e-07
-2.80023e-08
6.116e-07
0.000450286
4.12947e-07
6.07721e-07
3.33856e-07
-1.5211e-06
-3.58006e-08
-1.66643e-08
2.9797e-07
-2.02039e-08
-5.18262e-08
1.25275e-07
1.35513e-08
-2.62323e-08
-2.35923e-08
5.22223e-07
2.24585e-07
5.93534e-07
1.68651e-07
-1.95248e-08
-1.55652e-09
-0.00011276
-0.00020295
-1.43395e-06
1.04745e-09
-3.73608e-08
0.000527679
3.57666e-07
-6.50688e-06
-3.26707e-08
-6.59906e-09
0.00050676
2.84231e-07
-1.80396e-08
7.08304e-08
2.87353e-06
0.000221145
1.36314e-07
0.00117509
-5.32516e-06
1.96123e-05
4.94925e-07
2.95629e-07
1.01302e-06
-3.73723e-08
-2.83722e-08
-6.56746e-07
-2.35427e-05
-4.14926e-08
-2.6743e-09
-6.35515e-05
0.000174767
-7.67168e-10
5.77426e-07
5.29212e-07
2.41659e-07
9.10689e-07
-3.1823e-08
-2.43897e-08
-2.07605e-08
0.00116227
2.77005e-07
8.16682e-08
-7.57661e-09
0.00010125
2.61224e-07
5.48088e-07
0.00015307
9.11864e-05
8.19598e-05
0.000382402
-8.60395e-09
0.000241728
-2.02485e-08
-2.06202e-08
3.15281e-07
-2.59809e-08
0.00124796
9.28255e-07
5.99941e-07
-2.12204e-08
2.11207e-07
5.86047e-07
1.65027e-07
-2.20588e-06
-5.70635e-09
2.82988e-07
7.52699e-06
0.000171949
5.4268e-07
2.75237e-08
-3.35866e-08
-1.66183e-08
-1.57132e-05
2.75568e-07
4.93372e-07
6.20001e-08
-4.09035e-08
6.85281e-07
5.3071e-07
2.84612e-08
-5.9034e-09
-1.43634e-07
1.16615e-06
0.0011478
0.000818876
2.40186e-07
4.09083e-06
0.00105133
-2.95153e-08
2.94254e-07
0.000208685
3.77931e-08
5.43551e-07
-3.35457e-08
1.10278e-06
-3.25666e-09
1.75338e-07
-3.29626e-08
-2.49795e-08
6.07293e-07
1.43092e-08
1.3998e-07
-1.77691e-08
5.47874e-07
0.000224389
0.00117995
-1.74392e-08
3.03886e-07
-3.11177e-09
-1.78115e-06
-2.58383e-08
1.96863e-07
-0.000281294
-5.3756e-08
3.90367e-08
-1.24374e-08
0.0008227
-9.41995e-09
0.0227053
0.000869214
7.88634e-07
-3.68615e-09
3.48959e-06
0.000394237
7.62921e-05
4.92697e-07
1.82296e-07
4.52067e-07
6.48686e-07
2.06421e-07
2.39014e-07
-1.75351e-08
9.47492e-05
4.97662e-07
-1.84022e-08
8.63455e-08
6.83836e-07
9.10448e-05
6.30827e-05
-1.51061e-08
-3.74738e-06
-2.70951e-08
1.06214e-06
7.47017e-07
8.26319e-08
2.68154e-07
4.92637e-07
-3.40001e-08
-2.04361e-06
4.86288e-07
2.57743e-06
-2.15285e-08
-2.25076e-08
1.15002e-08
6.35674e-05
-7.78246e-05
3.12868e-07
4.82119e-09
1.79121e-07
9.74737e-07
5.20567e-07
2.84109e-07
0.000112863
0.000428406
7.28192e-08
1.68092e-07
-0.000123673
-2.04928e-08
-2.02469e-08
5.26914e-07
6.21807e-08
-6.1456e-09
-7.36914e-09
-2.99e-08
-3.62622e-08
3.36186e-07
-2.14076e-08
0.00019312
3.1073e-07
-3.88162e-08
8.83917e-05
0.000500848
-3.2251e-08
5.5637e-07
0.000466006
-3.60882e-08
-2.69481e-08
3.03205e-07
0.000606161
0.00279961
3.52389e-07
-3.21976e-08
0.000381998
-1.9783e-08
3.4191e-07
0.000566764
2.05533e-06
7.63338e-08
-0.000255757
2.02813e-07
0.000124625
3.84836e-07
-2.89981e-06
0.00135679
0.000549729
-1.64448e-06
-2.43919e-09
-7.76818e-05
3.36694e-05
7.6544e-06
6.98885e-07
-1.94321e-08
3.32641e-07
-5.40549e-08
7.09085e-05
2.11987e-06
-3.44786e-08
2.08711e-08
1.13419e-08
5.47824e-05
1.03613e-06
-2.00253e-08
0.00109908
-8.89074e-08
7.7153e-08
8.52156e-08
0.00111713
3.56906e-07
6.61906e-07
-3.70174e-08
2.73131e-08
2.97531e-05
-3.10523e-08
9.1458e-07
6.80605e-08
3.01364e-07
6.45343e-08
-2.85925e-08
-3.58865e-08
4.85068e-07
3.60599e-07
5.18336e-07
9.31796e-06
2.61229e-05
-4.06471e-08
0.00085156
7.43042e-07
1.22544e-08
1.45119e-06
4.3005e-07
0.000523016
9.74726e-09
3.36685e-07
8.17805e-07
-2.10538e-05
5.84743e-07
8.36968e-05
-1.11782e-08
7.29542e-07
-3.81687e-05
1.26126e-07
0.000122801
1.44411e-07
0.000910438
8.25803e-08
2.3873e-07
5.01381e-07
3.03613e-07
-2.56922e-08
6.98747e-08
5.94743e-08
2.04627e-07
-2.65795e-08
3.2231e-07
1.98873e-05
-3.64817e-08
3.02028e-07
-8.07243e-05
2.03195e-08
-0.000949033
2.91155e-07
0.00311507
4.10087e-08
3.90102e-07
-9.60269e-06
8.38026e-07
3.11665e-07
5.7449e-05
0.000321973
-5.78261e-07
-3.51362e-08
4.10966e-07
1.36224e-07
3.37011e-07
1.83905e-10
-1.20069e-05
8.7905e-05
2.01058e-05
3.12014e-08
4.62904e-07
1.01112e-06
-9.88519e-05
1.29994e-08
-0.000116321
9.91795e-08
0.000845607
-1.52803e-08
9.19444e-06
-3.37562e-08
-2.65478e-08
0.000148089
9.30994e-07
-2.34626e-08
3.4861e-08
2.96652e-07
-2.39871e-08
3.36158e-05
3.42746e-07
4.24277e-07
1.10666e-07
-1.1717e-08
-2.16465e-08
-6.46357e-05
-3.75321e-08
-2.13558e-08
-5.29752e-06
-1.82613e-06
-2.67382e-08
7.74068e-07
-9.57977e-09
-2.23865e-08
2.58854e-08
5.22616e-07
2.63621e-07
-2.43291e-08
7.76168e-09
-1.8189e-07
2.88245e-08
0.00327833
-2.33664e-08
8.67037e-08
7.75284e-05
-1.072e-07
5.53364e-09
-2.07151e-08
1.30715e-07
4.21411e-08
4.90708e-06
1.31152e-06
1.6378e-07
-2.43091e-07
2.67276e-08
-2.3792e-08
0.000268554
8.84542e-07
3.37305e-07
-3.91477e-08
0.000537981
2.87096e-07
-0.000108434
-3.61997e-08
9.56152e-08
6.54179e-07
2.08285e-07
0.000545919
9.54324e-07
2.3011e-05
-3.77358e-08
5.73152e-07
-3.62563e-08
0.000110731
2.92637e-07
5.25479e-07
1.28076e-07
-3.40007e-08
-6.21764e-08
3.2415e-07
-2.91911e-08
-8.34313e-05
0.000386543
0.00293065
-2.37611e-05
-2.57185e-06
0.000142989
1.02677e-06
-1.43684e-07
-8.34184e-09
-0.000850412
-1.98044e-08
-2.18679e-08
2.50506e-08
0.0012845
-6.43015e-08
-3.78364e-08
1.29834e-06
2.69451e-07
-1.91332e-08
-0.00279176
-2.5449e-08
0.000406887
3.66522e-06
-2.85891e-08
5.68391e-08
3.60975e-07
2.2401e-06
-6.42577e-09
-0.000831237
-0.0158167
3.14787e-08
0.000722223
2.76739e-08
5.32848e-07
-3.88805e-08
-6.91912e-06
0.000485115
3.86334e-08
4.69404e-07
-3.07912e-08
-2.55726e-08
-4.29633e-06
0.000924876
1.98121e-07
2.68208e-07
-2.02342e-08
3.39164e-07
0.000443039
0.0012491
2.82026e-08
5.03717e-05
-2.98274e-08
-2.76992e-08
2.94951e-07
1.49595e-07
1.18824e-08
-4.18241e-08
0.000827744
3.51699e-07
0.000609955
1.13903e-08
-2.86142e-08
2.648e-05
-1.38278e-08
2.2956e-08
1.37914e-07
1.9089e-07
1.69905e-07
3.89657e-05
0.000517416
6.39253e-08
-7.81214e-05
6.66794e-08
2.70555e-07
9.76803e-05
0.000207009
-3.93638e-08
-3.45733e-08
1.08026e-06
0.000664512
7.11801e-07
3.37158e-07
-0.00442927
1.50484e-07
8.00015e-08
0.000260339
0.003262
5.02433e-07
0.00043527
6.28123e-07
4.12086e-05
-1.10136e-08
7.84561e-07
-4.06848e-06
-2.21665e-08
-7.79469e-05
0.0018255
-1.44613e-08
2.82704e-07
-4.12362e-08
-4.40399e-07
-2.79159e-08
0.0274285
-3.64898e-08
-1.91681e-08
-4.7715e-08
2.50252e-07
-2.50439e-08
0.0011855
-1.96259e-08
6.50571e-07
-3.04855e-08
3.43102e-07
-3.91586e-08
-1.97148e-08
-4.57805e-08
3.88341e-05
3.01261e-07
0.00110809
7.64716e-08
-2.09188e-08
1.24398e-08
3.04489e-07
8.39098e-09
3.63289e-07
7.124e-08
-3.76055e-08
7.72144e-07
-7.54706e-09
5.22341e-05
-2.91919e-09
4.11794e-07
-6.3614e-05
5.85217e-05
2.06269e-06
-0.0409582
2.40933e-07
-6.31103e-07
0.00135207
3.43737e-08
-0.00387883
-1.9984e-08
1.42275e-07
-3.35596e-05
2.52287e-06
1.26995e-08
3.82432e-07
3.59552e-08
4.62599e-05
0.000410682
-3.39955e-08
7.74084e-07
-0.000126444
-3.64542e-09
-3.40708e-09
3.6836e-07
4.475e-05
5.21156e-07
-2.53698e-08
5.17625e-07
3.30427e-08
-2.31867e-08
7.16417e-07
4.80576e-07
9.95675e-08
9.82789e-09
4.91843e-07
4.08434e-08
3.74173e-07
-2.44761e-08
-4.41385e-08
-1.75465e-09
6.72152e-09
5.26479e-07
3.29878e-07
3.28454e-07
1.70978e-07
3.67523e-05
9.3166e-07
-2.55345e-05
0.00059392
5.59039e-07
0.000283596
-6.86227e-08
-1.08123e-06
5.48776e-07
9.35201e-09
1.68258e-07
5.69979e-07
-8.87875e-09
-2.8563e-08
-2.81657e-08
3.86585e-07
7.50401e-05
1.79655e-07
0.000874191
-2.30549e-08
1.33096e-06
1.19683e-07
0.000551389
3.6351e-07
4.78736e-08
4.29544e-08
0.000546338
5.08799e-08
-4.60306e-08
9.77032e-07
-9.8343e-09
-0.00015642
4.17099e-07
6.53222e-07
1.26675e-07
-3.59e-07
-3.13546e-08
-3.12271e-09
-2.90744e-08
-2.30132e-08
0.000105665
-3.61915e-08
7.1942e-07
7.67156e-05
2.03351e-07
0.00135841
0.000493219
6.79225e-07
-2.41539e-07
1.41137e-07
-7.60112e-09
-2.26334e-08
-4.4225e-09
9.32967e-09
-2.16281e-08
2.95654e-07
3.8414e-07
2.95498e-07
1.0862e-06
-2.55217e-08
0.000218719
2.8467e-10
-0.00019413
1.36014e-07
-1.22837e-09
-9.77012e-09
5.73144e-05
5.33282e-08
2.50851e-06
0.001334
2.61235e-07
3.72595e-07
2.87359e-08
0.00027278
-4.09478e-08
3.49062e-08
7.33583e-07
-9.18588e-09
-3.65068e-08
2.63454e-08
2.82019e-07
9.2183e-05
6.46716e-08
1.47567e-07
3.33181e-07
0.001118
-2.45743e-08
-2.41168e-08
7.72505e-05
-3.76625e-09
7.34165e-05
-1.39689e-08
3.79185e-08
1.0094e-05
4.45942e-07
5.78169e-07
1.8122e-07
3.14298e-07
-5.27056e-10
6.49187e-10
2.92829e-07
-1.0029e-08
2.62011e-09
1.62448e-07
9.15217e-07
-2.80744e-08
-1.50668e-09
0.000121484
8.30312e-07
1.90022e-07
-0.000116722
1.16933e-06
-9.78094e-09
8.86293e-08
-2.18158e-08
7.16877e-08
-2.04839e-05
1.94724e-05
0.00609461
6.73373e-05
-3.34292e-08
-3.36168e-08
3.06599e-07
-4.38966e-08
-1.18655e-08
-0.00422485
9.03002e-07
0.000152507
4.0274e-07
4.52616e-07
-2.62379e-08
-1.13144e-08
-7.23531e-06
4.188e-07
-8.20192e-09
-7.32584e-09
5.94214e-07
6.60359e-07
0.000889346
-3.0275e-08
-1.53033e-08
7.74639e-05
-2.46236e-08
1.57023e-07
-2.17897e-08
0.00144464
-1.82039e-09
-7.76546e-05
-1.78098e-08
5.41091e-07
2.91579e-07
1.81435e-07
1.43414e-07
-3.53619e-08
3.53457e-08
-2.64489e-08
7.53198e-07
-3.26328e-08
7.28737e-05
-1.74589e-08
2.10135e-08
-8.82532e-05
1.06688e-07
-3.40769e-08
-9.97284e-05
-2.0638e-06
7.41445e-08
4.4309e-07
-2.47286e-08
5.80829e-05
4.84255e-09
5.80189e-07
-2.35405e-08
-2.60595e-08
2.30571e-06
1.80519e-07
-2.05015e-08
1.90421e-07
0.000672795
-3.18482e-06
-0.000111794
-1.72409e-08
8.33336e-05
-2.11284e-08
-2.71409e-08
-3.46239e-08
1.53065e-08
-7.82066e-09
0.00134867
7.08681e-06
6.96232e-10
-1.99412e-08
2.10813e-07
-2.20088e-08
-0.000149441
4.70431e-07
-0.000311887
0.00146191
3.42911e-08
5.38518e-07
-2.18038e-08
2.97776e-07
1.32501e-08
3.73428e-08
-9.48165e-09
-1.69995e-05
0.00043723
3.72072e-07
-3.40497e-05
4.01199e-07
-1.8627e-08
1.82551e-07
4.46271e-07
3.38494e-05
1.35394e-07
9.45694e-07
4.20375e-07
-9.50149e-09
0.00174343
0.00218491
0.000111817
2.9388e-06
-4.5081e-06
-3.81917e-08
8.54306e-07
-2.51997e-08
1.40036e-06
-7.92183e-09
-3.3438e-08
0.000122714
-2.99811e-08
-3.05168e-08
-4.04471e-08
-4.04452e-08
0.00122343
6.91237e-07
-2.43915e-08
1.87066e-07
0.000554509
-2.77537e-08
-3.48553e-05
-3.21337e-08
4.52869e-07
0.00105348
-2.58673e-08
8.05084e-07
-3.11131e-09
1.17765e-07
4.88934e-08
-3.14939e-08
2.65563e-07
3.54256e-07
0.000644544
8.23049e-08
7.7094e-05
1.19659e-07
0.000447491
0.000240944
6.32907e-05
2.77637e-07
-3.49826e-08
-3.21609e-08
-4.7099e-09
2.30631e-07
-1.45621e-08
0.000547258
-2.32984e-08
4.60225e-09
-2.32486e-08
-4.2651e-08
-1.83855e-08
1.41135e-07
3.71641e-09
5.83919e-08
-1.25364e-08
0.00165417
7.3924e-07
1.13081e-07
-1.60613e-08
0.000248985
-3.7794e-08
0.000108191
-5.97337e-09
-4.18722e-08
-3.26293e-08
-1.65081e-08
-2.22921e-08
-2.58596e-08
-2.48399e-08
-2.55085e-06
-2.58631e-08
1.12604e-06
-6.60306e-10
-7.69864e-05
1.22853e-06
6.78592e-07
6.02321e-07
1.70414e-08
0.00120694
5.87499e-07
-7.96429e-09
3.49788e-09
-3.83758e-08
0.000258187
-2.95691e-08
-8.15512e-07
1.43965e-06
-6.23458e-05
1.32046e-07
-1.15121e-08
4.15353e-05
1.14962e-06
-4.70819e-06
2.79931e-10
-2.1268e-08
3.12922e-08
3.55554e-07
-3.40189e-08
0.000395558
1.11297e-07
-8.23442e-09
4.94909e-07
1.03436e-06
1.83534e-08
0.00105789
-8.38657e-05
7.99328e-07
-9.73042e-09
4.77991e-05
3.1346e-07
-2.61691e-08
0.000117829
-3.07616e-08
1.71605e-08
-2.96527e-08
1.871e-07
2.33219e-07
0.000159417
4.44619e-05
2.4073e-07
8.57089e-05
1.87733e-07
-3.04789e-08
4.84823e-06
-2.85958e-08
-3.09582e-07
2.8408e-08
-2.60037e-08
-3.5278e-08
-1.33711e-08
0.000192021
6.24599e-05
8.15999e-07
0.000502731
0.00211128
-5.51221e-08
-3.99863e-08
1.04461e-09
3.90974e-07
2.87485e-08
2.60904e-08
1.28131e-07
2.19164e-06
6.31683e-07
1.71363e-08
3.61478e-08
1.35231e-07
4.98953e-07
-5.36306e-05
2.9139e-08
1.31795e-08
7.24581e-08
9.3111e-06
1.7148e-07
0.000485168
-4.06897e-08
-1.55503e-08
1.79362e-08
-2.74169e-08
-3.24465e-08
7.42128e-07
2.78827e-05
9.34428e-05
1.11773e-07
-2.37185e-08
-0.000223078
5.09719e-08
-1.22725e-05
0.000561436
-1.92542e-07
4.23605e-05
0.000108141
-0.000212512
3.31575e-07
2.71945e-07
0.000234549
1.29839e-07
-5.27374e-08
1.61793e-07
-4.11847e-07
-1.11258e-08
3.00131e-06
-3.04701e-08
2.21928e-06
2.11501e-05
-5.89846e-09
-3.37873e-08
-1.5535e-08
7.72991e-07
1.60688e-07
-1.89731e-08
1.21047e-07
-2.63176e-08
1.02761e-07
1.01674e-05
-8.20327e-09
-6.3206e-06
8.69383e-05
-3.05612e-08
1.12982e-07
2.36437e-07
-2.16225e-08
2.01972e-05
3.63125e-05
0.00130294
7.53199e-05
-2.44923e-08
-2.564e-08
7.15383e-09
-3.24411e-08
7.33114e-07
1.56701e-07
-2.46405e-09
3.9147e-07
-1.5387e-09
-8.17202e-07
3.07884e-07
0.00107445
-2.60916e-08
-3.47508e-08
6.25586e-07
4.1921e-07
3.45776e-07
-3.27309e-08
3.19739e-05
0.000538116
0.000356537
0.000170293
-5.09387e-06
0.000115894
0.00042212
-3.2781e-08
-2.95934e-08
2.61888e-08
7.56859e-07
2.62696e-07
3.46265e-07
-4.99596e-05
7.33901e-08
-3.03396e-09
-2.09144e-08
6.04769e-07
-2.19062e-09
8.0276e-08
-4.32728e-08
3.39952e-06
-4.08428e-08
-2.29531e-08
-2.00435e-08
-3.66691e-08
-1.81972e-08
-3.39563e-08
7.93339e-07
-5.58632e-08
-2.32536e-05
-2.65042e-08
-2.61276e-08
0.000471989
0.000150084
7.22395e-05
1.88174e-06
5.58406e-07
3.02509e-07
-2.1593e-08
-1.03348e-07
-3.27406e-08
-1.85458e-08
9.58699e-08
-6.24678e-05
4.6633e-08
4.20457e-07
-7.15867e-05
3.48392e-08
-2.04382e-08
1.07779e-08
6.72157e-07
8.74304e-10
3.04417e-06
3.24739e-08
6.76476e-07
-9.10928e-09
1.56687e-09
7.64548e-08
-1.13191e-07
-3.01555e-08
8.85018e-07
6.17071e-07
5.72115e-07
0.000140753
-3.00847e-08
5.57161e-05
1.72087e-06
-2.09692e-08
1.45333e-05
-3.24718e-08
8.29991e-07
-3.51802e-08
9.16059e-08
-2.74701e-08
-1.88044e-08
-3.84283e-08
-1.25629e-08
3.80728e-07
-1.2939e-08
-9.28189e-09
-3.7606e-06
1.03428e-08
-8.75688e-05
-1.18878e-08
1.40519e-07
1.93163e-07
0.000462432
2.30089e-07
-1.00127e-08
7.75071e-07
-2.13922e-08
1.75107e-07
6.8053e-09
1.99601e-06
2.99204e-07
-4.1746e-10
4.84713e-07
7.92644e-07
4.56199e-07
1.59669e-06
-9.91623e-08
3.51796e-07
3.39876e-07
4.06082e-07
-3.22001e-08
1.39236e-09
1.41223e-06
-7.29553e-05
-7.62689e-09
-2.59724e-08
-7.74413e-05
-2.24609e-08
2.68522e-07
-2.74127e-08
3.11023e-08
5.27866e-05
1.53888e-08
-8.08387e-05
6.23138e-08
-1.47508e-08
5.7995e-07
-3.40399e-08
9.21564e-08
7.16237e-05
2.01161e-07
1.03552e-06
-2.90131e-08
-2.90763e-09
-1.55866e-06
-7.04373e-09
-1.55627e-08
1.40899e-07
1.09874e-07
3.75793e-07
1.62711e-07
-3.80972e-08
2.56499e-08
-4.44783e-09
-2.4271e-08
-6.96683e-09
-2.10581e-08
4.62761e-05
2.83396e-08
-3.83551e-08
8.1795e-07
-2.18681e-08
-2.74301e-08
0.000146465
-7.95352e-09
9.85936e-05
4.95546e-08
-5.61241e-05
9.80311e-07
1.22832e-06
1.88682e-05
1.91723e-07
9.17193e-06
1.01404e-08
4.85482e-07
8.02002e-09
2.82285e-10
-2.82088e-08
-2.64908e-08
1.28847e-07
-3.55605e-08
1.75294e-08
-2.76006e-08
-3.41988e-08
-5.36895e-05
0.000262312
-1.13076e-05
8.93561e-08
1.34799e-06
0.000586705
-0.000371491
-1.06125e-08
9.40278e-08
-1.56305e-05
1.48272e-08
1.46673e-07
4.9085e-05
7.98385e-05
1.23093e-07
2.71536e-07
-4.01495e-08
9.76985e-07
1.57045e-09
-6.92945e-08
3.86955e-05
-4.04095e-08
1.06488e-08
-0.000352107
1.91713e-07
7.95258e-07
0.000169746
3.88784e-07
-3.87762e-08
-2.8239e-08
4.91196e-10
5.70895e-05
-1.19425e-07
1.75108e-05
1.10901e-07
-2.42354e-08
0.000680938
-1.82776e-08
3.18086e-07
2.14949e-07
6.81062e-08
2.78752e-07
-2.324e-08
0.00165366
0.00105598
3.30108e-08
3.70678e-07
2.88973e-07
0.000100819
2.19775e-07
3.43448e-07
8.1742e-07
1.86807e-07
6.71496e-07
3.70151e-07
-1.36485e-08
2.12905e-07
3.74981e-06
-6.48753e-06
-2.56184e-08
8.94066e-07
2.20057e-07
3.43759e-07
3.93673e-10
0.00290572
7.83713e-08
-3.93094e-08
-1.80324e-08
8.29895e-08
1.01589e-07
-1.29875e-07
-2.91271e-08
-4.18384e-08
-1.26672e-08
0.000133804
1.0923e-07
-1.12822e-08
-3.0471e-08
2.04728e-07
6.65814e-07
-1.36409e-08
1.15356e-08
-0.000776581
-1.77994e-08
4.1796e-07
2.2637e-07
0.000475557
4.41848e-07
-3.1412e-08
4.85387e-06
-1.01e-08
-3.03381e-08
1.75005e-07
1.65138e-07
3.24938e-07
2.83892e-07
-3.12251e-08
-3.53011e-08
1.00423e-07
-3.57657e-08
1.34674e-09
-1.31941e-07
3.58928e-08
-5.11393e-08
8.45902e-07
-1.62203e-08
-2.46837e-08
-2.81233e-08
8.59803e-05
6.97756e-08
-3.40152e-08
7.29675e-08
-2.12606e-08
0.000318354
2.28241e-07
1.74209e-07
8.35771e-05
1.63495e-06
1.33109e-06
3.76058e-07
7.8635e-07
-2.84591e-08
-2.70186e-07
2.89566e-08
-1.32194e-08
-3.07341e-05
1.9221e-05
3.13939e-07
3.02292e-05
-1.17107e-08
0.000260372
-2.60031e-08
4.37185e-07
-3.83409e-08
4.62969e-07
0.00106408
1.23272e-07
-2.93651e-08
4.6026e-07
2.21476e-07
-2.54075e-08
5.86609e-05
-1.2751e-08
-5.2659e-08
2.42065e-08
-3.10059e-08
6.36293e-08
-3.81857e-08
-2.4072e-08
6.50693e-08
-5.43443e-07
3.38161e-07
1.21967e-07
-3.0115e-08
0.000523907
4.75428e-06
-3.06854e-08
7.85521e-07
-3.51323e-08
1.12313e-07
-6.02015e-06
-2.78293e-08
-3.83835e-08
-1.82807e-08
0.000737693
-2.47931e-08
-1.4941e-08
1.9613e-07
-4.80224e-06
-2.94713e-08
-4.65716e-08
-3.80281e-08
1.22488e-06
1.93643e-07
1.71467e-07
1.27393e-06
-1.24577e-08
-4.4424e-07
-1.1043e-08
0.000392856
5.57431e-08
-1.96681e-08
1.24402e-07
2.53397e-07
-1.73793e-08
1.5937e-08
5.00528e-07
1.96104e-05
6.50593e-08
0.000349086
-1.24639e-08
-7.69135e-09
3.48968e-07
-2.62014e-08
2.86205e-08
0.000466842
-5.88571e-10
2.59031e-07
5.86172e-07
0.0003983
1.29839e-06
3.20569e-08
-6.15466e-08
2.62367e-08
-2.38367e-08
-3.58057e-08
-2.07226e-08
1.01118e-06
-8.8278e-09
6.23338e-07
5.4804e-07
1.13363e-08
1.05017e-08
9.07801e-08
5.49133e-07
8.67108e-07
-2.38467e-07
1.67016e-07
-3.76889e-08
0.00018527
-1.99958e-08
1.75425e-07
2.47878e-07
-1.6198e-08
3.1166e-07
0.000351517
2.40321e-07
7.42468e-05
1.26639e-06
-0.000209078
1.51475e-07
-3.23087e-08
1.22287e-07
3.06907e-07
9.69525e-09
6.28527e-08
1.22464e-07
-8.36963e-09
-2.82005e-08
-2.54044e-08
1.4887e-08
5.04381e-08
1.22293e-08
-2.94761e-05
-3.13194e-08
6.22009e-05
-2.20096e-08
5.77447e-07
-8.78374e-09
5.38206e-07
-4.66382e-08
-3.32474e-08
-1.32182e-06
-5.45458e-08
-8.25941e-09
2.78055e-07
-1.63509e-09
-4.17173e-08
2.26582e-08
1.82187e-05
-3.34038e-08
2.31336e-07
4.88455e-07
3.5524e-06
-2.33249e-08
6.37913e-07
7.7831e-07
-2.12115e-08
1.79926e-08
1.05561e-08
-5.67376e-07
2.75335e-07
0.000294791
-6.60885e-09
-0.000260213
-3.97391e-08
-1.47109e-06
0.00326943
8.27642e-08
1.69795e-06
-3.09536e-08
1.49456e-07
-4.25525e-08
0.00139779
5.59943e-08
-2.06517e-08
-3.65157e-08
4.82085e-07
-2.60517e-08
-2.65524e-08
-1.95098e-08
0.00138526
-3.91824e-09
-3.32436e-08
0.000174857
-3.73395e-08
-3.29875e-08
-1.0538e-08
-3.31296e-08
-1.98688e-06
-1.98359e-09
-3.08624e-08
-2.60179e-08
-4.72881e-08
6.49065e-09
1.28024e-08
4.04742e-07
6.10412e-05
-3.24111e-08
-1.26045e-08
3.65197e-06
5.75381e-08
-9.39768e-05
1.12731e-07
0.00319109
-1.88111e-08
-4.04797e-08
-2.02887e-08
9.66159e-05
8.6613e-05
-2.25833e-08
2.20394e-07
1.44517e-07
-3.37001e-08
-1.00971e-08
2.51189e-05
-2.08867e-08
4.26917e-07
2.2284e-08
2.49768e-07
-7.39912e-09
-5.09694e-05
-2.3347e-08
2.71144e-07
-1.61987e-10
-9.06884e-07
1.64299e-06
-4.31417e-09
-3.23096e-08
0.00152498
3.98936e-07
2.12212e-06
9.74025e-07
6.65611e-07
-2.23114e-08
1.33992e-07
3.71394e-07
3.40701e-06
7.92422e-08
2.33959e-07
-1.29622e-07
-3.13612e-08
7.55986e-05
-0.000265228
3.77281e-07
5.37963e-07
1.06994e-06
6.72245e-08
-2.33675e-06
1.44149e-08
-5.84038e-09
2.68115e-07
0.00124627
7.29651e-07
5.08323e-07
1.08095e-06
-2.47355e-08
0.00253215
0.000177639
0.00302056
-1.26845e-08
0.000268064
-5.30072e-05
3.35006e-06
-4.12164e-06
0.000312158
4.44884e-07
7.43974e-08
4.69238e-07
-5.45888e-08
-3.7195e-08
2.33823e-06
4.25058e-07
4.36853e-09
0.000466843
-1.22576e-08
-2.72106e-08
2.86355e-07
-6.10692e-08
3.67606e-06
-6.87746e-08
-7.52833e-05
2.77886e-07
-6.28843e-08
9.1553e-06
0.00141683
4.97595e-07
-2.44818e-08
-3.35496e-08
3.28588e-07
-1.04315e-07
-2.25944e-08
2.44302e-07
-2.03577e-08
5.36863e-07
-3.76343e-08
6.18317e-07
-3.47843e-08
-3.8599e-08
-1.68147e-06
6.32811e-07
-2.25347e-08
-3.60375e-07
4.34359e-05
-3.67016e-08
-3.85429e-08
0.00329351
8.9496e-07
-9.85318e-09
3.09488e-08
-2.18267e-08
-7.10221e-09
8.99817e-08
8.69296e-05
3.42766e-07
-3.64802e-08
-1.0812e-08
3.05605e-07
-1.41748e-08
1.04155e-06
0.000369976
-2.53427e-08
-2.41783e-08
4.65522e-09
-1.19997e-08
1.82566e-08
-3.7294e-08
-9.81272e-09
1.33444e-09
-2.75603e-08
-3.83432e-08
-2.47085e-08
2.91823e-07
2.82158e-06
-2.48183e-09
6.15634e-06
-3.99078e-06
-9.47911e-09
-1.44957e-06
4.29547e-07
2.33925e-08
-4.2877e-08
4.33086e-07
7.12507e-08
-6.55781e-07
1.10681e-07
-2.21272e-08
-1.07522e-08
0.00019392
1.24188e-07
6.49461e-07
-3.97211e-08
-2.52443e-08
-2.6418e-08
1.46213e-08
-3.13754e-08
2.99525e-07
3.90573e-07
-9.28418e-06
-2.7339e-08
8.0346e-07
9.35996e-05
0.000566815
-1.92239e-08
2.43489e-07
6.7021e-06
8.04721e-06
1.51641e-06
-2.29535e-08
-4.00059e-08
2.3213e-07
1.17009e-06
1.04174e-06
2.74996e-07
8.66433e-07
-1.01059e-08
5.05307e-09
-5.3511e-08
-1.02854e-08
-2.53275e-08
1.24694e-07
-3.11424e-09
-2.04635e-06
-1.73465e-08
0.000991614
8.13621e-06
-2.95742e-06
2.31238e-06
0.000548257
-2.95289e-08
-1.22911e-08
0.0004543
-3.91405e-09
-5.17692e-09
-8.32412e-09
1.07645e-07
0.000276394
0.000264536
4.83049e-09
5.74648e-08
-3.47411e-08
-4.87812e-08
-0.000261919
-2.56082e-08
5.84472e-07
0.000995394
-1.4952e-08
-6.28954e-09
0.000214095
4.09031e-07
7.30344e-08
-2.4309e-08
0.000115043
0.000684563
1.10226e-08
8.33715e-07
-3.06768e-09
0.000539368
-7.81828e-06
5.65197e-08
-0.000289025
-4.79694e-05
4.06171e-05
-1.41895e-08
7.85535e-08
-8.09084e-09
2.70523e-08
1.55082e-05
-2.44321e-08
9.54374e-07
8.35336e-07
0.000273698
-9.75374e-09
7.71637e-08
1.35495e-06
2.48156e-07
0.00034477
0.00037699
-6.27965e-09
7.60583e-08
8.23106e-08
4.87837e-07
-1.36161e-05
9.47963e-09
8.63945e-05
-2.54177e-08
2.67066e-07
-3.91615e-08
-2.93255e-08
2.77908e-07
1.38338e-07
-0.000192275
-1.1069e-08
1.06521e-07
-1.35554e-08
5.23746e-07
4.43901e-08
0.000115928
3.66681e-06
6.67399e-07
3.83738e-07
-3.62644e-08
-4.31727e-08
4.25168e-07
-2.04238e-06
4.7671e-05
0.00087947
-1.78502e-08
6.55192e-07
-3.99932e-07
0.00201266
1.54983e-07
1.78592e-07
1.74991e-07
-1.14951e-08
-9.40636e-06
-2.35156e-08
1.39588e-07
7.22019e-05
0.000864441
3.76077e-06
0.000405208
-2.40177e-08
3.05274e-07
6.62173e-09
0.00109245
-2.19392e-08
1.60917e-05
8.12626e-09
-5.14178e-06
1.60254e-08
-2.56648e-08
1.33719e-07
-1.18737e-07
-4.36979e-08
-3.58432e-08
0.000187452
2.68489e-07
-3.14595e-08
9.1531e-08
0.000112485
1.2601e-06
-2.94927e-08
0.000681634
-2.87614e-08
1.86953e-07
1.85648e-07
-1.2045e-08
2.00429e-07
-2.81133e-08
0.000538056
1.84377e-07
1.16547e-07
-2.97691e-08
2.73461e-07
1.95389e-07
1.04146e-08
-7.58758e-06
-2.74287e-06
9.41475e-07
3.36065e-08
1.19466e-06
-1.11371e-08
5.85636e-07
1.22376e-07
7.24111e-07
-1.50586e-05
0.000210499
-3.98494e-07
0.000349991
6.91415e-09
-1.45569e-08
-2.00519e-08
-9.71176e-07
4.18733e-07
3.78955e-07
-4.34934e-06
-7.56737e-09
4.45533e-06
1.96301e-07
1.08923e-06
6.8025e-07
0.00036448
0.000180029
2.26595e-05
0.000169008
-1.87372e-08
-1.24732e-07
-1.73195e-08
-7.31644e-09
8.60322e-09
7.04544e-07
-1.63717e-08
1.29309e-08
0.00113333
-3.04614e-08
-2.31051e-08
2.29305e-07
5.42416e-07
9.53689e-08
-5.53833e-09
0.00122349
2.00469e-08
2.88471e-07
-4.53597e-08
-8.91748e-05
-1.41592e-08
-0.000304653
-2.6057e-07
1.51278e-07
3.6559e-08
-1.72119e-08
-6.93877e-05
1.15179e-06
2.35317e-07
-3.9683e-08
-3.31508e-08
0.000148794
4.25324e-05
7.43864e-05
2.03735e-08
2.13185e-07
7.90649e-07
4.99137e-09
-2.67062e-08
-4.01064e-08
0.000306132
6.59712e-07
5.94385e-08
1.40796e-07
1.15425e-07
-1.98574e-05
1.4256e-07
6.85287e-07
1.17109e-07
1.41407e-07
1.45774e-08
6.61655e-08
7.58075e-08
-3.0248e-08
-6.2428e-06
0.000552361
0.000701449
1.24875e-05
-0.000105637
0.0029878
0.000626793
-2.07702e-08
2.83105e-08
-9.1223e-06
0.000594924
7.30005e-06
-4.14865e-08
2.50064e-07
-2.25219e-08
-3.36035e-08
2.28087e-06
0.000858473
3.62456e-07
-2.86213e-08
8.61127e-07
4.19909e-07
2.91082e-07
0.000665147
2.98108e-06
8.3776e-07
-3.34398e-08
0.000182262
1.17522e-06
1.79015e-07
1.82379e-07
2.39909e-07
-2.71089e-08
-2.40719e-08
1.65683e-07
2.36799e-07
-2.81537e-08
2.36491e-07
9.65875e-08
-3.48296e-08
5.90947e-07
0.0002235
-3.56002e-08
2.5269e-07
0.000578845
6.60278e-07
-1.17173e-08
-8.51464e-06
4.6108e-06
8.34172e-05
1.70875e-07
-6.97292e-09
1.05586e-07
-8.73437e-10
-3.74927e-08
-9.35839e-09
-1.8604e-07
1.62847e-07
2.97869e-07
-1.64903e-08
-7.47947e-09
-2.67732e-08
0.000196356
6.8777e-05
0.00142725
1.41329e-06
4.74252e-07
1.58819e-08
-2.30415e-08
1.0693e-07
2.13498e-09
0.00251054
-2.30202e-08
-4.58482e-10
-8.32839e-09
-1.02759e-05
-0.00848221
-3.63907e-08
3.8569e-07
-1.49765e-09
-6.05673e-08
9.29526e-08
1.24691e-07
3.22383e-07
1.14329e-07
-0.000130305
8.23755e-08
0.000634233
1.1952e-07
0.00146087
6.43716e-08
-3.40902e-08
-1.95449e-08
4.30456e-07
5.10346e-07
-2.21658e-08
-2.84537e-08
6.37461e-08
1.65156e-07
-3.55771e-06
-0.000221512
1.91739e-06
1.80369e-10
-1.41279e-06
-2.32371e-08
6.55921e-08
-2.55073e-08
1.66127e-07
-3.81506e-08
7.25863e-05
-1.93613e-05
4.28415e-08
-1.81887e-08
5.93595e-05
-5.59708e-08
0.000249363
0.000608824
5.85339e-07
-3.5826e-08
4.05811e-07
-4.10526e-06
1.9946e-06
0.000338841
2.149e-07
-1.17172e-08
1.32448e-07
1.87767e-08
0.00329599
-3.44171e-08
6.42141e-08
8.47132e-07
0.00146628
-1.12205e-08
-3.53784e-08
8.70462e-05
1.71899e-07
0.00340182
3.63723e-07
-2.19472e-08
1.90078e-07
5.43059e-07
-5.32143e-07
2.18864e-06
5.68006e-08
-3.01454e-06
1.14308e-08
-9.87277e-10
-3.36651e-08
5.05994e-07
-3.23121e-08
1.12474e-06
-2.61237e-08
-2.43859e-08
1.27268e-07
1.32276e-07
-1.3745e-08
-2.45686e-08
7.46576e-08
-1.25877e-06
2.57978e-07
1.69681e-07
-2.08637e-08
2.39208e-07
-4.04186e-08
1.98961e-07
1.0355e-07
2.3867e-07
2.33084e-06
1.20546e-07
-2.18915e-07
-2.96523e-07
1.51816e-08
3.85976e-07
0.000167749
6.98416e-05
1.21758e-08
-2.89254e-07
0.000232287
-3.60455e-08
-2.71159e-08
2.1079e-06
0.000424889
1.7826e-09
0.000205558
1.18895e-06
5.29336e-08
4.5337e-07
9.82931e-09
6.8486e-08
2.70416e-07
-0.000723784
9.78901e-07
6.32173e-07
7.26822e-07
-1.97909e-05
0.000552726
6.87444e-08
0.000275428
-2.3557e-08
1.41575e-06
0.000629428
-1.76524e-08
-2.46969e-08
7.81234e-05
-2.6648e-08
-1.81715e-08
6.51764e-07
-8.90681e-05
7.30707e-07
1.07008e-07
0.000591346
-2.75049e-08
6.09246e-05
0.000250705
-1.25355e-08
1.05574e-06
-7.02615e-05
0.000671936
0.000125234
0.000236941
8.90527e-05
-2.67351e-08
-2.63129e-08
2.90042e-07
3.74167e-07
-1.87402e-08
5.71232e-07
-2.35984e-08
0.000218872
8.069e-07
3.54235e-07
7.34943e-07
0.000203187
8.72058e-07
6.25792e-07
-2.04996e-06
-3.44136e-05
-5.69745e-07
7.79955e-08
1.78566e-09
8.20912e-07
-4.76292e-08
-7.01217e-09
0.00295176
-3.60147e-08
1.51061e-06
-2.78414e-08
0.000580057
8.9779e-08
-3.16861e-08
0.000152035
1.08096e-08
-6.49034e-08
7.61545e-05
0.000338343
-5.82878e-06
1.69241e-07
2.62251e-07
-4.02045e-08
2.26544e-07
4.66923e-07
2.38494e-07
-2.87759e-09
-7.49937e-07
3.45222e-07
1.52792e-08
0.000117966
2.20489e-07
-5.39762e-08
4.39167e-07
3.1088e-07
2.70408e-07
-3.32887e-08
5.44125e-07
-1.94715e-08
5.00604e-07
7.23366e-07
0.000574671
-2.76531e-08
1.47333e-07
-0.000149985
5.45062e-08
1.867e-07
1.69519e-07
1.85238e-07
-0.00137399
3.51131e-07
-2.63531e-08
-0.00819361
-2.43919e-08
4.45321e-05
-1.76116e-08
5.89355e-09
4.8989e-07
6.10678e-05
4.05541e-08
-4.7393e-06
-2.69639e-06
1.54371e-07
-7.53576e-09
-7.72176e-07
2.26465e-07
0.00119323
-4.34216e-08
-0.0596045
5.10896e-07
2.00648e-07
9.2218e-08
1.96183e-07
1.01084e-07
4.94051e-08
3.53625e-07
-8.09949e-08
-1.01709e-09
5.52582e-08
-6.03171e-07
-3.38448e-08
6.67362e-08
7.33869e-09
5.06041e-07
8.15834e-08
3.62131e-07
0.000730741
-2.20595e-08
4.18588e-07
9.84734e-09
-3.13467e-08
-1.43275e-08
-1.53692e-09
1.12495e-07
-2.90824e-08
4.5523e-07
0.000449564
3.66381e-07
2.7596e-07
8.0393e-08
-2.56585e-08
6.22263e-07
-3.89416e-08
4.08941e-06
5.65377e-06
-6.53505e-05
5.57323e-07
5.65071e-08
1.30479e-07
-1.2478e-08
-2.44152e-08
-8.29876e-07
1.49923e-07
0.000729458
3.75445e-07
0.000856548
5.71729e-07
-1.04179e-08
-2.3201e-08
7.222e-05
-3.3093e-08
1.11688e-07
1.38584e-06
9.37849e-07
2.9912e-08
0.000375705
-8.15597e-09
-1.16039e-08
-2.13612e-08
-3.96558e-08
-1.08975e-06
4.81495e-07
-3.21036e-08
1.78937e-07
-7.89042e-07
3.25246e-07
3.7388e-07
-2.80445e-06
-6.53572e-07
1.85956e-07
8.19391e-07
1.24757e-07
-2.26775e-08
3.59592e-07
3.97672e-05
-8.91636e-05