/*--------------------------------*- C++ -*----------------------------------*\
| =========                 |                                                 |
| \\      /  F ield         | OpenFOAM: The Open Source CFD Toolbox           |
|  \\    /   O peration     | Version:  v2012                                 |
|   \\  /    A nd           | Website:  www.openfoam.com                      |
|    \\/     M anipulation  |                                                 |
\*---------------------------------------------------------------------------*/
FoamFile
{
    version     2.0;
    format      ascii;
    class       volScalarField;
    location    "850";
    object      k;
}
// * * * * * * * * * * * * * * * * * * * * * * * * * * * * * * * * * * * * * //

dimensions      [0 2 -2 0 0 0 0];


internalField   nonuniform List<scalar> 
13851
(
0.000157684
0.0229418
0.000224435
0.0001557
0.000214659
0.000438761
0.000146325
0.000179519
0.000138952
0.000250739
0.00685612
0.0279926
0.00999107
0.0223851
0.000143996
0.000177077
0.000158777
0.000179635
0.00710638
0.000138917
0.00015486
0.000223199
0.000150803
0.000153699
0.000154325
0.000180717
0.000154913
0.00719988
0.000156975
0.000162168
0.00161056
0.000159154
0.000222477
0.00837417
0.000153324
0.00029699
0.000416313
0.00943295
0.000290584
0.0083717
0.000144061
0.000132841
0.0147275
0.00630603
0.00656706
0.0250017
0.00594881
0.0138369
0.000155193
0.000857248
0.00020328
0.000293916
0.0368331
0.000145666
0.000152782
0.000133105
0.000144522
0.0443649
0.000161217
0.000147225
0.0119186
0.0595029
0.000232791
0.000232108
0.000300884
0.000164935
0.000448574
0.0054231
0.000163526
0.000179226
0.00508388
0.000514969
0.0193803
0.000146359
0.000140989
0.000141863
0.000215178
0.00579629
0.000177913
0.00505214
0.000149464
0.0060537
0.000144207
0.0133256
0.000303532
0.0258891
0.000446188
0.00096572
0.000157672
0.00014675
0.000298089
0.000501927
0.00482975
0.000159642
0.000157137
0.000152264
0.000218939
0.0184273
0.000707256
0.000152948
0.0237496
0.000181586
0.000152238
0.00015376
0.00015282
0.00237353
0.000187142
0.000131947
0.000577431
0.000936451
0.000154146
0.000147539
0.000270228
0.000158995
0.000153955
0.0089203
0.0184472
0.000131738
0.000155821
0.000154836
0.0154116
0.000153644
0.0119449
0.00625697
0.013252
0.000180332
0.0114246
0.000179905
0.000153665
0.000341146
0.000143842
0.000139144
0.00496884
0.00014414
0.00965509
0.000140788
0.000131759
0.000520223
0.00786663
0.0023325
0.0233661
0.000153098
0.000172616
0.00013711
0.000156089
0.00594213
0.00198506
0.000362776
0.000146144
0.00699206
0.000201633
0.000151996
0.0237241
0.000144952
0.000153405
0.000155958
0.000142296
0.000157273
0.000295928
0.000202419
0.000136951
0.000158109
0.0435407
0.000139021
0.000173066
0.000134564
0.00258077
0.000163948
0.000152976
0.0218045
0.00527044
0.000136108
0.000142381
0.00270559
0.000138905
0.0153851
0.000178017
0.000165495
0.00754025
0.000132595
0.000160842
0.000530605
0.000144
0.00022866
0.000132703
0.000152753
0.000165951
0.000148362
0.000233545
0.000257785
0.00536966
0.0399232
0.000151415
0.000163828
0.060022
0.000153183
0.000166006
0.00757756
0.00016227
0.00014228
0.000182009
0.0340282
0.000161148
0.000143371
0.000228359
0.000144116
0.0280703
0.000158204
0.00651693
0.000133908
0.00381667
0.000151596
0.00165136
0.000131907
0.000136321
0.00601867
0.00028085
0.0247823
0.000143538
0.00682686
0.000158629
0.00014971
0.011467
0.000299391
0.00275727
0.000154956
0.000161344
0.000155831
0.0379207
0.000132073
0.00017992
0.000282268
0.00013604
0.000150193
0.000194947
0.000213627
0.0354336
0.000321128
0.000137096
0.000143519
0.00357114
0.00894337
0.00014958
0.000236387
0.000147301
0.00495496
0.000182996
0.00360824
0.000156584
0.00016339
0.000222343
0.00927754
0.00015055
0.000156716
0.000182962
0.0105003
0.000258288
0.000533468
0.00521739
0.000144159
0.000136341
0.000175842
0.00835213
0.000140838
0.0168653
0.000153197
0.000150318
0.000159123
0.0109306
0.00448796
0.000225134
0.000153468
0.00455765
0.000175114
0.00017664
0.000139271
0.00667508
0.00334968
0.000683765
0.00705506
0.000151365
0.000133092
0.000152577
0.000180835
0.0101905
0.0164858
0.000140461
0.000143936
0.00541718
0.00581697
0.000418543
0.000159834
0.000147434
0.000165997
0.00562651
0.0139847
0.000170773
0.0215518
0.000139496
0.00490236
0.000157792
0.000158767
0.000726698
0.000148399
0.00195974
0.00956833
0.000140151
0.000173641
0.000160049
0.000158902
0.00823222
0.000171322
0.000150363
0.0135026
0.000133286
0.000163505
0.000207491
0.000617686
0.000243482
0.000143558
0.000183273
0.000143698
0.00639866
0.00023786
0.000150537
0.000145901
0.000239379
0.000160807
0.000152919
0.000143937
0.000148187
0.000150169
0.00697835
0.0329741
0.0287198
0.00019595
0.000641224
0.0476492
0.00014371
0.000164567
0.000521749
0.000914924
0.000240109
0.000256384
0.00993587
0.00019113
0.013425
0.0078312
0.000144173
0.00167858
0.00154107
0.0331441
0.000152839
0.000243654
0.0382748
0.000142729
0.0132938
0.000145901
0.000143725
0.000144763
0.000132091
0.000141402
0.0071656
0.00172026
0.000145034
0.00017191
0.000134239
0.0200042
0.000189902
0.0143806
0.0235931
0.000145238
0.000292235
0.000160865
0.0148487
0.000142999
0.000131792
0.000222042
0.0286377
0.000144439
0.00885801
0.000794749
0.000270255
0.0218816
0.00229572
0.00243971
0.000219161
0.000139497
0.000148944
0.00019053
0.000182575
0.0197413
0.000164015
0.00173704
0.00897488
0.000134294
0.000144229
0.0263949
0.00478917
0.000305636
0.0169917
0.000231012
0.000161456
0.000155533
0.0451524
0.000137154
0.000175522
0.000202853
0.000145842
0.000155261
0.000139791
0.000134545
0.000228339
0.000228178
0.00764696
0.00018267
0.000186184
0.000217718
0.0092728
0.000165912
0.0353575
0.000158396
0.0062339
0.000131705
0.000139526
0.000156476
0.0246602
0.00943065
0.000296351
0.000224422
0.00639544
0.00839836
0.000327592
0.000157065
0.000196352
0.000142773
0.00908422
0.000150803
0.0373651
0.0104079
0.000211259
0.00654973
0.000169479
0.00501193
0.0105207
0.0390278
0.00013144
0.000162663
0.000179462
0.00542957
0.00013672
0.000150344
0.000198402
0.000274314
0.000198757
0.0120626
0.00015497
0.000146527
0.0154709
0.000175507
0.000132656
0.00119554
0.000139445
0.00015732
0.000137582
0.000202032
0.000155579
0.000133349
0.000166076
0.0138383
0.000144349
0.000166263
0.000140006
0.000183049
0.00548611
0.000160226
0.000143569
0.000159266
0.000159248
0.0153955
0.000150076
0.000340969
0.000143923
0.000152244
0.0228216
0.00611517
0.000144353
0.000206795
0.000165859
0.00820445
0.0169595
0.000146486
0.0027631
0.000143282
0.000218199
0.000146494
0.0195501
0.000132655
0.0346761
0.000265743
0.000132944
0.000209492
0.0176611
0.000181864
0.00437814
0.000155092
0.00246066
0.000156331
0.000138422
0.000139442
0.000145632
0.00441429
0.000196044
0.000271106
0.00160818
0.000278908
0.000137958
0.023622
0.00898812
0.000160826
0.000158426
0.00632837
0.00515768
0.00247574
0.000151978
0.0201108
0.0221016
0.03377
0.000173421
0.000261649
0.0063911
0.00465633
0.0105607
0.00706721
0.0422505
0.000158121
0.0436821
0.000616327
0.000131797
0.0039127
0.000198102
0.00522787
0.000157364
0.000142961
0.000141992
0.000143564
0.000230534
0.000203474
0.00100557
0.00952623
0.000139627
0.0168796
0.00755861
0.00836656
0.0100151
0.000165655
0.000131919
0.000139217
0.00534518
0.0233704
0.000153559
0.000214567
0.000302554
0.000133021
0.00033966
0.00480928
0.0252906
0.000260007
0.00442813
0.00060252
0.000143527
0.000145938
0.0178712
0.00922393
0.00025415
0.000163986
0.000539748
0.000132395
0.000141728
0.0400584
0.000132706
0.000157224
0.000132436
0.000139376
0.000629119
0.000228779
0.000184902
0.000132646
0.0103083
0.00786229
0.000139641
0.000143075
0.000141873
0.000148395
0.0298851
0.00338022
0.00215892
0.0461775
0.00293136
0.00016205
0.00501469
0.0060313
0.000195416
0.00016393
0.000131872
0.000202308
0.000175967
0.0147852
0.0129843
0.000213578
0.000163588
0.000138412
0.000178957
0.000170526
0.00445527
0.000204479
0.000143814
0.000198721
0.000136737
0.000158467
0.000313617
0.000146866
0.000142529
0.000189411
0.000147373
0.000219302
0.022092
0.000289296
0.000181325
0.000260493
0.000138243
0.000303003
0.000230116
0.0480497
0.000151203
0.000152247
0.000577467
0.000160167
0.020086
0.00722719
0.0208174
0.000786269
0.000137154
0.000524063
0.000156857
0.000139407
0.000132586
0.00013944
0.000438862
0.000186844
0.000197494
0.000132395
0.0510485
0.000265518
0.0527467
0.000141542
0.000134125
0.000143589
0.000399968
0.0666184
0.000184204
0.000158814
0.000156712
0.000152566
0.000146971
0.000143257
0.00045679
0.0287118
0.00014705
0.000132314
0.00014572
0.000143088
0.0279763
0.0411925
0.000178951
0.0203828
0.00337355
0.000142338
0.000269787
0.0342411
0.000165499
0.0310605
0.000149474
0.000176574
0.000183261
0.000178877
0.00449808
0.000144224
0.00576752
0.000152535
0.0001608
0.00714851
0.000142519
0.000157036
0.000370618
0.000138529
0.00016012
0.00815829
0.00445771
0.000202914
0.0161963
0.00299388
0.000132073
0.000141251
0.0209042
0.000296549
0.000219482
0.0072926
0.000137714
0.000161919
0.000131872
0.00210885
0.000504384
0.000166233
0.000148223
0.00515165
0.000155578
0.000142973
0.0104352
0.0093857
0.0101862
0.000133201
0.00014683
0.00513929
0.0264409
0.000278645
0.000164287
0.000622773
0.000144228
0.00548581
0.00121876
0.000222837
0.00016128
0.0211618
0.000220133
0.000188048
0.000408323
0.000151004
0.000160683
0.000156312
0.000138038
0.0100554
0.000170544
0.000259993
0.000186756
0.00398016
0.000138659
0.00754817
0.000156589
0.000220886
0.000135223
0.00014196
0.000144008
0.00977621
0.000141644
0.00013203
0.00931735
0.000146166
0.00560292
0.000151878
0.0001719
0.000199156
0.0292569
0.00249264
0.000140809
0.00293451
0.0218859
0.000150312
0.00800085
0.000160341
0.000137724
0.00129477
0.0139757
0.00191911
0.000164745
0.000140692
0.000132057
0.00973512
0.000245443
0.000232353
0.000169608
0.0011619
0.00014968
0.00016787
0.000212678
0.00553405
0.000231869
0.0113347
0.000146555
0.000221124
0.00021334
0.000588732
0.000166094
0.0183032
0.00114429
0.000146261
0.0183679
0.00030018
0.0400168
0.0044204
0.0128195
0.00719935
0.00018312
0.000137892
0.000188164
0.0445438
0.0132745
0.000146004
0.000154918
0.000197727
0.00572462
0.000132645
0.0352386
0.0001375
0.000145081
0.0108425
0.0052216
0.00328635
0.000139387
0.00014379
0.0309512
0.000439438
0.000246082
0.000172855
0.0275833
0.0235323
0.0579859
0.000186276
0.000170988
0.00015049
0.000146279
0.0191344
0.000181055
0.0048427
0.000236812
0.000163531
0.00861988
0.0383796
0.00683926
0.000144811
0.000160581
0.00013955
0.00018136
0.000156532
0.0330391
0.000163244
0.00412027
0.000132462
0.000198238
0.000142011
0.00986237
0.000162815
0.000160226
0.0187844
0.00017422
0.000206718
0.000154826
0.000198285
0.0158736
0.000331878
0.00015785
0.00525487
0.000139588
0.0037216
0.00316388
0.000148667
0.00412359
0.0256014
0.00609968
0.00837275
0.000230765
0.000145094
0.0101304
0.00016394
0.0130554
0.00624916
0.000141374
0.000151844
0.0203406
0.00669755
0.0148707
0.000147056
0.000140296
0.00901432
0.00683085
0.00026249
0.000163591
0.000165099
0.00498738
0.00845831
0.000217326
0.000132057
0.000183274
0.000138653
0.000157868
0.00169603
0.000155666
0.0416796
0.00873449
0.000145285
0.000175074
0.000145421
0.000156501
0.00508288
0.0194094
0.000161881
0.0154827
0.000141995
0.000162646
0.000144752
0.000138788
0.000147856
0.000145077
0.00507603
0.000144424
0.000183359
0.000144947
0.000164751
0.00211077
0.0220931
0.000155778
0.0129507
0.000236016
0.000617855
0.000170712
0.000167943
0.00497314
0.000158236
0.000207657
0.0318486
0.00768675
0.0357672
0.00017262
0.00719891
0.000150417
0.00017197
0.00018287
0.0122807
0.000145197
0.00349785
0.000141085
0.000141703
0.0183662
0.000175469
0.0110717
0.000161725
0.000139561
0.000334905
0.000139607
0.000143813
0.000168919
0.000149122
0.000379958
0.000141529
0.000453029
0.00952942
0.000218634
0.00506428
0.000146042
0.000157278
0.000230595
0.000143689
0.000139382
0.000208603
0.000148989
0.000141473
0.000148739
0.000154838
0.00643614
0.0283018
0.000302432
0.0160591
0.0004333
0.000141685
0.001803
0.000162994
0.000141268
0.00681454
0.00684056
0.00768877
0.000141518
0.00589231
0.00651506
0.0362217
0.000136283
0.0125277
0.000169751
0.000155261
0.00017669
0.000137735
0.0426937
0.000311475
0.0160469
0.000141876
0.000143817
0.0100397
0.000148793
0.0324666
0.00546388
0.0036088
0.00487548
0.00827268
0.000153866
0.000144499
0.000275515
0.000183917
0.000153887
0.00368343
0.000174002
0.000149195
0.000164551
0.0260687
0.00014167
0.0090986
0.00161856
0.0132301
0.000454837
0.000150358
0.000136554
0.000147197
0.00603475
0.00870665
0.000136258
0.000161983
0.000141469
0.000208579
0.000133006
0.00014098
0.000149962
0.000163339
0.00048421
0.000208682
0.000194102
0.000144392
0.000183524
0.023227
0.000150279
0.0177897
0.0436281
0.000209027
0.000133977
0.000175164
0.000142933
0.000151096
0.000146709
0.00598431
0.000245614
0.00813773
0.000153922
0.00581782
0.000143409
0.000153831
0.000148075
0.00234189
0.0115776
0.000136119
0.000163175
0.000234421
0.0051619
0.000160124
0.016927
0.000483966
0.0149249
0.000226394
0.00586341
0.000213855
0.000209164
0.0267279
0.0077784
0.00697974
0.0369552
0.000145302
0.000335535
0.000132937
0.00015799
0.000156634
0.000148072
0.00712302
0.000167585
0.00016017
0.00714876
0.000380931
0.0153514
0.000143623
0.000154514
0.000167566
0.000137757
0.000198245
0.0114093
0.00715442
0.00733297
0.000140173
0.000158193
0.000176979
0.00484289
0.0167283
0.000273337
0.000136267
0.000148531
0.017793
0.000181172
0.0399611
0.0367098
0.000313597
0.000133903
0.000625682
0.000196942
0.000174219
0.000160739
0.00632903
0.00557145
0.000311457
0.000256054
0.000152793
0.000180229
0.000145073
0.0321745
0.000220606
0.00690712
0.0034467
0.000156631
0.000288191
0.00015345
0.00541821
0.000466517
0.000144411
0.000398982
0.00750915
0.000398376
0.000595985
0.000147051
0.000144829
0.00504225
0.0266695
0.0126415
0.000155923
0.000145838
0.000145273
0.00614569
0.00026982
0.000149107
0.00776548
0.000247857
0.0440017
0.000645253
0.0167432
0.000144194
0.000614237
0.000156165
0.000143387
0.000291092
0.0671143
0.000146435
0.000141216
0.0174848
0.00711399
0.000169773
0.000140062
0.00268853
0.000142805
0.00529196
0.000140189
0.00347024
0.000144722
0.00018408
0.0147899
0.0153773
0.000152363
0.0129511
0.00868751
0.049512
0.0077699
0.0178359
0.000265302
0.000142264
0.0422916
0.000160436
0.000143699
0.000137318
0.00733467
0.000142145
0.000394227
0.000141384
0.000197122
0.00666354
0.000208358
0.0390458
0.00015469
0.000332675
0.000139319
0.000162133
0.000580662
0.0224679
0.00014041
0.00019865
0.0084036
0.000147424
0.000137887
0.00841926
0.000164119
0.000181571
0.000273228
0.00189505
0.0121369
0.000558336
0.000588409
0.000273615
0.00675687
0.00846259
0.000695104
0.000199177
0.000137941
0.000257645
0.000142143
0.000142121
0.0244115
0.00774436
0.000157963
0.0213521
0.000394096
0.00798632
0.00867197
0.00424525
0.000143104
0.000382067
0.000401134
0.000155533
0.000152655
0.00935157
0.0125545
0.0172523
0.00406824
0.000193655
0.00334168
0.00726271
0.000161646
0.000148047
0.000141771
0.00559958
0.000140756
0.000435577
0.000153021
0.000150511
0.000158973
0.0204693
0.000622493
0.0411278
0.0001482
0.000610336
0.000164861
0.000177913
0.000140633
0.000144094
0.0441051
0.000167274
0.00589666
0.0169792
0.00752546
0.000240553
0.000144202
0.000192673
0.000148367
0.000262119
0.000162884
0.000154138
0.000147588
0.000151644
0.000302572
0.00015058
0.00017462
0.000157532
0.00017633
0.0167889
0.00501162
0.000142433
0.000179168
0.000156339
0.00267858
0.000240686
0.0375424
0.000226815
0.000161407
0.000154307
0.000151943
0.000272012
0.000143397
0.00489743
0.000143863
0.000142618
0.000163738
0.0127331
0.000159909
0.000162082
0.000244723
0.000151872
0.000193253
0.015132
0.0193701
0.000165532
0.000145039
0.000389242
0.000138494
0.000144669
0.000422093
0.0044804
0.000151298
0.000180451
0.00028727
0.000613429
0.000149151
0.000150483
0.00408964
0.000153113
0.000600117
0.000457642
0.000587559
0.000144883
0.000245957
0.000143296
0.00310343
0.000248865
0.000175781
0.000249085
0.0417094
0.000151278
0.000616203
0.0396641
0.000146427
0.0235841
0.000209535
0.000153153
0.0449777
0.000146308
0.000146264
0.000137187
0.000366854
0.000290446
0.000296945
0.00015464
0.000150505
0.000160203
0.002679
0.000426487
0.000647589
0.00811863
0.00014983
0.000251256
0.000369249
0.0313397
0.000225097
0.00564169
0.000140861
0.000235704
0.000137916
0.0106543
0.00019299
0.000143216
0.0222049
0.000346127
0.00016791
0.000561866
0.000134115
0.00015137
0.000203646
0.00017395
0.0109111
0.000199899
0.000207907
0.000218883
0.000300774
0.0392329
0.01209
0.000847153
0.000142758
0.000141603
0.000392109
0.0337105
0.0313041
0.00199568
0.00015648
0.00850561
0.00846212
0.000142984
0.000157117
0.000139502
0.000171756
0.00020071
0.00320327
0.0394188
0.000414249
0.000152685
0.0443528
0.00548206
0.000144123
0.000262097
0.00856623
0.0256169
0.000154779
0.000202766
0.000131971
0.000158901
0.000152544
0.000163543
0.00108818
0.0208027
0.0355498
0.0271808
0.000151684
0.000183788
0.000211094
0.000145945
0.000148408
0.000137808
0.0134937
0.000140541
0.00161285
0.000190096
0.000255577
0.00103716
0.00036888
0.00572883
0.000632413
0.00017092
0.000134539
0.000351833
0.000684406
0.00103418
0.000156782
0.000139366
0.000137899
0.000201093
0.000168257
0.000276568
0.0434322
0.000151369
0.000137367
0.000241105
0.00035134
0.005081
0.019556
0.000140137
0.000205206
0.000145966
0.00080625
0.00013562
0.00366519
0.000155441
0.000151179
0.000210794
0.000148038
0.00395606
0.000161484
0.00017804
0.0428465
0.0131596
0.00015776
0.000165174
0.000143007
0.000647773
0.0346337
0.000149387
0.000134977
0.00817187
0.00013163
0.00411549
0.000154467
0.000200391
0.000211506
0.00854806
0.000197496
0.000152525
0.000145792
0.000199138
0.0086578
0.000142284
0.0112987
0.0286389
0.0139908
0.000660451
0.000184051
0.00871979
0.000155614
0.0187351
0.000143384
0.00667859
0.00759647
0.00711752
0.011177
0.0412345
0.000185171
0.000292404
0.000141343
0.00516498
0.00589146
0.0102303
0.0437503
0.000167332
0.0401176
0.00974215
0.000186458
0.000155983
0.000146819
0.00517909
0.000163416
0.000198439
0.000162213
0.000147978
0.000138776
0.000147816
0.0214171
0.000384932
0.000171999
0.0243347
0.00992848
0.000167999
0.000143892
0.000137958
0.000197459
0.0036728
0.00037635
0.000164857
0.000166694
0.0114356
0.000225067
0.000175094
0.0308409
0.000170979
0.00214833
0.000160441
0.000184437
0.000143548
0.000162132
0.000203697
0.00491646
0.00582274
0.00528652
0.000210855
0.0195564
0.000194549
0.000157103
0.000153805
0.0400446
0.0308036
0.0041699
0.00660437
0.000154502
0.000145256
0.000141721
0.000143864
0.000138005
0.0260756
0.000167572
0.0368858
0.00017914
0.0425659
0.0342374
0.00554967
0.000249227
0.000156821
0.0146401
0.000193762
0.000518278
0.00415682
0.000138276
0.00100177
0.000160829
0.0381722
0.0117163
0.000183882
0.0078395
0.00520219
0.000156652
0.00023593
0.000162125
0.0552689
0.00180864
0.000156181
0.000145884
0.00634518
0.00109532
0.000310288
0.0028684
0.000261708
0.000201424
0.000143635
0.00681786
0.0043605
0.000227601
0.000160656
0.0194759
0.0159316
0.000141525
0.00014442
0.000156489
0.00991111
0.0128718
0.000143771
0.00505122
0.000150059
0.000142022
0.00014828
0.0244099
0.0231847
0.000713552
0.0296833
0.000156759
0.000154133
0.000140649
0.00912144
0.000152301
0.0177583
0.000158895
0.0227798
0.000148521
0.000142162
0.00030428
0.0249288
0.00756531
0.000181486
0.0484224
0.000145882
0.000146454
0.00014455
0.000177257
0.000197428
0.000196839
0.000197886
0.00564417
0.000155881
0.000333494
0.000258929
0.0372746
0.000149741
0.00581992
0.00625865
0.000155212
0.0108434
0.000195224
0.0282244
0.00014775
0.000226594
0.000145336
0.00037372
0.00511067
0.000256529
0.0046667
0.000159856
0.000180472
0.000154388
0.00541252
0.000134936
0.000139434
0.0030791
0.000249412
0.0281799
0.000595376
0.000193514
0.000164647
0.000137049
0.000667157
0.000212554
0.000155284
0.000270798
0.000169272
0.000173629
0.000145284
0.010963
0.000153814
0.00534492
0.00563663
0.000210797
0.000439088
0.000203754
0.000732694
0.000143931
0.0119182
0.00657837
0.000139263
0.000144462
0.000155703
0.000148737
0.000173996
0.000143027
0.0112876
0.000205006
0.00443315
0.00959007
0.000145765
0.0001499
0.000137619
0.000635178
0.000146743
0.000143773
0.000507431
0.000154113
0.0206931
0.00457889
0.000212802
0.000160362
0.000174738
0.000154126
0.000150082
0.00143495
0.000135693
0.000154436
0.0364585
0.00306043
0.000628922
0.000154066
0.00910799
0.0119808
0.000148772
0.00415449
0.0110439
0.000143814
0.000153895
0.000143371
0.000605219
0.0467128
0.000196097
0.000135496
0.000156843
0.000168682
0.000146073
0.000297691
0.000147197
0.000804521
0.0243876
0.00135226
0.000138135
0.00015454
0.000153304
0.0585457
0.000134134
0.0353293
0.04194
0.000378048
0.00881416
0.0317872
0.0419198
0.000159417
0.000422892
0.0120424
0.000151016
0.000136879
0.000140049
0.00548369
0.0226962
0.00774481
0.000150434
0.00169702
0.000147732
0.000805152
0.000141537
0.000157111
0.000151
0.000137998
0.0519155
0.000151038
0.0118093
0.0181507
0.025996
0.00018348
0.00018361
0.0396645
0.00941144
0.000148759
0.012738
0.000137444
0.000131868
0.000143672
0.000729109
0.000144271
0.040915
0.000201861
0.00628082
0.000199108
0.0402835
0.0301346
0.000274088
0.000137737
0.000210992
0.000226378
0.0508017
0.000150352
0.00013409
0.000157843
0.0245389
0.000147441
0.00645229
0.0411979
0.000171607
0.000198402
0.000150094
0.00716132
0.000148858
0.00333175
0.000135515
0.0152109
0.000161313
0.000146045
0.0395962
0.014731
0.000135667
0.00019477
0.000160519
0.00691154
0.000555691
0.000283048
0.00460671
0.000149352
0.000214371
0.0242946
0.00014931
0.000599974
0.000167756
0.000205125
0.000162216
0.0444315
0.010899
0.000146437
0.00562901
0.000152015
0.000174663
0.0173671
0.0405914
0.000192839
0.00816706
0.0200314
0.000145956
0.00611938
0.000248939
0.000160764
0.000150992
0.0393676
0.000135972
0.0454341
0.00198483
0.000358518
0.000143538
0.000191748
0.00662547
0.000175313
0.0504461
0.000150351
0.000156472
0.000267754
0.0322151
0.000156315
0.00851231
0.0126113
0.0393115
0.000148158
0.033111
0.0408391
0.0397221
0.000143964
0.00026572
0.000144763
0.00651952
0.000896363
0.00730195
0.00831183
0.000149843
0.000139012
0.000143851
0.0535675
0.000500041
0.0237901
0.0291811
0.00014049
0.0248
0.00866835
0.000264677
0.0185302
0.0074183
0.000194067
0.046762
0.000153655
0.000155989
0.000598315
0.0208376
0.000178284
0.0274265
0.000147601
0.000144609
0.0409116
0.00991061
0.000602803
0.00504108
0.000174756
0.000149601
0.000158368
0.00382374
0.0121906
0.000142392
0.00017819
0.0126906
0.000144641
0.000147323
0.0111962
0.0152104
0.000156349
0.000144116
0.000150754
0.0001551
0.00470756
0.000148729
0.000145932
0.000164878
0.000388431
0.0112812
0.008523
0.0437734
0.000146719
0.000163558
0.0097323
0.00869711
0.000174907
0.000302083
0.000143456
0.000166986
0.000152419
0.00018149
0.000208388
0.000145393
0.0136064
0.000183729
0.000141484
0.000162425
0.0416886
0.00568959
0.00636127
0.000144783
0.000167705
0.00628282
0.00328485
0.000154998
0.000149382
0.000144349
0.00717455
0.000147607
0.000150131
0.000164084
0.000144328
0.00887421
0.00691741
0.000149489
0.000158704
0.000134822
0.000147324
0.00756495
0.0107128
0.000202464
0.0152232
0.00756769
0.00014993
0.000143356
0.000146176
0.000144317
0.000148997
0.000160749
0.00024183
0.0190887
0.000161813
0.000263737
0.00716325
0.00281779
0.000143207
0.000139504
0.000153554
0.0470942
0.000143807
0.0304795
0.000424262
0.00019284
0.00016949
0.00534496
0.000138083
0.000198014
0.00013716
0.000138235
0.000147528
0.000140487
0.000680878
0.0144334
0.000195173
0.000173915
0.00551215
0.0127528
0.0117668
0.000161763
0.00924097
0.0246263
0.00027253
0.0490869
0.0101379
0.000243277
0.0089553
0.000148952
0.000144782
0.00540249
0.000141269
0.000158392
0.0268543
0.000859235
0.0117987
0.000241912
0.000140588
0.000565886
0.000146915
0.00139064
0.000141217
0.000423767
0.0191738
0.0165794
0.00476734
0.000147112
0.000136569
0.000202501
0.0129987
0.00814898
0.0003916
0.000466555
0.000140124
0.000472934
0.00402234
0.00168053
0.000161172
0.000147567
0.000144358
0.000158753
0.000145317
0.000144196
0.000157921
0.00881126
0.000208186
0.00633415
0.0111677
0.037373
0.000295467
0.000143298
0.000143279
0.000156888
0.000138257
0.000148677
0.00859737
0.0478038
0.00394983
0.00230181
0.000153258
0.0361562
0.000357836
0.00798797
0.00418287
0.000146806
0.000140638
0.0056599
0.000147147
0.000135851
0.00585674
0.00848944
0.000569532
0.000145206
0.000146919
0.000188178
0.00017865
0.0443048
0.000137569
0.000162443
0.00058564
0.000143964
0.00719313
0.000178752
0.0327327
0.000149365
0.000418997
0.0113242
0.000186738
0.00473554
0.000252478
0.00542162
0.000136214
0.000163697
0.000141049
0.000170954
0.030264
0.000152827
0.0403894
0.000153314
0.000147087
0.000144092
0.00394941
0.000174902
0.000259015
0.00110873
0.000138121
0.000202494
0.0453593
0.000207378
0.000145607
0.000161529
0.000147063
0.000234274
0.000148459
0.000142115
0.00167543
0.000761809
0.00649943
0.0016949
0.00353016
0.0385562
0.000198874
0.000911493
0.000363808
0.000135491
0.00014613
0.000131698
0.000148554
0.00295843
0.00495851
0.000140015
0.0346991
0.00257373
0.000159424
0.000161105
0.000167724
0.0469403
0.0124747
0.00806383
0.000462978
0.00782372
0.000131707
0.00190183
0.000257034
0.00668565
0.000595519
0.00014389
0.000253393
0.0437643
0.000181488
0.0127848
0.000149952
0.000371394
0.041443
0.00487305
0.000202176
0.000171402
0.00616451
0.000249734
0.00374197
0.00549648
0.00929557
0.000245419
0.0341985
0.00014728
0.000173905
0.000177966
0.00497338
0.00583881
0.00490287
0.00015237
0.000370269
0.000242046
0.000154205
0.00921967
0.000143854
0.000267468
0.00582589
0.000143774
0.0405689
0.0494263
0.00408429
0.0409336
0.0338355
0.0100532
0.000144342
0.00217534
0.000151402
0.000145821
0.000171755
0.000156191
0.00519828
0.000155826
0.000168764
0.000157594
0.000140532
0.0471762
0.00015578
0.000251111
0.00608409
0.000138136
0.00402271
0.000253421
0.000163455
0.0451594
0.00050203
0.00014353
0.000357569
0.000151054
0.00296317
0.0101766
0.000140546
0.000236084
0.000155875
0.00111678
0.00718868
0.000204053
0.00243067
0.000169181
0.000144419
0.0329869
0.000154424
0.000145119
0.000580211
0.000172529
0.000139963
0.000141366
0.000373302
0.000155577
0.0068186
0.00121581
0.00146281
0.0346337
0.000184164
0.000201199
0.000145091
0.000880574
0.00497123
0.0193502
0.000144042
0.000138461
0.000207267
0.000174692
0.00802302
0.000145257
0.0137301
0.000147645
0.000416215
0.000149593
0.00433797
0.0105436
0.00024185
0.00417911
0.0193162
0.0122566
0.00744231
0.000131899
0.000499593
0.000516776
0.00495191
0.000142336
0.0140775
0.00506357
0.0135902
0.000239846
0.0118634
0.0141718
0.000683105
0.000177148
0.000528497
0.000137849
0.000178506
0.000174409
0.000143618
0.000198962
0.0303996
0.000366477
0.0171804
0.000442443
0.000142255
0.0001409
0.000176621
0.000143722
0.00642858
0.000137727
0.000140946
0.000608125
0.000374131
0.000195647
0.000250822
0.000155842
0.000246913
0.0335178
0.00591765
0.0327518
0.000155845
0.00656471
0.000154561
0.00013779
0.000152981
0.00721237
0.000362231
0.00315902
0.000387467
0.000151648
0.000141815
0.00014377
0.000148952
0.000157718
0.0221616
0.000489671
0.000165996
0.00831934
0.00715198
0.0118719
0.025435
0.000144849
0.000163525
0.0154106
0.000144349
0.000609037
0.000160817
0.000155856
0.0515287
0.00556221
0.000137809
0.000171499
0.000166425
0.000211671
0.0369537
0.0394594
0.00104218
0.000148152
0.000207437
0.00287473
0.000207891
0.000237136
0.00939802
0.0434705
0.000590853
0.00106446
0.000137353
0.0304706
0.000139843
0.000155859
0.000144443
0.000198293
0.000602174
0.00515025
0.0142717
0.00835311
0.000192486
0.000135291
0.00013944
0.000147149
0.000155606
0.000174396
0.000736557
0.00185913
0.000204172
0.00367181
0.000148479
0.000192576
0.000138666
0.00406103
0.000248932
0.000147502
0.00146503
0.000246477
0.00505584
0.00475273
0.000474063
0.0186651
0.000161223
0.0174705
0.000463696
0.000616755
0.00657724
0.00015373
0.000192791
0.000146306
0.0150219
0.0364301
0.000173736
0.00950397
0.000474189
0.00723492
0.000207922
0.000254673
0.0002133
0.000139844
0.000242116
0.000213138
0.000156431
0.000193394
0.000167204
0.000172993
0.0453002
0.000298245
0.000157942
0.00017309
0.000167308
0.000181346
0.000164362
0.0376037
0.000285
0.00791363
0.0081594
0.000145001
0.0049569
0.000144222
0.000163709
0.000158551
0.00562792
0.000189761
0.00295713
0.0303231
0.00019857
0.0014886
0.000247559
0.0283175
0.000259942
0.00578704
0.000162597
0.000177117
0.000144249
0.00366349
0.00775307
0.000161992
0.000153187
0.000189542
0.000157392
0.00016049
0.000180671
0.000171279
0.000148004
0.000186734
0.0354958
0.0269398
0.000300719
0.000171594
0.000133514
0.0270499
0.00016246
0.000194127
0.0108693
0.000174925
0.0119345
0.000136143
0.000165952
0.000162767
0.000186154
0.000142972
0.00352951
0.00616778
0.0383481
0.000193417
0.00750169
0.000372503
0.00015683
0.0293446
0.000195584
0.000379411
0.00740943
0.000232974
0.000156835
0.000172345
0.000208624
0.000163955
0.000545512
0.0042206
0.00597858
0.000139887
0.000366285
0.0205432
0.000512389
0.000143298
0.000175062
0.000145338
0.000172901
0.0470967
0.000169131
0.000166021
0.000140069
0.000139883
0.00247044
0.00796046
0.000144589
0.0039945
0.000387993
0.000135502
0.000245492
0.00348483
0.000310219
0.000244882
0.000144392
0.000161875
0.000291858
0.000153525
0.000142209
0.0422254
0.00016432
0.00368516
0.000209742
0.00015835
0.00059597
0.000402213
0.000794108
0.000140216
0.00757967
0.000160112
0.000159892
0.00649643
0.00017083
0.000147563
0.000247516
0.00015675
0.000174362
0.000136068
0.000997119
0.000144827
0.000248707
0.0380777
0.000260512
0.00014088
0.0207604
0.000161016
0.0638064
0.00866593
0.00538633
0.000331488
0.00509904
0.00013889
0.000208501
0.000156396
0.000141859
0.00786402
0.0343919
0.000155385
0.0122067
0.000217771
0.00020609
0.00493897
0.000157308
0.0114472
0.0128156
0.0120689
0.0267168
0.000389394
0.000703337
0.000140328
0.000248963
0.000189656
0.00587279
0.00586802
0.00448141
0.0388128
0.00471878
0.000139726
0.000366816
0.000143941
0.000151229
0.000147717
0.00775472
0.00770055
0.000266226
0.000141442
0.0082209
0.000161858